PSF

      13 !NTITLE
 REMARKS original generated structure x-plor psf file
 REMARKS topology C:/Program 
 REMARKS topology C:/Program Files (x86)/University of Illinois/VMD/plugins/noarch/tcl/readcharmmtop1.2/toppar_water_ions_namd.str 
 REMARKS segment SHT { first ; last ; auto none  }
 REMARKS segment WT1 { first NONE; last NONE; auto none  }
 REMARKS segment WT2 { first NONE; last NONE; auto none  }
 REMARKS segment WT3 { first NONE; last NONE; auto none  }
 REMARKS segment WT4 { first NONE; last NONE; auto none  }
 REMARKS segment WT5 { first NONE; last NONE; auto none  }
 REMARKS segment WT6 { first NONE; last NONE; auto none  }
 REMARKS segment WT7 { first NONE; last NONE; auto none  }
 REMARKS segment WT8 { first NONE; last NONE; auto none  }
 REMARKS segment ION { first NONE; last NONE; auto none  }

  124787 !NATOM
       1 SHT  1    S    C    CA     0.031624       12.0107           0
       2 SHT  2    S    C    CA     0.031624       12.0107           0
       3 SHT  3    S    C    CA     0.031624       12.0107           0
       4 SHT  4    S    C    CA     0.031624       12.0107           0
       5 SHT  5    S    C    CA     0.031624       12.0107           0
       6 SHT  6    S    C    CA     0.031624       12.0107           0
       7 SHT  7    S    C    CA     0.031624       12.0107           0
       8 SHT  8    S    C    CA     0.031624       12.0107           0
       9 SHT  9    S    C    CA     0.031624       12.0107           0
      10 SHT  10   S    C    CA     0.031624       12.0107           0
      11 SHT  11   S    C    CA     0.031624       12.0107           0
      12 SHT  12   S    C    CA     0.031624       12.0107           0
      13 SHT  13   S    C    CA     0.031624       12.0107           0
      14 SHT  14   S    C    CA     0.031624       12.0107           0
      15 SHT  15   S    C    CA     0.031624       12.0107           0
      16 SHT  16   S    C    CA     0.031624       12.0107           0
      17 SHT  17   S    C    CA     0.031624       12.0107           0
      18 SHT  18   S    C    CA     0.031624       12.0107           0
      19 SHT  19   S    C    CA     0.031624       12.0107           0
      20 SHT  20   S    C    CA     0.031624       12.0107           0
      21 SHT  21   S    C    CA     0.031624       12.0107           0
      22 SHT  22   S    C    CA     0.031624       12.0107           0
      23 SHT  23   S    C    CA     0.031624       12.0107           0
      24 SHT  24   S    C    CA     0.031624       12.0107           0
      25 SHT  25   S    C    CA     0.031624       12.0107           0
      26 SHT  26   S    C    CA     0.031624       12.0107           0
      27 SHT  27   S    C    CA     0.031624       12.0107           0
      28 SHT  28   S    C    CA     0.031624       12.0107           0
      29 SHT  29   S    C    CA     0.031624       12.0107           0
      30 SHT  30   S    C    CA     0.031624       12.0107           0
      31 SHT  31   S    C    CA     0.031624       12.0107           0
      32 SHT  32   S    C    CA     0.031624       12.0107           0
      33 SHT  33   S    C    CA     0.031624       12.0107           0
      34 SHT  34   S    C    CA     0.031624       12.0107           0
      35 SHT  35   S    C    CA     0.031624       12.0107           0
      36 SHT  36   S    C    CA     0.031624       12.0107           0
      37 SHT  37   S    C    CA     0.031624       12.0107           0
      38 SHT  38   S    C    CA     0.031624       12.0107           0
      39 SHT  39   S    C    CA     0.031624       12.0107           0
      40 SHT  40   S    C    CA     0.031624       12.0107           0
      41 SHT  41   S    C    CA     0.031624       12.0107           0
      42 SHT  42   S    C    CA     0.031624       12.0107           0
      43 SHT  43   S    C    CA     0.031624       12.0107           0
      44 SHT  44   S    C    CA     0.031624       12.0107           0
      45 SHT  45   S    C    CA     0.031624       12.0107           0
      46 SHT  46   S    C    CA     0.031624       12.0107           0
      47 SHT  47   S    C    CA     0.031624       12.0107           0
      48 SHT  48   S    C    CA     0.031624       12.0107           0
      49 SHT  49   S    C    CA     0.031624       12.0107           0
      50 SHT  50   S    C    CA     0.031624       12.0107           0
      51 SHT  51   S    C    CA     0.031624       12.0107           0
      52 SHT  52   S    C    CA     0.031624       12.0107           0
      53 SHT  53   S    C    CA     0.031624       12.0107           0
      54 SHT  54   S    C    CA     0.031624       12.0107           0
      55 SHT  55   S    C    CA     0.031624       12.0107           0
      56 SHT  56   S    C    CA     0.031624       12.0107           0
      57 SHT  57   S    C    CA     0.031624       12.0107           0
      58 SHT  58   S    C    CA     0.031624       12.0107           0
      59 SHT  59   S    C    CA     0.031624       12.0107           0
      60 SHT  60   S    C    CA     0.031624       12.0107           0
      61 SHT  61   S    C    CA     0.031624       12.0107           0
      62 SHT  62   S    C    CA     0.031624       12.0107           0
      63 SHT  63   S    C    CA     0.031624       12.0107           0
      64 SHT  64   S    C    CA     0.031624       12.0107           0
      65 SHT  65   S    C    CA     0.031624       12.0107           0
      66 SHT  66   S    C    CA     0.031624       12.0107           0
      67 SHT  67   S    C    CA     0.031624       12.0107           0
      68 SHT  68   S    C    CA     0.031624       12.0107           0
      69 SHT  69   S    C    CA     0.031624       12.0107           0
      70 SHT  70   S    C    CA     0.031624       12.0107           0
      71 SHT  71   S    C    CA     0.031624       12.0107           0
      72 SHT  72   S    C    CA     0.031624       12.0107           0
      73 SHT  73   S    C    CA     0.031624       12.0107           0
      74 SHT  74   S    C    CA     0.031624       12.0107           0
      75 SHT  75   S    C    CA     0.031624       12.0107           0
      76 SHT  76   S    C    CA     0.031624       12.0107           0
      77 SHT  77   S    C    CA     0.031624       12.0107           0
      78 SHT  78   S    C    CA     0.031624       12.0107           0
      79 SHT  79   S    C    CA     0.031624       12.0107           0
      80 SHT  80   S    C    CA     0.031624       12.0107           0
      81 SHT  81   S    C    CA     0.031624       12.0107           0
      82 SHT  82   S    C    CA     0.031624       12.0107           0
      83 SHT  83   S    C    CA     0.031624       12.0107           0
      84 SHT  84   S    C    CA     0.031624       12.0107           0
      85 SHT  85   S    C    CA     0.031624       12.0107           0
      86 SHT  86   S    C    CA     0.031624       12.0107           0
      87 SHT  87   S    C    CA     0.031624       12.0107           0
      88 SHT  88   S    C    CA     0.031624       12.0107           0
      89 SHT  89   S    C    CA     0.031624       12.0107           0
      90 SHT  90   S    C    CA     0.031624       12.0107           0
      91 SHT  91   S    C    CA     0.031624       12.0107           0
      92 SHT  92   S    C    CA     0.031624       12.0107           0
      93 SHT  93   S    C    CA     0.031624       12.0107           0
      94 SHT  94   S    C    CA     0.031624       12.0107           0
      95 SHT  95   S    C    CA     0.031624       12.0107           0
      96 SHT  96   S    C    CA     0.031624       12.0107           0
      97 SHT  97   S    C    CA     0.031624       12.0107           0
      98 SHT  98   S    C    CA     0.031624       12.0107           0
      99 SHT  99   S    C    CA     0.031624       12.0107           0
     100 SHT  100  S    C    CA     0.031624       12.0107           0
     101 SHT  101  S    C    CA     0.031624       12.0107           0
     102 SHT  102  S    C    CA     0.031624       12.0107           0
     103 SHT  103  S    C    CA     0.031624       12.0107           0
     104 SHT  104  S    C    CA     0.031624       12.0107           0
     105 SHT  105  S    C    CA     0.031624       12.0107           0
     106 SHT  106  S    C    CA     0.031624       12.0107           0
     107 SHT  107  S    C    CA     0.031624       12.0107           0
     108 SHT  108  S    C    CA     0.031624       12.0107           0
     109 SHT  109  S    C    CA     0.031624       12.0107           0
     110 SHT  110  S    C    CA     0.031624       12.0107           0
     111 SHT  111  S    C    CA     0.031624       12.0107           0
     112 SHT  112  S    C    CA     0.031624       12.0107           0
     113 SHT  113  S    C    CA     0.031624       12.0107           0
     114 SHT  114  S    C    CA     0.031624       12.0107           0
     115 SHT  115  S    C    CA     0.031624       12.0107           0
     116 SHT  116  S    C    CA     0.031624       12.0107           0
     117 SHT  117  S    C    CA     0.031624       12.0107           0
     118 SHT  118  S    C    CA     0.031624       12.0107           0
     119 SHT  119  S    C    CA     0.031624       12.0107           0
     120 SHT  120  S    C    CA     0.031624       12.0107           0
     121 SHT  121  S    C    CA     0.031624       12.0107           0
     122 SHT  122  S    C    CA     0.031624       12.0107           0
     123 SHT  123  S    C    CA     0.031624       12.0107           0
     124 SHT  124  S    C    CA     0.031624       12.0107           0
     125 SHT  125  S    C    CA     0.031624       12.0107           0
     126 SHT  126  S    C    CA     0.031624       12.0107           0
     127 SHT  127  S    C    CA     0.031624       12.0107           0
     128 SHT  128  S    C    CA     0.031624       12.0107           0
     129 SHT  129  S    C    CA     0.031624       12.0107           0
     130 SHT  130  S    C    CA     0.031624       12.0107           0
     131 SHT  131  S    C    CA     0.031624       12.0107           0
     132 SHT  132  S    C    CA     0.031624       12.0107           0
     133 SHT  133  S    C    CA     0.031624       12.0107           0
     134 SHT  134  S    C    CA     0.031624       12.0107           0
     135 SHT  135  S    C    CA     0.031624       12.0107           0
     136 SHT  136  S    C    CA     0.031624       12.0107           0
     137 SHT  137  S    C    CA     0.031624       12.0107           0
     138 SHT  138  S    C    CA     0.031624       12.0107           0
     139 SHT  139  S    C    CA     0.031624       12.0107           0
     140 SHT  140  S    C    CA     0.031624       12.0107           0
     141 SHT  141  S    C    CA     0.031624       12.0107           0
     142 SHT  142  S    C    CA     0.031624       12.0107           0
     143 SHT  143  S    C    CA     0.031624       12.0107           0
     144 SHT  144  S    C    CA     0.031624       12.0107           0
     145 SHT  145  S    C    CA     0.031624       12.0107           0
     146 SHT  146  S    C    CA     0.031624       12.0107           0
     147 SHT  147  S    C    CA     0.031624       12.0107           0
     148 SHT  148  S    C    CA     0.031624       12.0107           0
     149 SHT  149  S    C    CA     0.031624       12.0107           0
     150 SHT  150  S    C    CA     0.031624       12.0107           0
     151 SHT  151  S    C    CA     0.031624       12.0107           0
     152 SHT  152  S    C    CA     0.031624       12.0107           0
     153 SHT  153  S    C    CA     0.031624       12.0107           0
     154 SHT  154  S    C    CA     0.031624       12.0107           0
     155 SHT  155  S    C    CA     0.031624       12.0107           0
     156 SHT  156  S    C    CA     0.031624       12.0107           0
     157 SHT  157  S    C    CA     0.031624       12.0107           0
     158 SHT  158  S    C    CA     0.031624       12.0107           0
     159 SHT  159  S    C    CA     0.031624       12.0107           0
     160 SHT  160  S    C    CA     0.031624       12.0107           0
     161 SHT  161  S    C    CA     0.031624       12.0107           0
     162 SHT  162  S    C    CA     0.031624       12.0107           0
     163 SHT  163  S    C    CA     0.031624       12.0107           0
     164 SHT  164  S    C    CA     0.031624       12.0107           0
     165 SHT  165  S    C    CA     0.031624       12.0107           0
     166 SHT  166  S    C    CA     0.031624       12.0107           0
     167 SHT  167  S    C    CA     0.031624       12.0107           0
     168 SHT  168  S    C    CA     0.031624       12.0107           0
     169 SHT  169  S    C    CA     0.031624       12.0107           0
     170 SHT  170  S    C    CA     0.031624       12.0107           0
     171 SHT  171  S    C    CA     0.031624       12.0107           0
     172 SHT  172  S    C    CA     0.031624       12.0107           0
     173 SHT  173  S    C    CA     0.031624       12.0107           0
     174 SHT  174  S    C    CA     0.031624       12.0107           0
     175 SHT  175  S    C    CA     0.031624       12.0107           0
     176 SHT  176  S    C    CA     0.031624       12.0107           0
     177 SHT  177  S    C    CA     0.031624       12.0107           0
     178 SHT  178  S    C    CA     0.031624       12.0107           0
     179 SHT  179  S    C    CA     0.031624       12.0107           0
     180 SHT  180  S    C    CA     0.031624       12.0107           0
     181 SHT  181  S    C    CA     0.031624       12.0107           0
     182 SHT  182  S    C    CA     0.031624       12.0107           0
     183 SHT  183  S    C    CA     0.031624       12.0107           0
     184 SHT  184  S    C    CA     0.031624       12.0107           0
     185 SHT  185  S    C    CA     0.031624       12.0107           0
     186 SHT  186  S    C    CA     0.031624       12.0107           0
     187 SHT  187  S    C    CA     0.031624       12.0107           0
     188 SHT  188  S    C    CA     0.031624       12.0107           0
     189 SHT  189  S    C    CA     0.031624       12.0107           0
     190 SHT  190  S    C    CA     0.031624       12.0107           0
     191 SHT  191  S    C    CA     0.031624       12.0107           0
     192 SHT  192  S    C    CA     0.031624       12.0107           0
     193 SHT  193  S    C    CA     0.031624       12.0107           0
     194 SHT  194  S    C    CA     0.031624       12.0107           0
     195 SHT  195  S    C    CA     0.031624       12.0107           0
     196 SHT  196  S    C    CA     0.031624       12.0107           0
     197 SHT  197  S    C    CA     0.031624       12.0107           0
     198 SHT  198  S    C    CA     0.031624       12.0107           0
     199 SHT  199  S    C    CA     0.031624       12.0107           0
     200 SHT  200  S    C    CA     0.031624       12.0107           0
     201 SHT  201  S    C    CA     0.031624       12.0107           0
     202 SHT  202  S    C    CA     0.031624       12.0107           0
     203 SHT  203  S    C    CA     0.031624       12.0107           0
     204 SHT  204  S    C    CA     0.031624       12.0107           0
     205 SHT  205  S    C    CA     0.031624       12.0107           0
     206 SHT  206  S    C    CA     0.031624       12.0107           0
     207 SHT  207  S    C    CA     0.031624       12.0107           0
     208 SHT  208  S    C    CA     0.031624       12.0107           0
     209 SHT  209  S    C    CA     0.031624       12.0107           0
     210 SHT  210  S    C    CA     0.031624       12.0107           0
     211 SHT  211  S    C    CA     0.031624       12.0107           0
     212 SHT  212  S    C    CA     0.031624       12.0107           0
     213 SHT  213  S    C    CA     0.031624       12.0107           0
     214 SHT  214  S    C    CA     0.031624       12.0107           0
     215 SHT  215  S    C    CA     0.031624       12.0107           0
     216 SHT  216  S    C    CA     0.031624       12.0107           0
     217 SHT  217  S    C    CA     0.031624       12.0107           0
     218 SHT  218  S    C    CA     0.031624       12.0107           0
     219 SHT  219  S    C    CA     0.031624       12.0107           0
     220 SHT  220  S    C    CA     0.031624       12.0107           0
     221 SHT  221  S    C    CA     0.031624       12.0107           0
     222 SHT  222  S    C    CA     0.031624       12.0107           0
     223 SHT  223  S    C    CA     0.031624       12.0107           0
     224 SHT  224  S    C    CA     0.031624       12.0107           0
     225 SHT  225  S    C    CA     0.031624       12.0107           0
     226 SHT  226  S    C    CA     0.031624       12.0107           0
     227 SHT  227  S    C    CA     0.031624       12.0107           0
     228 SHT  228  S    C    CA     0.031624       12.0107           0
     229 SHT  229  S    C    CA     0.031624       12.0107           0
     230 SHT  230  S    C    CA     0.031624       12.0107           0
     231 SHT  231  S    C    CA     0.031624       12.0107           0
     232 SHT  232  S    C    CA     0.031624       12.0107           0
     233 SHT  233  S    C    CA     0.031624       12.0107           0
     234 SHT  234  S    C    CA     0.031624       12.0107           0
     235 SHT  235  S    C    CA     0.031624       12.0107           0
     236 SHT  236  S    C    CA     0.031624       12.0107           0
     237 SHT  237  S    C    CA     0.031624       12.0107           0
     238 SHT  238  S    C    CA     0.031624       12.0107           0
     239 SHT  239  S    C    CA     0.031624       12.0107           0
     240 SHT  240  S    C    CA     0.031624       12.0107           0
     241 SHT  241  S    C    CA     0.031624       12.0107           0
     242 SHT  242  S    C    CA     0.031624       12.0107           0
     243 SHT  243  S    C    CA     0.031624       12.0107           0
     244 SHT  244  S    C    CA     0.031624       12.0107           0
     245 SHT  245  S    C    CA     0.031624       12.0107           0
     246 SHT  246  S    C    CA     0.031624       12.0107           0
     247 SHT  247  S    C    CA     0.031624       12.0107           0
     248 SHT  248  S    C    CA     0.031624       12.0107           0
     249 SHT  249  S    C    CA     0.031624       12.0107           0
     250 SHT  250  S    C    CA     0.031624       12.0107           0
     251 SHT  251  S    C    CA     0.031624       12.0107           0
     252 SHT  252  S    C    CA     0.031624       12.0107           0
     253 SHT  253  S    C    CA     0.031624       12.0107           0
     254 SHT  254  S    C    CA     0.031624       12.0107           0
     255 SHT  255  S    C    CA     0.031624       12.0107           0
     256 SHT  256  S    C    CA     0.031624       12.0107           0
     257 SHT  257  S    C    CA     0.031624       12.0107           0
     258 SHT  258  S    C    CA     0.031624       12.0107           0
     259 SHT  259  S    C    CA     0.031624       12.0107           0
     260 SHT  260  S    C    CA     0.031624       12.0107           0
     261 SHT  261  S    C    CA     0.031624       12.0107           0
     262 SHT  262  S    C    CA     0.031624       12.0107           0
     263 SHT  263  S    C    CA     0.031624       12.0107           0
     264 SHT  264  S    C    CA     0.031624       12.0107           0
     265 SHT  265  S    C    CA     0.031624       12.0107           0
     266 SHT  266  S    C    CA     0.031624       12.0107           0
     267 SHT  267  S    C    CA     0.031624       12.0107           0
     268 SHT  268  S    C    CA     0.031624       12.0107           0
     269 SHT  269  S    C    CA     0.031624       12.0107           0
     270 SHT  270  S    C    CA     0.031624       12.0107           0
     271 SHT  271  S    C    CA     0.031624       12.0107           0
     272 SHT  272  S    C    CA     0.031624       12.0107           0
     273 SHT  273  S    C    CA     0.031624       12.0107           0
     274 SHT  274  S    C    CA     0.031624       12.0107           0
     275 SHT  275  S    C    CA     0.031624       12.0107           0
     276 SHT  276  S    C    CA     0.031624       12.0107           0
     277 SHT  277  S    C    CA     0.031624       12.0107           0
     278 SHT  278  S    C    CA     0.031624       12.0107           0
     279 SHT  279  S    C    CA     0.031624       12.0107           0
     280 SHT  280  S    C    CA     0.031624       12.0107           0
     281 SHT  281  S    C    CA     0.031624       12.0107           0
     282 SHT  282  S    C    CA     0.031624       12.0107           0
     283 SHT  283  S    C    CA     0.031624       12.0107           0
     284 SHT  284  S    C    CA     0.031624       12.0107           0
     285 SHT  285  S    C    CA     0.031624       12.0107           0
     286 SHT  286  S    C    CA     0.031624       12.0107           0
     287 SHT  287  S    C    CA     0.031624       12.0107           0
     288 SHT  288  S    C    CA     0.031624       12.0107           0
     289 SHT  289  S    C    CA     0.031624       12.0107           0
     290 SHT  290  S    C    CA     0.031624       12.0107           0
     291 SHT  291  S    C    CA     0.031624       12.0107           0
     292 SHT  292  S    C    CA     0.031624       12.0107           0
     293 SHT  293  S    C    CA     0.031624       12.0107           0
     294 SHT  294  S    C    CA     0.031624       12.0107           0
     295 SHT  295  S    C    CA     0.031624       12.0107           0
     296 SHT  296  S    C    CA     0.031624       12.0107           0
     297 SHT  297  S    C    CA     0.031624       12.0107           0
     298 SHT  298  S    C    CA     0.031624       12.0107           0
     299 SHT  299  S    C    CA     0.031624       12.0107           0
     300 SHT  300  S    C    CA     0.031624       12.0107           0
     301 SHT  301  S    C    CA     0.031624       12.0107           0
     302 SHT  302  S    C    CA     0.031624       12.0107           0
     303 SHT  303  S    C    CA     0.031624       12.0107           0
     304 SHT  304  S    C    CA     0.031624       12.0107           0
     305 SHT  305  S    C    CA     0.031624       12.0107           0
     306 SHT  306  S    C    CA     0.031624       12.0107           0
     307 SHT  307  S    C    CA     0.031624       12.0107           0
     308 SHT  308  S    C    CA     0.031624       12.0107           0
     309 SHT  309  S    C    CA     0.031624       12.0107           0
     310 SHT  310  S    C    CA     0.031624       12.0107           0
     311 SHT  311  S    C    CA     0.031624       12.0107           0
     312 SHT  312  S    C    CA     0.031624       12.0107           0
     313 SHT  313  S    C    CA     0.031624       12.0107           0
     314 SHT  314  S    C    CA     0.031624       12.0107           0
     315 SHT  315  S    C    CA     0.031624       12.0107           0
     316 SHT  316  S    C    CA     0.031624       12.0107           0
     317 SHT  317  S    C    CA     0.031624       12.0107           0
     318 SHT  318  S    C    CA     0.031624       12.0107           0
     319 SHT  319  S    C    CA     0.031624       12.0107           0
     320 SHT  320  S    C    CA     0.031624       12.0107           0
     321 SHT  321  S    C    CA     0.031624       12.0107           0
     322 SHT  322  S    C    CA     0.031624       12.0107           0
     323 SHT  323  S    C    CA     0.031624       12.0107           0
     324 SHT  324  S    C    CA     0.031624       12.0107           0
     325 SHT  325  S    C    CA     0.031624       12.0107           0
     326 SHT  326  S    C    CA     0.031624       12.0107           0
     327 SHT  327  S    C    CA     0.031624       12.0107           0
     328 SHT  328  S    C    CA     0.031624       12.0107           0
     329 SHT  329  S    C    CA     0.031624       12.0107           0
     330 SHT  330  S    C    CA     0.031624       12.0107           0
     331 SHT  331  S    C    CA     0.031624       12.0107           0
     332 SHT  332  S    C    CA     0.031624       12.0107           0
     333 SHT  333  S    C    CA     0.031624       12.0107           0
     334 SHT  334  S    C    CA     0.031624       12.0107           0
     335 SHT  335  S    C    CA     0.031624       12.0107           0
     336 SHT  336  S    C    CA     0.031624       12.0107           0
     337 SHT  337  S    C    CA     0.031624       12.0107           0
     338 SHT  338  S    C    CA     0.031624       12.0107           0
     339 SHT  339  S    C    CA     0.031624       12.0107           0
     340 SHT  340  S    C    CA     0.031624       12.0107           0
     341 SHT  341  S    C    CA     0.031624       12.0107           0
     342 SHT  342  S    C    CA     0.031624       12.0107           0
     343 SHT  343  S    C    CA     0.031624       12.0107           0
     344 SHT  344  S    C    CA     0.031624       12.0107           0
     345 SHT  345  S    C    CA     0.031624       12.0107           0
     346 SHT  346  S    C    CA     0.031624       12.0107           0
     347 SHT  347  S    C    CA     0.031624       12.0107           0
     348 SHT  348  S    C    CA     0.031624       12.0107           0
     349 SHT  349  S    C    CA     0.031624       12.0107           0
     350 SHT  350  S    C    CA     0.031624       12.0107           0
     351 SHT  351  S    C    CA     0.031624       12.0107           0
     352 SHT  352  S    C    CA     0.031624       12.0107           0
     353 SHT  353  S    C    CA     0.031624       12.0107           0
     354 SHT  354  S    C    CA     0.031624       12.0107           0
     355 SHT  355  S    C    CA     0.031624       12.0107           0
     356 SHT  356  S    C    CA     0.031624       12.0107           0
     357 SHT  357  S    C    CA     0.031624       12.0107           0
     358 SHT  358  S    C    CA     0.031624       12.0107           0
     359 SHT  359  S    C    CA     0.031624       12.0107           0
     360 SHT  360  S    C    CA     0.031624       12.0107           0
     361 SHT  361  S    C    CA     0.031624       12.0107           0
     362 SHT  362  S    C    CA     0.031624       12.0107           0
     363 SHT  363  S    C    CA     0.031624       12.0107           0
     364 SHT  364  S    C    CA     0.031624       12.0107           0
     365 SHT  365  S    C    CA     0.031624       12.0107           0
     366 SHT  366  S    C    CA     0.031624       12.0107           0
     367 SHT  367  S    C    CA     0.031624       12.0107           0
     368 SHT  368  S    C    CA     0.031624       12.0107           0
     369 SHT  369  S    C    CA     0.031624       12.0107           0
     370 SHT  370  S    C    CA     0.031624       12.0107           0
     371 SHT  371  S    C    CA     0.031624       12.0107           0
     372 SHT  372  S    C    CA     0.031624       12.0107           0
     373 SHT  373  S    C    CA     0.031624       12.0107           0
     374 SHT  374  S    C    CA     0.031624       12.0107           0
     375 SHT  375  S    C    CA     0.031624       12.0107           0
     376 SHT  376  S    C    CA     0.031624       12.0107           0
     377 SHT  377  S    C    CA     0.031624       12.0107           0
     378 SHT  378  S    C    CA     0.031624       12.0107           0
     379 SHT  379  S    C    CA     0.031624       12.0107           0
     380 SHT  380  S    C    CA     0.031624       12.0107           0
     381 SHT  381  S    C    CA     0.031624       12.0107           0
     382 SHT  382  S    C    CA     0.031624       12.0107           0
     383 SHT  383  S    C    CA     0.031624       12.0107           0
     384 SHT  384  S    C    CA     0.031624       12.0107           0
     385 SHT  385  S    C    CA     0.031624       12.0107           0
     386 SHT  386  S    C    CA     0.031624       12.0107           0
     387 SHT  387  S    C    CA     0.031624       12.0107           0
     388 SHT  388  S    C    CA     0.031624       12.0107           0
     389 SHT  389  S    C    CA     0.031624       12.0107           0
     390 SHT  390  S    C    CA     0.031624       12.0107           0
     391 SHT  391  S    C    CA     0.031624       12.0107           0
     392 SHT  392  S    C    CA     0.031624       12.0107           0
     393 SHT  393  S    C    CA     0.031624       12.0107           0
     394 SHT  394  S    C    CA     0.031624       12.0107           0
     395 SHT  395  S    C    CA     0.031624       12.0107           0
     396 SHT  396  S    C    CA     0.031624       12.0107           0
     397 SHT  397  S    C    CA     0.031624       12.0107           0
     398 SHT  398  S    C    CA     0.031624       12.0107           0
     399 SHT  399  S    C    CA     0.031624       12.0107           0
     400 SHT  400  S    C    CA     0.031624       12.0107           0
     401 SHT  401  S    C    CA     0.031624       12.0107           0
     402 SHT  402  S    C    CA     0.031624       12.0107           0
     403 SHT  403  S    C    CA     0.031624       12.0107           0
     404 SHT  404  S    C    CA     0.031624       12.0107           0
     405 SHT  405  S    C    CA     0.031624       12.0107           0
     406 SHT  406  S    C    CA     0.031624       12.0107           0
     407 SHT  407  S    C    CA     0.031624       12.0107           0
     408 SHT  408  S    C    CA     0.031624       12.0107           0
     409 SHT  409  S    C    CA     0.031624       12.0107           0
     410 SHT  410  S    C    CA     0.031624       12.0107           0
     411 SHT  411  S    C    CA     0.031624       12.0107           0
     412 SHT  412  S    C    CA     0.031624       12.0107           0
     413 SHT  413  S    C    CA     0.031624       12.0107           0
     414 SHT  414  S    C    CA     0.031624       12.0107           0
     415 SHT  415  S    C    CA     0.031624       12.0107           0
     416 SHT  416  S    C    CA     0.031624       12.0107           0
     417 SHT  417  S    C    CA     0.031624       12.0107           0
     418 SHT  418  S    C    CA     0.031624       12.0107           0
     419 SHT  419  S    C    CA     0.031624       12.0107           0
     420 SHT  420  S    C    CA     0.031624       12.0107           0
     421 SHT  421  S    C    CA     0.031624       12.0107           0
     422 SHT  422  S    C    CA     0.031624       12.0107           0
     423 SHT  423  S    C    CA     0.031624       12.0107           0
     424 SHT  424  S    C    CA     0.031624       12.0107           0
     425 SHT  425  S    C    CA     0.031624       12.0107           0
     426 SHT  426  S    C    CA     0.031624       12.0107           0
     427 SHT  427  S    C    CA     0.031624       12.0107           0
     428 SHT  428  S    C    CA     0.031624       12.0107           0
     429 SHT  429  S    C    CA     0.031624       12.0107           0
     430 SHT  430  S    C    CA     0.031624       12.0107           0
     431 SHT  431  S    C    CA     0.031624       12.0107           0
     432 SHT  432  S    C    CA     0.031624       12.0107           0
     433 SHT  433  S    C    CA     0.031624       12.0107           0
     434 SHT  434  S    C    CA     0.031624       12.0107           0
     435 SHT  435  S    C    CA     0.031624       12.0107           0
     436 SHT  436  S    C    CA     0.031624       12.0107           0
     437 SHT  437  S    C    CA     0.031624       12.0107           0
     438 SHT  438  S    C    CA     0.031624       12.0107           0
     439 SHT  439  S    C    CA     0.031624       12.0107           0
     440 SHT  440  S    C    CA     0.031624       12.0107           0
     441 SHT  441  S    C    CA     0.031624       12.0107           0
     442 SHT  442  S    C    CA     0.031624       12.0107           0
     443 SHT  443  S    C    CA     0.031624       12.0107           0
     444 SHT  444  S    C    CA     0.031624       12.0107           0
     445 SHT  445  S    C    CA     0.031624       12.0107           0
     446 SHT  446  S    C    CA     0.031624       12.0107           0
     447 SHT  447  S    C    CA     0.031624       12.0107           0
     448 SHT  448  S    C    CA     0.031624       12.0107           0
     449 SHT  449  S    C    CA     0.031624       12.0107           0
     450 SHT  450  S    C    CA     0.031624       12.0107           0
     451 SHT  451  S    C    CA     0.031624       12.0107           0
     452 SHT  452  S    C    CA     0.031624       12.0107           0
     453 SHT  453  S    C    CA     0.031624       12.0107           0
     454 SHT  454  S    C    CA     0.031624       12.0107           0
     455 SHT  455  S    C    CA     0.031624       12.0107           0
     456 SHT  456  S    C    CA     0.031624       12.0107           0
     457 SHT  457  S    C    CA     0.031624       12.0107           0
     458 SHT  458  S    C    CA     0.031624       12.0107           0
     459 SHT  459  S    C    CA     0.031624       12.0107           0
     460 SHT  460  S    C    CA     0.031624       12.0107           0
     461 SHT  461  S    C    CA     0.031624       12.0107           0
     462 SHT  462  S    C    CA     0.031624       12.0107           0
     463 SHT  463  S    C    CA     0.031624       12.0107           0
     464 SHT  464  S    C    CA     0.031624       12.0107           0
     465 SHT  465  S    C    CA     0.031624       12.0107           0
     466 SHT  466  S    C    CA     0.031624       12.0107           0
     467 SHT  467  S    C    CA     0.031624       12.0107           0
     468 SHT  468  S    C    CA     0.031624       12.0107           0
     469 SHT  469  S    C    CA     0.031624       12.0107           0
     470 SHT  470  S    C    CA     0.031624       12.0107           0
     471 SHT  471  S    C    CA     0.031624       12.0107           0
     472 SHT  472  S    C    CA     0.031624       12.0107           0
     473 SHT  473  S    C    CA     0.031624       12.0107           0
     474 SHT  474  S    C    CA     0.031624       12.0107           0
     475 SHT  475  S    C    CA     0.031624       12.0107           0
     476 SHT  476  S    C    CA     0.031624       12.0107           0
     477 SHT  477  S    C    CA     0.031624       12.0107           0
     478 SHT  478  S    C    CA     0.031624       12.0107           0
     479 SHT  479  S    C    CA     0.031624       12.0107           0
     480 SHT  480  S    C    CA     0.031624       12.0107           0
     481 SHT  481  S    C    CA     0.031624       12.0107           0
     482 SHT  482  S    C    CA     0.031624       12.0107           0
     483 SHT  483  S    C    CA     0.031624       12.0107           0
     484 SHT  484  S    C    CA     0.031624       12.0107           0
     485 SHT  485  S    C    CA     0.031624       12.0107           0
     486 SHT  486  S    C    CA     0.031624       12.0107           0
     487 SHT  487  S    C    CA     0.031624       12.0107           0
     488 SHT  488  S    C    CA     0.031624       12.0107           0
     489 SHT  489  S    C    CA     0.031624       12.0107           0
     490 SHT  490  S    C    CA     0.031624       12.0107           0
     491 SHT  491  S    C    CA     0.031624       12.0107           0
     492 SHT  492  S    C    CA     0.031624       12.0107           0
     493 SHT  493  S    C    CA     0.031624       12.0107           0
     494 SHT  494  S    C    CA     0.031624       12.0107           0
     495 SHT  495  S    C    CA     0.031624       12.0107           0
     496 SHT  496  S    C    CA     0.031624       12.0107           0
     497 SHT  497  S    C    CA     0.031624       12.0107           0
     498 SHT  498  S    C    CA     0.031624       12.0107           0
     499 SHT  499  S    C    CA     0.031624       12.0107           0
     500 SHT  500  S    C    CA     0.031624       12.0107           0
     501 SHT  501  S    C    CA     0.031624       12.0107           0
     502 SHT  502  S    C    CA     0.031624       12.0107           0
     503 SHT  503  S    C    CA     0.031624       12.0107           0
     504 SHT  504  S    C    CA     0.031624       12.0107           0
     505 SHT  505  S    C    CA     0.031624       12.0107           0
     506 SHT  506  S    C    CA     0.031624       12.0107           0
     507 SHT  507  S    C    CA     0.031624       12.0107           0
     508 SHT  508  S    C    CA     0.031624       12.0107           0
     509 SHT  509  S    C    CA     0.031624       12.0107           0
     510 SHT  510  S    C    CA     0.031624       12.0107           0
     511 SHT  511  S    C    CA     0.031624       12.0107           0
     512 SHT  512  S    C    CA     0.031624       12.0107           0
     513 SHT  513  S    C    CA     0.031624       12.0107           0
     514 SHT  514  S    C    CA     0.031624       12.0107           0
     515 SHT  515  S    C    CA     0.031624       12.0107           0
     516 SHT  516  S    C    CA     0.031624       12.0107           0
     517 SHT  517  S    C    CA     0.031624       12.0107           0
     518 SHT  518  S    C    CA     0.031624       12.0107           0
     519 SHT  519  S    C    CA     0.031624       12.0107           0
     520 SHT  520  S    C    CA     0.031624       12.0107           0
     521 SHT  521  S    C    CA     0.031624       12.0107           0
     522 SHT  522  S    C    CA     0.031624       12.0107           0
     523 SHT  523  S    C    CA     0.031624       12.0107           0
     524 SHT  524  S    C    CA     0.031624       12.0107           0
     525 SHT  525  S    C    CA     0.031624       12.0107           0
     526 SHT  526  S    C    CA     0.031624       12.0107           0
     527 SHT  527  S    C    CA     0.031624       12.0107           0
     528 SHT  528  S    C    CA     0.031624       12.0107           0
     529 SHT  529  S    C    CA     0.031624       12.0107           0
     530 SHT  530  S    C    CA     0.031624       12.0107           0
     531 SHT  531  S    C    CA     0.031624       12.0107           0
     532 SHT  532  S    C    CA     0.031624       12.0107           0
     533 SHT  533  S    C    CA     0.031624       12.0107           0
     534 SHT  534  S    C    CA     0.031624       12.0107           0
     535 SHT  535  S    C    CA     0.031624       12.0107           0
     536 SHT  536  S    C    CA     0.031624       12.0107           0
     537 SHT  537  S    C    CA     0.031624       12.0107           0
     538 SHT  538  S    C    CA     0.031624       12.0107           0
     539 SHT  539  S    C    CA     0.031624       12.0107           0
     540 SHT  540  S    C    CA     0.031624       12.0107           0
     541 SHT  541  S    C    CA     0.031624       12.0107           0
     542 SHT  542  S    C    CA     0.031624       12.0107           0
     543 SHT  543  S    C    CA     0.031624       12.0107           0
     544 SHT  544  S    C    CA     0.031624       12.0107           0
     545 SHT  545  S    C    CA     0.031624       12.0107           0
     546 SHT  546  S    C    CA     0.031624       12.0107           0
     547 SHT  547  S    C    CA     0.031624       12.0107           0
     548 SHT  548  S    C    CA     0.031624       12.0107           0
     549 SHT  549  S    C    CA     0.031624       12.0107           0
     550 SHT  550  S    C    CA     0.031624       12.0107           0
     551 SHT  551  S    C    CA     0.031624       12.0107           0
     552 SHT  552  S    C    CA     0.031624       12.0107           0
     553 SHT  553  S    C    CA     0.031624       12.0107           0
     554 SHT  554  S    C    CA     0.031624       12.0107           0
     555 SHT  555  S    C    CA     0.031624       12.0107           0
     556 SHT  556  S    C    CA     0.031624       12.0107           0
     557 SHT  557  S    C    CA     0.031624       12.0107           0
     558 SHT  558  S    C    CA     0.031624       12.0107           0
     559 SHT  559  S    C    CA     0.031624       12.0107           0
     560 SHT  560  S    C    CA     0.031624       12.0107           0
     561 SHT  561  S    C    CA     0.031624       12.0107           0
     562 SHT  562  S    C    CA     0.031624       12.0107           0
     563 SHT  563  S    C    CA     0.031624       12.0107           0
     564 SHT  564  S    C    CA     0.031624       12.0107           0
     565 SHT  565  S    C    CA     0.031624       12.0107           0
     566 SHT  566  S    C    CA     0.031624       12.0107           0
     567 SHT  567  S    C    CA     0.031624       12.0107           0
     568 SHT  568  S    C    CA     0.031624       12.0107           0
     569 SHT  569  S    C    CA     0.031624       12.0107           0
     570 SHT  570  S    C    CA     0.031624       12.0107           0
     571 SHT  571  S    C    CA     0.031624       12.0107           0
     572 SHT  572  S    C    CA     0.031624       12.0107           0
     573 SHT  573  S    C    CA     0.031624       12.0107           0
     574 SHT  574  S    C    CA     0.031624       12.0107           0
     575 SHT  575  S    C    CA     0.031624       12.0107           0
     576 SHT  576  S    C    CA     0.031624       12.0107           0
     577 SHT  577  S    C    CA     0.031624       12.0107           0
     578 SHT  578  S    C    CA     0.031624       12.0107           0
     579 SHT  579  S    C    CA     0.031624       12.0107           0
     580 SHT  580  S    C    CA     0.031624       12.0107           0
     581 SHT  581  S    C    CA     0.031624       12.0107           0
     582 SHT  582  S    C    CA     0.031624       12.0107           0
     583 SHT  583  S    C    CA     0.031624       12.0107           0
     584 SHT  584  S    C    CA     0.031624       12.0107           0
     585 SHT  585  S    C    CA     0.031624       12.0107           0
     586 SHT  586  S    C    CA     0.031624       12.0107           0
     587 SHT  587  S    C    CA     0.031624       12.0107           0
     588 SHT  588  S    C    CA     0.031624       12.0107           0
     589 SHT  589  S    C    CA     0.031624       12.0107           0
     590 SHT  590  S    C    CA     0.031624       12.0107           0
     591 SHT  591  S    C    CA     0.031624       12.0107           0
     592 SHT  592  S    C    CA     0.031624       12.0107           0
     593 SHT  593  S    C    CA     0.031624       12.0107           0
     594 SHT  594  S    C    CA     0.031624       12.0107           0
     595 SHT  595  S    C    CA     0.031624       12.0107           0
     596 SHT  596  S    C    CA     0.031624       12.0107           0
     597 SHT  597  S    C    CA     0.031624       12.0107           0
     598 SHT  598  S    C    CA     0.031624       12.0107           0
     599 SHT  599  S    C    CA     0.031624       12.0107           0
     600 SHT  600  S    C    CA     0.031624       12.0107           0
     601 SHT  601  S    C    CA     0.031624       12.0107           0
     602 SHT  602  S    C    CA     0.031624       12.0107           0
     603 SHT  603  S    C    CA     0.031624       12.0107           0
     604 SHT  604  S    C    CA     0.031624       12.0107           0
     605 SHT  605  S    C    CA     0.031624       12.0107           0
     606 SHT  606  S    C    CA     0.031624       12.0107           0
     607 SHT  607  S    C    CA     0.031624       12.0107           0
     608 SHT  608  S    C    CA     0.031624       12.0107           0
     609 SHT  609  S    C    CA     0.031624       12.0107           0
     610 SHT  610  S    C    CA     0.031624       12.0107           0
     611 SHT  611  S    C    CA     0.031624       12.0107           0
     612 SHT  612  S    C    CA     0.031624       12.0107           0
     613 SHT  613  S    C    CA     0.031624       12.0107           0
     614 SHT  614  S    C    CA     0.031624       12.0107           0
     615 SHT  615  S    C    CA     0.031624       12.0107           0
     616 SHT  616  S    C    CA     0.031624       12.0107           0
     617 SHT  617  S    C    CA     0.031624       12.0107           0
     618 SHT  618  S    C    CA     0.031624       12.0107           0
     619 SHT  619  S    C    CA     0.031624       12.0107           0
     620 SHT  620  S    C    CA     0.031624       12.0107           0
     621 SHT  621  S    C    CA     0.031624       12.0107           0
     622 SHT  622  S    C    CA     0.031624       12.0107           0
     623 SHT  623  S    C    CA     0.031624       12.0107           0
     624 SHT  624  S    C    CA     0.031624       12.0107           0
     625 SHT  625  S    C    CA     0.031624       12.0107           0
     626 SHT  626  S    C    CA     0.031624       12.0107           0
     627 SHT  627  S    C    CA     0.031624       12.0107           0
     628 SHT  628  S    C    CA     0.031624       12.0107           0
     629 SHT  629  S    C    CA     0.031624       12.0107           0
     630 SHT  630  S    C    CA     0.031624       12.0107           0
     631 SHT  631  S    C    CA     0.031624       12.0107           0
     632 SHT  632  S    C    CA     0.031624       12.0107           0
     633 SHT  633  S    C    CA     0.031624       12.0107           0
     634 SHT  634  S    C    CA     0.031624       12.0107           0
     635 SHT  635  S    C    CA     0.031624       12.0107           0
     636 SHT  636  S    C    CA     0.031624       12.0107           0
     637 SHT  637  S    C    CA     0.031624       12.0107           0
     638 SHT  638  S    C    CA     0.031624       12.0107           0
     639 SHT  639  S    C    CA     0.031624       12.0107           0
     640 SHT  640  S    C    CA     0.031624       12.0107           0
     641 SHT  641  S    C    CA     0.031624       12.0107           0
     642 SHT  642  S    C    CA     0.031624       12.0107           0
     643 SHT  643  S    C    CA     0.031624       12.0107           0
     644 SHT  644  S    C    CA     0.031624       12.0107           0
     645 SHT  645  S    C    CA     0.031624       12.0107           0
     646 SHT  646  S    C    CA     0.031624       12.0107           0
     647 SHT  647  S    C    CA     0.031624       12.0107           0
     648 SHT  648  S    C    CA     0.031624       12.0107           0
     649 SHT  649  S    C    CA     0.031624       12.0107           0
     650 SHT  650  S    C    CA     0.031624       12.0107           0
     651 SHT  651  S    C    CA     0.031624       12.0107           0
     652 SHT  652  S    C    CA     0.031624       12.0107           0
     653 SHT  653  S    C    CA     0.031624       12.0107           0
     654 SHT  654  S    C    CA     0.031624       12.0107           0
     655 SHT  655  S    C    CA     0.031624       12.0107           0
     656 SHT  656  S    C    CA     0.031624       12.0107           0
     657 SHT  657  S    C    CA     0.031624       12.0107           0
     658 SHT  658  S    C    CA     0.031624       12.0107           0
     659 SHT  659  S    C    CA     0.031624       12.0107           0
     660 SHT  660  S    C    CA     0.031624       12.0107           0
     661 SHT  661  S    C    CA     0.031624       12.0107           0
     662 SHT  662  S    C    CA     0.031624       12.0107           0
     663 SHT  663  S    C    CA     0.031624       12.0107           0
     664 SHT  664  S    C    CA     0.031624       12.0107           0
     665 SHT  665  S    C    CA     0.031624       12.0107           0
     666 SHT  666  S    C    CA     0.031624       12.0107           0
     667 SHT  667  S    C    CA     0.031624       12.0107           0
     668 SHT  668  S    C    CA     0.031624       12.0107           0
     669 SHT  669  S    C    CA     0.031624       12.0107           0
     670 SHT  670  S    C    CA     0.031624       12.0107           0
     671 SHT  671  S    C    CA     0.031624       12.0107           0
     672 SHT  672  S    C    CA     0.031624       12.0107           0
     673 SHT  673  S    C    CA     0.031624       12.0107           0
     674 SHT  674  S    C    CA     0.031624       12.0107           0
     675 SHT  675  S    C    CA     0.031624       12.0107           0
     676 SHT  676  S    C    CA     0.031624       12.0107           0
     677 SHT  677  S    C    CA     0.031624       12.0107           0
     678 SHT  678  S    C    CA     0.031624       12.0107           0
     679 SHT  679  S    C    CA     0.031624       12.0107           0
     680 SHT  680  S    C    CA     0.031624       12.0107           0
     681 SHT  681  S    C    CA     0.031624       12.0107           0
     682 SHT  682  S    C    CA     0.031624       12.0107           0
     683 SHT  683  S    C    CA     0.031624       12.0107           0
     684 SHT  684  S    C    CA     0.031624       12.0107           0
     685 SHT  685  S    C    CA     0.031624       12.0107           0
     686 SHT  686  S    C    CA     0.031624       12.0107           0
     687 SHT  687  S    C    CA     0.031624       12.0107           0
     688 SHT  688  S    C    CA     0.031624       12.0107           0
     689 SHT  689  S    C    CA     0.031624       12.0107           0
     690 SHT  690  S    C    CA     0.031624       12.0107           0
     691 SHT  691  S    C    CA     0.031624       12.0107           0
     692 SHT  692  S    C    CA     0.031624       12.0107           0
     693 SHT  693  S    C    CA     0.031624       12.0107           0
     694 SHT  694  S    C    CA     0.031624       12.0107           0
     695 SHT  695  S    C    CA     0.031624       12.0107           0
     696 SHT  696  S    C    CA     0.031624       12.0107           0
     697 SHT  697  S    C    CA     0.031624       12.0107           0
     698 SHT  698  S    C    CA     0.031624       12.0107           0
     699 SHT  699  S    C    CA     0.031624       12.0107           0
     700 SHT  700  S    C    CA     0.031624       12.0107           0
     701 SHT  701  S    C    CA     0.031624       12.0107           0
     702 SHT  702  S    C    CA     0.031624       12.0107           0
     703 SHT  703  S    C    CA     0.031624       12.0107           0
     704 SHT  704  S    C    CA     0.031624       12.0107           0
     705 SHT  705  S    C    CA     0.031624       12.0107           0
     706 SHT  706  S    C    CA     0.031624       12.0107           0
     707 SHT  707  S    C    CA     0.031624       12.0107           0
     708 SHT  708  S    C    CA     0.031624       12.0107           0
     709 SHT  709  S    C    CA     0.031624       12.0107           0
     710 SHT  710  S    C    CA     0.031624       12.0107           0
     711 SHT  711  S    C    CA     0.031624       12.0107           0
     712 SHT  712  S    C    CA     0.031624       12.0107           0
     713 SHT  713  S    C    CA     0.031624       12.0107           0
     714 SHT  714  S    C    CA     0.031624       12.0107           0
     715 SHT  715  S    C    CA     0.031624       12.0107           0
     716 SHT  716  S    C    CA     0.031624       12.0107           0
     717 SHT  717  S    C    CA     0.031624       12.0107           0
     718 SHT  718  S    C    CA     0.031624       12.0107           0
     719 SHT  719  S    C    CA     0.031624       12.0107           0
     720 SHT  720  S    C    CA     0.031624       12.0107           0
     721 SHT  721  S    C    CA     0.031624       12.0107           0
     722 SHT  722  S    C    CA     0.031624       12.0107           0
     723 SHT  723  S    C    CA     0.031624       12.0107           0
     724 SHT  724  S    C    CA     0.031624       12.0107           0
     725 SHT  725  S    C    CA     0.031624       12.0107           0
     726 SHT  726  S    C    CA     0.031624       12.0107           0
     727 SHT  727  S    C    CA     0.031624       12.0107           0
     728 SHT  728  S    C    CA     0.031624       12.0107           0
     729 SHT  729  S    C    CA     0.031624       12.0107           0
     730 SHT  730  S    C    CA     0.031624       12.0107           0
     731 SHT  731  S    C    CA     0.031624       12.0107           0
     732 SHT  732  S    C    CA     0.031624       12.0107           0
     733 SHT  733  S    C    CA     0.031624       12.0107           0
     734 SHT  734  S    C    CA     0.031624       12.0107           0
     735 SHT  735  S    C    CA     0.031624       12.0107           0
     736 SHT  736  S    C    CA     0.031624       12.0107           0
     737 SHT  737  S    C    CA     0.031624       12.0107           0
     738 SHT  738  S    C    CA     0.031624       12.0107           0
     739 SHT  739  S    C    CA     0.031624       12.0107           0
     740 SHT  740  S    C    CA     0.031624       12.0107           0
     741 SHT  741  S    C    CA     0.031624       12.0107           0
     742 SHT  742  S    C    CA     0.031624       12.0107           0
     743 SHT  743  S    C    CA     0.031624       12.0107           0
     744 SHT  744  S    C    CA     0.031624       12.0107           0
     745 SHT  745  S    C    CA     0.031624       12.0107           0
     746 SHT  746  S    C    CA     0.031624       12.0107           0
     747 SHT  747  S    C    CA     0.031624       12.0107           0
     748 SHT  748  S    C    CA     0.031624       12.0107           0
     749 SHT  749  S    C    CA     0.031624       12.0107           0
     750 SHT  750  S    C    CA     0.031624       12.0107           0
     751 SHT  751  S    C    CA     0.031624       12.0107           0
     752 SHT  752  S    C    CA     0.031624       12.0107           0
     753 SHT  753  S    C    CA     0.031624       12.0107           0
     754 SHT  754  S    C    CA     0.031624       12.0107           0
     755 SHT  755  S    C    CA     0.031624       12.0107           0
     756 SHT  756  S    C    CA     0.031624       12.0107           0
     757 SHT  757  S    C    CA     0.031624       12.0107           0
     758 SHT  758  S    C    CA     0.031624       12.0107           0
     759 SHT  759  S    C    CA     0.031624       12.0107           0
     760 SHT  760  S    C    CA     0.031624       12.0107           0
     761 SHT  761  S    C    CA     0.031624       12.0107           0
     762 SHT  762  S    C    CA     0.031624       12.0107           0
     763 SHT  763  S    C    CA     0.031624       12.0107           0
     764 SHT  764  S    C    CA     0.031624       12.0107           0
     765 SHT  765  S    C    CA     0.031624       12.0107           0
     766 SHT  766  S    C    CA     0.031624       12.0107           0
     767 SHT  767  S    C    CA     0.031624       12.0107           0
     768 SHT  768  S    C    CA     0.031624       12.0107           0
     769 SHT  769  S    C    CA     0.031624       12.0107           0
     770 SHT  770  S    C    CA     0.031624       12.0107           0
     771 SHT  771  S    C    CA     0.031624       12.0107           0
     772 SHT  772  S    C    CA     0.031624       12.0107           0
     773 SHT  773  S    C    CA     0.031624       12.0107           0
     774 SHT  774  S    C    CA     0.031624       12.0107           0
     775 SHT  775  S    C    CA     0.031624       12.0107           0
     776 SHT  776  S    C    CA     0.031624       12.0107           0
     777 SHT  777  S    C    CA     0.031624       12.0107           0
     778 SHT  778  S    C    CA     0.031624       12.0107           0
     779 SHT  779  S    C    CA     0.031624       12.0107           0
     780 SHT  780  S    C    CA     0.031624       12.0107           0
     781 SHT  781  S    C    CA     0.031624       12.0107           0
     782 SHT  782  S    C    CA     0.031624       12.0107           0
     783 SHT  783  S    C    CA     0.031624       12.0107           0
     784 SHT  784  S    C    CA     0.031624       12.0107           0
     785 SHT  785  S    C    CA     0.031624       12.0107           0
     786 SHT  786  S    C    CA     0.031624       12.0107           0
     787 SHT  787  S    C    CA     0.031624       12.0107           0
     788 SHT  788  S    C    CA     0.031624       12.0107           0
     789 SHT  789  S    C    CA     0.031624       12.0107           0
     790 SHT  790  S    C    CA     0.031624       12.0107           0
     791 SHT  791  S    C    CA     0.031624       12.0107           0
     792 SHT  792  S    C    CA     0.031624       12.0107           0
     793 SHT  793  S    C    CA     0.031624       12.0107           0
     794 SHT  794  S    C    CA     0.031624       12.0107           0
     795 SHT  795  S    C    CA     0.031624       12.0107           0
     796 SHT  796  S    C    CA     0.031624       12.0107           0
     797 SHT  797  S    C    CA     0.031624       12.0107           0
     798 SHT  798  S    C    CA     0.031624       12.0107           0
     799 SHT  799  S    C    CA     0.031624       12.0107           0
     800 SHT  800  S    C    CA     0.031624       12.0107           0
     801 SHT  801  S    C    CA     0.031624       12.0107           0
     802 SHT  802  S    C    CA     0.031624       12.0107           0
     803 SHT  803  S    C    CA     0.031624       12.0107           0
     804 SHT  804  S    C    CA     0.031624       12.0107           0
     805 SHT  805  S    C    CA     0.031624       12.0107           0
     806 SHT  806  S    C    CA     0.031624       12.0107           0
     807 SHT  807  S    C    CA     0.031624       12.0107           0
     808 SHT  808  S    C    CA     0.031624       12.0107           0
     809 SHT  809  S    C    CA     0.031624       12.0107           0
     810 SHT  810  S    C    CA     0.031624       12.0107           0
     811 SHT  811  S    C    CA     0.031624       12.0107           0
     812 SHT  812  S    C    CA     0.031624       12.0107           0
     813 SHT  813  S    C    CA     0.031624       12.0107           0
     814 SHT  814  S    C    CA     0.031624       12.0107           0
     815 SHT  815  S    C    CA     0.031624       12.0107           0
     816 SHT  816  S    C    CA     0.031624       12.0107           0
     817 SHT  817  S    C    CA     0.031624       12.0107           0
     818 SHT  818  S    C    CA     0.031624       12.0107           0
     819 SHT  819  S    C    CA     0.031624       12.0107           0
     820 SHT  820  S    C    CA     0.031624       12.0107           0
     821 SHT  821  S    C    CA     0.031624       12.0107           0
     822 SHT  822  S    C    CA     0.031624       12.0107           0
     823 SHT  823  S    C    CA     0.031624       12.0107           0
     824 SHT  824  S    C    CA     0.031624       12.0107           0
     825 SHT  825  S    C    CA     0.031624       12.0107           0
     826 SHT  826  S    C    CA     0.031624       12.0107           0
     827 SHT  827  S    C    CA     0.031624       12.0107           0
     828 SHT  828  S    C    CA     0.031624       12.0107           0
     829 SHT  829  S    C    CA     0.031624       12.0107           0
     830 SHT  830  S    C    CA     0.031624       12.0107           0
     831 SHT  831  S    C    CA     0.031624       12.0107           0
     832 SHT  832  S    C    CA     0.031624       12.0107           0
     833 SHT  833  S    C    CA     0.031624       12.0107           0
     834 SHT  834  S    C    CA     0.031624       12.0107           0
     835 SHT  835  S    C    CA     0.031624       12.0107           0
     836 SHT  836  S    C    CA     0.031624       12.0107           0
     837 SHT  837  S    C    CA     0.031624       12.0107           0
     838 SHT  838  S    C    CA     0.031624       12.0107           0
     839 SHT  839  S    C    CA     0.031624       12.0107           0
     840 SHT  840  S    C    CA     0.031624       12.0107           0
     841 SHT  841  S    C    CA     0.031624       12.0107           0
     842 SHT  842  S    C    CA     0.031624       12.0107           0
     843 SHT  843  S    C    CA     0.031624       12.0107           0
     844 SHT  844  S    C    CA     0.031624       12.0107           0
     845 SHT  845  S    C    CA     0.031624       12.0107           0
     846 SHT  846  S    C    CA     0.031624       12.0107           0
     847 SHT  847  S    C    CA     0.031624       12.0107           0
     848 SHT  848  S    C    CA     0.031624       12.0107           0
     849 SHT  849  S    C    CA     0.031624       12.0107           0
     850 SHT  850  S    C    CA     0.031624       12.0107           0
     851 SHT  851  S    C    CA     0.031624       12.0107           0
     852 SHT  852  S    C    CA     0.031624       12.0107           0
     853 SHT  853  S    C    CA     0.031624       12.0107           0
     854 SHT  854  S    C    CA     0.031624       12.0107           0
     855 SHT  855  S    C    CA     0.031624       12.0107           0
     856 SHT  856  S    C    CA     0.031624       12.0107           0
     857 SHT  857  S    C    CA     0.031624       12.0107           0
     858 SHT  858  S    C    CA     0.031624       12.0107           0
     859 SHT  859  S    C    CA     0.031624       12.0107           0
     860 SHT  860  S    C    CA     0.031624       12.0107           0
     861 SHT  861  S    C    CA     0.031624       12.0107           0
     862 SHT  862  S    C    CA     0.031624       12.0107           0
     863 SHT  863  S    C    CA     0.031624       12.0107           0
     864 SHT  864  S    C    CA     0.031624       12.0107           0
     865 SHT  865  S    C    CA     0.031624       12.0107           0
     866 SHT  866  S    C    CA     0.031624       12.0107           0
     867 SHT  867  S    C    CA     0.031624       12.0107           0
     868 SHT  868  S    C    CA     0.031624       12.0107           0
     869 SHT  869  S    C    CA     0.031624       12.0107           0
     870 SHT  870  S    C    CA     0.031624       12.0107           0
     871 SHT  871  S    C    CA     0.031624       12.0107           0
     872 SHT  872  S    C    CA     0.031624       12.0107           0
     873 SHT  873  S    C    CA     0.031624       12.0107           0
     874 SHT  874  S    C    CA     0.031624       12.0107           0
     875 SHT  875  S    C    CA     0.031624       12.0107           0
     876 SHT  876  S    C    CA     0.031624       12.0107           0
     877 SHT  877  S    C    CA     0.031624       12.0107           0
     878 SHT  878  S    C    CA     0.031624       12.0107           0
     879 SHT  879  S    C    CA     0.031624       12.0107           0
     880 SHT  880  S    C    CA     0.031624       12.0107           0
     881 SHT  881  S    C    CA     0.031624       12.0107           0
     882 SHT  882  S    C    CA     0.031624       12.0107           0
     883 SHT  883  S    C    CA     0.031624       12.0107           0
     884 SHT  884  S    C    CA     0.031624       12.0107           0
     885 SHT  885  S    C    CA     0.031624       12.0107           0
     886 SHT  886  S    C    CA     0.031624       12.0107           0
     887 SHT  887  S    C    CA     0.031624       12.0107           0
     888 SHT  888  S    C    CA     0.031624       12.0107           0
     889 SHT  889  S    C    CA     0.031624       12.0107           0
     890 SHT  890  S    C    CA     0.031624       12.0107           0
     891 SHT  891  S    C    CA     0.031624       12.0107           0
     892 SHT  892  S    C    CA     0.031624       12.0107           0
     893 SHT  893  S    C    CA     0.031624       12.0107           0
     894 SHT  894  S    C    CA     0.031624       12.0107           0
     895 SHT  895  S    C    CA     0.031624       12.0107           0
     896 SHT  896  S    C    CA     0.031624       12.0107           0
     897 SHT  897  S    C    CA     0.031624       12.0107           0
     898 SHT  898  S    C    CA     0.031624       12.0107           0
     899 SHT  899  S    C    CA     0.031624       12.0107           0
     900 SHT  900  S    C    CA     0.031624       12.0107           0
     901 SHT  901  S    C    CA     0.031624       12.0107           0
     902 SHT  902  S    C    CA     0.031624       12.0107           0
     903 SHT  903  S    C    CA     0.031624       12.0107           0
     904 SHT  904  S    C    CA     0.031624       12.0107           0
     905 SHT  905  S    C    CA     0.031624       12.0107           0
     906 SHT  906  S    C    CA     0.031624       12.0107           0
     907 SHT  907  S    C    CA     0.031624       12.0107           0
     908 SHT  908  S    C    CA     0.031624       12.0107           0
     909 SHT  909  S    C    CA     0.031624       12.0107           0
     910 SHT  910  S    C    CA     0.031624       12.0107           0
     911 SHT  911  S    C    CA     0.031624       12.0107           0
     912 SHT  912  S    C    CA     0.031624       12.0107           0
     913 SHT  913  S    C    CA     0.031624       12.0107           0
     914 SHT  914  S    C    CA     0.031624       12.0107           0
     915 SHT  915  S    C    CA     0.031624       12.0107           0
     916 SHT  916  S    C    CA     0.031624       12.0107           0
     917 SHT  917  S    C    CA     0.031624       12.0107           0
     918 SHT  918  S    C    CA     0.031624       12.0107           0
     919 SHT  919  S    C    CA     0.031624       12.0107           0
     920 SHT  920  S    C    CA     0.031624       12.0107           0
     921 SHT  921  S    C    CA     0.031624       12.0107           0
     922 SHT  922  S    C    CA     0.031624       12.0107           0
     923 SHT  923  S    C    CA     0.031624       12.0107           0
     924 SHT  924  S    C    CA     0.031624       12.0107           0
     925 SHT  925  S    C    CA     0.031624       12.0107           0
     926 SHT  926  S    C    CA     0.031624       12.0107           0
     927 SHT  927  S    C    CA     0.031624       12.0107           0
     928 SHT  928  S    C    CA     0.031624       12.0107           0
     929 SHT  929  S    C    CA     0.031624       12.0107           0
     930 SHT  930  S    C    CA     0.031624       12.0107           0
     931 SHT  931  S    C    CA     0.031624       12.0107           0
     932 SHT  932  S    C    CA     0.031624       12.0107           0
     933 SHT  933  S    C    CA     0.031624       12.0107           0
     934 SHT  934  S    C    CA     0.031624       12.0107           0
     935 SHT  935  S    C    CA     0.031624       12.0107           0
     936 SHT  936  S    C    CA     0.031624       12.0107           0
     937 SHT  937  S    C    CA     0.031624       12.0107           0
     938 SHT  938  S    C    CA     0.031624       12.0107           0
     939 SHT  939  S    C    CA     0.031624       12.0107           0
     940 SHT  940  S    C    CA     0.031624       12.0107           0
     941 SHT  941  S    C    CA     0.031624       12.0107           0
     942 SHT  942  S    C    CA     0.031624       12.0107           0
     943 SHT  943  S    C    CA     0.031624       12.0107           0
     944 SHT  944  S    C    CA     0.031624       12.0107           0
     945 SHT  945  S    C    CA     0.031624       12.0107           0
     946 SHT  946  S    C    CA     0.031624       12.0107           0
     947 SHT  947  S    C    CA     0.031624       12.0107           0
     948 SHT  948  S    C    CA     0.031624       12.0107           0
     949 SHT  949  S    C    CA     0.031624       12.0107           0
     950 SHT  950  S    C    CA     0.031624       12.0107           0
     951 SHT  951  S    C    CA     0.031624       12.0107           0
     952 SHT  952  S    C    CA     0.031624       12.0107           0
     953 SHT  953  S    C    CA     0.031624       12.0107           0
     954 SHT  954  S    C    CA     0.031624       12.0107           0
     955 SHT  955  S    C    CA     0.031624       12.0107           0
     956 SHT  956  S    C    CA     0.031624       12.0107           0
     957 SHT  957  S    C    CA     0.031624       12.0107           0
     958 SHT  958  S    C    CA     0.031624       12.0107           0
     959 SHT  959  S    C    CA     0.031624       12.0107           0
     960 SHT  960  S    C    CA     0.031624       12.0107           0
     961 SHT  961  S    C    CA     0.031624       12.0107           0
     962 SHT  962  S    C    CA     0.031624       12.0107           0
     963 SHT  963  S    C    CA     0.031624       12.0107           0
     964 SHT  964  S    C    CA     0.031624       12.0107           0
     965 SHT  965  S    C    CA     0.031624       12.0107           0
     966 SHT  966  S    C    CA     0.031624       12.0107           0
     967 SHT  967  S    C    CA     0.031624       12.0107           0
     968 SHT  968  S    C    CA     0.031624       12.0107           0
     969 SHT  969  S    C    CA     0.031624       12.0107           0
     970 SHT  970  S    C    CA     0.031624       12.0107           0
     971 SHT  971  S    C    CA     0.031624       12.0107           0
     972 SHT  972  S    C    CA     0.031624       12.0107           0
     973 SHT  973  S    C    CA     0.031624       12.0107           0
     974 SHT  974  S    C    CA     0.031624       12.0107           0
     975 SHT  975  S    C    CA     0.031624       12.0107           0
     976 SHT  976  S    C    CA     0.031624       12.0107           0
     977 SHT  977  S    C    CA     0.031624       12.0107           0
     978 SHT  978  S    C    CA     0.031624       12.0107           0
     979 SHT  979  S    C    CA     0.031624       12.0107           0
     980 SHT  980  S    C    CA     0.031624       12.0107           0
     981 SHT  981  S    C    CA     0.031624       12.0107           0
     982 SHT  982  S    C    CA     0.031624       12.0107           0
     983 SHT  983  S    C    CA     0.031624       12.0107           0
     984 SHT  984  S    C    CA     0.031624       12.0107           0
     985 SHT  985  S    C    CA     0.031624       12.0107           0
     986 SHT  986  S    C    CA     0.031624       12.0107           0
     987 SHT  987  S    C    CA     0.031624       12.0107           0
     988 SHT  988  S    C    CA     0.031624       12.0107           0
     989 SHT  989  S    C    CA     0.031624       12.0107           0
     990 SHT  990  S    C    CA     0.031624       12.0107           0
     991 SHT  991  S    C    CA     0.031624       12.0107           0
     992 SHT  992  S    C    CA     0.031624       12.0107           0
     993 SHT  993  S    C    CA     0.031624       12.0107           0
     994 SHT  994  S    C    CA     0.031624       12.0107           0
     995 SHT  995  S    C    CA     0.031624       12.0107           0
     996 SHT  996  S    C    CA     0.031624       12.0107           0
     997 SHT  997  S    C    CA     0.031624       12.0107           0
     998 SHT  998  S    C    CA     0.031624       12.0107           0
     999 SHT  999  S    C    CA     0.031624       12.0107           0
    1000 SHT  1000 S    C    CA     0.031624       12.0107           0
    1001 SHT  1001 S    C    CA     0.031624       12.0107           0
    1002 SHT  1002 S    C    CA     0.031624       12.0107           0
    1003 SHT  1003 S    C    CA     0.031624       12.0107           0
    1004 SHT  1004 S    C    CA     0.031624       12.0107           0
    1005 SHT  1005 S    C    CA     0.031624       12.0107           0
    1006 SHT  1006 S    C    CA     0.031624       12.0107           0
    1007 SHT  1007 S    C    CA     0.031624       12.0107           0
    1008 SHT  1008 S    C    CA     0.031624       12.0107           0
    1009 SHT  1009 S    C    CA     0.031624       12.0107           0
    1010 SHT  1010 S    C    CA     0.031624       12.0107           0
    1011 SHT  1011 S    C    CA     0.031624       12.0107           0
    1012 SHT  1012 S    C    CA     0.031624       12.0107           0
    1013 SHT  1013 S    C    CA     0.031624       12.0107           0
    1014 SHT  1014 S    C    CA     0.031624       12.0107           0
    1015 SHT  1015 S    C    CA     0.031624       12.0107           0
    1016 SHT  1016 S    C    CA     0.031624       12.0107           0
    1017 SHT  1017 S    C    CA     0.031624       12.0107           0
    1018 SHT  1018 S    C    CA     0.031624       12.0107           0
    1019 SHT  1019 S    C    CA     0.031624       12.0107           0
    1020 SHT  1020 S    C    CA     0.031624       12.0107           0
    1021 SHT  1021 S    C    CA     0.031624       12.0107           0
    1022 SHT  1022 S    C    CA     0.031624       12.0107           0
    1023 SHT  1023 S    C    CA     0.031624       12.0107           0
    1024 SHT  1024 S    C    CA     0.031624       12.0107           0
    1025 SHT  1025 S    C    CA     0.031624       12.0107           0
    1026 SHT  1026 S    C    CA     0.031624       12.0107           0
    1027 SHT  1027 S    C    CA     0.031624       12.0107           0
    1028 SHT  1028 S    C    CA     0.031624       12.0107           0
    1029 SHT  1029 S    C    CA     0.031624       12.0107           0
    1030 SHT  1030 S    C    CA     0.031624       12.0107           0
    1031 SHT  1031 S    C    CA     0.031624       12.0107           0
    1032 SHT  1032 S    C    CA     0.031624       12.0107           0
    1033 SHT  1033 S    C    CA     0.031624       12.0107           0
    1034 SHT  1034 S    C    CA     0.031624       12.0107           0
    1035 SHT  1035 S    C    CA     0.031624       12.0107           0
    1036 SHT  1036 S    C    CA     0.031624       12.0107           0
    1037 SHT  1037 S    C    CA     0.031624       12.0107           0
    1038 SHT  1038 S    C    CA     0.031624       12.0107           0
    1039 SHT  1039 S    C    CA     0.031624       12.0107           0
    1040 SHT  1040 S    C    CA     0.031624       12.0107           0
    1041 SHT  1041 S    C    CA     0.031624       12.0107           0
    1042 SHT  1042 S    C    CA     0.031624       12.0107           0
    1043 SHT  1043 S    C    CA     0.031624       12.0107           0
    1044 SHT  1044 S    C    CA     0.031624       12.0107           0
    1045 SHT  1045 S    C    CA     0.031624       12.0107           0
    1046 SHT  1046 S    C    CA     0.031624       12.0107           0
    1047 SHT  1047 S    C    CA     0.031624       12.0107           0
    1048 SHT  1048 S    C    CA     0.031624       12.0107           0
    1049 SHT  1049 S    C    CA     0.031624       12.0107           0
    1050 SHT  1050 S    C    CA     0.031624       12.0107           0
    1051 SHT  1051 S    C    CA     0.031624       12.0107           0
    1052 SHT  1052 S    C    CA     0.031624       12.0107           0
    1053 SHT  1053 S    C    CA     0.031624       12.0107           0
    1054 SHT  1054 S    C    CA     0.031624       12.0107           0
    1055 SHT  1055 S    C    CA     0.031624       12.0107           0
    1056 SHT  1056 S    C    CA     0.031624       12.0107           0
    1057 SHT  1057 S    C    CA     0.031624       12.0107           0
    1058 SHT  1058 S    C    CA     0.031624       12.0107           0
    1059 SHT  1059 S    C    CA     0.031624       12.0107           0
    1060 SHT  1060 S    C    CA     0.031624       12.0107           0
    1061 SHT  1061 S    C    CA     0.031624       12.0107           0
    1062 SHT  1062 S    C    CA     0.031624       12.0107           0
    1063 SHT  1063 S    C    CA     0.031624       12.0107           0
    1064 SHT  1064 S    C    CA     0.031624       12.0107           0
    1065 SHT  1065 S    C    CA     0.031624       12.0107           0
    1066 SHT  1066 S    C    CA     0.031624       12.0107           0
    1067 SHT  1067 S    C    CA     0.031624       12.0107           0
    1068 SHT  1068 S    C    CA     0.031624       12.0107           0
    1069 SHT  1069 S    C    CA     0.031624       12.0107           0
    1070 SHT  1070 S    C    CA     0.031624       12.0107           0
    1071 SHT  1071 S    C    CA     0.031624       12.0107           0
    1072 SHT  1072 S    C    CA     0.031624       12.0107           0
    1073 SHT  1073 S    C    CA     0.031624       12.0107           0
    1074 SHT  1074 S    C    CA     0.031624       12.0107           0
    1075 SHT  1075 S    C    CA     0.031624       12.0107           0
    1076 SHT  1076 S    C    CA     0.031624       12.0107           0
    1077 SHT  1077 S    C    CA     0.031624       12.0107           0
    1078 SHT  1078 S    C    CA     0.031624       12.0107           0
    1079 SHT  1079 S    C    CA     0.031624       12.0107           0
    1080 SHT  1080 S    C    CA     0.031624       12.0107           0
    1081 SHT  1081 S    C    CA     0.031624       12.0107           0
    1082 SHT  1082 S    C    CA     0.031624       12.0107           0
    1083 SHT  1083 S    C    CA     0.031624       12.0107           0
    1084 SHT  1084 S    C    CA     0.031624       12.0107           0
    1085 SHT  1085 S    C    CA     0.031624       12.0107           0
    1086 SHT  1086 S    C    CA     0.031624       12.0107           0
    1087 SHT  1087 S    C    CA     0.031624       12.0107           0
    1088 SHT  1088 S    C    CA     0.031624       12.0107           0
    1089 SHT  1089 S    C    CA     0.031624       12.0107           0
    1090 SHT  1090 S    C    CA     0.031624       12.0107           0
    1091 SHT  1091 S    C    CA     0.031624       12.0107           0
    1092 SHT  1092 S    C    CA     0.031624       12.0107           0
    1093 SHT  1093 S    C    CA     0.031624       12.0107           0
    1094 SHT  1094 S    C    CA     0.031624       12.0107           0
    1095 SHT  1095 S    C    CA     0.031624       12.0107           0
    1096 SHT  1096 S    C    CA     0.031624       12.0107           0
    1097 SHT  1097 S    C    CA     0.031624       12.0107           0
    1098 SHT  1098 S    C    CA     0.031624       12.0107           0
    1099 SHT  1099 S    C    CA     0.031624       12.0107           0
    1100 SHT  1100 S    C    CA     0.031624       12.0107           0
    1101 SHT  1101 S    C    CA     0.031624       12.0107           0
    1102 SHT  1102 S    C    CA     0.031624       12.0107           0
    1103 SHT  1103 S    C    CA     0.031624       12.0107           0
    1104 SHT  1104 S    C    CA     0.031624       12.0107           0
    1105 SHT  1105 S    C    CA     0.031624       12.0107           0
    1106 SHT  1106 S    C    CA     0.031624       12.0107           0
    1107 SHT  1107 S    C    CA     0.031624       12.0107           0
    1108 SHT  1108 S    C    CA     0.031624       12.0107           0
    1109 SHT  1109 S    C    CA     0.031624       12.0107           0
    1110 SHT  1110 S    C    CA     0.031624       12.0107           0
    1111 SHT  1111 S    C    CA     0.031624       12.0107           0
    1112 SHT  1112 S    C    CA     0.031624       12.0107           0
    1113 SHT  1113 S    C    CA     0.031624       12.0107           0
    1114 SHT  1114 S    C    CA     0.031624       12.0107           0
    1115 SHT  1115 S    C    CA     0.031624       12.0107           0
    1116 SHT  1116 S    C    CA     0.031624       12.0107           0
    1117 SHT  1117 S    C    CA     0.031624       12.0107           0
    1118 SHT  1118 S    C    CA     0.031624       12.0107           0
    1119 SHT  1119 S    C    CA     0.031624       12.0107           0
    1120 SHT  1120 S    C    CA     0.031624       12.0107           0
    1121 SHT  1121 S    C    CA     0.031624       12.0107           0
    1122 SHT  1122 S    C    CA     0.031624       12.0107           0
    1123 SHT  1123 S    C    CA     0.031624       12.0107           0
    1124 SHT  1124 S    C    CA     0.031624       12.0107           0
    1125 SHT  1125 S    C    CA     0.031624       12.0107           0
    1126 SHT  1126 S    C    CA     0.031624       12.0107           0
    1127 SHT  1127 S    C    CA     0.031624       12.0107           0
    1128 SHT  1128 S    C    CA     0.031624       12.0107           0
    1129 SHT  1129 S    C    CA     0.031624       12.0107           0
    1130 SHT  1130 S    C    CA     0.031624       12.0107           0
    1131 SHT  1131 S    C    CA     0.031624       12.0107           0
    1132 SHT  1132 S    C    CA     0.031624       12.0107           0
    1133 SHT  1133 S    C    CA     0.031624       12.0107           0
    1134 SHT  1134 S    C    CA     0.031624       12.0107           0
    1135 SHT  1135 S    C    CA     0.031624       12.0107           0
    1136 SHT  1136 S    C    CA     0.031624       12.0107           0
    1137 SHT  1137 S    C    CA     0.031624       12.0107           0
    1138 SHT  1138 S    C    CA     0.031624       12.0107           0
    1139 SHT  1139 S    C    CA     0.031624       12.0107           0
    1140 SHT  1140 S    C    CA     0.031624       12.0107           0
    1141 SHT  1141 S    C    CA     0.031624       12.0107           0
    1142 SHT  1142 S    C    CA     0.031624       12.0107           0
    1143 SHT  1143 S    C    CA     0.031624       12.0107           0
    1144 SHT  1144 S    C    CA     0.031624       12.0107           0
    1145 SHT  1145 S    C    CA     0.031624       12.0107           0
    1146 SHT  1146 S    C    CA     0.031624       12.0107           0
    1147 SHT  1147 S    C    CA     0.031624       12.0107           0
    1148 SHT  1148 S    C    CA     0.031624       12.0107           0
    1149 SHT  1149 S    C    CA     0.031624       12.0107           0
    1150 SHT  1150 S    C    CA     0.031624       12.0107           0
    1151 SHT  1151 S    C    CA     0.031624       12.0107           0
    1152 SHT  1152 S    C    CA     0.031624       12.0107           0
    1153 SHT  1153 S    C    CA     0.031624       12.0107           0
    1154 SHT  1154 S    C    CA     0.031624       12.0107           0
    1155 SHT  1155 S    C    CA     0.031624       12.0107           0
    1156 SHT  1156 S    C    CA     0.031624       12.0107           0
    1157 SHT  1157 S    C    CA     0.031624       12.0107           0
    1158 SHT  1158 S    C    CA     0.031624       12.0107           0
    1159 SHT  1159 S    C    CA     0.031624       12.0107           0
    1160 SHT  1160 S    C    CA     0.031624       12.0107           0
    1161 SHT  1161 S    C    CA     0.031624       12.0107           0
    1162 SHT  1162 S    C    CA     0.031624       12.0107           0
    1163 SHT  1163 S    C    CA     0.031624       12.0107           0
    1164 SHT  1164 S    C    CA     0.031624       12.0107           0
    1165 SHT  1165 S    C    CA     0.031624       12.0107           0
    1166 SHT  1166 S    C    CA     0.031624       12.0107           0
    1167 SHT  1167 S    C    CA     0.031624       12.0107           0
    1168 SHT  1168 S    C    CA     0.031624       12.0107           0
    1169 SHT  1169 S    C    CA     0.031624       12.0107           0
    1170 SHT  1170 S    C    CA     0.031624       12.0107           0
    1171 SHT  1171 S    C    CA     0.031624       12.0107           0
    1172 SHT  1172 S    C    CA     0.031624       12.0107           0
    1173 SHT  1173 S    C    CA     0.031624       12.0107           0
    1174 SHT  1174 S    C    CA     0.031624       12.0107           0
    1175 SHT  1175 S    C    CA     0.031624       12.0107           0
    1176 SHT  1176 S    C    CA     0.031624       12.0107           0
    1177 SHT  1177 S    C    CA     0.031624       12.0107           0
    1178 SHT  1178 S    C    CA     0.031624       12.0107           0
    1179 SHT  1179 S    C    CA     0.031624       12.0107           0
    1180 SHT  1180 S    C    CA     0.031624       12.0107           0
    1181 SHT  1181 S    C    CA     0.031624       12.0107           0
    1182 SHT  1182 S    C    CA     0.031624       12.0107           0
    1183 SHT  1183 S    C    CA     0.031624       12.0107           0
    1184 SHT  1184 S    C    CA     0.031624       12.0107           0
    1185 SHT  1185 S    C    CA     0.031624       12.0107           0
    1186 SHT  1186 S    C    CA     0.031624       12.0107           0
    1187 SHT  1187 S    C    CA     0.031624       12.0107           0
    1188 SHT  1188 S    C    CA     0.031624       12.0107           0
    1189 SHT  1189 S    C    CA     0.031624       12.0107           0
    1190 SHT  1190 S    C    CA     0.031624       12.0107           0
    1191 SHT  1191 S    C    CA     0.031624       12.0107           0
    1192 SHT  1192 S    C    CA     0.031624       12.0107           0
    1193 SHT  1193 S    C    CA     0.031624       12.0107           0
    1194 SHT  1194 S    C    CA     0.031624       12.0107           0
    1195 SHT  1195 S    C    CA     0.031624       12.0107           0
    1196 SHT  1196 S    C    CA     0.031624       12.0107           0
    1197 SHT  1197 S    C    CA     0.031624       12.0107           0
    1198 SHT  1198 S    C    CA     0.031624       12.0107           0
    1199 SHT  1199 S    C    CA     0.031624       12.0107           0
    1200 SHT  1200 S    C    CA     0.031624       12.0107           0
    1201 SHT  1201 S    C    CA     0.031624       12.0107           0
    1202 SHT  1202 S    C    CA     0.031624       12.0107           0
    1203 SHT  1203 S    C    CA     0.031624       12.0107           0
    1204 SHT  1204 S    C    CA     0.031624       12.0107           0
    1205 SHT  1205 S    C    CA     0.031624       12.0107           0
    1206 SHT  1206 S    C    CA     0.031624       12.0107           0
    1207 SHT  1207 S    C    CA     0.031624       12.0107           0
    1208 SHT  1208 S    C    CA     0.031624       12.0107           0
    1209 SHT  1209 S    C    CA     0.031624       12.0107           0
    1210 SHT  1210 S    C    CA     0.031624       12.0107           0
    1211 SHT  1211 S    C    CA     0.031624       12.0107           0
    1212 SHT  1212 S    C    CA     0.031624       12.0107           0
    1213 SHT  1213 S    C    CA     0.031624       12.0107           0
    1214 SHT  1214 S    C    CA     0.031624       12.0107           0
    1215 SHT  1215 S    C    CA     0.031624       12.0107           0
    1216 SHT  1216 S    C    CA     0.031624       12.0107           0
    1217 SHT  1217 S    C    CA     0.031624       12.0107           0
    1218 SHT  1218 S    C    CA     0.031624       12.0107           0
    1219 SHT  1219 S    C    CA     0.031624       12.0107           0
    1220 SHT  1220 S    C    CA     0.031624       12.0107           0
    1221 SHT  1221 S    C    CA     0.031624       12.0107           0
    1222 SHT  1222 S    C    CA     0.031624       12.0107           0
    1223 SHT  1223 S    C    CA     0.031624       12.0107           0
    1224 SHT  1224 S    C    CA     0.031624       12.0107           0
    1225 SHT  1225 S    C    CA     0.031624       12.0107           0
    1226 SHT  1226 S    C    CA     0.031624       12.0107           0
    1227 SHT  1227 S    C    CA     0.031624       12.0107           0
    1228 SHT  1228 S    C    CA     0.031624       12.0107           0
    1229 SHT  1229 S    C    CA     0.031624       12.0107           0
    1230 SHT  1230 S    C    CA     0.031624       12.0107           0
    1231 SHT  1231 S    C    CA     0.031624       12.0107           0
    1232 SHT  1232 S    C    CA     0.031624       12.0107           0
    1233 SHT  1233 S    C    CA     0.031624       12.0107           0
    1234 SHT  1234 S    C    CA     0.031624       12.0107           0
    1235 SHT  1235 S    C    CA     0.031624       12.0107           0
    1236 SHT  1236 S    C    CA     0.031624       12.0107           0
    1237 SHT  1237 S    C    CA     0.031624       12.0107           0
    1238 SHT  1238 S    C    CA     0.031624       12.0107           0
    1239 SHT  1239 S    C    CA     0.031624       12.0107           0
    1240 SHT  1240 S    C    CA     0.031624       12.0107           0
    1241 SHT  1241 S    C    CA     0.031624       12.0107           0
    1242 SHT  1242 S    C    CA     0.031624       12.0107           0
    1243 SHT  1243 S    C    CA     0.031624       12.0107           0
    1244 SHT  1244 S    C    CA     0.031624       12.0107           0
    1245 SHT  1245 S    C    CA     0.031624       12.0107           0
    1246 SHT  1246 S    C    CA     0.031624       12.0107           0
    1247 SHT  1247 S    C    CA     0.031624       12.0107           0
    1248 SHT  1248 S    C    CA     0.031624       12.0107           0
    1249 SHT  1249 S    C    CA     0.031624       12.0107           0
    1250 SHT  1250 S    C    CA     0.031624       12.0107           0
    1251 SHT  1251 S    C    CA     0.031624       12.0107           0
    1252 SHT  1252 S    C    CA     0.031624       12.0107           0
    1253 SHT  1253 S    C    CA     0.031624       12.0107           0
    1254 SHT  1254 S    C    CA     0.031624       12.0107           0
    1255 SHT  1255 S    C    CA     0.031624       12.0107           0
    1256 SHT  1256 S    C    CA     0.031624       12.0107           0
    1257 SHT  1257 S    C    CA     0.031624       12.0107           0
    1258 SHT  1258 S    C    CA     0.031624       12.0107           0
    1259 SHT  1259 S    C    CA     0.031624       12.0107           0
    1260 SHT  1260 S    C    CA     0.031624       12.0107           0
    1261 SHT  1261 S    C    CA     0.031624       12.0107           0
    1262 SHT  1262 S    C    CA     0.031624       12.0107           0
    1263 SHT  1263 S    C    CA     0.031624       12.0107           0
    1264 SHT  1264 S    C    CA     0.031624       12.0107           0
    1265 SHT  1265 S    C    CA     0.031624       12.0107           0
    1266 SHT  1266 S    C    CA     0.031624       12.0107           0
    1267 SHT  1267 S    C    CA     0.031624       12.0107           0
    1268 SHT  1268 S    C    CA     0.031624       12.0107           0
    1269 SHT  1269 S    C    CA     0.031624       12.0107           0
    1270 SHT  1270 S    C    CA     0.031624       12.0107           0
    1271 SHT  1271 S    C    CA     0.031624       12.0107           0
    1272 SHT  1272 S    C    CA     0.031624       12.0107           0
    1273 SHT  1273 S    C    CA     0.031624       12.0107           0
    1274 SHT  1274 S    C    CA     0.031624       12.0107           0
    1275 SHT  1275 S    C    CA     0.031624       12.0107           0
    1276 SHT  1276 S    C    CA     0.031624       12.0107           0
    1277 SHT  1277 S    C    CA     0.031624       12.0107           0
    1278 SHT  1278 S    C    CA     0.031624       12.0107           0
    1279 SHT  1279 S    C    CA     0.031624       12.0107           0
    1280 SHT  1280 S    C    CA     0.031624       12.0107           0
    1281 SHT  1281 S    C    CA     0.031624       12.0107           0
    1282 SHT  1282 S    C    CA     0.031624       12.0107           0
    1283 SHT  1283 S    C    CA     0.031624       12.0107           0
    1284 SHT  1284 S    C    CA     0.031624       12.0107           0
    1285 SHT  1285 S    C    CA     0.031624       12.0107           0
    1286 SHT  1286 S    C    CA     0.031624       12.0107           0
    1287 SHT  1287 S    C    CA     0.031624       12.0107           0
    1288 SHT  1288 S    C    CA     0.031624       12.0107           0
    1289 SHT  1289 S    C    CA     0.031624       12.0107           0
    1290 SHT  1290 S    C    CA     0.031624       12.0107           0
    1291 SHT  1291 S    C    CA     0.031624       12.0107           0
    1292 SHT  1292 S    C    CA     0.031624       12.0107           0
    1293 SHT  1293 S    C    CA     0.031624       12.0107           0
    1294 SHT  1294 S    C    CA     0.031624       12.0107           0
    1295 SHT  1295 S    C    CA     0.031624       12.0107           0
    1296 SHT  1296 S    C    CA     0.031624       12.0107           0
    1297 SHT  1297 S    C    CA     0.031624       12.0107           0
    1298 SHT  1298 S    C    CA     0.031624       12.0107           0
    1299 SHT  1299 S    C    CA     0.031624       12.0107           0
    1300 SHT  1300 S    C    CA     0.031624       12.0107           0
    1301 SHT  1301 S    C    CA     0.031624       12.0107           0
    1302 SHT  1302 S    C    CA     0.031624       12.0107           0
    1303 SHT  1303 S    C    CA     0.031624       12.0107           0
    1304 SHT  1304 S    C    CA     0.031624       12.0107           0
    1305 SHT  1305 S    C    CA     0.031624       12.0107           0
    1306 SHT  1306 S    C    CA     0.031624       12.0107           0
    1307 SHT  1307 S    C    CA     0.031624       12.0107           0
    1308 SHT  1308 S    C    CA     0.031624       12.0107           0
    1309 SHT  1309 S    C    CA     0.031624       12.0107           0
    1310 SHT  1310 S    C    CA     0.031624       12.0107           0
    1311 SHT  1311 S    C    CA     0.031624       12.0107           0
    1312 SHT  1312 S    C    CA     0.031624       12.0107           0
    1313 SHT  1313 S    C    CA     0.031624       12.0107           0
    1314 SHT  1314 S    C    CA     0.031624       12.0107           0
    1315 SHT  1315 S    C    CA     0.031624       12.0107           0
    1316 SHT  1316 S    C    CA     0.031624       12.0107           0
    1317 SHT  1317 S    C    CA     0.031624       12.0107           0
    1318 SHT  1318 S    C    CA     0.031624       12.0107           0
    1319 SHT  1319 S    C    CA     0.031624       12.0107           0
    1320 SHT  1320 S    C    CA     0.031624       12.0107           0
    1321 SHT  1321 S    C    CA     0.031624       12.0107           0
    1322 SHT  1322 S    C    CA     0.031624       12.0107           0
    1323 SHT  1323 S    C    CA     0.031624       12.0107           0
    1324 SHT  1324 S    C    CA     0.031624       12.0107           0
    1325 SHT  1325 S    C    CA     0.031624       12.0107           0
    1326 SHT  1326 S    C    CA     0.031624       12.0107           0
    1327 SHT  1327 S    C    CA     0.031624       12.0107           0
    1328 SHT  1328 S    C    CA     0.031624       12.0107           0
    1329 SHT  1329 S    C    CA     0.031624       12.0107           0
    1330 SHT  1330 S    C    CA     0.031624       12.0107           0
    1331 SHT  1331 S    C    CA     0.031624       12.0107           0
    1332 SHT  1332 S    C    CA     0.031624       12.0107           0
    1333 SHT  1333 S    C    CA     0.031624       12.0107           0
    1334 SHT  1334 S    C    CA     0.031624       12.0107           0
    1335 SHT  1335 S    C    CA     0.031624       12.0107           0
    1336 SHT  1336 S    C    CA     0.031624       12.0107           0
    1337 SHT  1337 S    C    CA     0.031624       12.0107           0
    1338 SHT  1338 S    C    CA     0.031624       12.0107           0
    1339 SHT  1339 S    C    CA     0.031624       12.0107           0
    1340 SHT  1340 S    C    CA     0.031624       12.0107           0
    1341 SHT  1341 S    C    CA     0.031624       12.0107           0
    1342 SHT  1342 S    C    CA     0.031624       12.0107           0
    1343 SHT  1343 S    C    CA     0.031624       12.0107           0
    1344 SHT  1344 S    C    CA     0.031624       12.0107           0
    1345 SHT  1345 S    C    CA     0.031624       12.0107           0
    1346 SHT  1346 S    C    CA     0.031624       12.0107           0
    1347 SHT  1347 S    C    CA     0.031624       12.0107           0
    1348 SHT  1348 S    C    CA     0.031624       12.0107           0
    1349 SHT  1349 S    C    CA     0.031624       12.0107           0
    1350 SHT  1350 S    C    CA     0.031624       12.0107           0
    1351 SHT  1351 S    C    CA     0.031624       12.0107           0
    1352 SHT  1352 S    C    CA     0.031624       12.0107           0
    1353 SHT  1353 S    C    CA     0.031624       12.0107           0
    1354 SHT  1354 S    C    CA     0.031624       12.0107           0
    1355 SHT  1355 S    C    CA     0.031624       12.0107           0
    1356 SHT  1356 S    C    CA     0.031624       12.0107           0
    1357 SHT  1357 S    C    CA     0.031624       12.0107           0
    1358 SHT  1358 S    C    CA     0.031624       12.0107           0
    1359 SHT  1359 S    C    CA     0.031624       12.0107           0
    1360 SHT  1360 S    C    CA     0.031624       12.0107           0
    1361 SHT  1361 S    C    CA     0.031624       12.0107           0
    1362 SHT  1362 S    C    CA     0.031624       12.0107           0
    1363 SHT  1363 S    C    CA     0.031624       12.0107           0
    1364 SHT  1364 S    C    CA     0.031624       12.0107           0
    1365 SHT  1365 S    C    CA     0.031624       12.0107           0
    1366 SHT  1366 S    C    CA     0.031624       12.0107           0
    1367 SHT  1367 S    C    CA     0.031624       12.0107           0
    1368 SHT  1368 S    C    CA     0.031624       12.0107           0
    1369 SHT  1369 S    C    CA     0.031624       12.0107           0
    1370 SHT  1370 S    C    CA     0.031624       12.0107           0
    1371 SHT  1371 S    C    CA     0.031624       12.0107           0
    1372 SHT  1372 S    C    CA     0.031624       12.0107           0
    1373 SHT  1373 S    C    CA     0.031624       12.0107           0
    1374 SHT  1374 S    C    CA     0.031624       12.0107           0
    1375 SHT  1375 S    C    CA     0.031624       12.0107           0
    1376 SHT  1376 S    C    CA     0.031624       12.0107           0
    1377 SHT  1377 S    C    CA     0.031624       12.0107           0
    1378 SHT  1378 S    C    CA     0.031624       12.0107           0
    1379 SHT  1379 S    C    CA     0.031624       12.0107           0
    1380 SHT  1380 S    C    CA     0.031624       12.0107           0
    1381 SHT  1381 S    C    CA     0.031624       12.0107           0
    1382 SHT  1382 S    C    CA     0.031624       12.0107           0
    1383 SHT  1383 S    C    CA     0.031624       12.0107           0
    1384 SHT  1384 S    C    CA     0.031624       12.0107           0
    1385 SHT  1385 S    C    CA     0.031624       12.0107           0
    1386 SHT  1386 S    C    CA     0.031624       12.0107           0
    1387 SHT  1387 S    C    CA     0.031624       12.0107           0
    1388 SHT  1388 S    C    CA     0.031624       12.0107           0
    1389 SHT  1389 S    C    CA     0.031624       12.0107           0
    1390 SHT  1390 S    C    CA     0.031624       12.0107           0
    1391 SHT  1391 S    C    CA     0.031624       12.0107           0
    1392 SHT  1392 S    C    CA     0.031624       12.0107           0
    1393 SHT  1393 S    C    CA     0.031624       12.0107           0
    1394 SHT  1394 S    C    CA     0.031624       12.0107           0
    1395 SHT  1395 S    C    CA     0.031624       12.0107           0
    1396 SHT  1396 S    C    CA     0.031624       12.0107           0
    1397 SHT  1397 S    C    CA     0.031624       12.0107           0
    1398 SHT  1398 S    C    CA     0.031624       12.0107           0
    1399 SHT  1399 S    C    CA     0.031624       12.0107           0
    1400 SHT  1400 S    C    CA     0.031624       12.0107           0
    1401 SHT  1401 S    C    CA     0.031624       12.0107           0
    1402 SHT  1402 S    C    CA     0.031624       12.0107           0
    1403 SHT  1403 S    C    CA     0.031624       12.0107           0
    1404 SHT  1404 S    C    CA     0.031624       12.0107           0
    1405 SHT  1405 S    C    CA     0.031624       12.0107           0
    1406 SHT  1406 S    C    CA     0.031624       12.0107           0
    1407 SHT  1407 S    C    CA     0.031624       12.0107           0
    1408 SHT  1408 S    C    CA     0.031624       12.0107           0
    1409 SHT  1409 S    C    CA     0.031624       12.0107           0
    1410 SHT  1410 S    C    CA     0.031624       12.0107           0
    1411 SHT  1411 S    C    CA     0.031624       12.0107           0
    1412 SHT  1412 S    C    CA     0.031624       12.0107           0
    1413 SHT  1413 S    C    CA     0.031624       12.0107           0
    1414 SHT  1414 S    C    CA     0.031624       12.0107           0
    1415 SHT  1415 S    C    CA     0.031624       12.0107           0
    1416 SHT  1416 S    C    CA     0.031624       12.0107           0
    1417 SHT  1417 S    C    CA     0.031624       12.0107           0
    1418 SHT  1418 S    C    CA     0.031624       12.0107           0
    1419 SHT  1419 S    C    CA     0.031624       12.0107           0
    1420 SHT  1420 S    C    CA     0.031624       12.0107           0
    1421 SHT  1421 S    C    CA     0.031624       12.0107           0
    1422 SHT  1422 S    C    CA     0.031624       12.0107           0
    1423 SHT  1423 S    C    CA     0.031624       12.0107           0
    1424 SHT  1424 S    C    CA     0.031624       12.0107           0
    1425 SHT  1425 S    C    CA     0.031624       12.0107           0
    1426 SHT  1426 S    C    CA     0.031624       12.0107           0
    1427 SHT  1427 S    C    CA     0.031624       12.0107           0
    1428 SHT  1428 S    C    CA     0.031624       12.0107           0
    1429 SHT  1429 S    C    CA     0.031624       12.0107           0
    1430 SHT  1430 S    C    CA     0.031624       12.0107           0
    1431 SHT  1431 S    C    CA     0.031624       12.0107           0
    1432 SHT  1432 S    C    CA     0.031624       12.0107           0
    1433 SHT  1433 S    C    CA     0.031624       12.0107           0
    1434 SHT  1434 S    C    CA     0.031624       12.0107           0
    1435 SHT  1435 S    C    CA     0.031624       12.0107           0
    1436 SHT  1436 S    C    CA     0.031624       12.0107           0
    1437 SHT  1437 S    C    CA     0.031624       12.0107           0
    1438 SHT  1438 S    C    CA     0.031624       12.0107           0
    1439 SHT  1439 S    C    CA     0.031624       12.0107           0
    1440 SHT  1440 S    C    CA     0.031624       12.0107           0
    1441 SHT  1441 S    C    CA     0.031624       12.0107           0
    1442 SHT  1442 S    C    CA     0.031624       12.0107           0
    1443 SHT  1443 S    C    CA     0.031624       12.0107           0
    1444 SHT  1444 S    C    CA     0.031624       12.0107           0
    1445 SHT  1445 S    C    CA     0.031624       12.0107           0
    1446 SHT  1446 S    C    CA     0.031624       12.0107           0
    1447 SHT  1447 S    C    CA     0.031624       12.0107           0
    1448 SHT  1448 S    C    CA     0.031624       12.0107           0
    1449 SHT  1449 S    C    CA     0.031624       12.0107           0
    1450 SHT  1450 S    C    CA     0.031624       12.0107           0
    1451 SHT  1451 S    C    CA     0.031624       12.0107           0
    1452 SHT  1452 S    C    CA     0.031624       12.0107           0
    1453 SHT  1453 S    C    CA     0.031624       12.0107           0
    1454 SHT  1454 S    C    CA     0.031624       12.0107           0
    1455 SHT  1455 S    C    CA     0.031624       12.0107           0
    1456 SHT  1456 S    C    CA     0.031624       12.0107           0
    1457 SHT  1457 S    C    CA     0.031624       12.0107           0
    1458 SHT  1458 S    C    CA     0.031624       12.0107           0
    1459 SHT  1459 S    C    CA     0.031624       12.0107           0
    1460 SHT  1460 S    C    CA     0.031624       12.0107           0
    1461 SHT  1461 S    C    CA     0.031624       12.0107           0
    1462 SHT  1462 S    C    CA     0.031624       12.0107           0
    1463 SHT  1463 S    C    CA     0.031624       12.0107           0
    1464 SHT  1464 S    C    CA     0.031624       12.0107           0
    1465 SHT  1465 S    C    CA     0.031624       12.0107           0
    1466 SHT  1466 S    C    CA     0.031624       12.0107           0
    1467 SHT  1467 S    C    CA     0.031624       12.0107           0
    1468 SHT  1468 S    C    CA     0.031624       12.0107           0
    1469 SHT  1469 S    C    CA     0.031624       12.0107           0
    1470 SHT  1470 S    C    CA     0.031624       12.0107           0
    1471 SHT  1471 S    C    CA     0.031624       12.0107           0
    1472 SHT  1472 S    C    CA     0.031624       12.0107           0
    1473 SHT  1473 S    C    CA     0.031624       12.0107           0
    1474 SHT  1474 S    C    CA     0.031624       12.0107           0
    1475 SHT  1475 S    C    CA     0.031624       12.0107           0
    1476 SHT  1476 S    C    CA     0.031624       12.0107           0
    1477 SHT  1477 S    C    CA     0.031624       12.0107           0
    1478 SHT  1478 S    C    CA     0.031624       12.0107           0
    1479 SHT  1479 S    C    CA     0.031624       12.0107           0
    1480 SHT  1480 S    C    CA     0.031624       12.0107           0
    1481 SHT  1481 S    C    CA     0.031624       12.0107           0
    1482 SHT  1482 S    C    CA     0.031624       12.0107           0
    1483 SHT  1483 S    C    CA     0.031624       12.0107           0
    1484 SHT  1484 S    C    CA     0.031624       12.0107           0
    1485 SHT  1485 S    C    CA     0.031624       12.0107           0
    1486 SHT  1486 S    C    CA     0.031624       12.0107           0
    1487 SHT  1487 S    C    CA     0.031624       12.0107           0
    1488 SHT  1488 S    C    CA     0.031624       12.0107           0
    1489 SHT  1489 S    C    CA     0.031624       12.0107           0
    1490 SHT  1490 S    C    CA     0.031624       12.0107           0
    1491 SHT  1491 S    C    CA     0.031624       12.0107           0
    1492 SHT  1492 S    C    CA     0.031624       12.0107           0
    1493 SHT  1493 S    C    CA     0.031624       12.0107           0
    1494 SHT  1494 S    C    CA     0.031624       12.0107           0
    1495 SHT  1495 S    C    CA     0.031624       12.0107           0
    1496 SHT  1496 S    C    CA     0.031624       12.0107           0
    1497 SHT  1497 S    C    CA     0.031624       12.0107           0
    1498 SHT  1498 S    C    CA     0.031624       12.0107           0
    1499 SHT  1499 S    C    CA     0.031624       12.0107           0
    1500 SHT  1500 S    C    CA     0.031624       12.0107           0
    1501 SHT  1501 S    C    CA     0.031624       12.0107           0
    1502 SHT  1502 S    C    CA     0.031624       12.0107           0
    1503 SHT  1503 S    C    CA     0.031624       12.0107           0
    1504 SHT  1504 S    C    CA     0.031624       12.0107           0
    1505 SHT  1505 S    C    CA     0.031624       12.0107           0
    1506 SHT  1506 S    C    CA     0.031624       12.0107           0
    1507 SHT  1507 S    C    CA     0.031624       12.0107           0
    1508 SHT  1508 S    C    CA     0.031624       12.0107           0
    1509 SHT  1509 S    C    CA     0.031624       12.0107           0
    1510 SHT  1510 S    C    CA     0.031624       12.0107           0
    1511 SHT  1511 S    C    CA     0.031624       12.0107           0
    1512 SHT  1512 S    C    CA     0.031624       12.0107           0
    1513 SHT  1513 S    C    CA     0.031624       12.0107           0
    1514 SHT  1514 S    C    CA     0.031624       12.0107           0
    1515 SHT  1515 S    C    CA     0.031624       12.0107           0
    1516 SHT  1516 S    C    CA     0.031624       12.0107           0
    1517 SHT  1517 S    C    CA     0.031624       12.0107           0
    1518 SHT  1518 S    C    CA     0.031624       12.0107           0
    1519 SHT  1519 S    C    CA     0.031624       12.0107           0
    1520 SHT  1520 S    C    CA     0.031624       12.0107           0
    1521 SHT  1521 S    C    CA     0.031624       12.0107           0
    1522 SHT  1522 S    C    CA     0.031624       12.0107           0
    1523 SHT  1523 S    C    CA     0.031624       12.0107           0
    1524 SHT  1524 S    C    CA     0.031624       12.0107           0
    1525 SHT  1525 S    C    CA     0.031624       12.0107           0
    1526 SHT  1526 S    C    CA     0.031624       12.0107           0
    1527 SHT  1527 S    C    CA     0.031624       12.0107           0
    1528 SHT  1528 S    C    CA     0.031624       12.0107           0
    1529 SHT  1529 S    C    CA     0.031624       12.0107           0
    1530 SHT  1530 S    C    CA     0.031624       12.0107           0
    1531 SHT  1531 S    C    CA     0.031624       12.0107           0
    1532 SHT  1532 S    C    CA     0.031624       12.0107           0
    1533 SHT  1533 S    C    CA     0.031624       12.0107           0
    1534 SHT  1534 S    C    CA     0.031624       12.0107           0
    1535 SHT  1535 S    C    CA     0.031624       12.0107           0
    1536 SHT  1536 S    C    CA     0.031624       12.0107           0
    1537 SHT  1537 S    C    CA     0.031624       12.0107           0
    1538 SHT  1538 S    C    CA     0.031624       12.0107           0
    1539 SHT  1539 S    C    CA     0.031624       12.0107           0
    1540 SHT  1540 S    C    CA     0.031624       12.0107           0
    1541 SHT  1541 S    C    CA     0.031624       12.0107           0
    1542 SHT  1542 S    C    CA     0.031624       12.0107           0
    1543 SHT  1543 S    C    CA     0.031624       12.0107           0
    1544 SHT  1544 S    C    CA     0.031624       12.0107           0
    1545 SHT  1545 S    C    CA     0.031624       12.0107           0
    1546 SHT  1546 S    C    CA     0.031624       12.0107           0
    1547 SHT  1547 S    C    CA     0.031624       12.0107           0
    1548 SHT  1548 S    C    CA     0.031624       12.0107           0
    1549 SHT  1549 S    C    CA     0.031624       12.0107           0
    1550 SHT  1550 S    C    CA     0.031624       12.0107           0
    1551 SHT  1551 S    C    CA     0.031624       12.0107           0
    1552 SHT  1552 S    C    CA     0.031624       12.0107           0
    1553 SHT  1553 S    C    CA     0.031624       12.0107           0
    1554 SHT  1554 S    C    CA     0.031624       12.0107           0
    1555 SHT  1555 S    C    CA     0.031624       12.0107           0
    1556 SHT  1556 S    C    CA     0.031624       12.0107           0
    1557 SHT  1557 S    C    CA     0.031624       12.0107           0
    1558 SHT  1558 S    C    CA     0.031624       12.0107           0
    1559 SHT  1559 S    C    CA     0.031624       12.0107           0
    1560 SHT  1560 S    C    CA     0.031624       12.0107           0
    1561 SHT  1561 S    C    CA     0.031624       12.0107           0
    1562 SHT  1562 S    C    CA     0.031624       12.0107           0
    1563 SHT  1563 S    C    CA     0.031624       12.0107           0
    1564 SHT  1564 S    C    CA     0.031624       12.0107           0
    1565 SHT  1565 S    C    CA     0.031624       12.0107           0
    1566 SHT  1566 S    C    CA     0.031624       12.0107           0
    1567 SHT  1567 S    C    CA     0.031624       12.0107           0
    1568 SHT  1568 S    C    CA     0.031624       12.0107           0
    1569 SHT  1569 S    C    CA     0.031624       12.0107           0
    1570 SHT  1570 S    C    CA     0.031624       12.0107           0
    1571 SHT  1571 S    C    CA     0.031624       12.0107           0
    1572 SHT  1572 S    C    CA     0.031624       12.0107           0
    1573 SHT  1573 S    C    CA     0.031624       12.0107           0
    1574 SHT  1574 S    C    CA     0.031624       12.0107           0
    1575 SHT  1575 S    C    CA     0.031624       12.0107           0
    1576 SHT  1576 S    C    CA     0.031624       12.0107           0
    1577 SHT  1577 S    C    CA     0.031624       12.0107           0
    1578 SHT  1578 S    C    CA     0.031624       12.0107           0
    1579 SHT  1579 S    C    CA     0.031624       12.0107           0
    1580 SHT  1580 S    C    CA     0.031624       12.0107           0
    1581 SHT  1581 S    C    CA     0.031624       12.0107           0
    1582 SHT  1582 S    C    CA     0.031624       12.0107           0
    1583 SHT  1583 S    C    CA     0.031624       12.0107           0
    1584 SHT  1584 S    C    CA     0.031624       12.0107           0
    1585 SHT  1585 S    C    CA     0.031624       12.0107           0
    1586 SHT  1586 S    C    CA     0.031624       12.0107           0
    1587 SHT  1587 S    C    CA     0.031624       12.0107           0
    1588 SHT  1588 S    C    CA     0.031624       12.0107           0
    1589 SHT  1589 S    C    CA     0.031624       12.0107           0
    1590 SHT  1590 S    C    CA     0.031624       12.0107           0
    1591 SHT  1591 S    C    CA     0.031624       12.0107           0
    1592 SHT  1592 S    C    CA     0.031624       12.0107           0
    1593 SHT  1593 S    C    CA     0.031624       12.0107           0
    1594 SHT  1594 S    C    CA     0.031624       12.0107           0
    1595 SHT  1595 S    C    CA     0.031624       12.0107           0
    1596 SHT  1596 S    C    CA     0.031624       12.0107           0
    1597 SHT  1597 S    C    CA     0.031624       12.0107           0
    1598 SHT  1598 S    C    CA     0.031624       12.0107           0
    1599 SHT  1599 S    C    CA     0.031624       12.0107           0
    1600 SHT  1600 S    C    CA     0.031624       12.0107           0
    1601 SHT  1601 S    C    CA     0.031624       12.0107           0
    1602 SHT  1602 S    C    CA     0.031624       12.0107           0
    1603 SHT  1603 S    C    CA     0.031624       12.0107           0
    1604 SHT  1604 S    C    CA     0.031624       12.0107           0
    1605 SHT  1605 S    C    CA     0.031624       12.0107           0
    1606 SHT  1606 S    C    CA     0.031624       12.0107           0
    1607 SHT  1607 S    C    CA     0.031624       12.0107           0
    1608 SHT  1608 S    C    CA     0.031624       12.0107           0
    1609 SHT  1609 S    C    CA     0.031624       12.0107           0
    1610 SHT  1610 S    C    CA     0.031624       12.0107           0
    1611 SHT  1611 S    C    CA     0.031624       12.0107           0
    1612 SHT  1612 S    C    CA     0.031624       12.0107           0
    1613 SHT  1613 S    C    CA     0.031624       12.0107           0
    1614 SHT  1614 S    C    CA     0.031624       12.0107           0
    1615 SHT  1615 S    C    CA     0.031624       12.0107           0
    1616 SHT  1616 S    C    CA     0.031624       12.0107           0
    1617 SHT  1617 S    C    CA     0.031624       12.0107           0
    1618 SHT  1618 S    C    CA     0.031624       12.0107           0
    1619 SHT  1619 S    C    CA     0.031624       12.0107           0
    1620 SHT  1620 S    C    CA     0.031624       12.0107           0
    1621 SHT  1621 S    C    CA     0.031624       12.0107           0
    1622 SHT  1622 S    C    CA     0.031624       12.0107           0
    1623 SHT  1623 S    C    CA     0.031624       12.0107           0
    1624 SHT  1624 S    C    CA     0.031624       12.0107           0
    1625 SHT  1625 S    C    CA     0.031624       12.0107           0
    1626 SHT  1626 S    C    CA     0.031624       12.0107           0
    1627 SHT  1627 S    C    CA     0.031624       12.0107           0
    1628 SHT  1628 S    C    CA     0.031624       12.0107           0
    1629 SHT  1629 S    C    CA     0.031624       12.0107           0
    1630 SHT  1630 S    C    CA     0.031624       12.0107           0
    1631 SHT  1631 S    C    CA     0.031624       12.0107           0
    1632 SHT  1632 S    C    CA     0.031624       12.0107           0
    1633 SHT  1633 S    C    CA     0.031624       12.0107           0
    1634 SHT  1634 S    C    CA     0.031624       12.0107           0
    1635 SHT  1635 S    C    CA     0.031624       12.0107           0
    1636 SHT  1636 S    C    CA     0.031624       12.0107           0
    1637 SHT  1637 S    C    CA     0.031624       12.0107           0
    1638 SHT  1638 S    C    CA     0.031624       12.0107           0
    1639 SHT  1639 S    C    CA     0.031624       12.0107           0
    1640 SHT  1640 S    C    CA     0.031624       12.0107           0
    1641 SHT  1641 S    C    CA     0.031624       12.0107           0
    1642 SHT  1642 S    C    CA     0.031624       12.0107           0
    1643 SHT  1643 S    C    CA     0.031624       12.0107           0
    1644 SHT  1644 S    C    CA     0.031624       12.0107           0
    1645 SHT  1645 S    C    CA     0.031624       12.0107           0
    1646 SHT  1646 S    C    CA     0.031624       12.0107           0
    1647 SHT  1647 S    C    CA     0.031624       12.0107           0
    1648 SHT  1648 S    C    CA     0.031624       12.0107           0
    1649 SHT  1649 S    C    CA     0.031624       12.0107           0
    1650 SHT  1650 S    C    CA     0.031624       12.0107           0
    1651 SHT  1651 S    C    CA     0.031624       12.0107           0
    1652 SHT  1652 S    C    CA     0.031624       12.0107           0
    1653 SHT  1653 S    C    CA     0.031624       12.0107           0
    1654 SHT  1654 S    C    CA     0.031624       12.0107           0
    1655 SHT  1655 S    C    CA     0.031624       12.0107           0
    1656 SHT  1656 S    C    CA     0.031624       12.0107           0
    1657 SHT  1657 S    C    CA     0.031624       12.0107           0
    1658 SHT  1658 S    C    CA     0.031624       12.0107           0
    1659 SHT  1659 S    C    CA     0.031624       12.0107           0
    1660 SHT  1660 S    C    CA     0.031624       12.0107           0
    1661 SHT  1661 S    C    CA     0.031624       12.0107           0
    1662 SHT  1662 S    C    CA     0.031624       12.0107           0
    1663 SHT  1663 S    C    CA     0.031624       12.0107           0
    1664 SHT  1664 S    C    CA     0.031624       12.0107           0
    1665 SHT  1665 S    C    CA     0.031624       12.0107           0
    1666 SHT  1666 S    C    CA     0.031624       12.0107           0
    1667 SHT  1667 S    C    CA     0.031624       12.0107           0
    1668 SHT  1668 S    C    CA     0.031624       12.0107           0
    1669 SHT  1669 S    C    CA     0.031624       12.0107           0
    1670 SHT  1670 S    C    CA     0.031624       12.0107           0
    1671 SHT  1671 S    C    CA     0.031624       12.0107           0
    1672 SHT  1672 S    C    CA     0.031624       12.0107           0
    1673 SHT  1673 S    C    CA     0.031624       12.0107           0
    1674 SHT  1674 S    C    CA     0.031624       12.0107           0
    1675 SHT  1675 S    C    CA     0.031624       12.0107           0
    1676 SHT  1676 S    C    CA     0.031624       12.0107           0
    1677 SHT  1677 S    C    CA     0.031624       12.0107           0
    1678 SHT  1678 S    C    CA     0.031624       12.0107           0
    1679 SHT  1679 S    C    CA     0.031624       12.0107           0
    1680 SHT  1680 S    C    CA     0.031624       12.0107           0
    1681 SHT  1681 S    C    CA     0.031624       12.0107           0
    1682 SHT  1682 S    C    CA     0.031624       12.0107           0
    1683 SHT  1683 S    C    CA     0.031624       12.0107           0
    1684 SHT  1684 S    C    CA     0.031624       12.0107           0
    1685 SHT  1685 S    C    CA     0.031624       12.0107           0
    1686 SHT  1686 S    C    CA     0.031624       12.0107           0
    1687 SHT  1687 S    C    CA     0.031624       12.0107           0
    1688 SHT  1688 S    C    CA     0.031624       12.0107           0
    1689 SHT  1689 S    C    CA     0.031624       12.0107           0
    1690 SHT  1690 S    C    CA     0.031624       12.0107           0
    1691 SHT  1691 S    C    CA     0.031624       12.0107           0
    1692 SHT  1692 S    C    CA     0.031624       12.0107           0
    1693 SHT  1693 S    C    CA     0.031624       12.0107           0
    1694 SHT  1694 S    C    CA     0.031624       12.0107           0
    1695 SHT  1695 S    C    CA     0.031624       12.0107           0
    1696 SHT  1696 S    C    CA     0.031624       12.0107           0
    1697 SHT  1697 S    C    CA     0.031624       12.0107           0
    1698 SHT  1698 S    C    CA     0.031624       12.0107           0
    1699 SHT  1699 S    C    CA     0.031624       12.0107           0
    1700 SHT  1700 S    C    CA     0.031624       12.0107           0
    1701 SHT  1701 S    C    CA     0.031624       12.0107           0
    1702 SHT  1702 S    C    CA     0.031624       12.0107           0
    1703 SHT  1703 S    C    CA     0.031624       12.0107           0
    1704 SHT  1704 S    C    CA     0.031624       12.0107           0
    1705 SHT  1705 S    C    CA     0.031624       12.0107           0
    1706 SHT  1706 S    C    CA     0.031624       12.0107           0
    1707 SHT  1707 S    C    CA     0.031624       12.0107           0
    1708 SHT  1708 S    C    CA     0.031624       12.0107           0
    1709 SHT  1709 S    C    CA     0.031624       12.0107           0
    1710 SHT  1710 S    C    CA     0.031624       12.0107           0
    1711 SHT  1711 S    C    CA     0.031624       12.0107           0
    1712 SHT  1712 S    C    CA     0.031624       12.0107           0
    1713 SHT  1713 S    C    CA     0.031624       12.0107           0
    1714 SHT  1714 S    C    CA     0.031624       12.0107           0
    1715 SHT  1715 S    C    CA     0.031624       12.0107           0
    1716 SHT  1716 S    C    CA     0.031624       12.0107           0
    1717 SHT  1717 S    C    CA     0.031624       12.0107           0
    1718 SHT  1718 S    C    CA     0.031624       12.0107           0
    1719 SHT  1719 S    C    CA     0.031624       12.0107           0
    1720 SHT  1720 S    C    CA     0.031624       12.0107           0
    1721 SHT  1721 S    C    CA     0.031624       12.0107           0
    1722 SHT  1722 S    C    CA     0.031624       12.0107           0
    1723 SHT  1723 S    C    CA     0.031624       12.0107           0
    1724 SHT  1724 S    C    CA     0.031624       12.0107           0
    1725 SHT  1725 S    C    CA     0.031624       12.0107           0
    1726 SHT  1726 S    C    CA     0.031624       12.0107           0
    1727 SHT  1727 S    C    CA     0.031624       12.0107           0
    1728 SHT  1728 S    C    CA     0.031624       12.0107           0
    1729 SHT  1729 S    C    CA     0.031624       12.0107           0
    1730 SHT  1730 S    C    CA     0.031624       12.0107           0
    1731 SHT  1731 S    C    CA     0.031624       12.0107           0
    1732 SHT  1732 S    C    CA     0.031624       12.0107           0
    1733 SHT  1733 S    C    CA     0.031624       12.0107           0
    1734 SHT  1734 S    C    CA     0.031624       12.0107           0
    1735 SHT  1735 S    C    CA     0.031624       12.0107           0
    1736 SHT  1736 S    C    CA     0.031624       12.0107           0
    1737 SHT  1737 S    C    CA     0.031624       12.0107           0
    1738 SHT  1738 S    C    CA     0.031624       12.0107           0
    1739 SHT  1739 S    C    CA     0.031624       12.0107           0
    1740 SHT  1740 S    C    CA     0.031624       12.0107           0
    1741 SHT  1741 S    C    CA     0.031624       12.0107           0
    1742 SHT  1742 S    C    CA     0.031624       12.0107           0
    1743 SHT  1743 S    C    CA     0.031624       12.0107           0
    1744 SHT  1744 S    C    CA     0.031624       12.0107           0
    1745 SHT  1745 S    C    CA     0.031624       12.0107           0
    1746 SHT  1746 S    C    CA     0.031624       12.0107           0
    1747 SHT  1747 S    C    CA     0.031624       12.0107           0
    1748 SHT  1748 S    C    CA     0.031624       12.0107           0
    1749 SHT  1749 S    C    CA     0.031624       12.0107           0
    1750 SHT  1750 S    C    CA     0.031624       12.0107           0
    1751 SHT  1751 S    C    CA     0.031624       12.0107           0
    1752 SHT  1752 S    C    CA     0.031624       12.0107           0
    1753 SHT  1753 S    C    CA     0.031624       12.0107           0
    1754 SHT  1754 S    C    CA     0.031624       12.0107           0
    1755 SHT  1755 S    C    CA     0.031624       12.0107           0
    1756 SHT  1756 S    C    CA     0.031624       12.0107           0
    1757 SHT  1757 S    C    CA     0.031624       12.0107           0
    1758 SHT  1758 S    C    CA     0.031624       12.0107           0
    1759 SHT  1759 S    C    CA     0.031624       12.0107           0
    1760 SHT  1760 S    C    CA     0.031624       12.0107           0
    1761 SHT  1761 S    C    CA     0.031624       12.0107           0
    1762 SHT  1762 S    C    CA     0.031624       12.0107           0
    1763 SHT  1763 S    C    CA     0.031624       12.0107           0
    1764 SHT  1764 S    C    CA     0.031624       12.0107           0
    1765 SHT  1765 S    C    CA     0.031624       12.0107           0
    1766 SHT  1766 S    C    CA     0.031624       12.0107           0
    1767 SHT  1767 S    C    CA     0.031624       12.0107           0
    1768 SHT  1768 S    C    CA     0.031624       12.0107           0
    1769 SHT  1769 S    C    CA     0.031624       12.0107           0
    1770 SHT  1770 S    C    CA     0.031624       12.0107           0
    1771 SHT  1771 S    C    CA     0.031624       12.0107           0
    1772 SHT  1772 S    C    CA     0.031624       12.0107           0
    1773 SHT  1773 S    C    CA     0.031624       12.0107           0
    1774 SHT  1774 S    C    CA     0.031624       12.0107           0
    1775 SHT  1775 S    C    CA     0.031624       12.0107           0
    1776 SHT  1776 S    C    CA     0.031624       12.0107           0
    1777 SHT  1777 S    C    CA     0.031624       12.0107           0
    1778 SHT  1778 S    C    CA     0.031624       12.0107           0
    1779 SHT  1779 S    C    CA     0.031624       12.0107           0
    1780 SHT  1780 S    C    CA     0.031624       12.0107           0
    1781 SHT  1781 S    C    CA     0.031624       12.0107           0
    1782 SHT  1782 S    C    CA     0.031624       12.0107           0
    1783 SHT  1783 S    C    CA     0.031624       12.0107           0
    1784 SHT  1784 S    C    CA     0.031624       12.0107           0
    1785 SHT  1785 S    C    CA     0.031624       12.0107           0
    1786 SHT  1786 S    C    CA     0.031624       12.0107           0
    1787 SHT  1787 S    C    CA     0.031624       12.0107           0
    1788 SHT  1788 S    C    CA     0.031624       12.0107           0
    1789 SHT  1789 S    C    CA     0.031624       12.0107           0
    1790 SHT  1790 S    C    CA     0.031624       12.0107           0
    1791 SHT  1791 S    C    CA     0.031624       12.0107           0
    1792 SHT  1792 S    C    CA     0.031624       12.0107           0
    1793 SHT  1793 S    C    CA     0.031624       12.0107           0
    1794 SHT  1794 S    C    CA     0.031624       12.0107           0
    1795 SHT  1795 S    C    CA     0.031624       12.0107           0
    1796 SHT  1796 S    C    CA     0.031624       12.0107           0
    1797 SHT  1797 S    C    CA     0.031624       12.0107           0
    1798 SHT  1798 S    C    CA     0.031624       12.0107           0
    1799 SHT  1799 S    C    CA     0.031624       12.0107           0
    1800 SHT  1800 S    C    CA     0.031624       12.0107           0
    1801 SHT  1801 S    C    CA     0.031624       12.0107           0
    1802 SHT  1802 S    C    CA     0.031624       12.0107           0
    1803 SHT  1803 S    C    CA     0.031624       12.0107           0
    1804 SHT  1804 S    C    CA     0.031624       12.0107           0
    1805 SHT  1805 S    C    CA     0.031624       12.0107           0
    1806 SHT  1806 S    C    CA     0.031624       12.0107           0
    1807 SHT  1807 S    C    CA     0.031624       12.0107           0
    1808 SHT  1808 S    C    CA     0.031624       12.0107           0
    1809 SHT  1809 S    C    CA     0.031624       12.0107           0
    1810 SHT  1810 S    C    CA     0.031624       12.0107           0
    1811 SHT  1811 S    C    CA     0.031624       12.0107           0
    1812 SHT  1812 S    C    CA     0.031624       12.0107           0
    1813 SHT  1813 S    C    CA     0.031624       12.0107           0
    1814 SHT  1814 S    C    CA     0.031624       12.0107           0
    1815 SHT  1815 S    C    CA     0.031624       12.0107           0
    1816 SHT  1816 S    C    CA     0.031624       12.0107           0
    1817 SHT  1817 S    C    CA     0.031624       12.0107           0
    1818 SHT  1818 S    C    CA     0.031624       12.0107           0
    1819 SHT  1819 S    C    CA     0.031624       12.0107           0
    1820 SHT  1820 S    C    CA     0.031624       12.0107           0
    1821 SHT  1821 S    C    CA     0.031624       12.0107           0
    1822 SHT  1822 S    C    CA     0.031624       12.0107           0
    1823 SHT  1823 S    C    CA     0.031624       12.0107           0
    1824 SHT  1824 S    C    CA     0.031624       12.0107           0
    1825 SHT  1825 S    C    CA     0.031624       12.0107           0
    1826 SHT  1826 S    C    CA     0.031624       12.0107           0
    1827 SHT  1827 S    C    CA     0.031624       12.0107           0
    1828 SHT  1828 S    C    CA     0.031624       12.0107           0
    1829 SHT  1829 S    C    CA     0.031624       12.0107           0
    1830 SHT  1830 S    C    CA     0.031624       12.0107           0
    1831 SHT  1831 S    C    CA     0.031624       12.0107           0
    1832 SHT  1832 S    C    CA     0.031624       12.0107           0
    1833 SHT  1833 S    C    CA     0.031624       12.0107           0
    1834 SHT  1834 S    C    CA     0.031624       12.0107           0
    1835 SHT  1835 S    C    CA     0.031624       12.0107           0
    1836 SHT  1836 S    C    CA     0.031624       12.0107           0
    1837 SHT  1837 S    C    CA     0.031624       12.0107           0
    1838 SHT  1838 S    C    CA     0.031624       12.0107           0
    1839 SHT  1839 S    C    CA     0.031624       12.0107           0
    1840 SHT  1840 S    C    CA     0.031624       12.0107           0
    1841 SHT  1841 S    C    CA     0.031624       12.0107           0
    1842 SHT  1842 S    C    CA     0.031624       12.0107           0
    1843 SHT  1843 S    C    CA     0.031624       12.0107           0
    1844 SHT  1844 S    C    CA     0.031624       12.0107           0
    1845 SHT  1845 S    C    CA     0.031624       12.0107           0
    1846 SHT  1846 S    C    CA     0.031624       12.0107           0
    1847 SHT  1847 S    C    CA     0.031624       12.0107           0
    1848 SHT  1848 S    C    CA     0.031624       12.0107           0
    1849 SHT  1849 S    C    CA     0.031624       12.0107           0
    1850 SHT  1850 S    C    CA     0.031624       12.0107           0
    1851 SHT  1851 S    C    CA     0.031624       12.0107           0
    1852 SHT  1852 S    C    CA     0.031624       12.0107           0
    1853 SHT  1853 S    C    CA     0.031624       12.0107           0
    1854 SHT  1854 S    C    CA     0.031624       12.0107           0
    1855 SHT  1855 S    C    CA     0.031624       12.0107           0
    1856 SHT  1856 S    C    CA     0.031624       12.0107           0
    1857 SHT  1857 S    C    CA     0.031624       12.0107           0
    1858 SHT  1858 S    C    CA     0.031624       12.0107           0
    1859 SHT  1859 S    C    CA     0.031624       12.0107           0
    1860 SHT  1860 S    C    CA     0.031624       12.0107           0
    1861 SHT  1861 S    C    CA     0.031624       12.0107           0
    1862 SHT  1862 S    C    CA     0.031624       12.0107           0
    1863 SHT  1863 S    C    CA     0.031624       12.0107           0
    1864 SHT  1864 S    C    CA     0.031624       12.0107           0
    1865 SHT  1865 S    C    CA     0.031624       12.0107           0
    1866 SHT  1866 S    C    CA     0.031624       12.0107           0
    1867 SHT  1867 S    C    CA     0.031624       12.0107           0
    1868 SHT  1868 S    C    CA     0.031624       12.0107           0
    1869 SHT  1869 S    C    CA     0.031624       12.0107           0
    1870 SHT  1870 S    C    CA     0.031624       12.0107           0
    1871 SHT  1871 S    C    CA     0.031624       12.0107           0
    1872 SHT  1872 S    C    CA     0.031624       12.0107           0
    1873 SHT  1873 S    C    CA     0.031624       12.0107           0
    1874 SHT  1874 S    C    CA     0.031624       12.0107           0
    1875 SHT  1875 S    C    CA     0.031624       12.0107           0
    1876 SHT  1876 S    C    CA     0.031624       12.0107           0
    1877 SHT  1877 S    C    CA     0.031624       12.0107           0
    1878 SHT  1878 S    C    CA     0.031624       12.0107           0
    1879 SHT  1879 S    C    CA     0.031624       12.0107           0
    1880 SHT  1880 S    C    CA     0.031624       12.0107           0
    1881 SHT  1881 S    C    CA     0.031624       12.0107           0
    1882 SHT  1882 S    C    CA     0.031624       12.0107           0
    1883 SHT  1883 S    C    CA     0.031624       12.0107           0
    1884 SHT  1884 S    C    CA     0.031624       12.0107           0
    1885 SHT  1885 S    C    CA     0.031624       12.0107           0
    1886 SHT  1886 S    C    CA     0.031624       12.0107           0
    1887 SHT  1887 S    C    CA     0.031624       12.0107           0
    1888 SHT  1888 S    C    CA     0.031624       12.0107           0
    1889 SHT  1889 S    C    CA     0.031624       12.0107           0
    1890 SHT  1890 S    C    CA     0.031624       12.0107           0
    1891 SHT  1891 S    C    CA     0.031624       12.0107           0
    1892 SHT  1892 S    C    CA     0.031624       12.0107           0
    1893 SHT  1893 S    C    CA     0.031624       12.0107           0
    1894 SHT  1894 S    C    CA     0.031624       12.0107           0
    1895 SHT  1895 S    C    CA     0.031624       12.0107           0
    1896 SHT  1896 S    C    CA     0.031624       12.0107           0
    1897 SHT  1897 S    C    CA     0.031624       12.0107           0
    1898 SHT  1898 S    C    CA     0.031624       12.0107           0
    1899 SHT  1899 S    C    CA     0.031624       12.0107           0
    1900 SHT  1900 S    C    CA     0.031624       12.0107           0
    1901 SHT  1901 S    C    CA     0.031624       12.0107           0
    1902 SHT  1902 S    C    CA     0.031624       12.0107           0
    1903 SHT  1903 S    C    CA     0.031624       12.0107           0
    1904 SHT  1904 S    C    CA     0.031624       12.0107           0
    1905 SHT  1905 S    C    CA     0.031624       12.0107           0
    1906 SHT  1906 S    C    CA     0.031624       12.0107           0
    1907 SHT  1907 S    C    CA     0.031624       12.0107           0
    1908 SHT  1908 S    C    CA     0.031624       12.0107           0
    1909 SHT  1909 S    C    CA     0.031624       12.0107           0
    1910 SHT  1910 S    C    CA     0.031624       12.0107           0
    1911 SHT  1911 S    C    CA     0.031624       12.0107           0
    1912 SHT  1912 S    C    CA     0.031624       12.0107           0
    1913 SHT  1913 S    C    CA     0.031624       12.0107           0
    1914 SHT  1914 S    C    CA     0.031624       12.0107           0
    1915 SHT  1915 S    C    CA     0.031624       12.0107           0
    1916 SHT  1916 S    C    CA     0.031624       12.0107           0
    1917 SHT  1917 S    C    CA     0.031624       12.0107           0
    1918 SHT  1918 S    C    CA     0.031624       12.0107           0
    1919 SHT  1919 S    C    CA     0.031624       12.0107           0
    1920 SHT  1920 S    C    CA     0.031624       12.0107           0
    1921 SHT  1921 S    C    CA     0.031624       12.0107           0
    1922 SHT  1922 S    C    CA     0.031624       12.0107           0
    1923 SHT  1923 S    C    CA     0.031624       12.0107           0
    1924 SHT  1924 S    C    CA     0.031624       12.0107           0
    1925 SHT  1925 S    C    CA     0.031624       12.0107           0
    1926 SHT  1926 S    C    CA     0.031624       12.0107           0
    1927 SHT  1927 S    C    CA     0.031624       12.0107           0
    1928 SHT  1928 S    C    CA     0.031624       12.0107           0
    1929 SHT  1929 S    C    CA     0.031624       12.0107           0
    1930 SHT  1930 S    C    CA     0.031624       12.0107           0
    1931 SHT  1931 S    C    CA     0.031624       12.0107           0
    1932 SHT  1932 S    C    CA     0.031624       12.0107           0
    1933 SHT  1933 S    C    CA     0.031624       12.0107           0
    1934 SHT  1934 S    C    CA     0.031624       12.0107           0
    1935 SHT  1935 S    C    CA     0.031624       12.0107           0
    1936 SHT  1936 S    C    CA     0.031624       12.0107           0
    1937 SHT  1937 S    C    CA     0.031624       12.0107           0
    1938 SHT  1938 S    C    CA     0.031624       12.0107           0
    1939 SHT  1939 S    C    CA     0.031624       12.0107           0
    1940 SHT  1940 S    C    CA     0.031624       12.0107           0
    1941 SHT  1941 S    C    CA     0.031624       12.0107           0
    1942 SHT  1942 S    C    CA     0.031624       12.0107           0
    1943 SHT  1943 S    C    CA     0.031624       12.0107           0
    1944 SHT  1944 S    C    CA     0.031624       12.0107           0
    1945 SHT  1945 S    C    CA     0.031624       12.0107           0
    1946 SHT  1946 S    C    CA     0.031624       12.0107           0
    1947 SHT  1947 S    C    CA     0.031624       12.0107           0
    1948 SHT  1948 S    C    CA     0.031624       12.0107           0
    1949 SHT  1949 S    C    CA     0.031624       12.0107           0
    1950 SHT  1950 S    C    CA     0.031624       12.0107           0
    1951 SHT  1951 S    C    CA     0.031624       12.0107           0
    1952 SHT  1952 S    C    CA     0.031624       12.0107           0
    1953 SHT  1953 S    C    CA     0.031624       12.0107           0
    1954 SHT  1954 S    C    CA     0.031624       12.0107           0
    1955 SHT  1955 S    C    CA     0.031624       12.0107           0
    1956 SHT  1956 S    C    CA     0.031624       12.0107           0
    1957 SHT  1957 S    C    CA     0.031624       12.0107           0
    1958 SHT  1958 S    C    CA     0.031624       12.0107           0
    1959 SHT  1959 S    C    CA     0.031624       12.0107           0
    1960 SHT  1960 S    C    CA     0.031624       12.0107           0
    1961 SHT  1961 S    C    CA     0.031624       12.0107           0
    1962 SHT  1962 S    C    CA     0.031624       12.0107           0
    1963 SHT  1963 S    C    CA     0.031624       12.0107           0
    1964 SHT  1964 S    C    CA     0.031624       12.0107           0
    1965 SHT  1965 S    C    CA     0.031624       12.0107           0
    1966 SHT  1966 S    C    CA     0.031624       12.0107           0
    1967 SHT  1967 S    C    CA     0.031624       12.0107           0
    1968 SHT  1968 S    C    CA     0.031624       12.0107           0
    1969 SHT  1969 S    C    CA     0.031624       12.0107           0
    1970 SHT  1970 S    C    CA     0.031624       12.0107           0
    1971 SHT  1971 S    C    CA     0.031624       12.0107           0
    1972 SHT  1972 S    C    CA     0.031624       12.0107           0
    1973 SHT  1973 S    C    CA     0.031624       12.0107           0
    1974 SHT  1974 S    C    CA     0.031624       12.0107           0
    1975 SHT  1975 S    C    CA     0.031624       12.0107           0
    1976 SHT  1976 S    C    CA     0.031624       12.0107           0
    1977 SHT  1977 S    C    CA     0.031624       12.0107           0
    1978 SHT  1978 S    C    CA     0.031624       12.0107           0
    1979 SHT  1979 S    C    CA     0.031624       12.0107           0
    1980 SHT  1980 S    C    CA     0.031624       12.0107           0
    1981 SHT  1981 S    C    CA     0.031624       12.0107           0
    1982 SHT  1982 S    C    CA     0.031624       12.0107           0
    1983 SHT  1983 S    C    CA     0.031624       12.0107           0
    1984 SHT  1984 S    C    CA     0.031624       12.0107           0
    1985 SHT  1985 S    C    CA     0.031624       12.0107           0
    1986 SHT  1986 S    C    CA     0.031624       12.0107           0
    1987 SHT  1987 S    C    CA     0.031624       12.0107           0
    1988 SHT  1988 S    C    CA     0.031624       12.0107           0
    1989 SHT  1989 S    C    CA     0.031624       12.0107           0
    1990 SHT  1990 S    C    CA     0.031624       12.0107           0
    1991 SHT  1991 S    C    CA     0.031624       12.0107           0
    1992 SHT  1992 S    C    CA     0.031624       12.0107           0
    1993 SHT  1993 S    C    CA     0.031624       12.0107           0
    1994 SHT  1994 S    C    CA     0.031624       12.0107           0
    1995 SHT  1995 S    C    CA     0.031624       12.0107           0
    1996 SHT  1996 S    C    CA     0.031624       12.0107           0
    1997 SHT  1997 S    C    CA     0.031624       12.0107           0
    1998 SHT  1998 S    C    CA     0.031624       12.0107           0
    1999 SHT  1999 S    C    CA     0.031624       12.0107           0
    2000 SHT  2000 S    C    CA     0.031624       12.0107           0
    2001 SHT  2001 S    C    CA     0.031624       12.0107           0
    2002 SHT  2002 S    C    CA     0.031624       12.0107           0
    2003 SHT  2003 S    C    CA     0.031624       12.0107           0
    2004 SHT  2004 S    C    CA     0.031624       12.0107           0
    2005 SHT  2005 S    C    CA     0.031624       12.0107           0
    2006 SHT  2006 S    C    CA     0.031624       12.0107           0
    2007 SHT  2007 S    C    CA     0.031624       12.0107           0
    2008 SHT  2008 S    C    CA     0.031624       12.0107           0
    2009 SHT  2009 S    C    CA     0.031624       12.0107           0
    2010 SHT  2010 S    C    CA     0.031624       12.0107           0
    2011 SHT  2011 S    C    CA     0.031624       12.0107           0
    2012 SHT  2012 S    C    CA     0.031624       12.0107           0
    2013 SHT  2013 S    C    CA     0.031624       12.0107           0
    2014 SHT  2014 S    C    CA     0.031624       12.0107           0
    2015 SHT  2015 S    C    CA     0.031624       12.0107           0
    2016 SHT  2016 S    C    CA     0.031624       12.0107           0
    2017 SHT  2017 S    C    CA     0.031624       12.0107           0
    2018 SHT  2018 S    C    CA     0.031624       12.0107           0
    2019 SHT  2019 S    C    CA     0.031624       12.0107           0
    2020 SHT  2020 S    C    CA     0.031624       12.0107           0
    2021 SHT  2021 S    C    CA     0.031624       12.0107           0
    2022 SHT  2022 S    C    CA     0.031624       12.0107           0
    2023 SHT  2023 S    C    CA     0.031624       12.0107           0
    2024 SHT  2024 S    C    CA     0.031624       12.0107           0
    2025 SHT  2025 S    C    CA     0.031624       12.0107           0
    2026 SHT  2026 S    C    CA     0.031624       12.0107           0
    2027 SHT  2027 S    C    CA     0.031624       12.0107           0
    2028 SHT  2028 S    C    CA     0.031624       12.0107           0
    2029 SHT  2029 S    C    CA     0.031624       12.0107           0
    2030 SHT  2030 S    C    CA     0.031624       12.0107           0
    2031 SHT  2031 S    C    CA     0.031624       12.0107           0
    2032 SHT  2032 S    C    CA     0.031624       12.0107           0
    2033 SHT  2033 S    C    CA     0.031624       12.0107           0
    2034 SHT  2034 S    C    CA     0.031624       12.0107           0
    2035 SHT  2035 S    C    CA     0.031624       12.0107           0
    2036 SHT  2036 S    C    CA     0.031624       12.0107           0
    2037 SHT  2037 S    C    CA     0.031624       12.0107           0
    2038 SHT  2038 S    C    CA     0.031624       12.0107           0
    2039 SHT  2039 S    C    CA     0.031624       12.0107           0
    2040 SHT  2040 S    C    CA     0.031624       12.0107           0
    2041 SHT  2041 S    C    CA     0.031624       12.0107           0
    2042 SHT  2042 S    C    CA     0.031624       12.0107           0
    2043 SHT  2043 S    C    CA     0.031624       12.0107           0
    2044 SHT  2044 S    C    CA     0.031624       12.0107           0
    2045 SHT  2045 S    C    CA     0.031624       12.0107           0
    2046 SHT  2046 S    C    CA     0.031624       12.0107           0
    2047 SHT  2047 S    C    CA     0.031624       12.0107           0
    2048 SHT  2048 S    C    CA     0.031624       12.0107           0
    2049 SHT  2049 S    C    CA     0.031624       12.0107           0
    2050 SHT  2050 S    C    CA     0.031624       12.0107           0
    2051 SHT  2051 S    C    CA     0.031624       12.0107           0
    2052 SHT  2052 S    C    CA     0.031624       12.0107           0
    2053 SHT  2053 S    C    CA     0.031624       12.0107           0
    2054 SHT  2054 S    C    CA     0.031624       12.0107           0
    2055 SHT  2055 S    C    CA     0.031624       12.0107           0
    2056 SHT  2056 S    C    CA     0.031624       12.0107           0
    2057 SHT  2057 S    C    CA     0.031624       12.0107           0
    2058 SHT  2058 S    C    CA     0.031624       12.0107           0
    2059 SHT  2059 S    C    CA     0.031624       12.0107           0
    2060 SHT  2060 S    C    CA     0.031624       12.0107           0
    2061 SHT  2061 S    C    CA     0.031624       12.0107           0
    2062 SHT  2062 S    C    CA     0.031624       12.0107           0
    2063 SHT  2063 S    C    CA     0.031624       12.0107           0
    2064 SHT  2064 S    C    CA     0.031624       12.0107           0
    2065 SHT  2065 S    C    CA     0.031624       12.0107           0
    2066 SHT  2066 S    C    CA     0.031624       12.0107           0
    2067 SHT  2067 S    C    CA     0.031624       12.0107           0
    2068 SHT  2068 S    C    CA     0.031624       12.0107           0
    2069 SHT  2069 S    C    CA     0.031624       12.0107           0
    2070 SHT  2070 S    C    CA     0.031624       12.0107           0
    2071 SHT  2071 S    C    CA     0.031624       12.0107           0
    2072 SHT  2072 S    C    CA     0.031624       12.0107           0
    2073 SHT  2073 S    C    CA     0.031624       12.0107           0
    2074 SHT  2074 S    C    CA     0.031624       12.0107           0
    2075 SHT  2075 S    C    CA     0.031624       12.0107           0
    2076 SHT  2076 S    C    CA     0.031624       12.0107           0
    2077 SHT  2077 S    C    CA     0.031624       12.0107           0
    2078 SHT  2078 S    C    CA     0.031624       12.0107           0
    2079 SHT  2079 S    C    CA     0.031624       12.0107           0
    2080 SHT  2080 S    C    CA     0.031624       12.0107           0
    2081 SHT  2081 S    C    CA     0.031624       12.0107           0
    2082 SHT  2082 S    C    CA     0.031624       12.0107           0
    2083 SHT  2083 S    C    CA     0.031624       12.0107           0
    2084 SHT  2084 S    C    CA     0.031624       12.0107           0
    2085 SHT  2085 S    C    CA     0.031624       12.0107           0
    2086 SHT  2086 S    C    CA     0.031624       12.0107           0
    2087 SHT  2087 S    C    CA     0.031624       12.0107           0
    2088 SHT  2088 S    C    CA     0.031624       12.0107           0
    2089 SHT  2089 S    C    CA     0.031624       12.0107           0
    2090 SHT  2090 S    C    CA     0.031624       12.0107           0
    2091 SHT  2091 S    C    CA     0.031624       12.0107           0
    2092 SHT  2092 S    C    CA     0.031624       12.0107           0
    2093 SHT  2093 S    C    CA     0.031624       12.0107           0
    2094 SHT  2094 S    C    CA     0.031624       12.0107           0
    2095 SHT  2095 S    C    CA     0.031624       12.0107           0
    2096 SHT  2096 S    C    CA     0.031624       12.0107           0
    2097 SHT  2097 S    C    CA     0.031624       12.0107           0
    2098 SHT  2098 S    C    CA     0.031624       12.0107           0
    2099 SHT  2099 S    C    CA     0.031624       12.0107           0
    2100 SHT  2100 S    C    CA     0.031624       12.0107           0
    2101 SHT  2101 S    C    CA     0.031624       12.0107           0
    2102 SHT  2102 S    C    CA     0.031624       12.0107           0
    2103 SHT  2103 S    C    CA     0.031624       12.0107           0
    2104 SHT  2104 S    C    CA     0.031624       12.0107           0
    2105 SHT  2105 S    C    CA     0.031624       12.0107           0
    2106 SHT  2106 S    C    CA     0.031624       12.0107           0
    2107 SHT  2107 S    C    CA     0.031624       12.0107           0
    2108 SHT  2108 S    C    CA     0.031624       12.0107           0
    2109 SHT  2109 S    C    CA     0.031624       12.0107           0
    2110 SHT  2110 S    C    CA     0.031624       12.0107           0
    2111 SHT  2111 S    C    CA     0.031624       12.0107           0
    2112 SHT  2112 S    C    CA     0.031624       12.0107           0
    2113 SHT  2113 S    C    CA     0.031624       12.0107           0
    2114 SHT  2114 S    C    CA     0.031624       12.0107           0
    2115 SHT  2115 S    C    CA     0.031624       12.0107           0
    2116 SHT  2116 S    C    CA     0.031624       12.0107           0
    2117 SHT  2117 S    C    CA     0.031624       12.0107           0
    2118 SHT  2118 S    C    CA     0.031624       12.0107           0
    2119 SHT  2119 S    C    CA     0.031624       12.0107           0
    2120 SHT  2120 S    C    CA     0.031624       12.0107           0
    2121 SHT  2121 S    C    CA     0.031624       12.0107           0
    2122 SHT  2122 S    C    CA     0.031624       12.0107           0
    2123 SHT  2123 S    C    CA     0.031624       12.0107           0
    2124 SHT  2124 S    C    CA     0.031624       12.0107           0
    2125 SHT  2125 S    C    CA     0.031624       12.0107           0
    2126 SHT  2126 S    C    CA     0.031624       12.0107           0
    2127 SHT  2127 S    C    CA     0.031624       12.0107           0
    2128 SHT  2128 S    C    CA     0.031624       12.0107           0
    2129 SHT  2129 S    C    CA     0.031624       12.0107           0
    2130 SHT  2130 S    C    CA     0.031624       12.0107           0
    2131 SHT  2131 S    C    CA     0.031624       12.0107           0
    2132 SHT  2132 S    C    CA     0.031624       12.0107           0
    2133 SHT  2133 S    C    CA     0.031624       12.0107           0
    2134 SHT  2134 S    C    CA     0.031624       12.0107           0
    2135 SHT  2135 S    C    CA     0.031624       12.0107           0
    2136 SHT  2136 S    C    CA     0.031624       12.0107           0
    2137 SHT  2137 S    C    CA     0.031624       12.0107           0
    2138 SHT  2138 S    C    CA     0.031624       12.0107           0
    2139 SHT  2139 S    C    CA     0.031624       12.0107           0
    2140 SHT  2140 S    C    CA     0.031624       12.0107           0
    2141 SHT  2141 S    C    CA     0.031624       12.0107           0
    2142 SHT  2142 S    C    CA     0.031624       12.0107           0
    2143 SHT  2143 S    C    CA     0.031624       12.0107           0
    2144 SHT  2144 S    C    CA     0.031624       12.0107           0
    2145 SHT  2145 S    C    CA     0.031624       12.0107           0
    2146 SHT  2146 S    C    CA     0.031624       12.0107           0
    2147 SHT  2147 S    C    CA     0.031624       12.0107           0
    2148 SHT  2148 S    C    CA     0.031624       12.0107           0
    2149 SHT  2149 S    C    CA     0.031624       12.0107           0
    2150 SHT  2150 S    C    CA     0.031624       12.0107           0
    2151 SHT  2151 S    C    CA     0.031624       12.0107           0
    2152 SHT  2152 S    C    CA     0.031624       12.0107           0
    2153 SHT  2153 S    C    CA     0.031624       12.0107           0
    2154 SHT  2154 S    C    CA     0.031624       12.0107           0
    2155 SHT  2155 S    C    CA     0.031624       12.0107           0
    2156 SHT  2156 S    C    CA     0.031624       12.0107           0
    2157 SHT  2157 S    C    CA     0.031624       12.0107           0
    2158 SHT  2158 S    C    CA     0.031624       12.0107           0
    2159 SHT  2159 S    C    CA     0.031624       12.0107           0
    2160 SHT  2160 S    C    CA     0.031624       12.0107           0
    2161 SHT  2161 S    C    CA     0.031624       12.0107           0
    2162 SHT  2162 S    C    CA     0.031624       12.0107           0
    2163 SHT  2163 S    C    CA     0.031624       12.0107           0
    2164 SHT  2164 S    C    CA     0.031624       12.0107           0
    2165 SHT  2165 S    C    CA     0.031624       12.0107           0
    2166 SHT  2166 S    C    CA     0.031624       12.0107           0
    2167 SHT  2167 S    C    CA     0.031624       12.0107           0
    2168 SHT  2168 S    C    CA     0.031624       12.0107           0
    2169 SHT  2169 S    C    CA     0.031624       12.0107           0
    2170 SHT  2170 S    C    CA     0.031624       12.0107           0
    2171 SHT  2171 S    C    CA     0.031624       12.0107           0
    2172 SHT  2172 S    C    CA     0.031624       12.0107           0
    2173 SHT  2173 S    C    CA     0.031624       12.0107           0
    2174 SHT  2174 S    C    CA     0.031624       12.0107           0
    2175 SHT  2175 S    C    CA     0.031624       12.0107           0
    2176 SHT  2176 S    C    CA     0.031624       12.0107           0
    2177 SHT  2177 S    C    CA     0.031624       12.0107           0
    2178 SHT  2178 S    C    CA     0.031624       12.0107           0
    2179 SHT  2179 S    C    CA     0.031624       12.0107           0
    2180 SHT  2180 S    C    CA     0.031624       12.0107           0
    2181 SHT  2181 S    C    CA     0.031624       12.0107           0
    2182 SHT  2182 S    C    CA     0.031624       12.0107           0
    2183 SHT  2183 S    C    CA     0.031624       12.0107           0
    2184 SHT  2184 S    C    CA     0.031624       12.0107           0
    2185 SHT  2185 S    C    CA     0.031624       12.0107           0
    2186 SHT  2186 S    C    CA     0.031624       12.0107           0
    2187 SHT  2187 S    C    CA     0.031624       12.0107           0
    2188 SHT  2188 S    C    CA     0.031624       12.0107           0
    2189 SHT  2189 S    C    CA     0.031624       12.0107           0
    2190 SHT  2190 S    C    CA     0.031624       12.0107           0
    2191 SHT  2191 S    C    CA     0.031624       12.0107           0
    2192 SHT  2192 S    C    CA     0.031624       12.0107           0
    2193 SHT  2193 S    C    CA     0.031624       12.0107           0
    2194 SHT  2194 S    C    CA     0.031624       12.0107           0
    2195 SHT  2195 S    C    CA     0.031624       12.0107           0
    2196 SHT  2196 S    C    CA     0.031624       12.0107           0
    2197 SHT  2197 S    C    CA     0.031624       12.0107           0
    2198 SHT  2198 S    C    CA     0.031624       12.0107           0
    2199 SHT  2199 S    C    CA     0.031624       12.0107           0
    2200 SHT  2200 S    C    CA     0.031624       12.0107           0
    2201 SHT  2201 S    C    CA     0.031624       12.0107           0
    2202 SHT  2202 S    C    CA     0.031624       12.0107           0
    2203 SHT  2203 S    C    CA     0.031624       12.0107           0
    2204 SHT  2204 S    C    CA     0.031624       12.0107           0
    2205 SHT  2205 S    C    CA     0.031624       12.0107           0
    2206 SHT  2206 S    C    CA     0.031624       12.0107           0
    2207 SHT  2207 S    C    CA     0.031624       12.0107           0
    2208 SHT  2208 S    C    CA     0.031624       12.0107           0
    2209 SHT  2209 S    C    CA     0.031624       12.0107           0
    2210 SHT  2210 S    C    CA     0.031624       12.0107           0
    2211 SHT  2211 S    C    CA     0.031624       12.0107           0
    2212 SHT  2212 S    C    CA     0.031624       12.0107           0
    2213 SHT  2213 S    C    CA     0.031624       12.0107           0
    2214 SHT  2214 S    C    CA     0.031624       12.0107           0
    2215 SHT  2215 S    C    CA     0.031624       12.0107           0
    2216 SHT  2216 S    C    CA     0.031624       12.0107           0
    2217 SHT  2217 S    C    CA     0.031624       12.0107           0
    2218 SHT  2218 S    C    CA     0.031624       12.0107           0
    2219 SHT  2219 S    C    CA     0.031624       12.0107           0
    2220 SHT  2220 S    C    CA     0.031624       12.0107           0
    2221 SHT  2221 S    C    CA     0.031624       12.0107           0
    2222 SHT  2222 S    C    CA     0.031624       12.0107           0
    2223 SHT  2223 S    C    CA     0.031624       12.0107           0
    2224 SHT  2224 S    C    CA     0.031624       12.0107           0
    2225 SHT  2225 S    C    CA     0.031624       12.0107           0
    2226 SHT  2226 S    C    CA     0.031624       12.0107           0
    2227 SHT  2227 S    C    CA     0.031624       12.0107           0
    2228 SHT  2228 S    C    CA     0.031624       12.0107           0
    2229 SHT  2229 S    C    CA     0.031624       12.0107           0
    2230 SHT  2230 S    C    CA     0.031624       12.0107           0
    2231 SHT  2231 S    C    CA     0.031624       12.0107           0
    2232 SHT  2232 S    C    CA     0.031624       12.0107           0
    2233 SHT  2233 S    C    CA     0.031624       12.0107           0
    2234 SHT  2234 S    C    CA     0.031624       12.0107           0
    2235 SHT  2235 S    C    CA     0.031624       12.0107           0
    2236 SHT  2236 S    C    CA     0.031624       12.0107           0
    2237 SHT  2237 S    C    CA     0.031624       12.0107           0
    2238 SHT  2238 S    C    CA     0.031624       12.0107           0
    2239 SHT  2239 S    C    CA     0.031624       12.0107           0
    2240 SHT  2240 S    C    CA     0.031624       12.0107           0
    2241 SHT  2241 S    C    CA     0.031624       12.0107           0
    2242 SHT  2242 S    C    CA     0.031624       12.0107           0
    2243 SHT  2243 S    C    CA     0.031624       12.0107           0
    2244 SHT  2244 S    C    CA     0.031624       12.0107           0
    2245 SHT  2245 S    C    CA     0.031624       12.0107           0
    2246 SHT  2246 S    C    CA     0.031624       12.0107           0
    2247 SHT  2247 S    C    CA     0.031624       12.0107           0
    2248 SHT  2248 S    C    CA     0.031624       12.0107           0
    2249 SHT  2249 S    C    CA     0.031624       12.0107           0
    2250 SHT  2250 S    C    CA     0.031624       12.0107           0
    2251 SHT  2251 S    C    CA     0.031624       12.0107           0
    2252 SHT  2252 S    C    CA     0.031624       12.0107           0
    2253 SHT  2253 S    C    CA     0.031624       12.0107           0
    2254 SHT  2254 S    C    CA     0.031624       12.0107           0
    2255 SHT  2255 S    C    CA     0.031624       12.0107           0
    2256 SHT  2256 S    C    CA     0.031624       12.0107           0
    2257 SHT  2257 S    C    CA     0.031624       12.0107           0
    2258 SHT  2258 S    C    CA     0.031624       12.0107           0
    2259 SHT  2259 S    C    CA     0.031624       12.0107           0
    2260 SHT  2260 S    C    CA     0.031624       12.0107           0
    2261 SHT  2261 S    C    CA     0.031624       12.0107           0
    2262 SHT  2262 S    C    CA     0.031624       12.0107           0
    2263 SHT  2263 S    C    CA     0.031624       12.0107           0
    2264 SHT  2264 S    C    CA     0.031624       12.0107           0
    2265 SHT  2265 S    C    CA     0.031624       12.0107           0
    2266 SHT  2266 S    C    CA     0.031624       12.0107           0
    2267 SHT  2267 S    C    CA     0.031624       12.0107           0
    2268 SHT  2268 S    C    CA     0.031624       12.0107           0
    2269 SHT  2269 S    C    CA     0.031624       12.0107           0
    2270 SHT  2270 S    C    CA     0.031624       12.0107           0
    2271 SHT  2271 S    C    CA     0.031624       12.0107           0
    2272 SHT  2272 S    C    CA     0.031624       12.0107           0
    2273 SHT  2273 S    C    CA     0.031624       12.0107           0
    2274 SHT  2274 S    C    CA     0.031624       12.0107           0
    2275 SHT  2275 S    C    CA     0.031624       12.0107           0
    2276 SHT  2276 S    C    CA     0.031624       12.0107           0
    2277 SHT  2277 S    C    CA     0.031624       12.0107           0
    2278 SHT  2278 S    C    CA     0.031624       12.0107           0
    2279 SHT  2279 S    C    CA     0.031624       12.0107           0
    2280 SHT  2280 S    C    CA     0.031624       12.0107           0
    2281 SHT  2281 S    C    CA     0.031624       12.0107           0
    2282 SHT  2282 S    C    CA     0.031624       12.0107           0
    2283 SHT  2283 S    C    CA     0.031624       12.0107           0
    2284 SHT  2284 S    C    CA     0.031624       12.0107           0
    2285 SHT  2285 S    C    CA     0.031624       12.0107           0
    2286 SHT  2286 S    C    CA     0.031624       12.0107           0
    2287 SHT  2287 S    C    CA     0.031624       12.0107           0
    2288 SHT  2288 S    C    CA     0.031624       12.0107           0
    2289 SHT  2289 S    C    CA     0.031624       12.0107           0
    2290 SHT  2290 S    C    CA     0.031624       12.0107           0
    2291 SHT  2291 S    C    CA     0.031624       12.0107           0
    2292 SHT  2292 S    C    CA     0.031624       12.0107           0
    2293 SHT  2293 S    C    CA     0.031624       12.0107           0
    2294 SHT  2294 S    C    CA     0.031624       12.0107           0
    2295 SHT  2295 S    C    CA     0.031624       12.0107           0
    2296 SHT  2296 S    C    CA     0.031624       12.0107           0
    2297 SHT  2297 S    C    CA     0.031624       12.0107           0
    2298 SHT  2298 S    C    CA     0.031624       12.0107           0
    2299 SHT  2299 S    C    CA     0.031624       12.0107           0
    2300 SHT  2300 S    C    CA     0.031624       12.0107           0
    2301 SHT  2301 S    C    CA     0.031624       12.0107           0
    2302 SHT  2302 S    C    CA     0.031624       12.0107           0
    2303 SHT  2303 S    C    CA     0.031624       12.0107           0
    2304 SHT  2304 S    C    CA     0.031624       12.0107           0
    2305 SHT  2305 S    C    CA     0.031624       12.0107           0
    2306 SHT  2306 S    C    CA     0.031624       12.0107           0
    2307 SHT  2307 S    C    CA     0.031624       12.0107           0
    2308 SHT  2308 S    C    CA     0.031624       12.0107           0
    2309 SHT  2309 S    C    CA     0.031624       12.0107           0
    2310 SHT  2310 S    C    CA     0.031624       12.0107           0
    2311 SHT  2311 S    C    CA     0.031624       12.0107           0
    2312 SHT  2312 S    C    CA     0.031624       12.0107           0
    2313 SHT  2313 S    C    CA     0.031624       12.0107           0
    2314 SHT  2314 S    C    CA     0.031624       12.0107           0
    2315 SHT  2315 S    C    CA     0.031624       12.0107           0
    2316 SHT  2316 S    C    CA     0.031624       12.0107           0
    2317 SHT  2317 S    C    CA     0.031624       12.0107           0
    2318 SHT  2318 S    C    CA     0.031624       12.0107           0
    2319 SHT  2319 S    C    CA     0.031624       12.0107           0
    2320 SHT  2320 S    C    CA     0.031624       12.0107           0
    2321 SHT  2321 S    C    CA     0.031624       12.0107           0
    2322 SHT  2322 S    C    CA     0.031624       12.0107           0
    2323 SHT  2323 S    C    CA     0.031624       12.0107           0
    2324 SHT  2324 S    C    CA     0.031624       12.0107           0
    2325 SHT  2325 S    C    CA     0.031624       12.0107           0
    2326 SHT  2326 S    C    CA     0.031624       12.0107           0
    2327 SHT  2327 S    C    CA     0.031624       12.0107           0
    2328 SHT  2328 S    C    CA     0.031624       12.0107           0
    2329 SHT  2329 S    C    CA     0.031624       12.0107           0
    2330 SHT  2330 S    C    CA     0.031624       12.0107           0
    2331 SHT  2331 S    C    CA     0.031624       12.0107           0
    2332 SHT  2332 S    C    CA     0.031624       12.0107           0
    2333 SHT  2333 S    C    CA     0.031624       12.0107           0
    2334 SHT  2334 S    C    CA     0.031624       12.0107           0
    2335 SHT  2335 S    C    CA     0.031624       12.0107           0
    2336 SHT  2336 S    C    CA     0.031624       12.0107           0
    2337 SHT  2337 S    C    CA     0.031624       12.0107           0
    2338 SHT  2338 S    C    CA     0.031624       12.0107           0
    2339 SHT  2339 S    C    CA     0.031624       12.0107           0
    2340 SHT  2340 S    C    CA     0.031624       12.0107           0
    2341 SHT  2341 S    C    CA     0.031624       12.0107           0
    2342 SHT  2342 S    C    CA     0.031624       12.0107           0
    2343 SHT  2343 S    C    CA     0.031624       12.0107           0
    2344 SHT  2344 S    C    CA     0.031624       12.0107           0
    2345 SHT  2345 S    C    CA     0.031624       12.0107           0
    2346 SHT  2346 S    C    CA     0.031624       12.0107           0
    2347 SHT  2347 S    C    CA     0.031624       12.0107           0
    2348 SHT  2348 S    C    CA     0.031624       12.0107           0
    2349 SHT  2349 S    C    CA     0.031624       12.0107           0
    2350 SHT  2350 S    C    CA     0.031624       12.0107           0
    2351 SHT  2351 S    C    CA     0.031624       12.0107           0
    2352 SHT  2352 S    C    CA     0.031624       12.0107           0
    2353 SHT  2353 S    C    CA     0.031624       12.0107           0
    2354 SHT  2354 S    C    CA     0.031624       12.0107           0
    2355 SHT  2355 S    C    CA     0.031624       12.0107           0
    2356 SHT  2356 S    C    CA     0.031624       12.0107           0
    2357 SHT  2357 S    C    CA     0.031624       12.0107           0
    2358 SHT  2358 S    C    CA     0.031624       12.0107           0
    2359 SHT  2359 S    C    CA     0.031624       12.0107           0
    2360 SHT  2360 S    C    CA     0.031624       12.0107           0
    2361 SHT  2361 S    C    CA     0.031624       12.0107           0
    2362 SHT  2362 S    C    CA     0.031624       12.0107           0
    2363 SHT  2363 S    C    CA     0.031624       12.0107           0
    2364 SHT  2364 S    C    CA     0.031624       12.0107           0
    2365 SHT  2365 S    C    CA     0.031624       12.0107           0
    2366 SHT  2366 S    C    CA     0.031624       12.0107           0
    2367 SHT  2367 S    C    CA     0.031624       12.0107           0
    2368 SHT  2368 S    C    CA     0.031624       12.0107           0
    2369 SHT  2369 S    C    CA     0.031624       12.0107           0
    2370 SHT  2370 S    C    CA     0.031624       12.0107           0
    2371 SHT  2371 S    C    CA     0.031624       12.0107           0
    2372 SHT  2372 S    C    CA     0.031624       12.0107           0
    2373 SHT  2373 S    C    CA     0.031624       12.0107           0
    2374 SHT  2374 S    C    CA     0.031624       12.0107           0
    2375 SHT  2375 S    C    CA     0.031624       12.0107           0
    2376 SHT  2376 S    C    CA     0.031624       12.0107           0
    2377 SHT  2377 S    C    CA     0.031624       12.0107           0
    2378 SHT  2378 S    C    CA     0.031624       12.0107           0
    2379 SHT  2379 S    C    CA     0.031624       12.0107           0
    2380 SHT  2380 S    C    CA     0.031624       12.0107           0
    2381 SHT  2381 S    C    CA     0.031624       12.0107           0
    2382 SHT  2382 S    C    CA     0.031624       12.0107           0
    2383 SHT  2383 S    C    CA     0.031624       12.0107           0
    2384 SHT  2384 S    C    CA     0.031624       12.0107           0
    2385 SHT  2385 S    C    CA     0.031624       12.0107           0
    2386 SHT  2386 S    C    CA     0.031624       12.0107           0
    2387 SHT  2387 S    C    CA     0.031624       12.0107           0
    2388 SHT  2388 S    C    CA     0.031624       12.0107           0
    2389 SHT  2389 S    C    CA     0.031624       12.0107           0
    2390 SHT  2390 S    C    CA     0.031624       12.0107           0
    2391 SHT  2391 S    C    CA     0.031624       12.0107           0
    2392 SHT  2392 S    C    CA     0.031624       12.0107           0
    2393 SHT  2393 S    C    CA     0.031624       12.0107           0
    2394 SHT  2394 S    C    CA     0.031624       12.0107           0
    2395 SHT  2395 S    C    CA     0.031624       12.0107           0
    2396 SHT  2396 S    C    CA     0.031624       12.0107           0
    2397 SHT  2397 S    C    CA     0.031624       12.0107           0
    2398 SHT  2398 S    C    CA     0.031624       12.0107           0
    2399 SHT  2399 S    C    CA     0.031624       12.0107           0
    2400 SHT  2400 S    C    CA     0.031624       12.0107           0
    2401 SHT  2401 S    C    CA     0.031624       12.0107           0
    2402 SHT  2402 S    C    CA     0.031624       12.0107           0
    2403 SHT  2403 S    C    CA     0.031624       12.0107           0
    2404 SHT  2404 S    C    CA     0.031624       12.0107           0
    2405 SHT  2405 S    C    CA     0.031624       12.0107           0
    2406 SHT  2406 S    C    CA     0.031624       12.0107           0
    2407 SHT  2407 S    C    CA     0.031624       12.0107           0
    2408 SHT  2408 S    C    CA     0.031624       12.0107           0
    2409 SHT  2409 S    C    CA     0.031624       12.0107           0
    2410 SHT  2410 S    C    CA     0.031624       12.0107           0
    2411 SHT  2411 S    C    CA     0.031624       12.0107           0
    2412 SHT  2412 S    C    CA     0.031624       12.0107           0
    2413 SHT  2413 S    C    CA     0.031624       12.0107           0
    2414 SHT  2414 S    C    CA     0.031624       12.0107           0
    2415 SHT  2415 S    C    CA     0.031624       12.0107           0
    2416 SHT  2416 S    C    CA     0.031624       12.0107           0
    2417 SHT  2417 S    C    CA     0.031624       12.0107           0
    2418 SHT  2418 S    C    CA     0.031624       12.0107           0
    2419 SHT  2419 S    C    CA     0.031624       12.0107           0
    2420 SHT  2420 S    C    CA     0.031624       12.0107           0
    2421 SHT  2421 S    C    CA     0.031624       12.0107           0
    2422 SHT  2422 S    C    CA     0.031624       12.0107           0
    2423 SHT  2423 S    C    CA     0.031624       12.0107           0
    2424 SHT  2424 S    C    CA     0.031624       12.0107           0
    2425 SHT  2425 S    C    CA     0.031624       12.0107           0
    2426 SHT  2426 S    C    CA     0.031624       12.0107           0
    2427 SHT  2427 S    C    CA     0.031624       12.0107           0
    2428 SHT  2428 S    C    CA     0.031624       12.0107           0
    2429 SHT  2429 S    C    CA     0.031624       12.0107           0
    2430 SHT  2430 S    C    CA     0.031624       12.0107           0
    2431 SHT  2431 S    C    CA     0.031624       12.0107           0
    2432 SHT  2432 S    C    CA     0.031624       12.0107           0
    2433 SHT  2433 S    C    CA     0.031624       12.0107           0
    2434 SHT  2434 S    C    CA     0.031624       12.0107           0
    2435 SHT  2435 S    C    CA     0.031624       12.0107           0
    2436 SHT  2436 S    C    CA     0.031624       12.0107           0
    2437 SHT  2437 S    C    CA     0.031624       12.0107           0
    2438 SHT  2438 S    C    CA     0.031624       12.0107           0
    2439 SHT  2439 S    C    CA     0.031624       12.0107           0
    2440 SHT  2440 S    C    CA     0.031624       12.0107           0
    2441 SHT  2441 S    C    CA     0.031624       12.0107           0
    2442 SHT  2442 S    C    CA     0.031624       12.0107           0
    2443 SHT  2443 S    C    CA     0.031624       12.0107           0
    2444 SHT  2444 S    C    CA     0.031624       12.0107           0
    2445 SHT  2445 S    C    CA     0.031624       12.0107           0
    2446 SHT  2446 S    C    CA     0.031624       12.0107           0
    2447 SHT  2447 S    C    CA     0.031624       12.0107           0
    2448 SHT  2448 S    C    CA     0.031624       12.0107           0
    2449 SHT  2449 S    C    CA     0.031624       12.0107           0
    2450 SHT  2450 S    C    CA     0.031624       12.0107           0
    2451 SHT  2451 S    C    CA     0.031624       12.0107           0
    2452 SHT  2452 S    C    CA     0.031624       12.0107           0
    2453 SHT  2453 S    C    CA     0.031624       12.0107           0
    2454 SHT  2454 S    C    CA     0.031624       12.0107           0
    2455 SHT  2455 S    C    CA     0.031624       12.0107           0
    2456 SHT  2456 S    C    CA     0.031624       12.0107           0
    2457 SHT  2457 S    C    CA     0.031624       12.0107           0
    2458 SHT  2458 S    C    CA     0.031624       12.0107           0
    2459 SHT  2459 S    C    CA     0.031624       12.0107           0
    2460 SHT  2460 S    C    CA     0.031624       12.0107           0
    2461 SHT  2461 S    C    CA     0.031624       12.0107           0
    2462 SHT  2462 S    C    CA     0.031624       12.0107           0
    2463 SHT  2463 S    C    CA     0.031624       12.0107           0
    2464 SHT  2464 S    C    CA     0.031624       12.0107           0
    2465 SHT  2465 S    C    CA     0.031624       12.0107           0
    2466 SHT  2466 S    C    CA     0.031624       12.0107           0
    2467 SHT  2467 S    C    CA     0.031624       12.0107           0
    2468 SHT  2468 S    C    CA     0.031624       12.0107           0
    2469 SHT  2469 S    C    CA     0.031624       12.0107           0
    2470 SHT  2470 S    C    CA     0.031624       12.0107           0
    2471 SHT  2471 S    C    CA     0.031624       12.0107           0
    2472 SHT  2472 S    C    CA     0.031624       12.0107           0
    2473 SHT  2473 S    C    CA     0.031624       12.0107           0
    2474 SHT  2474 S    C    CA     0.031624       12.0107           0
    2475 SHT  2475 S    C    CA     0.031624       12.0107           0
    2476 SHT  2476 S    C    CA     0.031624       12.0107           0
    2477 SHT  2477 S    C    CA     0.031624       12.0107           0
    2478 SHT  2478 S    C    CA     0.031624       12.0107           0
    2479 SHT  2479 S    C    CA     0.031624       12.0107           0
    2480 SHT  2480 S    C    CA     0.031624       12.0107           0
    2481 SHT  2481 S    C    CA     0.031624       12.0107           0
    2482 SHT  2482 S    C    CA     0.031624       12.0107           0
    2483 SHT  2483 S    C    CA     0.031624       12.0107           0
    2484 SHT  2484 S    C    CA     0.031624       12.0107           0
    2485 SHT  2485 S    C    CA     0.031624       12.0107           0
    2486 SHT  2486 S    C    CA     0.031624       12.0107           0
    2487 SHT  2487 S    C    CA     0.031624       12.0107           0
    2488 SHT  2488 S    C    CA     0.031624       12.0107           0
    2489 SHT  2489 S    C    CA     0.031624       12.0107           0
    2490 SHT  2490 S    C    CA     0.031624       12.0107           0
    2491 SHT  2491 S    C    CA     0.031624       12.0107           0
    2492 SHT  2492 S    C    CA     0.031624       12.0107           0
    2493 SHT  2493 S    C    CA     0.031624       12.0107           0
    2494 SHT  2494 S    C    CA     0.031624       12.0107           0
    2495 SHT  2495 S    C    CA     0.031624       12.0107           0
    2496 SHT  2496 S    C    CA     0.031624       12.0107           0
    2497 SHT  2497 S    C    CA     0.031624       12.0107           0
    2498 SHT  2498 S    C    CA     0.031624       12.0107           0
    2499 SHT  2499 S    C    CA     0.031624       12.0107           0
    2500 SHT  2500 S    C    CA     0.031624       12.0107           0
    2501 SHT  2501 S    C    CA     0.031624       12.0107           0
    2502 SHT  2502 S    C    CA     0.031624       12.0107           0
    2503 SHT  2503 S    C    CA     0.031624       12.0107           0
    2504 SHT  2504 S    C    CA     0.031624       12.0107           0
    2505 SHT  2505 S    C    CA     0.031624       12.0107           0
    2506 SHT  2506 S    C    CA     0.031624       12.0107           0
    2507 SHT  2507 S    C    CA     0.031624       12.0107           0
    2508 SHT  2508 S    C    CA     0.031624       12.0107           0
    2509 SHT  2509 S    C    CA     0.031624       12.0107           0
    2510 SHT  2510 S    C    CA     0.031624       12.0107           0
    2511 SHT  2511 S    C    CA     0.031624       12.0107           0
    2512 SHT  2512 S    C    CA     0.031624       12.0107           0
    2513 SHT  2513 S    C    CA     0.031624       12.0107           0
    2514 SHT  2514 S    C    CA     0.031624       12.0107           0
    2515 SHT  2515 S    C    CA     0.031624       12.0107           0
    2516 SHT  2516 S    C    CA     0.031624       12.0107           0
    2517 SHT  2517 S    C    CA     0.031624       12.0107           0
    2518 SHT  2518 S    C    CA     0.031624       12.0107           0
    2519 SHT  2519 S    C    CA     0.031624       12.0107           0
    2520 SHT  2520 S    C    CA     0.031624       12.0107           0
    2521 SHT  2521 S    C    CA     0.031624       12.0107           0
    2522 SHT  2522 S    C    CA     0.031624       12.0107           0
    2523 SHT  2523 S    C    CA     0.031624       12.0107           0
    2524 SHT  2524 S    C    CA     0.031624       12.0107           0
    2525 SHT  2525 S    C    CA     0.031624       12.0107           0
    2526 SHT  2526 S    C    CA     0.031624       12.0107           0
    2527 SHT  2527 S    C    CA     0.031624       12.0107           0
    2528 SHT  2528 S    C    CA     0.031624       12.0107           0
    2529 SHT  2529 S    C    CA     0.031624       12.0107           0
    2530 SHT  2530 S    C    CA     0.031624       12.0107           0
    2531 SHT  2531 S    C    CA     0.031624       12.0107           0
    2532 SHT  2532 S    C    CA     0.031624       12.0107           0
    2533 SHT  2533 S    C    CA     0.031624       12.0107           0
    2534 SHT  2534 S    C    CA     0.031624       12.0107           0
    2535 SHT  2535 S    C    CA     0.031624       12.0107           0
    2536 SHT  2536 S    C    CA     0.031624       12.0107           0
    2537 SHT  2537 S    C    CA     0.031624       12.0107           0
    2538 SHT  2538 S    C    CA     0.031624       12.0107           0
    2539 SHT  2539 S    C    CA     0.031624       12.0107           0
    2540 SHT  2540 S    C    CA     0.031624       12.0107           0
    2541 SHT  2541 S    C    CA     0.031624       12.0107           0
    2542 SHT  2542 S    C    CA     0.031624       12.0107           0
    2543 SHT  2543 S    C    CA     0.031624       12.0107           0
    2544 SHT  2544 S    C    CA     0.031624       12.0107           0
    2545 SHT  2545 S    C    CA     0.031624       12.0107           0
    2546 SHT  2546 S    C    CA     0.031624       12.0107           0
    2547 SHT  2547 S    C    CA     0.031624       12.0107           0
    2548 SHT  2548 S    C    CA     0.031624       12.0107           0
    2549 SHT  2549 S    C    CA     0.031624       12.0107           0
    2550 SHT  2550 S    C    CA     0.031624       12.0107           0
    2551 SHT  2551 S    C    CA     0.031624       12.0107           0
    2552 SHT  2552 S    C    CA     0.031624       12.0107           0
    2553 SHT  2553 S    C    CA     0.031624       12.0107           0
    2554 SHT  2554 S    C    CA     0.031624       12.0107           0
    2555 SHT  2555 S    C    CA     0.031624       12.0107           0
    2556 SHT  2556 S    C    CA     0.031624       12.0107           0
    2557 SHT  2557 S    C    CA     0.031624       12.0107           0
    2558 SHT  2558 S    C    CA     0.031624       12.0107           0
    2559 SHT  2559 S    C    CA     0.031624       12.0107           0
    2560 SHT  2560 S    C    CA     0.031624       12.0107           0
    2561 SHT  2561 S    C    CA     0.031624       12.0107           0
    2562 SHT  2562 S    C    CA     0.031624       12.0107           0
    2563 SHT  2563 S    C    CA     0.031624       12.0107           0
    2564 SHT  2564 S    C    CA     0.031624       12.0107           0
    2565 SHT  2565 S    C    CA     0.031624       12.0107           0
    2566 SHT  2566 S    C    CA     0.031624       12.0107           0
    2567 SHT  2567 S    C    CA     0.031624       12.0107           0
    2568 SHT  2568 S    C    CA     0.031624       12.0107           0
    2569 SHT  2569 S    C    CA     0.031624       12.0107           0
    2570 SHT  2570 S    C    CA     0.031624       12.0107           0
    2571 SHT  2571 S    C    CA     0.031624       12.0107           0
    2572 SHT  2572 S    C    CA     0.031624       12.0107           0
    2573 SHT  2573 S    C    CA     0.031624       12.0107           0
    2574 SHT  2574 S    C    CA     0.031624       12.0107           0
    2575 SHT  2575 S    C    CA     0.031624       12.0107           0
    2576 SHT  2576 S    C    CA     0.031624       12.0107           0
    2577 SHT  2577 S    C    CA     0.031624       12.0107           0
    2578 SHT  2578 S    C    CA     0.031624       12.0107           0
    2579 SHT  2579 S    C    CA     0.031624       12.0107           0
    2580 SHT  2580 S    C    CA     0.031624       12.0107           0
    2581 SHT  2581 S    C    CA     0.031624       12.0107           0
    2582 SHT  2582 S    C    CA     0.031624       12.0107           0
    2583 SHT  2583 S    C    CA     0.031624       12.0107           0
    2584 SHT  2584 S    C    CA     0.031624       12.0107           0
    2585 SHT  2585 S    C    CA     0.031624       12.0107           0
    2586 SHT  2586 S    C    CA     0.031624       12.0107           0
    2587 SHT  2587 S    C    CA     0.031624       12.0107           0
    2588 SHT  2588 S    C    CA     0.031624       12.0107           0
    2589 SHT  2589 S    C    CA     0.031624       12.0107           0
    2590 SHT  2590 S    C    CA     0.031624       12.0107           0
    2591 SHT  2591 S    C    CA     0.031624       12.0107           0
    2592 SHT  2592 S    C    CA     0.031624       12.0107           0
    2593 SHT  2593 S    C    CA     0.031624       12.0107           0
    2594 SHT  2594 S    C    CA     0.031624       12.0107           0
    2595 SHT  2595 S    C    CA     0.031624       12.0107           0
    2596 SHT  2596 S    C    CA     0.031624       12.0107           0
    2597 SHT  2597 S    C    CA     0.031624       12.0107           0
    2598 SHT  2598 S    C    CA     0.031624       12.0107           0
    2599 SHT  2599 S    C    CA     0.031624       12.0107           0
    2600 SHT  2600 S    C    CA     0.031624       12.0107           0
    2601 SHT  2601 S    C    CA     0.031624       12.0107           0
    2602 SHT  2602 S    C    CA     0.031624       12.0107           0
    2603 SHT  2603 S    C    CA     0.031624       12.0107           0
    2604 SHT  2604 S    C    CA     0.031624       12.0107           0
    2605 SHT  2605 S    C    CA     0.031624       12.0107           0
    2606 SHT  2606 S    C    CA     0.031624       12.0107           0
    2607 SHT  2607 S    C    CA     0.031624       12.0107           0
    2608 SHT  2608 S    C    CA     0.031624       12.0107           0
    2609 SHT  2609 S    C    CA     0.031624       12.0107           0
    2610 SHT  2610 S    C    CA     0.031624       12.0107           0
    2611 SHT  2611 S    C    CA     0.031624       12.0107           0
    2612 SHT  2612 S    C    CA     0.031624       12.0107           0
    2613 SHT  2613 S    C    CA     0.031624       12.0107           0
    2614 SHT  2614 S    C    CA     0.031624       12.0107           0
    2615 SHT  2615 S    C    CA     0.031624       12.0107           0
    2616 SHT  2616 S    C    CA     0.031624       12.0107           0
    2617 SHT  2617 S    C    CA     0.031624       12.0107           0
    2618 SHT  2618 S    C    CA     0.031624       12.0107           0
    2619 SHT  2619 S    C    CA     0.031624       12.0107           0
    2620 SHT  2620 S    C    CA     0.031624       12.0107           0
    2621 SHT  2621 S    C    CA     0.031624       12.0107           0
    2622 SHT  2622 S    C    CA     0.031624       12.0107           0
    2623 SHT  2623 S    C    CA     0.031624       12.0107           0
    2624 SHT  2624 S    C    CA     0.031624       12.0107           0
    2625 SHT  2625 S    C    CA     0.031624       12.0107           0
    2626 SHT  2626 S    C    CA     0.031624       12.0107           0
    2627 SHT  2627 S    C    CA     0.031624       12.0107           0
    2628 SHT  2628 S    C    CA     0.031624       12.0107           0
    2629 SHT  2629 S    C    CA     0.031624       12.0107           0
    2630 SHT  2630 S    C    CA     0.031624       12.0107           0
    2631 SHT  2631 S    C    CA     0.031624       12.0107           0
    2632 SHT  2632 S    C    CA     0.031624       12.0107           0
    2633 SHT  2633 S    C    CA     0.031624       12.0107           0
    2634 SHT  2634 S    C    CA     0.031624       12.0107           0
    2635 SHT  2635 S    C    CA     0.031624       12.0107           0
    2636 SHT  2636 S    C    CA     0.031624       12.0107           0
    2637 SHT  2637 S    C    CA     0.031624       12.0107           0
    2638 SHT  2638 S    C    CA     0.031624       12.0107           0
    2639 SHT  2639 S    C    CA     0.031624       12.0107           0
    2640 SHT  2640 S    C    CA     0.031624       12.0107           0
    2641 SHT  2641 S    C    CA     0.031624       12.0107           0
    2642 SHT  2642 S    C    CA     0.031624       12.0107           0
    2643 SHT  2643 S    C    CA     0.031624       12.0107           0
    2644 SHT  2644 S    C    CA     0.031624       12.0107           0
    2645 SHT  2645 S    C    CA     0.031624       12.0107           0
    2646 SHT  2646 S    C    CA     0.031624       12.0107           0
    2647 SHT  2647 S    C    CA     0.031624       12.0107           0
    2648 SHT  2648 S    C    CA     0.031624       12.0107           0
    2649 SHT  2649 S    C    CA     0.031624       12.0107           0
    2650 SHT  2650 S    C    CA     0.031624       12.0107           0
    2651 SHT  2651 S    C    CA     0.031624       12.0107           0
    2652 SHT  2652 S    C    CA     0.031624       12.0107           0
    2653 SHT  2653 S    C    CA     0.031624       12.0107           0
    2654 SHT  2654 S    C    CA     0.031624       12.0107           0
    2655 SHT  2655 S    C    CA     0.031624       12.0107           0
    2656 SHT  2656 S    C    CA     0.031624       12.0107           0
    2657 SHT  2657 S    C    CA     0.031624       12.0107           0
    2658 SHT  2658 S    C    CA     0.031624       12.0107           0
    2659 SHT  2659 S    C    CA     0.031624       12.0107           0
    2660 SHT  2660 S    C    CA     0.031624       12.0107           0
    2661 SHT  2661 S    C    CA     0.031624       12.0107           0
    2662 SHT  2662 S    C    CA     0.031624       12.0107           0
    2663 SHT  2663 S    C    CA     0.031624       12.0107           0
    2664 SHT  2664 S    C    CA     0.031624       12.0107           0
    2665 SHT  2665 S    C    CA     0.031624       12.0107           0
    2666 SHT  2666 S    C    CA     0.031624       12.0107           0
    2667 SHT  2667 S    C    CA     0.031624       12.0107           0
    2668 SHT  2668 S    C    CA     0.031624       12.0107           0
    2669 SHT  2669 S    C    CA     0.031624       12.0107           0
    2670 SHT  2670 S    C    CA     0.031624       12.0107           0
    2671 SHT  2671 S    C    CA     0.031624       12.0107           0
    2672 SHT  2672 S    C    CA     0.031624       12.0107           0
    2673 SHT  2673 S    C    CA     0.031624       12.0107           0
    2674 SHT  2674 S    C    CA     0.031624       12.0107           0
    2675 SHT  2675 S    C    CA     0.031624       12.0107           0
    2676 SHT  2676 S    C    CA     0.031624       12.0107           0
    2677 SHT  2677 S    C    CA     0.031624       12.0107           0
    2678 SHT  2678 S    C    CA     0.031624       12.0107           0
    2679 SHT  2679 S    C    CA     0.031624       12.0107           0
    2680 SHT  2680 S    C    CA     0.031624       12.0107           0
    2681 SHT  2681 S    C    CA     0.031624       12.0107           0
    2682 SHT  2682 S    C    CA     0.031624       12.0107           0
    2683 SHT  2683 S    C    CA     0.031624       12.0107           0
    2684 SHT  2684 S    C    CA     0.031624       12.0107           0
    2685 SHT  2685 S    C    CA     0.031624       12.0107           0
    2686 SHT  2686 S    C    CA     0.031624       12.0107           0
    2687 SHT  2687 S    C    CA     0.031624       12.0107           0
    2688 SHT  2688 S    C    CA     0.031624       12.0107           0
    2689 SHT  2689 S    C    CA     0.031624       12.0107           0
    2690 SHT  2690 S    C    CA     0.031624       12.0107           0
    2691 SHT  2691 S    C    CA     0.031624       12.0107           0
    2692 SHT  2692 S    C    CA     0.031624       12.0107           0
    2693 SHT  2693 S    C    CA     0.031624       12.0107           0
    2694 SHT  2694 S    C    CA     0.031624       12.0107           0
    2695 SHT  2695 S    C    CA     0.031624       12.0107           0
    2696 SHT  2696 S    C    CA     0.031624       12.0107           0
    2697 SHT  2697 S    C    CA     0.031624       12.0107           0
    2698 SHT  2698 S    C    CA     0.031624       12.0107           0
    2699 SHT  2699 S    C    CA     0.031624       12.0107           0
    2700 SHT  2700 S    C    CA     0.031624       12.0107           0
    2701 SHT  2701 S    C    CA     0.031624       12.0107           0
    2702 SHT  2702 S    C    CA     0.031624       12.0107           0
    2703 SHT  2703 S    C    CA     0.031624       12.0107           0
    2704 SHT  2704 S    C    CA     0.031624       12.0107           0
    2705 SHT  2705 S    C    CA     0.031624       12.0107           0
    2706 SHT  2706 S    C    CA     0.031624       12.0107           0
    2707 SHT  2707 S    C    CA     0.031624       12.0107           0
    2708 SHT  2708 S    C    CA     0.031624       12.0107           0
    2709 SHT  2709 S    C    CA     0.031624       12.0107           0
    2710 SHT  2710 S    C    CA     0.031624       12.0107           0
    2711 SHT  2711 S    C    CA     0.031624       12.0107           0
    2712 SHT  2712 S    C    CA     0.031624       12.0107           0
    2713 SHT  2713 S    C    CA     0.031624       12.0107           0
    2714 SHT  2714 S    C    CA     0.031624       12.0107           0
    2715 SHT  2715 S    C    CA     0.031624       12.0107           0
    2716 SHT  2716 S    C    CA     0.031624       12.0107           0
    2717 SHT  2717 S    C    CA     0.031624       12.0107           0
    2718 SHT  2718 S    C    CA     0.031624       12.0107           0
    2719 SHT  2719 S    C    CA     0.031624       12.0107           0
    2720 SHT  2720 S    C    CA     0.031624       12.0107           0
    2721 SHT  2721 S    C    CA     0.031624       12.0107           0
    2722 SHT  2722 S    C    CA     0.031624       12.0107           0
    2723 SHT  2723 S    C    CA     0.031624       12.0107           0
    2724 SHT  2724 S    C    CA     0.031624       12.0107           0
    2725 SHT  2725 S    C    CA     0.031624       12.0107           0
    2726 SHT  2726 S    C    CA     0.031624       12.0107           0
    2727 SHT  2727 S    C    CA     0.031624       12.0107           0
    2728 SHT  2728 S    C    CA     0.031624       12.0107           0
    2729 SHT  2729 S    C    CA     0.031624       12.0107           0
    2730 SHT  2730 S    C    CA     0.031624       12.0107           0
    2731 SHT  2731 S    C    CA     0.031624       12.0107           0
    2732 SHT  2732 S    C    CA     0.031624       12.0107           0
    2733 SHT  2733 S    C    CA     0.031624       12.0107           0
    2734 SHT  2734 S    C    CA     0.031624       12.0107           0
    2735 SHT  2735 S    C    CA     0.031624       12.0107           0
    2736 SHT  2736 S    C    CA     0.031624       12.0107           0
    2737 SHT  2737 S    C    CA     0.031624       12.0107           0
    2738 SHT  2738 S    C    CA     0.031624       12.0107           0
    2739 SHT  2739 S    C    CA     0.031624       12.0107           0
    2740 SHT  2740 S    C    CA     0.031624       12.0107           0
    2741 SHT  2741 S    C    CA     0.031624       12.0107           0
    2742 SHT  2742 S    C    CA     0.031624       12.0107           0
    2743 SHT  2743 S    C    CA     0.031624       12.0107           0
    2744 SHT  2744 S    C    CA     0.031624       12.0107           0
    2745 SHT  2745 S    C    CA     0.031624       12.0107           0
    2746 SHT  2746 S    C    CA     0.031624       12.0107           0
    2747 SHT  2747 S    C    CA     0.031624       12.0107           0
    2748 SHT  2748 S    C    CA     0.031624       12.0107           0
    2749 SHT  2749 S    C    CA     0.031624       12.0107           0
    2750 SHT  2750 S    C    CA     0.031624       12.0107           0
    2751 SHT  2751 S    C    CA     0.031624       12.0107           0
    2752 SHT  2752 S    C    CA     0.031624       12.0107           0
    2753 SHT  2753 S    C    CA     0.031624       12.0107           0
    2754 SHT  2754 S    C    CA     0.031624       12.0107           0
    2755 SHT  2755 S    C    CA     0.031624       12.0107           0
    2756 SHT  2756 S    C    CA     0.031624       12.0107           0
    2757 SHT  2757 S    C    CA     0.031624       12.0107           0
    2758 SHT  2758 S    C    CA     0.031624       12.0107           0
    2759 SHT  2759 S    C    CA     0.031624       12.0107           0
    2760 SHT  2760 S    C    CA     0.031624       12.0107           0
    2761 SHT  2761 S    C    CA     0.031624       12.0107           0
    2762 SHT  2762 S    C    CA     0.031624       12.0107           0
    2763 SHT  2763 S    C    CA     0.031624       12.0107           0
    2764 SHT  2764 S    C    CA     0.031624       12.0107           0
    2765 SHT  2765 S    C    CA     0.031624       12.0107           0
    2766 SHT  2766 S    C    CA     0.031624       12.0107           0
    2767 SHT  2767 S    C    CA     0.031624       12.0107           0
    2768 SHT  2768 S    C    CA     0.031624       12.0107           0
    2769 SHT  2769 S    C    CA     0.031624       12.0107           0
    2770 SHT  2770 S    C    CA     0.031624       12.0107           0
    2771 SHT  2771 S    C    CA     0.031624       12.0107           0
    2772 SHT  2772 S    C    CA     0.031624       12.0107           0
    2773 SHT  2773 S    C    CA     0.031624       12.0107           0
    2774 SHT  2774 S    C    CA     0.031624       12.0107           0
    2775 SHT  2775 S    C    CA     0.031624       12.0107           0
    2776 SHT  2776 S    C    CA     0.031624       12.0107           0
    2777 SHT  2777 S    C    CA     0.031624       12.0107           0
    2778 SHT  2778 S    C    CA     0.031624       12.0107           0
    2779 SHT  2779 S    C    CA     0.031624       12.0107           0
    2780 SHT  2780 S    C    CA     0.031624       12.0107           0
    2781 SHT  2781 S    C    CA     0.031624       12.0107           0
    2782 SHT  2782 S    C    CA     0.031624       12.0107           0
    2783 SHT  2783 S    C    CA     0.031624       12.0107           0
    2784 SHT  2784 S    C    CA     0.031624       12.0107           0
    2785 SHT  2785 S    C    CA     0.031624       12.0107           0
    2786 SHT  2786 S    C    CA     0.031624       12.0107           0
    2787 SHT  2787 S    C    CA     0.031624       12.0107           0
    2788 SHT  2788 S    C    CA     0.031624       12.0107           0
    2789 SHT  2789 S    C    CA     0.031624       12.0107           0
    2790 SHT  2790 S    C    CA     0.031624       12.0107           0
    2791 SHT  2791 S    C    CA     0.031624       12.0107           0
    2792 SHT  2792 S    C    CA     0.031624       12.0107           0
    2793 SHT  2793 S    C    CA     0.031624       12.0107           0
    2794 SHT  2794 S    C    CA     0.031624       12.0107           0
    2795 SHT  2795 S    C    CA     0.031624       12.0107           0
    2796 SHT  2796 S    C    CA     0.031624       12.0107           0
    2797 SHT  2797 S    C    CA     0.031624       12.0107           0
    2798 SHT  2798 S    C    CA     0.031624       12.0107           0
    2799 SHT  2799 S    C    CA     0.031624       12.0107           0
    2800 SHT  2800 S    C    CA     0.031624       12.0107           0
    2801 SHT  2801 S    C    CA     0.031624       12.0107           0
    2802 SHT  2802 S    C    CA     0.031624       12.0107           0
    2803 SHT  2803 S    C    CA     0.031624       12.0107           0
    2804 SHT  2804 S    C    CA     0.031624       12.0107           0
    2805 SHT  2805 S    C    CA     0.031624       12.0107           0
    2806 SHT  2806 S    C    CA     0.031624       12.0107           0
    2807 SHT  2807 S    C    CA     0.031624       12.0107           0
    2808 SHT  2808 S    C    CA     0.031624       12.0107           0
    2809 SHT  2809 S    C    CA     0.031624       12.0107           0
    2810 SHT  2810 S    C    CA     0.031624       12.0107           0
    2811 SHT  2811 S    C    CA     0.031624       12.0107           0
    2812 SHT  2812 S    C    CA     0.031624       12.0107           0
    2813 SHT  2813 S    C    CA     0.031624       12.0107           0
    2814 SHT  2814 S    C    CA     0.031624       12.0107           0
    2815 SHT  2815 S    C    CA     0.031624       12.0107           0
    2816 SHT  2816 S    C    CA     0.031624       12.0107           0
    2817 SHT  2817 S    C    CA     0.031624       12.0107           0
    2818 SHT  2818 S    C    CA     0.031624       12.0107           0
    2819 SHT  2819 S    C    CA     0.031624       12.0107           0
    2820 SHT  2820 S    C    CA     0.031624       12.0107           0
    2821 SHT  2821 S    C    CA     0.031624       12.0107           0
    2822 SHT  2822 S    C    CA     0.031624       12.0107           0
    2823 SHT  2823 S    C    CA     0.031624       12.0107           0
    2824 SHT  2824 S    C    CA     0.031624       12.0107           0
    2825 SHT  2825 S    C    CA     0.031624       12.0107           0
    2826 SHT  2826 S    C    CA     0.031624       12.0107           0
    2827 SHT  2827 S    C    CA     0.031624       12.0107           0
    2828 SHT  2828 S    C    CA     0.031624       12.0107           0
    2829 SHT  2829 S    C    CA     0.031624       12.0107           0
    2830 SHT  2830 S    C    CA     0.031624       12.0107           0
    2831 SHT  2831 S    C    CA     0.031624       12.0107           0
    2832 SHT  2832 S    C    CA     0.031624       12.0107           0
    2833 SHT  2833 S    C    CA     0.031624       12.0107           0
    2834 SHT  2834 S    C    CA     0.031624       12.0107           0
    2835 SHT  2835 S    C    CA     0.031624       12.0107           0
    2836 SHT  2836 S    C    CA     0.031624       12.0107           0
    2837 SHT  2837 S    C    CA     0.031624       12.0107           0
    2838 SHT  2838 S    C    CA     0.031624       12.0107           0
    2839 SHT  2839 S    C    CA     0.031624       12.0107           0
    2840 SHT  2840 S    C    CA     0.031624       12.0107           0
    2841 SHT  2841 S    C    CA     0.031624       12.0107           0
    2842 SHT  2842 S    C    CA     0.031624       12.0107           0
    2843 SHT  2843 S    C    CA     0.031624       12.0107           0
    2844 SHT  2844 S    C    CA     0.031624       12.0107           0
    2845 SHT  2845 S    C    CA     0.031624       12.0107           0
    2846 SHT  2846 S    C    CA     0.031624       12.0107           0
    2847 SHT  2847 S    C    CA     0.031624       12.0107           0
    2848 SHT  2848 S    C    CA     0.031624       12.0107           0
    2849 SHT  2849 S    C    CA     0.031624       12.0107           0
    2850 SHT  2850 S    C    CA     0.031624       12.0107           0
    2851 SHT  2851 S    C    CA     0.031624       12.0107           0
    2852 SHT  2852 S    C    CA     0.031624       12.0107           0
    2853 SHT  2853 S    C    CA     0.031624       12.0107           0
    2854 SHT  2854 S    C    CA     0.031624       12.0107           0
    2855 SHT  2855 S    C    CA     0.031624       12.0107           0
    2856 SHT  2856 S    C    CA     0.031624       12.0107           0
    2857 SHT  2857 S    C    CA     0.031624       12.0107           0
    2858 SHT  2858 S    C    CA     0.031624       12.0107           0
    2859 SHT  2859 S    C    CA     0.031624       12.0107           0
    2860 SHT  2860 S    C    CA     0.031624       12.0107           0
    2861 SHT  2861 S    C    CA     0.031624       12.0107           0
    2862 SHT  2862 S    C    CA     0.031624       12.0107           0
    2863 SHT  2863 S    C    CA     0.031624       12.0107           0
    2864 SHT  2864 S    C    CA     0.031624       12.0107           0
    2865 SHT  2865 S    C    CA     0.031624       12.0107           0
    2866 SHT  2866 S    C    CA     0.031624       12.0107           0
    2867 SHT  2867 S    C    CA     0.031624       12.0107           0
    2868 SHT  2868 S    C    CA     0.031624       12.0107           0
    2869 SHT  2869 S    C    CA     0.031624       12.0107           0
    2870 SHT  2870 S    C    CA     0.031624       12.0107           0
    2871 SHT  2871 S    C    CA     0.031624       12.0107           0
    2872 SHT  2872 S    C    CA     0.031624       12.0107           0
    2873 SHT  2873 S    C    CA     0.031624       12.0107           0
    2874 SHT  2874 S    C    CA     0.031624       12.0107           0
    2875 SHT  2875 S    C    CA     0.031624       12.0107           0
    2876 SHT  2876 S    C    CA     0.031624       12.0107           0
    2877 SHT  2877 S    C    CA     0.031624       12.0107           0
    2878 SHT  2878 S    C    CA     0.031624       12.0107           0
    2879 SHT  2879 S    C    CA     0.031624       12.0107           0
    2880 SHT  2880 S    C    CA     0.031624       12.0107           0
    2881 SHT  2881 S    C    CA     0.031624       12.0107           0
    2882 SHT  2882 S    C    CA     0.031624       12.0107           0
    2883 SHT  2883 S    C    CA     0.031624       12.0107           0
    2884 SHT  2884 S    C    CA     0.031624       12.0107           0
    2885 SHT  2885 S    C    CA     0.031624       12.0107           0
    2886 SHT  2886 S    C    CA     0.031624       12.0107           0
    2887 SHT  2887 S    C    CA     0.031624       12.0107           0
    2888 SHT  2888 S    C    CA     0.031624       12.0107           0
    2889 SHT  2889 S    C    CA     0.031624       12.0107           0
    2890 SHT  2890 S    C    CA     0.031624       12.0107           0
    2891 SHT  2891 S    C    CA     0.031624       12.0107           0
    2892 SHT  2892 S    C    CA     0.031624       12.0107           0
    2893 SHT  2893 S    C    CA     0.031624       12.0107           0
    2894 SHT  2894 S    C    CA     0.031624       12.0107           0
    2895 SHT  2895 S    C    CA     0.031624       12.0107           0
    2896 SHT  2896 S    C    CA     0.031624       12.0107           0
    2897 SHT  2897 S    C    CA     0.031624       12.0107           0
    2898 SHT  2898 S    C    CA     0.031624       12.0107           0
    2899 SHT  2899 S    C    CA     0.031624       12.0107           0
    2900 SHT  2900 S    C    CA     0.031624       12.0107           0
    2901 SHT  2901 S    C    CA     0.031624       12.0107           0
    2902 SHT  2902 S    C    CA     0.031624       12.0107           0
    2903 SHT  2903 S    C    CA     0.031624       12.0107           0
    2904 SHT  2904 S    C    CA     0.031624       12.0107           0
    2905 SHT  2905 S    C    CA     0.031624       12.0107           0
    2906 SHT  2906 S    C    CA     0.031624       12.0107           0
    2907 SHT  2907 S    C    CA     0.031624       12.0107           0
    2908 SHT  2908 S    C    CA     0.031624       12.0107           0
    2909 SHT  2909 S    C    CA     0.031624       12.0107           0
    2910 SHT  2910 S    C    CA     0.031624       12.0107           0
    2911 SHT  2911 S    C    CA     0.031624       12.0107           0
    2912 SHT  2912 S    C    CA     0.031624       12.0107           0
    2913 SHT  2913 S    C    CA     0.031624       12.0107           0
    2914 SHT  2914 S    C    CA     0.031624       12.0107           0
    2915 SHT  2915 S    C    CA     0.031624       12.0107           0
    2916 SHT  2916 S    C    CA     0.031624       12.0107           0
    2917 SHT  2917 S    C    CA     0.031624       12.0107           0
    2918 SHT  2918 S    C    CA     0.031624       12.0107           0
    2919 SHT  2919 S    C    CA     0.031624       12.0107           0
    2920 SHT  2920 S    C    CA     0.031624       12.0107           0
    2921 SHT  2921 S    C    CA     0.031624       12.0107           0
    2922 SHT  2922 S    C    CA     0.031624       12.0107           0
    2923 SHT  2923 S    C    CA     0.031624       12.0107           0
    2924 SHT  2924 S    C    CA     0.031624       12.0107           0
    2925 SHT  2925 S    C    CA     0.031624       12.0107           0
    2926 SHT  2926 S    C    CA     0.031624       12.0107           0
    2927 SHT  2927 S    C    CA     0.031624       12.0107           0
    2928 SHT  2928 S    C    CA     0.031624       12.0107           0
    2929 SHT  2929 S    C    CA     0.031624       12.0107           0
    2930 SHT  2930 S    C    CA     0.031624       12.0107           0
    2931 SHT  2931 S    C    CA     0.031624       12.0107           0
    2932 SHT  2932 S    C    CA     0.031624       12.0107           0
    2933 SHT  2933 S    C    CA     0.031624       12.0107           0
    2934 SHT  2934 S    C    CA     0.031624       12.0107           0
    2935 SHT  2935 S    C    CA     0.031624       12.0107           0
    2936 SHT  2936 S    C    CA     0.031624       12.0107           0
    2937 SHT  2937 S    C    CA     0.031624       12.0107           0
    2938 SHT  2938 S    C    CA     0.031624       12.0107           0
    2939 SHT  2939 S    C    CA     0.031624       12.0107           0
    2940 SHT  2940 S    C    CA     0.031624       12.0107           0
    2941 SHT  2941 S    C    CA     0.031624       12.0107           0
    2942 SHT  2942 S    C    CA     0.031624       12.0107           0
    2943 SHT  2943 S    C    CA     0.031624       12.0107           0
    2944 SHT  2944 S    C    CA     0.031624       12.0107           0
    2945 SHT  2945 S    C    CA     0.031624       12.0107           0
    2946 SHT  2946 S    C    CA     0.031624       12.0107           0
    2947 SHT  2947 S    C    CA     0.031624       12.0107           0
    2948 SHT  2948 S    C    CA     0.031624       12.0107           0
    2949 SHT  2949 S    C    CA     0.031624       12.0107           0
    2950 SHT  2950 S    C    CA     0.031624       12.0107           0
    2951 SHT  2951 S    C    CA     0.031624       12.0107           0
    2952 SHT  2952 S    C    CA     0.031624       12.0107           0
    2953 SHT  2953 S    C    CA     0.031624       12.0107           0
    2954 SHT  2954 S    C    CA     0.031624       12.0107           0
    2955 SHT  2955 S    C    CA     0.031624       12.0107           0
    2956 SHT  2956 S    C    CA     0.031624       12.0107           0
    2957 SHT  2957 S    C    CA     0.031624       12.0107           0
    2958 SHT  2958 S    C    CA     0.031624       12.0107           0
    2959 SHT  2959 S    C    CA     0.031624       12.0107           0
    2960 SHT  2960 S    C    CA     0.031624       12.0107           0
    2961 SHT  2961 S    C    CA     0.031624       12.0107           0
    2962 SHT  2962 S    C    CA     0.031624       12.0107           0
    2963 SHT  2963 S    C    CA     0.031624       12.0107           0
    2964 SHT  2964 S    C    CA     0.031624       12.0107           0
    2965 SHT  2965 S    C    CA     0.031624       12.0107           0
    2966 SHT  2966 S    C    CA     0.031624       12.0107           0
    2967 SHT  2967 S    C    CA     0.031624       12.0107           0
    2968 SHT  2968 S    C    CA     0.031624       12.0107           0
    2969 SHT  2969 S    C    CA     0.031624       12.0107           0
    2970 SHT  2970 S    C    CA     0.031624       12.0107           0
    2971 SHT  2971 S    C    CA     0.031624       12.0107           0
    2972 SHT  2972 S    C    CA     0.031624       12.0107           0
    2973 SHT  2973 S    C    CA     0.031624       12.0107           0
    2974 SHT  2974 S    C    CA     0.031624       12.0107           0
    2975 SHT  2975 S    C    CA     0.031624       12.0107           0
    2976 SHT  2976 S    C    CA     0.031624       12.0107           0
    2977 SHT  2977 S    C    CA     0.031624       12.0107           0
    2978 SHT  2978 S    C    CA     0.031624       12.0107           0
    2979 SHT  2979 S    C    CA     0.031624       12.0107           0
    2980 SHT  2980 S    C    CA     0.031624       12.0107           0
    2981 SHT  2981 S    C    CA     0.031624       12.0107           0
    2982 SHT  2982 S    C    CA     0.031624       12.0107           0
    2983 SHT  2983 S    C    CA     0.031624       12.0107           0
    2984 SHT  2984 S    C    CA     0.031624       12.0107           0
    2985 SHT  2985 S    C    CA     0.031624       12.0107           0
    2986 SHT  2986 S    C    CA     0.031624       12.0107           0
    2987 SHT  2987 S    C    CA     0.031624       12.0107           0
    2988 SHT  2988 S    C    CA     0.031624       12.0107           0
    2989 SHT  2989 S    C    CA     0.031624       12.0107           0
    2990 SHT  2990 S    C    CA     0.031624       12.0107           0
    2991 SHT  2991 S    C    CA     0.031624       12.0107           0
    2992 SHT  2992 S    C    CA     0.031624       12.0107           0
    2993 SHT  2993 S    C    CA     0.031624       12.0107           0
    2994 SHT  2994 S    C    CA     0.031624       12.0107           0
    2995 SHT  2995 S    C    CA     0.031624       12.0107           0
    2996 SHT  2996 S    C    CA     0.031624       12.0107           0
    2997 SHT  2997 S    C    CA     0.031624       12.0107           0
    2998 SHT  2998 S    C    CA     0.031624       12.0107           0
    2999 SHT  2999 S    C    CA     0.031624       12.0107           0
    3000 SHT  3000 S    C    CA     0.031624       12.0107           0
    3001 SHT  3001 S    C    CA     0.031624       12.0107           0
    3002 SHT  3002 S    C    CA     0.031624       12.0107           0
    3003 SHT  3003 S    C    CA     0.031624       12.0107           0
    3004 SHT  3004 S    C    CA     0.031624       12.0107           0
    3005 SHT  3005 S    C    CA     0.031624       12.0107           0
    3006 SHT  3006 S    C    CA     0.031624       12.0107           0
    3007 SHT  3007 S    C    CA     0.031624       12.0107           0
    3008 SHT  3008 S    C    CA     0.031624       12.0107           0
    3009 SHT  3009 S    C    CA     0.031624       12.0107           0
    3010 SHT  3010 S    C    CA     0.031624       12.0107           0
    3011 SHT  3011 S    C    CA     0.031624       12.0107           0
    3012 SHT  3012 S    C    CA     0.031624       12.0107           0
    3013 SHT  3013 S    C    CA     0.031624       12.0107           0
    3014 SHT  3014 S    C    CA     0.031624       12.0107           0
    3015 SHT  3015 S    C    CA     0.031624       12.0107           0
    3016 SHT  3016 S    C    CA     0.031624       12.0107           0
    3017 SHT  3017 S    C    CA     0.031624       12.0107           0
    3018 SHT  3018 S    C    CA     0.031624       12.0107           0
    3019 SHT  3019 S    C    CA     0.031624       12.0107           0
    3020 SHT  3020 S    C    CA     0.031624       12.0107           0
    3021 SHT  3021 S    C    CA     0.031624       12.0107           0
    3022 SHT  3022 S    C    CA     0.031624       12.0107           0
    3023 SHT  3023 S    C    CA     0.031624       12.0107           0
    3024 SHT  3024 S    C    CA     0.031624       12.0107           0
    3025 SHT  3025 S    C    CA     0.031624       12.0107           0
    3026 SHT  3026 S    C    CA     0.031624       12.0107           0
    3027 SHT  3027 S    C    CA     0.031624       12.0107           0
    3028 SHT  3028 S    C    CA     0.031624       12.0107           0
    3029 SHT  3029 S    C    CA     0.031624       12.0107           0
    3030 SHT  3030 S    C    CA     0.031624       12.0107           0
    3031 SHT  3031 S    C    CA     0.031624       12.0107           0
    3032 SHT  3032 S    C    CA     0.031624       12.0107           0
    3033 SHT  3033 S    C    CA     0.031624       12.0107           0
    3034 SHT  3034 S    C    CA     0.031624       12.0107           0
    3035 SHT  3035 S    C    CA     0.031624       12.0107           0
    3036 SHT  3036 S    C    CA     0.031624       12.0107           0
    3037 SHT  3037 S    C    CA     0.031624       12.0107           0
    3038 SHT  3038 S    C    CA     0.031624       12.0107           0
    3039 SHT  3039 S    C    CA     0.031624       12.0107           0
    3040 SHT  3040 S    C    CA     0.031624       12.0107           0
    3041 SHT  3041 S    C    CA     0.031624       12.0107           0
    3042 SHT  3042 S    C    CA     0.031624       12.0107           0
    3043 SHT  3043 S    C    CA     0.031624       12.0107           0
    3044 SHT  3044 S    C    CA     0.031624       12.0107           0
    3045 SHT  3045 S    C    CA     0.031624       12.0107           0
    3046 SHT  3046 S    C    CA     0.031624       12.0107           0
    3047 SHT  3047 S    C    CA     0.031624       12.0107           0
    3048 SHT  3048 S    C    CA     0.031624       12.0107           0
    3049 SHT  3049 S    C    CA     0.031624       12.0107           0
    3050 SHT  3050 S    C    CA     0.031624       12.0107           0
    3051 SHT  3051 S    C    CA     0.031624       12.0107           0
    3052 SHT  3052 S    C    CA     0.031624       12.0107           0
    3053 SHT  3053 S    C    CA     0.031624       12.0107           0
    3054 SHT  3054 S    C    CA     0.031624       12.0107           0
    3055 SHT  3055 S    C    CA     0.031624       12.0107           0
    3056 SHT  3056 S    C    CA     0.031624       12.0107           0
    3057 SHT  3057 S    C    CA     0.031624       12.0107           0
    3058 SHT  3058 S    C    CA     0.031624       12.0107           0
    3059 SHT  3059 S    C    CA     0.031624       12.0107           0
    3060 SHT  3060 S    C    CA     0.031624       12.0107           0
    3061 SHT  3061 S    C    CA     0.031624       12.0107           0
    3062 SHT  3062 S    C    CA     0.031624       12.0107           0
    3063 SHT  3063 S    C    CA     0.031624       12.0107           0
    3064 SHT  3064 S    C    CA     0.031624       12.0107           0
    3065 SHT  3065 S    C    CA     0.031624       12.0107           0
    3066 SHT  3066 S    C    CA     0.031624       12.0107           0
    3067 SHT  3067 S    C    CA     0.031624       12.0107           0
    3068 SHT  3068 S    C    CA     0.031624       12.0107           0
    3069 SHT  3069 S    C    CA     0.031624       12.0107           0
    3070 SHT  3070 S    C    CA     0.031624       12.0107           0
    3071 SHT  3071 S    C    CA     0.031624       12.0107           0
    3072 SHT  3072 S    C    CA     0.031624       12.0107           0
    3073 SHT  3073 S    C    CA     0.031624       12.0107           0
    3074 SHT  3074 S    C    CA     0.031624       12.0107           0
    3075 SHT  3075 S    C    CA     0.031624       12.0107           0
    3076 SHT  3076 S    C    CA     0.031624       12.0107           0
    3077 SHT  3077 S    C    CA     0.031624       12.0107           0
    3078 SHT  3078 S    C    CA     0.031624       12.0107           0
    3079 SHT  3079 S    C    CA     0.031624       12.0107           0
    3080 SHT  3080 S    C    CA     0.031624       12.0107           0
    3081 SHT  3081 S    C    CA     0.031624       12.0107           0
    3082 SHT  3082 S    C    CA     0.031624       12.0107           0
    3083 SHT  3083 S    C    CA     0.031624       12.0107           0
    3084 SHT  3084 S    C    CA     0.031624       12.0107           0
    3085 SHT  3085 S    C    CA     0.031624       12.0107           0
    3086 SHT  3086 S    C    CA     0.031624       12.0107           0
    3087 SHT  3087 S    C    CA     0.031624       12.0107           0
    3088 SHT  3088 S    C    CA     0.031624       12.0107           0
    3089 SHT  3089 S    C    CA     0.031624       12.0107           0
    3090 SHT  3090 S    C    CA     0.031624       12.0107           0
    3091 SHT  3091 S    C    CA     0.031624       12.0107           0
    3092 SHT  3092 S    C    CA     0.031624       12.0107           0
    3093 SHT  3093 S    C    CA     0.031624       12.0107           0
    3094 SHT  3094 S    C    CA     0.031624       12.0107           0
    3095 SHT  3095 S    C    CA     0.031624       12.0107           0
    3096 SHT  3096 S    C    CA     0.031624       12.0107           0
    3097 SHT  3097 S    C    CA     0.031624       12.0107           0
    3098 SHT  3098 S    C    CA     0.031624       12.0107           0
    3099 SHT  3099 S    C    CA     0.031624       12.0107           0
    3100 SHT  3100 S    C    CA     0.031624       12.0107           0
    3101 SHT  3101 S    C    CA     0.031624       12.0107           0
    3102 SHT  3102 S    C    CA     0.031624       12.0107           0
    3103 SHT  3103 S    C    CA     0.031624       12.0107           0
    3104 SHT  3104 S    C    CA     0.031624       12.0107           0
    3105 SHT  3105 S    C    CA     0.031624       12.0107           0
    3106 SHT  3106 S    C    CA     0.031624       12.0107           0
    3107 SHT  3107 S    C    CA     0.031624       12.0107           0
    3108 SHT  3108 S    C    CA     0.031624       12.0107           0
    3109 SHT  3109 S    C    CA     0.031624       12.0107           0
    3110 SHT  3110 S    C    CA     0.031624       12.0107           0
    3111 SHT  3111 S    C    CA     0.031624       12.0107           0
    3112 SHT  3112 S    C    CA     0.031624       12.0107           0
    3113 SHT  3113 S    C    CA     0.031624       12.0107           0
    3114 SHT  3114 S    C    CA     0.031624       12.0107           0
    3115 SHT  3115 S    C    CA     0.031624       12.0107           0
    3116 SHT  3116 S    C    CA     0.031624       12.0107           0
    3117 SHT  3117 S    C    CA     0.031624       12.0107           0
    3118 SHT  3118 S    C    CA     0.031624       12.0107           0
    3119 SHT  3119 S    C    CA     0.031624       12.0107           0
    3120 SHT  3120 S    C    CA     0.031624       12.0107           0
    3121 SHT  3121 S    C    CA     0.031624       12.0107           0
    3122 SHT  3122 S    C    CA     0.031624       12.0107           0
    3123 SHT  3123 S    C    CA     0.031624       12.0107           0
    3124 SHT  3124 S    C    CA     0.031624       12.0107           0
    3125 SHT  3125 S    C    CA     0.031624       12.0107           0
    3126 SHT  3126 S    C    CA     0.031624       12.0107           0
    3127 SHT  3127 S    C    CA     0.031624       12.0107           0
    3128 SHT  3128 S    C    CA     0.031624       12.0107           0
    3129 SHT  3129 S    C    CA     0.031624       12.0107           0
    3130 SHT  3130 S    C    CA     0.031624       12.0107           0
    3131 SHT  3131 S    C    CA     0.031624       12.0107           0
    3132 SHT  3132 S    C    CA     0.031624       12.0107           0
    3133 SHT  3133 S    C    CA     0.031624       12.0107           0
    3134 SHT  3134 S    C    CA     0.031624       12.0107           0
    3135 SHT  3135 S    C    CA     0.031624       12.0107           0
    3136 SHT  3136 S    C    CA     0.031624       12.0107           0
    3137 SHT  3137 S    C    CA     0.031624       12.0107           0
    3138 SHT  3138 S    C    CA     0.031624       12.0107           0
    3139 SHT  3139 S    C    CA     0.031624       12.0107           0
    3140 SHT  3140 S    C    CA     0.031624       12.0107           0
    3141 SHT  3141 S    C    CA     0.031624       12.0107           0
    3142 SHT  3142 S    C    CA     0.031624       12.0107           0
    3143 SHT  3143 S    C    CA     0.031624       12.0107           0
    3144 SHT  3144 S    C    CA     0.031624       12.0107           0
    3145 SHT  3145 S    C    CA     0.031624       12.0107           0
    3146 SHT  3146 S    C    CA     0.031624       12.0107           0
    3147 SHT  3147 S    C    CA     0.031624       12.0107           0
    3148 SHT  3148 S    C    CA     0.031624       12.0107           0
    3149 SHT  3149 S    C    CA     0.031624       12.0107           0
    3150 SHT  3150 S    C    CA     0.031624       12.0107           0
    3151 SHT  3151 S    C    CA     0.031624       12.0107           0
    3152 SHT  3152 S    C    CA     0.031624       12.0107           0
    3153 SHT  3153 S    C    CA     0.031624       12.0107           0
    3154 SHT  3154 S    C    CA     0.031624       12.0107           0
    3155 SHT  3155 S    C    CA     0.031624       12.0107           0
    3156 SHT  3156 S    C    CA     0.031624       12.0107           0
    3157 SHT  3157 S    C    CA     0.031624       12.0107           0
    3158 SHT  3158 S    C    CA     0.031624       12.0107           0
    3159 SHT  3159 S    C    CA     0.031624       12.0107           0
    3160 SHT  3160 S    C    CA     0.031624       12.0107           0
    3161 SHT  3161 S    C    CA     0.031624       12.0107           0
    3162 SHT  3162 S    C    CA     0.031624       12.0107           0
    3163 SHT  3163 S    C    CA     0.031624       12.0107           0
    3164 SHT  3164 S    C    CA     0.031624       12.0107           0
    3165 SHT  3165 S    C    CA     0.031624       12.0107           0
    3166 SHT  3166 S    C    CA     0.031624       12.0107           0
    3167 SHT  3167 S    C    CA     0.031624       12.0107           0
    3168 SHT  3168 S    C    CA     0.031624       12.0107           0
    3169 SHT  3169 S    C    CA     0.031624       12.0107           0
    3170 SHT  3170 S    C    CA     0.031624       12.0107           0
    3171 SHT  3171 S    C    CA     0.031624       12.0107           0
    3172 SHT  3172 S    C    CA     0.031624       12.0107           0
    3173 SHT  3173 S    C    CA     0.031624       12.0107           0
    3174 SHT  3174 S    C    CA     0.031624       12.0107           0
    3175 SHT  3175 S    C    CA     0.031624       12.0107           0
    3176 SHT  3176 S    C    CA     0.031624       12.0107           0
    3177 SHT  3177 S    C    CA     0.031624       12.0107           0
    3178 SHT  3178 S    C    CA     0.031624       12.0107           0
    3179 SHT  3179 S    C    CA     0.031624       12.0107           0
    3180 SHT  3180 S    C    CA     0.031624       12.0107           0
    3181 SHT  3181 S    C    CA     0.031624       12.0107           0
    3182 SHT  3182 S    C    CA     0.031624       12.0107           0
    3183 SHT  3183 S    C    CA     0.031624       12.0107           0
    3184 SHT  3184 S    C    CA     0.031624       12.0107           0
    3185 SHT  3185 S    C    CA     0.031624       12.0107           0
    3186 SHT  3186 S    C    CA     0.031624       12.0107           0
    3187 SHT  3187 S    C    CA     0.031624       12.0107           0
    3188 SHT  3188 S    C    CA     0.031624       12.0107           0
    3189 SHT  3189 S    C    CA     0.031624       12.0107           0
    3190 SHT  3190 S    C    CA     0.031624       12.0107           0
    3191 SHT  3191 S    C    CA     0.031624       12.0107           0
    3192 SHT  3192 S    C    CA     0.031624       12.0107           0
    3193 SHT  3193 S    C    CA     0.031624       12.0107           0
    3194 SHT  3194 S    C    CA     0.031624       12.0107           0
    3195 SHT  3195 S    C    CA     0.031624       12.0107           0
    3196 SHT  3196 S    C    CA     0.031624       12.0107           0
    3197 SHT  3197 S    C    CA     0.031624       12.0107           0
    3198 SHT  3198 S    C    CA     0.031624       12.0107           0
    3199 SHT  3199 S    C    CA     0.031624       12.0107           0
    3200 SHT  3200 S    C    CA     0.031624       12.0107           0
    3201 SHT  3201 S    C    CA     0.031624       12.0107           0
    3202 SHT  3202 S    C    CA     0.031624       12.0107           0
    3203 SHT  3203 S    C    CA     0.031624       12.0107           0
    3204 SHT  3204 S    C    CA     0.031624       12.0107           0
    3205 SHT  3205 S    C    CA     0.031624       12.0107           0
    3206 SHT  3206 S    C    CA     0.031624       12.0107           0
    3207 SHT  3207 S    C    CA     0.031624       12.0107           0
    3208 SHT  3208 S    C    CA     0.031624       12.0107           0
    3209 SHT  3209 S    C    CA     0.031624       12.0107           0
    3210 SHT  3210 S    C    CA     0.031624       12.0107           0
    3211 SHT  3211 S    C    CA     0.031624       12.0107           0
    3212 SHT  3212 S    C    CA     0.031624       12.0107           0
    3213 SHT  3213 S    C    CA     0.031624       12.0107           0
    3214 SHT  3214 S    C    CA     0.031624       12.0107           0
    3215 SHT  3215 S    C    CA     0.031624       12.0107           0
    3216 SHT  3216 S    C    CA     0.031624       12.0107           0
    3217 SHT  3217 S    C    CA     0.031624       12.0107           0
    3218 SHT  3218 S    C    CA     0.031624       12.0107           0
    3219 SHT  3219 S    C    CA     0.031624       12.0107           0
    3220 SHT  3220 S    C    CA     0.031624       12.0107           0
    3221 SHT  3221 S    C    CA     0.031624       12.0107           0
    3222 SHT  3222 S    C    CA     0.031624       12.0107           0
    3223 SHT  3223 S    C    CA     0.031624       12.0107           0
    3224 SHT  3224 S    C    CA     0.031624       12.0107           0
    3225 SHT  3225 S    C    CA     0.031624       12.0107           0
    3226 SHT  3226 S    C    CA     0.031624       12.0107           0
    3227 SHT  3227 S    C    CA     0.031624       12.0107           0
    3228 SHT  3228 S    C    CA     0.031624       12.0107           0
    3229 SHT  3229 S    C    CA     0.031624       12.0107           0
    3230 SHT  3230 S    C    CA     0.031624       12.0107           0
    3231 SHT  3231 S    C    CA     0.031624       12.0107           0
    3232 SHT  3232 S    C    CA     0.031624       12.0107           0
    3233 SHT  3233 S    C    CA     0.031624       12.0107           0
    3234 SHT  3234 S    C    CA     0.031624       12.0107           0
    3235 SHT  3235 S    C    CA     0.031624       12.0107           0
    3236 SHT  3236 S    C    CA     0.031624       12.0107           0
    3237 SHT  3237 S    C    CA     0.031624       12.0107           0
    3238 SHT  3238 S    C    CA     0.031624       12.0107           0
    3239 SHT  3239 S    C    CA     0.031624       12.0107           0
    3240 SHT  3240 S    C    CA     0.031624       12.0107           0
    3241 SHT  3241 S    C    CA     0.031624       12.0107           0
    3242 SHT  3242 S    C    CA     0.031624       12.0107           0
    3243 SHT  3243 S    C    CA     0.031624       12.0107           0
    3244 SHT  3244 S    C    CA     0.031624       12.0107           0
    3245 SHT  3245 S    C    CA     0.031624       12.0107           0
    3246 SHT  3246 S    C    CA     0.031624       12.0107           0
    3247 SHT  3247 S    C    CA     0.031624       12.0107           0
    3248 SHT  3248 S    C    CA     0.031624       12.0107           0
    3249 SHT  3249 S    C    CA     0.031624       12.0107           0
    3250 SHT  3250 S    C    CA     0.031624       12.0107           0
    3251 SHT  3251 S    C    CA     0.031624       12.0107           0
    3252 SHT  3252 S    C    CA     0.031624       12.0107           0
    3253 SHT  3253 S    C    CA     0.031624       12.0107           0
    3254 SHT  3254 S    C    CA     0.031624       12.0107           0
    3255 SHT  3255 S    C    CA     0.031624       12.0107           0
    3256 SHT  3256 S    C    CA     0.031624       12.0107           0
    3257 SHT  3257 S    C    CA     0.031624       12.0107           0
    3258 SHT  3258 S    C    CA     0.031624       12.0107           0
    3259 SHT  3259 S    C    CA     0.031624       12.0107           0
    3260 SHT  3260 S    C    CA     0.031624       12.0107           0
    3261 SHT  3261 S    C    CA     0.031624       12.0107           0
    3262 SHT  3262 S    C    CA     0.031624       12.0107           0
    3263 SHT  3263 S    C    CA     0.031624       12.0107           0
    3264 SHT  3264 S    C    CA     0.031624       12.0107           0
    3265 SHT  3265 S    C    CA     0.031624       12.0107           0
    3266 SHT  3266 S    C    CA     0.031624       12.0107           0
    3267 SHT  3267 S    C    CA     0.031624       12.0107           0
    3268 SHT  3268 S    C    CA     0.031624       12.0107           0
    3269 SHT  3269 S    C    CA     0.031624       12.0107           0
    3270 SHT  3270 S    C    CA     0.031624       12.0107           0
    3271 SHT  3271 S    C    CA     0.031624       12.0107           0
    3272 SHT  3272 S    C    CA     0.031624       12.0107           0
    3273 SHT  3273 S    C    CA     0.031624       12.0107           0
    3274 SHT  3274 S    C    CA     0.031624       12.0107           0
    3275 SHT  3275 S    C    CA     0.031624       12.0107           0
    3276 SHT  3276 S    C    CA     0.031624       12.0107           0
    3277 SHT  3277 S    C    CA     0.031624       12.0107           0
    3278 SHT  3278 S    C    CA     0.031624       12.0107           0
    3279 SHT  3279 S    C    CA     0.031624       12.0107           0
    3280 SHT  3280 S    C    CA     0.031624       12.0107           0
    3281 SHT  3281 S    C    CA     0.031624       12.0107           0
    3282 SHT  3282 S    C    CA     0.031624       12.0107           0
    3283 SHT  3283 S    C    CA     0.031624       12.0107           0
    3284 SHT  3284 S    C    CA     0.031624       12.0107           0
    3285 SHT  3285 S    C    CA     0.031624       12.0107           0
    3286 SHT  3286 S    C    CA     0.031624       12.0107           0
    3287 SHT  3287 S    C    CA     0.031624       12.0107           0
    3288 SHT  3288 S    C    CA     0.031624       12.0107           0
    3289 SHT  3289 S    C    CA     0.031624       12.0107           0
    3290 SHT  3290 S    C    CA     0.031624       12.0107           0
    3291 SHT  3291 S    C    CA     0.031624       12.0107           0
    3292 SHT  3292 S    C    CA     0.031624       12.0107           0
    3293 SHT  3293 S    C    CA     0.031624       12.0107           0
    3294 SHT  3294 S    C    CA     0.031624       12.0107           0
    3295 SHT  3295 S    C    CA     0.031624       12.0107           0
    3296 SHT  3296 S    C    CA     0.031624       12.0107           0
    3297 SHT  3297 S    C    CA     0.031624       12.0107           0
    3298 SHT  3298 S    C    CA     0.031624       12.0107           0
    3299 SHT  3299 S    C    CA     0.031624       12.0107           0
    3300 SHT  3300 S    C    CA     0.031624       12.0107           0
    3301 SHT  3301 S    C    CA     0.031624       12.0107           0
    3302 SHT  3302 S    C    CA     0.031624       12.0107           0
    3303 SHT  3303 S    C    CA     0.031624       12.0107           0
    3304 SHT  3304 S    C    CA     0.031624       12.0107           0
    3305 SHT  3305 S    C    CA     0.031624       12.0107           0
    3306 SHT  3306 S    C    CA     0.031624       12.0107           0
    3307 SHT  3307 S    C    CA     0.031624       12.0107           0
    3308 SHT  3308 S    C    CA     0.031624       12.0107           0
    3309 SHT  3309 S    C    CA     0.031624       12.0107           0
    3310 SHT  3310 S    C    CA     0.031624       12.0107           0
    3311 SHT  3311 S    C    CA     0.031624       12.0107           0
    3312 SHT  3312 S    C    CA     0.031624       12.0107           0
    3313 SHT  3313 S    C    CA     0.031624       12.0107           0
    3314 SHT  3314 S    C    CA     0.031624       12.0107           0
    3315 SHT  3315 S    C    CA     0.031624       12.0107           0
    3316 SHT  3316 S    C    CA     0.031624       12.0107           0
    3317 SHT  3317 S    C    CA     0.031624       12.0107           0
    3318 SHT  3318 S    C    CA     0.031624       12.0107           0
    3319 SHT  3319 S    C    CA     0.031624       12.0107           0
    3320 SHT  3320 S    C    CA     0.031624       12.0107           0
    3321 SHT  3321 S    C    CA     0.031624       12.0107           0
    3322 SHT  3322 S    C    CA     0.031624       12.0107           0
    3323 SHT  3323 S    C    CA     0.031624       12.0107           0
    3324 SHT  3324 S    C    CA     0.031624       12.0107           0
    3325 SHT  3325 S    C    CA     0.031624       12.0107           0
    3326 SHT  3326 S    C    CA     0.031624       12.0107           0
    3327 SHT  3327 S    C    CA     0.031624       12.0107           0
    3328 SHT  3328 S    C    CA     0.031624       12.0107           0
    3329 SHT  3329 S    C    CA     0.031624       12.0107           0
    3330 SHT  3330 S    C    CA     0.031624       12.0107           0
    3331 SHT  3331 S    C    CA     0.031624       12.0107           0
    3332 SHT  3332 S    C    CA     0.031624       12.0107           0
    3333 SHT  3333 S    C    CA     0.031624       12.0107           0
    3334 SHT  3334 S    C    CA     0.031624       12.0107           0
    3335 SHT  3335 S    C    CA     0.031624       12.0107           0
    3336 SHT  3336 S    C    CA     0.031624       12.0107           0
    3337 SHT  3337 S    C    CA     0.031624       12.0107           0
    3338 SHT  3338 S    C    CA     0.031624       12.0107           0
    3339 SHT  3339 S    C    CA     0.031624       12.0107           0
    3340 SHT  3340 S    C    CA     0.031624       12.0107           0
    3341 SHT  3341 S    C    CA     0.031624       12.0107           0
    3342 SHT  3342 S    C    CA     0.031624       12.0107           0
    3343 SHT  3343 S    C    CA     0.031624       12.0107           0
    3344 SHT  3344 S    C    CA     0.031624       12.0107           0
    3345 SHT  3345 S    C    CA     0.031624       12.0107           0
    3346 SHT  3346 S    C    CA     0.031624       12.0107           0
    3347 SHT  3347 S    C    CA     0.031624       12.0107           0
    3348 SHT  3348 S    C    CA     0.031624       12.0107           0
    3349 SHT  3349 S    C    CA     0.031624       12.0107           0
    3350 SHT  3350 S    C    CA     0.031624       12.0107           0
    3351 SHT  3351 S    C    CA     0.031624       12.0107           0
    3352 SHT  3352 S    C    CA     0.031624       12.0107           0
    3353 SHT  3353 S    C    CA     0.031624       12.0107           0
    3354 SHT  3354 S    C    CA     0.031624       12.0107           0
    3355 SHT  3355 S    C    CA     0.031624       12.0107           0
    3356 SHT  3356 S    C    CA     0.031624       12.0107           0
    3357 SHT  3357 S    C    CA     0.031624       12.0107           0
    3358 SHT  3358 S    C    CA     0.031624       12.0107           0
    3359 SHT  3359 S    C    CA     0.031624       12.0107           0
    3360 SHT  3360 S    C    CA     0.031624       12.0107           0
    3361 SHT  3361 S    C    CA     0.031624       12.0107           0
    3362 SHT  3362 S    C    CA     0.031624       12.0107           0
    3363 SHT  3363 S    C    CA     0.031624       12.0107           0
    3364 SHT  3364 S    C    CA     0.031624       12.0107           0
    3365 SHT  3365 S    C    CA     0.031624       12.0107           0
    3366 SHT  3366 S    C    CA     0.031624       12.0107           0
    3367 SHT  3367 S    C    CA     0.031624       12.0107           0
    3368 SHT  3368 S    C    CA     0.031624       12.0107           0
    3369 SHT  3369 S    C    CA     0.031624       12.0107           0
    3370 SHT  3370 S    C    CA     0.031624       12.0107           0
    3371 SHT  3371 S    C    CA     0.031624       12.0107           0
    3372 SHT  3372 S    C    CA     0.031624       12.0107           0
    3373 SHT  3373 S    C    CA     0.031624       12.0107           0
    3374 SHT  3374 S    C    CA     0.031624       12.0107           0
    3375 SHT  3375 S    C    CA     0.031624       12.0107           0
    3376 SHT  3376 S    C    CA     0.031624       12.0107           0
    3377 SHT  3377 S    C    CA     0.031624       12.0107           0
    3378 SHT  3378 S    C    CA     0.031624       12.0107           0
    3379 SHT  3379 S    C    CA     0.031624       12.0107           0
    3380 SHT  3380 S    C    CA     0.031624       12.0107           0
    3381 SHT  3381 S    C    CA     0.031624       12.0107           0
    3382 SHT  3382 S    C    CA     0.031624       12.0107           0
    3383 SHT  3383 S    C    CA     0.031624       12.0107           0
    3384 SHT  3384 S    C    CA     0.031624       12.0107           0
    3385 SHT  3385 S    C    CA     0.031624       12.0107           0
    3386 SHT  3386 S    C    CA     0.031624       12.0107           0
    3387 SHT  3387 S    C    CA     0.031624       12.0107           0
    3388 SHT  3388 S    C    CA     0.031624       12.0107           0
    3389 SHT  3389 S    C    CA     0.031624       12.0107           0
    3390 SHT  3390 S    C    CA     0.031624       12.0107           0
    3391 SHT  3391 S    C    CA     0.031624       12.0107           0
    3392 SHT  3392 S    C    CA     0.031624       12.0107           0
    3393 SHT  3393 S    C    CA     0.031624       12.0107           0
    3394 SHT  3394 S    C    CA     0.031624       12.0107           0
    3395 SHT  3395 S    C    CA     0.031624       12.0107           0
    3396 SHT  3396 S    C    CA     0.031624       12.0107           0
    3397 SHT  3397 S    C    CA     0.031624       12.0107           0
    3398 SHT  3398 S    C    CA     0.031624       12.0107           0
    3399 SHT  3399 S    C    CA     0.031624       12.0107           0
    3400 SHT  3400 S    C    CA     0.031624       12.0107           0
    3401 SHT  3401 S    C    CA     0.031624       12.0107           0
    3402 SHT  3402 S    C    CA     0.031624       12.0107           0
    3403 SHT  3403 S    C    CA     0.031624       12.0107           0
    3404 SHT  3404 S    C    CA     0.031624       12.0107           0
    3405 SHT  3405 S    C    CA     0.031624       12.0107           0
    3406 SHT  3406 S    C    CA     0.031624       12.0107           0
    3407 SHT  3407 S    C    CA     0.031624       12.0107           0
    3408 SHT  3408 S    C    CA     0.031624       12.0107           0
    3409 SHT  3409 S    C    CA     0.031624       12.0107           0
    3410 SHT  3410 S    C    CA     0.031624       12.0107           0
    3411 SHT  3411 S    C    CA     0.031624       12.0107           0
    3412 SHT  3412 S    C    CA     0.031624       12.0107           0
    3413 SHT  3413 S    C    CA     0.031624       12.0107           0
    3414 SHT  3414 S    C    CA     0.031624       12.0107           0
    3415 SHT  3415 S    C    CA     0.031624       12.0107           0
    3416 SHT  3416 S    C    CA     0.031624       12.0107           0
    3417 SHT  3417 S    C    CA     0.031624       12.0107           0
    3418 SHT  3418 S    C    CA     0.031624       12.0107           0
    3419 SHT  3419 S    C    CA     0.031624       12.0107           0
    3420 SHT  3420 S    C    CA     0.031624       12.0107           0
    3421 SHT  3421 S    C    CA     0.031624       12.0107           0
    3422 SHT  3422 S    C    CA     0.031624       12.0107           0
    3423 SHT  3423 S    C    CA     0.031624       12.0107           0
    3424 SHT  3424 S    C    CA     0.031624       12.0107           0
    3425 SHT  3425 S    C    CA     0.031624       12.0107           0
    3426 SHT  3426 S    C    CA     0.031624       12.0107           0
    3427 SHT  3427 S    C    CA     0.031624       12.0107           0
    3428 SHT  3428 S    C    CA     0.031624       12.0107           0
    3429 SHT  3429 S    C    CA     0.031624       12.0107           0
    3430 SHT  3430 S    C    CA     0.031624       12.0107           0
    3431 SHT  3431 S    C    CA     0.031624       12.0107           0
    3432 SHT  3432 S    C    CA     0.031624       12.0107           0
    3433 SHT  3433 S    C    CA     0.031624       12.0107           0
    3434 SHT  3434 S    C    CA     0.031624       12.0107           0
    3435 SHT  3435 S    C    CA     0.031624       12.0107           0
    3436 SHT  3436 S    C    CA     0.031624       12.0107           0
    3437 SHT  3437 S    C    CA     0.031624       12.0107           0
    3438 SHT  3438 S    C    CA     0.031624       12.0107           0
    3439 SHT  3439 S    C    CA     0.031624       12.0107           0
    3440 SHT  3440 S    C    CA     0.031624       12.0107           0
    3441 SHT  3441 S    C    CA     0.031624       12.0107           0
    3442 SHT  3442 S    C    CA     0.031624       12.0107           0
    3443 SHT  3443 S    C    CA     0.031624       12.0107           0
    3444 SHT  3444 S    C    CA     0.031624       12.0107           0
    3445 SHT  3445 S    C    CA     0.031624       12.0107           0
    3446 SHT  3446 S    C    CA     0.031624       12.0107           0
    3447 SHT  3447 S    C    CA     0.031624       12.0107           0
    3448 SHT  3448 S    C    CA     0.031624       12.0107           0
    3449 SHT  3449 S    C    CA     0.031624       12.0107           0
    3450 SHT  3450 S    C    CA     0.031624       12.0107           0
    3451 SHT  3451 S    C    CA     0.031624       12.0107           0
    3452 SHT  3452 S    C    CA     0.031624       12.0107           0
    3453 SHT  3453 S    C    CA     0.031624       12.0107           0
    3454 SHT  3454 S    C    CA     0.031624       12.0107           0
    3455 SHT  3455 S    C    CA     0.031624       12.0107           0
    3456 SHT  3456 S    C    CA     0.031624       12.0107           0
    3457 SHT  3457 S    C    CA     0.031624       12.0107           0
    3458 SHT  3458 S    C    CA     0.031624       12.0107           0
    3459 SHT  3459 S    C    CA     0.031624       12.0107           0
    3460 SHT  3460 S    C    CA     0.031624       12.0107           0
    3461 SHT  3461 S    C    CA     0.031624       12.0107           0
    3462 SHT  3462 S    C    CA     0.031624       12.0107           0
    3463 SHT  3463 S    C    CA     0.031624       12.0107           0
    3464 SHT  3464 S    C    CA     0.031624       12.0107           0
    3465 SHT  3465 S    C    CA     0.031624       12.0107           0
    3466 SHT  3466 S    C    CA     0.031624       12.0107           0
    3467 SHT  3467 S    C    CA     0.031624       12.0107           0
    3468 SHT  3468 S    C    CA     0.031624       12.0107           0
    3469 SHT  3469 S    C    CA     0.031624       12.0107           0
    3470 SHT  3470 S    C    CA     0.031624       12.0107           0
    3471 SHT  3471 S    C    CA     0.031624       12.0107           0
    3472 SHT  3472 S    C    CA     0.031624       12.0107           0
    3473 SHT  3473 S    C    CA     0.031624       12.0107           0
    3474 SHT  3474 S    C    CA     0.031624       12.0107           0
    3475 SHT  3475 S    C    CA     0.031624       12.0107           0
    3476 SHT  3476 S    C    CA     0.031624       12.0107           0
    3477 SHT  3477 S    C    CA     0.031624       12.0107           0
    3478 SHT  3478 S    C    CA     0.031624       12.0107           0
    3479 SHT  3479 S    C    CA     0.031624       12.0107           0
    3480 SHT  3480 S    C    CA     0.031624       12.0107           0
    3481 SHT  3481 S    C    CA     0.031624       12.0107           0
    3482 SHT  3482 S    C    CA     0.031624       12.0107           0
    3483 SHT  3483 S    C    CA     0.031624       12.0107           0
    3484 SHT  3484 S    C    CA     0.031624       12.0107           0
    3485 SHT  3485 S    C    CA     0.031624       12.0107           0
    3486 SHT  3486 S    C    CA     0.031624       12.0107           0
    3487 SHT  3487 S    C    CA     0.031624       12.0107           0
    3488 SHT  3488 S    C    CA     0.031624       12.0107           0
    3489 SHT  3489 S    C    CA     0.031624       12.0107           0
    3490 SHT  3490 S    C    CA     0.031624       12.0107           0
    3491 SHT  3491 S    C    CA     0.031624       12.0107           0
    3492 SHT  3492 S    C    CA     0.031624       12.0107           0
    3493 SHT  3493 S    C    CA     0.031624       12.0107           0
    3494 SHT  3494 S    C    CA     0.031624       12.0107           0
    3495 SHT  3495 S    C    CA     0.031624       12.0107           0
    3496 SHT  3496 S    C    CA     0.031624       12.0107           0
    3497 SHT  3497 S    C    CA     0.031624       12.0107           0
    3498 SHT  3498 S    C    CA     0.031624       12.0107           0
    3499 SHT  3499 S    C    CA     0.031624       12.0107           0
    3500 SHT  3500 S    C    CA     0.031624       12.0107           0
    3501 SHT  3501 S    C    CA     0.031624       12.0107           0
    3502 SHT  3502 S    C    CA     0.031624       12.0107           0
    3503 SHT  3503 S    C    CA     0.031624       12.0107           0
    3504 SHT  3504 S    C    CA     0.031624       12.0107           0
    3505 SHT  3505 S    C    CA     0.031624       12.0107           0
    3506 SHT  3506 S    C    CA     0.031624       12.0107           0
    3507 SHT  3507 S    C    CA     0.031624       12.0107           0
    3508 SHT  3508 S    C    CA     0.031624       12.0107           0
    3509 SHT  3509 S    C    CA     0.031624       12.0107           0
    3510 SHT  3510 S    C    CA     0.031624       12.0107           0
    3511 SHT  3511 S    C    CA     0.031624       12.0107           0
    3512 SHT  3512 S    C    CA     0.031624       12.0107           0
    3513 SHT  3513 S    C    CA     0.031624       12.0107           0
    3514 SHT  3514 S    C    CA     0.031624       12.0107           0
    3515 SHT  3515 S    C    CA     0.031624       12.0107           0
    3516 SHT  3516 S    C    CA     0.031624       12.0107           0
    3517 SHT  3517 S    C    CA     0.031624       12.0107           0
    3518 SHT  3518 S    C    CA     0.031624       12.0107           0
    3519 SHT  3519 S    C    CA     0.031624       12.0107           0
    3520 SHT  3520 S    C    CA     0.031624       12.0107           0
    3521 SHT  3521 S    C    CA     0.031624       12.0107           0
    3522 SHT  3522 S    C    CA     0.031624       12.0107           0
    3523 SHT  3523 S    C    CA     0.031624       12.0107           0
    3524 SHT  3524 S    C    CA     0.031624       12.0107           0
    3525 SHT  3525 S    C    CA     0.031624       12.0107           0
    3526 SHT  3526 S    C    CA     0.031624       12.0107           0
    3527 SHT  3527 S    C    CA     0.031624       12.0107           0
    3528 SHT  3528 S    C    CA     0.031624       12.0107           0
    3529 SHT  3529 S    C    CA     0.031624       12.0107           0
    3530 SHT  3530 S    C    CA     0.031624       12.0107           0
    3531 SHT  3531 S    C    CA     0.031624       12.0107           0
    3532 SHT  3532 S    C    CA     0.031624       12.0107           0
    3533 SHT  3533 S    C    CA     0.031624       12.0107           0
    3534 SHT  3534 S    C    CA     0.031624       12.0107           0
    3535 SHT  3535 S    C    CA     0.031624       12.0107           0
    3536 SHT  3536 S    C    CA     0.031624       12.0107           0
    3537 SHT  3537 S    C    CA     0.031624       12.0107           0
    3538 SHT  3538 S    C    CA     0.031624       12.0107           0
    3539 SHT  3539 S    C    CA     0.031624       12.0107           0
    3540 SHT  3540 S    C    CA     0.031624       12.0107           0
    3541 SHT  3541 S    C    CA     0.031624       12.0107           0
    3542 SHT  3542 S    C    CA     0.031624       12.0107           0
    3543 SHT  3543 S    C    CA     0.031624       12.0107           0
    3544 SHT  3544 S    C    CA     0.031624       12.0107           0
    3545 SHT  3545 S    C    CA     0.031624       12.0107           0
    3546 SHT  3546 S    C    CA     0.031624       12.0107           0
    3547 SHT  3547 S    C    CA     0.031624       12.0107           0
    3548 SHT  3548 S    C    CA     0.031624       12.0107           0
    3549 SHT  3549 S    C    CA     0.031624       12.0107           0
    3550 SHT  3550 S    C    CA     0.031624       12.0107           0
    3551 SHT  3551 S    C    CA     0.031624       12.0107           0
    3552 SHT  3552 S    C    CA     0.031624       12.0107           0
    3553 SHT  3553 S    C    CA     0.031624       12.0107           0
    3554 SHT  3554 S    C    CA     0.031624       12.0107           0
    3555 SHT  3555 S    C    CA     0.031624       12.0107           0
    3556 SHT  3556 S    C    CA     0.031624       12.0107           0
    3557 SHT  3557 S    C    CA     0.031624       12.0107           0
    3558 SHT  3558 S    C    CA     0.031624       12.0107           0
    3559 SHT  3559 S    C    CA     0.031624       12.0107           0
    3560 SHT  3560 S    C    CA     0.031624       12.0107           0
    3561 SHT  3561 S    C    CA     0.031624       12.0107           0
    3562 SHT  3562 S    C    CA     0.031624       12.0107           0
    3563 SHT  3563 S    C    CA     0.031624       12.0107           0
    3564 SHT  3564 S    C    CA     0.031624       12.0107           0
    3565 SHT  3565 S    C    CA     0.031624       12.0107           0
    3566 SHT  3566 S    C    CA     0.031624       12.0107           0
    3567 SHT  3567 S    C    CA     0.031624       12.0107           0
    3568 SHT  3568 S    C    CA     0.031624       12.0107           0
    3569 SHT  3569 S    C    CA     0.031624       12.0107           0
    3570 SHT  3570 S    C    CA     0.031624       12.0107           0
    3571 SHT  3571 S    C    CA     0.031624       12.0107           0
    3572 SHT  3572 S    C    CA     0.031624       12.0107           0
    3573 SHT  3573 S    C    CA     0.031624       12.0107           0
    3574 SHT  3574 S    C    CA     0.031624       12.0107           0
    3575 SHT  3575 S    C    CA     0.031624       12.0107           0
    3576 SHT  3576 S    C    CA     0.031624       12.0107           0
    3577 SHT  3577 S    C    CA     0.031624       12.0107           0
    3578 SHT  3578 S    C    CA     0.031624       12.0107           0
    3579 SHT  3579 S    C    CA     0.031624       12.0107           0
    3580 SHT  3580 S    C    CA     0.031624       12.0107           0
    3581 SHT  3581 S    C    CA     0.031624       12.0107           0
    3582 SHT  3582 S    C    CA     0.031624       12.0107           0
    3583 SHT  3583 S    C    CA     0.031624       12.0107           0
    3584 SHT  3584 S    C    CA     0.031624       12.0107           0
    3585 SHT  3585 S    C    CA     0.031624       12.0107           0
    3586 SHT  3586 S    C    CA     0.031624       12.0107           0
    3587 SHT  3587 S    C    CA     0.031624       12.0107           0
    3588 SHT  3588 S    C    CA     0.031624       12.0107           0
    3589 SHT  3589 S    C    CA     0.031624       12.0107           0
    3590 SHT  3590 S    C    CA     0.031624       12.0107           0
    3591 SHT  3591 S    C    CA     0.031624       12.0107           0
    3592 SHT  3592 S    C    CA     0.031624       12.0107           0
    3593 SHT  3593 S    C    CA     0.031624       12.0107           0
    3594 SHT  3594 S    C    CA     0.031624       12.0107           0
    3595 SHT  3595 S    C    CA     0.031624       12.0107           0
    3596 SHT  3596 S    C    CA     0.031624       12.0107           0
    3597 SHT  3597 S    C    CA     0.031624       12.0107           0
    3598 SHT  3598 S    C    CA     0.031624       12.0107           0
    3599 SHT  3599 S    C    CA     0.031624       12.0107           0
    3600 SHT  3600 S    C    CA     0.031624       12.0107           0
    3601 SHT  3601 S    C    CA     0.031624       12.0107           0
    3602 SHT  3602 S    C    CA     0.031624       12.0107           0
    3603 SHT  3603 S    C    CA     0.031624       12.0107           0
    3604 SHT  3604 S    C    CA     0.031624       12.0107           0
    3605 SHT  3605 S    C    CA     0.031624       12.0107           0
    3606 SHT  3606 S    C    CA     0.031624       12.0107           0
    3607 SHT  3607 S    C    CA     0.031624       12.0107           0
    3608 SHT  3608 S    C    CA     0.031624       12.0107           0
    3609 SHT  3609 S    C    CA     0.031624       12.0107           0
    3610 SHT  3610 S    C    CA     0.031624       12.0107           0
    3611 SHT  3611 S    C    CA     0.031624       12.0107           0
    3612 SHT  3612 S    C    CA     0.031624       12.0107           0
    3613 SHT  3613 S    C    CA     0.031624       12.0107           0
    3614 SHT  3614 S    C    CA     0.031624       12.0107           0
    3615 SHT  3615 S    C    CA     0.031624       12.0107           0
    3616 SHT  3616 S    C    CA     0.031624       12.0107           0
    3617 SHT  3617 S    C    CA     0.031624       12.0107           0
    3618 SHT  3618 S    C    CA     0.031624       12.0107           0
    3619 SHT  3619 S    C    CA     0.031624       12.0107           0
    3620 SHT  3620 S    C    CA     0.031624       12.0107           0
    3621 SHT  3621 S    C    CA     0.031624       12.0107           0
    3622 SHT  3622 S    C    CA     0.031624       12.0107           0
    3623 SHT  3623 S    C    CA     0.031624       12.0107           0
    3624 SHT  3624 S    C    CA     0.031624       12.0107           0
    3625 SHT  3625 S    C    CA     0.031624       12.0107           0
    3626 SHT  3626 S    C    CA     0.031624       12.0107           0
    3627 SHT  3627 S    C    CA     0.031624       12.0107           0
    3628 SHT  3628 S    C    CA     0.031624       12.0107           0
    3629 SHT  3629 S    C    CA     0.031624       12.0107           0
    3630 SHT  3630 S    C    CA     0.031624       12.0107           0
    3631 SHT  3631 S    C    CA     0.031624       12.0107           0
    3632 SHT  3632 S    C    CA     0.031624       12.0107           0
    3633 SHT  3633 S    C    CA     0.031624       12.0107           0
    3634 SHT  3634 S    C    CA     0.031624       12.0107           0
    3635 SHT  3635 S    C    CA     0.031624       12.0107           0
    3636 SHT  3636 S    C    CA     0.031624       12.0107           0
    3637 SHT  3637 S    C    CA     0.031624       12.0107           0
    3638 SHT  3638 S    C    CA     0.031624       12.0107           0
    3639 SHT  3639 S    C    CA     0.031624       12.0107           0
    3640 SHT  3640 S    C    CA     0.031624       12.0107           0
    3641 SHT  3641 S    C    CA     0.031624       12.0107           0
    3642 SHT  3642 S    C    CA     0.031624       12.0107           0
    3643 SHT  3643 S    C    CA     0.031624       12.0107           0
    3644 SHT  3644 S    C    CA     0.031624       12.0107           0
    3645 SHT  3645 S    C    CA     0.031624       12.0107           0
    3646 SHT  3646 S    C    CA     0.031624       12.0107           0
    3647 SHT  3647 S    C    CA     0.031624       12.0107           0
    3648 SHT  3648 S    C    CA     0.031624       12.0107           0
    3649 SHT  3649 S    C    CA     0.031624       12.0107           0
    3650 SHT  3650 S    C    CA     0.031624       12.0107           0
    3651 SHT  3651 S    C    CA     0.031624       12.0107           0
    3652 SHT  3652 S    C    CA     0.031624       12.0107           0
    3653 SHT  3653 S    C    CA     0.031624       12.0107           0
    3654 SHT  3654 S    C    CA     0.031624       12.0107           0
    3655 SHT  3655 S    C    CA     0.031624       12.0107           0
    3656 SHT  3656 S    C    CA     0.031624       12.0107           0
    3657 SHT  3657 S    C    CA     0.031624       12.0107           0
    3658 SHT  3658 S    C    CA     0.031624       12.0107           0
    3659 SHT  3659 S    C    CA     0.031624       12.0107           0
    3660 SHT  3660 S    C    CA     0.031624       12.0107           0
    3661 SHT  3661 S    C    CA     0.031624       12.0107           0
    3662 SHT  3662 S    C    CA     0.031624       12.0107           0
    3663 SHT  3663 S    C    CA     0.031624       12.0107           0
    3664 SHT  3664 S    C    CA     0.031624       12.0107           0
    3665 SHT  3665 S    C    CA     0.031624       12.0107           0
    3666 SHT  3666 S    C    CA     0.031624       12.0107           0
    3667 SHT  3667 S    C    CA     0.031624       12.0107           0
    3668 SHT  3668 S    C    CA     0.031624       12.0107           0
    3669 SHT  3669 S    C    CA     0.031624       12.0107           0
    3670 SHT  3670 S    C    CA     0.031624       12.0107           0
    3671 SHT  3671 S    C    CA     0.031624       12.0107           0
    3672 SHT  3672 S    C    CA     0.031624       12.0107           0
    3673 SHT  3673 S    C    CA     0.031624       12.0107           0
    3674 SHT  3674 S    C    CA     0.031624       12.0107           0
    3675 SHT  3675 S    C    CA     0.031624       12.0107           0
    3676 SHT  3676 S    C    CA     0.031624       12.0107           0
    3677 SHT  3677 S    C    CA     0.031624       12.0107           0
    3678 SHT  3678 S    C    CA     0.031624       12.0107           0
    3679 SHT  3679 S    C    CA     0.031624       12.0107           0
    3680 SHT  3680 S    C    CA     0.031624       12.0107           0
    3681 SHT  3681 S    C    CA     0.031624       12.0107           0
    3682 SHT  3682 S    C    CA     0.031624       12.0107           0
    3683 SHT  3683 S    C    CA     0.031624       12.0107           0
    3684 SHT  3684 S    C    CA     0.031624       12.0107           0
    3685 SHT  3685 S    C    CA     0.031624       12.0107           0
    3686 SHT  3686 S    C    CA     0.031624       12.0107           0
    3687 SHT  3687 S    C    CA     0.031624       12.0107           0
    3688 SHT  3688 S    C    CA     0.031624       12.0107           0
    3689 SHT  3689 S    C    CA     0.031624       12.0107           0
    3690 SHT  3690 S    C    CA     0.031624       12.0107           0
    3691 SHT  3691 S    C    CA     0.031624       12.0107           0
    3692 SHT  3692 S    C    CA     0.031624       12.0107           0
    3693 SHT  3693 S    C    CA     0.031624       12.0107           0
    3694 SHT  3694 S    C    CA     0.031624       12.0107           0
    3695 SHT  3695 S    C    CA     0.031624       12.0107           0
    3696 SHT  3696 S    C    CA     0.031624       12.0107           0
    3697 SHT  3697 S    C    CA     0.031624       12.0107           0
    3698 SHT  3698 S    C    CA     0.031624       12.0107           0
    3699 SHT  3699 S    C    CA     0.031624       12.0107           0
    3700 SHT  3700 S    C    CA     0.031624       12.0107           0
    3701 SHT  3701 S    C    CA     0.031624       12.0107           0
    3702 SHT  3702 S    C    CA     0.031624       12.0107           0
    3703 SHT  3703 S    C    CA     0.031624       12.0107           0
    3704 SHT  3704 S    C    CA     0.031624       12.0107           0
    3705 SHT  3705 S    C    CA     0.031624       12.0107           0
    3706 SHT  3706 S    C    CA     0.031624       12.0107           0
    3707 SHT  3707 S    C    CA     0.031624       12.0107           0
    3708 SHT  3708 S    C    CA     0.031624       12.0107           0
    3709 SHT  3709 S    C    CA     0.031624       12.0107           0
    3710 SHT  3710 S    C    CA     0.031624       12.0107           0
    3711 SHT  3711 S    C    CA     0.031624       12.0107           0
    3712 SHT  3712 S    C    CA     0.031624       12.0107           0
    3713 SHT  3713 S    C    CA     0.031624       12.0107           0
    3714 SHT  3714 S    C    CA     0.031624       12.0107           0
    3715 SHT  3715 S    C    CA     0.031624       12.0107           0
    3716 SHT  3716 S    C    CA     0.031624       12.0107           0
    3717 SHT  3717 S    C    CA     0.031624       12.0107           0
    3718 SHT  3718 S    C    CA     0.031624       12.0107           0
    3719 SHT  3719 S    C    CA     0.031624       12.0107           0
    3720 SHT  3720 S    C    CA     0.031624       12.0107           0
    3721 SHT  3721 S    C    CA     0.031624       12.0107           0
    3722 SHT  3722 S    C    CA     0.031624       12.0107           0
    3723 SHT  3723 S    C    CA     0.031624       12.0107           0
    3724 SHT  3724 S    C    CA     0.031624       12.0107           0
    3725 SHT  3725 S    C    CA     0.031624       12.0107           0
    3726 SHT  3726 S    C    CA     0.031624       12.0107           0
    3727 SHT  3727 S    C    CA     0.031624       12.0107           0
    3728 SHT  3728 S    C    CA     0.031624       12.0107           0
    3729 SHT  3729 S    C    CA     0.031624       12.0107           0
    3730 SHT  3730 S    C    CA     0.031624       12.0107           0
    3731 SHT  3731 S    C    CA     0.031624       12.0107           0
    3732 SHT  3732 S    C    CA     0.031624       12.0107           0
    3733 SHT  3733 S    C    CA     0.031624       12.0107           0
    3734 SHT  3734 S    C    CA     0.031624       12.0107           0
    3735 SHT  3735 S    C    CA     0.031624       12.0107           0
    3736 SHT  3736 S    C    CA     0.031624       12.0107           0
    3737 SHT  3737 S    C    CA     0.031624       12.0107           0
    3738 SHT  3738 S    C    CA     0.031624       12.0107           0
    3739 SHT  3739 S    C    CA     0.031624       12.0107           0
    3740 SHT  3740 S    C    CA     0.031624       12.0107           0
    3741 SHT  3741 S    C    CA     0.031624       12.0107           0
    3742 SHT  3742 S    C    CA     0.031624       12.0107           0
    3743 SHT  3743 S    C    CA     0.031624       12.0107           0
    3744 SHT  3744 S    C    CA     0.031624       12.0107           0
    3745 SHT  3745 S    C    CA     0.031624       12.0107           0
    3746 SHT  3746 S    C    CA     0.031624       12.0107           0
    3747 SHT  3747 S    C    CA     0.031624       12.0107           0
    3748 SHT  3748 S    C    CA     0.031624       12.0107           0
    3749 SHT  3749 S    C    CA     0.031624       12.0107           0
    3750 SHT  3750 S    C    CA     0.031624       12.0107           0
    3751 SHT  3751 S    C    CA     0.031624       12.0107           0
    3752 SHT  3752 S    C    CA     0.031624       12.0107           0
    3753 SHT  3753 S    C    CA     0.031624       12.0107           0
    3754 SHT  3754 S    C    CA     0.031624       12.0107           0
    3755 SHT  3755 S    C    CA     0.031624       12.0107           0
    3756 SHT  3756 S    C    CA     0.031624       12.0107           0
    3757 SHT  3757 S    C    CA     0.031624       12.0107           0
    3758 SHT  3758 S    C    CA     0.031624       12.0107           0
    3759 SHT  3759 S    C    CA     0.031624       12.0107           0
    3760 SHT  3760 S    C    CA     0.031624       12.0107           0
    3761 SHT  3761 S    C    CA     0.031624       12.0107           0
    3762 SHT  3762 S    C    CA     0.031624       12.0107           0
    3763 SHT  3763 S    C    CA     0.031624       12.0107           0
    3764 SHT  3764 S    C    CA     0.031624       12.0107           0
    3765 SHT  3765 S    C    CA     0.031624       12.0107           0
    3766 SHT  3766 S    C    CA     0.031624       12.0107           0
    3767 SHT  3767 S    C    CA     0.031624       12.0107           0
    3768 SHT  3768 S    C    CA     0.031624       12.0107           0
    3769 SHT  3769 S    C    CA     0.031624       12.0107           0
    3770 SHT  3770 S    C    CA     0.031624       12.0107           0
    3771 SHT  3771 S    C    CA     0.031624       12.0107           0
    3772 SHT  3772 S    C    CA     0.031624       12.0107           0
    3773 SHT  3773 S    C    CA     0.031624       12.0107           0
    3774 SHT  3774 S    C    CA     0.031624       12.0107           0
    3775 SHT  3775 S    C    CA     0.031624       12.0107           0
    3776 SHT  3776 S    C    CA     0.031624       12.0107           0
    3777 SHT  3777 S    C    CA     0.031624       12.0107           0
    3778 SHT  3778 S    C    CA     0.031624       12.0107           0
    3779 SHT  3779 S    C    CA     0.031624       12.0107           0
    3780 SHT  3780 S    C    CA     0.031624       12.0107           0
    3781 SHT  3781 S    C    CA     0.031624       12.0107           0
    3782 SHT  3782 S    C    CA     0.031624       12.0107           0
    3783 SHT  3783 S    C    CA     0.031624       12.0107           0
    3784 SHT  3784 S    C    CA     0.031624       12.0107           0
    3785 SHT  3785 S    C    CA     0.031624       12.0107           0
    3786 SHT  3786 S    C    CA     0.031624       12.0107           0
    3787 SHT  3787 S    C    CA     0.031624       12.0107           0
    3788 SHT  3788 S    C    CA     0.031624       12.0107           0
    3789 SHT  3789 S    C    CA     0.031624       12.0107           0
    3790 SHT  3790 S    C    CA     0.031624       12.0107           0
    3791 SHT  3791 S    C    CA     0.031624       12.0107           0
    3792 SHT  3792 S    C    CA     0.031624       12.0107           0
    3793 SHT  3793 S    C    CA     0.031624       12.0107           0
    3794 SHT  3794 S    C    CA     0.031624       12.0107           0
    3795 SHT  3795 S    C    CA     0.031624       12.0107           0
    3796 SHT  3796 S    C    CA     0.031624       12.0107           0
    3797 SHT  3797 S    C    CA     0.031624       12.0107           0
    3798 SHT  3798 S    C    CA     0.031624       12.0107           0
    3799 SHT  3799 S    C    CA     0.031624       12.0107           0
    3800 SHT  3800 S    C    CA     0.031624       12.0107           0
    3801 SHT  3801 S    C    CA     0.031624       12.0107           0
    3802 SHT  3802 S    C    CA     0.031624       12.0107           0
    3803 SHT  3803 S    C    CA     0.031624       12.0107           0
    3804 SHT  3804 S    C    CA     0.031624       12.0107           0
    3805 SHT  3805 S    C    CA     0.031624       12.0107           0
    3806 SHT  3806 S    C    CA     0.031624       12.0107           0
    3807 SHT  3807 S    C    CA     0.031624       12.0107           0
    3808 SHT  3808 S    C    CA     0.031624       12.0107           0
    3809 SHT  3809 S    C    CA     0.031624       12.0107           0
    3810 SHT  3810 S    C    CA     0.031624       12.0107           0
    3811 SHT  3811 S    C    CA     0.031624       12.0107           0
    3812 SHT  3812 S    C    CA     0.031624       12.0107           0
    3813 SHT  3813 S    C    CA     0.031624       12.0107           0
    3814 SHT  3814 S    C    CA     0.031624       12.0107           0
    3815 SHT  3815 S    C    CA     0.031624       12.0107           0
    3816 SHT  3816 S    C    CA     0.031624       12.0107           0
    3817 SHT  3817 S    C    CA     0.031624       12.0107           0
    3818 SHT  3818 S    C    CA     0.031624       12.0107           0
    3819 SHT  3819 S    C    CA     0.031624       12.0107           0
    3820 SHT  3820 S    C    CA     0.031624       12.0107           0
    3821 SHT  3821 S    C    CA     0.031624       12.0107           0
    3822 SHT  3822 S    C    CA     0.031624       12.0107           0
    3823 SHT  3823 S    C    CA     0.031624       12.0107           0
    3824 SHT  3824 S    C    CA     0.031624       12.0107           0
    3825 SHT  3825 S    C    CA     0.031624       12.0107           0
    3826 SHT  3826 S    C    CA     0.031624       12.0107           0
    3827 SHT  3827 S    C    CA     0.031624       12.0107           0
    3828 SHT  3828 S    C    CA     0.031624       12.0107           0
    3829 SHT  3829 S    C    CA     0.031624       12.0107           0
    3830 SHT  3830 S    C    CA     0.031624       12.0107           0
    3831 SHT  3831 S    C    CA     0.031624       12.0107           0
    3832 SHT  3832 S    C    CA     0.031624       12.0107           0
    3833 SHT  3833 S    C    CA     0.031624       12.0107           0
    3834 SHT  3834 S    C    CA     0.031624       12.0107           0
    3835 SHT  3835 S    C    CA     0.031624       12.0107           0
    3836 SHT  3836 S    C    CA     0.031624       12.0107           0
    3837 SHT  3837 S    C    CA     0.031624       12.0107           0
    3838 SHT  3838 S    C    CA     0.031624       12.0107           0
    3839 SHT  3839 S    C    CA     0.031624       12.0107           0
    3840 SHT  3840 S    C    CA     0.031624       12.0107           0
    3841 SHT  3841 S    C    CA     0.031624       12.0107           0
    3842 SHT  3842 S    C    CA     0.031624       12.0107           0
    3843 SHT  3843 S    C    CA     0.031624       12.0107           0
    3844 SHT  3844 S    C    CA     0.031624       12.0107           0
    3845 SHT  3845 S    C    CA     0.031624       12.0107           0
    3846 SHT  3846 S    C    CA     0.031624       12.0107           0
    3847 SHT  3847 S    C    CA     0.031624       12.0107           0
    3848 SHT  3848 S    C    CA     0.031624       12.0107           0
    3849 SHT  3849 S    C    CA     0.031624       12.0107           0
    3850 SHT  3850 S    C    CA     0.031624       12.0107           0
    3851 SHT  3851 S    C    CA     0.031624       12.0107           0
    3852 SHT  3852 S    C    CA     0.031624       12.0107           0
    3853 SHT  3853 S    C    CA     0.031624       12.0107           0
    3854 SHT  3854 S    C    CA     0.031624       12.0107           0
    3855 SHT  3855 S    C    CA     0.031624       12.0107           0
    3856 SHT  3856 S    C    CA     0.031624       12.0107           0
    3857 SHT  3857 S    C    CA     0.031624       12.0107           0
    3858 SHT  3858 S    C    CA     0.031624       12.0107           0
    3859 SHT  3859 S    C    CA     0.031624       12.0107           0
    3860 SHT  3860 S    C    CA     0.031624       12.0107           0
    3861 SHT  3861 S    C    CA     0.031624       12.0107           0
    3862 SHT  3862 S    C    CA     0.031624       12.0107           0
    3863 SHT  3863 S    C    CA     0.031624       12.0107           0
    3864 SHT  3864 S    C    CA     0.031624       12.0107           0
    3865 SHT  3865 S    C    CA     0.031624       12.0107           0
    3866 SHT  3866 S    C    CA     0.031624       12.0107           0
    3867 SHT  3867 S    C    CA     0.031624       12.0107           0
    3868 SHT  3868 S    C    CA     0.031624       12.0107           0
    3869 SHT  3869 S    C    CA     0.031624       12.0107           0
    3870 SHT  3870 S    C    CA     0.031624       12.0107           0
    3871 SHT  3871 S    C    CA     0.031624       12.0107           0
    3872 SHT  3872 S    C    CA     0.031624       12.0107           0
    3873 SHT  3873 S    C    CA     0.031624       12.0107           0
    3874 SHT  3874 S    C    CA     0.031624       12.0107           0
    3875 SHT  3875 S    C    CA     0.031624       12.0107           0
    3876 SHT  3876 S    C    CA     0.031624       12.0107           0
    3877 SHT  3877 S    C    CA     0.031624       12.0107           0
    3878 SHT  3878 S    C    CA     0.031624       12.0107           0
    3879 SHT  3879 S    C    CA     0.031624       12.0107           0
    3880 SHT  3880 S    C    CA     0.031624       12.0107           0
    3881 SHT  3881 S    C    CA     0.031624       12.0107           0
    3882 SHT  3882 S    C    CA     0.031624       12.0107           0
    3883 SHT  3883 S    C    CA     0.031624       12.0107           0
    3884 SHT  3884 S    C    CA     0.031624       12.0107           0
    3885 SHT  3885 S    C    CA     0.031624       12.0107           0
    3886 SHT  3886 S    C    CA     0.031624       12.0107           0
    3887 SHT  3887 S    C    CA     0.031624       12.0107           0
    3888 SHT  3888 S    C    CA     0.031624       12.0107           0
    3889 SHT  3889 S    C    CA     0.031624       12.0107           0
    3890 SHT  3890 S    C    CA     0.031624       12.0107           0
    3891 SHT  3891 S    C    CA     0.031624       12.0107           0
    3892 SHT  3892 S    C    CA     0.031624       12.0107           0
    3893 SHT  3893 S    C    CA     0.031624       12.0107           0
    3894 SHT  3894 S    C    CA     0.031624       12.0107           0
    3895 SHT  3895 S    C    CA     0.031624       12.0107           0
    3896 SHT  3896 S    C    CA     0.031624       12.0107           0
    3897 SHT  3897 S    C    CA     0.031624       12.0107           0
    3898 SHT  3898 S    C    CA     0.031624       12.0107           0
    3899 SHT  3899 S    C    CA     0.031624       12.0107           0
    3900 SHT  3900 S    C    CA     0.031624       12.0107           0
    3901 SHT  3901 S    C    CA     0.031624       12.0107           0
    3902 SHT  3902 S    C    CA     0.031624       12.0107           0
    3903 SHT  3903 S    C    CA     0.031624       12.0107           0
    3904 SHT  3904 S    C    CA     0.031624       12.0107           0
    3905 SHT  3905 S    C    CA     0.031624       12.0107           0
    3906 SHT  3906 S    C    CA     0.031624       12.0107           0
    3907 SHT  3907 S    C    CA     0.031624       12.0107           0
    3908 SHT  3908 S    C    CA     0.031624       12.0107           0
    3909 SHT  3909 S    C    CA     0.031624       12.0107           0
    3910 SHT  3910 S    C    CA     0.031624       12.0107           0
    3911 SHT  3911 S    C    CA     0.031624       12.0107           0
    3912 SHT  3912 S    C    CA     0.031624       12.0107           0
    3913 SHT  3913 S    C    CA     0.031624       12.0107           0
    3914 SHT  3914 S    C    CA     0.031624       12.0107           0
    3915 SHT  3915 S    C    CA     0.031624       12.0107           0
    3916 SHT  3916 S    C    CA     0.031624       12.0107           0
    3917 SHT  3917 S    C    CA     0.031624       12.0107           0
    3918 SHT  3918 S    C    CA     0.031624       12.0107           0
    3919 SHT  3919 S    C    CA     0.031624       12.0107           0
    3920 SHT  3920 S    C    CA     0.031624       12.0107           0
    3921 SHT  3921 S    C    CA     0.031624       12.0107           0
    3922 SHT  3922 S    C    CA     0.031624       12.0107           0
    3923 SHT  3923 S    C    CA     0.031624       12.0107           0
    3924 SHT  3924 S    C    CA     0.031624       12.0107           0
    3925 SHT  3925 S    C    CA     0.031624       12.0107           0
    3926 SHT  3926 S    C    CA     0.031624       12.0107           0
    3927 SHT  3927 S    C    CA     0.031624       12.0107           0
    3928 SHT  3928 S    C    CA     0.031624       12.0107           0
    3929 SHT  3929 S    C    CA     0.031624       12.0107           0
    3930 SHT  3930 S    C    CA     0.031624       12.0107           0
    3931 SHT  3931 S    C    CA     0.031624       12.0107           0
    3932 SHT  3932 S    C    CA     0.031624       12.0107           0
    3933 SHT  3933 S    C    CA     0.031624       12.0107           0
    3934 SHT  3934 S    C    CA     0.031624       12.0107           0
    3935 SHT  3935 S    C    CA     0.031624       12.0107           0
    3936 SHT  3936 S    C    CA     0.031624       12.0107           0
    3937 SHT  3937 S    C    CA     0.031624       12.0107           0
    3938 SHT  3938 S    C    CA     0.031624       12.0107           0
    3939 SHT  3939 S    C    CA     0.031624       12.0107           0
    3940 SHT  3940 S    C    CA     0.031624       12.0107           0
    3941 SHT  3941 S    C    CA     0.031624       12.0107           0
    3942 SHT  3942 S    C    CA     0.031624       12.0107           0
    3943 SHT  3943 S    C    CA     0.031624       12.0107           0
    3944 SHT  3944 S    C    CA     0.031624       12.0107           0
    3945 SHT  3945 S    C    CA     0.031624       12.0107           0
    3946 SHT  3946 S    C    CA     0.031624       12.0107           0
    3947 SHT  3947 S    C    CA     0.031624       12.0107           0
    3948 SHT  3948 S    C    CA     0.031624       12.0107           0
    3949 SHT  3949 S    C    CA     0.031624       12.0107           0
    3950 SHT  3950 S    C    CA     0.031624       12.0107           0
    3951 SHT  3951 S    C    CA     0.031624       12.0107           0
    3952 SHT  3952 S    C    CA     0.031624       12.0107           0
    3953 SHT  3953 S    C    CA     0.031624       12.0107           0
    3954 SHT  3954 S    C    CA     0.031624       12.0107           0
    3955 SHT  3955 S    C    CA     0.031624       12.0107           0
    3956 SHT  3956 S    C    CA     0.031624       12.0107           0
    3957 SHT  3957 S    C    CA     0.031624       12.0107           0
    3958 SHT  3958 S    C    CA     0.031624       12.0107           0
    3959 SHT  3959 S    C    CA     0.031624       12.0107           0
    3960 SHT  3960 S    C    CA     0.031624       12.0107           0
    3961 SHT  3961 S    C    CA     0.031624       12.0107           0
    3962 SHT  3962 S    C    CA     0.031624       12.0107           0
    3963 SHT  3963 S    C    CA     0.031624       12.0107           0
    3964 SHT  3964 S    C    CA     0.031624       12.0107           0
    3965 SHT  3965 S    C    CA     0.031624       12.0107           0
    3966 SHT  3966 S    C    CA     0.031624       12.0107           0
    3967 SHT  3967 S    C    CA     0.031624       12.0107           0
    3968 SHT  3968 S    C    CA     0.031624       12.0107           0
    3969 SHT  3969 S    C    CA     0.031624       12.0107           0
    3970 SHT  3970 S    C    CA     0.031624       12.0107           0
    3971 SHT  3971 S    C    CA     0.031624       12.0107           0
    3972 SHT  3972 S    C    CA     0.031624       12.0107           0
    3973 SHT  3973 S    C    CA     0.031624       12.0107           0
    3974 SHT  3974 S    C    CA     0.031624       12.0107           0
    3975 SHT  3975 S    C    CA     0.031624       12.0107           0
    3976 SHT  3976 S    C    CA     0.031624       12.0107           0
    3977 SHT  3977 S    C    CA     0.031624       12.0107           0
    3978 SHT  3978 S    C    CA     0.031624       12.0107           0
    3979 SHT  3979 S    C    CA     0.031624       12.0107           0
    3980 SHT  3980 S    C    CA     0.031624       12.0107           0
    3981 SHT  3981 S    C    CA     0.031624       12.0107           0
    3982 SHT  3982 S    C    CA     0.031624       12.0107           0
    3983 SHT  3983 S    C    CA     0.031624       12.0107           0
    3984 SHT  3984 S    C    CA     0.031624       12.0107           0
    3985 SHT  3985 S    C    CA     0.031624       12.0107           0
    3986 SHT  3986 S    C    CA     0.031624       12.0107           0
    3987 SHT  3987 S    C    CA     0.031624       12.0107           0
    3988 SHT  3988 S    C    CA     0.031624       12.0107           0
    3989 SHT  3989 S    C    CA     0.031624       12.0107           0
    3990 SHT  3990 S    C    CA     0.031624       12.0107           0
    3991 SHT  3991 S    C    CA     0.031624       12.0107           0
    3992 SHT  3992 S    C    CA     0.031624       12.0107           0
    3993 SHT  3993 S    C    CA     0.031624       12.0107           0
    3994 SHT  3994 S    C    CA     0.031624       12.0107           0
    3995 SHT  3995 S    C    CA     0.031624       12.0107           0
    3996 SHT  3996 S    C    CA     0.031624       12.0107           0
    3997 SHT  3997 S    C    CA     0.031624       12.0107           0
    3998 SHT  3998 S    C    CA     0.031624       12.0107           0
    3999 SHT  3999 S    C    CA     0.031624       12.0107           0
    4000 SHT  4000 S    C    CA     0.031624       12.0107           0
    4001 SHT  4001 S    C    CA     0.031624       12.0107           0
    4002 SHT  4002 S    C    CA     0.031624       12.0107           0
    4003 SHT  4003 S    C    CA     0.031624       12.0107           0
    4004 SHT  4004 S    C    CA     0.031624       12.0107           0
    4005 SHT  4005 S    C    CA     0.031624       12.0107           0
    4006 SHT  4006 S    C    CA     0.031624       12.0107           0
    4007 SHT  4007 S    C    CA     0.031624       12.0107           0
    4008 SHT  4008 S    C    CA     0.031624       12.0107           0
    4009 SHT  4009 S    C    CA     0.031624       12.0107           0
    4010 SHT  4010 S    C    CA     0.031624       12.0107           0
    4011 SHT  4011 S    C    CA     0.031624       12.0107           0
    4012 SHT  4012 S    C    CA     0.031624       12.0107           0
    4013 SHT  4013 S    C    CA     0.031624       12.0107           0
    4014 SHT  4014 S    C    CA     0.031624       12.0107           0
    4015 SHT  4015 S    C    CA     0.031624       12.0107           0
    4016 SHT  4016 S    C    CA     0.031624       12.0107           0
    4017 SHT  4017 S    C    CA     0.031624       12.0107           0
    4018 SHT  4018 S    C    CA     0.031624       12.0107           0
    4019 SHT  4019 S    C    CA     0.031624       12.0107           0
    4020 SHT  4020 S    C    CA     0.031624       12.0107           0
    4021 SHT  4021 S    C    CA     0.031624       12.0107           0
    4022 SHT  4022 S    C    CA     0.031624       12.0107           0
    4023 SHT  4023 S    C    CA     0.031624       12.0107           0
    4024 SHT  4024 S    C    CA     0.031624       12.0107           0
    4025 SHT  4025 S    C    CA     0.031624       12.0107           0
    4026 SHT  4026 S    C    CA     0.031624       12.0107           0
    4027 SHT  4027 S    C    CA     0.031624       12.0107           0
    4028 SHT  4028 S    C    CA     0.031624       12.0107           0
    4029 SHT  4029 S    C    CA     0.031624       12.0107           0
    4030 SHT  4030 S    C    CA     0.031624       12.0107           0
    4031 SHT  4031 S    C    CA     0.031624       12.0107           0
    4032 SHT  4032 S    C    CA     0.031624       12.0107           0
    4033 SHT  4033 S    C    CA     0.031624       12.0107           0
    4034 SHT  4034 S    C    CA     0.031624       12.0107           0
    4035 SHT  4035 S    C    CA     0.031624       12.0107           0
    4036 SHT  4036 S    C    CA     0.031624       12.0107           0
    4037 SHT  4037 S    C    CA     0.031624       12.0107           0
    4038 SHT  4038 S    C    CA     0.031624       12.0107           0
    4039 SHT  4039 S    C    CA     0.031624       12.0107           0
    4040 SHT  4040 S    C    CA     0.031624       12.0107           0
    4041 SHT  4041 S    C    CA     0.031624       12.0107           0
    4042 SHT  4042 S    C    CA     0.031624       12.0107           0
    4043 SHT  4043 S    C    CA     0.031624       12.0107           0
    4044 SHT  4044 S    C    CA     0.031624       12.0107           0
    4045 SHT  4045 S    C    CA     0.031624       12.0107           0
    4046 SHT  4046 S    C    CA     0.031624       12.0107           0
    4047 SHT  4047 S    C    CA     0.031624       12.0107           0
    4048 SHT  4048 S    C    CA     0.031624       12.0107           0
    4049 SHT  4049 S    C    CA     0.031624       12.0107           0
    4050 SHT  4050 S    C    CA     0.031624       12.0107           0
    4051 SHT  4051 S    C    CA     0.031624       12.0107           0
    4052 SHT  4052 S    C    CA     0.031624       12.0107           0
    4053 SHT  4053 S    C    CA     0.031624       12.0107           0
    4054 SHT  4054 S    C    CA     0.031624       12.0107           0
    4055 SHT  4055 S    C    CA     0.031624       12.0107           0
    4056 SHT  4056 S    C    CA     0.031624       12.0107           0
    4057 SHT  4057 S    C    CA     0.031624       12.0107           0
    4058 SHT  4058 S    C    CA     0.031624       12.0107           0
    4059 SHT  4059 S    C    CA     0.031624       12.0107           0
    4060 SHT  4060 S    C    CA     0.031624       12.0107           0
    4061 SHT  4061 S    C    CA     0.031624       12.0107           0
    4062 SHT  4062 S    C    CA     0.031624       12.0107           0
    4063 SHT  4063 S    C    CA     0.031624       12.0107           0
    4064 SHT  4064 S    C    CA     0.031624       12.0107           0
    4065 SHT  4065 S    C    CA     0.031624       12.0107           0
    4066 SHT  4066 S    C    CA     0.031624       12.0107           0
    4067 SHT  4067 S    C    CA     0.031624       12.0107           0
    4068 SHT  4068 S    C    CA     0.031624       12.0107           0
    4069 SHT  4069 S    C    CA     0.031624       12.0107           0
    4070 SHT  4070 S    C    CA     0.031624       12.0107           0
    4071 SHT  4071 S    C    CA     0.031624       12.0107           0
    4072 SHT  4072 S    C    CA     0.031624       12.0107           0
    4073 SHT  4073 S    C    CA     0.031624       12.0107           0
    4074 SHT  4074 S    C    CA     0.031624       12.0107           0
    4075 SHT  4075 S    C    CA     0.031624       12.0107           0
    4076 SHT  4076 S    C    CA     0.031624       12.0107           0
    4077 SHT  4077 S    C    CA     0.031624       12.0107           0
    4078 SHT  4078 S    C    CA     0.031624       12.0107           0
    4079 SHT  4079 S    C    CA     0.031624       12.0107           0
    4080 SHT  4080 S    C    CA     0.031624       12.0107           0
    4081 SHT  4081 S    C    CA     0.031624       12.0107           0
    4082 SHT  4082 S    C    CA     0.031624       12.0107           0
    4083 SHT  4083 S    C    CA     0.031624       12.0107           0
    4084 SHT  4084 S    C    CA     0.031624       12.0107           0
    4085 SHT  4085 S    C    CA     0.031624       12.0107           0
    4086 SHT  4086 S    C    CA     0.031624       12.0107           0
    4087 SHT  4087 S    C    CA     0.031624       12.0107           0
    4088 SHT  4088 S    C    CA     0.031624       12.0107           0
    4089 SHT  4089 S    C    CA     0.031624       12.0107           0
    4090 SHT  4090 S    C    CA     0.031624       12.0107           0
    4091 SHT  4091 S    C    CA     0.031624       12.0107           0
    4092 SHT  4092 S    C    CA     0.031624       12.0107           0
    4093 SHT  4093 S    C    CA     0.031624       12.0107           0
    4094 SHT  4094 S    C    CA     0.031624       12.0107           0
    4095 SHT  4095 S    C    CA     0.031624       12.0107           0
    4096 SHT  4096 S    C    CA     0.031624       12.0107           0
    4097 SHT  4097 S    C    CA     0.031624       12.0107           0
    4098 SHT  4098 S    C    CA     0.031624       12.0107           0
    4099 SHT  4099 S    C    CA     0.031624       12.0107           0
    4100 SHT  4100 S    C    CA     0.031624       12.0107           0
    4101 SHT  4101 S    C    CA     0.031624       12.0107           0
    4102 SHT  4102 S    C    CA     0.031624       12.0107           0
    4103 SHT  4103 S    C    CA     0.031624       12.0107           0
    4104 SHT  4104 S    C    CA     0.031624       12.0107           0
    4105 SHT  4105 S    C    CA     0.031624       12.0107           0
    4106 SHT  4106 S    C    CA     0.031624       12.0107           0
    4107 SHT  4107 S    C    CA     0.031624       12.0107           0
    4108 SHT  4108 S    C    CA     0.031624       12.0107           0
    4109 SHT  4109 S    C    CA     0.031624       12.0107           0
    4110 SHT  4110 S    C    CA     0.031624       12.0107           0
    4111 SHT  4111 S    C    CA     0.031624       12.0107           0
    4112 SHT  4112 S    C    CA     0.031624       12.0107           0
    4113 SHT  4113 S    C    CA     0.031624       12.0107           0
    4114 SHT  4114 S    C    CA     0.031624       12.0107           0
    4115 SHT  4115 S    C    CA     0.031624       12.0107           0
    4116 SHT  4116 S    C    CA     0.031624       12.0107           0
    4117 SHT  4117 S    C    CA     0.031624       12.0107           0
    4118 SHT  4118 S    C    CA     0.031624       12.0107           0
    4119 SHT  4119 S    C    CA     0.031624       12.0107           0
    4120 SHT  4120 S    C    CA     0.031624       12.0107           0
    4121 SHT  4121 S    C    CA     0.031624       12.0107           0
    4122 SHT  4122 S    C    CA     0.031624       12.0107           0
    4123 SHT  4123 S    C    CA     0.031624       12.0107           0
    4124 SHT  4124 S    C    CA     0.031624       12.0107           0
    4125 SHT  4125 S    C    CA     0.031624       12.0107           0
    4126 SHT  4126 S    C    CA     0.031624       12.0107           0
    4127 SHT  4127 S    C    CA     0.031624       12.0107           0
    4128 SHT  4128 S    C    CA     0.031624       12.0107           0
    4129 SHT  4129 S    C    CA     0.031624       12.0107           0
    4130 SHT  4130 S    C    CA     0.031624       12.0107           0
    4131 SHT  4131 S    C    CA     0.031624       12.0107           0
    4132 SHT  4132 S    C    CA     0.031624       12.0107           0
    4133 SHT  4133 S    C    CA     0.031624       12.0107           0
    4134 SHT  4134 S    C    CA     0.031624       12.0107           0
    4135 SHT  4135 S    C    CA     0.031624       12.0107           0
    4136 SHT  4136 S    C    CA     0.031624       12.0107           0
    4137 SHT  4137 S    C    CA     0.031624       12.0107           0
    4138 SHT  4138 S    C    CA     0.031624       12.0107           0
    4139 SHT  4139 S    C    CA     0.031624       12.0107           0
    4140 SHT  4140 S    C    CA     0.031624       12.0107           0
    4141 SHT  4141 S    C    CA     0.031624       12.0107           0
    4142 SHT  4142 S    C    CA     0.031624       12.0107           0
    4143 SHT  4143 S    C    CA     0.031624       12.0107           0
    4144 SHT  4144 S    C    CA     0.031624       12.0107           0
    4145 SHT  4145 S    C    CA     0.031624       12.0107           0
    4146 SHT  4146 S    C    CA     0.031624       12.0107           0
    4147 SHT  4147 S    C    CA     0.031624       12.0107           0
    4148 SHT  4148 S    C    CA     0.031624       12.0107           0
    4149 SHT  4149 S    C    CA     0.031624       12.0107           0
    4150 SHT  4150 S    C    CA     0.031624       12.0107           0
    4151 SHT  4151 S    C    CA     0.031624       12.0107           0
    4152 SHT  4152 S    C    CA     0.031624       12.0107           0
    4153 SHT  4153 S    C    CA     0.031624       12.0107           0
    4154 SHT  4154 S    C    CA     0.031624       12.0107           0
    4155 SHT  4155 S    C    CA     0.031624       12.0107           0
    4156 SHT  4156 S    C    CA     0.031624       12.0107           0
    4157 SHT  4157 S    C    CA     0.031624       12.0107           0
    4158 SHT  4158 S    C    CA     0.031624       12.0107           0
    4159 SHT  4159 S    C    CA     0.031624       12.0107           0
    4160 SHT  4160 S    C    CA     0.031624       12.0107           0
    4161 SHT  4161 S    C    CA     0.031624       12.0107           0
    4162 SHT  4162 S    C    CA     0.031624       12.0107           0
    4163 SHT  4163 S    C    CA     0.031624       12.0107           0
    4164 SHT  4164 S    C    CA     0.031624       12.0107           0
    4165 SHT  4165 S    C    CA     0.031624       12.0107           0
    4166 SHT  4166 S    C    CA     0.031624       12.0107           0
    4167 SHT  4167 S    C    CA     0.031624       12.0107           0
    4168 SHT  4168 S    C    CA     0.031624       12.0107           0
    4169 SHT  4169 S    C    CA     0.031624       12.0107           0
    4170 SHT  4170 S    C    CA     0.031624       12.0107           0
    4171 SHT  4171 S    C    CA     0.031624       12.0107           0
    4172 SHT  4172 S    C    CA     0.031624       12.0107           0
    4173 SHT  4173 S    C    CA     0.031624       12.0107           0
    4174 SHT  4174 S    C    CA     0.031624       12.0107           0
    4175 SHT  4175 S    C    CA     0.031624       12.0107           0
    4176 SHT  4176 S    C    CA     0.031624       12.0107           0
    4177 SHT  4177 S    C    CA     0.031624       12.0107           0
    4178 SHT  4178 S    C    CA     0.031624       12.0107           0
    4179 SHT  4179 S    C    CA     0.031624       12.0107           0
    4180 SHT  4180 S    C    CA     0.031624       12.0107           0
    4181 SHT  4181 S    C    CA     0.031624       12.0107           0
    4182 SHT  4182 S    C    CA     0.031624       12.0107           0
    4183 SHT  4183 S    C    CA     0.031624       12.0107           0
    4184 SHT  4184 S    C    CA     0.031624       12.0107           0
    4185 SHT  4185 S    C    CA     0.031624       12.0107           0
    4186 SHT  4186 S    C    CA     0.031624       12.0107           0
    4187 SHT  4187 S    C    CA     0.031624       12.0107           0
    4188 SHT  4188 S    C    CA     0.031624       12.0107           0
    4189 SHT  4189 S    C    CA     0.031624       12.0107           0
    4190 SHT  4190 S    C    CA     0.031624       12.0107           0
    4191 SHT  4191 S    C    CA     0.031624       12.0107           0
    4192 SHT  4192 S    C    CA     0.031624       12.0107           0
    4193 SHT  4193 S    C    CA     0.031624       12.0107           0
    4194 SHT  4194 S    C    CA     0.031624       12.0107           0
    4195 SHT  4195 S    C    CA     0.031624       12.0107           0
    4196 SHT  4196 S    C    CA     0.031624       12.0107           0
    4197 SHT  4197 S    C    CA     0.031624       12.0107           0
    4198 SHT  4198 S    C    CA     0.031624       12.0107           0
    4199 SHT  4199 S    C    CA     0.031624       12.0107           0
    4200 SHT  4200 S    C    CA     0.031624       12.0107           0
    4201 SHT  4201 S    C    CA     0.031624       12.0107           0
    4202 SHT  4202 S    C    CA     0.031624       12.0107           0
    4203 SHT  4203 S    C    CA     0.031624       12.0107           0
    4204 SHT  4204 S    C    CA     0.031624       12.0107           0
    4205 SHT  4205 S    C    CA     0.031624       12.0107           0
    4206 SHT  4206 S    C    CA     0.031624       12.0107           0
    4207 SHT  4207 S    C    CA     0.031624       12.0107           0
    4208 SHT  4208 S    C    CA     0.031624       12.0107           0
    4209 SHT  4209 S    C    CA     0.031624       12.0107           0
    4210 SHT  4210 S    C    CA     0.031624       12.0107           0
    4211 SHT  4211 S    C    CA     0.031624       12.0107           0
    4212 SHT  4212 S    C    CA     0.031624       12.0107           0
    4213 SHT  4213 S    C    CA     0.031624       12.0107           0
    4214 SHT  4214 S    C    CA     0.031624       12.0107           0
    4215 SHT  4215 S    C    CA     0.031624       12.0107           0
    4216 SHT  4216 S    C    CA     0.031624       12.0107           0
    4217 SHT  4217 S    C    CA     0.031624       12.0107           0
    4218 SHT  4218 S    C    CA     0.031624       12.0107           0
    4219 SHT  4219 S    C    CA     0.031624       12.0107           0
    4220 SHT  4220 S    C    CA     0.031624       12.0107           0
    4221 SHT  4221 S    C    CA     0.031624       12.0107           0
    4222 SHT  4222 S    C    CA     0.031624       12.0107           0
    4223 SHT  4223 S    C    CA     0.031624       12.0107           0
    4224 SHT  4224 S    C    CA     0.031624       12.0107           0
    4225 SHT  4225 S    C    CA     0.031624       12.0107           0
    4226 SHT  4226 S    C    CA     0.031624       12.0107           0
    4227 SHT  4227 S    C    CA     0.031624       12.0107           0
    4228 SHT  4228 S    C    CA     0.031624       12.0107           0
    4229 SHT  4229 S    C    CA     0.031624       12.0107           0
    4230 SHT  4230 S    C    CA     0.031624       12.0107           0
    4231 SHT  4231 S    C    CA     0.031624       12.0107           0
    4232 SHT  4232 S    C    CA     0.031624       12.0107           0
    4233 SHT  4233 S    C    CA     0.031624       12.0107           0
    4234 SHT  4234 S    C    CA     0.031624       12.0107           0
    4235 SHT  4235 S    C    CA     0.031624       12.0107           0
    4236 SHT  4236 S    C    CA     0.031624       12.0107           0
    4237 SHT  4237 S    C    CA     0.031624       12.0107           0
    4238 SHT  4238 S    C    CA     0.031624       12.0107           0
    4239 SHT  4239 S    C    CA     0.031624       12.0107           0
    4240 SHT  4240 S    C    CA     0.031624       12.0107           0
    4241 SHT  4241 S    C    CA     0.031624       12.0107           0
    4242 SHT  4242 S    C    CA     0.031624       12.0107           0
    4243 SHT  4243 S    C    CA     0.031624       12.0107           0
    4244 SHT  4244 S    C    CA     0.031624       12.0107           0
    4245 SHT  4245 S    C    CA     0.031624       12.0107           0
    4246 SHT  4246 S    C    CA     0.031624       12.0107           0
    4247 SHT  4247 S    C    CA     0.031624       12.0107           0
    4248 SHT  4248 S    C    CA     0.031624       12.0107           0
    4249 SHT  4249 S    C    CA     0.031624       12.0107           0
    4250 SHT  4250 S    C    CA     0.031624       12.0107           0
    4251 SHT  4251 S    C    CA     0.031624       12.0107           0
    4252 SHT  4252 S    C    CA     0.031624       12.0107           0
    4253 SHT  4253 S    C    CA     0.031624       12.0107           0
    4254 SHT  4254 S    C    CA     0.031624       12.0107           0
    4255 SHT  4255 S    C    CA     0.031624       12.0107           0
    4256 SHT  4256 S    C    CA     0.031624       12.0107           0
    4257 SHT  4257 S    C    CA     0.031624       12.0107           0
    4258 SHT  4258 S    C    CA     0.031624       12.0107           0
    4259 SHT  4259 S    C    CA     0.031624       12.0107           0
    4260 SHT  4260 S    C    CA     0.031624       12.0107           0
    4261 SHT  4261 S    C    CA     0.031624       12.0107           0
    4262 SHT  4262 S    C    CA     0.031624       12.0107           0
    4263 SHT  4263 S    C    CA     0.031624       12.0107           0
    4264 SHT  4264 S    C    CA     0.031624       12.0107           0
    4265 SHT  4265 S    C    CA     0.031624       12.0107           0
    4266 SHT  4266 S    C    CA     0.031624       12.0107           0
    4267 SHT  4267 S    C    CA     0.031624       12.0107           0
    4268 SHT  4268 S    C    CA     0.031624       12.0107           0
    4269 SHT  4269 S    C    CA     0.031624       12.0107           0
    4270 SHT  4270 S    C    CA     0.031624       12.0107           0
    4271 SHT  4271 S    C    CA     0.031624       12.0107           0
    4272 SHT  4272 S    C    CA     0.031624       12.0107           0
    4273 SHT  4273 S    C    CA     0.031624       12.0107           0
    4274 SHT  4274 S    C    CA     0.031624       12.0107           0
    4275 SHT  4275 S    C    CA     0.031624       12.0107           0
    4276 SHT  4276 S    C    CA     0.031624       12.0107           0
    4277 SHT  4277 S    C    CA     0.031624       12.0107           0
    4278 SHT  4278 S    C    CA     0.031624       12.0107           0
    4279 SHT  4279 S    C    CA     0.031624       12.0107           0
    4280 SHT  4280 S    C    CA     0.031624       12.0107           0
    4281 SHT  4281 S    C    CA     0.031624       12.0107           0
    4282 SHT  4282 S    C    CA     0.031624       12.0107           0
    4283 SHT  4283 S    C    CA     0.031624       12.0107           0
    4284 SHT  4284 S    C    CA     0.031624       12.0107           0
    4285 SHT  4285 S    C    CA     0.031624       12.0107           0
    4286 SHT  4286 S    C    CA     0.031624       12.0107           0
    4287 SHT  4287 S    C    CA     0.031624       12.0107           0
    4288 SHT  4288 S    C    CA     0.031624       12.0107           0
    4289 SHT  4289 S    C    CA     0.031624       12.0107           0
    4290 SHT  4290 S    C    CA     0.031624       12.0107           0
    4291 SHT  4291 S    C    CA     0.031624       12.0107           0
    4292 SHT  4292 S    C    CA     0.031624       12.0107           0
    4293 SHT  4293 S    C    CA     0.031624       12.0107           0
    4294 SHT  4294 S    C    CA     0.031624       12.0107           0
    4295 SHT  4295 S    C    CA     0.031624       12.0107           0
    4296 SHT  4296 S    C    CA     0.031624       12.0107           0
    4297 SHT  4297 S    C    CA     0.031624       12.0107           0
    4298 SHT  4298 S    C    CA     0.031624       12.0107           0
    4299 SHT  4299 S    C    CA     0.031624       12.0107           0
    4300 SHT  4300 S    C    CA     0.031624       12.0107           0
    4301 SHT  4301 S    C    CA     0.031624       12.0107           0
    4302 SHT  4302 S    C    CA     0.031624       12.0107           0
    4303 SHT  4303 S    C    CA     0.031624       12.0107           0
    4304 SHT  4304 S    C    CA     0.031624       12.0107           0
    4305 SHT  4305 S    C    CA     0.031624       12.0107           0
    4306 SHT  4306 S    C    CA     0.031624       12.0107           0
    4307 SHT  4307 S    C    CA     0.031624       12.0107           0
    4308 SHT  4308 S    C    CA     0.031624       12.0107           0
    4309 SHT  4309 S    C    CA     0.031624       12.0107           0
    4310 SHT  4310 S    C    CA     0.031624       12.0107           0
    4311 SHT  4311 S    C    CA     0.031624       12.0107           0
    4312 SHT  4312 S    C    CA     0.031624       12.0107           0
    4313 SHT  4313 S    C    CA     0.031624       12.0107           0
    4314 SHT  4314 S    C    CA     0.031624       12.0107           0
    4315 SHT  4315 S    C    CA     0.031624       12.0107           0
    4316 SHT  4316 S    C    CA     0.031624       12.0107           0
    4317 SHT  4317 S    C    CA     0.031624       12.0107           0
    4318 SHT  4318 S    C    CA     0.031624       12.0107           0
    4319 SHT  4319 S    C    CA     0.031624       12.0107           0
    4320 SHT  4320 S    C    CA     0.031624       12.0107           0
    4321 SHT  4321 S    C    CA     0.031624       12.0107           0
    4322 SHT  4322 S    C    CA     0.031624       12.0107           0
    4323 SHT  4323 S    C    CA     0.031624       12.0107           0
    4324 SHT  4324 S    C    CA     0.031624       12.0107           0
    4325 SHT  4325 S    C    CA     0.031624       12.0107           0
    4326 SHT  4326 S    C    CA     0.031624       12.0107           0
    4327 SHT  4327 S    C    CA     0.031624       12.0107           0
    4328 SHT  4328 S    C    CA     0.031624       12.0107           0
    4329 SHT  4329 S    C    CA     0.031624       12.0107           0
    4330 SHT  4330 S    C    CA     0.031624       12.0107           0
    4331 SHT  4331 S    C    CA     0.031624       12.0107           0
    4332 SHT  4332 S    C    CA     0.031624       12.0107           0
    4333 SHT  4333 S    C    CA     0.031624       12.0107           0
    4334 SHT  4334 S    C    CA     0.031624       12.0107           0
    4335 SHT  4335 S    C    CA     0.031624       12.0107           0
    4336 SHT  4336 S    C    CA     0.031624       12.0107           0
    4337 SHT  4337 S    C    CA     0.031624       12.0107           0
    4338 SHT  4338 S    C    CA     0.031624       12.0107           0
    4339 SHT  4339 S    C    CA     0.031624       12.0107           0
    4340 SHT  4340 S    C    CA     0.031624       12.0107           0
    4341 SHT  4341 S    C    CA     0.031624       12.0107           0
    4342 SHT  4342 S    C    CA     0.031624       12.0107           0
    4343 SHT  4343 S    C    CA     0.031624       12.0107           0
    4344 SHT  4344 S    C    CA     0.031624       12.0107           0
    4345 SHT  4345 S    C    CA     0.031624       12.0107           0
    4346 SHT  4346 S    C    CA     0.031624       12.0107           0
    4347 SHT  4347 S    C    CA     0.031624       12.0107           0
    4348 SHT  4348 S    C    CA     0.031624       12.0107           0
    4349 SHT  4349 S    C    CA     0.031624       12.0107           0
    4350 SHT  4350 S    C    CA     0.031624       12.0107           0
    4351 SHT  4351 S    C    CA     0.031624       12.0107           0
    4352 SHT  4352 S    C    CA     0.031624       12.0107           0
    4353 SHT  4353 S    C    CA     0.031624       12.0107           0
    4354 SHT  4354 S    C    CA     0.031624       12.0107           0
    4355 SHT  4355 S    C    CA     0.031624       12.0107           0
    4356 SHT  4356 S    C    CA     0.031624       12.0107           0
    4357 SHT  4357 S    C    CA     0.031624       12.0107           0
    4358 SHT  4358 S    C    CA     0.031624       12.0107           0
    4359 SHT  4359 S    C    CA     0.031624       12.0107           0
    4360 SHT  4360 S    C    CA     0.031624       12.0107           0
    4361 SHT  4361 S    C    CA     0.031624       12.0107           0
    4362 SHT  4362 S    C    CA     0.031624       12.0107           0
    4363 SHT  4363 S    C    CA     0.031624       12.0107           0
    4364 SHT  4364 S    C    CA     0.031624       12.0107           0
    4365 SHT  4365 S    C    CA     0.031624       12.0107           0
    4366 SHT  4366 S    C    CA     0.031624       12.0107           0
    4367 SHT  4367 S    C    CA     0.031624       12.0107           0
    4368 SHT  4368 S    C    CA     0.031624       12.0107           0
    4369 SHT  4369 S    C    CA     0.031624       12.0107           0
    4370 SHT  4370 S    C    CA     0.031624       12.0107           0
    4371 SHT  4371 S    C    CA     0.031624       12.0107           0
    4372 SHT  4372 S    C    CA     0.031624       12.0107           0
    4373 SHT  4373 S    C    CA     0.031624       12.0107           0
    4374 SHT  4374 S    C    CA     0.031624       12.0107           0
    4375 SHT  4375 S    C    CA     0.031624       12.0107           0
    4376 SHT  4376 S    C    CA     0.031624       12.0107           0
    4377 SHT  4377 S    C    CA     0.031624       12.0107           0
    4378 SHT  4378 S    C    CA     0.031624       12.0107           0
    4379 SHT  4379 S    C    CA     0.031624       12.0107           0
    4380 SHT  4380 S    C    CA     0.031624       12.0107           0
    4381 SHT  4381 S    C    CA     0.031624       12.0107           0
    4382 SHT  4382 S    C    CA     0.031624       12.0107           0
    4383 SHT  4383 S    C    CA     0.031624       12.0107           0
    4384 SHT  4384 S    C    CA     0.031624       12.0107           0
    4385 SHT  4385 S    C    CA     0.031624       12.0107           0
    4386 SHT  4386 S    C    CA     0.031624       12.0107           0
    4387 SHT  4387 S    C    CA     0.031624       12.0107           0
    4388 SHT  4388 S    C    CA     0.031624       12.0107           0
    4389 SHT  4389 S    C    CA     0.031624       12.0107           0
    4390 SHT  4390 S    C    CA     0.031624       12.0107           0
    4391 SHT  4391 S    C    CA     0.031624       12.0107           0
    4392 SHT  4392 S    C    CA     0.031624       12.0107           0
    4393 SHT  4393 S    C    CA     0.031624       12.0107           0
    4394 SHT  4394 S    C    CA     0.031624       12.0107           0
    4395 SHT  4395 S    C    CA     0.031624       12.0107           0
    4396 SHT  4396 S    C    CA     0.031624       12.0107           0
    4397 SHT  4397 S    C    CA     0.031624       12.0107           0
    4398 SHT  4398 S    C    CA     0.031624       12.0107           0
    4399 SHT  4399 S    C    CA     0.031624       12.0107           0
    4400 SHT  4400 S    C    CA     0.031624       12.0107           0
    4401 SHT  4401 S    C    CA     0.031624       12.0107           0
    4402 SHT  4402 S    C    CA     0.031624       12.0107           0
    4403 SHT  4403 S    C    CA     0.031624       12.0107           0
    4404 SHT  4404 S    C    CA     0.031624       12.0107           0
    4405 SHT  4405 S    C    CA     0.031624       12.0107           0
    4406 SHT  4406 S    C    CA     0.031624       12.0107           0
    4407 SHT  4407 S    C    CA     0.031624       12.0107           0
    4408 SHT  4408 S    C    CA     0.031624       12.0107           0
    4409 SHT  4409 S    C    CA     0.031624       12.0107           0
    4410 SHT  4410 S    C    CA     0.031624       12.0107           0
    4411 SHT  4411 S    C    CA     0.031624       12.0107           0
    4412 SHT  4412 S    C    CA     0.031624       12.0107           0
    4413 SHT  4413 S    C    CA     0.031624       12.0107           0
    4414 SHT  4414 S    C    CA     0.031624       12.0107           0
    4415 SHT  4415 S    C    CA     0.031624       12.0107           0
    4416 SHT  4416 S    C    CA     0.031624       12.0107           0
    4417 SHT  4417 S    C    CA     0.031624       12.0107           0
    4418 SHT  4418 S    C    CA     0.031624       12.0107           0
    4419 SHT  4419 S    C    CA     0.031624       12.0107           0
    4420 SHT  4420 S    C    CA     0.031624       12.0107           0
    4421 SHT  4421 S    C    CA     0.031624       12.0107           0
    4422 SHT  4422 S    C    CA     0.031624       12.0107           0
    4423 SHT  4423 S    C    CA     0.031624       12.0107           0
    4424 SHT  4424 S    C    CA     0.031624       12.0107           0
    4425 SHT  4425 S    C    CA     0.031624       12.0107           0
    4426 SHT  4426 S    C    CA     0.031624       12.0107           0
    4427 SHT  4427 S    C    CA     0.031624       12.0107           0
    4428 SHT  4428 S    C    CA     0.031624       12.0107           0
    4429 SHT  4429 S    C    CA     0.031624       12.0107           0
    4430 SHT  4430 S    C    CA     0.031624       12.0107           0
    4431 SHT  4431 S    C    CA     0.031624       12.0107           0
    4432 SHT  4432 S    C    CA     0.031624       12.0107           0
    4433 SHT  4433 S    C    CA     0.031624       12.0107           0
    4434 SHT  4434 S    C    CA     0.031624       12.0107           0
    4435 SHT  4435 S    C    CA     0.031624       12.0107           0
    4436 SHT  4436 S    C    CA     0.031624       12.0107           0
    4437 SHT  4437 S    C    CA     0.031624       12.0107           0
    4438 SHT  4438 S    C    CA     0.031624       12.0107           0
    4439 SHT  4439 S    C    CA     0.031624       12.0107           0
    4440 SHT  4440 S    C    CA     0.031624       12.0107           0
    4441 SHT  4441 S    C    CA     0.031624       12.0107           0
    4442 SHT  4442 S    C    CA     0.031624       12.0107           0
    4443 SHT  4443 S    C    CA     0.031624       12.0107           0
    4444 SHT  4444 S    C    CA     0.031624       12.0107           0
    4445 SHT  4445 S    C    CA     0.031624       12.0107           0
    4446 SHT  4446 S    C    CA     0.031624       12.0107           0
    4447 SHT  4447 S    C    CA     0.031624       12.0107           0
    4448 SHT  4448 S    C    CA     0.031624       12.0107           0
    4449 SHT  4449 S    C    CA     0.031624       12.0107           0
    4450 SHT  4450 S    C    CA     0.031624       12.0107           0
    4451 SHT  4451 S    C    CA     0.031624       12.0107           0
    4452 SHT  4452 S    C    CA     0.031624       12.0107           0
    4453 SHT  4453 S    C    CA     0.031624       12.0107           0
    4454 SHT  4454 S    C    CA     0.031624       12.0107           0
    4455 SHT  4455 S    C    CA     0.031624       12.0107           0
    4456 SHT  4456 S    C    CA     0.031624       12.0107           0
    4457 SHT  4457 S    C    CA     0.031624       12.0107           0
    4458 SHT  4458 S    C    CA     0.031624       12.0107           0
    4459 SHT  4459 S    C    CA     0.031624       12.0107           0
    4460 SHT  4460 S    C    CA     0.031624       12.0107           0
    4461 SHT  4461 S    C    CA     0.031624       12.0107           0
    4462 SHT  4462 S    C    CA     0.031624       12.0107           0
    4463 SHT  4463 S    C    CA     0.031624       12.0107           0
    4464 SHT  4464 S    C    CA     0.031624       12.0107           0
    4465 SHT  4465 S    C    CA     0.031624       12.0107           0
    4466 SHT  4466 S    C    CA     0.031624       12.0107           0
    4467 SHT  4467 S    C    CA     0.031624       12.0107           0
    4468 SHT  4468 S    C    CA     0.031624       12.0107           0
    4469 SHT  4469 S    C    CA     0.031624       12.0107           0
    4470 SHT  4470 S    C    CA     0.031624       12.0107           0
    4471 SHT  4471 S    C    CA     0.031624       12.0107           0
    4472 SHT  4472 S    C    CA     0.031624       12.0107           0
    4473 SHT  4473 S    C    CA     0.031624       12.0107           0
    4474 SHT  4474 S    C    CA     0.031624       12.0107           0
    4475 SHT  4475 S    C    CA     0.031624       12.0107           0
    4476 SHT  4476 S    C    CA     0.031624       12.0107           0
    4477 SHT  4477 S    C    CA     0.031624       12.0107           0
    4478 SHT  4478 S    C    CA     0.031624       12.0107           0
    4479 SHT  4479 S    C    CA     0.031624       12.0107           0
    4480 SHT  4480 S    C    CA     0.031624       12.0107           0
    4481 SHT  4481 S    C    CA     0.031624       12.0107           0
    4482 SHT  4482 S    C    CA     0.031624       12.0107           0
    4483 SHT  4483 S    C    CA     0.031624       12.0107           0
    4484 SHT  4484 S    C    CA     0.031624       12.0107           0
    4485 SHT  4485 S    C    CA     0.031624       12.0107           0
    4486 SHT  4486 S    C    CA     0.031624       12.0107           0
    4487 SHT  4487 S    C    CA     0.031624       12.0107           0
    4488 SHT  4488 S    C    CA     0.031624       12.0107           0
    4489 SHT  4489 S    C    CA     0.031624       12.0107           0
    4490 SHT  4490 S    C    CA     0.031624       12.0107           0
    4491 SHT  4491 S    C    CA     0.031624       12.0107           0
    4492 SHT  4492 S    C    CA     0.031624       12.0107           0
    4493 SHT  4493 S    C    CA     0.031624       12.0107           0
    4494 SHT  4494 S    C    CA     0.031624       12.0107           0
    4495 SHT  4495 S    C    CA     0.031624       12.0107           0
    4496 SHT  4496 S    C    CA     0.031624       12.0107           0
    4497 SHT  4497 S    C    CA     0.031624       12.0107           0
    4498 SHT  4498 S    C    CA     0.031624       12.0107           0
    4499 SHT  4499 S    C    CA     0.031624       12.0107           0
    4500 SHT  4500 S    C    CA     0.031624       12.0107           0
    4501 SHT  4501 S    C    CA     0.031624       12.0107           0
    4502 SHT  4502 S    C    CA     0.031624       12.0107           0
    4503 SHT  4503 S    C    CA     0.031624       12.0107           0
    4504 SHT  4504 S    C    CA     0.031624       12.0107           0
    4505 SHT  4505 S    C    CA     0.031624       12.0107           0
    4506 SHT  4506 S    C    CA     0.031624       12.0107           0
    4507 SHT  4507 S    C    CA     0.031624       12.0107           0
    4508 SHT  4508 S    C    CA     0.031624       12.0107           0
    4509 SHT  4509 S    C    CA     0.031624       12.0107           0
    4510 SHT  4510 S    C    CA     0.031624       12.0107           0
    4511 SHT  4511 S    C    CA     0.031624       12.0107           0
    4512 SHT  4512 S    C    CA     0.031624       12.0107           0
    4513 SHT  4513 S    C    CA     0.031624       12.0107           0
    4514 SHT  4514 S    C    CA     0.031624       12.0107           0
    4515 SHT  4515 S    C    CA     0.031624       12.0107           0
    4516 SHT  4516 S    C    CA     0.031624       12.0107           0
    4517 SHT  4517 S    C    CA     0.031624       12.0107           0
    4518 SHT  4518 S    C    CA     0.031624       12.0107           0
    4519 SHT  4519 S    C    CA     0.031624       12.0107           0
    4520 SHT  4520 S    C    CA     0.031624       12.0107           0
    4521 SHT  4521 S    C    CA     0.031624       12.0107           0
    4522 SHT  4522 S    C    CA     0.031624       12.0107           0
    4523 SHT  4523 S    C    CA     0.031624       12.0107           0
    4524 SHT  4524 S    C    CA     0.031624       12.0107           0
    4525 SHT  4525 S    C    CA     0.031624       12.0107           0
    4526 SHT  4526 S    C    CA     0.031624       12.0107           0
    4527 SHT  4527 S    C    CA     0.031624       12.0107           0
    4528 SHT  4528 S    C    CA     0.031624       12.0107           0
    4529 SHT  4529 S    C    CA     0.031624       12.0107           0
    4530 SHT  4530 S    C    CA     0.031624       12.0107           0
    4531 SHT  4531 S    C    CA     0.031624       12.0107           0
    4532 SHT  4532 S    C    CA     0.031624       12.0107           0
    4533 SHT  4533 S    C    CA     0.031624       12.0107           0
    4534 SHT  4534 S    C    CA     0.031624       12.0107           0
    4535 SHT  4535 S    C    CA     0.031624       12.0107           0
    4536 SHT  4536 S    C    CA     0.031624       12.0107           0
    4537 SHT  4537 S    C    CA     0.031624       12.0107           0
    4538 SHT  4538 S    C    CA     0.031624       12.0107           0
    4539 SHT  4539 S    C    CA     0.031624       12.0107           0
    4540 SHT  4540 S    C    CA     0.031624       12.0107           0
    4541 SHT  4541 S    C    CA     0.031624       12.0107           0
    4542 SHT  4542 S    C    CA     0.031624       12.0107           0
    4543 SHT  4543 S    C    CA     0.031624       12.0107           0
    4544 SHT  4544 S    C    CA     0.031624       12.0107           0
    4545 SHT  4545 S    C    CA     0.031624       12.0107           0
    4546 SHT  4546 S    C    CA     0.031624       12.0107           0
    4547 SHT  4547 S    C    CA     0.031624       12.0107           0
    4548 SHT  4548 S    C    CA     0.031624       12.0107           0
    4549 SHT  4549 S    C    CA     0.031624       12.0107           0
    4550 SHT  4550 S    C    CA     0.031624       12.0107           0
    4551 SHT  4551 S    C    CA     0.031624       12.0107           0
    4552 SHT  4552 S    C    CA     0.031624       12.0107           0
    4553 SHT  4553 S    C    CA     0.031624       12.0107           0
    4554 SHT  4554 S    C    CA     0.031624       12.0107           0
    4555 SHT  4555 S    C    CA     0.031624       12.0107           0
    4556 SHT  4556 S    C    CA     0.031624       12.0107           0
    4557 SHT  4557 S    C    CA     0.031624       12.0107           0
    4558 SHT  4558 S    C    CA     0.031624       12.0107           0
    4559 SHT  4559 S    C    CA     0.031624       12.0107           0
    4560 SHT  4560 S    C    CA     0.031624       12.0107           0
    4561 SHT  4561 S    C    CA     0.031624       12.0107           0
    4562 SHT  4562 S    C    CA     0.031624       12.0107           0
    4563 SHT  4563 S    C    CA     0.031624       12.0107           0
    4564 SHT  4564 S    C    CA     0.031624       12.0107           0
    4565 SHT  4565 S    C    CA     0.031624       12.0107           0
    4566 SHT  4566 S    C    CA     0.031624       12.0107           0
    4567 SHT  4567 S    C    CA     0.031624       12.0107           0
    4568 SHT  4568 S    C    CA     0.031624       12.0107           0
    4569 SHT  4569 S    C    CA     0.031624       12.0107           0
    4570 SHT  4570 S    C    CA     0.031624       12.0107           0
    4571 SHT  4571 S    C    CA     0.031624       12.0107           0
    4572 SHT  4572 S    C    CA     0.031624       12.0107           0
    4573 SHT  4573 S    C    CA     0.031624       12.0107           0
    4574 SHT  4574 S    C    CA     0.031624       12.0107           0
    4575 SHT  4575 S    C    CA     0.031624       12.0107           0
    4576 SHT  4576 S    C    CA     0.031624       12.0107           0
    4577 SHT  4577 S    C    CA     0.031624       12.0107           0
    4578 SHT  4578 S    C    CA     0.031624       12.0107           0
    4579 SHT  4579 S    C    CA     0.031624       12.0107           0
    4580 SHT  4580 S    C    CA     0.031624       12.0107           0
    4581 SHT  4581 S    C    CA     0.031624       12.0107           0
    4582 SHT  4582 S    C    CA     0.031624       12.0107           0
    4583 SHT  4583 S    C    CA     0.031624       12.0107           0
    4584 SHT  4584 S    C    CA     0.031624       12.0107           0
    4585 SHT  4585 S    C    CA     0.031624       12.0107           0
    4586 SHT  4586 S    C    CA     0.031624       12.0107           0
    4587 SHT  4587 S    C    CA     0.031624       12.0107           0
    4588 SHT  4588 S    C    CA     0.031624       12.0107           0
    4589 SHT  4589 S    C    CA     0.031624       12.0107           0
    4590 SHT  4590 S    C    CA     0.031624       12.0107           0
    4591 SHT  4591 S    C    CA     0.031624       12.0107           0
    4592 SHT  4592 S    C    CA     0.031624       12.0107           0
    4593 SHT  4593 S    C    CA     0.031624       12.0107           0
    4594 SHT  4594 S    C    CA     0.031624       12.0107           0
    4595 SHT  4595 S    C    CA     0.031624       12.0107           0
    4596 SHT  4596 S    C    CA     0.031624       12.0107           0
    4597 SHT  4597 S    C    CA     0.031624       12.0107           0
    4598 SHT  4598 S    C    CA     0.031624       12.0107           0
    4599 SHT  4599 S    C    CA     0.031624       12.0107           0
    4600 SHT  4600 S    C    CA     0.031624       12.0107           0
    4601 SHT  4601 S    C    CA     0.031624       12.0107           0
    4602 SHT  4602 S    C    CA     0.031624       12.0107           0
    4603 SHT  4603 S    C    CA     0.031624       12.0107           0
    4604 SHT  4604 S    C    CA     0.031624       12.0107           0
    4605 SHT  4605 S    C    CA     0.031624       12.0107           0
    4606 SHT  4606 S    C    CA     0.031624       12.0107           0
    4607 SHT  4607 S    C    CA     0.031624       12.0107           0
    4608 SHT  4608 S    C    CA     0.031624       12.0107           0
    4609 SHT  4609 S    C    CA     0.031624       12.0107           0
    4610 SHT  4610 S    C    CA     0.031624       12.0107           0
    4611 SHT  4611 S    C    CA     0.031624       12.0107           0
    4612 SHT  4612 S    C    CA     0.031624       12.0107           0
    4613 SHT  4613 S    C    CA     0.031624       12.0107           0
    4614 SHT  4614 S    C    CA     0.031624       12.0107           0
    4615 SHT  4615 S    C    CA     0.031624       12.0107           0
    4616 SHT  4616 S    C    CA     0.031624       12.0107           0
    4617 SHT  4617 S    C    CA     0.031624       12.0107           0
    4618 SHT  4618 S    C    CA     0.031624       12.0107           0
    4619 SHT  4619 S    C    CA     0.031624       12.0107           0
    4620 SHT  4620 S    C    CA     0.031624       12.0107           0
    4621 SHT  4621 S    C    CA     0.031624       12.0107           0
    4622 SHT  4622 S    C    CA     0.031624       12.0107           0
    4623 SHT  4623 S    C    CA     0.031624       12.0107           0
    4624 SHT  4624 S    C    CA     0.031624       12.0107           0
    4625 SHT  4625 S    C    CA     0.031624       12.0107           0
    4626 SHT  4626 S    C    CA     0.031624       12.0107           0
    4627 SHT  4627 S    C    CA     0.031624       12.0107           0
    4628 SHT  4628 S    C    CA     0.031624       12.0107           0
    4629 SHT  4629 S    C    CA     0.031624       12.0107           0
    4630 SHT  4630 S    C    CA     0.031624       12.0107           0
    4631 SHT  4631 S    C    CA     0.031624       12.0107           0
    4632 SHT  4632 S    C    CA     0.031624       12.0107           0
    4633 SHT  4633 S    C    CA     0.031624       12.0107           0
    4634 SHT  4634 S    C    CA     0.031624       12.0107           0
    4635 SHT  4635 S    C    CA     0.031624       12.0107           0
    4636 SHT  4636 S    C    CA     0.031624       12.0107           0
    4637 SHT  4637 S    C    CA     0.031624       12.0107           0
    4638 SHT  4638 S    C    CA     0.031624       12.0107           0
    4639 SHT  4639 S    C    CA     0.031624       12.0107           0
    4640 SHT  4640 S    C    CA     0.031624       12.0107           0
    4641 SHT  4641 S    C    CA     0.031624       12.0107           0
    4642 SHT  4642 S    C    CA     0.031624       12.0107           0
    4643 SHT  4643 S    C    CA     0.031624       12.0107           0
    4644 SHT  4644 S    C    CA     0.031624       12.0107           0
    4645 SHT  4645 S    C    CA     0.031624       12.0107           0
    4646 SHT  4646 S    C    CA     0.031624       12.0107           0
    4647 SHT  4647 S    C    CA     0.031624       12.0107           0
    4648 SHT  4648 S    C    CA     0.031624       12.0107           0
    4649 SHT  4649 S    C    CA     0.031624       12.0107           0
    4650 SHT  4650 S    C    CA     0.031624       12.0107           0
    4651 SHT  4651 S    C    CA     0.031624       12.0107           0
    4652 SHT  4652 S    C    CA     0.031624       12.0107           0
    4653 SHT  4653 S    C    CA     0.031624       12.0107           0
    4654 SHT  4654 S    C    CA     0.031624       12.0107           0
    4655 SHT  4655 S    C    CA     0.031624       12.0107           0
    4656 SHT  4656 S    C    CA     0.031624       12.0107           0
    4657 SHT  4657 S    C    CA     0.031624       12.0107           0
    4658 SHT  4658 S    C    CA     0.031624       12.0107           0
    4659 SHT  4659 S    C    CA     0.031624       12.0107           0
    4660 SHT  4660 S    C    CA     0.031624       12.0107           0
    4661 SHT  4661 S    C    CA     0.031624       12.0107           0
    4662 SHT  4662 S    C    CA     0.031624       12.0107           0
    4663 SHT  4663 S    C    CA     0.031624       12.0107           0
    4664 SHT  4664 S    C    CA     0.031624       12.0107           0
    4665 SHT  4665 S    C    CA     0.031624       12.0107           0
    4666 SHT  4666 S    C    CA     0.031624       12.0107           0
    4667 SHT  4667 S    C    CA     0.031624       12.0107           0
    4668 SHT  4668 S    C    CA     0.031624       12.0107           0
    4669 SHT  4669 S    C    CA     0.031624       12.0107           0
    4670 SHT  4670 S    C    CA     0.031624       12.0107           0
    4671 SHT  4671 S    C    CA     0.031624       12.0107           0
    4672 SHT  4672 S    C    CA     0.031624       12.0107           0
    4673 SHT  4673 S    C    CA     0.031624       12.0107           0
    4674 SHT  4674 S    C    CA     0.031624       12.0107           0
    4675 SHT  4675 S    C    CA     0.031624       12.0107           0
    4676 SHT  4676 S    C    CA     0.031624       12.0107           0
    4677 SHT  4677 S    C    CA     0.031624       12.0107           0
    4678 SHT  4678 S    C    CA     0.031624       12.0107           0
    4679 SHT  4679 S    C    CA     0.031624       12.0107           0
    4680 SHT  4680 S    C    CA     0.031624       12.0107           0
    4681 WT1  2    TIP3 OH2  OT    -0.834000       15.9994           0
    4682 WT1  2    TIP3 H1   HT     0.417000        1.0080           0
    4683 WT1  2    TIP3 H2   HT     0.417000        1.0080           0
    4684 WT1  3    TIP3 OH2  OT    -0.834000       15.9994           0
    4685 WT1  3    TIP3 H1   HT     0.417000        1.0080           0
    4686 WT1  3    TIP3 H2   HT     0.417000        1.0080           0
    4687 WT1  4    TIP3 OH2  OT    -0.834000       15.9994           0
    4688 WT1  4    TIP3 H1   HT     0.417000        1.0080           0
    4689 WT1  4    TIP3 H2   HT     0.417000        1.0080           0
    4690 WT1  5    TIP3 OH2  OT    -0.834000       15.9994           0
    4691 WT1  5    TIP3 H1   HT     0.417000        1.0080           0
    4692 WT1  5    TIP3 H2   HT     0.417000        1.0080           0
    4693 WT1  7    TIP3 OH2  OT    -0.834000       15.9994           0
    4694 WT1  7    TIP3 H1   HT     0.417000        1.0080           0
    4695 WT1  7    TIP3 H2   HT     0.417000        1.0080           0
    4696 WT1  8    TIP3 OH2  OT    -0.834000       15.9994           0
    4697 WT1  8    TIP3 H1   HT     0.417000        1.0080           0
    4698 WT1  8    TIP3 H2   HT     0.417000        1.0080           0
    4699 WT1  9    TIP3 OH2  OT    -0.834000       15.9994           0
    4700 WT1  9    TIP3 H1   HT     0.417000        1.0080           0
    4701 WT1  9    TIP3 H2   HT     0.417000        1.0080           0
    4702 WT1  10   TIP3 OH2  OT    -0.834000       15.9994           0
    4703 WT1  10   TIP3 H1   HT     0.417000        1.0080           0
    4704 WT1  10   TIP3 H2   HT     0.417000        1.0080           0
    4705 WT1  11   TIP3 OH2  OT    -0.834000       15.9994           0
    4706 WT1  11   TIP3 H1   HT     0.417000        1.0080           0
    4707 WT1  11   TIP3 H2   HT     0.417000        1.0080           0
    4708 WT1  12   TIP3 OH2  OT    -0.834000       15.9994           0
    4709 WT1  12   TIP3 H1   HT     0.417000        1.0080           0
    4710 WT1  12   TIP3 H2   HT     0.417000        1.0080           0
    4711 WT1  13   TIP3 OH2  OT    -0.834000       15.9994           0
    4712 WT1  13   TIP3 H1   HT     0.417000        1.0080           0
    4713 WT1  13   TIP3 H2   HT     0.417000        1.0080           0
    4714 WT1  14   TIP3 OH2  OT    -0.834000       15.9994           0
    4715 WT1  14   TIP3 H1   HT     0.417000        1.0080           0
    4716 WT1  14   TIP3 H2   HT     0.417000        1.0080           0
    4717 WT1  15   TIP3 OH2  OT    -0.834000       15.9994           0
    4718 WT1  15   TIP3 H1   HT     0.417000        1.0080           0
    4719 WT1  15   TIP3 H2   HT     0.417000        1.0080           0
    4720 WT1  16   TIP3 OH2  OT    -0.834000       15.9994           0
    4721 WT1  16   TIP3 H1   HT     0.417000        1.0080           0
    4722 WT1  16   TIP3 H2   HT     0.417000        1.0080           0
    4723 WT1  17   TIP3 OH2  OT    -0.834000       15.9994           0
    4724 WT1  17   TIP3 H1   HT     0.417000        1.0080           0
    4725 WT1  17   TIP3 H2   HT     0.417000        1.0080           0
    4726 WT1  18   TIP3 OH2  OT    -0.834000       15.9994           0
    4727 WT1  18   TIP3 H1   HT     0.417000        1.0080           0
    4728 WT1  18   TIP3 H2   HT     0.417000        1.0080           0
    4729 WT1  19   TIP3 OH2  OT    -0.834000       15.9994           0
    4730 WT1  19   TIP3 H1   HT     0.417000        1.0080           0
    4731 WT1  19   TIP3 H2   HT     0.417000        1.0080           0
    4732 WT1  21   TIP3 OH2  OT    -0.834000       15.9994           0
    4733 WT1  21   TIP3 H1   HT     0.417000        1.0080           0
    4734 WT1  21   TIP3 H2   HT     0.417000        1.0080           0
    4735 WT1  22   TIP3 OH2  OT    -0.834000       15.9994           0
    4736 WT1  22   TIP3 H1   HT     0.417000        1.0080           0
    4737 WT1  22   TIP3 H2   HT     0.417000        1.0080           0
    4738 WT1  23   TIP3 OH2  OT    -0.834000       15.9994           0
    4739 WT1  23   TIP3 H1   HT     0.417000        1.0080           0
    4740 WT1  23   TIP3 H2   HT     0.417000        1.0080           0
    4741 WT1  24   TIP3 OH2  OT    -0.834000       15.9994           0
    4742 WT1  24   TIP3 H1   HT     0.417000        1.0080           0
    4743 WT1  24   TIP3 H2   HT     0.417000        1.0080           0
    4744 WT1  25   TIP3 OH2  OT    -0.834000       15.9994           0
    4745 WT1  25   TIP3 H1   HT     0.417000        1.0080           0
    4746 WT1  25   TIP3 H2   HT     0.417000        1.0080           0
    4747 WT1  26   TIP3 OH2  OT    -0.834000       15.9994           0
    4748 WT1  26   TIP3 H1   HT     0.417000        1.0080           0
    4749 WT1  26   TIP3 H2   HT     0.417000        1.0080           0
    4750 WT1  27   TIP3 OH2  OT    -0.834000       15.9994           0
    4751 WT1  27   TIP3 H1   HT     0.417000        1.0080           0
    4752 WT1  27   TIP3 H2   HT     0.417000        1.0080           0
    4753 WT1  28   TIP3 OH2  OT    -0.834000       15.9994           0
    4754 WT1  28   TIP3 H1   HT     0.417000        1.0080           0
    4755 WT1  28   TIP3 H2   HT     0.417000        1.0080           0
    4756 WT1  29   TIP3 OH2  OT    -0.834000       15.9994           0
    4757 WT1  29   TIP3 H1   HT     0.417000        1.0080           0
    4758 WT1  29   TIP3 H2   HT     0.417000        1.0080           0
    4759 WT1  30   TIP3 OH2  OT    -0.834000       15.9994           0
    4760 WT1  30   TIP3 H1   HT     0.417000        1.0080           0
    4761 WT1  30   TIP3 H2   HT     0.417000        1.0080           0
    4762 WT1  31   TIP3 OH2  OT    -0.834000       15.9994           0
    4763 WT1  31   TIP3 H1   HT     0.417000        1.0080           0
    4764 WT1  31   TIP3 H2   HT     0.417000        1.0080           0
    4765 WT1  32   TIP3 OH2  OT    -0.834000       15.9994           0
    4766 WT1  32   TIP3 H1   HT     0.417000        1.0080           0
    4767 WT1  32   TIP3 H2   HT     0.417000        1.0080           0
    4768 WT1  33   TIP3 OH2  OT    -0.834000       15.9994           0
    4769 WT1  33   TIP3 H1   HT     0.417000        1.0080           0
    4770 WT1  33   TIP3 H2   HT     0.417000        1.0080           0
    4771 WT1  35   TIP3 OH2  OT    -0.834000       15.9994           0
    4772 WT1  35   TIP3 H1   HT     0.417000        1.0080           0
    4773 WT1  35   TIP3 H2   HT     0.417000        1.0080           0
    4774 WT1  38   TIP3 OH2  OT    -0.834000       15.9994           0
    4775 WT1  38   TIP3 H1   HT     0.417000        1.0080           0
    4776 WT1  38   TIP3 H2   HT     0.417000        1.0080           0
    4777 WT1  39   TIP3 OH2  OT    -0.834000       15.9994           0
    4778 WT1  39   TIP3 H1   HT     0.417000        1.0080           0
    4779 WT1  39   TIP3 H2   HT     0.417000        1.0080           0
    4780 WT1  40   TIP3 OH2  OT    -0.834000       15.9994           0
    4781 WT1  40   TIP3 H1   HT     0.417000        1.0080           0
    4782 WT1  40   TIP3 H2   HT     0.417000        1.0080           0
    4783 WT1  41   TIP3 OH2  OT    -0.834000       15.9994           0
    4784 WT1  41   TIP3 H1   HT     0.417000        1.0080           0
    4785 WT1  41   TIP3 H2   HT     0.417000        1.0080           0
    4786 WT1  42   TIP3 OH2  OT    -0.834000       15.9994           0
    4787 WT1  42   TIP3 H1   HT     0.417000        1.0080           0
    4788 WT1  42   TIP3 H2   HT     0.417000        1.0080           0
    4789 WT1  43   TIP3 OH2  OT    -0.834000       15.9994           0
    4790 WT1  43   TIP3 H1   HT     0.417000        1.0080           0
    4791 WT1  43   TIP3 H2   HT     0.417000        1.0080           0
    4792 WT1  44   TIP3 OH2  OT    -0.834000       15.9994           0
    4793 WT1  44   TIP3 H1   HT     0.417000        1.0080           0
    4794 WT1  44   TIP3 H2   HT     0.417000        1.0080           0
    4795 WT1  45   TIP3 OH2  OT    -0.834000       15.9994           0
    4796 WT1  45   TIP3 H1   HT     0.417000        1.0080           0
    4797 WT1  45   TIP3 H2   HT     0.417000        1.0080           0
    4798 WT1  46   TIP3 OH2  OT    -0.834000       15.9994           0
    4799 WT1  46   TIP3 H1   HT     0.417000        1.0080           0
    4800 WT1  46   TIP3 H2   HT     0.417000        1.0080           0
    4801 WT1  47   TIP3 OH2  OT    -0.834000       15.9994           0
    4802 WT1  47   TIP3 H1   HT     0.417000        1.0080           0
    4803 WT1  47   TIP3 H2   HT     0.417000        1.0080           0
    4804 WT1  48   TIP3 OH2  OT    -0.834000       15.9994           0
    4805 WT1  48   TIP3 H1   HT     0.417000        1.0080           0
    4806 WT1  48   TIP3 H2   HT     0.417000        1.0080           0
    4807 WT1  49   TIP3 OH2  OT    -0.834000       15.9994           0
    4808 WT1  49   TIP3 H1   HT     0.417000        1.0080           0
    4809 WT1  49   TIP3 H2   HT     0.417000        1.0080           0
    4810 WT1  50   TIP3 OH2  OT    -0.834000       15.9994           0
    4811 WT1  50   TIP3 H1   HT     0.417000        1.0080           0
    4812 WT1  50   TIP3 H2   HT     0.417000        1.0080           0
    4813 WT1  51   TIP3 OH2  OT    -0.834000       15.9994           0
    4814 WT1  51   TIP3 H1   HT     0.417000        1.0080           0
    4815 WT1  51   TIP3 H2   HT     0.417000        1.0080           0
    4816 WT1  52   TIP3 OH2  OT    -0.834000       15.9994           0
    4817 WT1  52   TIP3 H1   HT     0.417000        1.0080           0
    4818 WT1  52   TIP3 H2   HT     0.417000        1.0080           0
    4819 WT1  53   TIP3 OH2  OT    -0.834000       15.9994           0
    4820 WT1  53   TIP3 H1   HT     0.417000        1.0080           0
    4821 WT1  53   TIP3 H2   HT     0.417000        1.0080           0
    4822 WT1  54   TIP3 OH2  OT    -0.834000       15.9994           0
    4823 WT1  54   TIP3 H1   HT     0.417000        1.0080           0
    4824 WT1  54   TIP3 H2   HT     0.417000        1.0080           0
    4825 WT1  55   TIP3 OH2  OT    -0.834000       15.9994           0
    4826 WT1  55   TIP3 H1   HT     0.417000        1.0080           0
    4827 WT1  55   TIP3 H2   HT     0.417000        1.0080           0
    4828 WT1  56   TIP3 OH2  OT    -0.834000       15.9994           0
    4829 WT1  56   TIP3 H1   HT     0.417000        1.0080           0
    4830 WT1  56   TIP3 H2   HT     0.417000        1.0080           0
    4831 WT1  57   TIP3 OH2  OT    -0.834000       15.9994           0
    4832 WT1  57   TIP3 H1   HT     0.417000        1.0080           0
    4833 WT1  57   TIP3 H2   HT     0.417000        1.0080           0
    4834 WT1  58   TIP3 OH2  OT    -0.834000       15.9994           0
    4835 WT1  58   TIP3 H1   HT     0.417000        1.0080           0
    4836 WT1  58   TIP3 H2   HT     0.417000        1.0080           0
    4837 WT1  59   TIP3 OH2  OT    -0.834000       15.9994           0
    4838 WT1  59   TIP3 H1   HT     0.417000        1.0080           0
    4839 WT1  59   TIP3 H2   HT     0.417000        1.0080           0
    4840 WT1  60   TIP3 OH2  OT    -0.834000       15.9994           0
    4841 WT1  60   TIP3 H1   HT     0.417000        1.0080           0
    4842 WT1  60   TIP3 H2   HT     0.417000        1.0080           0
    4843 WT1  61   TIP3 OH2  OT    -0.834000       15.9994           0
    4844 WT1  61   TIP3 H1   HT     0.417000        1.0080           0
    4845 WT1  61   TIP3 H2   HT     0.417000        1.0080           0
    4846 WT1  62   TIP3 OH2  OT    -0.834000       15.9994           0
    4847 WT1  62   TIP3 H1   HT     0.417000        1.0080           0
    4848 WT1  62   TIP3 H2   HT     0.417000        1.0080           0
    4849 WT1  64   TIP3 OH2  OT    -0.834000       15.9994           0
    4850 WT1  64   TIP3 H1   HT     0.417000        1.0080           0
    4851 WT1  64   TIP3 H2   HT     0.417000        1.0080           0
    4852 WT1  65   TIP3 OH2  OT    -0.834000       15.9994           0
    4853 WT1  65   TIP3 H1   HT     0.417000        1.0080           0
    4854 WT1  65   TIP3 H2   HT     0.417000        1.0080           0
    4855 WT1  66   TIP3 OH2  OT    -0.834000       15.9994           0
    4856 WT1  66   TIP3 H1   HT     0.417000        1.0080           0
    4857 WT1  66   TIP3 H2   HT     0.417000        1.0080           0
    4858 WT1  67   TIP3 OH2  OT    -0.834000       15.9994           0
    4859 WT1  67   TIP3 H1   HT     0.417000        1.0080           0
    4860 WT1  67   TIP3 H2   HT     0.417000        1.0080           0
    4861 WT1  68   TIP3 OH2  OT    -0.834000       15.9994           0
    4862 WT1  68   TIP3 H1   HT     0.417000        1.0080           0
    4863 WT1  68   TIP3 H2   HT     0.417000        1.0080           0
    4864 WT1  69   TIP3 OH2  OT    -0.834000       15.9994           0
    4865 WT1  69   TIP3 H1   HT     0.417000        1.0080           0
    4866 WT1  69   TIP3 H2   HT     0.417000        1.0080           0
    4867 WT1  70   TIP3 OH2  OT    -0.834000       15.9994           0
    4868 WT1  70   TIP3 H1   HT     0.417000        1.0080           0
    4869 WT1  70   TIP3 H2   HT     0.417000        1.0080           0
    4870 WT1  71   TIP3 OH2  OT    -0.834000       15.9994           0
    4871 WT1  71   TIP3 H1   HT     0.417000        1.0080           0
    4872 WT1  71   TIP3 H2   HT     0.417000        1.0080           0
    4873 WT1  72   TIP3 OH2  OT    -0.834000       15.9994           0
    4874 WT1  72   TIP3 H1   HT     0.417000        1.0080           0
    4875 WT1  72   TIP3 H2   HT     0.417000        1.0080           0
    4876 WT1  73   TIP3 OH2  OT    -0.834000       15.9994           0
    4877 WT1  73   TIP3 H1   HT     0.417000        1.0080           0
    4878 WT1  73   TIP3 H2   HT     0.417000        1.0080           0
    4879 WT1  74   TIP3 OH2  OT    -0.834000       15.9994           0
    4880 WT1  74   TIP3 H1   HT     0.417000        1.0080           0
    4881 WT1  74   TIP3 H2   HT     0.417000        1.0080           0
    4882 WT1  75   TIP3 OH2  OT    -0.834000       15.9994           0
    4883 WT1  75   TIP3 H1   HT     0.417000        1.0080           0
    4884 WT1  75   TIP3 H2   HT     0.417000        1.0080           0
    4885 WT1  76   TIP3 OH2  OT    -0.834000       15.9994           0
    4886 WT1  76   TIP3 H1   HT     0.417000        1.0080           0
    4887 WT1  76   TIP3 H2   HT     0.417000        1.0080           0
    4888 WT1  77   TIP3 OH2  OT    -0.834000       15.9994           0
    4889 WT1  77   TIP3 H1   HT     0.417000        1.0080           0
    4890 WT1  77   TIP3 H2   HT     0.417000        1.0080           0
    4891 WT1  79   TIP3 OH2  OT    -0.834000       15.9994           0
    4892 WT1  79   TIP3 H1   HT     0.417000        1.0080           0
    4893 WT1  79   TIP3 H2   HT     0.417000        1.0080           0
    4894 WT1  80   TIP3 OH2  OT    -0.834000       15.9994           0
    4895 WT1  80   TIP3 H1   HT     0.417000        1.0080           0
    4896 WT1  80   TIP3 H2   HT     0.417000        1.0080           0
    4897 WT1  81   TIP3 OH2  OT    -0.834000       15.9994           0
    4898 WT1  81   TIP3 H1   HT     0.417000        1.0080           0
    4899 WT1  81   TIP3 H2   HT     0.417000        1.0080           0
    4900 WT1  83   TIP3 OH2  OT    -0.834000       15.9994           0
    4901 WT1  83   TIP3 H1   HT     0.417000        1.0080           0
    4902 WT1  83   TIP3 H2   HT     0.417000        1.0080           0
    4903 WT1  84   TIP3 OH2  OT    -0.834000       15.9994           0
    4904 WT1  84   TIP3 H1   HT     0.417000        1.0080           0
    4905 WT1  84   TIP3 H2   HT     0.417000        1.0080           0
    4906 WT1  85   TIP3 OH2  OT    -0.834000       15.9994           0
    4907 WT1  85   TIP3 H1   HT     0.417000        1.0080           0
    4908 WT1  85   TIP3 H2   HT     0.417000        1.0080           0
    4909 WT1  86   TIP3 OH2  OT    -0.834000       15.9994           0
    4910 WT1  86   TIP3 H1   HT     0.417000        1.0080           0
    4911 WT1  86   TIP3 H2   HT     0.417000        1.0080           0
    4912 WT1  87   TIP3 OH2  OT    -0.834000       15.9994           0
    4913 WT1  87   TIP3 H1   HT     0.417000        1.0080           0
    4914 WT1  87   TIP3 H2   HT     0.417000        1.0080           0
    4915 WT1  88   TIP3 OH2  OT    -0.834000       15.9994           0
    4916 WT1  88   TIP3 H1   HT     0.417000        1.0080           0
    4917 WT1  88   TIP3 H2   HT     0.417000        1.0080           0
    4918 WT1  89   TIP3 OH2  OT    -0.834000       15.9994           0
    4919 WT1  89   TIP3 H1   HT     0.417000        1.0080           0
    4920 WT1  89   TIP3 H2   HT     0.417000        1.0080           0
    4921 WT1  90   TIP3 OH2  OT    -0.834000       15.9994           0
    4922 WT1  90   TIP3 H1   HT     0.417000        1.0080           0
    4923 WT1  90   TIP3 H2   HT     0.417000        1.0080           0
    4924 WT1  91   TIP3 OH2  OT    -0.834000       15.9994           0
    4925 WT1  91   TIP3 H1   HT     0.417000        1.0080           0
    4926 WT1  91   TIP3 H2   HT     0.417000        1.0080           0
    4927 WT1  92   TIP3 OH2  OT    -0.834000       15.9994           0
    4928 WT1  92   TIP3 H1   HT     0.417000        1.0080           0
    4929 WT1  92   TIP3 H2   HT     0.417000        1.0080           0
    4930 WT1  93   TIP3 OH2  OT    -0.834000       15.9994           0
    4931 WT1  93   TIP3 H1   HT     0.417000        1.0080           0
    4932 WT1  93   TIP3 H2   HT     0.417000        1.0080           0
    4933 WT1  94   TIP3 OH2  OT    -0.834000       15.9994           0
    4934 WT1  94   TIP3 H1   HT     0.417000        1.0080           0
    4935 WT1  94   TIP3 H2   HT     0.417000        1.0080           0
    4936 WT1  95   TIP3 OH2  OT    -0.834000       15.9994           0
    4937 WT1  95   TIP3 H1   HT     0.417000        1.0080           0
    4938 WT1  95   TIP3 H2   HT     0.417000        1.0080           0
    4939 WT1  96   TIP3 OH2  OT    -0.834000       15.9994           0
    4940 WT1  96   TIP3 H1   HT     0.417000        1.0080           0
    4941 WT1  96   TIP3 H2   HT     0.417000        1.0080           0
    4942 WT1  97   TIP3 OH2  OT    -0.834000       15.9994           0
    4943 WT1  97   TIP3 H1   HT     0.417000        1.0080           0
    4944 WT1  97   TIP3 H2   HT     0.417000        1.0080           0
    4945 WT1  98   TIP3 OH2  OT    -0.834000       15.9994           0
    4946 WT1  98   TIP3 H1   HT     0.417000        1.0080           0
    4947 WT1  98   TIP3 H2   HT     0.417000        1.0080           0
    4948 WT1  99   TIP3 OH2  OT    -0.834000       15.9994           0
    4949 WT1  99   TIP3 H1   HT     0.417000        1.0080           0
    4950 WT1  99   TIP3 H2   HT     0.417000        1.0080           0
    4951 WT1  100  TIP3 OH2  OT    -0.834000       15.9994           0
    4952 WT1  100  TIP3 H1   HT     0.417000        1.0080           0
    4953 WT1  100  TIP3 H2   HT     0.417000        1.0080           0
    4954 WT1  101  TIP3 OH2  OT    -0.834000       15.9994           0
    4955 WT1  101  TIP3 H1   HT     0.417000        1.0080           0
    4956 WT1  101  TIP3 H2   HT     0.417000        1.0080           0
    4957 WT1  105  TIP3 OH2  OT    -0.834000       15.9994           0
    4958 WT1  105  TIP3 H1   HT     0.417000        1.0080           0
    4959 WT1  105  TIP3 H2   HT     0.417000        1.0080           0
    4960 WT1  108  TIP3 OH2  OT    -0.834000       15.9994           0
    4961 WT1  108  TIP3 H1   HT     0.417000        1.0080           0
    4962 WT1  108  TIP3 H2   HT     0.417000        1.0080           0
    4963 WT1  109  TIP3 OH2  OT    -0.834000       15.9994           0
    4964 WT1  109  TIP3 H1   HT     0.417000        1.0080           0
    4965 WT1  109  TIP3 H2   HT     0.417000        1.0080           0
    4966 WT1  110  TIP3 OH2  OT    -0.834000       15.9994           0
    4967 WT1  110  TIP3 H1   HT     0.417000        1.0080           0
    4968 WT1  110  TIP3 H2   HT     0.417000        1.0080           0
    4969 WT1  111  TIP3 OH2  OT    -0.834000       15.9994           0
    4970 WT1  111  TIP3 H1   HT     0.417000        1.0080           0
    4971 WT1  111  TIP3 H2   HT     0.417000        1.0080           0
    4972 WT1  112  TIP3 OH2  OT    -0.834000       15.9994           0
    4973 WT1  112  TIP3 H1   HT     0.417000        1.0080           0
    4974 WT1  112  TIP3 H2   HT     0.417000        1.0080           0
    4975 WT1  113  TIP3 OH2  OT    -0.834000       15.9994           0
    4976 WT1  113  TIP3 H1   HT     0.417000        1.0080           0
    4977 WT1  113  TIP3 H2   HT     0.417000        1.0080           0
    4978 WT1  114  TIP3 OH2  OT    -0.834000       15.9994           0
    4979 WT1  114  TIP3 H1   HT     0.417000        1.0080           0
    4980 WT1  114  TIP3 H2   HT     0.417000        1.0080           0
    4981 WT1  115  TIP3 OH2  OT    -0.834000       15.9994           0
    4982 WT1  115  TIP3 H1   HT     0.417000        1.0080           0
    4983 WT1  115  TIP3 H2   HT     0.417000        1.0080           0
    4984 WT1  116  TIP3 OH2  OT    -0.834000       15.9994           0
    4985 WT1  116  TIP3 H1   HT     0.417000        1.0080           0
    4986 WT1  116  TIP3 H2   HT     0.417000        1.0080           0
    4987 WT1  117  TIP3 OH2  OT    -0.834000       15.9994           0
    4988 WT1  117  TIP3 H1   HT     0.417000        1.0080           0
    4989 WT1  117  TIP3 H2   HT     0.417000        1.0080           0
    4990 WT1  118  TIP3 OH2  OT    -0.834000       15.9994           0
    4991 WT1  118  TIP3 H1   HT     0.417000        1.0080           0
    4992 WT1  118  TIP3 H2   HT     0.417000        1.0080           0
    4993 WT1  119  TIP3 OH2  OT    -0.834000       15.9994           0
    4994 WT1  119  TIP3 H1   HT     0.417000        1.0080           0
    4995 WT1  119  TIP3 H2   HT     0.417000        1.0080           0
    4996 WT1  120  TIP3 OH2  OT    -0.834000       15.9994           0
    4997 WT1  120  TIP3 H1   HT     0.417000        1.0080           0
    4998 WT1  120  TIP3 H2   HT     0.417000        1.0080           0
    4999 WT1  122  TIP3 OH2  OT    -0.834000       15.9994           0
    5000 WT1  122  TIP3 H1   HT     0.417000        1.0080           0
    5001 WT1  122  TIP3 H2   HT     0.417000        1.0080           0
    5002 WT1  123  TIP3 OH2  OT    -0.834000       15.9994           0
    5003 WT1  123  TIP3 H1   HT     0.417000        1.0080           0
    5004 WT1  123  TIP3 H2   HT     0.417000        1.0080           0
    5005 WT1  124  TIP3 OH2  OT    -0.834000       15.9994           0
    5006 WT1  124  TIP3 H1   HT     0.417000        1.0080           0
    5007 WT1  124  TIP3 H2   HT     0.417000        1.0080           0
    5008 WT1  125  TIP3 OH2  OT    -0.834000       15.9994           0
    5009 WT1  125  TIP3 H1   HT     0.417000        1.0080           0
    5010 WT1  125  TIP3 H2   HT     0.417000        1.0080           0
    5011 WT1  126  TIP3 OH2  OT    -0.834000       15.9994           0
    5012 WT1  126  TIP3 H1   HT     0.417000        1.0080           0
    5013 WT1  126  TIP3 H2   HT     0.417000        1.0080           0
    5014 WT1  127  TIP3 OH2  OT    -0.834000       15.9994           0
    5015 WT1  127  TIP3 H1   HT     0.417000        1.0080           0
    5016 WT1  127  TIP3 H2   HT     0.417000        1.0080           0
    5017 WT1  128  TIP3 OH2  OT    -0.834000       15.9994           0
    5018 WT1  128  TIP3 H1   HT     0.417000        1.0080           0
    5019 WT1  128  TIP3 H2   HT     0.417000        1.0080           0
    5020 WT1  129  TIP3 OH2  OT    -0.834000       15.9994           0
    5021 WT1  129  TIP3 H1   HT     0.417000        1.0080           0
    5022 WT1  129  TIP3 H2   HT     0.417000        1.0080           0
    5023 WT1  130  TIP3 OH2  OT    -0.834000       15.9994           0
    5024 WT1  130  TIP3 H1   HT     0.417000        1.0080           0
    5025 WT1  130  TIP3 H2   HT     0.417000        1.0080           0
    5026 WT1  131  TIP3 OH2  OT    -0.834000       15.9994           0
    5027 WT1  131  TIP3 H1   HT     0.417000        1.0080           0
    5028 WT1  131  TIP3 H2   HT     0.417000        1.0080           0
    5029 WT1  132  TIP3 OH2  OT    -0.834000       15.9994           0
    5030 WT1  132  TIP3 H1   HT     0.417000        1.0080           0
    5031 WT1  132  TIP3 H2   HT     0.417000        1.0080           0
    5032 WT1  133  TIP3 OH2  OT    -0.834000       15.9994           0
    5033 WT1  133  TIP3 H1   HT     0.417000        1.0080           0
    5034 WT1  133  TIP3 H2   HT     0.417000        1.0080           0
    5035 WT1  134  TIP3 OH2  OT    -0.834000       15.9994           0
    5036 WT1  134  TIP3 H1   HT     0.417000        1.0080           0
    5037 WT1  134  TIP3 H2   HT     0.417000        1.0080           0
    5038 WT1  135  TIP3 OH2  OT    -0.834000       15.9994           0
    5039 WT1  135  TIP3 H1   HT     0.417000        1.0080           0
    5040 WT1  135  TIP3 H2   HT     0.417000        1.0080           0
    5041 WT1  136  TIP3 OH2  OT    -0.834000       15.9994           0
    5042 WT1  136  TIP3 H1   HT     0.417000        1.0080           0
    5043 WT1  136  TIP3 H2   HT     0.417000        1.0080           0
    5044 WT1  137  TIP3 OH2  OT    -0.834000       15.9994           0
    5045 WT1  137  TIP3 H1   HT     0.417000        1.0080           0
    5046 WT1  137  TIP3 H2   HT     0.417000        1.0080           0
    5047 WT1  138  TIP3 OH2  OT    -0.834000       15.9994           0
    5048 WT1  138  TIP3 H1   HT     0.417000        1.0080           0
    5049 WT1  138  TIP3 H2   HT     0.417000        1.0080           0
    5050 WT1  139  TIP3 OH2  OT    -0.834000       15.9994           0
    5051 WT1  139  TIP3 H1   HT     0.417000        1.0080           0
    5052 WT1  139  TIP3 H2   HT     0.417000        1.0080           0
    5053 WT1  140  TIP3 OH2  OT    -0.834000       15.9994           0
    5054 WT1  140  TIP3 H1   HT     0.417000        1.0080           0
    5055 WT1  140  TIP3 H2   HT     0.417000        1.0080           0
    5056 WT1  141  TIP3 OH2  OT    -0.834000       15.9994           0
    5057 WT1  141  TIP3 H1   HT     0.417000        1.0080           0
    5058 WT1  141  TIP3 H2   HT     0.417000        1.0080           0
    5059 WT1  142  TIP3 OH2  OT    -0.834000       15.9994           0
    5060 WT1  142  TIP3 H1   HT     0.417000        1.0080           0
    5061 WT1  142  TIP3 H2   HT     0.417000        1.0080           0
    5062 WT1  143  TIP3 OH2  OT    -0.834000       15.9994           0
    5063 WT1  143  TIP3 H1   HT     0.417000        1.0080           0
    5064 WT1  143  TIP3 H2   HT     0.417000        1.0080           0
    5065 WT1  144  TIP3 OH2  OT    -0.834000       15.9994           0
    5066 WT1  144  TIP3 H1   HT     0.417000        1.0080           0
    5067 WT1  144  TIP3 H2   HT     0.417000        1.0080           0
    5068 WT1  145  TIP3 OH2  OT    -0.834000       15.9994           0
    5069 WT1  145  TIP3 H1   HT     0.417000        1.0080           0
    5070 WT1  145  TIP3 H2   HT     0.417000        1.0080           0
    5071 WT1  146  TIP3 OH2  OT    -0.834000       15.9994           0
    5072 WT1  146  TIP3 H1   HT     0.417000        1.0080           0
    5073 WT1  146  TIP3 H2   HT     0.417000        1.0080           0
    5074 WT1  147  TIP3 OH2  OT    -0.834000       15.9994           0
    5075 WT1  147  TIP3 H1   HT     0.417000        1.0080           0
    5076 WT1  147  TIP3 H2   HT     0.417000        1.0080           0
    5077 WT1  149  TIP3 OH2  OT    -0.834000       15.9994           0
    5078 WT1  149  TIP3 H1   HT     0.417000        1.0080           0
    5079 WT1  149  TIP3 H2   HT     0.417000        1.0080           0
    5080 WT1  150  TIP3 OH2  OT    -0.834000       15.9994           0
    5081 WT1  150  TIP3 H1   HT     0.417000        1.0080           0
    5082 WT1  150  TIP3 H2   HT     0.417000        1.0080           0
    5083 WT1  151  TIP3 OH2  OT    -0.834000       15.9994           0
    5084 WT1  151  TIP3 H1   HT     0.417000        1.0080           0
    5085 WT1  151  TIP3 H2   HT     0.417000        1.0080           0
    5086 WT1  152  TIP3 OH2  OT    -0.834000       15.9994           0
    5087 WT1  152  TIP3 H1   HT     0.417000        1.0080           0
    5088 WT1  152  TIP3 H2   HT     0.417000        1.0080           0
    5089 WT1  153  TIP3 OH2  OT    -0.834000       15.9994           0
    5090 WT1  153  TIP3 H1   HT     0.417000        1.0080           0
    5091 WT1  153  TIP3 H2   HT     0.417000        1.0080           0
    5092 WT1  154  TIP3 OH2  OT    -0.834000       15.9994           0
    5093 WT1  154  TIP3 H1   HT     0.417000        1.0080           0
    5094 WT1  154  TIP3 H2   HT     0.417000        1.0080           0
    5095 WT1  155  TIP3 OH2  OT    -0.834000       15.9994           0
    5096 WT1  155  TIP3 H1   HT     0.417000        1.0080           0
    5097 WT1  155  TIP3 H2   HT     0.417000        1.0080           0
    5098 WT1  156  TIP3 OH2  OT    -0.834000       15.9994           0
    5099 WT1  156  TIP3 H1   HT     0.417000        1.0080           0
    5100 WT1  156  TIP3 H2   HT     0.417000        1.0080           0
    5101 WT1  157  TIP3 OH2  OT    -0.834000       15.9994           0
    5102 WT1  157  TIP3 H1   HT     0.417000        1.0080           0
    5103 WT1  157  TIP3 H2   HT     0.417000        1.0080           0
    5104 WT1  158  TIP3 OH2  OT    -0.834000       15.9994           0
    5105 WT1  158  TIP3 H1   HT     0.417000        1.0080           0
    5106 WT1  158  TIP3 H2   HT     0.417000        1.0080           0
    5107 WT1  159  TIP3 OH2  OT    -0.834000       15.9994           0
    5108 WT1  159  TIP3 H1   HT     0.417000        1.0080           0
    5109 WT1  159  TIP3 H2   HT     0.417000        1.0080           0
    5110 WT1  160  TIP3 OH2  OT    -0.834000       15.9994           0
    5111 WT1  160  TIP3 H1   HT     0.417000        1.0080           0
    5112 WT1  160  TIP3 H2   HT     0.417000        1.0080           0
    5113 WT1  161  TIP3 OH2  OT    -0.834000       15.9994           0
    5114 WT1  161  TIP3 H1   HT     0.417000        1.0080           0
    5115 WT1  161  TIP3 H2   HT     0.417000        1.0080           0
    5116 WT1  162  TIP3 OH2  OT    -0.834000       15.9994           0
    5117 WT1  162  TIP3 H1   HT     0.417000        1.0080           0
    5118 WT1  162  TIP3 H2   HT     0.417000        1.0080           0
    5119 WT1  163  TIP3 OH2  OT    -0.834000       15.9994           0
    5120 WT1  163  TIP3 H1   HT     0.417000        1.0080           0
    5121 WT1  163  TIP3 H2   HT     0.417000        1.0080           0
    5122 WT1  167  TIP3 OH2  OT    -0.834000       15.9994           0
    5123 WT1  167  TIP3 H1   HT     0.417000        1.0080           0
    5124 WT1  167  TIP3 H2   HT     0.417000        1.0080           0
    5125 WT1  168  TIP3 OH2  OT    -0.834000       15.9994           0
    5126 WT1  168  TIP3 H1   HT     0.417000        1.0080           0
    5127 WT1  168  TIP3 H2   HT     0.417000        1.0080           0
    5128 WT1  169  TIP3 OH2  OT    -0.834000       15.9994           0
    5129 WT1  169  TIP3 H1   HT     0.417000        1.0080           0
    5130 WT1  169  TIP3 H2   HT     0.417000        1.0080           0
    5131 WT1  170  TIP3 OH2  OT    -0.834000       15.9994           0
    5132 WT1  170  TIP3 H1   HT     0.417000        1.0080           0
    5133 WT1  170  TIP3 H2   HT     0.417000        1.0080           0
    5134 WT1  171  TIP3 OH2  OT    -0.834000       15.9994           0
    5135 WT1  171  TIP3 H1   HT     0.417000        1.0080           0
    5136 WT1  171  TIP3 H2   HT     0.417000        1.0080           0
    5137 WT1  172  TIP3 OH2  OT    -0.834000       15.9994           0
    5138 WT1  172  TIP3 H1   HT     0.417000        1.0080           0
    5139 WT1  172  TIP3 H2   HT     0.417000        1.0080           0
    5140 WT1  173  TIP3 OH2  OT    -0.834000       15.9994           0
    5141 WT1  173  TIP3 H1   HT     0.417000        1.0080           0
    5142 WT1  173  TIP3 H2   HT     0.417000        1.0080           0
    5143 WT1  174  TIP3 OH2  OT    -0.834000       15.9994           0
    5144 WT1  174  TIP3 H1   HT     0.417000        1.0080           0
    5145 WT1  174  TIP3 H2   HT     0.417000        1.0080           0
    5146 WT1  176  TIP3 OH2  OT    -0.834000       15.9994           0
    5147 WT1  176  TIP3 H1   HT     0.417000        1.0080           0
    5148 WT1  176  TIP3 H2   HT     0.417000        1.0080           0
    5149 WT1  177  TIP3 OH2  OT    -0.834000       15.9994           0
    5150 WT1  177  TIP3 H1   HT     0.417000        1.0080           0
    5151 WT1  177  TIP3 H2   HT     0.417000        1.0080           0
    5152 WT1  178  TIP3 OH2  OT    -0.834000       15.9994           0
    5153 WT1  178  TIP3 H1   HT     0.417000        1.0080           0
    5154 WT1  178  TIP3 H2   HT     0.417000        1.0080           0
    5155 WT1  179  TIP3 OH2  OT    -0.834000       15.9994           0
    5156 WT1  179  TIP3 H1   HT     0.417000        1.0080           0
    5157 WT1  179  TIP3 H2   HT     0.417000        1.0080           0
    5158 WT1  180  TIP3 OH2  OT    -0.834000       15.9994           0
    5159 WT1  180  TIP3 H1   HT     0.417000        1.0080           0
    5160 WT1  180  TIP3 H2   HT     0.417000        1.0080           0
    5161 WT1  181  TIP3 OH2  OT    -0.834000       15.9994           0
    5162 WT1  181  TIP3 H1   HT     0.417000        1.0080           0
    5163 WT1  181  TIP3 H2   HT     0.417000        1.0080           0
    5164 WT1  182  TIP3 OH2  OT    -0.834000       15.9994           0
    5165 WT1  182  TIP3 H1   HT     0.417000        1.0080           0
    5166 WT1  182  TIP3 H2   HT     0.417000        1.0080           0
    5167 WT1  183  TIP3 OH2  OT    -0.834000       15.9994           0
    5168 WT1  183  TIP3 H1   HT     0.417000        1.0080           0
    5169 WT1  183  TIP3 H2   HT     0.417000        1.0080           0
    5170 WT1  184  TIP3 OH2  OT    -0.834000       15.9994           0
    5171 WT1  184  TIP3 H1   HT     0.417000        1.0080           0
    5172 WT1  184  TIP3 H2   HT     0.417000        1.0080           0
    5173 WT1  185  TIP3 OH2  OT    -0.834000       15.9994           0
    5174 WT1  185  TIP3 H1   HT     0.417000        1.0080           0
    5175 WT1  185  TIP3 H2   HT     0.417000        1.0080           0
    5176 WT1  187  TIP3 OH2  OT    -0.834000       15.9994           0
    5177 WT1  187  TIP3 H1   HT     0.417000        1.0080           0
    5178 WT1  187  TIP3 H2   HT     0.417000        1.0080           0
    5179 WT1  190  TIP3 OH2  OT    -0.834000       15.9994           0
    5180 WT1  190  TIP3 H1   HT     0.417000        1.0080           0
    5181 WT1  190  TIP3 H2   HT     0.417000        1.0080           0
    5182 WT1  191  TIP3 OH2  OT    -0.834000       15.9994           0
    5183 WT1  191  TIP3 H1   HT     0.417000        1.0080           0
    5184 WT1  191  TIP3 H2   HT     0.417000        1.0080           0
    5185 WT1  192  TIP3 OH2  OT    -0.834000       15.9994           0
    5186 WT1  192  TIP3 H1   HT     0.417000        1.0080           0
    5187 WT1  192  TIP3 H2   HT     0.417000        1.0080           0
    5188 WT1  193  TIP3 OH2  OT    -0.834000       15.9994           0
    5189 WT1  193  TIP3 H1   HT     0.417000        1.0080           0
    5190 WT1  193  TIP3 H2   HT     0.417000        1.0080           0
    5191 WT1  195  TIP3 OH2  OT    -0.834000       15.9994           0
    5192 WT1  195  TIP3 H1   HT     0.417000        1.0080           0
    5193 WT1  195  TIP3 H2   HT     0.417000        1.0080           0
    5194 WT1  196  TIP3 OH2  OT    -0.834000       15.9994           0
    5195 WT1  196  TIP3 H1   HT     0.417000        1.0080           0
    5196 WT1  196  TIP3 H2   HT     0.417000        1.0080           0
    5197 WT1  197  TIP3 OH2  OT    -0.834000       15.9994           0
    5198 WT1  197  TIP3 H1   HT     0.417000        1.0080           0
    5199 WT1  197  TIP3 H2   HT     0.417000        1.0080           0
    5200 WT1  198  TIP3 OH2  OT    -0.834000       15.9994           0
    5201 WT1  198  TIP3 H1   HT     0.417000        1.0080           0
    5202 WT1  198  TIP3 H2   HT     0.417000        1.0080           0
    5203 WT1  199  TIP3 OH2  OT    -0.834000       15.9994           0
    5204 WT1  199  TIP3 H1   HT     0.417000        1.0080           0
    5205 WT1  199  TIP3 H2   HT     0.417000        1.0080           0
    5206 WT1  200  TIP3 OH2  OT    -0.834000       15.9994           0
    5207 WT1  200  TIP3 H1   HT     0.417000        1.0080           0
    5208 WT1  200  TIP3 H2   HT     0.417000        1.0080           0
    5209 WT1  201  TIP3 OH2  OT    -0.834000       15.9994           0
    5210 WT1  201  TIP3 H1   HT     0.417000        1.0080           0
    5211 WT1  201  TIP3 H2   HT     0.417000        1.0080           0
    5212 WT1  202  TIP3 OH2  OT    -0.834000       15.9994           0
    5213 WT1  202  TIP3 H1   HT     0.417000        1.0080           0
    5214 WT1  202  TIP3 H2   HT     0.417000        1.0080           0
    5215 WT1  203  TIP3 OH2  OT    -0.834000       15.9994           0
    5216 WT1  203  TIP3 H1   HT     0.417000        1.0080           0
    5217 WT1  203  TIP3 H2   HT     0.417000        1.0080           0
    5218 WT1  204  TIP3 OH2  OT    -0.834000       15.9994           0
    5219 WT1  204  TIP3 H1   HT     0.417000        1.0080           0
    5220 WT1  204  TIP3 H2   HT     0.417000        1.0080           0
    5221 WT1  205  TIP3 OH2  OT    -0.834000       15.9994           0
    5222 WT1  205  TIP3 H1   HT     0.417000        1.0080           0
    5223 WT1  205  TIP3 H2   HT     0.417000        1.0080           0
    5224 WT1  206  TIP3 OH2  OT    -0.834000       15.9994           0
    5225 WT1  206  TIP3 H1   HT     0.417000        1.0080           0
    5226 WT1  206  TIP3 H2   HT     0.417000        1.0080           0
    5227 WT1  208  TIP3 OH2  OT    -0.834000       15.9994           0
    5228 WT1  208  TIP3 H1   HT     0.417000        1.0080           0
    5229 WT1  208  TIP3 H2   HT     0.417000        1.0080           0
    5230 WT1  209  TIP3 OH2  OT    -0.834000       15.9994           0
    5231 WT1  209  TIP3 H1   HT     0.417000        1.0080           0
    5232 WT1  209  TIP3 H2   HT     0.417000        1.0080           0
    5233 WT1  210  TIP3 OH2  OT    -0.834000       15.9994           0
    5234 WT1  210  TIP3 H1   HT     0.417000        1.0080           0
    5235 WT1  210  TIP3 H2   HT     0.417000        1.0080           0
    5236 WT1  212  TIP3 OH2  OT    -0.834000       15.9994           0
    5237 WT1  212  TIP3 H1   HT     0.417000        1.0080           0
    5238 WT1  212  TIP3 H2   HT     0.417000        1.0080           0
    5239 WT1  213  TIP3 OH2  OT    -0.834000       15.9994           0
    5240 WT1  213  TIP3 H1   HT     0.417000        1.0080           0
    5241 WT1  213  TIP3 H2   HT     0.417000        1.0080           0
    5242 WT1  214  TIP3 OH2  OT    -0.834000       15.9994           0
    5243 WT1  214  TIP3 H1   HT     0.417000        1.0080           0
    5244 WT1  214  TIP3 H2   HT     0.417000        1.0080           0
    5245 WT1  215  TIP3 OH2  OT    -0.834000       15.9994           0
    5246 WT1  215  TIP3 H1   HT     0.417000        1.0080           0
    5247 WT1  215  TIP3 H2   HT     0.417000        1.0080           0
    5248 WT1  216  TIP3 OH2  OT    -0.834000       15.9994           0
    5249 WT1  216  TIP3 H1   HT     0.417000        1.0080           0
    5250 WT1  216  TIP3 H2   HT     0.417000        1.0080           0
    5251 WT1  217  TIP3 OH2  OT    -0.834000       15.9994           0
    5252 WT1  217  TIP3 H1   HT     0.417000        1.0080           0
    5253 WT1  217  TIP3 H2   HT     0.417000        1.0080           0
    5254 WT1  218  TIP3 OH2  OT    -0.834000       15.9994           0
    5255 WT1  218  TIP3 H1   HT     0.417000        1.0080           0
    5256 WT1  218  TIP3 H2   HT     0.417000        1.0080           0
    5257 WT1  219  TIP3 OH2  OT    -0.834000       15.9994           0
    5258 WT1  219  TIP3 H1   HT     0.417000        1.0080           0
    5259 WT1  219  TIP3 H2   HT     0.417000        1.0080           0
    5260 WT1  220  TIP3 OH2  OT    -0.834000       15.9994           0
    5261 WT1  220  TIP3 H1   HT     0.417000        1.0080           0
    5262 WT1  220  TIP3 H2   HT     0.417000        1.0080           0
    5263 WT1  221  TIP3 OH2  OT    -0.834000       15.9994           0
    5264 WT1  221  TIP3 H1   HT     0.417000        1.0080           0
    5265 WT1  221  TIP3 H2   HT     0.417000        1.0080           0
    5266 WT1  222  TIP3 OH2  OT    -0.834000       15.9994           0
    5267 WT1  222  TIP3 H1   HT     0.417000        1.0080           0
    5268 WT1  222  TIP3 H2   HT     0.417000        1.0080           0
    5269 WT1  223  TIP3 OH2  OT    -0.834000       15.9994           0
    5270 WT1  223  TIP3 H1   HT     0.417000        1.0080           0
    5271 WT1  223  TIP3 H2   HT     0.417000        1.0080           0
    5272 WT1  224  TIP3 OH2  OT    -0.834000       15.9994           0
    5273 WT1  224  TIP3 H1   HT     0.417000        1.0080           0
    5274 WT1  224  TIP3 H2   HT     0.417000        1.0080           0
    5275 WT1  225  TIP3 OH2  OT    -0.834000       15.9994           0
    5276 WT1  225  TIP3 H1   HT     0.417000        1.0080           0
    5277 WT1  225  TIP3 H2   HT     0.417000        1.0080           0
    5278 WT1  227  TIP3 OH2  OT    -0.834000       15.9994           0
    5279 WT1  227  TIP3 H1   HT     0.417000        1.0080           0
    5280 WT1  227  TIP3 H2   HT     0.417000        1.0080           0
    5281 WT1  231  TIP3 OH2  OT    -0.834000       15.9994           0
    5282 WT1  231  TIP3 H1   HT     0.417000        1.0080           0
    5283 WT1  231  TIP3 H2   HT     0.417000        1.0080           0
    5284 WT1  232  TIP3 OH2  OT    -0.834000       15.9994           0
    5285 WT1  232  TIP3 H1   HT     0.417000        1.0080           0
    5286 WT1  232  TIP3 H2   HT     0.417000        1.0080           0
    5287 WT1  233  TIP3 OH2  OT    -0.834000       15.9994           0
    5288 WT1  233  TIP3 H1   HT     0.417000        1.0080           0
    5289 WT1  233  TIP3 H2   HT     0.417000        1.0080           0
    5290 WT1  234  TIP3 OH2  OT    -0.834000       15.9994           0
    5291 WT1  234  TIP3 H1   HT     0.417000        1.0080           0
    5292 WT1  234  TIP3 H2   HT     0.417000        1.0080           0
    5293 WT1  235  TIP3 OH2  OT    -0.834000       15.9994           0
    5294 WT1  235  TIP3 H1   HT     0.417000        1.0080           0
    5295 WT1  235  TIP3 H2   HT     0.417000        1.0080           0
    5296 WT1  236  TIP3 OH2  OT    -0.834000       15.9994           0
    5297 WT1  236  TIP3 H1   HT     0.417000        1.0080           0
    5298 WT1  236  TIP3 H2   HT     0.417000        1.0080           0
    5299 WT1  237  TIP3 OH2  OT    -0.834000       15.9994           0
    5300 WT1  237  TIP3 H1   HT     0.417000        1.0080           0
    5301 WT1  237  TIP3 H2   HT     0.417000        1.0080           0
    5302 WT1  238  TIP3 OH2  OT    -0.834000       15.9994           0
    5303 WT1  238  TIP3 H1   HT     0.417000        1.0080           0
    5304 WT1  238  TIP3 H2   HT     0.417000        1.0080           0
    5305 WT1  239  TIP3 OH2  OT    -0.834000       15.9994           0
    5306 WT1  239  TIP3 H1   HT     0.417000        1.0080           0
    5307 WT1  239  TIP3 H2   HT     0.417000        1.0080           0
    5308 WT1  240  TIP3 OH2  OT    -0.834000       15.9994           0
    5309 WT1  240  TIP3 H1   HT     0.417000        1.0080           0
    5310 WT1  240  TIP3 H2   HT     0.417000        1.0080           0
    5311 WT1  241  TIP3 OH2  OT    -0.834000       15.9994           0
    5312 WT1  241  TIP3 H1   HT     0.417000        1.0080           0
    5313 WT1  241  TIP3 H2   HT     0.417000        1.0080           0
    5314 WT1  242  TIP3 OH2  OT    -0.834000       15.9994           0
    5315 WT1  242  TIP3 H1   HT     0.417000        1.0080           0
    5316 WT1  242  TIP3 H2   HT     0.417000        1.0080           0
    5317 WT1  243  TIP3 OH2  OT    -0.834000       15.9994           0
    5318 WT1  243  TIP3 H1   HT     0.417000        1.0080           0
    5319 WT1  243  TIP3 H2   HT     0.417000        1.0080           0
    5320 WT1  244  TIP3 OH2  OT    -0.834000       15.9994           0
    5321 WT1  244  TIP3 H1   HT     0.417000        1.0080           0
    5322 WT1  244  TIP3 H2   HT     0.417000        1.0080           0
    5323 WT1  245  TIP3 OH2  OT    -0.834000       15.9994           0
    5324 WT1  245  TIP3 H1   HT     0.417000        1.0080           0
    5325 WT1  245  TIP3 H2   HT     0.417000        1.0080           0
    5326 WT1  246  TIP3 OH2  OT    -0.834000       15.9994           0
    5327 WT1  246  TIP3 H1   HT     0.417000        1.0080           0
    5328 WT1  246  TIP3 H2   HT     0.417000        1.0080           0
    5329 WT1  251  TIP3 OH2  OT    -0.834000       15.9994           0
    5330 WT1  251  TIP3 H1   HT     0.417000        1.0080           0
    5331 WT1  251  TIP3 H2   HT     0.417000        1.0080           0
    5332 WT1  252  TIP3 OH2  OT    -0.834000       15.9994           0
    5333 WT1  252  TIP3 H1   HT     0.417000        1.0080           0
    5334 WT1  252  TIP3 H2   HT     0.417000        1.0080           0
    5335 WT1  253  TIP3 OH2  OT    -0.834000       15.9994           0
    5336 WT1  253  TIP3 H1   HT     0.417000        1.0080           0
    5337 WT1  253  TIP3 H2   HT     0.417000        1.0080           0
    5338 WT1  254  TIP3 OH2  OT    -0.834000       15.9994           0
    5339 WT1  254  TIP3 H1   HT     0.417000        1.0080           0
    5340 WT1  254  TIP3 H2   HT     0.417000        1.0080           0
    5341 WT1  255  TIP3 OH2  OT    -0.834000       15.9994           0
    5342 WT1  255  TIP3 H1   HT     0.417000        1.0080           0
    5343 WT1  255  TIP3 H2   HT     0.417000        1.0080           0
    5344 WT1  256  TIP3 OH2  OT    -0.834000       15.9994           0
    5345 WT1  256  TIP3 H1   HT     0.417000        1.0080           0
    5346 WT1  256  TIP3 H2   HT     0.417000        1.0080           0
    5347 WT1  258  TIP3 OH2  OT    -0.834000       15.9994           0
    5348 WT1  258  TIP3 H1   HT     0.417000        1.0080           0
    5349 WT1  258  TIP3 H2   HT     0.417000        1.0080           0
    5350 WT1  259  TIP3 OH2  OT    -0.834000       15.9994           0
    5351 WT1  259  TIP3 H1   HT     0.417000        1.0080           0
    5352 WT1  259  TIP3 H2   HT     0.417000        1.0080           0
    5353 WT1  260  TIP3 OH2  OT    -0.834000       15.9994           0
    5354 WT1  260  TIP3 H1   HT     0.417000        1.0080           0
    5355 WT1  260  TIP3 H2   HT     0.417000        1.0080           0
    5356 WT1  261  TIP3 OH2  OT    -0.834000       15.9994           0
    5357 WT1  261  TIP3 H1   HT     0.417000        1.0080           0
    5358 WT1  261  TIP3 H2   HT     0.417000        1.0080           0
    5359 WT1  262  TIP3 OH2  OT    -0.834000       15.9994           0
    5360 WT1  262  TIP3 H1   HT     0.417000        1.0080           0
    5361 WT1  262  TIP3 H2   HT     0.417000        1.0080           0
    5362 WT1  263  TIP3 OH2  OT    -0.834000       15.9994           0
    5363 WT1  263  TIP3 H1   HT     0.417000        1.0080           0
    5364 WT1  263  TIP3 H2   HT     0.417000        1.0080           0
    5365 WT1  264  TIP3 OH2  OT    -0.834000       15.9994           0
    5366 WT1  264  TIP3 H1   HT     0.417000        1.0080           0
    5367 WT1  264  TIP3 H2   HT     0.417000        1.0080           0
    5368 WT1  266  TIP3 OH2  OT    -0.834000       15.9994           0
    5369 WT1  266  TIP3 H1   HT     0.417000        1.0080           0
    5370 WT1  266  TIP3 H2   HT     0.417000        1.0080           0
    5371 WT1  267  TIP3 OH2  OT    -0.834000       15.9994           0
    5372 WT1  267  TIP3 H1   HT     0.417000        1.0080           0
    5373 WT1  267  TIP3 H2   HT     0.417000        1.0080           0
    5374 WT1  269  TIP3 OH2  OT    -0.834000       15.9994           0
    5375 WT1  269  TIP3 H1   HT     0.417000        1.0080           0
    5376 WT1  269  TIP3 H2   HT     0.417000        1.0080           0
    5377 WT1  271  TIP3 OH2  OT    -0.834000       15.9994           0
    5378 WT1  271  TIP3 H1   HT     0.417000        1.0080           0
    5379 WT1  271  TIP3 H2   HT     0.417000        1.0080           0
    5380 WT1  273  TIP3 OH2  OT    -0.834000       15.9994           0
    5381 WT1  273  TIP3 H1   HT     0.417000        1.0080           0
    5382 WT1  273  TIP3 H2   HT     0.417000        1.0080           0
    5383 WT1  275  TIP3 OH2  OT    -0.834000       15.9994           0
    5384 WT1  275  TIP3 H1   HT     0.417000        1.0080           0
    5385 WT1  275  TIP3 H2   HT     0.417000        1.0080           0
    5386 WT1  276  TIP3 OH2  OT    -0.834000       15.9994           0
    5387 WT1  276  TIP3 H1   HT     0.417000        1.0080           0
    5388 WT1  276  TIP3 H2   HT     0.417000        1.0080           0
    5389 WT1  277  TIP3 OH2  OT    -0.834000       15.9994           0
    5390 WT1  277  TIP3 H1   HT     0.417000        1.0080           0
    5391 WT1  277  TIP3 H2   HT     0.417000        1.0080           0
    5392 WT1  278  TIP3 OH2  OT    -0.834000       15.9994           0
    5393 WT1  278  TIP3 H1   HT     0.417000        1.0080           0
    5394 WT1  278  TIP3 H2   HT     0.417000        1.0080           0
    5395 WT1  279  TIP3 OH2  OT    -0.834000       15.9994           0
    5396 WT1  279  TIP3 H1   HT     0.417000        1.0080           0
    5397 WT1  279  TIP3 H2   HT     0.417000        1.0080           0
    5398 WT1  280  TIP3 OH2  OT    -0.834000       15.9994           0
    5399 WT1  280  TIP3 H1   HT     0.417000        1.0080           0
    5400 WT1  280  TIP3 H2   HT     0.417000        1.0080           0
    5401 WT1  281  TIP3 OH2  OT    -0.834000       15.9994           0
    5402 WT1  281  TIP3 H1   HT     0.417000        1.0080           0
    5403 WT1  281  TIP3 H2   HT     0.417000        1.0080           0
    5404 WT1  282  TIP3 OH2  OT    -0.834000       15.9994           0
    5405 WT1  282  TIP3 H1   HT     0.417000        1.0080           0
    5406 WT1  282  TIP3 H2   HT     0.417000        1.0080           0
    5407 WT1  283  TIP3 OH2  OT    -0.834000       15.9994           0
    5408 WT1  283  TIP3 H1   HT     0.417000        1.0080           0
    5409 WT1  283  TIP3 H2   HT     0.417000        1.0080           0
    5410 WT1  284  TIP3 OH2  OT    -0.834000       15.9994           0
    5411 WT1  284  TIP3 H1   HT     0.417000        1.0080           0
    5412 WT1  284  TIP3 H2   HT     0.417000        1.0080           0
    5413 WT1  285  TIP3 OH2  OT    -0.834000       15.9994           0
    5414 WT1  285  TIP3 H1   HT     0.417000        1.0080           0
    5415 WT1  285  TIP3 H2   HT     0.417000        1.0080           0
    5416 WT1  286  TIP3 OH2  OT    -0.834000       15.9994           0
    5417 WT1  286  TIP3 H1   HT     0.417000        1.0080           0
    5418 WT1  286  TIP3 H2   HT     0.417000        1.0080           0
    5419 WT1  287  TIP3 OH2  OT    -0.834000       15.9994           0
    5420 WT1  287  TIP3 H1   HT     0.417000        1.0080           0
    5421 WT1  287  TIP3 H2   HT     0.417000        1.0080           0
    5422 WT1  288  TIP3 OH2  OT    -0.834000       15.9994           0
    5423 WT1  288  TIP3 H1   HT     0.417000        1.0080           0
    5424 WT1  288  TIP3 H2   HT     0.417000        1.0080           0
    5425 WT1  290  TIP3 OH2  OT    -0.834000       15.9994           0
    5426 WT1  290  TIP3 H1   HT     0.417000        1.0080           0
    5427 WT1  290  TIP3 H2   HT     0.417000        1.0080           0
    5428 WT1  291  TIP3 OH2  OT    -0.834000       15.9994           0
    5429 WT1  291  TIP3 H1   HT     0.417000        1.0080           0
    5430 WT1  291  TIP3 H2   HT     0.417000        1.0080           0
    5431 WT1  293  TIP3 OH2  OT    -0.834000       15.9994           0
    5432 WT1  293  TIP3 H1   HT     0.417000        1.0080           0
    5433 WT1  293  TIP3 H2   HT     0.417000        1.0080           0
    5434 WT1  295  TIP3 OH2  OT    -0.834000       15.9994           0
    5435 WT1  295  TIP3 H1   HT     0.417000        1.0080           0
    5436 WT1  295  TIP3 H2   HT     0.417000        1.0080           0
    5437 WT1  296  TIP3 OH2  OT    -0.834000       15.9994           0
    5438 WT1  296  TIP3 H1   HT     0.417000        1.0080           0
    5439 WT1  296  TIP3 H2   HT     0.417000        1.0080           0
    5440 WT1  297  TIP3 OH2  OT    -0.834000       15.9994           0
    5441 WT1  297  TIP3 H1   HT     0.417000        1.0080           0
    5442 WT1  297  TIP3 H2   HT     0.417000        1.0080           0
    5443 WT1  298  TIP3 OH2  OT    -0.834000       15.9994           0
    5444 WT1  298  TIP3 H1   HT     0.417000        1.0080           0
    5445 WT1  298  TIP3 H2   HT     0.417000        1.0080           0
    5446 WT1  299  TIP3 OH2  OT    -0.834000       15.9994           0
    5447 WT1  299  TIP3 H1   HT     0.417000        1.0080           0
    5448 WT1  299  TIP3 H2   HT     0.417000        1.0080           0
    5449 WT1  300  TIP3 OH2  OT    -0.834000       15.9994           0
    5450 WT1  300  TIP3 H1   HT     0.417000        1.0080           0
    5451 WT1  300  TIP3 H2   HT     0.417000        1.0080           0
    5452 WT1  301  TIP3 OH2  OT    -0.834000       15.9994           0
    5453 WT1  301  TIP3 H1   HT     0.417000        1.0080           0
    5454 WT1  301  TIP3 H2   HT     0.417000        1.0080           0
    5455 WT1  302  TIP3 OH2  OT    -0.834000       15.9994           0
    5456 WT1  302  TIP3 H1   HT     0.417000        1.0080           0
    5457 WT1  302  TIP3 H2   HT     0.417000        1.0080           0
    5458 WT1  303  TIP3 OH2  OT    -0.834000       15.9994           0
    5459 WT1  303  TIP3 H1   HT     0.417000        1.0080           0
    5460 WT1  303  TIP3 H2   HT     0.417000        1.0080           0
    5461 WT1  304  TIP3 OH2  OT    -0.834000       15.9994           0
    5462 WT1  304  TIP3 H1   HT     0.417000        1.0080           0
    5463 WT1  304  TIP3 H2   HT     0.417000        1.0080           0
    5464 WT1  305  TIP3 OH2  OT    -0.834000       15.9994           0
    5465 WT1  305  TIP3 H1   HT     0.417000        1.0080           0
    5466 WT1  305  TIP3 H2   HT     0.417000        1.0080           0
    5467 WT1  306  TIP3 OH2  OT    -0.834000       15.9994           0
    5468 WT1  306  TIP3 H1   HT     0.417000        1.0080           0
    5469 WT1  306  TIP3 H2   HT     0.417000        1.0080           0
    5470 WT1  307  TIP3 OH2  OT    -0.834000       15.9994           0
    5471 WT1  307  TIP3 H1   HT     0.417000        1.0080           0
    5472 WT1  307  TIP3 H2   HT     0.417000        1.0080           0
    5473 WT1  308  TIP3 OH2  OT    -0.834000       15.9994           0
    5474 WT1  308  TIP3 H1   HT     0.417000        1.0080           0
    5475 WT1  308  TIP3 H2   HT     0.417000        1.0080           0
    5476 WT1  309  TIP3 OH2  OT    -0.834000       15.9994           0
    5477 WT1  309  TIP3 H1   HT     0.417000        1.0080           0
    5478 WT1  309  TIP3 H2   HT     0.417000        1.0080           0
    5479 WT1  310  TIP3 OH2  OT    -0.834000       15.9994           0
    5480 WT1  310  TIP3 H1   HT     0.417000        1.0080           0
    5481 WT1  310  TIP3 H2   HT     0.417000        1.0080           0
    5482 WT1  311  TIP3 OH2  OT    -0.834000       15.9994           0
    5483 WT1  311  TIP3 H1   HT     0.417000        1.0080           0
    5484 WT1  311  TIP3 H2   HT     0.417000        1.0080           0
    5485 WT1  313  TIP3 OH2  OT    -0.834000       15.9994           0
    5486 WT1  313  TIP3 H1   HT     0.417000        1.0080           0
    5487 WT1  313  TIP3 H2   HT     0.417000        1.0080           0
    5488 WT1  314  TIP3 OH2  OT    -0.834000       15.9994           0
    5489 WT1  314  TIP3 H1   HT     0.417000        1.0080           0
    5490 WT1  314  TIP3 H2   HT     0.417000        1.0080           0
    5491 WT1  316  TIP3 OH2  OT    -0.834000       15.9994           0
    5492 WT1  316  TIP3 H1   HT     0.417000        1.0080           0
    5493 WT1  316  TIP3 H2   HT     0.417000        1.0080           0
    5494 WT1  317  TIP3 OH2  OT    -0.834000       15.9994           0
    5495 WT1  317  TIP3 H1   HT     0.417000        1.0080           0
    5496 WT1  317  TIP3 H2   HT     0.417000        1.0080           0
    5497 WT1  318  TIP3 OH2  OT    -0.834000       15.9994           0
    5498 WT1  318  TIP3 H1   HT     0.417000        1.0080           0
    5499 WT1  318  TIP3 H2   HT     0.417000        1.0080           0
    5500 WT1  319  TIP3 OH2  OT    -0.834000       15.9994           0
    5501 WT1  319  TIP3 H1   HT     0.417000        1.0080           0
    5502 WT1  319  TIP3 H2   HT     0.417000        1.0080           0
    5503 WT1  320  TIP3 OH2  OT    -0.834000       15.9994           0
    5504 WT1  320  TIP3 H1   HT     0.417000        1.0080           0
    5505 WT1  320  TIP3 H2   HT     0.417000        1.0080           0
    5506 WT1  321  TIP3 OH2  OT    -0.834000       15.9994           0
    5507 WT1  321  TIP3 H1   HT     0.417000        1.0080           0
    5508 WT1  321  TIP3 H2   HT     0.417000        1.0080           0
    5509 WT1  322  TIP3 OH2  OT    -0.834000       15.9994           0
    5510 WT1  322  TIP3 H1   HT     0.417000        1.0080           0
    5511 WT1  322  TIP3 H2   HT     0.417000        1.0080           0
    5512 WT1  324  TIP3 OH2  OT    -0.834000       15.9994           0
    5513 WT1  324  TIP3 H1   HT     0.417000        1.0080           0
    5514 WT1  324  TIP3 H2   HT     0.417000        1.0080           0
    5515 WT1  325  TIP3 OH2  OT    -0.834000       15.9994           0
    5516 WT1  325  TIP3 H1   HT     0.417000        1.0080           0
    5517 WT1  325  TIP3 H2   HT     0.417000        1.0080           0
    5518 WT1  326  TIP3 OH2  OT    -0.834000       15.9994           0
    5519 WT1  326  TIP3 H1   HT     0.417000        1.0080           0
    5520 WT1  326  TIP3 H2   HT     0.417000        1.0080           0
    5521 WT1  327  TIP3 OH2  OT    -0.834000       15.9994           0
    5522 WT1  327  TIP3 H1   HT     0.417000        1.0080           0
    5523 WT1  327  TIP3 H2   HT     0.417000        1.0080           0
    5524 WT1  328  TIP3 OH2  OT    -0.834000       15.9994           0
    5525 WT1  328  TIP3 H1   HT     0.417000        1.0080           0
    5526 WT1  328  TIP3 H2   HT     0.417000        1.0080           0
    5527 WT1  329  TIP3 OH2  OT    -0.834000       15.9994           0
    5528 WT1  329  TIP3 H1   HT     0.417000        1.0080           0
    5529 WT1  329  TIP3 H2   HT     0.417000        1.0080           0
    5530 WT1  331  TIP3 OH2  OT    -0.834000       15.9994           0
    5531 WT1  331  TIP3 H1   HT     0.417000        1.0080           0
    5532 WT1  331  TIP3 H2   HT     0.417000        1.0080           0
    5533 WT1  332  TIP3 OH2  OT    -0.834000       15.9994           0
    5534 WT1  332  TIP3 H1   HT     0.417000        1.0080           0
    5535 WT1  332  TIP3 H2   HT     0.417000        1.0080           0
    5536 WT1  333  TIP3 OH2  OT    -0.834000       15.9994           0
    5537 WT1  333  TIP3 H1   HT     0.417000        1.0080           0
    5538 WT1  333  TIP3 H2   HT     0.417000        1.0080           0
    5539 WT1  334  TIP3 OH2  OT    -0.834000       15.9994           0
    5540 WT1  334  TIP3 H1   HT     0.417000        1.0080           0
    5541 WT1  334  TIP3 H2   HT     0.417000        1.0080           0
    5542 WT1  335  TIP3 OH2  OT    -0.834000       15.9994           0
    5543 WT1  335  TIP3 H1   HT     0.417000        1.0080           0
    5544 WT1  335  TIP3 H2   HT     0.417000        1.0080           0
    5545 WT1  336  TIP3 OH2  OT    -0.834000       15.9994           0
    5546 WT1  336  TIP3 H1   HT     0.417000        1.0080           0
    5547 WT1  336  TIP3 H2   HT     0.417000        1.0080           0
    5548 WT1  337  TIP3 OH2  OT    -0.834000       15.9994           0
    5549 WT1  337  TIP3 H1   HT     0.417000        1.0080           0
    5550 WT1  337  TIP3 H2   HT     0.417000        1.0080           0
    5551 WT1  338  TIP3 OH2  OT    -0.834000       15.9994           0
    5552 WT1  338  TIP3 H1   HT     0.417000        1.0080           0
    5553 WT1  338  TIP3 H2   HT     0.417000        1.0080           0
    5554 WT1  339  TIP3 OH2  OT    -0.834000       15.9994           0
    5555 WT1  339  TIP3 H1   HT     0.417000        1.0080           0
    5556 WT1  339  TIP3 H2   HT     0.417000        1.0080           0
    5557 WT1  340  TIP3 OH2  OT    -0.834000       15.9994           0
    5558 WT1  340  TIP3 H1   HT     0.417000        1.0080           0
    5559 WT1  340  TIP3 H2   HT     0.417000        1.0080           0
    5560 WT1  341  TIP3 OH2  OT    -0.834000       15.9994           0
    5561 WT1  341  TIP3 H1   HT     0.417000        1.0080           0
    5562 WT1  341  TIP3 H2   HT     0.417000        1.0080           0
    5563 WT1  342  TIP3 OH2  OT    -0.834000       15.9994           0
    5564 WT1  342  TIP3 H1   HT     0.417000        1.0080           0
    5565 WT1  342  TIP3 H2   HT     0.417000        1.0080           0
    5566 WT1  343  TIP3 OH2  OT    -0.834000       15.9994           0
    5567 WT1  343  TIP3 H1   HT     0.417000        1.0080           0
    5568 WT1  343  TIP3 H2   HT     0.417000        1.0080           0
    5569 WT1  344  TIP3 OH2  OT    -0.834000       15.9994           0
    5570 WT1  344  TIP3 H1   HT     0.417000        1.0080           0
    5571 WT1  344  TIP3 H2   HT     0.417000        1.0080           0
    5572 WT1  345  TIP3 OH2  OT    -0.834000       15.9994           0
    5573 WT1  345  TIP3 H1   HT     0.417000        1.0080           0
    5574 WT1  345  TIP3 H2   HT     0.417000        1.0080           0
    5575 WT1  346  TIP3 OH2  OT    -0.834000       15.9994           0
    5576 WT1  346  TIP3 H1   HT     0.417000        1.0080           0
    5577 WT1  346  TIP3 H2   HT     0.417000        1.0080           0
    5578 WT1  347  TIP3 OH2  OT    -0.834000       15.9994           0
    5579 WT1  347  TIP3 H1   HT     0.417000        1.0080           0
    5580 WT1  347  TIP3 H2   HT     0.417000        1.0080           0
    5581 WT1  348  TIP3 OH2  OT    -0.834000       15.9994           0
    5582 WT1  348  TIP3 H1   HT     0.417000        1.0080           0
    5583 WT1  348  TIP3 H2   HT     0.417000        1.0080           0
    5584 WT1  349  TIP3 OH2  OT    -0.834000       15.9994           0
    5585 WT1  349  TIP3 H1   HT     0.417000        1.0080           0
    5586 WT1  349  TIP3 H2   HT     0.417000        1.0080           0
    5587 WT1  350  TIP3 OH2  OT    -0.834000       15.9994           0
    5588 WT1  350  TIP3 H1   HT     0.417000        1.0080           0
    5589 WT1  350  TIP3 H2   HT     0.417000        1.0080           0
    5590 WT1  354  TIP3 OH2  OT    -0.834000       15.9994           0
    5591 WT1  354  TIP3 H1   HT     0.417000        1.0080           0
    5592 WT1  354  TIP3 H2   HT     0.417000        1.0080           0
    5593 WT1  356  TIP3 OH2  OT    -0.834000       15.9994           0
    5594 WT1  356  TIP3 H1   HT     0.417000        1.0080           0
    5595 WT1  356  TIP3 H2   HT     0.417000        1.0080           0
    5596 WT1  358  TIP3 OH2  OT    -0.834000       15.9994           0
    5597 WT1  358  TIP3 H1   HT     0.417000        1.0080           0
    5598 WT1  358  TIP3 H2   HT     0.417000        1.0080           0
    5599 WT1  359  TIP3 OH2  OT    -0.834000       15.9994           0
    5600 WT1  359  TIP3 H1   HT     0.417000        1.0080           0
    5601 WT1  359  TIP3 H2   HT     0.417000        1.0080           0
    5602 WT1  360  TIP3 OH2  OT    -0.834000       15.9994           0
    5603 WT1  360  TIP3 H1   HT     0.417000        1.0080           0
    5604 WT1  360  TIP3 H2   HT     0.417000        1.0080           0
    5605 WT1  361  TIP3 OH2  OT    -0.834000       15.9994           0
    5606 WT1  361  TIP3 H1   HT     0.417000        1.0080           0
    5607 WT1  361  TIP3 H2   HT     0.417000        1.0080           0
    5608 WT1  362  TIP3 OH2  OT    -0.834000       15.9994           0
    5609 WT1  362  TIP3 H1   HT     0.417000        1.0080           0
    5610 WT1  362  TIP3 H2   HT     0.417000        1.0080           0
    5611 WT1  363  TIP3 OH2  OT    -0.834000       15.9994           0
    5612 WT1  363  TIP3 H1   HT     0.417000        1.0080           0
    5613 WT1  363  TIP3 H2   HT     0.417000        1.0080           0
    5614 WT1  364  TIP3 OH2  OT    -0.834000       15.9994           0
    5615 WT1  364  TIP3 H1   HT     0.417000        1.0080           0
    5616 WT1  364  TIP3 H2   HT     0.417000        1.0080           0
    5617 WT1  365  TIP3 OH2  OT    -0.834000       15.9994           0
    5618 WT1  365  TIP3 H1   HT     0.417000        1.0080           0
    5619 WT1  365  TIP3 H2   HT     0.417000        1.0080           0
    5620 WT1  366  TIP3 OH2  OT    -0.834000       15.9994           0
    5621 WT1  366  TIP3 H1   HT     0.417000        1.0080           0
    5622 WT1  366  TIP3 H2   HT     0.417000        1.0080           0
    5623 WT1  367  TIP3 OH2  OT    -0.834000       15.9994           0
    5624 WT1  367  TIP3 H1   HT     0.417000        1.0080           0
    5625 WT1  367  TIP3 H2   HT     0.417000        1.0080           0
    5626 WT1  368  TIP3 OH2  OT    -0.834000       15.9994           0
    5627 WT1  368  TIP3 H1   HT     0.417000        1.0080           0
    5628 WT1  368  TIP3 H2   HT     0.417000        1.0080           0
    5629 WT1  369  TIP3 OH2  OT    -0.834000       15.9994           0
    5630 WT1  369  TIP3 H1   HT     0.417000        1.0080           0
    5631 WT1  369  TIP3 H2   HT     0.417000        1.0080           0
    5632 WT1  370  TIP3 OH2  OT    -0.834000       15.9994           0
    5633 WT1  370  TIP3 H1   HT     0.417000        1.0080           0
    5634 WT1  370  TIP3 H2   HT     0.417000        1.0080           0
    5635 WT1  371  TIP3 OH2  OT    -0.834000       15.9994           0
    5636 WT1  371  TIP3 H1   HT     0.417000        1.0080           0
    5637 WT1  371  TIP3 H2   HT     0.417000        1.0080           0
    5638 WT1  372  TIP3 OH2  OT    -0.834000       15.9994           0
    5639 WT1  372  TIP3 H1   HT     0.417000        1.0080           0
    5640 WT1  372  TIP3 H2   HT     0.417000        1.0080           0
    5641 WT1  373  TIP3 OH2  OT    -0.834000       15.9994           0
    5642 WT1  373  TIP3 H1   HT     0.417000        1.0080           0
    5643 WT1  373  TIP3 H2   HT     0.417000        1.0080           0
    5644 WT1  375  TIP3 OH2  OT    -0.834000       15.9994           0
    5645 WT1  375  TIP3 H1   HT     0.417000        1.0080           0
    5646 WT1  375  TIP3 H2   HT     0.417000        1.0080           0
    5647 WT1  376  TIP3 OH2  OT    -0.834000       15.9994           0
    5648 WT1  376  TIP3 H1   HT     0.417000        1.0080           0
    5649 WT1  376  TIP3 H2   HT     0.417000        1.0080           0
    5650 WT1  378  TIP3 OH2  OT    -0.834000       15.9994           0
    5651 WT1  378  TIP3 H1   HT     0.417000        1.0080           0
    5652 WT1  378  TIP3 H2   HT     0.417000        1.0080           0
    5653 WT1  379  TIP3 OH2  OT    -0.834000       15.9994           0
    5654 WT1  379  TIP3 H1   HT     0.417000        1.0080           0
    5655 WT1  379  TIP3 H2   HT     0.417000        1.0080           0
    5656 WT1  380  TIP3 OH2  OT    -0.834000       15.9994           0
    5657 WT1  380  TIP3 H1   HT     0.417000        1.0080           0
    5658 WT1  380  TIP3 H2   HT     0.417000        1.0080           0
    5659 WT1  381  TIP3 OH2  OT    -0.834000       15.9994           0
    5660 WT1  381  TIP3 H1   HT     0.417000        1.0080           0
    5661 WT1  381  TIP3 H2   HT     0.417000        1.0080           0
    5662 WT1  382  TIP3 OH2  OT    -0.834000       15.9994           0
    5663 WT1  382  TIP3 H1   HT     0.417000        1.0080           0
    5664 WT1  382  TIP3 H2   HT     0.417000        1.0080           0
    5665 WT1  383  TIP3 OH2  OT    -0.834000       15.9994           0
    5666 WT1  383  TIP3 H1   HT     0.417000        1.0080           0
    5667 WT1  383  TIP3 H2   HT     0.417000        1.0080           0
    5668 WT1  384  TIP3 OH2  OT    -0.834000       15.9994           0
    5669 WT1  384  TIP3 H1   HT     0.417000        1.0080           0
    5670 WT1  384  TIP3 H2   HT     0.417000        1.0080           0
    5671 WT1  385  TIP3 OH2  OT    -0.834000       15.9994           0
    5672 WT1  385  TIP3 H1   HT     0.417000        1.0080           0
    5673 WT1  385  TIP3 H2   HT     0.417000        1.0080           0
    5674 WT1  386  TIP3 OH2  OT    -0.834000       15.9994           0
    5675 WT1  386  TIP3 H1   HT     0.417000        1.0080           0
    5676 WT1  386  TIP3 H2   HT     0.417000        1.0080           0
    5677 WT1  387  TIP3 OH2  OT    -0.834000       15.9994           0
    5678 WT1  387  TIP3 H1   HT     0.417000        1.0080           0
    5679 WT1  387  TIP3 H2   HT     0.417000        1.0080           0
    5680 WT1  388  TIP3 OH2  OT    -0.834000       15.9994           0
    5681 WT1  388  TIP3 H1   HT     0.417000        1.0080           0
    5682 WT1  388  TIP3 H2   HT     0.417000        1.0080           0
    5683 WT1  389  TIP3 OH2  OT    -0.834000       15.9994           0
    5684 WT1  389  TIP3 H1   HT     0.417000        1.0080           0
    5685 WT1  389  TIP3 H2   HT     0.417000        1.0080           0
    5686 WT1  390  TIP3 OH2  OT    -0.834000       15.9994           0
    5687 WT1  390  TIP3 H1   HT     0.417000        1.0080           0
    5688 WT1  390  TIP3 H2   HT     0.417000        1.0080           0
    5689 WT1  391  TIP3 OH2  OT    -0.834000       15.9994           0
    5690 WT1  391  TIP3 H1   HT     0.417000        1.0080           0
    5691 WT1  391  TIP3 H2   HT     0.417000        1.0080           0
    5692 WT1  392  TIP3 OH2  OT    -0.834000       15.9994           0
    5693 WT1  392  TIP3 H1   HT     0.417000        1.0080           0
    5694 WT1  392  TIP3 H2   HT     0.417000        1.0080           0
    5695 WT1  393  TIP3 OH2  OT    -0.834000       15.9994           0
    5696 WT1  393  TIP3 H1   HT     0.417000        1.0080           0
    5697 WT1  393  TIP3 H2   HT     0.417000        1.0080           0
    5698 WT1  394  TIP3 OH2  OT    -0.834000       15.9994           0
    5699 WT1  394  TIP3 H1   HT     0.417000        1.0080           0
    5700 WT1  394  TIP3 H2   HT     0.417000        1.0080           0
    5701 WT1  396  TIP3 OH2  OT    -0.834000       15.9994           0
    5702 WT1  396  TIP3 H1   HT     0.417000        1.0080           0
    5703 WT1  396  TIP3 H2   HT     0.417000        1.0080           0
    5704 WT1  397  TIP3 OH2  OT    -0.834000       15.9994           0
    5705 WT1  397  TIP3 H1   HT     0.417000        1.0080           0
    5706 WT1  397  TIP3 H2   HT     0.417000        1.0080           0
    5707 WT1  399  TIP3 OH2  OT    -0.834000       15.9994           0
    5708 WT1  399  TIP3 H1   HT     0.417000        1.0080           0
    5709 WT1  399  TIP3 H2   HT     0.417000        1.0080           0
    5710 WT1  401  TIP3 OH2  OT    -0.834000       15.9994           0
    5711 WT1  401  TIP3 H1   HT     0.417000        1.0080           0
    5712 WT1  401  TIP3 H2   HT     0.417000        1.0080           0
    5713 WT1  402  TIP3 OH2  OT    -0.834000       15.9994           0
    5714 WT1  402  TIP3 H1   HT     0.417000        1.0080           0
    5715 WT1  402  TIP3 H2   HT     0.417000        1.0080           0
    5716 WT1  403  TIP3 OH2  OT    -0.834000       15.9994           0
    5717 WT1  403  TIP3 H1   HT     0.417000        1.0080           0
    5718 WT1  403  TIP3 H2   HT     0.417000        1.0080           0
    5719 WT1  404  TIP3 OH2  OT    -0.834000       15.9994           0
    5720 WT1  404  TIP3 H1   HT     0.417000        1.0080           0
    5721 WT1  404  TIP3 H2   HT     0.417000        1.0080           0
    5722 WT1  405  TIP3 OH2  OT    -0.834000       15.9994           0
    5723 WT1  405  TIP3 H1   HT     0.417000        1.0080           0
    5724 WT1  405  TIP3 H2   HT     0.417000        1.0080           0
    5725 WT1  406  TIP3 OH2  OT    -0.834000       15.9994           0
    5726 WT1  406  TIP3 H1   HT     0.417000        1.0080           0
    5727 WT1  406  TIP3 H2   HT     0.417000        1.0080           0
    5728 WT1  407  TIP3 OH2  OT    -0.834000       15.9994           0
    5729 WT1  407  TIP3 H1   HT     0.417000        1.0080           0
    5730 WT1  407  TIP3 H2   HT     0.417000        1.0080           0
    5731 WT1  408  TIP3 OH2  OT    -0.834000       15.9994           0
    5732 WT1  408  TIP3 H1   HT     0.417000        1.0080           0
    5733 WT1  408  TIP3 H2   HT     0.417000        1.0080           0
    5734 WT1  410  TIP3 OH2  OT    -0.834000       15.9994           0
    5735 WT1  410  TIP3 H1   HT     0.417000        1.0080           0
    5736 WT1  410  TIP3 H2   HT     0.417000        1.0080           0
    5737 WT1  411  TIP3 OH2  OT    -0.834000       15.9994           0
    5738 WT1  411  TIP3 H1   HT     0.417000        1.0080           0
    5739 WT1  411  TIP3 H2   HT     0.417000        1.0080           0
    5740 WT1  412  TIP3 OH2  OT    -0.834000       15.9994           0
    5741 WT1  412  TIP3 H1   HT     0.417000        1.0080           0
    5742 WT1  412  TIP3 H2   HT     0.417000        1.0080           0
    5743 WT1  414  TIP3 OH2  OT    -0.834000       15.9994           0
    5744 WT1  414  TIP3 H1   HT     0.417000        1.0080           0
    5745 WT1  414  TIP3 H2   HT     0.417000        1.0080           0
    5746 WT1  415  TIP3 OH2  OT    -0.834000       15.9994           0
    5747 WT1  415  TIP3 H1   HT     0.417000        1.0080           0
    5748 WT1  415  TIP3 H2   HT     0.417000        1.0080           0
    5749 WT1  419  TIP3 OH2  OT    -0.834000       15.9994           0
    5750 WT1  419  TIP3 H1   HT     0.417000        1.0080           0
    5751 WT1  419  TIP3 H2   HT     0.417000        1.0080           0
    5752 WT1  420  TIP3 OH2  OT    -0.834000       15.9994           0
    5753 WT1  420  TIP3 H1   HT     0.417000        1.0080           0
    5754 WT1  420  TIP3 H2   HT     0.417000        1.0080           0
    5755 WT1  421  TIP3 OH2  OT    -0.834000       15.9994           0
    5756 WT1  421  TIP3 H1   HT     0.417000        1.0080           0
    5757 WT1  421  TIP3 H2   HT     0.417000        1.0080           0
    5758 WT1  422  TIP3 OH2  OT    -0.834000       15.9994           0
    5759 WT1  422  TIP3 H1   HT     0.417000        1.0080           0
    5760 WT1  422  TIP3 H2   HT     0.417000        1.0080           0
    5761 WT1  423  TIP3 OH2  OT    -0.834000       15.9994           0
    5762 WT1  423  TIP3 H1   HT     0.417000        1.0080           0
    5763 WT1  423  TIP3 H2   HT     0.417000        1.0080           0
    5764 WT1  424  TIP3 OH2  OT    -0.834000       15.9994           0
    5765 WT1  424  TIP3 H1   HT     0.417000        1.0080           0
    5766 WT1  424  TIP3 H2   HT     0.417000        1.0080           0
    5767 WT1  425  TIP3 OH2  OT    -0.834000       15.9994           0
    5768 WT1  425  TIP3 H1   HT     0.417000        1.0080           0
    5769 WT1  425  TIP3 H2   HT     0.417000        1.0080           0
    5770 WT1  426  TIP3 OH2  OT    -0.834000       15.9994           0
    5771 WT1  426  TIP3 H1   HT     0.417000        1.0080           0
    5772 WT1  426  TIP3 H2   HT     0.417000        1.0080           0
    5773 WT1  427  TIP3 OH2  OT    -0.834000       15.9994           0
    5774 WT1  427  TIP3 H1   HT     0.417000        1.0080           0
    5775 WT1  427  TIP3 H2   HT     0.417000        1.0080           0
    5776 WT1  428  TIP3 OH2  OT    -0.834000       15.9994           0
    5777 WT1  428  TIP3 H1   HT     0.417000        1.0080           0
    5778 WT1  428  TIP3 H2   HT     0.417000        1.0080           0
    5779 WT1  429  TIP3 OH2  OT    -0.834000       15.9994           0
    5780 WT1  429  TIP3 H1   HT     0.417000        1.0080           0
    5781 WT1  429  TIP3 H2   HT     0.417000        1.0080           0
    5782 WT1  430  TIP3 OH2  OT    -0.834000       15.9994           0
    5783 WT1  430  TIP3 H1   HT     0.417000        1.0080           0
    5784 WT1  430  TIP3 H2   HT     0.417000        1.0080           0
    5785 WT1  431  TIP3 OH2  OT    -0.834000       15.9994           0
    5786 WT1  431  TIP3 H1   HT     0.417000        1.0080           0
    5787 WT1  431  TIP3 H2   HT     0.417000        1.0080           0
    5788 WT1  432  TIP3 OH2  OT    -0.834000       15.9994           0
    5789 WT1  432  TIP3 H1   HT     0.417000        1.0080           0
    5790 WT1  432  TIP3 H2   HT     0.417000        1.0080           0
    5791 WT1  433  TIP3 OH2  OT    -0.834000       15.9994           0
    5792 WT1  433  TIP3 H1   HT     0.417000        1.0080           0
    5793 WT1  433  TIP3 H2   HT     0.417000        1.0080           0
    5794 WT1  434  TIP3 OH2  OT    -0.834000       15.9994           0
    5795 WT1  434  TIP3 H1   HT     0.417000        1.0080           0
    5796 WT1  434  TIP3 H2   HT     0.417000        1.0080           0
    5797 WT1  435  TIP3 OH2  OT    -0.834000       15.9994           0
    5798 WT1  435  TIP3 H1   HT     0.417000        1.0080           0
    5799 WT1  435  TIP3 H2   HT     0.417000        1.0080           0
    5800 WT1  436  TIP3 OH2  OT    -0.834000       15.9994           0
    5801 WT1  436  TIP3 H1   HT     0.417000        1.0080           0
    5802 WT1  436  TIP3 H2   HT     0.417000        1.0080           0
    5803 WT1  437  TIP3 OH2  OT    -0.834000       15.9994           0
    5804 WT1  437  TIP3 H1   HT     0.417000        1.0080           0
    5805 WT1  437  TIP3 H2   HT     0.417000        1.0080           0
    5806 WT1  438  TIP3 OH2  OT    -0.834000       15.9994           0
    5807 WT1  438  TIP3 H1   HT     0.417000        1.0080           0
    5808 WT1  438  TIP3 H2   HT     0.417000        1.0080           0
    5809 WT1  439  TIP3 OH2  OT    -0.834000       15.9994           0
    5810 WT1  439  TIP3 H1   HT     0.417000        1.0080           0
    5811 WT1  439  TIP3 H2   HT     0.417000        1.0080           0
    5812 WT1  441  TIP3 OH2  OT    -0.834000       15.9994           0
    5813 WT1  441  TIP3 H1   HT     0.417000        1.0080           0
    5814 WT1  441  TIP3 H2   HT     0.417000        1.0080           0
    5815 WT1  442  TIP3 OH2  OT    -0.834000       15.9994           0
    5816 WT1  442  TIP3 H1   HT     0.417000        1.0080           0
    5817 WT1  442  TIP3 H2   HT     0.417000        1.0080           0
    5818 WT1  443  TIP3 OH2  OT    -0.834000       15.9994           0
    5819 WT1  443  TIP3 H1   HT     0.417000        1.0080           0
    5820 WT1  443  TIP3 H2   HT     0.417000        1.0080           0
    5821 WT1  444  TIP3 OH2  OT    -0.834000       15.9994           0
    5822 WT1  444  TIP3 H1   HT     0.417000        1.0080           0
    5823 WT1  444  TIP3 H2   HT     0.417000        1.0080           0
    5824 WT1  446  TIP3 OH2  OT    -0.834000       15.9994           0
    5825 WT1  446  TIP3 H1   HT     0.417000        1.0080           0
    5826 WT1  446  TIP3 H2   HT     0.417000        1.0080           0
    5827 WT1  447  TIP3 OH2  OT    -0.834000       15.9994           0
    5828 WT1  447  TIP3 H1   HT     0.417000        1.0080           0
    5829 WT1  447  TIP3 H2   HT     0.417000        1.0080           0
    5830 WT1  448  TIP3 OH2  OT    -0.834000       15.9994           0
    5831 WT1  448  TIP3 H1   HT     0.417000        1.0080           0
    5832 WT1  448  TIP3 H2   HT     0.417000        1.0080           0
    5833 WT1  450  TIP3 OH2  OT    -0.834000       15.9994           0
    5834 WT1  450  TIP3 H1   HT     0.417000        1.0080           0
    5835 WT1  450  TIP3 H2   HT     0.417000        1.0080           0
    5836 WT1  451  TIP3 OH2  OT    -0.834000       15.9994           0
    5837 WT1  451  TIP3 H1   HT     0.417000        1.0080           0
    5838 WT1  451  TIP3 H2   HT     0.417000        1.0080           0
    5839 WT1  452  TIP3 OH2  OT    -0.834000       15.9994           0
    5840 WT1  452  TIP3 H1   HT     0.417000        1.0080           0
    5841 WT1  452  TIP3 H2   HT     0.417000        1.0080           0
    5842 WT1  453  TIP3 OH2  OT    -0.834000       15.9994           0
    5843 WT1  453  TIP3 H1   HT     0.417000        1.0080           0
    5844 WT1  453  TIP3 H2   HT     0.417000        1.0080           0
    5845 WT1  454  TIP3 OH2  OT    -0.834000       15.9994           0
    5846 WT1  454  TIP3 H1   HT     0.417000        1.0080           0
    5847 WT1  454  TIP3 H2   HT     0.417000        1.0080           0
    5848 WT1  455  TIP3 OH2  OT    -0.834000       15.9994           0
    5849 WT1  455  TIP3 H1   HT     0.417000        1.0080           0
    5850 WT1  455  TIP3 H2   HT     0.417000        1.0080           0
    5851 WT1  456  TIP3 OH2  OT    -0.834000       15.9994           0
    5852 WT1  456  TIP3 H1   HT     0.417000        1.0080           0
    5853 WT1  456  TIP3 H2   HT     0.417000        1.0080           0
    5854 WT1  457  TIP3 OH2  OT    -0.834000       15.9994           0
    5855 WT1  457  TIP3 H1   HT     0.417000        1.0080           0
    5856 WT1  457  TIP3 H2   HT     0.417000        1.0080           0
    5857 WT1  458  TIP3 OH2  OT    -0.834000       15.9994           0
    5858 WT1  458  TIP3 H1   HT     0.417000        1.0080           0
    5859 WT1  458  TIP3 H2   HT     0.417000        1.0080           0
    5860 WT1  459  TIP3 OH2  OT    -0.834000       15.9994           0
    5861 WT1  459  TIP3 H1   HT     0.417000        1.0080           0
    5862 WT1  459  TIP3 H2   HT     0.417000        1.0080           0
    5863 WT1  460  TIP3 OH2  OT    -0.834000       15.9994           0
    5864 WT1  460  TIP3 H1   HT     0.417000        1.0080           0
    5865 WT1  460  TIP3 H2   HT     0.417000        1.0080           0
    5866 WT1  461  TIP3 OH2  OT    -0.834000       15.9994           0
    5867 WT1  461  TIP3 H1   HT     0.417000        1.0080           0
    5868 WT1  461  TIP3 H2   HT     0.417000        1.0080           0
    5869 WT1  463  TIP3 OH2  OT    -0.834000       15.9994           0
    5870 WT1  463  TIP3 H1   HT     0.417000        1.0080           0
    5871 WT1  463  TIP3 H2   HT     0.417000        1.0080           0
    5872 WT1  464  TIP3 OH2  OT    -0.834000       15.9994           0
    5873 WT1  464  TIP3 H1   HT     0.417000        1.0080           0
    5874 WT1  464  TIP3 H2   HT     0.417000        1.0080           0
    5875 WT1  465  TIP3 OH2  OT    -0.834000       15.9994           0
    5876 WT1  465  TIP3 H1   HT     0.417000        1.0080           0
    5877 WT1  465  TIP3 H2   HT     0.417000        1.0080           0
    5878 WT1  466  TIP3 OH2  OT    -0.834000       15.9994           0
    5879 WT1  466  TIP3 H1   HT     0.417000        1.0080           0
    5880 WT1  466  TIP3 H2   HT     0.417000        1.0080           0
    5881 WT1  467  TIP3 OH2  OT    -0.834000       15.9994           0
    5882 WT1  467  TIP3 H1   HT     0.417000        1.0080           0
    5883 WT1  467  TIP3 H2   HT     0.417000        1.0080           0
    5884 WT1  468  TIP3 OH2  OT    -0.834000       15.9994           0
    5885 WT1  468  TIP3 H1   HT     0.417000        1.0080           0
    5886 WT1  468  TIP3 H2   HT     0.417000        1.0080           0
    5887 WT1  469  TIP3 OH2  OT    -0.834000       15.9994           0
    5888 WT1  469  TIP3 H1   HT     0.417000        1.0080           0
    5889 WT1  469  TIP3 H2   HT     0.417000        1.0080           0
    5890 WT1  470  TIP3 OH2  OT    -0.834000       15.9994           0
    5891 WT1  470  TIP3 H1   HT     0.417000        1.0080           0
    5892 WT1  470  TIP3 H2   HT     0.417000        1.0080           0
    5893 WT1  471  TIP3 OH2  OT    -0.834000       15.9994           0
    5894 WT1  471  TIP3 H1   HT     0.417000        1.0080           0
    5895 WT1  471  TIP3 H2   HT     0.417000        1.0080           0
    5896 WT1  472  TIP3 OH2  OT    -0.834000       15.9994           0
    5897 WT1  472  TIP3 H1   HT     0.417000        1.0080           0
    5898 WT1  472  TIP3 H2   HT     0.417000        1.0080           0
    5899 WT1  473  TIP3 OH2  OT    -0.834000       15.9994           0
    5900 WT1  473  TIP3 H1   HT     0.417000        1.0080           0
    5901 WT1  473  TIP3 H2   HT     0.417000        1.0080           0
    5902 WT1  474  TIP3 OH2  OT    -0.834000       15.9994           0
    5903 WT1  474  TIP3 H1   HT     0.417000        1.0080           0
    5904 WT1  474  TIP3 H2   HT     0.417000        1.0080           0
    5905 WT1  475  TIP3 OH2  OT    -0.834000       15.9994           0
    5906 WT1  475  TIP3 H1   HT     0.417000        1.0080           0
    5907 WT1  475  TIP3 H2   HT     0.417000        1.0080           0
    5908 WT1  476  TIP3 OH2  OT    -0.834000       15.9994           0
    5909 WT1  476  TIP3 H1   HT     0.417000        1.0080           0
    5910 WT1  476  TIP3 H2   HT     0.417000        1.0080           0
    5911 WT1  477  TIP3 OH2  OT    -0.834000       15.9994           0
    5912 WT1  477  TIP3 H1   HT     0.417000        1.0080           0
    5913 WT1  477  TIP3 H2   HT     0.417000        1.0080           0
    5914 WT1  478  TIP3 OH2  OT    -0.834000       15.9994           0
    5915 WT1  478  TIP3 H1   HT     0.417000        1.0080           0
    5916 WT1  478  TIP3 H2   HT     0.417000        1.0080           0
    5917 WT1  479  TIP3 OH2  OT    -0.834000       15.9994           0
    5918 WT1  479  TIP3 H1   HT     0.417000        1.0080           0
    5919 WT1  479  TIP3 H2   HT     0.417000        1.0080           0
    5920 WT1  480  TIP3 OH2  OT    -0.834000       15.9994           0
    5921 WT1  480  TIP3 H1   HT     0.417000        1.0080           0
    5922 WT1  480  TIP3 H2   HT     0.417000        1.0080           0
    5923 WT1  481  TIP3 OH2  OT    -0.834000       15.9994           0
    5924 WT1  481  TIP3 H1   HT     0.417000        1.0080           0
    5925 WT1  481  TIP3 H2   HT     0.417000        1.0080           0
    5926 WT1  482  TIP3 OH2  OT    -0.834000       15.9994           0
    5927 WT1  482  TIP3 H1   HT     0.417000        1.0080           0
    5928 WT1  482  TIP3 H2   HT     0.417000        1.0080           0
    5929 WT1  483  TIP3 OH2  OT    -0.834000       15.9994           0
    5930 WT1  483  TIP3 H1   HT     0.417000        1.0080           0
    5931 WT1  483  TIP3 H2   HT     0.417000        1.0080           0
    5932 WT1  484  TIP3 OH2  OT    -0.834000       15.9994           0
    5933 WT1  484  TIP3 H1   HT     0.417000        1.0080           0
    5934 WT1  484  TIP3 H2   HT     0.417000        1.0080           0
    5935 WT1  485  TIP3 OH2  OT    -0.834000       15.9994           0
    5936 WT1  485  TIP3 H1   HT     0.417000        1.0080           0
    5937 WT1  485  TIP3 H2   HT     0.417000        1.0080           0
    5938 WT1  486  TIP3 OH2  OT    -0.834000       15.9994           0
    5939 WT1  486  TIP3 H1   HT     0.417000        1.0080           0
    5940 WT1  486  TIP3 H2   HT     0.417000        1.0080           0
    5941 WT1  487  TIP3 OH2  OT    -0.834000       15.9994           0
    5942 WT1  487  TIP3 H1   HT     0.417000        1.0080           0
    5943 WT1  487  TIP3 H2   HT     0.417000        1.0080           0
    5944 WT1  488  TIP3 OH2  OT    -0.834000       15.9994           0
    5945 WT1  488  TIP3 H1   HT     0.417000        1.0080           0
    5946 WT1  488  TIP3 H2   HT     0.417000        1.0080           0
    5947 WT1  489  TIP3 OH2  OT    -0.834000       15.9994           0
    5948 WT1  489  TIP3 H1   HT     0.417000        1.0080           0
    5949 WT1  489  TIP3 H2   HT     0.417000        1.0080           0
    5950 WT1  490  TIP3 OH2  OT    -0.834000       15.9994           0
    5951 WT1  490  TIP3 H1   HT     0.417000        1.0080           0
    5952 WT1  490  TIP3 H2   HT     0.417000        1.0080           0
    5953 WT1  491  TIP3 OH2  OT    -0.834000       15.9994           0
    5954 WT1  491  TIP3 H1   HT     0.417000        1.0080           0
    5955 WT1  491  TIP3 H2   HT     0.417000        1.0080           0
    5956 WT1  492  TIP3 OH2  OT    -0.834000       15.9994           0
    5957 WT1  492  TIP3 H1   HT     0.417000        1.0080           0
    5958 WT1  492  TIP3 H2   HT     0.417000        1.0080           0
    5959 WT1  493  TIP3 OH2  OT    -0.834000       15.9994           0
    5960 WT1  493  TIP3 H1   HT     0.417000        1.0080           0
    5961 WT1  493  TIP3 H2   HT     0.417000        1.0080           0
    5962 WT1  494  TIP3 OH2  OT    -0.834000       15.9994           0
    5963 WT1  494  TIP3 H1   HT     0.417000        1.0080           0
    5964 WT1  494  TIP3 H2   HT     0.417000        1.0080           0
    5965 WT1  495  TIP3 OH2  OT    -0.834000       15.9994           0
    5966 WT1  495  TIP3 H1   HT     0.417000        1.0080           0
    5967 WT1  495  TIP3 H2   HT     0.417000        1.0080           0
    5968 WT1  496  TIP3 OH2  OT    -0.834000       15.9994           0
    5969 WT1  496  TIP3 H1   HT     0.417000        1.0080           0
    5970 WT1  496  TIP3 H2   HT     0.417000        1.0080           0
    5971 WT1  498  TIP3 OH2  OT    -0.834000       15.9994           0
    5972 WT1  498  TIP3 H1   HT     0.417000        1.0080           0
    5973 WT1  498  TIP3 H2   HT     0.417000        1.0080           0
    5974 WT1  499  TIP3 OH2  OT    -0.834000       15.9994           0
    5975 WT1  499  TIP3 H1   HT     0.417000        1.0080           0
    5976 WT1  499  TIP3 H2   HT     0.417000        1.0080           0
    5977 WT1  500  TIP3 OH2  OT    -0.834000       15.9994           0
    5978 WT1  500  TIP3 H1   HT     0.417000        1.0080           0
    5979 WT1  500  TIP3 H2   HT     0.417000        1.0080           0
    5980 WT1  502  TIP3 OH2  OT    -0.834000       15.9994           0
    5981 WT1  502  TIP3 H1   HT     0.417000        1.0080           0
    5982 WT1  502  TIP3 H2   HT     0.417000        1.0080           0
    5983 WT1  503  TIP3 OH2  OT    -0.834000       15.9994           0
    5984 WT1  503  TIP3 H1   HT     0.417000        1.0080           0
    5985 WT1  503  TIP3 H2   HT     0.417000        1.0080           0
    5986 WT1  504  TIP3 OH2  OT    -0.834000       15.9994           0
    5987 WT1  504  TIP3 H1   HT     0.417000        1.0080           0
    5988 WT1  504  TIP3 H2   HT     0.417000        1.0080           0
    5989 WT1  505  TIP3 OH2  OT    -0.834000       15.9994           0
    5990 WT1  505  TIP3 H1   HT     0.417000        1.0080           0
    5991 WT1  505  TIP3 H2   HT     0.417000        1.0080           0
    5992 WT1  506  TIP3 OH2  OT    -0.834000       15.9994           0
    5993 WT1  506  TIP3 H1   HT     0.417000        1.0080           0
    5994 WT1  506  TIP3 H2   HT     0.417000        1.0080           0
    5995 WT1  507  TIP3 OH2  OT    -0.834000       15.9994           0
    5996 WT1  507  TIP3 H1   HT     0.417000        1.0080           0
    5997 WT1  507  TIP3 H2   HT     0.417000        1.0080           0
    5998 WT1  508  TIP3 OH2  OT    -0.834000       15.9994           0
    5999 WT1  508  TIP3 H1   HT     0.417000        1.0080           0
    6000 WT1  508  TIP3 H2   HT     0.417000        1.0080           0
    6001 WT1  509  TIP3 OH2  OT    -0.834000       15.9994           0
    6002 WT1  509  TIP3 H1   HT     0.417000        1.0080           0
    6003 WT1  509  TIP3 H2   HT     0.417000        1.0080           0
    6004 WT1  510  TIP3 OH2  OT    -0.834000       15.9994           0
    6005 WT1  510  TIP3 H1   HT     0.417000        1.0080           0
    6006 WT1  510  TIP3 H2   HT     0.417000        1.0080           0
    6007 WT1  511  TIP3 OH2  OT    -0.834000       15.9994           0
    6008 WT1  511  TIP3 H1   HT     0.417000        1.0080           0
    6009 WT1  511  TIP3 H2   HT     0.417000        1.0080           0
    6010 WT1  512  TIP3 OH2  OT    -0.834000       15.9994           0
    6011 WT1  512  TIP3 H1   HT     0.417000        1.0080           0
    6012 WT1  512  TIP3 H2   HT     0.417000        1.0080           0
    6013 WT1  513  TIP3 OH2  OT    -0.834000       15.9994           0
    6014 WT1  513  TIP3 H1   HT     0.417000        1.0080           0
    6015 WT1  513  TIP3 H2   HT     0.417000        1.0080           0
    6016 WT1  514  TIP3 OH2  OT    -0.834000       15.9994           0
    6017 WT1  514  TIP3 H1   HT     0.417000        1.0080           0
    6018 WT1  514  TIP3 H2   HT     0.417000        1.0080           0
    6019 WT1  515  TIP3 OH2  OT    -0.834000       15.9994           0
    6020 WT1  515  TIP3 H1   HT     0.417000        1.0080           0
    6021 WT1  515  TIP3 H2   HT     0.417000        1.0080           0
    6022 WT1  516  TIP3 OH2  OT    -0.834000       15.9994           0
    6023 WT1  516  TIP3 H1   HT     0.417000        1.0080           0
    6024 WT1  516  TIP3 H2   HT     0.417000        1.0080           0
    6025 WT1  517  TIP3 OH2  OT    -0.834000       15.9994           0
    6026 WT1  517  TIP3 H1   HT     0.417000        1.0080           0
    6027 WT1  517  TIP3 H2   HT     0.417000        1.0080           0
    6028 WT1  519  TIP3 OH2  OT    -0.834000       15.9994           0
    6029 WT1  519  TIP3 H1   HT     0.417000        1.0080           0
    6030 WT1  519  TIP3 H2   HT     0.417000        1.0080           0
    6031 WT1  521  TIP3 OH2  OT    -0.834000       15.9994           0
    6032 WT1  521  TIP3 H1   HT     0.417000        1.0080           0
    6033 WT1  521  TIP3 H2   HT     0.417000        1.0080           0
    6034 WT1  523  TIP3 OH2  OT    -0.834000       15.9994           0
    6035 WT1  523  TIP3 H1   HT     0.417000        1.0080           0
    6036 WT1  523  TIP3 H2   HT     0.417000        1.0080           0
    6037 WT1  524  TIP3 OH2  OT    -0.834000       15.9994           0
    6038 WT1  524  TIP3 H1   HT     0.417000        1.0080           0
    6039 WT1  524  TIP3 H2   HT     0.417000        1.0080           0
    6040 WT1  526  TIP3 OH2  OT    -0.834000       15.9994           0
    6041 WT1  526  TIP3 H1   HT     0.417000        1.0080           0
    6042 WT1  526  TIP3 H2   HT     0.417000        1.0080           0
    6043 WT1  527  TIP3 OH2  OT    -0.834000       15.9994           0
    6044 WT1  527  TIP3 H1   HT     0.417000        1.0080           0
    6045 WT1  527  TIP3 H2   HT     0.417000        1.0080           0
    6046 WT1  528  TIP3 OH2  OT    -0.834000       15.9994           0
    6047 WT1  528  TIP3 H1   HT     0.417000        1.0080           0
    6048 WT1  528  TIP3 H2   HT     0.417000        1.0080           0
    6049 WT1  529  TIP3 OH2  OT    -0.834000       15.9994           0
    6050 WT1  529  TIP3 H1   HT     0.417000        1.0080           0
    6051 WT1  529  TIP3 H2   HT     0.417000        1.0080           0
    6052 WT1  530  TIP3 OH2  OT    -0.834000       15.9994           0
    6053 WT1  530  TIP3 H1   HT     0.417000        1.0080           0
    6054 WT1  530  TIP3 H2   HT     0.417000        1.0080           0
    6055 WT1  531  TIP3 OH2  OT    -0.834000       15.9994           0
    6056 WT1  531  TIP3 H1   HT     0.417000        1.0080           0
    6057 WT1  531  TIP3 H2   HT     0.417000        1.0080           0
    6058 WT1  532  TIP3 OH2  OT    -0.834000       15.9994           0
    6059 WT1  532  TIP3 H1   HT     0.417000        1.0080           0
    6060 WT1  532  TIP3 H2   HT     0.417000        1.0080           0
    6061 WT1  533  TIP3 OH2  OT    -0.834000       15.9994           0
    6062 WT1  533  TIP3 H1   HT     0.417000        1.0080           0
    6063 WT1  533  TIP3 H2   HT     0.417000        1.0080           0
    6064 WT1  534  TIP3 OH2  OT    -0.834000       15.9994           0
    6065 WT1  534  TIP3 H1   HT     0.417000        1.0080           0
    6066 WT1  534  TIP3 H2   HT     0.417000        1.0080           0
    6067 WT1  535  TIP3 OH2  OT    -0.834000       15.9994           0
    6068 WT1  535  TIP3 H1   HT     0.417000        1.0080           0
    6069 WT1  535  TIP3 H2   HT     0.417000        1.0080           0
    6070 WT1  536  TIP3 OH2  OT    -0.834000       15.9994           0
    6071 WT1  536  TIP3 H1   HT     0.417000        1.0080           0
    6072 WT1  536  TIP3 H2   HT     0.417000        1.0080           0
    6073 WT1  537  TIP3 OH2  OT    -0.834000       15.9994           0
    6074 WT1  537  TIP3 H1   HT     0.417000        1.0080           0
    6075 WT1  537  TIP3 H2   HT     0.417000        1.0080           0
    6076 WT1  538  TIP3 OH2  OT    -0.834000       15.9994           0
    6077 WT1  538  TIP3 H1   HT     0.417000        1.0080           0
    6078 WT1  538  TIP3 H2   HT     0.417000        1.0080           0
    6079 WT1  540  TIP3 OH2  OT    -0.834000       15.9994           0
    6080 WT1  540  TIP3 H1   HT     0.417000        1.0080           0
    6081 WT1  540  TIP3 H2   HT     0.417000        1.0080           0
    6082 WT1  541  TIP3 OH2  OT    -0.834000       15.9994           0
    6083 WT1  541  TIP3 H1   HT     0.417000        1.0080           0
    6084 WT1  541  TIP3 H2   HT     0.417000        1.0080           0
    6085 WT1  543  TIP3 OH2  OT    -0.834000       15.9994           0
    6086 WT1  543  TIP3 H1   HT     0.417000        1.0080           0
    6087 WT1  543  TIP3 H2   HT     0.417000        1.0080           0
    6088 WT1  547  TIP3 OH2  OT    -0.834000       15.9994           0
    6089 WT1  547  TIP3 H1   HT     0.417000        1.0080           0
    6090 WT1  547  TIP3 H2   HT     0.417000        1.0080           0
    6091 WT1  549  TIP3 OH2  OT    -0.834000       15.9994           0
    6092 WT1  549  TIP3 H1   HT     0.417000        1.0080           0
    6093 WT1  549  TIP3 H2   HT     0.417000        1.0080           0
    6094 WT1  550  TIP3 OH2  OT    -0.834000       15.9994           0
    6095 WT1  550  TIP3 H1   HT     0.417000        1.0080           0
    6096 WT1  550  TIP3 H2   HT     0.417000        1.0080           0
    6097 WT1  551  TIP3 OH2  OT    -0.834000       15.9994           0
    6098 WT1  551  TIP3 H1   HT     0.417000        1.0080           0
    6099 WT1  551  TIP3 H2   HT     0.417000        1.0080           0
    6100 WT1  552  TIP3 OH2  OT    -0.834000       15.9994           0
    6101 WT1  552  TIP3 H1   HT     0.417000        1.0080           0
    6102 WT1  552  TIP3 H2   HT     0.417000        1.0080           0
    6103 WT1  553  TIP3 OH2  OT    -0.834000       15.9994           0
    6104 WT1  553  TIP3 H1   HT     0.417000        1.0080           0
    6105 WT1  553  TIP3 H2   HT     0.417000        1.0080           0
    6106 WT1  554  TIP3 OH2  OT    -0.834000       15.9994           0
    6107 WT1  554  TIP3 H1   HT     0.417000        1.0080           0
    6108 WT1  554  TIP3 H2   HT     0.417000        1.0080           0
    6109 WT1  555  TIP3 OH2  OT    -0.834000       15.9994           0
    6110 WT1  555  TIP3 H1   HT     0.417000        1.0080           0
    6111 WT1  555  TIP3 H2   HT     0.417000        1.0080           0
    6112 WT1  556  TIP3 OH2  OT    -0.834000       15.9994           0
    6113 WT1  556  TIP3 H1   HT     0.417000        1.0080           0
    6114 WT1  556  TIP3 H2   HT     0.417000        1.0080           0
    6115 WT1  557  TIP3 OH2  OT    -0.834000       15.9994           0
    6116 WT1  557  TIP3 H1   HT     0.417000        1.0080           0
    6117 WT1  557  TIP3 H2   HT     0.417000        1.0080           0
    6118 WT1  558  TIP3 OH2  OT    -0.834000       15.9994           0
    6119 WT1  558  TIP3 H1   HT     0.417000        1.0080           0
    6120 WT1  558  TIP3 H2   HT     0.417000        1.0080           0
    6121 WT1  559  TIP3 OH2  OT    -0.834000       15.9994           0
    6122 WT1  559  TIP3 H1   HT     0.417000        1.0080           0
    6123 WT1  559  TIP3 H2   HT     0.417000        1.0080           0
    6124 WT1  561  TIP3 OH2  OT    -0.834000       15.9994           0
    6125 WT1  561  TIP3 H1   HT     0.417000        1.0080           0
    6126 WT1  561  TIP3 H2   HT     0.417000        1.0080           0
    6127 WT1  562  TIP3 OH2  OT    -0.834000       15.9994           0
    6128 WT1  562  TIP3 H1   HT     0.417000        1.0080           0
    6129 WT1  562  TIP3 H2   HT     0.417000        1.0080           0
    6130 WT1  563  TIP3 OH2  OT    -0.834000       15.9994           0
    6131 WT1  563  TIP3 H1   HT     0.417000        1.0080           0
    6132 WT1  563  TIP3 H2   HT     0.417000        1.0080           0
    6133 WT1  565  TIP3 OH2  OT    -0.834000       15.9994           0
    6134 WT1  565  TIP3 H1   HT     0.417000        1.0080           0
    6135 WT1  565  TIP3 H2   HT     0.417000        1.0080           0
    6136 WT1  568  TIP3 OH2  OT    -0.834000       15.9994           0
    6137 WT1  568  TIP3 H1   HT     0.417000        1.0080           0
    6138 WT1  568  TIP3 H2   HT     0.417000        1.0080           0
    6139 WT1  570  TIP3 OH2  OT    -0.834000       15.9994           0
    6140 WT1  570  TIP3 H1   HT     0.417000        1.0080           0
    6141 WT1  570  TIP3 H2   HT     0.417000        1.0080           0
    6142 WT1  571  TIP3 OH2  OT    -0.834000       15.9994           0
    6143 WT1  571  TIP3 H1   HT     0.417000        1.0080           0
    6144 WT1  571  TIP3 H2   HT     0.417000        1.0080           0
    6145 WT1  572  TIP3 OH2  OT    -0.834000       15.9994           0
    6146 WT1  572  TIP3 H1   HT     0.417000        1.0080           0
    6147 WT1  572  TIP3 H2   HT     0.417000        1.0080           0
    6148 WT1  573  TIP3 OH2  OT    -0.834000       15.9994           0
    6149 WT1  573  TIP3 H1   HT     0.417000        1.0080           0
    6150 WT1  573  TIP3 H2   HT     0.417000        1.0080           0
    6151 WT1  574  TIP3 OH2  OT    -0.834000       15.9994           0
    6152 WT1  574  TIP3 H1   HT     0.417000        1.0080           0
    6153 WT1  574  TIP3 H2   HT     0.417000        1.0080           0
    6154 WT1  575  TIP3 OH2  OT    -0.834000       15.9994           0
    6155 WT1  575  TIP3 H1   HT     0.417000        1.0080           0
    6156 WT1  575  TIP3 H2   HT     0.417000        1.0080           0
    6157 WT1  576  TIP3 OH2  OT    -0.834000       15.9994           0
    6158 WT1  576  TIP3 H1   HT     0.417000        1.0080           0
    6159 WT1  576  TIP3 H2   HT     0.417000        1.0080           0
    6160 WT1  577  TIP3 OH2  OT    -0.834000       15.9994           0
    6161 WT1  577  TIP3 H1   HT     0.417000        1.0080           0
    6162 WT1  577  TIP3 H2   HT     0.417000        1.0080           0
    6163 WT1  578  TIP3 OH2  OT    -0.834000       15.9994           0
    6164 WT1  578  TIP3 H1   HT     0.417000        1.0080           0
    6165 WT1  578  TIP3 H2   HT     0.417000        1.0080           0
    6166 WT1  579  TIP3 OH2  OT    -0.834000       15.9994           0
    6167 WT1  579  TIP3 H1   HT     0.417000        1.0080           0
    6168 WT1  579  TIP3 H2   HT     0.417000        1.0080           0
    6169 WT1  580  TIP3 OH2  OT    -0.834000       15.9994           0
    6170 WT1  580  TIP3 H1   HT     0.417000        1.0080           0
    6171 WT1  580  TIP3 H2   HT     0.417000        1.0080           0
    6172 WT1  581  TIP3 OH2  OT    -0.834000       15.9994           0
    6173 WT1  581  TIP3 H1   HT     0.417000        1.0080           0
    6174 WT1  581  TIP3 H2   HT     0.417000        1.0080           0
    6175 WT1  582  TIP3 OH2  OT    -0.834000       15.9994           0
    6176 WT1  582  TIP3 H1   HT     0.417000        1.0080           0
    6177 WT1  582  TIP3 H2   HT     0.417000        1.0080           0
    6178 WT1  584  TIP3 OH2  OT    -0.834000       15.9994           0
    6179 WT1  584  TIP3 H1   HT     0.417000        1.0080           0
    6180 WT1  584  TIP3 H2   HT     0.417000        1.0080           0
    6181 WT1  585  TIP3 OH2  OT    -0.834000       15.9994           0
    6182 WT1  585  TIP3 H1   HT     0.417000        1.0080           0
    6183 WT1  585  TIP3 H2   HT     0.417000        1.0080           0
    6184 WT1  587  TIP3 OH2  OT    -0.834000       15.9994           0
    6185 WT1  587  TIP3 H1   HT     0.417000        1.0080           0
    6186 WT1  587  TIP3 H2   HT     0.417000        1.0080           0
    6187 WT1  588  TIP3 OH2  OT    -0.834000       15.9994           0
    6188 WT1  588  TIP3 H1   HT     0.417000        1.0080           0
    6189 WT1  588  TIP3 H2   HT     0.417000        1.0080           0
    6190 WT1  589  TIP3 OH2  OT    -0.834000       15.9994           0
    6191 WT1  589  TIP3 H1   HT     0.417000        1.0080           0
    6192 WT1  589  TIP3 H2   HT     0.417000        1.0080           0
    6193 WT1  590  TIP3 OH2  OT    -0.834000       15.9994           0
    6194 WT1  590  TIP3 H1   HT     0.417000        1.0080           0
    6195 WT1  590  TIP3 H2   HT     0.417000        1.0080           0
    6196 WT1  591  TIP3 OH2  OT    -0.834000       15.9994           0
    6197 WT1  591  TIP3 H1   HT     0.417000        1.0080           0
    6198 WT1  591  TIP3 H2   HT     0.417000        1.0080           0
    6199 WT1  592  TIP3 OH2  OT    -0.834000       15.9994           0
    6200 WT1  592  TIP3 H1   HT     0.417000        1.0080           0
    6201 WT1  592  TIP3 H2   HT     0.417000        1.0080           0
    6202 WT1  593  TIP3 OH2  OT    -0.834000       15.9994           0
    6203 WT1  593  TIP3 H1   HT     0.417000        1.0080           0
    6204 WT1  593  TIP3 H2   HT     0.417000        1.0080           0
    6205 WT1  594  TIP3 OH2  OT    -0.834000       15.9994           0
    6206 WT1  594  TIP3 H1   HT     0.417000        1.0080           0
    6207 WT1  594  TIP3 H2   HT     0.417000        1.0080           0
    6208 WT1  595  TIP3 OH2  OT    -0.834000       15.9994           0
    6209 WT1  595  TIP3 H1   HT     0.417000        1.0080           0
    6210 WT1  595  TIP3 H2   HT     0.417000        1.0080           0
    6211 WT1  596  TIP3 OH2  OT    -0.834000       15.9994           0
    6212 WT1  596  TIP3 H1   HT     0.417000        1.0080           0
    6213 WT1  596  TIP3 H2   HT     0.417000        1.0080           0
    6214 WT1  597  TIP3 OH2  OT    -0.834000       15.9994           0
    6215 WT1  597  TIP3 H1   HT     0.417000        1.0080           0
    6216 WT1  597  TIP3 H2   HT     0.417000        1.0080           0
    6217 WT1  598  TIP3 OH2  OT    -0.834000       15.9994           0
    6218 WT1  598  TIP3 H1   HT     0.417000        1.0080           0
    6219 WT1  598  TIP3 H2   HT     0.417000        1.0080           0
    6220 WT1  599  TIP3 OH2  OT    -0.834000       15.9994           0
    6221 WT1  599  TIP3 H1   HT     0.417000        1.0080           0
    6222 WT1  599  TIP3 H2   HT     0.417000        1.0080           0
    6223 WT1  600  TIP3 OH2  OT    -0.834000       15.9994           0
    6224 WT1  600  TIP3 H1   HT     0.417000        1.0080           0
    6225 WT1  600  TIP3 H2   HT     0.417000        1.0080           0
    6226 WT1  601  TIP3 OH2  OT    -0.834000       15.9994           0
    6227 WT1  601  TIP3 H1   HT     0.417000        1.0080           0
    6228 WT1  601  TIP3 H2   HT     0.417000        1.0080           0
    6229 WT1  602  TIP3 OH2  OT    -0.834000       15.9994           0
    6230 WT1  602  TIP3 H1   HT     0.417000        1.0080           0
    6231 WT1  602  TIP3 H2   HT     0.417000        1.0080           0
    6232 WT1  603  TIP3 OH2  OT    -0.834000       15.9994           0
    6233 WT1  603  TIP3 H1   HT     0.417000        1.0080           0
    6234 WT1  603  TIP3 H2   HT     0.417000        1.0080           0
    6235 WT1  604  TIP3 OH2  OT    -0.834000       15.9994           0
    6236 WT1  604  TIP3 H1   HT     0.417000        1.0080           0
    6237 WT1  604  TIP3 H2   HT     0.417000        1.0080           0
    6238 WT1  606  TIP3 OH2  OT    -0.834000       15.9994           0
    6239 WT1  606  TIP3 H1   HT     0.417000        1.0080           0
    6240 WT1  606  TIP3 H2   HT     0.417000        1.0080           0
    6241 WT1  607  TIP3 OH2  OT    -0.834000       15.9994           0
    6242 WT1  607  TIP3 H1   HT     0.417000        1.0080           0
    6243 WT1  607  TIP3 H2   HT     0.417000        1.0080           0
    6244 WT1  608  TIP3 OH2  OT    -0.834000       15.9994           0
    6245 WT1  608  TIP3 H1   HT     0.417000        1.0080           0
    6246 WT1  608  TIP3 H2   HT     0.417000        1.0080           0
    6247 WT1  609  TIP3 OH2  OT    -0.834000       15.9994           0
    6248 WT1  609  TIP3 H1   HT     0.417000        1.0080           0
    6249 WT1  609  TIP3 H2   HT     0.417000        1.0080           0
    6250 WT1  610  TIP3 OH2  OT    -0.834000       15.9994           0
    6251 WT1  610  TIP3 H1   HT     0.417000        1.0080           0
    6252 WT1  610  TIP3 H2   HT     0.417000        1.0080           0
    6253 WT1  611  TIP3 OH2  OT    -0.834000       15.9994           0
    6254 WT1  611  TIP3 H1   HT     0.417000        1.0080           0
    6255 WT1  611  TIP3 H2   HT     0.417000        1.0080           0
    6256 WT1  612  TIP3 OH2  OT    -0.834000       15.9994           0
    6257 WT1  612  TIP3 H1   HT     0.417000        1.0080           0
    6258 WT1  612  TIP3 H2   HT     0.417000        1.0080           0
    6259 WT1  613  TIP3 OH2  OT    -0.834000       15.9994           0
    6260 WT1  613  TIP3 H1   HT     0.417000        1.0080           0
    6261 WT1  613  TIP3 H2   HT     0.417000        1.0080           0
    6262 WT1  615  TIP3 OH2  OT    -0.834000       15.9994           0
    6263 WT1  615  TIP3 H1   HT     0.417000        1.0080           0
    6264 WT1  615  TIP3 H2   HT     0.417000        1.0080           0
    6265 WT1  616  TIP3 OH2  OT    -0.834000       15.9994           0
    6266 WT1  616  TIP3 H1   HT     0.417000        1.0080           0
    6267 WT1  616  TIP3 H2   HT     0.417000        1.0080           0
    6268 WT1  617  TIP3 OH2  OT    -0.834000       15.9994           0
    6269 WT1  617  TIP3 H1   HT     0.417000        1.0080           0
    6270 WT1  617  TIP3 H2   HT     0.417000        1.0080           0
    6271 WT1  618  TIP3 OH2  OT    -0.834000       15.9994           0
    6272 WT1  618  TIP3 H1   HT     0.417000        1.0080           0
    6273 WT1  618  TIP3 H2   HT     0.417000        1.0080           0
    6274 WT1  619  TIP3 OH2  OT    -0.834000       15.9994           0
    6275 WT1  619  TIP3 H1   HT     0.417000        1.0080           0
    6276 WT1  619  TIP3 H2   HT     0.417000        1.0080           0
    6277 WT1  620  TIP3 OH2  OT    -0.834000       15.9994           0
    6278 WT1  620  TIP3 H1   HT     0.417000        1.0080           0
    6279 WT1  620  TIP3 H2   HT     0.417000        1.0080           0
    6280 WT1  621  TIP3 OH2  OT    -0.834000       15.9994           0
    6281 WT1  621  TIP3 H1   HT     0.417000        1.0080           0
    6282 WT1  621  TIP3 H2   HT     0.417000        1.0080           0
    6283 WT1  623  TIP3 OH2  OT    -0.834000       15.9994           0
    6284 WT1  623  TIP3 H1   HT     0.417000        1.0080           0
    6285 WT1  623  TIP3 H2   HT     0.417000        1.0080           0
    6286 WT1  624  TIP3 OH2  OT    -0.834000       15.9994           0
    6287 WT1  624  TIP3 H1   HT     0.417000        1.0080           0
    6288 WT1  624  TIP3 H2   HT     0.417000        1.0080           0
    6289 WT1  625  TIP3 OH2  OT    -0.834000       15.9994           0
    6290 WT1  625  TIP3 H1   HT     0.417000        1.0080           0
    6291 WT1  625  TIP3 H2   HT     0.417000        1.0080           0
    6292 WT1  626  TIP3 OH2  OT    -0.834000       15.9994           0
    6293 WT1  626  TIP3 H1   HT     0.417000        1.0080           0
    6294 WT1  626  TIP3 H2   HT     0.417000        1.0080           0
    6295 WT1  630  TIP3 OH2  OT    -0.834000       15.9994           0
    6296 WT1  630  TIP3 H1   HT     0.417000        1.0080           0
    6297 WT1  630  TIP3 H2   HT     0.417000        1.0080           0
    6298 WT1  631  TIP3 OH2  OT    -0.834000       15.9994           0
    6299 WT1  631  TIP3 H1   HT     0.417000        1.0080           0
    6300 WT1  631  TIP3 H2   HT     0.417000        1.0080           0
    6301 WT1  632  TIP3 OH2  OT    -0.834000       15.9994           0
    6302 WT1  632  TIP3 H1   HT     0.417000        1.0080           0
    6303 WT1  632  TIP3 H2   HT     0.417000        1.0080           0
    6304 WT1  633  TIP3 OH2  OT    -0.834000       15.9994           0
    6305 WT1  633  TIP3 H1   HT     0.417000        1.0080           0
    6306 WT1  633  TIP3 H2   HT     0.417000        1.0080           0
    6307 WT1  634  TIP3 OH2  OT    -0.834000       15.9994           0
    6308 WT1  634  TIP3 H1   HT     0.417000        1.0080           0
    6309 WT1  634  TIP3 H2   HT     0.417000        1.0080           0
    6310 WT1  635  TIP3 OH2  OT    -0.834000       15.9994           0
    6311 WT1  635  TIP3 H1   HT     0.417000        1.0080           0
    6312 WT1  635  TIP3 H2   HT     0.417000        1.0080           0
    6313 WT1  636  TIP3 OH2  OT    -0.834000       15.9994           0
    6314 WT1  636  TIP3 H1   HT     0.417000        1.0080           0
    6315 WT1  636  TIP3 H2   HT     0.417000        1.0080           0
    6316 WT1  637  TIP3 OH2  OT    -0.834000       15.9994           0
    6317 WT1  637  TIP3 H1   HT     0.417000        1.0080           0
    6318 WT1  637  TIP3 H2   HT     0.417000        1.0080           0
    6319 WT1  638  TIP3 OH2  OT    -0.834000       15.9994           0
    6320 WT1  638  TIP3 H1   HT     0.417000        1.0080           0
    6321 WT1  638  TIP3 H2   HT     0.417000        1.0080           0
    6322 WT1  639  TIP3 OH2  OT    -0.834000       15.9994           0
    6323 WT1  639  TIP3 H1   HT     0.417000        1.0080           0
    6324 WT1  639  TIP3 H2   HT     0.417000        1.0080           0
    6325 WT1  640  TIP3 OH2  OT    -0.834000       15.9994           0
    6326 WT1  640  TIP3 H1   HT     0.417000        1.0080           0
    6327 WT1  640  TIP3 H2   HT     0.417000        1.0080           0
    6328 WT1  641  TIP3 OH2  OT    -0.834000       15.9994           0
    6329 WT1  641  TIP3 H1   HT     0.417000        1.0080           0
    6330 WT1  641  TIP3 H2   HT     0.417000        1.0080           0
    6331 WT1  642  TIP3 OH2  OT    -0.834000       15.9994           0
    6332 WT1  642  TIP3 H1   HT     0.417000        1.0080           0
    6333 WT1  642  TIP3 H2   HT     0.417000        1.0080           0
    6334 WT1  643  TIP3 OH2  OT    -0.834000       15.9994           0
    6335 WT1  643  TIP3 H1   HT     0.417000        1.0080           0
    6336 WT1  643  TIP3 H2   HT     0.417000        1.0080           0
    6337 WT1  644  TIP3 OH2  OT    -0.834000       15.9994           0
    6338 WT1  644  TIP3 H1   HT     0.417000        1.0080           0
    6339 WT1  644  TIP3 H2   HT     0.417000        1.0080           0
    6340 WT1  645  TIP3 OH2  OT    -0.834000       15.9994           0
    6341 WT1  645  TIP3 H1   HT     0.417000        1.0080           0
    6342 WT1  645  TIP3 H2   HT     0.417000        1.0080           0
    6343 WT1  648  TIP3 OH2  OT    -0.834000       15.9994           0
    6344 WT1  648  TIP3 H1   HT     0.417000        1.0080           0
    6345 WT1  648  TIP3 H2   HT     0.417000        1.0080           0
    6346 WT1  649  TIP3 OH2  OT    -0.834000       15.9994           0
    6347 WT1  649  TIP3 H1   HT     0.417000        1.0080           0
    6348 WT1  649  TIP3 H2   HT     0.417000        1.0080           0
    6349 WT1  651  TIP3 OH2  OT    -0.834000       15.9994           0
    6350 WT1  651  TIP3 H1   HT     0.417000        1.0080           0
    6351 WT1  651  TIP3 H2   HT     0.417000        1.0080           0
    6352 WT1  653  TIP3 OH2  OT    -0.834000       15.9994           0
    6353 WT1  653  TIP3 H1   HT     0.417000        1.0080           0
    6354 WT1  653  TIP3 H2   HT     0.417000        1.0080           0
    6355 WT1  654  TIP3 OH2  OT    -0.834000       15.9994           0
    6356 WT1  654  TIP3 H1   HT     0.417000        1.0080           0
    6357 WT1  654  TIP3 H2   HT     0.417000        1.0080           0
    6358 WT1  655  TIP3 OH2  OT    -0.834000       15.9994           0
    6359 WT1  655  TIP3 H1   HT     0.417000        1.0080           0
    6360 WT1  655  TIP3 H2   HT     0.417000        1.0080           0
    6361 WT1  656  TIP3 OH2  OT    -0.834000       15.9994           0
    6362 WT1  656  TIP3 H1   HT     0.417000        1.0080           0
    6363 WT1  656  TIP3 H2   HT     0.417000        1.0080           0
    6364 WT1  657  TIP3 OH2  OT    -0.834000       15.9994           0
    6365 WT1  657  TIP3 H1   HT     0.417000        1.0080           0
    6366 WT1  657  TIP3 H2   HT     0.417000        1.0080           0
    6367 WT1  658  TIP3 OH2  OT    -0.834000       15.9994           0
    6368 WT1  658  TIP3 H1   HT     0.417000        1.0080           0
    6369 WT1  658  TIP3 H2   HT     0.417000        1.0080           0
    6370 WT1  659  TIP3 OH2  OT    -0.834000       15.9994           0
    6371 WT1  659  TIP3 H1   HT     0.417000        1.0080           0
    6372 WT1  659  TIP3 H2   HT     0.417000        1.0080           0
    6373 WT1  660  TIP3 OH2  OT    -0.834000       15.9994           0
    6374 WT1  660  TIP3 H1   HT     0.417000        1.0080           0
    6375 WT1  660  TIP3 H2   HT     0.417000        1.0080           0
    6376 WT1  661  TIP3 OH2  OT    -0.834000       15.9994           0
    6377 WT1  661  TIP3 H1   HT     0.417000        1.0080           0
    6378 WT1  661  TIP3 H2   HT     0.417000        1.0080           0
    6379 WT1  662  TIP3 OH2  OT    -0.834000       15.9994           0
    6380 WT1  662  TIP3 H1   HT     0.417000        1.0080           0
    6381 WT1  662  TIP3 H2   HT     0.417000        1.0080           0
    6382 WT1  663  TIP3 OH2  OT    -0.834000       15.9994           0
    6383 WT1  663  TIP3 H1   HT     0.417000        1.0080           0
    6384 WT1  663  TIP3 H2   HT     0.417000        1.0080           0
    6385 WT1  664  TIP3 OH2  OT    -0.834000       15.9994           0
    6386 WT1  664  TIP3 H1   HT     0.417000        1.0080           0
    6387 WT1  664  TIP3 H2   HT     0.417000        1.0080           0
    6388 WT1  665  TIP3 OH2  OT    -0.834000       15.9994           0
    6389 WT1  665  TIP3 H1   HT     0.417000        1.0080           0
    6390 WT1  665  TIP3 H2   HT     0.417000        1.0080           0
    6391 WT1  666  TIP3 OH2  OT    -0.834000       15.9994           0
    6392 WT1  666  TIP3 H1   HT     0.417000        1.0080           0
    6393 WT1  666  TIP3 H2   HT     0.417000        1.0080           0
    6394 WT1  667  TIP3 OH2  OT    -0.834000       15.9994           0
    6395 WT1  667  TIP3 H1   HT     0.417000        1.0080           0
    6396 WT1  667  TIP3 H2   HT     0.417000        1.0080           0
    6397 WT1  669  TIP3 OH2  OT    -0.834000       15.9994           0
    6398 WT1  669  TIP3 H1   HT     0.417000        1.0080           0
    6399 WT1  669  TIP3 H2   HT     0.417000        1.0080           0
    6400 WT1  670  TIP3 OH2  OT    -0.834000       15.9994           0
    6401 WT1  670  TIP3 H1   HT     0.417000        1.0080           0
    6402 WT1  670  TIP3 H2   HT     0.417000        1.0080           0
    6403 WT1  672  TIP3 OH2  OT    -0.834000       15.9994           0
    6404 WT1  672  TIP3 H1   HT     0.417000        1.0080           0
    6405 WT1  672  TIP3 H2   HT     0.417000        1.0080           0
    6406 WT1  674  TIP3 OH2  OT    -0.834000       15.9994           0
    6407 WT1  674  TIP3 H1   HT     0.417000        1.0080           0
    6408 WT1  674  TIP3 H2   HT     0.417000        1.0080           0
    6409 WT1  675  TIP3 OH2  OT    -0.834000       15.9994           0
    6410 WT1  675  TIP3 H1   HT     0.417000        1.0080           0
    6411 WT1  675  TIP3 H2   HT     0.417000        1.0080           0
    6412 WT1  676  TIP3 OH2  OT    -0.834000       15.9994           0
    6413 WT1  676  TIP3 H1   HT     0.417000        1.0080           0
    6414 WT1  676  TIP3 H2   HT     0.417000        1.0080           0
    6415 WT1  677  TIP3 OH2  OT    -0.834000       15.9994           0
    6416 WT1  677  TIP3 H1   HT     0.417000        1.0080           0
    6417 WT1  677  TIP3 H2   HT     0.417000        1.0080           0
    6418 WT1  679  TIP3 OH2  OT    -0.834000       15.9994           0
    6419 WT1  679  TIP3 H1   HT     0.417000        1.0080           0
    6420 WT1  679  TIP3 H2   HT     0.417000        1.0080           0
    6421 WT1  680  TIP3 OH2  OT    -0.834000       15.9994           0
    6422 WT1  680  TIP3 H1   HT     0.417000        1.0080           0
    6423 WT1  680  TIP3 H2   HT     0.417000        1.0080           0
    6424 WT1  681  TIP3 OH2  OT    -0.834000       15.9994           0
    6425 WT1  681  TIP3 H1   HT     0.417000        1.0080           0
    6426 WT1  681  TIP3 H2   HT     0.417000        1.0080           0
    6427 WT1  682  TIP3 OH2  OT    -0.834000       15.9994           0
    6428 WT1  682  TIP3 H1   HT     0.417000        1.0080           0
    6429 WT1  682  TIP3 H2   HT     0.417000        1.0080           0
    6430 WT1  683  TIP3 OH2  OT    -0.834000       15.9994           0
    6431 WT1  683  TIP3 H1   HT     0.417000        1.0080           0
    6432 WT1  683  TIP3 H2   HT     0.417000        1.0080           0
    6433 WT1  684  TIP3 OH2  OT    -0.834000       15.9994           0
    6434 WT1  684  TIP3 H1   HT     0.417000        1.0080           0
    6435 WT1  684  TIP3 H2   HT     0.417000        1.0080           0
    6436 WT1  685  TIP3 OH2  OT    -0.834000       15.9994           0
    6437 WT1  685  TIP3 H1   HT     0.417000        1.0080           0
    6438 WT1  685  TIP3 H2   HT     0.417000        1.0080           0
    6439 WT1  686  TIP3 OH2  OT    -0.834000       15.9994           0
    6440 WT1  686  TIP3 H1   HT     0.417000        1.0080           0
    6441 WT1  686  TIP3 H2   HT     0.417000        1.0080           0
    6442 WT1  687  TIP3 OH2  OT    -0.834000       15.9994           0
    6443 WT1  687  TIP3 H1   HT     0.417000        1.0080           0
    6444 WT1  687  TIP3 H2   HT     0.417000        1.0080           0
    6445 WT1  690  TIP3 OH2  OT    -0.834000       15.9994           0
    6446 WT1  690  TIP3 H1   HT     0.417000        1.0080           0
    6447 WT1  690  TIP3 H2   HT     0.417000        1.0080           0
    6448 WT1  692  TIP3 OH2  OT    -0.834000       15.9994           0
    6449 WT1  692  TIP3 H1   HT     0.417000        1.0080           0
    6450 WT1  692  TIP3 H2   HT     0.417000        1.0080           0
    6451 WT1  693  TIP3 OH2  OT    -0.834000       15.9994           0
    6452 WT1  693  TIP3 H1   HT     0.417000        1.0080           0
    6453 WT1  693  TIP3 H2   HT     0.417000        1.0080           0
    6454 WT1  694  TIP3 OH2  OT    -0.834000       15.9994           0
    6455 WT1  694  TIP3 H1   HT     0.417000        1.0080           0
    6456 WT1  694  TIP3 H2   HT     0.417000        1.0080           0
    6457 WT1  695  TIP3 OH2  OT    -0.834000       15.9994           0
    6458 WT1  695  TIP3 H1   HT     0.417000        1.0080           0
    6459 WT1  695  TIP3 H2   HT     0.417000        1.0080           0
    6460 WT1  696  TIP3 OH2  OT    -0.834000       15.9994           0
    6461 WT1  696  TIP3 H1   HT     0.417000        1.0080           0
    6462 WT1  696  TIP3 H2   HT     0.417000        1.0080           0
    6463 WT1  697  TIP3 OH2  OT    -0.834000       15.9994           0
    6464 WT1  697  TIP3 H1   HT     0.417000        1.0080           0
    6465 WT1  697  TIP3 H2   HT     0.417000        1.0080           0
    6466 WT1  698  TIP3 OH2  OT    -0.834000       15.9994           0
    6467 WT1  698  TIP3 H1   HT     0.417000        1.0080           0
    6468 WT1  698  TIP3 H2   HT     0.417000        1.0080           0
    6469 WT1  699  TIP3 OH2  OT    -0.834000       15.9994           0
    6470 WT1  699  TIP3 H1   HT     0.417000        1.0080           0
    6471 WT1  699  TIP3 H2   HT     0.417000        1.0080           0
    6472 WT1  700  TIP3 OH2  OT    -0.834000       15.9994           0
    6473 WT1  700  TIP3 H1   HT     0.417000        1.0080           0
    6474 WT1  700  TIP3 H2   HT     0.417000        1.0080           0
    6475 WT1  701  TIP3 OH2  OT    -0.834000       15.9994           0
    6476 WT1  701  TIP3 H1   HT     0.417000        1.0080           0
    6477 WT1  701  TIP3 H2   HT     0.417000        1.0080           0
    6478 WT1  702  TIP3 OH2  OT    -0.834000       15.9994           0
    6479 WT1  702  TIP3 H1   HT     0.417000        1.0080           0
    6480 WT1  702  TIP3 H2   HT     0.417000        1.0080           0
    6481 WT1  703  TIP3 OH2  OT    -0.834000       15.9994           0
    6482 WT1  703  TIP3 H1   HT     0.417000        1.0080           0
    6483 WT1  703  TIP3 H2   HT     0.417000        1.0080           0
    6484 WT1  704  TIP3 OH2  OT    -0.834000       15.9994           0
    6485 WT1  704  TIP3 H1   HT     0.417000        1.0080           0
    6486 WT1  704  TIP3 H2   HT     0.417000        1.0080           0
    6487 WT1  705  TIP3 OH2  OT    -0.834000       15.9994           0
    6488 WT1  705  TIP3 H1   HT     0.417000        1.0080           0
    6489 WT1  705  TIP3 H2   HT     0.417000        1.0080           0
    6490 WT1  706  TIP3 OH2  OT    -0.834000       15.9994           0
    6491 WT1  706  TIP3 H1   HT     0.417000        1.0080           0
    6492 WT1  706  TIP3 H2   HT     0.417000        1.0080           0
    6493 WT1  707  TIP3 OH2  OT    -0.834000       15.9994           0
    6494 WT1  707  TIP3 H1   HT     0.417000        1.0080           0
    6495 WT1  707  TIP3 H2   HT     0.417000        1.0080           0
    6496 WT1  708  TIP3 OH2  OT    -0.834000       15.9994           0
    6497 WT1  708  TIP3 H1   HT     0.417000        1.0080           0
    6498 WT1  708  TIP3 H2   HT     0.417000        1.0080           0
    6499 WT1  709  TIP3 OH2  OT    -0.834000       15.9994           0
    6500 WT1  709  TIP3 H1   HT     0.417000        1.0080           0
    6501 WT1  709  TIP3 H2   HT     0.417000        1.0080           0
    6502 WT1  710  TIP3 OH2  OT    -0.834000       15.9994           0
    6503 WT1  710  TIP3 H1   HT     0.417000        1.0080           0
    6504 WT1  710  TIP3 H2   HT     0.417000        1.0080           0
    6505 WT1  711  TIP3 OH2  OT    -0.834000       15.9994           0
    6506 WT1  711  TIP3 H1   HT     0.417000        1.0080           0
    6507 WT1  711  TIP3 H2   HT     0.417000        1.0080           0
    6508 WT1  712  TIP3 OH2  OT    -0.834000       15.9994           0
    6509 WT1  712  TIP3 H1   HT     0.417000        1.0080           0
    6510 WT1  712  TIP3 H2   HT     0.417000        1.0080           0
    6511 WT1  713  TIP3 OH2  OT    -0.834000       15.9994           0
    6512 WT1  713  TIP3 H1   HT     0.417000        1.0080           0
    6513 WT1  713  TIP3 H2   HT     0.417000        1.0080           0
    6514 WT1  715  TIP3 OH2  OT    -0.834000       15.9994           0
    6515 WT1  715  TIP3 H1   HT     0.417000        1.0080           0
    6516 WT1  715  TIP3 H2   HT     0.417000        1.0080           0
    6517 WT1  716  TIP3 OH2  OT    -0.834000       15.9994           0
    6518 WT1  716  TIP3 H1   HT     0.417000        1.0080           0
    6519 WT1  716  TIP3 H2   HT     0.417000        1.0080           0
    6520 WT1  717  TIP3 OH2  OT    -0.834000       15.9994           0
    6521 WT1  717  TIP3 H1   HT     0.417000        1.0080           0
    6522 WT1  717  TIP3 H2   HT     0.417000        1.0080           0
    6523 WT1  718  TIP3 OH2  OT    -0.834000       15.9994           0
    6524 WT1  718  TIP3 H1   HT     0.417000        1.0080           0
    6525 WT1  718  TIP3 H2   HT     0.417000        1.0080           0
    6526 WT1  719  TIP3 OH2  OT    -0.834000       15.9994           0
    6527 WT1  719  TIP3 H1   HT     0.417000        1.0080           0
    6528 WT1  719  TIP3 H2   HT     0.417000        1.0080           0
    6529 WT1  720  TIP3 OH2  OT    -0.834000       15.9994           0
    6530 WT1  720  TIP3 H1   HT     0.417000        1.0080           0
    6531 WT1  720  TIP3 H2   HT     0.417000        1.0080           0
    6532 WT1  721  TIP3 OH2  OT    -0.834000       15.9994           0
    6533 WT1  721  TIP3 H1   HT     0.417000        1.0080           0
    6534 WT1  721  TIP3 H2   HT     0.417000        1.0080           0
    6535 WT1  722  TIP3 OH2  OT    -0.834000       15.9994           0
    6536 WT1  722  TIP3 H1   HT     0.417000        1.0080           0
    6537 WT1  722  TIP3 H2   HT     0.417000        1.0080           0
    6538 WT1  723  TIP3 OH2  OT    -0.834000       15.9994           0
    6539 WT1  723  TIP3 H1   HT     0.417000        1.0080           0
    6540 WT1  723  TIP3 H2   HT     0.417000        1.0080           0
    6541 WT1  724  TIP3 OH2  OT    -0.834000       15.9994           0
    6542 WT1  724  TIP3 H1   HT     0.417000        1.0080           0
    6543 WT1  724  TIP3 H2   HT     0.417000        1.0080           0
    6544 WT1  725  TIP3 OH2  OT    -0.834000       15.9994           0
    6545 WT1  725  TIP3 H1   HT     0.417000        1.0080           0
    6546 WT1  725  TIP3 H2   HT     0.417000        1.0080           0
    6547 WT1  726  TIP3 OH2  OT    -0.834000       15.9994           0
    6548 WT1  726  TIP3 H1   HT     0.417000        1.0080           0
    6549 WT1  726  TIP3 H2   HT     0.417000        1.0080           0
    6550 WT1  727  TIP3 OH2  OT    -0.834000       15.9994           0
    6551 WT1  727  TIP3 H1   HT     0.417000        1.0080           0
    6552 WT1  727  TIP3 H2   HT     0.417000        1.0080           0
    6553 WT1  728  TIP3 OH2  OT    -0.834000       15.9994           0
    6554 WT1  728  TIP3 H1   HT     0.417000        1.0080           0
    6555 WT1  728  TIP3 H2   HT     0.417000        1.0080           0
    6556 WT1  729  TIP3 OH2  OT    -0.834000       15.9994           0
    6557 WT1  729  TIP3 H1   HT     0.417000        1.0080           0
    6558 WT1  729  TIP3 H2   HT     0.417000        1.0080           0
    6559 WT1  732  TIP3 OH2  OT    -0.834000       15.9994           0
    6560 WT1  732  TIP3 H1   HT     0.417000        1.0080           0
    6561 WT1  732  TIP3 H2   HT     0.417000        1.0080           0
    6562 WT1  733  TIP3 OH2  OT    -0.834000       15.9994           0
    6563 WT1  733  TIP3 H1   HT     0.417000        1.0080           0
    6564 WT1  733  TIP3 H2   HT     0.417000        1.0080           0
    6565 WT1  735  TIP3 OH2  OT    -0.834000       15.9994           0
    6566 WT1  735  TIP3 H1   HT     0.417000        1.0080           0
    6567 WT1  735  TIP3 H2   HT     0.417000        1.0080           0
    6568 WT1  736  TIP3 OH2  OT    -0.834000       15.9994           0
    6569 WT1  736  TIP3 H1   HT     0.417000        1.0080           0
    6570 WT1  736  TIP3 H2   HT     0.417000        1.0080           0
    6571 WT1  737  TIP3 OH2  OT    -0.834000       15.9994           0
    6572 WT1  737  TIP3 H1   HT     0.417000        1.0080           0
    6573 WT1  737  TIP3 H2   HT     0.417000        1.0080           0
    6574 WT1  738  TIP3 OH2  OT    -0.834000       15.9994           0
    6575 WT1  738  TIP3 H1   HT     0.417000        1.0080           0
    6576 WT1  738  TIP3 H2   HT     0.417000        1.0080           0
    6577 WT1  739  TIP3 OH2  OT    -0.834000       15.9994           0
    6578 WT1  739  TIP3 H1   HT     0.417000        1.0080           0
    6579 WT1  739  TIP3 H2   HT     0.417000        1.0080           0
    6580 WT1  740  TIP3 OH2  OT    -0.834000       15.9994           0
    6581 WT1  740  TIP3 H1   HT     0.417000        1.0080           0
    6582 WT1  740  TIP3 H2   HT     0.417000        1.0080           0
    6583 WT1  741  TIP3 OH2  OT    -0.834000       15.9994           0
    6584 WT1  741  TIP3 H1   HT     0.417000        1.0080           0
    6585 WT1  741  TIP3 H2   HT     0.417000        1.0080           0
    6586 WT1  742  TIP3 OH2  OT    -0.834000       15.9994           0
    6587 WT1  742  TIP3 H1   HT     0.417000        1.0080           0
    6588 WT1  742  TIP3 H2   HT     0.417000        1.0080           0
    6589 WT1  743  TIP3 OH2  OT    -0.834000       15.9994           0
    6590 WT1  743  TIP3 H1   HT     0.417000        1.0080           0
    6591 WT1  743  TIP3 H2   HT     0.417000        1.0080           0
    6592 WT1  744  TIP3 OH2  OT    -0.834000       15.9994           0
    6593 WT1  744  TIP3 H1   HT     0.417000        1.0080           0
    6594 WT1  744  TIP3 H2   HT     0.417000        1.0080           0
    6595 WT1  745  TIP3 OH2  OT    -0.834000       15.9994           0
    6596 WT1  745  TIP3 H1   HT     0.417000        1.0080           0
    6597 WT1  745  TIP3 H2   HT     0.417000        1.0080           0
    6598 WT1  746  TIP3 OH2  OT    -0.834000       15.9994           0
    6599 WT1  746  TIP3 H1   HT     0.417000        1.0080           0
    6600 WT1  746  TIP3 H2   HT     0.417000        1.0080           0
    6601 WT1  747  TIP3 OH2  OT    -0.834000       15.9994           0
    6602 WT1  747  TIP3 H1   HT     0.417000        1.0080           0
    6603 WT1  747  TIP3 H2   HT     0.417000        1.0080           0
    6604 WT1  748  TIP3 OH2  OT    -0.834000       15.9994           0
    6605 WT1  748  TIP3 H1   HT     0.417000        1.0080           0
    6606 WT1  748  TIP3 H2   HT     0.417000        1.0080           0
    6607 WT1  749  TIP3 OH2  OT    -0.834000       15.9994           0
    6608 WT1  749  TIP3 H1   HT     0.417000        1.0080           0
    6609 WT1  749  TIP3 H2   HT     0.417000        1.0080           0
    6610 WT1  750  TIP3 OH2  OT    -0.834000       15.9994           0
    6611 WT1  750  TIP3 H1   HT     0.417000        1.0080           0
    6612 WT1  750  TIP3 H2   HT     0.417000        1.0080           0
    6613 WT1  751  TIP3 OH2  OT    -0.834000       15.9994           0
    6614 WT1  751  TIP3 H1   HT     0.417000        1.0080           0
    6615 WT1  751  TIP3 H2   HT     0.417000        1.0080           0
    6616 WT1  755  TIP3 OH2  OT    -0.834000       15.9994           0
    6617 WT1  755  TIP3 H1   HT     0.417000        1.0080           0
    6618 WT1  755  TIP3 H2   HT     0.417000        1.0080           0
    6619 WT1  756  TIP3 OH2  OT    -0.834000       15.9994           0
    6620 WT1  756  TIP3 H1   HT     0.417000        1.0080           0
    6621 WT1  756  TIP3 H2   HT     0.417000        1.0080           0
    6622 WT1  757  TIP3 OH2  OT    -0.834000       15.9994           0
    6623 WT1  757  TIP3 H1   HT     0.417000        1.0080           0
    6624 WT1  757  TIP3 H2   HT     0.417000        1.0080           0
    6625 WT1  758  TIP3 OH2  OT    -0.834000       15.9994           0
    6626 WT1  758  TIP3 H1   HT     0.417000        1.0080           0
    6627 WT1  758  TIP3 H2   HT     0.417000        1.0080           0
    6628 WT1  759  TIP3 OH2  OT    -0.834000       15.9994           0
    6629 WT1  759  TIP3 H1   HT     0.417000        1.0080           0
    6630 WT1  759  TIP3 H2   HT     0.417000        1.0080           0
    6631 WT1  760  TIP3 OH2  OT    -0.834000       15.9994           0
    6632 WT1  760  TIP3 H1   HT     0.417000        1.0080           0
    6633 WT1  760  TIP3 H2   HT     0.417000        1.0080           0
    6634 WT1  761  TIP3 OH2  OT    -0.834000       15.9994           0
    6635 WT1  761  TIP3 H1   HT     0.417000        1.0080           0
    6636 WT1  761  TIP3 H2   HT     0.417000        1.0080           0
    6637 WT1  762  TIP3 OH2  OT    -0.834000       15.9994           0
    6638 WT1  762  TIP3 H1   HT     0.417000        1.0080           0
    6639 WT1  762  TIP3 H2   HT     0.417000        1.0080           0
    6640 WT1  763  TIP3 OH2  OT    -0.834000       15.9994           0
    6641 WT1  763  TIP3 H1   HT     0.417000        1.0080           0
    6642 WT1  763  TIP3 H2   HT     0.417000        1.0080           0
    6643 WT1  764  TIP3 OH2  OT    -0.834000       15.9994           0
    6644 WT1  764  TIP3 H1   HT     0.417000        1.0080           0
    6645 WT1  764  TIP3 H2   HT     0.417000        1.0080           0
    6646 WT1  765  TIP3 OH2  OT    -0.834000       15.9994           0
    6647 WT1  765  TIP3 H1   HT     0.417000        1.0080           0
    6648 WT1  765  TIP3 H2   HT     0.417000        1.0080           0
    6649 WT1  766  TIP3 OH2  OT    -0.834000       15.9994           0
    6650 WT1  766  TIP3 H1   HT     0.417000        1.0080           0
    6651 WT1  766  TIP3 H2   HT     0.417000        1.0080           0
    6652 WT1  767  TIP3 OH2  OT    -0.834000       15.9994           0
    6653 WT1  767  TIP3 H1   HT     0.417000        1.0080           0
    6654 WT1  767  TIP3 H2   HT     0.417000        1.0080           0
    6655 WT1  768  TIP3 OH2  OT    -0.834000       15.9994           0
    6656 WT1  768  TIP3 H1   HT     0.417000        1.0080           0
    6657 WT1  768  TIP3 H2   HT     0.417000        1.0080           0
    6658 WT1  769  TIP3 OH2  OT    -0.834000       15.9994           0
    6659 WT1  769  TIP3 H1   HT     0.417000        1.0080           0
    6660 WT1  769  TIP3 H2   HT     0.417000        1.0080           0
    6661 WT1  770  TIP3 OH2  OT    -0.834000       15.9994           0
    6662 WT1  770  TIP3 H1   HT     0.417000        1.0080           0
    6663 WT1  770  TIP3 H2   HT     0.417000        1.0080           0
    6664 WT1  771  TIP3 OH2  OT    -0.834000       15.9994           0
    6665 WT1  771  TIP3 H1   HT     0.417000        1.0080           0
    6666 WT1  771  TIP3 H2   HT     0.417000        1.0080           0
    6667 WT1  772  TIP3 OH2  OT    -0.834000       15.9994           0
    6668 WT1  772  TIP3 H1   HT     0.417000        1.0080           0
    6669 WT1  772  TIP3 H2   HT     0.417000        1.0080           0
    6670 WT1  773  TIP3 OH2  OT    -0.834000       15.9994           0
    6671 WT1  773  TIP3 H1   HT     0.417000        1.0080           0
    6672 WT1  773  TIP3 H2   HT     0.417000        1.0080           0
    6673 WT1  774  TIP3 OH2  OT    -0.834000       15.9994           0
    6674 WT1  774  TIP3 H1   HT     0.417000        1.0080           0
    6675 WT1  774  TIP3 H2   HT     0.417000        1.0080           0
    6676 WT1  775  TIP3 OH2  OT    -0.834000       15.9994           0
    6677 WT1  775  TIP3 H1   HT     0.417000        1.0080           0
    6678 WT1  775  TIP3 H2   HT     0.417000        1.0080           0
    6679 WT1  776  TIP3 OH2  OT    -0.834000       15.9994           0
    6680 WT1  776  TIP3 H1   HT     0.417000        1.0080           0
    6681 WT1  776  TIP3 H2   HT     0.417000        1.0080           0
    6682 WT1  777  TIP3 OH2  OT    -0.834000       15.9994           0
    6683 WT1  777  TIP3 H1   HT     0.417000        1.0080           0
    6684 WT1  777  TIP3 H2   HT     0.417000        1.0080           0
    6685 WT1  778  TIP3 OH2  OT    -0.834000       15.9994           0
    6686 WT1  778  TIP3 H1   HT     0.417000        1.0080           0
    6687 WT1  778  TIP3 H2   HT     0.417000        1.0080           0
    6688 WT1  780  TIP3 OH2  OT    -0.834000       15.9994           0
    6689 WT1  780  TIP3 H1   HT     0.417000        1.0080           0
    6690 WT1  780  TIP3 H2   HT     0.417000        1.0080           0
    6691 WT1  781  TIP3 OH2  OT    -0.834000       15.9994           0
    6692 WT1  781  TIP3 H1   HT     0.417000        1.0080           0
    6693 WT1  781  TIP3 H2   HT     0.417000        1.0080           0
    6694 WT1  782  TIP3 OH2  OT    -0.834000       15.9994           0
    6695 WT1  782  TIP3 H1   HT     0.417000        1.0080           0
    6696 WT1  782  TIP3 H2   HT     0.417000        1.0080           0
    6697 WT1  783  TIP3 OH2  OT    -0.834000       15.9994           0
    6698 WT1  783  TIP3 H1   HT     0.417000        1.0080           0
    6699 WT1  783  TIP3 H2   HT     0.417000        1.0080           0
    6700 WT1  784  TIP3 OH2  OT    -0.834000       15.9994           0
    6701 WT1  784  TIP3 H1   HT     0.417000        1.0080           0
    6702 WT1  784  TIP3 H2   HT     0.417000        1.0080           0
    6703 WT1  785  TIP3 OH2  OT    -0.834000       15.9994           0
    6704 WT1  785  TIP3 H1   HT     0.417000        1.0080           0
    6705 WT1  785  TIP3 H2   HT     0.417000        1.0080           0
    6706 WT1  786  TIP3 OH2  OT    -0.834000       15.9994           0
    6707 WT1  786  TIP3 H1   HT     0.417000        1.0080           0
    6708 WT1  786  TIP3 H2   HT     0.417000        1.0080           0
    6709 WT1  787  TIP3 OH2  OT    -0.834000       15.9994           0
    6710 WT1  787  TIP3 H1   HT     0.417000        1.0080           0
    6711 WT1  787  TIP3 H2   HT     0.417000        1.0080           0
    6712 WT1  788  TIP3 OH2  OT    -0.834000       15.9994           0
    6713 WT1  788  TIP3 H1   HT     0.417000        1.0080           0
    6714 WT1  788  TIP3 H2   HT     0.417000        1.0080           0
    6715 WT1  789  TIP3 OH2  OT    -0.834000       15.9994           0
    6716 WT1  789  TIP3 H1   HT     0.417000        1.0080           0
    6717 WT1  789  TIP3 H2   HT     0.417000        1.0080           0
    6718 WT1  790  TIP3 OH2  OT    -0.834000       15.9994           0
    6719 WT1  790  TIP3 H1   HT     0.417000        1.0080           0
    6720 WT1  790  TIP3 H2   HT     0.417000        1.0080           0
    6721 WT1  791  TIP3 OH2  OT    -0.834000       15.9994           0
    6722 WT1  791  TIP3 H1   HT     0.417000        1.0080           0
    6723 WT1  791  TIP3 H2   HT     0.417000        1.0080           0
    6724 WT1  792  TIP3 OH2  OT    -0.834000       15.9994           0
    6725 WT1  792  TIP3 H1   HT     0.417000        1.0080           0
    6726 WT1  792  TIP3 H2   HT     0.417000        1.0080           0
    6727 WT1  793  TIP3 OH2  OT    -0.834000       15.9994           0
    6728 WT1  793  TIP3 H1   HT     0.417000        1.0080           0
    6729 WT1  793  TIP3 H2   HT     0.417000        1.0080           0
    6730 WT1  794  TIP3 OH2  OT    -0.834000       15.9994           0
    6731 WT1  794  TIP3 H1   HT     0.417000        1.0080           0
    6732 WT1  794  TIP3 H2   HT     0.417000        1.0080           0
    6733 WT1  796  TIP3 OH2  OT    -0.834000       15.9994           0
    6734 WT1  796  TIP3 H1   HT     0.417000        1.0080           0
    6735 WT1  796  TIP3 H2   HT     0.417000        1.0080           0
    6736 WT1  801  TIP3 OH2  OT    -0.834000       15.9994           0
    6737 WT1  801  TIP3 H1   HT     0.417000        1.0080           0
    6738 WT1  801  TIP3 H2   HT     0.417000        1.0080           0
    6739 WT1  802  TIP3 OH2  OT    -0.834000       15.9994           0
    6740 WT1  802  TIP3 H1   HT     0.417000        1.0080           0
    6741 WT1  802  TIP3 H2   HT     0.417000        1.0080           0
    6742 WT1  803  TIP3 OH2  OT    -0.834000       15.9994           0
    6743 WT1  803  TIP3 H1   HT     0.417000        1.0080           0
    6744 WT1  803  TIP3 H2   HT     0.417000        1.0080           0
    6745 WT1  804  TIP3 OH2  OT    -0.834000       15.9994           0
    6746 WT1  804  TIP3 H1   HT     0.417000        1.0080           0
    6747 WT1  804  TIP3 H2   HT     0.417000        1.0080           0
    6748 WT1  805  TIP3 OH2  OT    -0.834000       15.9994           0
    6749 WT1  805  TIP3 H1   HT     0.417000        1.0080           0
    6750 WT1  805  TIP3 H2   HT     0.417000        1.0080           0
    6751 WT1  806  TIP3 OH2  OT    -0.834000       15.9994           0
    6752 WT1  806  TIP3 H1   HT     0.417000        1.0080           0
    6753 WT1  806  TIP3 H2   HT     0.417000        1.0080           0
    6754 WT1  807  TIP3 OH2  OT    -0.834000       15.9994           0
    6755 WT1  807  TIP3 H1   HT     0.417000        1.0080           0
    6756 WT1  807  TIP3 H2   HT     0.417000        1.0080           0
    6757 WT1  808  TIP3 OH2  OT    -0.834000       15.9994           0
    6758 WT1  808  TIP3 H1   HT     0.417000        1.0080           0
    6759 WT1  808  TIP3 H2   HT     0.417000        1.0080           0
    6760 WT1  809  TIP3 OH2  OT    -0.834000       15.9994           0
    6761 WT1  809  TIP3 H1   HT     0.417000        1.0080           0
    6762 WT1  809  TIP3 H2   HT     0.417000        1.0080           0
    6763 WT1  810  TIP3 OH2  OT    -0.834000       15.9994           0
    6764 WT1  810  TIP3 H1   HT     0.417000        1.0080           0
    6765 WT1  810  TIP3 H2   HT     0.417000        1.0080           0
    6766 WT1  811  TIP3 OH2  OT    -0.834000       15.9994           0
    6767 WT1  811  TIP3 H1   HT     0.417000        1.0080           0
    6768 WT1  811  TIP3 H2   HT     0.417000        1.0080           0
    6769 WT1  812  TIP3 OH2  OT    -0.834000       15.9994           0
    6770 WT1  812  TIP3 H1   HT     0.417000        1.0080           0
    6771 WT1  812  TIP3 H2   HT     0.417000        1.0080           0
    6772 WT1  813  TIP3 OH2  OT    -0.834000       15.9994           0
    6773 WT1  813  TIP3 H1   HT     0.417000        1.0080           0
    6774 WT1  813  TIP3 H2   HT     0.417000        1.0080           0
    6775 WT1  814  TIP3 OH2  OT    -0.834000       15.9994           0
    6776 WT1  814  TIP3 H1   HT     0.417000        1.0080           0
    6777 WT1  814  TIP3 H2   HT     0.417000        1.0080           0
    6778 WT1  815  TIP3 OH2  OT    -0.834000       15.9994           0
    6779 WT1  815  TIP3 H1   HT     0.417000        1.0080           0
    6780 WT1  815  TIP3 H2   HT     0.417000        1.0080           0
    6781 WT1  816  TIP3 OH2  OT    -0.834000       15.9994           0
    6782 WT1  816  TIP3 H1   HT     0.417000        1.0080           0
    6783 WT1  816  TIP3 H2   HT     0.417000        1.0080           0
    6784 WT1  817  TIP3 OH2  OT    -0.834000       15.9994           0
    6785 WT1  817  TIP3 H1   HT     0.417000        1.0080           0
    6786 WT1  817  TIP3 H2   HT     0.417000        1.0080           0
    6787 WT1  818  TIP3 OH2  OT    -0.834000       15.9994           0
    6788 WT1  818  TIP3 H1   HT     0.417000        1.0080           0
    6789 WT1  818  TIP3 H2   HT     0.417000        1.0080           0
    6790 WT1  819  TIP3 OH2  OT    -0.834000       15.9994           0
    6791 WT1  819  TIP3 H1   HT     0.417000        1.0080           0
    6792 WT1  819  TIP3 H2   HT     0.417000        1.0080           0
    6793 WT1  821  TIP3 OH2  OT    -0.834000       15.9994           0
    6794 WT1  821  TIP3 H1   HT     0.417000        1.0080           0
    6795 WT1  821  TIP3 H2   HT     0.417000        1.0080           0
    6796 WT1  822  TIP3 OH2  OT    -0.834000       15.9994           0
    6797 WT1  822  TIP3 H1   HT     0.417000        1.0080           0
    6798 WT1  822  TIP3 H2   HT     0.417000        1.0080           0
    6799 WT1  823  TIP3 OH2  OT    -0.834000       15.9994           0
    6800 WT1  823  TIP3 H1   HT     0.417000        1.0080           0
    6801 WT1  823  TIP3 H2   HT     0.417000        1.0080           0
    6802 WT1  824  TIP3 OH2  OT    -0.834000       15.9994           0
    6803 WT1  824  TIP3 H1   HT     0.417000        1.0080           0
    6804 WT1  824  TIP3 H2   HT     0.417000        1.0080           0
    6805 WT1  825  TIP3 OH2  OT    -0.834000       15.9994           0
    6806 WT1  825  TIP3 H1   HT     0.417000        1.0080           0
    6807 WT1  825  TIP3 H2   HT     0.417000        1.0080           0
    6808 WT1  826  TIP3 OH2  OT    -0.834000       15.9994           0
    6809 WT1  826  TIP3 H1   HT     0.417000        1.0080           0
    6810 WT1  826  TIP3 H2   HT     0.417000        1.0080           0
    6811 WT1  827  TIP3 OH2  OT    -0.834000       15.9994           0
    6812 WT1  827  TIP3 H1   HT     0.417000        1.0080           0
    6813 WT1  827  TIP3 H2   HT     0.417000        1.0080           0
    6814 WT1  828  TIP3 OH2  OT    -0.834000       15.9994           0
    6815 WT1  828  TIP3 H1   HT     0.417000        1.0080           0
    6816 WT1  828  TIP3 H2   HT     0.417000        1.0080           0
    6817 WT1  829  TIP3 OH2  OT    -0.834000       15.9994           0
    6818 WT1  829  TIP3 H1   HT     0.417000        1.0080           0
    6819 WT1  829  TIP3 H2   HT     0.417000        1.0080           0
    6820 WT1  830  TIP3 OH2  OT    -0.834000       15.9994           0
    6821 WT1  830  TIP3 H1   HT     0.417000        1.0080           0
    6822 WT1  830  TIP3 H2   HT     0.417000        1.0080           0
    6823 WT1  831  TIP3 OH2  OT    -0.834000       15.9994           0
    6824 WT1  831  TIP3 H1   HT     0.417000        1.0080           0
    6825 WT1  831  TIP3 H2   HT     0.417000        1.0080           0
    6826 WT1  832  TIP3 OH2  OT    -0.834000       15.9994           0
    6827 WT1  832  TIP3 H1   HT     0.417000        1.0080           0
    6828 WT1  832  TIP3 H2   HT     0.417000        1.0080           0
    6829 WT1  833  TIP3 OH2  OT    -0.834000       15.9994           0
    6830 WT1  833  TIP3 H1   HT     0.417000        1.0080           0
    6831 WT1  833  TIP3 H2   HT     0.417000        1.0080           0
    6832 WT1  834  TIP3 OH2  OT    -0.834000       15.9994           0
    6833 WT1  834  TIP3 H1   HT     0.417000        1.0080           0
    6834 WT1  834  TIP3 H2   HT     0.417000        1.0080           0
    6835 WT1  835  TIP3 OH2  OT    -0.834000       15.9994           0
    6836 WT1  835  TIP3 H1   HT     0.417000        1.0080           0
    6837 WT1  835  TIP3 H2   HT     0.417000        1.0080           0
    6838 WT1  836  TIP3 OH2  OT    -0.834000       15.9994           0
    6839 WT1  836  TIP3 H1   HT     0.417000        1.0080           0
    6840 WT1  836  TIP3 H2   HT     0.417000        1.0080           0
    6841 WT1  837  TIP3 OH2  OT    -0.834000       15.9994           0
    6842 WT1  837  TIP3 H1   HT     0.417000        1.0080           0
    6843 WT1  837  TIP3 H2   HT     0.417000        1.0080           0
    6844 WT1  838  TIP3 OH2  OT    -0.834000       15.9994           0
    6845 WT1  838  TIP3 H1   HT     0.417000        1.0080           0
    6846 WT1  838  TIP3 H2   HT     0.417000        1.0080           0
    6847 WT1  841  TIP3 OH2  OT    -0.834000       15.9994           0
    6848 WT1  841  TIP3 H1   HT     0.417000        1.0080           0
    6849 WT1  841  TIP3 H2   HT     0.417000        1.0080           0
    6850 WT1  842  TIP3 OH2  OT    -0.834000       15.9994           0
    6851 WT1  842  TIP3 H1   HT     0.417000        1.0080           0
    6852 WT1  842  TIP3 H2   HT     0.417000        1.0080           0
    6853 WT1  843  TIP3 OH2  OT    -0.834000       15.9994           0
    6854 WT1  843  TIP3 H1   HT     0.417000        1.0080           0
    6855 WT1  843  TIP3 H2   HT     0.417000        1.0080           0
    6856 WT1  844  TIP3 OH2  OT    -0.834000       15.9994           0
    6857 WT1  844  TIP3 H1   HT     0.417000        1.0080           0
    6858 WT1  844  TIP3 H2   HT     0.417000        1.0080           0
    6859 WT1  845  TIP3 OH2  OT    -0.834000       15.9994           0
    6860 WT1  845  TIP3 H1   HT     0.417000        1.0080           0
    6861 WT1  845  TIP3 H2   HT     0.417000        1.0080           0
    6862 WT1  846  TIP3 OH2  OT    -0.834000       15.9994           0
    6863 WT1  846  TIP3 H1   HT     0.417000        1.0080           0
    6864 WT1  846  TIP3 H2   HT     0.417000        1.0080           0
    6865 WT1  847  TIP3 OH2  OT    -0.834000       15.9994           0
    6866 WT1  847  TIP3 H1   HT     0.417000        1.0080           0
    6867 WT1  847  TIP3 H2   HT     0.417000        1.0080           0
    6868 WT1  848  TIP3 OH2  OT    -0.834000       15.9994           0
    6869 WT1  848  TIP3 H1   HT     0.417000        1.0080           0
    6870 WT1  848  TIP3 H2   HT     0.417000        1.0080           0
    6871 WT1  849  TIP3 OH2  OT    -0.834000       15.9994           0
    6872 WT1  849  TIP3 H1   HT     0.417000        1.0080           0
    6873 WT1  849  TIP3 H2   HT     0.417000        1.0080           0
    6874 WT1  850  TIP3 OH2  OT    -0.834000       15.9994           0
    6875 WT1  850  TIP3 H1   HT     0.417000        1.0080           0
    6876 WT1  850  TIP3 H2   HT     0.417000        1.0080           0
    6877 WT1  851  TIP3 OH2  OT    -0.834000       15.9994           0
    6878 WT1  851  TIP3 H1   HT     0.417000        1.0080           0
    6879 WT1  851  TIP3 H2   HT     0.417000        1.0080           0
    6880 WT1  852  TIP3 OH2  OT    -0.834000       15.9994           0
    6881 WT1  852  TIP3 H1   HT     0.417000        1.0080           0
    6882 WT1  852  TIP3 H2   HT     0.417000        1.0080           0
    6883 WT1  853  TIP3 OH2  OT    -0.834000       15.9994           0
    6884 WT1  853  TIP3 H1   HT     0.417000        1.0080           0
    6885 WT1  853  TIP3 H2   HT     0.417000        1.0080           0
    6886 WT1  854  TIP3 OH2  OT    -0.834000       15.9994           0
    6887 WT1  854  TIP3 H1   HT     0.417000        1.0080           0
    6888 WT1  854  TIP3 H2   HT     0.417000        1.0080           0
    6889 WT1  855  TIP3 OH2  OT    -0.834000       15.9994           0
    6890 WT1  855  TIP3 H1   HT     0.417000        1.0080           0
    6891 WT1  855  TIP3 H2   HT     0.417000        1.0080           0
    6892 WT1  856  TIP3 OH2  OT    -0.834000       15.9994           0
    6893 WT1  856  TIP3 H1   HT     0.417000        1.0080           0
    6894 WT1  856  TIP3 H2   HT     0.417000        1.0080           0
    6895 WT1  857  TIP3 OH2  OT    -0.834000       15.9994           0
    6896 WT1  857  TIP3 H1   HT     0.417000        1.0080           0
    6897 WT1  857  TIP3 H2   HT     0.417000        1.0080           0
    6898 WT1  858  TIP3 OH2  OT    -0.834000       15.9994           0
    6899 WT1  858  TIP3 H1   HT     0.417000        1.0080           0
    6900 WT1  858  TIP3 H2   HT     0.417000        1.0080           0
    6901 WT1  859  TIP3 OH2  OT    -0.834000       15.9994           0
    6902 WT1  859  TIP3 H1   HT     0.417000        1.0080           0
    6903 WT1  859  TIP3 H2   HT     0.417000        1.0080           0
    6904 WT1  861  TIP3 OH2  OT    -0.834000       15.9994           0
    6905 WT1  861  TIP3 H1   HT     0.417000        1.0080           0
    6906 WT1  861  TIP3 H2   HT     0.417000        1.0080           0
    6907 WT1  862  TIP3 OH2  OT    -0.834000       15.9994           0
    6908 WT1  862  TIP3 H1   HT     0.417000        1.0080           0
    6909 WT1  862  TIP3 H2   HT     0.417000        1.0080           0
    6910 WT1  863  TIP3 OH2  OT    -0.834000       15.9994           0
    6911 WT1  863  TIP3 H1   HT     0.417000        1.0080           0
    6912 WT1  863  TIP3 H2   HT     0.417000        1.0080           0
    6913 WT1  864  TIP3 OH2  OT    -0.834000       15.9994           0
    6914 WT1  864  TIP3 H1   HT     0.417000        1.0080           0
    6915 WT1  864  TIP3 H2   HT     0.417000        1.0080           0
    6916 WT1  865  TIP3 OH2  OT    -0.834000       15.9994           0
    6917 WT1  865  TIP3 H1   HT     0.417000        1.0080           0
    6918 WT1  865  TIP3 H2   HT     0.417000        1.0080           0
    6919 WT1  866  TIP3 OH2  OT    -0.834000       15.9994           0
    6920 WT1  866  TIP3 H1   HT     0.417000        1.0080           0
    6921 WT1  866  TIP3 H2   HT     0.417000        1.0080           0
    6922 WT1  867  TIP3 OH2  OT    -0.834000       15.9994           0
    6923 WT1  867  TIP3 H1   HT     0.417000        1.0080           0
    6924 WT1  867  TIP3 H2   HT     0.417000        1.0080           0
    6925 WT1  869  TIP3 OH2  OT    -0.834000       15.9994           0
    6926 WT1  869  TIP3 H1   HT     0.417000        1.0080           0
    6927 WT1  869  TIP3 H2   HT     0.417000        1.0080           0
    6928 WT1  870  TIP3 OH2  OT    -0.834000       15.9994           0
    6929 WT1  870  TIP3 H1   HT     0.417000        1.0080           0
    6930 WT1  870  TIP3 H2   HT     0.417000        1.0080           0
    6931 WT1  871  TIP3 OH2  OT    -0.834000       15.9994           0
    6932 WT1  871  TIP3 H1   HT     0.417000        1.0080           0
    6933 WT1  871  TIP3 H2   HT     0.417000        1.0080           0
    6934 WT1  872  TIP3 OH2  OT    -0.834000       15.9994           0
    6935 WT1  872  TIP3 H1   HT     0.417000        1.0080           0
    6936 WT1  872  TIP3 H2   HT     0.417000        1.0080           0
    6937 WT1  873  TIP3 OH2  OT    -0.834000       15.9994           0
    6938 WT1  873  TIP3 H1   HT     0.417000        1.0080           0
    6939 WT1  873  TIP3 H2   HT     0.417000        1.0080           0
    6940 WT1  874  TIP3 OH2  OT    -0.834000       15.9994           0
    6941 WT1  874  TIP3 H1   HT     0.417000        1.0080           0
    6942 WT1  874  TIP3 H2   HT     0.417000        1.0080           0
    6943 WT1  875  TIP3 OH2  OT    -0.834000       15.9994           0
    6944 WT1  875  TIP3 H1   HT     0.417000        1.0080           0
    6945 WT1  875  TIP3 H2   HT     0.417000        1.0080           0
    6946 WT1  876  TIP3 OH2  OT    -0.834000       15.9994           0
    6947 WT1  876  TIP3 H1   HT     0.417000        1.0080           0
    6948 WT1  876  TIP3 H2   HT     0.417000        1.0080           0
    6949 WT1  878  TIP3 OH2  OT    -0.834000       15.9994           0
    6950 WT1  878  TIP3 H1   HT     0.417000        1.0080           0
    6951 WT1  878  TIP3 H2   HT     0.417000        1.0080           0
    6952 WT1  880  TIP3 OH2  OT    -0.834000       15.9994           0
    6953 WT1  880  TIP3 H1   HT     0.417000        1.0080           0
    6954 WT1  880  TIP3 H2   HT     0.417000        1.0080           0
    6955 WT1  881  TIP3 OH2  OT    -0.834000       15.9994           0
    6956 WT1  881  TIP3 H1   HT     0.417000        1.0080           0
    6957 WT1  881  TIP3 H2   HT     0.417000        1.0080           0
    6958 WT1  883  TIP3 OH2  OT    -0.834000       15.9994           0
    6959 WT1  883  TIP3 H1   HT     0.417000        1.0080           0
    6960 WT1  883  TIP3 H2   HT     0.417000        1.0080           0
    6961 WT1  884  TIP3 OH2  OT    -0.834000       15.9994           0
    6962 WT1  884  TIP3 H1   HT     0.417000        1.0080           0
    6963 WT1  884  TIP3 H2   HT     0.417000        1.0080           0
    6964 WT1  885  TIP3 OH2  OT    -0.834000       15.9994           0
    6965 WT1  885  TIP3 H1   HT     0.417000        1.0080           0
    6966 WT1  885  TIP3 H2   HT     0.417000        1.0080           0
    6967 WT1  886  TIP3 OH2  OT    -0.834000       15.9994           0
    6968 WT1  886  TIP3 H1   HT     0.417000        1.0080           0
    6969 WT1  886  TIP3 H2   HT     0.417000        1.0080           0
    6970 WT1  887  TIP3 OH2  OT    -0.834000       15.9994           0
    6971 WT1  887  TIP3 H1   HT     0.417000        1.0080           0
    6972 WT1  887  TIP3 H2   HT     0.417000        1.0080           0
    6973 WT1  889  TIP3 OH2  OT    -0.834000       15.9994           0
    6974 WT1  889  TIP3 H1   HT     0.417000        1.0080           0
    6975 WT1  889  TIP3 H2   HT     0.417000        1.0080           0
    6976 WT1  890  TIP3 OH2  OT    -0.834000       15.9994           0
    6977 WT1  890  TIP3 H1   HT     0.417000        1.0080           0
    6978 WT1  890  TIP3 H2   HT     0.417000        1.0080           0
    6979 WT1  891  TIP3 OH2  OT    -0.834000       15.9994           0
    6980 WT1  891  TIP3 H1   HT     0.417000        1.0080           0
    6981 WT1  891  TIP3 H2   HT     0.417000        1.0080           0
    6982 WT1  893  TIP3 OH2  OT    -0.834000       15.9994           0
    6983 WT1  893  TIP3 H1   HT     0.417000        1.0080           0
    6984 WT1  893  TIP3 H2   HT     0.417000        1.0080           0
    6985 WT1  895  TIP3 OH2  OT    -0.834000       15.9994           0
    6986 WT1  895  TIP3 H1   HT     0.417000        1.0080           0
    6987 WT1  895  TIP3 H2   HT     0.417000        1.0080           0
    6988 WT1  897  TIP3 OH2  OT    -0.834000       15.9994           0
    6989 WT1  897  TIP3 H1   HT     0.417000        1.0080           0
    6990 WT1  897  TIP3 H2   HT     0.417000        1.0080           0
    6991 WT1  898  TIP3 OH2  OT    -0.834000       15.9994           0
    6992 WT1  898  TIP3 H1   HT     0.417000        1.0080           0
    6993 WT1  898  TIP3 H2   HT     0.417000        1.0080           0
    6994 WT1  899  TIP3 OH2  OT    -0.834000       15.9994           0
    6995 WT1  899  TIP3 H1   HT     0.417000        1.0080           0
    6996 WT1  899  TIP3 H2   HT     0.417000        1.0080           0
    6997 WT1  900  TIP3 OH2  OT    -0.834000       15.9994           0
    6998 WT1  900  TIP3 H1   HT     0.417000        1.0080           0
    6999 WT1  900  TIP3 H2   HT     0.417000        1.0080           0
    7000 WT1  901  TIP3 OH2  OT    -0.834000       15.9994           0
    7001 WT1  901  TIP3 H1   HT     0.417000        1.0080           0
    7002 WT1  901  TIP3 H2   HT     0.417000        1.0080           0
    7003 WT1  902  TIP3 OH2  OT    -0.834000       15.9994           0
    7004 WT1  902  TIP3 H1   HT     0.417000        1.0080           0
    7005 WT1  902  TIP3 H2   HT     0.417000        1.0080           0
    7006 WT1  905  TIP3 OH2  OT    -0.834000       15.9994           0
    7007 WT1  905  TIP3 H1   HT     0.417000        1.0080           0
    7008 WT1  905  TIP3 H2   HT     0.417000        1.0080           0
    7009 WT1  906  TIP3 OH2  OT    -0.834000       15.9994           0
    7010 WT1  906  TIP3 H1   HT     0.417000        1.0080           0
    7011 WT1  906  TIP3 H2   HT     0.417000        1.0080           0
    7012 WT1  907  TIP3 OH2  OT    -0.834000       15.9994           0
    7013 WT1  907  TIP3 H1   HT     0.417000        1.0080           0
    7014 WT1  907  TIP3 H2   HT     0.417000        1.0080           0
    7015 WT1  908  TIP3 OH2  OT    -0.834000       15.9994           0
    7016 WT1  908  TIP3 H1   HT     0.417000        1.0080           0
    7017 WT1  908  TIP3 H2   HT     0.417000        1.0080           0
    7018 WT1  909  TIP3 OH2  OT    -0.834000       15.9994           0
    7019 WT1  909  TIP3 H1   HT     0.417000        1.0080           0
    7020 WT1  909  TIP3 H2   HT     0.417000        1.0080           0
    7021 WT1  910  TIP3 OH2  OT    -0.834000       15.9994           0
    7022 WT1  910  TIP3 H1   HT     0.417000        1.0080           0
    7023 WT1  910  TIP3 H2   HT     0.417000        1.0080           0
    7024 WT1  911  TIP3 OH2  OT    -0.834000       15.9994           0
    7025 WT1  911  TIP3 H1   HT     0.417000        1.0080           0
    7026 WT1  911  TIP3 H2   HT     0.417000        1.0080           0
    7027 WT1  912  TIP3 OH2  OT    -0.834000       15.9994           0
    7028 WT1  912  TIP3 H1   HT     0.417000        1.0080           0
    7029 WT1  912  TIP3 H2   HT     0.417000        1.0080           0
    7030 WT1  913  TIP3 OH2  OT    -0.834000       15.9994           0
    7031 WT1  913  TIP3 H1   HT     0.417000        1.0080           0
    7032 WT1  913  TIP3 H2   HT     0.417000        1.0080           0
    7033 WT1  914  TIP3 OH2  OT    -0.834000       15.9994           0
    7034 WT1  914  TIP3 H1   HT     0.417000        1.0080           0
    7035 WT1  914  TIP3 H2   HT     0.417000        1.0080           0
    7036 WT1  915  TIP3 OH2  OT    -0.834000       15.9994           0
    7037 WT1  915  TIP3 H1   HT     0.417000        1.0080           0
    7038 WT1  915  TIP3 H2   HT     0.417000        1.0080           0
    7039 WT1  916  TIP3 OH2  OT    -0.834000       15.9994           0
    7040 WT1  916  TIP3 H1   HT     0.417000        1.0080           0
    7041 WT1  916  TIP3 H2   HT     0.417000        1.0080           0
    7042 WT1  917  TIP3 OH2  OT    -0.834000       15.9994           0
    7043 WT1  917  TIP3 H1   HT     0.417000        1.0080           0
    7044 WT1  917  TIP3 H2   HT     0.417000        1.0080           0
    7045 WT1  918  TIP3 OH2  OT    -0.834000       15.9994           0
    7046 WT1  918  TIP3 H1   HT     0.417000        1.0080           0
    7047 WT1  918  TIP3 H2   HT     0.417000        1.0080           0
    7048 WT1  920  TIP3 OH2  OT    -0.834000       15.9994           0
    7049 WT1  920  TIP3 H1   HT     0.417000        1.0080           0
    7050 WT1  920  TIP3 H2   HT     0.417000        1.0080           0
    7051 WT1  921  TIP3 OH2  OT    -0.834000       15.9994           0
    7052 WT1  921  TIP3 H1   HT     0.417000        1.0080           0
    7053 WT1  921  TIP3 H2   HT     0.417000        1.0080           0
    7054 WT1  922  TIP3 OH2  OT    -0.834000       15.9994           0
    7055 WT1  922  TIP3 H1   HT     0.417000        1.0080           0
    7056 WT1  922  TIP3 H2   HT     0.417000        1.0080           0
    7057 WT1  923  TIP3 OH2  OT    -0.834000       15.9994           0
    7058 WT1  923  TIP3 H1   HT     0.417000        1.0080           0
    7059 WT1  923  TIP3 H2   HT     0.417000        1.0080           0
    7060 WT1  924  TIP3 OH2  OT    -0.834000       15.9994           0
    7061 WT1  924  TIP3 H1   HT     0.417000        1.0080           0
    7062 WT1  924  TIP3 H2   HT     0.417000        1.0080           0
    7063 WT1  925  TIP3 OH2  OT    -0.834000       15.9994           0
    7064 WT1  925  TIP3 H1   HT     0.417000        1.0080           0
    7065 WT1  925  TIP3 H2   HT     0.417000        1.0080           0
    7066 WT1  926  TIP3 OH2  OT    -0.834000       15.9994           0
    7067 WT1  926  TIP3 H1   HT     0.417000        1.0080           0
    7068 WT1  926  TIP3 H2   HT     0.417000        1.0080           0
    7069 WT1  927  TIP3 OH2  OT    -0.834000       15.9994           0
    7070 WT1  927  TIP3 H1   HT     0.417000        1.0080           0
    7071 WT1  927  TIP3 H2   HT     0.417000        1.0080           0
    7072 WT1  928  TIP3 OH2  OT    -0.834000       15.9994           0
    7073 WT1  928  TIP3 H1   HT     0.417000        1.0080           0
    7074 WT1  928  TIP3 H2   HT     0.417000        1.0080           0
    7075 WT1  929  TIP3 OH2  OT    -0.834000       15.9994           0
    7076 WT1  929  TIP3 H1   HT     0.417000        1.0080           0
    7077 WT1  929  TIP3 H2   HT     0.417000        1.0080           0
    7078 WT1  930  TIP3 OH2  OT    -0.834000       15.9994           0
    7079 WT1  930  TIP3 H1   HT     0.417000        1.0080           0
    7080 WT1  930  TIP3 H2   HT     0.417000        1.0080           0
    7081 WT1  931  TIP3 OH2  OT    -0.834000       15.9994           0
    7082 WT1  931  TIP3 H1   HT     0.417000        1.0080           0
    7083 WT1  931  TIP3 H2   HT     0.417000        1.0080           0
    7084 WT1  932  TIP3 OH2  OT    -0.834000       15.9994           0
    7085 WT1  932  TIP3 H1   HT     0.417000        1.0080           0
    7086 WT1  932  TIP3 H2   HT     0.417000        1.0080           0
    7087 WT1  933  TIP3 OH2  OT    -0.834000       15.9994           0
    7088 WT1  933  TIP3 H1   HT     0.417000        1.0080           0
    7089 WT1  933  TIP3 H2   HT     0.417000        1.0080           0
    7090 WT1  935  TIP3 OH2  OT    -0.834000       15.9994           0
    7091 WT1  935  TIP3 H1   HT     0.417000        1.0080           0
    7092 WT1  935  TIP3 H2   HT     0.417000        1.0080           0
    7093 WT1  936  TIP3 OH2  OT    -0.834000       15.9994           0
    7094 WT1  936  TIP3 H1   HT     0.417000        1.0080           0
    7095 WT1  936  TIP3 H2   HT     0.417000        1.0080           0
    7096 WT1  937  TIP3 OH2  OT    -0.834000       15.9994           0
    7097 WT1  937  TIP3 H1   HT     0.417000        1.0080           0
    7098 WT1  937  TIP3 H2   HT     0.417000        1.0080           0
    7099 WT1  939  TIP3 OH2  OT    -0.834000       15.9994           0
    7100 WT1  939  TIP3 H1   HT     0.417000        1.0080           0
    7101 WT1  939  TIP3 H2   HT     0.417000        1.0080           0
    7102 WT1  940  TIP3 OH2  OT    -0.834000       15.9994           0
    7103 WT1  940  TIP3 H1   HT     0.417000        1.0080           0
    7104 WT1  940  TIP3 H2   HT     0.417000        1.0080           0
    7105 WT1  941  TIP3 OH2  OT    -0.834000       15.9994           0
    7106 WT1  941  TIP3 H1   HT     0.417000        1.0080           0
    7107 WT1  941  TIP3 H2   HT     0.417000        1.0080           0
    7108 WT1  942  TIP3 OH2  OT    -0.834000       15.9994           0
    7109 WT1  942  TIP3 H1   HT     0.417000        1.0080           0
    7110 WT1  942  TIP3 H2   HT     0.417000        1.0080           0
    7111 WT1  944  TIP3 OH2  OT    -0.834000       15.9994           0
    7112 WT1  944  TIP3 H1   HT     0.417000        1.0080           0
    7113 WT1  944  TIP3 H2   HT     0.417000        1.0080           0
    7114 WT1  946  TIP3 OH2  OT    -0.834000       15.9994           0
    7115 WT1  946  TIP3 H1   HT     0.417000        1.0080           0
    7116 WT1  946  TIP3 H2   HT     0.417000        1.0080           0
    7117 WT1  947  TIP3 OH2  OT    -0.834000       15.9994           0
    7118 WT1  947  TIP3 H1   HT     0.417000        1.0080           0
    7119 WT1  947  TIP3 H2   HT     0.417000        1.0080           0
    7120 WT1  948  TIP3 OH2  OT    -0.834000       15.9994           0
    7121 WT1  948  TIP3 H1   HT     0.417000        1.0080           0
    7122 WT1  948  TIP3 H2   HT     0.417000        1.0080           0
    7123 WT1  949  TIP3 OH2  OT    -0.834000       15.9994           0
    7124 WT1  949  TIP3 H1   HT     0.417000        1.0080           0
    7125 WT1  949  TIP3 H2   HT     0.417000        1.0080           0
    7126 WT1  950  TIP3 OH2  OT    -0.834000       15.9994           0
    7127 WT1  950  TIP3 H1   HT     0.417000        1.0080           0
    7128 WT1  950  TIP3 H2   HT     0.417000        1.0080           0
    7129 WT1  952  TIP3 OH2  OT    -0.834000       15.9994           0
    7130 WT1  952  TIP3 H1   HT     0.417000        1.0080           0
    7131 WT1  952  TIP3 H2   HT     0.417000        1.0080           0
    7132 WT1  953  TIP3 OH2  OT    -0.834000       15.9994           0
    7133 WT1  953  TIP3 H1   HT     0.417000        1.0080           0
    7134 WT1  953  TIP3 H2   HT     0.417000        1.0080           0
    7135 WT1  954  TIP3 OH2  OT    -0.834000       15.9994           0
    7136 WT1  954  TIP3 H1   HT     0.417000        1.0080           0
    7137 WT1  954  TIP3 H2   HT     0.417000        1.0080           0
    7138 WT1  955  TIP3 OH2  OT    -0.834000       15.9994           0
    7139 WT1  955  TIP3 H1   HT     0.417000        1.0080           0
    7140 WT1  955  TIP3 H2   HT     0.417000        1.0080           0
    7141 WT1  956  TIP3 OH2  OT    -0.834000       15.9994           0
    7142 WT1  956  TIP3 H1   HT     0.417000        1.0080           0
    7143 WT1  956  TIP3 H2   HT     0.417000        1.0080           0
    7144 WT1  957  TIP3 OH2  OT    -0.834000       15.9994           0
    7145 WT1  957  TIP3 H1   HT     0.417000        1.0080           0
    7146 WT1  957  TIP3 H2   HT     0.417000        1.0080           0
    7147 WT1  958  TIP3 OH2  OT    -0.834000       15.9994           0
    7148 WT1  958  TIP3 H1   HT     0.417000        1.0080           0
    7149 WT1  958  TIP3 H2   HT     0.417000        1.0080           0
    7150 WT1  961  TIP3 OH2  OT    -0.834000       15.9994           0
    7151 WT1  961  TIP3 H1   HT     0.417000        1.0080           0
    7152 WT1  961  TIP3 H2   HT     0.417000        1.0080           0
    7153 WT1  962  TIP3 OH2  OT    -0.834000       15.9994           0
    7154 WT1  962  TIP3 H1   HT     0.417000        1.0080           0
    7155 WT1  962  TIP3 H2   HT     0.417000        1.0080           0
    7156 WT1  964  TIP3 OH2  OT    -0.834000       15.9994           0
    7157 WT1  964  TIP3 H1   HT     0.417000        1.0080           0
    7158 WT1  964  TIP3 H2   HT     0.417000        1.0080           0
    7159 WT1  966  TIP3 OH2  OT    -0.834000       15.9994           0
    7160 WT1  966  TIP3 H1   HT     0.417000        1.0080           0
    7161 WT1  966  TIP3 H2   HT     0.417000        1.0080           0
    7162 WT1  967  TIP3 OH2  OT    -0.834000       15.9994           0
    7163 WT1  967  TIP3 H1   HT     0.417000        1.0080           0
    7164 WT1  967  TIP3 H2   HT     0.417000        1.0080           0
    7165 WT1  968  TIP3 OH2  OT    -0.834000       15.9994           0
    7166 WT1  968  TIP3 H1   HT     0.417000        1.0080           0
    7167 WT1  968  TIP3 H2   HT     0.417000        1.0080           0
    7168 WT1  969  TIP3 OH2  OT    -0.834000       15.9994           0
    7169 WT1  969  TIP3 H1   HT     0.417000        1.0080           0
    7170 WT1  969  TIP3 H2   HT     0.417000        1.0080           0
    7171 WT1  970  TIP3 OH2  OT    -0.834000       15.9994           0
    7172 WT1  970  TIP3 H1   HT     0.417000        1.0080           0
    7173 WT1  970  TIP3 H2   HT     0.417000        1.0080           0
    7174 WT1  971  TIP3 OH2  OT    -0.834000       15.9994           0
    7175 WT1  971  TIP3 H1   HT     0.417000        1.0080           0
    7176 WT1  971  TIP3 H2   HT     0.417000        1.0080           0
    7177 WT1  972  TIP3 OH2  OT    -0.834000       15.9994           0
    7178 WT1  972  TIP3 H1   HT     0.417000        1.0080           0
    7179 WT1  972  TIP3 H2   HT     0.417000        1.0080           0
    7180 WT1  973  TIP3 OH2  OT    -0.834000       15.9994           0
    7181 WT1  973  TIP3 H1   HT     0.417000        1.0080           0
    7182 WT1  973  TIP3 H2   HT     0.417000        1.0080           0
    7183 WT1  974  TIP3 OH2  OT    -0.834000       15.9994           0
    7184 WT1  974  TIP3 H1   HT     0.417000        1.0080           0
    7185 WT1  974  TIP3 H2   HT     0.417000        1.0080           0
    7186 WT1  975  TIP3 OH2  OT    -0.834000       15.9994           0
    7187 WT1  975  TIP3 H1   HT     0.417000        1.0080           0
    7188 WT1  975  TIP3 H2   HT     0.417000        1.0080           0
    7189 WT1  976  TIP3 OH2  OT    -0.834000       15.9994           0
    7190 WT1  976  TIP3 H1   HT     0.417000        1.0080           0
    7191 WT1  976  TIP3 H2   HT     0.417000        1.0080           0
    7192 WT1  977  TIP3 OH2  OT    -0.834000       15.9994           0
    7193 WT1  977  TIP3 H1   HT     0.417000        1.0080           0
    7194 WT1  977  TIP3 H2   HT     0.417000        1.0080           0
    7195 WT1  978  TIP3 OH2  OT    -0.834000       15.9994           0
    7196 WT1  978  TIP3 H1   HT     0.417000        1.0080           0
    7197 WT1  978  TIP3 H2   HT     0.417000        1.0080           0
    7198 WT1  979  TIP3 OH2  OT    -0.834000       15.9994           0
    7199 WT1  979  TIP3 H1   HT     0.417000        1.0080           0
    7200 WT1  979  TIP3 H2   HT     0.417000        1.0080           0
    7201 WT1  982  TIP3 OH2  OT    -0.834000       15.9994           0
    7202 WT1  982  TIP3 H1   HT     0.417000        1.0080           0
    7203 WT1  982  TIP3 H2   HT     0.417000        1.0080           0
    7204 WT1  983  TIP3 OH2  OT    -0.834000       15.9994           0
    7205 WT1  983  TIP3 H1   HT     0.417000        1.0080           0
    7206 WT1  983  TIP3 H2   HT     0.417000        1.0080           0
    7207 WT1  984  TIP3 OH2  OT    -0.834000       15.9994           0
    7208 WT1  984  TIP3 H1   HT     0.417000        1.0080           0
    7209 WT1  984  TIP3 H2   HT     0.417000        1.0080           0
    7210 WT1  985  TIP3 OH2  OT    -0.834000       15.9994           0
    7211 WT1  985  TIP3 H1   HT     0.417000        1.0080           0
    7212 WT1  985  TIP3 H2   HT     0.417000        1.0080           0
    7213 WT1  988  TIP3 OH2  OT    -0.834000       15.9994           0
    7214 WT1  988  TIP3 H1   HT     0.417000        1.0080           0
    7215 WT1  988  TIP3 H2   HT     0.417000        1.0080           0
    7216 WT1  989  TIP3 OH2  OT    -0.834000       15.9994           0
    7217 WT1  989  TIP3 H1   HT     0.417000        1.0080           0
    7218 WT1  989  TIP3 H2   HT     0.417000        1.0080           0
    7219 WT1  990  TIP3 OH2  OT    -0.834000       15.9994           0
    7220 WT1  990  TIP3 H1   HT     0.417000        1.0080           0
    7221 WT1  990  TIP3 H2   HT     0.417000        1.0080           0
    7222 WT1  991  TIP3 OH2  OT    -0.834000       15.9994           0
    7223 WT1  991  TIP3 H1   HT     0.417000        1.0080           0
    7224 WT1  991  TIP3 H2   HT     0.417000        1.0080           0
    7225 WT1  992  TIP3 OH2  OT    -0.834000       15.9994           0
    7226 WT1  992  TIP3 H1   HT     0.417000        1.0080           0
    7227 WT1  992  TIP3 H2   HT     0.417000        1.0080           0
    7228 WT1  994  TIP3 OH2  OT    -0.834000       15.9994           0
    7229 WT1  994  TIP3 H1   HT     0.417000        1.0080           0
    7230 WT1  994  TIP3 H2   HT     0.417000        1.0080           0
    7231 WT1  995  TIP3 OH2  OT    -0.834000       15.9994           0
    7232 WT1  995  TIP3 H1   HT     0.417000        1.0080           0
    7233 WT1  995  TIP3 H2   HT     0.417000        1.0080           0
    7234 WT1  996  TIP3 OH2  OT    -0.834000       15.9994           0
    7235 WT1  996  TIP3 H1   HT     0.417000        1.0080           0
    7236 WT1  996  TIP3 H2   HT     0.417000        1.0080           0
    7237 WT1  997  TIP3 OH2  OT    -0.834000       15.9994           0
    7238 WT1  997  TIP3 H1   HT     0.417000        1.0080           0
    7239 WT1  997  TIP3 H2   HT     0.417000        1.0080           0
    7240 WT1  998  TIP3 OH2  OT    -0.834000       15.9994           0
    7241 WT1  998  TIP3 H1   HT     0.417000        1.0080           0
    7242 WT1  998  TIP3 H2   HT     0.417000        1.0080           0
    7243 WT1  999  TIP3 OH2  OT    -0.834000       15.9994           0
    7244 WT1  999  TIP3 H1   HT     0.417000        1.0080           0
    7245 WT1  999  TIP3 H2   HT     0.417000        1.0080           0
    7246 WT1  1000 TIP3 OH2  OT    -0.834000       15.9994           0
    7247 WT1  1000 TIP3 H1   HT     0.417000        1.0080           0
    7248 WT1  1000 TIP3 H2   HT     0.417000        1.0080           0
    7249 WT1  1001 TIP3 OH2  OT    -0.834000       15.9994           0
    7250 WT1  1001 TIP3 H1   HT     0.417000        1.0080           0
    7251 WT1  1001 TIP3 H2   HT     0.417000        1.0080           0
    7252 WT1  1003 TIP3 OH2  OT    -0.834000       15.9994           0
    7253 WT1  1003 TIP3 H1   HT     0.417000        1.0080           0
    7254 WT1  1003 TIP3 H2   HT     0.417000        1.0080           0
    7255 WT1  1004 TIP3 OH2  OT    -0.834000       15.9994           0
    7256 WT1  1004 TIP3 H1   HT     0.417000        1.0080           0
    7257 WT1  1004 TIP3 H2   HT     0.417000        1.0080           0
    7258 WT1  1005 TIP3 OH2  OT    -0.834000       15.9994           0
    7259 WT1  1005 TIP3 H1   HT     0.417000        1.0080           0
    7260 WT1  1005 TIP3 H2   HT     0.417000        1.0080           0
    7261 WT1  1006 TIP3 OH2  OT    -0.834000       15.9994           0
    7262 WT1  1006 TIP3 H1   HT     0.417000        1.0080           0
    7263 WT1  1006 TIP3 H2   HT     0.417000        1.0080           0
    7264 WT1  1007 TIP3 OH2  OT    -0.834000       15.9994           0
    7265 WT1  1007 TIP3 H1   HT     0.417000        1.0080           0
    7266 WT1  1007 TIP3 H2   HT     0.417000        1.0080           0
    7267 WT1  1008 TIP3 OH2  OT    -0.834000       15.9994           0
    7268 WT1  1008 TIP3 H1   HT     0.417000        1.0080           0
    7269 WT1  1008 TIP3 H2   HT     0.417000        1.0080           0
    7270 WT1  1009 TIP3 OH2  OT    -0.834000       15.9994           0
    7271 WT1  1009 TIP3 H1   HT     0.417000        1.0080           0
    7272 WT1  1009 TIP3 H2   HT     0.417000        1.0080           0
    7273 WT1  1010 TIP3 OH2  OT    -0.834000       15.9994           0
    7274 WT1  1010 TIP3 H1   HT     0.417000        1.0080           0
    7275 WT1  1010 TIP3 H2   HT     0.417000        1.0080           0
    7276 WT1  1011 TIP3 OH2  OT    -0.834000       15.9994           0
    7277 WT1  1011 TIP3 H1   HT     0.417000        1.0080           0
    7278 WT1  1011 TIP3 H2   HT     0.417000        1.0080           0
    7279 WT1  1012 TIP3 OH2  OT    -0.834000       15.9994           0
    7280 WT1  1012 TIP3 H1   HT     0.417000        1.0080           0
    7281 WT1  1012 TIP3 H2   HT     0.417000        1.0080           0
    7282 WT1  1013 TIP3 OH2  OT    -0.834000       15.9994           0
    7283 WT1  1013 TIP3 H1   HT     0.417000        1.0080           0
    7284 WT1  1013 TIP3 H2   HT     0.417000        1.0080           0
    7285 WT1  1014 TIP3 OH2  OT    -0.834000       15.9994           0
    7286 WT1  1014 TIP3 H1   HT     0.417000        1.0080           0
    7287 WT1  1014 TIP3 H2   HT     0.417000        1.0080           0
    7288 WT1  1015 TIP3 OH2  OT    -0.834000       15.9994           0
    7289 WT1  1015 TIP3 H1   HT     0.417000        1.0080           0
    7290 WT1  1015 TIP3 H2   HT     0.417000        1.0080           0
    7291 WT1  1016 TIP3 OH2  OT    -0.834000       15.9994           0
    7292 WT1  1016 TIP3 H1   HT     0.417000        1.0080           0
    7293 WT1  1016 TIP3 H2   HT     0.417000        1.0080           0
    7294 WT1  1017 TIP3 OH2  OT    -0.834000       15.9994           0
    7295 WT1  1017 TIP3 H1   HT     0.417000        1.0080           0
    7296 WT1  1017 TIP3 H2   HT     0.417000        1.0080           0
    7297 WT1  1018 TIP3 OH2  OT    -0.834000       15.9994           0
    7298 WT1  1018 TIP3 H1   HT     0.417000        1.0080           0
    7299 WT1  1018 TIP3 H2   HT     0.417000        1.0080           0
    7300 WT1  1020 TIP3 OH2  OT    -0.834000       15.9994           0
    7301 WT1  1020 TIP3 H1   HT     0.417000        1.0080           0
    7302 WT1  1020 TIP3 H2   HT     0.417000        1.0080           0
    7303 WT1  1021 TIP3 OH2  OT    -0.834000       15.9994           0
    7304 WT1  1021 TIP3 H1   HT     0.417000        1.0080           0
    7305 WT1  1021 TIP3 H2   HT     0.417000        1.0080           0
    7306 WT1  1022 TIP3 OH2  OT    -0.834000       15.9994           0
    7307 WT1  1022 TIP3 H1   HT     0.417000        1.0080           0
    7308 WT1  1022 TIP3 H2   HT     0.417000        1.0080           0
    7309 WT1  1023 TIP3 OH2  OT    -0.834000       15.9994           0
    7310 WT1  1023 TIP3 H1   HT     0.417000        1.0080           0
    7311 WT1  1023 TIP3 H2   HT     0.417000        1.0080           0
    7312 WT1  1027 TIP3 OH2  OT    -0.834000       15.9994           0
    7313 WT1  1027 TIP3 H1   HT     0.417000        1.0080           0
    7314 WT1  1027 TIP3 H2   HT     0.417000        1.0080           0
    7315 WT1  1029 TIP3 OH2  OT    -0.834000       15.9994           0
    7316 WT1  1029 TIP3 H1   HT     0.417000        1.0080           0
    7317 WT1  1029 TIP3 H2   HT     0.417000        1.0080           0
    7318 WT1  1030 TIP3 OH2  OT    -0.834000       15.9994           0
    7319 WT1  1030 TIP3 H1   HT     0.417000        1.0080           0
    7320 WT1  1030 TIP3 H2   HT     0.417000        1.0080           0
    7321 WT1  1032 TIP3 OH2  OT    -0.834000       15.9994           0
    7322 WT1  1032 TIP3 H1   HT     0.417000        1.0080           0
    7323 WT1  1032 TIP3 H2   HT     0.417000        1.0080           0
    7324 WT1  1033 TIP3 OH2  OT    -0.834000       15.9994           0
    7325 WT1  1033 TIP3 H1   HT     0.417000        1.0080           0
    7326 WT1  1033 TIP3 H2   HT     0.417000        1.0080           0
    7327 WT1  1034 TIP3 OH2  OT    -0.834000       15.9994           0
    7328 WT1  1034 TIP3 H1   HT     0.417000        1.0080           0
    7329 WT1  1034 TIP3 H2   HT     0.417000        1.0080           0
    7330 WT1  1035 TIP3 OH2  OT    -0.834000       15.9994           0
    7331 WT1  1035 TIP3 H1   HT     0.417000        1.0080           0
    7332 WT1  1035 TIP3 H2   HT     0.417000        1.0080           0
    7333 WT1  1036 TIP3 OH2  OT    -0.834000       15.9994           0
    7334 WT1  1036 TIP3 H1   HT     0.417000        1.0080           0
    7335 WT1  1036 TIP3 H2   HT     0.417000        1.0080           0
    7336 WT1  1037 TIP3 OH2  OT    -0.834000       15.9994           0
    7337 WT1  1037 TIP3 H1   HT     0.417000        1.0080           0
    7338 WT1  1037 TIP3 H2   HT     0.417000        1.0080           0
    7339 WT1  1038 TIP3 OH2  OT    -0.834000       15.9994           0
    7340 WT1  1038 TIP3 H1   HT     0.417000        1.0080           0
    7341 WT1  1038 TIP3 H2   HT     0.417000        1.0080           0
    7342 WT1  1039 TIP3 OH2  OT    -0.834000       15.9994           0
    7343 WT1  1039 TIP3 H1   HT     0.417000        1.0080           0
    7344 WT1  1039 TIP3 H2   HT     0.417000        1.0080           0
    7345 WT1  1040 TIP3 OH2  OT    -0.834000       15.9994           0
    7346 WT1  1040 TIP3 H1   HT     0.417000        1.0080           0
    7347 WT1  1040 TIP3 H2   HT     0.417000        1.0080           0
    7348 WT1  1041 TIP3 OH2  OT    -0.834000       15.9994           0
    7349 WT1  1041 TIP3 H1   HT     0.417000        1.0080           0
    7350 WT1  1041 TIP3 H2   HT     0.417000        1.0080           0
    7351 WT1  1042 TIP3 OH2  OT    -0.834000       15.9994           0
    7352 WT1  1042 TIP3 H1   HT     0.417000        1.0080           0
    7353 WT1  1042 TIP3 H2   HT     0.417000        1.0080           0
    7354 WT1  1043 TIP3 OH2  OT    -0.834000       15.9994           0
    7355 WT1  1043 TIP3 H1   HT     0.417000        1.0080           0
    7356 WT1  1043 TIP3 H2   HT     0.417000        1.0080           0
    7357 WT1  1044 TIP3 OH2  OT    -0.834000       15.9994           0
    7358 WT1  1044 TIP3 H1   HT     0.417000        1.0080           0
    7359 WT1  1044 TIP3 H2   HT     0.417000        1.0080           0
    7360 WT1  1045 TIP3 OH2  OT    -0.834000       15.9994           0
    7361 WT1  1045 TIP3 H1   HT     0.417000        1.0080           0
    7362 WT1  1045 TIP3 H2   HT     0.417000        1.0080           0
    7363 WT1  1047 TIP3 OH2  OT    -0.834000       15.9994           0
    7364 WT1  1047 TIP3 H1   HT     0.417000        1.0080           0
    7365 WT1  1047 TIP3 H2   HT     0.417000        1.0080           0
    7366 WT1  1048 TIP3 OH2  OT    -0.834000       15.9994           0
    7367 WT1  1048 TIP3 H1   HT     0.417000        1.0080           0
    7368 WT1  1048 TIP3 H2   HT     0.417000        1.0080           0
    7369 WT1  1050 TIP3 OH2  OT    -0.834000       15.9994           0
    7370 WT1  1050 TIP3 H1   HT     0.417000        1.0080           0
    7371 WT1  1050 TIP3 H2   HT     0.417000        1.0080           0
    7372 WT1  1051 TIP3 OH2  OT    -0.834000       15.9994           0
    7373 WT1  1051 TIP3 H1   HT     0.417000        1.0080           0
    7374 WT1  1051 TIP3 H2   HT     0.417000        1.0080           0
    7375 WT1  1052 TIP3 OH2  OT    -0.834000       15.9994           0
    7376 WT1  1052 TIP3 H1   HT     0.417000        1.0080           0
    7377 WT1  1052 TIP3 H2   HT     0.417000        1.0080           0
    7378 WT1  1053 TIP3 OH2  OT    -0.834000       15.9994           0
    7379 WT1  1053 TIP3 H1   HT     0.417000        1.0080           0
    7380 WT1  1053 TIP3 H2   HT     0.417000        1.0080           0
    7381 WT1  1054 TIP3 OH2  OT    -0.834000       15.9994           0
    7382 WT1  1054 TIP3 H1   HT     0.417000        1.0080           0
    7383 WT1  1054 TIP3 H2   HT     0.417000        1.0080           0
    7384 WT1  1055 TIP3 OH2  OT    -0.834000       15.9994           0
    7385 WT1  1055 TIP3 H1   HT     0.417000        1.0080           0
    7386 WT1  1055 TIP3 H2   HT     0.417000        1.0080           0
    7387 WT1  1056 TIP3 OH2  OT    -0.834000       15.9994           0
    7388 WT1  1056 TIP3 H1   HT     0.417000        1.0080           0
    7389 WT1  1056 TIP3 H2   HT     0.417000        1.0080           0
    7390 WT1  1057 TIP3 OH2  OT    -0.834000       15.9994           0
    7391 WT1  1057 TIP3 H1   HT     0.417000        1.0080           0
    7392 WT1  1057 TIP3 H2   HT     0.417000        1.0080           0
    7393 WT1  1058 TIP3 OH2  OT    -0.834000       15.9994           0
    7394 WT1  1058 TIP3 H1   HT     0.417000        1.0080           0
    7395 WT1  1058 TIP3 H2   HT     0.417000        1.0080           0
    7396 WT1  1059 TIP3 OH2  OT    -0.834000       15.9994           0
    7397 WT1  1059 TIP3 H1   HT     0.417000        1.0080           0
    7398 WT1  1059 TIP3 H2   HT     0.417000        1.0080           0
    7399 WT1  1060 TIP3 OH2  OT    -0.834000       15.9994           0
    7400 WT1  1060 TIP3 H1   HT     0.417000        1.0080           0
    7401 WT1  1060 TIP3 H2   HT     0.417000        1.0080           0
    7402 WT1  1061 TIP3 OH2  OT    -0.834000       15.9994           0
    7403 WT1  1061 TIP3 H1   HT     0.417000        1.0080           0
    7404 WT1  1061 TIP3 H2   HT     0.417000        1.0080           0
    7405 WT1  1062 TIP3 OH2  OT    -0.834000       15.9994           0
    7406 WT1  1062 TIP3 H1   HT     0.417000        1.0080           0
    7407 WT1  1062 TIP3 H2   HT     0.417000        1.0080           0
    7408 WT1  1063 TIP3 OH2  OT    -0.834000       15.9994           0
    7409 WT1  1063 TIP3 H1   HT     0.417000        1.0080           0
    7410 WT1  1063 TIP3 H2   HT     0.417000        1.0080           0
    7411 WT1  1064 TIP3 OH2  OT    -0.834000       15.9994           0
    7412 WT1  1064 TIP3 H1   HT     0.417000        1.0080           0
    7413 WT1  1064 TIP3 H2   HT     0.417000        1.0080           0
    7414 WT1  1065 TIP3 OH2  OT    -0.834000       15.9994           0
    7415 WT1  1065 TIP3 H1   HT     0.417000        1.0080           0
    7416 WT1  1065 TIP3 H2   HT     0.417000        1.0080           0
    7417 WT1  1066 TIP3 OH2  OT    -0.834000       15.9994           0
    7418 WT1  1066 TIP3 H1   HT     0.417000        1.0080           0
    7419 WT1  1066 TIP3 H2   HT     0.417000        1.0080           0
    7420 WT1  1068 TIP3 OH2  OT    -0.834000       15.9994           0
    7421 WT1  1068 TIP3 H1   HT     0.417000        1.0080           0
    7422 WT1  1068 TIP3 H2   HT     0.417000        1.0080           0
    7423 WT1  1069 TIP3 OH2  OT    -0.834000       15.9994           0
    7424 WT1  1069 TIP3 H1   HT     0.417000        1.0080           0
    7425 WT1  1069 TIP3 H2   HT     0.417000        1.0080           0
    7426 WT1  1071 TIP3 OH2  OT    -0.834000       15.9994           0
    7427 WT1  1071 TIP3 H1   HT     0.417000        1.0080           0
    7428 WT1  1071 TIP3 H2   HT     0.417000        1.0080           0
    7429 WT1  1072 TIP3 OH2  OT    -0.834000       15.9994           0
    7430 WT1  1072 TIP3 H1   HT     0.417000        1.0080           0
    7431 WT1  1072 TIP3 H2   HT     0.417000        1.0080           0
    7432 WT1  1073 TIP3 OH2  OT    -0.834000       15.9994           0
    7433 WT1  1073 TIP3 H1   HT     0.417000        1.0080           0
    7434 WT1  1073 TIP3 H2   HT     0.417000        1.0080           0
    7435 WT1  1074 TIP3 OH2  OT    -0.834000       15.9994           0
    7436 WT1  1074 TIP3 H1   HT     0.417000        1.0080           0
    7437 WT1  1074 TIP3 H2   HT     0.417000        1.0080           0
    7438 WT1  1076 TIP3 OH2  OT    -0.834000       15.9994           0
    7439 WT1  1076 TIP3 H1   HT     0.417000        1.0080           0
    7440 WT1  1076 TIP3 H2   HT     0.417000        1.0080           0
    7441 WT1  1077 TIP3 OH2  OT    -0.834000       15.9994           0
    7442 WT1  1077 TIP3 H1   HT     0.417000        1.0080           0
    7443 WT1  1077 TIP3 H2   HT     0.417000        1.0080           0
    7444 WT1  1078 TIP3 OH2  OT    -0.834000       15.9994           0
    7445 WT1  1078 TIP3 H1   HT     0.417000        1.0080           0
    7446 WT1  1078 TIP3 H2   HT     0.417000        1.0080           0
    7447 WT1  1079 TIP3 OH2  OT    -0.834000       15.9994           0
    7448 WT1  1079 TIP3 H1   HT     0.417000        1.0080           0
    7449 WT1  1079 TIP3 H2   HT     0.417000        1.0080           0
    7450 WT1  1080 TIP3 OH2  OT    -0.834000       15.9994           0
    7451 WT1  1080 TIP3 H1   HT     0.417000        1.0080           0
    7452 WT1  1080 TIP3 H2   HT     0.417000        1.0080           0
    7453 WT1  1081 TIP3 OH2  OT    -0.834000       15.9994           0
    7454 WT1  1081 TIP3 H1   HT     0.417000        1.0080           0
    7455 WT1  1081 TIP3 H2   HT     0.417000        1.0080           0
    7456 WT1  1082 TIP3 OH2  OT    -0.834000       15.9994           0
    7457 WT1  1082 TIP3 H1   HT     0.417000        1.0080           0
    7458 WT1  1082 TIP3 H2   HT     0.417000        1.0080           0
    7459 WT1  1083 TIP3 OH2  OT    -0.834000       15.9994           0
    7460 WT1  1083 TIP3 H1   HT     0.417000        1.0080           0
    7461 WT1  1083 TIP3 H2   HT     0.417000        1.0080           0
    7462 WT1  1084 TIP3 OH2  OT    -0.834000       15.9994           0
    7463 WT1  1084 TIP3 H1   HT     0.417000        1.0080           0
    7464 WT1  1084 TIP3 H2   HT     0.417000        1.0080           0
    7465 WT1  1085 TIP3 OH2  OT    -0.834000       15.9994           0
    7466 WT1  1085 TIP3 H1   HT     0.417000        1.0080           0
    7467 WT1  1085 TIP3 H2   HT     0.417000        1.0080           0
    7468 WT1  1086 TIP3 OH2  OT    -0.834000       15.9994           0
    7469 WT1  1086 TIP3 H1   HT     0.417000        1.0080           0
    7470 WT1  1086 TIP3 H2   HT     0.417000        1.0080           0
    7471 WT1  1087 TIP3 OH2  OT    -0.834000       15.9994           0
    7472 WT1  1087 TIP3 H1   HT     0.417000        1.0080           0
    7473 WT1  1087 TIP3 H2   HT     0.417000        1.0080           0
    7474 WT1  1088 TIP3 OH2  OT    -0.834000       15.9994           0
    7475 WT1  1088 TIP3 H1   HT     0.417000        1.0080           0
    7476 WT1  1088 TIP3 H2   HT     0.417000        1.0080           0
    7477 WT1  1090 TIP3 OH2  OT    -0.834000       15.9994           0
    7478 WT1  1090 TIP3 H1   HT     0.417000        1.0080           0
    7479 WT1  1090 TIP3 H2   HT     0.417000        1.0080           0
    7480 WT1  1092 TIP3 OH2  OT    -0.834000       15.9994           0
    7481 WT1  1092 TIP3 H1   HT     0.417000        1.0080           0
    7482 WT1  1092 TIP3 H2   HT     0.417000        1.0080           0
    7483 WT1  1094 TIP3 OH2  OT    -0.834000       15.9994           0
    7484 WT1  1094 TIP3 H1   HT     0.417000        1.0080           0
    7485 WT1  1094 TIP3 H2   HT     0.417000        1.0080           0
    7486 WT1  1095 TIP3 OH2  OT    -0.834000       15.9994           0
    7487 WT1  1095 TIP3 H1   HT     0.417000        1.0080           0
    7488 WT1  1095 TIP3 H2   HT     0.417000        1.0080           0
    7489 WT1  1096 TIP3 OH2  OT    -0.834000       15.9994           0
    7490 WT1  1096 TIP3 H1   HT     0.417000        1.0080           0
    7491 WT1  1096 TIP3 H2   HT     0.417000        1.0080           0
    7492 WT1  1097 TIP3 OH2  OT    -0.834000       15.9994           0
    7493 WT1  1097 TIP3 H1   HT     0.417000        1.0080           0
    7494 WT1  1097 TIP3 H2   HT     0.417000        1.0080           0
    7495 WT1  1098 TIP3 OH2  OT    -0.834000       15.9994           0
    7496 WT1  1098 TIP3 H1   HT     0.417000        1.0080           0
    7497 WT1  1098 TIP3 H2   HT     0.417000        1.0080           0
    7498 WT1  1099 TIP3 OH2  OT    -0.834000       15.9994           0
    7499 WT1  1099 TIP3 H1   HT     0.417000        1.0080           0
    7500 WT1  1099 TIP3 H2   HT     0.417000        1.0080           0
    7501 WT1  1100 TIP3 OH2  OT    -0.834000       15.9994           0
    7502 WT1  1100 TIP3 H1   HT     0.417000        1.0080           0
    7503 WT1  1100 TIP3 H2   HT     0.417000        1.0080           0
    7504 WT1  1101 TIP3 OH2  OT    -0.834000       15.9994           0
    7505 WT1  1101 TIP3 H1   HT     0.417000        1.0080           0
    7506 WT1  1101 TIP3 H2   HT     0.417000        1.0080           0
    7507 WT1  1102 TIP3 OH2  OT    -0.834000       15.9994           0
    7508 WT1  1102 TIP3 H1   HT     0.417000        1.0080           0
    7509 WT1  1102 TIP3 H2   HT     0.417000        1.0080           0
    7510 WT1  1103 TIP3 OH2  OT    -0.834000       15.9994           0
    7511 WT1  1103 TIP3 H1   HT     0.417000        1.0080           0
    7512 WT1  1103 TIP3 H2   HT     0.417000        1.0080           0
    7513 WT1  1104 TIP3 OH2  OT    -0.834000       15.9994           0
    7514 WT1  1104 TIP3 H1   HT     0.417000        1.0080           0
    7515 WT1  1104 TIP3 H2   HT     0.417000        1.0080           0
    7516 WT1  1105 TIP3 OH2  OT    -0.834000       15.9994           0
    7517 WT1  1105 TIP3 H1   HT     0.417000        1.0080           0
    7518 WT1  1105 TIP3 H2   HT     0.417000        1.0080           0
    7519 WT1  1106 TIP3 OH2  OT    -0.834000       15.9994           0
    7520 WT1  1106 TIP3 H1   HT     0.417000        1.0080           0
    7521 WT1  1106 TIP3 H2   HT     0.417000        1.0080           0
    7522 WT1  1107 TIP3 OH2  OT    -0.834000       15.9994           0
    7523 WT1  1107 TIP3 H1   HT     0.417000        1.0080           0
    7524 WT1  1107 TIP3 H2   HT     0.417000        1.0080           0
    7525 WT1  1108 TIP3 OH2  OT    -0.834000       15.9994           0
    7526 WT1  1108 TIP3 H1   HT     0.417000        1.0080           0
    7527 WT1  1108 TIP3 H2   HT     0.417000        1.0080           0
    7528 WT1  1112 TIP3 OH2  OT    -0.834000       15.9994           0
    7529 WT1  1112 TIP3 H1   HT     0.417000        1.0080           0
    7530 WT1  1112 TIP3 H2   HT     0.417000        1.0080           0
    7531 WT1  1113 TIP3 OH2  OT    -0.834000       15.9994           0
    7532 WT1  1113 TIP3 H1   HT     0.417000        1.0080           0
    7533 WT1  1113 TIP3 H2   HT     0.417000        1.0080           0
    7534 WT1  1115 TIP3 OH2  OT    -0.834000       15.9994           0
    7535 WT1  1115 TIP3 H1   HT     0.417000        1.0080           0
    7536 WT1  1115 TIP3 H2   HT     0.417000        1.0080           0
    7537 WT1  1116 TIP3 OH2  OT    -0.834000       15.9994           0
    7538 WT1  1116 TIP3 H1   HT     0.417000        1.0080           0
    7539 WT1  1116 TIP3 H2   HT     0.417000        1.0080           0
    7540 WT1  1117 TIP3 OH2  OT    -0.834000       15.9994           0
    7541 WT1  1117 TIP3 H1   HT     0.417000        1.0080           0
    7542 WT1  1117 TIP3 H2   HT     0.417000        1.0080           0
    7543 WT1  1118 TIP3 OH2  OT    -0.834000       15.9994           0
    7544 WT1  1118 TIP3 H1   HT     0.417000        1.0080           0
    7545 WT1  1118 TIP3 H2   HT     0.417000        1.0080           0
    7546 WT1  1119 TIP3 OH2  OT    -0.834000       15.9994           0
    7547 WT1  1119 TIP3 H1   HT     0.417000        1.0080           0
    7548 WT1  1119 TIP3 H2   HT     0.417000        1.0080           0
    7549 WT1  1120 TIP3 OH2  OT    -0.834000       15.9994           0
    7550 WT1  1120 TIP3 H1   HT     0.417000        1.0080           0
    7551 WT1  1120 TIP3 H2   HT     0.417000        1.0080           0
    7552 WT1  1121 TIP3 OH2  OT    -0.834000       15.9994           0
    7553 WT1  1121 TIP3 H1   HT     0.417000        1.0080           0
    7554 WT1  1121 TIP3 H2   HT     0.417000        1.0080           0
    7555 WT1  1122 TIP3 OH2  OT    -0.834000       15.9994           0
    7556 WT1  1122 TIP3 H1   HT     0.417000        1.0080           0
    7557 WT1  1122 TIP3 H2   HT     0.417000        1.0080           0
    7558 WT1  1123 TIP3 OH2  OT    -0.834000       15.9994           0
    7559 WT1  1123 TIP3 H1   HT     0.417000        1.0080           0
    7560 WT1  1123 TIP3 H2   HT     0.417000        1.0080           0
    7561 WT1  1124 TIP3 OH2  OT    -0.834000       15.9994           0
    7562 WT1  1124 TIP3 H1   HT     0.417000        1.0080           0
    7563 WT1  1124 TIP3 H2   HT     0.417000        1.0080           0
    7564 WT1  1125 TIP3 OH2  OT    -0.834000       15.9994           0
    7565 WT1  1125 TIP3 H1   HT     0.417000        1.0080           0
    7566 WT1  1125 TIP3 H2   HT     0.417000        1.0080           0
    7567 WT1  1126 TIP3 OH2  OT    -0.834000       15.9994           0
    7568 WT1  1126 TIP3 H1   HT     0.417000        1.0080           0
    7569 WT1  1126 TIP3 H2   HT     0.417000        1.0080           0
    7570 WT1  1127 TIP3 OH2  OT    -0.834000       15.9994           0
    7571 WT1  1127 TIP3 H1   HT     0.417000        1.0080           0
    7572 WT1  1127 TIP3 H2   HT     0.417000        1.0080           0
    7573 WT1  1128 TIP3 OH2  OT    -0.834000       15.9994           0
    7574 WT1  1128 TIP3 H1   HT     0.417000        1.0080           0
    7575 WT1  1128 TIP3 H2   HT     0.417000        1.0080           0
    7576 WT1  1129 TIP3 OH2  OT    -0.834000       15.9994           0
    7577 WT1  1129 TIP3 H1   HT     0.417000        1.0080           0
    7578 WT1  1129 TIP3 H2   HT     0.417000        1.0080           0
    7579 WT1  1132 TIP3 OH2  OT    -0.834000       15.9994           0
    7580 WT1  1132 TIP3 H1   HT     0.417000        1.0080           0
    7581 WT1  1132 TIP3 H2   HT     0.417000        1.0080           0
    7582 WT1  1133 TIP3 OH2  OT    -0.834000       15.9994           0
    7583 WT1  1133 TIP3 H1   HT     0.417000        1.0080           0
    7584 WT1  1133 TIP3 H2   HT     0.417000        1.0080           0
    7585 WT1  1134 TIP3 OH2  OT    -0.834000       15.9994           0
    7586 WT1  1134 TIP3 H1   HT     0.417000        1.0080           0
    7587 WT1  1134 TIP3 H2   HT     0.417000        1.0080           0
    7588 WT1  1135 TIP3 OH2  OT    -0.834000       15.9994           0
    7589 WT1  1135 TIP3 H1   HT     0.417000        1.0080           0
    7590 WT1  1135 TIP3 H2   HT     0.417000        1.0080           0
    7591 WT1  1136 TIP3 OH2  OT    -0.834000       15.9994           0
    7592 WT1  1136 TIP3 H1   HT     0.417000        1.0080           0
    7593 WT1  1136 TIP3 H2   HT     0.417000        1.0080           0
    7594 WT1  1137 TIP3 OH2  OT    -0.834000       15.9994           0
    7595 WT1  1137 TIP3 H1   HT     0.417000        1.0080           0
    7596 WT1  1137 TIP3 H2   HT     0.417000        1.0080           0
    7597 WT1  1139 TIP3 OH2  OT    -0.834000       15.9994           0
    7598 WT1  1139 TIP3 H1   HT     0.417000        1.0080           0
    7599 WT1  1139 TIP3 H2   HT     0.417000        1.0080           0
    7600 WT1  1140 TIP3 OH2  OT    -0.834000       15.9994           0
    7601 WT1  1140 TIP3 H1   HT     0.417000        1.0080           0
    7602 WT1  1140 TIP3 H2   HT     0.417000        1.0080           0
    7603 WT1  1141 TIP3 OH2  OT    -0.834000       15.9994           0
    7604 WT1  1141 TIP3 H1   HT     0.417000        1.0080           0
    7605 WT1  1141 TIP3 H2   HT     0.417000        1.0080           0
    7606 WT1  1142 TIP3 OH2  OT    -0.834000       15.9994           0
    7607 WT1  1142 TIP3 H1   HT     0.417000        1.0080           0
    7608 WT1  1142 TIP3 H2   HT     0.417000        1.0080           0
    7609 WT1  1143 TIP3 OH2  OT    -0.834000       15.9994           0
    7610 WT1  1143 TIP3 H1   HT     0.417000        1.0080           0
    7611 WT1  1143 TIP3 H2   HT     0.417000        1.0080           0
    7612 WT1  1144 TIP3 OH2  OT    -0.834000       15.9994           0
    7613 WT1  1144 TIP3 H1   HT     0.417000        1.0080           0
    7614 WT1  1144 TIP3 H2   HT     0.417000        1.0080           0
    7615 WT1  1145 TIP3 OH2  OT    -0.834000       15.9994           0
    7616 WT1  1145 TIP3 H1   HT     0.417000        1.0080           0
    7617 WT1  1145 TIP3 H2   HT     0.417000        1.0080           0
    7618 WT1  1146 TIP3 OH2  OT    -0.834000       15.9994           0
    7619 WT1  1146 TIP3 H1   HT     0.417000        1.0080           0
    7620 WT1  1146 TIP3 H2   HT     0.417000        1.0080           0
    7621 WT1  1147 TIP3 OH2  OT    -0.834000       15.9994           0
    7622 WT1  1147 TIP3 H1   HT     0.417000        1.0080           0
    7623 WT1  1147 TIP3 H2   HT     0.417000        1.0080           0
    7624 WT1  1148 TIP3 OH2  OT    -0.834000       15.9994           0
    7625 WT1  1148 TIP3 H1   HT     0.417000        1.0080           0
    7626 WT1  1148 TIP3 H2   HT     0.417000        1.0080           0
    7627 WT1  1149 TIP3 OH2  OT    -0.834000       15.9994           0
    7628 WT1  1149 TIP3 H1   HT     0.417000        1.0080           0
    7629 WT1  1149 TIP3 H2   HT     0.417000        1.0080           0
    7630 WT1  1150 TIP3 OH2  OT    -0.834000       15.9994           0
    7631 WT1  1150 TIP3 H1   HT     0.417000        1.0080           0
    7632 WT1  1150 TIP3 H2   HT     0.417000        1.0080           0
    7633 WT1  1151 TIP3 OH2  OT    -0.834000       15.9994           0
    7634 WT1  1151 TIP3 H1   HT     0.417000        1.0080           0
    7635 WT1  1151 TIP3 H2   HT     0.417000        1.0080           0
    7636 WT1  1153 TIP3 OH2  OT    -0.834000       15.9994           0
    7637 WT1  1153 TIP3 H1   HT     0.417000        1.0080           0
    7638 WT1  1153 TIP3 H2   HT     0.417000        1.0080           0
    7639 WT1  1155 TIP3 OH2  OT    -0.834000       15.9994           0
    7640 WT1  1155 TIP3 H1   HT     0.417000        1.0080           0
    7641 WT1  1155 TIP3 H2   HT     0.417000        1.0080           0
    7642 WT1  1156 TIP3 OH2  OT    -0.834000       15.9994           0
    7643 WT1  1156 TIP3 H1   HT     0.417000        1.0080           0
    7644 WT1  1156 TIP3 H2   HT     0.417000        1.0080           0
    7645 WT1  1157 TIP3 OH2  OT    -0.834000       15.9994           0
    7646 WT1  1157 TIP3 H1   HT     0.417000        1.0080           0
    7647 WT1  1157 TIP3 H2   HT     0.417000        1.0080           0
    7648 WT1  1158 TIP3 OH2  OT    -0.834000       15.9994           0
    7649 WT1  1158 TIP3 H1   HT     0.417000        1.0080           0
    7650 WT1  1158 TIP3 H2   HT     0.417000        1.0080           0
    7651 WT1  1159 TIP3 OH2  OT    -0.834000       15.9994           0
    7652 WT1  1159 TIP3 H1   HT     0.417000        1.0080           0
    7653 WT1  1159 TIP3 H2   HT     0.417000        1.0080           0
    7654 WT1  1160 TIP3 OH2  OT    -0.834000       15.9994           0
    7655 WT1  1160 TIP3 H1   HT     0.417000        1.0080           0
    7656 WT1  1160 TIP3 H2   HT     0.417000        1.0080           0
    7657 WT1  1161 TIP3 OH2  OT    -0.834000       15.9994           0
    7658 WT1  1161 TIP3 H1   HT     0.417000        1.0080           0
    7659 WT1  1161 TIP3 H2   HT     0.417000        1.0080           0
    7660 WT1  1162 TIP3 OH2  OT    -0.834000       15.9994           0
    7661 WT1  1162 TIP3 H1   HT     0.417000        1.0080           0
    7662 WT1  1162 TIP3 H2   HT     0.417000        1.0080           0
    7663 WT1  1163 TIP3 OH2  OT    -0.834000       15.9994           0
    7664 WT1  1163 TIP3 H1   HT     0.417000        1.0080           0
    7665 WT1  1163 TIP3 H2   HT     0.417000        1.0080           0
    7666 WT1  1164 TIP3 OH2  OT    -0.834000       15.9994           0
    7667 WT1  1164 TIP3 H1   HT     0.417000        1.0080           0
    7668 WT1  1164 TIP3 H2   HT     0.417000        1.0080           0
    7669 WT1  1165 TIP3 OH2  OT    -0.834000       15.9994           0
    7670 WT1  1165 TIP3 H1   HT     0.417000        1.0080           0
    7671 WT1  1165 TIP3 H2   HT     0.417000        1.0080           0
    7672 WT1  1166 TIP3 OH2  OT    -0.834000       15.9994           0
    7673 WT1  1166 TIP3 H1   HT     0.417000        1.0080           0
    7674 WT1  1166 TIP3 H2   HT     0.417000        1.0080           0
    7675 WT1  1167 TIP3 OH2  OT    -0.834000       15.9994           0
    7676 WT1  1167 TIP3 H1   HT     0.417000        1.0080           0
    7677 WT1  1167 TIP3 H2   HT     0.417000        1.0080           0
    7678 WT1  1168 TIP3 OH2  OT    -0.834000       15.9994           0
    7679 WT1  1168 TIP3 H1   HT     0.417000        1.0080           0
    7680 WT1  1168 TIP3 H2   HT     0.417000        1.0080           0
    7681 WT1  1172 TIP3 OH2  OT    -0.834000       15.9994           0
    7682 WT1  1172 TIP3 H1   HT     0.417000        1.0080           0
    7683 WT1  1172 TIP3 H2   HT     0.417000        1.0080           0
    7684 WT1  1173 TIP3 OH2  OT    -0.834000       15.9994           0
    7685 WT1  1173 TIP3 H1   HT     0.417000        1.0080           0
    7686 WT1  1173 TIP3 H2   HT     0.417000        1.0080           0
    7687 WT1  1175 TIP3 OH2  OT    -0.834000       15.9994           0
    7688 WT1  1175 TIP3 H1   HT     0.417000        1.0080           0
    7689 WT1  1175 TIP3 H2   HT     0.417000        1.0080           0
    7690 WT1  1176 TIP3 OH2  OT    -0.834000       15.9994           0
    7691 WT1  1176 TIP3 H1   HT     0.417000        1.0080           0
    7692 WT1  1176 TIP3 H2   HT     0.417000        1.0080           0
    7693 WT1  1177 TIP3 OH2  OT    -0.834000       15.9994           0
    7694 WT1  1177 TIP3 H1   HT     0.417000        1.0080           0
    7695 WT1  1177 TIP3 H2   HT     0.417000        1.0080           0
    7696 WT1  1178 TIP3 OH2  OT    -0.834000       15.9994           0
    7697 WT1  1178 TIP3 H1   HT     0.417000        1.0080           0
    7698 WT1  1178 TIP3 H2   HT     0.417000        1.0080           0
    7699 WT1  1179 TIP3 OH2  OT    -0.834000       15.9994           0
    7700 WT1  1179 TIP3 H1   HT     0.417000        1.0080           0
    7701 WT1  1179 TIP3 H2   HT     0.417000        1.0080           0
    7702 WT1  1180 TIP3 OH2  OT    -0.834000       15.9994           0
    7703 WT1  1180 TIP3 H1   HT     0.417000        1.0080           0
    7704 WT1  1180 TIP3 H2   HT     0.417000        1.0080           0
    7705 WT1  1181 TIP3 OH2  OT    -0.834000       15.9994           0
    7706 WT1  1181 TIP3 H1   HT     0.417000        1.0080           0
    7707 WT1  1181 TIP3 H2   HT     0.417000        1.0080           0
    7708 WT1  1182 TIP3 OH2  OT    -0.834000       15.9994           0
    7709 WT1  1182 TIP3 H1   HT     0.417000        1.0080           0
    7710 WT1  1182 TIP3 H2   HT     0.417000        1.0080           0
    7711 WT1  1183 TIP3 OH2  OT    -0.834000       15.9994           0
    7712 WT1  1183 TIP3 H1   HT     0.417000        1.0080           0
    7713 WT1  1183 TIP3 H2   HT     0.417000        1.0080           0
    7714 WT1  1184 TIP3 OH2  OT    -0.834000       15.9994           0
    7715 WT1  1184 TIP3 H1   HT     0.417000        1.0080           0
    7716 WT1  1184 TIP3 H2   HT     0.417000        1.0080           0
    7717 WT1  1185 TIP3 OH2  OT    -0.834000       15.9994           0
    7718 WT1  1185 TIP3 H1   HT     0.417000        1.0080           0
    7719 WT1  1185 TIP3 H2   HT     0.417000        1.0080           0
    7720 WT1  1186 TIP3 OH2  OT    -0.834000       15.9994           0
    7721 WT1  1186 TIP3 H1   HT     0.417000        1.0080           0
    7722 WT1  1186 TIP3 H2   HT     0.417000        1.0080           0
    7723 WT1  1187 TIP3 OH2  OT    -0.834000       15.9994           0
    7724 WT1  1187 TIP3 H1   HT     0.417000        1.0080           0
    7725 WT1  1187 TIP3 H2   HT     0.417000        1.0080           0
    7726 WT1  1188 TIP3 OH2  OT    -0.834000       15.9994           0
    7727 WT1  1188 TIP3 H1   HT     0.417000        1.0080           0
    7728 WT1  1188 TIP3 H2   HT     0.417000        1.0080           0
    7729 WT1  1189 TIP3 OH2  OT    -0.834000       15.9994           0
    7730 WT1  1189 TIP3 H1   HT     0.417000        1.0080           0
    7731 WT1  1189 TIP3 H2   HT     0.417000        1.0080           0
    7732 WT1  1190 TIP3 OH2  OT    -0.834000       15.9994           0
    7733 WT1  1190 TIP3 H1   HT     0.417000        1.0080           0
    7734 WT1  1190 TIP3 H2   HT     0.417000        1.0080           0
    7735 WT1  1192 TIP3 OH2  OT    -0.834000       15.9994           0
    7736 WT1  1192 TIP3 H1   HT     0.417000        1.0080           0
    7737 WT1  1192 TIP3 H2   HT     0.417000        1.0080           0
    7738 WT1  1193 TIP3 OH2  OT    -0.834000       15.9994           0
    7739 WT1  1193 TIP3 H1   HT     0.417000        1.0080           0
    7740 WT1  1193 TIP3 H2   HT     0.417000        1.0080           0
    7741 WT1  1194 TIP3 OH2  OT    -0.834000       15.9994           0
    7742 WT1  1194 TIP3 H1   HT     0.417000        1.0080           0
    7743 WT1  1194 TIP3 H2   HT     0.417000        1.0080           0
    7744 WT1  1195 TIP3 OH2  OT    -0.834000       15.9994           0
    7745 WT1  1195 TIP3 H1   HT     0.417000        1.0080           0
    7746 WT1  1195 TIP3 H2   HT     0.417000        1.0080           0
    7747 WT1  1197 TIP3 OH2  OT    -0.834000       15.9994           0
    7748 WT1  1197 TIP3 H1   HT     0.417000        1.0080           0
    7749 WT1  1197 TIP3 H2   HT     0.417000        1.0080           0
    7750 WT1  1198 TIP3 OH2  OT    -0.834000       15.9994           0
    7751 WT1  1198 TIP3 H1   HT     0.417000        1.0080           0
    7752 WT1  1198 TIP3 H2   HT     0.417000        1.0080           0
    7753 WT1  1199 TIP3 OH2  OT    -0.834000       15.9994           0
    7754 WT1  1199 TIP3 H1   HT     0.417000        1.0080           0
    7755 WT1  1199 TIP3 H2   HT     0.417000        1.0080           0
    7756 WT1  1200 TIP3 OH2  OT    -0.834000       15.9994           0
    7757 WT1  1200 TIP3 H1   HT     0.417000        1.0080           0
    7758 WT1  1200 TIP3 H2   HT     0.417000        1.0080           0
    7759 WT1  1201 TIP3 OH2  OT    -0.834000       15.9994           0
    7760 WT1  1201 TIP3 H1   HT     0.417000        1.0080           0
    7761 WT1  1201 TIP3 H2   HT     0.417000        1.0080           0
    7762 WT1  1202 TIP3 OH2  OT    -0.834000       15.9994           0
    7763 WT1  1202 TIP3 H1   HT     0.417000        1.0080           0
    7764 WT1  1202 TIP3 H2   HT     0.417000        1.0080           0
    7765 WT1  1203 TIP3 OH2  OT    -0.834000       15.9994           0
    7766 WT1  1203 TIP3 H1   HT     0.417000        1.0080           0
    7767 WT1  1203 TIP3 H2   HT     0.417000        1.0080           0
    7768 WT1  1204 TIP3 OH2  OT    -0.834000       15.9994           0
    7769 WT1  1204 TIP3 H1   HT     0.417000        1.0080           0
    7770 WT1  1204 TIP3 H2   HT     0.417000        1.0080           0
    7771 WT1  1205 TIP3 OH2  OT    -0.834000       15.9994           0
    7772 WT1  1205 TIP3 H1   HT     0.417000        1.0080           0
    7773 WT1  1205 TIP3 H2   HT     0.417000        1.0080           0
    7774 WT1  1206 TIP3 OH2  OT    -0.834000       15.9994           0
    7775 WT1  1206 TIP3 H1   HT     0.417000        1.0080           0
    7776 WT1  1206 TIP3 H2   HT     0.417000        1.0080           0
    7777 WT1  1207 TIP3 OH2  OT    -0.834000       15.9994           0
    7778 WT1  1207 TIP3 H1   HT     0.417000        1.0080           0
    7779 WT1  1207 TIP3 H2   HT     0.417000        1.0080           0
    7780 WT1  1208 TIP3 OH2  OT    -0.834000       15.9994           0
    7781 WT1  1208 TIP3 H1   HT     0.417000        1.0080           0
    7782 WT1  1208 TIP3 H2   HT     0.417000        1.0080           0
    7783 WT1  1209 TIP3 OH2  OT    -0.834000       15.9994           0
    7784 WT1  1209 TIP3 H1   HT     0.417000        1.0080           0
    7785 WT1  1209 TIP3 H2   HT     0.417000        1.0080           0
    7786 WT1  1210 TIP3 OH2  OT    -0.834000       15.9994           0
    7787 WT1  1210 TIP3 H1   HT     0.417000        1.0080           0
    7788 WT1  1210 TIP3 H2   HT     0.417000        1.0080           0
    7789 WT1  1211 TIP3 OH2  OT    -0.834000       15.9994           0
    7790 WT1  1211 TIP3 H1   HT     0.417000        1.0080           0
    7791 WT1  1211 TIP3 H2   HT     0.417000        1.0080           0
    7792 WT1  1212 TIP3 OH2  OT    -0.834000       15.9994           0
    7793 WT1  1212 TIP3 H1   HT     0.417000        1.0080           0
    7794 WT1  1212 TIP3 H2   HT     0.417000        1.0080           0
    7795 WT1  1214 TIP3 OH2  OT    -0.834000       15.9994           0
    7796 WT1  1214 TIP3 H1   HT     0.417000        1.0080           0
    7797 WT1  1214 TIP3 H2   HT     0.417000        1.0080           0
    7798 WT1  1215 TIP3 OH2  OT    -0.834000       15.9994           0
    7799 WT1  1215 TIP3 H1   HT     0.417000        1.0080           0
    7800 WT1  1215 TIP3 H2   HT     0.417000        1.0080           0
    7801 WT1  1217 TIP3 OH2  OT    -0.834000       15.9994           0
    7802 WT1  1217 TIP3 H1   HT     0.417000        1.0080           0
    7803 WT1  1217 TIP3 H2   HT     0.417000        1.0080           0
    7804 WT1  1218 TIP3 OH2  OT    -0.834000       15.9994           0
    7805 WT1  1218 TIP3 H1   HT     0.417000        1.0080           0
    7806 WT1  1218 TIP3 H2   HT     0.417000        1.0080           0
    7807 WT1  1219 TIP3 OH2  OT    -0.834000       15.9994           0
    7808 WT1  1219 TIP3 H1   HT     0.417000        1.0080           0
    7809 WT1  1219 TIP3 H2   HT     0.417000        1.0080           0
    7810 WT1  1220 TIP3 OH2  OT    -0.834000       15.9994           0
    7811 WT1  1220 TIP3 H1   HT     0.417000        1.0080           0
    7812 WT1  1220 TIP3 H2   HT     0.417000        1.0080           0
    7813 WT1  1222 TIP3 OH2  OT    -0.834000       15.9994           0
    7814 WT1  1222 TIP3 H1   HT     0.417000        1.0080           0
    7815 WT1  1222 TIP3 H2   HT     0.417000        1.0080           0
    7816 WT1  1223 TIP3 OH2  OT    -0.834000       15.9994           0
    7817 WT1  1223 TIP3 H1   HT     0.417000        1.0080           0
    7818 WT1  1223 TIP3 H2   HT     0.417000        1.0080           0
    7819 WT1  1224 TIP3 OH2  OT    -0.834000       15.9994           0
    7820 WT1  1224 TIP3 H1   HT     0.417000        1.0080           0
    7821 WT1  1224 TIP3 H2   HT     0.417000        1.0080           0
    7822 WT1  1225 TIP3 OH2  OT    -0.834000       15.9994           0
    7823 WT1  1225 TIP3 H1   HT     0.417000        1.0080           0
    7824 WT1  1225 TIP3 H2   HT     0.417000        1.0080           0
    7825 WT1  1226 TIP3 OH2  OT    -0.834000       15.9994           0
    7826 WT1  1226 TIP3 H1   HT     0.417000        1.0080           0
    7827 WT1  1226 TIP3 H2   HT     0.417000        1.0080           0
    7828 WT1  1227 TIP3 OH2  OT    -0.834000       15.9994           0
    7829 WT1  1227 TIP3 H1   HT     0.417000        1.0080           0
    7830 WT1  1227 TIP3 H2   HT     0.417000        1.0080           0
    7831 WT1  1228 TIP3 OH2  OT    -0.834000       15.9994           0
    7832 WT1  1228 TIP3 H1   HT     0.417000        1.0080           0
    7833 WT1  1228 TIP3 H2   HT     0.417000        1.0080           0
    7834 WT1  1229 TIP3 OH2  OT    -0.834000       15.9994           0
    7835 WT1  1229 TIP3 H1   HT     0.417000        1.0080           0
    7836 WT1  1229 TIP3 H2   HT     0.417000        1.0080           0
    7837 WT1  1230 TIP3 OH2  OT    -0.834000       15.9994           0
    7838 WT1  1230 TIP3 H1   HT     0.417000        1.0080           0
    7839 WT1  1230 TIP3 H2   HT     0.417000        1.0080           0
    7840 WT1  1231 TIP3 OH2  OT    -0.834000       15.9994           0
    7841 WT1  1231 TIP3 H1   HT     0.417000        1.0080           0
    7842 WT1  1231 TIP3 H2   HT     0.417000        1.0080           0
    7843 WT1  1232 TIP3 OH2  OT    -0.834000       15.9994           0
    7844 WT1  1232 TIP3 H1   HT     0.417000        1.0080           0
    7845 WT1  1232 TIP3 H2   HT     0.417000        1.0080           0
    7846 WT1  1233 TIP3 OH2  OT    -0.834000       15.9994           0
    7847 WT1  1233 TIP3 H1   HT     0.417000        1.0080           0
    7848 WT1  1233 TIP3 H2   HT     0.417000        1.0080           0
    7849 WT1  1234 TIP3 OH2  OT    -0.834000       15.9994           0
    7850 WT1  1234 TIP3 H1   HT     0.417000        1.0080           0
    7851 WT1  1234 TIP3 H2   HT     0.417000        1.0080           0
    7852 WT1  1237 TIP3 OH2  OT    -0.834000       15.9994           0
    7853 WT1  1237 TIP3 H1   HT     0.417000        1.0080           0
    7854 WT1  1237 TIP3 H2   HT     0.417000        1.0080           0
    7855 WT1  1238 TIP3 OH2  OT    -0.834000       15.9994           0
    7856 WT1  1238 TIP3 H1   HT     0.417000        1.0080           0
    7857 WT1  1238 TIP3 H2   HT     0.417000        1.0080           0
    7858 WT1  1240 TIP3 OH2  OT    -0.834000       15.9994           0
    7859 WT1  1240 TIP3 H1   HT     0.417000        1.0080           0
    7860 WT1  1240 TIP3 H2   HT     0.417000        1.0080           0
    7861 WT1  1242 TIP3 OH2  OT    -0.834000       15.9994           0
    7862 WT1  1242 TIP3 H1   HT     0.417000        1.0080           0
    7863 WT1  1242 TIP3 H2   HT     0.417000        1.0080           0
    7864 WT1  1243 TIP3 OH2  OT    -0.834000       15.9994           0
    7865 WT1  1243 TIP3 H1   HT     0.417000        1.0080           0
    7866 WT1  1243 TIP3 H2   HT     0.417000        1.0080           0
    7867 WT1  1244 TIP3 OH2  OT    -0.834000       15.9994           0
    7868 WT1  1244 TIP3 H1   HT     0.417000        1.0080           0
    7869 WT1  1244 TIP3 H2   HT     0.417000        1.0080           0
    7870 WT1  1245 TIP3 OH2  OT    -0.834000       15.9994           0
    7871 WT1  1245 TIP3 H1   HT     0.417000        1.0080           0
    7872 WT1  1245 TIP3 H2   HT     0.417000        1.0080           0
    7873 WT1  1246 TIP3 OH2  OT    -0.834000       15.9994           0
    7874 WT1  1246 TIP3 H1   HT     0.417000        1.0080           0
    7875 WT1  1246 TIP3 H2   HT     0.417000        1.0080           0
    7876 WT1  1247 TIP3 OH2  OT    -0.834000       15.9994           0
    7877 WT1  1247 TIP3 H1   HT     0.417000        1.0080           0
    7878 WT1  1247 TIP3 H2   HT     0.417000        1.0080           0
    7879 WT1  1248 TIP3 OH2  OT    -0.834000       15.9994           0
    7880 WT1  1248 TIP3 H1   HT     0.417000        1.0080           0
    7881 WT1  1248 TIP3 H2   HT     0.417000        1.0080           0
    7882 WT1  1249 TIP3 OH2  OT    -0.834000       15.9994           0
    7883 WT1  1249 TIP3 H1   HT     0.417000        1.0080           0
    7884 WT1  1249 TIP3 H2   HT     0.417000        1.0080           0
    7885 WT1  1250 TIP3 OH2  OT    -0.834000       15.9994           0
    7886 WT1  1250 TIP3 H1   HT     0.417000        1.0080           0
    7887 WT1  1250 TIP3 H2   HT     0.417000        1.0080           0
    7888 WT1  1251 TIP3 OH2  OT    -0.834000       15.9994           0
    7889 WT1  1251 TIP3 H1   HT     0.417000        1.0080           0
    7890 WT1  1251 TIP3 H2   HT     0.417000        1.0080           0
    7891 WT1  1255 TIP3 OH2  OT    -0.834000       15.9994           0
    7892 WT1  1255 TIP3 H1   HT     0.417000        1.0080           0
    7893 WT1  1255 TIP3 H2   HT     0.417000        1.0080           0
    7894 WT1  1256 TIP3 OH2  OT    -0.834000       15.9994           0
    7895 WT1  1256 TIP3 H1   HT     0.417000        1.0080           0
    7896 WT1  1256 TIP3 H2   HT     0.417000        1.0080           0
    7897 WT1  1257 TIP3 OH2  OT    -0.834000       15.9994           0
    7898 WT1  1257 TIP3 H1   HT     0.417000        1.0080           0
    7899 WT1  1257 TIP3 H2   HT     0.417000        1.0080           0
    7900 WT1  1258 TIP3 OH2  OT    -0.834000       15.9994           0
    7901 WT1  1258 TIP3 H1   HT     0.417000        1.0080           0
    7902 WT1  1258 TIP3 H2   HT     0.417000        1.0080           0
    7903 WT1  1259 TIP3 OH2  OT    -0.834000       15.9994           0
    7904 WT1  1259 TIP3 H1   HT     0.417000        1.0080           0
    7905 WT1  1259 TIP3 H2   HT     0.417000        1.0080           0
    7906 WT1  1260 TIP3 OH2  OT    -0.834000       15.9994           0
    7907 WT1  1260 TIP3 H1   HT     0.417000        1.0080           0
    7908 WT1  1260 TIP3 H2   HT     0.417000        1.0080           0
    7909 WT1  1261 TIP3 OH2  OT    -0.834000       15.9994           0
    7910 WT1  1261 TIP3 H1   HT     0.417000        1.0080           0
    7911 WT1  1261 TIP3 H2   HT     0.417000        1.0080           0
    7912 WT1  1262 TIP3 OH2  OT    -0.834000       15.9994           0
    7913 WT1  1262 TIP3 H1   HT     0.417000        1.0080           0
    7914 WT1  1262 TIP3 H2   HT     0.417000        1.0080           0
    7915 WT1  1263 TIP3 OH2  OT    -0.834000       15.9994           0
    7916 WT1  1263 TIP3 H1   HT     0.417000        1.0080           0
    7917 WT1  1263 TIP3 H2   HT     0.417000        1.0080           0
    7918 WT1  1265 TIP3 OH2  OT    -0.834000       15.9994           0
    7919 WT1  1265 TIP3 H1   HT     0.417000        1.0080           0
    7920 WT1  1265 TIP3 H2   HT     0.417000        1.0080           0
    7921 WT1  1266 TIP3 OH2  OT    -0.834000       15.9994           0
    7922 WT1  1266 TIP3 H1   HT     0.417000        1.0080           0
    7923 WT1  1266 TIP3 H2   HT     0.417000        1.0080           0
    7924 WT1  1267 TIP3 OH2  OT    -0.834000       15.9994           0
    7925 WT1  1267 TIP3 H1   HT     0.417000        1.0080           0
    7926 WT1  1267 TIP3 H2   HT     0.417000        1.0080           0
    7927 WT1  1268 TIP3 OH2  OT    -0.834000       15.9994           0
    7928 WT1  1268 TIP3 H1   HT     0.417000        1.0080           0
    7929 WT1  1268 TIP3 H2   HT     0.417000        1.0080           0
    7930 WT1  1269 TIP3 OH2  OT    -0.834000       15.9994           0
    7931 WT1  1269 TIP3 H1   HT     0.417000        1.0080           0
    7932 WT1  1269 TIP3 H2   HT     0.417000        1.0080           0
    7933 WT1  1270 TIP3 OH2  OT    -0.834000       15.9994           0
    7934 WT1  1270 TIP3 H1   HT     0.417000        1.0080           0
    7935 WT1  1270 TIP3 H2   HT     0.417000        1.0080           0
    7936 WT1  1271 TIP3 OH2  OT    -0.834000       15.9994           0
    7937 WT1  1271 TIP3 H1   HT     0.417000        1.0080           0
    7938 WT1  1271 TIP3 H2   HT     0.417000        1.0080           0
    7939 WT1  1272 TIP3 OH2  OT    -0.834000       15.9994           0
    7940 WT1  1272 TIP3 H1   HT     0.417000        1.0080           0
    7941 WT1  1272 TIP3 H2   HT     0.417000        1.0080           0
    7942 WT1  1273 TIP3 OH2  OT    -0.834000       15.9994           0
    7943 WT1  1273 TIP3 H1   HT     0.417000        1.0080           0
    7944 WT1  1273 TIP3 H2   HT     0.417000        1.0080           0
    7945 WT1  1274 TIP3 OH2  OT    -0.834000       15.9994           0
    7946 WT1  1274 TIP3 H1   HT     0.417000        1.0080           0
    7947 WT1  1274 TIP3 H2   HT     0.417000        1.0080           0
    7948 WT1  1276 TIP3 OH2  OT    -0.834000       15.9994           0
    7949 WT1  1276 TIP3 H1   HT     0.417000        1.0080           0
    7950 WT1  1276 TIP3 H2   HT     0.417000        1.0080           0
    7951 WT1  1277 TIP3 OH2  OT    -0.834000       15.9994           0
    7952 WT1  1277 TIP3 H1   HT     0.417000        1.0080           0
    7953 WT1  1277 TIP3 H2   HT     0.417000        1.0080           0
    7954 WT1  1278 TIP3 OH2  OT    -0.834000       15.9994           0
    7955 WT1  1278 TIP3 H1   HT     0.417000        1.0080           0
    7956 WT1  1278 TIP3 H2   HT     0.417000        1.0080           0
    7957 WT1  1279 TIP3 OH2  OT    -0.834000       15.9994           0
    7958 WT1  1279 TIP3 H1   HT     0.417000        1.0080           0
    7959 WT1  1279 TIP3 H2   HT     0.417000        1.0080           0
    7960 WT1  1280 TIP3 OH2  OT    -0.834000       15.9994           0
    7961 WT1  1280 TIP3 H1   HT     0.417000        1.0080           0
    7962 WT1  1280 TIP3 H2   HT     0.417000        1.0080           0
    7963 WT1  1281 TIP3 OH2  OT    -0.834000       15.9994           0
    7964 WT1  1281 TIP3 H1   HT     0.417000        1.0080           0
    7965 WT1  1281 TIP3 H2   HT     0.417000        1.0080           0
    7966 WT1  1282 TIP3 OH2  OT    -0.834000       15.9994           0
    7967 WT1  1282 TIP3 H1   HT     0.417000        1.0080           0
    7968 WT1  1282 TIP3 H2   HT     0.417000        1.0080           0
    7969 WT1  1283 TIP3 OH2  OT    -0.834000       15.9994           0
    7970 WT1  1283 TIP3 H1   HT     0.417000        1.0080           0
    7971 WT1  1283 TIP3 H2   HT     0.417000        1.0080           0
    7972 WT1  1284 TIP3 OH2  OT    -0.834000       15.9994           0
    7973 WT1  1284 TIP3 H1   HT     0.417000        1.0080           0
    7974 WT1  1284 TIP3 H2   HT     0.417000        1.0080           0
    7975 WT1  1285 TIP3 OH2  OT    -0.834000       15.9994           0
    7976 WT1  1285 TIP3 H1   HT     0.417000        1.0080           0
    7977 WT1  1285 TIP3 H2   HT     0.417000        1.0080           0
    7978 WT1  1286 TIP3 OH2  OT    -0.834000       15.9994           0
    7979 WT1  1286 TIP3 H1   HT     0.417000        1.0080           0
    7980 WT1  1286 TIP3 H2   HT     0.417000        1.0080           0
    7981 WT1  1288 TIP3 OH2  OT    -0.834000       15.9994           0
    7982 WT1  1288 TIP3 H1   HT     0.417000        1.0080           0
    7983 WT1  1288 TIP3 H2   HT     0.417000        1.0080           0
    7984 WT1  1289 TIP3 OH2  OT    -0.834000       15.9994           0
    7985 WT1  1289 TIP3 H1   HT     0.417000        1.0080           0
    7986 WT1  1289 TIP3 H2   HT     0.417000        1.0080           0
    7987 WT1  1290 TIP3 OH2  OT    -0.834000       15.9994           0
    7988 WT1  1290 TIP3 H1   HT     0.417000        1.0080           0
    7989 WT1  1290 TIP3 H2   HT     0.417000        1.0080           0
    7990 WT1  1291 TIP3 OH2  OT    -0.834000       15.9994           0
    7991 WT1  1291 TIP3 H1   HT     0.417000        1.0080           0
    7992 WT1  1291 TIP3 H2   HT     0.417000        1.0080           0
    7993 WT1  1292 TIP3 OH2  OT    -0.834000       15.9994           0
    7994 WT1  1292 TIP3 H1   HT     0.417000        1.0080           0
    7995 WT1  1292 TIP3 H2   HT     0.417000        1.0080           0
    7996 WT1  1293 TIP3 OH2  OT    -0.834000       15.9994           0
    7997 WT1  1293 TIP3 H1   HT     0.417000        1.0080           0
    7998 WT1  1293 TIP3 H2   HT     0.417000        1.0080           0
    7999 WT1  1294 TIP3 OH2  OT    -0.834000       15.9994           0
    8000 WT1  1294 TIP3 H1   HT     0.417000        1.0080           0
    8001 WT1  1294 TIP3 H2   HT     0.417000        1.0080           0
    8002 WT1  1295 TIP3 OH2  OT    -0.834000       15.9994           0
    8003 WT1  1295 TIP3 H1   HT     0.417000        1.0080           0
    8004 WT1  1295 TIP3 H2   HT     0.417000        1.0080           0
    8005 WT1  1297 TIP3 OH2  OT    -0.834000       15.9994           0
    8006 WT1  1297 TIP3 H1   HT     0.417000        1.0080           0
    8007 WT1  1297 TIP3 H2   HT     0.417000        1.0080           0
    8008 WT1  1298 TIP3 OH2  OT    -0.834000       15.9994           0
    8009 WT1  1298 TIP3 H1   HT     0.417000        1.0080           0
    8010 WT1  1298 TIP3 H2   HT     0.417000        1.0080           0
    8011 WT1  1300 TIP3 OH2  OT    -0.834000       15.9994           0
    8012 WT1  1300 TIP3 H1   HT     0.417000        1.0080           0
    8013 WT1  1300 TIP3 H2   HT     0.417000        1.0080           0
    8014 WT1  1301 TIP3 OH2  OT    -0.834000       15.9994           0
    8015 WT1  1301 TIP3 H1   HT     0.417000        1.0080           0
    8016 WT1  1301 TIP3 H2   HT     0.417000        1.0080           0
    8017 WT1  1302 TIP3 OH2  OT    -0.834000       15.9994           0
    8018 WT1  1302 TIP3 H1   HT     0.417000        1.0080           0
    8019 WT1  1302 TIP3 H2   HT     0.417000        1.0080           0
    8020 WT1  1303 TIP3 OH2  OT    -0.834000       15.9994           0
    8021 WT1  1303 TIP3 H1   HT     0.417000        1.0080           0
    8022 WT1  1303 TIP3 H2   HT     0.417000        1.0080           0
    8023 WT1  1304 TIP3 OH2  OT    -0.834000       15.9994           0
    8024 WT1  1304 TIP3 H1   HT     0.417000        1.0080           0
    8025 WT1  1304 TIP3 H2   HT     0.417000        1.0080           0
    8026 WT1  1305 TIP3 OH2  OT    -0.834000       15.9994           0
    8027 WT1  1305 TIP3 H1   HT     0.417000        1.0080           0
    8028 WT1  1305 TIP3 H2   HT     0.417000        1.0080           0
    8029 WT1  1307 TIP3 OH2  OT    -0.834000       15.9994           0
    8030 WT1  1307 TIP3 H1   HT     0.417000        1.0080           0
    8031 WT1  1307 TIP3 H2   HT     0.417000        1.0080           0
    8032 WT1  1308 TIP3 OH2  OT    -0.834000       15.9994           0
    8033 WT1  1308 TIP3 H1   HT     0.417000        1.0080           0
    8034 WT1  1308 TIP3 H2   HT     0.417000        1.0080           0
    8035 WT1  1309 TIP3 OH2  OT    -0.834000       15.9994           0
    8036 WT1  1309 TIP3 H1   HT     0.417000        1.0080           0
    8037 WT1  1309 TIP3 H2   HT     0.417000        1.0080           0
    8038 WT1  1311 TIP3 OH2  OT    -0.834000       15.9994           0
    8039 WT1  1311 TIP3 H1   HT     0.417000        1.0080           0
    8040 WT1  1311 TIP3 H2   HT     0.417000        1.0080           0
    8041 WT1  1312 TIP3 OH2  OT    -0.834000       15.9994           0
    8042 WT1  1312 TIP3 H1   HT     0.417000        1.0080           0
    8043 WT1  1312 TIP3 H2   HT     0.417000        1.0080           0
    8044 WT1  1313 TIP3 OH2  OT    -0.834000       15.9994           0
    8045 WT1  1313 TIP3 H1   HT     0.417000        1.0080           0
    8046 WT1  1313 TIP3 H2   HT     0.417000        1.0080           0
    8047 WT1  1314 TIP3 OH2  OT    -0.834000       15.9994           0
    8048 WT1  1314 TIP3 H1   HT     0.417000        1.0080           0
    8049 WT1  1314 TIP3 H2   HT     0.417000        1.0080           0
    8050 WT1  1315 TIP3 OH2  OT    -0.834000       15.9994           0
    8051 WT1  1315 TIP3 H1   HT     0.417000        1.0080           0
    8052 WT1  1315 TIP3 H2   HT     0.417000        1.0080           0
    8053 WT1  1316 TIP3 OH2  OT    -0.834000       15.9994           0
    8054 WT1  1316 TIP3 H1   HT     0.417000        1.0080           0
    8055 WT1  1316 TIP3 H2   HT     0.417000        1.0080           0
    8056 WT1  1317 TIP3 OH2  OT    -0.834000       15.9994           0
    8057 WT1  1317 TIP3 H1   HT     0.417000        1.0080           0
    8058 WT1  1317 TIP3 H2   HT     0.417000        1.0080           0
    8059 WT1  1319 TIP3 OH2  OT    -0.834000       15.9994           0
    8060 WT1  1319 TIP3 H1   HT     0.417000        1.0080           0
    8061 WT1  1319 TIP3 H2   HT     0.417000        1.0080           0
    8062 WT1  1320 TIP3 OH2  OT    -0.834000       15.9994           0
    8063 WT1  1320 TIP3 H1   HT     0.417000        1.0080           0
    8064 WT1  1320 TIP3 H2   HT     0.417000        1.0080           0
    8065 WT1  1322 TIP3 OH2  OT    -0.834000       15.9994           0
    8066 WT1  1322 TIP3 H1   HT     0.417000        1.0080           0
    8067 WT1  1322 TIP3 H2   HT     0.417000        1.0080           0
    8068 WT1  1323 TIP3 OH2  OT    -0.834000       15.9994           0
    8069 WT1  1323 TIP3 H1   HT     0.417000        1.0080           0
    8070 WT1  1323 TIP3 H2   HT     0.417000        1.0080           0
    8071 WT1  1324 TIP3 OH2  OT    -0.834000       15.9994           0
    8072 WT1  1324 TIP3 H1   HT     0.417000        1.0080           0
    8073 WT1  1324 TIP3 H2   HT     0.417000        1.0080           0
    8074 WT1  1326 TIP3 OH2  OT    -0.834000       15.9994           0
    8075 WT1  1326 TIP3 H1   HT     0.417000        1.0080           0
    8076 WT1  1326 TIP3 H2   HT     0.417000        1.0080           0
    8077 WT1  1327 TIP3 OH2  OT    -0.834000       15.9994           0
    8078 WT1  1327 TIP3 H1   HT     0.417000        1.0080           0
    8079 WT1  1327 TIP3 H2   HT     0.417000        1.0080           0
    8080 WT1  1328 TIP3 OH2  OT    -0.834000       15.9994           0
    8081 WT1  1328 TIP3 H1   HT     0.417000        1.0080           0
    8082 WT1  1328 TIP3 H2   HT     0.417000        1.0080           0
    8083 WT1  1329 TIP3 OH2  OT    -0.834000       15.9994           0
    8084 WT1  1329 TIP3 H1   HT     0.417000        1.0080           0
    8085 WT1  1329 TIP3 H2   HT     0.417000        1.0080           0
    8086 WT1  1330 TIP3 OH2  OT    -0.834000       15.9994           0
    8087 WT1  1330 TIP3 H1   HT     0.417000        1.0080           0
    8088 WT1  1330 TIP3 H2   HT     0.417000        1.0080           0
    8089 WT1  1332 TIP3 OH2  OT    -0.834000       15.9994           0
    8090 WT1  1332 TIP3 H1   HT     0.417000        1.0080           0
    8091 WT1  1332 TIP3 H2   HT     0.417000        1.0080           0
    8092 WT1  1333 TIP3 OH2  OT    -0.834000       15.9994           0
    8093 WT1  1333 TIP3 H1   HT     0.417000        1.0080           0
    8094 WT1  1333 TIP3 H2   HT     0.417000        1.0080           0
    8095 WT1  1334 TIP3 OH2  OT    -0.834000       15.9994           0
    8096 WT1  1334 TIP3 H1   HT     0.417000        1.0080           0
    8097 WT1  1334 TIP3 H2   HT     0.417000        1.0080           0
    8098 WT1  1336 TIP3 OH2  OT    -0.834000       15.9994           0
    8099 WT1  1336 TIP3 H1   HT     0.417000        1.0080           0
    8100 WT1  1336 TIP3 H2   HT     0.417000        1.0080           0
    8101 WT1  1337 TIP3 OH2  OT    -0.834000       15.9994           0
    8102 WT1  1337 TIP3 H1   HT     0.417000        1.0080           0
    8103 WT1  1337 TIP3 H2   HT     0.417000        1.0080           0
    8104 WT1  1338 TIP3 OH2  OT    -0.834000       15.9994           0
    8105 WT1  1338 TIP3 H1   HT     0.417000        1.0080           0
    8106 WT1  1338 TIP3 H2   HT     0.417000        1.0080           0
    8107 WT1  1339 TIP3 OH2  OT    -0.834000       15.9994           0
    8108 WT1  1339 TIP3 H1   HT     0.417000        1.0080           0
    8109 WT1  1339 TIP3 H2   HT     0.417000        1.0080           0
    8110 WT1  1340 TIP3 OH2  OT    -0.834000       15.9994           0
    8111 WT1  1340 TIP3 H1   HT     0.417000        1.0080           0
    8112 WT1  1340 TIP3 H2   HT     0.417000        1.0080           0
    8113 WT1  1344 TIP3 OH2  OT    -0.834000       15.9994           0
    8114 WT1  1344 TIP3 H1   HT     0.417000        1.0080           0
    8115 WT1  1344 TIP3 H2   HT     0.417000        1.0080           0
    8116 WT1  1345 TIP3 OH2  OT    -0.834000       15.9994           0
    8117 WT1  1345 TIP3 H1   HT     0.417000        1.0080           0
    8118 WT1  1345 TIP3 H2   HT     0.417000        1.0080           0
    8119 WT1  1346 TIP3 OH2  OT    -0.834000       15.9994           0
    8120 WT1  1346 TIP3 H1   HT     0.417000        1.0080           0
    8121 WT1  1346 TIP3 H2   HT     0.417000        1.0080           0
    8122 WT1  1347 TIP3 OH2  OT    -0.834000       15.9994           0
    8123 WT1  1347 TIP3 H1   HT     0.417000        1.0080           0
    8124 WT1  1347 TIP3 H2   HT     0.417000        1.0080           0
    8125 WT1  1348 TIP3 OH2  OT    -0.834000       15.9994           0
    8126 WT1  1348 TIP3 H1   HT     0.417000        1.0080           0
    8127 WT1  1348 TIP3 H2   HT     0.417000        1.0080           0
    8128 WT1  1349 TIP3 OH2  OT    -0.834000       15.9994           0
    8129 WT1  1349 TIP3 H1   HT     0.417000        1.0080           0
    8130 WT1  1349 TIP3 H2   HT     0.417000        1.0080           0
    8131 WT1  1350 TIP3 OH2  OT    -0.834000       15.9994           0
    8132 WT1  1350 TIP3 H1   HT     0.417000        1.0080           0
    8133 WT1  1350 TIP3 H2   HT     0.417000        1.0080           0
    8134 WT1  1351 TIP3 OH2  OT    -0.834000       15.9994           0
    8135 WT1  1351 TIP3 H1   HT     0.417000        1.0080           0
    8136 WT1  1351 TIP3 H2   HT     0.417000        1.0080           0
    8137 WT1  1352 TIP3 OH2  OT    -0.834000       15.9994           0
    8138 WT1  1352 TIP3 H1   HT     0.417000        1.0080           0
    8139 WT1  1352 TIP3 H2   HT     0.417000        1.0080           0
    8140 WT1  1353 TIP3 OH2  OT    -0.834000       15.9994           0
    8141 WT1  1353 TIP3 H1   HT     0.417000        1.0080           0
    8142 WT1  1353 TIP3 H2   HT     0.417000        1.0080           0
    8143 WT1  1354 TIP3 OH2  OT    -0.834000       15.9994           0
    8144 WT1  1354 TIP3 H1   HT     0.417000        1.0080           0
    8145 WT1  1354 TIP3 H2   HT     0.417000        1.0080           0
    8146 WT1  1355 TIP3 OH2  OT    -0.834000       15.9994           0
    8147 WT1  1355 TIP3 H1   HT     0.417000        1.0080           0
    8148 WT1  1355 TIP3 H2   HT     0.417000        1.0080           0
    8149 WT1  1356 TIP3 OH2  OT    -0.834000       15.9994           0
    8150 WT1  1356 TIP3 H1   HT     0.417000        1.0080           0
    8151 WT1  1356 TIP3 H2   HT     0.417000        1.0080           0
    8152 WT1  1357 TIP3 OH2  OT    -0.834000       15.9994           0
    8153 WT1  1357 TIP3 H1   HT     0.417000        1.0080           0
    8154 WT1  1357 TIP3 H2   HT     0.417000        1.0080           0
    8155 WT1  1358 TIP3 OH2  OT    -0.834000       15.9994           0
    8156 WT1  1358 TIP3 H1   HT     0.417000        1.0080           0
    8157 WT1  1358 TIP3 H2   HT     0.417000        1.0080           0
    8158 WT1  1360 TIP3 OH2  OT    -0.834000       15.9994           0
    8159 WT1  1360 TIP3 H1   HT     0.417000        1.0080           0
    8160 WT1  1360 TIP3 H2   HT     0.417000        1.0080           0
    8161 WT1  1361 TIP3 OH2  OT    -0.834000       15.9994           0
    8162 WT1  1361 TIP3 H1   HT     0.417000        1.0080           0
    8163 WT1  1361 TIP3 H2   HT     0.417000        1.0080           0
    8164 WT1  1362 TIP3 OH2  OT    -0.834000       15.9994           0
    8165 WT1  1362 TIP3 H1   HT     0.417000        1.0080           0
    8166 WT1  1362 TIP3 H2   HT     0.417000        1.0080           0
    8167 WT1  1364 TIP3 OH2  OT    -0.834000       15.9994           0
    8168 WT1  1364 TIP3 H1   HT     0.417000        1.0080           0
    8169 WT1  1364 TIP3 H2   HT     0.417000        1.0080           0
    8170 WT1  1365 TIP3 OH2  OT    -0.834000       15.9994           0
    8171 WT1  1365 TIP3 H1   HT     0.417000        1.0080           0
    8172 WT1  1365 TIP3 H2   HT     0.417000        1.0080           0
    8173 WT1  1367 TIP3 OH2  OT    -0.834000       15.9994           0
    8174 WT1  1367 TIP3 H1   HT     0.417000        1.0080           0
    8175 WT1  1367 TIP3 H2   HT     0.417000        1.0080           0
    8176 WT1  1368 TIP3 OH2  OT    -0.834000       15.9994           0
    8177 WT1  1368 TIP3 H1   HT     0.417000        1.0080           0
    8178 WT1  1368 TIP3 H2   HT     0.417000        1.0080           0
    8179 WT1  1369 TIP3 OH2  OT    -0.834000       15.9994           0
    8180 WT1  1369 TIP3 H1   HT     0.417000        1.0080           0
    8181 WT1  1369 TIP3 H2   HT     0.417000        1.0080           0
    8182 WT1  1370 TIP3 OH2  OT    -0.834000       15.9994           0
    8183 WT1  1370 TIP3 H1   HT     0.417000        1.0080           0
    8184 WT1  1370 TIP3 H2   HT     0.417000        1.0080           0
    8185 WT1  1371 TIP3 OH2  OT    -0.834000       15.9994           0
    8186 WT1  1371 TIP3 H1   HT     0.417000        1.0080           0
    8187 WT1  1371 TIP3 H2   HT     0.417000        1.0080           0
    8188 WT1  1372 TIP3 OH2  OT    -0.834000       15.9994           0
    8189 WT1  1372 TIP3 H1   HT     0.417000        1.0080           0
    8190 WT1  1372 TIP3 H2   HT     0.417000        1.0080           0
    8191 WT1  1373 TIP3 OH2  OT    -0.834000       15.9994           0
    8192 WT1  1373 TIP3 H1   HT     0.417000        1.0080           0
    8193 WT1  1373 TIP3 H2   HT     0.417000        1.0080           0
    8194 WT1  1374 TIP3 OH2  OT    -0.834000       15.9994           0
    8195 WT1  1374 TIP3 H1   HT     0.417000        1.0080           0
    8196 WT1  1374 TIP3 H2   HT     0.417000        1.0080           0
    8197 WT1  1375 TIP3 OH2  OT    -0.834000       15.9994           0
    8198 WT1  1375 TIP3 H1   HT     0.417000        1.0080           0
    8199 WT1  1375 TIP3 H2   HT     0.417000        1.0080           0
    8200 WT1  1376 TIP3 OH2  OT    -0.834000       15.9994           0
    8201 WT1  1376 TIP3 H1   HT     0.417000        1.0080           0
    8202 WT1  1376 TIP3 H2   HT     0.417000        1.0080           0
    8203 WT1  1377 TIP3 OH2  OT    -0.834000       15.9994           0
    8204 WT1  1377 TIP3 H1   HT     0.417000        1.0080           0
    8205 WT1  1377 TIP3 H2   HT     0.417000        1.0080           0
    8206 WT1  1379 TIP3 OH2  OT    -0.834000       15.9994           0
    8207 WT1  1379 TIP3 H1   HT     0.417000        1.0080           0
    8208 WT1  1379 TIP3 H2   HT     0.417000        1.0080           0
    8209 WT1  1380 TIP3 OH2  OT    -0.834000       15.9994           0
    8210 WT1  1380 TIP3 H1   HT     0.417000        1.0080           0
    8211 WT1  1380 TIP3 H2   HT     0.417000        1.0080           0
    8212 WT1  1381 TIP3 OH2  OT    -0.834000       15.9994           0
    8213 WT1  1381 TIP3 H1   HT     0.417000        1.0080           0
    8214 WT1  1381 TIP3 H2   HT     0.417000        1.0080           0
    8215 WT1  1384 TIP3 OH2  OT    -0.834000       15.9994           0
    8216 WT1  1384 TIP3 H1   HT     0.417000        1.0080           0
    8217 WT1  1384 TIP3 H2   HT     0.417000        1.0080           0
    8218 WT1  1385 TIP3 OH2  OT    -0.834000       15.9994           0
    8219 WT1  1385 TIP3 H1   HT     0.417000        1.0080           0
    8220 WT1  1385 TIP3 H2   HT     0.417000        1.0080           0
    8221 WT1  1387 TIP3 OH2  OT    -0.834000       15.9994           0
    8222 WT1  1387 TIP3 H1   HT     0.417000        1.0080           0
    8223 WT1  1387 TIP3 H2   HT     0.417000        1.0080           0
    8224 WT1  1388 TIP3 OH2  OT    -0.834000       15.9994           0
    8225 WT1  1388 TIP3 H1   HT     0.417000        1.0080           0
    8226 WT1  1388 TIP3 H2   HT     0.417000        1.0080           0
    8227 WT1  1389 TIP3 OH2  OT    -0.834000       15.9994           0
    8228 WT1  1389 TIP3 H1   HT     0.417000        1.0080           0
    8229 WT1  1389 TIP3 H2   HT     0.417000        1.0080           0
    8230 WT1  1390 TIP3 OH2  OT    -0.834000       15.9994           0
    8231 WT1  1390 TIP3 H1   HT     0.417000        1.0080           0
    8232 WT1  1390 TIP3 H2   HT     0.417000        1.0080           0
    8233 WT1  1392 TIP3 OH2  OT    -0.834000       15.9994           0
    8234 WT1  1392 TIP3 H1   HT     0.417000        1.0080           0
    8235 WT1  1392 TIP3 H2   HT     0.417000        1.0080           0
    8236 WT1  1393 TIP3 OH2  OT    -0.834000       15.9994           0
    8237 WT1  1393 TIP3 H1   HT     0.417000        1.0080           0
    8238 WT1  1393 TIP3 H2   HT     0.417000        1.0080           0
    8239 WT1  1394 TIP3 OH2  OT    -0.834000       15.9994           0
    8240 WT1  1394 TIP3 H1   HT     0.417000        1.0080           0
    8241 WT1  1394 TIP3 H2   HT     0.417000        1.0080           0
    8242 WT1  1395 TIP3 OH2  OT    -0.834000       15.9994           0
    8243 WT1  1395 TIP3 H1   HT     0.417000        1.0080           0
    8244 WT1  1395 TIP3 H2   HT     0.417000        1.0080           0
    8245 WT1  1396 TIP3 OH2  OT    -0.834000       15.9994           0
    8246 WT1  1396 TIP3 H1   HT     0.417000        1.0080           0
    8247 WT1  1396 TIP3 H2   HT     0.417000        1.0080           0
    8248 WT1  1397 TIP3 OH2  OT    -0.834000       15.9994           0
    8249 WT1  1397 TIP3 H1   HT     0.417000        1.0080           0
    8250 WT1  1397 TIP3 H2   HT     0.417000        1.0080           0
    8251 WT1  1398 TIP3 OH2  OT    -0.834000       15.9994           0
    8252 WT1  1398 TIP3 H1   HT     0.417000        1.0080           0
    8253 WT1  1398 TIP3 H2   HT     0.417000        1.0080           0
    8254 WT1  1400 TIP3 OH2  OT    -0.834000       15.9994           0
    8255 WT1  1400 TIP3 H1   HT     0.417000        1.0080           0
    8256 WT1  1400 TIP3 H2   HT     0.417000        1.0080           0
    8257 WT1  1401 TIP3 OH2  OT    -0.834000       15.9994           0
    8258 WT1  1401 TIP3 H1   HT     0.417000        1.0080           0
    8259 WT1  1401 TIP3 H2   HT     0.417000        1.0080           0
    8260 WT1  1402 TIP3 OH2  OT    -0.834000       15.9994           0
    8261 WT1  1402 TIP3 H1   HT     0.417000        1.0080           0
    8262 WT1  1402 TIP3 H2   HT     0.417000        1.0080           0
    8263 WT1  1404 TIP3 OH2  OT    -0.834000       15.9994           0
    8264 WT1  1404 TIP3 H1   HT     0.417000        1.0080           0
    8265 WT1  1404 TIP3 H2   HT     0.417000        1.0080           0
    8266 WT1  1405 TIP3 OH2  OT    -0.834000       15.9994           0
    8267 WT1  1405 TIP3 H1   HT     0.417000        1.0080           0
    8268 WT1  1405 TIP3 H2   HT     0.417000        1.0080           0
    8269 WT1  1407 TIP3 OH2  OT    -0.834000       15.9994           0
    8270 WT1  1407 TIP3 H1   HT     0.417000        1.0080           0
    8271 WT1  1407 TIP3 H2   HT     0.417000        1.0080           0
    8272 WT1  1408 TIP3 OH2  OT    -0.834000       15.9994           0
    8273 WT1  1408 TIP3 H1   HT     0.417000        1.0080           0
    8274 WT1  1408 TIP3 H2   HT     0.417000        1.0080           0
    8275 WT1  1410 TIP3 OH2  OT    -0.834000       15.9994           0
    8276 WT1  1410 TIP3 H1   HT     0.417000        1.0080           0
    8277 WT1  1410 TIP3 H2   HT     0.417000        1.0080           0
    8278 WT1  1411 TIP3 OH2  OT    -0.834000       15.9994           0
    8279 WT1  1411 TIP3 H1   HT     0.417000        1.0080           0
    8280 WT1  1411 TIP3 H2   HT     0.417000        1.0080           0
    8281 WT1  1412 TIP3 OH2  OT    -0.834000       15.9994           0
    8282 WT1  1412 TIP3 H1   HT     0.417000        1.0080           0
    8283 WT1  1412 TIP3 H2   HT     0.417000        1.0080           0
    8284 WT1  1413 TIP3 OH2  OT    -0.834000       15.9994           0
    8285 WT1  1413 TIP3 H1   HT     0.417000        1.0080           0
    8286 WT1  1413 TIP3 H2   HT     0.417000        1.0080           0
    8287 WT1  1414 TIP3 OH2  OT    -0.834000       15.9994           0
    8288 WT1  1414 TIP3 H1   HT     0.417000        1.0080           0
    8289 WT1  1414 TIP3 H2   HT     0.417000        1.0080           0
    8290 WT1  1415 TIP3 OH2  OT    -0.834000       15.9994           0
    8291 WT1  1415 TIP3 H1   HT     0.417000        1.0080           0
    8292 WT1  1415 TIP3 H2   HT     0.417000        1.0080           0
    8293 WT1  1416 TIP3 OH2  OT    -0.834000       15.9994           0
    8294 WT1  1416 TIP3 H1   HT     0.417000        1.0080           0
    8295 WT1  1416 TIP3 H2   HT     0.417000        1.0080           0
    8296 WT1  1417 TIP3 OH2  OT    -0.834000       15.9994           0
    8297 WT1  1417 TIP3 H1   HT     0.417000        1.0080           0
    8298 WT1  1417 TIP3 H2   HT     0.417000        1.0080           0
    8299 WT1  1418 TIP3 OH2  OT    -0.834000       15.9994           0
    8300 WT1  1418 TIP3 H1   HT     0.417000        1.0080           0
    8301 WT1  1418 TIP3 H2   HT     0.417000        1.0080           0
    8302 WT1  1419 TIP3 OH2  OT    -0.834000       15.9994           0
    8303 WT1  1419 TIP3 H1   HT     0.417000        1.0080           0
    8304 WT1  1419 TIP3 H2   HT     0.417000        1.0080           0
    8305 WT1  1420 TIP3 OH2  OT    -0.834000       15.9994           0
    8306 WT1  1420 TIP3 H1   HT     0.417000        1.0080           0
    8307 WT1  1420 TIP3 H2   HT     0.417000        1.0080           0
    8308 WT1  1422 TIP3 OH2  OT    -0.834000       15.9994           0
    8309 WT1  1422 TIP3 H1   HT     0.417000        1.0080           0
    8310 WT1  1422 TIP3 H2   HT     0.417000        1.0080           0
    8311 WT1  1423 TIP3 OH2  OT    -0.834000       15.9994           0
    8312 WT1  1423 TIP3 H1   HT     0.417000        1.0080           0
    8313 WT1  1423 TIP3 H2   HT     0.417000        1.0080           0
    8314 WT1  1424 TIP3 OH2  OT    -0.834000       15.9994           0
    8315 WT1  1424 TIP3 H1   HT     0.417000        1.0080           0
    8316 WT1  1424 TIP3 H2   HT     0.417000        1.0080           0
    8317 WT1  1428 TIP3 OH2  OT    -0.834000       15.9994           0
    8318 WT1  1428 TIP3 H1   HT     0.417000        1.0080           0
    8319 WT1  1428 TIP3 H2   HT     0.417000        1.0080           0
    8320 WT1  1429 TIP3 OH2  OT    -0.834000       15.9994           0
    8321 WT1  1429 TIP3 H1   HT     0.417000        1.0080           0
    8322 WT1  1429 TIP3 H2   HT     0.417000        1.0080           0
    8323 WT1  1430 TIP3 OH2  OT    -0.834000       15.9994           0
    8324 WT1  1430 TIP3 H1   HT     0.417000        1.0080           0
    8325 WT1  1430 TIP3 H2   HT     0.417000        1.0080           0
    8326 WT1  1431 TIP3 OH2  OT    -0.834000       15.9994           0
    8327 WT1  1431 TIP3 H1   HT     0.417000        1.0080           0
    8328 WT1  1431 TIP3 H2   HT     0.417000        1.0080           0
    8329 WT1  1432 TIP3 OH2  OT    -0.834000       15.9994           0
    8330 WT1  1432 TIP3 H1   HT     0.417000        1.0080           0
    8331 WT1  1432 TIP3 H2   HT     0.417000        1.0080           0
    8332 WT1  1433 TIP3 OH2  OT    -0.834000       15.9994           0
    8333 WT1  1433 TIP3 H1   HT     0.417000        1.0080           0
    8334 WT1  1433 TIP3 H2   HT     0.417000        1.0080           0
    8335 WT1  1434 TIP3 OH2  OT    -0.834000       15.9994           0
    8336 WT1  1434 TIP3 H1   HT     0.417000        1.0080           0
    8337 WT1  1434 TIP3 H2   HT     0.417000        1.0080           0
    8338 WT1  1435 TIP3 OH2  OT    -0.834000       15.9994           0
    8339 WT1  1435 TIP3 H1   HT     0.417000        1.0080           0
    8340 WT1  1435 TIP3 H2   HT     0.417000        1.0080           0
    8341 WT1  1436 TIP3 OH2  OT    -0.834000       15.9994           0
    8342 WT1  1436 TIP3 H1   HT     0.417000        1.0080           0
    8343 WT1  1436 TIP3 H2   HT     0.417000        1.0080           0
    8344 WT1  1437 TIP3 OH2  OT    -0.834000       15.9994           0
    8345 WT1  1437 TIP3 H1   HT     0.417000        1.0080           0
    8346 WT1  1437 TIP3 H2   HT     0.417000        1.0080           0
    8347 WT1  1438 TIP3 OH2  OT    -0.834000       15.9994           0
    8348 WT1  1438 TIP3 H1   HT     0.417000        1.0080           0
    8349 WT1  1438 TIP3 H2   HT     0.417000        1.0080           0
    8350 WT1  1439 TIP3 OH2  OT    -0.834000       15.9994           0
    8351 WT1  1439 TIP3 H1   HT     0.417000        1.0080           0
    8352 WT1  1439 TIP3 H2   HT     0.417000        1.0080           0
    8353 WT1  1440 TIP3 OH2  OT    -0.834000       15.9994           0
    8354 WT1  1440 TIP3 H1   HT     0.417000        1.0080           0
    8355 WT1  1440 TIP3 H2   HT     0.417000        1.0080           0
    8356 WT1  1441 TIP3 OH2  OT    -0.834000       15.9994           0
    8357 WT1  1441 TIP3 H1   HT     0.417000        1.0080           0
    8358 WT1  1441 TIP3 H2   HT     0.417000        1.0080           0
    8359 WT1  1442 TIP3 OH2  OT    -0.834000       15.9994           0
    8360 WT1  1442 TIP3 H1   HT     0.417000        1.0080           0
    8361 WT1  1442 TIP3 H2   HT     0.417000        1.0080           0
    8362 WT1  1443 TIP3 OH2  OT    -0.834000       15.9994           0
    8363 WT1  1443 TIP3 H1   HT     0.417000        1.0080           0
    8364 WT1  1443 TIP3 H2   HT     0.417000        1.0080           0
    8365 WT1  1444 TIP3 OH2  OT    -0.834000       15.9994           0
    8366 WT1  1444 TIP3 H1   HT     0.417000        1.0080           0
    8367 WT1  1444 TIP3 H2   HT     0.417000        1.0080           0
    8368 WT1  1445 TIP3 OH2  OT    -0.834000       15.9994           0
    8369 WT1  1445 TIP3 H1   HT     0.417000        1.0080           0
    8370 WT1  1445 TIP3 H2   HT     0.417000        1.0080           0
    8371 WT1  1447 TIP3 OH2  OT    -0.834000       15.9994           0
    8372 WT1  1447 TIP3 H1   HT     0.417000        1.0080           0
    8373 WT1  1447 TIP3 H2   HT     0.417000        1.0080           0
    8374 WT1  1448 TIP3 OH2  OT    -0.834000       15.9994           0
    8375 WT1  1448 TIP3 H1   HT     0.417000        1.0080           0
    8376 WT1  1448 TIP3 H2   HT     0.417000        1.0080           0
    8377 WT1  1450 TIP3 OH2  OT    -0.834000       15.9994           0
    8378 WT1  1450 TIP3 H1   HT     0.417000        1.0080           0
    8379 WT1  1450 TIP3 H2   HT     0.417000        1.0080           0
    8380 WT1  1451 TIP3 OH2  OT    -0.834000       15.9994           0
    8381 WT1  1451 TIP3 H1   HT     0.417000        1.0080           0
    8382 WT1  1451 TIP3 H2   HT     0.417000        1.0080           0
    8383 WT1  1453 TIP3 OH2  OT    -0.834000       15.9994           0
    8384 WT1  1453 TIP3 H1   HT     0.417000        1.0080           0
    8385 WT1  1453 TIP3 H2   HT     0.417000        1.0080           0
    8386 WT1  1454 TIP3 OH2  OT    -0.834000       15.9994           0
    8387 WT1  1454 TIP3 H1   HT     0.417000        1.0080           0
    8388 WT1  1454 TIP3 H2   HT     0.417000        1.0080           0
    8389 WT1  1455 TIP3 OH2  OT    -0.834000       15.9994           0
    8390 WT1  1455 TIP3 H1   HT     0.417000        1.0080           0
    8391 WT1  1455 TIP3 H2   HT     0.417000        1.0080           0
    8392 WT1  1456 TIP3 OH2  OT    -0.834000       15.9994           0
    8393 WT1  1456 TIP3 H1   HT     0.417000        1.0080           0
    8394 WT1  1456 TIP3 H2   HT     0.417000        1.0080           0
    8395 WT1  1457 TIP3 OH2  OT    -0.834000       15.9994           0
    8396 WT1  1457 TIP3 H1   HT     0.417000        1.0080           0
    8397 WT1  1457 TIP3 H2   HT     0.417000        1.0080           0
    8398 WT1  1458 TIP3 OH2  OT    -0.834000       15.9994           0
    8399 WT1  1458 TIP3 H1   HT     0.417000        1.0080           0
    8400 WT1  1458 TIP3 H2   HT     0.417000        1.0080           0
    8401 WT1  1459 TIP3 OH2  OT    -0.834000       15.9994           0
    8402 WT1  1459 TIP3 H1   HT     0.417000        1.0080           0
    8403 WT1  1459 TIP3 H2   HT     0.417000        1.0080           0
    8404 WT1  1460 TIP3 OH2  OT    -0.834000       15.9994           0
    8405 WT1  1460 TIP3 H1   HT     0.417000        1.0080           0
    8406 WT1  1460 TIP3 H2   HT     0.417000        1.0080           0
    8407 WT1  1461 TIP3 OH2  OT    -0.834000       15.9994           0
    8408 WT1  1461 TIP3 H1   HT     0.417000        1.0080           0
    8409 WT1  1461 TIP3 H2   HT     0.417000        1.0080           0
    8410 WT1  1463 TIP3 OH2  OT    -0.834000       15.9994           0
    8411 WT1  1463 TIP3 H1   HT     0.417000        1.0080           0
    8412 WT1  1463 TIP3 H2   HT     0.417000        1.0080           0
    8413 WT1  1464 TIP3 OH2  OT    -0.834000       15.9994           0
    8414 WT1  1464 TIP3 H1   HT     0.417000        1.0080           0
    8415 WT1  1464 TIP3 H2   HT     0.417000        1.0080           0
    8416 WT1  1465 TIP3 OH2  OT    -0.834000       15.9994           0
    8417 WT1  1465 TIP3 H1   HT     0.417000        1.0080           0
    8418 WT1  1465 TIP3 H2   HT     0.417000        1.0080           0
    8419 WT1  1466 TIP3 OH2  OT    -0.834000       15.9994           0
    8420 WT1  1466 TIP3 H1   HT     0.417000        1.0080           0
    8421 WT1  1466 TIP3 H2   HT     0.417000        1.0080           0
    8422 WT1  1468 TIP3 OH2  OT    -0.834000       15.9994           0
    8423 WT1  1468 TIP3 H1   HT     0.417000        1.0080           0
    8424 WT1  1468 TIP3 H2   HT     0.417000        1.0080           0
    8425 WT1  1469 TIP3 OH2  OT    -0.834000       15.9994           0
    8426 WT1  1469 TIP3 H1   HT     0.417000        1.0080           0
    8427 WT1  1469 TIP3 H2   HT     0.417000        1.0080           0
    8428 WT1  1471 TIP3 OH2  OT    -0.834000       15.9994           0
    8429 WT1  1471 TIP3 H1   HT     0.417000        1.0080           0
    8430 WT1  1471 TIP3 H2   HT     0.417000        1.0080           0
    8431 WT1  1472 TIP3 OH2  OT    -0.834000       15.9994           0
    8432 WT1  1472 TIP3 H1   HT     0.417000        1.0080           0
    8433 WT1  1472 TIP3 H2   HT     0.417000        1.0080           0
    8434 WT1  1473 TIP3 OH2  OT    -0.834000       15.9994           0
    8435 WT1  1473 TIP3 H1   HT     0.417000        1.0080           0
    8436 WT1  1473 TIP3 H2   HT     0.417000        1.0080           0
    8437 WT1  1474 TIP3 OH2  OT    -0.834000       15.9994           0
    8438 WT1  1474 TIP3 H1   HT     0.417000        1.0080           0
    8439 WT1  1474 TIP3 H2   HT     0.417000        1.0080           0
    8440 WT1  1475 TIP3 OH2  OT    -0.834000       15.9994           0
    8441 WT1  1475 TIP3 H1   HT     0.417000        1.0080           0
    8442 WT1  1475 TIP3 H2   HT     0.417000        1.0080           0
    8443 WT1  1476 TIP3 OH2  OT    -0.834000       15.9994           0
    8444 WT1  1476 TIP3 H1   HT     0.417000        1.0080           0
    8445 WT1  1476 TIP3 H2   HT     0.417000        1.0080           0
    8446 WT1  1477 TIP3 OH2  OT    -0.834000       15.9994           0
    8447 WT1  1477 TIP3 H1   HT     0.417000        1.0080           0
    8448 WT1  1477 TIP3 H2   HT     0.417000        1.0080           0
    8449 WT1  1478 TIP3 OH2  OT    -0.834000       15.9994           0
    8450 WT1  1478 TIP3 H1   HT     0.417000        1.0080           0
    8451 WT1  1478 TIP3 H2   HT     0.417000        1.0080           0
    8452 WT1  1479 TIP3 OH2  OT    -0.834000       15.9994           0
    8453 WT1  1479 TIP3 H1   HT     0.417000        1.0080           0
    8454 WT1  1479 TIP3 H2   HT     0.417000        1.0080           0
    8455 WT1  1480 TIP3 OH2  OT    -0.834000       15.9994           0
    8456 WT1  1480 TIP3 H1   HT     0.417000        1.0080           0
    8457 WT1  1480 TIP3 H2   HT     0.417000        1.0080           0
    8458 WT1  1481 TIP3 OH2  OT    -0.834000       15.9994           0
    8459 WT1  1481 TIP3 H1   HT     0.417000        1.0080           0
    8460 WT1  1481 TIP3 H2   HT     0.417000        1.0080           0
    8461 WT1  1482 TIP3 OH2  OT    -0.834000       15.9994           0
    8462 WT1  1482 TIP3 H1   HT     0.417000        1.0080           0
    8463 WT1  1482 TIP3 H2   HT     0.417000        1.0080           0
    8464 WT1  1483 TIP3 OH2  OT    -0.834000       15.9994           0
    8465 WT1  1483 TIP3 H1   HT     0.417000        1.0080           0
    8466 WT1  1483 TIP3 H2   HT     0.417000        1.0080           0
    8467 WT1  1485 TIP3 OH2  OT    -0.834000       15.9994           0
    8468 WT1  1485 TIP3 H1   HT     0.417000        1.0080           0
    8469 WT1  1485 TIP3 H2   HT     0.417000        1.0080           0
    8470 WT1  1486 TIP3 OH2  OT    -0.834000       15.9994           0
    8471 WT1  1486 TIP3 H1   HT     0.417000        1.0080           0
    8472 WT1  1486 TIP3 H2   HT     0.417000        1.0080           0
    8473 WT1  1487 TIP3 OH2  OT    -0.834000       15.9994           0
    8474 WT1  1487 TIP3 H1   HT     0.417000        1.0080           0
    8475 WT1  1487 TIP3 H2   HT     0.417000        1.0080           0
    8476 WT1  1488 TIP3 OH2  OT    -0.834000       15.9994           0
    8477 WT1  1488 TIP3 H1   HT     0.417000        1.0080           0
    8478 WT1  1488 TIP3 H2   HT     0.417000        1.0080           0
    8479 WT1  1489 TIP3 OH2  OT    -0.834000       15.9994           0
    8480 WT1  1489 TIP3 H1   HT     0.417000        1.0080           0
    8481 WT1  1489 TIP3 H2   HT     0.417000        1.0080           0
    8482 WT1  1490 TIP3 OH2  OT    -0.834000       15.9994           0
    8483 WT1  1490 TIP3 H1   HT     0.417000        1.0080           0
    8484 WT1  1490 TIP3 H2   HT     0.417000        1.0080           0
    8485 WT1  1491 TIP3 OH2  OT    -0.834000       15.9994           0
    8486 WT1  1491 TIP3 H1   HT     0.417000        1.0080           0
    8487 WT1  1491 TIP3 H2   HT     0.417000        1.0080           0
    8488 WT1  1492 TIP3 OH2  OT    -0.834000       15.9994           0
    8489 WT1  1492 TIP3 H1   HT     0.417000        1.0080           0
    8490 WT1  1492 TIP3 H2   HT     0.417000        1.0080           0
    8491 WT1  1493 TIP3 OH2  OT    -0.834000       15.9994           0
    8492 WT1  1493 TIP3 H1   HT     0.417000        1.0080           0
    8493 WT1  1493 TIP3 H2   HT     0.417000        1.0080           0
    8494 WT1  1494 TIP3 OH2  OT    -0.834000       15.9994           0
    8495 WT1  1494 TIP3 H1   HT     0.417000        1.0080           0
    8496 WT1  1494 TIP3 H2   HT     0.417000        1.0080           0
    8497 WT1  1496 TIP3 OH2  OT    -0.834000       15.9994           0
    8498 WT1  1496 TIP3 H1   HT     0.417000        1.0080           0
    8499 WT1  1496 TIP3 H2   HT     0.417000        1.0080           0
    8500 WT1  1497 TIP3 OH2  OT    -0.834000       15.9994           0
    8501 WT1  1497 TIP3 H1   HT     0.417000        1.0080           0
    8502 WT1  1497 TIP3 H2   HT     0.417000        1.0080           0
    8503 WT1  1498 TIP3 OH2  OT    -0.834000       15.9994           0
    8504 WT1  1498 TIP3 H1   HT     0.417000        1.0080           0
    8505 WT1  1498 TIP3 H2   HT     0.417000        1.0080           0
    8506 WT1  1499 TIP3 OH2  OT    -0.834000       15.9994           0
    8507 WT1  1499 TIP3 H1   HT     0.417000        1.0080           0
    8508 WT1  1499 TIP3 H2   HT     0.417000        1.0080           0
    8509 WT1  1500 TIP3 OH2  OT    -0.834000       15.9994           0
    8510 WT1  1500 TIP3 H1   HT     0.417000        1.0080           0
    8511 WT1  1500 TIP3 H2   HT     0.417000        1.0080           0
    8512 WT1  1501 TIP3 OH2  OT    -0.834000       15.9994           0
    8513 WT1  1501 TIP3 H1   HT     0.417000        1.0080           0
    8514 WT1  1501 TIP3 H2   HT     0.417000        1.0080           0
    8515 WT1  1502 TIP3 OH2  OT    -0.834000       15.9994           0
    8516 WT1  1502 TIP3 H1   HT     0.417000        1.0080           0
    8517 WT1  1502 TIP3 H2   HT     0.417000        1.0080           0
    8518 WT1  1503 TIP3 OH2  OT    -0.834000       15.9994           0
    8519 WT1  1503 TIP3 H1   HT     0.417000        1.0080           0
    8520 WT1  1503 TIP3 H2   HT     0.417000        1.0080           0
    8521 WT1  1504 TIP3 OH2  OT    -0.834000       15.9994           0
    8522 WT1  1504 TIP3 H1   HT     0.417000        1.0080           0
    8523 WT1  1504 TIP3 H2   HT     0.417000        1.0080           0
    8524 WT1  1505 TIP3 OH2  OT    -0.834000       15.9994           0
    8525 WT1  1505 TIP3 H1   HT     0.417000        1.0080           0
    8526 WT1  1505 TIP3 H2   HT     0.417000        1.0080           0
    8527 WT1  1506 TIP3 OH2  OT    -0.834000       15.9994           0
    8528 WT1  1506 TIP3 H1   HT     0.417000        1.0080           0
    8529 WT1  1506 TIP3 H2   HT     0.417000        1.0080           0
    8530 WT1  1507 TIP3 OH2  OT    -0.834000       15.9994           0
    8531 WT1  1507 TIP3 H1   HT     0.417000        1.0080           0
    8532 WT1  1507 TIP3 H2   HT     0.417000        1.0080           0
    8533 WT1  1508 TIP3 OH2  OT    -0.834000       15.9994           0
    8534 WT1  1508 TIP3 H1   HT     0.417000        1.0080           0
    8535 WT1  1508 TIP3 H2   HT     0.417000        1.0080           0
    8536 WT1  1509 TIP3 OH2  OT    -0.834000       15.9994           0
    8537 WT1  1509 TIP3 H1   HT     0.417000        1.0080           0
    8538 WT1  1509 TIP3 H2   HT     0.417000        1.0080           0
    8539 WT1  1511 TIP3 OH2  OT    -0.834000       15.9994           0
    8540 WT1  1511 TIP3 H1   HT     0.417000        1.0080           0
    8541 WT1  1511 TIP3 H2   HT     0.417000        1.0080           0
    8542 WT1  1512 TIP3 OH2  OT    -0.834000       15.9994           0
    8543 WT1  1512 TIP3 H1   HT     0.417000        1.0080           0
    8544 WT1  1512 TIP3 H2   HT     0.417000        1.0080           0
    8545 WT1  1514 TIP3 OH2  OT    -0.834000       15.9994           0
    8546 WT1  1514 TIP3 H1   HT     0.417000        1.0080           0
    8547 WT1  1514 TIP3 H2   HT     0.417000        1.0080           0
    8548 WT1  1515 TIP3 OH2  OT    -0.834000       15.9994           0
    8549 WT1  1515 TIP3 H1   HT     0.417000        1.0080           0
    8550 WT1  1515 TIP3 H2   HT     0.417000        1.0080           0
    8551 WT1  1516 TIP3 OH2  OT    -0.834000       15.9994           0
    8552 WT1  1516 TIP3 H1   HT     0.417000        1.0080           0
    8553 WT1  1516 TIP3 H2   HT     0.417000        1.0080           0
    8554 WT1  1517 TIP3 OH2  OT    -0.834000       15.9994           0
    8555 WT1  1517 TIP3 H1   HT     0.417000        1.0080           0
    8556 WT1  1517 TIP3 H2   HT     0.417000        1.0080           0
    8557 WT1  1518 TIP3 OH2  OT    -0.834000       15.9994           0
    8558 WT1  1518 TIP3 H1   HT     0.417000        1.0080           0
    8559 WT1  1518 TIP3 H2   HT     0.417000        1.0080           0
    8560 WT1  1520 TIP3 OH2  OT    -0.834000       15.9994           0
    8561 WT1  1520 TIP3 H1   HT     0.417000        1.0080           0
    8562 WT1  1520 TIP3 H2   HT     0.417000        1.0080           0
    8563 WT1  1521 TIP3 OH2  OT    -0.834000       15.9994           0
    8564 WT1  1521 TIP3 H1   HT     0.417000        1.0080           0
    8565 WT1  1521 TIP3 H2   HT     0.417000        1.0080           0
    8566 WT1  1522 TIP3 OH2  OT    -0.834000       15.9994           0
    8567 WT1  1522 TIP3 H1   HT     0.417000        1.0080           0
    8568 WT1  1522 TIP3 H2   HT     0.417000        1.0080           0
    8569 WT1  1523 TIP3 OH2  OT    -0.834000       15.9994           0
    8570 WT1  1523 TIP3 H1   HT     0.417000        1.0080           0
    8571 WT1  1523 TIP3 H2   HT     0.417000        1.0080           0
    8572 WT1  1524 TIP3 OH2  OT    -0.834000       15.9994           0
    8573 WT1  1524 TIP3 H1   HT     0.417000        1.0080           0
    8574 WT1  1524 TIP3 H2   HT     0.417000        1.0080           0
    8575 WT1  1525 TIP3 OH2  OT    -0.834000       15.9994           0
    8576 WT1  1525 TIP3 H1   HT     0.417000        1.0080           0
    8577 WT1  1525 TIP3 H2   HT     0.417000        1.0080           0
    8578 WT1  1526 TIP3 OH2  OT    -0.834000       15.9994           0
    8579 WT1  1526 TIP3 H1   HT     0.417000        1.0080           0
    8580 WT1  1526 TIP3 H2   HT     0.417000        1.0080           0
    8581 WT1  1527 TIP3 OH2  OT    -0.834000       15.9994           0
    8582 WT1  1527 TIP3 H1   HT     0.417000        1.0080           0
    8583 WT1  1527 TIP3 H2   HT     0.417000        1.0080           0
    8584 WT1  1528 TIP3 OH2  OT    -0.834000       15.9994           0
    8585 WT1  1528 TIP3 H1   HT     0.417000        1.0080           0
    8586 WT1  1528 TIP3 H2   HT     0.417000        1.0080           0
    8587 WT1  1529 TIP3 OH2  OT    -0.834000       15.9994           0
    8588 WT1  1529 TIP3 H1   HT     0.417000        1.0080           0
    8589 WT1  1529 TIP3 H2   HT     0.417000        1.0080           0
    8590 WT1  1531 TIP3 OH2  OT    -0.834000       15.9994           0
    8591 WT1  1531 TIP3 H1   HT     0.417000        1.0080           0
    8592 WT1  1531 TIP3 H2   HT     0.417000        1.0080           0
    8593 WT1  1532 TIP3 OH2  OT    -0.834000       15.9994           0
    8594 WT1  1532 TIP3 H1   HT     0.417000        1.0080           0
    8595 WT1  1532 TIP3 H2   HT     0.417000        1.0080           0
    8596 WT1  1534 TIP3 OH2  OT    -0.834000       15.9994           0
    8597 WT1  1534 TIP3 H1   HT     0.417000        1.0080           0
    8598 WT1  1534 TIP3 H2   HT     0.417000        1.0080           0
    8599 WT1  1536 TIP3 OH2  OT    -0.834000       15.9994           0
    8600 WT1  1536 TIP3 H1   HT     0.417000        1.0080           0
    8601 WT1  1536 TIP3 H2   HT     0.417000        1.0080           0
    8602 WT1  1537 TIP3 OH2  OT    -0.834000       15.9994           0
    8603 WT1  1537 TIP3 H1   HT     0.417000        1.0080           0
    8604 WT1  1537 TIP3 H2   HT     0.417000        1.0080           0
    8605 WT1  1538 TIP3 OH2  OT    -0.834000       15.9994           0
    8606 WT1  1538 TIP3 H1   HT     0.417000        1.0080           0
    8607 WT1  1538 TIP3 H2   HT     0.417000        1.0080           0
    8608 WT1  1539 TIP3 OH2  OT    -0.834000       15.9994           0
    8609 WT1  1539 TIP3 H1   HT     0.417000        1.0080           0
    8610 WT1  1539 TIP3 H2   HT     0.417000        1.0080           0
    8611 WT1  1540 TIP3 OH2  OT    -0.834000       15.9994           0
    8612 WT1  1540 TIP3 H1   HT     0.417000        1.0080           0
    8613 WT1  1540 TIP3 H2   HT     0.417000        1.0080           0
    8614 WT1  1541 TIP3 OH2  OT    -0.834000       15.9994           0
    8615 WT1  1541 TIP3 H1   HT     0.417000        1.0080           0
    8616 WT1  1541 TIP3 H2   HT     0.417000        1.0080           0
    8617 WT1  1542 TIP3 OH2  OT    -0.834000       15.9994           0
    8618 WT1  1542 TIP3 H1   HT     0.417000        1.0080           0
    8619 WT1  1542 TIP3 H2   HT     0.417000        1.0080           0
    8620 WT1  1543 TIP3 OH2  OT    -0.834000       15.9994           0
    8621 WT1  1543 TIP3 H1   HT     0.417000        1.0080           0
    8622 WT1  1543 TIP3 H2   HT     0.417000        1.0080           0
    8623 WT1  1544 TIP3 OH2  OT    -0.834000       15.9994           0
    8624 WT1  1544 TIP3 H1   HT     0.417000        1.0080           0
    8625 WT1  1544 TIP3 H2   HT     0.417000        1.0080           0
    8626 WT1  1545 TIP3 OH2  OT    -0.834000       15.9994           0
    8627 WT1  1545 TIP3 H1   HT     0.417000        1.0080           0
    8628 WT1  1545 TIP3 H2   HT     0.417000        1.0080           0
    8629 WT1  1546 TIP3 OH2  OT    -0.834000       15.9994           0
    8630 WT1  1546 TIP3 H1   HT     0.417000        1.0080           0
    8631 WT1  1546 TIP3 H2   HT     0.417000        1.0080           0
    8632 WT1  1548 TIP3 OH2  OT    -0.834000       15.9994           0
    8633 WT1  1548 TIP3 H1   HT     0.417000        1.0080           0
    8634 WT1  1548 TIP3 H2   HT     0.417000        1.0080           0
    8635 WT1  1549 TIP3 OH2  OT    -0.834000       15.9994           0
    8636 WT1  1549 TIP3 H1   HT     0.417000        1.0080           0
    8637 WT1  1549 TIP3 H2   HT     0.417000        1.0080           0
    8638 WT1  1551 TIP3 OH2  OT    -0.834000       15.9994           0
    8639 WT1  1551 TIP3 H1   HT     0.417000        1.0080           0
    8640 WT1  1551 TIP3 H2   HT     0.417000        1.0080           0
    8641 WT1  1552 TIP3 OH2  OT    -0.834000       15.9994           0
    8642 WT1  1552 TIP3 H1   HT     0.417000        1.0080           0
    8643 WT1  1552 TIP3 H2   HT     0.417000        1.0080           0
    8644 WT1  1554 TIP3 OH2  OT    -0.834000       15.9994           0
    8645 WT1  1554 TIP3 H1   HT     0.417000        1.0080           0
    8646 WT1  1554 TIP3 H2   HT     0.417000        1.0080           0
    8647 WT1  1555 TIP3 OH2  OT    -0.834000       15.9994           0
    8648 WT1  1555 TIP3 H1   HT     0.417000        1.0080           0
    8649 WT1  1555 TIP3 H2   HT     0.417000        1.0080           0
    8650 WT1  1557 TIP3 OH2  OT    -0.834000       15.9994           0
    8651 WT1  1557 TIP3 H1   HT     0.417000        1.0080           0
    8652 WT1  1557 TIP3 H2   HT     0.417000        1.0080           0
    8653 WT1  1558 TIP3 OH2  OT    -0.834000       15.9994           0
    8654 WT1  1558 TIP3 H1   HT     0.417000        1.0080           0
    8655 WT1  1558 TIP3 H2   HT     0.417000        1.0080           0
    8656 WT1  1559 TIP3 OH2  OT    -0.834000       15.9994           0
    8657 WT1  1559 TIP3 H1   HT     0.417000        1.0080           0
    8658 WT1  1559 TIP3 H2   HT     0.417000        1.0080           0
    8659 WT1  1560 TIP3 OH2  OT    -0.834000       15.9994           0
    8660 WT1  1560 TIP3 H1   HT     0.417000        1.0080           0
    8661 WT1  1560 TIP3 H2   HT     0.417000        1.0080           0
    8662 WT1  1561 TIP3 OH2  OT    -0.834000       15.9994           0
    8663 WT1  1561 TIP3 H1   HT     0.417000        1.0080           0
    8664 WT1  1561 TIP3 H2   HT     0.417000        1.0080           0
    8665 WT1  1562 TIP3 OH2  OT    -0.834000       15.9994           0
    8666 WT1  1562 TIP3 H1   HT     0.417000        1.0080           0
    8667 WT1  1562 TIP3 H2   HT     0.417000        1.0080           0
    8668 WT1  1563 TIP3 OH2  OT    -0.834000       15.9994           0
    8669 WT1  1563 TIP3 H1   HT     0.417000        1.0080           0
    8670 WT1  1563 TIP3 H2   HT     0.417000        1.0080           0
    8671 WT1  1564 TIP3 OH2  OT    -0.834000       15.9994           0
    8672 WT1  1564 TIP3 H1   HT     0.417000        1.0080           0
    8673 WT1  1564 TIP3 H2   HT     0.417000        1.0080           0
    8674 WT1  1565 TIP3 OH2  OT    -0.834000       15.9994           0
    8675 WT1  1565 TIP3 H1   HT     0.417000        1.0080           0
    8676 WT1  1565 TIP3 H2   HT     0.417000        1.0080           0
    8677 WT1  1566 TIP3 OH2  OT    -0.834000       15.9994           0
    8678 WT1  1566 TIP3 H1   HT     0.417000        1.0080           0
    8679 WT1  1566 TIP3 H2   HT     0.417000        1.0080           0
    8680 WT1  1567 TIP3 OH2  OT    -0.834000       15.9994           0
    8681 WT1  1567 TIP3 H1   HT     0.417000        1.0080           0
    8682 WT1  1567 TIP3 H2   HT     0.417000        1.0080           0
    8683 WT1  1568 TIP3 OH2  OT    -0.834000       15.9994           0
    8684 WT1  1568 TIP3 H1   HT     0.417000        1.0080           0
    8685 WT1  1568 TIP3 H2   HT     0.417000        1.0080           0
    8686 WT1  1569 TIP3 OH2  OT    -0.834000       15.9994           0
    8687 WT1  1569 TIP3 H1   HT     0.417000        1.0080           0
    8688 WT1  1569 TIP3 H2   HT     0.417000        1.0080           0
    8689 WT1  1570 TIP3 OH2  OT    -0.834000       15.9994           0
    8690 WT1  1570 TIP3 H1   HT     0.417000        1.0080           0
    8691 WT1  1570 TIP3 H2   HT     0.417000        1.0080           0
    8692 WT1  1571 TIP3 OH2  OT    -0.834000       15.9994           0
    8693 WT1  1571 TIP3 H1   HT     0.417000        1.0080           0
    8694 WT1  1571 TIP3 H2   HT     0.417000        1.0080           0
    8695 WT1  1572 TIP3 OH2  OT    -0.834000       15.9994           0
    8696 WT1  1572 TIP3 H1   HT     0.417000        1.0080           0
    8697 WT1  1572 TIP3 H2   HT     0.417000        1.0080           0
    8698 WT1  1574 TIP3 OH2  OT    -0.834000       15.9994           0
    8699 WT1  1574 TIP3 H1   HT     0.417000        1.0080           0
    8700 WT1  1574 TIP3 H2   HT     0.417000        1.0080           0
    8701 WT1  1575 TIP3 OH2  OT    -0.834000       15.9994           0
    8702 WT1  1575 TIP3 H1   HT     0.417000        1.0080           0
    8703 WT1  1575 TIP3 H2   HT     0.417000        1.0080           0
    8704 WT1  1576 TIP3 OH2  OT    -0.834000       15.9994           0
    8705 WT1  1576 TIP3 H1   HT     0.417000        1.0080           0
    8706 WT1  1576 TIP3 H2   HT     0.417000        1.0080           0
    8707 WT1  1577 TIP3 OH2  OT    -0.834000       15.9994           0
    8708 WT1  1577 TIP3 H1   HT     0.417000        1.0080           0
    8709 WT1  1577 TIP3 H2   HT     0.417000        1.0080           0
    8710 WT1  1578 TIP3 OH2  OT    -0.834000       15.9994           0
    8711 WT1  1578 TIP3 H1   HT     0.417000        1.0080           0
    8712 WT1  1578 TIP3 H2   HT     0.417000        1.0080           0
    8713 WT1  1579 TIP3 OH2  OT    -0.834000       15.9994           0
    8714 WT1  1579 TIP3 H1   HT     0.417000        1.0080           0
    8715 WT1  1579 TIP3 H2   HT     0.417000        1.0080           0
    8716 WT1  1580 TIP3 OH2  OT    -0.834000       15.9994           0
    8717 WT1  1580 TIP3 H1   HT     0.417000        1.0080           0
    8718 WT1  1580 TIP3 H2   HT     0.417000        1.0080           0
    8719 WT1  1581 TIP3 OH2  OT    -0.834000       15.9994           0
    8720 WT1  1581 TIP3 H1   HT     0.417000        1.0080           0
    8721 WT1  1581 TIP3 H2   HT     0.417000        1.0080           0
    8722 WT1  1582 TIP3 OH2  OT    -0.834000       15.9994           0
    8723 WT1  1582 TIP3 H1   HT     0.417000        1.0080           0
    8724 WT1  1582 TIP3 H2   HT     0.417000        1.0080           0
    8725 WT1  1583 TIP3 OH2  OT    -0.834000       15.9994           0
    8726 WT1  1583 TIP3 H1   HT     0.417000        1.0080           0
    8727 WT1  1583 TIP3 H2   HT     0.417000        1.0080           0
    8728 WT1  1584 TIP3 OH2  OT    -0.834000       15.9994           0
    8729 WT1  1584 TIP3 H1   HT     0.417000        1.0080           0
    8730 WT1  1584 TIP3 H2   HT     0.417000        1.0080           0
    8731 WT1  1585 TIP3 OH2  OT    -0.834000       15.9994           0
    8732 WT1  1585 TIP3 H1   HT     0.417000        1.0080           0
    8733 WT1  1585 TIP3 H2   HT     0.417000        1.0080           0
    8734 WT1  1586 TIP3 OH2  OT    -0.834000       15.9994           0
    8735 WT1  1586 TIP3 H1   HT     0.417000        1.0080           0
    8736 WT1  1586 TIP3 H2   HT     0.417000        1.0080           0
    8737 WT1  1587 TIP3 OH2  OT    -0.834000       15.9994           0
    8738 WT1  1587 TIP3 H1   HT     0.417000        1.0080           0
    8739 WT1  1587 TIP3 H2   HT     0.417000        1.0080           0
    8740 WT1  1588 TIP3 OH2  OT    -0.834000       15.9994           0
    8741 WT1  1588 TIP3 H1   HT     0.417000        1.0080           0
    8742 WT1  1588 TIP3 H2   HT     0.417000        1.0080           0
    8743 WT1  1589 TIP3 OH2  OT    -0.834000       15.9994           0
    8744 WT1  1589 TIP3 H1   HT     0.417000        1.0080           0
    8745 WT1  1589 TIP3 H2   HT     0.417000        1.0080           0
    8746 WT1  1590 TIP3 OH2  OT    -0.834000       15.9994           0
    8747 WT1  1590 TIP3 H1   HT     0.417000        1.0080           0
    8748 WT1  1590 TIP3 H2   HT     0.417000        1.0080           0
    8749 WT1  1591 TIP3 OH2  OT    -0.834000       15.9994           0
    8750 WT1  1591 TIP3 H1   HT     0.417000        1.0080           0
    8751 WT1  1591 TIP3 H2   HT     0.417000        1.0080           0
    8752 WT1  1592 TIP3 OH2  OT    -0.834000       15.9994           0
    8753 WT1  1592 TIP3 H1   HT     0.417000        1.0080           0
    8754 WT1  1592 TIP3 H2   HT     0.417000        1.0080           0
    8755 WT1  1593 TIP3 OH2  OT    -0.834000       15.9994           0
    8756 WT1  1593 TIP3 H1   HT     0.417000        1.0080           0
    8757 WT1  1593 TIP3 H2   HT     0.417000        1.0080           0
    8758 WT1  1595 TIP3 OH2  OT    -0.834000       15.9994           0
    8759 WT1  1595 TIP3 H1   HT     0.417000        1.0080           0
    8760 WT1  1595 TIP3 H2   HT     0.417000        1.0080           0
    8761 WT1  1597 TIP3 OH2  OT    -0.834000       15.9994           0
    8762 WT1  1597 TIP3 H1   HT     0.417000        1.0080           0
    8763 WT1  1597 TIP3 H2   HT     0.417000        1.0080           0
    8764 WT1  1598 TIP3 OH2  OT    -0.834000       15.9994           0
    8765 WT1  1598 TIP3 H1   HT     0.417000        1.0080           0
    8766 WT1  1598 TIP3 H2   HT     0.417000        1.0080           0
    8767 WT1  1599 TIP3 OH2  OT    -0.834000       15.9994           0
    8768 WT1  1599 TIP3 H1   HT     0.417000        1.0080           0
    8769 WT1  1599 TIP3 H2   HT     0.417000        1.0080           0
    8770 WT1  1600 TIP3 OH2  OT    -0.834000       15.9994           0
    8771 WT1  1600 TIP3 H1   HT     0.417000        1.0080           0
    8772 WT1  1600 TIP3 H2   HT     0.417000        1.0080           0
    8773 WT1  1601 TIP3 OH2  OT    -0.834000       15.9994           0
    8774 WT1  1601 TIP3 H1   HT     0.417000        1.0080           0
    8775 WT1  1601 TIP3 H2   HT     0.417000        1.0080           0
    8776 WT1  1602 TIP3 OH2  OT    -0.834000       15.9994           0
    8777 WT1  1602 TIP3 H1   HT     0.417000        1.0080           0
    8778 WT1  1602 TIP3 H2   HT     0.417000        1.0080           0
    8779 WT1  1603 TIP3 OH2  OT    -0.834000       15.9994           0
    8780 WT1  1603 TIP3 H1   HT     0.417000        1.0080           0
    8781 WT1  1603 TIP3 H2   HT     0.417000        1.0080           0
    8782 WT1  1604 TIP3 OH2  OT    -0.834000       15.9994           0
    8783 WT1  1604 TIP3 H1   HT     0.417000        1.0080           0
    8784 WT1  1604 TIP3 H2   HT     0.417000        1.0080           0
    8785 WT1  1605 TIP3 OH2  OT    -0.834000       15.9994           0
    8786 WT1  1605 TIP3 H1   HT     0.417000        1.0080           0
    8787 WT1  1605 TIP3 H2   HT     0.417000        1.0080           0
    8788 WT1  1606 TIP3 OH2  OT    -0.834000       15.9994           0
    8789 WT1  1606 TIP3 H1   HT     0.417000        1.0080           0
    8790 WT1  1606 TIP3 H2   HT     0.417000        1.0080           0
    8791 WT1  1607 TIP3 OH2  OT    -0.834000       15.9994           0
    8792 WT1  1607 TIP3 H1   HT     0.417000        1.0080           0
    8793 WT1  1607 TIP3 H2   HT     0.417000        1.0080           0
    8794 WT1  1608 TIP3 OH2  OT    -0.834000       15.9994           0
    8795 WT1  1608 TIP3 H1   HT     0.417000        1.0080           0
    8796 WT1  1608 TIP3 H2   HT     0.417000        1.0080           0
    8797 WT1  1609 TIP3 OH2  OT    -0.834000       15.9994           0
    8798 WT1  1609 TIP3 H1   HT     0.417000        1.0080           0
    8799 WT1  1609 TIP3 H2   HT     0.417000        1.0080           0
    8800 WT1  1610 TIP3 OH2  OT    -0.834000       15.9994           0
    8801 WT1  1610 TIP3 H1   HT     0.417000        1.0080           0
    8802 WT1  1610 TIP3 H2   HT     0.417000        1.0080           0
    8803 WT1  1611 TIP3 OH2  OT    -0.834000       15.9994           0
    8804 WT1  1611 TIP3 H1   HT     0.417000        1.0080           0
    8805 WT1  1611 TIP3 H2   HT     0.417000        1.0080           0
    8806 WT1  1612 TIP3 OH2  OT    -0.834000       15.9994           0
    8807 WT1  1612 TIP3 H1   HT     0.417000        1.0080           0
    8808 WT1  1612 TIP3 H2   HT     0.417000        1.0080           0
    8809 WT1  1615 TIP3 OH2  OT    -0.834000       15.9994           0
    8810 WT1  1615 TIP3 H1   HT     0.417000        1.0080           0
    8811 WT1  1615 TIP3 H2   HT     0.417000        1.0080           0
    8812 WT1  1616 TIP3 OH2  OT    -0.834000       15.9994           0
    8813 WT1  1616 TIP3 H1   HT     0.417000        1.0080           0
    8814 WT1  1616 TIP3 H2   HT     0.417000        1.0080           0
    8815 WT1  1617 TIP3 OH2  OT    -0.834000       15.9994           0
    8816 WT1  1617 TIP3 H1   HT     0.417000        1.0080           0
    8817 WT1  1617 TIP3 H2   HT     0.417000        1.0080           0
    8818 WT1  1618 TIP3 OH2  OT    -0.834000       15.9994           0
    8819 WT1  1618 TIP3 H1   HT     0.417000        1.0080           0
    8820 WT1  1618 TIP3 H2   HT     0.417000        1.0080           0
    8821 WT1  1620 TIP3 OH2  OT    -0.834000       15.9994           0
    8822 WT1  1620 TIP3 H1   HT     0.417000        1.0080           0
    8823 WT1  1620 TIP3 H2   HT     0.417000        1.0080           0
    8824 WT1  1621 TIP3 OH2  OT    -0.834000       15.9994           0
    8825 WT1  1621 TIP3 H1   HT     0.417000        1.0080           0
    8826 WT1  1621 TIP3 H2   HT     0.417000        1.0080           0
    8827 WT1  1622 TIP3 OH2  OT    -0.834000       15.9994           0
    8828 WT1  1622 TIP3 H1   HT     0.417000        1.0080           0
    8829 WT1  1622 TIP3 H2   HT     0.417000        1.0080           0
    8830 WT1  1623 TIP3 OH2  OT    -0.834000       15.9994           0
    8831 WT1  1623 TIP3 H1   HT     0.417000        1.0080           0
    8832 WT1  1623 TIP3 H2   HT     0.417000        1.0080           0
    8833 WT1  1624 TIP3 OH2  OT    -0.834000       15.9994           0
    8834 WT1  1624 TIP3 H1   HT     0.417000        1.0080           0
    8835 WT1  1624 TIP3 H2   HT     0.417000        1.0080           0
    8836 WT1  1625 TIP3 OH2  OT    -0.834000       15.9994           0
    8837 WT1  1625 TIP3 H1   HT     0.417000        1.0080           0
    8838 WT1  1625 TIP3 H2   HT     0.417000        1.0080           0
    8839 WT1  1626 TIP3 OH2  OT    -0.834000       15.9994           0
    8840 WT1  1626 TIP3 H1   HT     0.417000        1.0080           0
    8841 WT1  1626 TIP3 H2   HT     0.417000        1.0080           0
    8842 WT1  1627 TIP3 OH2  OT    -0.834000       15.9994           0
    8843 WT1  1627 TIP3 H1   HT     0.417000        1.0080           0
    8844 WT1  1627 TIP3 H2   HT     0.417000        1.0080           0
    8845 WT1  1628 TIP3 OH2  OT    -0.834000       15.9994           0
    8846 WT1  1628 TIP3 H1   HT     0.417000        1.0080           0
    8847 WT1  1628 TIP3 H2   HT     0.417000        1.0080           0
    8848 WT1  1629 TIP3 OH2  OT    -0.834000       15.9994           0
    8849 WT1  1629 TIP3 H1   HT     0.417000        1.0080           0
    8850 WT1  1629 TIP3 H2   HT     0.417000        1.0080           0
    8851 WT1  1630 TIP3 OH2  OT    -0.834000       15.9994           0
    8852 WT1  1630 TIP3 H1   HT     0.417000        1.0080           0
    8853 WT1  1630 TIP3 H2   HT     0.417000        1.0080           0
    8854 WT1  1632 TIP3 OH2  OT    -0.834000       15.9994           0
    8855 WT1  1632 TIP3 H1   HT     0.417000        1.0080           0
    8856 WT1  1632 TIP3 H2   HT     0.417000        1.0080           0
    8857 WT1  1634 TIP3 OH2  OT    -0.834000       15.9994           0
    8858 WT1  1634 TIP3 H1   HT     0.417000        1.0080           0
    8859 WT1  1634 TIP3 H2   HT     0.417000        1.0080           0
    8860 WT1  1635 TIP3 OH2  OT    -0.834000       15.9994           0
    8861 WT1  1635 TIP3 H1   HT     0.417000        1.0080           0
    8862 WT1  1635 TIP3 H2   HT     0.417000        1.0080           0
    8863 WT1  1636 TIP3 OH2  OT    -0.834000       15.9994           0
    8864 WT1  1636 TIP3 H1   HT     0.417000        1.0080           0
    8865 WT1  1636 TIP3 H2   HT     0.417000        1.0080           0
    8866 WT1  1638 TIP3 OH2  OT    -0.834000       15.9994           0
    8867 WT1  1638 TIP3 H1   HT     0.417000        1.0080           0
    8868 WT1  1638 TIP3 H2   HT     0.417000        1.0080           0
    8869 WT1  1639 TIP3 OH2  OT    -0.834000       15.9994           0
    8870 WT1  1639 TIP3 H1   HT     0.417000        1.0080           0
    8871 WT1  1639 TIP3 H2   HT     0.417000        1.0080           0
    8872 WT1  1640 TIP3 OH2  OT    -0.834000       15.9994           0
    8873 WT1  1640 TIP3 H1   HT     0.417000        1.0080           0
    8874 WT1  1640 TIP3 H2   HT     0.417000        1.0080           0
    8875 WT1  1641 TIP3 OH2  OT    -0.834000       15.9994           0
    8876 WT1  1641 TIP3 H1   HT     0.417000        1.0080           0
    8877 WT1  1641 TIP3 H2   HT     0.417000        1.0080           0
    8878 WT1  1642 TIP3 OH2  OT    -0.834000       15.9994           0
    8879 WT1  1642 TIP3 H1   HT     0.417000        1.0080           0
    8880 WT1  1642 TIP3 H2   HT     0.417000        1.0080           0
    8881 WT1  1643 TIP3 OH2  OT    -0.834000       15.9994           0
    8882 WT1  1643 TIP3 H1   HT     0.417000        1.0080           0
    8883 WT1  1643 TIP3 H2   HT     0.417000        1.0080           0
    8884 WT1  1644 TIP3 OH2  OT    -0.834000       15.9994           0
    8885 WT1  1644 TIP3 H1   HT     0.417000        1.0080           0
    8886 WT1  1644 TIP3 H2   HT     0.417000        1.0080           0
    8887 WT1  1645 TIP3 OH2  OT    -0.834000       15.9994           0
    8888 WT1  1645 TIP3 H1   HT     0.417000        1.0080           0
    8889 WT1  1645 TIP3 H2   HT     0.417000        1.0080           0
    8890 WT1  1646 TIP3 OH2  OT    -0.834000       15.9994           0
    8891 WT1  1646 TIP3 H1   HT     0.417000        1.0080           0
    8892 WT1  1646 TIP3 H2   HT     0.417000        1.0080           0
    8893 WT1  1647 TIP3 OH2  OT    -0.834000       15.9994           0
    8894 WT1  1647 TIP3 H1   HT     0.417000        1.0080           0
    8895 WT1  1647 TIP3 H2   HT     0.417000        1.0080           0
    8896 WT1  1648 TIP3 OH2  OT    -0.834000       15.9994           0
    8897 WT1  1648 TIP3 H1   HT     0.417000        1.0080           0
    8898 WT1  1648 TIP3 H2   HT     0.417000        1.0080           0
    8899 WT1  1649 TIP3 OH2  OT    -0.834000       15.9994           0
    8900 WT1  1649 TIP3 H1   HT     0.417000        1.0080           0
    8901 WT1  1649 TIP3 H2   HT     0.417000        1.0080           0
    8902 WT1  1651 TIP3 OH2  OT    -0.834000       15.9994           0
    8903 WT1  1651 TIP3 H1   HT     0.417000        1.0080           0
    8904 WT1  1651 TIP3 H2   HT     0.417000        1.0080           0
    8905 WT1  1653 TIP3 OH2  OT    -0.834000       15.9994           0
    8906 WT1  1653 TIP3 H1   HT     0.417000        1.0080           0
    8907 WT1  1653 TIP3 H2   HT     0.417000        1.0080           0
    8908 WT1  1654 TIP3 OH2  OT    -0.834000       15.9994           0
    8909 WT1  1654 TIP3 H1   HT     0.417000        1.0080           0
    8910 WT1  1654 TIP3 H2   HT     0.417000        1.0080           0
    8911 WT1  1655 TIP3 OH2  OT    -0.834000       15.9994           0
    8912 WT1  1655 TIP3 H1   HT     0.417000        1.0080           0
    8913 WT1  1655 TIP3 H2   HT     0.417000        1.0080           0
    8914 WT1  1656 TIP3 OH2  OT    -0.834000       15.9994           0
    8915 WT1  1656 TIP3 H1   HT     0.417000        1.0080           0
    8916 WT1  1656 TIP3 H2   HT     0.417000        1.0080           0
    8917 WT1  1658 TIP3 OH2  OT    -0.834000       15.9994           0
    8918 WT1  1658 TIP3 H1   HT     0.417000        1.0080           0
    8919 WT1  1658 TIP3 H2   HT     0.417000        1.0080           0
    8920 WT1  1659 TIP3 OH2  OT    -0.834000       15.9994           0
    8921 WT1  1659 TIP3 H1   HT     0.417000        1.0080           0
    8922 WT1  1659 TIP3 H2   HT     0.417000        1.0080           0
    8923 WT1  1661 TIP3 OH2  OT    -0.834000       15.9994           0
    8924 WT1  1661 TIP3 H1   HT     0.417000        1.0080           0
    8925 WT1  1661 TIP3 H2   HT     0.417000        1.0080           0
    8926 WT1  1663 TIP3 OH2  OT    -0.834000       15.9994           0
    8927 WT1  1663 TIP3 H1   HT     0.417000        1.0080           0
    8928 WT1  1663 TIP3 H2   HT     0.417000        1.0080           0
    8929 WT1  1664 TIP3 OH2  OT    -0.834000       15.9994           0
    8930 WT1  1664 TIP3 H1   HT     0.417000        1.0080           0
    8931 WT1  1664 TIP3 H2   HT     0.417000        1.0080           0
    8932 WT1  1665 TIP3 OH2  OT    -0.834000       15.9994           0
    8933 WT1  1665 TIP3 H1   HT     0.417000        1.0080           0
    8934 WT1  1665 TIP3 H2   HT     0.417000        1.0080           0
    8935 WT1  1666 TIP3 OH2  OT    -0.834000       15.9994           0
    8936 WT1  1666 TIP3 H1   HT     0.417000        1.0080           0
    8937 WT1  1666 TIP3 H2   HT     0.417000        1.0080           0
    8938 WT1  1667 TIP3 OH2  OT    -0.834000       15.9994           0
    8939 WT1  1667 TIP3 H1   HT     0.417000        1.0080           0
    8940 WT1  1667 TIP3 H2   HT     0.417000        1.0080           0
    8941 WT1  1668 TIP3 OH2  OT    -0.834000       15.9994           0
    8942 WT1  1668 TIP3 H1   HT     0.417000        1.0080           0
    8943 WT1  1668 TIP3 H2   HT     0.417000        1.0080           0
    8944 WT1  1669 TIP3 OH2  OT    -0.834000       15.9994           0
    8945 WT1  1669 TIP3 H1   HT     0.417000        1.0080           0
    8946 WT1  1669 TIP3 H2   HT     0.417000        1.0080           0
    8947 WT1  1670 TIP3 OH2  OT    -0.834000       15.9994           0
    8948 WT1  1670 TIP3 H1   HT     0.417000        1.0080           0
    8949 WT1  1670 TIP3 H2   HT     0.417000        1.0080           0
    8950 WT1  1671 TIP3 OH2  OT    -0.834000       15.9994           0
    8951 WT1  1671 TIP3 H1   HT     0.417000        1.0080           0
    8952 WT1  1671 TIP3 H2   HT     0.417000        1.0080           0
    8953 WT1  1672 TIP3 OH2  OT    -0.834000       15.9994           0
    8954 WT1  1672 TIP3 H1   HT     0.417000        1.0080           0
    8955 WT1  1672 TIP3 H2   HT     0.417000        1.0080           0
    8956 WT1  1674 TIP3 OH2  OT    -0.834000       15.9994           0
    8957 WT1  1674 TIP3 H1   HT     0.417000        1.0080           0
    8958 WT1  1674 TIP3 H2   HT     0.417000        1.0080           0
    8959 WT1  1675 TIP3 OH2  OT    -0.834000       15.9994           0
    8960 WT1  1675 TIP3 H1   HT     0.417000        1.0080           0
    8961 WT1  1675 TIP3 H2   HT     0.417000        1.0080           0
    8962 WT1  1678 TIP3 OH2  OT    -0.834000       15.9994           0
    8963 WT1  1678 TIP3 H1   HT     0.417000        1.0080           0
    8964 WT1  1678 TIP3 H2   HT     0.417000        1.0080           0
    8965 WT1  1680 TIP3 OH2  OT    -0.834000       15.9994           0
    8966 WT1  1680 TIP3 H1   HT     0.417000        1.0080           0
    8967 WT1  1680 TIP3 H2   HT     0.417000        1.0080           0
    8968 WT1  1681 TIP3 OH2  OT    -0.834000       15.9994           0
    8969 WT1  1681 TIP3 H1   HT     0.417000        1.0080           0
    8970 WT1  1681 TIP3 H2   HT     0.417000        1.0080           0
    8971 WT1  1682 TIP3 OH2  OT    -0.834000       15.9994           0
    8972 WT1  1682 TIP3 H1   HT     0.417000        1.0080           0
    8973 WT1  1682 TIP3 H2   HT     0.417000        1.0080           0
    8974 WT1  1683 TIP3 OH2  OT    -0.834000       15.9994           0
    8975 WT1  1683 TIP3 H1   HT     0.417000        1.0080           0
    8976 WT1  1683 TIP3 H2   HT     0.417000        1.0080           0
    8977 WT1  1684 TIP3 OH2  OT    -0.834000       15.9994           0
    8978 WT1  1684 TIP3 H1   HT     0.417000        1.0080           0
    8979 WT1  1684 TIP3 H2   HT     0.417000        1.0080           0
    8980 WT1  1685 TIP3 OH2  OT    -0.834000       15.9994           0
    8981 WT1  1685 TIP3 H1   HT     0.417000        1.0080           0
    8982 WT1  1685 TIP3 H2   HT     0.417000        1.0080           0
    8983 WT1  1686 TIP3 OH2  OT    -0.834000       15.9994           0
    8984 WT1  1686 TIP3 H1   HT     0.417000        1.0080           0
    8985 WT1  1686 TIP3 H2   HT     0.417000        1.0080           0
    8986 WT1  1687 TIP3 OH2  OT    -0.834000       15.9994           0
    8987 WT1  1687 TIP3 H1   HT     0.417000        1.0080           0
    8988 WT1  1687 TIP3 H2   HT     0.417000        1.0080           0
    8989 WT1  1688 TIP3 OH2  OT    -0.834000       15.9994           0
    8990 WT1  1688 TIP3 H1   HT     0.417000        1.0080           0
    8991 WT1  1688 TIP3 H2   HT     0.417000        1.0080           0
    8992 WT1  1689 TIP3 OH2  OT    -0.834000       15.9994           0
    8993 WT1  1689 TIP3 H1   HT     0.417000        1.0080           0
    8994 WT1  1689 TIP3 H2   HT     0.417000        1.0080           0
    8995 WT1  1690 TIP3 OH2  OT    -0.834000       15.9994           0
    8996 WT1  1690 TIP3 H1   HT     0.417000        1.0080           0
    8997 WT1  1690 TIP3 H2   HT     0.417000        1.0080           0
    8998 WT1  1691 TIP3 OH2  OT    -0.834000       15.9994           0
    8999 WT1  1691 TIP3 H1   HT     0.417000        1.0080           0
    9000 WT1  1691 TIP3 H2   HT     0.417000        1.0080           0
    9001 WT1  1692 TIP3 OH2  OT    -0.834000       15.9994           0
    9002 WT1  1692 TIP3 H1   HT     0.417000        1.0080           0
    9003 WT1  1692 TIP3 H2   HT     0.417000        1.0080           0
    9004 WT1  1693 TIP3 OH2  OT    -0.834000       15.9994           0
    9005 WT1  1693 TIP3 H1   HT     0.417000        1.0080           0
    9006 WT1  1693 TIP3 H2   HT     0.417000        1.0080           0
    9007 WT1  1695 TIP3 OH2  OT    -0.834000       15.9994           0
    9008 WT1  1695 TIP3 H1   HT     0.417000        1.0080           0
    9009 WT1  1695 TIP3 H2   HT     0.417000        1.0080           0
    9010 WT1  1696 TIP3 OH2  OT    -0.834000       15.9994           0
    9011 WT1  1696 TIP3 H1   HT     0.417000        1.0080           0
    9012 WT1  1696 TIP3 H2   HT     0.417000        1.0080           0
    9013 WT1  1698 TIP3 OH2  OT    -0.834000       15.9994           0
    9014 WT1  1698 TIP3 H1   HT     0.417000        1.0080           0
    9015 WT1  1698 TIP3 H2   HT     0.417000        1.0080           0
    9016 WT1  1699 TIP3 OH2  OT    -0.834000       15.9994           0
    9017 WT1  1699 TIP3 H1   HT     0.417000        1.0080           0
    9018 WT1  1699 TIP3 H2   HT     0.417000        1.0080           0
    9019 WT1  1700 TIP3 OH2  OT    -0.834000       15.9994           0
    9020 WT1  1700 TIP3 H1   HT     0.417000        1.0080           0
    9021 WT1  1700 TIP3 H2   HT     0.417000        1.0080           0
    9022 WT1  1701 TIP3 OH2  OT    -0.834000       15.9994           0
    9023 WT1  1701 TIP3 H1   HT     0.417000        1.0080           0
    9024 WT1  1701 TIP3 H2   HT     0.417000        1.0080           0
    9025 WT1  1702 TIP3 OH2  OT    -0.834000       15.9994           0
    9026 WT1  1702 TIP3 H1   HT     0.417000        1.0080           0
    9027 WT1  1702 TIP3 H2   HT     0.417000        1.0080           0
    9028 WT1  1703 TIP3 OH2  OT    -0.834000       15.9994           0
    9029 WT1  1703 TIP3 H1   HT     0.417000        1.0080           0
    9030 WT1  1703 TIP3 H2   HT     0.417000        1.0080           0
    9031 WT1  1704 TIP3 OH2  OT    -0.834000       15.9994           0
    9032 WT1  1704 TIP3 H1   HT     0.417000        1.0080           0
    9033 WT1  1704 TIP3 H2   HT     0.417000        1.0080           0
    9034 WT1  1705 TIP3 OH2  OT    -0.834000       15.9994           0
    9035 WT1  1705 TIP3 H1   HT     0.417000        1.0080           0
    9036 WT1  1705 TIP3 H2   HT     0.417000        1.0080           0
    9037 WT1  1706 TIP3 OH2  OT    -0.834000       15.9994           0
    9038 WT1  1706 TIP3 H1   HT     0.417000        1.0080           0
    9039 WT1  1706 TIP3 H2   HT     0.417000        1.0080           0
    9040 WT1  1707 TIP3 OH2  OT    -0.834000       15.9994           0
    9041 WT1  1707 TIP3 H1   HT     0.417000        1.0080           0
    9042 WT1  1707 TIP3 H2   HT     0.417000        1.0080           0
    9043 WT1  1708 TIP3 OH2  OT    -0.834000       15.9994           0
    9044 WT1  1708 TIP3 H1   HT     0.417000        1.0080           0
    9045 WT1  1708 TIP3 H2   HT     0.417000        1.0080           0
    9046 WT1  1709 TIP3 OH2  OT    -0.834000       15.9994           0
    9047 WT1  1709 TIP3 H1   HT     0.417000        1.0080           0
    9048 WT1  1709 TIP3 H2   HT     0.417000        1.0080           0
    9049 WT1  1710 TIP3 OH2  OT    -0.834000       15.9994           0
    9050 WT1  1710 TIP3 H1   HT     0.417000        1.0080           0
    9051 WT1  1710 TIP3 H2   HT     0.417000        1.0080           0
    9052 WT1  1711 TIP3 OH2  OT    -0.834000       15.9994           0
    9053 WT1  1711 TIP3 H1   HT     0.417000        1.0080           0
    9054 WT1  1711 TIP3 H2   HT     0.417000        1.0080           0
    9055 WT1  1713 TIP3 OH2  OT    -0.834000       15.9994           0
    9056 WT1  1713 TIP3 H1   HT     0.417000        1.0080           0
    9057 WT1  1713 TIP3 H2   HT     0.417000        1.0080           0
    9058 WT1  1714 TIP3 OH2  OT    -0.834000       15.9994           0
    9059 WT1  1714 TIP3 H1   HT     0.417000        1.0080           0
    9060 WT1  1714 TIP3 H2   HT     0.417000        1.0080           0
    9061 WT1  1715 TIP3 OH2  OT    -0.834000       15.9994           0
    9062 WT1  1715 TIP3 H1   HT     0.417000        1.0080           0
    9063 WT1  1715 TIP3 H2   HT     0.417000        1.0080           0
    9064 WT1  1716 TIP3 OH2  OT    -0.834000       15.9994           0
    9065 WT1  1716 TIP3 H1   HT     0.417000        1.0080           0
    9066 WT1  1716 TIP3 H2   HT     0.417000        1.0080           0
    9067 WT1  1718 TIP3 OH2  OT    -0.834000       15.9994           0
    9068 WT1  1718 TIP3 H1   HT     0.417000        1.0080           0
    9069 WT1  1718 TIP3 H2   HT     0.417000        1.0080           0
    9070 WT1  1719 TIP3 OH2  OT    -0.834000       15.9994           0
    9071 WT1  1719 TIP3 H1   HT     0.417000        1.0080           0
    9072 WT1  1719 TIP3 H2   HT     0.417000        1.0080           0
    9073 WT1  1722 TIP3 OH2  OT    -0.834000       15.9994           0
    9074 WT1  1722 TIP3 H1   HT     0.417000        1.0080           0
    9075 WT1  1722 TIP3 H2   HT     0.417000        1.0080           0
    9076 WT1  1723 TIP3 OH2  OT    -0.834000       15.9994           0
    9077 WT1  1723 TIP3 H1   HT     0.417000        1.0080           0
    9078 WT1  1723 TIP3 H2   HT     0.417000        1.0080           0
    9079 WT1  1724 TIP3 OH2  OT    -0.834000       15.9994           0
    9080 WT1  1724 TIP3 H1   HT     0.417000        1.0080           0
    9081 WT1  1724 TIP3 H2   HT     0.417000        1.0080           0
    9082 WT1  1725 TIP3 OH2  OT    -0.834000       15.9994           0
    9083 WT1  1725 TIP3 H1   HT     0.417000        1.0080           0
    9084 WT1  1725 TIP3 H2   HT     0.417000        1.0080           0
    9085 WT1  1726 TIP3 OH2  OT    -0.834000       15.9994           0
    9086 WT1  1726 TIP3 H1   HT     0.417000        1.0080           0
    9087 WT1  1726 TIP3 H2   HT     0.417000        1.0080           0
    9088 WT1  1727 TIP3 OH2  OT    -0.834000       15.9994           0
    9089 WT1  1727 TIP3 H1   HT     0.417000        1.0080           0
    9090 WT1  1727 TIP3 H2   HT     0.417000        1.0080           0
    9091 WT1  1728 TIP3 OH2  OT    -0.834000       15.9994           0
    9092 WT1  1728 TIP3 H1   HT     0.417000        1.0080           0
    9093 WT1  1728 TIP3 H2   HT     0.417000        1.0080           0
    9094 WT1  1729 TIP3 OH2  OT    -0.834000       15.9994           0
    9095 WT1  1729 TIP3 H1   HT     0.417000        1.0080           0
    9096 WT1  1729 TIP3 H2   HT     0.417000        1.0080           0
    9097 WT1  1730 TIP3 OH2  OT    -0.834000       15.9994           0
    9098 WT1  1730 TIP3 H1   HT     0.417000        1.0080           0
    9099 WT1  1730 TIP3 H2   HT     0.417000        1.0080           0
    9100 WT1  1731 TIP3 OH2  OT    -0.834000       15.9994           0
    9101 WT1  1731 TIP3 H1   HT     0.417000        1.0080           0
    9102 WT1  1731 TIP3 H2   HT     0.417000        1.0080           0
    9103 WT1  1732 TIP3 OH2  OT    -0.834000       15.9994           0
    9104 WT1  1732 TIP3 H1   HT     0.417000        1.0080           0
    9105 WT1  1732 TIP3 H2   HT     0.417000        1.0080           0
    9106 WT1  1733 TIP3 OH2  OT    -0.834000       15.9994           0
    9107 WT1  1733 TIP3 H1   HT     0.417000        1.0080           0
    9108 WT1  1733 TIP3 H2   HT     0.417000        1.0080           0
    9109 WT1  1734 TIP3 OH2  OT    -0.834000       15.9994           0
    9110 WT1  1734 TIP3 H1   HT     0.417000        1.0080           0
    9111 WT1  1734 TIP3 H2   HT     0.417000        1.0080           0
    9112 WT1  1735 TIP3 OH2  OT    -0.834000       15.9994           0
    9113 WT1  1735 TIP3 H1   HT     0.417000        1.0080           0
    9114 WT1  1735 TIP3 H2   HT     0.417000        1.0080           0
    9115 WT1  1736 TIP3 OH2  OT    -0.834000       15.9994           0
    9116 WT1  1736 TIP3 H1   HT     0.417000        1.0080           0
    9117 WT1  1736 TIP3 H2   HT     0.417000        1.0080           0
    9118 WT1  1737 TIP3 OH2  OT    -0.834000       15.9994           0
    9119 WT1  1737 TIP3 H1   HT     0.417000        1.0080           0
    9120 WT1  1737 TIP3 H2   HT     0.417000        1.0080           0
    9121 WT1  1738 TIP3 OH2  OT    -0.834000       15.9994           0
    9122 WT1  1738 TIP3 H1   HT     0.417000        1.0080           0
    9123 WT1  1738 TIP3 H2   HT     0.417000        1.0080           0
    9124 WT1  1739 TIP3 OH2  OT    -0.834000       15.9994           0
    9125 WT1  1739 TIP3 H1   HT     0.417000        1.0080           0
    9126 WT1  1739 TIP3 H2   HT     0.417000        1.0080           0
    9127 WT1  1743 TIP3 OH2  OT    -0.834000       15.9994           0
    9128 WT1  1743 TIP3 H1   HT     0.417000        1.0080           0
    9129 WT1  1743 TIP3 H2   HT     0.417000        1.0080           0
    9130 WT1  1745 TIP3 OH2  OT    -0.834000       15.9994           0
    9131 WT1  1745 TIP3 H1   HT     0.417000        1.0080           0
    9132 WT1  1745 TIP3 H2   HT     0.417000        1.0080           0
    9133 WT1  1746 TIP3 OH2  OT    -0.834000       15.9994           0
    9134 WT1  1746 TIP3 H1   HT     0.417000        1.0080           0
    9135 WT1  1746 TIP3 H2   HT     0.417000        1.0080           0
    9136 WT1  1747 TIP3 OH2  OT    -0.834000       15.9994           0
    9137 WT1  1747 TIP3 H1   HT     0.417000        1.0080           0
    9138 WT1  1747 TIP3 H2   HT     0.417000        1.0080           0
    9139 WT1  1748 TIP3 OH2  OT    -0.834000       15.9994           0
    9140 WT1  1748 TIP3 H1   HT     0.417000        1.0080           0
    9141 WT1  1748 TIP3 H2   HT     0.417000        1.0080           0
    9142 WT1  1749 TIP3 OH2  OT    -0.834000       15.9994           0
    9143 WT1  1749 TIP3 H1   HT     0.417000        1.0080           0
    9144 WT1  1749 TIP3 H2   HT     0.417000        1.0080           0
    9145 WT1  1750 TIP3 OH2  OT    -0.834000       15.9994           0
    9146 WT1  1750 TIP3 H1   HT     0.417000        1.0080           0
    9147 WT1  1750 TIP3 H2   HT     0.417000        1.0080           0
    9148 WT1  1751 TIP3 OH2  OT    -0.834000       15.9994           0
    9149 WT1  1751 TIP3 H1   HT     0.417000        1.0080           0
    9150 WT1  1751 TIP3 H2   HT     0.417000        1.0080           0
    9151 WT1  1752 TIP3 OH2  OT    -0.834000       15.9994           0
    9152 WT1  1752 TIP3 H1   HT     0.417000        1.0080           0
    9153 WT1  1752 TIP3 H2   HT     0.417000        1.0080           0
    9154 WT1  1753 TIP3 OH2  OT    -0.834000       15.9994           0
    9155 WT1  1753 TIP3 H1   HT     0.417000        1.0080           0
    9156 WT1  1753 TIP3 H2   HT     0.417000        1.0080           0
    9157 WT1  1754 TIP3 OH2  OT    -0.834000       15.9994           0
    9158 WT1  1754 TIP3 H1   HT     0.417000        1.0080           0
    9159 WT1  1754 TIP3 H2   HT     0.417000        1.0080           0
    9160 WT1  1755 TIP3 OH2  OT    -0.834000       15.9994           0
    9161 WT1  1755 TIP3 H1   HT     0.417000        1.0080           0
    9162 WT1  1755 TIP3 H2   HT     0.417000        1.0080           0
    9163 WT1  1756 TIP3 OH2  OT    -0.834000       15.9994           0
    9164 WT1  1756 TIP3 H1   HT     0.417000        1.0080           0
    9165 WT1  1756 TIP3 H2   HT     0.417000        1.0080           0
    9166 WT1  1757 TIP3 OH2  OT    -0.834000       15.9994           0
    9167 WT1  1757 TIP3 H1   HT     0.417000        1.0080           0
    9168 WT1  1757 TIP3 H2   HT     0.417000        1.0080           0
    9169 WT1  1758 TIP3 OH2  OT    -0.834000       15.9994           0
    9170 WT1  1758 TIP3 H1   HT     0.417000        1.0080           0
    9171 WT1  1758 TIP3 H2   HT     0.417000        1.0080           0
    9172 WT1  1759 TIP3 OH2  OT    -0.834000       15.9994           0
    9173 WT1  1759 TIP3 H1   HT     0.417000        1.0080           0
    9174 WT1  1759 TIP3 H2   HT     0.417000        1.0080           0
    9175 WT1  1760 TIP3 OH2  OT    -0.834000       15.9994           0
    9176 WT1  1760 TIP3 H1   HT     0.417000        1.0080           0
    9177 WT1  1760 TIP3 H2   HT     0.417000        1.0080           0
    9178 WT1  1762 TIP3 OH2  OT    -0.834000       15.9994           0
    9179 WT1  1762 TIP3 H1   HT     0.417000        1.0080           0
    9180 WT1  1762 TIP3 H2   HT     0.417000        1.0080           0
    9181 WT1  1763 TIP3 OH2  OT    -0.834000       15.9994           0
    9182 WT1  1763 TIP3 H1   HT     0.417000        1.0080           0
    9183 WT1  1763 TIP3 H2   HT     0.417000        1.0080           0
    9184 WT1  1764 TIP3 OH2  OT    -0.834000       15.9994           0
    9185 WT1  1764 TIP3 H1   HT     0.417000        1.0080           0
    9186 WT1  1764 TIP3 H2   HT     0.417000        1.0080           0
    9187 WT1  1765 TIP3 OH2  OT    -0.834000       15.9994           0
    9188 WT1  1765 TIP3 H1   HT     0.417000        1.0080           0
    9189 WT1  1765 TIP3 H2   HT     0.417000        1.0080           0
    9190 WT1  1766 TIP3 OH2  OT    -0.834000       15.9994           0
    9191 WT1  1766 TIP3 H1   HT     0.417000        1.0080           0
    9192 WT1  1766 TIP3 H2   HT     0.417000        1.0080           0
    9193 WT1  1767 TIP3 OH2  OT    -0.834000       15.9994           0
    9194 WT1  1767 TIP3 H1   HT     0.417000        1.0080           0
    9195 WT1  1767 TIP3 H2   HT     0.417000        1.0080           0
    9196 WT1  1768 TIP3 OH2  OT    -0.834000       15.9994           0
    9197 WT1  1768 TIP3 H1   HT     0.417000        1.0080           0
    9198 WT1  1768 TIP3 H2   HT     0.417000        1.0080           0
    9199 WT1  1769 TIP3 OH2  OT    -0.834000       15.9994           0
    9200 WT1  1769 TIP3 H1   HT     0.417000        1.0080           0
    9201 WT1  1769 TIP3 H2   HT     0.417000        1.0080           0
    9202 WT1  1770 TIP3 OH2  OT    -0.834000       15.9994           0
    9203 WT1  1770 TIP3 H1   HT     0.417000        1.0080           0
    9204 WT1  1770 TIP3 H2   HT     0.417000        1.0080           0
    9205 WT1  1771 TIP3 OH2  OT    -0.834000       15.9994           0
    9206 WT1  1771 TIP3 H1   HT     0.417000        1.0080           0
    9207 WT1  1771 TIP3 H2   HT     0.417000        1.0080           0
    9208 WT1  1772 TIP3 OH2  OT    -0.834000       15.9994           0
    9209 WT1  1772 TIP3 H1   HT     0.417000        1.0080           0
    9210 WT1  1772 TIP3 H2   HT     0.417000        1.0080           0
    9211 WT1  1773 TIP3 OH2  OT    -0.834000       15.9994           0
    9212 WT1  1773 TIP3 H1   HT     0.417000        1.0080           0
    9213 WT1  1773 TIP3 H2   HT     0.417000        1.0080           0
    9214 WT1  1774 TIP3 OH2  OT    -0.834000       15.9994           0
    9215 WT1  1774 TIP3 H1   HT     0.417000        1.0080           0
    9216 WT1  1774 TIP3 H2   HT     0.417000        1.0080           0
    9217 WT1  1775 TIP3 OH2  OT    -0.834000       15.9994           0
    9218 WT1  1775 TIP3 H1   HT     0.417000        1.0080           0
    9219 WT1  1775 TIP3 H2   HT     0.417000        1.0080           0
    9220 WT1  1776 TIP3 OH2  OT    -0.834000       15.9994           0
    9221 WT1  1776 TIP3 H1   HT     0.417000        1.0080           0
    9222 WT1  1776 TIP3 H2   HT     0.417000        1.0080           0
    9223 WT1  1777 TIP3 OH2  OT    -0.834000       15.9994           0
    9224 WT1  1777 TIP3 H1   HT     0.417000        1.0080           0
    9225 WT1  1777 TIP3 H2   HT     0.417000        1.0080           0
    9226 WT1  1778 TIP3 OH2  OT    -0.834000       15.9994           0
    9227 WT1  1778 TIP3 H1   HT     0.417000        1.0080           0
    9228 WT1  1778 TIP3 H2   HT     0.417000        1.0080           0
    9229 WT1  1779 TIP3 OH2  OT    -0.834000       15.9994           0
    9230 WT1  1779 TIP3 H1   HT     0.417000        1.0080           0
    9231 WT1  1779 TIP3 H2   HT     0.417000        1.0080           0
    9232 WT1  1780 TIP3 OH2  OT    -0.834000       15.9994           0
    9233 WT1  1780 TIP3 H1   HT     0.417000        1.0080           0
    9234 WT1  1780 TIP3 H2   HT     0.417000        1.0080           0
    9235 WT1  1781 TIP3 OH2  OT    -0.834000       15.9994           0
    9236 WT1  1781 TIP3 H1   HT     0.417000        1.0080           0
    9237 WT1  1781 TIP3 H2   HT     0.417000        1.0080           0
    9238 WT1  1782 TIP3 OH2  OT    -0.834000       15.9994           0
    9239 WT1  1782 TIP3 H1   HT     0.417000        1.0080           0
    9240 WT1  1782 TIP3 H2   HT     0.417000        1.0080           0
    9241 WT1  1783 TIP3 OH2  OT    -0.834000       15.9994           0
    9242 WT1  1783 TIP3 H1   HT     0.417000        1.0080           0
    9243 WT1  1783 TIP3 H2   HT     0.417000        1.0080           0
    9244 WT1  1784 TIP3 OH2  OT    -0.834000       15.9994           0
    9245 WT1  1784 TIP3 H1   HT     0.417000        1.0080           0
    9246 WT1  1784 TIP3 H2   HT     0.417000        1.0080           0
    9247 WT1  1785 TIP3 OH2  OT    -0.834000       15.9994           0
    9248 WT1  1785 TIP3 H1   HT     0.417000        1.0080           0
    9249 WT1  1785 TIP3 H2   HT     0.417000        1.0080           0
    9250 WT1  1786 TIP3 OH2  OT    -0.834000       15.9994           0
    9251 WT1  1786 TIP3 H1   HT     0.417000        1.0080           0
    9252 WT1  1786 TIP3 H2   HT     0.417000        1.0080           0
    9253 WT1  1787 TIP3 OH2  OT    -0.834000       15.9994           0
    9254 WT1  1787 TIP3 H1   HT     0.417000        1.0080           0
    9255 WT1  1787 TIP3 H2   HT     0.417000        1.0080           0
    9256 WT1  1788 TIP3 OH2  OT    -0.834000       15.9994           0
    9257 WT1  1788 TIP3 H1   HT     0.417000        1.0080           0
    9258 WT1  1788 TIP3 H2   HT     0.417000        1.0080           0
    9259 WT1  1789 TIP3 OH2  OT    -0.834000       15.9994           0
    9260 WT1  1789 TIP3 H1   HT     0.417000        1.0080           0
    9261 WT1  1789 TIP3 H2   HT     0.417000        1.0080           0
    9262 WT1  1790 TIP3 OH2  OT    -0.834000       15.9994           0
    9263 WT1  1790 TIP3 H1   HT     0.417000        1.0080           0
    9264 WT1  1790 TIP3 H2   HT     0.417000        1.0080           0
    9265 WT1  1791 TIP3 OH2  OT    -0.834000       15.9994           0
    9266 WT1  1791 TIP3 H1   HT     0.417000        1.0080           0
    9267 WT1  1791 TIP3 H2   HT     0.417000        1.0080           0
    9268 WT1  1792 TIP3 OH2  OT    -0.834000       15.9994           0
    9269 WT1  1792 TIP3 H1   HT     0.417000        1.0080           0
    9270 WT1  1792 TIP3 H2   HT     0.417000        1.0080           0
    9271 WT1  1793 TIP3 OH2  OT    -0.834000       15.9994           0
    9272 WT1  1793 TIP3 H1   HT     0.417000        1.0080           0
    9273 WT1  1793 TIP3 H2   HT     0.417000        1.0080           0
    9274 WT1  1794 TIP3 OH2  OT    -0.834000       15.9994           0
    9275 WT1  1794 TIP3 H1   HT     0.417000        1.0080           0
    9276 WT1  1794 TIP3 H2   HT     0.417000        1.0080           0
    9277 WT1  1795 TIP3 OH2  OT    -0.834000       15.9994           0
    9278 WT1  1795 TIP3 H1   HT     0.417000        1.0080           0
    9279 WT1  1795 TIP3 H2   HT     0.417000        1.0080           0
    9280 WT1  1796 TIP3 OH2  OT    -0.834000       15.9994           0
    9281 WT1  1796 TIP3 H1   HT     0.417000        1.0080           0
    9282 WT1  1796 TIP3 H2   HT     0.417000        1.0080           0
    9283 WT1  1797 TIP3 OH2  OT    -0.834000       15.9994           0
    9284 WT1  1797 TIP3 H1   HT     0.417000        1.0080           0
    9285 WT1  1797 TIP3 H2   HT     0.417000        1.0080           0
    9286 WT1  1798 TIP3 OH2  OT    -0.834000       15.9994           0
    9287 WT1  1798 TIP3 H1   HT     0.417000        1.0080           0
    9288 WT1  1798 TIP3 H2   HT     0.417000        1.0080           0
    9289 WT1  1800 TIP3 OH2  OT    -0.834000       15.9994           0
    9290 WT1  1800 TIP3 H1   HT     0.417000        1.0080           0
    9291 WT1  1800 TIP3 H2   HT     0.417000        1.0080           0
    9292 WT1  1805 TIP3 OH2  OT    -0.834000       15.9994           0
    9293 WT1  1805 TIP3 H1   HT     0.417000        1.0080           0
    9294 WT1  1805 TIP3 H2   HT     0.417000        1.0080           0
    9295 WT1  1806 TIP3 OH2  OT    -0.834000       15.9994           0
    9296 WT1  1806 TIP3 H1   HT     0.417000        1.0080           0
    9297 WT1  1806 TIP3 H2   HT     0.417000        1.0080           0
    9298 WT1  1808 TIP3 OH2  OT    -0.834000       15.9994           0
    9299 WT1  1808 TIP3 H1   HT     0.417000        1.0080           0
    9300 WT1  1808 TIP3 H2   HT     0.417000        1.0080           0
    9301 WT1  1810 TIP3 OH2  OT    -0.834000       15.9994           0
    9302 WT1  1810 TIP3 H1   HT     0.417000        1.0080           0
    9303 WT1  1810 TIP3 H2   HT     0.417000        1.0080           0
    9304 WT1  1811 TIP3 OH2  OT    -0.834000       15.9994           0
    9305 WT1  1811 TIP3 H1   HT     0.417000        1.0080           0
    9306 WT1  1811 TIP3 H2   HT     0.417000        1.0080           0
    9307 WT1  1812 TIP3 OH2  OT    -0.834000       15.9994           0
    9308 WT1  1812 TIP3 H1   HT     0.417000        1.0080           0
    9309 WT1  1812 TIP3 H2   HT     0.417000        1.0080           0
    9310 WT1  1813 TIP3 OH2  OT    -0.834000       15.9994           0
    9311 WT1  1813 TIP3 H1   HT     0.417000        1.0080           0
    9312 WT1  1813 TIP3 H2   HT     0.417000        1.0080           0
    9313 WT1  1814 TIP3 OH2  OT    -0.834000       15.9994           0
    9314 WT1  1814 TIP3 H1   HT     0.417000        1.0080           0
    9315 WT1  1814 TIP3 H2   HT     0.417000        1.0080           0
    9316 WT1  1815 TIP3 OH2  OT    -0.834000       15.9994           0
    9317 WT1  1815 TIP3 H1   HT     0.417000        1.0080           0
    9318 WT1  1815 TIP3 H2   HT     0.417000        1.0080           0
    9319 WT1  1816 TIP3 OH2  OT    -0.834000       15.9994           0
    9320 WT1  1816 TIP3 H1   HT     0.417000        1.0080           0
    9321 WT1  1816 TIP3 H2   HT     0.417000        1.0080           0
    9322 WT1  1817 TIP3 OH2  OT    -0.834000       15.9994           0
    9323 WT1  1817 TIP3 H1   HT     0.417000        1.0080           0
    9324 WT1  1817 TIP3 H2   HT     0.417000        1.0080           0
    9325 WT1  1818 TIP3 OH2  OT    -0.834000       15.9994           0
    9326 WT1  1818 TIP3 H1   HT     0.417000        1.0080           0
    9327 WT1  1818 TIP3 H2   HT     0.417000        1.0080           0
    9328 WT1  1819 TIP3 OH2  OT    -0.834000       15.9994           0
    9329 WT1  1819 TIP3 H1   HT     0.417000        1.0080           0
    9330 WT1  1819 TIP3 H2   HT     0.417000        1.0080           0
    9331 WT1  1820 TIP3 OH2  OT    -0.834000       15.9994           0
    9332 WT1  1820 TIP3 H1   HT     0.417000        1.0080           0
    9333 WT1  1820 TIP3 H2   HT     0.417000        1.0080           0
    9334 WT1  1821 TIP3 OH2  OT    -0.834000       15.9994           0
    9335 WT1  1821 TIP3 H1   HT     0.417000        1.0080           0
    9336 WT1  1821 TIP3 H2   HT     0.417000        1.0080           0
    9337 WT1  1822 TIP3 OH2  OT    -0.834000       15.9994           0
    9338 WT1  1822 TIP3 H1   HT     0.417000        1.0080           0
    9339 WT1  1822 TIP3 H2   HT     0.417000        1.0080           0
    9340 WT1  1824 TIP3 OH2  OT    -0.834000       15.9994           0
    9341 WT1  1824 TIP3 H1   HT     0.417000        1.0080           0
    9342 WT1  1824 TIP3 H2   HT     0.417000        1.0080           0
    9343 WT1  1825 TIP3 OH2  OT    -0.834000       15.9994           0
    9344 WT1  1825 TIP3 H1   HT     0.417000        1.0080           0
    9345 WT1  1825 TIP3 H2   HT     0.417000        1.0080           0
    9346 WT1  1826 TIP3 OH2  OT    -0.834000       15.9994           0
    9347 WT1  1826 TIP3 H1   HT     0.417000        1.0080           0
    9348 WT1  1826 TIP3 H2   HT     0.417000        1.0080           0
    9349 WT1  1827 TIP3 OH2  OT    -0.834000       15.9994           0
    9350 WT1  1827 TIP3 H1   HT     0.417000        1.0080           0
    9351 WT1  1827 TIP3 H2   HT     0.417000        1.0080           0
    9352 WT1  1829 TIP3 OH2  OT    -0.834000       15.9994           0
    9353 WT1  1829 TIP3 H1   HT     0.417000        1.0080           0
    9354 WT1  1829 TIP3 H2   HT     0.417000        1.0080           0
    9355 WT1  1830 TIP3 OH2  OT    -0.834000       15.9994           0
    9356 WT1  1830 TIP3 H1   HT     0.417000        1.0080           0
    9357 WT1  1830 TIP3 H2   HT     0.417000        1.0080           0
    9358 WT1  1831 TIP3 OH2  OT    -0.834000       15.9994           0
    9359 WT1  1831 TIP3 H1   HT     0.417000        1.0080           0
    9360 WT1  1831 TIP3 H2   HT     0.417000        1.0080           0
    9361 WT1  1832 TIP3 OH2  OT    -0.834000       15.9994           0
    9362 WT1  1832 TIP3 H1   HT     0.417000        1.0080           0
    9363 WT1  1832 TIP3 H2   HT     0.417000        1.0080           0
    9364 WT1  1833 TIP3 OH2  OT    -0.834000       15.9994           0
    9365 WT1  1833 TIP3 H1   HT     0.417000        1.0080           0
    9366 WT1  1833 TIP3 H2   HT     0.417000        1.0080           0
    9367 WT1  1834 TIP3 OH2  OT    -0.834000       15.9994           0
    9368 WT1  1834 TIP3 H1   HT     0.417000        1.0080           0
    9369 WT1  1834 TIP3 H2   HT     0.417000        1.0080           0
    9370 WT1  1835 TIP3 OH2  OT    -0.834000       15.9994           0
    9371 WT1  1835 TIP3 H1   HT     0.417000        1.0080           0
    9372 WT1  1835 TIP3 H2   HT     0.417000        1.0080           0
    9373 WT1  1836 TIP3 OH2  OT    -0.834000       15.9994           0
    9374 WT1  1836 TIP3 H1   HT     0.417000        1.0080           0
    9375 WT1  1836 TIP3 H2   HT     0.417000        1.0080           0
    9376 WT1  1837 TIP3 OH2  OT    -0.834000       15.9994           0
    9377 WT1  1837 TIP3 H1   HT     0.417000        1.0080           0
    9378 WT1  1837 TIP3 H2   HT     0.417000        1.0080           0
    9379 WT1  1838 TIP3 OH2  OT    -0.834000       15.9994           0
    9380 WT1  1838 TIP3 H1   HT     0.417000        1.0080           0
    9381 WT1  1838 TIP3 H2   HT     0.417000        1.0080           0
    9382 WT1  1839 TIP3 OH2  OT    -0.834000       15.9994           0
    9383 WT1  1839 TIP3 H1   HT     0.417000        1.0080           0
    9384 WT1  1839 TIP3 H2   HT     0.417000        1.0080           0
    9385 WT1  1840 TIP3 OH2  OT    -0.834000       15.9994           0
    9386 WT1  1840 TIP3 H1   HT     0.417000        1.0080           0
    9387 WT1  1840 TIP3 H2   HT     0.417000        1.0080           0
    9388 WT1  1841 TIP3 OH2  OT    -0.834000       15.9994           0
    9389 WT1  1841 TIP3 H1   HT     0.417000        1.0080           0
    9390 WT1  1841 TIP3 H2   HT     0.417000        1.0080           0
    9391 WT1  1842 TIP3 OH2  OT    -0.834000       15.9994           0
    9392 WT1  1842 TIP3 H1   HT     0.417000        1.0080           0
    9393 WT1  1842 TIP3 H2   HT     0.417000        1.0080           0
    9394 WT1  1843 TIP3 OH2  OT    -0.834000       15.9994           0
    9395 WT1  1843 TIP3 H1   HT     0.417000        1.0080           0
    9396 WT1  1843 TIP3 H2   HT     0.417000        1.0080           0
    9397 WT1  1844 TIP3 OH2  OT    -0.834000       15.9994           0
    9398 WT1  1844 TIP3 H1   HT     0.417000        1.0080           0
    9399 WT1  1844 TIP3 H2   HT     0.417000        1.0080           0
    9400 WT1  1846 TIP3 OH2  OT    -0.834000       15.9994           0
    9401 WT1  1846 TIP3 H1   HT     0.417000        1.0080           0
    9402 WT1  1846 TIP3 H2   HT     0.417000        1.0080           0
    9403 WT1  1847 TIP3 OH2  OT    -0.834000       15.9994           0
    9404 WT1  1847 TIP3 H1   HT     0.417000        1.0080           0
    9405 WT1  1847 TIP3 H2   HT     0.417000        1.0080           0
    9406 WT1  1850 TIP3 OH2  OT    -0.834000       15.9994           0
    9407 WT1  1850 TIP3 H1   HT     0.417000        1.0080           0
    9408 WT1  1850 TIP3 H2   HT     0.417000        1.0080           0
    9409 WT1  1851 TIP3 OH2  OT    -0.834000       15.9994           0
    9410 WT1  1851 TIP3 H1   HT     0.417000        1.0080           0
    9411 WT1  1851 TIP3 H2   HT     0.417000        1.0080           0
    9412 WT1  1852 TIP3 OH2  OT    -0.834000       15.9994           0
    9413 WT1  1852 TIP3 H1   HT     0.417000        1.0080           0
    9414 WT1  1852 TIP3 H2   HT     0.417000        1.0080           0
    9415 WT1  1853 TIP3 OH2  OT    -0.834000       15.9994           0
    9416 WT1  1853 TIP3 H1   HT     0.417000        1.0080           0
    9417 WT1  1853 TIP3 H2   HT     0.417000        1.0080           0
    9418 WT1  1854 TIP3 OH2  OT    -0.834000       15.9994           0
    9419 WT1  1854 TIP3 H1   HT     0.417000        1.0080           0
    9420 WT1  1854 TIP3 H2   HT     0.417000        1.0080           0
    9421 WT1  1855 TIP3 OH2  OT    -0.834000       15.9994           0
    9422 WT1  1855 TIP3 H1   HT     0.417000        1.0080           0
    9423 WT1  1855 TIP3 H2   HT     0.417000        1.0080           0
    9424 WT1  1856 TIP3 OH2  OT    -0.834000       15.9994           0
    9425 WT1  1856 TIP3 H1   HT     0.417000        1.0080           0
    9426 WT1  1856 TIP3 H2   HT     0.417000        1.0080           0
    9427 WT1  1857 TIP3 OH2  OT    -0.834000       15.9994           0
    9428 WT1  1857 TIP3 H1   HT     0.417000        1.0080           0
    9429 WT1  1857 TIP3 H2   HT     0.417000        1.0080           0
    9430 WT1  1858 TIP3 OH2  OT    -0.834000       15.9994           0
    9431 WT1  1858 TIP3 H1   HT     0.417000        1.0080           0
    9432 WT1  1858 TIP3 H2   HT     0.417000        1.0080           0
    9433 WT1  1859 TIP3 OH2  OT    -0.834000       15.9994           0
    9434 WT1  1859 TIP3 H1   HT     0.417000        1.0080           0
    9435 WT1  1859 TIP3 H2   HT     0.417000        1.0080           0
    9436 WT1  1860 TIP3 OH2  OT    -0.834000       15.9994           0
    9437 WT1  1860 TIP3 H1   HT     0.417000        1.0080           0
    9438 WT1  1860 TIP3 H2   HT     0.417000        1.0080           0
    9439 WT1  1861 TIP3 OH2  OT    -0.834000       15.9994           0
    9440 WT1  1861 TIP3 H1   HT     0.417000        1.0080           0
    9441 WT1  1861 TIP3 H2   HT     0.417000        1.0080           0
    9442 WT1  1862 TIP3 OH2  OT    -0.834000       15.9994           0
    9443 WT1  1862 TIP3 H1   HT     0.417000        1.0080           0
    9444 WT1  1862 TIP3 H2   HT     0.417000        1.0080           0
    9445 WT1  1863 TIP3 OH2  OT    -0.834000       15.9994           0
    9446 WT1  1863 TIP3 H1   HT     0.417000        1.0080           0
    9447 WT1  1863 TIP3 H2   HT     0.417000        1.0080           0
    9448 WT1  1864 TIP3 OH2  OT    -0.834000       15.9994           0
    9449 WT1  1864 TIP3 H1   HT     0.417000        1.0080           0
    9450 WT1  1864 TIP3 H2   HT     0.417000        1.0080           0
    9451 WT1  1866 TIP3 OH2  OT    -0.834000       15.9994           0
    9452 WT1  1866 TIP3 H1   HT     0.417000        1.0080           0
    9453 WT1  1866 TIP3 H2   HT     0.417000        1.0080           0
    9454 WT1  1868 TIP3 OH2  OT    -0.834000       15.9994           0
    9455 WT1  1868 TIP3 H1   HT     0.417000        1.0080           0
    9456 WT1  1868 TIP3 H2   HT     0.417000        1.0080           0
    9457 WT1  1869 TIP3 OH2  OT    -0.834000       15.9994           0
    9458 WT1  1869 TIP3 H1   HT     0.417000        1.0080           0
    9459 WT1  1869 TIP3 H2   HT     0.417000        1.0080           0
    9460 WT1  1870 TIP3 OH2  OT    -0.834000       15.9994           0
    9461 WT1  1870 TIP3 H1   HT     0.417000        1.0080           0
    9462 WT1  1870 TIP3 H2   HT     0.417000        1.0080           0
    9463 WT1  1871 TIP3 OH2  OT    -0.834000       15.9994           0
    9464 WT1  1871 TIP3 H1   HT     0.417000        1.0080           0
    9465 WT1  1871 TIP3 H2   HT     0.417000        1.0080           0
    9466 WT1  1872 TIP3 OH2  OT    -0.834000       15.9994           0
    9467 WT1  1872 TIP3 H1   HT     0.417000        1.0080           0
    9468 WT1  1872 TIP3 H2   HT     0.417000        1.0080           0
    9469 WT1  1873 TIP3 OH2  OT    -0.834000       15.9994           0
    9470 WT1  1873 TIP3 H1   HT     0.417000        1.0080           0
    9471 WT1  1873 TIP3 H2   HT     0.417000        1.0080           0
    9472 WT1  1874 TIP3 OH2  OT    -0.834000       15.9994           0
    9473 WT1  1874 TIP3 H1   HT     0.417000        1.0080           0
    9474 WT1  1874 TIP3 H2   HT     0.417000        1.0080           0
    9475 WT1  1875 TIP3 OH2  OT    -0.834000       15.9994           0
    9476 WT1  1875 TIP3 H1   HT     0.417000        1.0080           0
    9477 WT1  1875 TIP3 H2   HT     0.417000        1.0080           0
    9478 WT1  1876 TIP3 OH2  OT    -0.834000       15.9994           0
    9479 WT1  1876 TIP3 H1   HT     0.417000        1.0080           0
    9480 WT1  1876 TIP3 H2   HT     0.417000        1.0080           0
    9481 WT1  1877 TIP3 OH2  OT    -0.834000       15.9994           0
    9482 WT1  1877 TIP3 H1   HT     0.417000        1.0080           0
    9483 WT1  1877 TIP3 H2   HT     0.417000        1.0080           0
    9484 WT1  1878 TIP3 OH2  OT    -0.834000       15.9994           0
    9485 WT1  1878 TIP3 H1   HT     0.417000        1.0080           0
    9486 WT1  1878 TIP3 H2   HT     0.417000        1.0080           0
    9487 WT1  1879 TIP3 OH2  OT    -0.834000       15.9994           0
    9488 WT1  1879 TIP3 H1   HT     0.417000        1.0080           0
    9489 WT1  1879 TIP3 H2   HT     0.417000        1.0080           0
    9490 WT1  1880 TIP3 OH2  OT    -0.834000       15.9994           0
    9491 WT1  1880 TIP3 H1   HT     0.417000        1.0080           0
    9492 WT1  1880 TIP3 H2   HT     0.417000        1.0080           0
    9493 WT1  1881 TIP3 OH2  OT    -0.834000       15.9994           0
    9494 WT1  1881 TIP3 H1   HT     0.417000        1.0080           0
    9495 WT1  1881 TIP3 H2   HT     0.417000        1.0080           0
    9496 WT1  1882 TIP3 OH2  OT    -0.834000       15.9994           0
    9497 WT1  1882 TIP3 H1   HT     0.417000        1.0080           0
    9498 WT1  1882 TIP3 H2   HT     0.417000        1.0080           0
    9499 WT1  1883 TIP3 OH2  OT    -0.834000       15.9994           0
    9500 WT1  1883 TIP3 H1   HT     0.417000        1.0080           0
    9501 WT1  1883 TIP3 H2   HT     0.417000        1.0080           0
    9502 WT1  1885 TIP3 OH2  OT    -0.834000       15.9994           0
    9503 WT1  1885 TIP3 H1   HT     0.417000        1.0080           0
    9504 WT1  1885 TIP3 H2   HT     0.417000        1.0080           0
    9505 WT1  1887 TIP3 OH2  OT    -0.834000       15.9994           0
    9506 WT1  1887 TIP3 H1   HT     0.417000        1.0080           0
    9507 WT1  1887 TIP3 H2   HT     0.417000        1.0080           0
    9508 WT1  1888 TIP3 OH2  OT    -0.834000       15.9994           0
    9509 WT1  1888 TIP3 H1   HT     0.417000        1.0080           0
    9510 WT1  1888 TIP3 H2   HT     0.417000        1.0080           0
    9511 WT1  1890 TIP3 OH2  OT    -0.834000       15.9994           0
    9512 WT1  1890 TIP3 H1   HT     0.417000        1.0080           0
    9513 WT1  1890 TIP3 H2   HT     0.417000        1.0080           0
    9514 WT1  1891 TIP3 OH2  OT    -0.834000       15.9994           0
    9515 WT1  1891 TIP3 H1   HT     0.417000        1.0080           0
    9516 WT1  1891 TIP3 H2   HT     0.417000        1.0080           0
    9517 WT1  1892 TIP3 OH2  OT    -0.834000       15.9994           0
    9518 WT1  1892 TIP3 H1   HT     0.417000        1.0080           0
    9519 WT1  1892 TIP3 H2   HT     0.417000        1.0080           0
    9520 WT1  1893 TIP3 OH2  OT    -0.834000       15.9994           0
    9521 WT1  1893 TIP3 H1   HT     0.417000        1.0080           0
    9522 WT1  1893 TIP3 H2   HT     0.417000        1.0080           0
    9523 WT1  1894 TIP3 OH2  OT    -0.834000       15.9994           0
    9524 WT1  1894 TIP3 H1   HT     0.417000        1.0080           0
    9525 WT1  1894 TIP3 H2   HT     0.417000        1.0080           0
    9526 WT1  1895 TIP3 OH2  OT    -0.834000       15.9994           0
    9527 WT1  1895 TIP3 H1   HT     0.417000        1.0080           0
    9528 WT1  1895 TIP3 H2   HT     0.417000        1.0080           0
    9529 WT1  1896 TIP3 OH2  OT    -0.834000       15.9994           0
    9530 WT1  1896 TIP3 H1   HT     0.417000        1.0080           0
    9531 WT1  1896 TIP3 H2   HT     0.417000        1.0080           0
    9532 WT1  1897 TIP3 OH2  OT    -0.834000       15.9994           0
    9533 WT1  1897 TIP3 H1   HT     0.417000        1.0080           0
    9534 WT1  1897 TIP3 H2   HT     0.417000        1.0080           0
    9535 WT1  1898 TIP3 OH2  OT    -0.834000       15.9994           0
    9536 WT1  1898 TIP3 H1   HT     0.417000        1.0080           0
    9537 WT1  1898 TIP3 H2   HT     0.417000        1.0080           0
    9538 WT1  1899 TIP3 OH2  OT    -0.834000       15.9994           0
    9539 WT1  1899 TIP3 H1   HT     0.417000        1.0080           0
    9540 WT1  1899 TIP3 H2   HT     0.417000        1.0080           0
    9541 WT1  1900 TIP3 OH2  OT    -0.834000       15.9994           0
    9542 WT1  1900 TIP3 H1   HT     0.417000        1.0080           0
    9543 WT1  1900 TIP3 H2   HT     0.417000        1.0080           0
    9544 WT1  1901 TIP3 OH2  OT    -0.834000       15.9994           0
    9545 WT1  1901 TIP3 H1   HT     0.417000        1.0080           0
    9546 WT1  1901 TIP3 H2   HT     0.417000        1.0080           0
    9547 WT1  1902 TIP3 OH2  OT    -0.834000       15.9994           0
    9548 WT1  1902 TIP3 H1   HT     0.417000        1.0080           0
    9549 WT1  1902 TIP3 H2   HT     0.417000        1.0080           0
    9550 WT1  1903 TIP3 OH2  OT    -0.834000       15.9994           0
    9551 WT1  1903 TIP3 H1   HT     0.417000        1.0080           0
    9552 WT1  1903 TIP3 H2   HT     0.417000        1.0080           0
    9553 WT1  1904 TIP3 OH2  OT    -0.834000       15.9994           0
    9554 WT1  1904 TIP3 H1   HT     0.417000        1.0080           0
    9555 WT1  1904 TIP3 H2   HT     0.417000        1.0080           0
    9556 WT1  1906 TIP3 OH2  OT    -0.834000       15.9994           0
    9557 WT1  1906 TIP3 H1   HT     0.417000        1.0080           0
    9558 WT1  1906 TIP3 H2   HT     0.417000        1.0080           0
    9559 WT1  1907 TIP3 OH2  OT    -0.834000       15.9994           0
    9560 WT1  1907 TIP3 H1   HT     0.417000        1.0080           0
    9561 WT1  1907 TIP3 H2   HT     0.417000        1.0080           0
    9562 WT1  1909 TIP3 OH2  OT    -0.834000       15.9994           0
    9563 WT1  1909 TIP3 H1   HT     0.417000        1.0080           0
    9564 WT1  1909 TIP3 H2   HT     0.417000        1.0080           0
    9565 WT1  1911 TIP3 OH2  OT    -0.834000       15.9994           0
    9566 WT1  1911 TIP3 H1   HT     0.417000        1.0080           0
    9567 WT1  1911 TIP3 H2   HT     0.417000        1.0080           0
    9568 WT1  1912 TIP3 OH2  OT    -0.834000       15.9994           0
    9569 WT1  1912 TIP3 H1   HT     0.417000        1.0080           0
    9570 WT1  1912 TIP3 H2   HT     0.417000        1.0080           0
    9571 WT1  1913 TIP3 OH2  OT    -0.834000       15.9994           0
    9572 WT1  1913 TIP3 H1   HT     0.417000        1.0080           0
    9573 WT1  1913 TIP3 H2   HT     0.417000        1.0080           0
    9574 WT1  1914 TIP3 OH2  OT    -0.834000       15.9994           0
    9575 WT1  1914 TIP3 H1   HT     0.417000        1.0080           0
    9576 WT1  1914 TIP3 H2   HT     0.417000        1.0080           0
    9577 WT1  1915 TIP3 OH2  OT    -0.834000       15.9994           0
    9578 WT1  1915 TIP3 H1   HT     0.417000        1.0080           0
    9579 WT1  1915 TIP3 H2   HT     0.417000        1.0080           0
    9580 WT1  1916 TIP3 OH2  OT    -0.834000       15.9994           0
    9581 WT1  1916 TIP3 H1   HT     0.417000        1.0080           0
    9582 WT1  1916 TIP3 H2   HT     0.417000        1.0080           0
    9583 WT1  1917 TIP3 OH2  OT    -0.834000       15.9994           0
    9584 WT1  1917 TIP3 H1   HT     0.417000        1.0080           0
    9585 WT1  1917 TIP3 H2   HT     0.417000        1.0080           0
    9586 WT1  1918 TIP3 OH2  OT    -0.834000       15.9994           0
    9587 WT1  1918 TIP3 H1   HT     0.417000        1.0080           0
    9588 WT1  1918 TIP3 H2   HT     0.417000        1.0080           0
    9589 WT1  1919 TIP3 OH2  OT    -0.834000       15.9994           0
    9590 WT1  1919 TIP3 H1   HT     0.417000        1.0080           0
    9591 WT1  1919 TIP3 H2   HT     0.417000        1.0080           0
    9592 WT1  1920 TIP3 OH2  OT    -0.834000       15.9994           0
    9593 WT1  1920 TIP3 H1   HT     0.417000        1.0080           0
    9594 WT1  1920 TIP3 H2   HT     0.417000        1.0080           0
    9595 WT1  1921 TIP3 OH2  OT    -0.834000       15.9994           0
    9596 WT1  1921 TIP3 H1   HT     0.417000        1.0080           0
    9597 WT1  1921 TIP3 H2   HT     0.417000        1.0080           0
    9598 WT1  1922 TIP3 OH2  OT    -0.834000       15.9994           0
    9599 WT1  1922 TIP3 H1   HT     0.417000        1.0080           0
    9600 WT1  1922 TIP3 H2   HT     0.417000        1.0080           0
    9601 WT1  1923 TIP3 OH2  OT    -0.834000       15.9994           0
    9602 WT1  1923 TIP3 H1   HT     0.417000        1.0080           0
    9603 WT1  1923 TIP3 H2   HT     0.417000        1.0080           0
    9604 WT1  1924 TIP3 OH2  OT    -0.834000       15.9994           0
    9605 WT1  1924 TIP3 H1   HT     0.417000        1.0080           0
    9606 WT1  1924 TIP3 H2   HT     0.417000        1.0080           0
    9607 WT1  1925 TIP3 OH2  OT    -0.834000       15.9994           0
    9608 WT1  1925 TIP3 H1   HT     0.417000        1.0080           0
    9609 WT1  1925 TIP3 H2   HT     0.417000        1.0080           0
    9610 WT1  1926 TIP3 OH2  OT    -0.834000       15.9994           0
    9611 WT1  1926 TIP3 H1   HT     0.417000        1.0080           0
    9612 WT1  1926 TIP3 H2   HT     0.417000        1.0080           0
    9613 WT1  1928 TIP3 OH2  OT    -0.834000       15.9994           0
    9614 WT1  1928 TIP3 H1   HT     0.417000        1.0080           0
    9615 WT1  1928 TIP3 H2   HT     0.417000        1.0080           0
    9616 WT1  1930 TIP3 OH2  OT    -0.834000       15.9994           0
    9617 WT1  1930 TIP3 H1   HT     0.417000        1.0080           0
    9618 WT1  1930 TIP3 H2   HT     0.417000        1.0080           0
    9619 WT1  1931 TIP3 OH2  OT    -0.834000       15.9994           0
    9620 WT1  1931 TIP3 H1   HT     0.417000        1.0080           0
    9621 WT1  1931 TIP3 H2   HT     0.417000        1.0080           0
    9622 WT1  1932 TIP3 OH2  OT    -0.834000       15.9994           0
    9623 WT1  1932 TIP3 H1   HT     0.417000        1.0080           0
    9624 WT1  1932 TIP3 H2   HT     0.417000        1.0080           0
    9625 WT1  1934 TIP3 OH2  OT    -0.834000       15.9994           0
    9626 WT1  1934 TIP3 H1   HT     0.417000        1.0080           0
    9627 WT1  1934 TIP3 H2   HT     0.417000        1.0080           0
    9628 WT1  1935 TIP3 OH2  OT    -0.834000       15.9994           0
    9629 WT1  1935 TIP3 H1   HT     0.417000        1.0080           0
    9630 WT1  1935 TIP3 H2   HT     0.417000        1.0080           0
    9631 WT1  1936 TIP3 OH2  OT    -0.834000       15.9994           0
    9632 WT1  1936 TIP3 H1   HT     0.417000        1.0080           0
    9633 WT1  1936 TIP3 H2   HT     0.417000        1.0080           0
    9634 WT1  1937 TIP3 OH2  OT    -0.834000       15.9994           0
    9635 WT1  1937 TIP3 H1   HT     0.417000        1.0080           0
    9636 WT1  1937 TIP3 H2   HT     0.417000        1.0080           0
    9637 WT1  1938 TIP3 OH2  OT    -0.834000       15.9994           0
    9638 WT1  1938 TIP3 H1   HT     0.417000        1.0080           0
    9639 WT1  1938 TIP3 H2   HT     0.417000        1.0080           0
    9640 WT1  1939 TIP3 OH2  OT    -0.834000       15.9994           0
    9641 WT1  1939 TIP3 H1   HT     0.417000        1.0080           0
    9642 WT1  1939 TIP3 H2   HT     0.417000        1.0080           0
    9643 WT1  1940 TIP3 OH2  OT    -0.834000       15.9994           0
    9644 WT1  1940 TIP3 H1   HT     0.417000        1.0080           0
    9645 WT1  1940 TIP3 H2   HT     0.417000        1.0080           0
    9646 WT1  1941 TIP3 OH2  OT    -0.834000       15.9994           0
    9647 WT1  1941 TIP3 H1   HT     0.417000        1.0080           0
    9648 WT1  1941 TIP3 H2   HT     0.417000        1.0080           0
    9649 WT1  1942 TIP3 OH2  OT    -0.834000       15.9994           0
    9650 WT1  1942 TIP3 H1   HT     0.417000        1.0080           0
    9651 WT1  1942 TIP3 H2   HT     0.417000        1.0080           0
    9652 WT1  1943 TIP3 OH2  OT    -0.834000       15.9994           0
    9653 WT1  1943 TIP3 H1   HT     0.417000        1.0080           0
    9654 WT1  1943 TIP3 H2   HT     0.417000        1.0080           0
    9655 WT1  1944 TIP3 OH2  OT    -0.834000       15.9994           0
    9656 WT1  1944 TIP3 H1   HT     0.417000        1.0080           0
    9657 WT1  1944 TIP3 H2   HT     0.417000        1.0080           0
    9658 WT1  1945 TIP3 OH2  OT    -0.834000       15.9994           0
    9659 WT1  1945 TIP3 H1   HT     0.417000        1.0080           0
    9660 WT1  1945 TIP3 H2   HT     0.417000        1.0080           0
    9661 WT1  1946 TIP3 OH2  OT    -0.834000       15.9994           0
    9662 WT1  1946 TIP3 H1   HT     0.417000        1.0080           0
    9663 WT1  1946 TIP3 H2   HT     0.417000        1.0080           0
    9664 WT1  1947 TIP3 OH2  OT    -0.834000       15.9994           0
    9665 WT1  1947 TIP3 H1   HT     0.417000        1.0080           0
    9666 WT1  1947 TIP3 H2   HT     0.417000        1.0080           0
    9667 WT1  1948 TIP3 OH2  OT    -0.834000       15.9994           0
    9668 WT1  1948 TIP3 H1   HT     0.417000        1.0080           0
    9669 WT1  1948 TIP3 H2   HT     0.417000        1.0080           0
    9670 WT1  1949 TIP3 OH2  OT    -0.834000       15.9994           0
    9671 WT1  1949 TIP3 H1   HT     0.417000        1.0080           0
    9672 WT1  1949 TIP3 H2   HT     0.417000        1.0080           0
    9673 WT1  1950 TIP3 OH2  OT    -0.834000       15.9994           0
    9674 WT1  1950 TIP3 H1   HT     0.417000        1.0080           0
    9675 WT1  1950 TIP3 H2   HT     0.417000        1.0080           0
    9676 WT1  1952 TIP3 OH2  OT    -0.834000       15.9994           0
    9677 WT1  1952 TIP3 H1   HT     0.417000        1.0080           0
    9678 WT1  1952 TIP3 H2   HT     0.417000        1.0080           0
    9679 WT1  1953 TIP3 OH2  OT    -0.834000       15.9994           0
    9680 WT1  1953 TIP3 H1   HT     0.417000        1.0080           0
    9681 WT1  1953 TIP3 H2   HT     0.417000        1.0080           0
    9682 WT1  1954 TIP3 OH2  OT    -0.834000       15.9994           0
    9683 WT1  1954 TIP3 H1   HT     0.417000        1.0080           0
    9684 WT1  1954 TIP3 H2   HT     0.417000        1.0080           0
    9685 WT1  1955 TIP3 OH2  OT    -0.834000       15.9994           0
    9686 WT1  1955 TIP3 H1   HT     0.417000        1.0080           0
    9687 WT1  1955 TIP3 H2   HT     0.417000        1.0080           0
    9688 WT1  1956 TIP3 OH2  OT    -0.834000       15.9994           0
    9689 WT1  1956 TIP3 H1   HT     0.417000        1.0080           0
    9690 WT1  1956 TIP3 H2   HT     0.417000        1.0080           0
    9691 WT1  1957 TIP3 OH2  OT    -0.834000       15.9994           0
    9692 WT1  1957 TIP3 H1   HT     0.417000        1.0080           0
    9693 WT1  1957 TIP3 H2   HT     0.417000        1.0080           0
    9694 WT1  1958 TIP3 OH2  OT    -0.834000       15.9994           0
    9695 WT1  1958 TIP3 H1   HT     0.417000        1.0080           0
    9696 WT1  1958 TIP3 H2   HT     0.417000        1.0080           0
    9697 WT1  1959 TIP3 OH2  OT    -0.834000       15.9994           0
    9698 WT1  1959 TIP3 H1   HT     0.417000        1.0080           0
    9699 WT1  1959 TIP3 H2   HT     0.417000        1.0080           0
    9700 WT1  1960 TIP3 OH2  OT    -0.834000       15.9994           0
    9701 WT1  1960 TIP3 H1   HT     0.417000        1.0080           0
    9702 WT1  1960 TIP3 H2   HT     0.417000        1.0080           0
    9703 WT1  1961 TIP3 OH2  OT    -0.834000       15.9994           0
    9704 WT1  1961 TIP3 H1   HT     0.417000        1.0080           0
    9705 WT1  1961 TIP3 H2   HT     0.417000        1.0080           0
    9706 WT1  1962 TIP3 OH2  OT    -0.834000       15.9994           0
    9707 WT1  1962 TIP3 H1   HT     0.417000        1.0080           0
    9708 WT1  1962 TIP3 H2   HT     0.417000        1.0080           0
    9709 WT1  1963 TIP3 OH2  OT    -0.834000       15.9994           0
    9710 WT1  1963 TIP3 H1   HT     0.417000        1.0080           0
    9711 WT1  1963 TIP3 H2   HT     0.417000        1.0080           0
    9712 WT1  1964 TIP3 OH2  OT    -0.834000       15.9994           0
    9713 WT1  1964 TIP3 H1   HT     0.417000        1.0080           0
    9714 WT1  1964 TIP3 H2   HT     0.417000        1.0080           0
    9715 WT1  1965 TIP3 OH2  OT    -0.834000       15.9994           0
    9716 WT1  1965 TIP3 H1   HT     0.417000        1.0080           0
    9717 WT1  1965 TIP3 H2   HT     0.417000        1.0080           0
    9718 WT1  1966 TIP3 OH2  OT    -0.834000       15.9994           0
    9719 WT1  1966 TIP3 H1   HT     0.417000        1.0080           0
    9720 WT1  1966 TIP3 H2   HT     0.417000        1.0080           0
    9721 WT1  1967 TIP3 OH2  OT    -0.834000       15.9994           0
    9722 WT1  1967 TIP3 H1   HT     0.417000        1.0080           0
    9723 WT1  1967 TIP3 H2   HT     0.417000        1.0080           0
    9724 WT1  1968 TIP3 OH2  OT    -0.834000       15.9994           0
    9725 WT1  1968 TIP3 H1   HT     0.417000        1.0080           0
    9726 WT1  1968 TIP3 H2   HT     0.417000        1.0080           0
    9727 WT1  1969 TIP3 OH2  OT    -0.834000       15.9994           0
    9728 WT1  1969 TIP3 H1   HT     0.417000        1.0080           0
    9729 WT1  1969 TIP3 H2   HT     0.417000        1.0080           0
    9730 WT1  1970 TIP3 OH2  OT    -0.834000       15.9994           0
    9731 WT1  1970 TIP3 H1   HT     0.417000        1.0080           0
    9732 WT1  1970 TIP3 H2   HT     0.417000        1.0080           0
    9733 WT1  1972 TIP3 OH2  OT    -0.834000       15.9994           0
    9734 WT1  1972 TIP3 H1   HT     0.417000        1.0080           0
    9735 WT1  1972 TIP3 H2   HT     0.417000        1.0080           0
    9736 WT1  1973 TIP3 OH2  OT    -0.834000       15.9994           0
    9737 WT1  1973 TIP3 H1   HT     0.417000        1.0080           0
    9738 WT1  1973 TIP3 H2   HT     0.417000        1.0080           0
    9739 WT1  1975 TIP3 OH2  OT    -0.834000       15.9994           0
    9740 WT1  1975 TIP3 H1   HT     0.417000        1.0080           0
    9741 WT1  1975 TIP3 H2   HT     0.417000        1.0080           0
    9742 WT1  1976 TIP3 OH2  OT    -0.834000       15.9994           0
    9743 WT1  1976 TIP3 H1   HT     0.417000        1.0080           0
    9744 WT1  1976 TIP3 H2   HT     0.417000        1.0080           0
    9745 WT1  1977 TIP3 OH2  OT    -0.834000       15.9994           0
    9746 WT1  1977 TIP3 H1   HT     0.417000        1.0080           0
    9747 WT1  1977 TIP3 H2   HT     0.417000        1.0080           0
    9748 WT1  1978 TIP3 OH2  OT    -0.834000       15.9994           0
    9749 WT1  1978 TIP3 H1   HT     0.417000        1.0080           0
    9750 WT1  1978 TIP3 H2   HT     0.417000        1.0080           0
    9751 WT1  1979 TIP3 OH2  OT    -0.834000       15.9994           0
    9752 WT1  1979 TIP3 H1   HT     0.417000        1.0080           0
    9753 WT1  1979 TIP3 H2   HT     0.417000        1.0080           0
    9754 WT1  1980 TIP3 OH2  OT    -0.834000       15.9994           0
    9755 WT1  1980 TIP3 H1   HT     0.417000        1.0080           0
    9756 WT1  1980 TIP3 H2   HT     0.417000        1.0080           0
    9757 WT1  1981 TIP3 OH2  OT    -0.834000       15.9994           0
    9758 WT1  1981 TIP3 H1   HT     0.417000        1.0080           0
    9759 WT1  1981 TIP3 H2   HT     0.417000        1.0080           0
    9760 WT1  1982 TIP3 OH2  OT    -0.834000       15.9994           0
    9761 WT1  1982 TIP3 H1   HT     0.417000        1.0080           0
    9762 WT1  1982 TIP3 H2   HT     0.417000        1.0080           0
    9763 WT1  1983 TIP3 OH2  OT    -0.834000       15.9994           0
    9764 WT1  1983 TIP3 H1   HT     0.417000        1.0080           0
    9765 WT1  1983 TIP3 H2   HT     0.417000        1.0080           0
    9766 WT1  1984 TIP3 OH2  OT    -0.834000       15.9994           0
    9767 WT1  1984 TIP3 H1   HT     0.417000        1.0080           0
    9768 WT1  1984 TIP3 H2   HT     0.417000        1.0080           0
    9769 WT1  1985 TIP3 OH2  OT    -0.834000       15.9994           0
    9770 WT1  1985 TIP3 H1   HT     0.417000        1.0080           0
    9771 WT1  1985 TIP3 H2   HT     0.417000        1.0080           0
    9772 WT1  1986 TIP3 OH2  OT    -0.834000       15.9994           0
    9773 WT1  1986 TIP3 H1   HT     0.417000        1.0080           0
    9774 WT1  1986 TIP3 H2   HT     0.417000        1.0080           0
    9775 WT1  1987 TIP3 OH2  OT    -0.834000       15.9994           0
    9776 WT1  1987 TIP3 H1   HT     0.417000        1.0080           0
    9777 WT1  1987 TIP3 H2   HT     0.417000        1.0080           0
    9778 WT1  1988 TIP3 OH2  OT    -0.834000       15.9994           0
    9779 WT1  1988 TIP3 H1   HT     0.417000        1.0080           0
    9780 WT1  1988 TIP3 H2   HT     0.417000        1.0080           0
    9781 WT1  1989 TIP3 OH2  OT    -0.834000       15.9994           0
    9782 WT1  1989 TIP3 H1   HT     0.417000        1.0080           0
    9783 WT1  1989 TIP3 H2   HT     0.417000        1.0080           0
    9784 WT1  1991 TIP3 OH2  OT    -0.834000       15.9994           0
    9785 WT1  1991 TIP3 H1   HT     0.417000        1.0080           0
    9786 WT1  1991 TIP3 H2   HT     0.417000        1.0080           0
    9787 WT1  1993 TIP3 OH2  OT    -0.834000       15.9994           0
    9788 WT1  1993 TIP3 H1   HT     0.417000        1.0080           0
    9789 WT1  1993 TIP3 H2   HT     0.417000        1.0080           0
    9790 WT1  1994 TIP3 OH2  OT    -0.834000       15.9994           0
    9791 WT1  1994 TIP3 H1   HT     0.417000        1.0080           0
    9792 WT1  1994 TIP3 H2   HT     0.417000        1.0080           0
    9793 WT1  1996 TIP3 OH2  OT    -0.834000       15.9994           0
    9794 WT1  1996 TIP3 H1   HT     0.417000        1.0080           0
    9795 WT1  1996 TIP3 H2   HT     0.417000        1.0080           0
    9796 WT1  1997 TIP3 OH2  OT    -0.834000       15.9994           0
    9797 WT1  1997 TIP3 H1   HT     0.417000        1.0080           0
    9798 WT1  1997 TIP3 H2   HT     0.417000        1.0080           0
    9799 WT1  1998 TIP3 OH2  OT    -0.834000       15.9994           0
    9800 WT1  1998 TIP3 H1   HT     0.417000        1.0080           0
    9801 WT1  1998 TIP3 H2   HT     0.417000        1.0080           0
    9802 WT1  1999 TIP3 OH2  OT    -0.834000       15.9994           0
    9803 WT1  1999 TIP3 H1   HT     0.417000        1.0080           0
    9804 WT1  1999 TIP3 H2   HT     0.417000        1.0080           0
    9805 WT1  2000 TIP3 OH2  OT    -0.834000       15.9994           0
    9806 WT1  2000 TIP3 H1   HT     0.417000        1.0080           0
    9807 WT1  2000 TIP3 H2   HT     0.417000        1.0080           0
    9808 WT1  2001 TIP3 OH2  OT    -0.834000       15.9994           0
    9809 WT1  2001 TIP3 H1   HT     0.417000        1.0080           0
    9810 WT1  2001 TIP3 H2   HT     0.417000        1.0080           0
    9811 WT1  2002 TIP3 OH2  OT    -0.834000       15.9994           0
    9812 WT1  2002 TIP3 H1   HT     0.417000        1.0080           0
    9813 WT1  2002 TIP3 H2   HT     0.417000        1.0080           0
    9814 WT1  2003 TIP3 OH2  OT    -0.834000       15.9994           0
    9815 WT1  2003 TIP3 H1   HT     0.417000        1.0080           0
    9816 WT1  2003 TIP3 H2   HT     0.417000        1.0080           0
    9817 WT1  2004 TIP3 OH2  OT    -0.834000       15.9994           0
    9818 WT1  2004 TIP3 H1   HT     0.417000        1.0080           0
    9819 WT1  2004 TIP3 H2   HT     0.417000        1.0080           0
    9820 WT1  2005 TIP3 OH2  OT    -0.834000       15.9994           0
    9821 WT1  2005 TIP3 H1   HT     0.417000        1.0080           0
    9822 WT1  2005 TIP3 H2   HT     0.417000        1.0080           0
    9823 WT1  2006 TIP3 OH2  OT    -0.834000       15.9994           0
    9824 WT1  2006 TIP3 H1   HT     0.417000        1.0080           0
    9825 WT1  2006 TIP3 H2   HT     0.417000        1.0080           0
    9826 WT1  2007 TIP3 OH2  OT    -0.834000       15.9994           0
    9827 WT1  2007 TIP3 H1   HT     0.417000        1.0080           0
    9828 WT1  2007 TIP3 H2   HT     0.417000        1.0080           0
    9829 WT1  2008 TIP3 OH2  OT    -0.834000       15.9994           0
    9830 WT1  2008 TIP3 H1   HT     0.417000        1.0080           0
    9831 WT1  2008 TIP3 H2   HT     0.417000        1.0080           0
    9832 WT1  2009 TIP3 OH2  OT    -0.834000       15.9994           0
    9833 WT1  2009 TIP3 H1   HT     0.417000        1.0080           0
    9834 WT1  2009 TIP3 H2   HT     0.417000        1.0080           0
    9835 WT1  2010 TIP3 OH2  OT    -0.834000       15.9994           0
    9836 WT1  2010 TIP3 H1   HT     0.417000        1.0080           0
    9837 WT1  2010 TIP3 H2   HT     0.417000        1.0080           0
    9838 WT1  2011 TIP3 OH2  OT    -0.834000       15.9994           0
    9839 WT1  2011 TIP3 H1   HT     0.417000        1.0080           0
    9840 WT1  2011 TIP3 H2   HT     0.417000        1.0080           0
    9841 WT1  2012 TIP3 OH2  OT    -0.834000       15.9994           0
    9842 WT1  2012 TIP3 H1   HT     0.417000        1.0080           0
    9843 WT1  2012 TIP3 H2   HT     0.417000        1.0080           0
    9844 WT1  2013 TIP3 OH2  OT    -0.834000       15.9994           0
    9845 WT1  2013 TIP3 H1   HT     0.417000        1.0080           0
    9846 WT1  2013 TIP3 H2   HT     0.417000        1.0080           0
    9847 WT1  2014 TIP3 OH2  OT    -0.834000       15.9994           0
    9848 WT1  2014 TIP3 H1   HT     0.417000        1.0080           0
    9849 WT1  2014 TIP3 H2   HT     0.417000        1.0080           0
    9850 WT1  2015 TIP3 OH2  OT    -0.834000       15.9994           0
    9851 WT1  2015 TIP3 H1   HT     0.417000        1.0080           0
    9852 WT1  2015 TIP3 H2   HT     0.417000        1.0080           0
    9853 WT1  2016 TIP3 OH2  OT    -0.834000       15.9994           0
    9854 WT1  2016 TIP3 H1   HT     0.417000        1.0080           0
    9855 WT1  2016 TIP3 H2   HT     0.417000        1.0080           0
    9856 WT1  2017 TIP3 OH2  OT    -0.834000       15.9994           0
    9857 WT1  2017 TIP3 H1   HT     0.417000        1.0080           0
    9858 WT1  2017 TIP3 H2   HT     0.417000        1.0080           0
    9859 WT1  2018 TIP3 OH2  OT    -0.834000       15.9994           0
    9860 WT1  2018 TIP3 H1   HT     0.417000        1.0080           0
    9861 WT1  2018 TIP3 H2   HT     0.417000        1.0080           0
    9862 WT1  2019 TIP3 OH2  OT    -0.834000       15.9994           0
    9863 WT1  2019 TIP3 H1   HT     0.417000        1.0080           0
    9864 WT1  2019 TIP3 H2   HT     0.417000        1.0080           0
    9865 WT1  2020 TIP3 OH2  OT    -0.834000       15.9994           0
    9866 WT1  2020 TIP3 H1   HT     0.417000        1.0080           0
    9867 WT1  2020 TIP3 H2   HT     0.417000        1.0080           0
    9868 WT1  2021 TIP3 OH2  OT    -0.834000       15.9994           0
    9869 WT1  2021 TIP3 H1   HT     0.417000        1.0080           0
    9870 WT1  2021 TIP3 H2   HT     0.417000        1.0080           0
    9871 WT1  2022 TIP3 OH2  OT    -0.834000       15.9994           0
    9872 WT1  2022 TIP3 H1   HT     0.417000        1.0080           0
    9873 WT1  2022 TIP3 H2   HT     0.417000        1.0080           0
    9874 WT1  2023 TIP3 OH2  OT    -0.834000       15.9994           0
    9875 WT1  2023 TIP3 H1   HT     0.417000        1.0080           0
    9876 WT1  2023 TIP3 H2   HT     0.417000        1.0080           0
    9877 WT1  2024 TIP3 OH2  OT    -0.834000       15.9994           0
    9878 WT1  2024 TIP3 H1   HT     0.417000        1.0080           0
    9879 WT1  2024 TIP3 H2   HT     0.417000        1.0080           0
    9880 WT1  2025 TIP3 OH2  OT    -0.834000       15.9994           0
    9881 WT1  2025 TIP3 H1   HT     0.417000        1.0080           0
    9882 WT1  2025 TIP3 H2   HT     0.417000        1.0080           0
    9883 WT1  2026 TIP3 OH2  OT    -0.834000       15.9994           0
    9884 WT1  2026 TIP3 H1   HT     0.417000        1.0080           0
    9885 WT1  2026 TIP3 H2   HT     0.417000        1.0080           0
    9886 WT1  2027 TIP3 OH2  OT    -0.834000       15.9994           0
    9887 WT1  2027 TIP3 H1   HT     0.417000        1.0080           0
    9888 WT1  2027 TIP3 H2   HT     0.417000        1.0080           0
    9889 WT1  2028 TIP3 OH2  OT    -0.834000       15.9994           0
    9890 WT1  2028 TIP3 H1   HT     0.417000        1.0080           0
    9891 WT1  2028 TIP3 H2   HT     0.417000        1.0080           0
    9892 WT1  2029 TIP3 OH2  OT    -0.834000       15.9994           0
    9893 WT1  2029 TIP3 H1   HT     0.417000        1.0080           0
    9894 WT1  2029 TIP3 H2   HT     0.417000        1.0080           0
    9895 WT1  2030 TIP3 OH2  OT    -0.834000       15.9994           0
    9896 WT1  2030 TIP3 H1   HT     0.417000        1.0080           0
    9897 WT1  2030 TIP3 H2   HT     0.417000        1.0080           0
    9898 WT1  2031 TIP3 OH2  OT    -0.834000       15.9994           0
    9899 WT1  2031 TIP3 H1   HT     0.417000        1.0080           0
    9900 WT1  2031 TIP3 H2   HT     0.417000        1.0080           0
    9901 WT1  2032 TIP3 OH2  OT    -0.834000       15.9994           0
    9902 WT1  2032 TIP3 H1   HT     0.417000        1.0080           0
    9903 WT1  2032 TIP3 H2   HT     0.417000        1.0080           0
    9904 WT1  2033 TIP3 OH2  OT    -0.834000       15.9994           0
    9905 WT1  2033 TIP3 H1   HT     0.417000        1.0080           0
    9906 WT1  2033 TIP3 H2   HT     0.417000        1.0080           0
    9907 WT1  2036 TIP3 OH2  OT    -0.834000       15.9994           0
    9908 WT1  2036 TIP3 H1   HT     0.417000        1.0080           0
    9909 WT1  2036 TIP3 H2   HT     0.417000        1.0080           0
    9910 WT1  2037 TIP3 OH2  OT    -0.834000       15.9994           0
    9911 WT1  2037 TIP3 H1   HT     0.417000        1.0080           0
    9912 WT1  2037 TIP3 H2   HT     0.417000        1.0080           0
    9913 WT1  2038 TIP3 OH2  OT    -0.834000       15.9994           0
    9914 WT1  2038 TIP3 H1   HT     0.417000        1.0080           0
    9915 WT1  2038 TIP3 H2   HT     0.417000        1.0080           0
    9916 WT1  2039 TIP3 OH2  OT    -0.834000       15.9994           0
    9917 WT1  2039 TIP3 H1   HT     0.417000        1.0080           0
    9918 WT1  2039 TIP3 H2   HT     0.417000        1.0080           0
    9919 WT1  2040 TIP3 OH2  OT    -0.834000       15.9994           0
    9920 WT1  2040 TIP3 H1   HT     0.417000        1.0080           0
    9921 WT1  2040 TIP3 H2   HT     0.417000        1.0080           0
    9922 WT1  2041 TIP3 OH2  OT    -0.834000       15.9994           0
    9923 WT1  2041 TIP3 H1   HT     0.417000        1.0080           0
    9924 WT1  2041 TIP3 H2   HT     0.417000        1.0080           0
    9925 WT1  2042 TIP3 OH2  OT    -0.834000       15.9994           0
    9926 WT1  2042 TIP3 H1   HT     0.417000        1.0080           0
    9927 WT1  2042 TIP3 H2   HT     0.417000        1.0080           0
    9928 WT1  2043 TIP3 OH2  OT    -0.834000       15.9994           0
    9929 WT1  2043 TIP3 H1   HT     0.417000        1.0080           0
    9930 WT1  2043 TIP3 H2   HT     0.417000        1.0080           0
    9931 WT1  2044 TIP3 OH2  OT    -0.834000       15.9994           0
    9932 WT1  2044 TIP3 H1   HT     0.417000        1.0080           0
    9933 WT1  2044 TIP3 H2   HT     0.417000        1.0080           0
    9934 WT1  2046 TIP3 OH2  OT    -0.834000       15.9994           0
    9935 WT1  2046 TIP3 H1   HT     0.417000        1.0080           0
    9936 WT1  2046 TIP3 H2   HT     0.417000        1.0080           0
    9937 WT1  2047 TIP3 OH2  OT    -0.834000       15.9994           0
    9938 WT1  2047 TIP3 H1   HT     0.417000        1.0080           0
    9939 WT1  2047 TIP3 H2   HT     0.417000        1.0080           0
    9940 WT1  2048 TIP3 OH2  OT    -0.834000       15.9994           0
    9941 WT1  2048 TIP3 H1   HT     0.417000        1.0080           0
    9942 WT1  2048 TIP3 H2   HT     0.417000        1.0080           0
    9943 WT1  2049 TIP3 OH2  OT    -0.834000       15.9994           0
    9944 WT1  2049 TIP3 H1   HT     0.417000        1.0080           0
    9945 WT1  2049 TIP3 H2   HT     0.417000        1.0080           0
    9946 WT1  2050 TIP3 OH2  OT    -0.834000       15.9994           0
    9947 WT1  2050 TIP3 H1   HT     0.417000        1.0080           0
    9948 WT1  2050 TIP3 H2   HT     0.417000        1.0080           0
    9949 WT1  2052 TIP3 OH2  OT    -0.834000       15.9994           0
    9950 WT1  2052 TIP3 H1   HT     0.417000        1.0080           0
    9951 WT1  2052 TIP3 H2   HT     0.417000        1.0080           0
    9952 WT1  2053 TIP3 OH2  OT    -0.834000       15.9994           0
    9953 WT1  2053 TIP3 H1   HT     0.417000        1.0080           0
    9954 WT1  2053 TIP3 H2   HT     0.417000        1.0080           0
    9955 WT1  2054 TIP3 OH2  OT    -0.834000       15.9994           0
    9956 WT1  2054 TIP3 H1   HT     0.417000        1.0080           0
    9957 WT1  2054 TIP3 H2   HT     0.417000        1.0080           0
    9958 WT1  2055 TIP3 OH2  OT    -0.834000       15.9994           0
    9959 WT1  2055 TIP3 H1   HT     0.417000        1.0080           0
    9960 WT1  2055 TIP3 H2   HT     0.417000        1.0080           0
    9961 WT1  2056 TIP3 OH2  OT    -0.834000       15.9994           0
    9962 WT1  2056 TIP3 H1   HT     0.417000        1.0080           0
    9963 WT1  2056 TIP3 H2   HT     0.417000        1.0080           0
    9964 WT1  2057 TIP3 OH2  OT    -0.834000       15.9994           0
    9965 WT1  2057 TIP3 H1   HT     0.417000        1.0080           0
    9966 WT1  2057 TIP3 H2   HT     0.417000        1.0080           0
    9967 WT1  2058 TIP3 OH2  OT    -0.834000       15.9994           0
    9968 WT1  2058 TIP3 H1   HT     0.417000        1.0080           0
    9969 WT1  2058 TIP3 H2   HT     0.417000        1.0080           0
    9970 WT1  2059 TIP3 OH2  OT    -0.834000       15.9994           0
    9971 WT1  2059 TIP3 H1   HT     0.417000        1.0080           0
    9972 WT1  2059 TIP3 H2   HT     0.417000        1.0080           0
    9973 WT1  2060 TIP3 OH2  OT    -0.834000       15.9994           0
    9974 WT1  2060 TIP3 H1   HT     0.417000        1.0080           0
    9975 WT1  2060 TIP3 H2   HT     0.417000        1.0080           0
    9976 WT1  2061 TIP3 OH2  OT    -0.834000       15.9994           0
    9977 WT1  2061 TIP3 H1   HT     0.417000        1.0080           0
    9978 WT1  2061 TIP3 H2   HT     0.417000        1.0080           0
    9979 WT1  2062 TIP3 OH2  OT    -0.834000       15.9994           0
    9980 WT1  2062 TIP3 H1   HT     0.417000        1.0080           0
    9981 WT1  2062 TIP3 H2   HT     0.417000        1.0080           0
    9982 WT1  2063 TIP3 OH2  OT    -0.834000       15.9994           0
    9983 WT1  2063 TIP3 H1   HT     0.417000        1.0080           0
    9984 WT1  2063 TIP3 H2   HT     0.417000        1.0080           0
    9985 WT1  2064 TIP3 OH2  OT    -0.834000       15.9994           0
    9986 WT1  2064 TIP3 H1   HT     0.417000        1.0080           0
    9987 WT1  2064 TIP3 H2   HT     0.417000        1.0080           0
    9988 WT1  2065 TIP3 OH2  OT    -0.834000       15.9994           0
    9989 WT1  2065 TIP3 H1   HT     0.417000        1.0080           0
    9990 WT1  2065 TIP3 H2   HT     0.417000        1.0080           0
    9991 WT1  2066 TIP3 OH2  OT    -0.834000       15.9994           0
    9992 WT1  2066 TIP3 H1   HT     0.417000        1.0080           0
    9993 WT1  2066 TIP3 H2   HT     0.417000        1.0080           0
    9994 WT1  2067 TIP3 OH2  OT    -0.834000       15.9994           0
    9995 WT1  2067 TIP3 H1   HT     0.417000        1.0080           0
    9996 WT1  2067 TIP3 H2   HT     0.417000        1.0080           0
    9997 WT1  2068 TIP3 OH2  OT    -0.834000       15.9994           0
    9998 WT1  2068 TIP3 H1   HT     0.417000        1.0080           0
    9999 WT1  2068 TIP3 H2   HT     0.417000        1.0080           0
   10000 WT1  2069 TIP3 OH2  OT    -0.834000       15.9994           0
   10001 WT1  2069 TIP3 H1   HT     0.417000        1.0080           0
   10002 WT1  2069 TIP3 H2   HT     0.417000        1.0080           0
   10003 WT1  2070 TIP3 OH2  OT    -0.834000       15.9994           0
   10004 WT1  2070 TIP3 H1   HT     0.417000        1.0080           0
   10005 WT1  2070 TIP3 H2   HT     0.417000        1.0080           0
   10006 WT1  2072 TIP3 OH2  OT    -0.834000       15.9994           0
   10007 WT1  2072 TIP3 H1   HT     0.417000        1.0080           0
   10008 WT1  2072 TIP3 H2   HT     0.417000        1.0080           0
   10009 WT1  2073 TIP3 OH2  OT    -0.834000       15.9994           0
   10010 WT1  2073 TIP3 H1   HT     0.417000        1.0080           0
   10011 WT1  2073 TIP3 H2   HT     0.417000        1.0080           0
   10012 WT1  2074 TIP3 OH2  OT    -0.834000       15.9994           0
   10013 WT1  2074 TIP3 H1   HT     0.417000        1.0080           0
   10014 WT1  2074 TIP3 H2   HT     0.417000        1.0080           0
   10015 WT1  2075 TIP3 OH2  OT    -0.834000       15.9994           0
   10016 WT1  2075 TIP3 H1   HT     0.417000        1.0080           0
   10017 WT1  2075 TIP3 H2   HT     0.417000        1.0080           0
   10018 WT1  2076 TIP3 OH2  OT    -0.834000       15.9994           0
   10019 WT1  2076 TIP3 H1   HT     0.417000        1.0080           0
   10020 WT1  2076 TIP3 H2   HT     0.417000        1.0080           0
   10021 WT1  2077 TIP3 OH2  OT    -0.834000       15.9994           0
   10022 WT1  2077 TIP3 H1   HT     0.417000        1.0080           0
   10023 WT1  2077 TIP3 H2   HT     0.417000        1.0080           0
   10024 WT1  2079 TIP3 OH2  OT    -0.834000       15.9994           0
   10025 WT1  2079 TIP3 H1   HT     0.417000        1.0080           0
   10026 WT1  2079 TIP3 H2   HT     0.417000        1.0080           0
   10027 WT1  2080 TIP3 OH2  OT    -0.834000       15.9994           0
   10028 WT1  2080 TIP3 H1   HT     0.417000        1.0080           0
   10029 WT1  2080 TIP3 H2   HT     0.417000        1.0080           0
   10030 WT1  2081 TIP3 OH2  OT    -0.834000       15.9994           0
   10031 WT1  2081 TIP3 H1   HT     0.417000        1.0080           0
   10032 WT1  2081 TIP3 H2   HT     0.417000        1.0080           0
   10033 WT1  2082 TIP3 OH2  OT    -0.834000       15.9994           0
   10034 WT1  2082 TIP3 H1   HT     0.417000        1.0080           0
   10035 WT1  2082 TIP3 H2   HT     0.417000        1.0080           0
   10036 WT1  2083 TIP3 OH2  OT    -0.834000       15.9994           0
   10037 WT1  2083 TIP3 H1   HT     0.417000        1.0080           0
   10038 WT1  2083 TIP3 H2   HT     0.417000        1.0080           0
   10039 WT1  2084 TIP3 OH2  OT    -0.834000       15.9994           0
   10040 WT1  2084 TIP3 H1   HT     0.417000        1.0080           0
   10041 WT1  2084 TIP3 H2   HT     0.417000        1.0080           0
   10042 WT1  2086 TIP3 OH2  OT    -0.834000       15.9994           0
   10043 WT1  2086 TIP3 H1   HT     0.417000        1.0080           0
   10044 WT1  2086 TIP3 H2   HT     0.417000        1.0080           0
   10045 WT1  2087 TIP3 OH2  OT    -0.834000       15.9994           0
   10046 WT1  2087 TIP3 H1   HT     0.417000        1.0080           0
   10047 WT1  2087 TIP3 H2   HT     0.417000        1.0080           0
   10048 WT1  2088 TIP3 OH2  OT    -0.834000       15.9994           0
   10049 WT1  2088 TIP3 H1   HT     0.417000        1.0080           0
   10050 WT1  2088 TIP3 H2   HT     0.417000        1.0080           0
   10051 WT1  2089 TIP3 OH2  OT    -0.834000       15.9994           0
   10052 WT1  2089 TIP3 H1   HT     0.417000        1.0080           0
   10053 WT1  2089 TIP3 H2   HT     0.417000        1.0080           0
   10054 WT1  2090 TIP3 OH2  OT    -0.834000       15.9994           0
   10055 WT1  2090 TIP3 H1   HT     0.417000        1.0080           0
   10056 WT1  2090 TIP3 H2   HT     0.417000        1.0080           0
   10057 WT1  2091 TIP3 OH2  OT    -0.834000       15.9994           0
   10058 WT1  2091 TIP3 H1   HT     0.417000        1.0080           0
   10059 WT1  2091 TIP3 H2   HT     0.417000        1.0080           0
   10060 WT1  2092 TIP3 OH2  OT    -0.834000       15.9994           0
   10061 WT1  2092 TIP3 H1   HT     0.417000        1.0080           0
   10062 WT1  2092 TIP3 H2   HT     0.417000        1.0080           0
   10063 WT1  2093 TIP3 OH2  OT    -0.834000       15.9994           0
   10064 WT1  2093 TIP3 H1   HT     0.417000        1.0080           0
   10065 WT1  2093 TIP3 H2   HT     0.417000        1.0080           0
   10066 WT1  2095 TIP3 OH2  OT    -0.834000       15.9994           0
   10067 WT1  2095 TIP3 H1   HT     0.417000        1.0080           0
   10068 WT1  2095 TIP3 H2   HT     0.417000        1.0080           0
   10069 WT1  2096 TIP3 OH2  OT    -0.834000       15.9994           0
   10070 WT1  2096 TIP3 H1   HT     0.417000        1.0080           0
   10071 WT1  2096 TIP3 H2   HT     0.417000        1.0080           0
   10072 WT1  2097 TIP3 OH2  OT    -0.834000       15.9994           0
   10073 WT1  2097 TIP3 H1   HT     0.417000        1.0080           0
   10074 WT1  2097 TIP3 H2   HT     0.417000        1.0080           0
   10075 WT1  2098 TIP3 OH2  OT    -0.834000       15.9994           0
   10076 WT1  2098 TIP3 H1   HT     0.417000        1.0080           0
   10077 WT1  2098 TIP3 H2   HT     0.417000        1.0080           0
   10078 WT1  2099 TIP3 OH2  OT    -0.834000       15.9994           0
   10079 WT1  2099 TIP3 H1   HT     0.417000        1.0080           0
   10080 WT1  2099 TIP3 H2   HT     0.417000        1.0080           0
   10081 WT1  2102 TIP3 OH2  OT    -0.834000       15.9994           0
   10082 WT1  2102 TIP3 H1   HT     0.417000        1.0080           0
   10083 WT1  2102 TIP3 H2   HT     0.417000        1.0080           0
   10084 WT1  2103 TIP3 OH2  OT    -0.834000       15.9994           0
   10085 WT1  2103 TIP3 H1   HT     0.417000        1.0080           0
   10086 WT1  2103 TIP3 H2   HT     0.417000        1.0080           0
   10087 WT1  2104 TIP3 OH2  OT    -0.834000       15.9994           0
   10088 WT1  2104 TIP3 H1   HT     0.417000        1.0080           0
   10089 WT1  2104 TIP3 H2   HT     0.417000        1.0080           0
   10090 WT1  2105 TIP3 OH2  OT    -0.834000       15.9994           0
   10091 WT1  2105 TIP3 H1   HT     0.417000        1.0080           0
   10092 WT1  2105 TIP3 H2   HT     0.417000        1.0080           0
   10093 WT1  2106 TIP3 OH2  OT    -0.834000       15.9994           0
   10094 WT1  2106 TIP3 H1   HT     0.417000        1.0080           0
   10095 WT1  2106 TIP3 H2   HT     0.417000        1.0080           0
   10096 WT1  2107 TIP3 OH2  OT    -0.834000       15.9994           0
   10097 WT1  2107 TIP3 H1   HT     0.417000        1.0080           0
   10098 WT1  2107 TIP3 H2   HT     0.417000        1.0080           0
   10099 WT1  2108 TIP3 OH2  OT    -0.834000       15.9994           0
   10100 WT1  2108 TIP3 H1   HT     0.417000        1.0080           0
   10101 WT1  2108 TIP3 H2   HT     0.417000        1.0080           0
   10102 WT1  2109 TIP3 OH2  OT    -0.834000       15.9994           0
   10103 WT1  2109 TIP3 H1   HT     0.417000        1.0080           0
   10104 WT1  2109 TIP3 H2   HT     0.417000        1.0080           0
   10105 WT1  2110 TIP3 OH2  OT    -0.834000       15.9994           0
   10106 WT1  2110 TIP3 H1   HT     0.417000        1.0080           0
   10107 WT1  2110 TIP3 H2   HT     0.417000        1.0080           0
   10108 WT1  2111 TIP3 OH2  OT    -0.834000       15.9994           0
   10109 WT1  2111 TIP3 H1   HT     0.417000        1.0080           0
   10110 WT1  2111 TIP3 H2   HT     0.417000        1.0080           0
   10111 WT1  2112 TIP3 OH2  OT    -0.834000       15.9994           0
   10112 WT1  2112 TIP3 H1   HT     0.417000        1.0080           0
   10113 WT1  2112 TIP3 H2   HT     0.417000        1.0080           0
   10114 WT1  2113 TIP3 OH2  OT    -0.834000       15.9994           0
   10115 WT1  2113 TIP3 H1   HT     0.417000        1.0080           0
   10116 WT1  2113 TIP3 H2   HT     0.417000        1.0080           0
   10117 WT1  2114 TIP3 OH2  OT    -0.834000       15.9994           0
   10118 WT1  2114 TIP3 H1   HT     0.417000        1.0080           0
   10119 WT1  2114 TIP3 H2   HT     0.417000        1.0080           0
   10120 WT1  2115 TIP3 OH2  OT    -0.834000       15.9994           0
   10121 WT1  2115 TIP3 H1   HT     0.417000        1.0080           0
   10122 WT1  2115 TIP3 H2   HT     0.417000        1.0080           0
   10123 WT1  2116 TIP3 OH2  OT    -0.834000       15.9994           0
   10124 WT1  2116 TIP3 H1   HT     0.417000        1.0080           0
   10125 WT1  2116 TIP3 H2   HT     0.417000        1.0080           0
   10126 WT1  2117 TIP3 OH2  OT    -0.834000       15.9994           0
   10127 WT1  2117 TIP3 H1   HT     0.417000        1.0080           0
   10128 WT1  2117 TIP3 H2   HT     0.417000        1.0080           0
   10129 WT1  2118 TIP3 OH2  OT    -0.834000       15.9994           0
   10130 WT1  2118 TIP3 H1   HT     0.417000        1.0080           0
   10131 WT1  2118 TIP3 H2   HT     0.417000        1.0080           0
   10132 WT1  2120 TIP3 OH2  OT    -0.834000       15.9994           0
   10133 WT1  2120 TIP3 H1   HT     0.417000        1.0080           0
   10134 WT1  2120 TIP3 H2   HT     0.417000        1.0080           0
   10135 WT1  2122 TIP3 OH2  OT    -0.834000       15.9994           0
   10136 WT1  2122 TIP3 H1   HT     0.417000        1.0080           0
   10137 WT1  2122 TIP3 H2   HT     0.417000        1.0080           0
   10138 WT1  2123 TIP3 OH2  OT    -0.834000       15.9994           0
   10139 WT1  2123 TIP3 H1   HT     0.417000        1.0080           0
   10140 WT1  2123 TIP3 H2   HT     0.417000        1.0080           0
   10141 WT1  2124 TIP3 OH2  OT    -0.834000       15.9994           0
   10142 WT1  2124 TIP3 H1   HT     0.417000        1.0080           0
   10143 WT1  2124 TIP3 H2   HT     0.417000        1.0080           0
   10144 WT1  2125 TIP3 OH2  OT    -0.834000       15.9994           0
   10145 WT1  2125 TIP3 H1   HT     0.417000        1.0080           0
   10146 WT1  2125 TIP3 H2   HT     0.417000        1.0080           0
   10147 WT1  2126 TIP3 OH2  OT    -0.834000       15.9994           0
   10148 WT1  2126 TIP3 H1   HT     0.417000        1.0080           0
   10149 WT1  2126 TIP3 H2   HT     0.417000        1.0080           0
   10150 WT1  2127 TIP3 OH2  OT    -0.834000       15.9994           0
   10151 WT1  2127 TIP3 H1   HT     0.417000        1.0080           0
   10152 WT1  2127 TIP3 H2   HT     0.417000        1.0080           0
   10153 WT1  2128 TIP3 OH2  OT    -0.834000       15.9994           0
   10154 WT1  2128 TIP3 H1   HT     0.417000        1.0080           0
   10155 WT1  2128 TIP3 H2   HT     0.417000        1.0080           0
   10156 WT1  2129 TIP3 OH2  OT    -0.834000       15.9994           0
   10157 WT1  2129 TIP3 H1   HT     0.417000        1.0080           0
   10158 WT1  2129 TIP3 H2   HT     0.417000        1.0080           0
   10159 WT1  2130 TIP3 OH2  OT    -0.834000       15.9994           0
   10160 WT1  2130 TIP3 H1   HT     0.417000        1.0080           0
   10161 WT1  2130 TIP3 H2   HT     0.417000        1.0080           0
   10162 WT1  2131 TIP3 OH2  OT    -0.834000       15.9994           0
   10163 WT1  2131 TIP3 H1   HT     0.417000        1.0080           0
   10164 WT1  2131 TIP3 H2   HT     0.417000        1.0080           0
   10165 WT1  2132 TIP3 OH2  OT    -0.834000       15.9994           0
   10166 WT1  2132 TIP3 H1   HT     0.417000        1.0080           0
   10167 WT1  2132 TIP3 H2   HT     0.417000        1.0080           0
   10168 WT1  2133 TIP3 OH2  OT    -0.834000       15.9994           0
   10169 WT1  2133 TIP3 H1   HT     0.417000        1.0080           0
   10170 WT1  2133 TIP3 H2   HT     0.417000        1.0080           0
   10171 WT1  2134 TIP3 OH2  OT    -0.834000       15.9994           0
   10172 WT1  2134 TIP3 H1   HT     0.417000        1.0080           0
   10173 WT1  2134 TIP3 H2   HT     0.417000        1.0080           0
   10174 WT1  2135 TIP3 OH2  OT    -0.834000       15.9994           0
   10175 WT1  2135 TIP3 H1   HT     0.417000        1.0080           0
   10176 WT1  2135 TIP3 H2   HT     0.417000        1.0080           0
   10177 WT1  2136 TIP3 OH2  OT    -0.834000       15.9994           0
   10178 WT1  2136 TIP3 H1   HT     0.417000        1.0080           0
   10179 WT1  2136 TIP3 H2   HT     0.417000        1.0080           0
   10180 WT1  2137 TIP3 OH2  OT    -0.834000       15.9994           0
   10181 WT1  2137 TIP3 H1   HT     0.417000        1.0080           0
   10182 WT1  2137 TIP3 H2   HT     0.417000        1.0080           0
   10183 WT1  2138 TIP3 OH2  OT    -0.834000       15.9994           0
   10184 WT1  2138 TIP3 H1   HT     0.417000        1.0080           0
   10185 WT1  2138 TIP3 H2   HT     0.417000        1.0080           0
   10186 WT1  2140 TIP3 OH2  OT    -0.834000       15.9994           0
   10187 WT1  2140 TIP3 H1   HT     0.417000        1.0080           0
   10188 WT1  2140 TIP3 H2   HT     0.417000        1.0080           0
   10189 WT1  2141 TIP3 OH2  OT    -0.834000       15.9994           0
   10190 WT1  2141 TIP3 H1   HT     0.417000        1.0080           0
   10191 WT1  2141 TIP3 H2   HT     0.417000        1.0080           0
   10192 WT1  2142 TIP3 OH2  OT    -0.834000       15.9994           0
   10193 WT1  2142 TIP3 H1   HT     0.417000        1.0080           0
   10194 WT1  2142 TIP3 H2   HT     0.417000        1.0080           0
   10195 WT1  2143 TIP3 OH2  OT    -0.834000       15.9994           0
   10196 WT1  2143 TIP3 H1   HT     0.417000        1.0080           0
   10197 WT1  2143 TIP3 H2   HT     0.417000        1.0080           0
   10198 WT1  2145 TIP3 OH2  OT    -0.834000       15.9994           0
   10199 WT1  2145 TIP3 H1   HT     0.417000        1.0080           0
   10200 WT1  2145 TIP3 H2   HT     0.417000        1.0080           0
   10201 WT1  2146 TIP3 OH2  OT    -0.834000       15.9994           0
   10202 WT1  2146 TIP3 H1   HT     0.417000        1.0080           0
   10203 WT1  2146 TIP3 H2   HT     0.417000        1.0080           0
   10204 WT1  2147 TIP3 OH2  OT    -0.834000       15.9994           0
   10205 WT1  2147 TIP3 H1   HT     0.417000        1.0080           0
   10206 WT1  2147 TIP3 H2   HT     0.417000        1.0080           0
   10207 WT1  2148 TIP3 OH2  OT    -0.834000       15.9994           0
   10208 WT1  2148 TIP3 H1   HT     0.417000        1.0080           0
   10209 WT1  2148 TIP3 H2   HT     0.417000        1.0080           0
   10210 WT1  2149 TIP3 OH2  OT    -0.834000       15.9994           0
   10211 WT1  2149 TIP3 H1   HT     0.417000        1.0080           0
   10212 WT1  2149 TIP3 H2   HT     0.417000        1.0080           0
   10213 WT1  2151 TIP3 OH2  OT    -0.834000       15.9994           0
   10214 WT1  2151 TIP3 H1   HT     0.417000        1.0080           0
   10215 WT1  2151 TIP3 H2   HT     0.417000        1.0080           0
   10216 WT1  2152 TIP3 OH2  OT    -0.834000       15.9994           0
   10217 WT1  2152 TIP3 H1   HT     0.417000        1.0080           0
   10218 WT1  2152 TIP3 H2   HT     0.417000        1.0080           0
   10219 WT1  2153 TIP3 OH2  OT    -0.834000       15.9994           0
   10220 WT1  2153 TIP3 H1   HT     0.417000        1.0080           0
   10221 WT1  2153 TIP3 H2   HT     0.417000        1.0080           0
   10222 WT1  2154 TIP3 OH2  OT    -0.834000       15.9994           0
   10223 WT1  2154 TIP3 H1   HT     0.417000        1.0080           0
   10224 WT1  2154 TIP3 H2   HT     0.417000        1.0080           0
   10225 WT1  2155 TIP3 OH2  OT    -0.834000       15.9994           0
   10226 WT1  2155 TIP3 H1   HT     0.417000        1.0080           0
   10227 WT1  2155 TIP3 H2   HT     0.417000        1.0080           0
   10228 WT1  2156 TIP3 OH2  OT    -0.834000       15.9994           0
   10229 WT1  2156 TIP3 H1   HT     0.417000        1.0080           0
   10230 WT1  2156 TIP3 H2   HT     0.417000        1.0080           0
   10231 WT1  2157 TIP3 OH2  OT    -0.834000       15.9994           0
   10232 WT1  2157 TIP3 H1   HT     0.417000        1.0080           0
   10233 WT1  2157 TIP3 H2   HT     0.417000        1.0080           0
   10234 WT1  2158 TIP3 OH2  OT    -0.834000       15.9994           0
   10235 WT1  2158 TIP3 H1   HT     0.417000        1.0080           0
   10236 WT1  2158 TIP3 H2   HT     0.417000        1.0080           0
   10237 WT1  2159 TIP3 OH2  OT    -0.834000       15.9994           0
   10238 WT1  2159 TIP3 H1   HT     0.417000        1.0080           0
   10239 WT1  2159 TIP3 H2   HT     0.417000        1.0080           0
   10240 WT1  2160 TIP3 OH2  OT    -0.834000       15.9994           0
   10241 WT1  2160 TIP3 H1   HT     0.417000        1.0080           0
   10242 WT1  2160 TIP3 H2   HT     0.417000        1.0080           0
   10243 WT1  2161 TIP3 OH2  OT    -0.834000       15.9994           0
   10244 WT1  2161 TIP3 H1   HT     0.417000        1.0080           0
   10245 WT1  2161 TIP3 H2   HT     0.417000        1.0080           0
   10246 WT1  2162 TIP3 OH2  OT    -0.834000       15.9994           0
   10247 WT1  2162 TIP3 H1   HT     0.417000        1.0080           0
   10248 WT1  2162 TIP3 H2   HT     0.417000        1.0080           0
   10249 WT1  2163 TIP3 OH2  OT    -0.834000       15.9994           0
   10250 WT1  2163 TIP3 H1   HT     0.417000        1.0080           0
   10251 WT1  2163 TIP3 H2   HT     0.417000        1.0080           0
   10252 WT1  2165 TIP3 OH2  OT    -0.834000       15.9994           0
   10253 WT1  2165 TIP3 H1   HT     0.417000        1.0080           0
   10254 WT1  2165 TIP3 H2   HT     0.417000        1.0080           0
   10255 WT1  2166 TIP3 OH2  OT    -0.834000       15.9994           0
   10256 WT1  2166 TIP3 H1   HT     0.417000        1.0080           0
   10257 WT1  2166 TIP3 H2   HT     0.417000        1.0080           0
   10258 WT1  2167 TIP3 OH2  OT    -0.834000       15.9994           0
   10259 WT1  2167 TIP3 H1   HT     0.417000        1.0080           0
   10260 WT1  2167 TIP3 H2   HT     0.417000        1.0080           0
   10261 WT1  2168 TIP3 OH2  OT    -0.834000       15.9994           0
   10262 WT1  2168 TIP3 H1   HT     0.417000        1.0080           0
   10263 WT1  2168 TIP3 H2   HT     0.417000        1.0080           0
   10264 WT1  2169 TIP3 OH2  OT    -0.834000       15.9994           0
   10265 WT1  2169 TIP3 H1   HT     0.417000        1.0080           0
   10266 WT1  2169 TIP3 H2   HT     0.417000        1.0080           0
   10267 WT1  2170 TIP3 OH2  OT    -0.834000       15.9994           0
   10268 WT1  2170 TIP3 H1   HT     0.417000        1.0080           0
   10269 WT1  2170 TIP3 H2   HT     0.417000        1.0080           0
   10270 WT1  2171 TIP3 OH2  OT    -0.834000       15.9994           0
   10271 WT1  2171 TIP3 H1   HT     0.417000        1.0080           0
   10272 WT1  2171 TIP3 H2   HT     0.417000        1.0080           0
   10273 WT1  2172 TIP3 OH2  OT    -0.834000       15.9994           0
   10274 WT1  2172 TIP3 H1   HT     0.417000        1.0080           0
   10275 WT1  2172 TIP3 H2   HT     0.417000        1.0080           0
   10276 WT1  2173 TIP3 OH2  OT    -0.834000       15.9994           0
   10277 WT1  2173 TIP3 H1   HT     0.417000        1.0080           0
   10278 WT1  2173 TIP3 H2   HT     0.417000        1.0080           0
   10279 WT1  2174 TIP3 OH2  OT    -0.834000       15.9994           0
   10280 WT1  2174 TIP3 H1   HT     0.417000        1.0080           0
   10281 WT1  2174 TIP3 H2   HT     0.417000        1.0080           0
   10282 WT1  2176 TIP3 OH2  OT    -0.834000       15.9994           0
   10283 WT1  2176 TIP3 H1   HT     0.417000        1.0080           0
   10284 WT1  2176 TIP3 H2   HT     0.417000        1.0080           0
   10285 WT1  2177 TIP3 OH2  OT    -0.834000       15.9994           0
   10286 WT1  2177 TIP3 H1   HT     0.417000        1.0080           0
   10287 WT1  2177 TIP3 H2   HT     0.417000        1.0080           0
   10288 WT1  2178 TIP3 OH2  OT    -0.834000       15.9994           0
   10289 WT1  2178 TIP3 H1   HT     0.417000        1.0080           0
   10290 WT1  2178 TIP3 H2   HT     0.417000        1.0080           0
   10291 WT1  2180 TIP3 OH2  OT    -0.834000       15.9994           0
   10292 WT1  2180 TIP3 H1   HT     0.417000        1.0080           0
   10293 WT1  2180 TIP3 H2   HT     0.417000        1.0080           0
   10294 WT1  2183 TIP3 OH2  OT    -0.834000       15.9994           0
   10295 WT1  2183 TIP3 H1   HT     0.417000        1.0080           0
   10296 WT1  2183 TIP3 H2   HT     0.417000        1.0080           0
   10297 WT1  2185 TIP3 OH2  OT    -0.834000       15.9994           0
   10298 WT1  2185 TIP3 H1   HT     0.417000        1.0080           0
   10299 WT1  2185 TIP3 H2   HT     0.417000        1.0080           0
   10300 WT1  2186 TIP3 OH2  OT    -0.834000       15.9994           0
   10301 WT1  2186 TIP3 H1   HT     0.417000        1.0080           0
   10302 WT1  2186 TIP3 H2   HT     0.417000        1.0080           0
   10303 WT1  2187 TIP3 OH2  OT    -0.834000       15.9994           0
   10304 WT1  2187 TIP3 H1   HT     0.417000        1.0080           0
   10305 WT1  2187 TIP3 H2   HT     0.417000        1.0080           0
   10306 WT1  2188 TIP3 OH2  OT    -0.834000       15.9994           0
   10307 WT1  2188 TIP3 H1   HT     0.417000        1.0080           0
   10308 WT1  2188 TIP3 H2   HT     0.417000        1.0080           0
   10309 WT1  2189 TIP3 OH2  OT    -0.834000       15.9994           0
   10310 WT1  2189 TIP3 H1   HT     0.417000        1.0080           0
   10311 WT1  2189 TIP3 H2   HT     0.417000        1.0080           0
   10312 WT1  2190 TIP3 OH2  OT    -0.834000       15.9994           0
   10313 WT1  2190 TIP3 H1   HT     0.417000        1.0080           0
   10314 WT1  2190 TIP3 H2   HT     0.417000        1.0080           0
   10315 WT1  2191 TIP3 OH2  OT    -0.834000       15.9994           0
   10316 WT1  2191 TIP3 H1   HT     0.417000        1.0080           0
   10317 WT1  2191 TIP3 H2   HT     0.417000        1.0080           0
   10318 WT1  2192 TIP3 OH2  OT    -0.834000       15.9994           0
   10319 WT1  2192 TIP3 H1   HT     0.417000        1.0080           0
   10320 WT1  2192 TIP3 H2   HT     0.417000        1.0080           0
   10321 WT1  2193 TIP3 OH2  OT    -0.834000       15.9994           0
   10322 WT1  2193 TIP3 H1   HT     0.417000        1.0080           0
   10323 WT1  2193 TIP3 H2   HT     0.417000        1.0080           0
   10324 WT1  2194 TIP3 OH2  OT    -0.834000       15.9994           0
   10325 WT1  2194 TIP3 H1   HT     0.417000        1.0080           0
   10326 WT1  2194 TIP3 H2   HT     0.417000        1.0080           0
   10327 WT1  2195 TIP3 OH2  OT    -0.834000       15.9994           0
   10328 WT1  2195 TIP3 H1   HT     0.417000        1.0080           0
   10329 WT1  2195 TIP3 H2   HT     0.417000        1.0080           0
   10330 WT1  2196 TIP3 OH2  OT    -0.834000       15.9994           0
   10331 WT1  2196 TIP3 H1   HT     0.417000        1.0080           0
   10332 WT1  2196 TIP3 H2   HT     0.417000        1.0080           0
   10333 WT1  2197 TIP3 OH2  OT    -0.834000       15.9994           0
   10334 WT1  2197 TIP3 H1   HT     0.417000        1.0080           0
   10335 WT1  2197 TIP3 H2   HT     0.417000        1.0080           0
   10336 WT1  2198 TIP3 OH2  OT    -0.834000       15.9994           0
   10337 WT1  2198 TIP3 H1   HT     0.417000        1.0080           0
   10338 WT1  2198 TIP3 H2   HT     0.417000        1.0080           0
   10339 WT1  2199 TIP3 OH2  OT    -0.834000       15.9994           0
   10340 WT1  2199 TIP3 H1   HT     0.417000        1.0080           0
   10341 WT1  2199 TIP3 H2   HT     0.417000        1.0080           0
   10342 WT1  2200 TIP3 OH2  OT    -0.834000       15.9994           0
   10343 WT1  2200 TIP3 H1   HT     0.417000        1.0080           0
   10344 WT1  2200 TIP3 H2   HT     0.417000        1.0080           0
   10345 WT1  2201 TIP3 OH2  OT    -0.834000       15.9994           0
   10346 WT1  2201 TIP3 H1   HT     0.417000        1.0080           0
   10347 WT1  2201 TIP3 H2   HT     0.417000        1.0080           0
   10348 WT1  2202 TIP3 OH2  OT    -0.834000       15.9994           0
   10349 WT1  2202 TIP3 H1   HT     0.417000        1.0080           0
   10350 WT1  2202 TIP3 H2   HT     0.417000        1.0080           0
   10351 WT1  2203 TIP3 OH2  OT    -0.834000       15.9994           0
   10352 WT1  2203 TIP3 H1   HT     0.417000        1.0080           0
   10353 WT1  2203 TIP3 H2   HT     0.417000        1.0080           0
   10354 WT1  2204 TIP3 OH2  OT    -0.834000       15.9994           0
   10355 WT1  2204 TIP3 H1   HT     0.417000        1.0080           0
   10356 WT1  2204 TIP3 H2   HT     0.417000        1.0080           0
   10357 WT1  2205 TIP3 OH2  OT    -0.834000       15.9994           0
   10358 WT1  2205 TIP3 H1   HT     0.417000        1.0080           0
   10359 WT1  2205 TIP3 H2   HT     0.417000        1.0080           0
   10360 WT1  2206 TIP3 OH2  OT    -0.834000       15.9994           0
   10361 WT1  2206 TIP3 H1   HT     0.417000        1.0080           0
   10362 WT1  2206 TIP3 H2   HT     0.417000        1.0080           0
   10363 WT1  2208 TIP3 OH2  OT    -0.834000       15.9994           0
   10364 WT1  2208 TIP3 H1   HT     0.417000        1.0080           0
   10365 WT1  2208 TIP3 H2   HT     0.417000        1.0080           0
   10366 WT1  2209 TIP3 OH2  OT    -0.834000       15.9994           0
   10367 WT1  2209 TIP3 H1   HT     0.417000        1.0080           0
   10368 WT1  2209 TIP3 H2   HT     0.417000        1.0080           0
   10369 WT1  2210 TIP3 OH2  OT    -0.834000       15.9994           0
   10370 WT1  2210 TIP3 H1   HT     0.417000        1.0080           0
   10371 WT1  2210 TIP3 H2   HT     0.417000        1.0080           0
   10372 WT1  2211 TIP3 OH2  OT    -0.834000       15.9994           0
   10373 WT1  2211 TIP3 H1   HT     0.417000        1.0080           0
   10374 WT1  2211 TIP3 H2   HT     0.417000        1.0080           0
   10375 WT1  2212 TIP3 OH2  OT    -0.834000       15.9994           0
   10376 WT1  2212 TIP3 H1   HT     0.417000        1.0080           0
   10377 WT1  2212 TIP3 H2   HT     0.417000        1.0080           0
   10378 WT1  2213 TIP3 OH2  OT    -0.834000       15.9994           0
   10379 WT1  2213 TIP3 H1   HT     0.417000        1.0080           0
   10380 WT1  2213 TIP3 H2   HT     0.417000        1.0080           0
   10381 WT1  2214 TIP3 OH2  OT    -0.834000       15.9994           0
   10382 WT1  2214 TIP3 H1   HT     0.417000        1.0080           0
   10383 WT1  2214 TIP3 H2   HT     0.417000        1.0080           0
   10384 WT1  2215 TIP3 OH2  OT    -0.834000       15.9994           0
   10385 WT1  2215 TIP3 H1   HT     0.417000        1.0080           0
   10386 WT1  2215 TIP3 H2   HT     0.417000        1.0080           0
   10387 WT1  2216 TIP3 OH2  OT    -0.834000       15.9994           0
   10388 WT1  2216 TIP3 H1   HT     0.417000        1.0080           0
   10389 WT1  2216 TIP3 H2   HT     0.417000        1.0080           0
   10390 WT1  2217 TIP3 OH2  OT    -0.834000       15.9994           0
   10391 WT1  2217 TIP3 H1   HT     0.417000        1.0080           0
   10392 WT1  2217 TIP3 H2   HT     0.417000        1.0080           0
   10393 WT1  2218 TIP3 OH2  OT    -0.834000       15.9994           0
   10394 WT1  2218 TIP3 H1   HT     0.417000        1.0080           0
   10395 WT1  2218 TIP3 H2   HT     0.417000        1.0080           0
   10396 WT1  2219 TIP3 OH2  OT    -0.834000       15.9994           0
   10397 WT1  2219 TIP3 H1   HT     0.417000        1.0080           0
   10398 WT1  2219 TIP3 H2   HT     0.417000        1.0080           0
   10399 WT1  2220 TIP3 OH2  OT    -0.834000       15.9994           0
   10400 WT1  2220 TIP3 H1   HT     0.417000        1.0080           0
   10401 WT1  2220 TIP3 H2   HT     0.417000        1.0080           0
   10402 WT1  2223 TIP3 OH2  OT    -0.834000       15.9994           0
   10403 WT1  2223 TIP3 H1   HT     0.417000        1.0080           0
   10404 WT1  2223 TIP3 H2   HT     0.417000        1.0080           0
   10405 WT1  2224 TIP3 OH2  OT    -0.834000       15.9994           0
   10406 WT1  2224 TIP3 H1   HT     0.417000        1.0080           0
   10407 WT1  2224 TIP3 H2   HT     0.417000        1.0080           0
   10408 WT1  2225 TIP3 OH2  OT    -0.834000       15.9994           0
   10409 WT1  2225 TIP3 H1   HT     0.417000        1.0080           0
   10410 WT1  2225 TIP3 H2   HT     0.417000        1.0080           0
   10411 WT1  2227 TIP3 OH2  OT    -0.834000       15.9994           0
   10412 WT1  2227 TIP3 H1   HT     0.417000        1.0080           0
   10413 WT1  2227 TIP3 H2   HT     0.417000        1.0080           0
   10414 WT1  2228 TIP3 OH2  OT    -0.834000       15.9994           0
   10415 WT1  2228 TIP3 H1   HT     0.417000        1.0080           0
   10416 WT1  2228 TIP3 H2   HT     0.417000        1.0080           0
   10417 WT1  2229 TIP3 OH2  OT    -0.834000       15.9994           0
   10418 WT1  2229 TIP3 H1   HT     0.417000        1.0080           0
   10419 WT1  2229 TIP3 H2   HT     0.417000        1.0080           0
   10420 WT1  2230 TIP3 OH2  OT    -0.834000       15.9994           0
   10421 WT1  2230 TIP3 H1   HT     0.417000        1.0080           0
   10422 WT1  2230 TIP3 H2   HT     0.417000        1.0080           0
   10423 WT1  2231 TIP3 OH2  OT    -0.834000       15.9994           0
   10424 WT1  2231 TIP3 H1   HT     0.417000        1.0080           0
   10425 WT1  2231 TIP3 H2   HT     0.417000        1.0080           0
   10426 WT1  2232 TIP3 OH2  OT    -0.834000       15.9994           0
   10427 WT1  2232 TIP3 H1   HT     0.417000        1.0080           0
   10428 WT1  2232 TIP3 H2   HT     0.417000        1.0080           0
   10429 WT1  2233 TIP3 OH2  OT    -0.834000       15.9994           0
   10430 WT1  2233 TIP3 H1   HT     0.417000        1.0080           0
   10431 WT1  2233 TIP3 H2   HT     0.417000        1.0080           0
   10432 WT1  2234 TIP3 OH2  OT    -0.834000       15.9994           0
   10433 WT1  2234 TIP3 H1   HT     0.417000        1.0080           0
   10434 WT1  2234 TIP3 H2   HT     0.417000        1.0080           0
   10435 WT1  2235 TIP3 OH2  OT    -0.834000       15.9994           0
   10436 WT1  2235 TIP3 H1   HT     0.417000        1.0080           0
   10437 WT1  2235 TIP3 H2   HT     0.417000        1.0080           0
   10438 WT1  2236 TIP3 OH2  OT    -0.834000       15.9994           0
   10439 WT1  2236 TIP3 H1   HT     0.417000        1.0080           0
   10440 WT1  2236 TIP3 H2   HT     0.417000        1.0080           0
   10441 WT1  2237 TIP3 OH2  OT    -0.834000       15.9994           0
   10442 WT1  2237 TIP3 H1   HT     0.417000        1.0080           0
   10443 WT1  2237 TIP3 H2   HT     0.417000        1.0080           0
   10444 WT1  2238 TIP3 OH2  OT    -0.834000       15.9994           0
   10445 WT1  2238 TIP3 H1   HT     0.417000        1.0080           0
   10446 WT1  2238 TIP3 H2   HT     0.417000        1.0080           0
   10447 WT1  2239 TIP3 OH2  OT    -0.834000       15.9994           0
   10448 WT1  2239 TIP3 H1   HT     0.417000        1.0080           0
   10449 WT1  2239 TIP3 H2   HT     0.417000        1.0080           0
   10450 WT1  2240 TIP3 OH2  OT    -0.834000       15.9994           0
   10451 WT1  2240 TIP3 H1   HT     0.417000        1.0080           0
   10452 WT1  2240 TIP3 H2   HT     0.417000        1.0080           0
   10453 WT1  2241 TIP3 OH2  OT    -0.834000       15.9994           0
   10454 WT1  2241 TIP3 H1   HT     0.417000        1.0080           0
   10455 WT1  2241 TIP3 H2   HT     0.417000        1.0080           0
   10456 WT1  2242 TIP3 OH2  OT    -0.834000       15.9994           0
   10457 WT1  2242 TIP3 H1   HT     0.417000        1.0080           0
   10458 WT1  2242 TIP3 H2   HT     0.417000        1.0080           0
   10459 WT1  2244 TIP3 OH2  OT    -0.834000       15.9994           0
   10460 WT1  2244 TIP3 H1   HT     0.417000        1.0080           0
   10461 WT1  2244 TIP3 H2   HT     0.417000        1.0080           0
   10462 WT1  2245 TIP3 OH2  OT    -0.834000       15.9994           0
   10463 WT1  2245 TIP3 H1   HT     0.417000        1.0080           0
   10464 WT1  2245 TIP3 H2   HT     0.417000        1.0080           0
   10465 WT1  2247 TIP3 OH2  OT    -0.834000       15.9994           0
   10466 WT1  2247 TIP3 H1   HT     0.417000        1.0080           0
   10467 WT1  2247 TIP3 H2   HT     0.417000        1.0080           0
   10468 WT1  2249 TIP3 OH2  OT    -0.834000       15.9994           0
   10469 WT1  2249 TIP3 H1   HT     0.417000        1.0080           0
   10470 WT1  2249 TIP3 H2   HT     0.417000        1.0080           0
   10471 WT1  2250 TIP3 OH2  OT    -0.834000       15.9994           0
   10472 WT1  2250 TIP3 H1   HT     0.417000        1.0080           0
   10473 WT1  2250 TIP3 H2   HT     0.417000        1.0080           0
   10474 WT1  2251 TIP3 OH2  OT    -0.834000       15.9994           0
   10475 WT1  2251 TIP3 H1   HT     0.417000        1.0080           0
   10476 WT1  2251 TIP3 H2   HT     0.417000        1.0080           0
   10477 WT1  2252 TIP3 OH2  OT    -0.834000       15.9994           0
   10478 WT1  2252 TIP3 H1   HT     0.417000        1.0080           0
   10479 WT1  2252 TIP3 H2   HT     0.417000        1.0080           0
   10480 WT1  2253 TIP3 OH2  OT    -0.834000       15.9994           0
   10481 WT1  2253 TIP3 H1   HT     0.417000        1.0080           0
   10482 WT1  2253 TIP3 H2   HT     0.417000        1.0080           0
   10483 WT1  2254 TIP3 OH2  OT    -0.834000       15.9994           0
   10484 WT1  2254 TIP3 H1   HT     0.417000        1.0080           0
   10485 WT1  2254 TIP3 H2   HT     0.417000        1.0080           0
   10486 WT1  2255 TIP3 OH2  OT    -0.834000       15.9994           0
   10487 WT1  2255 TIP3 H1   HT     0.417000        1.0080           0
   10488 WT1  2255 TIP3 H2   HT     0.417000        1.0080           0
   10489 WT1  2256 TIP3 OH2  OT    -0.834000       15.9994           0
   10490 WT1  2256 TIP3 H1   HT     0.417000        1.0080           0
   10491 WT1  2256 TIP3 H2   HT     0.417000        1.0080           0
   10492 WT1  2257 TIP3 OH2  OT    -0.834000       15.9994           0
   10493 WT1  2257 TIP3 H1   HT     0.417000        1.0080           0
   10494 WT1  2257 TIP3 H2   HT     0.417000        1.0080           0
   10495 WT1  2258 TIP3 OH2  OT    -0.834000       15.9994           0
   10496 WT1  2258 TIP3 H1   HT     0.417000        1.0080           0
   10497 WT1  2258 TIP3 H2   HT     0.417000        1.0080           0
   10498 WT1  2259 TIP3 OH2  OT    -0.834000       15.9994           0
   10499 WT1  2259 TIP3 H1   HT     0.417000        1.0080           0
   10500 WT1  2259 TIP3 H2   HT     0.417000        1.0080           0
   10501 WT1  2260 TIP3 OH2  OT    -0.834000       15.9994           0
   10502 WT1  2260 TIP3 H1   HT     0.417000        1.0080           0
   10503 WT1  2260 TIP3 H2   HT     0.417000        1.0080           0
   10504 WT1  2261 TIP3 OH2  OT    -0.834000       15.9994           0
   10505 WT1  2261 TIP3 H1   HT     0.417000        1.0080           0
   10506 WT1  2261 TIP3 H2   HT     0.417000        1.0080           0
   10507 WT1  2262 TIP3 OH2  OT    -0.834000       15.9994           0
   10508 WT1  2262 TIP3 H1   HT     0.417000        1.0080           0
   10509 WT1  2262 TIP3 H2   HT     0.417000        1.0080           0
   10510 WT1  2264 TIP3 OH2  OT    -0.834000       15.9994           0
   10511 WT1  2264 TIP3 H1   HT     0.417000        1.0080           0
   10512 WT1  2264 TIP3 H2   HT     0.417000        1.0080           0
   10513 WT1  2265 TIP3 OH2  OT    -0.834000       15.9994           0
   10514 WT1  2265 TIP3 H1   HT     0.417000        1.0080           0
   10515 WT1  2265 TIP3 H2   HT     0.417000        1.0080           0
   10516 WT1  2267 TIP3 OH2  OT    -0.834000       15.9994           0
   10517 WT1  2267 TIP3 H1   HT     0.417000        1.0080           0
   10518 WT1  2267 TIP3 H2   HT     0.417000        1.0080           0
   10519 WT1  2269 TIP3 OH2  OT    -0.834000       15.9994           0
   10520 WT1  2269 TIP3 H1   HT     0.417000        1.0080           0
   10521 WT1  2269 TIP3 H2   HT     0.417000        1.0080           0
   10522 WT1  2270 TIP3 OH2  OT    -0.834000       15.9994           0
   10523 WT1  2270 TIP3 H1   HT     0.417000        1.0080           0
   10524 WT1  2270 TIP3 H2   HT     0.417000        1.0080           0
   10525 WT1  2271 TIP3 OH2  OT    -0.834000       15.9994           0
   10526 WT1  2271 TIP3 H1   HT     0.417000        1.0080           0
   10527 WT1  2271 TIP3 H2   HT     0.417000        1.0080           0
   10528 WT1  2272 TIP3 OH2  OT    -0.834000       15.9994           0
   10529 WT1  2272 TIP3 H1   HT     0.417000        1.0080           0
   10530 WT1  2272 TIP3 H2   HT     0.417000        1.0080           0
   10531 WT1  2273 TIP3 OH2  OT    -0.834000       15.9994           0
   10532 WT1  2273 TIP3 H1   HT     0.417000        1.0080           0
   10533 WT1  2273 TIP3 H2   HT     0.417000        1.0080           0
   10534 WT1  2274 TIP3 OH2  OT    -0.834000       15.9994           0
   10535 WT1  2274 TIP3 H1   HT     0.417000        1.0080           0
   10536 WT1  2274 TIP3 H2   HT     0.417000        1.0080           0
   10537 WT1  2275 TIP3 OH2  OT    -0.834000       15.9994           0
   10538 WT1  2275 TIP3 H1   HT     0.417000        1.0080           0
   10539 WT1  2275 TIP3 H2   HT     0.417000        1.0080           0
   10540 WT1  2276 TIP3 OH2  OT    -0.834000       15.9994           0
   10541 WT1  2276 TIP3 H1   HT     0.417000        1.0080           0
   10542 WT1  2276 TIP3 H2   HT     0.417000        1.0080           0
   10543 WT1  2277 TIP3 OH2  OT    -0.834000       15.9994           0
   10544 WT1  2277 TIP3 H1   HT     0.417000        1.0080           0
   10545 WT1  2277 TIP3 H2   HT     0.417000        1.0080           0
   10546 WT1  2278 TIP3 OH2  OT    -0.834000       15.9994           0
   10547 WT1  2278 TIP3 H1   HT     0.417000        1.0080           0
   10548 WT1  2278 TIP3 H2   HT     0.417000        1.0080           0
   10549 WT1  2279 TIP3 OH2  OT    -0.834000       15.9994           0
   10550 WT1  2279 TIP3 H1   HT     0.417000        1.0080           0
   10551 WT1  2279 TIP3 H2   HT     0.417000        1.0080           0
   10552 WT1  2280 TIP3 OH2  OT    -0.834000       15.9994           0
   10553 WT1  2280 TIP3 H1   HT     0.417000        1.0080           0
   10554 WT1  2280 TIP3 H2   HT     0.417000        1.0080           0
   10555 WT1  2281 TIP3 OH2  OT    -0.834000       15.9994           0
   10556 WT1  2281 TIP3 H1   HT     0.417000        1.0080           0
   10557 WT1  2281 TIP3 H2   HT     0.417000        1.0080           0
   10558 WT1  2282 TIP3 OH2  OT    -0.834000       15.9994           0
   10559 WT1  2282 TIP3 H1   HT     0.417000        1.0080           0
   10560 WT1  2282 TIP3 H2   HT     0.417000        1.0080           0
   10561 WT1  2283 TIP3 OH2  OT    -0.834000       15.9994           0
   10562 WT1  2283 TIP3 H1   HT     0.417000        1.0080           0
   10563 WT1  2283 TIP3 H2   HT     0.417000        1.0080           0
   10564 WT1  2284 TIP3 OH2  OT    -0.834000       15.9994           0
   10565 WT1  2284 TIP3 H1   HT     0.417000        1.0080           0
   10566 WT1  2284 TIP3 H2   HT     0.417000        1.0080           0
   10567 WT1  2285 TIP3 OH2  OT    -0.834000       15.9994           0
   10568 WT1  2285 TIP3 H1   HT     0.417000        1.0080           0
   10569 WT1  2285 TIP3 H2   HT     0.417000        1.0080           0
   10570 WT1  2286 TIP3 OH2  OT    -0.834000       15.9994           0
   10571 WT1  2286 TIP3 H1   HT     0.417000        1.0080           0
   10572 WT1  2286 TIP3 H2   HT     0.417000        1.0080           0
   10573 WT1  2288 TIP3 OH2  OT    -0.834000       15.9994           0
   10574 WT1  2288 TIP3 H1   HT     0.417000        1.0080           0
   10575 WT1  2288 TIP3 H2   HT     0.417000        1.0080           0
   10576 WT1  2289 TIP3 OH2  OT    -0.834000       15.9994           0
   10577 WT1  2289 TIP3 H1   HT     0.417000        1.0080           0
   10578 WT1  2289 TIP3 H2   HT     0.417000        1.0080           0
   10579 WT1  2290 TIP3 OH2  OT    -0.834000       15.9994           0
   10580 WT1  2290 TIP3 H1   HT     0.417000        1.0080           0
   10581 WT1  2290 TIP3 H2   HT     0.417000        1.0080           0
   10582 WT1  2291 TIP3 OH2  OT    -0.834000       15.9994           0
   10583 WT1  2291 TIP3 H1   HT     0.417000        1.0080           0
   10584 WT1  2291 TIP3 H2   HT     0.417000        1.0080           0
   10585 WT1  2292 TIP3 OH2  OT    -0.834000       15.9994           0
   10586 WT1  2292 TIP3 H1   HT     0.417000        1.0080           0
   10587 WT1  2292 TIP3 H2   HT     0.417000        1.0080           0
   10588 WT1  2293 TIP3 OH2  OT    -0.834000       15.9994           0
   10589 WT1  2293 TIP3 H1   HT     0.417000        1.0080           0
   10590 WT1  2293 TIP3 H2   HT     0.417000        1.0080           0
   10591 WT1  2294 TIP3 OH2  OT    -0.834000       15.9994           0
   10592 WT1  2294 TIP3 H1   HT     0.417000        1.0080           0
   10593 WT1  2294 TIP3 H2   HT     0.417000        1.0080           0
   10594 WT1  2295 TIP3 OH2  OT    -0.834000       15.9994           0
   10595 WT1  2295 TIP3 H1   HT     0.417000        1.0080           0
   10596 WT1  2295 TIP3 H2   HT     0.417000        1.0080           0
   10597 WT1  2296 TIP3 OH2  OT    -0.834000       15.9994           0
   10598 WT1  2296 TIP3 H1   HT     0.417000        1.0080           0
   10599 WT1  2296 TIP3 H2   HT     0.417000        1.0080           0
   10600 WT1  2298 TIP3 OH2  OT    -0.834000       15.9994           0
   10601 WT1  2298 TIP3 H1   HT     0.417000        1.0080           0
   10602 WT1  2298 TIP3 H2   HT     0.417000        1.0080           0
   10603 WT1  2299 TIP3 OH2  OT    -0.834000       15.9994           0
   10604 WT1  2299 TIP3 H1   HT     0.417000        1.0080           0
   10605 WT1  2299 TIP3 H2   HT     0.417000        1.0080           0
   10606 WT1  2300 TIP3 OH2  OT    -0.834000       15.9994           0
   10607 WT1  2300 TIP3 H1   HT     0.417000        1.0080           0
   10608 WT1  2300 TIP3 H2   HT     0.417000        1.0080           0
   10609 WT1  2301 TIP3 OH2  OT    -0.834000       15.9994           0
   10610 WT1  2301 TIP3 H1   HT     0.417000        1.0080           0
   10611 WT1  2301 TIP3 H2   HT     0.417000        1.0080           0
   10612 WT1  2302 TIP3 OH2  OT    -0.834000       15.9994           0
   10613 WT1  2302 TIP3 H1   HT     0.417000        1.0080           0
   10614 WT1  2302 TIP3 H2   HT     0.417000        1.0080           0
   10615 WT1  2303 TIP3 OH2  OT    -0.834000       15.9994           0
   10616 WT1  2303 TIP3 H1   HT     0.417000        1.0080           0
   10617 WT1  2303 TIP3 H2   HT     0.417000        1.0080           0
   10618 WT1  2305 TIP3 OH2  OT    -0.834000       15.9994           0
   10619 WT1  2305 TIP3 H1   HT     0.417000        1.0080           0
   10620 WT1  2305 TIP3 H2   HT     0.417000        1.0080           0
   10621 WT1  2306 TIP3 OH2  OT    -0.834000       15.9994           0
   10622 WT1  2306 TIP3 H1   HT     0.417000        1.0080           0
   10623 WT1  2306 TIP3 H2   HT     0.417000        1.0080           0
   10624 WT1  2308 TIP3 OH2  OT    -0.834000       15.9994           0
   10625 WT1  2308 TIP3 H1   HT     0.417000        1.0080           0
   10626 WT1  2308 TIP3 H2   HT     0.417000        1.0080           0
   10627 WT1  2309 TIP3 OH2  OT    -0.834000       15.9994           0
   10628 WT1  2309 TIP3 H1   HT     0.417000        1.0080           0
   10629 WT1  2309 TIP3 H2   HT     0.417000        1.0080           0
   10630 WT1  2310 TIP3 OH2  OT    -0.834000       15.9994           0
   10631 WT1  2310 TIP3 H1   HT     0.417000        1.0080           0
   10632 WT1  2310 TIP3 H2   HT     0.417000        1.0080           0
   10633 WT1  2311 TIP3 OH2  OT    -0.834000       15.9994           0
   10634 WT1  2311 TIP3 H1   HT     0.417000        1.0080           0
   10635 WT1  2311 TIP3 H2   HT     0.417000        1.0080           0
   10636 WT1  2313 TIP3 OH2  OT    -0.834000       15.9994           0
   10637 WT1  2313 TIP3 H1   HT     0.417000        1.0080           0
   10638 WT1  2313 TIP3 H2   HT     0.417000        1.0080           0
   10639 WT1  2314 TIP3 OH2  OT    -0.834000       15.9994           0
   10640 WT1  2314 TIP3 H1   HT     0.417000        1.0080           0
   10641 WT1  2314 TIP3 H2   HT     0.417000        1.0080           0
   10642 WT1  2315 TIP3 OH2  OT    -0.834000       15.9994           0
   10643 WT1  2315 TIP3 H1   HT     0.417000        1.0080           0
   10644 WT1  2315 TIP3 H2   HT     0.417000        1.0080           0
   10645 WT1  2316 TIP3 OH2  OT    -0.834000       15.9994           0
   10646 WT1  2316 TIP3 H1   HT     0.417000        1.0080           0
   10647 WT1  2316 TIP3 H2   HT     0.417000        1.0080           0
   10648 WT1  2317 TIP3 OH2  OT    -0.834000       15.9994           0
   10649 WT1  2317 TIP3 H1   HT     0.417000        1.0080           0
   10650 WT1  2317 TIP3 H2   HT     0.417000        1.0080           0
   10651 WT1  2318 TIP3 OH2  OT    -0.834000       15.9994           0
   10652 WT1  2318 TIP3 H1   HT     0.417000        1.0080           0
   10653 WT1  2318 TIP3 H2   HT     0.417000        1.0080           0
   10654 WT1  2319 TIP3 OH2  OT    -0.834000       15.9994           0
   10655 WT1  2319 TIP3 H1   HT     0.417000        1.0080           0
   10656 WT1  2319 TIP3 H2   HT     0.417000        1.0080           0
   10657 WT1  2321 TIP3 OH2  OT    -0.834000       15.9994           0
   10658 WT1  2321 TIP3 H1   HT     0.417000        1.0080           0
   10659 WT1  2321 TIP3 H2   HT     0.417000        1.0080           0
   10660 WT1  2322 TIP3 OH2  OT    -0.834000       15.9994           0
   10661 WT1  2322 TIP3 H1   HT     0.417000        1.0080           0
   10662 WT1  2322 TIP3 H2   HT     0.417000        1.0080           0
   10663 WT1  2323 TIP3 OH2  OT    -0.834000       15.9994           0
   10664 WT1  2323 TIP3 H1   HT     0.417000        1.0080           0
   10665 WT1  2323 TIP3 H2   HT     0.417000        1.0080           0
   10666 WT1  2324 TIP3 OH2  OT    -0.834000       15.9994           0
   10667 WT1  2324 TIP3 H1   HT     0.417000        1.0080           0
   10668 WT1  2324 TIP3 H2   HT     0.417000        1.0080           0
   10669 WT1  2325 TIP3 OH2  OT    -0.834000       15.9994           0
   10670 WT1  2325 TIP3 H1   HT     0.417000        1.0080           0
   10671 WT1  2325 TIP3 H2   HT     0.417000        1.0080           0
   10672 WT1  2326 TIP3 OH2  OT    -0.834000       15.9994           0
   10673 WT1  2326 TIP3 H1   HT     0.417000        1.0080           0
   10674 WT1  2326 TIP3 H2   HT     0.417000        1.0080           0
   10675 WT1  2327 TIP3 OH2  OT    -0.834000       15.9994           0
   10676 WT1  2327 TIP3 H1   HT     0.417000        1.0080           0
   10677 WT1  2327 TIP3 H2   HT     0.417000        1.0080           0
   10678 WT1  2328 TIP3 OH2  OT    -0.834000       15.9994           0
   10679 WT1  2328 TIP3 H1   HT     0.417000        1.0080           0
   10680 WT1  2328 TIP3 H2   HT     0.417000        1.0080           0
   10681 WT1  2329 TIP3 OH2  OT    -0.834000       15.9994           0
   10682 WT1  2329 TIP3 H1   HT     0.417000        1.0080           0
   10683 WT1  2329 TIP3 H2   HT     0.417000        1.0080           0
   10684 WT1  2331 TIP3 OH2  OT    -0.834000       15.9994           0
   10685 WT1  2331 TIP3 H1   HT     0.417000        1.0080           0
   10686 WT1  2331 TIP3 H2   HT     0.417000        1.0080           0
   10687 WT1  2332 TIP3 OH2  OT    -0.834000       15.9994           0
   10688 WT1  2332 TIP3 H1   HT     0.417000        1.0080           0
   10689 WT1  2332 TIP3 H2   HT     0.417000        1.0080           0
   10690 WT1  2333 TIP3 OH2  OT    -0.834000       15.9994           0
   10691 WT1  2333 TIP3 H1   HT     0.417000        1.0080           0
   10692 WT1  2333 TIP3 H2   HT     0.417000        1.0080           0
   10693 WT1  2334 TIP3 OH2  OT    -0.834000       15.9994           0
   10694 WT1  2334 TIP3 H1   HT     0.417000        1.0080           0
   10695 WT1  2334 TIP3 H2   HT     0.417000        1.0080           0
   10696 WT1  2335 TIP3 OH2  OT    -0.834000       15.9994           0
   10697 WT1  2335 TIP3 H1   HT     0.417000        1.0080           0
   10698 WT1  2335 TIP3 H2   HT     0.417000        1.0080           0
   10699 WT1  2336 TIP3 OH2  OT    -0.834000       15.9994           0
   10700 WT1  2336 TIP3 H1   HT     0.417000        1.0080           0
   10701 WT1  2336 TIP3 H2   HT     0.417000        1.0080           0
   10702 WT1  2337 TIP3 OH2  OT    -0.834000       15.9994           0
   10703 WT1  2337 TIP3 H1   HT     0.417000        1.0080           0
   10704 WT1  2337 TIP3 H2   HT     0.417000        1.0080           0
   10705 WT1  2338 TIP3 OH2  OT    -0.834000       15.9994           0
   10706 WT1  2338 TIP3 H1   HT     0.417000        1.0080           0
   10707 WT1  2338 TIP3 H2   HT     0.417000        1.0080           0
   10708 WT1  2339 TIP3 OH2  OT    -0.834000       15.9994           0
   10709 WT1  2339 TIP3 H1   HT     0.417000        1.0080           0
   10710 WT1  2339 TIP3 H2   HT     0.417000        1.0080           0
   10711 WT1  2340 TIP3 OH2  OT    -0.834000       15.9994           0
   10712 WT1  2340 TIP3 H1   HT     0.417000        1.0080           0
   10713 WT1  2340 TIP3 H2   HT     0.417000        1.0080           0
   10714 WT1  2341 TIP3 OH2  OT    -0.834000       15.9994           0
   10715 WT1  2341 TIP3 H1   HT     0.417000        1.0080           0
   10716 WT1  2341 TIP3 H2   HT     0.417000        1.0080           0
   10717 WT1  2342 TIP3 OH2  OT    -0.834000       15.9994           0
   10718 WT1  2342 TIP3 H1   HT     0.417000        1.0080           0
   10719 WT1  2342 TIP3 H2   HT     0.417000        1.0080           0
   10720 WT1  2343 TIP3 OH2  OT    -0.834000       15.9994           0
   10721 WT1  2343 TIP3 H1   HT     0.417000        1.0080           0
   10722 WT1  2343 TIP3 H2   HT     0.417000        1.0080           0
   10723 WT1  2344 TIP3 OH2  OT    -0.834000       15.9994           0
   10724 WT1  2344 TIP3 H1   HT     0.417000        1.0080           0
   10725 WT1  2344 TIP3 H2   HT     0.417000        1.0080           0
   10726 WT1  2345 TIP3 OH2  OT    -0.834000       15.9994           0
   10727 WT1  2345 TIP3 H1   HT     0.417000        1.0080           0
   10728 WT1  2345 TIP3 H2   HT     0.417000        1.0080           0
   10729 WT1  2346 TIP3 OH2  OT    -0.834000       15.9994           0
   10730 WT1  2346 TIP3 H1   HT     0.417000        1.0080           0
   10731 WT1  2346 TIP3 H2   HT     0.417000        1.0080           0
   10732 WT1  2347 TIP3 OH2  OT    -0.834000       15.9994           0
   10733 WT1  2347 TIP3 H1   HT     0.417000        1.0080           0
   10734 WT1  2347 TIP3 H2   HT     0.417000        1.0080           0
   10735 WT1  2348 TIP3 OH2  OT    -0.834000       15.9994           0
   10736 WT1  2348 TIP3 H1   HT     0.417000        1.0080           0
   10737 WT1  2348 TIP3 H2   HT     0.417000        1.0080           0
   10738 WT1  2349 TIP3 OH2  OT    -0.834000       15.9994           0
   10739 WT1  2349 TIP3 H1   HT     0.417000        1.0080           0
   10740 WT1  2349 TIP3 H2   HT     0.417000        1.0080           0
   10741 WT1  2350 TIP3 OH2  OT    -0.834000       15.9994           0
   10742 WT1  2350 TIP3 H1   HT     0.417000        1.0080           0
   10743 WT1  2350 TIP3 H2   HT     0.417000        1.0080           0
   10744 WT1  2351 TIP3 OH2  OT    -0.834000       15.9994           0
   10745 WT1  2351 TIP3 H1   HT     0.417000        1.0080           0
   10746 WT1  2351 TIP3 H2   HT     0.417000        1.0080           0
   10747 WT1  2352 TIP3 OH2  OT    -0.834000       15.9994           0
   10748 WT1  2352 TIP3 H1   HT     0.417000        1.0080           0
   10749 WT1  2352 TIP3 H2   HT     0.417000        1.0080           0
   10750 WT1  2354 TIP3 OH2  OT    -0.834000       15.9994           0
   10751 WT1  2354 TIP3 H1   HT     0.417000        1.0080           0
   10752 WT1  2354 TIP3 H2   HT     0.417000        1.0080           0
   10753 WT1  2355 TIP3 OH2  OT    -0.834000       15.9994           0
   10754 WT1  2355 TIP3 H1   HT     0.417000        1.0080           0
   10755 WT1  2355 TIP3 H2   HT     0.417000        1.0080           0
   10756 WT1  2356 TIP3 OH2  OT    -0.834000       15.9994           0
   10757 WT1  2356 TIP3 H1   HT     0.417000        1.0080           0
   10758 WT1  2356 TIP3 H2   HT     0.417000        1.0080           0
   10759 WT1  2357 TIP3 OH2  OT    -0.834000       15.9994           0
   10760 WT1  2357 TIP3 H1   HT     0.417000        1.0080           0
   10761 WT1  2357 TIP3 H2   HT     0.417000        1.0080           0
   10762 WT1  2358 TIP3 OH2  OT    -0.834000       15.9994           0
   10763 WT1  2358 TIP3 H1   HT     0.417000        1.0080           0
   10764 WT1  2358 TIP3 H2   HT     0.417000        1.0080           0
   10765 WT1  2359 TIP3 OH2  OT    -0.834000       15.9994           0
   10766 WT1  2359 TIP3 H1   HT     0.417000        1.0080           0
   10767 WT1  2359 TIP3 H2   HT     0.417000        1.0080           0
   10768 WT1  2360 TIP3 OH2  OT    -0.834000       15.9994           0
   10769 WT1  2360 TIP3 H1   HT     0.417000        1.0080           0
   10770 WT1  2360 TIP3 H2   HT     0.417000        1.0080           0
   10771 WT1  2362 TIP3 OH2  OT    -0.834000       15.9994           0
   10772 WT1  2362 TIP3 H1   HT     0.417000        1.0080           0
   10773 WT1  2362 TIP3 H2   HT     0.417000        1.0080           0
   10774 WT1  2363 TIP3 OH2  OT    -0.834000       15.9994           0
   10775 WT1  2363 TIP3 H1   HT     0.417000        1.0080           0
   10776 WT1  2363 TIP3 H2   HT     0.417000        1.0080           0
   10777 WT1  2364 TIP3 OH2  OT    -0.834000       15.9994           0
   10778 WT1  2364 TIP3 H1   HT     0.417000        1.0080           0
   10779 WT1  2364 TIP3 H2   HT     0.417000        1.0080           0
   10780 WT1  2365 TIP3 OH2  OT    -0.834000       15.9994           0
   10781 WT1  2365 TIP3 H1   HT     0.417000        1.0080           0
   10782 WT1  2365 TIP3 H2   HT     0.417000        1.0080           0
   10783 WT1  2366 TIP3 OH2  OT    -0.834000       15.9994           0
   10784 WT1  2366 TIP3 H1   HT     0.417000        1.0080           0
   10785 WT1  2366 TIP3 H2   HT     0.417000        1.0080           0
   10786 WT1  2367 TIP3 OH2  OT    -0.834000       15.9994           0
   10787 WT1  2367 TIP3 H1   HT     0.417000        1.0080           0
   10788 WT1  2367 TIP3 H2   HT     0.417000        1.0080           0
   10789 WT1  2368 TIP3 OH2  OT    -0.834000       15.9994           0
   10790 WT1  2368 TIP3 H1   HT     0.417000        1.0080           0
   10791 WT1  2368 TIP3 H2   HT     0.417000        1.0080           0
   10792 WT1  2369 TIP3 OH2  OT    -0.834000       15.9994           0
   10793 WT1  2369 TIP3 H1   HT     0.417000        1.0080           0
   10794 WT1  2369 TIP3 H2   HT     0.417000        1.0080           0
   10795 WT1  2371 TIP3 OH2  OT    -0.834000       15.9994           0
   10796 WT1  2371 TIP3 H1   HT     0.417000        1.0080           0
   10797 WT1  2371 TIP3 H2   HT     0.417000        1.0080           0
   10798 WT1  2372 TIP3 OH2  OT    -0.834000       15.9994           0
   10799 WT1  2372 TIP3 H1   HT     0.417000        1.0080           0
   10800 WT1  2372 TIP3 H2   HT     0.417000        1.0080           0
   10801 WT1  2373 TIP3 OH2  OT    -0.834000       15.9994           0
   10802 WT1  2373 TIP3 H1   HT     0.417000        1.0080           0
   10803 WT1  2373 TIP3 H2   HT     0.417000        1.0080           0
   10804 WT1  2374 TIP3 OH2  OT    -0.834000       15.9994           0
   10805 WT1  2374 TIP3 H1   HT     0.417000        1.0080           0
   10806 WT1  2374 TIP3 H2   HT     0.417000        1.0080           0
   10807 WT1  2375 TIP3 OH2  OT    -0.834000       15.9994           0
   10808 WT1  2375 TIP3 H1   HT     0.417000        1.0080           0
   10809 WT1  2375 TIP3 H2   HT     0.417000        1.0080           0
   10810 WT1  2376 TIP3 OH2  OT    -0.834000       15.9994           0
   10811 WT1  2376 TIP3 H1   HT     0.417000        1.0080           0
   10812 WT1  2376 TIP3 H2   HT     0.417000        1.0080           0
   10813 WT1  2377 TIP3 OH2  OT    -0.834000       15.9994           0
   10814 WT1  2377 TIP3 H1   HT     0.417000        1.0080           0
   10815 WT1  2377 TIP3 H2   HT     0.417000        1.0080           0
   10816 WT1  2379 TIP3 OH2  OT    -0.834000       15.9994           0
   10817 WT1  2379 TIP3 H1   HT     0.417000        1.0080           0
   10818 WT1  2379 TIP3 H2   HT     0.417000        1.0080           0
   10819 WT1  2380 TIP3 OH2  OT    -0.834000       15.9994           0
   10820 WT1  2380 TIP3 H1   HT     0.417000        1.0080           0
   10821 WT1  2380 TIP3 H2   HT     0.417000        1.0080           0
   10822 WT1  2381 TIP3 OH2  OT    -0.834000       15.9994           0
   10823 WT1  2381 TIP3 H1   HT     0.417000        1.0080           0
   10824 WT1  2381 TIP3 H2   HT     0.417000        1.0080           0
   10825 WT1  2382 TIP3 OH2  OT    -0.834000       15.9994           0
   10826 WT1  2382 TIP3 H1   HT     0.417000        1.0080           0
   10827 WT1  2382 TIP3 H2   HT     0.417000        1.0080           0
   10828 WT1  2383 TIP3 OH2  OT    -0.834000       15.9994           0
   10829 WT1  2383 TIP3 H1   HT     0.417000        1.0080           0
   10830 WT1  2383 TIP3 H2   HT     0.417000        1.0080           0
   10831 WT1  2384 TIP3 OH2  OT    -0.834000       15.9994           0
   10832 WT1  2384 TIP3 H1   HT     0.417000        1.0080           0
   10833 WT1  2384 TIP3 H2   HT     0.417000        1.0080           0
   10834 WT1  2385 TIP3 OH2  OT    -0.834000       15.9994           0
   10835 WT1  2385 TIP3 H1   HT     0.417000        1.0080           0
   10836 WT1  2385 TIP3 H2   HT     0.417000        1.0080           0
   10837 WT1  2386 TIP3 OH2  OT    -0.834000       15.9994           0
   10838 WT1  2386 TIP3 H1   HT     0.417000        1.0080           0
   10839 WT1  2386 TIP3 H2   HT     0.417000        1.0080           0
   10840 WT1  2387 TIP3 OH2  OT    -0.834000       15.9994           0
   10841 WT1  2387 TIP3 H1   HT     0.417000        1.0080           0
   10842 WT1  2387 TIP3 H2   HT     0.417000        1.0080           0
   10843 WT1  2388 TIP3 OH2  OT    -0.834000       15.9994           0
   10844 WT1  2388 TIP3 H1   HT     0.417000        1.0080           0
   10845 WT1  2388 TIP3 H2   HT     0.417000        1.0080           0
   10846 WT1  2390 TIP3 OH2  OT    -0.834000       15.9994           0
   10847 WT1  2390 TIP3 H1   HT     0.417000        1.0080           0
   10848 WT1  2390 TIP3 H2   HT     0.417000        1.0080           0
   10849 WT1  2392 TIP3 OH2  OT    -0.834000       15.9994           0
   10850 WT1  2392 TIP3 H1   HT     0.417000        1.0080           0
   10851 WT1  2392 TIP3 H2   HT     0.417000        1.0080           0
   10852 WT1  2393 TIP3 OH2  OT    -0.834000       15.9994           0
   10853 WT1  2393 TIP3 H1   HT     0.417000        1.0080           0
   10854 WT1  2393 TIP3 H2   HT     0.417000        1.0080           0
   10855 WT1  2394 TIP3 OH2  OT    -0.834000       15.9994           0
   10856 WT1  2394 TIP3 H1   HT     0.417000        1.0080           0
   10857 WT1  2394 TIP3 H2   HT     0.417000        1.0080           0
   10858 WT1  2395 TIP3 OH2  OT    -0.834000       15.9994           0
   10859 WT1  2395 TIP3 H1   HT     0.417000        1.0080           0
   10860 WT1  2395 TIP3 H2   HT     0.417000        1.0080           0
   10861 WT1  2397 TIP3 OH2  OT    -0.834000       15.9994           0
   10862 WT1  2397 TIP3 H1   HT     0.417000        1.0080           0
   10863 WT1  2397 TIP3 H2   HT     0.417000        1.0080           0
   10864 WT1  2398 TIP3 OH2  OT    -0.834000       15.9994           0
   10865 WT1  2398 TIP3 H1   HT     0.417000        1.0080           0
   10866 WT1  2398 TIP3 H2   HT     0.417000        1.0080           0
   10867 WT1  2399 TIP3 OH2  OT    -0.834000       15.9994           0
   10868 WT1  2399 TIP3 H1   HT     0.417000        1.0080           0
   10869 WT1  2399 TIP3 H2   HT     0.417000        1.0080           0
   10870 WT1  2400 TIP3 OH2  OT    -0.834000       15.9994           0
   10871 WT1  2400 TIP3 H1   HT     0.417000        1.0080           0
   10872 WT1  2400 TIP3 H2   HT     0.417000        1.0080           0
   10873 WT1  2401 TIP3 OH2  OT    -0.834000       15.9994           0
   10874 WT1  2401 TIP3 H1   HT     0.417000        1.0080           0
   10875 WT1  2401 TIP3 H2   HT     0.417000        1.0080           0
   10876 WT1  2402 TIP3 OH2  OT    -0.834000       15.9994           0
   10877 WT1  2402 TIP3 H1   HT     0.417000        1.0080           0
   10878 WT1  2402 TIP3 H2   HT     0.417000        1.0080           0
   10879 WT1  2403 TIP3 OH2  OT    -0.834000       15.9994           0
   10880 WT1  2403 TIP3 H1   HT     0.417000        1.0080           0
   10881 WT1  2403 TIP3 H2   HT     0.417000        1.0080           0
   10882 WT1  2404 TIP3 OH2  OT    -0.834000       15.9994           0
   10883 WT1  2404 TIP3 H1   HT     0.417000        1.0080           0
   10884 WT1  2404 TIP3 H2   HT     0.417000        1.0080           0
   10885 WT1  2405 TIP3 OH2  OT    -0.834000       15.9994           0
   10886 WT1  2405 TIP3 H1   HT     0.417000        1.0080           0
   10887 WT1  2405 TIP3 H2   HT     0.417000        1.0080           0
   10888 WT1  2406 TIP3 OH2  OT    -0.834000       15.9994           0
   10889 WT1  2406 TIP3 H1   HT     0.417000        1.0080           0
   10890 WT1  2406 TIP3 H2   HT     0.417000        1.0080           0
   10891 WT1  2407 TIP3 OH2  OT    -0.834000       15.9994           0
   10892 WT1  2407 TIP3 H1   HT     0.417000        1.0080           0
   10893 WT1  2407 TIP3 H2   HT     0.417000        1.0080           0
   10894 WT1  2408 TIP3 OH2  OT    -0.834000       15.9994           0
   10895 WT1  2408 TIP3 H1   HT     0.417000        1.0080           0
   10896 WT1  2408 TIP3 H2   HT     0.417000        1.0080           0
   10897 WT1  2409 TIP3 OH2  OT    -0.834000       15.9994           0
   10898 WT1  2409 TIP3 H1   HT     0.417000        1.0080           0
   10899 WT1  2409 TIP3 H2   HT     0.417000        1.0080           0
   10900 WT1  2411 TIP3 OH2  OT    -0.834000       15.9994           0
   10901 WT1  2411 TIP3 H1   HT     0.417000        1.0080           0
   10902 WT1  2411 TIP3 H2   HT     0.417000        1.0080           0
   10903 WT1  2412 TIP3 OH2  OT    -0.834000       15.9994           0
   10904 WT1  2412 TIP3 H1   HT     0.417000        1.0080           0
   10905 WT1  2412 TIP3 H2   HT     0.417000        1.0080           0
   10906 WT1  2415 TIP3 OH2  OT    -0.834000       15.9994           0
   10907 WT1  2415 TIP3 H1   HT     0.417000        1.0080           0
   10908 WT1  2415 TIP3 H2   HT     0.417000        1.0080           0
   10909 WT1  2416 TIP3 OH2  OT    -0.834000       15.9994           0
   10910 WT1  2416 TIP3 H1   HT     0.417000        1.0080           0
   10911 WT1  2416 TIP3 H2   HT     0.417000        1.0080           0
   10912 WT1  2417 TIP3 OH2  OT    -0.834000       15.9994           0
   10913 WT1  2417 TIP3 H1   HT     0.417000        1.0080           0
   10914 WT1  2417 TIP3 H2   HT     0.417000        1.0080           0
   10915 WT1  2418 TIP3 OH2  OT    -0.834000       15.9994           0
   10916 WT1  2418 TIP3 H1   HT     0.417000        1.0080           0
   10917 WT1  2418 TIP3 H2   HT     0.417000        1.0080           0
   10918 WT1  2419 TIP3 OH2  OT    -0.834000       15.9994           0
   10919 WT1  2419 TIP3 H1   HT     0.417000        1.0080           0
   10920 WT1  2419 TIP3 H2   HT     0.417000        1.0080           0
   10921 WT1  2420 TIP3 OH2  OT    -0.834000       15.9994           0
   10922 WT1  2420 TIP3 H1   HT     0.417000        1.0080           0
   10923 WT1  2420 TIP3 H2   HT     0.417000        1.0080           0
   10924 WT1  2421 TIP3 OH2  OT    -0.834000       15.9994           0
   10925 WT1  2421 TIP3 H1   HT     0.417000        1.0080           0
   10926 WT1  2421 TIP3 H2   HT     0.417000        1.0080           0
   10927 WT1  2422 TIP3 OH2  OT    -0.834000       15.9994           0
   10928 WT1  2422 TIP3 H1   HT     0.417000        1.0080           0
   10929 WT1  2422 TIP3 H2   HT     0.417000        1.0080           0
   10930 WT1  2423 TIP3 OH2  OT    -0.834000       15.9994           0
   10931 WT1  2423 TIP3 H1   HT     0.417000        1.0080           0
   10932 WT1  2423 TIP3 H2   HT     0.417000        1.0080           0
   10933 WT1  2424 TIP3 OH2  OT    -0.834000       15.9994           0
   10934 WT1  2424 TIP3 H1   HT     0.417000        1.0080           0
   10935 WT1  2424 TIP3 H2   HT     0.417000        1.0080           0
   10936 WT1  2425 TIP3 OH2  OT    -0.834000       15.9994           0
   10937 WT1  2425 TIP3 H1   HT     0.417000        1.0080           0
   10938 WT1  2425 TIP3 H2   HT     0.417000        1.0080           0
   10939 WT1  2426 TIP3 OH2  OT    -0.834000       15.9994           0
   10940 WT1  2426 TIP3 H1   HT     0.417000        1.0080           0
   10941 WT1  2426 TIP3 H2   HT     0.417000        1.0080           0
   10942 WT1  2428 TIP3 OH2  OT    -0.834000       15.9994           0
   10943 WT1  2428 TIP3 H1   HT     0.417000        1.0080           0
   10944 WT1  2428 TIP3 H2   HT     0.417000        1.0080           0
   10945 WT1  2429 TIP3 OH2  OT    -0.834000       15.9994           0
   10946 WT1  2429 TIP3 H1   HT     0.417000        1.0080           0
   10947 WT1  2429 TIP3 H2   HT     0.417000        1.0080           0
   10948 WT1  2430 TIP3 OH2  OT    -0.834000       15.9994           0
   10949 WT1  2430 TIP3 H1   HT     0.417000        1.0080           0
   10950 WT1  2430 TIP3 H2   HT     0.417000        1.0080           0
   10951 WT1  2431 TIP3 OH2  OT    -0.834000       15.9994           0
   10952 WT1  2431 TIP3 H1   HT     0.417000        1.0080           0
   10953 WT1  2431 TIP3 H2   HT     0.417000        1.0080           0
   10954 WT1  2432 TIP3 OH2  OT    -0.834000       15.9994           0
   10955 WT1  2432 TIP3 H1   HT     0.417000        1.0080           0
   10956 WT1  2432 TIP3 H2   HT     0.417000        1.0080           0
   10957 WT1  2434 TIP3 OH2  OT    -0.834000       15.9994           0
   10958 WT1  2434 TIP3 H1   HT     0.417000        1.0080           0
   10959 WT1  2434 TIP3 H2   HT     0.417000        1.0080           0
   10960 WT1  2436 TIP3 OH2  OT    -0.834000       15.9994           0
   10961 WT1  2436 TIP3 H1   HT     0.417000        1.0080           0
   10962 WT1  2436 TIP3 H2   HT     0.417000        1.0080           0
   10963 WT1  2437 TIP3 OH2  OT    -0.834000       15.9994           0
   10964 WT1  2437 TIP3 H1   HT     0.417000        1.0080           0
   10965 WT1  2437 TIP3 H2   HT     0.417000        1.0080           0
   10966 WT1  2438 TIP3 OH2  OT    -0.834000       15.9994           0
   10967 WT1  2438 TIP3 H1   HT     0.417000        1.0080           0
   10968 WT1  2438 TIP3 H2   HT     0.417000        1.0080           0
   10969 WT1  2439 TIP3 OH2  OT    -0.834000       15.9994           0
   10970 WT1  2439 TIP3 H1   HT     0.417000        1.0080           0
   10971 WT1  2439 TIP3 H2   HT     0.417000        1.0080           0
   10972 WT1  2440 TIP3 OH2  OT    -0.834000       15.9994           0
   10973 WT1  2440 TIP3 H1   HT     0.417000        1.0080           0
   10974 WT1  2440 TIP3 H2   HT     0.417000        1.0080           0
   10975 WT1  2441 TIP3 OH2  OT    -0.834000       15.9994           0
   10976 WT1  2441 TIP3 H1   HT     0.417000        1.0080           0
   10977 WT1  2441 TIP3 H2   HT     0.417000        1.0080           0
   10978 WT1  2442 TIP3 OH2  OT    -0.834000       15.9994           0
   10979 WT1  2442 TIP3 H1   HT     0.417000        1.0080           0
   10980 WT1  2442 TIP3 H2   HT     0.417000        1.0080           0
   10981 WT1  2443 TIP3 OH2  OT    -0.834000       15.9994           0
   10982 WT1  2443 TIP3 H1   HT     0.417000        1.0080           0
   10983 WT1  2443 TIP3 H2   HT     0.417000        1.0080           0
   10984 WT1  2444 TIP3 OH2  OT    -0.834000       15.9994           0
   10985 WT1  2444 TIP3 H1   HT     0.417000        1.0080           0
   10986 WT1  2444 TIP3 H2   HT     0.417000        1.0080           0
   10987 WT1  2445 TIP3 OH2  OT    -0.834000       15.9994           0
   10988 WT1  2445 TIP3 H1   HT     0.417000        1.0080           0
   10989 WT1  2445 TIP3 H2   HT     0.417000        1.0080           0
   10990 WT1  2446 TIP3 OH2  OT    -0.834000       15.9994           0
   10991 WT1  2446 TIP3 H1   HT     0.417000        1.0080           0
   10992 WT1  2446 TIP3 H2   HT     0.417000        1.0080           0
   10993 WT1  2447 TIP3 OH2  OT    -0.834000       15.9994           0
   10994 WT1  2447 TIP3 H1   HT     0.417000        1.0080           0
   10995 WT1  2447 TIP3 H2   HT     0.417000        1.0080           0
   10996 WT1  2448 TIP3 OH2  OT    -0.834000       15.9994           0
   10997 WT1  2448 TIP3 H1   HT     0.417000        1.0080           0
   10998 WT1  2448 TIP3 H2   HT     0.417000        1.0080           0
   10999 WT1  2449 TIP3 OH2  OT    -0.834000       15.9994           0
   11000 WT1  2449 TIP3 H1   HT     0.417000        1.0080           0
   11001 WT1  2449 TIP3 H2   HT     0.417000        1.0080           0
   11002 WT1  2450 TIP3 OH2  OT    -0.834000       15.9994           0
   11003 WT1  2450 TIP3 H1   HT     0.417000        1.0080           0
   11004 WT1  2450 TIP3 H2   HT     0.417000        1.0080           0
   11005 WT1  2452 TIP3 OH2  OT    -0.834000       15.9994           0
   11006 WT1  2452 TIP3 H1   HT     0.417000        1.0080           0
   11007 WT1  2452 TIP3 H2   HT     0.417000        1.0080           0
   11008 WT1  2453 TIP3 OH2  OT    -0.834000       15.9994           0
   11009 WT1  2453 TIP3 H1   HT     0.417000        1.0080           0
   11010 WT1  2453 TIP3 H2   HT     0.417000        1.0080           0
   11011 WT1  2454 TIP3 OH2  OT    -0.834000       15.9994           0
   11012 WT1  2454 TIP3 H1   HT     0.417000        1.0080           0
   11013 WT1  2454 TIP3 H2   HT     0.417000        1.0080           0
   11014 WT1  2455 TIP3 OH2  OT    -0.834000       15.9994           0
   11015 WT1  2455 TIP3 H1   HT     0.417000        1.0080           0
   11016 WT1  2455 TIP3 H2   HT     0.417000        1.0080           0
   11017 WT1  2458 TIP3 OH2  OT    -0.834000       15.9994           0
   11018 WT1  2458 TIP3 H1   HT     0.417000        1.0080           0
   11019 WT1  2458 TIP3 H2   HT     0.417000        1.0080           0
   11020 WT1  2459 TIP3 OH2  OT    -0.834000       15.9994           0
   11021 WT1  2459 TIP3 H1   HT     0.417000        1.0080           0
   11022 WT1  2459 TIP3 H2   HT     0.417000        1.0080           0
   11023 WT1  2460 TIP3 OH2  OT    -0.834000       15.9994           0
   11024 WT1  2460 TIP3 H1   HT     0.417000        1.0080           0
   11025 WT1  2460 TIP3 H2   HT     0.417000        1.0080           0
   11026 WT1  2461 TIP3 OH2  OT    -0.834000       15.9994           0
   11027 WT1  2461 TIP3 H1   HT     0.417000        1.0080           0
   11028 WT1  2461 TIP3 H2   HT     0.417000        1.0080           0
   11029 WT1  2462 TIP3 OH2  OT    -0.834000       15.9994           0
   11030 WT1  2462 TIP3 H1   HT     0.417000        1.0080           0
   11031 WT1  2462 TIP3 H2   HT     0.417000        1.0080           0
   11032 WT1  2463 TIP3 OH2  OT    -0.834000       15.9994           0
   11033 WT1  2463 TIP3 H1   HT     0.417000        1.0080           0
   11034 WT1  2463 TIP3 H2   HT     0.417000        1.0080           0
   11035 WT1  2464 TIP3 OH2  OT    -0.834000       15.9994           0
   11036 WT1  2464 TIP3 H1   HT     0.417000        1.0080           0
   11037 WT1  2464 TIP3 H2   HT     0.417000        1.0080           0
   11038 WT1  2465 TIP3 OH2  OT    -0.834000       15.9994           0
   11039 WT1  2465 TIP3 H1   HT     0.417000        1.0080           0
   11040 WT1  2465 TIP3 H2   HT     0.417000        1.0080           0
   11041 WT1  2466 TIP3 OH2  OT    -0.834000       15.9994           0
   11042 WT1  2466 TIP3 H1   HT     0.417000        1.0080           0
   11043 WT1  2466 TIP3 H2   HT     0.417000        1.0080           0
   11044 WT1  2467 TIP3 OH2  OT    -0.834000       15.9994           0
   11045 WT1  2467 TIP3 H1   HT     0.417000        1.0080           0
   11046 WT1  2467 TIP3 H2   HT     0.417000        1.0080           0
   11047 WT1  2468 TIP3 OH2  OT    -0.834000       15.9994           0
   11048 WT1  2468 TIP3 H1   HT     0.417000        1.0080           0
   11049 WT1  2468 TIP3 H2   HT     0.417000        1.0080           0
   11050 WT1  2469 TIP3 OH2  OT    -0.834000       15.9994           0
   11051 WT1  2469 TIP3 H1   HT     0.417000        1.0080           0
   11052 WT1  2469 TIP3 H2   HT     0.417000        1.0080           0
   11053 WT1  2470 TIP3 OH2  OT    -0.834000       15.9994           0
   11054 WT1  2470 TIP3 H1   HT     0.417000        1.0080           0
   11055 WT1  2470 TIP3 H2   HT     0.417000        1.0080           0
   11056 WT1  2471 TIP3 OH2  OT    -0.834000       15.9994           0
   11057 WT1  2471 TIP3 H1   HT     0.417000        1.0080           0
   11058 WT1  2471 TIP3 H2   HT     0.417000        1.0080           0
   11059 WT1  2472 TIP3 OH2  OT    -0.834000       15.9994           0
   11060 WT1  2472 TIP3 H1   HT     0.417000        1.0080           0
   11061 WT1  2472 TIP3 H2   HT     0.417000        1.0080           0
   11062 WT1  2473 TIP3 OH2  OT    -0.834000       15.9994           0
   11063 WT1  2473 TIP3 H1   HT     0.417000        1.0080           0
   11064 WT1  2473 TIP3 H2   HT     0.417000        1.0080           0
   11065 WT1  2474 TIP3 OH2  OT    -0.834000       15.9994           0
   11066 WT1  2474 TIP3 H1   HT     0.417000        1.0080           0
   11067 WT1  2474 TIP3 H2   HT     0.417000        1.0080           0
   11068 WT1  2478 TIP3 OH2  OT    -0.834000       15.9994           0
   11069 WT1  2478 TIP3 H1   HT     0.417000        1.0080           0
   11070 WT1  2478 TIP3 H2   HT     0.417000        1.0080           0
   11071 WT1  2479 TIP3 OH2  OT    -0.834000       15.9994           0
   11072 WT1  2479 TIP3 H1   HT     0.417000        1.0080           0
   11073 WT1  2479 TIP3 H2   HT     0.417000        1.0080           0
   11074 WT1  2480 TIP3 OH2  OT    -0.834000       15.9994           0
   11075 WT1  2480 TIP3 H1   HT     0.417000        1.0080           0
   11076 WT1  2480 TIP3 H2   HT     0.417000        1.0080           0
   11077 WT1  2481 TIP3 OH2  OT    -0.834000       15.9994           0
   11078 WT1  2481 TIP3 H1   HT     0.417000        1.0080           0
   11079 WT1  2481 TIP3 H2   HT     0.417000        1.0080           0
   11080 WT1  2482 TIP3 OH2  OT    -0.834000       15.9994           0
   11081 WT1  2482 TIP3 H1   HT     0.417000        1.0080           0
   11082 WT1  2482 TIP3 H2   HT     0.417000        1.0080           0
   11083 WT1  2483 TIP3 OH2  OT    -0.834000       15.9994           0
   11084 WT1  2483 TIP3 H1   HT     0.417000        1.0080           0
   11085 WT1  2483 TIP3 H2   HT     0.417000        1.0080           0
   11086 WT1  2484 TIP3 OH2  OT    -0.834000       15.9994           0
   11087 WT1  2484 TIP3 H1   HT     0.417000        1.0080           0
   11088 WT1  2484 TIP3 H2   HT     0.417000        1.0080           0
   11089 WT1  2485 TIP3 OH2  OT    -0.834000       15.9994           0
   11090 WT1  2485 TIP3 H1   HT     0.417000        1.0080           0
   11091 WT1  2485 TIP3 H2   HT     0.417000        1.0080           0
   11092 WT1  2486 TIP3 OH2  OT    -0.834000       15.9994           0
   11093 WT1  2486 TIP3 H1   HT     0.417000        1.0080           0
   11094 WT1  2486 TIP3 H2   HT     0.417000        1.0080           0
   11095 WT1  2487 TIP3 OH2  OT    -0.834000       15.9994           0
   11096 WT1  2487 TIP3 H1   HT     0.417000        1.0080           0
   11097 WT1  2487 TIP3 H2   HT     0.417000        1.0080           0
   11098 WT1  2488 TIP3 OH2  OT    -0.834000       15.9994           0
   11099 WT1  2488 TIP3 H1   HT     0.417000        1.0080           0
   11100 WT1  2488 TIP3 H2   HT     0.417000        1.0080           0
   11101 WT1  2489 TIP3 OH2  OT    -0.834000       15.9994           0
   11102 WT1  2489 TIP3 H1   HT     0.417000        1.0080           0
   11103 WT1  2489 TIP3 H2   HT     0.417000        1.0080           0
   11104 WT1  2491 TIP3 OH2  OT    -0.834000       15.9994           0
   11105 WT1  2491 TIP3 H1   HT     0.417000        1.0080           0
   11106 WT1  2491 TIP3 H2   HT     0.417000        1.0080           0
   11107 WT1  2492 TIP3 OH2  OT    -0.834000       15.9994           0
   11108 WT1  2492 TIP3 H1   HT     0.417000        1.0080           0
   11109 WT1  2492 TIP3 H2   HT     0.417000        1.0080           0
   11110 WT1  2494 TIP3 OH2  OT    -0.834000       15.9994           0
   11111 WT1  2494 TIP3 H1   HT     0.417000        1.0080           0
   11112 WT1  2494 TIP3 H2   HT     0.417000        1.0080           0
   11113 WT1  2495 TIP3 OH2  OT    -0.834000       15.9994           0
   11114 WT1  2495 TIP3 H1   HT     0.417000        1.0080           0
   11115 WT1  2495 TIP3 H2   HT     0.417000        1.0080           0
   11116 WT1  2497 TIP3 OH2  OT    -0.834000       15.9994           0
   11117 WT1  2497 TIP3 H1   HT     0.417000        1.0080           0
   11118 WT1  2497 TIP3 H2   HT     0.417000        1.0080           0
   11119 WT1  2498 TIP3 OH2  OT    -0.834000       15.9994           0
   11120 WT1  2498 TIP3 H1   HT     0.417000        1.0080           0
   11121 WT1  2498 TIP3 H2   HT     0.417000        1.0080           0
   11122 WT1  2499 TIP3 OH2  OT    -0.834000       15.9994           0
   11123 WT1  2499 TIP3 H1   HT     0.417000        1.0080           0
   11124 WT1  2499 TIP3 H2   HT     0.417000        1.0080           0
   11125 WT1  2500 TIP3 OH2  OT    -0.834000       15.9994           0
   11126 WT1  2500 TIP3 H1   HT     0.417000        1.0080           0
   11127 WT1  2500 TIP3 H2   HT     0.417000        1.0080           0
   11128 WT1  2501 TIP3 OH2  OT    -0.834000       15.9994           0
   11129 WT1  2501 TIP3 H1   HT     0.417000        1.0080           0
   11130 WT1  2501 TIP3 H2   HT     0.417000        1.0080           0
   11131 WT1  2502 TIP3 OH2  OT    -0.834000       15.9994           0
   11132 WT1  2502 TIP3 H1   HT     0.417000        1.0080           0
   11133 WT1  2502 TIP3 H2   HT     0.417000        1.0080           0
   11134 WT1  2503 TIP3 OH2  OT    -0.834000       15.9994           0
   11135 WT1  2503 TIP3 H1   HT     0.417000        1.0080           0
   11136 WT1  2503 TIP3 H2   HT     0.417000        1.0080           0
   11137 WT1  2504 TIP3 OH2  OT    -0.834000       15.9994           0
   11138 WT1  2504 TIP3 H1   HT     0.417000        1.0080           0
   11139 WT1  2504 TIP3 H2   HT     0.417000        1.0080           0
   11140 WT1  2505 TIP3 OH2  OT    -0.834000       15.9994           0
   11141 WT1  2505 TIP3 H1   HT     0.417000        1.0080           0
   11142 WT1  2505 TIP3 H2   HT     0.417000        1.0080           0
   11143 WT1  2506 TIP3 OH2  OT    -0.834000       15.9994           0
   11144 WT1  2506 TIP3 H1   HT     0.417000        1.0080           0
   11145 WT1  2506 TIP3 H2   HT     0.417000        1.0080           0
   11146 WT1  2507 TIP3 OH2  OT    -0.834000       15.9994           0
   11147 WT1  2507 TIP3 H1   HT     0.417000        1.0080           0
   11148 WT1  2507 TIP3 H2   HT     0.417000        1.0080           0
   11149 WT1  2509 TIP3 OH2  OT    -0.834000       15.9994           0
   11150 WT1  2509 TIP3 H1   HT     0.417000        1.0080           0
   11151 WT1  2509 TIP3 H2   HT     0.417000        1.0080           0
   11152 WT1  2510 TIP3 OH2  OT    -0.834000       15.9994           0
   11153 WT1  2510 TIP3 H1   HT     0.417000        1.0080           0
   11154 WT1  2510 TIP3 H2   HT     0.417000        1.0080           0
   11155 WT1  2511 TIP3 OH2  OT    -0.834000       15.9994           0
   11156 WT1  2511 TIP3 H1   HT     0.417000        1.0080           0
   11157 WT1  2511 TIP3 H2   HT     0.417000        1.0080           0
   11158 WT1  2512 TIP3 OH2  OT    -0.834000       15.9994           0
   11159 WT1  2512 TIP3 H1   HT     0.417000        1.0080           0
   11160 WT1  2512 TIP3 H2   HT     0.417000        1.0080           0
   11161 WT1  2513 TIP3 OH2  OT    -0.834000       15.9994           0
   11162 WT1  2513 TIP3 H1   HT     0.417000        1.0080           0
   11163 WT1  2513 TIP3 H2   HT     0.417000        1.0080           0
   11164 WT1  2514 TIP3 OH2  OT    -0.834000       15.9994           0
   11165 WT1  2514 TIP3 H1   HT     0.417000        1.0080           0
   11166 WT1  2514 TIP3 H2   HT     0.417000        1.0080           0
   11167 WT1  2515 TIP3 OH2  OT    -0.834000       15.9994           0
   11168 WT1  2515 TIP3 H1   HT     0.417000        1.0080           0
   11169 WT1  2515 TIP3 H2   HT     0.417000        1.0080           0
   11170 WT1  2516 TIP3 OH2  OT    -0.834000       15.9994           0
   11171 WT1  2516 TIP3 H1   HT     0.417000        1.0080           0
   11172 WT1  2516 TIP3 H2   HT     0.417000        1.0080           0
   11173 WT1  2518 TIP3 OH2  OT    -0.834000       15.9994           0
   11174 WT1  2518 TIP3 H1   HT     0.417000        1.0080           0
   11175 WT1  2518 TIP3 H2   HT     0.417000        1.0080           0
   11176 WT1  2519 TIP3 OH2  OT    -0.834000       15.9994           0
   11177 WT1  2519 TIP3 H1   HT     0.417000        1.0080           0
   11178 WT1  2519 TIP3 H2   HT     0.417000        1.0080           0
   11179 WT1  2520 TIP3 OH2  OT    -0.834000       15.9994           0
   11180 WT1  2520 TIP3 H1   HT     0.417000        1.0080           0
   11181 WT1  2520 TIP3 H2   HT     0.417000        1.0080           0
   11182 WT1  2521 TIP3 OH2  OT    -0.834000       15.9994           0
   11183 WT1  2521 TIP3 H1   HT     0.417000        1.0080           0
   11184 WT1  2521 TIP3 H2   HT     0.417000        1.0080           0
   11185 WT1  2522 TIP3 OH2  OT    -0.834000       15.9994           0
   11186 WT1  2522 TIP3 H1   HT     0.417000        1.0080           0
   11187 WT1  2522 TIP3 H2   HT     0.417000        1.0080           0
   11188 WT1  2523 TIP3 OH2  OT    -0.834000       15.9994           0
   11189 WT1  2523 TIP3 H1   HT     0.417000        1.0080           0
   11190 WT1  2523 TIP3 H2   HT     0.417000        1.0080           0
   11191 WT1  2525 TIP3 OH2  OT    -0.834000       15.9994           0
   11192 WT1  2525 TIP3 H1   HT     0.417000        1.0080           0
   11193 WT1  2525 TIP3 H2   HT     0.417000        1.0080           0
   11194 WT1  2526 TIP3 OH2  OT    -0.834000       15.9994           0
   11195 WT1  2526 TIP3 H1   HT     0.417000        1.0080           0
   11196 WT1  2526 TIP3 H2   HT     0.417000        1.0080           0
   11197 WT1  2527 TIP3 OH2  OT    -0.834000       15.9994           0
   11198 WT1  2527 TIP3 H1   HT     0.417000        1.0080           0
   11199 WT1  2527 TIP3 H2   HT     0.417000        1.0080           0
   11200 WT1  2528 TIP3 OH2  OT    -0.834000       15.9994           0
   11201 WT1  2528 TIP3 H1   HT     0.417000        1.0080           0
   11202 WT1  2528 TIP3 H2   HT     0.417000        1.0080           0
   11203 WT1  2529 TIP3 OH2  OT    -0.834000       15.9994           0
   11204 WT1  2529 TIP3 H1   HT     0.417000        1.0080           0
   11205 WT1  2529 TIP3 H2   HT     0.417000        1.0080           0
   11206 WT1  2530 TIP3 OH2  OT    -0.834000       15.9994           0
   11207 WT1  2530 TIP3 H1   HT     0.417000        1.0080           0
   11208 WT1  2530 TIP3 H2   HT     0.417000        1.0080           0
   11209 WT1  2531 TIP3 OH2  OT    -0.834000       15.9994           0
   11210 WT1  2531 TIP3 H1   HT     0.417000        1.0080           0
   11211 WT1  2531 TIP3 H2   HT     0.417000        1.0080           0
   11212 WT1  2532 TIP3 OH2  OT    -0.834000       15.9994           0
   11213 WT1  2532 TIP3 H1   HT     0.417000        1.0080           0
   11214 WT1  2532 TIP3 H2   HT     0.417000        1.0080           0
   11215 WT1  2533 TIP3 OH2  OT    -0.834000       15.9994           0
   11216 WT1  2533 TIP3 H1   HT     0.417000        1.0080           0
   11217 WT1  2533 TIP3 H2   HT     0.417000        1.0080           0
   11218 WT1  2534 TIP3 OH2  OT    -0.834000       15.9994           0
   11219 WT1  2534 TIP3 H1   HT     0.417000        1.0080           0
   11220 WT1  2534 TIP3 H2   HT     0.417000        1.0080           0
   11221 WT1  2536 TIP3 OH2  OT    -0.834000       15.9994           0
   11222 WT1  2536 TIP3 H1   HT     0.417000        1.0080           0
   11223 WT1  2536 TIP3 H2   HT     0.417000        1.0080           0
   11224 WT1  2537 TIP3 OH2  OT    -0.834000       15.9994           0
   11225 WT1  2537 TIP3 H1   HT     0.417000        1.0080           0
   11226 WT1  2537 TIP3 H2   HT     0.417000        1.0080           0
   11227 WT1  2538 TIP3 OH2  OT    -0.834000       15.9994           0
   11228 WT1  2538 TIP3 H1   HT     0.417000        1.0080           0
   11229 WT1  2538 TIP3 H2   HT     0.417000        1.0080           0
   11230 WT1  2539 TIP3 OH2  OT    -0.834000       15.9994           0
   11231 WT1  2539 TIP3 H1   HT     0.417000        1.0080           0
   11232 WT1  2539 TIP3 H2   HT     0.417000        1.0080           0
   11233 WT1  2540 TIP3 OH2  OT    -0.834000       15.9994           0
   11234 WT1  2540 TIP3 H1   HT     0.417000        1.0080           0
   11235 WT1  2540 TIP3 H2   HT     0.417000        1.0080           0
   11236 WT1  2541 TIP3 OH2  OT    -0.834000       15.9994           0
   11237 WT1  2541 TIP3 H1   HT     0.417000        1.0080           0
   11238 WT1  2541 TIP3 H2   HT     0.417000        1.0080           0
   11239 WT1  2542 TIP3 OH2  OT    -0.834000       15.9994           0
   11240 WT1  2542 TIP3 H1   HT     0.417000        1.0080           0
   11241 WT1  2542 TIP3 H2   HT     0.417000        1.0080           0
   11242 WT1  2543 TIP3 OH2  OT    -0.834000       15.9994           0
   11243 WT1  2543 TIP3 H1   HT     0.417000        1.0080           0
   11244 WT1  2543 TIP3 H2   HT     0.417000        1.0080           0
   11245 WT1  2544 TIP3 OH2  OT    -0.834000       15.9994           0
   11246 WT1  2544 TIP3 H1   HT     0.417000        1.0080           0
   11247 WT1  2544 TIP3 H2   HT     0.417000        1.0080           0
   11248 WT1  2545 TIP3 OH2  OT    -0.834000       15.9994           0
   11249 WT1  2545 TIP3 H1   HT     0.417000        1.0080           0
   11250 WT1  2545 TIP3 H2   HT     0.417000        1.0080           0
   11251 WT1  2546 TIP3 OH2  OT    -0.834000       15.9994           0
   11252 WT1  2546 TIP3 H1   HT     0.417000        1.0080           0
   11253 WT1  2546 TIP3 H2   HT     0.417000        1.0080           0
   11254 WT1  2547 TIP3 OH2  OT    -0.834000       15.9994           0
   11255 WT1  2547 TIP3 H1   HT     0.417000        1.0080           0
   11256 WT1  2547 TIP3 H2   HT     0.417000        1.0080           0
   11257 WT1  2548 TIP3 OH2  OT    -0.834000       15.9994           0
   11258 WT1  2548 TIP3 H1   HT     0.417000        1.0080           0
   11259 WT1  2548 TIP3 H2   HT     0.417000        1.0080           0
   11260 WT1  2549 TIP3 OH2  OT    -0.834000       15.9994           0
   11261 WT1  2549 TIP3 H1   HT     0.417000        1.0080           0
   11262 WT1  2549 TIP3 H2   HT     0.417000        1.0080           0
   11263 WT1  2550 TIP3 OH2  OT    -0.834000       15.9994           0
   11264 WT1  2550 TIP3 H1   HT     0.417000        1.0080           0
   11265 WT1  2550 TIP3 H2   HT     0.417000        1.0080           0
   11266 WT1  2551 TIP3 OH2  OT    -0.834000       15.9994           0
   11267 WT1  2551 TIP3 H1   HT     0.417000        1.0080           0
   11268 WT1  2551 TIP3 H2   HT     0.417000        1.0080           0
   11269 WT1  2552 TIP3 OH2  OT    -0.834000       15.9994           0
   11270 WT1  2552 TIP3 H1   HT     0.417000        1.0080           0
   11271 WT1  2552 TIP3 H2   HT     0.417000        1.0080           0
   11272 WT1  2553 TIP3 OH2  OT    -0.834000       15.9994           0
   11273 WT1  2553 TIP3 H1   HT     0.417000        1.0080           0
   11274 WT1  2553 TIP3 H2   HT     0.417000        1.0080           0
   11275 WT1  2554 TIP3 OH2  OT    -0.834000       15.9994           0
   11276 WT1  2554 TIP3 H1   HT     0.417000        1.0080           0
   11277 WT1  2554 TIP3 H2   HT     0.417000        1.0080           0
   11278 WT1  2555 TIP3 OH2  OT    -0.834000       15.9994           0
   11279 WT1  2555 TIP3 H1   HT     0.417000        1.0080           0
   11280 WT1  2555 TIP3 H2   HT     0.417000        1.0080           0
   11281 WT1  2556 TIP3 OH2  OT    -0.834000       15.9994           0
   11282 WT1  2556 TIP3 H1   HT     0.417000        1.0080           0
   11283 WT1  2556 TIP3 H2   HT     0.417000        1.0080           0
   11284 WT1  2557 TIP3 OH2  OT    -0.834000       15.9994           0
   11285 WT1  2557 TIP3 H1   HT     0.417000        1.0080           0
   11286 WT1  2557 TIP3 H2   HT     0.417000        1.0080           0
   11287 WT1  2558 TIP3 OH2  OT    -0.834000       15.9994           0
   11288 WT1  2558 TIP3 H1   HT     0.417000        1.0080           0
   11289 WT1  2558 TIP3 H2   HT     0.417000        1.0080           0
   11290 WT1  2561 TIP3 OH2  OT    -0.834000       15.9994           0
   11291 WT1  2561 TIP3 H1   HT     0.417000        1.0080           0
   11292 WT1  2561 TIP3 H2   HT     0.417000        1.0080           0
   11293 WT1  2562 TIP3 OH2  OT    -0.834000       15.9994           0
   11294 WT1  2562 TIP3 H1   HT     0.417000        1.0080           0
   11295 WT1  2562 TIP3 H2   HT     0.417000        1.0080           0
   11296 WT1  2563 TIP3 OH2  OT    -0.834000       15.9994           0
   11297 WT1  2563 TIP3 H1   HT     0.417000        1.0080           0
   11298 WT1  2563 TIP3 H2   HT     0.417000        1.0080           0
   11299 WT1  2564 TIP3 OH2  OT    -0.834000       15.9994           0
   11300 WT1  2564 TIP3 H1   HT     0.417000        1.0080           0
   11301 WT1  2564 TIP3 H2   HT     0.417000        1.0080           0
   11302 WT1  2566 TIP3 OH2  OT    -0.834000       15.9994           0
   11303 WT1  2566 TIP3 H1   HT     0.417000        1.0080           0
   11304 WT1  2566 TIP3 H2   HT     0.417000        1.0080           0
   11305 WT1  2567 TIP3 OH2  OT    -0.834000       15.9994           0
   11306 WT1  2567 TIP3 H1   HT     0.417000        1.0080           0
   11307 WT1  2567 TIP3 H2   HT     0.417000        1.0080           0
   11308 WT1  2568 TIP3 OH2  OT    -0.834000       15.9994           0
   11309 WT1  2568 TIP3 H1   HT     0.417000        1.0080           0
   11310 WT1  2568 TIP3 H2   HT     0.417000        1.0080           0
   11311 WT1  2569 TIP3 OH2  OT    -0.834000       15.9994           0
   11312 WT1  2569 TIP3 H1   HT     0.417000        1.0080           0
   11313 WT1  2569 TIP3 H2   HT     0.417000        1.0080           0
   11314 WT1  2570 TIP3 OH2  OT    -0.834000       15.9994           0
   11315 WT1  2570 TIP3 H1   HT     0.417000        1.0080           0
   11316 WT1  2570 TIP3 H2   HT     0.417000        1.0080           0
   11317 WT1  2571 TIP3 OH2  OT    -0.834000       15.9994           0
   11318 WT1  2571 TIP3 H1   HT     0.417000        1.0080           0
   11319 WT1  2571 TIP3 H2   HT     0.417000        1.0080           0
   11320 WT1  2572 TIP3 OH2  OT    -0.834000       15.9994           0
   11321 WT1  2572 TIP3 H1   HT     0.417000        1.0080           0
   11322 WT1  2572 TIP3 H2   HT     0.417000        1.0080           0
   11323 WT1  2573 TIP3 OH2  OT    -0.834000       15.9994           0
   11324 WT1  2573 TIP3 H1   HT     0.417000        1.0080           0
   11325 WT1  2573 TIP3 H2   HT     0.417000        1.0080           0
   11326 WT1  2574 TIP3 OH2  OT    -0.834000       15.9994           0
   11327 WT1  2574 TIP3 H1   HT     0.417000        1.0080           0
   11328 WT1  2574 TIP3 H2   HT     0.417000        1.0080           0
   11329 WT1  2575 TIP3 OH2  OT    -0.834000       15.9994           0
   11330 WT1  2575 TIP3 H1   HT     0.417000        1.0080           0
   11331 WT1  2575 TIP3 H2   HT     0.417000        1.0080           0
   11332 WT1  2576 TIP3 OH2  OT    -0.834000       15.9994           0
   11333 WT1  2576 TIP3 H1   HT     0.417000        1.0080           0
   11334 WT1  2576 TIP3 H2   HT     0.417000        1.0080           0
   11335 WT1  2577 TIP3 OH2  OT    -0.834000       15.9994           0
   11336 WT1  2577 TIP3 H1   HT     0.417000        1.0080           0
   11337 WT1  2577 TIP3 H2   HT     0.417000        1.0080           0
   11338 WT1  2578 TIP3 OH2  OT    -0.834000       15.9994           0
   11339 WT1  2578 TIP3 H1   HT     0.417000        1.0080           0
   11340 WT1  2578 TIP3 H2   HT     0.417000        1.0080           0
   11341 WT1  2579 TIP3 OH2  OT    -0.834000       15.9994           0
   11342 WT1  2579 TIP3 H1   HT     0.417000        1.0080           0
   11343 WT1  2579 TIP3 H2   HT     0.417000        1.0080           0
   11344 WT1  2580 TIP3 OH2  OT    -0.834000       15.9994           0
   11345 WT1  2580 TIP3 H1   HT     0.417000        1.0080           0
   11346 WT1  2580 TIP3 H2   HT     0.417000        1.0080           0
   11347 WT1  2581 TIP3 OH2  OT    -0.834000       15.9994           0
   11348 WT1  2581 TIP3 H1   HT     0.417000        1.0080           0
   11349 WT1  2581 TIP3 H2   HT     0.417000        1.0080           0
   11350 WT1  2582 TIP3 OH2  OT    -0.834000       15.9994           0
   11351 WT1  2582 TIP3 H1   HT     0.417000        1.0080           0
   11352 WT1  2582 TIP3 H2   HT     0.417000        1.0080           0
   11353 WT1  2584 TIP3 OH2  OT    -0.834000       15.9994           0
   11354 WT1  2584 TIP3 H1   HT     0.417000        1.0080           0
   11355 WT1  2584 TIP3 H2   HT     0.417000        1.0080           0
   11356 WT1  2585 TIP3 OH2  OT    -0.834000       15.9994           0
   11357 WT1  2585 TIP3 H1   HT     0.417000        1.0080           0
   11358 WT1  2585 TIP3 H2   HT     0.417000        1.0080           0
   11359 WT1  2587 TIP3 OH2  OT    -0.834000       15.9994           0
   11360 WT1  2587 TIP3 H1   HT     0.417000        1.0080           0
   11361 WT1  2587 TIP3 H2   HT     0.417000        1.0080           0
   11362 WT1  2588 TIP3 OH2  OT    -0.834000       15.9994           0
   11363 WT1  2588 TIP3 H1   HT     0.417000        1.0080           0
   11364 WT1  2588 TIP3 H2   HT     0.417000        1.0080           0
   11365 WT1  2589 TIP3 OH2  OT    -0.834000       15.9994           0
   11366 WT1  2589 TIP3 H1   HT     0.417000        1.0080           0
   11367 WT1  2589 TIP3 H2   HT     0.417000        1.0080           0
   11368 WT1  2590 TIP3 OH2  OT    -0.834000       15.9994           0
   11369 WT1  2590 TIP3 H1   HT     0.417000        1.0080           0
   11370 WT1  2590 TIP3 H2   HT     0.417000        1.0080           0
   11371 WT1  2591 TIP3 OH2  OT    -0.834000       15.9994           0
   11372 WT1  2591 TIP3 H1   HT     0.417000        1.0080           0
   11373 WT1  2591 TIP3 H2   HT     0.417000        1.0080           0
   11374 WT1  2592 TIP3 OH2  OT    -0.834000       15.9994           0
   11375 WT1  2592 TIP3 H1   HT     0.417000        1.0080           0
   11376 WT1  2592 TIP3 H2   HT     0.417000        1.0080           0
   11377 WT1  2593 TIP3 OH2  OT    -0.834000       15.9994           0
   11378 WT1  2593 TIP3 H1   HT     0.417000        1.0080           0
   11379 WT1  2593 TIP3 H2   HT     0.417000        1.0080           0
   11380 WT1  2594 TIP3 OH2  OT    -0.834000       15.9994           0
   11381 WT1  2594 TIP3 H1   HT     0.417000        1.0080           0
   11382 WT1  2594 TIP3 H2   HT     0.417000        1.0080           0
   11383 WT1  2595 TIP3 OH2  OT    -0.834000       15.9994           0
   11384 WT1  2595 TIP3 H1   HT     0.417000        1.0080           0
   11385 WT1  2595 TIP3 H2   HT     0.417000        1.0080           0
   11386 WT1  2596 TIP3 OH2  OT    -0.834000       15.9994           0
   11387 WT1  2596 TIP3 H1   HT     0.417000        1.0080           0
   11388 WT1  2596 TIP3 H2   HT     0.417000        1.0080           0
   11389 WT1  2597 TIP3 OH2  OT    -0.834000       15.9994           0
   11390 WT1  2597 TIP3 H1   HT     0.417000        1.0080           0
   11391 WT1  2597 TIP3 H2   HT     0.417000        1.0080           0
   11392 WT1  2598 TIP3 OH2  OT    -0.834000       15.9994           0
   11393 WT1  2598 TIP3 H1   HT     0.417000        1.0080           0
   11394 WT1  2598 TIP3 H2   HT     0.417000        1.0080           0
   11395 WT1  2599 TIP3 OH2  OT    -0.834000       15.9994           0
   11396 WT1  2599 TIP3 H1   HT     0.417000        1.0080           0
   11397 WT1  2599 TIP3 H2   HT     0.417000        1.0080           0
   11398 WT1  2602 TIP3 OH2  OT    -0.834000       15.9994           0
   11399 WT1  2602 TIP3 H1   HT     0.417000        1.0080           0
   11400 WT1  2602 TIP3 H2   HT     0.417000        1.0080           0
   11401 WT1  2603 TIP3 OH2  OT    -0.834000       15.9994           0
   11402 WT1  2603 TIP3 H1   HT     0.417000        1.0080           0
   11403 WT1  2603 TIP3 H2   HT     0.417000        1.0080           0
   11404 WT1  2605 TIP3 OH2  OT    -0.834000       15.9994           0
   11405 WT1  2605 TIP3 H1   HT     0.417000        1.0080           0
   11406 WT1  2605 TIP3 H2   HT     0.417000        1.0080           0
   11407 WT1  2606 TIP3 OH2  OT    -0.834000       15.9994           0
   11408 WT1  2606 TIP3 H1   HT     0.417000        1.0080           0
   11409 WT1  2606 TIP3 H2   HT     0.417000        1.0080           0
   11410 WT1  2607 TIP3 OH2  OT    -0.834000       15.9994           0
   11411 WT1  2607 TIP3 H1   HT     0.417000        1.0080           0
   11412 WT1  2607 TIP3 H2   HT     0.417000        1.0080           0
   11413 WT1  2608 TIP3 OH2  OT    -0.834000       15.9994           0
   11414 WT1  2608 TIP3 H1   HT     0.417000        1.0080           0
   11415 WT1  2608 TIP3 H2   HT     0.417000        1.0080           0
   11416 WT1  2609 TIP3 OH2  OT    -0.834000       15.9994           0
   11417 WT1  2609 TIP3 H1   HT     0.417000        1.0080           0
   11418 WT1  2609 TIP3 H2   HT     0.417000        1.0080           0
   11419 WT1  2610 TIP3 OH2  OT    -0.834000       15.9994           0
   11420 WT1  2610 TIP3 H1   HT     0.417000        1.0080           0
   11421 WT1  2610 TIP3 H2   HT     0.417000        1.0080           0
   11422 WT1  2611 TIP3 OH2  OT    -0.834000       15.9994           0
   11423 WT1  2611 TIP3 H1   HT     0.417000        1.0080           0
   11424 WT1  2611 TIP3 H2   HT     0.417000        1.0080           0
   11425 WT1  2612 TIP3 OH2  OT    -0.834000       15.9994           0
   11426 WT1  2612 TIP3 H1   HT     0.417000        1.0080           0
   11427 WT1  2612 TIP3 H2   HT     0.417000        1.0080           0
   11428 WT1  2613 TIP3 OH2  OT    -0.834000       15.9994           0
   11429 WT1  2613 TIP3 H1   HT     0.417000        1.0080           0
   11430 WT1  2613 TIP3 H2   HT     0.417000        1.0080           0
   11431 WT1  2614 TIP3 OH2  OT    -0.834000       15.9994           0
   11432 WT1  2614 TIP3 H1   HT     0.417000        1.0080           0
   11433 WT1  2614 TIP3 H2   HT     0.417000        1.0080           0
   11434 WT1  2615 TIP3 OH2  OT    -0.834000       15.9994           0
   11435 WT1  2615 TIP3 H1   HT     0.417000        1.0080           0
   11436 WT1  2615 TIP3 H2   HT     0.417000        1.0080           0
   11437 WT1  2616 TIP3 OH2  OT    -0.834000       15.9994           0
   11438 WT1  2616 TIP3 H1   HT     0.417000        1.0080           0
   11439 WT1  2616 TIP3 H2   HT     0.417000        1.0080           0
   11440 WT1  2617 TIP3 OH2  OT    -0.834000       15.9994           0
   11441 WT1  2617 TIP3 H1   HT     0.417000        1.0080           0
   11442 WT1  2617 TIP3 H2   HT     0.417000        1.0080           0
   11443 WT1  2618 TIP3 OH2  OT    -0.834000       15.9994           0
   11444 WT1  2618 TIP3 H1   HT     0.417000        1.0080           0
   11445 WT1  2618 TIP3 H2   HT     0.417000        1.0080           0
   11446 WT1  2619 TIP3 OH2  OT    -0.834000       15.9994           0
   11447 WT1  2619 TIP3 H1   HT     0.417000        1.0080           0
   11448 WT1  2619 TIP3 H2   HT     0.417000        1.0080           0
   11449 WT1  2620 TIP3 OH2  OT    -0.834000       15.9994           0
   11450 WT1  2620 TIP3 H1   HT     0.417000        1.0080           0
   11451 WT1  2620 TIP3 H2   HT     0.417000        1.0080           0
   11452 WT1  2622 TIP3 OH2  OT    -0.834000       15.9994           0
   11453 WT1  2622 TIP3 H1   HT     0.417000        1.0080           0
   11454 WT1  2622 TIP3 H2   HT     0.417000        1.0080           0
   11455 WT1  2623 TIP3 OH2  OT    -0.834000       15.9994           0
   11456 WT1  2623 TIP3 H1   HT     0.417000        1.0080           0
   11457 WT1  2623 TIP3 H2   HT     0.417000        1.0080           0
   11458 WT1  2626 TIP3 OH2  OT    -0.834000       15.9994           0
   11459 WT1  2626 TIP3 H1   HT     0.417000        1.0080           0
   11460 WT1  2626 TIP3 H2   HT     0.417000        1.0080           0
   11461 WT1  2627 TIP3 OH2  OT    -0.834000       15.9994           0
   11462 WT1  2627 TIP3 H1   HT     0.417000        1.0080           0
   11463 WT1  2627 TIP3 H2   HT     0.417000        1.0080           0
   11464 WT1  2628 TIP3 OH2  OT    -0.834000       15.9994           0
   11465 WT1  2628 TIP3 H1   HT     0.417000        1.0080           0
   11466 WT1  2628 TIP3 H2   HT     0.417000        1.0080           0
   11467 WT1  2629 TIP3 OH2  OT    -0.834000       15.9994           0
   11468 WT1  2629 TIP3 H1   HT     0.417000        1.0080           0
   11469 WT1  2629 TIP3 H2   HT     0.417000        1.0080           0
   11470 WT1  2631 TIP3 OH2  OT    -0.834000       15.9994           0
   11471 WT1  2631 TIP3 H1   HT     0.417000        1.0080           0
   11472 WT1  2631 TIP3 H2   HT     0.417000        1.0080           0
   11473 WT1  2632 TIP3 OH2  OT    -0.834000       15.9994           0
   11474 WT1  2632 TIP3 H1   HT     0.417000        1.0080           0
   11475 WT1  2632 TIP3 H2   HT     0.417000        1.0080           0
   11476 WT1  2633 TIP3 OH2  OT    -0.834000       15.9994           0
   11477 WT1  2633 TIP3 H1   HT     0.417000        1.0080           0
   11478 WT1  2633 TIP3 H2   HT     0.417000        1.0080           0
   11479 WT1  2634 TIP3 OH2  OT    -0.834000       15.9994           0
   11480 WT1  2634 TIP3 H1   HT     0.417000        1.0080           0
   11481 WT1  2634 TIP3 H2   HT     0.417000        1.0080           0
   11482 WT1  2635 TIP3 OH2  OT    -0.834000       15.9994           0
   11483 WT1  2635 TIP3 H1   HT     0.417000        1.0080           0
   11484 WT1  2635 TIP3 H2   HT     0.417000        1.0080           0
   11485 WT1  2636 TIP3 OH2  OT    -0.834000       15.9994           0
   11486 WT1  2636 TIP3 H1   HT     0.417000        1.0080           0
   11487 WT1  2636 TIP3 H2   HT     0.417000        1.0080           0
   11488 WT1  2637 TIP3 OH2  OT    -0.834000       15.9994           0
   11489 WT1  2637 TIP3 H1   HT     0.417000        1.0080           0
   11490 WT1  2637 TIP3 H2   HT     0.417000        1.0080           0
   11491 WT1  2638 TIP3 OH2  OT    -0.834000       15.9994           0
   11492 WT1  2638 TIP3 H1   HT     0.417000        1.0080           0
   11493 WT1  2638 TIP3 H2   HT     0.417000        1.0080           0
   11494 WT1  2640 TIP3 OH2  OT    -0.834000       15.9994           0
   11495 WT1  2640 TIP3 H1   HT     0.417000        1.0080           0
   11496 WT1  2640 TIP3 H2   HT     0.417000        1.0080           0
   11497 WT1  2644 TIP3 OH2  OT    -0.834000       15.9994           0
   11498 WT1  2644 TIP3 H1   HT     0.417000        1.0080           0
   11499 WT1  2644 TIP3 H2   HT     0.417000        1.0080           0
   11500 WT1  2645 TIP3 OH2  OT    -0.834000       15.9994           0
   11501 WT1  2645 TIP3 H1   HT     0.417000        1.0080           0
   11502 WT1  2645 TIP3 H2   HT     0.417000        1.0080           0
   11503 WT1  2646 TIP3 OH2  OT    -0.834000       15.9994           0
   11504 WT1  2646 TIP3 H1   HT     0.417000        1.0080           0
   11505 WT1  2646 TIP3 H2   HT     0.417000        1.0080           0
   11506 WT1  2647 TIP3 OH2  OT    -0.834000       15.9994           0
   11507 WT1  2647 TIP3 H1   HT     0.417000        1.0080           0
   11508 WT1  2647 TIP3 H2   HT     0.417000        1.0080           0
   11509 WT1  2648 TIP3 OH2  OT    -0.834000       15.9994           0
   11510 WT1  2648 TIP3 H1   HT     0.417000        1.0080           0
   11511 WT1  2648 TIP3 H2   HT     0.417000        1.0080           0
   11512 WT1  2649 TIP3 OH2  OT    -0.834000       15.9994           0
   11513 WT1  2649 TIP3 H1   HT     0.417000        1.0080           0
   11514 WT1  2649 TIP3 H2   HT     0.417000        1.0080           0
   11515 WT1  2650 TIP3 OH2  OT    -0.834000       15.9994           0
   11516 WT1  2650 TIP3 H1   HT     0.417000        1.0080           0
   11517 WT1  2650 TIP3 H2   HT     0.417000        1.0080           0
   11518 WT1  2651 TIP3 OH2  OT    -0.834000       15.9994           0
   11519 WT1  2651 TIP3 H1   HT     0.417000        1.0080           0
   11520 WT1  2651 TIP3 H2   HT     0.417000        1.0080           0
   11521 WT1  2653 TIP3 OH2  OT    -0.834000       15.9994           0
   11522 WT1  2653 TIP3 H1   HT     0.417000        1.0080           0
   11523 WT1  2653 TIP3 H2   HT     0.417000        1.0080           0
   11524 WT1  2654 TIP3 OH2  OT    -0.834000       15.9994           0
   11525 WT1  2654 TIP3 H1   HT     0.417000        1.0080           0
   11526 WT1  2654 TIP3 H2   HT     0.417000        1.0080           0
   11527 WT1  2655 TIP3 OH2  OT    -0.834000       15.9994           0
   11528 WT1  2655 TIP3 H1   HT     0.417000        1.0080           0
   11529 WT1  2655 TIP3 H2   HT     0.417000        1.0080           0
   11530 WT1  2656 TIP3 OH2  OT    -0.834000       15.9994           0
   11531 WT1  2656 TIP3 H1   HT     0.417000        1.0080           0
   11532 WT1  2656 TIP3 H2   HT     0.417000        1.0080           0
   11533 WT1  2657 TIP3 OH2  OT    -0.834000       15.9994           0
   11534 WT1  2657 TIP3 H1   HT     0.417000        1.0080           0
   11535 WT1  2657 TIP3 H2   HT     0.417000        1.0080           0
   11536 WT1  2658 TIP3 OH2  OT    -0.834000       15.9994           0
   11537 WT1  2658 TIP3 H1   HT     0.417000        1.0080           0
   11538 WT1  2658 TIP3 H2   HT     0.417000        1.0080           0
   11539 WT1  2659 TIP3 OH2  OT    -0.834000       15.9994           0
   11540 WT1  2659 TIP3 H1   HT     0.417000        1.0080           0
   11541 WT1  2659 TIP3 H2   HT     0.417000        1.0080           0
   11542 WT1  2662 TIP3 OH2  OT    -0.834000       15.9994           0
   11543 WT1  2662 TIP3 H1   HT     0.417000        1.0080           0
   11544 WT1  2662 TIP3 H2   HT     0.417000        1.0080           0
   11545 WT1  2663 TIP3 OH2  OT    -0.834000       15.9994           0
   11546 WT1  2663 TIP3 H1   HT     0.417000        1.0080           0
   11547 WT1  2663 TIP3 H2   HT     0.417000        1.0080           0
   11548 WT1  2665 TIP3 OH2  OT    -0.834000       15.9994           0
   11549 WT1  2665 TIP3 H1   HT     0.417000        1.0080           0
   11550 WT1  2665 TIP3 H2   HT     0.417000        1.0080           0
   11551 WT1  2667 TIP3 OH2  OT    -0.834000       15.9994           0
   11552 WT1  2667 TIP3 H1   HT     0.417000        1.0080           0
   11553 WT1  2667 TIP3 H2   HT     0.417000        1.0080           0
   11554 WT1  2668 TIP3 OH2  OT    -0.834000       15.9994           0
   11555 WT1  2668 TIP3 H1   HT     0.417000        1.0080           0
   11556 WT1  2668 TIP3 H2   HT     0.417000        1.0080           0
   11557 WT1  2669 TIP3 OH2  OT    -0.834000       15.9994           0
   11558 WT1  2669 TIP3 H1   HT     0.417000        1.0080           0
   11559 WT1  2669 TIP3 H2   HT     0.417000        1.0080           0
   11560 WT1  2670 TIP3 OH2  OT    -0.834000       15.9994           0
   11561 WT1  2670 TIP3 H1   HT     0.417000        1.0080           0
   11562 WT1  2670 TIP3 H2   HT     0.417000        1.0080           0
   11563 WT1  2672 TIP3 OH2  OT    -0.834000       15.9994           0
   11564 WT1  2672 TIP3 H1   HT     0.417000        1.0080           0
   11565 WT1  2672 TIP3 H2   HT     0.417000        1.0080           0
   11566 WT1  2673 TIP3 OH2  OT    -0.834000       15.9994           0
   11567 WT1  2673 TIP3 H1   HT     0.417000        1.0080           0
   11568 WT1  2673 TIP3 H2   HT     0.417000        1.0080           0
   11569 WT1  2674 TIP3 OH2  OT    -0.834000       15.9994           0
   11570 WT1  2674 TIP3 H1   HT     0.417000        1.0080           0
   11571 WT1  2674 TIP3 H2   HT     0.417000        1.0080           0
   11572 WT1  2675 TIP3 OH2  OT    -0.834000       15.9994           0
   11573 WT1  2675 TIP3 H1   HT     0.417000        1.0080           0
   11574 WT1  2675 TIP3 H2   HT     0.417000        1.0080           0
   11575 WT1  2676 TIP3 OH2  OT    -0.834000       15.9994           0
   11576 WT1  2676 TIP3 H1   HT     0.417000        1.0080           0
   11577 WT1  2676 TIP3 H2   HT     0.417000        1.0080           0
   11578 WT1  2677 TIP3 OH2  OT    -0.834000       15.9994           0
   11579 WT1  2677 TIP3 H1   HT     0.417000        1.0080           0
   11580 WT1  2677 TIP3 H2   HT     0.417000        1.0080           0
   11581 WT1  2678 TIP3 OH2  OT    -0.834000       15.9994           0
   11582 WT1  2678 TIP3 H1   HT     0.417000        1.0080           0
   11583 WT1  2678 TIP3 H2   HT     0.417000        1.0080           0
   11584 WT1  2679 TIP3 OH2  OT    -0.834000       15.9994           0
   11585 WT1  2679 TIP3 H1   HT     0.417000        1.0080           0
   11586 WT1  2679 TIP3 H2   HT     0.417000        1.0080           0
   11587 WT1  2680 TIP3 OH2  OT    -0.834000       15.9994           0
   11588 WT1  2680 TIP3 H1   HT     0.417000        1.0080           0
   11589 WT1  2680 TIP3 H2   HT     0.417000        1.0080           0
   11590 WT1  2681 TIP3 OH2  OT    -0.834000       15.9994           0
   11591 WT1  2681 TIP3 H1   HT     0.417000        1.0080           0
   11592 WT1  2681 TIP3 H2   HT     0.417000        1.0080           0
   11593 WT1  2682 TIP3 OH2  OT    -0.834000       15.9994           0
   11594 WT1  2682 TIP3 H1   HT     0.417000        1.0080           0
   11595 WT1  2682 TIP3 H2   HT     0.417000        1.0080           0
   11596 WT1  2683 TIP3 OH2  OT    -0.834000       15.9994           0
   11597 WT1  2683 TIP3 H1   HT     0.417000        1.0080           0
   11598 WT1  2683 TIP3 H2   HT     0.417000        1.0080           0
   11599 WT1  2684 TIP3 OH2  OT    -0.834000       15.9994           0
   11600 WT1  2684 TIP3 H1   HT     0.417000        1.0080           0
   11601 WT1  2684 TIP3 H2   HT     0.417000        1.0080           0
   11602 WT1  2686 TIP3 OH2  OT    -0.834000       15.9994           0
   11603 WT1  2686 TIP3 H1   HT     0.417000        1.0080           0
   11604 WT1  2686 TIP3 H2   HT     0.417000        1.0080           0
   11605 WT1  2688 TIP3 OH2  OT    -0.834000       15.9994           0
   11606 WT1  2688 TIP3 H1   HT     0.417000        1.0080           0
   11607 WT1  2688 TIP3 H2   HT     0.417000        1.0080           0
   11608 WT1  2689 TIP3 OH2  OT    -0.834000       15.9994           0
   11609 WT1  2689 TIP3 H1   HT     0.417000        1.0080           0
   11610 WT1  2689 TIP3 H2   HT     0.417000        1.0080           0
   11611 WT1  2690 TIP3 OH2  OT    -0.834000       15.9994           0
   11612 WT1  2690 TIP3 H1   HT     0.417000        1.0080           0
   11613 WT1  2690 TIP3 H2   HT     0.417000        1.0080           0
   11614 WT1  2691 TIP3 OH2  OT    -0.834000       15.9994           0
   11615 WT1  2691 TIP3 H1   HT     0.417000        1.0080           0
   11616 WT1  2691 TIP3 H2   HT     0.417000        1.0080           0
   11617 WT1  2692 TIP3 OH2  OT    -0.834000       15.9994           0
   11618 WT1  2692 TIP3 H1   HT     0.417000        1.0080           0
   11619 WT1  2692 TIP3 H2   HT     0.417000        1.0080           0
   11620 WT1  2693 TIP3 OH2  OT    -0.834000       15.9994           0
   11621 WT1  2693 TIP3 H1   HT     0.417000        1.0080           0
   11622 WT1  2693 TIP3 H2   HT     0.417000        1.0080           0
   11623 WT1  2694 TIP3 OH2  OT    -0.834000       15.9994           0
   11624 WT1  2694 TIP3 H1   HT     0.417000        1.0080           0
   11625 WT1  2694 TIP3 H2   HT     0.417000        1.0080           0
   11626 WT1  2695 TIP3 OH2  OT    -0.834000       15.9994           0
   11627 WT1  2695 TIP3 H1   HT     0.417000        1.0080           0
   11628 WT1  2695 TIP3 H2   HT     0.417000        1.0080           0
   11629 WT1  2696 TIP3 OH2  OT    -0.834000       15.9994           0
   11630 WT1  2696 TIP3 H1   HT     0.417000        1.0080           0
   11631 WT1  2696 TIP3 H2   HT     0.417000        1.0080           0
   11632 WT1  2697 TIP3 OH2  OT    -0.834000       15.9994           0
   11633 WT1  2697 TIP3 H1   HT     0.417000        1.0080           0
   11634 WT1  2697 TIP3 H2   HT     0.417000        1.0080           0
   11635 WT1  2698 TIP3 OH2  OT    -0.834000       15.9994           0
   11636 WT1  2698 TIP3 H1   HT     0.417000        1.0080           0
   11637 WT1  2698 TIP3 H2   HT     0.417000        1.0080           0
   11638 WT1  2699 TIP3 OH2  OT    -0.834000       15.9994           0
   11639 WT1  2699 TIP3 H1   HT     0.417000        1.0080           0
   11640 WT1  2699 TIP3 H2   HT     0.417000        1.0080           0
   11641 WT1  2700 TIP3 OH2  OT    -0.834000       15.9994           0
   11642 WT1  2700 TIP3 H1   HT     0.417000        1.0080           0
   11643 WT1  2700 TIP3 H2   HT     0.417000        1.0080           0
   11644 WT1  2701 TIP3 OH2  OT    -0.834000       15.9994           0
   11645 WT1  2701 TIP3 H1   HT     0.417000        1.0080           0
   11646 WT1  2701 TIP3 H2   HT     0.417000        1.0080           0
   11647 WT1  2702 TIP3 OH2  OT    -0.834000       15.9994           0
   11648 WT1  2702 TIP3 H1   HT     0.417000        1.0080           0
   11649 WT1  2702 TIP3 H2   HT     0.417000        1.0080           0
   11650 WT1  2703 TIP3 OH2  OT    -0.834000       15.9994           0
   11651 WT1  2703 TIP3 H1   HT     0.417000        1.0080           0
   11652 WT1  2703 TIP3 H2   HT     0.417000        1.0080           0
   11653 WT1  2704 TIP3 OH2  OT    -0.834000       15.9994           0
   11654 WT1  2704 TIP3 H1   HT     0.417000        1.0080           0
   11655 WT1  2704 TIP3 H2   HT     0.417000        1.0080           0
   11656 WT1  2705 TIP3 OH2  OT    -0.834000       15.9994           0
   11657 WT1  2705 TIP3 H1   HT     0.417000        1.0080           0
   11658 WT1  2705 TIP3 H2   HT     0.417000        1.0080           0
   11659 WT1  2707 TIP3 OH2  OT    -0.834000       15.9994           0
   11660 WT1  2707 TIP3 H1   HT     0.417000        1.0080           0
   11661 WT1  2707 TIP3 H2   HT     0.417000        1.0080           0
   11662 WT1  2708 TIP3 OH2  OT    -0.834000       15.9994           0
   11663 WT1  2708 TIP3 H1   HT     0.417000        1.0080           0
   11664 WT1  2708 TIP3 H2   HT     0.417000        1.0080           0
   11665 WT1  2709 TIP3 OH2  OT    -0.834000       15.9994           0
   11666 WT1  2709 TIP3 H1   HT     0.417000        1.0080           0
   11667 WT1  2709 TIP3 H2   HT     0.417000        1.0080           0
   11668 WT1  2710 TIP3 OH2  OT    -0.834000       15.9994           0
   11669 WT1  2710 TIP3 H1   HT     0.417000        1.0080           0
   11670 WT1  2710 TIP3 H2   HT     0.417000        1.0080           0
   11671 WT1  2711 TIP3 OH2  OT    -0.834000       15.9994           0
   11672 WT1  2711 TIP3 H1   HT     0.417000        1.0080           0
   11673 WT1  2711 TIP3 H2   HT     0.417000        1.0080           0
   11674 WT1  2712 TIP3 OH2  OT    -0.834000       15.9994           0
   11675 WT1  2712 TIP3 H1   HT     0.417000        1.0080           0
   11676 WT1  2712 TIP3 H2   HT     0.417000        1.0080           0
   11677 WT1  2713 TIP3 OH2  OT    -0.834000       15.9994           0
   11678 WT1  2713 TIP3 H1   HT     0.417000        1.0080           0
   11679 WT1  2713 TIP3 H2   HT     0.417000        1.0080           0
   11680 WT1  2714 TIP3 OH2  OT    -0.834000       15.9994           0
   11681 WT1  2714 TIP3 H1   HT     0.417000        1.0080           0
   11682 WT1  2714 TIP3 H2   HT     0.417000        1.0080           0
   11683 WT1  2715 TIP3 OH2  OT    -0.834000       15.9994           0
   11684 WT1  2715 TIP3 H1   HT     0.417000        1.0080           0
   11685 WT1  2715 TIP3 H2   HT     0.417000        1.0080           0
   11686 WT1  2716 TIP3 OH2  OT    -0.834000       15.9994           0
   11687 WT1  2716 TIP3 H1   HT     0.417000        1.0080           0
   11688 WT1  2716 TIP3 H2   HT     0.417000        1.0080           0
   11689 WT1  2717 TIP3 OH2  OT    -0.834000       15.9994           0
   11690 WT1  2717 TIP3 H1   HT     0.417000        1.0080           0
   11691 WT1  2717 TIP3 H2   HT     0.417000        1.0080           0
   11692 WT1  2718 TIP3 OH2  OT    -0.834000       15.9994           0
   11693 WT1  2718 TIP3 H1   HT     0.417000        1.0080           0
   11694 WT1  2718 TIP3 H2   HT     0.417000        1.0080           0
   11695 WT1  2719 TIP3 OH2  OT    -0.834000       15.9994           0
   11696 WT1  2719 TIP3 H1   HT     0.417000        1.0080           0
   11697 WT1  2719 TIP3 H2   HT     0.417000        1.0080           0
   11698 WT1  2720 TIP3 OH2  OT    -0.834000       15.9994           0
   11699 WT1  2720 TIP3 H1   HT     0.417000        1.0080           0
   11700 WT1  2720 TIP3 H2   HT     0.417000        1.0080           0
   11701 WT1  2721 TIP3 OH2  OT    -0.834000       15.9994           0
   11702 WT1  2721 TIP3 H1   HT     0.417000        1.0080           0
   11703 WT1  2721 TIP3 H2   HT     0.417000        1.0080           0
   11704 WT1  2722 TIP3 OH2  OT    -0.834000       15.9994           0
   11705 WT1  2722 TIP3 H1   HT     0.417000        1.0080           0
   11706 WT1  2722 TIP3 H2   HT     0.417000        1.0080           0
   11707 WT1  2723 TIP3 OH2  OT    -0.834000       15.9994           0
   11708 WT1  2723 TIP3 H1   HT     0.417000        1.0080           0
   11709 WT1  2723 TIP3 H2   HT     0.417000        1.0080           0
   11710 WT1  2724 TIP3 OH2  OT    -0.834000       15.9994           0
   11711 WT1  2724 TIP3 H1   HT     0.417000        1.0080           0
   11712 WT1  2724 TIP3 H2   HT     0.417000        1.0080           0
   11713 WT1  2728 TIP3 OH2  OT    -0.834000       15.9994           0
   11714 WT1  2728 TIP3 H1   HT     0.417000        1.0080           0
   11715 WT1  2728 TIP3 H2   HT     0.417000        1.0080           0
   11716 WT1  2730 TIP3 OH2  OT    -0.834000       15.9994           0
   11717 WT1  2730 TIP3 H1   HT     0.417000        1.0080           0
   11718 WT1  2730 TIP3 H2   HT     0.417000        1.0080           0
   11719 WT1  2731 TIP3 OH2  OT    -0.834000       15.9994           0
   11720 WT1  2731 TIP3 H1   HT     0.417000        1.0080           0
   11721 WT1  2731 TIP3 H2   HT     0.417000        1.0080           0
   11722 WT1  2732 TIP3 OH2  OT    -0.834000       15.9994           0
   11723 WT1  2732 TIP3 H1   HT     0.417000        1.0080           0
   11724 WT1  2732 TIP3 H2   HT     0.417000        1.0080           0
   11725 WT1  2733 TIP3 OH2  OT    -0.834000       15.9994           0
   11726 WT1  2733 TIP3 H1   HT     0.417000        1.0080           0
   11727 WT1  2733 TIP3 H2   HT     0.417000        1.0080           0
   11728 WT1  2734 TIP3 OH2  OT    -0.834000       15.9994           0
   11729 WT1  2734 TIP3 H1   HT     0.417000        1.0080           0
   11730 WT1  2734 TIP3 H2   HT     0.417000        1.0080           0
   11731 WT1  2735 TIP3 OH2  OT    -0.834000       15.9994           0
   11732 WT1  2735 TIP3 H1   HT     0.417000        1.0080           0
   11733 WT1  2735 TIP3 H2   HT     0.417000        1.0080           0
   11734 WT1  2736 TIP3 OH2  OT    -0.834000       15.9994           0
   11735 WT1  2736 TIP3 H1   HT     0.417000        1.0080           0
   11736 WT1  2736 TIP3 H2   HT     0.417000        1.0080           0
   11737 WT1  2737 TIP3 OH2  OT    -0.834000       15.9994           0
   11738 WT1  2737 TIP3 H1   HT     0.417000        1.0080           0
   11739 WT1  2737 TIP3 H2   HT     0.417000        1.0080           0
   11740 WT1  2738 TIP3 OH2  OT    -0.834000       15.9994           0
   11741 WT1  2738 TIP3 H1   HT     0.417000        1.0080           0
   11742 WT1  2738 TIP3 H2   HT     0.417000        1.0080           0
   11743 WT1  2739 TIP3 OH2  OT    -0.834000       15.9994           0
   11744 WT1  2739 TIP3 H1   HT     0.417000        1.0080           0
   11745 WT1  2739 TIP3 H2   HT     0.417000        1.0080           0
   11746 WT1  2740 TIP3 OH2  OT    -0.834000       15.9994           0
   11747 WT1  2740 TIP3 H1   HT     0.417000        1.0080           0
   11748 WT1  2740 TIP3 H2   HT     0.417000        1.0080           0
   11749 WT1  2741 TIP3 OH2  OT    -0.834000       15.9994           0
   11750 WT1  2741 TIP3 H1   HT     0.417000        1.0080           0
   11751 WT1  2741 TIP3 H2   HT     0.417000        1.0080           0
   11752 WT1  2743 TIP3 OH2  OT    -0.834000       15.9994           0
   11753 WT1  2743 TIP3 H1   HT     0.417000        1.0080           0
   11754 WT1  2743 TIP3 H2   HT     0.417000        1.0080           0
   11755 WT1  2744 TIP3 OH2  OT    -0.834000       15.9994           0
   11756 WT1  2744 TIP3 H1   HT     0.417000        1.0080           0
   11757 WT1  2744 TIP3 H2   HT     0.417000        1.0080           0
   11758 WT1  2746 TIP3 OH2  OT    -0.834000       15.9994           0
   11759 WT1  2746 TIP3 H1   HT     0.417000        1.0080           0
   11760 WT1  2746 TIP3 H2   HT     0.417000        1.0080           0
   11761 WT1  2749 TIP3 OH2  OT    -0.834000       15.9994           0
   11762 WT1  2749 TIP3 H1   HT     0.417000        1.0080           0
   11763 WT1  2749 TIP3 H2   HT     0.417000        1.0080           0
   11764 WT1  2750 TIP3 OH2  OT    -0.834000       15.9994           0
   11765 WT1  2750 TIP3 H1   HT     0.417000        1.0080           0
   11766 WT1  2750 TIP3 H2   HT     0.417000        1.0080           0
   11767 WT1  2752 TIP3 OH2  OT    -0.834000       15.9994           0
   11768 WT1  2752 TIP3 H1   HT     0.417000        1.0080           0
   11769 WT1  2752 TIP3 H2   HT     0.417000        1.0080           0
   11770 WT1  2753 TIP3 OH2  OT    -0.834000       15.9994           0
   11771 WT1  2753 TIP3 H1   HT     0.417000        1.0080           0
   11772 WT1  2753 TIP3 H2   HT     0.417000        1.0080           0
   11773 WT1  2754 TIP3 OH2  OT    -0.834000       15.9994           0
   11774 WT1  2754 TIP3 H1   HT     0.417000        1.0080           0
   11775 WT1  2754 TIP3 H2   HT     0.417000        1.0080           0
   11776 WT1  2755 TIP3 OH2  OT    -0.834000       15.9994           0
   11777 WT1  2755 TIP3 H1   HT     0.417000        1.0080           0
   11778 WT1  2755 TIP3 H2   HT     0.417000        1.0080           0
   11779 WT1  2756 TIP3 OH2  OT    -0.834000       15.9994           0
   11780 WT1  2756 TIP3 H1   HT     0.417000        1.0080           0
   11781 WT1  2756 TIP3 H2   HT     0.417000        1.0080           0
   11782 WT1  2757 TIP3 OH2  OT    -0.834000       15.9994           0
   11783 WT1  2757 TIP3 H1   HT     0.417000        1.0080           0
   11784 WT1  2757 TIP3 H2   HT     0.417000        1.0080           0
   11785 WT1  2758 TIP3 OH2  OT    -0.834000       15.9994           0
   11786 WT1  2758 TIP3 H1   HT     0.417000        1.0080           0
   11787 WT1  2758 TIP3 H2   HT     0.417000        1.0080           0
   11788 WT1  2760 TIP3 OH2  OT    -0.834000       15.9994           0
   11789 WT1  2760 TIP3 H1   HT     0.417000        1.0080           0
   11790 WT1  2760 TIP3 H2   HT     0.417000        1.0080           0
   11791 WT1  2761 TIP3 OH2  OT    -0.834000       15.9994           0
   11792 WT1  2761 TIP3 H1   HT     0.417000        1.0080           0
   11793 WT1  2761 TIP3 H2   HT     0.417000        1.0080           0
   11794 WT1  2762 TIP3 OH2  OT    -0.834000       15.9994           0
   11795 WT1  2762 TIP3 H1   HT     0.417000        1.0080           0
   11796 WT1  2762 TIP3 H2   HT     0.417000        1.0080           0
   11797 WT1  2763 TIP3 OH2  OT    -0.834000       15.9994           0
   11798 WT1  2763 TIP3 H1   HT     0.417000        1.0080           0
   11799 WT1  2763 TIP3 H2   HT     0.417000        1.0080           0
   11800 WT1  2765 TIP3 OH2  OT    -0.834000       15.9994           0
   11801 WT1  2765 TIP3 H1   HT     0.417000        1.0080           0
   11802 WT1  2765 TIP3 H2   HT     0.417000        1.0080           0
   11803 WT1  2766 TIP3 OH2  OT    -0.834000       15.9994           0
   11804 WT1  2766 TIP3 H1   HT     0.417000        1.0080           0
   11805 WT1  2766 TIP3 H2   HT     0.417000        1.0080           0
   11806 WT1  2767 TIP3 OH2  OT    -0.834000       15.9994           0
   11807 WT1  2767 TIP3 H1   HT     0.417000        1.0080           0
   11808 WT1  2767 TIP3 H2   HT     0.417000        1.0080           0
   11809 WT1  2768 TIP3 OH2  OT    -0.834000       15.9994           0
   11810 WT1  2768 TIP3 H1   HT     0.417000        1.0080           0
   11811 WT1  2768 TIP3 H2   HT     0.417000        1.0080           0
   11812 WT1  2769 TIP3 OH2  OT    -0.834000       15.9994           0
   11813 WT1  2769 TIP3 H1   HT     0.417000        1.0080           0
   11814 WT1  2769 TIP3 H2   HT     0.417000        1.0080           0
   11815 WT1  2771 TIP3 OH2  OT    -0.834000       15.9994           0
   11816 WT1  2771 TIP3 H1   HT     0.417000        1.0080           0
   11817 WT1  2771 TIP3 H2   HT     0.417000        1.0080           0
   11818 WT1  2772 TIP3 OH2  OT    -0.834000       15.9994           0
   11819 WT1  2772 TIP3 H1   HT     0.417000        1.0080           0
   11820 WT1  2772 TIP3 H2   HT     0.417000        1.0080           0
   11821 WT1  2774 TIP3 OH2  OT    -0.834000       15.9994           0
   11822 WT1  2774 TIP3 H1   HT     0.417000        1.0080           0
   11823 WT1  2774 TIP3 H2   HT     0.417000        1.0080           0
   11824 WT1  2775 TIP3 OH2  OT    -0.834000       15.9994           0
   11825 WT1  2775 TIP3 H1   HT     0.417000        1.0080           0
   11826 WT1  2775 TIP3 H2   HT     0.417000        1.0080           0
   11827 WT1  2776 TIP3 OH2  OT    -0.834000       15.9994           0
   11828 WT1  2776 TIP3 H1   HT     0.417000        1.0080           0
   11829 WT1  2776 TIP3 H2   HT     0.417000        1.0080           0
   11830 WT1  2777 TIP3 OH2  OT    -0.834000       15.9994           0
   11831 WT1  2777 TIP3 H1   HT     0.417000        1.0080           0
   11832 WT1  2777 TIP3 H2   HT     0.417000        1.0080           0
   11833 WT1  2778 TIP3 OH2  OT    -0.834000       15.9994           0
   11834 WT1  2778 TIP3 H1   HT     0.417000        1.0080           0
   11835 WT1  2778 TIP3 H2   HT     0.417000        1.0080           0
   11836 WT1  2779 TIP3 OH2  OT    -0.834000       15.9994           0
   11837 WT1  2779 TIP3 H1   HT     0.417000        1.0080           0
   11838 WT1  2779 TIP3 H2   HT     0.417000        1.0080           0
   11839 WT1  2780 TIP3 OH2  OT    -0.834000       15.9994           0
   11840 WT1  2780 TIP3 H1   HT     0.417000        1.0080           0
   11841 WT1  2780 TIP3 H2   HT     0.417000        1.0080           0
   11842 WT1  2781 TIP3 OH2  OT    -0.834000       15.9994           0
   11843 WT1  2781 TIP3 H1   HT     0.417000        1.0080           0
   11844 WT1  2781 TIP3 H2   HT     0.417000        1.0080           0
   11845 WT1  2782 TIP3 OH2  OT    -0.834000       15.9994           0
   11846 WT1  2782 TIP3 H1   HT     0.417000        1.0080           0
   11847 WT1  2782 TIP3 H2   HT     0.417000        1.0080           0
   11848 WT1  2783 TIP3 OH2  OT    -0.834000       15.9994           0
   11849 WT1  2783 TIP3 H1   HT     0.417000        1.0080           0
   11850 WT1  2783 TIP3 H2   HT     0.417000        1.0080           0
   11851 WT1  2784 TIP3 OH2  OT    -0.834000       15.9994           0
   11852 WT1  2784 TIP3 H1   HT     0.417000        1.0080           0
   11853 WT1  2784 TIP3 H2   HT     0.417000        1.0080           0
   11854 WT1  2785 TIP3 OH2  OT    -0.834000       15.9994           0
   11855 WT1  2785 TIP3 H1   HT     0.417000        1.0080           0
   11856 WT1  2785 TIP3 H2   HT     0.417000        1.0080           0
   11857 WT1  2786 TIP3 OH2  OT    -0.834000       15.9994           0
   11858 WT1  2786 TIP3 H1   HT     0.417000        1.0080           0
   11859 WT1  2786 TIP3 H2   HT     0.417000        1.0080           0
   11860 WT1  2787 TIP3 OH2  OT    -0.834000       15.9994           0
   11861 WT1  2787 TIP3 H1   HT     0.417000        1.0080           0
   11862 WT1  2787 TIP3 H2   HT     0.417000        1.0080           0
   11863 WT1  2790 TIP3 OH2  OT    -0.834000       15.9994           0
   11864 WT1  2790 TIP3 H1   HT     0.417000        1.0080           0
   11865 WT1  2790 TIP3 H2   HT     0.417000        1.0080           0
   11866 WT1  2794 TIP3 OH2  OT    -0.834000       15.9994           0
   11867 WT1  2794 TIP3 H1   HT     0.417000        1.0080           0
   11868 WT1  2794 TIP3 H2   HT     0.417000        1.0080           0
   11869 WT1  2795 TIP3 OH2  OT    -0.834000       15.9994           0
   11870 WT1  2795 TIP3 H1   HT     0.417000        1.0080           0
   11871 WT1  2795 TIP3 H2   HT     0.417000        1.0080           0
   11872 WT1  2796 TIP3 OH2  OT    -0.834000       15.9994           0
   11873 WT1  2796 TIP3 H1   HT     0.417000        1.0080           0
   11874 WT1  2796 TIP3 H2   HT     0.417000        1.0080           0
   11875 WT1  2797 TIP3 OH2  OT    -0.834000       15.9994           0
   11876 WT1  2797 TIP3 H1   HT     0.417000        1.0080           0
   11877 WT1  2797 TIP3 H2   HT     0.417000        1.0080           0
   11878 WT1  2798 TIP3 OH2  OT    -0.834000       15.9994           0
   11879 WT1  2798 TIP3 H1   HT     0.417000        1.0080           0
   11880 WT1  2798 TIP3 H2   HT     0.417000        1.0080           0
   11881 WT1  2799 TIP3 OH2  OT    -0.834000       15.9994           0
   11882 WT1  2799 TIP3 H1   HT     0.417000        1.0080           0
   11883 WT1  2799 TIP3 H2   HT     0.417000        1.0080           0
   11884 WT1  2800 TIP3 OH2  OT    -0.834000       15.9994           0
   11885 WT1  2800 TIP3 H1   HT     0.417000        1.0080           0
   11886 WT1  2800 TIP3 H2   HT     0.417000        1.0080           0
   11887 WT1  2801 TIP3 OH2  OT    -0.834000       15.9994           0
   11888 WT1  2801 TIP3 H1   HT     0.417000        1.0080           0
   11889 WT1  2801 TIP3 H2   HT     0.417000        1.0080           0
   11890 WT1  2802 TIP3 OH2  OT    -0.834000       15.9994           0
   11891 WT1  2802 TIP3 H1   HT     0.417000        1.0080           0
   11892 WT1  2802 TIP3 H2   HT     0.417000        1.0080           0
   11893 WT1  2803 TIP3 OH2  OT    -0.834000       15.9994           0
   11894 WT1  2803 TIP3 H1   HT     0.417000        1.0080           0
   11895 WT1  2803 TIP3 H2   HT     0.417000        1.0080           0
   11896 WT1  2804 TIP3 OH2  OT    -0.834000       15.9994           0
   11897 WT1  2804 TIP3 H1   HT     0.417000        1.0080           0
   11898 WT1  2804 TIP3 H2   HT     0.417000        1.0080           0
   11899 WT1  2805 TIP3 OH2  OT    -0.834000       15.9994           0
   11900 WT1  2805 TIP3 H1   HT     0.417000        1.0080           0
   11901 WT1  2805 TIP3 H2   HT     0.417000        1.0080           0
   11902 WT1  2806 TIP3 OH2  OT    -0.834000       15.9994           0
   11903 WT1  2806 TIP3 H1   HT     0.417000        1.0080           0
   11904 WT1  2806 TIP3 H2   HT     0.417000        1.0080           0
   11905 WT1  2807 TIP3 OH2  OT    -0.834000       15.9994           0
   11906 WT1  2807 TIP3 H1   HT     0.417000        1.0080           0
   11907 WT1  2807 TIP3 H2   HT     0.417000        1.0080           0
   11908 WT1  2808 TIP3 OH2  OT    -0.834000       15.9994           0
   11909 WT1  2808 TIP3 H1   HT     0.417000        1.0080           0
   11910 WT1  2808 TIP3 H2   HT     0.417000        1.0080           0
   11911 WT1  2809 TIP3 OH2  OT    -0.834000       15.9994           0
   11912 WT1  2809 TIP3 H1   HT     0.417000        1.0080           0
   11913 WT1  2809 TIP3 H2   HT     0.417000        1.0080           0
   11914 WT1  2810 TIP3 OH2  OT    -0.834000       15.9994           0
   11915 WT1  2810 TIP3 H1   HT     0.417000        1.0080           0
   11916 WT1  2810 TIP3 H2   HT     0.417000        1.0080           0
   11917 WT1  2811 TIP3 OH2  OT    -0.834000       15.9994           0
   11918 WT1  2811 TIP3 H1   HT     0.417000        1.0080           0
   11919 WT1  2811 TIP3 H2   HT     0.417000        1.0080           0
   11920 WT1  2814 TIP3 OH2  OT    -0.834000       15.9994           0
   11921 WT1  2814 TIP3 H1   HT     0.417000        1.0080           0
   11922 WT1  2814 TIP3 H2   HT     0.417000        1.0080           0
   11923 WT1  2815 TIP3 OH2  OT    -0.834000       15.9994           0
   11924 WT1  2815 TIP3 H1   HT     0.417000        1.0080           0
   11925 WT1  2815 TIP3 H2   HT     0.417000        1.0080           0
   11926 WT1  2816 TIP3 OH2  OT    -0.834000       15.9994           0
   11927 WT1  2816 TIP3 H1   HT     0.417000        1.0080           0
   11928 WT1  2816 TIP3 H2   HT     0.417000        1.0080           0
   11929 WT1  2817 TIP3 OH2  OT    -0.834000       15.9994           0
   11930 WT1  2817 TIP3 H1   HT     0.417000        1.0080           0
   11931 WT1  2817 TIP3 H2   HT     0.417000        1.0080           0
   11932 WT1  2818 TIP3 OH2  OT    -0.834000       15.9994           0
   11933 WT1  2818 TIP3 H1   HT     0.417000        1.0080           0
   11934 WT1  2818 TIP3 H2   HT     0.417000        1.0080           0
   11935 WT1  2819 TIP3 OH2  OT    -0.834000       15.9994           0
   11936 WT1  2819 TIP3 H1   HT     0.417000        1.0080           0
   11937 WT1  2819 TIP3 H2   HT     0.417000        1.0080           0
   11938 WT1  2820 TIP3 OH2  OT    -0.834000       15.9994           0
   11939 WT1  2820 TIP3 H1   HT     0.417000        1.0080           0
   11940 WT1  2820 TIP3 H2   HT     0.417000        1.0080           0
   11941 WT1  2821 TIP3 OH2  OT    -0.834000       15.9994           0
   11942 WT1  2821 TIP3 H1   HT     0.417000        1.0080           0
   11943 WT1  2821 TIP3 H2   HT     0.417000        1.0080           0
   11944 WT1  2822 TIP3 OH2  OT    -0.834000       15.9994           0
   11945 WT1  2822 TIP3 H1   HT     0.417000        1.0080           0
   11946 WT1  2822 TIP3 H2   HT     0.417000        1.0080           0
   11947 WT1  2823 TIP3 OH2  OT    -0.834000       15.9994           0
   11948 WT1  2823 TIP3 H1   HT     0.417000        1.0080           0
   11949 WT1  2823 TIP3 H2   HT     0.417000        1.0080           0
   11950 WT1  2824 TIP3 OH2  OT    -0.834000       15.9994           0
   11951 WT1  2824 TIP3 H1   HT     0.417000        1.0080           0
   11952 WT1  2824 TIP3 H2   HT     0.417000        1.0080           0
   11953 WT1  2825 TIP3 OH2  OT    -0.834000       15.9994           0
   11954 WT1  2825 TIP3 H1   HT     0.417000        1.0080           0
   11955 WT1  2825 TIP3 H2   HT     0.417000        1.0080           0
   11956 WT1  2826 TIP3 OH2  OT    -0.834000       15.9994           0
   11957 WT1  2826 TIP3 H1   HT     0.417000        1.0080           0
   11958 WT1  2826 TIP3 H2   HT     0.417000        1.0080           0
   11959 WT1  2827 TIP3 OH2  OT    -0.834000       15.9994           0
   11960 WT1  2827 TIP3 H1   HT     0.417000        1.0080           0
   11961 WT1  2827 TIP3 H2   HT     0.417000        1.0080           0
   11962 WT1  2829 TIP3 OH2  OT    -0.834000       15.9994           0
   11963 WT1  2829 TIP3 H1   HT     0.417000        1.0080           0
   11964 WT1  2829 TIP3 H2   HT     0.417000        1.0080           0
   11965 WT1  2830 TIP3 OH2  OT    -0.834000       15.9994           0
   11966 WT1  2830 TIP3 H1   HT     0.417000        1.0080           0
   11967 WT1  2830 TIP3 H2   HT     0.417000        1.0080           0
   11968 WT1  2831 TIP3 OH2  OT    -0.834000       15.9994           0
   11969 WT1  2831 TIP3 H1   HT     0.417000        1.0080           0
   11970 WT1  2831 TIP3 H2   HT     0.417000        1.0080           0
   11971 WT1  2832 TIP3 OH2  OT    -0.834000       15.9994           0
   11972 WT1  2832 TIP3 H1   HT     0.417000        1.0080           0
   11973 WT1  2832 TIP3 H2   HT     0.417000        1.0080           0
   11974 WT1  2834 TIP3 OH2  OT    -0.834000       15.9994           0
   11975 WT1  2834 TIP3 H1   HT     0.417000        1.0080           0
   11976 WT1  2834 TIP3 H2   HT     0.417000        1.0080           0
   11977 WT1  2836 TIP3 OH2  OT    -0.834000       15.9994           0
   11978 WT1  2836 TIP3 H1   HT     0.417000        1.0080           0
   11979 WT1  2836 TIP3 H2   HT     0.417000        1.0080           0
   11980 WT1  2837 TIP3 OH2  OT    -0.834000       15.9994           0
   11981 WT1  2837 TIP3 H1   HT     0.417000        1.0080           0
   11982 WT1  2837 TIP3 H2   HT     0.417000        1.0080           0
   11983 WT1  2838 TIP3 OH2  OT    -0.834000       15.9994           0
   11984 WT1  2838 TIP3 H1   HT     0.417000        1.0080           0
   11985 WT1  2838 TIP3 H2   HT     0.417000        1.0080           0
   11986 WT1  2839 TIP3 OH2  OT    -0.834000       15.9994           0
   11987 WT1  2839 TIP3 H1   HT     0.417000        1.0080           0
   11988 WT1  2839 TIP3 H2   HT     0.417000        1.0080           0
   11989 WT1  2840 TIP3 OH2  OT    -0.834000       15.9994           0
   11990 WT1  2840 TIP3 H1   HT     0.417000        1.0080           0
   11991 WT1  2840 TIP3 H2   HT     0.417000        1.0080           0
   11992 WT1  2841 TIP3 OH2  OT    -0.834000       15.9994           0
   11993 WT1  2841 TIP3 H1   HT     0.417000        1.0080           0
   11994 WT1  2841 TIP3 H2   HT     0.417000        1.0080           0
   11995 WT1  2842 TIP3 OH2  OT    -0.834000       15.9994           0
   11996 WT1  2842 TIP3 H1   HT     0.417000        1.0080           0
   11997 WT1  2842 TIP3 H2   HT     0.417000        1.0080           0
   11998 WT1  2843 TIP3 OH2  OT    -0.834000       15.9994           0
   11999 WT1  2843 TIP3 H1   HT     0.417000        1.0080           0
   12000 WT1  2843 TIP3 H2   HT     0.417000        1.0080           0
   12001 WT1  2844 TIP3 OH2  OT    -0.834000       15.9994           0
   12002 WT1  2844 TIP3 H1   HT     0.417000        1.0080           0
   12003 WT1  2844 TIP3 H2   HT     0.417000        1.0080           0
   12004 WT1  2845 TIP3 OH2  OT    -0.834000       15.9994           0
   12005 WT1  2845 TIP3 H1   HT     0.417000        1.0080           0
   12006 WT1  2845 TIP3 H2   HT     0.417000        1.0080           0
   12007 WT1  2846 TIP3 OH2  OT    -0.834000       15.9994           0
   12008 WT1  2846 TIP3 H1   HT     0.417000        1.0080           0
   12009 WT1  2846 TIP3 H2   HT     0.417000        1.0080           0
   12010 WT1  2847 TIP3 OH2  OT    -0.834000       15.9994           0
   12011 WT1  2847 TIP3 H1   HT     0.417000        1.0080           0
   12012 WT1  2847 TIP3 H2   HT     0.417000        1.0080           0
   12013 WT1  2848 TIP3 OH2  OT    -0.834000       15.9994           0
   12014 WT1  2848 TIP3 H1   HT     0.417000        1.0080           0
   12015 WT1  2848 TIP3 H2   HT     0.417000        1.0080           0
   12016 WT1  2850 TIP3 OH2  OT    -0.834000       15.9994           0
   12017 WT1  2850 TIP3 H1   HT     0.417000        1.0080           0
   12018 WT1  2850 TIP3 H2   HT     0.417000        1.0080           0
   12019 WT1  2852 TIP3 OH2  OT    -0.834000       15.9994           0
   12020 WT1  2852 TIP3 H1   HT     0.417000        1.0080           0
   12021 WT1  2852 TIP3 H2   HT     0.417000        1.0080           0
   12022 WT1  2853 TIP3 OH2  OT    -0.834000       15.9994           0
   12023 WT1  2853 TIP3 H1   HT     0.417000        1.0080           0
   12024 WT1  2853 TIP3 H2   HT     0.417000        1.0080           0
   12025 WT1  2854 TIP3 OH2  OT    -0.834000       15.9994           0
   12026 WT1  2854 TIP3 H1   HT     0.417000        1.0080           0
   12027 WT1  2854 TIP3 H2   HT     0.417000        1.0080           0
   12028 WT1  2855 TIP3 OH2  OT    -0.834000       15.9994           0
   12029 WT1  2855 TIP3 H1   HT     0.417000        1.0080           0
   12030 WT1  2855 TIP3 H2   HT     0.417000        1.0080           0
   12031 WT1  2856 TIP3 OH2  OT    -0.834000       15.9994           0
   12032 WT1  2856 TIP3 H1   HT     0.417000        1.0080           0
   12033 WT1  2856 TIP3 H2   HT     0.417000        1.0080           0
   12034 WT1  2857 TIP3 OH2  OT    -0.834000       15.9994           0
   12035 WT1  2857 TIP3 H1   HT     0.417000        1.0080           0
   12036 WT1  2857 TIP3 H2   HT     0.417000        1.0080           0
   12037 WT1  2858 TIP3 OH2  OT    -0.834000       15.9994           0
   12038 WT1  2858 TIP3 H1   HT     0.417000        1.0080           0
   12039 WT1  2858 TIP3 H2   HT     0.417000        1.0080           0
   12040 WT1  2859 TIP3 OH2  OT    -0.834000       15.9994           0
   12041 WT1  2859 TIP3 H1   HT     0.417000        1.0080           0
   12042 WT1  2859 TIP3 H2   HT     0.417000        1.0080           0
   12043 WT1  2860 TIP3 OH2  OT    -0.834000       15.9994           0
   12044 WT1  2860 TIP3 H1   HT     0.417000        1.0080           0
   12045 WT1  2860 TIP3 H2   HT     0.417000        1.0080           0
   12046 WT1  2861 TIP3 OH2  OT    -0.834000       15.9994           0
   12047 WT1  2861 TIP3 H1   HT     0.417000        1.0080           0
   12048 WT1  2861 TIP3 H2   HT     0.417000        1.0080           0
   12049 WT1  2862 TIP3 OH2  OT    -0.834000       15.9994           0
   12050 WT1  2862 TIP3 H1   HT     0.417000        1.0080           0
   12051 WT1  2862 TIP3 H2   HT     0.417000        1.0080           0
   12052 WT1  2863 TIP3 OH2  OT    -0.834000       15.9994           0
   12053 WT1  2863 TIP3 H1   HT     0.417000        1.0080           0
   12054 WT1  2863 TIP3 H2   HT     0.417000        1.0080           0
   12055 WT1  2864 TIP3 OH2  OT    -0.834000       15.9994           0
   12056 WT1  2864 TIP3 H1   HT     0.417000        1.0080           0
   12057 WT1  2864 TIP3 H2   HT     0.417000        1.0080           0
   12058 WT1  2865 TIP3 OH2  OT    -0.834000       15.9994           0
   12059 WT1  2865 TIP3 H1   HT     0.417000        1.0080           0
   12060 WT1  2865 TIP3 H2   HT     0.417000        1.0080           0
   12061 WT1  2866 TIP3 OH2  OT    -0.834000       15.9994           0
   12062 WT1  2866 TIP3 H1   HT     0.417000        1.0080           0
   12063 WT1  2866 TIP3 H2   HT     0.417000        1.0080           0
   12064 WT1  2867 TIP3 OH2  OT    -0.834000       15.9994           0
   12065 WT1  2867 TIP3 H1   HT     0.417000        1.0080           0
   12066 WT1  2867 TIP3 H2   HT     0.417000        1.0080           0
   12067 WT1  2868 TIP3 OH2  OT    -0.834000       15.9994           0
   12068 WT1  2868 TIP3 H1   HT     0.417000        1.0080           0
   12069 WT1  2868 TIP3 H2   HT     0.417000        1.0080           0
   12070 WT1  2869 TIP3 OH2  OT    -0.834000       15.9994           0
   12071 WT1  2869 TIP3 H1   HT     0.417000        1.0080           0
   12072 WT1  2869 TIP3 H2   HT     0.417000        1.0080           0
   12073 WT1  2871 TIP3 OH2  OT    -0.834000       15.9994           0
   12074 WT1  2871 TIP3 H1   HT     0.417000        1.0080           0
   12075 WT1  2871 TIP3 H2   HT     0.417000        1.0080           0
   12076 WT1  2873 TIP3 OH2  OT    -0.834000       15.9994           0
   12077 WT1  2873 TIP3 H1   HT     0.417000        1.0080           0
   12078 WT1  2873 TIP3 H2   HT     0.417000        1.0080           0
   12079 WT1  2874 TIP3 OH2  OT    -0.834000       15.9994           0
   12080 WT1  2874 TIP3 H1   HT     0.417000        1.0080           0
   12081 WT1  2874 TIP3 H2   HT     0.417000        1.0080           0
   12082 WT1  2877 TIP3 OH2  OT    -0.834000       15.9994           0
   12083 WT1  2877 TIP3 H1   HT     0.417000        1.0080           0
   12084 WT1  2877 TIP3 H2   HT     0.417000        1.0080           0
   12085 WT1  2878 TIP3 OH2  OT    -0.834000       15.9994           0
   12086 WT1  2878 TIP3 H1   HT     0.417000        1.0080           0
   12087 WT1  2878 TIP3 H2   HT     0.417000        1.0080           0
   12088 WT1  2880 TIP3 OH2  OT    -0.834000       15.9994           0
   12089 WT1  2880 TIP3 H1   HT     0.417000        1.0080           0
   12090 WT1  2880 TIP3 H2   HT     0.417000        1.0080           0
   12091 WT1  2881 TIP3 OH2  OT    -0.834000       15.9994           0
   12092 WT1  2881 TIP3 H1   HT     0.417000        1.0080           0
   12093 WT1  2881 TIP3 H2   HT     0.417000        1.0080           0
   12094 WT1  2882 TIP3 OH2  OT    -0.834000       15.9994           0
   12095 WT1  2882 TIP3 H1   HT     0.417000        1.0080           0
   12096 WT1  2882 TIP3 H2   HT     0.417000        1.0080           0
   12097 WT1  2883 TIP3 OH2  OT    -0.834000       15.9994           0
   12098 WT1  2883 TIP3 H1   HT     0.417000        1.0080           0
   12099 WT1  2883 TIP3 H2   HT     0.417000        1.0080           0
   12100 WT1  2884 TIP3 OH2  OT    -0.834000       15.9994           0
   12101 WT1  2884 TIP3 H1   HT     0.417000        1.0080           0
   12102 WT1  2884 TIP3 H2   HT     0.417000        1.0080           0
   12103 WT1  2885 TIP3 OH2  OT    -0.834000       15.9994           0
   12104 WT1  2885 TIP3 H1   HT     0.417000        1.0080           0
   12105 WT1  2885 TIP3 H2   HT     0.417000        1.0080           0
   12106 WT1  2886 TIP3 OH2  OT    -0.834000       15.9994           0
   12107 WT1  2886 TIP3 H1   HT     0.417000        1.0080           0
   12108 WT1  2886 TIP3 H2   HT     0.417000        1.0080           0
   12109 WT1  2887 TIP3 OH2  OT    -0.834000       15.9994           0
   12110 WT1  2887 TIP3 H1   HT     0.417000        1.0080           0
   12111 WT1  2887 TIP3 H2   HT     0.417000        1.0080           0
   12112 WT1  2888 TIP3 OH2  OT    -0.834000       15.9994           0
   12113 WT1  2888 TIP3 H1   HT     0.417000        1.0080           0
   12114 WT1  2888 TIP3 H2   HT     0.417000        1.0080           0
   12115 WT1  2889 TIP3 OH2  OT    -0.834000       15.9994           0
   12116 WT1  2889 TIP3 H1   HT     0.417000        1.0080           0
   12117 WT1  2889 TIP3 H2   HT     0.417000        1.0080           0
   12118 WT1  2890 TIP3 OH2  OT    -0.834000       15.9994           0
   12119 WT1  2890 TIP3 H1   HT     0.417000        1.0080           0
   12120 WT1  2890 TIP3 H2   HT     0.417000        1.0080           0
   12121 WT1  2891 TIP3 OH2  OT    -0.834000       15.9994           0
   12122 WT1  2891 TIP3 H1   HT     0.417000        1.0080           0
   12123 WT1  2891 TIP3 H2   HT     0.417000        1.0080           0
   12124 WT1  2893 TIP3 OH2  OT    -0.834000       15.9994           0
   12125 WT1  2893 TIP3 H1   HT     0.417000        1.0080           0
   12126 WT1  2893 TIP3 H2   HT     0.417000        1.0080           0
   12127 WT1  2894 TIP3 OH2  OT    -0.834000       15.9994           0
   12128 WT1  2894 TIP3 H1   HT     0.417000        1.0080           0
   12129 WT1  2894 TIP3 H2   HT     0.417000        1.0080           0
   12130 WT1  2897 TIP3 OH2  OT    -0.834000       15.9994           0
   12131 WT1  2897 TIP3 H1   HT     0.417000        1.0080           0
   12132 WT1  2897 TIP3 H2   HT     0.417000        1.0080           0
   12133 WT1  2898 TIP3 OH2  OT    -0.834000       15.9994           0
   12134 WT1  2898 TIP3 H1   HT     0.417000        1.0080           0
   12135 WT1  2898 TIP3 H2   HT     0.417000        1.0080           0
   12136 WT1  2899 TIP3 OH2  OT    -0.834000       15.9994           0
   12137 WT1  2899 TIP3 H1   HT     0.417000        1.0080           0
   12138 WT1  2899 TIP3 H2   HT     0.417000        1.0080           0
   12139 WT1  2900 TIP3 OH2  OT    -0.834000       15.9994           0
   12140 WT1  2900 TIP3 H1   HT     0.417000        1.0080           0
   12141 WT1  2900 TIP3 H2   HT     0.417000        1.0080           0
   12142 WT1  2901 TIP3 OH2  OT    -0.834000       15.9994           0
   12143 WT1  2901 TIP3 H1   HT     0.417000        1.0080           0
   12144 WT1  2901 TIP3 H2   HT     0.417000        1.0080           0
   12145 WT1  2902 TIP3 OH2  OT    -0.834000       15.9994           0
   12146 WT1  2902 TIP3 H1   HT     0.417000        1.0080           0
   12147 WT1  2902 TIP3 H2   HT     0.417000        1.0080           0
   12148 WT1  2903 TIP3 OH2  OT    -0.834000       15.9994           0
   12149 WT1  2903 TIP3 H1   HT     0.417000        1.0080           0
   12150 WT1  2903 TIP3 H2   HT     0.417000        1.0080           0
   12151 WT1  2904 TIP3 OH2  OT    -0.834000       15.9994           0
   12152 WT1  2904 TIP3 H1   HT     0.417000        1.0080           0
   12153 WT1  2904 TIP3 H2   HT     0.417000        1.0080           0
   12154 WT1  2905 TIP3 OH2  OT    -0.834000       15.9994           0
   12155 WT1  2905 TIP3 H1   HT     0.417000        1.0080           0
   12156 WT1  2905 TIP3 H2   HT     0.417000        1.0080           0
   12157 WT1  2906 TIP3 OH2  OT    -0.834000       15.9994           0
   12158 WT1  2906 TIP3 H1   HT     0.417000        1.0080           0
   12159 WT1  2906 TIP3 H2   HT     0.417000        1.0080           0
   12160 WT1  2907 TIP3 OH2  OT    -0.834000       15.9994           0
   12161 WT1  2907 TIP3 H1   HT     0.417000        1.0080           0
   12162 WT1  2907 TIP3 H2   HT     0.417000        1.0080           0
   12163 WT1  2908 TIP3 OH2  OT    -0.834000       15.9994           0
   12164 WT1  2908 TIP3 H1   HT     0.417000        1.0080           0
   12165 WT1  2908 TIP3 H2   HT     0.417000        1.0080           0
   12166 WT1  2909 TIP3 OH2  OT    -0.834000       15.9994           0
   12167 WT1  2909 TIP3 H1   HT     0.417000        1.0080           0
   12168 WT1  2909 TIP3 H2   HT     0.417000        1.0080           0
   12169 WT1  2910 TIP3 OH2  OT    -0.834000       15.9994           0
   12170 WT1  2910 TIP3 H1   HT     0.417000        1.0080           0
   12171 WT1  2910 TIP3 H2   HT     0.417000        1.0080           0
   12172 WT1  2911 TIP3 OH2  OT    -0.834000       15.9994           0
   12173 WT1  2911 TIP3 H1   HT     0.417000        1.0080           0
   12174 WT1  2911 TIP3 H2   HT     0.417000        1.0080           0
   12175 WT1  2913 TIP3 OH2  OT    -0.834000       15.9994           0
   12176 WT1  2913 TIP3 H1   HT     0.417000        1.0080           0
   12177 WT1  2913 TIP3 H2   HT     0.417000        1.0080           0
   12178 WT1  2914 TIP3 OH2  OT    -0.834000       15.9994           0
   12179 WT1  2914 TIP3 H1   HT     0.417000        1.0080           0
   12180 WT1  2914 TIP3 H2   HT     0.417000        1.0080           0
   12181 WT1  2915 TIP3 OH2  OT    -0.834000       15.9994           0
   12182 WT1  2915 TIP3 H1   HT     0.417000        1.0080           0
   12183 WT1  2915 TIP3 H2   HT     0.417000        1.0080           0
   12184 WT1  2916 TIP3 OH2  OT    -0.834000       15.9994           0
   12185 WT1  2916 TIP3 H1   HT     0.417000        1.0080           0
   12186 WT1  2916 TIP3 H2   HT     0.417000        1.0080           0
   12187 WT1  2917 TIP3 OH2  OT    -0.834000       15.9994           0
   12188 WT1  2917 TIP3 H1   HT     0.417000        1.0080           0
   12189 WT1  2917 TIP3 H2   HT     0.417000        1.0080           0
   12190 WT1  2918 TIP3 OH2  OT    -0.834000       15.9994           0
   12191 WT1  2918 TIP3 H1   HT     0.417000        1.0080           0
   12192 WT1  2918 TIP3 H2   HT     0.417000        1.0080           0
   12193 WT1  2919 TIP3 OH2  OT    -0.834000       15.9994           0
   12194 WT1  2919 TIP3 H1   HT     0.417000        1.0080           0
   12195 WT1  2919 TIP3 H2   HT     0.417000        1.0080           0
   12196 WT1  2920 TIP3 OH2  OT    -0.834000       15.9994           0
   12197 WT1  2920 TIP3 H1   HT     0.417000        1.0080           0
   12198 WT1  2920 TIP3 H2   HT     0.417000        1.0080           0
   12199 WT1  2921 TIP3 OH2  OT    -0.834000       15.9994           0
   12200 WT1  2921 TIP3 H1   HT     0.417000        1.0080           0
   12201 WT1  2921 TIP3 H2   HT     0.417000        1.0080           0
   12202 WT1  2922 TIP3 OH2  OT    -0.834000       15.9994           0
   12203 WT1  2922 TIP3 H1   HT     0.417000        1.0080           0
   12204 WT1  2922 TIP3 H2   HT     0.417000        1.0080           0
   12205 WT1  2923 TIP3 OH2  OT    -0.834000       15.9994           0
   12206 WT1  2923 TIP3 H1   HT     0.417000        1.0080           0
   12207 WT1  2923 TIP3 H2   HT     0.417000        1.0080           0
   12208 WT1  2924 TIP3 OH2  OT    -0.834000       15.9994           0
   12209 WT1  2924 TIP3 H1   HT     0.417000        1.0080           0
   12210 WT1  2924 TIP3 H2   HT     0.417000        1.0080           0
   12211 WT1  2925 TIP3 OH2  OT    -0.834000       15.9994           0
   12212 WT1  2925 TIP3 H1   HT     0.417000        1.0080           0
   12213 WT1  2925 TIP3 H2   HT     0.417000        1.0080           0
   12214 WT1  2926 TIP3 OH2  OT    -0.834000       15.9994           0
   12215 WT1  2926 TIP3 H1   HT     0.417000        1.0080           0
   12216 WT1  2926 TIP3 H2   HT     0.417000        1.0080           0
   12217 WT1  2927 TIP3 OH2  OT    -0.834000       15.9994           0
   12218 WT1  2927 TIP3 H1   HT     0.417000        1.0080           0
   12219 WT1  2927 TIP3 H2   HT     0.417000        1.0080           0
   12220 WT1  2928 TIP3 OH2  OT    -0.834000       15.9994           0
   12221 WT1  2928 TIP3 H1   HT     0.417000        1.0080           0
   12222 WT1  2928 TIP3 H2   HT     0.417000        1.0080           0
   12223 WT1  2929 TIP3 OH2  OT    -0.834000       15.9994           0
   12224 WT1  2929 TIP3 H1   HT     0.417000        1.0080           0
   12225 WT1  2929 TIP3 H2   HT     0.417000        1.0080           0
   12226 WT1  2930 TIP3 OH2  OT    -0.834000       15.9994           0
   12227 WT1  2930 TIP3 H1   HT     0.417000        1.0080           0
   12228 WT1  2930 TIP3 H2   HT     0.417000        1.0080           0
   12229 WT1  2931 TIP3 OH2  OT    -0.834000       15.9994           0
   12230 WT1  2931 TIP3 H1   HT     0.417000        1.0080           0
   12231 WT1  2931 TIP3 H2   HT     0.417000        1.0080           0
   12232 WT1  2932 TIP3 OH2  OT    -0.834000       15.9994           0
   12233 WT1  2932 TIP3 H1   HT     0.417000        1.0080           0
   12234 WT1  2932 TIP3 H2   HT     0.417000        1.0080           0
   12235 WT1  2933 TIP3 OH2  OT    -0.834000       15.9994           0
   12236 WT1  2933 TIP3 H1   HT     0.417000        1.0080           0
   12237 WT1  2933 TIP3 H2   HT     0.417000        1.0080           0
   12238 WT1  2934 TIP3 OH2  OT    -0.834000       15.9994           0
   12239 WT1  2934 TIP3 H1   HT     0.417000        1.0080           0
   12240 WT1  2934 TIP3 H2   HT     0.417000        1.0080           0
   12241 WT1  2935 TIP3 OH2  OT    -0.834000       15.9994           0
   12242 WT1  2935 TIP3 H1   HT     0.417000        1.0080           0
   12243 WT1  2935 TIP3 H2   HT     0.417000        1.0080           0
   12244 WT1  2936 TIP3 OH2  OT    -0.834000       15.9994           0
   12245 WT1  2936 TIP3 H1   HT     0.417000        1.0080           0
   12246 WT1  2936 TIP3 H2   HT     0.417000        1.0080           0
   12247 WT1  2937 TIP3 OH2  OT    -0.834000       15.9994           0
   12248 WT1  2937 TIP3 H1   HT     0.417000        1.0080           0
   12249 WT1  2937 TIP3 H2   HT     0.417000        1.0080           0
   12250 WT1  2938 TIP3 OH2  OT    -0.834000       15.9994           0
   12251 WT1  2938 TIP3 H1   HT     0.417000        1.0080           0
   12252 WT1  2938 TIP3 H2   HT     0.417000        1.0080           0
   12253 WT1  2941 TIP3 OH2  OT    -0.834000       15.9994           0
   12254 WT1  2941 TIP3 H1   HT     0.417000        1.0080           0
   12255 WT1  2941 TIP3 H2   HT     0.417000        1.0080           0
   12256 WT1  2943 TIP3 OH2  OT    -0.834000       15.9994           0
   12257 WT1  2943 TIP3 H1   HT     0.417000        1.0080           0
   12258 WT1  2943 TIP3 H2   HT     0.417000        1.0080           0
   12259 WT1  2944 TIP3 OH2  OT    -0.834000       15.9994           0
   12260 WT1  2944 TIP3 H1   HT     0.417000        1.0080           0
   12261 WT1  2944 TIP3 H2   HT     0.417000        1.0080           0
   12262 WT1  2945 TIP3 OH2  OT    -0.834000       15.9994           0
   12263 WT1  2945 TIP3 H1   HT     0.417000        1.0080           0
   12264 WT1  2945 TIP3 H2   HT     0.417000        1.0080           0
   12265 WT1  2946 TIP3 OH2  OT    -0.834000       15.9994           0
   12266 WT1  2946 TIP3 H1   HT     0.417000        1.0080           0
   12267 WT1  2946 TIP3 H2   HT     0.417000        1.0080           0
   12268 WT1  2947 TIP3 OH2  OT    -0.834000       15.9994           0
   12269 WT1  2947 TIP3 H1   HT     0.417000        1.0080           0
   12270 WT1  2947 TIP3 H2   HT     0.417000        1.0080           0
   12271 WT1  2948 TIP3 OH2  OT    -0.834000       15.9994           0
   12272 WT1  2948 TIP3 H1   HT     0.417000        1.0080           0
   12273 WT1  2948 TIP3 H2   HT     0.417000        1.0080           0
   12274 WT1  2949 TIP3 OH2  OT    -0.834000       15.9994           0
   12275 WT1  2949 TIP3 H1   HT     0.417000        1.0080           0
   12276 WT1  2949 TIP3 H2   HT     0.417000        1.0080           0
   12277 WT1  2951 TIP3 OH2  OT    -0.834000       15.9994           0
   12278 WT1  2951 TIP3 H1   HT     0.417000        1.0080           0
   12279 WT1  2951 TIP3 H2   HT     0.417000        1.0080           0
   12280 WT1  2952 TIP3 OH2  OT    -0.834000       15.9994           0
   12281 WT1  2952 TIP3 H1   HT     0.417000        1.0080           0
   12282 WT1  2952 TIP3 H2   HT     0.417000        1.0080           0
   12283 WT1  2953 TIP3 OH2  OT    -0.834000       15.9994           0
   12284 WT1  2953 TIP3 H1   HT     0.417000        1.0080           0
   12285 WT1  2953 TIP3 H2   HT     0.417000        1.0080           0
   12286 WT1  2955 TIP3 OH2  OT    -0.834000       15.9994           0
   12287 WT1  2955 TIP3 H1   HT     0.417000        1.0080           0
   12288 WT1  2955 TIP3 H2   HT     0.417000        1.0080           0
   12289 WT1  2957 TIP3 OH2  OT    -0.834000       15.9994           0
   12290 WT1  2957 TIP3 H1   HT     0.417000        1.0080           0
   12291 WT1  2957 TIP3 H2   HT     0.417000        1.0080           0
   12292 WT1  2960 TIP3 OH2  OT    -0.834000       15.9994           0
   12293 WT1  2960 TIP3 H1   HT     0.417000        1.0080           0
   12294 WT1  2960 TIP3 H2   HT     0.417000        1.0080           0
   12295 WT1  2961 TIP3 OH2  OT    -0.834000       15.9994           0
   12296 WT1  2961 TIP3 H1   HT     0.417000        1.0080           0
   12297 WT1  2961 TIP3 H2   HT     0.417000        1.0080           0
   12298 WT1  2962 TIP3 OH2  OT    -0.834000       15.9994           0
   12299 WT1  2962 TIP3 H1   HT     0.417000        1.0080           0
   12300 WT1  2962 TIP3 H2   HT     0.417000        1.0080           0
   12301 WT1  2963 TIP3 OH2  OT    -0.834000       15.9994           0
   12302 WT1  2963 TIP3 H1   HT     0.417000        1.0080           0
   12303 WT1  2963 TIP3 H2   HT     0.417000        1.0080           0
   12304 WT1  2964 TIP3 OH2  OT    -0.834000       15.9994           0
   12305 WT1  2964 TIP3 H1   HT     0.417000        1.0080           0
   12306 WT1  2964 TIP3 H2   HT     0.417000        1.0080           0
   12307 WT1  2965 TIP3 OH2  OT    -0.834000       15.9994           0
   12308 WT1  2965 TIP3 H1   HT     0.417000        1.0080           0
   12309 WT1  2965 TIP3 H2   HT     0.417000        1.0080           0
   12310 WT1  2966 TIP3 OH2  OT    -0.834000       15.9994           0
   12311 WT1  2966 TIP3 H1   HT     0.417000        1.0080           0
   12312 WT1  2966 TIP3 H2   HT     0.417000        1.0080           0
   12313 WT1  2967 TIP3 OH2  OT    -0.834000       15.9994           0
   12314 WT1  2967 TIP3 H1   HT     0.417000        1.0080           0
   12315 WT1  2967 TIP3 H2   HT     0.417000        1.0080           0
   12316 WT1  2968 TIP3 OH2  OT    -0.834000       15.9994           0
   12317 WT1  2968 TIP3 H1   HT     0.417000        1.0080           0
   12318 WT1  2968 TIP3 H2   HT     0.417000        1.0080           0
   12319 WT1  2969 TIP3 OH2  OT    -0.834000       15.9994           0
   12320 WT1  2969 TIP3 H1   HT     0.417000        1.0080           0
   12321 WT1  2969 TIP3 H2   HT     0.417000        1.0080           0
   12322 WT1  2970 TIP3 OH2  OT    -0.834000       15.9994           0
   12323 WT1  2970 TIP3 H1   HT     0.417000        1.0080           0
   12324 WT1  2970 TIP3 H2   HT     0.417000        1.0080           0
   12325 WT1  2971 TIP3 OH2  OT    -0.834000       15.9994           0
   12326 WT1  2971 TIP3 H1   HT     0.417000        1.0080           0
   12327 WT1  2971 TIP3 H2   HT     0.417000        1.0080           0
   12328 WT1  2972 TIP3 OH2  OT    -0.834000       15.9994           0
   12329 WT1  2972 TIP3 H1   HT     0.417000        1.0080           0
   12330 WT1  2972 TIP3 H2   HT     0.417000        1.0080           0
   12331 WT1  2973 TIP3 OH2  OT    -0.834000       15.9994           0
   12332 WT1  2973 TIP3 H1   HT     0.417000        1.0080           0
   12333 WT1  2973 TIP3 H2   HT     0.417000        1.0080           0
   12334 WT1  2974 TIP3 OH2  OT    -0.834000       15.9994           0
   12335 WT1  2974 TIP3 H1   HT     0.417000        1.0080           0
   12336 WT1  2974 TIP3 H2   HT     0.417000        1.0080           0
   12337 WT1  2975 TIP3 OH2  OT    -0.834000       15.9994           0
   12338 WT1  2975 TIP3 H1   HT     0.417000        1.0080           0
   12339 WT1  2975 TIP3 H2   HT     0.417000        1.0080           0
   12340 WT1  2977 TIP3 OH2  OT    -0.834000       15.9994           0
   12341 WT1  2977 TIP3 H1   HT     0.417000        1.0080           0
   12342 WT1  2977 TIP3 H2   HT     0.417000        1.0080           0
   12343 WT1  2978 TIP3 OH2  OT    -0.834000       15.9994           0
   12344 WT1  2978 TIP3 H1   HT     0.417000        1.0080           0
   12345 WT1  2978 TIP3 H2   HT     0.417000        1.0080           0
   12346 WT1  2979 TIP3 OH2  OT    -0.834000       15.9994           0
   12347 WT1  2979 TIP3 H1   HT     0.417000        1.0080           0
   12348 WT1  2979 TIP3 H2   HT     0.417000        1.0080           0
   12349 WT1  2981 TIP3 OH2  OT    -0.834000       15.9994           0
   12350 WT1  2981 TIP3 H1   HT     0.417000        1.0080           0
   12351 WT1  2981 TIP3 H2   HT     0.417000        1.0080           0
   12352 WT1  2982 TIP3 OH2  OT    -0.834000       15.9994           0
   12353 WT1  2982 TIP3 H1   HT     0.417000        1.0080           0
   12354 WT1  2982 TIP3 H2   HT     0.417000        1.0080           0
   12355 WT1  2983 TIP3 OH2  OT    -0.834000       15.9994           0
   12356 WT1  2983 TIP3 H1   HT     0.417000        1.0080           0
   12357 WT1  2983 TIP3 H2   HT     0.417000        1.0080           0
   12358 WT1  2984 TIP3 OH2  OT    -0.834000       15.9994           0
   12359 WT1  2984 TIP3 H1   HT     0.417000        1.0080           0
   12360 WT1  2984 TIP3 H2   HT     0.417000        1.0080           0
   12361 WT1  2985 TIP3 OH2  OT    -0.834000       15.9994           0
   12362 WT1  2985 TIP3 H1   HT     0.417000        1.0080           0
   12363 WT1  2985 TIP3 H2   HT     0.417000        1.0080           0
   12364 WT1  2986 TIP3 OH2  OT    -0.834000       15.9994           0
   12365 WT1  2986 TIP3 H1   HT     0.417000        1.0080           0
   12366 WT1  2986 TIP3 H2   HT     0.417000        1.0080           0
   12367 WT1  2987 TIP3 OH2  OT    -0.834000       15.9994           0
   12368 WT1  2987 TIP3 H1   HT     0.417000        1.0080           0
   12369 WT1  2987 TIP3 H2   HT     0.417000        1.0080           0
   12370 WT1  2988 TIP3 OH2  OT    -0.834000       15.9994           0
   12371 WT1  2988 TIP3 H1   HT     0.417000        1.0080           0
   12372 WT1  2988 TIP3 H2   HT     0.417000        1.0080           0
   12373 WT1  2989 TIP3 OH2  OT    -0.834000       15.9994           0
   12374 WT1  2989 TIP3 H1   HT     0.417000        1.0080           0
   12375 WT1  2989 TIP3 H2   HT     0.417000        1.0080           0
   12376 WT1  2990 TIP3 OH2  OT    -0.834000       15.9994           0
   12377 WT1  2990 TIP3 H1   HT     0.417000        1.0080           0
   12378 WT1  2990 TIP3 H2   HT     0.417000        1.0080           0
   12379 WT1  2991 TIP3 OH2  OT    -0.834000       15.9994           0
   12380 WT1  2991 TIP3 H1   HT     0.417000        1.0080           0
   12381 WT1  2991 TIP3 H2   HT     0.417000        1.0080           0
   12382 WT1  2992 TIP3 OH2  OT    -0.834000       15.9994           0
   12383 WT1  2992 TIP3 H1   HT     0.417000        1.0080           0
   12384 WT1  2992 TIP3 H2   HT     0.417000        1.0080           0
   12385 WT1  2993 TIP3 OH2  OT    -0.834000       15.9994           0
   12386 WT1  2993 TIP3 H1   HT     0.417000        1.0080           0
   12387 WT1  2993 TIP3 H2   HT     0.417000        1.0080           0
   12388 WT1  2994 TIP3 OH2  OT    -0.834000       15.9994           0
   12389 WT1  2994 TIP3 H1   HT     0.417000        1.0080           0
   12390 WT1  2994 TIP3 H2   HT     0.417000        1.0080           0
   12391 WT1  2995 TIP3 OH2  OT    -0.834000       15.9994           0
   12392 WT1  2995 TIP3 H1   HT     0.417000        1.0080           0
   12393 WT1  2995 TIP3 H2   HT     0.417000        1.0080           0
   12394 WT1  2996 TIP3 OH2  OT    -0.834000       15.9994           0
   12395 WT1  2996 TIP3 H1   HT     0.417000        1.0080           0
   12396 WT1  2996 TIP3 H2   HT     0.417000        1.0080           0
   12397 WT1  2997 TIP3 OH2  OT    -0.834000       15.9994           0
   12398 WT1  2997 TIP3 H1   HT     0.417000        1.0080           0
   12399 WT1  2997 TIP3 H2   HT     0.417000        1.0080           0
   12400 WT1  3000 TIP3 OH2  OT    -0.834000       15.9994           0
   12401 WT1  3000 TIP3 H1   HT     0.417000        1.0080           0
   12402 WT1  3000 TIP3 H2   HT     0.417000        1.0080           0
   12403 WT1  3002 TIP3 OH2  OT    -0.834000       15.9994           0
   12404 WT1  3002 TIP3 H1   HT     0.417000        1.0080           0
   12405 WT1  3002 TIP3 H2   HT     0.417000        1.0080           0
   12406 WT1  3003 TIP3 OH2  OT    -0.834000       15.9994           0
   12407 WT1  3003 TIP3 H1   HT     0.417000        1.0080           0
   12408 WT1  3003 TIP3 H2   HT     0.417000        1.0080           0
   12409 WT1  3005 TIP3 OH2  OT    -0.834000       15.9994           0
   12410 WT1  3005 TIP3 H1   HT     0.417000        1.0080           0
   12411 WT1  3005 TIP3 H2   HT     0.417000        1.0080           0
   12412 WT1  3006 TIP3 OH2  OT    -0.834000       15.9994           0
   12413 WT1  3006 TIP3 H1   HT     0.417000        1.0080           0
   12414 WT1  3006 TIP3 H2   HT     0.417000        1.0080           0
   12415 WT1  3007 TIP3 OH2  OT    -0.834000       15.9994           0
   12416 WT1  3007 TIP3 H1   HT     0.417000        1.0080           0
   12417 WT1  3007 TIP3 H2   HT     0.417000        1.0080           0
   12418 WT1  3008 TIP3 OH2  OT    -0.834000       15.9994           0
   12419 WT1  3008 TIP3 H1   HT     0.417000        1.0080           0
   12420 WT1  3008 TIP3 H2   HT     0.417000        1.0080           0
   12421 WT1  3009 TIP3 OH2  OT    -0.834000       15.9994           0
   12422 WT1  3009 TIP3 H1   HT     0.417000        1.0080           0
   12423 WT1  3009 TIP3 H2   HT     0.417000        1.0080           0
   12424 WT1  3010 TIP3 OH2  OT    -0.834000       15.9994           0
   12425 WT1  3010 TIP3 H1   HT     0.417000        1.0080           0
   12426 WT1  3010 TIP3 H2   HT     0.417000        1.0080           0
   12427 WT1  3011 TIP3 OH2  OT    -0.834000       15.9994           0
   12428 WT1  3011 TIP3 H1   HT     0.417000        1.0080           0
   12429 WT1  3011 TIP3 H2   HT     0.417000        1.0080           0
   12430 WT1  3012 TIP3 OH2  OT    -0.834000       15.9994           0
   12431 WT1  3012 TIP3 H1   HT     0.417000        1.0080           0
   12432 WT1  3012 TIP3 H2   HT     0.417000        1.0080           0
   12433 WT1  3013 TIP3 OH2  OT    -0.834000       15.9994           0
   12434 WT1  3013 TIP3 H1   HT     0.417000        1.0080           0
   12435 WT1  3013 TIP3 H2   HT     0.417000        1.0080           0
   12436 WT1  3014 TIP3 OH2  OT    -0.834000       15.9994           0
   12437 WT1  3014 TIP3 H1   HT     0.417000        1.0080           0
   12438 WT1  3014 TIP3 H2   HT     0.417000        1.0080           0
   12439 WT1  3015 TIP3 OH2  OT    -0.834000       15.9994           0
   12440 WT1  3015 TIP3 H1   HT     0.417000        1.0080           0
   12441 WT1  3015 TIP3 H2   HT     0.417000        1.0080           0
   12442 WT1  3016 TIP3 OH2  OT    -0.834000       15.9994           0
   12443 WT1  3016 TIP3 H1   HT     0.417000        1.0080           0
   12444 WT1  3016 TIP3 H2   HT     0.417000        1.0080           0
   12445 WT1  3017 TIP3 OH2  OT    -0.834000       15.9994           0
   12446 WT1  3017 TIP3 H1   HT     0.417000        1.0080           0
   12447 WT1  3017 TIP3 H2   HT     0.417000        1.0080           0
   12448 WT1  3018 TIP3 OH2  OT    -0.834000       15.9994           0
   12449 WT1  3018 TIP3 H1   HT     0.417000        1.0080           0
   12450 WT1  3018 TIP3 H2   HT     0.417000        1.0080           0
   12451 WT1  3019 TIP3 OH2  OT    -0.834000       15.9994           0
   12452 WT1  3019 TIP3 H1   HT     0.417000        1.0080           0
   12453 WT1  3019 TIP3 H2   HT     0.417000        1.0080           0
   12454 WT1  3020 TIP3 OH2  OT    -0.834000       15.9994           0
   12455 WT1  3020 TIP3 H1   HT     0.417000        1.0080           0
   12456 WT1  3020 TIP3 H2   HT     0.417000        1.0080           0
   12457 WT1  3022 TIP3 OH2  OT    -0.834000       15.9994           0
   12458 WT1  3022 TIP3 H1   HT     0.417000        1.0080           0
   12459 WT1  3022 TIP3 H2   HT     0.417000        1.0080           0
   12460 WT1  3023 TIP3 OH2  OT    -0.834000       15.9994           0
   12461 WT1  3023 TIP3 H1   HT     0.417000        1.0080           0
   12462 WT1  3023 TIP3 H2   HT     0.417000        1.0080           0
   12463 WT1  3024 TIP3 OH2  OT    -0.834000       15.9994           0
   12464 WT1  3024 TIP3 H1   HT     0.417000        1.0080           0
   12465 WT1  3024 TIP3 H2   HT     0.417000        1.0080           0
   12466 WT1  3026 TIP3 OH2  OT    -0.834000       15.9994           0
   12467 WT1  3026 TIP3 H1   HT     0.417000        1.0080           0
   12468 WT1  3026 TIP3 H2   HT     0.417000        1.0080           0
   12469 WT1  3027 TIP3 OH2  OT    -0.834000       15.9994           0
   12470 WT1  3027 TIP3 H1   HT     0.417000        1.0080           0
   12471 WT1  3027 TIP3 H2   HT     0.417000        1.0080           0
   12472 WT1  3028 TIP3 OH2  OT    -0.834000       15.9994           0
   12473 WT1  3028 TIP3 H1   HT     0.417000        1.0080           0
   12474 WT1  3028 TIP3 H2   HT     0.417000        1.0080           0
   12475 WT1  3029 TIP3 OH2  OT    -0.834000       15.9994           0
   12476 WT1  3029 TIP3 H1   HT     0.417000        1.0080           0
   12477 WT1  3029 TIP3 H2   HT     0.417000        1.0080           0
   12478 WT1  3030 TIP3 OH2  OT    -0.834000       15.9994           0
   12479 WT1  3030 TIP3 H1   HT     0.417000        1.0080           0
   12480 WT1  3030 TIP3 H2   HT     0.417000        1.0080           0
   12481 WT1  3031 TIP3 OH2  OT    -0.834000       15.9994           0
   12482 WT1  3031 TIP3 H1   HT     0.417000        1.0080           0
   12483 WT1  3031 TIP3 H2   HT     0.417000        1.0080           0
   12484 WT1  3032 TIP3 OH2  OT    -0.834000       15.9994           0
   12485 WT1  3032 TIP3 H1   HT     0.417000        1.0080           0
   12486 WT1  3032 TIP3 H2   HT     0.417000        1.0080           0
   12487 WT1  3033 TIP3 OH2  OT    -0.834000       15.9994           0
   12488 WT1  3033 TIP3 H1   HT     0.417000        1.0080           0
   12489 WT1  3033 TIP3 H2   HT     0.417000        1.0080           0
   12490 WT1  3034 TIP3 OH2  OT    -0.834000       15.9994           0
   12491 WT1  3034 TIP3 H1   HT     0.417000        1.0080           0
   12492 WT1  3034 TIP3 H2   HT     0.417000        1.0080           0
   12493 WT1  3035 TIP3 OH2  OT    -0.834000       15.9994           0
   12494 WT1  3035 TIP3 H1   HT     0.417000        1.0080           0
   12495 WT1  3035 TIP3 H2   HT     0.417000        1.0080           0
   12496 WT1  3037 TIP3 OH2  OT    -0.834000       15.9994           0
   12497 WT1  3037 TIP3 H1   HT     0.417000        1.0080           0
   12498 WT1  3037 TIP3 H2   HT     0.417000        1.0080           0
   12499 WT1  3038 TIP3 OH2  OT    -0.834000       15.9994           0
   12500 WT1  3038 TIP3 H1   HT     0.417000        1.0080           0
   12501 WT1  3038 TIP3 H2   HT     0.417000        1.0080           0
   12502 WT1  3039 TIP3 OH2  OT    -0.834000       15.9994           0
   12503 WT1  3039 TIP3 H1   HT     0.417000        1.0080           0
   12504 WT1  3039 TIP3 H2   HT     0.417000        1.0080           0
   12505 WT1  3040 TIP3 OH2  OT    -0.834000       15.9994           0
   12506 WT1  3040 TIP3 H1   HT     0.417000        1.0080           0
   12507 WT1  3040 TIP3 H2   HT     0.417000        1.0080           0
   12508 WT1  3042 TIP3 OH2  OT    -0.834000       15.9994           0
   12509 WT1  3042 TIP3 H1   HT     0.417000        1.0080           0
   12510 WT1  3042 TIP3 H2   HT     0.417000        1.0080           0
   12511 WT1  3046 TIP3 OH2  OT    -0.834000       15.9994           0
   12512 WT1  3046 TIP3 H1   HT     0.417000        1.0080           0
   12513 WT1  3046 TIP3 H2   HT     0.417000        1.0080           0
   12514 WT1  3048 TIP3 OH2  OT    -0.834000       15.9994           0
   12515 WT1  3048 TIP3 H1   HT     0.417000        1.0080           0
   12516 WT1  3048 TIP3 H2   HT     0.417000        1.0080           0
   12517 WT1  3049 TIP3 OH2  OT    -0.834000       15.9994           0
   12518 WT1  3049 TIP3 H1   HT     0.417000        1.0080           0
   12519 WT1  3049 TIP3 H2   HT     0.417000        1.0080           0
   12520 WT1  3050 TIP3 OH2  OT    -0.834000       15.9994           0
   12521 WT1  3050 TIP3 H1   HT     0.417000        1.0080           0
   12522 WT1  3050 TIP3 H2   HT     0.417000        1.0080           0
   12523 WT1  3051 TIP3 OH2  OT    -0.834000       15.9994           0
   12524 WT1  3051 TIP3 H1   HT     0.417000        1.0080           0
   12525 WT1  3051 TIP3 H2   HT     0.417000        1.0080           0
   12526 WT1  3052 TIP3 OH2  OT    -0.834000       15.9994           0
   12527 WT1  3052 TIP3 H1   HT     0.417000        1.0080           0
   12528 WT1  3052 TIP3 H2   HT     0.417000        1.0080           0
   12529 WT1  3053 TIP3 OH2  OT    -0.834000       15.9994           0
   12530 WT1  3053 TIP3 H1   HT     0.417000        1.0080           0
   12531 WT1  3053 TIP3 H2   HT     0.417000        1.0080           0
   12532 WT1  3054 TIP3 OH2  OT    -0.834000       15.9994           0
   12533 WT1  3054 TIP3 H1   HT     0.417000        1.0080           0
   12534 WT1  3054 TIP3 H2   HT     0.417000        1.0080           0
   12535 WT1  3055 TIP3 OH2  OT    -0.834000       15.9994           0
   12536 WT1  3055 TIP3 H1   HT     0.417000        1.0080           0
   12537 WT1  3055 TIP3 H2   HT     0.417000        1.0080           0
   12538 WT1  3056 TIP3 OH2  OT    -0.834000       15.9994           0
   12539 WT1  3056 TIP3 H1   HT     0.417000        1.0080           0
   12540 WT1  3056 TIP3 H2   HT     0.417000        1.0080           0
   12541 WT1  3057 TIP3 OH2  OT    -0.834000       15.9994           0
   12542 WT1  3057 TIP3 H1   HT     0.417000        1.0080           0
   12543 WT1  3057 TIP3 H2   HT     0.417000        1.0080           0
   12544 WT1  3060 TIP3 OH2  OT    -0.834000       15.9994           0
   12545 WT1  3060 TIP3 H1   HT     0.417000        1.0080           0
   12546 WT1  3060 TIP3 H2   HT     0.417000        1.0080           0
   12547 WT1  3061 TIP3 OH2  OT    -0.834000       15.9994           0
   12548 WT1  3061 TIP3 H1   HT     0.417000        1.0080           0
   12549 WT1  3061 TIP3 H2   HT     0.417000        1.0080           0
   12550 WT1  3062 TIP3 OH2  OT    -0.834000       15.9994           0
   12551 WT1  3062 TIP3 H1   HT     0.417000        1.0080           0
   12552 WT1  3062 TIP3 H2   HT     0.417000        1.0080           0
   12553 WT1  3063 TIP3 OH2  OT    -0.834000       15.9994           0
   12554 WT1  3063 TIP3 H1   HT     0.417000        1.0080           0
   12555 WT1  3063 TIP3 H2   HT     0.417000        1.0080           0
   12556 WT1  3065 TIP3 OH2  OT    -0.834000       15.9994           0
   12557 WT1  3065 TIP3 H1   HT     0.417000        1.0080           0
   12558 WT1  3065 TIP3 H2   HT     0.417000        1.0080           0
   12559 WT1  3067 TIP3 OH2  OT    -0.834000       15.9994           0
   12560 WT1  3067 TIP3 H1   HT     0.417000        1.0080           0
   12561 WT1  3067 TIP3 H2   HT     0.417000        1.0080           0
   12562 WT1  3069 TIP3 OH2  OT    -0.834000       15.9994           0
   12563 WT1  3069 TIP3 H1   HT     0.417000        1.0080           0
   12564 WT1  3069 TIP3 H2   HT     0.417000        1.0080           0
   12565 WT1  3070 TIP3 OH2  OT    -0.834000       15.9994           0
   12566 WT1  3070 TIP3 H1   HT     0.417000        1.0080           0
   12567 WT1  3070 TIP3 H2   HT     0.417000        1.0080           0
   12568 WT1  3071 TIP3 OH2  OT    -0.834000       15.9994           0
   12569 WT1  3071 TIP3 H1   HT     0.417000        1.0080           0
   12570 WT1  3071 TIP3 H2   HT     0.417000        1.0080           0
   12571 WT1  3072 TIP3 OH2  OT    -0.834000       15.9994           0
   12572 WT1  3072 TIP3 H1   HT     0.417000        1.0080           0
   12573 WT1  3072 TIP3 H2   HT     0.417000        1.0080           0
   12574 WT1  3073 TIP3 OH2  OT    -0.834000       15.9994           0
   12575 WT1  3073 TIP3 H1   HT     0.417000        1.0080           0
   12576 WT1  3073 TIP3 H2   HT     0.417000        1.0080           0
   12577 WT1  3074 TIP3 OH2  OT    -0.834000       15.9994           0
   12578 WT1  3074 TIP3 H1   HT     0.417000        1.0080           0
   12579 WT1  3074 TIP3 H2   HT     0.417000        1.0080           0
   12580 WT1  3075 TIP3 OH2  OT    -0.834000       15.9994           0
   12581 WT1  3075 TIP3 H1   HT     0.417000        1.0080           0
   12582 WT1  3075 TIP3 H2   HT     0.417000        1.0080           0
   12583 WT1  3076 TIP3 OH2  OT    -0.834000       15.9994           0
   12584 WT1  3076 TIP3 H1   HT     0.417000        1.0080           0
   12585 WT1  3076 TIP3 H2   HT     0.417000        1.0080           0
   12586 WT1  3077 TIP3 OH2  OT    -0.834000       15.9994           0
   12587 WT1  3077 TIP3 H1   HT     0.417000        1.0080           0
   12588 WT1  3077 TIP3 H2   HT     0.417000        1.0080           0
   12589 WT1  3078 TIP3 OH2  OT    -0.834000       15.9994           0
   12590 WT1  3078 TIP3 H1   HT     0.417000        1.0080           0
   12591 WT1  3078 TIP3 H2   HT     0.417000        1.0080           0
   12592 WT1  3079 TIP3 OH2  OT    -0.834000       15.9994           0
   12593 WT1  3079 TIP3 H1   HT     0.417000        1.0080           0
   12594 WT1  3079 TIP3 H2   HT     0.417000        1.0080           0
   12595 WT1  3080 TIP3 OH2  OT    -0.834000       15.9994           0
   12596 WT1  3080 TIP3 H1   HT     0.417000        1.0080           0
   12597 WT1  3080 TIP3 H2   HT     0.417000        1.0080           0
   12598 WT1  3081 TIP3 OH2  OT    -0.834000       15.9994           0
   12599 WT1  3081 TIP3 H1   HT     0.417000        1.0080           0
   12600 WT1  3081 TIP3 H2   HT     0.417000        1.0080           0
   12601 WT1  3082 TIP3 OH2  OT    -0.834000       15.9994           0
   12602 WT1  3082 TIP3 H1   HT     0.417000        1.0080           0
   12603 WT1  3082 TIP3 H2   HT     0.417000        1.0080           0
   12604 WT1  3083 TIP3 OH2  OT    -0.834000       15.9994           0
   12605 WT1  3083 TIP3 H1   HT     0.417000        1.0080           0
   12606 WT1  3083 TIP3 H2   HT     0.417000        1.0080           0
   12607 WT1  3084 TIP3 OH2  OT    -0.834000       15.9994           0
   12608 WT1  3084 TIP3 H1   HT     0.417000        1.0080           0
   12609 WT1  3084 TIP3 H2   HT     0.417000        1.0080           0
   12610 WT1  3085 TIP3 OH2  OT    -0.834000       15.9994           0
   12611 WT1  3085 TIP3 H1   HT     0.417000        1.0080           0
   12612 WT1  3085 TIP3 H2   HT     0.417000        1.0080           0
   12613 WT1  3086 TIP3 OH2  OT    -0.834000       15.9994           0
   12614 WT1  3086 TIP3 H1   HT     0.417000        1.0080           0
   12615 WT1  3086 TIP3 H2   HT     0.417000        1.0080           0
   12616 WT1  3087 TIP3 OH2  OT    -0.834000       15.9994           0
   12617 WT1  3087 TIP3 H1   HT     0.417000        1.0080           0
   12618 WT1  3087 TIP3 H2   HT     0.417000        1.0080           0
   12619 WT1  3088 TIP3 OH2  OT    -0.834000       15.9994           0
   12620 WT1  3088 TIP3 H1   HT     0.417000        1.0080           0
   12621 WT1  3088 TIP3 H2   HT     0.417000        1.0080           0
   12622 WT1  3089 TIP3 OH2  OT    -0.834000       15.9994           0
   12623 WT1  3089 TIP3 H1   HT     0.417000        1.0080           0
   12624 WT1  3089 TIP3 H2   HT     0.417000        1.0080           0
   12625 WT1  3090 TIP3 OH2  OT    -0.834000       15.9994           0
   12626 WT1  3090 TIP3 H1   HT     0.417000        1.0080           0
   12627 WT1  3090 TIP3 H2   HT     0.417000        1.0080           0
   12628 WT1  3091 TIP3 OH2  OT    -0.834000       15.9994           0
   12629 WT1  3091 TIP3 H1   HT     0.417000        1.0080           0
   12630 WT1  3091 TIP3 H2   HT     0.417000        1.0080           0
   12631 WT1  3092 TIP3 OH2  OT    -0.834000       15.9994           0
   12632 WT1  3092 TIP3 H1   HT     0.417000        1.0080           0
   12633 WT1  3092 TIP3 H2   HT     0.417000        1.0080           0
   12634 WT1  3093 TIP3 OH2  OT    -0.834000       15.9994           0
   12635 WT1  3093 TIP3 H1   HT     0.417000        1.0080           0
   12636 WT1  3093 TIP3 H2   HT     0.417000        1.0080           0
   12637 WT1  3094 TIP3 OH2  OT    -0.834000       15.9994           0
   12638 WT1  3094 TIP3 H1   HT     0.417000        1.0080           0
   12639 WT1  3094 TIP3 H2   HT     0.417000        1.0080           0
   12640 WT1  3095 TIP3 OH2  OT    -0.834000       15.9994           0
   12641 WT1  3095 TIP3 H1   HT     0.417000        1.0080           0
   12642 WT1  3095 TIP3 H2   HT     0.417000        1.0080           0
   12643 WT1  3096 TIP3 OH2  OT    -0.834000       15.9994           0
   12644 WT1  3096 TIP3 H1   HT     0.417000        1.0080           0
   12645 WT1  3096 TIP3 H2   HT     0.417000        1.0080           0
   12646 WT1  3097 TIP3 OH2  OT    -0.834000       15.9994           0
   12647 WT1  3097 TIP3 H1   HT     0.417000        1.0080           0
   12648 WT1  3097 TIP3 H2   HT     0.417000        1.0080           0
   12649 WT1  3098 TIP3 OH2  OT    -0.834000       15.9994           0
   12650 WT1  3098 TIP3 H1   HT     0.417000        1.0080           0
   12651 WT1  3098 TIP3 H2   HT     0.417000        1.0080           0
   12652 WT1  3100 TIP3 OH2  OT    -0.834000       15.9994           0
   12653 WT1  3100 TIP3 H1   HT     0.417000        1.0080           0
   12654 WT1  3100 TIP3 H2   HT     0.417000        1.0080           0
   12655 WT1  3102 TIP3 OH2  OT    -0.834000       15.9994           0
   12656 WT1  3102 TIP3 H1   HT     0.417000        1.0080           0
   12657 WT1  3102 TIP3 H2   HT     0.417000        1.0080           0
   12658 WT1  3103 TIP3 OH2  OT    -0.834000       15.9994           0
   12659 WT1  3103 TIP3 H1   HT     0.417000        1.0080           0
   12660 WT1  3103 TIP3 H2   HT     0.417000        1.0080           0
   12661 WT1  3104 TIP3 OH2  OT    -0.834000       15.9994           0
   12662 WT1  3104 TIP3 H1   HT     0.417000        1.0080           0
   12663 WT1  3104 TIP3 H2   HT     0.417000        1.0080           0
   12664 WT1  3106 TIP3 OH2  OT    -0.834000       15.9994           0
   12665 WT1  3106 TIP3 H1   HT     0.417000        1.0080           0
   12666 WT1  3106 TIP3 H2   HT     0.417000        1.0080           0
   12667 WT1  3107 TIP3 OH2  OT    -0.834000       15.9994           0
   12668 WT1  3107 TIP3 H1   HT     0.417000        1.0080           0
   12669 WT1  3107 TIP3 H2   HT     0.417000        1.0080           0
   12670 WT1  3108 TIP3 OH2  OT    -0.834000       15.9994           0
   12671 WT1  3108 TIP3 H1   HT     0.417000        1.0080           0
   12672 WT1  3108 TIP3 H2   HT     0.417000        1.0080           0
   12673 WT1  3109 TIP3 OH2  OT    -0.834000       15.9994           0
   12674 WT1  3109 TIP3 H1   HT     0.417000        1.0080           0
   12675 WT1  3109 TIP3 H2   HT     0.417000        1.0080           0
   12676 WT1  3110 TIP3 OH2  OT    -0.834000       15.9994           0
   12677 WT1  3110 TIP3 H1   HT     0.417000        1.0080           0
   12678 WT1  3110 TIP3 H2   HT     0.417000        1.0080           0
   12679 WT1  3111 TIP3 OH2  OT    -0.834000       15.9994           0
   12680 WT1  3111 TIP3 H1   HT     0.417000        1.0080           0
   12681 WT1  3111 TIP3 H2   HT     0.417000        1.0080           0
   12682 WT1  3112 TIP3 OH2  OT    -0.834000       15.9994           0
   12683 WT1  3112 TIP3 H1   HT     0.417000        1.0080           0
   12684 WT1  3112 TIP3 H2   HT     0.417000        1.0080           0
   12685 WT1  3113 TIP3 OH2  OT    -0.834000       15.9994           0
   12686 WT1  3113 TIP3 H1   HT     0.417000        1.0080           0
   12687 WT1  3113 TIP3 H2   HT     0.417000        1.0080           0
   12688 WT1  3114 TIP3 OH2  OT    -0.834000       15.9994           0
   12689 WT1  3114 TIP3 H1   HT     0.417000        1.0080           0
   12690 WT1  3114 TIP3 H2   HT     0.417000        1.0080           0
   12691 WT1  3115 TIP3 OH2  OT    -0.834000       15.9994           0
   12692 WT1  3115 TIP3 H1   HT     0.417000        1.0080           0
   12693 WT1  3115 TIP3 H2   HT     0.417000        1.0080           0
   12694 WT1  3116 TIP3 OH2  OT    -0.834000       15.9994           0
   12695 WT1  3116 TIP3 H1   HT     0.417000        1.0080           0
   12696 WT1  3116 TIP3 H2   HT     0.417000        1.0080           0
   12697 WT1  3118 TIP3 OH2  OT    -0.834000       15.9994           0
   12698 WT1  3118 TIP3 H1   HT     0.417000        1.0080           0
   12699 WT1  3118 TIP3 H2   HT     0.417000        1.0080           0
   12700 WT1  3119 TIP3 OH2  OT    -0.834000       15.9994           0
   12701 WT1  3119 TIP3 H1   HT     0.417000        1.0080           0
   12702 WT1  3119 TIP3 H2   HT     0.417000        1.0080           0
   12703 WT1  3120 TIP3 OH2  OT    -0.834000       15.9994           0
   12704 WT1  3120 TIP3 H1   HT     0.417000        1.0080           0
   12705 WT1  3120 TIP3 H2   HT     0.417000        1.0080           0
   12706 WT1  3121 TIP3 OH2  OT    -0.834000       15.9994           0
   12707 WT1  3121 TIP3 H1   HT     0.417000        1.0080           0
   12708 WT1  3121 TIP3 H2   HT     0.417000        1.0080           0
   12709 WT1  3122 TIP3 OH2  OT    -0.834000       15.9994           0
   12710 WT1  3122 TIP3 H1   HT     0.417000        1.0080           0
   12711 WT1  3122 TIP3 H2   HT     0.417000        1.0080           0
   12712 WT1  3128 TIP3 OH2  OT    -0.834000       15.9994           0
   12713 WT1  3128 TIP3 H1   HT     0.417000        1.0080           0
   12714 WT1  3128 TIP3 H2   HT     0.417000        1.0080           0
   12715 WT1  3129 TIP3 OH2  OT    -0.834000       15.9994           0
   12716 WT1  3129 TIP3 H1   HT     0.417000        1.0080           0
   12717 WT1  3129 TIP3 H2   HT     0.417000        1.0080           0
   12718 WT1  3131 TIP3 OH2  OT    -0.834000       15.9994           0
   12719 WT1  3131 TIP3 H1   HT     0.417000        1.0080           0
   12720 WT1  3131 TIP3 H2   HT     0.417000        1.0080           0
   12721 WT1  3132 TIP3 OH2  OT    -0.834000       15.9994           0
   12722 WT1  3132 TIP3 H1   HT     0.417000        1.0080           0
   12723 WT1  3132 TIP3 H2   HT     0.417000        1.0080           0
   12724 WT1  3134 TIP3 OH2  OT    -0.834000       15.9994           0
   12725 WT1  3134 TIP3 H1   HT     0.417000        1.0080           0
   12726 WT1  3134 TIP3 H2   HT     0.417000        1.0080           0
   12727 WT1  3135 TIP3 OH2  OT    -0.834000       15.9994           0
   12728 WT1  3135 TIP3 H1   HT     0.417000        1.0080           0
   12729 WT1  3135 TIP3 H2   HT     0.417000        1.0080           0
   12730 WT1  3136 TIP3 OH2  OT    -0.834000       15.9994           0
   12731 WT1  3136 TIP3 H1   HT     0.417000        1.0080           0
   12732 WT1  3136 TIP3 H2   HT     0.417000        1.0080           0
   12733 WT1  3137 TIP3 OH2  OT    -0.834000       15.9994           0
   12734 WT1  3137 TIP3 H1   HT     0.417000        1.0080           0
   12735 WT1  3137 TIP3 H2   HT     0.417000        1.0080           0
   12736 WT1  3138 TIP3 OH2  OT    -0.834000       15.9994           0
   12737 WT1  3138 TIP3 H1   HT     0.417000        1.0080           0
   12738 WT1  3138 TIP3 H2   HT     0.417000        1.0080           0
   12739 WT1  3139 TIP3 OH2  OT    -0.834000       15.9994           0
   12740 WT1  3139 TIP3 H1   HT     0.417000        1.0080           0
   12741 WT1  3139 TIP3 H2   HT     0.417000        1.0080           0
   12742 WT1  3140 TIP3 OH2  OT    -0.834000       15.9994           0
   12743 WT1  3140 TIP3 H1   HT     0.417000        1.0080           0
   12744 WT1  3140 TIP3 H2   HT     0.417000        1.0080           0
   12745 WT1  3142 TIP3 OH2  OT    -0.834000       15.9994           0
   12746 WT1  3142 TIP3 H1   HT     0.417000        1.0080           0
   12747 WT1  3142 TIP3 H2   HT     0.417000        1.0080           0
   12748 WT1  3144 TIP3 OH2  OT    -0.834000       15.9994           0
   12749 WT1  3144 TIP3 H1   HT     0.417000        1.0080           0
   12750 WT1  3144 TIP3 H2   HT     0.417000        1.0080           0
   12751 WT1  3145 TIP3 OH2  OT    -0.834000       15.9994           0
   12752 WT1  3145 TIP3 H1   HT     0.417000        1.0080           0
   12753 WT1  3145 TIP3 H2   HT     0.417000        1.0080           0
   12754 WT1  3148 TIP3 OH2  OT    -0.834000       15.9994           0
   12755 WT1  3148 TIP3 H1   HT     0.417000        1.0080           0
   12756 WT1  3148 TIP3 H2   HT     0.417000        1.0080           0
   12757 WT1  3150 TIP3 OH2  OT    -0.834000       15.9994           0
   12758 WT1  3150 TIP3 H1   HT     0.417000        1.0080           0
   12759 WT1  3150 TIP3 H2   HT     0.417000        1.0080           0
   12760 WT1  3152 TIP3 OH2  OT    -0.834000       15.9994           0
   12761 WT1  3152 TIP3 H1   HT     0.417000        1.0080           0
   12762 WT1  3152 TIP3 H2   HT     0.417000        1.0080           0
   12763 WT1  3153 TIP3 OH2  OT    -0.834000       15.9994           0
   12764 WT1  3153 TIP3 H1   HT     0.417000        1.0080           0
   12765 WT1  3153 TIP3 H2   HT     0.417000        1.0080           0
   12766 WT1  3154 TIP3 OH2  OT    -0.834000       15.9994           0
   12767 WT1  3154 TIP3 H1   HT     0.417000        1.0080           0
   12768 WT1  3154 TIP3 H2   HT     0.417000        1.0080           0
   12769 WT1  3155 TIP3 OH2  OT    -0.834000       15.9994           0
   12770 WT1  3155 TIP3 H1   HT     0.417000        1.0080           0
   12771 WT1  3155 TIP3 H2   HT     0.417000        1.0080           0
   12772 WT1  3156 TIP3 OH2  OT    -0.834000       15.9994           0
   12773 WT1  3156 TIP3 H1   HT     0.417000        1.0080           0
   12774 WT1  3156 TIP3 H2   HT     0.417000        1.0080           0
   12775 WT1  3157 TIP3 OH2  OT    -0.834000       15.9994           0
   12776 WT1  3157 TIP3 H1   HT     0.417000        1.0080           0
   12777 WT1  3157 TIP3 H2   HT     0.417000        1.0080           0
   12778 WT1  3158 TIP3 OH2  OT    -0.834000       15.9994           0
   12779 WT1  3158 TIP3 H1   HT     0.417000        1.0080           0
   12780 WT1  3158 TIP3 H2   HT     0.417000        1.0080           0
   12781 WT1  3159 TIP3 OH2  OT    -0.834000       15.9994           0
   12782 WT1  3159 TIP3 H1   HT     0.417000        1.0080           0
   12783 WT1  3159 TIP3 H2   HT     0.417000        1.0080           0
   12784 WT1  3160 TIP3 OH2  OT    -0.834000       15.9994           0
   12785 WT1  3160 TIP3 H1   HT     0.417000        1.0080           0
   12786 WT1  3160 TIP3 H2   HT     0.417000        1.0080           0
   12787 WT1  3161 TIP3 OH2  OT    -0.834000       15.9994           0
   12788 WT1  3161 TIP3 H1   HT     0.417000        1.0080           0
   12789 WT1  3161 TIP3 H2   HT     0.417000        1.0080           0
   12790 WT1  3163 TIP3 OH2  OT    -0.834000       15.9994           0
   12791 WT1  3163 TIP3 H1   HT     0.417000        1.0080           0
   12792 WT1  3163 TIP3 H2   HT     0.417000        1.0080           0
   12793 WT1  3164 TIP3 OH2  OT    -0.834000       15.9994           0
   12794 WT1  3164 TIP3 H1   HT     0.417000        1.0080           0
   12795 WT1  3164 TIP3 H2   HT     0.417000        1.0080           0
   12796 WT1  3165 TIP3 OH2  OT    -0.834000       15.9994           0
   12797 WT1  3165 TIP3 H1   HT     0.417000        1.0080           0
   12798 WT1  3165 TIP3 H2   HT     0.417000        1.0080           0
   12799 WT1  3166 TIP3 OH2  OT    -0.834000       15.9994           0
   12800 WT1  3166 TIP3 H1   HT     0.417000        1.0080           0
   12801 WT1  3166 TIP3 H2   HT     0.417000        1.0080           0
   12802 WT1  3167 TIP3 OH2  OT    -0.834000       15.9994           0
   12803 WT1  3167 TIP3 H1   HT     0.417000        1.0080           0
   12804 WT1  3167 TIP3 H2   HT     0.417000        1.0080           0
   12805 WT1  3169 TIP3 OH2  OT    -0.834000       15.9994           0
   12806 WT1  3169 TIP3 H1   HT     0.417000        1.0080           0
   12807 WT1  3169 TIP3 H2   HT     0.417000        1.0080           0
   12808 WT1  3172 TIP3 OH2  OT    -0.834000       15.9994           0
   12809 WT1  3172 TIP3 H1   HT     0.417000        1.0080           0
   12810 WT1  3172 TIP3 H2   HT     0.417000        1.0080           0
   12811 WT1  3173 TIP3 OH2  OT    -0.834000       15.9994           0
   12812 WT1  3173 TIP3 H1   HT     0.417000        1.0080           0
   12813 WT1  3173 TIP3 H2   HT     0.417000        1.0080           0
   12814 WT1  3174 TIP3 OH2  OT    -0.834000       15.9994           0
   12815 WT1  3174 TIP3 H1   HT     0.417000        1.0080           0
   12816 WT1  3174 TIP3 H2   HT     0.417000        1.0080           0
   12817 WT1  3175 TIP3 OH2  OT    -0.834000       15.9994           0
   12818 WT1  3175 TIP3 H1   HT     0.417000        1.0080           0
   12819 WT1  3175 TIP3 H2   HT     0.417000        1.0080           0
   12820 WT1  3176 TIP3 OH2  OT    -0.834000       15.9994           0
   12821 WT1  3176 TIP3 H1   HT     0.417000        1.0080           0
   12822 WT1  3176 TIP3 H2   HT     0.417000        1.0080           0
   12823 WT1  3177 TIP3 OH2  OT    -0.834000       15.9994           0
   12824 WT1  3177 TIP3 H1   HT     0.417000        1.0080           0
   12825 WT1  3177 TIP3 H2   HT     0.417000        1.0080           0
   12826 WT1  3178 TIP3 OH2  OT    -0.834000       15.9994           0
   12827 WT1  3178 TIP3 H1   HT     0.417000        1.0080           0
   12828 WT1  3178 TIP3 H2   HT     0.417000        1.0080           0
   12829 WT1  3179 TIP3 OH2  OT    -0.834000       15.9994           0
   12830 WT1  3179 TIP3 H1   HT     0.417000        1.0080           0
   12831 WT1  3179 TIP3 H2   HT     0.417000        1.0080           0
   12832 WT1  3180 TIP3 OH2  OT    -0.834000       15.9994           0
   12833 WT1  3180 TIP3 H1   HT     0.417000        1.0080           0
   12834 WT1  3180 TIP3 H2   HT     0.417000        1.0080           0
   12835 WT1  3181 TIP3 OH2  OT    -0.834000       15.9994           0
   12836 WT1  3181 TIP3 H1   HT     0.417000        1.0080           0
   12837 WT1  3181 TIP3 H2   HT     0.417000        1.0080           0
   12838 WT1  3182 TIP3 OH2  OT    -0.834000       15.9994           0
   12839 WT1  3182 TIP3 H1   HT     0.417000        1.0080           0
   12840 WT1  3182 TIP3 H2   HT     0.417000        1.0080           0
   12841 WT1  3183 TIP3 OH2  OT    -0.834000       15.9994           0
   12842 WT1  3183 TIP3 H1   HT     0.417000        1.0080           0
   12843 WT1  3183 TIP3 H2   HT     0.417000        1.0080           0
   12844 WT1  3184 TIP3 OH2  OT    -0.834000       15.9994           0
   12845 WT1  3184 TIP3 H1   HT     0.417000        1.0080           0
   12846 WT1  3184 TIP3 H2   HT     0.417000        1.0080           0
   12847 WT1  3185 TIP3 OH2  OT    -0.834000       15.9994           0
   12848 WT1  3185 TIP3 H1   HT     0.417000        1.0080           0
   12849 WT1  3185 TIP3 H2   HT     0.417000        1.0080           0
   12850 WT1  3186 TIP3 OH2  OT    -0.834000       15.9994           0
   12851 WT1  3186 TIP3 H1   HT     0.417000        1.0080           0
   12852 WT1  3186 TIP3 H2   HT     0.417000        1.0080           0
   12853 WT1  3187 TIP3 OH2  OT    -0.834000       15.9994           0
   12854 WT1  3187 TIP3 H1   HT     0.417000        1.0080           0
   12855 WT1  3187 TIP3 H2   HT     0.417000        1.0080           0
   12856 WT1  3189 TIP3 OH2  OT    -0.834000       15.9994           0
   12857 WT1  3189 TIP3 H1   HT     0.417000        1.0080           0
   12858 WT1  3189 TIP3 H2   HT     0.417000        1.0080           0
   12859 WT1  3190 TIP3 OH2  OT    -0.834000       15.9994           0
   12860 WT1  3190 TIP3 H1   HT     0.417000        1.0080           0
   12861 WT1  3190 TIP3 H2   HT     0.417000        1.0080           0
   12862 WT1  3191 TIP3 OH2  OT    -0.834000       15.9994           0
   12863 WT1  3191 TIP3 H1   HT     0.417000        1.0080           0
   12864 WT1  3191 TIP3 H2   HT     0.417000        1.0080           0
   12865 WT1  3192 TIP3 OH2  OT    -0.834000       15.9994           0
   12866 WT1  3192 TIP3 H1   HT     0.417000        1.0080           0
   12867 WT1  3192 TIP3 H2   HT     0.417000        1.0080           0
   12868 WT1  3193 TIP3 OH2  OT    -0.834000       15.9994           0
   12869 WT1  3193 TIP3 H1   HT     0.417000        1.0080           0
   12870 WT1  3193 TIP3 H2   HT     0.417000        1.0080           0
   12871 WT1  3194 TIP3 OH2  OT    -0.834000       15.9994           0
   12872 WT1  3194 TIP3 H1   HT     0.417000        1.0080           0
   12873 WT1  3194 TIP3 H2   HT     0.417000        1.0080           0
   12874 WT1  3195 TIP3 OH2  OT    -0.834000       15.9994           0
   12875 WT1  3195 TIP3 H1   HT     0.417000        1.0080           0
   12876 WT1  3195 TIP3 H2   HT     0.417000        1.0080           0
   12877 WT1  3196 TIP3 OH2  OT    -0.834000       15.9994           0
   12878 WT1  3196 TIP3 H1   HT     0.417000        1.0080           0
   12879 WT1  3196 TIP3 H2   HT     0.417000        1.0080           0
   12880 WT1  3197 TIP3 OH2  OT    -0.834000       15.9994           0
   12881 WT1  3197 TIP3 H1   HT     0.417000        1.0080           0
   12882 WT1  3197 TIP3 H2   HT     0.417000        1.0080           0
   12883 WT1  3198 TIP3 OH2  OT    -0.834000       15.9994           0
   12884 WT1  3198 TIP3 H1   HT     0.417000        1.0080           0
   12885 WT1  3198 TIP3 H2   HT     0.417000        1.0080           0
   12886 WT1  3199 TIP3 OH2  OT    -0.834000       15.9994           0
   12887 WT1  3199 TIP3 H1   HT     0.417000        1.0080           0
   12888 WT1  3199 TIP3 H2   HT     0.417000        1.0080           0
   12889 WT1  3200 TIP3 OH2  OT    -0.834000       15.9994           0
   12890 WT1  3200 TIP3 H1   HT     0.417000        1.0080           0
   12891 WT1  3200 TIP3 H2   HT     0.417000        1.0080           0
   12892 WT1  3201 TIP3 OH2  OT    -0.834000       15.9994           0
   12893 WT1  3201 TIP3 H1   HT     0.417000        1.0080           0
   12894 WT1  3201 TIP3 H2   HT     0.417000        1.0080           0
   12895 WT1  3202 TIP3 OH2  OT    -0.834000       15.9994           0
   12896 WT1  3202 TIP3 H1   HT     0.417000        1.0080           0
   12897 WT1  3202 TIP3 H2   HT     0.417000        1.0080           0
   12898 WT1  3203 TIP3 OH2  OT    -0.834000       15.9994           0
   12899 WT1  3203 TIP3 H1   HT     0.417000        1.0080           0
   12900 WT1  3203 TIP3 H2   HT     0.417000        1.0080           0
   12901 WT1  3204 TIP3 OH2  OT    -0.834000       15.9994           0
   12902 WT1  3204 TIP3 H1   HT     0.417000        1.0080           0
   12903 WT1  3204 TIP3 H2   HT     0.417000        1.0080           0
   12904 WT1  3205 TIP3 OH2  OT    -0.834000       15.9994           0
   12905 WT1  3205 TIP3 H1   HT     0.417000        1.0080           0
   12906 WT1  3205 TIP3 H2   HT     0.417000        1.0080           0
   12907 WT1  3207 TIP3 OH2  OT    -0.834000       15.9994           0
   12908 WT1  3207 TIP3 H1   HT     0.417000        1.0080           0
   12909 WT1  3207 TIP3 H2   HT     0.417000        1.0080           0
   12910 WT1  3208 TIP3 OH2  OT    -0.834000       15.9994           0
   12911 WT1  3208 TIP3 H1   HT     0.417000        1.0080           0
   12912 WT1  3208 TIP3 H2   HT     0.417000        1.0080           0
   12913 WT1  3209 TIP3 OH2  OT    -0.834000       15.9994           0
   12914 WT1  3209 TIP3 H1   HT     0.417000        1.0080           0
   12915 WT1  3209 TIP3 H2   HT     0.417000        1.0080           0
   12916 WT1  3210 TIP3 OH2  OT    -0.834000       15.9994           0
   12917 WT1  3210 TIP3 H1   HT     0.417000        1.0080           0
   12918 WT1  3210 TIP3 H2   HT     0.417000        1.0080           0
   12919 WT1  3211 TIP3 OH2  OT    -0.834000       15.9994           0
   12920 WT1  3211 TIP3 H1   HT     0.417000        1.0080           0
   12921 WT1  3211 TIP3 H2   HT     0.417000        1.0080           0
   12922 WT1  3212 TIP3 OH2  OT    -0.834000       15.9994           0
   12923 WT1  3212 TIP3 H1   HT     0.417000        1.0080           0
   12924 WT1  3212 TIP3 H2   HT     0.417000        1.0080           0
   12925 WT1  3214 TIP3 OH2  OT    -0.834000       15.9994           0
   12926 WT1  3214 TIP3 H1   HT     0.417000        1.0080           0
   12927 WT1  3214 TIP3 H2   HT     0.417000        1.0080           0
   12928 WT1  3215 TIP3 OH2  OT    -0.834000       15.9994           0
   12929 WT1  3215 TIP3 H1   HT     0.417000        1.0080           0
   12930 WT1  3215 TIP3 H2   HT     0.417000        1.0080           0
   12931 WT1  3216 TIP3 OH2  OT    -0.834000       15.9994           0
   12932 WT1  3216 TIP3 H1   HT     0.417000        1.0080           0
   12933 WT1  3216 TIP3 H2   HT     0.417000        1.0080           0
   12934 WT1  3217 TIP3 OH2  OT    -0.834000       15.9994           0
   12935 WT1  3217 TIP3 H1   HT     0.417000        1.0080           0
   12936 WT1  3217 TIP3 H2   HT     0.417000        1.0080           0
   12937 WT1  3218 TIP3 OH2  OT    -0.834000       15.9994           0
   12938 WT1  3218 TIP3 H1   HT     0.417000        1.0080           0
   12939 WT1  3218 TIP3 H2   HT     0.417000        1.0080           0
   12940 WT1  3219 TIP3 OH2  OT    -0.834000       15.9994           0
   12941 WT1  3219 TIP3 H1   HT     0.417000        1.0080           0
   12942 WT1  3219 TIP3 H2   HT     0.417000        1.0080           0
   12943 WT1  3220 TIP3 OH2  OT    -0.834000       15.9994           0
   12944 WT1  3220 TIP3 H1   HT     0.417000        1.0080           0
   12945 WT1  3220 TIP3 H2   HT     0.417000        1.0080           0
   12946 WT1  3221 TIP3 OH2  OT    -0.834000       15.9994           0
   12947 WT1  3221 TIP3 H1   HT     0.417000        1.0080           0
   12948 WT1  3221 TIP3 H2   HT     0.417000        1.0080           0
   12949 WT1  3222 TIP3 OH2  OT    -0.834000       15.9994           0
   12950 WT1  3222 TIP3 H1   HT     0.417000        1.0080           0
   12951 WT1  3222 TIP3 H2   HT     0.417000        1.0080           0
   12952 WT1  3223 TIP3 OH2  OT    -0.834000       15.9994           0
   12953 WT1  3223 TIP3 H1   HT     0.417000        1.0080           0
   12954 WT1  3223 TIP3 H2   HT     0.417000        1.0080           0
   12955 WT1  3224 TIP3 OH2  OT    -0.834000       15.9994           0
   12956 WT1  3224 TIP3 H1   HT     0.417000        1.0080           0
   12957 WT1  3224 TIP3 H2   HT     0.417000        1.0080           0
   12958 WT1  3225 TIP3 OH2  OT    -0.834000       15.9994           0
   12959 WT1  3225 TIP3 H1   HT     0.417000        1.0080           0
   12960 WT1  3225 TIP3 H2   HT     0.417000        1.0080           0
   12961 WT1  3226 TIP3 OH2  OT    -0.834000       15.9994           0
   12962 WT1  3226 TIP3 H1   HT     0.417000        1.0080           0
   12963 WT1  3226 TIP3 H2   HT     0.417000        1.0080           0
   12964 WT1  3227 TIP3 OH2  OT    -0.834000       15.9994           0
   12965 WT1  3227 TIP3 H1   HT     0.417000        1.0080           0
   12966 WT1  3227 TIP3 H2   HT     0.417000        1.0080           0
   12967 WT1  3228 TIP3 OH2  OT    -0.834000       15.9994           0
   12968 WT1  3228 TIP3 H1   HT     0.417000        1.0080           0
   12969 WT1  3228 TIP3 H2   HT     0.417000        1.0080           0
   12970 WT1  3229 TIP3 OH2  OT    -0.834000       15.9994           0
   12971 WT1  3229 TIP3 H1   HT     0.417000        1.0080           0
   12972 WT1  3229 TIP3 H2   HT     0.417000        1.0080           0
   12973 WT1  3232 TIP3 OH2  OT    -0.834000       15.9994           0
   12974 WT1  3232 TIP3 H1   HT     0.417000        1.0080           0
   12975 WT1  3232 TIP3 H2   HT     0.417000        1.0080           0
   12976 WT1  3233 TIP3 OH2  OT    -0.834000       15.9994           0
   12977 WT1  3233 TIP3 H1   HT     0.417000        1.0080           0
   12978 WT1  3233 TIP3 H2   HT     0.417000        1.0080           0
   12979 WT1  3234 TIP3 OH2  OT    -0.834000       15.9994           0
   12980 WT1  3234 TIP3 H1   HT     0.417000        1.0080           0
   12981 WT1  3234 TIP3 H2   HT     0.417000        1.0080           0
   12982 WT1  3235 TIP3 OH2  OT    -0.834000       15.9994           0
   12983 WT1  3235 TIP3 H1   HT     0.417000        1.0080           0
   12984 WT1  3235 TIP3 H2   HT     0.417000        1.0080           0
   12985 WT1  3236 TIP3 OH2  OT    -0.834000       15.9994           0
   12986 WT1  3236 TIP3 H1   HT     0.417000        1.0080           0
   12987 WT1  3236 TIP3 H2   HT     0.417000        1.0080           0
   12988 WT1  3237 TIP3 OH2  OT    -0.834000       15.9994           0
   12989 WT1  3237 TIP3 H1   HT     0.417000        1.0080           0
   12990 WT1  3237 TIP3 H2   HT     0.417000        1.0080           0
   12991 WT1  3238 TIP3 OH2  OT    -0.834000       15.9994           0
   12992 WT1  3238 TIP3 H1   HT     0.417000        1.0080           0
   12993 WT1  3238 TIP3 H2   HT     0.417000        1.0080           0
   12994 WT1  3239 TIP3 OH2  OT    -0.834000       15.9994           0
   12995 WT1  3239 TIP3 H1   HT     0.417000        1.0080           0
   12996 WT1  3239 TIP3 H2   HT     0.417000        1.0080           0
   12997 WT1  3240 TIP3 OH2  OT    -0.834000       15.9994           0
   12998 WT1  3240 TIP3 H1   HT     0.417000        1.0080           0
   12999 WT1  3240 TIP3 H2   HT     0.417000        1.0080           0
   13000 WT1  3241 TIP3 OH2  OT    -0.834000       15.9994           0
   13001 WT1  3241 TIP3 H1   HT     0.417000        1.0080           0
   13002 WT1  3241 TIP3 H2   HT     0.417000        1.0080           0
   13003 WT1  3242 TIP3 OH2  OT    -0.834000       15.9994           0
   13004 WT1  3242 TIP3 H1   HT     0.417000        1.0080           0
   13005 WT1  3242 TIP3 H2   HT     0.417000        1.0080           0
   13006 WT1  3243 TIP3 OH2  OT    -0.834000       15.9994           0
   13007 WT1  3243 TIP3 H1   HT     0.417000        1.0080           0
   13008 WT1  3243 TIP3 H2   HT     0.417000        1.0080           0
   13009 WT1  3244 TIP3 OH2  OT    -0.834000       15.9994           0
   13010 WT1  3244 TIP3 H1   HT     0.417000        1.0080           0
   13011 WT1  3244 TIP3 H2   HT     0.417000        1.0080           0
   13012 WT1  3245 TIP3 OH2  OT    -0.834000       15.9994           0
   13013 WT1  3245 TIP3 H1   HT     0.417000        1.0080           0
   13014 WT1  3245 TIP3 H2   HT     0.417000        1.0080           0
   13015 WT1  3246 TIP3 OH2  OT    -0.834000       15.9994           0
   13016 WT1  3246 TIP3 H1   HT     0.417000        1.0080           0
   13017 WT1  3246 TIP3 H2   HT     0.417000        1.0080           0
   13018 WT1  3247 TIP3 OH2  OT    -0.834000       15.9994           0
   13019 WT1  3247 TIP3 H1   HT     0.417000        1.0080           0
   13020 WT1  3247 TIP3 H2   HT     0.417000        1.0080           0
   13021 WT1  3248 TIP3 OH2  OT    -0.834000       15.9994           0
   13022 WT1  3248 TIP3 H1   HT     0.417000        1.0080           0
   13023 WT1  3248 TIP3 H2   HT     0.417000        1.0080           0
   13024 WT1  3249 TIP3 OH2  OT    -0.834000       15.9994           0
   13025 WT1  3249 TIP3 H1   HT     0.417000        1.0080           0
   13026 WT1  3249 TIP3 H2   HT     0.417000        1.0080           0
   13027 WT1  3250 TIP3 OH2  OT    -0.834000       15.9994           0
   13028 WT1  3250 TIP3 H1   HT     0.417000        1.0080           0
   13029 WT1  3250 TIP3 H2   HT     0.417000        1.0080           0
   13030 WT1  3251 TIP3 OH2  OT    -0.834000       15.9994           0
   13031 WT1  3251 TIP3 H1   HT     0.417000        1.0080           0
   13032 WT1  3251 TIP3 H2   HT     0.417000        1.0080           0
   13033 WT1  3252 TIP3 OH2  OT    -0.834000       15.9994           0
   13034 WT1  3252 TIP3 H1   HT     0.417000        1.0080           0
   13035 WT1  3252 TIP3 H2   HT     0.417000        1.0080           0
   13036 WT1  3253 TIP3 OH2  OT    -0.834000       15.9994           0
   13037 WT1  3253 TIP3 H1   HT     0.417000        1.0080           0
   13038 WT1  3253 TIP3 H2   HT     0.417000        1.0080           0
   13039 WT1  3254 TIP3 OH2  OT    -0.834000       15.9994           0
   13040 WT1  3254 TIP3 H1   HT     0.417000        1.0080           0
   13041 WT1  3254 TIP3 H2   HT     0.417000        1.0080           0
   13042 WT1  3257 TIP3 OH2  OT    -0.834000       15.9994           0
   13043 WT1  3257 TIP3 H1   HT     0.417000        1.0080           0
   13044 WT1  3257 TIP3 H2   HT     0.417000        1.0080           0
   13045 WT1  3258 TIP3 OH2  OT    -0.834000       15.9994           0
   13046 WT1  3258 TIP3 H1   HT     0.417000        1.0080           0
   13047 WT1  3258 TIP3 H2   HT     0.417000        1.0080           0
   13048 WT1  3259 TIP3 OH2  OT    -0.834000       15.9994           0
   13049 WT1  3259 TIP3 H1   HT     0.417000        1.0080           0
   13050 WT1  3259 TIP3 H2   HT     0.417000        1.0080           0
   13051 WT1  3260 TIP3 OH2  OT    -0.834000       15.9994           0
   13052 WT1  3260 TIP3 H1   HT     0.417000        1.0080           0
   13053 WT1  3260 TIP3 H2   HT     0.417000        1.0080           0
   13054 WT1  3261 TIP3 OH2  OT    -0.834000       15.9994           0
   13055 WT1  3261 TIP3 H1   HT     0.417000        1.0080           0
   13056 WT1  3261 TIP3 H2   HT     0.417000        1.0080           0
   13057 WT1  3262 TIP3 OH2  OT    -0.834000       15.9994           0
   13058 WT1  3262 TIP3 H1   HT     0.417000        1.0080           0
   13059 WT1  3262 TIP3 H2   HT     0.417000        1.0080           0
   13060 WT1  3263 TIP3 OH2  OT    -0.834000       15.9994           0
   13061 WT1  3263 TIP3 H1   HT     0.417000        1.0080           0
   13062 WT1  3263 TIP3 H2   HT     0.417000        1.0080           0
   13063 WT1  3264 TIP3 OH2  OT    -0.834000       15.9994           0
   13064 WT1  3264 TIP3 H1   HT     0.417000        1.0080           0
   13065 WT1  3264 TIP3 H2   HT     0.417000        1.0080           0
   13066 WT1  3265 TIP3 OH2  OT    -0.834000       15.9994           0
   13067 WT1  3265 TIP3 H1   HT     0.417000        1.0080           0
   13068 WT1  3265 TIP3 H2   HT     0.417000        1.0080           0
   13069 WT1  3266 TIP3 OH2  OT    -0.834000       15.9994           0
   13070 WT1  3266 TIP3 H1   HT     0.417000        1.0080           0
   13071 WT1  3266 TIP3 H2   HT     0.417000        1.0080           0
   13072 WT1  3267 TIP3 OH2  OT    -0.834000       15.9994           0
   13073 WT1  3267 TIP3 H1   HT     0.417000        1.0080           0
   13074 WT1  3267 TIP3 H2   HT     0.417000        1.0080           0
   13075 WT1  3268 TIP3 OH2  OT    -0.834000       15.9994           0
   13076 WT1  3268 TIP3 H1   HT     0.417000        1.0080           0
   13077 WT1  3268 TIP3 H2   HT     0.417000        1.0080           0
   13078 WT1  3269 TIP3 OH2  OT    -0.834000       15.9994           0
   13079 WT1  3269 TIP3 H1   HT     0.417000        1.0080           0
   13080 WT1  3269 TIP3 H2   HT     0.417000        1.0080           0
   13081 WT1  3270 TIP3 OH2  OT    -0.834000       15.9994           0
   13082 WT1  3270 TIP3 H1   HT     0.417000        1.0080           0
   13083 WT1  3270 TIP3 H2   HT     0.417000        1.0080           0
   13084 WT1  3271 TIP3 OH2  OT    -0.834000       15.9994           0
   13085 WT1  3271 TIP3 H1   HT     0.417000        1.0080           0
   13086 WT1  3271 TIP3 H2   HT     0.417000        1.0080           0
   13087 WT1  3272 TIP3 OH2  OT    -0.834000       15.9994           0
   13088 WT1  3272 TIP3 H1   HT     0.417000        1.0080           0
   13089 WT1  3272 TIP3 H2   HT     0.417000        1.0080           0
   13090 WT1  3273 TIP3 OH2  OT    -0.834000       15.9994           0
   13091 WT1  3273 TIP3 H1   HT     0.417000        1.0080           0
   13092 WT1  3273 TIP3 H2   HT     0.417000        1.0080           0
   13093 WT1  3274 TIP3 OH2  OT    -0.834000       15.9994           0
   13094 WT1  3274 TIP3 H1   HT     0.417000        1.0080           0
   13095 WT1  3274 TIP3 H2   HT     0.417000        1.0080           0
   13096 WT1  3276 TIP3 OH2  OT    -0.834000       15.9994           0
   13097 WT1  3276 TIP3 H1   HT     0.417000        1.0080           0
   13098 WT1  3276 TIP3 H2   HT     0.417000        1.0080           0
   13099 WT1  3277 TIP3 OH2  OT    -0.834000       15.9994           0
   13100 WT1  3277 TIP3 H1   HT     0.417000        1.0080           0
   13101 WT1  3277 TIP3 H2   HT     0.417000        1.0080           0
   13102 WT1  3278 TIP3 OH2  OT    -0.834000       15.9994           0
   13103 WT1  3278 TIP3 H1   HT     0.417000        1.0080           0
   13104 WT1  3278 TIP3 H2   HT     0.417000        1.0080           0
   13105 WT1  3279 TIP3 OH2  OT    -0.834000       15.9994           0
   13106 WT1  3279 TIP3 H1   HT     0.417000        1.0080           0
   13107 WT1  3279 TIP3 H2   HT     0.417000        1.0080           0
   13108 WT1  3280 TIP3 OH2  OT    -0.834000       15.9994           0
   13109 WT1  3280 TIP3 H1   HT     0.417000        1.0080           0
   13110 WT1  3280 TIP3 H2   HT     0.417000        1.0080           0
   13111 WT1  3281 TIP3 OH2  OT    -0.834000       15.9994           0
   13112 WT1  3281 TIP3 H1   HT     0.417000        1.0080           0
   13113 WT1  3281 TIP3 H2   HT     0.417000        1.0080           0
   13114 WT1  3282 TIP3 OH2  OT    -0.834000       15.9994           0
   13115 WT1  3282 TIP3 H1   HT     0.417000        1.0080           0
   13116 WT1  3282 TIP3 H2   HT     0.417000        1.0080           0
   13117 WT1  3283 TIP3 OH2  OT    -0.834000       15.9994           0
   13118 WT1  3283 TIP3 H1   HT     0.417000        1.0080           0
   13119 WT1  3283 TIP3 H2   HT     0.417000        1.0080           0
   13120 WT1  3284 TIP3 OH2  OT    -0.834000       15.9994           0
   13121 WT1  3284 TIP3 H1   HT     0.417000        1.0080           0
   13122 WT1  3284 TIP3 H2   HT     0.417000        1.0080           0
   13123 WT1  3285 TIP3 OH2  OT    -0.834000       15.9994           0
   13124 WT1  3285 TIP3 H1   HT     0.417000        1.0080           0
   13125 WT1  3285 TIP3 H2   HT     0.417000        1.0080           0
   13126 WT1  3286 TIP3 OH2  OT    -0.834000       15.9994           0
   13127 WT1  3286 TIP3 H1   HT     0.417000        1.0080           0
   13128 WT1  3286 TIP3 H2   HT     0.417000        1.0080           0
   13129 WT1  3287 TIP3 OH2  OT    -0.834000       15.9994           0
   13130 WT1  3287 TIP3 H1   HT     0.417000        1.0080           0
   13131 WT1  3287 TIP3 H2   HT     0.417000        1.0080           0
   13132 WT1  3288 TIP3 OH2  OT    -0.834000       15.9994           0
   13133 WT1  3288 TIP3 H1   HT     0.417000        1.0080           0
   13134 WT1  3288 TIP3 H2   HT     0.417000        1.0080           0
   13135 WT1  3289 TIP3 OH2  OT    -0.834000       15.9994           0
   13136 WT1  3289 TIP3 H1   HT     0.417000        1.0080           0
   13137 WT1  3289 TIP3 H2   HT     0.417000        1.0080           0
   13138 WT1  3290 TIP3 OH2  OT    -0.834000       15.9994           0
   13139 WT1  3290 TIP3 H1   HT     0.417000        1.0080           0
   13140 WT1  3290 TIP3 H2   HT     0.417000        1.0080           0
   13141 WT1  3291 TIP3 OH2  OT    -0.834000       15.9994           0
   13142 WT1  3291 TIP3 H1   HT     0.417000        1.0080           0
   13143 WT1  3291 TIP3 H2   HT     0.417000        1.0080           0
   13144 WT1  3292 TIP3 OH2  OT    -0.834000       15.9994           0
   13145 WT1  3292 TIP3 H1   HT     0.417000        1.0080           0
   13146 WT1  3292 TIP3 H2   HT     0.417000        1.0080           0
   13147 WT1  3293 TIP3 OH2  OT    -0.834000       15.9994           0
   13148 WT1  3293 TIP3 H1   HT     0.417000        1.0080           0
   13149 WT1  3293 TIP3 H2   HT     0.417000        1.0080           0
   13150 WT1  3294 TIP3 OH2  OT    -0.834000       15.9994           0
   13151 WT1  3294 TIP3 H1   HT     0.417000        1.0080           0
   13152 WT1  3294 TIP3 H2   HT     0.417000        1.0080           0
   13153 WT1  3295 TIP3 OH2  OT    -0.834000       15.9994           0
   13154 WT1  3295 TIP3 H1   HT     0.417000        1.0080           0
   13155 WT1  3295 TIP3 H2   HT     0.417000        1.0080           0
   13156 WT1  3296 TIP3 OH2  OT    -0.834000       15.9994           0
   13157 WT1  3296 TIP3 H1   HT     0.417000        1.0080           0
   13158 WT1  3296 TIP3 H2   HT     0.417000        1.0080           0
   13159 WT1  3297 TIP3 OH2  OT    -0.834000       15.9994           0
   13160 WT1  3297 TIP3 H1   HT     0.417000        1.0080           0
   13161 WT1  3297 TIP3 H2   HT     0.417000        1.0080           0
   13162 WT1  3298 TIP3 OH2  OT    -0.834000       15.9994           0
   13163 WT1  3298 TIP3 H1   HT     0.417000        1.0080           0
   13164 WT1  3298 TIP3 H2   HT     0.417000        1.0080           0
   13165 WT1  3299 TIP3 OH2  OT    -0.834000       15.9994           0
   13166 WT1  3299 TIP3 H1   HT     0.417000        1.0080           0
   13167 WT1  3299 TIP3 H2   HT     0.417000        1.0080           0
   13168 WT1  3300 TIP3 OH2  OT    -0.834000       15.9994           0
   13169 WT1  3300 TIP3 H1   HT     0.417000        1.0080           0
   13170 WT1  3300 TIP3 H2   HT     0.417000        1.0080           0
   13171 WT1  3301 TIP3 OH2  OT    -0.834000       15.9994           0
   13172 WT1  3301 TIP3 H1   HT     0.417000        1.0080           0
   13173 WT1  3301 TIP3 H2   HT     0.417000        1.0080           0
   13174 WT1  3302 TIP3 OH2  OT    -0.834000       15.9994           0
   13175 WT1  3302 TIP3 H1   HT     0.417000        1.0080           0
   13176 WT1  3302 TIP3 H2   HT     0.417000        1.0080           0
   13177 WT1  3303 TIP3 OH2  OT    -0.834000       15.9994           0
   13178 WT1  3303 TIP3 H1   HT     0.417000        1.0080           0
   13179 WT1  3303 TIP3 H2   HT     0.417000        1.0080           0
   13180 WT1  3304 TIP3 OH2  OT    -0.834000       15.9994           0
   13181 WT1  3304 TIP3 H1   HT     0.417000        1.0080           0
   13182 WT1  3304 TIP3 H2   HT     0.417000        1.0080           0
   13183 WT1  3305 TIP3 OH2  OT    -0.834000       15.9994           0
   13184 WT1  3305 TIP3 H1   HT     0.417000        1.0080           0
   13185 WT1  3305 TIP3 H2   HT     0.417000        1.0080           0
   13186 WT1  3306 TIP3 OH2  OT    -0.834000       15.9994           0
   13187 WT1  3306 TIP3 H1   HT     0.417000        1.0080           0
   13188 WT1  3306 TIP3 H2   HT     0.417000        1.0080           0
   13189 WT1  3307 TIP3 OH2  OT    -0.834000       15.9994           0
   13190 WT1  3307 TIP3 H1   HT     0.417000        1.0080           0
   13191 WT1  3307 TIP3 H2   HT     0.417000        1.0080           0
   13192 WT1  3308 TIP3 OH2  OT    -0.834000       15.9994           0
   13193 WT1  3308 TIP3 H1   HT     0.417000        1.0080           0
   13194 WT1  3308 TIP3 H2   HT     0.417000        1.0080           0
   13195 WT1  3309 TIP3 OH2  OT    -0.834000       15.9994           0
   13196 WT1  3309 TIP3 H1   HT     0.417000        1.0080           0
   13197 WT1  3309 TIP3 H2   HT     0.417000        1.0080           0
   13198 WT1  3310 TIP3 OH2  OT    -0.834000       15.9994           0
   13199 WT1  3310 TIP3 H1   HT     0.417000        1.0080           0
   13200 WT1  3310 TIP3 H2   HT     0.417000        1.0080           0
   13201 WT1  3311 TIP3 OH2  OT    -0.834000       15.9994           0
   13202 WT1  3311 TIP3 H1   HT     0.417000        1.0080           0
   13203 WT1  3311 TIP3 H2   HT     0.417000        1.0080           0
   13204 WT1  3312 TIP3 OH2  OT    -0.834000       15.9994           0
   13205 WT1  3312 TIP3 H1   HT     0.417000        1.0080           0
   13206 WT1  3312 TIP3 H2   HT     0.417000        1.0080           0
   13207 WT1  3313 TIP3 OH2  OT    -0.834000       15.9994           0
   13208 WT1  3313 TIP3 H1   HT     0.417000        1.0080           0
   13209 WT1  3313 TIP3 H2   HT     0.417000        1.0080           0
   13210 WT1  3314 TIP3 OH2  OT    -0.834000       15.9994           0
   13211 WT1  3314 TIP3 H1   HT     0.417000        1.0080           0
   13212 WT1  3314 TIP3 H2   HT     0.417000        1.0080           0
   13213 WT1  3315 TIP3 OH2  OT    -0.834000       15.9994           0
   13214 WT1  3315 TIP3 H1   HT     0.417000        1.0080           0
   13215 WT1  3315 TIP3 H2   HT     0.417000        1.0080           0
   13216 WT1  3316 TIP3 OH2  OT    -0.834000       15.9994           0
   13217 WT1  3316 TIP3 H1   HT     0.417000        1.0080           0
   13218 WT1  3316 TIP3 H2   HT     0.417000        1.0080           0
   13219 WT1  3317 TIP3 OH2  OT    -0.834000       15.9994           0
   13220 WT1  3317 TIP3 H1   HT     0.417000        1.0080           0
   13221 WT1  3317 TIP3 H2   HT     0.417000        1.0080           0
   13222 WT1  3319 TIP3 OH2  OT    -0.834000       15.9994           0
   13223 WT1  3319 TIP3 H1   HT     0.417000        1.0080           0
   13224 WT1  3319 TIP3 H2   HT     0.417000        1.0080           0
   13225 WT1  3320 TIP3 OH2  OT    -0.834000       15.9994           0
   13226 WT1  3320 TIP3 H1   HT     0.417000        1.0080           0
   13227 WT1  3320 TIP3 H2   HT     0.417000        1.0080           0
   13228 WT1  3321 TIP3 OH2  OT    -0.834000       15.9994           0
   13229 WT1  3321 TIP3 H1   HT     0.417000        1.0080           0
   13230 WT1  3321 TIP3 H2   HT     0.417000        1.0080           0
   13231 WT1  3322 TIP3 OH2  OT    -0.834000       15.9994           0
   13232 WT1  3322 TIP3 H1   HT     0.417000        1.0080           0
   13233 WT1  3322 TIP3 H2   HT     0.417000        1.0080           0
   13234 WT1  3323 TIP3 OH2  OT    -0.834000       15.9994           0
   13235 WT1  3323 TIP3 H1   HT     0.417000        1.0080           0
   13236 WT1  3323 TIP3 H2   HT     0.417000        1.0080           0
   13237 WT1  3324 TIP3 OH2  OT    -0.834000       15.9994           0
   13238 WT1  3324 TIP3 H1   HT     0.417000        1.0080           0
   13239 WT1  3324 TIP3 H2   HT     0.417000        1.0080           0
   13240 WT1  3325 TIP3 OH2  OT    -0.834000       15.9994           0
   13241 WT1  3325 TIP3 H1   HT     0.417000        1.0080           0
   13242 WT1  3325 TIP3 H2   HT     0.417000        1.0080           0
   13243 WT1  3326 TIP3 OH2  OT    -0.834000       15.9994           0
   13244 WT1  3326 TIP3 H1   HT     0.417000        1.0080           0
   13245 WT1  3326 TIP3 H2   HT     0.417000        1.0080           0
   13246 WT1  3327 TIP3 OH2  OT    -0.834000       15.9994           0
   13247 WT1  3327 TIP3 H1   HT     0.417000        1.0080           0
   13248 WT1  3327 TIP3 H2   HT     0.417000        1.0080           0
   13249 WT1  3328 TIP3 OH2  OT    -0.834000       15.9994           0
   13250 WT1  3328 TIP3 H1   HT     0.417000        1.0080           0
   13251 WT1  3328 TIP3 H2   HT     0.417000        1.0080           0
   13252 WT1  3329 TIP3 OH2  OT    -0.834000       15.9994           0
   13253 WT1  3329 TIP3 H1   HT     0.417000        1.0080           0
   13254 WT1  3329 TIP3 H2   HT     0.417000        1.0080           0
   13255 WT1  3330 TIP3 OH2  OT    -0.834000       15.9994           0
   13256 WT1  3330 TIP3 H1   HT     0.417000        1.0080           0
   13257 WT1  3330 TIP3 H2   HT     0.417000        1.0080           0
   13258 WT1  3331 TIP3 OH2  OT    -0.834000       15.9994           0
   13259 WT1  3331 TIP3 H1   HT     0.417000        1.0080           0
   13260 WT1  3331 TIP3 H2   HT     0.417000        1.0080           0
   13261 WT1  3332 TIP3 OH2  OT    -0.834000       15.9994           0
   13262 WT1  3332 TIP3 H1   HT     0.417000        1.0080           0
   13263 WT1  3332 TIP3 H2   HT     0.417000        1.0080           0
   13264 WT1  3333 TIP3 OH2  OT    -0.834000       15.9994           0
   13265 WT1  3333 TIP3 H1   HT     0.417000        1.0080           0
   13266 WT1  3333 TIP3 H2   HT     0.417000        1.0080           0
   13267 WT1  3334 TIP3 OH2  OT    -0.834000       15.9994           0
   13268 WT1  3334 TIP3 H1   HT     0.417000        1.0080           0
   13269 WT1  3334 TIP3 H2   HT     0.417000        1.0080           0
   13270 WT1  3335 TIP3 OH2  OT    -0.834000       15.9994           0
   13271 WT1  3335 TIP3 H1   HT     0.417000        1.0080           0
   13272 WT1  3335 TIP3 H2   HT     0.417000        1.0080           0
   13273 WT1  3336 TIP3 OH2  OT    -0.834000       15.9994           0
   13274 WT1  3336 TIP3 H1   HT     0.417000        1.0080           0
   13275 WT1  3336 TIP3 H2   HT     0.417000        1.0080           0
   13276 WT1  3337 TIP3 OH2  OT    -0.834000       15.9994           0
   13277 WT1  3337 TIP3 H1   HT     0.417000        1.0080           0
   13278 WT1  3337 TIP3 H2   HT     0.417000        1.0080           0
   13279 WT1  3339 TIP3 OH2  OT    -0.834000       15.9994           0
   13280 WT1  3339 TIP3 H1   HT     0.417000        1.0080           0
   13281 WT1  3339 TIP3 H2   HT     0.417000        1.0080           0
   13282 WT1  3341 TIP3 OH2  OT    -0.834000       15.9994           0
   13283 WT1  3341 TIP3 H1   HT     0.417000        1.0080           0
   13284 WT1  3341 TIP3 H2   HT     0.417000        1.0080           0
   13285 WT1  3342 TIP3 OH2  OT    -0.834000       15.9994           0
   13286 WT1  3342 TIP3 H1   HT     0.417000        1.0080           0
   13287 WT1  3342 TIP3 H2   HT     0.417000        1.0080           0
   13288 WT1  3343 TIP3 OH2  OT    -0.834000       15.9994           0
   13289 WT1  3343 TIP3 H1   HT     0.417000        1.0080           0
   13290 WT1  3343 TIP3 H2   HT     0.417000        1.0080           0
   13291 WT1  3344 TIP3 OH2  OT    -0.834000       15.9994           0
   13292 WT1  3344 TIP3 H1   HT     0.417000        1.0080           0
   13293 WT1  3344 TIP3 H2   HT     0.417000        1.0080           0
   13294 WT1  3345 TIP3 OH2  OT    -0.834000       15.9994           0
   13295 WT1  3345 TIP3 H1   HT     0.417000        1.0080           0
   13296 WT1  3345 TIP3 H2   HT     0.417000        1.0080           0
   13297 WT1  3346 TIP3 OH2  OT    -0.834000       15.9994           0
   13298 WT1  3346 TIP3 H1   HT     0.417000        1.0080           0
   13299 WT1  3346 TIP3 H2   HT     0.417000        1.0080           0
   13300 WT1  3347 TIP3 OH2  OT    -0.834000       15.9994           0
   13301 WT1  3347 TIP3 H1   HT     0.417000        1.0080           0
   13302 WT1  3347 TIP3 H2   HT     0.417000        1.0080           0
   13303 WT1  3348 TIP3 OH2  OT    -0.834000       15.9994           0
   13304 WT1  3348 TIP3 H1   HT     0.417000        1.0080           0
   13305 WT1  3348 TIP3 H2   HT     0.417000        1.0080           0
   13306 WT1  3349 TIP3 OH2  OT    -0.834000       15.9994           0
   13307 WT1  3349 TIP3 H1   HT     0.417000        1.0080           0
   13308 WT1  3349 TIP3 H2   HT     0.417000        1.0080           0
   13309 WT1  3350 TIP3 OH2  OT    -0.834000       15.9994           0
   13310 WT1  3350 TIP3 H1   HT     0.417000        1.0080           0
   13311 WT1  3350 TIP3 H2   HT     0.417000        1.0080           0
   13312 WT1  3351 TIP3 OH2  OT    -0.834000       15.9994           0
   13313 WT1  3351 TIP3 H1   HT     0.417000        1.0080           0
   13314 WT1  3351 TIP3 H2   HT     0.417000        1.0080           0
   13315 WT1  3352 TIP3 OH2  OT    -0.834000       15.9994           0
   13316 WT1  3352 TIP3 H1   HT     0.417000        1.0080           0
   13317 WT1  3352 TIP3 H2   HT     0.417000        1.0080           0
   13318 WT1  3353 TIP3 OH2  OT    -0.834000       15.9994           0
   13319 WT1  3353 TIP3 H1   HT     0.417000        1.0080           0
   13320 WT1  3353 TIP3 H2   HT     0.417000        1.0080           0
   13321 WT1  3354 TIP3 OH2  OT    -0.834000       15.9994           0
   13322 WT1  3354 TIP3 H1   HT     0.417000        1.0080           0
   13323 WT1  3354 TIP3 H2   HT     0.417000        1.0080           0
   13324 WT1  3355 TIP3 OH2  OT    -0.834000       15.9994           0
   13325 WT1  3355 TIP3 H1   HT     0.417000        1.0080           0
   13326 WT1  3355 TIP3 H2   HT     0.417000        1.0080           0
   13327 WT1  3356 TIP3 OH2  OT    -0.834000       15.9994           0
   13328 WT1  3356 TIP3 H1   HT     0.417000        1.0080           0
   13329 WT1  3356 TIP3 H2   HT     0.417000        1.0080           0
   13330 WT1  3358 TIP3 OH2  OT    -0.834000       15.9994           0
   13331 WT1  3358 TIP3 H1   HT     0.417000        1.0080           0
   13332 WT1  3358 TIP3 H2   HT     0.417000        1.0080           0
   13333 WT1  3359 TIP3 OH2  OT    -0.834000       15.9994           0
   13334 WT1  3359 TIP3 H1   HT     0.417000        1.0080           0
   13335 WT1  3359 TIP3 H2   HT     0.417000        1.0080           0
   13336 WT1  3360 TIP3 OH2  OT    -0.834000       15.9994           0
   13337 WT1  3360 TIP3 H1   HT     0.417000        1.0080           0
   13338 WT1  3360 TIP3 H2   HT     0.417000        1.0080           0
   13339 WT1  3361 TIP3 OH2  OT    -0.834000       15.9994           0
   13340 WT1  3361 TIP3 H1   HT     0.417000        1.0080           0
   13341 WT1  3361 TIP3 H2   HT     0.417000        1.0080           0
   13342 WT1  3362 TIP3 OH2  OT    -0.834000       15.9994           0
   13343 WT1  3362 TIP3 H1   HT     0.417000        1.0080           0
   13344 WT1  3362 TIP3 H2   HT     0.417000        1.0080           0
   13345 WT1  3363 TIP3 OH2  OT    -0.834000       15.9994           0
   13346 WT1  3363 TIP3 H1   HT     0.417000        1.0080           0
   13347 WT1  3363 TIP3 H2   HT     0.417000        1.0080           0
   13348 WT1  3364 TIP3 OH2  OT    -0.834000       15.9994           0
   13349 WT1  3364 TIP3 H1   HT     0.417000        1.0080           0
   13350 WT1  3364 TIP3 H2   HT     0.417000        1.0080           0
   13351 WT1  3365 TIP3 OH2  OT    -0.834000       15.9994           0
   13352 WT1  3365 TIP3 H1   HT     0.417000        1.0080           0
   13353 WT1  3365 TIP3 H2   HT     0.417000        1.0080           0
   13354 WT1  3366 TIP3 OH2  OT    -0.834000       15.9994           0
   13355 WT1  3366 TIP3 H1   HT     0.417000        1.0080           0
   13356 WT1  3366 TIP3 H2   HT     0.417000        1.0080           0
   13357 WT1  3367 TIP3 OH2  OT    -0.834000       15.9994           0
   13358 WT1  3367 TIP3 H1   HT     0.417000        1.0080           0
   13359 WT1  3367 TIP3 H2   HT     0.417000        1.0080           0
   13360 WT1  3368 TIP3 OH2  OT    -0.834000       15.9994           0
   13361 WT1  3368 TIP3 H1   HT     0.417000        1.0080           0
   13362 WT1  3368 TIP3 H2   HT     0.417000        1.0080           0
   13363 WT1  3369 TIP3 OH2  OT    -0.834000       15.9994           0
   13364 WT1  3369 TIP3 H1   HT     0.417000        1.0080           0
   13365 WT1  3369 TIP3 H2   HT     0.417000        1.0080           0
   13366 WT1  3370 TIP3 OH2  OT    -0.834000       15.9994           0
   13367 WT1  3370 TIP3 H1   HT     0.417000        1.0080           0
   13368 WT1  3370 TIP3 H2   HT     0.417000        1.0080           0
   13369 WT1  3371 TIP3 OH2  OT    -0.834000       15.9994           0
   13370 WT1  3371 TIP3 H1   HT     0.417000        1.0080           0
   13371 WT1  3371 TIP3 H2   HT     0.417000        1.0080           0
   13372 WT1  3372 TIP3 OH2  OT    -0.834000       15.9994           0
   13373 WT1  3372 TIP3 H1   HT     0.417000        1.0080           0
   13374 WT1  3372 TIP3 H2   HT     0.417000        1.0080           0
   13375 WT1  3373 TIP3 OH2  OT    -0.834000       15.9994           0
   13376 WT1  3373 TIP3 H1   HT     0.417000        1.0080           0
   13377 WT1  3373 TIP3 H2   HT     0.417000        1.0080           0
   13378 WT1  3374 TIP3 OH2  OT    -0.834000       15.9994           0
   13379 WT1  3374 TIP3 H1   HT     0.417000        1.0080           0
   13380 WT1  3374 TIP3 H2   HT     0.417000        1.0080           0
   13381 WT1  3375 TIP3 OH2  OT    -0.834000       15.9994           0
   13382 WT1  3375 TIP3 H1   HT     0.417000        1.0080           0
   13383 WT1  3375 TIP3 H2   HT     0.417000        1.0080           0
   13384 WT1  3377 TIP3 OH2  OT    -0.834000       15.9994           0
   13385 WT1  3377 TIP3 H1   HT     0.417000        1.0080           0
   13386 WT1  3377 TIP3 H2   HT     0.417000        1.0080           0
   13387 WT1  3378 TIP3 OH2  OT    -0.834000       15.9994           0
   13388 WT1  3378 TIP3 H1   HT     0.417000        1.0080           0
   13389 WT1  3378 TIP3 H2   HT     0.417000        1.0080           0
   13390 WT1  3381 TIP3 OH2  OT    -0.834000       15.9994           0
   13391 WT1  3381 TIP3 H1   HT     0.417000        1.0080           0
   13392 WT1  3381 TIP3 H2   HT     0.417000        1.0080           0
   13393 WT1  3382 TIP3 OH2  OT    -0.834000       15.9994           0
   13394 WT1  3382 TIP3 H1   HT     0.417000        1.0080           0
   13395 WT1  3382 TIP3 H2   HT     0.417000        1.0080           0
   13396 WT1  3383 TIP3 OH2  OT    -0.834000       15.9994           0
   13397 WT1  3383 TIP3 H1   HT     0.417000        1.0080           0
   13398 WT1  3383 TIP3 H2   HT     0.417000        1.0080           0
   13399 WT1  3384 TIP3 OH2  OT    -0.834000       15.9994           0
   13400 WT1  3384 TIP3 H1   HT     0.417000        1.0080           0
   13401 WT1  3384 TIP3 H2   HT     0.417000        1.0080           0
   13402 WT1  3385 TIP3 OH2  OT    -0.834000       15.9994           0
   13403 WT1  3385 TIP3 H1   HT     0.417000        1.0080           0
   13404 WT1  3385 TIP3 H2   HT     0.417000        1.0080           0
   13405 WT1  3386 TIP3 OH2  OT    -0.834000       15.9994           0
   13406 WT1  3386 TIP3 H1   HT     0.417000        1.0080           0
   13407 WT1  3386 TIP3 H2   HT     0.417000        1.0080           0
   13408 WT1  3387 TIP3 OH2  OT    -0.834000       15.9994           0
   13409 WT1  3387 TIP3 H1   HT     0.417000        1.0080           0
   13410 WT1  3387 TIP3 H2   HT     0.417000        1.0080           0
   13411 WT1  3388 TIP3 OH2  OT    -0.834000       15.9994           0
   13412 WT1  3388 TIP3 H1   HT     0.417000        1.0080           0
   13413 WT1  3388 TIP3 H2   HT     0.417000        1.0080           0
   13414 WT1  3389 TIP3 OH2  OT    -0.834000       15.9994           0
   13415 WT1  3389 TIP3 H1   HT     0.417000        1.0080           0
   13416 WT1  3389 TIP3 H2   HT     0.417000        1.0080           0
   13417 WT1  3390 TIP3 OH2  OT    -0.834000       15.9994           0
   13418 WT1  3390 TIP3 H1   HT     0.417000        1.0080           0
   13419 WT1  3390 TIP3 H2   HT     0.417000        1.0080           0
   13420 WT1  3391 TIP3 OH2  OT    -0.834000       15.9994           0
   13421 WT1  3391 TIP3 H1   HT     0.417000        1.0080           0
   13422 WT1  3391 TIP3 H2   HT     0.417000        1.0080           0
   13423 WT1  3392 TIP3 OH2  OT    -0.834000       15.9994           0
   13424 WT1  3392 TIP3 H1   HT     0.417000        1.0080           0
   13425 WT1  3392 TIP3 H2   HT     0.417000        1.0080           0
   13426 WT1  3393 TIP3 OH2  OT    -0.834000       15.9994           0
   13427 WT1  3393 TIP3 H1   HT     0.417000        1.0080           0
   13428 WT1  3393 TIP3 H2   HT     0.417000        1.0080           0
   13429 WT1  3394 TIP3 OH2  OT    -0.834000       15.9994           0
   13430 WT1  3394 TIP3 H1   HT     0.417000        1.0080           0
   13431 WT1  3394 TIP3 H2   HT     0.417000        1.0080           0
   13432 WT1  3395 TIP3 OH2  OT    -0.834000       15.9994           0
   13433 WT1  3395 TIP3 H1   HT     0.417000        1.0080           0
   13434 WT1  3395 TIP3 H2   HT     0.417000        1.0080           0
   13435 WT1  3396 TIP3 OH2  OT    -0.834000       15.9994           0
   13436 WT1  3396 TIP3 H1   HT     0.417000        1.0080           0
   13437 WT1  3396 TIP3 H2   HT     0.417000        1.0080           0
   13438 WT1  3397 TIP3 OH2  OT    -0.834000       15.9994           0
   13439 WT1  3397 TIP3 H1   HT     0.417000        1.0080           0
   13440 WT1  3397 TIP3 H2   HT     0.417000        1.0080           0
   13441 WT1  3400 TIP3 OH2  OT    -0.834000       15.9994           0
   13442 WT1  3400 TIP3 H1   HT     0.417000        1.0080           0
   13443 WT1  3400 TIP3 H2   HT     0.417000        1.0080           0
   13444 WT1  3401 TIP3 OH2  OT    -0.834000       15.9994           0
   13445 WT1  3401 TIP3 H1   HT     0.417000        1.0080           0
   13446 WT1  3401 TIP3 H2   HT     0.417000        1.0080           0
   13447 WT1  3402 TIP3 OH2  OT    -0.834000       15.9994           0
   13448 WT1  3402 TIP3 H1   HT     0.417000        1.0080           0
   13449 WT1  3402 TIP3 H2   HT     0.417000        1.0080           0
   13450 WT1  3403 TIP3 OH2  OT    -0.834000       15.9994           0
   13451 WT1  3403 TIP3 H1   HT     0.417000        1.0080           0
   13452 WT1  3403 TIP3 H2   HT     0.417000        1.0080           0
   13453 WT1  3404 TIP3 OH2  OT    -0.834000       15.9994           0
   13454 WT1  3404 TIP3 H1   HT     0.417000        1.0080           0
   13455 WT1  3404 TIP3 H2   HT     0.417000        1.0080           0
   13456 WT1  3405 TIP3 OH2  OT    -0.834000       15.9994           0
   13457 WT1  3405 TIP3 H1   HT     0.417000        1.0080           0
   13458 WT1  3405 TIP3 H2   HT     0.417000        1.0080           0
   13459 WT1  3406 TIP3 OH2  OT    -0.834000       15.9994           0
   13460 WT1  3406 TIP3 H1   HT     0.417000        1.0080           0
   13461 WT1  3406 TIP3 H2   HT     0.417000        1.0080           0
   13462 WT1  3407 TIP3 OH2  OT    -0.834000       15.9994           0
   13463 WT1  3407 TIP3 H1   HT     0.417000        1.0080           0
   13464 WT1  3407 TIP3 H2   HT     0.417000        1.0080           0
   13465 WT1  3408 TIP3 OH2  OT    -0.834000       15.9994           0
   13466 WT1  3408 TIP3 H1   HT     0.417000        1.0080           0
   13467 WT1  3408 TIP3 H2   HT     0.417000        1.0080           0
   13468 WT1  3409 TIP3 OH2  OT    -0.834000       15.9994           0
   13469 WT1  3409 TIP3 H1   HT     0.417000        1.0080           0
   13470 WT1  3409 TIP3 H2   HT     0.417000        1.0080           0
   13471 WT1  3410 TIP3 OH2  OT    -0.834000       15.9994           0
   13472 WT1  3410 TIP3 H1   HT     0.417000        1.0080           0
   13473 WT1  3410 TIP3 H2   HT     0.417000        1.0080           0
   13474 WT1  3411 TIP3 OH2  OT    -0.834000       15.9994           0
   13475 WT1  3411 TIP3 H1   HT     0.417000        1.0080           0
   13476 WT1  3411 TIP3 H2   HT     0.417000        1.0080           0
   13477 WT1  3412 TIP3 OH2  OT    -0.834000       15.9994           0
   13478 WT1  3412 TIP3 H1   HT     0.417000        1.0080           0
   13479 WT1  3412 TIP3 H2   HT     0.417000        1.0080           0
   13480 WT1  3414 TIP3 OH2  OT    -0.834000       15.9994           0
   13481 WT1  3414 TIP3 H1   HT     0.417000        1.0080           0
   13482 WT1  3414 TIP3 H2   HT     0.417000        1.0080           0
   13483 WT1  3415 TIP3 OH2  OT    -0.834000       15.9994           0
   13484 WT1  3415 TIP3 H1   HT     0.417000        1.0080           0
   13485 WT1  3415 TIP3 H2   HT     0.417000        1.0080           0
   13486 WT1  3417 TIP3 OH2  OT    -0.834000       15.9994           0
   13487 WT1  3417 TIP3 H1   HT     0.417000        1.0080           0
   13488 WT1  3417 TIP3 H2   HT     0.417000        1.0080           0
   13489 WT1  3418 TIP3 OH2  OT    -0.834000       15.9994           0
   13490 WT1  3418 TIP3 H1   HT     0.417000        1.0080           0
   13491 WT1  3418 TIP3 H2   HT     0.417000        1.0080           0
   13492 WT1  3419 TIP3 OH2  OT    -0.834000       15.9994           0
   13493 WT1  3419 TIP3 H1   HT     0.417000        1.0080           0
   13494 WT1  3419 TIP3 H2   HT     0.417000        1.0080           0
   13495 WT1  3420 TIP3 OH2  OT    -0.834000       15.9994           0
   13496 WT1  3420 TIP3 H1   HT     0.417000        1.0080           0
   13497 WT1  3420 TIP3 H2   HT     0.417000        1.0080           0
   13498 WT1  3422 TIP3 OH2  OT    -0.834000       15.9994           0
   13499 WT1  3422 TIP3 H1   HT     0.417000        1.0080           0
   13500 WT1  3422 TIP3 H2   HT     0.417000        1.0080           0
   13501 WT1  3424 TIP3 OH2  OT    -0.834000       15.9994           0
   13502 WT1  3424 TIP3 H1   HT     0.417000        1.0080           0
   13503 WT1  3424 TIP3 H2   HT     0.417000        1.0080           0
   13504 WT1  3425 TIP3 OH2  OT    -0.834000       15.9994           0
   13505 WT1  3425 TIP3 H1   HT     0.417000        1.0080           0
   13506 WT1  3425 TIP3 H2   HT     0.417000        1.0080           0
   13507 WT1  3426 TIP3 OH2  OT    -0.834000       15.9994           0
   13508 WT1  3426 TIP3 H1   HT     0.417000        1.0080           0
   13509 WT1  3426 TIP3 H2   HT     0.417000        1.0080           0
   13510 WT1  3427 TIP3 OH2  OT    -0.834000       15.9994           0
   13511 WT1  3427 TIP3 H1   HT     0.417000        1.0080           0
   13512 WT1  3427 TIP3 H2   HT     0.417000        1.0080           0
   13513 WT1  3428 TIP3 OH2  OT    -0.834000       15.9994           0
   13514 WT1  3428 TIP3 H1   HT     0.417000        1.0080           0
   13515 WT1  3428 TIP3 H2   HT     0.417000        1.0080           0
   13516 WT1  3429 TIP3 OH2  OT    -0.834000       15.9994           0
   13517 WT1  3429 TIP3 H1   HT     0.417000        1.0080           0
   13518 WT1  3429 TIP3 H2   HT     0.417000        1.0080           0
   13519 WT1  3430 TIP3 OH2  OT    -0.834000       15.9994           0
   13520 WT1  3430 TIP3 H1   HT     0.417000        1.0080           0
   13521 WT1  3430 TIP3 H2   HT     0.417000        1.0080           0
   13522 WT1  3431 TIP3 OH2  OT    -0.834000       15.9994           0
   13523 WT1  3431 TIP3 H1   HT     0.417000        1.0080           0
   13524 WT1  3431 TIP3 H2   HT     0.417000        1.0080           0
   13525 WT1  3432 TIP3 OH2  OT    -0.834000       15.9994           0
   13526 WT1  3432 TIP3 H1   HT     0.417000        1.0080           0
   13527 WT1  3432 TIP3 H2   HT     0.417000        1.0080           0
   13528 WT1  3433 TIP3 OH2  OT    -0.834000       15.9994           0
   13529 WT1  3433 TIP3 H1   HT     0.417000        1.0080           0
   13530 WT1  3433 TIP3 H2   HT     0.417000        1.0080           0
   13531 WT1  3434 TIP3 OH2  OT    -0.834000       15.9994           0
   13532 WT1  3434 TIP3 H1   HT     0.417000        1.0080           0
   13533 WT1  3434 TIP3 H2   HT     0.417000        1.0080           0
   13534 WT1  3435 TIP3 OH2  OT    -0.834000       15.9994           0
   13535 WT1  3435 TIP3 H1   HT     0.417000        1.0080           0
   13536 WT1  3435 TIP3 H2   HT     0.417000        1.0080           0
   13537 WT1  3437 TIP3 OH2  OT    -0.834000       15.9994           0
   13538 WT1  3437 TIP3 H1   HT     0.417000        1.0080           0
   13539 WT1  3437 TIP3 H2   HT     0.417000        1.0080           0
   13540 WT1  3438 TIP3 OH2  OT    -0.834000       15.9994           0
   13541 WT1  3438 TIP3 H1   HT     0.417000        1.0080           0
   13542 WT1  3438 TIP3 H2   HT     0.417000        1.0080           0
   13543 WT1  3439 TIP3 OH2  OT    -0.834000       15.9994           0
   13544 WT1  3439 TIP3 H1   HT     0.417000        1.0080           0
   13545 WT1  3439 TIP3 H2   HT     0.417000        1.0080           0
   13546 WT1  3440 TIP3 OH2  OT    -0.834000       15.9994           0
   13547 WT1  3440 TIP3 H1   HT     0.417000        1.0080           0
   13548 WT1  3440 TIP3 H2   HT     0.417000        1.0080           0
   13549 WT1  3441 TIP3 OH2  OT    -0.834000       15.9994           0
   13550 WT1  3441 TIP3 H1   HT     0.417000        1.0080           0
   13551 WT1  3441 TIP3 H2   HT     0.417000        1.0080           0
   13552 WT1  3442 TIP3 OH2  OT    -0.834000       15.9994           0
   13553 WT1  3442 TIP3 H1   HT     0.417000        1.0080           0
   13554 WT1  3442 TIP3 H2   HT     0.417000        1.0080           0
   13555 WT1  3444 TIP3 OH2  OT    -0.834000       15.9994           0
   13556 WT1  3444 TIP3 H1   HT     0.417000        1.0080           0
   13557 WT1  3444 TIP3 H2   HT     0.417000        1.0080           0
   13558 WT1  3445 TIP3 OH2  OT    -0.834000       15.9994           0
   13559 WT1  3445 TIP3 H1   HT     0.417000        1.0080           0
   13560 WT1  3445 TIP3 H2   HT     0.417000        1.0080           0
   13561 WT1  3446 TIP3 OH2  OT    -0.834000       15.9994           0
   13562 WT1  3446 TIP3 H1   HT     0.417000        1.0080           0
   13563 WT1  3446 TIP3 H2   HT     0.417000        1.0080           0
   13564 WT1  3447 TIP3 OH2  OT    -0.834000       15.9994           0
   13565 WT1  3447 TIP3 H1   HT     0.417000        1.0080           0
   13566 WT1  3447 TIP3 H2   HT     0.417000        1.0080           0
   13567 WT1  3448 TIP3 OH2  OT    -0.834000       15.9994           0
   13568 WT1  3448 TIP3 H1   HT     0.417000        1.0080           0
   13569 WT1  3448 TIP3 H2   HT     0.417000        1.0080           0
   13570 WT1  3449 TIP3 OH2  OT    -0.834000       15.9994           0
   13571 WT1  3449 TIP3 H1   HT     0.417000        1.0080           0
   13572 WT1  3449 TIP3 H2   HT     0.417000        1.0080           0
   13573 WT1  3450 TIP3 OH2  OT    -0.834000       15.9994           0
   13574 WT1  3450 TIP3 H1   HT     0.417000        1.0080           0
   13575 WT1  3450 TIP3 H2   HT     0.417000        1.0080           0
   13576 WT1  3451 TIP3 OH2  OT    -0.834000       15.9994           0
   13577 WT1  3451 TIP3 H1   HT     0.417000        1.0080           0
   13578 WT1  3451 TIP3 H2   HT     0.417000        1.0080           0
   13579 WT1  3452 TIP3 OH2  OT    -0.834000       15.9994           0
   13580 WT1  3452 TIP3 H1   HT     0.417000        1.0080           0
   13581 WT1  3452 TIP3 H2   HT     0.417000        1.0080           0
   13582 WT1  3453 TIP3 OH2  OT    -0.834000       15.9994           0
   13583 WT1  3453 TIP3 H1   HT     0.417000        1.0080           0
   13584 WT1  3453 TIP3 H2   HT     0.417000        1.0080           0
   13585 WT1  3454 TIP3 OH2  OT    -0.834000       15.9994           0
   13586 WT1  3454 TIP3 H1   HT     0.417000        1.0080           0
   13587 WT1  3454 TIP3 H2   HT     0.417000        1.0080           0
   13588 WT1  3455 TIP3 OH2  OT    -0.834000       15.9994           0
   13589 WT1  3455 TIP3 H1   HT     0.417000        1.0080           0
   13590 WT1  3455 TIP3 H2   HT     0.417000        1.0080           0
   13591 WT1  3456 TIP3 OH2  OT    -0.834000       15.9994           0
   13592 WT1  3456 TIP3 H1   HT     0.417000        1.0080           0
   13593 WT1  3456 TIP3 H2   HT     0.417000        1.0080           0
   13594 WT1  3457 TIP3 OH2  OT    -0.834000       15.9994           0
   13595 WT1  3457 TIP3 H1   HT     0.417000        1.0080           0
   13596 WT1  3457 TIP3 H2   HT     0.417000        1.0080           0
   13597 WT1  3459 TIP3 OH2  OT    -0.834000       15.9994           0
   13598 WT1  3459 TIP3 H1   HT     0.417000        1.0080           0
   13599 WT1  3459 TIP3 H2   HT     0.417000        1.0080           0
   13600 WT1  3460 TIP3 OH2  OT    -0.834000       15.9994           0
   13601 WT1  3460 TIP3 H1   HT     0.417000        1.0080           0
   13602 WT1  3460 TIP3 H2   HT     0.417000        1.0080           0
   13603 WT1  3461 TIP3 OH2  OT    -0.834000       15.9994           0
   13604 WT1  3461 TIP3 H1   HT     0.417000        1.0080           0
   13605 WT1  3461 TIP3 H2   HT     0.417000        1.0080           0
   13606 WT1  3462 TIP3 OH2  OT    -0.834000       15.9994           0
   13607 WT1  3462 TIP3 H1   HT     0.417000        1.0080           0
   13608 WT1  3462 TIP3 H2   HT     0.417000        1.0080           0
   13609 WT1  3463 TIP3 OH2  OT    -0.834000       15.9994           0
   13610 WT1  3463 TIP3 H1   HT     0.417000        1.0080           0
   13611 WT1  3463 TIP3 H2   HT     0.417000        1.0080           0
   13612 WT1  3464 TIP3 OH2  OT    -0.834000       15.9994           0
   13613 WT1  3464 TIP3 H1   HT     0.417000        1.0080           0
   13614 WT1  3464 TIP3 H2   HT     0.417000        1.0080           0
   13615 WT1  3465 TIP3 OH2  OT    -0.834000       15.9994           0
   13616 WT1  3465 TIP3 H1   HT     0.417000        1.0080           0
   13617 WT1  3465 TIP3 H2   HT     0.417000        1.0080           0
   13618 WT1  3466 TIP3 OH2  OT    -0.834000       15.9994           0
   13619 WT1  3466 TIP3 H1   HT     0.417000        1.0080           0
   13620 WT1  3466 TIP3 H2   HT     0.417000        1.0080           0
   13621 WT1  3467 TIP3 OH2  OT    -0.834000       15.9994           0
   13622 WT1  3467 TIP3 H1   HT     0.417000        1.0080           0
   13623 WT1  3467 TIP3 H2   HT     0.417000        1.0080           0
   13624 WT1  3468 TIP3 OH2  OT    -0.834000       15.9994           0
   13625 WT1  3468 TIP3 H1   HT     0.417000        1.0080           0
   13626 WT1  3468 TIP3 H2   HT     0.417000        1.0080           0
   13627 WT1  3469 TIP3 OH2  OT    -0.834000       15.9994           0
   13628 WT1  3469 TIP3 H1   HT     0.417000        1.0080           0
   13629 WT1  3469 TIP3 H2   HT     0.417000        1.0080           0
   13630 WT1  3470 TIP3 OH2  OT    -0.834000       15.9994           0
   13631 WT1  3470 TIP3 H1   HT     0.417000        1.0080           0
   13632 WT1  3470 TIP3 H2   HT     0.417000        1.0080           0
   13633 WT1  3471 TIP3 OH2  OT    -0.834000       15.9994           0
   13634 WT1  3471 TIP3 H1   HT     0.417000        1.0080           0
   13635 WT1  3471 TIP3 H2   HT     0.417000        1.0080           0
   13636 WT1  3473 TIP3 OH2  OT    -0.834000       15.9994           0
   13637 WT1  3473 TIP3 H1   HT     0.417000        1.0080           0
   13638 WT1  3473 TIP3 H2   HT     0.417000        1.0080           0
   13639 WT1  3474 TIP3 OH2  OT    -0.834000       15.9994           0
   13640 WT1  3474 TIP3 H1   HT     0.417000        1.0080           0
   13641 WT1  3474 TIP3 H2   HT     0.417000        1.0080           0
   13642 WT1  3475 TIP3 OH2  OT    -0.834000       15.9994           0
   13643 WT1  3475 TIP3 H1   HT     0.417000        1.0080           0
   13644 WT1  3475 TIP3 H2   HT     0.417000        1.0080           0
   13645 WT1  3476 TIP3 OH2  OT    -0.834000       15.9994           0
   13646 WT1  3476 TIP3 H1   HT     0.417000        1.0080           0
   13647 WT1  3476 TIP3 H2   HT     0.417000        1.0080           0
   13648 WT1  3477 TIP3 OH2  OT    -0.834000       15.9994           0
   13649 WT1  3477 TIP3 H1   HT     0.417000        1.0080           0
   13650 WT1  3477 TIP3 H2   HT     0.417000        1.0080           0
   13651 WT1  3478 TIP3 OH2  OT    -0.834000       15.9994           0
   13652 WT1  3478 TIP3 H1   HT     0.417000        1.0080           0
   13653 WT1  3478 TIP3 H2   HT     0.417000        1.0080           0
   13654 WT1  3479 TIP3 OH2  OT    -0.834000       15.9994           0
   13655 WT1  3479 TIP3 H1   HT     0.417000        1.0080           0
   13656 WT1  3479 TIP3 H2   HT     0.417000        1.0080           0
   13657 WT1  3483 TIP3 OH2  OT    -0.834000       15.9994           0
   13658 WT1  3483 TIP3 H1   HT     0.417000        1.0080           0
   13659 WT1  3483 TIP3 H2   HT     0.417000        1.0080           0
   13660 WT1  3484 TIP3 OH2  OT    -0.834000       15.9994           0
   13661 WT1  3484 TIP3 H1   HT     0.417000        1.0080           0
   13662 WT1  3484 TIP3 H2   HT     0.417000        1.0080           0
   13663 WT1  3485 TIP3 OH2  OT    -0.834000       15.9994           0
   13664 WT1  3485 TIP3 H1   HT     0.417000        1.0080           0
   13665 WT1  3485 TIP3 H2   HT     0.417000        1.0080           0
   13666 WT1  3486 TIP3 OH2  OT    -0.834000       15.9994           0
   13667 WT1  3486 TIP3 H1   HT     0.417000        1.0080           0
   13668 WT1  3486 TIP3 H2   HT     0.417000        1.0080           0
   13669 WT1  3487 TIP3 OH2  OT    -0.834000       15.9994           0
   13670 WT1  3487 TIP3 H1   HT     0.417000        1.0080           0
   13671 WT1  3487 TIP3 H2   HT     0.417000        1.0080           0
   13672 WT1  3488 TIP3 OH2  OT    -0.834000       15.9994           0
   13673 WT1  3488 TIP3 H1   HT     0.417000        1.0080           0
   13674 WT1  3488 TIP3 H2   HT     0.417000        1.0080           0
   13675 WT1  3489 TIP3 OH2  OT    -0.834000       15.9994           0
   13676 WT1  3489 TIP3 H1   HT     0.417000        1.0080           0
   13677 WT1  3489 TIP3 H2   HT     0.417000        1.0080           0
   13678 WT1  3490 TIP3 OH2  OT    -0.834000       15.9994           0
   13679 WT1  3490 TIP3 H1   HT     0.417000        1.0080           0
   13680 WT1  3490 TIP3 H2   HT     0.417000        1.0080           0
   13681 WT1  3491 TIP3 OH2  OT    -0.834000       15.9994           0
   13682 WT1  3491 TIP3 H1   HT     0.417000        1.0080           0
   13683 WT1  3491 TIP3 H2   HT     0.417000        1.0080           0
   13684 WT1  3492 TIP3 OH2  OT    -0.834000       15.9994           0
   13685 WT1  3492 TIP3 H1   HT     0.417000        1.0080           0
   13686 WT1  3492 TIP3 H2   HT     0.417000        1.0080           0
   13687 WT1  3493 TIP3 OH2  OT    -0.834000       15.9994           0
   13688 WT1  3493 TIP3 H1   HT     0.417000        1.0080           0
   13689 WT1  3493 TIP3 H2   HT     0.417000        1.0080           0
   13690 WT1  3494 TIP3 OH2  OT    -0.834000       15.9994           0
   13691 WT1  3494 TIP3 H1   HT     0.417000        1.0080           0
   13692 WT1  3494 TIP3 H2   HT     0.417000        1.0080           0
   13693 WT1  3495 TIP3 OH2  OT    -0.834000       15.9994           0
   13694 WT1  3495 TIP3 H1   HT     0.417000        1.0080           0
   13695 WT1  3495 TIP3 H2   HT     0.417000        1.0080           0
   13696 WT1  3496 TIP3 OH2  OT    -0.834000       15.9994           0
   13697 WT1  3496 TIP3 H1   HT     0.417000        1.0080           0
   13698 WT1  3496 TIP3 H2   HT     0.417000        1.0080           0
   13699 WT1  3497 TIP3 OH2  OT    -0.834000       15.9994           0
   13700 WT1  3497 TIP3 H1   HT     0.417000        1.0080           0
   13701 WT1  3497 TIP3 H2   HT     0.417000        1.0080           0
   13702 WT1  3498 TIP3 OH2  OT    -0.834000       15.9994           0
   13703 WT1  3498 TIP3 H1   HT     0.417000        1.0080           0
   13704 WT1  3498 TIP3 H2   HT     0.417000        1.0080           0
   13705 WT1  3499 TIP3 OH2  OT    -0.834000       15.9994           0
   13706 WT1  3499 TIP3 H1   HT     0.417000        1.0080           0
   13707 WT1  3499 TIP3 H2   HT     0.417000        1.0080           0
   13708 WT1  3500 TIP3 OH2  OT    -0.834000       15.9994           0
   13709 WT1  3500 TIP3 H1   HT     0.417000        1.0080           0
   13710 WT1  3500 TIP3 H2   HT     0.417000        1.0080           0
   13711 WT1  3501 TIP3 OH2  OT    -0.834000       15.9994           0
   13712 WT1  3501 TIP3 H1   HT     0.417000        1.0080           0
   13713 WT1  3501 TIP3 H2   HT     0.417000        1.0080           0
   13714 WT1  3502 TIP3 OH2  OT    -0.834000       15.9994           0
   13715 WT1  3502 TIP3 H1   HT     0.417000        1.0080           0
   13716 WT1  3502 TIP3 H2   HT     0.417000        1.0080           0
   13717 WT1  3503 TIP3 OH2  OT    -0.834000       15.9994           0
   13718 WT1  3503 TIP3 H1   HT     0.417000        1.0080           0
   13719 WT1  3503 TIP3 H2   HT     0.417000        1.0080           0
   13720 WT1  3504 TIP3 OH2  OT    -0.834000       15.9994           0
   13721 WT1  3504 TIP3 H1   HT     0.417000        1.0080           0
   13722 WT1  3504 TIP3 H2   HT     0.417000        1.0080           0
   13723 WT1  3506 TIP3 OH2  OT    -0.834000       15.9994           0
   13724 WT1  3506 TIP3 H1   HT     0.417000        1.0080           0
   13725 WT1  3506 TIP3 H2   HT     0.417000        1.0080           0
   13726 WT1  3507 TIP3 OH2  OT    -0.834000       15.9994           0
   13727 WT1  3507 TIP3 H1   HT     0.417000        1.0080           0
   13728 WT1  3507 TIP3 H2   HT     0.417000        1.0080           0
   13729 WT1  3508 TIP3 OH2  OT    -0.834000       15.9994           0
   13730 WT1  3508 TIP3 H1   HT     0.417000        1.0080           0
   13731 WT1  3508 TIP3 H2   HT     0.417000        1.0080           0
   13732 WT1  3509 TIP3 OH2  OT    -0.834000       15.9994           0
   13733 WT1  3509 TIP3 H1   HT     0.417000        1.0080           0
   13734 WT1  3509 TIP3 H2   HT     0.417000        1.0080           0
   13735 WT1  3510 TIP3 OH2  OT    -0.834000       15.9994           0
   13736 WT1  3510 TIP3 H1   HT     0.417000        1.0080           0
   13737 WT1  3510 TIP3 H2   HT     0.417000        1.0080           0
   13738 WT1  3511 TIP3 OH2  OT    -0.834000       15.9994           0
   13739 WT1  3511 TIP3 H1   HT     0.417000        1.0080           0
   13740 WT1  3511 TIP3 H2   HT     0.417000        1.0080           0
   13741 WT1  3512 TIP3 OH2  OT    -0.834000       15.9994           0
   13742 WT1  3512 TIP3 H1   HT     0.417000        1.0080           0
   13743 WT1  3512 TIP3 H2   HT     0.417000        1.0080           0
   13744 WT1  3513 TIP3 OH2  OT    -0.834000       15.9994           0
   13745 WT1  3513 TIP3 H1   HT     0.417000        1.0080           0
   13746 WT1  3513 TIP3 H2   HT     0.417000        1.0080           0
   13747 WT1  3514 TIP3 OH2  OT    -0.834000       15.9994           0
   13748 WT1  3514 TIP3 H1   HT     0.417000        1.0080           0
   13749 WT1  3514 TIP3 H2   HT     0.417000        1.0080           0
   13750 WT1  3515 TIP3 OH2  OT    -0.834000       15.9994           0
   13751 WT1  3515 TIP3 H1   HT     0.417000        1.0080           0
   13752 WT1  3515 TIP3 H2   HT     0.417000        1.0080           0
   13753 WT1  3516 TIP3 OH2  OT    -0.834000       15.9994           0
   13754 WT1  3516 TIP3 H1   HT     0.417000        1.0080           0
   13755 WT1  3516 TIP3 H2   HT     0.417000        1.0080           0
   13756 WT1  3517 TIP3 OH2  OT    -0.834000       15.9994           0
   13757 WT1  3517 TIP3 H1   HT     0.417000        1.0080           0
   13758 WT1  3517 TIP3 H2   HT     0.417000        1.0080           0
   13759 WT1  3518 TIP3 OH2  OT    -0.834000       15.9994           0
   13760 WT1  3518 TIP3 H1   HT     0.417000        1.0080           0
   13761 WT1  3518 TIP3 H2   HT     0.417000        1.0080           0
   13762 WT1  3519 TIP3 OH2  OT    -0.834000       15.9994           0
   13763 WT1  3519 TIP3 H1   HT     0.417000        1.0080           0
   13764 WT1  3519 TIP3 H2   HT     0.417000        1.0080           0
   13765 WT1  3520 TIP3 OH2  OT    -0.834000       15.9994           0
   13766 WT1  3520 TIP3 H1   HT     0.417000        1.0080           0
   13767 WT1  3520 TIP3 H2   HT     0.417000        1.0080           0
   13768 WT1  3521 TIP3 OH2  OT    -0.834000       15.9994           0
   13769 WT1  3521 TIP3 H1   HT     0.417000        1.0080           0
   13770 WT1  3521 TIP3 H2   HT     0.417000        1.0080           0
   13771 WT1  3522 TIP3 OH2  OT    -0.834000       15.9994           0
   13772 WT1  3522 TIP3 H1   HT     0.417000        1.0080           0
   13773 WT1  3522 TIP3 H2   HT     0.417000        1.0080           0
   13774 WT1  3523 TIP3 OH2  OT    -0.834000       15.9994           0
   13775 WT1  3523 TIP3 H1   HT     0.417000        1.0080           0
   13776 WT1  3523 TIP3 H2   HT     0.417000        1.0080           0
   13777 WT1  3526 TIP3 OH2  OT    -0.834000       15.9994           0
   13778 WT1  3526 TIP3 H1   HT     0.417000        1.0080           0
   13779 WT1  3526 TIP3 H2   HT     0.417000        1.0080           0
   13780 WT1  3527 TIP3 OH2  OT    -0.834000       15.9994           0
   13781 WT1  3527 TIP3 H1   HT     0.417000        1.0080           0
   13782 WT1  3527 TIP3 H2   HT     0.417000        1.0080           0
   13783 WT1  3528 TIP3 OH2  OT    -0.834000       15.9994           0
   13784 WT1  3528 TIP3 H1   HT     0.417000        1.0080           0
   13785 WT1  3528 TIP3 H2   HT     0.417000        1.0080           0
   13786 WT1  3530 TIP3 OH2  OT    -0.834000       15.9994           0
   13787 WT1  3530 TIP3 H1   HT     0.417000        1.0080           0
   13788 WT1  3530 TIP3 H2   HT     0.417000        1.0080           0
   13789 WT1  3531 TIP3 OH2  OT    -0.834000       15.9994           0
   13790 WT1  3531 TIP3 H1   HT     0.417000        1.0080           0
   13791 WT1  3531 TIP3 H2   HT     0.417000        1.0080           0
   13792 WT1  3532 TIP3 OH2  OT    -0.834000       15.9994           0
   13793 WT1  3532 TIP3 H1   HT     0.417000        1.0080           0
   13794 WT1  3532 TIP3 H2   HT     0.417000        1.0080           0
   13795 WT1  3533 TIP3 OH2  OT    -0.834000       15.9994           0
   13796 WT1  3533 TIP3 H1   HT     0.417000        1.0080           0
   13797 WT1  3533 TIP3 H2   HT     0.417000        1.0080           0
   13798 WT1  3534 TIP3 OH2  OT    -0.834000       15.9994           0
   13799 WT1  3534 TIP3 H1   HT     0.417000        1.0080           0
   13800 WT1  3534 TIP3 H2   HT     0.417000        1.0080           0
   13801 WT1  3535 TIP3 OH2  OT    -0.834000       15.9994           0
   13802 WT1  3535 TIP3 H1   HT     0.417000        1.0080           0
   13803 WT1  3535 TIP3 H2   HT     0.417000        1.0080           0
   13804 WT1  3536 TIP3 OH2  OT    -0.834000       15.9994           0
   13805 WT1  3536 TIP3 H1   HT     0.417000        1.0080           0
   13806 WT1  3536 TIP3 H2   HT     0.417000        1.0080           0
   13807 WT1  3537 TIP3 OH2  OT    -0.834000       15.9994           0
   13808 WT1  3537 TIP3 H1   HT     0.417000        1.0080           0
   13809 WT1  3537 TIP3 H2   HT     0.417000        1.0080           0
   13810 WT1  3538 TIP3 OH2  OT    -0.834000       15.9994           0
   13811 WT1  3538 TIP3 H1   HT     0.417000        1.0080           0
   13812 WT1  3538 TIP3 H2   HT     0.417000        1.0080           0
   13813 WT1  3539 TIP3 OH2  OT    -0.834000       15.9994           0
   13814 WT1  3539 TIP3 H1   HT     0.417000        1.0080           0
   13815 WT1  3539 TIP3 H2   HT     0.417000        1.0080           0
   13816 WT1  3540 TIP3 OH2  OT    -0.834000       15.9994           0
   13817 WT1  3540 TIP3 H1   HT     0.417000        1.0080           0
   13818 WT1  3540 TIP3 H2   HT     0.417000        1.0080           0
   13819 WT1  3541 TIP3 OH2  OT    -0.834000       15.9994           0
   13820 WT1  3541 TIP3 H1   HT     0.417000        1.0080           0
   13821 WT1  3541 TIP3 H2   HT     0.417000        1.0080           0
   13822 WT1  3542 TIP3 OH2  OT    -0.834000       15.9994           0
   13823 WT1  3542 TIP3 H1   HT     0.417000        1.0080           0
   13824 WT1  3542 TIP3 H2   HT     0.417000        1.0080           0
   13825 WT1  3544 TIP3 OH2  OT    -0.834000       15.9994           0
   13826 WT1  3544 TIP3 H1   HT     0.417000        1.0080           0
   13827 WT1  3544 TIP3 H2   HT     0.417000        1.0080           0
   13828 WT1  3545 TIP3 OH2  OT    -0.834000       15.9994           0
   13829 WT1  3545 TIP3 H1   HT     0.417000        1.0080           0
   13830 WT1  3545 TIP3 H2   HT     0.417000        1.0080           0
   13831 WT1  3548 TIP3 OH2  OT    -0.834000       15.9994           0
   13832 WT1  3548 TIP3 H1   HT     0.417000        1.0080           0
   13833 WT1  3548 TIP3 H2   HT     0.417000        1.0080           0
   13834 WT1  3549 TIP3 OH2  OT    -0.834000       15.9994           0
   13835 WT1  3549 TIP3 H1   HT     0.417000        1.0080           0
   13836 WT1  3549 TIP3 H2   HT     0.417000        1.0080           0
   13837 WT1  3550 TIP3 OH2  OT    -0.834000       15.9994           0
   13838 WT1  3550 TIP3 H1   HT     0.417000        1.0080           0
   13839 WT1  3550 TIP3 H2   HT     0.417000        1.0080           0
   13840 WT1  3551 TIP3 OH2  OT    -0.834000       15.9994           0
   13841 WT1  3551 TIP3 H1   HT     0.417000        1.0080           0
   13842 WT1  3551 TIP3 H2   HT     0.417000        1.0080           0
   13843 WT1  3552 TIP3 OH2  OT    -0.834000       15.9994           0
   13844 WT1  3552 TIP3 H1   HT     0.417000        1.0080           0
   13845 WT1  3552 TIP3 H2   HT     0.417000        1.0080           0
   13846 WT1  3553 TIP3 OH2  OT    -0.834000       15.9994           0
   13847 WT1  3553 TIP3 H1   HT     0.417000        1.0080           0
   13848 WT1  3553 TIP3 H2   HT     0.417000        1.0080           0
   13849 WT1  3554 TIP3 OH2  OT    -0.834000       15.9994           0
   13850 WT1  3554 TIP3 H1   HT     0.417000        1.0080           0
   13851 WT1  3554 TIP3 H2   HT     0.417000        1.0080           0
   13852 WT1  3555 TIP3 OH2  OT    -0.834000       15.9994           0
   13853 WT1  3555 TIP3 H1   HT     0.417000        1.0080           0
   13854 WT1  3555 TIP3 H2   HT     0.417000        1.0080           0
   13855 WT1  3556 TIP3 OH2  OT    -0.834000       15.9994           0
   13856 WT1  3556 TIP3 H1   HT     0.417000        1.0080           0
   13857 WT1  3556 TIP3 H2   HT     0.417000        1.0080           0
   13858 WT1  3557 TIP3 OH2  OT    -0.834000       15.9994           0
   13859 WT1  3557 TIP3 H1   HT     0.417000        1.0080           0
   13860 WT1  3557 TIP3 H2   HT     0.417000        1.0080           0
   13861 WT1  3558 TIP3 OH2  OT    -0.834000       15.9994           0
   13862 WT1  3558 TIP3 H1   HT     0.417000        1.0080           0
   13863 WT1  3558 TIP3 H2   HT     0.417000        1.0080           0
   13864 WT1  3559 TIP3 OH2  OT    -0.834000       15.9994           0
   13865 WT1  3559 TIP3 H1   HT     0.417000        1.0080           0
   13866 WT1  3559 TIP3 H2   HT     0.417000        1.0080           0
   13867 WT1  3560 TIP3 OH2  OT    -0.834000       15.9994           0
   13868 WT1  3560 TIP3 H1   HT     0.417000        1.0080           0
   13869 WT1  3560 TIP3 H2   HT     0.417000        1.0080           0
   13870 WT1  3561 TIP3 OH2  OT    -0.834000       15.9994           0
   13871 WT1  3561 TIP3 H1   HT     0.417000        1.0080           0
   13872 WT1  3561 TIP3 H2   HT     0.417000        1.0080           0
   13873 WT1  3562 TIP3 OH2  OT    -0.834000       15.9994           0
   13874 WT1  3562 TIP3 H1   HT     0.417000        1.0080           0
   13875 WT1  3562 TIP3 H2   HT     0.417000        1.0080           0
   13876 WT1  3563 TIP3 OH2  OT    -0.834000       15.9994           0
   13877 WT1  3563 TIP3 H1   HT     0.417000        1.0080           0
   13878 WT1  3563 TIP3 H2   HT     0.417000        1.0080           0
   13879 WT1  3565 TIP3 OH2  OT    -0.834000       15.9994           0
   13880 WT1  3565 TIP3 H1   HT     0.417000        1.0080           0
   13881 WT1  3565 TIP3 H2   HT     0.417000        1.0080           0
   13882 WT1  3569 TIP3 OH2  OT    -0.834000       15.9994           0
   13883 WT1  3569 TIP3 H1   HT     0.417000        1.0080           0
   13884 WT1  3569 TIP3 H2   HT     0.417000        1.0080           0
   13885 WT1  3570 TIP3 OH2  OT    -0.834000       15.9994           0
   13886 WT1  3570 TIP3 H1   HT     0.417000        1.0080           0
   13887 WT1  3570 TIP3 H2   HT     0.417000        1.0080           0
   13888 WT1  3572 TIP3 OH2  OT    -0.834000       15.9994           0
   13889 WT1  3572 TIP3 H1   HT     0.417000        1.0080           0
   13890 WT1  3572 TIP3 H2   HT     0.417000        1.0080           0
   13891 WT1  3573 TIP3 OH2  OT    -0.834000       15.9994           0
   13892 WT1  3573 TIP3 H1   HT     0.417000        1.0080           0
   13893 WT1  3573 TIP3 H2   HT     0.417000        1.0080           0
   13894 WT1  3574 TIP3 OH2  OT    -0.834000       15.9994           0
   13895 WT1  3574 TIP3 H1   HT     0.417000        1.0080           0
   13896 WT1  3574 TIP3 H2   HT     0.417000        1.0080           0
   13897 WT1  3575 TIP3 OH2  OT    -0.834000       15.9994           0
   13898 WT1  3575 TIP3 H1   HT     0.417000        1.0080           0
   13899 WT1  3575 TIP3 H2   HT     0.417000        1.0080           0
   13900 WT1  3576 TIP3 OH2  OT    -0.834000       15.9994           0
   13901 WT1  3576 TIP3 H1   HT     0.417000        1.0080           0
   13902 WT1  3576 TIP3 H2   HT     0.417000        1.0080           0
   13903 WT1  3577 TIP3 OH2  OT    -0.834000       15.9994           0
   13904 WT1  3577 TIP3 H1   HT     0.417000        1.0080           0
   13905 WT1  3577 TIP3 H2   HT     0.417000        1.0080           0
   13906 WT1  3578 TIP3 OH2  OT    -0.834000       15.9994           0
   13907 WT1  3578 TIP3 H1   HT     0.417000        1.0080           0
   13908 WT1  3578 TIP3 H2   HT     0.417000        1.0080           0
   13909 WT1  3579 TIP3 OH2  OT    -0.834000       15.9994           0
   13910 WT1  3579 TIP3 H1   HT     0.417000        1.0080           0
   13911 WT1  3579 TIP3 H2   HT     0.417000        1.0080           0
   13912 WT1  3580 TIP3 OH2  OT    -0.834000       15.9994           0
   13913 WT1  3580 TIP3 H1   HT     0.417000        1.0080           0
   13914 WT1  3580 TIP3 H2   HT     0.417000        1.0080           0
   13915 WT1  3581 TIP3 OH2  OT    -0.834000       15.9994           0
   13916 WT1  3581 TIP3 H1   HT     0.417000        1.0080           0
   13917 WT1  3581 TIP3 H2   HT     0.417000        1.0080           0
   13918 WT1  3582 TIP3 OH2  OT    -0.834000       15.9994           0
   13919 WT1  3582 TIP3 H1   HT     0.417000        1.0080           0
   13920 WT1  3582 TIP3 H2   HT     0.417000        1.0080           0
   13921 WT1  3583 TIP3 OH2  OT    -0.834000       15.9994           0
   13922 WT1  3583 TIP3 H1   HT     0.417000        1.0080           0
   13923 WT1  3583 TIP3 H2   HT     0.417000        1.0080           0
   13924 WT1  3585 TIP3 OH2  OT    -0.834000       15.9994           0
   13925 WT1  3585 TIP3 H1   HT     0.417000        1.0080           0
   13926 WT1  3585 TIP3 H2   HT     0.417000        1.0080           0
   13927 WT1  3586 TIP3 OH2  OT    -0.834000       15.9994           0
   13928 WT1  3586 TIP3 H1   HT     0.417000        1.0080           0
   13929 WT1  3586 TIP3 H2   HT     0.417000        1.0080           0
   13930 WT1  3587 TIP3 OH2  OT    -0.834000       15.9994           0
   13931 WT1  3587 TIP3 H1   HT     0.417000        1.0080           0
   13932 WT1  3587 TIP3 H2   HT     0.417000        1.0080           0
   13933 WT1  3588 TIP3 OH2  OT    -0.834000       15.9994           0
   13934 WT1  3588 TIP3 H1   HT     0.417000        1.0080           0
   13935 WT1  3588 TIP3 H2   HT     0.417000        1.0080           0
   13936 WT1  3589 TIP3 OH2  OT    -0.834000       15.9994           0
   13937 WT1  3589 TIP3 H1   HT     0.417000        1.0080           0
   13938 WT1  3589 TIP3 H2   HT     0.417000        1.0080           0
   13939 WT1  3590 TIP3 OH2  OT    -0.834000       15.9994           0
   13940 WT1  3590 TIP3 H1   HT     0.417000        1.0080           0
   13941 WT1  3590 TIP3 H2   HT     0.417000        1.0080           0
   13942 WT1  3591 TIP3 OH2  OT    -0.834000       15.9994           0
   13943 WT1  3591 TIP3 H1   HT     0.417000        1.0080           0
   13944 WT1  3591 TIP3 H2   HT     0.417000        1.0080           0
   13945 WT1  3592 TIP3 OH2  OT    -0.834000       15.9994           0
   13946 WT1  3592 TIP3 H1   HT     0.417000        1.0080           0
   13947 WT1  3592 TIP3 H2   HT     0.417000        1.0080           0
   13948 WT1  3593 TIP3 OH2  OT    -0.834000       15.9994           0
   13949 WT1  3593 TIP3 H1   HT     0.417000        1.0080           0
   13950 WT1  3593 TIP3 H2   HT     0.417000        1.0080           0
   13951 WT1  3594 TIP3 OH2  OT    -0.834000       15.9994           0
   13952 WT1  3594 TIP3 H1   HT     0.417000        1.0080           0
   13953 WT1  3594 TIP3 H2   HT     0.417000        1.0080           0
   13954 WT1  3595 TIP3 OH2  OT    -0.834000       15.9994           0
   13955 WT1  3595 TIP3 H1   HT     0.417000        1.0080           0
   13956 WT1  3595 TIP3 H2   HT     0.417000        1.0080           0
   13957 WT1  3596 TIP3 OH2  OT    -0.834000       15.9994           0
   13958 WT1  3596 TIP3 H1   HT     0.417000        1.0080           0
   13959 WT1  3596 TIP3 H2   HT     0.417000        1.0080           0
   13960 WT1  3597 TIP3 OH2  OT    -0.834000       15.9994           0
   13961 WT1  3597 TIP3 H1   HT     0.417000        1.0080           0
   13962 WT1  3597 TIP3 H2   HT     0.417000        1.0080           0
   13963 WT1  3598 TIP3 OH2  OT    -0.834000       15.9994           0
   13964 WT1  3598 TIP3 H1   HT     0.417000        1.0080           0
   13965 WT1  3598 TIP3 H2   HT     0.417000        1.0080           0
   13966 WT1  3599 TIP3 OH2  OT    -0.834000       15.9994           0
   13967 WT1  3599 TIP3 H1   HT     0.417000        1.0080           0
   13968 WT1  3599 TIP3 H2   HT     0.417000        1.0080           0
   13969 WT1  3600 TIP3 OH2  OT    -0.834000       15.9994           0
   13970 WT1  3600 TIP3 H1   HT     0.417000        1.0080           0
   13971 WT1  3600 TIP3 H2   HT     0.417000        1.0080           0
   13972 WT1  3601 TIP3 OH2  OT    -0.834000       15.9994           0
   13973 WT1  3601 TIP3 H1   HT     0.417000        1.0080           0
   13974 WT1  3601 TIP3 H2   HT     0.417000        1.0080           0
   13975 WT1  3602 TIP3 OH2  OT    -0.834000       15.9994           0
   13976 WT1  3602 TIP3 H1   HT     0.417000        1.0080           0
   13977 WT1  3602 TIP3 H2   HT     0.417000        1.0080           0
   13978 WT1  3603 TIP3 OH2  OT    -0.834000       15.9994           0
   13979 WT1  3603 TIP3 H1   HT     0.417000        1.0080           0
   13980 WT1  3603 TIP3 H2   HT     0.417000        1.0080           0
   13981 WT1  3604 TIP3 OH2  OT    -0.834000       15.9994           0
   13982 WT1  3604 TIP3 H1   HT     0.417000        1.0080           0
   13983 WT1  3604 TIP3 H2   HT     0.417000        1.0080           0
   13984 WT1  3607 TIP3 OH2  OT    -0.834000       15.9994           0
   13985 WT1  3607 TIP3 H1   HT     0.417000        1.0080           0
   13986 WT1  3607 TIP3 H2   HT     0.417000        1.0080           0
   13987 WT1  3608 TIP3 OH2  OT    -0.834000       15.9994           0
   13988 WT1  3608 TIP3 H1   HT     0.417000        1.0080           0
   13989 WT1  3608 TIP3 H2   HT     0.417000        1.0080           0
   13990 WT1  3610 TIP3 OH2  OT    -0.834000       15.9994           0
   13991 WT1  3610 TIP3 H1   HT     0.417000        1.0080           0
   13992 WT1  3610 TIP3 H2   HT     0.417000        1.0080           0
   13993 WT1  3611 TIP3 OH2  OT    -0.834000       15.9994           0
   13994 WT1  3611 TIP3 H1   HT     0.417000        1.0080           0
   13995 WT1  3611 TIP3 H2   HT     0.417000        1.0080           0
   13996 WT1  3612 TIP3 OH2  OT    -0.834000       15.9994           0
   13997 WT1  3612 TIP3 H1   HT     0.417000        1.0080           0
   13998 WT1  3612 TIP3 H2   HT     0.417000        1.0080           0
   13999 WT1  3613 TIP3 OH2  OT    -0.834000       15.9994           0
   14000 WT1  3613 TIP3 H1   HT     0.417000        1.0080           0
   14001 WT1  3613 TIP3 H2   HT     0.417000        1.0080           0
   14002 WT1  3614 TIP3 OH2  OT    -0.834000       15.9994           0
   14003 WT1  3614 TIP3 H1   HT     0.417000        1.0080           0
   14004 WT1  3614 TIP3 H2   HT     0.417000        1.0080           0
   14005 WT1  3615 TIP3 OH2  OT    -0.834000       15.9994           0
   14006 WT1  3615 TIP3 H1   HT     0.417000        1.0080           0
   14007 WT1  3615 TIP3 H2   HT     0.417000        1.0080           0
   14008 WT1  3616 TIP3 OH2  OT    -0.834000       15.9994           0
   14009 WT1  3616 TIP3 H1   HT     0.417000        1.0080           0
   14010 WT1  3616 TIP3 H2   HT     0.417000        1.0080           0
   14011 WT1  3617 TIP3 OH2  OT    -0.834000       15.9994           0
   14012 WT1  3617 TIP3 H1   HT     0.417000        1.0080           0
   14013 WT1  3617 TIP3 H2   HT     0.417000        1.0080           0
   14014 WT1  3618 TIP3 OH2  OT    -0.834000       15.9994           0
   14015 WT1  3618 TIP3 H1   HT     0.417000        1.0080           0
   14016 WT1  3618 TIP3 H2   HT     0.417000        1.0080           0
   14017 WT1  3619 TIP3 OH2  OT    -0.834000       15.9994           0
   14018 WT1  3619 TIP3 H1   HT     0.417000        1.0080           0
   14019 WT1  3619 TIP3 H2   HT     0.417000        1.0080           0
   14020 WT1  3620 TIP3 OH2  OT    -0.834000       15.9994           0
   14021 WT1  3620 TIP3 H1   HT     0.417000        1.0080           0
   14022 WT1  3620 TIP3 H2   HT     0.417000        1.0080           0
   14023 WT1  3621 TIP3 OH2  OT    -0.834000       15.9994           0
   14024 WT1  3621 TIP3 H1   HT     0.417000        1.0080           0
   14025 WT1  3621 TIP3 H2   HT     0.417000        1.0080           0
   14026 WT1  3622 TIP3 OH2  OT    -0.834000       15.9994           0
   14027 WT1  3622 TIP3 H1   HT     0.417000        1.0080           0
   14028 WT1  3622 TIP3 H2   HT     0.417000        1.0080           0
   14029 WT1  3623 TIP3 OH2  OT    -0.834000       15.9994           0
   14030 WT1  3623 TIP3 H1   HT     0.417000        1.0080           0
   14031 WT1  3623 TIP3 H2   HT     0.417000        1.0080           0
   14032 WT1  3624 TIP3 OH2  OT    -0.834000       15.9994           0
   14033 WT1  3624 TIP3 H1   HT     0.417000        1.0080           0
   14034 WT1  3624 TIP3 H2   HT     0.417000        1.0080           0
   14035 WT1  3625 TIP3 OH2  OT    -0.834000       15.9994           0
   14036 WT1  3625 TIP3 H1   HT     0.417000        1.0080           0
   14037 WT1  3625 TIP3 H2   HT     0.417000        1.0080           0
   14038 WT1  3626 TIP3 OH2  OT    -0.834000       15.9994           0
   14039 WT1  3626 TIP3 H1   HT     0.417000        1.0080           0
   14040 WT1  3626 TIP3 H2   HT     0.417000        1.0080           0
   14041 WT1  3627 TIP3 OH2  OT    -0.834000       15.9994           0
   14042 WT1  3627 TIP3 H1   HT     0.417000        1.0080           0
   14043 WT1  3627 TIP3 H2   HT     0.417000        1.0080           0
   14044 WT1  3628 TIP3 OH2  OT    -0.834000       15.9994           0
   14045 WT1  3628 TIP3 H1   HT     0.417000        1.0080           0
   14046 WT1  3628 TIP3 H2   HT     0.417000        1.0080           0
   14047 WT1  3629 TIP3 OH2  OT    -0.834000       15.9994           0
   14048 WT1  3629 TIP3 H1   HT     0.417000        1.0080           0
   14049 WT1  3629 TIP3 H2   HT     0.417000        1.0080           0
   14050 WT1  3630 TIP3 OH2  OT    -0.834000       15.9994           0
   14051 WT1  3630 TIP3 H1   HT     0.417000        1.0080           0
   14052 WT1  3630 TIP3 H2   HT     0.417000        1.0080           0
   14053 WT1  3632 TIP3 OH2  OT    -0.834000       15.9994           0
   14054 WT1  3632 TIP3 H1   HT     0.417000        1.0080           0
   14055 WT1  3632 TIP3 H2   HT     0.417000        1.0080           0
   14056 WT1  3633 TIP3 OH2  OT    -0.834000       15.9994           0
   14057 WT1  3633 TIP3 H1   HT     0.417000        1.0080           0
   14058 WT1  3633 TIP3 H2   HT     0.417000        1.0080           0
   14059 WT1  3634 TIP3 OH2  OT    -0.834000       15.9994           0
   14060 WT1  3634 TIP3 H1   HT     0.417000        1.0080           0
   14061 WT1  3634 TIP3 H2   HT     0.417000        1.0080           0
   14062 WT1  3636 TIP3 OH2  OT    -0.834000       15.9994           0
   14063 WT1  3636 TIP3 H1   HT     0.417000        1.0080           0
   14064 WT1  3636 TIP3 H2   HT     0.417000        1.0080           0
   14065 WT1  3638 TIP3 OH2  OT    -0.834000       15.9994           0
   14066 WT1  3638 TIP3 H1   HT     0.417000        1.0080           0
   14067 WT1  3638 TIP3 H2   HT     0.417000        1.0080           0
   14068 WT1  3639 TIP3 OH2  OT    -0.834000       15.9994           0
   14069 WT1  3639 TIP3 H1   HT     0.417000        1.0080           0
   14070 WT1  3639 TIP3 H2   HT     0.417000        1.0080           0
   14071 WT1  3640 TIP3 OH2  OT    -0.834000       15.9994           0
   14072 WT1  3640 TIP3 H1   HT     0.417000        1.0080           0
   14073 WT1  3640 TIP3 H2   HT     0.417000        1.0080           0
   14074 WT1  3641 TIP3 OH2  OT    -0.834000       15.9994           0
   14075 WT1  3641 TIP3 H1   HT     0.417000        1.0080           0
   14076 WT1  3641 TIP3 H2   HT     0.417000        1.0080           0
   14077 WT1  3642 TIP3 OH2  OT    -0.834000       15.9994           0
   14078 WT1  3642 TIP3 H1   HT     0.417000        1.0080           0
   14079 WT1  3642 TIP3 H2   HT     0.417000        1.0080           0
   14080 WT1  3643 TIP3 OH2  OT    -0.834000       15.9994           0
   14081 WT1  3643 TIP3 H1   HT     0.417000        1.0080           0
   14082 WT1  3643 TIP3 H2   HT     0.417000        1.0080           0
   14083 WT1  3644 TIP3 OH2  OT    -0.834000       15.9994           0
   14084 WT1  3644 TIP3 H1   HT     0.417000        1.0080           0
   14085 WT1  3644 TIP3 H2   HT     0.417000        1.0080           0
   14086 WT1  3645 TIP3 OH2  OT    -0.834000       15.9994           0
   14087 WT1  3645 TIP3 H1   HT     0.417000        1.0080           0
   14088 WT1  3645 TIP3 H2   HT     0.417000        1.0080           0
   14089 WT1  3646 TIP3 OH2  OT    -0.834000       15.9994           0
   14090 WT1  3646 TIP3 H1   HT     0.417000        1.0080           0
   14091 WT1  3646 TIP3 H2   HT     0.417000        1.0080           0
   14092 WT1  3647 TIP3 OH2  OT    -0.834000       15.9994           0
   14093 WT1  3647 TIP3 H1   HT     0.417000        1.0080           0
   14094 WT1  3647 TIP3 H2   HT     0.417000        1.0080           0
   14095 WT1  3648 TIP3 OH2  OT    -0.834000       15.9994           0
   14096 WT1  3648 TIP3 H1   HT     0.417000        1.0080           0
   14097 WT1  3648 TIP3 H2   HT     0.417000        1.0080           0
   14098 WT1  3650 TIP3 OH2  OT    -0.834000       15.9994           0
   14099 WT1  3650 TIP3 H1   HT     0.417000        1.0080           0
   14100 WT1  3650 TIP3 H2   HT     0.417000        1.0080           0
   14101 WT1  3651 TIP3 OH2  OT    -0.834000       15.9994           0
   14102 WT1  3651 TIP3 H1   HT     0.417000        1.0080           0
   14103 WT1  3651 TIP3 H2   HT     0.417000        1.0080           0
   14104 WT1  3653 TIP3 OH2  OT    -0.834000       15.9994           0
   14105 WT1  3653 TIP3 H1   HT     0.417000        1.0080           0
   14106 WT1  3653 TIP3 H2   HT     0.417000        1.0080           0
   14107 WT1  3654 TIP3 OH2  OT    -0.834000       15.9994           0
   14108 WT1  3654 TIP3 H1   HT     0.417000        1.0080           0
   14109 WT1  3654 TIP3 H2   HT     0.417000        1.0080           0
   14110 WT1  3655 TIP3 OH2  OT    -0.834000       15.9994           0
   14111 WT1  3655 TIP3 H1   HT     0.417000        1.0080           0
   14112 WT1  3655 TIP3 H2   HT     0.417000        1.0080           0
   14113 WT1  3657 TIP3 OH2  OT    -0.834000       15.9994           0
   14114 WT1  3657 TIP3 H1   HT     0.417000        1.0080           0
   14115 WT1  3657 TIP3 H2   HT     0.417000        1.0080           0
   14116 WT1  3658 TIP3 OH2  OT    -0.834000       15.9994           0
   14117 WT1  3658 TIP3 H1   HT     0.417000        1.0080           0
   14118 WT1  3658 TIP3 H2   HT     0.417000        1.0080           0
   14119 WT1  3659 TIP3 OH2  OT    -0.834000       15.9994           0
   14120 WT1  3659 TIP3 H1   HT     0.417000        1.0080           0
   14121 WT1  3659 TIP3 H2   HT     0.417000        1.0080           0
   14122 WT1  3660 TIP3 OH2  OT    -0.834000       15.9994           0
   14123 WT1  3660 TIP3 H1   HT     0.417000        1.0080           0
   14124 WT1  3660 TIP3 H2   HT     0.417000        1.0080           0
   14125 WT1  3661 TIP3 OH2  OT    -0.834000       15.9994           0
   14126 WT1  3661 TIP3 H1   HT     0.417000        1.0080           0
   14127 WT1  3661 TIP3 H2   HT     0.417000        1.0080           0
   14128 WT1  3662 TIP3 OH2  OT    -0.834000       15.9994           0
   14129 WT1  3662 TIP3 H1   HT     0.417000        1.0080           0
   14130 WT1  3662 TIP3 H2   HT     0.417000        1.0080           0
   14131 WT1  3663 TIP3 OH2  OT    -0.834000       15.9994           0
   14132 WT1  3663 TIP3 H1   HT     0.417000        1.0080           0
   14133 WT1  3663 TIP3 H2   HT     0.417000        1.0080           0
   14134 WT1  3664 TIP3 OH2  OT    -0.834000       15.9994           0
   14135 WT1  3664 TIP3 H1   HT     0.417000        1.0080           0
   14136 WT1  3664 TIP3 H2   HT     0.417000        1.0080           0
   14137 WT1  3665 TIP3 OH2  OT    -0.834000       15.9994           0
   14138 WT1  3665 TIP3 H1   HT     0.417000        1.0080           0
   14139 WT1  3665 TIP3 H2   HT     0.417000        1.0080           0
   14140 WT1  3666 TIP3 OH2  OT    -0.834000       15.9994           0
   14141 WT1  3666 TIP3 H1   HT     0.417000        1.0080           0
   14142 WT1  3666 TIP3 H2   HT     0.417000        1.0080           0
   14143 WT1  3667 TIP3 OH2  OT    -0.834000       15.9994           0
   14144 WT1  3667 TIP3 H1   HT     0.417000        1.0080           0
   14145 WT1  3667 TIP3 H2   HT     0.417000        1.0080           0
   14146 WT1  3668 TIP3 OH2  OT    -0.834000       15.9994           0
   14147 WT1  3668 TIP3 H1   HT     0.417000        1.0080           0
   14148 WT1  3668 TIP3 H2   HT     0.417000        1.0080           0
   14149 WT1  3670 TIP3 OH2  OT    -0.834000       15.9994           0
   14150 WT1  3670 TIP3 H1   HT     0.417000        1.0080           0
   14151 WT1  3670 TIP3 H2   HT     0.417000        1.0080           0
   14152 WT1  3671 TIP3 OH2  OT    -0.834000       15.9994           0
   14153 WT1  3671 TIP3 H1   HT     0.417000        1.0080           0
   14154 WT1  3671 TIP3 H2   HT     0.417000        1.0080           0
   14155 WT1  3673 TIP3 OH2  OT    -0.834000       15.9994           0
   14156 WT1  3673 TIP3 H1   HT     0.417000        1.0080           0
   14157 WT1  3673 TIP3 H2   HT     0.417000        1.0080           0
   14158 WT1  3674 TIP3 OH2  OT    -0.834000       15.9994           0
   14159 WT1  3674 TIP3 H1   HT     0.417000        1.0080           0
   14160 WT1  3674 TIP3 H2   HT     0.417000        1.0080           0
   14161 WT1  3675 TIP3 OH2  OT    -0.834000       15.9994           0
   14162 WT1  3675 TIP3 H1   HT     0.417000        1.0080           0
   14163 WT1  3675 TIP3 H2   HT     0.417000        1.0080           0
   14164 WT1  3677 TIP3 OH2  OT    -0.834000       15.9994           0
   14165 WT1  3677 TIP3 H1   HT     0.417000        1.0080           0
   14166 WT1  3677 TIP3 H2   HT     0.417000        1.0080           0
   14167 WT1  3678 TIP3 OH2  OT    -0.834000       15.9994           0
   14168 WT1  3678 TIP3 H1   HT     0.417000        1.0080           0
   14169 WT1  3678 TIP3 H2   HT     0.417000        1.0080           0
   14170 WT1  3679 TIP3 OH2  OT    -0.834000       15.9994           0
   14171 WT1  3679 TIP3 H1   HT     0.417000        1.0080           0
   14172 WT1  3679 TIP3 H2   HT     0.417000        1.0080           0
   14173 WT1  3680 TIP3 OH2  OT    -0.834000       15.9994           0
   14174 WT1  3680 TIP3 H1   HT     0.417000        1.0080           0
   14175 WT1  3680 TIP3 H2   HT     0.417000        1.0080           0
   14176 WT1  3681 TIP3 OH2  OT    -0.834000       15.9994           0
   14177 WT1  3681 TIP3 H1   HT     0.417000        1.0080           0
   14178 WT1  3681 TIP3 H2   HT     0.417000        1.0080           0
   14179 WT1  3682 TIP3 OH2  OT    -0.834000       15.9994           0
   14180 WT1  3682 TIP3 H1   HT     0.417000        1.0080           0
   14181 WT1  3682 TIP3 H2   HT     0.417000        1.0080           0
   14182 WT1  3683 TIP3 OH2  OT    -0.834000       15.9994           0
   14183 WT1  3683 TIP3 H1   HT     0.417000        1.0080           0
   14184 WT1  3683 TIP3 H2   HT     0.417000        1.0080           0
   14185 WT1  3684 TIP3 OH2  OT    -0.834000       15.9994           0
   14186 WT1  3684 TIP3 H1   HT     0.417000        1.0080           0
   14187 WT1  3684 TIP3 H2   HT     0.417000        1.0080           0
   14188 WT1  3685 TIP3 OH2  OT    -0.834000       15.9994           0
   14189 WT1  3685 TIP3 H1   HT     0.417000        1.0080           0
   14190 WT1  3685 TIP3 H2   HT     0.417000        1.0080           0
   14191 WT1  3686 TIP3 OH2  OT    -0.834000       15.9994           0
   14192 WT1  3686 TIP3 H1   HT     0.417000        1.0080           0
   14193 WT1  3686 TIP3 H2   HT     0.417000        1.0080           0
   14194 WT1  3687 TIP3 OH2  OT    -0.834000       15.9994           0
   14195 WT1  3687 TIP3 H1   HT     0.417000        1.0080           0
   14196 WT1  3687 TIP3 H2   HT     0.417000        1.0080           0
   14197 WT1  3688 TIP3 OH2  OT    -0.834000       15.9994           0
   14198 WT1  3688 TIP3 H1   HT     0.417000        1.0080           0
   14199 WT1  3688 TIP3 H2   HT     0.417000        1.0080           0
   14200 WT1  3689 TIP3 OH2  OT    -0.834000       15.9994           0
   14201 WT1  3689 TIP3 H1   HT     0.417000        1.0080           0
   14202 WT1  3689 TIP3 H2   HT     0.417000        1.0080           0
   14203 WT1  3690 TIP3 OH2  OT    -0.834000       15.9994           0
   14204 WT1  3690 TIP3 H1   HT     0.417000        1.0080           0
   14205 WT1  3690 TIP3 H2   HT     0.417000        1.0080           0
   14206 WT1  3691 TIP3 OH2  OT    -0.834000       15.9994           0
   14207 WT1  3691 TIP3 H1   HT     0.417000        1.0080           0
   14208 WT1  3691 TIP3 H2   HT     0.417000        1.0080           0
   14209 WT1  3692 TIP3 OH2  OT    -0.834000       15.9994           0
   14210 WT1  3692 TIP3 H1   HT     0.417000        1.0080           0
   14211 WT1  3692 TIP3 H2   HT     0.417000        1.0080           0
   14212 WT1  3693 TIP3 OH2  OT    -0.834000       15.9994           0
   14213 WT1  3693 TIP3 H1   HT     0.417000        1.0080           0
   14214 WT1  3693 TIP3 H2   HT     0.417000        1.0080           0
   14215 WT1  3694 TIP3 OH2  OT    -0.834000       15.9994           0
   14216 WT1  3694 TIP3 H1   HT     0.417000        1.0080           0
   14217 WT1  3694 TIP3 H2   HT     0.417000        1.0080           0
   14218 WT1  3695 TIP3 OH2  OT    -0.834000       15.9994           0
   14219 WT1  3695 TIP3 H1   HT     0.417000        1.0080           0
   14220 WT1  3695 TIP3 H2   HT     0.417000        1.0080           0
   14221 WT1  3696 TIP3 OH2  OT    -0.834000       15.9994           0
   14222 WT1  3696 TIP3 H1   HT     0.417000        1.0080           0
   14223 WT1  3696 TIP3 H2   HT     0.417000        1.0080           0
   14224 WT1  3697 TIP3 OH2  OT    -0.834000       15.9994           0
   14225 WT1  3697 TIP3 H1   HT     0.417000        1.0080           0
   14226 WT1  3697 TIP3 H2   HT     0.417000        1.0080           0
   14227 WT1  3698 TIP3 OH2  OT    -0.834000       15.9994           0
   14228 WT1  3698 TIP3 H1   HT     0.417000        1.0080           0
   14229 WT1  3698 TIP3 H2   HT     0.417000        1.0080           0
   14230 WT1  3699 TIP3 OH2  OT    -0.834000       15.9994           0
   14231 WT1  3699 TIP3 H1   HT     0.417000        1.0080           0
   14232 WT1  3699 TIP3 H2   HT     0.417000        1.0080           0
   14233 WT1  3700 TIP3 OH2  OT    -0.834000       15.9994           0
   14234 WT1  3700 TIP3 H1   HT     0.417000        1.0080           0
   14235 WT1  3700 TIP3 H2   HT     0.417000        1.0080           0
   14236 WT1  3701 TIP3 OH2  OT    -0.834000       15.9994           0
   14237 WT1  3701 TIP3 H1   HT     0.417000        1.0080           0
   14238 WT1  3701 TIP3 H2   HT     0.417000        1.0080           0
   14239 WT1  3702 TIP3 OH2  OT    -0.834000       15.9994           0
   14240 WT1  3702 TIP3 H1   HT     0.417000        1.0080           0
   14241 WT1  3702 TIP3 H2   HT     0.417000        1.0080           0
   14242 WT1  3703 TIP3 OH2  OT    -0.834000       15.9994           0
   14243 WT1  3703 TIP3 H1   HT     0.417000        1.0080           0
   14244 WT1  3703 TIP3 H2   HT     0.417000        1.0080           0
   14245 WT1  3704 TIP3 OH2  OT    -0.834000       15.9994           0
   14246 WT1  3704 TIP3 H1   HT     0.417000        1.0080           0
   14247 WT1  3704 TIP3 H2   HT     0.417000        1.0080           0
   14248 WT1  3705 TIP3 OH2  OT    -0.834000       15.9994           0
   14249 WT1  3705 TIP3 H1   HT     0.417000        1.0080           0
   14250 WT1  3705 TIP3 H2   HT     0.417000        1.0080           0
   14251 WT1  3706 TIP3 OH2  OT    -0.834000       15.9994           0
   14252 WT1  3706 TIP3 H1   HT     0.417000        1.0080           0
   14253 WT1  3706 TIP3 H2   HT     0.417000        1.0080           0
   14254 WT1  3707 TIP3 OH2  OT    -0.834000       15.9994           0
   14255 WT1  3707 TIP3 H1   HT     0.417000        1.0080           0
   14256 WT1  3707 TIP3 H2   HT     0.417000        1.0080           0
   14257 WT1  3708 TIP3 OH2  OT    -0.834000       15.9994           0
   14258 WT1  3708 TIP3 H1   HT     0.417000        1.0080           0
   14259 WT1  3708 TIP3 H2   HT     0.417000        1.0080           0
   14260 WT1  3709 TIP3 OH2  OT    -0.834000       15.9994           0
   14261 WT1  3709 TIP3 H1   HT     0.417000        1.0080           0
   14262 WT1  3709 TIP3 H2   HT     0.417000        1.0080           0
   14263 WT1  3710 TIP3 OH2  OT    -0.834000       15.9994           0
   14264 WT1  3710 TIP3 H1   HT     0.417000        1.0080           0
   14265 WT1  3710 TIP3 H2   HT     0.417000        1.0080           0
   14266 WT1  3713 TIP3 OH2  OT    -0.834000       15.9994           0
   14267 WT1  3713 TIP3 H1   HT     0.417000        1.0080           0
   14268 WT1  3713 TIP3 H2   HT     0.417000        1.0080           0
   14269 WT1  3714 TIP3 OH2  OT    -0.834000       15.9994           0
   14270 WT1  3714 TIP3 H1   HT     0.417000        1.0080           0
   14271 WT1  3714 TIP3 H2   HT     0.417000        1.0080           0
   14272 WT1  3716 TIP3 OH2  OT    -0.834000       15.9994           0
   14273 WT1  3716 TIP3 H1   HT     0.417000        1.0080           0
   14274 WT1  3716 TIP3 H2   HT     0.417000        1.0080           0
   14275 WT1  3718 TIP3 OH2  OT    -0.834000       15.9994           0
   14276 WT1  3718 TIP3 H1   HT     0.417000        1.0080           0
   14277 WT1  3718 TIP3 H2   HT     0.417000        1.0080           0
   14278 WT1  3719 TIP3 OH2  OT    -0.834000       15.9994           0
   14279 WT1  3719 TIP3 H1   HT     0.417000        1.0080           0
   14280 WT1  3719 TIP3 H2   HT     0.417000        1.0080           0
   14281 WT1  3720 TIP3 OH2  OT    -0.834000       15.9994           0
   14282 WT1  3720 TIP3 H1   HT     0.417000        1.0080           0
   14283 WT1  3720 TIP3 H2   HT     0.417000        1.0080           0
   14284 WT1  3721 TIP3 OH2  OT    -0.834000       15.9994           0
   14285 WT1  3721 TIP3 H1   HT     0.417000        1.0080           0
   14286 WT1  3721 TIP3 H2   HT     0.417000        1.0080           0
   14287 WT1  3722 TIP3 OH2  OT    -0.834000       15.9994           0
   14288 WT1  3722 TIP3 H1   HT     0.417000        1.0080           0
   14289 WT1  3722 TIP3 H2   HT     0.417000        1.0080           0
   14290 WT1  3723 TIP3 OH2  OT    -0.834000       15.9994           0
   14291 WT1  3723 TIP3 H1   HT     0.417000        1.0080           0
   14292 WT1  3723 TIP3 H2   HT     0.417000        1.0080           0
   14293 WT1  3724 TIP3 OH2  OT    -0.834000       15.9994           0
   14294 WT1  3724 TIP3 H1   HT     0.417000        1.0080           0
   14295 WT1  3724 TIP3 H2   HT     0.417000        1.0080           0
   14296 WT1  3725 TIP3 OH2  OT    -0.834000       15.9994           0
   14297 WT1  3725 TIP3 H1   HT     0.417000        1.0080           0
   14298 WT1  3725 TIP3 H2   HT     0.417000        1.0080           0
   14299 WT1  3726 TIP3 OH2  OT    -0.834000       15.9994           0
   14300 WT1  3726 TIP3 H1   HT     0.417000        1.0080           0
   14301 WT1  3726 TIP3 H2   HT     0.417000        1.0080           0
   14302 WT1  3727 TIP3 OH2  OT    -0.834000       15.9994           0
   14303 WT1  3727 TIP3 H1   HT     0.417000        1.0080           0
   14304 WT1  3727 TIP3 H2   HT     0.417000        1.0080           0
   14305 WT1  3728 TIP3 OH2  OT    -0.834000       15.9994           0
   14306 WT1  3728 TIP3 H1   HT     0.417000        1.0080           0
   14307 WT1  3728 TIP3 H2   HT     0.417000        1.0080           0
   14308 WT1  3729 TIP3 OH2  OT    -0.834000       15.9994           0
   14309 WT1  3729 TIP3 H1   HT     0.417000        1.0080           0
   14310 WT1  3729 TIP3 H2   HT     0.417000        1.0080           0
   14311 WT1  3731 TIP3 OH2  OT    -0.834000       15.9994           0
   14312 WT1  3731 TIP3 H1   HT     0.417000        1.0080           0
   14313 WT1  3731 TIP3 H2   HT     0.417000        1.0080           0
   14314 WT1  3732 TIP3 OH2  OT    -0.834000       15.9994           0
   14315 WT1  3732 TIP3 H1   HT     0.417000        1.0080           0
   14316 WT1  3732 TIP3 H2   HT     0.417000        1.0080           0
   14317 WT1  3733 TIP3 OH2  OT    -0.834000       15.9994           0
   14318 WT1  3733 TIP3 H1   HT     0.417000        1.0080           0
   14319 WT1  3733 TIP3 H2   HT     0.417000        1.0080           0
   14320 WT1  3734 TIP3 OH2  OT    -0.834000       15.9994           0
   14321 WT1  3734 TIP3 H1   HT     0.417000        1.0080           0
   14322 WT1  3734 TIP3 H2   HT     0.417000        1.0080           0
   14323 WT1  3735 TIP3 OH2  OT    -0.834000       15.9994           0
   14324 WT1  3735 TIP3 H1   HT     0.417000        1.0080           0
   14325 WT1  3735 TIP3 H2   HT     0.417000        1.0080           0
   14326 WT1  3736 TIP3 OH2  OT    -0.834000       15.9994           0
   14327 WT1  3736 TIP3 H1   HT     0.417000        1.0080           0
   14328 WT1  3736 TIP3 H2   HT     0.417000        1.0080           0
   14329 WT1  3737 TIP3 OH2  OT    -0.834000       15.9994           0
   14330 WT1  3737 TIP3 H1   HT     0.417000        1.0080           0
   14331 WT1  3737 TIP3 H2   HT     0.417000        1.0080           0
   14332 WT1  3738 TIP3 OH2  OT    -0.834000       15.9994           0
   14333 WT1  3738 TIP3 H1   HT     0.417000        1.0080           0
   14334 WT1  3738 TIP3 H2   HT     0.417000        1.0080           0
   14335 WT1  3739 TIP3 OH2  OT    -0.834000       15.9994           0
   14336 WT1  3739 TIP3 H1   HT     0.417000        1.0080           0
   14337 WT1  3739 TIP3 H2   HT     0.417000        1.0080           0
   14338 WT1  3740 TIP3 OH2  OT    -0.834000       15.9994           0
   14339 WT1  3740 TIP3 H1   HT     0.417000        1.0080           0
   14340 WT1  3740 TIP3 H2   HT     0.417000        1.0080           0
   14341 WT1  3742 TIP3 OH2  OT    -0.834000       15.9994           0
   14342 WT1  3742 TIP3 H1   HT     0.417000        1.0080           0
   14343 WT1  3742 TIP3 H2   HT     0.417000        1.0080           0
   14344 WT1  3743 TIP3 OH2  OT    -0.834000       15.9994           0
   14345 WT1  3743 TIP3 H1   HT     0.417000        1.0080           0
   14346 WT1  3743 TIP3 H2   HT     0.417000        1.0080           0
   14347 WT1  3744 TIP3 OH2  OT    -0.834000       15.9994           0
   14348 WT1  3744 TIP3 H1   HT     0.417000        1.0080           0
   14349 WT1  3744 TIP3 H2   HT     0.417000        1.0080           0
   14350 WT1  3745 TIP3 OH2  OT    -0.834000       15.9994           0
   14351 WT1  3745 TIP3 H1   HT     0.417000        1.0080           0
   14352 WT1  3745 TIP3 H2   HT     0.417000        1.0080           0
   14353 WT1  3746 TIP3 OH2  OT    -0.834000       15.9994           0
   14354 WT1  3746 TIP3 H1   HT     0.417000        1.0080           0
   14355 WT1  3746 TIP3 H2   HT     0.417000        1.0080           0
   14356 WT1  3747 TIP3 OH2  OT    -0.834000       15.9994           0
   14357 WT1  3747 TIP3 H1   HT     0.417000        1.0080           0
   14358 WT1  3747 TIP3 H2   HT     0.417000        1.0080           0
   14359 WT1  3748 TIP3 OH2  OT    -0.834000       15.9994           0
   14360 WT1  3748 TIP3 H1   HT     0.417000        1.0080           0
   14361 WT1  3748 TIP3 H2   HT     0.417000        1.0080           0
   14362 WT1  3749 TIP3 OH2  OT    -0.834000       15.9994           0
   14363 WT1  3749 TIP3 H1   HT     0.417000        1.0080           0
   14364 WT1  3749 TIP3 H2   HT     0.417000        1.0080           0
   14365 WT1  3750 TIP3 OH2  OT    -0.834000       15.9994           0
   14366 WT1  3750 TIP3 H1   HT     0.417000        1.0080           0
   14367 WT1  3750 TIP3 H2   HT     0.417000        1.0080           0
   14368 WT1  3751 TIP3 OH2  OT    -0.834000       15.9994           0
   14369 WT1  3751 TIP3 H1   HT     0.417000        1.0080           0
   14370 WT1  3751 TIP3 H2   HT     0.417000        1.0080           0
   14371 WT1  3752 TIP3 OH2  OT    -0.834000       15.9994           0
   14372 WT1  3752 TIP3 H1   HT     0.417000        1.0080           0
   14373 WT1  3752 TIP3 H2   HT     0.417000        1.0080           0
   14374 WT1  3753 TIP3 OH2  OT    -0.834000       15.9994           0
   14375 WT1  3753 TIP3 H1   HT     0.417000        1.0080           0
   14376 WT1  3753 TIP3 H2   HT     0.417000        1.0080           0
   14377 WT1  3754 TIP3 OH2  OT    -0.834000       15.9994           0
   14378 WT1  3754 TIP3 H1   HT     0.417000        1.0080           0
   14379 WT1  3754 TIP3 H2   HT     0.417000        1.0080           0
   14380 WT1  3756 TIP3 OH2  OT    -0.834000       15.9994           0
   14381 WT1  3756 TIP3 H1   HT     0.417000        1.0080           0
   14382 WT1  3756 TIP3 H2   HT     0.417000        1.0080           0
   14383 WT1  3757 TIP3 OH2  OT    -0.834000       15.9994           0
   14384 WT1  3757 TIP3 H1   HT     0.417000        1.0080           0
   14385 WT1  3757 TIP3 H2   HT     0.417000        1.0080           0
   14386 WT1  3758 TIP3 OH2  OT    -0.834000       15.9994           0
   14387 WT1  3758 TIP3 H1   HT     0.417000        1.0080           0
   14388 WT1  3758 TIP3 H2   HT     0.417000        1.0080           0
   14389 WT1  3759 TIP3 OH2  OT    -0.834000       15.9994           0
   14390 WT1  3759 TIP3 H1   HT     0.417000        1.0080           0
   14391 WT1  3759 TIP3 H2   HT     0.417000        1.0080           0
   14392 WT1  3760 TIP3 OH2  OT    -0.834000       15.9994           0
   14393 WT1  3760 TIP3 H1   HT     0.417000        1.0080           0
   14394 WT1  3760 TIP3 H2   HT     0.417000        1.0080           0
   14395 WT1  3761 TIP3 OH2  OT    -0.834000       15.9994           0
   14396 WT1  3761 TIP3 H1   HT     0.417000        1.0080           0
   14397 WT1  3761 TIP3 H2   HT     0.417000        1.0080           0
   14398 WT1  3762 TIP3 OH2  OT    -0.834000       15.9994           0
   14399 WT1  3762 TIP3 H1   HT     0.417000        1.0080           0
   14400 WT1  3762 TIP3 H2   HT     0.417000        1.0080           0
   14401 WT1  3763 TIP3 OH2  OT    -0.834000       15.9994           0
   14402 WT1  3763 TIP3 H1   HT     0.417000        1.0080           0
   14403 WT1  3763 TIP3 H2   HT     0.417000        1.0080           0
   14404 WT1  3764 TIP3 OH2  OT    -0.834000       15.9994           0
   14405 WT1  3764 TIP3 H1   HT     0.417000        1.0080           0
   14406 WT1  3764 TIP3 H2   HT     0.417000        1.0080           0
   14407 WT1  3765 TIP3 OH2  OT    -0.834000       15.9994           0
   14408 WT1  3765 TIP3 H1   HT     0.417000        1.0080           0
   14409 WT1  3765 TIP3 H2   HT     0.417000        1.0080           0
   14410 WT1  3766 TIP3 OH2  OT    -0.834000       15.9994           0
   14411 WT1  3766 TIP3 H1   HT     0.417000        1.0080           0
   14412 WT1  3766 TIP3 H2   HT     0.417000        1.0080           0
   14413 WT1  3767 TIP3 OH2  OT    -0.834000       15.9994           0
   14414 WT1  3767 TIP3 H1   HT     0.417000        1.0080           0
   14415 WT1  3767 TIP3 H2   HT     0.417000        1.0080           0
   14416 WT1  3768 TIP3 OH2  OT    -0.834000       15.9994           0
   14417 WT1  3768 TIP3 H1   HT     0.417000        1.0080           0
   14418 WT1  3768 TIP3 H2   HT     0.417000        1.0080           0
   14419 WT1  3769 TIP3 OH2  OT    -0.834000       15.9994           0
   14420 WT1  3769 TIP3 H1   HT     0.417000        1.0080           0
   14421 WT1  3769 TIP3 H2   HT     0.417000        1.0080           0
   14422 WT1  3770 TIP3 OH2  OT    -0.834000       15.9994           0
   14423 WT1  3770 TIP3 H1   HT     0.417000        1.0080           0
   14424 WT1  3770 TIP3 H2   HT     0.417000        1.0080           0
   14425 WT1  3771 TIP3 OH2  OT    -0.834000       15.9994           0
   14426 WT1  3771 TIP3 H1   HT     0.417000        1.0080           0
   14427 WT1  3771 TIP3 H2   HT     0.417000        1.0080           0
   14428 WT1  3772 TIP3 OH2  OT    -0.834000       15.9994           0
   14429 WT1  3772 TIP3 H1   HT     0.417000        1.0080           0
   14430 WT1  3772 TIP3 H2   HT     0.417000        1.0080           0
   14431 WT1  3773 TIP3 OH2  OT    -0.834000       15.9994           0
   14432 WT1  3773 TIP3 H1   HT     0.417000        1.0080           0
   14433 WT1  3773 TIP3 H2   HT     0.417000        1.0080           0
   14434 WT1  3774 TIP3 OH2  OT    -0.834000       15.9994           0
   14435 WT1  3774 TIP3 H1   HT     0.417000        1.0080           0
   14436 WT1  3774 TIP3 H2   HT     0.417000        1.0080           0
   14437 WT1  3776 TIP3 OH2  OT    -0.834000       15.9994           0
   14438 WT1  3776 TIP3 H1   HT     0.417000        1.0080           0
   14439 WT1  3776 TIP3 H2   HT     0.417000        1.0080           0
   14440 WT1  3777 TIP3 OH2  OT    -0.834000       15.9994           0
   14441 WT1  3777 TIP3 H1   HT     0.417000        1.0080           0
   14442 WT1  3777 TIP3 H2   HT     0.417000        1.0080           0
   14443 WT1  3778 TIP3 OH2  OT    -0.834000       15.9994           0
   14444 WT1  3778 TIP3 H1   HT     0.417000        1.0080           0
   14445 WT1  3778 TIP3 H2   HT     0.417000        1.0080           0
   14446 WT1  3779 TIP3 OH2  OT    -0.834000       15.9994           0
   14447 WT1  3779 TIP3 H1   HT     0.417000        1.0080           0
   14448 WT1  3779 TIP3 H2   HT     0.417000        1.0080           0
   14449 WT1  3780 TIP3 OH2  OT    -0.834000       15.9994           0
   14450 WT1  3780 TIP3 H1   HT     0.417000        1.0080           0
   14451 WT1  3780 TIP3 H2   HT     0.417000        1.0080           0
   14452 WT1  3781 TIP3 OH2  OT    -0.834000       15.9994           0
   14453 WT1  3781 TIP3 H1   HT     0.417000        1.0080           0
   14454 WT1  3781 TIP3 H2   HT     0.417000        1.0080           0
   14455 WT1  3782 TIP3 OH2  OT    -0.834000       15.9994           0
   14456 WT1  3782 TIP3 H1   HT     0.417000        1.0080           0
   14457 WT1  3782 TIP3 H2   HT     0.417000        1.0080           0
   14458 WT1  3783 TIP3 OH2  OT    -0.834000       15.9994           0
   14459 WT1  3783 TIP3 H1   HT     0.417000        1.0080           0
   14460 WT1  3783 TIP3 H2   HT     0.417000        1.0080           0
   14461 WT1  3784 TIP3 OH2  OT    -0.834000       15.9994           0
   14462 WT1  3784 TIP3 H1   HT     0.417000        1.0080           0
   14463 WT1  3784 TIP3 H2   HT     0.417000        1.0080           0
   14464 WT1  3785 TIP3 OH2  OT    -0.834000       15.9994           0
   14465 WT1  3785 TIP3 H1   HT     0.417000        1.0080           0
   14466 WT1  3785 TIP3 H2   HT     0.417000        1.0080           0
   14467 WT1  3786 TIP3 OH2  OT    -0.834000       15.9994           0
   14468 WT1  3786 TIP3 H1   HT     0.417000        1.0080           0
   14469 WT1  3786 TIP3 H2   HT     0.417000        1.0080           0
   14470 WT1  3787 TIP3 OH2  OT    -0.834000       15.9994           0
   14471 WT1  3787 TIP3 H1   HT     0.417000        1.0080           0
   14472 WT1  3787 TIP3 H2   HT     0.417000        1.0080           0
   14473 WT1  3788 TIP3 OH2  OT    -0.834000       15.9994           0
   14474 WT1  3788 TIP3 H1   HT     0.417000        1.0080           0
   14475 WT1  3788 TIP3 H2   HT     0.417000        1.0080           0
   14476 WT1  3789 TIP3 OH2  OT    -0.834000       15.9994           0
   14477 WT1  3789 TIP3 H1   HT     0.417000        1.0080           0
   14478 WT1  3789 TIP3 H2   HT     0.417000        1.0080           0
   14479 WT1  3790 TIP3 OH2  OT    -0.834000       15.9994           0
   14480 WT1  3790 TIP3 H1   HT     0.417000        1.0080           0
   14481 WT1  3790 TIP3 H2   HT     0.417000        1.0080           0
   14482 WT1  3791 TIP3 OH2  OT    -0.834000       15.9994           0
   14483 WT1  3791 TIP3 H1   HT     0.417000        1.0080           0
   14484 WT1  3791 TIP3 H2   HT     0.417000        1.0080           0
   14485 WT1  3792 TIP3 OH2  OT    -0.834000       15.9994           0
   14486 WT1  3792 TIP3 H1   HT     0.417000        1.0080           0
   14487 WT1  3792 TIP3 H2   HT     0.417000        1.0080           0
   14488 WT1  3793 TIP3 OH2  OT    -0.834000       15.9994           0
   14489 WT1  3793 TIP3 H1   HT     0.417000        1.0080           0
   14490 WT1  3793 TIP3 H2   HT     0.417000        1.0080           0
   14491 WT1  3794 TIP3 OH2  OT    -0.834000       15.9994           0
   14492 WT1  3794 TIP3 H1   HT     0.417000        1.0080           0
   14493 WT1  3794 TIP3 H2   HT     0.417000        1.0080           0
   14494 WT1  3795 TIP3 OH2  OT    -0.834000       15.9994           0
   14495 WT1  3795 TIP3 H1   HT     0.417000        1.0080           0
   14496 WT1  3795 TIP3 H2   HT     0.417000        1.0080           0
   14497 WT1  3796 TIP3 OH2  OT    -0.834000       15.9994           0
   14498 WT1  3796 TIP3 H1   HT     0.417000        1.0080           0
   14499 WT1  3796 TIP3 H2   HT     0.417000        1.0080           0
   14500 WT1  3798 TIP3 OH2  OT    -0.834000       15.9994           0
   14501 WT1  3798 TIP3 H1   HT     0.417000        1.0080           0
   14502 WT1  3798 TIP3 H2   HT     0.417000        1.0080           0
   14503 WT1  3799 TIP3 OH2  OT    -0.834000       15.9994           0
   14504 WT1  3799 TIP3 H1   HT     0.417000        1.0080           0
   14505 WT1  3799 TIP3 H2   HT     0.417000        1.0080           0
   14506 WT1  3800 TIP3 OH2  OT    -0.834000       15.9994           0
   14507 WT1  3800 TIP3 H1   HT     0.417000        1.0080           0
   14508 WT1  3800 TIP3 H2   HT     0.417000        1.0080           0
   14509 WT1  3801 TIP3 OH2  OT    -0.834000       15.9994           0
   14510 WT1  3801 TIP3 H1   HT     0.417000        1.0080           0
   14511 WT1  3801 TIP3 H2   HT     0.417000        1.0080           0
   14512 WT1  3802 TIP3 OH2  OT    -0.834000       15.9994           0
   14513 WT1  3802 TIP3 H1   HT     0.417000        1.0080           0
   14514 WT1  3802 TIP3 H2   HT     0.417000        1.0080           0
   14515 WT1  3803 TIP3 OH2  OT    -0.834000       15.9994           0
   14516 WT1  3803 TIP3 H1   HT     0.417000        1.0080           0
   14517 WT1  3803 TIP3 H2   HT     0.417000        1.0080           0
   14518 WT1  3804 TIP3 OH2  OT    -0.834000       15.9994           0
   14519 WT1  3804 TIP3 H1   HT     0.417000        1.0080           0
   14520 WT1  3804 TIP3 H2   HT     0.417000        1.0080           0
   14521 WT1  3805 TIP3 OH2  OT    -0.834000       15.9994           0
   14522 WT1  3805 TIP3 H1   HT     0.417000        1.0080           0
   14523 WT1  3805 TIP3 H2   HT     0.417000        1.0080           0
   14524 WT1  3806 TIP3 OH2  OT    -0.834000       15.9994           0
   14525 WT1  3806 TIP3 H1   HT     0.417000        1.0080           0
   14526 WT1  3806 TIP3 H2   HT     0.417000        1.0080           0
   14527 WT1  3807 TIP3 OH2  OT    -0.834000       15.9994           0
   14528 WT1  3807 TIP3 H1   HT     0.417000        1.0080           0
   14529 WT1  3807 TIP3 H2   HT     0.417000        1.0080           0
   14530 WT1  3808 TIP3 OH2  OT    -0.834000       15.9994           0
   14531 WT1  3808 TIP3 H1   HT     0.417000        1.0080           0
   14532 WT1  3808 TIP3 H2   HT     0.417000        1.0080           0
   14533 WT1  3809 TIP3 OH2  OT    -0.834000       15.9994           0
   14534 WT1  3809 TIP3 H1   HT     0.417000        1.0080           0
   14535 WT1  3809 TIP3 H2   HT     0.417000        1.0080           0
   14536 WT1  3810 TIP3 OH2  OT    -0.834000       15.9994           0
   14537 WT1  3810 TIP3 H1   HT     0.417000        1.0080           0
   14538 WT1  3810 TIP3 H2   HT     0.417000        1.0080           0
   14539 WT1  3811 TIP3 OH2  OT    -0.834000       15.9994           0
   14540 WT1  3811 TIP3 H1   HT     0.417000        1.0080           0
   14541 WT1  3811 TIP3 H2   HT     0.417000        1.0080           0
   14542 WT1  3812 TIP3 OH2  OT    -0.834000       15.9994           0
   14543 WT1  3812 TIP3 H1   HT     0.417000        1.0080           0
   14544 WT1  3812 TIP3 H2   HT     0.417000        1.0080           0
   14545 WT1  3813 TIP3 OH2  OT    -0.834000       15.9994           0
   14546 WT1  3813 TIP3 H1   HT     0.417000        1.0080           0
   14547 WT1  3813 TIP3 H2   HT     0.417000        1.0080           0
   14548 WT1  3814 TIP3 OH2  OT    -0.834000       15.9994           0
   14549 WT1  3814 TIP3 H1   HT     0.417000        1.0080           0
   14550 WT1  3814 TIP3 H2   HT     0.417000        1.0080           0
   14551 WT1  3815 TIP3 OH2  OT    -0.834000       15.9994           0
   14552 WT1  3815 TIP3 H1   HT     0.417000        1.0080           0
   14553 WT1  3815 TIP3 H2   HT     0.417000        1.0080           0
   14554 WT1  3816 TIP3 OH2  OT    -0.834000       15.9994           0
   14555 WT1  3816 TIP3 H1   HT     0.417000        1.0080           0
   14556 WT1  3816 TIP3 H2   HT     0.417000        1.0080           0
   14557 WT1  3817 TIP3 OH2  OT    -0.834000       15.9994           0
   14558 WT1  3817 TIP3 H1   HT     0.417000        1.0080           0
   14559 WT1  3817 TIP3 H2   HT     0.417000        1.0080           0
   14560 WT1  3818 TIP3 OH2  OT    -0.834000       15.9994           0
   14561 WT1  3818 TIP3 H1   HT     0.417000        1.0080           0
   14562 WT1  3818 TIP3 H2   HT     0.417000        1.0080           0
   14563 WT1  3819 TIP3 OH2  OT    -0.834000       15.9994           0
   14564 WT1  3819 TIP3 H1   HT     0.417000        1.0080           0
   14565 WT1  3819 TIP3 H2   HT     0.417000        1.0080           0
   14566 WT1  3820 TIP3 OH2  OT    -0.834000       15.9994           0
   14567 WT1  3820 TIP3 H1   HT     0.417000        1.0080           0
   14568 WT1  3820 TIP3 H2   HT     0.417000        1.0080           0
   14569 WT1  3821 TIP3 OH2  OT    -0.834000       15.9994           0
   14570 WT1  3821 TIP3 H1   HT     0.417000        1.0080           0
   14571 WT1  3821 TIP3 H2   HT     0.417000        1.0080           0
   14572 WT1  3822 TIP3 OH2  OT    -0.834000       15.9994           0
   14573 WT1  3822 TIP3 H1   HT     0.417000        1.0080           0
   14574 WT1  3822 TIP3 H2   HT     0.417000        1.0080           0
   14575 WT1  3823 TIP3 OH2  OT    -0.834000       15.9994           0
   14576 WT1  3823 TIP3 H1   HT     0.417000        1.0080           0
   14577 WT1  3823 TIP3 H2   HT     0.417000        1.0080           0
   14578 WT1  3824 TIP3 OH2  OT    -0.834000       15.9994           0
   14579 WT1  3824 TIP3 H1   HT     0.417000        1.0080           0
   14580 WT1  3824 TIP3 H2   HT     0.417000        1.0080           0
   14581 WT1  3825 TIP3 OH2  OT    -0.834000       15.9994           0
   14582 WT1  3825 TIP3 H1   HT     0.417000        1.0080           0
   14583 WT1  3825 TIP3 H2   HT     0.417000        1.0080           0
   14584 WT1  3826 TIP3 OH2  OT    -0.834000       15.9994           0
   14585 WT1  3826 TIP3 H1   HT     0.417000        1.0080           0
   14586 WT1  3826 TIP3 H2   HT     0.417000        1.0080           0
   14587 WT1  3827 TIP3 OH2  OT    -0.834000       15.9994           0
   14588 WT1  3827 TIP3 H1   HT     0.417000        1.0080           0
   14589 WT1  3827 TIP3 H2   HT     0.417000        1.0080           0
   14590 WT1  3828 TIP3 OH2  OT    -0.834000       15.9994           0
   14591 WT1  3828 TIP3 H1   HT     0.417000        1.0080           0
   14592 WT1  3828 TIP3 H2   HT     0.417000        1.0080           0
   14593 WT1  3829 TIP3 OH2  OT    -0.834000       15.9994           0
   14594 WT1  3829 TIP3 H1   HT     0.417000        1.0080           0
   14595 WT1  3829 TIP3 H2   HT     0.417000        1.0080           0
   14596 WT1  3830 TIP3 OH2  OT    -0.834000       15.9994           0
   14597 WT1  3830 TIP3 H1   HT     0.417000        1.0080           0
   14598 WT1  3830 TIP3 H2   HT     0.417000        1.0080           0
   14599 WT1  3831 TIP3 OH2  OT    -0.834000       15.9994           0
   14600 WT1  3831 TIP3 H1   HT     0.417000        1.0080           0
   14601 WT1  3831 TIP3 H2   HT     0.417000        1.0080           0
   14602 WT1  3832 TIP3 OH2  OT    -0.834000       15.9994           0
   14603 WT1  3832 TIP3 H1   HT     0.417000        1.0080           0
   14604 WT1  3832 TIP3 H2   HT     0.417000        1.0080           0
   14605 WT1  3833 TIP3 OH2  OT    -0.834000       15.9994           0
   14606 WT1  3833 TIP3 H1   HT     0.417000        1.0080           0
   14607 WT1  3833 TIP3 H2   HT     0.417000        1.0080           0
   14608 WT1  3834 TIP3 OH2  OT    -0.834000       15.9994           0
   14609 WT1  3834 TIP3 H1   HT     0.417000        1.0080           0
   14610 WT1  3834 TIP3 H2   HT     0.417000        1.0080           0
   14611 WT1  3835 TIP3 OH2  OT    -0.834000       15.9994           0
   14612 WT1  3835 TIP3 H1   HT     0.417000        1.0080           0
   14613 WT1  3835 TIP3 H2   HT     0.417000        1.0080           0
   14614 WT1  3836 TIP3 OH2  OT    -0.834000       15.9994           0
   14615 WT1  3836 TIP3 H1   HT     0.417000        1.0080           0
   14616 WT1  3836 TIP3 H2   HT     0.417000        1.0080           0
   14617 WT1  3838 TIP3 OH2  OT    -0.834000       15.9994           0
   14618 WT1  3838 TIP3 H1   HT     0.417000        1.0080           0
   14619 WT1  3838 TIP3 H2   HT     0.417000        1.0080           0
   14620 WT1  3839 TIP3 OH2  OT    -0.834000       15.9994           0
   14621 WT1  3839 TIP3 H1   HT     0.417000        1.0080           0
   14622 WT1  3839 TIP3 H2   HT     0.417000        1.0080           0
   14623 WT1  3841 TIP3 OH2  OT    -0.834000       15.9994           0
   14624 WT1  3841 TIP3 H1   HT     0.417000        1.0080           0
   14625 WT1  3841 TIP3 H2   HT     0.417000        1.0080           0
   14626 WT1  3843 TIP3 OH2  OT    -0.834000       15.9994           0
   14627 WT1  3843 TIP3 H1   HT     0.417000        1.0080           0
   14628 WT1  3843 TIP3 H2   HT     0.417000        1.0080           0
   14629 WT1  3844 TIP3 OH2  OT    -0.834000       15.9994           0
   14630 WT1  3844 TIP3 H1   HT     0.417000        1.0080           0
   14631 WT1  3844 TIP3 H2   HT     0.417000        1.0080           0
   14632 WT1  3845 TIP3 OH2  OT    -0.834000       15.9994           0
   14633 WT1  3845 TIP3 H1   HT     0.417000        1.0080           0
   14634 WT1  3845 TIP3 H2   HT     0.417000        1.0080           0
   14635 WT1  3846 TIP3 OH2  OT    -0.834000       15.9994           0
   14636 WT1  3846 TIP3 H1   HT     0.417000        1.0080           0
   14637 WT1  3846 TIP3 H2   HT     0.417000        1.0080           0
   14638 WT1  3847 TIP3 OH2  OT    -0.834000       15.9994           0
   14639 WT1  3847 TIP3 H1   HT     0.417000        1.0080           0
   14640 WT1  3847 TIP3 H2   HT     0.417000        1.0080           0
   14641 WT1  3848 TIP3 OH2  OT    -0.834000       15.9994           0
   14642 WT1  3848 TIP3 H1   HT     0.417000        1.0080           0
   14643 WT1  3848 TIP3 H2   HT     0.417000        1.0080           0
   14644 WT1  3849 TIP3 OH2  OT    -0.834000       15.9994           0
   14645 WT1  3849 TIP3 H1   HT     0.417000        1.0080           0
   14646 WT1  3849 TIP3 H2   HT     0.417000        1.0080           0
   14647 WT1  3850 TIP3 OH2  OT    -0.834000       15.9994           0
   14648 WT1  3850 TIP3 H1   HT     0.417000        1.0080           0
   14649 WT1  3850 TIP3 H2   HT     0.417000        1.0080           0
   14650 WT1  3851 TIP3 OH2  OT    -0.834000       15.9994           0
   14651 WT1  3851 TIP3 H1   HT     0.417000        1.0080           0
   14652 WT1  3851 TIP3 H2   HT     0.417000        1.0080           0
   14653 WT1  3852 TIP3 OH2  OT    -0.834000       15.9994           0
   14654 WT1  3852 TIP3 H1   HT     0.417000        1.0080           0
   14655 WT1  3852 TIP3 H2   HT     0.417000        1.0080           0
   14656 WT1  3853 TIP3 OH2  OT    -0.834000       15.9994           0
   14657 WT1  3853 TIP3 H1   HT     0.417000        1.0080           0
   14658 WT1  3853 TIP3 H2   HT     0.417000        1.0080           0
   14659 WT1  3854 TIP3 OH2  OT    -0.834000       15.9994           0
   14660 WT1  3854 TIP3 H1   HT     0.417000        1.0080           0
   14661 WT1  3854 TIP3 H2   HT     0.417000        1.0080           0
   14662 WT1  3855 TIP3 OH2  OT    -0.834000       15.9994           0
   14663 WT1  3855 TIP3 H1   HT     0.417000        1.0080           0
   14664 WT1  3855 TIP3 H2   HT     0.417000        1.0080           0
   14665 WT1  3857 TIP3 OH2  OT    -0.834000       15.9994           0
   14666 WT1  3857 TIP3 H1   HT     0.417000        1.0080           0
   14667 WT1  3857 TIP3 H2   HT     0.417000        1.0080           0
   14668 WT1  3858 TIP3 OH2  OT    -0.834000       15.9994           0
   14669 WT1  3858 TIP3 H1   HT     0.417000        1.0080           0
   14670 WT1  3858 TIP3 H2   HT     0.417000        1.0080           0
   14671 WT1  3859 TIP3 OH2  OT    -0.834000       15.9994           0
   14672 WT1  3859 TIP3 H1   HT     0.417000        1.0080           0
   14673 WT1  3859 TIP3 H2   HT     0.417000        1.0080           0
   14674 WT1  3860 TIP3 OH2  OT    -0.834000       15.9994           0
   14675 WT1  3860 TIP3 H1   HT     0.417000        1.0080           0
   14676 WT1  3860 TIP3 H2   HT     0.417000        1.0080           0
   14677 WT1  3861 TIP3 OH2  OT    -0.834000       15.9994           0
   14678 WT1  3861 TIP3 H1   HT     0.417000        1.0080           0
   14679 WT1  3861 TIP3 H2   HT     0.417000        1.0080           0
   14680 WT1  3863 TIP3 OH2  OT    -0.834000       15.9994           0
   14681 WT1  3863 TIP3 H1   HT     0.417000        1.0080           0
   14682 WT1  3863 TIP3 H2   HT     0.417000        1.0080           0
   14683 WT1  3864 TIP3 OH2  OT    -0.834000       15.9994           0
   14684 WT1  3864 TIP3 H1   HT     0.417000        1.0080           0
   14685 WT1  3864 TIP3 H2   HT     0.417000        1.0080           0
   14686 WT1  3865 TIP3 OH2  OT    -0.834000       15.9994           0
   14687 WT1  3865 TIP3 H1   HT     0.417000        1.0080           0
   14688 WT1  3865 TIP3 H2   HT     0.417000        1.0080           0
   14689 WT1  3866 TIP3 OH2  OT    -0.834000       15.9994           0
   14690 WT1  3866 TIP3 H1   HT     0.417000        1.0080           0
   14691 WT1  3866 TIP3 H2   HT     0.417000        1.0080           0
   14692 WT1  3867 TIP3 OH2  OT    -0.834000       15.9994           0
   14693 WT1  3867 TIP3 H1   HT     0.417000        1.0080           0
   14694 WT1  3867 TIP3 H2   HT     0.417000        1.0080           0
   14695 WT1  3868 TIP3 OH2  OT    -0.834000       15.9994           0
   14696 WT1  3868 TIP3 H1   HT     0.417000        1.0080           0
   14697 WT1  3868 TIP3 H2   HT     0.417000        1.0080           0
   14698 WT1  3869 TIP3 OH2  OT    -0.834000       15.9994           0
   14699 WT1  3869 TIP3 H1   HT     0.417000        1.0080           0
   14700 WT1  3869 TIP3 H2   HT     0.417000        1.0080           0
   14701 WT1  3870 TIP3 OH2  OT    -0.834000       15.9994           0
   14702 WT1  3870 TIP3 H1   HT     0.417000        1.0080           0
   14703 WT1  3870 TIP3 H2   HT     0.417000        1.0080           0
   14704 WT1  3871 TIP3 OH2  OT    -0.834000       15.9994           0
   14705 WT1  3871 TIP3 H1   HT     0.417000        1.0080           0
   14706 WT1  3871 TIP3 H2   HT     0.417000        1.0080           0
   14707 WT1  3872 TIP3 OH2  OT    -0.834000       15.9994           0
   14708 WT1  3872 TIP3 H1   HT     0.417000        1.0080           0
   14709 WT1  3872 TIP3 H2   HT     0.417000        1.0080           0
   14710 WT1  3873 TIP3 OH2  OT    -0.834000       15.9994           0
   14711 WT1  3873 TIP3 H1   HT     0.417000        1.0080           0
   14712 WT1  3873 TIP3 H2   HT     0.417000        1.0080           0
   14713 WT1  3874 TIP3 OH2  OT    -0.834000       15.9994           0
   14714 WT1  3874 TIP3 H1   HT     0.417000        1.0080           0
   14715 WT1  3874 TIP3 H2   HT     0.417000        1.0080           0
   14716 WT1  3875 TIP3 OH2  OT    -0.834000       15.9994           0
   14717 WT1  3875 TIP3 H1   HT     0.417000        1.0080           0
   14718 WT1  3875 TIP3 H2   HT     0.417000        1.0080           0
   14719 WT1  3878 TIP3 OH2  OT    -0.834000       15.9994           0
   14720 WT1  3878 TIP3 H1   HT     0.417000        1.0080           0
   14721 WT1  3878 TIP3 H2   HT     0.417000        1.0080           0
   14722 WT1  3879 TIP3 OH2  OT    -0.834000       15.9994           0
   14723 WT1  3879 TIP3 H1   HT     0.417000        1.0080           0
   14724 WT1  3879 TIP3 H2   HT     0.417000        1.0080           0
   14725 WT1  3880 TIP3 OH2  OT    -0.834000       15.9994           0
   14726 WT1  3880 TIP3 H1   HT     0.417000        1.0080           0
   14727 WT1  3880 TIP3 H2   HT     0.417000        1.0080           0
   14728 WT1  3882 TIP3 OH2  OT    -0.834000       15.9994           0
   14729 WT1  3882 TIP3 H1   HT     0.417000        1.0080           0
   14730 WT1  3882 TIP3 H2   HT     0.417000        1.0080           0
   14731 WT1  3883 TIP3 OH2  OT    -0.834000       15.9994           0
   14732 WT1  3883 TIP3 H1   HT     0.417000        1.0080           0
   14733 WT1  3883 TIP3 H2   HT     0.417000        1.0080           0
   14734 WT1  3884 TIP3 OH2  OT    -0.834000       15.9994           0
   14735 WT1  3884 TIP3 H1   HT     0.417000        1.0080           0
   14736 WT1  3884 TIP3 H2   HT     0.417000        1.0080           0
   14737 WT1  3885 TIP3 OH2  OT    -0.834000       15.9994           0
   14738 WT1  3885 TIP3 H1   HT     0.417000        1.0080           0
   14739 WT1  3885 TIP3 H2   HT     0.417000        1.0080           0
   14740 WT1  3886 TIP3 OH2  OT    -0.834000       15.9994           0
   14741 WT1  3886 TIP3 H1   HT     0.417000        1.0080           0
   14742 WT1  3886 TIP3 H2   HT     0.417000        1.0080           0
   14743 WT1  3887 TIP3 OH2  OT    -0.834000       15.9994           0
   14744 WT1  3887 TIP3 H1   HT     0.417000        1.0080           0
   14745 WT1  3887 TIP3 H2   HT     0.417000        1.0080           0
   14746 WT1  3888 TIP3 OH2  OT    -0.834000       15.9994           0
   14747 WT1  3888 TIP3 H1   HT     0.417000        1.0080           0
   14748 WT1  3888 TIP3 H2   HT     0.417000        1.0080           0
   14749 WT1  3889 TIP3 OH2  OT    -0.834000       15.9994           0
   14750 WT1  3889 TIP3 H1   HT     0.417000        1.0080           0
   14751 WT1  3889 TIP3 H2   HT     0.417000        1.0080           0
   14752 WT1  3890 TIP3 OH2  OT    -0.834000       15.9994           0
   14753 WT1  3890 TIP3 H1   HT     0.417000        1.0080           0
   14754 WT1  3890 TIP3 H2   HT     0.417000        1.0080           0
   14755 WT1  3891 TIP3 OH2  OT    -0.834000       15.9994           0
   14756 WT1  3891 TIP3 H1   HT     0.417000        1.0080           0
   14757 WT1  3891 TIP3 H2   HT     0.417000        1.0080           0
   14758 WT1  3892 TIP3 OH2  OT    -0.834000       15.9994           0
   14759 WT1  3892 TIP3 H1   HT     0.417000        1.0080           0
   14760 WT1  3892 TIP3 H2   HT     0.417000        1.0080           0
   14761 WT1  3893 TIP3 OH2  OT    -0.834000       15.9994           0
   14762 WT1  3893 TIP3 H1   HT     0.417000        1.0080           0
   14763 WT1  3893 TIP3 H2   HT     0.417000        1.0080           0
   14764 WT1  3894 TIP3 OH2  OT    -0.834000       15.9994           0
   14765 WT1  3894 TIP3 H1   HT     0.417000        1.0080           0
   14766 WT1  3894 TIP3 H2   HT     0.417000        1.0080           0
   14767 WT1  3895 TIP3 OH2  OT    -0.834000       15.9994           0
   14768 WT1  3895 TIP3 H1   HT     0.417000        1.0080           0
   14769 WT1  3895 TIP3 H2   HT     0.417000        1.0080           0
   14770 WT1  3896 TIP3 OH2  OT    -0.834000       15.9994           0
   14771 WT1  3896 TIP3 H1   HT     0.417000        1.0080           0
   14772 WT1  3896 TIP3 H2   HT     0.417000        1.0080           0
   14773 WT1  3897 TIP3 OH2  OT    -0.834000       15.9994           0
   14774 WT1  3897 TIP3 H1   HT     0.417000        1.0080           0
   14775 WT1  3897 TIP3 H2   HT     0.417000        1.0080           0
   14776 WT1  3898 TIP3 OH2  OT    -0.834000       15.9994           0
   14777 WT1  3898 TIP3 H1   HT     0.417000        1.0080           0
   14778 WT1  3898 TIP3 H2   HT     0.417000        1.0080           0
   14779 WT1  3899 TIP3 OH2  OT    -0.834000       15.9994           0
   14780 WT1  3899 TIP3 H1   HT     0.417000        1.0080           0
   14781 WT1  3899 TIP3 H2   HT     0.417000        1.0080           0
   14782 WT1  3900 TIP3 OH2  OT    -0.834000       15.9994           0
   14783 WT1  3900 TIP3 H1   HT     0.417000        1.0080           0
   14784 WT1  3900 TIP3 H2   HT     0.417000        1.0080           0
   14785 WT1  3901 TIP3 OH2  OT    -0.834000       15.9994           0
   14786 WT1  3901 TIP3 H1   HT     0.417000        1.0080           0
   14787 WT1  3901 TIP3 H2   HT     0.417000        1.0080           0
   14788 WT1  3903 TIP3 OH2  OT    -0.834000       15.9994           0
   14789 WT1  3903 TIP3 H1   HT     0.417000        1.0080           0
   14790 WT1  3903 TIP3 H2   HT     0.417000        1.0080           0
   14791 WT1  3905 TIP3 OH2  OT    -0.834000       15.9994           0
   14792 WT1  3905 TIP3 H1   HT     0.417000        1.0080           0
   14793 WT1  3905 TIP3 H2   HT     0.417000        1.0080           0
   14794 WT1  3906 TIP3 OH2  OT    -0.834000       15.9994           0
   14795 WT1  3906 TIP3 H1   HT     0.417000        1.0080           0
   14796 WT1  3906 TIP3 H2   HT     0.417000        1.0080           0
   14797 WT1  3907 TIP3 OH2  OT    -0.834000       15.9994           0
   14798 WT1  3907 TIP3 H1   HT     0.417000        1.0080           0
   14799 WT1  3907 TIP3 H2   HT     0.417000        1.0080           0
   14800 WT1  3908 TIP3 OH2  OT    -0.834000       15.9994           0
   14801 WT1  3908 TIP3 H1   HT     0.417000        1.0080           0
   14802 WT1  3908 TIP3 H2   HT     0.417000        1.0080           0
   14803 WT1  3909 TIP3 OH2  OT    -0.834000       15.9994           0
   14804 WT1  3909 TIP3 H1   HT     0.417000        1.0080           0
   14805 WT1  3909 TIP3 H2   HT     0.417000        1.0080           0
   14806 WT1  3910 TIP3 OH2  OT    -0.834000       15.9994           0
   14807 WT1  3910 TIP3 H1   HT     0.417000        1.0080           0
   14808 WT1  3910 TIP3 H2   HT     0.417000        1.0080           0
   14809 WT1  3911 TIP3 OH2  OT    -0.834000       15.9994           0
   14810 WT1  3911 TIP3 H1   HT     0.417000        1.0080           0
   14811 WT1  3911 TIP3 H2   HT     0.417000        1.0080           0
   14812 WT1  3912 TIP3 OH2  OT    -0.834000       15.9994           0
   14813 WT1  3912 TIP3 H1   HT     0.417000        1.0080           0
   14814 WT1  3912 TIP3 H2   HT     0.417000        1.0080           0
   14815 WT1  3913 TIP3 OH2  OT    -0.834000       15.9994           0
   14816 WT1  3913 TIP3 H1   HT     0.417000        1.0080           0
   14817 WT1  3913 TIP3 H2   HT     0.417000        1.0080           0
   14818 WT1  3914 TIP3 OH2  OT    -0.834000       15.9994           0
   14819 WT1  3914 TIP3 H1   HT     0.417000        1.0080           0
   14820 WT1  3914 TIP3 H2   HT     0.417000        1.0080           0
   14821 WT1  3915 TIP3 OH2  OT    -0.834000       15.9994           0
   14822 WT1  3915 TIP3 H1   HT     0.417000        1.0080           0
   14823 WT1  3915 TIP3 H2   HT     0.417000        1.0080           0
   14824 WT1  3916 TIP3 OH2  OT    -0.834000       15.9994           0
   14825 WT1  3916 TIP3 H1   HT     0.417000        1.0080           0
   14826 WT1  3916 TIP3 H2   HT     0.417000        1.0080           0
   14827 WT1  3917 TIP3 OH2  OT    -0.834000       15.9994           0
   14828 WT1  3917 TIP3 H1   HT     0.417000        1.0080           0
   14829 WT1  3917 TIP3 H2   HT     0.417000        1.0080           0
   14830 WT1  3918 TIP3 OH2  OT    -0.834000       15.9994           0
   14831 WT1  3918 TIP3 H1   HT     0.417000        1.0080           0
   14832 WT1  3918 TIP3 H2   HT     0.417000        1.0080           0
   14833 WT1  3919 TIP3 OH2  OT    -0.834000       15.9994           0
   14834 WT1  3919 TIP3 H1   HT     0.417000        1.0080           0
   14835 WT1  3919 TIP3 H2   HT     0.417000        1.0080           0
   14836 WT1  3920 TIP3 OH2  OT    -0.834000       15.9994           0
   14837 WT1  3920 TIP3 H1   HT     0.417000        1.0080           0
   14838 WT1  3920 TIP3 H2   HT     0.417000        1.0080           0
   14839 WT1  3921 TIP3 OH2  OT    -0.834000       15.9994           0
   14840 WT1  3921 TIP3 H1   HT     0.417000        1.0080           0
   14841 WT1  3921 TIP3 H2   HT     0.417000        1.0080           0
   14842 WT1  3922 TIP3 OH2  OT    -0.834000       15.9994           0
   14843 WT1  3922 TIP3 H1   HT     0.417000        1.0080           0
   14844 WT1  3922 TIP3 H2   HT     0.417000        1.0080           0
   14845 WT1  3924 TIP3 OH2  OT    -0.834000       15.9994           0
   14846 WT1  3924 TIP3 H1   HT     0.417000        1.0080           0
   14847 WT1  3924 TIP3 H2   HT     0.417000        1.0080           0
   14848 WT1  3925 TIP3 OH2  OT    -0.834000       15.9994           0
   14849 WT1  3925 TIP3 H1   HT     0.417000        1.0080           0
   14850 WT1  3925 TIP3 H2   HT     0.417000        1.0080           0
   14851 WT1  3926 TIP3 OH2  OT    -0.834000       15.9994           0
   14852 WT1  3926 TIP3 H1   HT     0.417000        1.0080           0
   14853 WT1  3926 TIP3 H2   HT     0.417000        1.0080           0
   14854 WT1  3928 TIP3 OH2  OT    -0.834000       15.9994           0
   14855 WT1  3928 TIP3 H1   HT     0.417000        1.0080           0
   14856 WT1  3928 TIP3 H2   HT     0.417000        1.0080           0
   14857 WT1  3929 TIP3 OH2  OT    -0.834000       15.9994           0
   14858 WT1  3929 TIP3 H1   HT     0.417000        1.0080           0
   14859 WT1  3929 TIP3 H2   HT     0.417000        1.0080           0
   14860 WT1  3930 TIP3 OH2  OT    -0.834000       15.9994           0
   14861 WT1  3930 TIP3 H1   HT     0.417000        1.0080           0
   14862 WT1  3930 TIP3 H2   HT     0.417000        1.0080           0
   14863 WT1  3931 TIP3 OH2  OT    -0.834000       15.9994           0
   14864 WT1  3931 TIP3 H1   HT     0.417000        1.0080           0
   14865 WT1  3931 TIP3 H2   HT     0.417000        1.0080           0
   14866 WT1  3932 TIP3 OH2  OT    -0.834000       15.9994           0
   14867 WT1  3932 TIP3 H1   HT     0.417000        1.0080           0
   14868 WT1  3932 TIP3 H2   HT     0.417000        1.0080           0
   14869 WT1  3933 TIP3 OH2  OT    -0.834000       15.9994           0
   14870 WT1  3933 TIP3 H1   HT     0.417000        1.0080           0
   14871 WT1  3933 TIP3 H2   HT     0.417000        1.0080           0
   14872 WT1  3934 TIP3 OH2  OT    -0.834000       15.9994           0
   14873 WT1  3934 TIP3 H1   HT     0.417000        1.0080           0
   14874 WT1  3934 TIP3 H2   HT     0.417000        1.0080           0
   14875 WT1  3935 TIP3 OH2  OT    -0.834000       15.9994           0
   14876 WT1  3935 TIP3 H1   HT     0.417000        1.0080           0
   14877 WT1  3935 TIP3 H2   HT     0.417000        1.0080           0
   14878 WT1  3936 TIP3 OH2  OT    -0.834000       15.9994           0
   14879 WT1  3936 TIP3 H1   HT     0.417000        1.0080           0
   14880 WT1  3936 TIP3 H2   HT     0.417000        1.0080           0
   14881 WT1  3937 TIP3 OH2  OT    -0.834000       15.9994           0
   14882 WT1  3937 TIP3 H1   HT     0.417000        1.0080           0
   14883 WT1  3937 TIP3 H2   HT     0.417000        1.0080           0
   14884 WT1  3938 TIP3 OH2  OT    -0.834000       15.9994           0
   14885 WT1  3938 TIP3 H1   HT     0.417000        1.0080           0
   14886 WT1  3938 TIP3 H2   HT     0.417000        1.0080           0
   14887 WT1  3939 TIP3 OH2  OT    -0.834000       15.9994           0
   14888 WT1  3939 TIP3 H1   HT     0.417000        1.0080           0
   14889 WT1  3939 TIP3 H2   HT     0.417000        1.0080           0
   14890 WT1  3940 TIP3 OH2  OT    -0.834000       15.9994           0
   14891 WT1  3940 TIP3 H1   HT     0.417000        1.0080           0
   14892 WT1  3940 TIP3 H2   HT     0.417000        1.0080           0
   14893 WT1  3941 TIP3 OH2  OT    -0.834000       15.9994           0
   14894 WT1  3941 TIP3 H1   HT     0.417000        1.0080           0
   14895 WT1  3941 TIP3 H2   HT     0.417000        1.0080           0
   14896 WT1  3943 TIP3 OH2  OT    -0.834000       15.9994           0
   14897 WT1  3943 TIP3 H1   HT     0.417000        1.0080           0
   14898 WT1  3943 TIP3 H2   HT     0.417000        1.0080           0
   14899 WT1  3944 TIP3 OH2  OT    -0.834000       15.9994           0
   14900 WT1  3944 TIP3 H1   HT     0.417000        1.0080           0
   14901 WT1  3944 TIP3 H2   HT     0.417000        1.0080           0
   14902 WT1  3945 TIP3 OH2  OT    -0.834000       15.9994           0
   14903 WT1  3945 TIP3 H1   HT     0.417000        1.0080           0
   14904 WT1  3945 TIP3 H2   HT     0.417000        1.0080           0
   14905 WT1  3946 TIP3 OH2  OT    -0.834000       15.9994           0
   14906 WT1  3946 TIP3 H1   HT     0.417000        1.0080           0
   14907 WT1  3946 TIP3 H2   HT     0.417000        1.0080           0
   14908 WT1  3947 TIP3 OH2  OT    -0.834000       15.9994           0
   14909 WT1  3947 TIP3 H1   HT     0.417000        1.0080           0
   14910 WT1  3947 TIP3 H2   HT     0.417000        1.0080           0
   14911 WT1  3948 TIP3 OH2  OT    -0.834000       15.9994           0
   14912 WT1  3948 TIP3 H1   HT     0.417000        1.0080           0
   14913 WT1  3948 TIP3 H2   HT     0.417000        1.0080           0
   14914 WT1  3949 TIP3 OH2  OT    -0.834000       15.9994           0
   14915 WT1  3949 TIP3 H1   HT     0.417000        1.0080           0
   14916 WT1  3949 TIP3 H2   HT     0.417000        1.0080           0
   14917 WT1  3950 TIP3 OH2  OT    -0.834000       15.9994           0
   14918 WT1  3950 TIP3 H1   HT     0.417000        1.0080           0
   14919 WT1  3950 TIP3 H2   HT     0.417000        1.0080           0
   14920 WT1  3951 TIP3 OH2  OT    -0.834000       15.9994           0
   14921 WT1  3951 TIP3 H1   HT     0.417000        1.0080           0
   14922 WT1  3951 TIP3 H2   HT     0.417000        1.0080           0
   14923 WT1  3953 TIP3 OH2  OT    -0.834000       15.9994           0
   14924 WT1  3953 TIP3 H1   HT     0.417000        1.0080           0
   14925 WT1  3953 TIP3 H2   HT     0.417000        1.0080           0
   14926 WT1  3954 TIP3 OH2  OT    -0.834000       15.9994           0
   14927 WT1  3954 TIP3 H1   HT     0.417000        1.0080           0
   14928 WT1  3954 TIP3 H2   HT     0.417000        1.0080           0
   14929 WT1  3955 TIP3 OH2  OT    -0.834000       15.9994           0
   14930 WT1  3955 TIP3 H1   HT     0.417000        1.0080           0
   14931 WT1  3955 TIP3 H2   HT     0.417000        1.0080           0
   14932 WT1  3956 TIP3 OH2  OT    -0.834000       15.9994           0
   14933 WT1  3956 TIP3 H1   HT     0.417000        1.0080           0
   14934 WT1  3956 TIP3 H2   HT     0.417000        1.0080           0
   14935 WT1  3957 TIP3 OH2  OT    -0.834000       15.9994           0
   14936 WT1  3957 TIP3 H1   HT     0.417000        1.0080           0
   14937 WT1  3957 TIP3 H2   HT     0.417000        1.0080           0
   14938 WT1  3958 TIP3 OH2  OT    -0.834000       15.9994           0
   14939 WT1  3958 TIP3 H1   HT     0.417000        1.0080           0
   14940 WT1  3958 TIP3 H2   HT     0.417000        1.0080           0
   14941 WT1  3959 TIP3 OH2  OT    -0.834000       15.9994           0
   14942 WT1  3959 TIP3 H1   HT     0.417000        1.0080           0
   14943 WT1  3959 TIP3 H2   HT     0.417000        1.0080           0
   14944 WT1  3960 TIP3 OH2  OT    -0.834000       15.9994           0
   14945 WT1  3960 TIP3 H1   HT     0.417000        1.0080           0
   14946 WT1  3960 TIP3 H2   HT     0.417000        1.0080           0
   14947 WT1  3961 TIP3 OH2  OT    -0.834000       15.9994           0
   14948 WT1  3961 TIP3 H1   HT     0.417000        1.0080           0
   14949 WT1  3961 TIP3 H2   HT     0.417000        1.0080           0
   14950 WT1  3962 TIP3 OH2  OT    -0.834000       15.9994           0
   14951 WT1  3962 TIP3 H1   HT     0.417000        1.0080           0
   14952 WT1  3962 TIP3 H2   HT     0.417000        1.0080           0
   14953 WT1  3963 TIP3 OH2  OT    -0.834000       15.9994           0
   14954 WT1  3963 TIP3 H1   HT     0.417000        1.0080           0
   14955 WT1  3963 TIP3 H2   HT     0.417000        1.0080           0
   14956 WT1  3964 TIP3 OH2  OT    -0.834000       15.9994           0
   14957 WT1  3964 TIP3 H1   HT     0.417000        1.0080           0
   14958 WT1  3964 TIP3 H2   HT     0.417000        1.0080           0
   14959 WT1  3965 TIP3 OH2  OT    -0.834000       15.9994           0
   14960 WT1  3965 TIP3 H1   HT     0.417000        1.0080           0
   14961 WT1  3965 TIP3 H2   HT     0.417000        1.0080           0
   14962 WT1  3967 TIP3 OH2  OT    -0.834000       15.9994           0
   14963 WT1  3967 TIP3 H1   HT     0.417000        1.0080           0
   14964 WT1  3967 TIP3 H2   HT     0.417000        1.0080           0
   14965 WT1  3968 TIP3 OH2  OT    -0.834000       15.9994           0
   14966 WT1  3968 TIP3 H1   HT     0.417000        1.0080           0
   14967 WT1  3968 TIP3 H2   HT     0.417000        1.0080           0
   14968 WT1  3969 TIP3 OH2  OT    -0.834000       15.9994           0
   14969 WT1  3969 TIP3 H1   HT     0.417000        1.0080           0
   14970 WT1  3969 TIP3 H2   HT     0.417000        1.0080           0
   14971 WT1  3970 TIP3 OH2  OT    -0.834000       15.9994           0
   14972 WT1  3970 TIP3 H1   HT     0.417000        1.0080           0
   14973 WT1  3970 TIP3 H2   HT     0.417000        1.0080           0
   14974 WT1  3971 TIP3 OH2  OT    -0.834000       15.9994           0
   14975 WT1  3971 TIP3 H1   HT     0.417000        1.0080           0
   14976 WT1  3971 TIP3 H2   HT     0.417000        1.0080           0
   14977 WT1  3973 TIP3 OH2  OT    -0.834000       15.9994           0
   14978 WT1  3973 TIP3 H1   HT     0.417000        1.0080           0
   14979 WT1  3973 TIP3 H2   HT     0.417000        1.0080           0
   14980 WT1  3974 TIP3 OH2  OT    -0.834000       15.9994           0
   14981 WT1  3974 TIP3 H1   HT     0.417000        1.0080           0
   14982 WT1  3974 TIP3 H2   HT     0.417000        1.0080           0
   14983 WT1  3975 TIP3 OH2  OT    -0.834000       15.9994           0
   14984 WT1  3975 TIP3 H1   HT     0.417000        1.0080           0
   14985 WT1  3975 TIP3 H2   HT     0.417000        1.0080           0
   14986 WT1  3976 TIP3 OH2  OT    -0.834000       15.9994           0
   14987 WT1  3976 TIP3 H1   HT     0.417000        1.0080           0
   14988 WT1  3976 TIP3 H2   HT     0.417000        1.0080           0
   14989 WT1  3977 TIP3 OH2  OT    -0.834000       15.9994           0
   14990 WT1  3977 TIP3 H1   HT     0.417000        1.0080           0
   14991 WT1  3977 TIP3 H2   HT     0.417000        1.0080           0
   14992 WT1  3978 TIP3 OH2  OT    -0.834000       15.9994           0
   14993 WT1  3978 TIP3 H1   HT     0.417000        1.0080           0
   14994 WT1  3978 TIP3 H2   HT     0.417000        1.0080           0
   14995 WT1  3979 TIP3 OH2  OT    -0.834000       15.9994           0
   14996 WT1  3979 TIP3 H1   HT     0.417000        1.0080           0
   14997 WT1  3979 TIP3 H2   HT     0.417000        1.0080           0
   14998 WT1  3980 TIP3 OH2  OT    -0.834000       15.9994           0
   14999 WT1  3980 TIP3 H1   HT     0.417000        1.0080           0
   15000 WT1  3980 TIP3 H2   HT     0.417000        1.0080           0
   15001 WT1  3981 TIP3 OH2  OT    -0.834000       15.9994           0
   15002 WT1  3981 TIP3 H1   HT     0.417000        1.0080           0
   15003 WT1  3981 TIP3 H2   HT     0.417000        1.0080           0
   15004 WT1  3982 TIP3 OH2  OT    -0.834000       15.9994           0
   15005 WT1  3982 TIP3 H1   HT     0.417000        1.0080           0
   15006 WT1  3982 TIP3 H2   HT     0.417000        1.0080           0
   15007 WT1  3983 TIP3 OH2  OT    -0.834000       15.9994           0
   15008 WT1  3983 TIP3 H1   HT     0.417000        1.0080           0
   15009 WT1  3983 TIP3 H2   HT     0.417000        1.0080           0
   15010 WT1  3985 TIP3 OH2  OT    -0.834000       15.9994           0
   15011 WT1  3985 TIP3 H1   HT     0.417000        1.0080           0
   15012 WT1  3985 TIP3 H2   HT     0.417000        1.0080           0
   15013 WT1  3986 TIP3 OH2  OT    -0.834000       15.9994           0
   15014 WT1  3986 TIP3 H1   HT     0.417000        1.0080           0
   15015 WT1  3986 TIP3 H2   HT     0.417000        1.0080           0
   15016 WT1  3990 TIP3 OH2  OT    -0.834000       15.9994           0
   15017 WT1  3990 TIP3 H1   HT     0.417000        1.0080           0
   15018 WT1  3990 TIP3 H2   HT     0.417000        1.0080           0
   15019 WT1  3991 TIP3 OH2  OT    -0.834000       15.9994           0
   15020 WT1  3991 TIP3 H1   HT     0.417000        1.0080           0
   15021 WT1  3991 TIP3 H2   HT     0.417000        1.0080           0
   15022 WT1  3992 TIP3 OH2  OT    -0.834000       15.9994           0
   15023 WT1  3992 TIP3 H1   HT     0.417000        1.0080           0
   15024 WT1  3992 TIP3 H2   HT     0.417000        1.0080           0
   15025 WT1  3993 TIP3 OH2  OT    -0.834000       15.9994           0
   15026 WT1  3993 TIP3 H1   HT     0.417000        1.0080           0
   15027 WT1  3993 TIP3 H2   HT     0.417000        1.0080           0
   15028 WT1  3995 TIP3 OH2  OT    -0.834000       15.9994           0
   15029 WT1  3995 TIP3 H1   HT     0.417000        1.0080           0
   15030 WT1  3995 TIP3 H2   HT     0.417000        1.0080           0
   15031 WT1  3996 TIP3 OH2  OT    -0.834000       15.9994           0
   15032 WT1  3996 TIP3 H1   HT     0.417000        1.0080           0
   15033 WT1  3996 TIP3 H2   HT     0.417000        1.0080           0
   15034 WT1  3997 TIP3 OH2  OT    -0.834000       15.9994           0
   15035 WT1  3997 TIP3 H1   HT     0.417000        1.0080           0
   15036 WT1  3997 TIP3 H2   HT     0.417000        1.0080           0
   15037 WT1  3998 TIP3 OH2  OT    -0.834000       15.9994           0
   15038 WT1  3998 TIP3 H1   HT     0.417000        1.0080           0
   15039 WT1  3998 TIP3 H2   HT     0.417000        1.0080           0
   15040 WT1  3999 TIP3 OH2  OT    -0.834000       15.9994           0
   15041 WT1  3999 TIP3 H1   HT     0.417000        1.0080           0
   15042 WT1  3999 TIP3 H2   HT     0.417000        1.0080           0
   15043 WT1  4000 TIP3 OH2  OT    -0.834000       15.9994           0
   15044 WT1  4000 TIP3 H1   HT     0.417000        1.0080           0
   15045 WT1  4000 TIP3 H2   HT     0.417000        1.0080           0
   15046 WT1  4001 TIP3 OH2  OT    -0.834000       15.9994           0
   15047 WT1  4001 TIP3 H1   HT     0.417000        1.0080           0
   15048 WT1  4001 TIP3 H2   HT     0.417000        1.0080           0
   15049 WT1  4002 TIP3 OH2  OT    -0.834000       15.9994           0
   15050 WT1  4002 TIP3 H1   HT     0.417000        1.0080           0
   15051 WT1  4002 TIP3 H2   HT     0.417000        1.0080           0
   15052 WT1  4004 TIP3 OH2  OT    -0.834000       15.9994           0
   15053 WT1  4004 TIP3 H1   HT     0.417000        1.0080           0
   15054 WT1  4004 TIP3 H2   HT     0.417000        1.0080           0
   15055 WT1  4005 TIP3 OH2  OT    -0.834000       15.9994           0
   15056 WT1  4005 TIP3 H1   HT     0.417000        1.0080           0
   15057 WT1  4005 TIP3 H2   HT     0.417000        1.0080           0
   15058 WT1  4006 TIP3 OH2  OT    -0.834000       15.9994           0
   15059 WT1  4006 TIP3 H1   HT     0.417000        1.0080           0
   15060 WT1  4006 TIP3 H2   HT     0.417000        1.0080           0
   15061 WT1  4007 TIP3 OH2  OT    -0.834000       15.9994           0
   15062 WT1  4007 TIP3 H1   HT     0.417000        1.0080           0
   15063 WT1  4007 TIP3 H2   HT     0.417000        1.0080           0
   15064 WT1  4008 TIP3 OH2  OT    -0.834000       15.9994           0
   15065 WT1  4008 TIP3 H1   HT     0.417000        1.0080           0
   15066 WT1  4008 TIP3 H2   HT     0.417000        1.0080           0
   15067 WT1  4009 TIP3 OH2  OT    -0.834000       15.9994           0
   15068 WT1  4009 TIP3 H1   HT     0.417000        1.0080           0
   15069 WT1  4009 TIP3 H2   HT     0.417000        1.0080           0
   15070 WT1  4010 TIP3 OH2  OT    -0.834000       15.9994           0
   15071 WT1  4010 TIP3 H1   HT     0.417000        1.0080           0
   15072 WT1  4010 TIP3 H2   HT     0.417000        1.0080           0
   15073 WT1  4011 TIP3 OH2  OT    -0.834000       15.9994           0
   15074 WT1  4011 TIP3 H1   HT     0.417000        1.0080           0
   15075 WT1  4011 TIP3 H2   HT     0.417000        1.0080           0
   15076 WT1  4012 TIP3 OH2  OT    -0.834000       15.9994           0
   15077 WT1  4012 TIP3 H1   HT     0.417000        1.0080           0
   15078 WT1  4012 TIP3 H2   HT     0.417000        1.0080           0
   15079 WT1  4013 TIP3 OH2  OT    -0.834000       15.9994           0
   15080 WT1  4013 TIP3 H1   HT     0.417000        1.0080           0
   15081 WT1  4013 TIP3 H2   HT     0.417000        1.0080           0
   15082 WT1  4014 TIP3 OH2  OT    -0.834000       15.9994           0
   15083 WT1  4014 TIP3 H1   HT     0.417000        1.0080           0
   15084 WT1  4014 TIP3 H2   HT     0.417000        1.0080           0
   15085 WT1  4015 TIP3 OH2  OT    -0.834000       15.9994           0
   15086 WT1  4015 TIP3 H1   HT     0.417000        1.0080           0
   15087 WT1  4015 TIP3 H2   HT     0.417000        1.0080           0
   15088 WT1  4016 TIP3 OH2  OT    -0.834000       15.9994           0
   15089 WT1  4016 TIP3 H1   HT     0.417000        1.0080           0
   15090 WT1  4016 TIP3 H2   HT     0.417000        1.0080           0
   15091 WT1  4017 TIP3 OH2  OT    -0.834000       15.9994           0
   15092 WT1  4017 TIP3 H1   HT     0.417000        1.0080           0
   15093 WT1  4017 TIP3 H2   HT     0.417000        1.0080           0
   15094 WT1  4018 TIP3 OH2  OT    -0.834000       15.9994           0
   15095 WT1  4018 TIP3 H1   HT     0.417000        1.0080           0
   15096 WT1  4018 TIP3 H2   HT     0.417000        1.0080           0
   15097 WT1  4019 TIP3 OH2  OT    -0.834000       15.9994           0
   15098 WT1  4019 TIP3 H1   HT     0.417000        1.0080           0
   15099 WT1  4019 TIP3 H2   HT     0.417000        1.0080           0
   15100 WT1  4020 TIP3 OH2  OT    -0.834000       15.9994           0
   15101 WT1  4020 TIP3 H1   HT     0.417000        1.0080           0
   15102 WT1  4020 TIP3 H2   HT     0.417000        1.0080           0
   15103 WT1  4021 TIP3 OH2  OT    -0.834000       15.9994           0
   15104 WT1  4021 TIP3 H1   HT     0.417000        1.0080           0
   15105 WT1  4021 TIP3 H2   HT     0.417000        1.0080           0
   15106 WT1  4022 TIP3 OH2  OT    -0.834000       15.9994           0
   15107 WT1  4022 TIP3 H1   HT     0.417000        1.0080           0
   15108 WT1  4022 TIP3 H2   HT     0.417000        1.0080           0
   15109 WT1  4024 TIP3 OH2  OT    -0.834000       15.9994           0
   15110 WT1  4024 TIP3 H1   HT     0.417000        1.0080           0
   15111 WT1  4024 TIP3 H2   HT     0.417000        1.0080           0
   15112 WT1  4025 TIP3 OH2  OT    -0.834000       15.9994           0
   15113 WT1  4025 TIP3 H1   HT     0.417000        1.0080           0
   15114 WT1  4025 TIP3 H2   HT     0.417000        1.0080           0
   15115 WT1  4026 TIP3 OH2  OT    -0.834000       15.9994           0
   15116 WT1  4026 TIP3 H1   HT     0.417000        1.0080           0
   15117 WT1  4026 TIP3 H2   HT     0.417000        1.0080           0
   15118 WT1  4027 TIP3 OH2  OT    -0.834000       15.9994           0
   15119 WT1  4027 TIP3 H1   HT     0.417000        1.0080           0
   15120 WT1  4027 TIP3 H2   HT     0.417000        1.0080           0
   15121 WT1  4030 TIP3 OH2  OT    -0.834000       15.9994           0
   15122 WT1  4030 TIP3 H1   HT     0.417000        1.0080           0
   15123 WT1  4030 TIP3 H2   HT     0.417000        1.0080           0
   15124 WT1  4033 TIP3 OH2  OT    -0.834000       15.9994           0
   15125 WT1  4033 TIP3 H1   HT     0.417000        1.0080           0
   15126 WT1  4033 TIP3 H2   HT     0.417000        1.0080           0
   15127 WT1  4034 TIP3 OH2  OT    -0.834000       15.9994           0
   15128 WT1  4034 TIP3 H1   HT     0.417000        1.0080           0
   15129 WT1  4034 TIP3 H2   HT     0.417000        1.0080           0
   15130 WT1  4035 TIP3 OH2  OT    -0.834000       15.9994           0
   15131 WT1  4035 TIP3 H1   HT     0.417000        1.0080           0
   15132 WT1  4035 TIP3 H2   HT     0.417000        1.0080           0
   15133 WT1  4036 TIP3 OH2  OT    -0.834000       15.9994           0
   15134 WT1  4036 TIP3 H1   HT     0.417000        1.0080           0
   15135 WT1  4036 TIP3 H2   HT     0.417000        1.0080           0
   15136 WT1  4037 TIP3 OH2  OT    -0.834000       15.9994           0
   15137 WT1  4037 TIP3 H1   HT     0.417000        1.0080           0
   15138 WT1  4037 TIP3 H2   HT     0.417000        1.0080           0
   15139 WT1  4038 TIP3 OH2  OT    -0.834000       15.9994           0
   15140 WT1  4038 TIP3 H1   HT     0.417000        1.0080           0
   15141 WT1  4038 TIP3 H2   HT     0.417000        1.0080           0
   15142 WT1  4039 TIP3 OH2  OT    -0.834000       15.9994           0
   15143 WT1  4039 TIP3 H1   HT     0.417000        1.0080           0
   15144 WT1  4039 TIP3 H2   HT     0.417000        1.0080           0
   15145 WT1  4040 TIP3 OH2  OT    -0.834000       15.9994           0
   15146 WT1  4040 TIP3 H1   HT     0.417000        1.0080           0
   15147 WT1  4040 TIP3 H2   HT     0.417000        1.0080           0
   15148 WT1  4041 TIP3 OH2  OT    -0.834000       15.9994           0
   15149 WT1  4041 TIP3 H1   HT     0.417000        1.0080           0
   15150 WT1  4041 TIP3 H2   HT     0.417000        1.0080           0
   15151 WT1  4042 TIP3 OH2  OT    -0.834000       15.9994           0
   15152 WT1  4042 TIP3 H1   HT     0.417000        1.0080           0
   15153 WT1  4042 TIP3 H2   HT     0.417000        1.0080           0
   15154 WT1  4043 TIP3 OH2  OT    -0.834000       15.9994           0
   15155 WT1  4043 TIP3 H1   HT     0.417000        1.0080           0
   15156 WT1  4043 TIP3 H2   HT     0.417000        1.0080           0
   15157 WT1  4044 TIP3 OH2  OT    -0.834000       15.9994           0
   15158 WT1  4044 TIP3 H1   HT     0.417000        1.0080           0
   15159 WT1  4044 TIP3 H2   HT     0.417000        1.0080           0
   15160 WT1  4045 TIP3 OH2  OT    -0.834000       15.9994           0
   15161 WT1  4045 TIP3 H1   HT     0.417000        1.0080           0
   15162 WT1  4045 TIP3 H2   HT     0.417000        1.0080           0
   15163 WT1  4046 TIP3 OH2  OT    -0.834000       15.9994           0
   15164 WT1  4046 TIP3 H1   HT     0.417000        1.0080           0
   15165 WT1  4046 TIP3 H2   HT     0.417000        1.0080           0
   15166 WT1  4047 TIP3 OH2  OT    -0.834000       15.9994           0
   15167 WT1  4047 TIP3 H1   HT     0.417000        1.0080           0
   15168 WT1  4047 TIP3 H2   HT     0.417000        1.0080           0
   15169 WT1  4048 TIP3 OH2  OT    -0.834000       15.9994           0
   15170 WT1  4048 TIP3 H1   HT     0.417000        1.0080           0
   15171 WT1  4048 TIP3 H2   HT     0.417000        1.0080           0
   15172 WT1  4050 TIP3 OH2  OT    -0.834000       15.9994           0
   15173 WT1  4050 TIP3 H1   HT     0.417000        1.0080           0
   15174 WT1  4050 TIP3 H2   HT     0.417000        1.0080           0
   15175 WT1  4051 TIP3 OH2  OT    -0.834000       15.9994           0
   15176 WT1  4051 TIP3 H1   HT     0.417000        1.0080           0
   15177 WT1  4051 TIP3 H2   HT     0.417000        1.0080           0
   15178 WT1  4053 TIP3 OH2  OT    -0.834000       15.9994           0
   15179 WT1  4053 TIP3 H1   HT     0.417000        1.0080           0
   15180 WT1  4053 TIP3 H2   HT     0.417000        1.0080           0
   15181 WT1  4055 TIP3 OH2  OT    -0.834000       15.9994           0
   15182 WT1  4055 TIP3 H1   HT     0.417000        1.0080           0
   15183 WT1  4055 TIP3 H2   HT     0.417000        1.0080           0
   15184 WT1  4056 TIP3 OH2  OT    -0.834000       15.9994           0
   15185 WT1  4056 TIP3 H1   HT     0.417000        1.0080           0
   15186 WT1  4056 TIP3 H2   HT     0.417000        1.0080           0
   15187 WT1  4057 TIP3 OH2  OT    -0.834000       15.9994           0
   15188 WT1  4057 TIP3 H1   HT     0.417000        1.0080           0
   15189 WT1  4057 TIP3 H2   HT     0.417000        1.0080           0
   15190 WT1  4059 TIP3 OH2  OT    -0.834000       15.9994           0
   15191 WT1  4059 TIP3 H1   HT     0.417000        1.0080           0
   15192 WT1  4059 TIP3 H2   HT     0.417000        1.0080           0
   15193 WT1  4060 TIP3 OH2  OT    -0.834000       15.9994           0
   15194 WT1  4060 TIP3 H1   HT     0.417000        1.0080           0
   15195 WT1  4060 TIP3 H2   HT     0.417000        1.0080           0
   15196 WT1  4061 TIP3 OH2  OT    -0.834000       15.9994           0
   15197 WT1  4061 TIP3 H1   HT     0.417000        1.0080           0
   15198 WT1  4061 TIP3 H2   HT     0.417000        1.0080           0
   15199 WT1  4062 TIP3 OH2  OT    -0.834000       15.9994           0
   15200 WT1  4062 TIP3 H1   HT     0.417000        1.0080           0
   15201 WT1  4062 TIP3 H2   HT     0.417000        1.0080           0
   15202 WT1  4063 TIP3 OH2  OT    -0.834000       15.9994           0
   15203 WT1  4063 TIP3 H1   HT     0.417000        1.0080           0
   15204 WT1  4063 TIP3 H2   HT     0.417000        1.0080           0
   15205 WT1  4064 TIP3 OH2  OT    -0.834000       15.9994           0
   15206 WT1  4064 TIP3 H1   HT     0.417000        1.0080           0
   15207 WT1  4064 TIP3 H2   HT     0.417000        1.0080           0
   15208 WT1  4065 TIP3 OH2  OT    -0.834000       15.9994           0
   15209 WT1  4065 TIP3 H1   HT     0.417000        1.0080           0
   15210 WT1  4065 TIP3 H2   HT     0.417000        1.0080           0
   15211 WT1  4066 TIP3 OH2  OT    -0.834000       15.9994           0
   15212 WT1  4066 TIP3 H1   HT     0.417000        1.0080           0
   15213 WT1  4066 TIP3 H2   HT     0.417000        1.0080           0
   15214 WT1  4067 TIP3 OH2  OT    -0.834000       15.9994           0
   15215 WT1  4067 TIP3 H1   HT     0.417000        1.0080           0
   15216 WT1  4067 TIP3 H2   HT     0.417000        1.0080           0
   15217 WT1  4068 TIP3 OH2  OT    -0.834000       15.9994           0
   15218 WT1  4068 TIP3 H1   HT     0.417000        1.0080           0
   15219 WT1  4068 TIP3 H2   HT     0.417000        1.0080           0
   15220 WT1  4071 TIP3 OH2  OT    -0.834000       15.9994           0
   15221 WT1  4071 TIP3 H1   HT     0.417000        1.0080           0
   15222 WT1  4071 TIP3 H2   HT     0.417000        1.0080           0
   15223 WT1  4072 TIP3 OH2  OT    -0.834000       15.9994           0
   15224 WT1  4072 TIP3 H1   HT     0.417000        1.0080           0
   15225 WT1  4072 TIP3 H2   HT     0.417000        1.0080           0
   15226 WT1  4073 TIP3 OH2  OT    -0.834000       15.9994           0
   15227 WT1  4073 TIP3 H1   HT     0.417000        1.0080           0
   15228 WT1  4073 TIP3 H2   HT     0.417000        1.0080           0
   15229 WT1  4074 TIP3 OH2  OT    -0.834000       15.9994           0
   15230 WT1  4074 TIP3 H1   HT     0.417000        1.0080           0
   15231 WT1  4074 TIP3 H2   HT     0.417000        1.0080           0
   15232 WT1  4075 TIP3 OH2  OT    -0.834000       15.9994           0
   15233 WT1  4075 TIP3 H1   HT     0.417000        1.0080           0
   15234 WT1  4075 TIP3 H2   HT     0.417000        1.0080           0
   15235 WT1  4076 TIP3 OH2  OT    -0.834000       15.9994           0
   15236 WT1  4076 TIP3 H1   HT     0.417000        1.0080           0
   15237 WT1  4076 TIP3 H2   HT     0.417000        1.0080           0
   15238 WT1  4077 TIP3 OH2  OT    -0.834000       15.9994           0
   15239 WT1  4077 TIP3 H1   HT     0.417000        1.0080           0
   15240 WT1  4077 TIP3 H2   HT     0.417000        1.0080           0
   15241 WT1  4078 TIP3 OH2  OT    -0.834000       15.9994           0
   15242 WT1  4078 TIP3 H1   HT     0.417000        1.0080           0
   15243 WT1  4078 TIP3 H2   HT     0.417000        1.0080           0
   15244 WT1  4079 TIP3 OH2  OT    -0.834000       15.9994           0
   15245 WT1  4079 TIP3 H1   HT     0.417000        1.0080           0
   15246 WT1  4079 TIP3 H2   HT     0.417000        1.0080           0
   15247 WT1  4080 TIP3 OH2  OT    -0.834000       15.9994           0
   15248 WT1  4080 TIP3 H1   HT     0.417000        1.0080           0
   15249 WT1  4080 TIP3 H2   HT     0.417000        1.0080           0
   15250 WT1  4081 TIP3 OH2  OT    -0.834000       15.9994           0
   15251 WT1  4081 TIP3 H1   HT     0.417000        1.0080           0
   15252 WT1  4081 TIP3 H2   HT     0.417000        1.0080           0
   15253 WT1  4082 TIP3 OH2  OT    -0.834000       15.9994           0
   15254 WT1  4082 TIP3 H1   HT     0.417000        1.0080           0
   15255 WT1  4082 TIP3 H2   HT     0.417000        1.0080           0
   15256 WT1  4083 TIP3 OH2  OT    -0.834000       15.9994           0
   15257 WT1  4083 TIP3 H1   HT     0.417000        1.0080           0
   15258 WT1  4083 TIP3 H2   HT     0.417000        1.0080           0
   15259 WT1  4084 TIP3 OH2  OT    -0.834000       15.9994           0
   15260 WT1  4084 TIP3 H1   HT     0.417000        1.0080           0
   15261 WT1  4084 TIP3 H2   HT     0.417000        1.0080           0
   15262 WT1  4085 TIP3 OH2  OT    -0.834000       15.9994           0
   15263 WT1  4085 TIP3 H1   HT     0.417000        1.0080           0
   15264 WT1  4085 TIP3 H2   HT     0.417000        1.0080           0
   15265 WT1  4086 TIP3 OH2  OT    -0.834000       15.9994           0
   15266 WT1  4086 TIP3 H1   HT     0.417000        1.0080           0
   15267 WT1  4086 TIP3 H2   HT     0.417000        1.0080           0
   15268 WT1  4087 TIP3 OH2  OT    -0.834000       15.9994           0
   15269 WT1  4087 TIP3 H1   HT     0.417000        1.0080           0
   15270 WT1  4087 TIP3 H2   HT     0.417000        1.0080           0
   15271 WT1  4088 TIP3 OH2  OT    -0.834000       15.9994           0
   15272 WT1  4088 TIP3 H1   HT     0.417000        1.0080           0
   15273 WT1  4088 TIP3 H2   HT     0.417000        1.0080           0
   15274 WT1  4089 TIP3 OH2  OT    -0.834000       15.9994           0
   15275 WT1  4089 TIP3 H1   HT     0.417000        1.0080           0
   15276 WT1  4089 TIP3 H2   HT     0.417000        1.0080           0
   15277 WT1  4091 TIP3 OH2  OT    -0.834000       15.9994           0
   15278 WT1  4091 TIP3 H1   HT     0.417000        1.0080           0
   15279 WT1  4091 TIP3 H2   HT     0.417000        1.0080           0
   15280 WT1  4092 TIP3 OH2  OT    -0.834000       15.9994           0
   15281 WT1  4092 TIP3 H1   HT     0.417000        1.0080           0
   15282 WT1  4092 TIP3 H2   HT     0.417000        1.0080           0
   15283 WT1  4093 TIP3 OH2  OT    -0.834000       15.9994           0
   15284 WT1  4093 TIP3 H1   HT     0.417000        1.0080           0
   15285 WT1  4093 TIP3 H2   HT     0.417000        1.0080           0
   15286 WT1  4095 TIP3 OH2  OT    -0.834000       15.9994           0
   15287 WT1  4095 TIP3 H1   HT     0.417000        1.0080           0
   15288 WT1  4095 TIP3 H2   HT     0.417000        1.0080           0
   15289 WT1  4096 TIP3 OH2  OT    -0.834000       15.9994           0
   15290 WT1  4096 TIP3 H1   HT     0.417000        1.0080           0
   15291 WT1  4096 TIP3 H2   HT     0.417000        1.0080           0
   15292 WT1  4097 TIP3 OH2  OT    -0.834000       15.9994           0
   15293 WT1  4097 TIP3 H1   HT     0.417000        1.0080           0
   15294 WT1  4097 TIP3 H2   HT     0.417000        1.0080           0
   15295 WT1  4098 TIP3 OH2  OT    -0.834000       15.9994           0
   15296 WT1  4098 TIP3 H1   HT     0.417000        1.0080           0
   15297 WT1  4098 TIP3 H2   HT     0.417000        1.0080           0
   15298 WT1  4099 TIP3 OH2  OT    -0.834000       15.9994           0
   15299 WT1  4099 TIP3 H1   HT     0.417000        1.0080           0
   15300 WT1  4099 TIP3 H2   HT     0.417000        1.0080           0
   15301 WT1  4100 TIP3 OH2  OT    -0.834000       15.9994           0
   15302 WT1  4100 TIP3 H1   HT     0.417000        1.0080           0
   15303 WT1  4100 TIP3 H2   HT     0.417000        1.0080           0
   15304 WT1  4101 TIP3 OH2  OT    -0.834000       15.9994           0
   15305 WT1  4101 TIP3 H1   HT     0.417000        1.0080           0
   15306 WT1  4101 TIP3 H2   HT     0.417000        1.0080           0
   15307 WT1  4102 TIP3 OH2  OT    -0.834000       15.9994           0
   15308 WT1  4102 TIP3 H1   HT     0.417000        1.0080           0
   15309 WT1  4102 TIP3 H2   HT     0.417000        1.0080           0
   15310 WT1  4103 TIP3 OH2  OT    -0.834000       15.9994           0
   15311 WT1  4103 TIP3 H1   HT     0.417000        1.0080           0
   15312 WT1  4103 TIP3 H2   HT     0.417000        1.0080           0
   15313 WT1  4104 TIP3 OH2  OT    -0.834000       15.9994           0
   15314 WT1  4104 TIP3 H1   HT     0.417000        1.0080           0
   15315 WT1  4104 TIP3 H2   HT     0.417000        1.0080           0
   15316 WT1  4105 TIP3 OH2  OT    -0.834000       15.9994           0
   15317 WT1  4105 TIP3 H1   HT     0.417000        1.0080           0
   15318 WT1  4105 TIP3 H2   HT     0.417000        1.0080           0
   15319 WT1  4106 TIP3 OH2  OT    -0.834000       15.9994           0
   15320 WT1  4106 TIP3 H1   HT     0.417000        1.0080           0
   15321 WT1  4106 TIP3 H2   HT     0.417000        1.0080           0
   15322 WT1  4107 TIP3 OH2  OT    -0.834000       15.9994           0
   15323 WT1  4107 TIP3 H1   HT     0.417000        1.0080           0
   15324 WT1  4107 TIP3 H2   HT     0.417000        1.0080           0
   15325 WT1  4108 TIP3 OH2  OT    -0.834000       15.9994           0
   15326 WT1  4108 TIP3 H1   HT     0.417000        1.0080           0
   15327 WT1  4108 TIP3 H2   HT     0.417000        1.0080           0
   15328 WT1  4109 TIP3 OH2  OT    -0.834000       15.9994           0
   15329 WT1  4109 TIP3 H1   HT     0.417000        1.0080           0
   15330 WT1  4109 TIP3 H2   HT     0.417000        1.0080           0
   15331 WT1  4110 TIP3 OH2  OT    -0.834000       15.9994           0
   15332 WT1  4110 TIP3 H1   HT     0.417000        1.0080           0
   15333 WT1  4110 TIP3 H2   HT     0.417000        1.0080           0
   15334 WT1  4111 TIP3 OH2  OT    -0.834000       15.9994           0
   15335 WT1  4111 TIP3 H1   HT     0.417000        1.0080           0
   15336 WT1  4111 TIP3 H2   HT     0.417000        1.0080           0
   15337 WT1  4114 TIP3 OH2  OT    -0.834000       15.9994           0
   15338 WT1  4114 TIP3 H1   HT     0.417000        1.0080           0
   15339 WT1  4114 TIP3 H2   HT     0.417000        1.0080           0
   15340 WT1  4115 TIP3 OH2  OT    -0.834000       15.9994           0
   15341 WT1  4115 TIP3 H1   HT     0.417000        1.0080           0
   15342 WT1  4115 TIP3 H2   HT     0.417000        1.0080           0
   15343 WT1  4116 TIP3 OH2  OT    -0.834000       15.9994           0
   15344 WT1  4116 TIP3 H1   HT     0.417000        1.0080           0
   15345 WT1  4116 TIP3 H2   HT     0.417000        1.0080           0
   15346 WT1  4117 TIP3 OH2  OT    -0.834000       15.9994           0
   15347 WT1  4117 TIP3 H1   HT     0.417000        1.0080           0
   15348 WT1  4117 TIP3 H2   HT     0.417000        1.0080           0
   15349 WT1  4118 TIP3 OH2  OT    -0.834000       15.9994           0
   15350 WT1  4118 TIP3 H1   HT     0.417000        1.0080           0
   15351 WT1  4118 TIP3 H2   HT     0.417000        1.0080           0
   15352 WT1  4119 TIP3 OH2  OT    -0.834000       15.9994           0
   15353 WT1  4119 TIP3 H1   HT     0.417000        1.0080           0
   15354 WT1  4119 TIP3 H2   HT     0.417000        1.0080           0
   15355 WT1  4120 TIP3 OH2  OT    -0.834000       15.9994           0
   15356 WT1  4120 TIP3 H1   HT     0.417000        1.0080           0
   15357 WT1  4120 TIP3 H2   HT     0.417000        1.0080           0
   15358 WT1  4121 TIP3 OH2  OT    -0.834000       15.9994           0
   15359 WT1  4121 TIP3 H1   HT     0.417000        1.0080           0
   15360 WT1  4121 TIP3 H2   HT     0.417000        1.0080           0
   15361 WT1  4122 TIP3 OH2  OT    -0.834000       15.9994           0
   15362 WT1  4122 TIP3 H1   HT     0.417000        1.0080           0
   15363 WT1  4122 TIP3 H2   HT     0.417000        1.0080           0
   15364 WT1  4123 TIP3 OH2  OT    -0.834000       15.9994           0
   15365 WT1  4123 TIP3 H1   HT     0.417000        1.0080           0
   15366 WT1  4123 TIP3 H2   HT     0.417000        1.0080           0
   15367 WT1  4124 TIP3 OH2  OT    -0.834000       15.9994           0
   15368 WT1  4124 TIP3 H1   HT     0.417000        1.0080           0
   15369 WT1  4124 TIP3 H2   HT     0.417000        1.0080           0
   15370 WT1  4125 TIP3 OH2  OT    -0.834000       15.9994           0
   15371 WT1  4125 TIP3 H1   HT     0.417000        1.0080           0
   15372 WT1  4125 TIP3 H2   HT     0.417000        1.0080           0
   15373 WT1  4126 TIP3 OH2  OT    -0.834000       15.9994           0
   15374 WT1  4126 TIP3 H1   HT     0.417000        1.0080           0
   15375 WT1  4126 TIP3 H2   HT     0.417000        1.0080           0
   15376 WT1  4127 TIP3 OH2  OT    -0.834000       15.9994           0
   15377 WT1  4127 TIP3 H1   HT     0.417000        1.0080           0
   15378 WT1  4127 TIP3 H2   HT     0.417000        1.0080           0
   15379 WT1  4128 TIP3 OH2  OT    -0.834000       15.9994           0
   15380 WT1  4128 TIP3 H1   HT     0.417000        1.0080           0
   15381 WT1  4128 TIP3 H2   HT     0.417000        1.0080           0
   15382 WT1  4129 TIP3 OH2  OT    -0.834000       15.9994           0
   15383 WT1  4129 TIP3 H1   HT     0.417000        1.0080           0
   15384 WT1  4129 TIP3 H2   HT     0.417000        1.0080           0
   15385 WT1  4131 TIP3 OH2  OT    -0.834000       15.9994           0
   15386 WT1  4131 TIP3 H1   HT     0.417000        1.0080           0
   15387 WT1  4131 TIP3 H2   HT     0.417000        1.0080           0
   15388 WT1  4133 TIP3 OH2  OT    -0.834000       15.9994           0
   15389 WT1  4133 TIP3 H1   HT     0.417000        1.0080           0
   15390 WT1  4133 TIP3 H2   HT     0.417000        1.0080           0
   15391 WT1  4135 TIP3 OH2  OT    -0.834000       15.9994           0
   15392 WT1  4135 TIP3 H1   HT     0.417000        1.0080           0
   15393 WT1  4135 TIP3 H2   HT     0.417000        1.0080           0
   15394 WT1  4136 TIP3 OH2  OT    -0.834000       15.9994           0
   15395 WT1  4136 TIP3 H1   HT     0.417000        1.0080           0
   15396 WT1  4136 TIP3 H2   HT     0.417000        1.0080           0
   15397 WT1  4138 TIP3 OH2  OT    -0.834000       15.9994           0
   15398 WT1  4138 TIP3 H1   HT     0.417000        1.0080           0
   15399 WT1  4138 TIP3 H2   HT     0.417000        1.0080           0
   15400 WT1  4139 TIP3 OH2  OT    -0.834000       15.9994           0
   15401 WT1  4139 TIP3 H1   HT     0.417000        1.0080           0
   15402 WT1  4139 TIP3 H2   HT     0.417000        1.0080           0
   15403 WT1  4140 TIP3 OH2  OT    -0.834000       15.9994           0
   15404 WT1  4140 TIP3 H1   HT     0.417000        1.0080           0
   15405 WT1  4140 TIP3 H2   HT     0.417000        1.0080           0
   15406 WT1  4141 TIP3 OH2  OT    -0.834000       15.9994           0
   15407 WT1  4141 TIP3 H1   HT     0.417000        1.0080           0
   15408 WT1  4141 TIP3 H2   HT     0.417000        1.0080           0
   15409 WT1  4142 TIP3 OH2  OT    -0.834000       15.9994           0
   15410 WT1  4142 TIP3 H1   HT     0.417000        1.0080           0
   15411 WT1  4142 TIP3 H2   HT     0.417000        1.0080           0
   15412 WT1  4143 TIP3 OH2  OT    -0.834000       15.9994           0
   15413 WT1  4143 TIP3 H1   HT     0.417000        1.0080           0
   15414 WT1  4143 TIP3 H2   HT     0.417000        1.0080           0
   15415 WT1  4144 TIP3 OH2  OT    -0.834000       15.9994           0
   15416 WT1  4144 TIP3 H1   HT     0.417000        1.0080           0
   15417 WT1  4144 TIP3 H2   HT     0.417000        1.0080           0
   15418 WT1  4145 TIP3 OH2  OT    -0.834000       15.9994           0
   15419 WT1  4145 TIP3 H1   HT     0.417000        1.0080           0
   15420 WT1  4145 TIP3 H2   HT     0.417000        1.0080           0
   15421 WT1  4146 TIP3 OH2  OT    -0.834000       15.9994           0
   15422 WT1  4146 TIP3 H1   HT     0.417000        1.0080           0
   15423 WT1  4146 TIP3 H2   HT     0.417000        1.0080           0
   15424 WT1  4147 TIP3 OH2  OT    -0.834000       15.9994           0
   15425 WT1  4147 TIP3 H1   HT     0.417000        1.0080           0
   15426 WT1  4147 TIP3 H2   HT     0.417000        1.0080           0
   15427 WT1  4148 TIP3 OH2  OT    -0.834000       15.9994           0
   15428 WT1  4148 TIP3 H1   HT     0.417000        1.0080           0
   15429 WT1  4148 TIP3 H2   HT     0.417000        1.0080           0
   15430 WT1  4149 TIP3 OH2  OT    -0.834000       15.9994           0
   15431 WT1  4149 TIP3 H1   HT     0.417000        1.0080           0
   15432 WT1  4149 TIP3 H2   HT     0.417000        1.0080           0
   15433 WT1  4150 TIP3 OH2  OT    -0.834000       15.9994           0
   15434 WT1  4150 TIP3 H1   HT     0.417000        1.0080           0
   15435 WT1  4150 TIP3 H2   HT     0.417000        1.0080           0
   15436 WT1  4151 TIP3 OH2  OT    -0.834000       15.9994           0
   15437 WT1  4151 TIP3 H1   HT     0.417000        1.0080           0
   15438 WT1  4151 TIP3 H2   HT     0.417000        1.0080           0
   15439 WT1  4152 TIP3 OH2  OT    -0.834000       15.9994           0
   15440 WT1  4152 TIP3 H1   HT     0.417000        1.0080           0
   15441 WT1  4152 TIP3 H2   HT     0.417000        1.0080           0
   15442 WT1  4154 TIP3 OH2  OT    -0.834000       15.9994           0
   15443 WT1  4154 TIP3 H1   HT     0.417000        1.0080           0
   15444 WT1  4154 TIP3 H2   HT     0.417000        1.0080           0
   15445 WT1  4155 TIP3 OH2  OT    -0.834000       15.9994           0
   15446 WT1  4155 TIP3 H1   HT     0.417000        1.0080           0
   15447 WT1  4155 TIP3 H2   HT     0.417000        1.0080           0
   15448 WT1  4156 TIP3 OH2  OT    -0.834000       15.9994           0
   15449 WT1  4156 TIP3 H1   HT     0.417000        1.0080           0
   15450 WT1  4156 TIP3 H2   HT     0.417000        1.0080           0
   15451 WT1  4157 TIP3 OH2  OT    -0.834000       15.9994           0
   15452 WT1  4157 TIP3 H1   HT     0.417000        1.0080           0
   15453 WT1  4157 TIP3 H2   HT     0.417000        1.0080           0
   15454 WT1  4158 TIP3 OH2  OT    -0.834000       15.9994           0
   15455 WT1  4158 TIP3 H1   HT     0.417000        1.0080           0
   15456 WT1  4158 TIP3 H2   HT     0.417000        1.0080           0
   15457 WT1  4159 TIP3 OH2  OT    -0.834000       15.9994           0
   15458 WT1  4159 TIP3 H1   HT     0.417000        1.0080           0
   15459 WT1  4159 TIP3 H2   HT     0.417000        1.0080           0
   15460 WT1  4160 TIP3 OH2  OT    -0.834000       15.9994           0
   15461 WT1  4160 TIP3 H1   HT     0.417000        1.0080           0
   15462 WT1  4160 TIP3 H2   HT     0.417000        1.0080           0
   15463 WT1  4161 TIP3 OH2  OT    -0.834000       15.9994           0
   15464 WT1  4161 TIP3 H1   HT     0.417000        1.0080           0
   15465 WT1  4161 TIP3 H2   HT     0.417000        1.0080           0
   15466 WT1  4162 TIP3 OH2  OT    -0.834000       15.9994           0
   15467 WT1  4162 TIP3 H1   HT     0.417000        1.0080           0
   15468 WT1  4162 TIP3 H2   HT     0.417000        1.0080           0
   15469 WT1  4163 TIP3 OH2  OT    -0.834000       15.9994           0
   15470 WT1  4163 TIP3 H1   HT     0.417000        1.0080           0
   15471 WT1  4163 TIP3 H2   HT     0.417000        1.0080           0
   15472 WT1  4164 TIP3 OH2  OT    -0.834000       15.9994           0
   15473 WT1  4164 TIP3 H1   HT     0.417000        1.0080           0
   15474 WT1  4164 TIP3 H2   HT     0.417000        1.0080           0
   15475 WT1  4165 TIP3 OH2  OT    -0.834000       15.9994           0
   15476 WT1  4165 TIP3 H1   HT     0.417000        1.0080           0
   15477 WT1  4165 TIP3 H2   HT     0.417000        1.0080           0
   15478 WT1  4166 TIP3 OH2  OT    -0.834000       15.9994           0
   15479 WT1  4166 TIP3 H1   HT     0.417000        1.0080           0
   15480 WT1  4166 TIP3 H2   HT     0.417000        1.0080           0
   15481 WT1  4167 TIP3 OH2  OT    -0.834000       15.9994           0
   15482 WT1  4167 TIP3 H1   HT     0.417000        1.0080           0
   15483 WT1  4167 TIP3 H2   HT     0.417000        1.0080           0
   15484 WT1  4168 TIP3 OH2  OT    -0.834000       15.9994           0
   15485 WT1  4168 TIP3 H1   HT     0.417000        1.0080           0
   15486 WT1  4168 TIP3 H2   HT     0.417000        1.0080           0
   15487 WT1  4170 TIP3 OH2  OT    -0.834000       15.9994           0
   15488 WT1  4170 TIP3 H1   HT     0.417000        1.0080           0
   15489 WT1  4170 TIP3 H2   HT     0.417000        1.0080           0
   15490 WT1  4171 TIP3 OH2  OT    -0.834000       15.9994           0
   15491 WT1  4171 TIP3 H1   HT     0.417000        1.0080           0
   15492 WT1  4171 TIP3 H2   HT     0.417000        1.0080           0
   15493 WT1  4172 TIP3 OH2  OT    -0.834000       15.9994           0
   15494 WT1  4172 TIP3 H1   HT     0.417000        1.0080           0
   15495 WT1  4172 TIP3 H2   HT     0.417000        1.0080           0
   15496 WT1  4174 TIP3 OH2  OT    -0.834000       15.9994           0
   15497 WT1  4174 TIP3 H1   HT     0.417000        1.0080           0
   15498 WT1  4174 TIP3 H2   HT     0.417000        1.0080           0
   15499 WT1  4175 TIP3 OH2  OT    -0.834000       15.9994           0
   15500 WT1  4175 TIP3 H1   HT     0.417000        1.0080           0
   15501 WT1  4175 TIP3 H2   HT     0.417000        1.0080           0
   15502 WT1  4176 TIP3 OH2  OT    -0.834000       15.9994           0
   15503 WT1  4176 TIP3 H1   HT     0.417000        1.0080           0
   15504 WT1  4176 TIP3 H2   HT     0.417000        1.0080           0
   15505 WT1  4177 TIP3 OH2  OT    -0.834000       15.9994           0
   15506 WT1  4177 TIP3 H1   HT     0.417000        1.0080           0
   15507 WT1  4177 TIP3 H2   HT     0.417000        1.0080           0
   15508 WT1  4179 TIP3 OH2  OT    -0.834000       15.9994           0
   15509 WT1  4179 TIP3 H1   HT     0.417000        1.0080           0
   15510 WT1  4179 TIP3 H2   HT     0.417000        1.0080           0
   15511 WT1  4181 TIP3 OH2  OT    -0.834000       15.9994           0
   15512 WT1  4181 TIP3 H1   HT     0.417000        1.0080           0
   15513 WT1  4181 TIP3 H2   HT     0.417000        1.0080           0
   15514 WT1  4182 TIP3 OH2  OT    -0.834000       15.9994           0
   15515 WT1  4182 TIP3 H1   HT     0.417000        1.0080           0
   15516 WT1  4182 TIP3 H2   HT     0.417000        1.0080           0
   15517 WT1  4183 TIP3 OH2  OT    -0.834000       15.9994           0
   15518 WT1  4183 TIP3 H1   HT     0.417000        1.0080           0
   15519 WT1  4183 TIP3 H2   HT     0.417000        1.0080           0
   15520 WT1  4184 TIP3 OH2  OT    -0.834000       15.9994           0
   15521 WT1  4184 TIP3 H1   HT     0.417000        1.0080           0
   15522 WT1  4184 TIP3 H2   HT     0.417000        1.0080           0
   15523 WT1  4185 TIP3 OH2  OT    -0.834000       15.9994           0
   15524 WT1  4185 TIP3 H1   HT     0.417000        1.0080           0
   15525 WT1  4185 TIP3 H2   HT     0.417000        1.0080           0
   15526 WT1  4187 TIP3 OH2  OT    -0.834000       15.9994           0
   15527 WT1  4187 TIP3 H1   HT     0.417000        1.0080           0
   15528 WT1  4187 TIP3 H2   HT     0.417000        1.0080           0
   15529 WT1  4188 TIP3 OH2  OT    -0.834000       15.9994           0
   15530 WT1  4188 TIP3 H1   HT     0.417000        1.0080           0
   15531 WT1  4188 TIP3 H2   HT     0.417000        1.0080           0
   15532 WT1  4189 TIP3 OH2  OT    -0.834000       15.9994           0
   15533 WT1  4189 TIP3 H1   HT     0.417000        1.0080           0
   15534 WT1  4189 TIP3 H2   HT     0.417000        1.0080           0
   15535 WT1  4190 TIP3 OH2  OT    -0.834000       15.9994           0
   15536 WT1  4190 TIP3 H1   HT     0.417000        1.0080           0
   15537 WT1  4190 TIP3 H2   HT     0.417000        1.0080           0
   15538 WT1  4191 TIP3 OH2  OT    -0.834000       15.9994           0
   15539 WT1  4191 TIP3 H1   HT     0.417000        1.0080           0
   15540 WT1  4191 TIP3 H2   HT     0.417000        1.0080           0
   15541 WT1  4192 TIP3 OH2  OT    -0.834000       15.9994           0
   15542 WT1  4192 TIP3 H1   HT     0.417000        1.0080           0
   15543 WT1  4192 TIP3 H2   HT     0.417000        1.0080           0
   15544 WT1  4193 TIP3 OH2  OT    -0.834000       15.9994           0
   15545 WT1  4193 TIP3 H1   HT     0.417000        1.0080           0
   15546 WT1  4193 TIP3 H2   HT     0.417000        1.0080           0
   15547 WT1  4194 TIP3 OH2  OT    -0.834000       15.9994           0
   15548 WT1  4194 TIP3 H1   HT     0.417000        1.0080           0
   15549 WT1  4194 TIP3 H2   HT     0.417000        1.0080           0
   15550 WT1  4195 TIP3 OH2  OT    -0.834000       15.9994           0
   15551 WT1  4195 TIP3 H1   HT     0.417000        1.0080           0
   15552 WT1  4195 TIP3 H2   HT     0.417000        1.0080           0
   15553 WT1  4196 TIP3 OH2  OT    -0.834000       15.9994           0
   15554 WT1  4196 TIP3 H1   HT     0.417000        1.0080           0
   15555 WT1  4196 TIP3 H2   HT     0.417000        1.0080           0
   15556 WT1  4198 TIP3 OH2  OT    -0.834000       15.9994           0
   15557 WT1  4198 TIP3 H1   HT     0.417000        1.0080           0
   15558 WT1  4198 TIP3 H2   HT     0.417000        1.0080           0
   15559 WT1  4199 TIP3 OH2  OT    -0.834000       15.9994           0
   15560 WT1  4199 TIP3 H1   HT     0.417000        1.0080           0
   15561 WT1  4199 TIP3 H2   HT     0.417000        1.0080           0
   15562 WT1  4200 TIP3 OH2  OT    -0.834000       15.9994           0
   15563 WT1  4200 TIP3 H1   HT     0.417000        1.0080           0
   15564 WT1  4200 TIP3 H2   HT     0.417000        1.0080           0
   15565 WT1  4201 TIP3 OH2  OT    -0.834000       15.9994           0
   15566 WT1  4201 TIP3 H1   HT     0.417000        1.0080           0
   15567 WT1  4201 TIP3 H2   HT     0.417000        1.0080           0
   15568 WT1  4202 TIP3 OH2  OT    -0.834000       15.9994           0
   15569 WT1  4202 TIP3 H1   HT     0.417000        1.0080           0
   15570 WT1  4202 TIP3 H2   HT     0.417000        1.0080           0
   15571 WT1  4205 TIP3 OH2  OT    -0.834000       15.9994           0
   15572 WT1  4205 TIP3 H1   HT     0.417000        1.0080           0
   15573 WT1  4205 TIP3 H2   HT     0.417000        1.0080           0
   15574 WT1  4206 TIP3 OH2  OT    -0.834000       15.9994           0
   15575 WT1  4206 TIP3 H1   HT     0.417000        1.0080           0
   15576 WT1  4206 TIP3 H2   HT     0.417000        1.0080           0
   15577 WT1  4207 TIP3 OH2  OT    -0.834000       15.9994           0
   15578 WT1  4207 TIP3 H1   HT     0.417000        1.0080           0
   15579 WT1  4207 TIP3 H2   HT     0.417000        1.0080           0
   15580 WT1  4208 TIP3 OH2  OT    -0.834000       15.9994           0
   15581 WT1  4208 TIP3 H1   HT     0.417000        1.0080           0
   15582 WT1  4208 TIP3 H2   HT     0.417000        1.0080           0
   15583 WT1  4209 TIP3 OH2  OT    -0.834000       15.9994           0
   15584 WT1  4209 TIP3 H1   HT     0.417000        1.0080           0
   15585 WT1  4209 TIP3 H2   HT     0.417000        1.0080           0
   15586 WT1  4210 TIP3 OH2  OT    -0.834000       15.9994           0
   15587 WT1  4210 TIP3 H1   HT     0.417000        1.0080           0
   15588 WT1  4210 TIP3 H2   HT     0.417000        1.0080           0
   15589 WT1  4211 TIP3 OH2  OT    -0.834000       15.9994           0
   15590 WT1  4211 TIP3 H1   HT     0.417000        1.0080           0
   15591 WT1  4211 TIP3 H2   HT     0.417000        1.0080           0
   15592 WT1  4212 TIP3 OH2  OT    -0.834000       15.9994           0
   15593 WT1  4212 TIP3 H1   HT     0.417000        1.0080           0
   15594 WT1  4212 TIP3 H2   HT     0.417000        1.0080           0
   15595 WT1  4213 TIP3 OH2  OT    -0.834000       15.9994           0
   15596 WT1  4213 TIP3 H1   HT     0.417000        1.0080           0
   15597 WT1  4213 TIP3 H2   HT     0.417000        1.0080           0
   15598 WT1  4214 TIP3 OH2  OT    -0.834000       15.9994           0
   15599 WT1  4214 TIP3 H1   HT     0.417000        1.0080           0
   15600 WT1  4214 TIP3 H2   HT     0.417000        1.0080           0
   15601 WT1  4215 TIP3 OH2  OT    -0.834000       15.9994           0
   15602 WT1  4215 TIP3 H1   HT     0.417000        1.0080           0
   15603 WT1  4215 TIP3 H2   HT     0.417000        1.0080           0
   15604 WT1  4216 TIP3 OH2  OT    -0.834000       15.9994           0
   15605 WT1  4216 TIP3 H1   HT     0.417000        1.0080           0
   15606 WT1  4216 TIP3 H2   HT     0.417000        1.0080           0
   15607 WT1  4217 TIP3 OH2  OT    -0.834000       15.9994           0
   15608 WT1  4217 TIP3 H1   HT     0.417000        1.0080           0
   15609 WT1  4217 TIP3 H2   HT     0.417000        1.0080           0
   15610 WT1  4218 TIP3 OH2  OT    -0.834000       15.9994           0
   15611 WT1  4218 TIP3 H1   HT     0.417000        1.0080           0
   15612 WT1  4218 TIP3 H2   HT     0.417000        1.0080           0
   15613 WT1  4219 TIP3 OH2  OT    -0.834000       15.9994           0
   15614 WT1  4219 TIP3 H1   HT     0.417000        1.0080           0
   15615 WT1  4219 TIP3 H2   HT     0.417000        1.0080           0
   15616 WT1  4222 TIP3 OH2  OT    -0.834000       15.9994           0
   15617 WT1  4222 TIP3 H1   HT     0.417000        1.0080           0
   15618 WT1  4222 TIP3 H2   HT     0.417000        1.0080           0
   15619 WT1  4224 TIP3 OH2  OT    -0.834000       15.9994           0
   15620 WT1  4224 TIP3 H1   HT     0.417000        1.0080           0
   15621 WT1  4224 TIP3 H2   HT     0.417000        1.0080           0
   15622 WT1  4225 TIP3 OH2  OT    -0.834000       15.9994           0
   15623 WT1  4225 TIP3 H1   HT     0.417000        1.0080           0
   15624 WT1  4225 TIP3 H2   HT     0.417000        1.0080           0
   15625 WT1  4226 TIP3 OH2  OT    -0.834000       15.9994           0
   15626 WT1  4226 TIP3 H1   HT     0.417000        1.0080           0
   15627 WT1  4226 TIP3 H2   HT     0.417000        1.0080           0
   15628 WT1  4227 TIP3 OH2  OT    -0.834000       15.9994           0
   15629 WT1  4227 TIP3 H1   HT     0.417000        1.0080           0
   15630 WT1  4227 TIP3 H2   HT     0.417000        1.0080           0
   15631 WT1  4228 TIP3 OH2  OT    -0.834000       15.9994           0
   15632 WT1  4228 TIP3 H1   HT     0.417000        1.0080           0
   15633 WT1  4228 TIP3 H2   HT     0.417000        1.0080           0
   15634 WT1  4229 TIP3 OH2  OT    -0.834000       15.9994           0
   15635 WT1  4229 TIP3 H1   HT     0.417000        1.0080           0
   15636 WT1  4229 TIP3 H2   HT     0.417000        1.0080           0
   15637 WT1  4230 TIP3 OH2  OT    -0.834000       15.9994           0
   15638 WT1  4230 TIP3 H1   HT     0.417000        1.0080           0
   15639 WT1  4230 TIP3 H2   HT     0.417000        1.0080           0
   15640 WT1  4231 TIP3 OH2  OT    -0.834000       15.9994           0
   15641 WT1  4231 TIP3 H1   HT     0.417000        1.0080           0
   15642 WT1  4231 TIP3 H2   HT     0.417000        1.0080           0
   15643 WT1  4232 TIP3 OH2  OT    -0.834000       15.9994           0
   15644 WT1  4232 TIP3 H1   HT     0.417000        1.0080           0
   15645 WT1  4232 TIP3 H2   HT     0.417000        1.0080           0
   15646 WT1  4233 TIP3 OH2  OT    -0.834000       15.9994           0
   15647 WT1  4233 TIP3 H1   HT     0.417000        1.0080           0
   15648 WT1  4233 TIP3 H2   HT     0.417000        1.0080           0
   15649 WT1  4234 TIP3 OH2  OT    -0.834000       15.9994           0
   15650 WT1  4234 TIP3 H1   HT     0.417000        1.0080           0
   15651 WT1  4234 TIP3 H2   HT     0.417000        1.0080           0
   15652 WT1  4235 TIP3 OH2  OT    -0.834000       15.9994           0
   15653 WT1  4235 TIP3 H1   HT     0.417000        1.0080           0
   15654 WT1  4235 TIP3 H2   HT     0.417000        1.0080           0
   15655 WT1  4236 TIP3 OH2  OT    -0.834000       15.9994           0
   15656 WT1  4236 TIP3 H1   HT     0.417000        1.0080           0
   15657 WT1  4236 TIP3 H2   HT     0.417000        1.0080           0
   15658 WT1  4238 TIP3 OH2  OT    -0.834000       15.9994           0
   15659 WT1  4238 TIP3 H1   HT     0.417000        1.0080           0
   15660 WT1  4238 TIP3 H2   HT     0.417000        1.0080           0
   15661 WT1  4246 TIP3 OH2  OT    -0.834000       15.9994           0
   15662 WT1  4246 TIP3 H1   HT     0.417000        1.0080           0
   15663 WT1  4246 TIP3 H2   HT     0.417000        1.0080           0
   15664 WT1  4248 TIP3 OH2  OT    -0.834000       15.9994           0
   15665 WT1  4248 TIP3 H1   HT     0.417000        1.0080           0
   15666 WT1  4248 TIP3 H2   HT     0.417000        1.0080           0
   15667 WT1  4249 TIP3 OH2  OT    -0.834000       15.9994           0
   15668 WT1  4249 TIP3 H1   HT     0.417000        1.0080           0
   15669 WT1  4249 TIP3 H2   HT     0.417000        1.0080           0
   15670 WT1  4250 TIP3 OH2  OT    -0.834000       15.9994           0
   15671 WT1  4250 TIP3 H1   HT     0.417000        1.0080           0
   15672 WT1  4250 TIP3 H2   HT     0.417000        1.0080           0
   15673 WT1  4251 TIP3 OH2  OT    -0.834000       15.9994           0
   15674 WT1  4251 TIP3 H1   HT     0.417000        1.0080           0
   15675 WT1  4251 TIP3 H2   HT     0.417000        1.0080           0
   15676 WT1  4252 TIP3 OH2  OT    -0.834000       15.9994           0
   15677 WT1  4252 TIP3 H1   HT     0.417000        1.0080           0
   15678 WT1  4252 TIP3 H2   HT     0.417000        1.0080           0
   15679 WT1  4254 TIP3 OH2  OT    -0.834000       15.9994           0
   15680 WT1  4254 TIP3 H1   HT     0.417000        1.0080           0
   15681 WT1  4254 TIP3 H2   HT     0.417000        1.0080           0
   15682 WT1  4255 TIP3 OH2  OT    -0.834000       15.9994           0
   15683 WT1  4255 TIP3 H1   HT     0.417000        1.0080           0
   15684 WT1  4255 TIP3 H2   HT     0.417000        1.0080           0
   15685 WT1  4256 TIP3 OH2  OT    -0.834000       15.9994           0
   15686 WT1  4256 TIP3 H1   HT     0.417000        1.0080           0
   15687 WT1  4256 TIP3 H2   HT     0.417000        1.0080           0
   15688 WT1  4257 TIP3 OH2  OT    -0.834000       15.9994           0
   15689 WT1  4257 TIP3 H1   HT     0.417000        1.0080           0
   15690 WT1  4257 TIP3 H2   HT     0.417000        1.0080           0
   15691 WT1  4260 TIP3 OH2  OT    -0.834000       15.9994           0
   15692 WT1  4260 TIP3 H1   HT     0.417000        1.0080           0
   15693 WT1  4260 TIP3 H2   HT     0.417000        1.0080           0
   15694 WT1  4262 TIP3 OH2  OT    -0.834000       15.9994           0
   15695 WT1  4262 TIP3 H1   HT     0.417000        1.0080           0
   15696 WT1  4262 TIP3 H2   HT     0.417000        1.0080           0
   15697 WT1  4263 TIP3 OH2  OT    -0.834000       15.9994           0
   15698 WT1  4263 TIP3 H1   HT     0.417000        1.0080           0
   15699 WT1  4263 TIP3 H2   HT     0.417000        1.0080           0
   15700 WT1  4264 TIP3 OH2  OT    -0.834000       15.9994           0
   15701 WT1  4264 TIP3 H1   HT     0.417000        1.0080           0
   15702 WT1  4264 TIP3 H2   HT     0.417000        1.0080           0
   15703 WT1  4266 TIP3 OH2  OT    -0.834000       15.9994           0
   15704 WT1  4266 TIP3 H1   HT     0.417000        1.0080           0
   15705 WT1  4266 TIP3 H2   HT     0.417000        1.0080           0
   15706 WT1  4267 TIP3 OH2  OT    -0.834000       15.9994           0
   15707 WT1  4267 TIP3 H1   HT     0.417000        1.0080           0
   15708 WT1  4267 TIP3 H2   HT     0.417000        1.0080           0
   15709 WT1  4268 TIP3 OH2  OT    -0.834000       15.9994           0
   15710 WT1  4268 TIP3 H1   HT     0.417000        1.0080           0
   15711 WT1  4268 TIP3 H2   HT     0.417000        1.0080           0
   15712 WT1  4269 TIP3 OH2  OT    -0.834000       15.9994           0
   15713 WT1  4269 TIP3 H1   HT     0.417000        1.0080           0
   15714 WT1  4269 TIP3 H2   HT     0.417000        1.0080           0
   15715 WT1  4270 TIP3 OH2  OT    -0.834000       15.9994           0
   15716 WT1  4270 TIP3 H1   HT     0.417000        1.0080           0
   15717 WT1  4270 TIP3 H2   HT     0.417000        1.0080           0
   15718 WT1  4272 TIP3 OH2  OT    -0.834000       15.9994           0
   15719 WT1  4272 TIP3 H1   HT     0.417000        1.0080           0
   15720 WT1  4272 TIP3 H2   HT     0.417000        1.0080           0
   15721 WT1  4273 TIP3 OH2  OT    -0.834000       15.9994           0
   15722 WT1  4273 TIP3 H1   HT     0.417000        1.0080           0
   15723 WT1  4273 TIP3 H2   HT     0.417000        1.0080           0
   15724 WT1  4274 TIP3 OH2  OT    -0.834000       15.9994           0
   15725 WT1  4274 TIP3 H1   HT     0.417000        1.0080           0
   15726 WT1  4274 TIP3 H2   HT     0.417000        1.0080           0
   15727 WT1  4275 TIP3 OH2  OT    -0.834000       15.9994           0
   15728 WT1  4275 TIP3 H1   HT     0.417000        1.0080           0
   15729 WT1  4275 TIP3 H2   HT     0.417000        1.0080           0
   15730 WT1  4276 TIP3 OH2  OT    -0.834000       15.9994           0
   15731 WT1  4276 TIP3 H1   HT     0.417000        1.0080           0
   15732 WT1  4276 TIP3 H2   HT     0.417000        1.0080           0
   15733 WT1  4277 TIP3 OH2  OT    -0.834000       15.9994           0
   15734 WT1  4277 TIP3 H1   HT     0.417000        1.0080           0
   15735 WT1  4277 TIP3 H2   HT     0.417000        1.0080           0
   15736 WT1  4278 TIP3 OH2  OT    -0.834000       15.9994           0
   15737 WT1  4278 TIP3 H1   HT     0.417000        1.0080           0
   15738 WT1  4278 TIP3 H2   HT     0.417000        1.0080           0
   15739 WT1  4280 TIP3 OH2  OT    -0.834000       15.9994           0
   15740 WT1  4280 TIP3 H1   HT     0.417000        1.0080           0
   15741 WT1  4280 TIP3 H2   HT     0.417000        1.0080           0
   15742 WT1  4282 TIP3 OH2  OT    -0.834000       15.9994           0
   15743 WT1  4282 TIP3 H1   HT     0.417000        1.0080           0
   15744 WT1  4282 TIP3 H2   HT     0.417000        1.0080           0
   15745 WT1  4283 TIP3 OH2  OT    -0.834000       15.9994           0
   15746 WT1  4283 TIP3 H1   HT     0.417000        1.0080           0
   15747 WT1  4283 TIP3 H2   HT     0.417000        1.0080           0
   15748 WT1  4284 TIP3 OH2  OT    -0.834000       15.9994           0
   15749 WT1  4284 TIP3 H1   HT     0.417000        1.0080           0
   15750 WT1  4284 TIP3 H2   HT     0.417000        1.0080           0
   15751 WT1  4285 TIP3 OH2  OT    -0.834000       15.9994           0
   15752 WT1  4285 TIP3 H1   HT     0.417000        1.0080           0
   15753 WT1  4285 TIP3 H2   HT     0.417000        1.0080           0
   15754 WT1  4286 TIP3 OH2  OT    -0.834000       15.9994           0
   15755 WT1  4286 TIP3 H1   HT     0.417000        1.0080           0
   15756 WT1  4286 TIP3 H2   HT     0.417000        1.0080           0
   15757 WT1  4287 TIP3 OH2  OT    -0.834000       15.9994           0
   15758 WT1  4287 TIP3 H1   HT     0.417000        1.0080           0
   15759 WT1  4287 TIP3 H2   HT     0.417000        1.0080           0
   15760 WT1  4288 TIP3 OH2  OT    -0.834000       15.9994           0
   15761 WT1  4288 TIP3 H1   HT     0.417000        1.0080           0
   15762 WT1  4288 TIP3 H2   HT     0.417000        1.0080           0
   15763 WT1  4289 TIP3 OH2  OT    -0.834000       15.9994           0
   15764 WT1  4289 TIP3 H1   HT     0.417000        1.0080           0
   15765 WT1  4289 TIP3 H2   HT     0.417000        1.0080           0
   15766 WT1  4290 TIP3 OH2  OT    -0.834000       15.9994           0
   15767 WT1  4290 TIP3 H1   HT     0.417000        1.0080           0
   15768 WT1  4290 TIP3 H2   HT     0.417000        1.0080           0
   15769 WT1  4291 TIP3 OH2  OT    -0.834000       15.9994           0
   15770 WT1  4291 TIP3 H1   HT     0.417000        1.0080           0
   15771 WT1  4291 TIP3 H2   HT     0.417000        1.0080           0
   15772 WT1  4292 TIP3 OH2  OT    -0.834000       15.9994           0
   15773 WT1  4292 TIP3 H1   HT     0.417000        1.0080           0
   15774 WT1  4292 TIP3 H2   HT     0.417000        1.0080           0
   15775 WT1  4293 TIP3 OH2  OT    -0.834000       15.9994           0
   15776 WT1  4293 TIP3 H1   HT     0.417000        1.0080           0
   15777 WT1  4293 TIP3 H2   HT     0.417000        1.0080           0
   15778 WT1  4294 TIP3 OH2  OT    -0.834000       15.9994           0
   15779 WT1  4294 TIP3 H1   HT     0.417000        1.0080           0
   15780 WT1  4294 TIP3 H2   HT     0.417000        1.0080           0
   15781 WT1  4295 TIP3 OH2  OT    -0.834000       15.9994           0
   15782 WT1  4295 TIP3 H1   HT     0.417000        1.0080           0
   15783 WT1  4295 TIP3 H2   HT     0.417000        1.0080           0
   15784 WT1  4296 TIP3 OH2  OT    -0.834000       15.9994           0
   15785 WT1  4296 TIP3 H1   HT     0.417000        1.0080           0
   15786 WT1  4296 TIP3 H2   HT     0.417000        1.0080           0
   15787 WT1  4297 TIP3 OH2  OT    -0.834000       15.9994           0
   15788 WT1  4297 TIP3 H1   HT     0.417000        1.0080           0
   15789 WT1  4297 TIP3 H2   HT     0.417000        1.0080           0
   15790 WT1  4298 TIP3 OH2  OT    -0.834000       15.9994           0
   15791 WT1  4298 TIP3 H1   HT     0.417000        1.0080           0
   15792 WT1  4298 TIP3 H2   HT     0.417000        1.0080           0
   15793 WT1  4299 TIP3 OH2  OT    -0.834000       15.9994           0
   15794 WT1  4299 TIP3 H1   HT     0.417000        1.0080           0
   15795 WT1  4299 TIP3 H2   HT     0.417000        1.0080           0
   15796 WT1  4300 TIP3 OH2  OT    -0.834000       15.9994           0
   15797 WT1  4300 TIP3 H1   HT     0.417000        1.0080           0
   15798 WT1  4300 TIP3 H2   HT     0.417000        1.0080           0
   15799 WT1  4303 TIP3 OH2  OT    -0.834000       15.9994           0
   15800 WT1  4303 TIP3 H1   HT     0.417000        1.0080           0
   15801 WT1  4303 TIP3 H2   HT     0.417000        1.0080           0
   15802 WT1  4304 TIP3 OH2  OT    -0.834000       15.9994           0
   15803 WT1  4304 TIP3 H1   HT     0.417000        1.0080           0
   15804 WT1  4304 TIP3 H2   HT     0.417000        1.0080           0
   15805 WT1  4305 TIP3 OH2  OT    -0.834000       15.9994           0
   15806 WT1  4305 TIP3 H1   HT     0.417000        1.0080           0
   15807 WT1  4305 TIP3 H2   HT     0.417000        1.0080           0
   15808 WT1  4306 TIP3 OH2  OT    -0.834000       15.9994           0
   15809 WT1  4306 TIP3 H1   HT     0.417000        1.0080           0
   15810 WT1  4306 TIP3 H2   HT     0.417000        1.0080           0
   15811 WT1  4307 TIP3 OH2  OT    -0.834000       15.9994           0
   15812 WT1  4307 TIP3 H1   HT     0.417000        1.0080           0
   15813 WT1  4307 TIP3 H2   HT     0.417000        1.0080           0
   15814 WT1  4308 TIP3 OH2  OT    -0.834000       15.9994           0
   15815 WT1  4308 TIP3 H1   HT     0.417000        1.0080           0
   15816 WT1  4308 TIP3 H2   HT     0.417000        1.0080           0
   15817 WT1  4309 TIP3 OH2  OT    -0.834000       15.9994           0
   15818 WT1  4309 TIP3 H1   HT     0.417000        1.0080           0
   15819 WT1  4309 TIP3 H2   HT     0.417000        1.0080           0
   15820 WT1  4310 TIP3 OH2  OT    -0.834000       15.9994           0
   15821 WT1  4310 TIP3 H1   HT     0.417000        1.0080           0
   15822 WT1  4310 TIP3 H2   HT     0.417000        1.0080           0
   15823 WT1  4311 TIP3 OH2  OT    -0.834000       15.9994           0
   15824 WT1  4311 TIP3 H1   HT     0.417000        1.0080           0
   15825 WT1  4311 TIP3 H2   HT     0.417000        1.0080           0
   15826 WT1  4312 TIP3 OH2  OT    -0.834000       15.9994           0
   15827 WT1  4312 TIP3 H1   HT     0.417000        1.0080           0
   15828 WT1  4312 TIP3 H2   HT     0.417000        1.0080           0
   15829 WT1  4313 TIP3 OH2  OT    -0.834000       15.9994           0
   15830 WT1  4313 TIP3 H1   HT     0.417000        1.0080           0
   15831 WT1  4313 TIP3 H2   HT     0.417000        1.0080           0
   15832 WT1  4314 TIP3 OH2  OT    -0.834000       15.9994           0
   15833 WT1  4314 TIP3 H1   HT     0.417000        1.0080           0
   15834 WT1  4314 TIP3 H2   HT     0.417000        1.0080           0
   15835 WT1  4315 TIP3 OH2  OT    -0.834000       15.9994           0
   15836 WT1  4315 TIP3 H1   HT     0.417000        1.0080           0
   15837 WT1  4315 TIP3 H2   HT     0.417000        1.0080           0
   15838 WT1  4316 TIP3 OH2  OT    -0.834000       15.9994           0
   15839 WT1  4316 TIP3 H1   HT     0.417000        1.0080           0
   15840 WT1  4316 TIP3 H2   HT     0.417000        1.0080           0
   15841 WT1  4317 TIP3 OH2  OT    -0.834000       15.9994           0
   15842 WT1  4317 TIP3 H1   HT     0.417000        1.0080           0
   15843 WT1  4317 TIP3 H2   HT     0.417000        1.0080           0
   15844 WT1  4318 TIP3 OH2  OT    -0.834000       15.9994           0
   15845 WT1  4318 TIP3 H1   HT     0.417000        1.0080           0
   15846 WT1  4318 TIP3 H2   HT     0.417000        1.0080           0
   15847 WT1  4319 TIP3 OH2  OT    -0.834000       15.9994           0
   15848 WT1  4319 TIP3 H1   HT     0.417000        1.0080           0
   15849 WT1  4319 TIP3 H2   HT     0.417000        1.0080           0
   15850 WT1  4320 TIP3 OH2  OT    -0.834000       15.9994           0
   15851 WT1  4320 TIP3 H1   HT     0.417000        1.0080           0
   15852 WT1  4320 TIP3 H2   HT     0.417000        1.0080           0
   15853 WT1  4321 TIP3 OH2  OT    -0.834000       15.9994           0
   15854 WT1  4321 TIP3 H1   HT     0.417000        1.0080           0
   15855 WT1  4321 TIP3 H2   HT     0.417000        1.0080           0
   15856 WT1  4322 TIP3 OH2  OT    -0.834000       15.9994           0
   15857 WT1  4322 TIP3 H1   HT     0.417000        1.0080           0
   15858 WT1  4322 TIP3 H2   HT     0.417000        1.0080           0
   15859 WT1  4324 TIP3 OH2  OT    -0.834000       15.9994           0
   15860 WT1  4324 TIP3 H1   HT     0.417000        1.0080           0
   15861 WT1  4324 TIP3 H2   HT     0.417000        1.0080           0
   15862 WT1  4325 TIP3 OH2  OT    -0.834000       15.9994           0
   15863 WT1  4325 TIP3 H1   HT     0.417000        1.0080           0
   15864 WT1  4325 TIP3 H2   HT     0.417000        1.0080           0
   15865 WT1  4326 TIP3 OH2  OT    -0.834000       15.9994           0
   15866 WT1  4326 TIP3 H1   HT     0.417000        1.0080           0
   15867 WT1  4326 TIP3 H2   HT     0.417000        1.0080           0
   15868 WT1  4327 TIP3 OH2  OT    -0.834000       15.9994           0
   15869 WT1  4327 TIP3 H1   HT     0.417000        1.0080           0
   15870 WT1  4327 TIP3 H2   HT     0.417000        1.0080           0
   15871 WT1  4328 TIP3 OH2  OT    -0.834000       15.9994           0
   15872 WT1  4328 TIP3 H1   HT     0.417000        1.0080           0
   15873 WT1  4328 TIP3 H2   HT     0.417000        1.0080           0
   15874 WT1  4329 TIP3 OH2  OT    -0.834000       15.9994           0
   15875 WT1  4329 TIP3 H1   HT     0.417000        1.0080           0
   15876 WT1  4329 TIP3 H2   HT     0.417000        1.0080           0
   15877 WT1  4330 TIP3 OH2  OT    -0.834000       15.9994           0
   15878 WT1  4330 TIP3 H1   HT     0.417000        1.0080           0
   15879 WT1  4330 TIP3 H2   HT     0.417000        1.0080           0
   15880 WT1  4331 TIP3 OH2  OT    -0.834000       15.9994           0
   15881 WT1  4331 TIP3 H1   HT     0.417000        1.0080           0
   15882 WT1  4331 TIP3 H2   HT     0.417000        1.0080           0
   15883 WT1  4332 TIP3 OH2  OT    -0.834000       15.9994           0
   15884 WT1  4332 TIP3 H1   HT     0.417000        1.0080           0
   15885 WT1  4332 TIP3 H2   HT     0.417000        1.0080           0
   15886 WT1  4333 TIP3 OH2  OT    -0.834000       15.9994           0
   15887 WT1  4333 TIP3 H1   HT     0.417000        1.0080           0
   15888 WT1  4333 TIP3 H2   HT     0.417000        1.0080           0
   15889 WT1  4334 TIP3 OH2  OT    -0.834000       15.9994           0
   15890 WT1  4334 TIP3 H1   HT     0.417000        1.0080           0
   15891 WT1  4334 TIP3 H2   HT     0.417000        1.0080           0
   15892 WT1  4335 TIP3 OH2  OT    -0.834000       15.9994           0
   15893 WT1  4335 TIP3 H1   HT     0.417000        1.0080           0
   15894 WT1  4335 TIP3 H2   HT     0.417000        1.0080           0
   15895 WT1  4336 TIP3 OH2  OT    -0.834000       15.9994           0
   15896 WT1  4336 TIP3 H1   HT     0.417000        1.0080           0
   15897 WT1  4336 TIP3 H2   HT     0.417000        1.0080           0
   15898 WT1  4337 TIP3 OH2  OT    -0.834000       15.9994           0
   15899 WT1  4337 TIP3 H1   HT     0.417000        1.0080           0
   15900 WT1  4337 TIP3 H2   HT     0.417000        1.0080           0
   15901 WT1  4338 TIP3 OH2  OT    -0.834000       15.9994           0
   15902 WT1  4338 TIP3 H1   HT     0.417000        1.0080           0
   15903 WT1  4338 TIP3 H2   HT     0.417000        1.0080           0
   15904 WT1  4339 TIP3 OH2  OT    -0.834000       15.9994           0
   15905 WT1  4339 TIP3 H1   HT     0.417000        1.0080           0
   15906 WT1  4339 TIP3 H2   HT     0.417000        1.0080           0
   15907 WT1  4340 TIP3 OH2  OT    -0.834000       15.9994           0
   15908 WT1  4340 TIP3 H1   HT     0.417000        1.0080           0
   15909 WT1  4340 TIP3 H2   HT     0.417000        1.0080           0
   15910 WT1  4341 TIP3 OH2  OT    -0.834000       15.9994           0
   15911 WT1  4341 TIP3 H1   HT     0.417000        1.0080           0
   15912 WT1  4341 TIP3 H2   HT     0.417000        1.0080           0
   15913 WT1  4342 TIP3 OH2  OT    -0.834000       15.9994           0
   15914 WT1  4342 TIP3 H1   HT     0.417000        1.0080           0
   15915 WT1  4342 TIP3 H2   HT     0.417000        1.0080           0
   15916 WT1  4343 TIP3 OH2  OT    -0.834000       15.9994           0
   15917 WT1  4343 TIP3 H1   HT     0.417000        1.0080           0
   15918 WT1  4343 TIP3 H2   HT     0.417000        1.0080           0
   15919 WT1  4344 TIP3 OH2  OT    -0.834000       15.9994           0
   15920 WT1  4344 TIP3 H1   HT     0.417000        1.0080           0
   15921 WT1  4344 TIP3 H2   HT     0.417000        1.0080           0
   15922 WT1  4345 TIP3 OH2  OT    -0.834000       15.9994           0
   15923 WT1  4345 TIP3 H1   HT     0.417000        1.0080           0
   15924 WT1  4345 TIP3 H2   HT     0.417000        1.0080           0
   15925 WT1  4347 TIP3 OH2  OT    -0.834000       15.9994           0
   15926 WT1  4347 TIP3 H1   HT     0.417000        1.0080           0
   15927 WT1  4347 TIP3 H2   HT     0.417000        1.0080           0
   15928 WT1  4349 TIP3 OH2  OT    -0.834000       15.9994           0
   15929 WT1  4349 TIP3 H1   HT     0.417000        1.0080           0
   15930 WT1  4349 TIP3 H2   HT     0.417000        1.0080           0
   15931 WT1  4350 TIP3 OH2  OT    -0.834000       15.9994           0
   15932 WT1  4350 TIP3 H1   HT     0.417000        1.0080           0
   15933 WT1  4350 TIP3 H2   HT     0.417000        1.0080           0
   15934 WT1  4351 TIP3 OH2  OT    -0.834000       15.9994           0
   15935 WT1  4351 TIP3 H1   HT     0.417000        1.0080           0
   15936 WT1  4351 TIP3 H2   HT     0.417000        1.0080           0
   15937 WT1  4352 TIP3 OH2  OT    -0.834000       15.9994           0
   15938 WT1  4352 TIP3 H1   HT     0.417000        1.0080           0
   15939 WT1  4352 TIP3 H2   HT     0.417000        1.0080           0
   15940 WT1  4353 TIP3 OH2  OT    -0.834000       15.9994           0
   15941 WT1  4353 TIP3 H1   HT     0.417000        1.0080           0
   15942 WT1  4353 TIP3 H2   HT     0.417000        1.0080           0
   15943 WT1  4354 TIP3 OH2  OT    -0.834000       15.9994           0
   15944 WT1  4354 TIP3 H1   HT     0.417000        1.0080           0
   15945 WT1  4354 TIP3 H2   HT     0.417000        1.0080           0
   15946 WT1  4355 TIP3 OH2  OT    -0.834000       15.9994           0
   15947 WT1  4355 TIP3 H1   HT     0.417000        1.0080           0
   15948 WT1  4355 TIP3 H2   HT     0.417000        1.0080           0
   15949 WT1  4356 TIP3 OH2  OT    -0.834000       15.9994           0
   15950 WT1  4356 TIP3 H1   HT     0.417000        1.0080           0
   15951 WT1  4356 TIP3 H2   HT     0.417000        1.0080           0
   15952 WT1  4357 TIP3 OH2  OT    -0.834000       15.9994           0
   15953 WT1  4357 TIP3 H1   HT     0.417000        1.0080           0
   15954 WT1  4357 TIP3 H2   HT     0.417000        1.0080           0
   15955 WT1  4358 TIP3 OH2  OT    -0.834000       15.9994           0
   15956 WT1  4358 TIP3 H1   HT     0.417000        1.0080           0
   15957 WT1  4358 TIP3 H2   HT     0.417000        1.0080           0
   15958 WT1  4359 TIP3 OH2  OT    -0.834000       15.9994           0
   15959 WT1  4359 TIP3 H1   HT     0.417000        1.0080           0
   15960 WT1  4359 TIP3 H2   HT     0.417000        1.0080           0
   15961 WT1  4360 TIP3 OH2  OT    -0.834000       15.9994           0
   15962 WT1  4360 TIP3 H1   HT     0.417000        1.0080           0
   15963 WT1  4360 TIP3 H2   HT     0.417000        1.0080           0
   15964 WT1  4361 TIP3 OH2  OT    -0.834000       15.9994           0
   15965 WT1  4361 TIP3 H1   HT     0.417000        1.0080           0
   15966 WT1  4361 TIP3 H2   HT     0.417000        1.0080           0
   15967 WT1  4362 TIP3 OH2  OT    -0.834000       15.9994           0
   15968 WT1  4362 TIP3 H1   HT     0.417000        1.0080           0
   15969 WT1  4362 TIP3 H2   HT     0.417000        1.0080           0
   15970 WT1  4363 TIP3 OH2  OT    -0.834000       15.9994           0
   15971 WT1  4363 TIP3 H1   HT     0.417000        1.0080           0
   15972 WT1  4363 TIP3 H2   HT     0.417000        1.0080           0
   15973 WT1  4365 TIP3 OH2  OT    -0.834000       15.9994           0
   15974 WT1  4365 TIP3 H1   HT     0.417000        1.0080           0
   15975 WT1  4365 TIP3 H2   HT     0.417000        1.0080           0
   15976 WT1  4366 TIP3 OH2  OT    -0.834000       15.9994           0
   15977 WT1  4366 TIP3 H1   HT     0.417000        1.0080           0
   15978 WT1  4366 TIP3 H2   HT     0.417000        1.0080           0
   15979 WT1  4367 TIP3 OH2  OT    -0.834000       15.9994           0
   15980 WT1  4367 TIP3 H1   HT     0.417000        1.0080           0
   15981 WT1  4367 TIP3 H2   HT     0.417000        1.0080           0
   15982 WT1  4368 TIP3 OH2  OT    -0.834000       15.9994           0
   15983 WT1  4368 TIP3 H1   HT     0.417000        1.0080           0
   15984 WT1  4368 TIP3 H2   HT     0.417000        1.0080           0
   15985 WT1  4369 TIP3 OH2  OT    -0.834000       15.9994           0
   15986 WT1  4369 TIP3 H1   HT     0.417000        1.0080           0
   15987 WT1  4369 TIP3 H2   HT     0.417000        1.0080           0
   15988 WT1  4370 TIP3 OH2  OT    -0.834000       15.9994           0
   15989 WT1  4370 TIP3 H1   HT     0.417000        1.0080           0
   15990 WT1  4370 TIP3 H2   HT     0.417000        1.0080           0
   15991 WT1  4371 TIP3 OH2  OT    -0.834000       15.9994           0
   15992 WT1  4371 TIP3 H1   HT     0.417000        1.0080           0
   15993 WT1  4371 TIP3 H2   HT     0.417000        1.0080           0
   15994 WT1  4372 TIP3 OH2  OT    -0.834000       15.9994           0
   15995 WT1  4372 TIP3 H1   HT     0.417000        1.0080           0
   15996 WT1  4372 TIP3 H2   HT     0.417000        1.0080           0
   15997 WT1  4373 TIP3 OH2  OT    -0.834000       15.9994           0
   15998 WT1  4373 TIP3 H1   HT     0.417000        1.0080           0
   15999 WT1  4373 TIP3 H2   HT     0.417000        1.0080           0
   16000 WT1  4374 TIP3 OH2  OT    -0.834000       15.9994           0
   16001 WT1  4374 TIP3 H1   HT     0.417000        1.0080           0
   16002 WT1  4374 TIP3 H2   HT     0.417000        1.0080           0
   16003 WT1  4375 TIP3 OH2  OT    -0.834000       15.9994           0
   16004 WT1  4375 TIP3 H1   HT     0.417000        1.0080           0
   16005 WT1  4375 TIP3 H2   HT     0.417000        1.0080           0
   16006 WT1  4376 TIP3 OH2  OT    -0.834000       15.9994           0
   16007 WT1  4376 TIP3 H1   HT     0.417000        1.0080           0
   16008 WT1  4376 TIP3 H2   HT     0.417000        1.0080           0
   16009 WT1  4377 TIP3 OH2  OT    -0.834000       15.9994           0
   16010 WT1  4377 TIP3 H1   HT     0.417000        1.0080           0
   16011 WT1  4377 TIP3 H2   HT     0.417000        1.0080           0
   16012 WT1  4378 TIP3 OH2  OT    -0.834000       15.9994           0
   16013 WT1  4378 TIP3 H1   HT     0.417000        1.0080           0
   16014 WT1  4378 TIP3 H2   HT     0.417000        1.0080           0
   16015 WT1  4379 TIP3 OH2  OT    -0.834000       15.9994           0
   16016 WT1  4379 TIP3 H1   HT     0.417000        1.0080           0
   16017 WT1  4379 TIP3 H2   HT     0.417000        1.0080           0
   16018 WT1  4380 TIP3 OH2  OT    -0.834000       15.9994           0
   16019 WT1  4380 TIP3 H1   HT     0.417000        1.0080           0
   16020 WT1  4380 TIP3 H2   HT     0.417000        1.0080           0
   16021 WT1  4381 TIP3 OH2  OT    -0.834000       15.9994           0
   16022 WT1  4381 TIP3 H1   HT     0.417000        1.0080           0
   16023 WT1  4381 TIP3 H2   HT     0.417000        1.0080           0
   16024 WT1  4382 TIP3 OH2  OT    -0.834000       15.9994           0
   16025 WT1  4382 TIP3 H1   HT     0.417000        1.0080           0
   16026 WT1  4382 TIP3 H2   HT     0.417000        1.0080           0
   16027 WT1  4383 TIP3 OH2  OT    -0.834000       15.9994           0
   16028 WT1  4383 TIP3 H1   HT     0.417000        1.0080           0
   16029 WT1  4383 TIP3 H2   HT     0.417000        1.0080           0
   16030 WT1  4384 TIP3 OH2  OT    -0.834000       15.9994           0
   16031 WT1  4384 TIP3 H1   HT     0.417000        1.0080           0
   16032 WT1  4384 TIP3 H2   HT     0.417000        1.0080           0
   16033 WT1  4385 TIP3 OH2  OT    -0.834000       15.9994           0
   16034 WT1  4385 TIP3 H1   HT     0.417000        1.0080           0
   16035 WT1  4385 TIP3 H2   HT     0.417000        1.0080           0
   16036 WT1  4386 TIP3 OH2  OT    -0.834000       15.9994           0
   16037 WT1  4386 TIP3 H1   HT     0.417000        1.0080           0
   16038 WT1  4386 TIP3 H2   HT     0.417000        1.0080           0
   16039 WT1  4387 TIP3 OH2  OT    -0.834000       15.9994           0
   16040 WT1  4387 TIP3 H1   HT     0.417000        1.0080           0
   16041 WT1  4387 TIP3 H2   HT     0.417000        1.0080           0
   16042 WT1  4390 TIP3 OH2  OT    -0.834000       15.9994           0
   16043 WT1  4390 TIP3 H1   HT     0.417000        1.0080           0
   16044 WT1  4390 TIP3 H2   HT     0.417000        1.0080           0
   16045 WT1  4391 TIP3 OH2  OT    -0.834000       15.9994           0
   16046 WT1  4391 TIP3 H1   HT     0.417000        1.0080           0
   16047 WT1  4391 TIP3 H2   HT     0.417000        1.0080           0
   16048 WT1  4392 TIP3 OH2  OT    -0.834000       15.9994           0
   16049 WT1  4392 TIP3 H1   HT     0.417000        1.0080           0
   16050 WT1  4392 TIP3 H2   HT     0.417000        1.0080           0
   16051 WT1  4393 TIP3 OH2  OT    -0.834000       15.9994           0
   16052 WT1  4393 TIP3 H1   HT     0.417000        1.0080           0
   16053 WT1  4393 TIP3 H2   HT     0.417000        1.0080           0
   16054 WT1  4394 TIP3 OH2  OT    -0.834000       15.9994           0
   16055 WT1  4394 TIP3 H1   HT     0.417000        1.0080           0
   16056 WT1  4394 TIP3 H2   HT     0.417000        1.0080           0
   16057 WT1  4395 TIP3 OH2  OT    -0.834000       15.9994           0
   16058 WT1  4395 TIP3 H1   HT     0.417000        1.0080           0
   16059 WT1  4395 TIP3 H2   HT     0.417000        1.0080           0
   16060 WT1  4396 TIP3 OH2  OT    -0.834000       15.9994           0
   16061 WT1  4396 TIP3 H1   HT     0.417000        1.0080           0
   16062 WT1  4396 TIP3 H2   HT     0.417000        1.0080           0
   16063 WT1  4397 TIP3 OH2  OT    -0.834000       15.9994           0
   16064 WT1  4397 TIP3 H1   HT     0.417000        1.0080           0
   16065 WT1  4397 TIP3 H2   HT     0.417000        1.0080           0
   16066 WT1  4398 TIP3 OH2  OT    -0.834000       15.9994           0
   16067 WT1  4398 TIP3 H1   HT     0.417000        1.0080           0
   16068 WT1  4398 TIP3 H2   HT     0.417000        1.0080           0
   16069 WT1  4399 TIP3 OH2  OT    -0.834000       15.9994           0
   16070 WT1  4399 TIP3 H1   HT     0.417000        1.0080           0
   16071 WT1  4399 TIP3 H2   HT     0.417000        1.0080           0
   16072 WT1  4400 TIP3 OH2  OT    -0.834000       15.9994           0
   16073 WT1  4400 TIP3 H1   HT     0.417000        1.0080           0
   16074 WT1  4400 TIP3 H2   HT     0.417000        1.0080           0
   16075 WT1  4401 TIP3 OH2  OT    -0.834000       15.9994           0
   16076 WT1  4401 TIP3 H1   HT     0.417000        1.0080           0
   16077 WT1  4401 TIP3 H2   HT     0.417000        1.0080           0
   16078 WT1  4402 TIP3 OH2  OT    -0.834000       15.9994           0
   16079 WT1  4402 TIP3 H1   HT     0.417000        1.0080           0
   16080 WT1  4402 TIP3 H2   HT     0.417000        1.0080           0
   16081 WT1  4403 TIP3 OH2  OT    -0.834000       15.9994           0
   16082 WT1  4403 TIP3 H1   HT     0.417000        1.0080           0
   16083 WT1  4403 TIP3 H2   HT     0.417000        1.0080           0
   16084 WT1  4404 TIP3 OH2  OT    -0.834000       15.9994           0
   16085 WT1  4404 TIP3 H1   HT     0.417000        1.0080           0
   16086 WT1  4404 TIP3 H2   HT     0.417000        1.0080           0
   16087 WT1  4406 TIP3 OH2  OT    -0.834000       15.9994           0
   16088 WT1  4406 TIP3 H1   HT     0.417000        1.0080           0
   16089 WT1  4406 TIP3 H2   HT     0.417000        1.0080           0
   16090 WT1  4407 TIP3 OH2  OT    -0.834000       15.9994           0
   16091 WT1  4407 TIP3 H1   HT     0.417000        1.0080           0
   16092 WT1  4407 TIP3 H2   HT     0.417000        1.0080           0
   16093 WT1  4408 TIP3 OH2  OT    -0.834000       15.9994           0
   16094 WT1  4408 TIP3 H1   HT     0.417000        1.0080           0
   16095 WT1  4408 TIP3 H2   HT     0.417000        1.0080           0
   16096 WT1  4411 TIP3 OH2  OT    -0.834000       15.9994           0
   16097 WT1  4411 TIP3 H1   HT     0.417000        1.0080           0
   16098 WT1  4411 TIP3 H2   HT     0.417000        1.0080           0
   16099 WT1  4412 TIP3 OH2  OT    -0.834000       15.9994           0
   16100 WT1  4412 TIP3 H1   HT     0.417000        1.0080           0
   16101 WT1  4412 TIP3 H2   HT     0.417000        1.0080           0
   16102 WT1  4413 TIP3 OH2  OT    -0.834000       15.9994           0
   16103 WT1  4413 TIP3 H1   HT     0.417000        1.0080           0
   16104 WT1  4413 TIP3 H2   HT     0.417000        1.0080           0
   16105 WT1  4414 TIP3 OH2  OT    -0.834000       15.9994           0
   16106 WT1  4414 TIP3 H1   HT     0.417000        1.0080           0
   16107 WT1  4414 TIP3 H2   HT     0.417000        1.0080           0
   16108 WT1  4415 TIP3 OH2  OT    -0.834000       15.9994           0
   16109 WT1  4415 TIP3 H1   HT     0.417000        1.0080           0
   16110 WT1  4415 TIP3 H2   HT     0.417000        1.0080           0
   16111 WT1  4416 TIP3 OH2  OT    -0.834000       15.9994           0
   16112 WT1  4416 TIP3 H1   HT     0.417000        1.0080           0
   16113 WT1  4416 TIP3 H2   HT     0.417000        1.0080           0
   16114 WT1  4417 TIP3 OH2  OT    -0.834000       15.9994           0
   16115 WT1  4417 TIP3 H1   HT     0.417000        1.0080           0
   16116 WT1  4417 TIP3 H2   HT     0.417000        1.0080           0
   16117 WT1  4418 TIP3 OH2  OT    -0.834000       15.9994           0
   16118 WT1  4418 TIP3 H1   HT     0.417000        1.0080           0
   16119 WT1  4418 TIP3 H2   HT     0.417000        1.0080           0
   16120 WT1  4419 TIP3 OH2  OT    -0.834000       15.9994           0
   16121 WT1  4419 TIP3 H1   HT     0.417000        1.0080           0
   16122 WT1  4419 TIP3 H2   HT     0.417000        1.0080           0
   16123 WT1  4421 TIP3 OH2  OT    -0.834000       15.9994           0
   16124 WT1  4421 TIP3 H1   HT     0.417000        1.0080           0
   16125 WT1  4421 TIP3 H2   HT     0.417000        1.0080           0
   16126 WT1  4422 TIP3 OH2  OT    -0.834000       15.9994           0
   16127 WT1  4422 TIP3 H1   HT     0.417000        1.0080           0
   16128 WT1  4422 TIP3 H2   HT     0.417000        1.0080           0
   16129 WT1  4423 TIP3 OH2  OT    -0.834000       15.9994           0
   16130 WT1  4423 TIP3 H1   HT     0.417000        1.0080           0
   16131 WT1  4423 TIP3 H2   HT     0.417000        1.0080           0
   16132 WT1  4424 TIP3 OH2  OT    -0.834000       15.9994           0
   16133 WT1  4424 TIP3 H1   HT     0.417000        1.0080           0
   16134 WT1  4424 TIP3 H2   HT     0.417000        1.0080           0
   16135 WT1  4425 TIP3 OH2  OT    -0.834000       15.9994           0
   16136 WT1  4425 TIP3 H1   HT     0.417000        1.0080           0
   16137 WT1  4425 TIP3 H2   HT     0.417000        1.0080           0
   16138 WT1  4428 TIP3 OH2  OT    -0.834000       15.9994           0
   16139 WT1  4428 TIP3 H1   HT     0.417000        1.0080           0
   16140 WT1  4428 TIP3 H2   HT     0.417000        1.0080           0
   16141 WT1  4430 TIP3 OH2  OT    -0.834000       15.9994           0
   16142 WT1  4430 TIP3 H1   HT     0.417000        1.0080           0
   16143 WT1  4430 TIP3 H2   HT     0.417000        1.0080           0
   16144 WT1  4431 TIP3 OH2  OT    -0.834000       15.9994           0
   16145 WT1  4431 TIP3 H1   HT     0.417000        1.0080           0
   16146 WT1  4431 TIP3 H2   HT     0.417000        1.0080           0
   16147 WT1  4432 TIP3 OH2  OT    -0.834000       15.9994           0
   16148 WT1  4432 TIP3 H1   HT     0.417000        1.0080           0
   16149 WT1  4432 TIP3 H2   HT     0.417000        1.0080           0
   16150 WT1  4433 TIP3 OH2  OT    -0.834000       15.9994           0
   16151 WT1  4433 TIP3 H1   HT     0.417000        1.0080           0
   16152 WT1  4433 TIP3 H2   HT     0.417000        1.0080           0
   16153 WT1  4434 TIP3 OH2  OT    -0.834000       15.9994           0
   16154 WT1  4434 TIP3 H1   HT     0.417000        1.0080           0
   16155 WT1  4434 TIP3 H2   HT     0.417000        1.0080           0
   16156 WT1  4435 TIP3 OH2  OT    -0.834000       15.9994           0
   16157 WT1  4435 TIP3 H1   HT     0.417000        1.0080           0
   16158 WT1  4435 TIP3 H2   HT     0.417000        1.0080           0
   16159 WT1  4436 TIP3 OH2  OT    -0.834000       15.9994           0
   16160 WT1  4436 TIP3 H1   HT     0.417000        1.0080           0
   16161 WT1  4436 TIP3 H2   HT     0.417000        1.0080           0
   16162 WT1  4437 TIP3 OH2  OT    -0.834000       15.9994           0
   16163 WT1  4437 TIP3 H1   HT     0.417000        1.0080           0
   16164 WT1  4437 TIP3 H2   HT     0.417000        1.0080           0
   16165 WT1  4438 TIP3 OH2  OT    -0.834000       15.9994           0
   16166 WT1  4438 TIP3 H1   HT     0.417000        1.0080           0
   16167 WT1  4438 TIP3 H2   HT     0.417000        1.0080           0
   16168 WT1  4439 TIP3 OH2  OT    -0.834000       15.9994           0
   16169 WT1  4439 TIP3 H1   HT     0.417000        1.0080           0
   16170 WT1  4439 TIP3 H2   HT     0.417000        1.0080           0
   16171 WT1  4440 TIP3 OH2  OT    -0.834000       15.9994           0
   16172 WT1  4440 TIP3 H1   HT     0.417000        1.0080           0
   16173 WT1  4440 TIP3 H2   HT     0.417000        1.0080           0
   16174 WT1  4441 TIP3 OH2  OT    -0.834000       15.9994           0
   16175 WT1  4441 TIP3 H1   HT     0.417000        1.0080           0
   16176 WT1  4441 TIP3 H2   HT     0.417000        1.0080           0
   16177 WT1  4442 TIP3 OH2  OT    -0.834000       15.9994           0
   16178 WT1  4442 TIP3 H1   HT     0.417000        1.0080           0
   16179 WT1  4442 TIP3 H2   HT     0.417000        1.0080           0
   16180 WT1  4443 TIP3 OH2  OT    -0.834000       15.9994           0
   16181 WT1  4443 TIP3 H1   HT     0.417000        1.0080           0
   16182 WT1  4443 TIP3 H2   HT     0.417000        1.0080           0
   16183 WT1  4444 TIP3 OH2  OT    -0.834000       15.9994           0
   16184 WT1  4444 TIP3 H1   HT     0.417000        1.0080           0
   16185 WT1  4444 TIP3 H2   HT     0.417000        1.0080           0
   16186 WT1  4446 TIP3 OH2  OT    -0.834000       15.9994           0
   16187 WT1  4446 TIP3 H1   HT     0.417000        1.0080           0
   16188 WT1  4446 TIP3 H2   HT     0.417000        1.0080           0
   16189 WT1  4447 TIP3 OH2  OT    -0.834000       15.9994           0
   16190 WT1  4447 TIP3 H1   HT     0.417000        1.0080           0
   16191 WT1  4447 TIP3 H2   HT     0.417000        1.0080           0
   16192 WT1  4450 TIP3 OH2  OT    -0.834000       15.9994           0
   16193 WT1  4450 TIP3 H1   HT     0.417000        1.0080           0
   16194 WT1  4450 TIP3 H2   HT     0.417000        1.0080           0
   16195 WT1  4451 TIP3 OH2  OT    -0.834000       15.9994           0
   16196 WT1  4451 TIP3 H1   HT     0.417000        1.0080           0
   16197 WT1  4451 TIP3 H2   HT     0.417000        1.0080           0
   16198 WT1  4452 TIP3 OH2  OT    -0.834000       15.9994           0
   16199 WT1  4452 TIP3 H1   HT     0.417000        1.0080           0
   16200 WT1  4452 TIP3 H2   HT     0.417000        1.0080           0
   16201 WT1  4453 TIP3 OH2  OT    -0.834000       15.9994           0
   16202 WT1  4453 TIP3 H1   HT     0.417000        1.0080           0
   16203 WT1  4453 TIP3 H2   HT     0.417000        1.0080           0
   16204 WT1  4454 TIP3 OH2  OT    -0.834000       15.9994           0
   16205 WT1  4454 TIP3 H1   HT     0.417000        1.0080           0
   16206 WT1  4454 TIP3 H2   HT     0.417000        1.0080           0
   16207 WT1  4455 TIP3 OH2  OT    -0.834000       15.9994           0
   16208 WT1  4455 TIP3 H1   HT     0.417000        1.0080           0
   16209 WT1  4455 TIP3 H2   HT     0.417000        1.0080           0
   16210 WT1  4456 TIP3 OH2  OT    -0.834000       15.9994           0
   16211 WT1  4456 TIP3 H1   HT     0.417000        1.0080           0
   16212 WT1  4456 TIP3 H2   HT     0.417000        1.0080           0
   16213 WT1  4457 TIP3 OH2  OT    -0.834000       15.9994           0
   16214 WT1  4457 TIP3 H1   HT     0.417000        1.0080           0
   16215 WT1  4457 TIP3 H2   HT     0.417000        1.0080           0
   16216 WT1  4458 TIP3 OH2  OT    -0.834000       15.9994           0
   16217 WT1  4458 TIP3 H1   HT     0.417000        1.0080           0
   16218 WT1  4458 TIP3 H2   HT     0.417000        1.0080           0
   16219 WT1  4459 TIP3 OH2  OT    -0.834000       15.9994           0
   16220 WT1  4459 TIP3 H1   HT     0.417000        1.0080           0
   16221 WT1  4459 TIP3 H2   HT     0.417000        1.0080           0
   16222 WT1  4460 TIP3 OH2  OT    -0.834000       15.9994           0
   16223 WT1  4460 TIP3 H1   HT     0.417000        1.0080           0
   16224 WT1  4460 TIP3 H2   HT     0.417000        1.0080           0
   16225 WT1  4461 TIP3 OH2  OT    -0.834000       15.9994           0
   16226 WT1  4461 TIP3 H1   HT     0.417000        1.0080           0
   16227 WT1  4461 TIP3 H2   HT     0.417000        1.0080           0
   16228 WT1  4462 TIP3 OH2  OT    -0.834000       15.9994           0
   16229 WT1  4462 TIP3 H1   HT     0.417000        1.0080           0
   16230 WT1  4462 TIP3 H2   HT     0.417000        1.0080           0
   16231 WT1  4463 TIP3 OH2  OT    -0.834000       15.9994           0
   16232 WT1  4463 TIP3 H1   HT     0.417000        1.0080           0
   16233 WT1  4463 TIP3 H2   HT     0.417000        1.0080           0
   16234 WT1  4464 TIP3 OH2  OT    -0.834000       15.9994           0
   16235 WT1  4464 TIP3 H1   HT     0.417000        1.0080           0
   16236 WT1  4464 TIP3 H2   HT     0.417000        1.0080           0
   16237 WT1  4465 TIP3 OH2  OT    -0.834000       15.9994           0
   16238 WT1  4465 TIP3 H1   HT     0.417000        1.0080           0
   16239 WT1  4465 TIP3 H2   HT     0.417000        1.0080           0
   16240 WT1  4466 TIP3 OH2  OT    -0.834000       15.9994           0
   16241 WT1  4466 TIP3 H1   HT     0.417000        1.0080           0
   16242 WT1  4466 TIP3 H2   HT     0.417000        1.0080           0
   16243 WT1  4469 TIP3 OH2  OT    -0.834000       15.9994           0
   16244 WT1  4469 TIP3 H1   HT     0.417000        1.0080           0
   16245 WT1  4469 TIP3 H2   HT     0.417000        1.0080           0
   16246 WT1  4470 TIP3 OH2  OT    -0.834000       15.9994           0
   16247 WT1  4470 TIP3 H1   HT     0.417000        1.0080           0
   16248 WT1  4470 TIP3 H2   HT     0.417000        1.0080           0
   16249 WT1  4471 TIP3 OH2  OT    -0.834000       15.9994           0
   16250 WT1  4471 TIP3 H1   HT     0.417000        1.0080           0
   16251 WT1  4471 TIP3 H2   HT     0.417000        1.0080           0
   16252 WT1  4472 TIP3 OH2  OT    -0.834000       15.9994           0
   16253 WT1  4472 TIP3 H1   HT     0.417000        1.0080           0
   16254 WT1  4472 TIP3 H2   HT     0.417000        1.0080           0
   16255 WT1  4473 TIP3 OH2  OT    -0.834000       15.9994           0
   16256 WT1  4473 TIP3 H1   HT     0.417000        1.0080           0
   16257 WT1  4473 TIP3 H2   HT     0.417000        1.0080           0
   16258 WT1  4474 TIP3 OH2  OT    -0.834000       15.9994           0
   16259 WT1  4474 TIP3 H1   HT     0.417000        1.0080           0
   16260 WT1  4474 TIP3 H2   HT     0.417000        1.0080           0
   16261 WT1  4475 TIP3 OH2  OT    -0.834000       15.9994           0
   16262 WT1  4475 TIP3 H1   HT     0.417000        1.0080           0
   16263 WT1  4475 TIP3 H2   HT     0.417000        1.0080           0
   16264 WT1  4477 TIP3 OH2  OT    -0.834000       15.9994           0
   16265 WT1  4477 TIP3 H1   HT     0.417000        1.0080           0
   16266 WT1  4477 TIP3 H2   HT     0.417000        1.0080           0
   16267 WT1  4478 TIP3 OH2  OT    -0.834000       15.9994           0
   16268 WT1  4478 TIP3 H1   HT     0.417000        1.0080           0
   16269 WT1  4478 TIP3 H2   HT     0.417000        1.0080           0
   16270 WT1  4479 TIP3 OH2  OT    -0.834000       15.9994           0
   16271 WT1  4479 TIP3 H1   HT     0.417000        1.0080           0
   16272 WT1  4479 TIP3 H2   HT     0.417000        1.0080           0
   16273 WT1  4480 TIP3 OH2  OT    -0.834000       15.9994           0
   16274 WT1  4480 TIP3 H1   HT     0.417000        1.0080           0
   16275 WT1  4480 TIP3 H2   HT     0.417000        1.0080           0
   16276 WT1  4481 TIP3 OH2  OT    -0.834000       15.9994           0
   16277 WT1  4481 TIP3 H1   HT     0.417000        1.0080           0
   16278 WT1  4481 TIP3 H2   HT     0.417000        1.0080           0
   16279 WT1  4482 TIP3 OH2  OT    -0.834000       15.9994           0
   16280 WT1  4482 TIP3 H1   HT     0.417000        1.0080           0
   16281 WT1  4482 TIP3 H2   HT     0.417000        1.0080           0
   16282 WT1  4483 TIP3 OH2  OT    -0.834000       15.9994           0
   16283 WT1  4483 TIP3 H1   HT     0.417000        1.0080           0
   16284 WT1  4483 TIP3 H2   HT     0.417000        1.0080           0
   16285 WT1  4484 TIP3 OH2  OT    -0.834000       15.9994           0
   16286 WT1  4484 TIP3 H1   HT     0.417000        1.0080           0
   16287 WT1  4484 TIP3 H2   HT     0.417000        1.0080           0
   16288 WT1  4485 TIP3 OH2  OT    -0.834000       15.9994           0
   16289 WT1  4485 TIP3 H1   HT     0.417000        1.0080           0
   16290 WT1  4485 TIP3 H2   HT     0.417000        1.0080           0
   16291 WT1  4486 TIP3 OH2  OT    -0.834000       15.9994           0
   16292 WT1  4486 TIP3 H1   HT     0.417000        1.0080           0
   16293 WT1  4486 TIP3 H2   HT     0.417000        1.0080           0
   16294 WT1  4487 TIP3 OH2  OT    -0.834000       15.9994           0
   16295 WT1  4487 TIP3 H1   HT     0.417000        1.0080           0
   16296 WT1  4487 TIP3 H2   HT     0.417000        1.0080           0
   16297 WT1  4488 TIP3 OH2  OT    -0.834000       15.9994           0
   16298 WT1  4488 TIP3 H1   HT     0.417000        1.0080           0
   16299 WT1  4488 TIP3 H2   HT     0.417000        1.0080           0
   16300 WT1  4489 TIP3 OH2  OT    -0.834000       15.9994           0
   16301 WT1  4489 TIP3 H1   HT     0.417000        1.0080           0
   16302 WT1  4489 TIP3 H2   HT     0.417000        1.0080           0
   16303 WT1  4490 TIP3 OH2  OT    -0.834000       15.9994           0
   16304 WT1  4490 TIP3 H1   HT     0.417000        1.0080           0
   16305 WT1  4490 TIP3 H2   HT     0.417000        1.0080           0
   16306 WT1  4491 TIP3 OH2  OT    -0.834000       15.9994           0
   16307 WT1  4491 TIP3 H1   HT     0.417000        1.0080           0
   16308 WT1  4491 TIP3 H2   HT     0.417000        1.0080           0
   16309 WT1  4492 TIP3 OH2  OT    -0.834000       15.9994           0
   16310 WT1  4492 TIP3 H1   HT     0.417000        1.0080           0
   16311 WT1  4492 TIP3 H2   HT     0.417000        1.0080           0
   16312 WT1  4493 TIP3 OH2  OT    -0.834000       15.9994           0
   16313 WT1  4493 TIP3 H1   HT     0.417000        1.0080           0
   16314 WT1  4493 TIP3 H2   HT     0.417000        1.0080           0
   16315 WT1  4494 TIP3 OH2  OT    -0.834000       15.9994           0
   16316 WT1  4494 TIP3 H1   HT     0.417000        1.0080           0
   16317 WT1  4494 TIP3 H2   HT     0.417000        1.0080           0
   16318 WT1  4495 TIP3 OH2  OT    -0.834000       15.9994           0
   16319 WT1  4495 TIP3 H1   HT     0.417000        1.0080           0
   16320 WT1  4495 TIP3 H2   HT     0.417000        1.0080           0
   16321 WT1  4496 TIP3 OH2  OT    -0.834000       15.9994           0
   16322 WT1  4496 TIP3 H1   HT     0.417000        1.0080           0
   16323 WT1  4496 TIP3 H2   HT     0.417000        1.0080           0
   16324 WT1  4497 TIP3 OH2  OT    -0.834000       15.9994           0
   16325 WT1  4497 TIP3 H1   HT     0.417000        1.0080           0
   16326 WT1  4497 TIP3 H2   HT     0.417000        1.0080           0
   16327 WT1  4498 TIP3 OH2  OT    -0.834000       15.9994           0
   16328 WT1  4498 TIP3 H1   HT     0.417000        1.0080           0
   16329 WT1  4498 TIP3 H2   HT     0.417000        1.0080           0
   16330 WT1  4499 TIP3 OH2  OT    -0.834000       15.9994           0
   16331 WT1  4499 TIP3 H1   HT     0.417000        1.0080           0
   16332 WT1  4499 TIP3 H2   HT     0.417000        1.0080           0
   16333 WT1  4500 TIP3 OH2  OT    -0.834000       15.9994           0
   16334 WT1  4500 TIP3 H1   HT     0.417000        1.0080           0
   16335 WT1  4500 TIP3 H2   HT     0.417000        1.0080           0
   16336 WT1  4501 TIP3 OH2  OT    -0.834000       15.9994           0
   16337 WT1  4501 TIP3 H1   HT     0.417000        1.0080           0
   16338 WT1  4501 TIP3 H2   HT     0.417000        1.0080           0
   16339 WT1  4502 TIP3 OH2  OT    -0.834000       15.9994           0
   16340 WT1  4502 TIP3 H1   HT     0.417000        1.0080           0
   16341 WT1  4502 TIP3 H2   HT     0.417000        1.0080           0
   16342 WT1  4503 TIP3 OH2  OT    -0.834000       15.9994           0
   16343 WT1  4503 TIP3 H1   HT     0.417000        1.0080           0
   16344 WT1  4503 TIP3 H2   HT     0.417000        1.0080           0
   16345 WT1  4504 TIP3 OH2  OT    -0.834000       15.9994           0
   16346 WT1  4504 TIP3 H1   HT     0.417000        1.0080           0
   16347 WT1  4504 TIP3 H2   HT     0.417000        1.0080           0
   16348 WT1  4505 TIP3 OH2  OT    -0.834000       15.9994           0
   16349 WT1  4505 TIP3 H1   HT     0.417000        1.0080           0
   16350 WT1  4505 TIP3 H2   HT     0.417000        1.0080           0
   16351 WT1  4506 TIP3 OH2  OT    -0.834000       15.9994           0
   16352 WT1  4506 TIP3 H1   HT     0.417000        1.0080           0
   16353 WT1  4506 TIP3 H2   HT     0.417000        1.0080           0
   16354 WT1  4507 TIP3 OH2  OT    -0.834000       15.9994           0
   16355 WT1  4507 TIP3 H1   HT     0.417000        1.0080           0
   16356 WT1  4507 TIP3 H2   HT     0.417000        1.0080           0
   16357 WT1  4508 TIP3 OH2  OT    -0.834000       15.9994           0
   16358 WT1  4508 TIP3 H1   HT     0.417000        1.0080           0
   16359 WT1  4508 TIP3 H2   HT     0.417000        1.0080           0
   16360 WT1  4509 TIP3 OH2  OT    -0.834000       15.9994           0
   16361 WT1  4509 TIP3 H1   HT     0.417000        1.0080           0
   16362 WT1  4509 TIP3 H2   HT     0.417000        1.0080           0
   16363 WT1  4510 TIP3 OH2  OT    -0.834000       15.9994           0
   16364 WT1  4510 TIP3 H1   HT     0.417000        1.0080           0
   16365 WT1  4510 TIP3 H2   HT     0.417000        1.0080           0
   16366 WT1  4512 TIP3 OH2  OT    -0.834000       15.9994           0
   16367 WT1  4512 TIP3 H1   HT     0.417000        1.0080           0
   16368 WT1  4512 TIP3 H2   HT     0.417000        1.0080           0
   16369 WT1  4513 TIP3 OH2  OT    -0.834000       15.9994           0
   16370 WT1  4513 TIP3 H1   HT     0.417000        1.0080           0
   16371 WT1  4513 TIP3 H2   HT     0.417000        1.0080           0
   16372 WT1  4515 TIP3 OH2  OT    -0.834000       15.9994           0
   16373 WT1  4515 TIP3 H1   HT     0.417000        1.0080           0
   16374 WT1  4515 TIP3 H2   HT     0.417000        1.0080           0
   16375 WT1  4516 TIP3 OH2  OT    -0.834000       15.9994           0
   16376 WT1  4516 TIP3 H1   HT     0.417000        1.0080           0
   16377 WT1  4516 TIP3 H2   HT     0.417000        1.0080           0
   16378 WT1  4518 TIP3 OH2  OT    -0.834000       15.9994           0
   16379 WT1  4518 TIP3 H1   HT     0.417000        1.0080           0
   16380 WT1  4518 TIP3 H2   HT     0.417000        1.0080           0
   16381 WT1  4519 TIP3 OH2  OT    -0.834000       15.9994           0
   16382 WT1  4519 TIP3 H1   HT     0.417000        1.0080           0
   16383 WT1  4519 TIP3 H2   HT     0.417000        1.0080           0
   16384 WT1  4520 TIP3 OH2  OT    -0.834000       15.9994           0
   16385 WT1  4520 TIP3 H1   HT     0.417000        1.0080           0
   16386 WT1  4520 TIP3 H2   HT     0.417000        1.0080           0
   16387 WT1  4521 TIP3 OH2  OT    -0.834000       15.9994           0
   16388 WT1  4521 TIP3 H1   HT     0.417000        1.0080           0
   16389 WT1  4521 TIP3 H2   HT     0.417000        1.0080           0
   16390 WT1  4522 TIP3 OH2  OT    -0.834000       15.9994           0
   16391 WT1  4522 TIP3 H1   HT     0.417000        1.0080           0
   16392 WT1  4522 TIP3 H2   HT     0.417000        1.0080           0
   16393 WT1  4523 TIP3 OH2  OT    -0.834000       15.9994           0
   16394 WT1  4523 TIP3 H1   HT     0.417000        1.0080           0
   16395 WT1  4523 TIP3 H2   HT     0.417000        1.0080           0
   16396 WT1  4524 TIP3 OH2  OT    -0.834000       15.9994           0
   16397 WT1  4524 TIP3 H1   HT     0.417000        1.0080           0
   16398 WT1  4524 TIP3 H2   HT     0.417000        1.0080           0
   16399 WT1  4525 TIP3 OH2  OT    -0.834000       15.9994           0
   16400 WT1  4525 TIP3 H1   HT     0.417000        1.0080           0
   16401 WT1  4525 TIP3 H2   HT     0.417000        1.0080           0
   16402 WT1  4526 TIP3 OH2  OT    -0.834000       15.9994           0
   16403 WT1  4526 TIP3 H1   HT     0.417000        1.0080           0
   16404 WT1  4526 TIP3 H2   HT     0.417000        1.0080           0
   16405 WT1  4527 TIP3 OH2  OT    -0.834000       15.9994           0
   16406 WT1  4527 TIP3 H1   HT     0.417000        1.0080           0
   16407 WT1  4527 TIP3 H2   HT     0.417000        1.0080           0
   16408 WT1  4528 TIP3 OH2  OT    -0.834000       15.9994           0
   16409 WT1  4528 TIP3 H1   HT     0.417000        1.0080           0
   16410 WT1  4528 TIP3 H2   HT     0.417000        1.0080           0
   16411 WT1  4529 TIP3 OH2  OT    -0.834000       15.9994           0
   16412 WT1  4529 TIP3 H1   HT     0.417000        1.0080           0
   16413 WT1  4529 TIP3 H2   HT     0.417000        1.0080           0
   16414 WT1  4530 TIP3 OH2  OT    -0.834000       15.9994           0
   16415 WT1  4530 TIP3 H1   HT     0.417000        1.0080           0
   16416 WT1  4530 TIP3 H2   HT     0.417000        1.0080           0
   16417 WT1  4531 TIP3 OH2  OT    -0.834000       15.9994           0
   16418 WT1  4531 TIP3 H1   HT     0.417000        1.0080           0
   16419 WT1  4531 TIP3 H2   HT     0.417000        1.0080           0
   16420 WT1  4532 TIP3 OH2  OT    -0.834000       15.9994           0
   16421 WT1  4532 TIP3 H1   HT     0.417000        1.0080           0
   16422 WT1  4532 TIP3 H2   HT     0.417000        1.0080           0
   16423 WT1  4535 TIP3 OH2  OT    -0.834000       15.9994           0
   16424 WT1  4535 TIP3 H1   HT     0.417000        1.0080           0
   16425 WT1  4535 TIP3 H2   HT     0.417000        1.0080           0
   16426 WT1  4536 TIP3 OH2  OT    -0.834000       15.9994           0
   16427 WT1  4536 TIP3 H1   HT     0.417000        1.0080           0
   16428 WT1  4536 TIP3 H2   HT     0.417000        1.0080           0
   16429 WT1  4537 TIP3 OH2  OT    -0.834000       15.9994           0
   16430 WT1  4537 TIP3 H1   HT     0.417000        1.0080           0
   16431 WT1  4537 TIP3 H2   HT     0.417000        1.0080           0
   16432 WT1  4538 TIP3 OH2  OT    -0.834000       15.9994           0
   16433 WT1  4538 TIP3 H1   HT     0.417000        1.0080           0
   16434 WT1  4538 TIP3 H2   HT     0.417000        1.0080           0
   16435 WT1  4539 TIP3 OH2  OT    -0.834000       15.9994           0
   16436 WT1  4539 TIP3 H1   HT     0.417000        1.0080           0
   16437 WT1  4539 TIP3 H2   HT     0.417000        1.0080           0
   16438 WT1  4540 TIP3 OH2  OT    -0.834000       15.9994           0
   16439 WT1  4540 TIP3 H1   HT     0.417000        1.0080           0
   16440 WT1  4540 TIP3 H2   HT     0.417000        1.0080           0
   16441 WT1  4541 TIP3 OH2  OT    -0.834000       15.9994           0
   16442 WT1  4541 TIP3 H1   HT     0.417000        1.0080           0
   16443 WT1  4541 TIP3 H2   HT     0.417000        1.0080           0
   16444 WT1  4543 TIP3 OH2  OT    -0.834000       15.9994           0
   16445 WT1  4543 TIP3 H1   HT     0.417000        1.0080           0
   16446 WT1  4543 TIP3 H2   HT     0.417000        1.0080           0
   16447 WT1  4544 TIP3 OH2  OT    -0.834000       15.9994           0
   16448 WT1  4544 TIP3 H1   HT     0.417000        1.0080           0
   16449 WT1  4544 TIP3 H2   HT     0.417000        1.0080           0
   16450 WT1  4545 TIP3 OH2  OT    -0.834000       15.9994           0
   16451 WT1  4545 TIP3 H1   HT     0.417000        1.0080           0
   16452 WT1  4545 TIP3 H2   HT     0.417000        1.0080           0
   16453 WT1  4546 TIP3 OH2  OT    -0.834000       15.9994           0
   16454 WT1  4546 TIP3 H1   HT     0.417000        1.0080           0
   16455 WT1  4546 TIP3 H2   HT     0.417000        1.0080           0
   16456 WT1  4547 TIP3 OH2  OT    -0.834000       15.9994           0
   16457 WT1  4547 TIP3 H1   HT     0.417000        1.0080           0
   16458 WT1  4547 TIP3 H2   HT     0.417000        1.0080           0
   16459 WT1  4548 TIP3 OH2  OT    -0.834000       15.9994           0
   16460 WT1  4548 TIP3 H1   HT     0.417000        1.0080           0
   16461 WT1  4548 TIP3 H2   HT     0.417000        1.0080           0
   16462 WT1  4549 TIP3 OH2  OT    -0.834000       15.9994           0
   16463 WT1  4549 TIP3 H1   HT     0.417000        1.0080           0
   16464 WT1  4549 TIP3 H2   HT     0.417000        1.0080           0
   16465 WT1  4550 TIP3 OH2  OT    -0.834000       15.9994           0
   16466 WT1  4550 TIP3 H1   HT     0.417000        1.0080           0
   16467 WT1  4550 TIP3 H2   HT     0.417000        1.0080           0
   16468 WT1  4551 TIP3 OH2  OT    -0.834000       15.9994           0
   16469 WT1  4551 TIP3 H1   HT     0.417000        1.0080           0
   16470 WT1  4551 TIP3 H2   HT     0.417000        1.0080           0
   16471 WT1  4552 TIP3 OH2  OT    -0.834000       15.9994           0
   16472 WT1  4552 TIP3 H1   HT     0.417000        1.0080           0
   16473 WT1  4552 TIP3 H2   HT     0.417000        1.0080           0
   16474 WT1  4553 TIP3 OH2  OT    -0.834000       15.9994           0
   16475 WT1  4553 TIP3 H1   HT     0.417000        1.0080           0
   16476 WT1  4553 TIP3 H2   HT     0.417000        1.0080           0
   16477 WT1  4557 TIP3 OH2  OT    -0.834000       15.9994           0
   16478 WT1  4557 TIP3 H1   HT     0.417000        1.0080           0
   16479 WT1  4557 TIP3 H2   HT     0.417000        1.0080           0
   16480 WT1  4558 TIP3 OH2  OT    -0.834000       15.9994           0
   16481 WT1  4558 TIP3 H1   HT     0.417000        1.0080           0
   16482 WT1  4558 TIP3 H2   HT     0.417000        1.0080           0
   16483 WT1  4559 TIP3 OH2  OT    -0.834000       15.9994           0
   16484 WT1  4559 TIP3 H1   HT     0.417000        1.0080           0
   16485 WT1  4559 TIP3 H2   HT     0.417000        1.0080           0
   16486 WT1  4560 TIP3 OH2  OT    -0.834000       15.9994           0
   16487 WT1  4560 TIP3 H1   HT     0.417000        1.0080           0
   16488 WT1  4560 TIP3 H2   HT     0.417000        1.0080           0
   16489 WT1  4561 TIP3 OH2  OT    -0.834000       15.9994           0
   16490 WT1  4561 TIP3 H1   HT     0.417000        1.0080           0
   16491 WT1  4561 TIP3 H2   HT     0.417000        1.0080           0
   16492 WT1  4562 TIP3 OH2  OT    -0.834000       15.9994           0
   16493 WT1  4562 TIP3 H1   HT     0.417000        1.0080           0
   16494 WT1  4562 TIP3 H2   HT     0.417000        1.0080           0
   16495 WT1  4563 TIP3 OH2  OT    -0.834000       15.9994           0
   16496 WT1  4563 TIP3 H1   HT     0.417000        1.0080           0
   16497 WT1  4563 TIP3 H2   HT     0.417000        1.0080           0
   16498 WT1  4564 TIP3 OH2  OT    -0.834000       15.9994           0
   16499 WT1  4564 TIP3 H1   HT     0.417000        1.0080           0
   16500 WT1  4564 TIP3 H2   HT     0.417000        1.0080           0
   16501 WT1  4565 TIP3 OH2  OT    -0.834000       15.9994           0
   16502 WT1  4565 TIP3 H1   HT     0.417000        1.0080           0
   16503 WT1  4565 TIP3 H2   HT     0.417000        1.0080           0
   16504 WT1  4566 TIP3 OH2  OT    -0.834000       15.9994           0
   16505 WT1  4566 TIP3 H1   HT     0.417000        1.0080           0
   16506 WT1  4566 TIP3 H2   HT     0.417000        1.0080           0
   16507 WT1  4567 TIP3 OH2  OT    -0.834000       15.9994           0
   16508 WT1  4567 TIP3 H1   HT     0.417000        1.0080           0
   16509 WT1  4567 TIP3 H2   HT     0.417000        1.0080           0
   16510 WT1  4568 TIP3 OH2  OT    -0.834000       15.9994           0
   16511 WT1  4568 TIP3 H1   HT     0.417000        1.0080           0
   16512 WT1  4568 TIP3 H2   HT     0.417000        1.0080           0
   16513 WT1  4569 TIP3 OH2  OT    -0.834000       15.9994           0
   16514 WT1  4569 TIP3 H1   HT     0.417000        1.0080           0
   16515 WT1  4569 TIP3 H2   HT     0.417000        1.0080           0
   16516 WT1  4570 TIP3 OH2  OT    -0.834000       15.9994           0
   16517 WT1  4570 TIP3 H1   HT     0.417000        1.0080           0
   16518 WT1  4570 TIP3 H2   HT     0.417000        1.0080           0
   16519 WT1  4571 TIP3 OH2  OT    -0.834000       15.9994           0
   16520 WT1  4571 TIP3 H1   HT     0.417000        1.0080           0
   16521 WT1  4571 TIP3 H2   HT     0.417000        1.0080           0
   16522 WT1  4572 TIP3 OH2  OT    -0.834000       15.9994           0
   16523 WT1  4572 TIP3 H1   HT     0.417000        1.0080           0
   16524 WT1  4572 TIP3 H2   HT     0.417000        1.0080           0
   16525 WT1  4573 TIP3 OH2  OT    -0.834000       15.9994           0
   16526 WT1  4573 TIP3 H1   HT     0.417000        1.0080           0
   16527 WT1  4573 TIP3 H2   HT     0.417000        1.0080           0
   16528 WT1  4574 TIP3 OH2  OT    -0.834000       15.9994           0
   16529 WT1  4574 TIP3 H1   HT     0.417000        1.0080           0
   16530 WT1  4574 TIP3 H2   HT     0.417000        1.0080           0
   16531 WT1  4576 TIP3 OH2  OT    -0.834000       15.9994           0
   16532 WT1  4576 TIP3 H1   HT     0.417000        1.0080           0
   16533 WT1  4576 TIP3 H2   HT     0.417000        1.0080           0
   16534 WT1  4578 TIP3 OH2  OT    -0.834000       15.9994           0
   16535 WT1  4578 TIP3 H1   HT     0.417000        1.0080           0
   16536 WT1  4578 TIP3 H2   HT     0.417000        1.0080           0
   16537 WT1  4580 TIP3 OH2  OT    -0.834000       15.9994           0
   16538 WT1  4580 TIP3 H1   HT     0.417000        1.0080           0
   16539 WT1  4580 TIP3 H2   HT     0.417000        1.0080           0
   16540 WT1  4581 TIP3 OH2  OT    -0.834000       15.9994           0
   16541 WT1  4581 TIP3 H1   HT     0.417000        1.0080           0
   16542 WT1  4581 TIP3 H2   HT     0.417000        1.0080           0
   16543 WT1  4582 TIP3 OH2  OT    -0.834000       15.9994           0
   16544 WT1  4582 TIP3 H1   HT     0.417000        1.0080           0
   16545 WT1  4582 TIP3 H2   HT     0.417000        1.0080           0
   16546 WT1  4583 TIP3 OH2  OT    -0.834000       15.9994           0
   16547 WT1  4583 TIP3 H1   HT     0.417000        1.0080           0
   16548 WT1  4583 TIP3 H2   HT     0.417000        1.0080           0
   16549 WT1  4584 TIP3 OH2  OT    -0.834000       15.9994           0
   16550 WT1  4584 TIP3 H1   HT     0.417000        1.0080           0
   16551 WT1  4584 TIP3 H2   HT     0.417000        1.0080           0
   16552 WT1  4586 TIP3 OH2  OT    -0.834000       15.9994           0
   16553 WT1  4586 TIP3 H1   HT     0.417000        1.0080           0
   16554 WT1  4586 TIP3 H2   HT     0.417000        1.0080           0
   16555 WT1  4587 TIP3 OH2  OT    -0.834000       15.9994           0
   16556 WT1  4587 TIP3 H1   HT     0.417000        1.0080           0
   16557 WT1  4587 TIP3 H2   HT     0.417000        1.0080           0
   16558 WT1  4588 TIP3 OH2  OT    -0.834000       15.9994           0
   16559 WT1  4588 TIP3 H1   HT     0.417000        1.0080           0
   16560 WT1  4588 TIP3 H2   HT     0.417000        1.0080           0
   16561 WT1  4589 TIP3 OH2  OT    -0.834000       15.9994           0
   16562 WT1  4589 TIP3 H1   HT     0.417000        1.0080           0
   16563 WT1  4589 TIP3 H2   HT     0.417000        1.0080           0
   16564 WT1  4590 TIP3 OH2  OT    -0.834000       15.9994           0
   16565 WT1  4590 TIP3 H1   HT     0.417000        1.0080           0
   16566 WT1  4590 TIP3 H2   HT     0.417000        1.0080           0
   16567 WT1  4591 TIP3 OH2  OT    -0.834000       15.9994           0
   16568 WT1  4591 TIP3 H1   HT     0.417000        1.0080           0
   16569 WT1  4591 TIP3 H2   HT     0.417000        1.0080           0
   16570 WT1  4592 TIP3 OH2  OT    -0.834000       15.9994           0
   16571 WT1  4592 TIP3 H1   HT     0.417000        1.0080           0
   16572 WT1  4592 TIP3 H2   HT     0.417000        1.0080           0
   16573 WT1  4593 TIP3 OH2  OT    -0.834000       15.9994           0
   16574 WT1  4593 TIP3 H1   HT     0.417000        1.0080           0
   16575 WT1  4593 TIP3 H2   HT     0.417000        1.0080           0
   16576 WT1  4595 TIP3 OH2  OT    -0.834000       15.9994           0
   16577 WT1  4595 TIP3 H1   HT     0.417000        1.0080           0
   16578 WT1  4595 TIP3 H2   HT     0.417000        1.0080           0
   16579 WT1  4596 TIP3 OH2  OT    -0.834000       15.9994           0
   16580 WT1  4596 TIP3 H1   HT     0.417000        1.0080           0
   16581 WT1  4596 TIP3 H2   HT     0.417000        1.0080           0
   16582 WT1  4599 TIP3 OH2  OT    -0.834000       15.9994           0
   16583 WT1  4599 TIP3 H1   HT     0.417000        1.0080           0
   16584 WT1  4599 TIP3 H2   HT     0.417000        1.0080           0
   16585 WT1  4600 TIP3 OH2  OT    -0.834000       15.9994           0
   16586 WT1  4600 TIP3 H1   HT     0.417000        1.0080           0
   16587 WT1  4600 TIP3 H2   HT     0.417000        1.0080           0
   16588 WT1  4602 TIP3 OH2  OT    -0.834000       15.9994           0
   16589 WT1  4602 TIP3 H1   HT     0.417000        1.0080           0
   16590 WT1  4602 TIP3 H2   HT     0.417000        1.0080           0
   16591 WT1  4603 TIP3 OH2  OT    -0.834000       15.9994           0
   16592 WT1  4603 TIP3 H1   HT     0.417000        1.0080           0
   16593 WT1  4603 TIP3 H2   HT     0.417000        1.0080           0
   16594 WT1  4604 TIP3 OH2  OT    -0.834000       15.9994           0
   16595 WT1  4604 TIP3 H1   HT     0.417000        1.0080           0
   16596 WT1  4604 TIP3 H2   HT     0.417000        1.0080           0
   16597 WT1  4605 TIP3 OH2  OT    -0.834000       15.9994           0
   16598 WT1  4605 TIP3 H1   HT     0.417000        1.0080           0
   16599 WT1  4605 TIP3 H2   HT     0.417000        1.0080           0
   16600 WT1  4606 TIP3 OH2  OT    -0.834000       15.9994           0
   16601 WT1  4606 TIP3 H1   HT     0.417000        1.0080           0
   16602 WT1  4606 TIP3 H2   HT     0.417000        1.0080           0
   16603 WT1  4607 TIP3 OH2  OT    -0.834000       15.9994           0
   16604 WT1  4607 TIP3 H1   HT     0.417000        1.0080           0
   16605 WT1  4607 TIP3 H2   HT     0.417000        1.0080           0
   16606 WT1  4608 TIP3 OH2  OT    -0.834000       15.9994           0
   16607 WT1  4608 TIP3 H1   HT     0.417000        1.0080           0
   16608 WT1  4608 TIP3 H2   HT     0.417000        1.0080           0
   16609 WT1  4609 TIP3 OH2  OT    -0.834000       15.9994           0
   16610 WT1  4609 TIP3 H1   HT     0.417000        1.0080           0
   16611 WT1  4609 TIP3 H2   HT     0.417000        1.0080           0
   16612 WT1  4610 TIP3 OH2  OT    -0.834000       15.9994           0
   16613 WT1  4610 TIP3 H1   HT     0.417000        1.0080           0
   16614 WT1  4610 TIP3 H2   HT     0.417000        1.0080           0
   16615 WT1  4611 TIP3 OH2  OT    -0.834000       15.9994           0
   16616 WT1  4611 TIP3 H1   HT     0.417000        1.0080           0
   16617 WT1  4611 TIP3 H2   HT     0.417000        1.0080           0
   16618 WT1  4612 TIP3 OH2  OT    -0.834000       15.9994           0
   16619 WT1  4612 TIP3 H1   HT     0.417000        1.0080           0
   16620 WT1  4612 TIP3 H2   HT     0.417000        1.0080           0
   16621 WT1  4613 TIP3 OH2  OT    -0.834000       15.9994           0
   16622 WT1  4613 TIP3 H1   HT     0.417000        1.0080           0
   16623 WT1  4613 TIP3 H2   HT     0.417000        1.0080           0
   16624 WT1  4614 TIP3 OH2  OT    -0.834000       15.9994           0
   16625 WT1  4614 TIP3 H1   HT     0.417000        1.0080           0
   16626 WT1  4614 TIP3 H2   HT     0.417000        1.0080           0
   16627 WT1  4615 TIP3 OH2  OT    -0.834000       15.9994           0
   16628 WT1  4615 TIP3 H1   HT     0.417000        1.0080           0
   16629 WT1  4615 TIP3 H2   HT     0.417000        1.0080           0
   16630 WT1  4619 TIP3 OH2  OT    -0.834000       15.9994           0
   16631 WT1  4619 TIP3 H1   HT     0.417000        1.0080           0
   16632 WT1  4619 TIP3 H2   HT     0.417000        1.0080           0
   16633 WT1  4620 TIP3 OH2  OT    -0.834000       15.9994           0
   16634 WT1  4620 TIP3 H1   HT     0.417000        1.0080           0
   16635 WT1  4620 TIP3 H2   HT     0.417000        1.0080           0
   16636 WT1  4621 TIP3 OH2  OT    -0.834000       15.9994           0
   16637 WT1  4621 TIP3 H1   HT     0.417000        1.0080           0
   16638 WT1  4621 TIP3 H2   HT     0.417000        1.0080           0
   16639 WT1  4622 TIP3 OH2  OT    -0.834000       15.9994           0
   16640 WT1  4622 TIP3 H1   HT     0.417000        1.0080           0
   16641 WT1  4622 TIP3 H2   HT     0.417000        1.0080           0
   16642 WT1  4623 TIP3 OH2  OT    -0.834000       15.9994           0
   16643 WT1  4623 TIP3 H1   HT     0.417000        1.0080           0
   16644 WT1  4623 TIP3 H2   HT     0.417000        1.0080           0
   16645 WT1  4624 TIP3 OH2  OT    -0.834000       15.9994           0
   16646 WT1  4624 TIP3 H1   HT     0.417000        1.0080           0
   16647 WT1  4624 TIP3 H2   HT     0.417000        1.0080           0
   16648 WT1  4625 TIP3 OH2  OT    -0.834000       15.9994           0
   16649 WT1  4625 TIP3 H1   HT     0.417000        1.0080           0
   16650 WT1  4625 TIP3 H2   HT     0.417000        1.0080           0
   16651 WT1  4626 TIP3 OH2  OT    -0.834000       15.9994           0
   16652 WT1  4626 TIP3 H1   HT     0.417000        1.0080           0
   16653 WT1  4626 TIP3 H2   HT     0.417000        1.0080           0
   16654 WT1  4627 TIP3 OH2  OT    -0.834000       15.9994           0
   16655 WT1  4627 TIP3 H1   HT     0.417000        1.0080           0
   16656 WT1  4627 TIP3 H2   HT     0.417000        1.0080           0
   16657 WT1  4628 TIP3 OH2  OT    -0.834000       15.9994           0
   16658 WT1  4628 TIP3 H1   HT     0.417000        1.0080           0
   16659 WT1  4628 TIP3 H2   HT     0.417000        1.0080           0
   16660 WT1  4629 TIP3 OH2  OT    -0.834000       15.9994           0
   16661 WT1  4629 TIP3 H1   HT     0.417000        1.0080           0
   16662 WT1  4629 TIP3 H2   HT     0.417000        1.0080           0
   16663 WT1  4630 TIP3 OH2  OT    -0.834000       15.9994           0
   16664 WT1  4630 TIP3 H1   HT     0.417000        1.0080           0
   16665 WT1  4630 TIP3 H2   HT     0.417000        1.0080           0
   16666 WT1  4631 TIP3 OH2  OT    -0.834000       15.9994           0
   16667 WT1  4631 TIP3 H1   HT     0.417000        1.0080           0
   16668 WT1  4631 TIP3 H2   HT     0.417000        1.0080           0
   16669 WT1  4632 TIP3 OH2  OT    -0.834000       15.9994           0
   16670 WT1  4632 TIP3 H1   HT     0.417000        1.0080           0
   16671 WT1  4632 TIP3 H2   HT     0.417000        1.0080           0
   16672 WT1  4633 TIP3 OH2  OT    -0.834000       15.9994           0
   16673 WT1  4633 TIP3 H1   HT     0.417000        1.0080           0
   16674 WT1  4633 TIP3 H2   HT     0.417000        1.0080           0
   16675 WT1  4634 TIP3 OH2  OT    -0.834000       15.9994           0
   16676 WT1  4634 TIP3 H1   HT     0.417000        1.0080           0
   16677 WT1  4634 TIP3 H2   HT     0.417000        1.0080           0
   16678 WT1  4635 TIP3 OH2  OT    -0.834000       15.9994           0
   16679 WT1  4635 TIP3 H1   HT     0.417000        1.0080           0
   16680 WT1  4635 TIP3 H2   HT     0.417000        1.0080           0
   16681 WT1  4636 TIP3 OH2  OT    -0.834000       15.9994           0
   16682 WT1  4636 TIP3 H1   HT     0.417000        1.0080           0
   16683 WT1  4636 TIP3 H2   HT     0.417000        1.0080           0
   16684 WT1  4639 TIP3 OH2  OT    -0.834000       15.9994           0
   16685 WT1  4639 TIP3 H1   HT     0.417000        1.0080           0
   16686 WT1  4639 TIP3 H2   HT     0.417000        1.0080           0
   16687 WT1  4640 TIP3 OH2  OT    -0.834000       15.9994           0
   16688 WT1  4640 TIP3 H1   HT     0.417000        1.0080           0
   16689 WT1  4640 TIP3 H2   HT     0.417000        1.0080           0
   16690 WT1  4641 TIP3 OH2  OT    -0.834000       15.9994           0
   16691 WT1  4641 TIP3 H1   HT     0.417000        1.0080           0
   16692 WT1  4641 TIP3 H2   HT     0.417000        1.0080           0
   16693 WT1  4642 TIP3 OH2  OT    -0.834000       15.9994           0
   16694 WT1  4642 TIP3 H1   HT     0.417000        1.0080           0
   16695 WT1  4642 TIP3 H2   HT     0.417000        1.0080           0
   16696 WT1  4643 TIP3 OH2  OT    -0.834000       15.9994           0
   16697 WT1  4643 TIP3 H1   HT     0.417000        1.0080           0
   16698 WT1  4643 TIP3 H2   HT     0.417000        1.0080           0
   16699 WT1  4644 TIP3 OH2  OT    -0.834000       15.9994           0
   16700 WT1  4644 TIP3 H1   HT     0.417000        1.0080           0
   16701 WT1  4644 TIP3 H2   HT     0.417000        1.0080           0
   16702 WT1  4645 TIP3 OH2  OT    -0.834000       15.9994           0
   16703 WT1  4645 TIP3 H1   HT     0.417000        1.0080           0
   16704 WT1  4645 TIP3 H2   HT     0.417000        1.0080           0
   16705 WT1  4646 TIP3 OH2  OT    -0.834000       15.9994           0
   16706 WT1  4646 TIP3 H1   HT     0.417000        1.0080           0
   16707 WT1  4646 TIP3 H2   HT     0.417000        1.0080           0
   16708 WT1  4647 TIP3 OH2  OT    -0.834000       15.9994           0
   16709 WT1  4647 TIP3 H1   HT     0.417000        1.0080           0
   16710 WT1  4647 TIP3 H2   HT     0.417000        1.0080           0
   16711 WT1  4648 TIP3 OH2  OT    -0.834000       15.9994           0
   16712 WT1  4648 TIP3 H1   HT     0.417000        1.0080           0
   16713 WT1  4648 TIP3 H2   HT     0.417000        1.0080           0
   16714 WT1  4649 TIP3 OH2  OT    -0.834000       15.9994           0
   16715 WT1  4649 TIP3 H1   HT     0.417000        1.0080           0
   16716 WT1  4649 TIP3 H2   HT     0.417000        1.0080           0
   16717 WT1  4650 TIP3 OH2  OT    -0.834000       15.9994           0
   16718 WT1  4650 TIP3 H1   HT     0.417000        1.0080           0
   16719 WT1  4650 TIP3 H2   HT     0.417000        1.0080           0
   16720 WT1  4651 TIP3 OH2  OT    -0.834000       15.9994           0
   16721 WT1  4651 TIP3 H1   HT     0.417000        1.0080           0
   16722 WT1  4651 TIP3 H2   HT     0.417000        1.0080           0
   16723 WT1  4652 TIP3 OH2  OT    -0.834000       15.9994           0
   16724 WT1  4652 TIP3 H1   HT     0.417000        1.0080           0
   16725 WT1  4652 TIP3 H2   HT     0.417000        1.0080           0
   16726 WT1  4653 TIP3 OH2  OT    -0.834000       15.9994           0
   16727 WT1  4653 TIP3 H1   HT     0.417000        1.0080           0
   16728 WT1  4653 TIP3 H2   HT     0.417000        1.0080           0
   16729 WT1  4654 TIP3 OH2  OT    -0.834000       15.9994           0
   16730 WT1  4654 TIP3 H1   HT     0.417000        1.0080           0
   16731 WT1  4654 TIP3 H2   HT     0.417000        1.0080           0
   16732 WT1  4655 TIP3 OH2  OT    -0.834000       15.9994           0
   16733 WT1  4655 TIP3 H1   HT     0.417000        1.0080           0
   16734 WT1  4655 TIP3 H2   HT     0.417000        1.0080           0
   16735 WT1  4656 TIP3 OH2  OT    -0.834000       15.9994           0
   16736 WT1  4656 TIP3 H1   HT     0.417000        1.0080           0
   16737 WT1  4656 TIP3 H2   HT     0.417000        1.0080           0
   16738 WT1  4657 TIP3 OH2  OT    -0.834000       15.9994           0
   16739 WT1  4657 TIP3 H1   HT     0.417000        1.0080           0
   16740 WT1  4657 TIP3 H2   HT     0.417000        1.0080           0
   16741 WT1  4661 TIP3 OH2  OT    -0.834000       15.9994           0
   16742 WT1  4661 TIP3 H1   HT     0.417000        1.0080           0
   16743 WT1  4661 TIP3 H2   HT     0.417000        1.0080           0
   16744 WT1  4663 TIP3 OH2  OT    -0.834000       15.9994           0
   16745 WT1  4663 TIP3 H1   HT     0.417000        1.0080           0
   16746 WT1  4663 TIP3 H2   HT     0.417000        1.0080           0
   16747 WT1  4664 TIP3 OH2  OT    -0.834000       15.9994           0
   16748 WT1  4664 TIP3 H1   HT     0.417000        1.0080           0
   16749 WT1  4664 TIP3 H2   HT     0.417000        1.0080           0
   16750 WT1  4665 TIP3 OH2  OT    -0.834000       15.9994           0
   16751 WT1  4665 TIP3 H1   HT     0.417000        1.0080           0
   16752 WT1  4665 TIP3 H2   HT     0.417000        1.0080           0
   16753 WT1  4666 TIP3 OH2  OT    -0.834000       15.9994           0
   16754 WT1  4666 TIP3 H1   HT     0.417000        1.0080           0
   16755 WT1  4666 TIP3 H2   HT     0.417000        1.0080           0
   16756 WT1  4667 TIP3 OH2  OT    -0.834000       15.9994           0
   16757 WT1  4667 TIP3 H1   HT     0.417000        1.0080           0
   16758 WT1  4667 TIP3 H2   HT     0.417000        1.0080           0
   16759 WT1  4668 TIP3 OH2  OT    -0.834000       15.9994           0
   16760 WT1  4668 TIP3 H1   HT     0.417000        1.0080           0
   16761 WT1  4668 TIP3 H2   HT     0.417000        1.0080           0
   16762 WT1  4669 TIP3 OH2  OT    -0.834000       15.9994           0
   16763 WT1  4669 TIP3 H1   HT     0.417000        1.0080           0
   16764 WT1  4669 TIP3 H2   HT     0.417000        1.0080           0
   16765 WT1  4670 TIP3 OH2  OT    -0.834000       15.9994           0
   16766 WT1  4670 TIP3 H1   HT     0.417000        1.0080           0
   16767 WT1  4670 TIP3 H2   HT     0.417000        1.0080           0
   16768 WT1  4671 TIP3 OH2  OT    -0.834000       15.9994           0
   16769 WT1  4671 TIP3 H1   HT     0.417000        1.0080           0
   16770 WT1  4671 TIP3 H2   HT     0.417000        1.0080           0
   16771 WT1  4672 TIP3 OH2  OT    -0.834000       15.9994           0
   16772 WT1  4672 TIP3 H1   HT     0.417000        1.0080           0
   16773 WT1  4672 TIP3 H2   HT     0.417000        1.0080           0
   16774 WT1  4673 TIP3 OH2  OT    -0.834000       15.9994           0
   16775 WT1  4673 TIP3 H1   HT     0.417000        1.0080           0
   16776 WT1  4673 TIP3 H2   HT     0.417000        1.0080           0
   16777 WT1  4674 TIP3 OH2  OT    -0.834000       15.9994           0
   16778 WT1  4674 TIP3 H1   HT     0.417000        1.0080           0
   16779 WT1  4674 TIP3 H2   HT     0.417000        1.0080           0
   16780 WT1  4675 TIP3 OH2  OT    -0.834000       15.9994           0
   16781 WT1  4675 TIP3 H1   HT     0.417000        1.0080           0
   16782 WT1  4675 TIP3 H2   HT     0.417000        1.0080           0
   16783 WT1  4676 TIP3 OH2  OT    -0.834000       15.9994           0
   16784 WT1  4676 TIP3 H1   HT     0.417000        1.0080           0
   16785 WT1  4676 TIP3 H2   HT     0.417000        1.0080           0
   16786 WT1  4677 TIP3 OH2  OT    -0.834000       15.9994           0
   16787 WT1  4677 TIP3 H1   HT     0.417000        1.0080           0
   16788 WT1  4677 TIP3 H2   HT     0.417000        1.0080           0
   16789 WT1  4678 TIP3 OH2  OT    -0.834000       15.9994           0
   16790 WT1  4678 TIP3 H1   HT     0.417000        1.0080           0
   16791 WT1  4678 TIP3 H2   HT     0.417000        1.0080           0
   16792 WT1  4679 TIP3 OH2  OT    -0.834000       15.9994           0
   16793 WT1  4679 TIP3 H1   HT     0.417000        1.0080           0
   16794 WT1  4679 TIP3 H2   HT     0.417000        1.0080           0
   16795 WT1  4681 TIP3 OH2  OT    -0.834000       15.9994           0
   16796 WT1  4681 TIP3 H1   HT     0.417000        1.0080           0
   16797 WT1  4681 TIP3 H2   HT     0.417000        1.0080           0
   16798 WT1  4682 TIP3 OH2  OT    -0.834000       15.9994           0
   16799 WT1  4682 TIP3 H1   HT     0.417000        1.0080           0
   16800 WT1  4682 TIP3 H2   HT     0.417000        1.0080           0
   16801 WT1  4683 TIP3 OH2  OT    -0.834000       15.9994           0
   16802 WT1  4683 TIP3 H1   HT     0.417000        1.0080           0
   16803 WT1  4683 TIP3 H2   HT     0.417000        1.0080           0
   16804 WT1  4685 TIP3 OH2  OT    -0.834000       15.9994           0
   16805 WT1  4685 TIP3 H1   HT     0.417000        1.0080           0
   16806 WT1  4685 TIP3 H2   HT     0.417000        1.0080           0
   16807 WT1  4686 TIP3 OH2  OT    -0.834000       15.9994           0
   16808 WT1  4686 TIP3 H1   HT     0.417000        1.0080           0
   16809 WT1  4686 TIP3 H2   HT     0.417000        1.0080           0
   16810 WT1  4687 TIP3 OH2  OT    -0.834000       15.9994           0
   16811 WT1  4687 TIP3 H1   HT     0.417000        1.0080           0
   16812 WT1  4687 TIP3 H2   HT     0.417000        1.0080           0
   16813 WT1  4688 TIP3 OH2  OT    -0.834000       15.9994           0
   16814 WT1  4688 TIP3 H1   HT     0.417000        1.0080           0
   16815 WT1  4688 TIP3 H2   HT     0.417000        1.0080           0
   16816 WT1  4689 TIP3 OH2  OT    -0.834000       15.9994           0
   16817 WT1  4689 TIP3 H1   HT     0.417000        1.0080           0
   16818 WT1  4689 TIP3 H2   HT     0.417000        1.0080           0
   16819 WT1  4690 TIP3 OH2  OT    -0.834000       15.9994           0
   16820 WT1  4690 TIP3 H1   HT     0.417000        1.0080           0
   16821 WT1  4690 TIP3 H2   HT     0.417000        1.0080           0
   16822 WT1  4691 TIP3 OH2  OT    -0.834000       15.9994           0
   16823 WT1  4691 TIP3 H1   HT     0.417000        1.0080           0
   16824 WT1  4691 TIP3 H2   HT     0.417000        1.0080           0
   16825 WT1  4692 TIP3 OH2  OT    -0.834000       15.9994           0
   16826 WT1  4692 TIP3 H1   HT     0.417000        1.0080           0
   16827 WT1  4692 TIP3 H2   HT     0.417000        1.0080           0
   16828 WT1  4693 TIP3 OH2  OT    -0.834000       15.9994           0
   16829 WT1  4693 TIP3 H1   HT     0.417000        1.0080           0
   16830 WT1  4693 TIP3 H2   HT     0.417000        1.0080           0
   16831 WT1  4694 TIP3 OH2  OT    -0.834000       15.9994           0
   16832 WT1  4694 TIP3 H1   HT     0.417000        1.0080           0
   16833 WT1  4694 TIP3 H2   HT     0.417000        1.0080           0
   16834 WT1  4695 TIP3 OH2  OT    -0.834000       15.9994           0
   16835 WT1  4695 TIP3 H1   HT     0.417000        1.0080           0
   16836 WT1  4695 TIP3 H2   HT     0.417000        1.0080           0
   16837 WT1  4696 TIP3 OH2  OT    -0.834000       15.9994           0
   16838 WT1  4696 TIP3 H1   HT     0.417000        1.0080           0
   16839 WT1  4696 TIP3 H2   HT     0.417000        1.0080           0
   16840 WT1  4697 TIP3 OH2  OT    -0.834000       15.9994           0
   16841 WT1  4697 TIP3 H1   HT     0.417000        1.0080           0
   16842 WT1  4697 TIP3 H2   HT     0.417000        1.0080           0
   16843 WT1  4698 TIP3 OH2  OT    -0.834000       15.9994           0
   16844 WT1  4698 TIP3 H1   HT     0.417000        1.0080           0
   16845 WT1  4698 TIP3 H2   HT     0.417000        1.0080           0
   16846 WT1  4699 TIP3 OH2  OT    -0.834000       15.9994           0
   16847 WT1  4699 TIP3 H1   HT     0.417000        1.0080           0
   16848 WT1  4699 TIP3 H2   HT     0.417000        1.0080           0
   16849 WT1  4700 TIP3 OH2  OT    -0.834000       15.9994           0
   16850 WT1  4700 TIP3 H1   HT     0.417000        1.0080           0
   16851 WT1  4700 TIP3 H2   HT     0.417000        1.0080           0
   16852 WT1  4703 TIP3 OH2  OT    -0.834000       15.9994           0
   16853 WT1  4703 TIP3 H1   HT     0.417000        1.0080           0
   16854 WT1  4703 TIP3 H2   HT     0.417000        1.0080           0
   16855 WT1  4704 TIP3 OH2  OT    -0.834000       15.9994           0
   16856 WT1  4704 TIP3 H1   HT     0.417000        1.0080           0
   16857 WT1  4704 TIP3 H2   HT     0.417000        1.0080           0
   16858 WT1  4705 TIP3 OH2  OT    -0.834000       15.9994           0
   16859 WT1  4705 TIP3 H1   HT     0.417000        1.0080           0
   16860 WT1  4705 TIP3 H2   HT     0.417000        1.0080           0
   16861 WT1  4706 TIP3 OH2  OT    -0.834000       15.9994           0
   16862 WT1  4706 TIP3 H1   HT     0.417000        1.0080           0
   16863 WT1  4706 TIP3 H2   HT     0.417000        1.0080           0
   16864 WT1  4707 TIP3 OH2  OT    -0.834000       15.9994           0
   16865 WT1  4707 TIP3 H1   HT     0.417000        1.0080           0
   16866 WT1  4707 TIP3 H2   HT     0.417000        1.0080           0
   16867 WT1  4708 TIP3 OH2  OT    -0.834000       15.9994           0
   16868 WT1  4708 TIP3 H1   HT     0.417000        1.0080           0
   16869 WT1  4708 TIP3 H2   HT     0.417000        1.0080           0
   16870 WT1  4709 TIP3 OH2  OT    -0.834000       15.9994           0
   16871 WT1  4709 TIP3 H1   HT     0.417000        1.0080           0
   16872 WT1  4709 TIP3 H2   HT     0.417000        1.0080           0
   16873 WT1  4710 TIP3 OH2  OT    -0.834000       15.9994           0
   16874 WT1  4710 TIP3 H1   HT     0.417000        1.0080           0
   16875 WT1  4710 TIP3 H2   HT     0.417000        1.0080           0
   16876 WT1  4711 TIP3 OH2  OT    -0.834000       15.9994           0
   16877 WT1  4711 TIP3 H1   HT     0.417000        1.0080           0
   16878 WT1  4711 TIP3 H2   HT     0.417000        1.0080           0
   16879 WT1  4712 TIP3 OH2  OT    -0.834000       15.9994           0
   16880 WT1  4712 TIP3 H1   HT     0.417000        1.0080           0
   16881 WT1  4712 TIP3 H2   HT     0.417000        1.0080           0
   16882 WT1  4713 TIP3 OH2  OT    -0.834000       15.9994           0
   16883 WT1  4713 TIP3 H1   HT     0.417000        1.0080           0
   16884 WT1  4713 TIP3 H2   HT     0.417000        1.0080           0
   16885 WT1  4714 TIP3 OH2  OT    -0.834000       15.9994           0
   16886 WT1  4714 TIP3 H1   HT     0.417000        1.0080           0
   16887 WT1  4714 TIP3 H2   HT     0.417000        1.0080           0
   16888 WT1  4715 TIP3 OH2  OT    -0.834000       15.9994           0
   16889 WT1  4715 TIP3 H1   HT     0.417000        1.0080           0
   16890 WT1  4715 TIP3 H2   HT     0.417000        1.0080           0
   16891 WT1  4716 TIP3 OH2  OT    -0.834000       15.9994           0
   16892 WT1  4716 TIP3 H1   HT     0.417000        1.0080           0
   16893 WT1  4716 TIP3 H2   HT     0.417000        1.0080           0
   16894 WT1  4717 TIP3 OH2  OT    -0.834000       15.9994           0
   16895 WT1  4717 TIP3 H1   HT     0.417000        1.0080           0
   16896 WT1  4717 TIP3 H2   HT     0.417000        1.0080           0
   16897 WT1  4718 TIP3 OH2  OT    -0.834000       15.9994           0
   16898 WT1  4718 TIP3 H1   HT     0.417000        1.0080           0
   16899 WT1  4718 TIP3 H2   HT     0.417000        1.0080           0
   16900 WT1  4719 TIP3 OH2  OT    -0.834000       15.9994           0
   16901 WT1  4719 TIP3 H1   HT     0.417000        1.0080           0
   16902 WT1  4719 TIP3 H2   HT     0.417000        1.0080           0
   16903 WT1  4720 TIP3 OH2  OT    -0.834000       15.9994           0
   16904 WT1  4720 TIP3 H1   HT     0.417000        1.0080           0
   16905 WT1  4720 TIP3 H2   HT     0.417000        1.0080           0
   16906 WT1  4721 TIP3 OH2  OT    -0.834000       15.9994           0
   16907 WT1  4721 TIP3 H1   HT     0.417000        1.0080           0
   16908 WT1  4721 TIP3 H2   HT     0.417000        1.0080           0
   16909 WT1  4723 TIP3 OH2  OT    -0.834000       15.9994           0
   16910 WT1  4723 TIP3 H1   HT     0.417000        1.0080           0
   16911 WT1  4723 TIP3 H2   HT     0.417000        1.0080           0
   16912 WT1  4725 TIP3 OH2  OT    -0.834000       15.9994           0
   16913 WT1  4725 TIP3 H1   HT     0.417000        1.0080           0
   16914 WT1  4725 TIP3 H2   HT     0.417000        1.0080           0
   16915 WT1  4726 TIP3 OH2  OT    -0.834000       15.9994           0
   16916 WT1  4726 TIP3 H1   HT     0.417000        1.0080           0
   16917 WT1  4726 TIP3 H2   HT     0.417000        1.0080           0
   16918 WT1  4727 TIP3 OH2  OT    -0.834000       15.9994           0
   16919 WT1  4727 TIP3 H1   HT     0.417000        1.0080           0
   16920 WT1  4727 TIP3 H2   HT     0.417000        1.0080           0
   16921 WT1  4728 TIP3 OH2  OT    -0.834000       15.9994           0
   16922 WT1  4728 TIP3 H1   HT     0.417000        1.0080           0
   16923 WT1  4728 TIP3 H2   HT     0.417000        1.0080           0
   16924 WT1  4729 TIP3 OH2  OT    -0.834000       15.9994           0
   16925 WT1  4729 TIP3 H1   HT     0.417000        1.0080           0
   16926 WT1  4729 TIP3 H2   HT     0.417000        1.0080           0
   16927 WT1  4730 TIP3 OH2  OT    -0.834000       15.9994           0
   16928 WT1  4730 TIP3 H1   HT     0.417000        1.0080           0
   16929 WT1  4730 TIP3 H2   HT     0.417000        1.0080           0
   16930 WT1  4731 TIP3 OH2  OT    -0.834000       15.9994           0
   16931 WT1  4731 TIP3 H1   HT     0.417000        1.0080           0
   16932 WT1  4731 TIP3 H2   HT     0.417000        1.0080           0
   16933 WT1  4732 TIP3 OH2  OT    -0.834000       15.9994           0
   16934 WT1  4732 TIP3 H1   HT     0.417000        1.0080           0
   16935 WT1  4732 TIP3 H2   HT     0.417000        1.0080           0
   16936 WT1  4734 TIP3 OH2  OT    -0.834000       15.9994           0
   16937 WT1  4734 TIP3 H1   HT     0.417000        1.0080           0
   16938 WT1  4734 TIP3 H2   HT     0.417000        1.0080           0
   16939 WT1  4735 TIP3 OH2  OT    -0.834000       15.9994           0
   16940 WT1  4735 TIP3 H1   HT     0.417000        1.0080           0
   16941 WT1  4735 TIP3 H2   HT     0.417000        1.0080           0
   16942 WT1  4736 TIP3 OH2  OT    -0.834000       15.9994           0
   16943 WT1  4736 TIP3 H1   HT     0.417000        1.0080           0
   16944 WT1  4736 TIP3 H2   HT     0.417000        1.0080           0
   16945 WT1  4737 TIP3 OH2  OT    -0.834000       15.9994           0
   16946 WT1  4737 TIP3 H1   HT     0.417000        1.0080           0
   16947 WT1  4737 TIP3 H2   HT     0.417000        1.0080           0
   16948 WT1  4738 TIP3 OH2  OT    -0.834000       15.9994           0
   16949 WT1  4738 TIP3 H1   HT     0.417000        1.0080           0
   16950 WT1  4738 TIP3 H2   HT     0.417000        1.0080           0
   16951 WT1  4739 TIP3 OH2  OT    -0.834000       15.9994           0
   16952 WT1  4739 TIP3 H1   HT     0.417000        1.0080           0
   16953 WT1  4739 TIP3 H2   HT     0.417000        1.0080           0
   16954 WT1  4740 TIP3 OH2  OT    -0.834000       15.9994           0
   16955 WT1  4740 TIP3 H1   HT     0.417000        1.0080           0
   16956 WT1  4740 TIP3 H2   HT     0.417000        1.0080           0
   16957 WT1  4742 TIP3 OH2  OT    -0.834000       15.9994           0
   16958 WT1  4742 TIP3 H1   HT     0.417000        1.0080           0
   16959 WT1  4742 TIP3 H2   HT     0.417000        1.0080           0
   16960 WT1  4745 TIP3 OH2  OT    -0.834000       15.9994           0
   16961 WT1  4745 TIP3 H1   HT     0.417000        1.0080           0
   16962 WT1  4745 TIP3 H2   HT     0.417000        1.0080           0
   16963 WT1  4747 TIP3 OH2  OT    -0.834000       15.9994           0
   16964 WT1  4747 TIP3 H1   HT     0.417000        1.0080           0
   16965 WT1  4747 TIP3 H2   HT     0.417000        1.0080           0
   16966 WT1  4748 TIP3 OH2  OT    -0.834000       15.9994           0
   16967 WT1  4748 TIP3 H1   HT     0.417000        1.0080           0
   16968 WT1  4748 TIP3 H2   HT     0.417000        1.0080           0
   16969 WT1  4750 TIP3 OH2  OT    -0.834000       15.9994           0
   16970 WT1  4750 TIP3 H1   HT     0.417000        1.0080           0
   16971 WT1  4750 TIP3 H2   HT     0.417000        1.0080           0
   16972 WT1  4751 TIP3 OH2  OT    -0.834000       15.9994           0
   16973 WT1  4751 TIP3 H1   HT     0.417000        1.0080           0
   16974 WT1  4751 TIP3 H2   HT     0.417000        1.0080           0
   16975 WT1  4752 TIP3 OH2  OT    -0.834000       15.9994           0
   16976 WT1  4752 TIP3 H1   HT     0.417000        1.0080           0
   16977 WT1  4752 TIP3 H2   HT     0.417000        1.0080           0
   16978 WT1  4753 TIP3 OH2  OT    -0.834000       15.9994           0
   16979 WT1  4753 TIP3 H1   HT     0.417000        1.0080           0
   16980 WT1  4753 TIP3 H2   HT     0.417000        1.0080           0
   16981 WT1  4754 TIP3 OH2  OT    -0.834000       15.9994           0
   16982 WT1  4754 TIP3 H1   HT     0.417000        1.0080           0
   16983 WT1  4754 TIP3 H2   HT     0.417000        1.0080           0
   16984 WT1  4755 TIP3 OH2  OT    -0.834000       15.9994           0
   16985 WT1  4755 TIP3 H1   HT     0.417000        1.0080           0
   16986 WT1  4755 TIP3 H2   HT     0.417000        1.0080           0
   16987 WT1  4756 TIP3 OH2  OT    -0.834000       15.9994           0
   16988 WT1  4756 TIP3 H1   HT     0.417000        1.0080           0
   16989 WT1  4756 TIP3 H2   HT     0.417000        1.0080           0
   16990 WT1  4758 TIP3 OH2  OT    -0.834000       15.9994           0
   16991 WT1  4758 TIP3 H1   HT     0.417000        1.0080           0
   16992 WT1  4758 TIP3 H2   HT     0.417000        1.0080           0
   16993 WT1  4759 TIP3 OH2  OT    -0.834000       15.9994           0
   16994 WT1  4759 TIP3 H1   HT     0.417000        1.0080           0
   16995 WT1  4759 TIP3 H2   HT     0.417000        1.0080           0
   16996 WT1  4760 TIP3 OH2  OT    -0.834000       15.9994           0
   16997 WT1  4760 TIP3 H1   HT     0.417000        1.0080           0
   16998 WT1  4760 TIP3 H2   HT     0.417000        1.0080           0
   16999 WT1  4761 TIP3 OH2  OT    -0.834000       15.9994           0
   17000 WT1  4761 TIP3 H1   HT     0.417000        1.0080           0
   17001 WT1  4761 TIP3 H2   HT     0.417000        1.0080           0
   17002 WT1  4762 TIP3 OH2  OT    -0.834000       15.9994           0
   17003 WT1  4762 TIP3 H1   HT     0.417000        1.0080           0
   17004 WT1  4762 TIP3 H2   HT     0.417000        1.0080           0
   17005 WT1  4763 TIP3 OH2  OT    -0.834000       15.9994           0
   17006 WT1  4763 TIP3 H1   HT     0.417000        1.0080           0
   17007 WT1  4763 TIP3 H2   HT     0.417000        1.0080           0
   17008 WT1  4765 TIP3 OH2  OT    -0.834000       15.9994           0
   17009 WT1  4765 TIP3 H1   HT     0.417000        1.0080           0
   17010 WT1  4765 TIP3 H2   HT     0.417000        1.0080           0
   17011 WT1  4767 TIP3 OH2  OT    -0.834000       15.9994           0
   17012 WT1  4767 TIP3 H1   HT     0.417000        1.0080           0
   17013 WT1  4767 TIP3 H2   HT     0.417000        1.0080           0
   17014 WT1  4768 TIP3 OH2  OT    -0.834000       15.9994           0
   17015 WT1  4768 TIP3 H1   HT     0.417000        1.0080           0
   17016 WT1  4768 TIP3 H2   HT     0.417000        1.0080           0
   17017 WT1  4769 TIP3 OH2  OT    -0.834000       15.9994           0
   17018 WT1  4769 TIP3 H1   HT     0.417000        1.0080           0
   17019 WT1  4769 TIP3 H2   HT     0.417000        1.0080           0
   17020 WT1  4770 TIP3 OH2  OT    -0.834000       15.9994           0
   17021 WT1  4770 TIP3 H1   HT     0.417000        1.0080           0
   17022 WT1  4770 TIP3 H2   HT     0.417000        1.0080           0
   17023 WT1  4771 TIP3 OH2  OT    -0.834000       15.9994           0
   17024 WT1  4771 TIP3 H1   HT     0.417000        1.0080           0
   17025 WT1  4771 TIP3 H2   HT     0.417000        1.0080           0
   17026 WT1  4772 TIP3 OH2  OT    -0.834000       15.9994           0
   17027 WT1  4772 TIP3 H1   HT     0.417000        1.0080           0
   17028 WT1  4772 TIP3 H2   HT     0.417000        1.0080           0
   17029 WT1  4773 TIP3 OH2  OT    -0.834000       15.9994           0
   17030 WT1  4773 TIP3 H1   HT     0.417000        1.0080           0
   17031 WT1  4773 TIP3 H2   HT     0.417000        1.0080           0
   17032 WT1  4774 TIP3 OH2  OT    -0.834000       15.9994           0
   17033 WT1  4774 TIP3 H1   HT     0.417000        1.0080           0
   17034 WT1  4774 TIP3 H2   HT     0.417000        1.0080           0
   17035 WT1  4775 TIP3 OH2  OT    -0.834000       15.9994           0
   17036 WT1  4775 TIP3 H1   HT     0.417000        1.0080           0
   17037 WT1  4775 TIP3 H2   HT     0.417000        1.0080           0
   17038 WT1  4776 TIP3 OH2  OT    -0.834000       15.9994           0
   17039 WT1  4776 TIP3 H1   HT     0.417000        1.0080           0
   17040 WT1  4776 TIP3 H2   HT     0.417000        1.0080           0
   17041 WT1  4777 TIP3 OH2  OT    -0.834000       15.9994           0
   17042 WT1  4777 TIP3 H1   HT     0.417000        1.0080           0
   17043 WT1  4777 TIP3 H2   HT     0.417000        1.0080           0
   17044 WT1  4778 TIP3 OH2  OT    -0.834000       15.9994           0
   17045 WT1  4778 TIP3 H1   HT     0.417000        1.0080           0
   17046 WT1  4778 TIP3 H2   HT     0.417000        1.0080           0
   17047 WT1  4779 TIP3 OH2  OT    -0.834000       15.9994           0
   17048 WT1  4779 TIP3 H1   HT     0.417000        1.0080           0
   17049 WT1  4779 TIP3 H2   HT     0.417000        1.0080           0
   17050 WT1  4780 TIP3 OH2  OT    -0.834000       15.9994           0
   17051 WT1  4780 TIP3 H1   HT     0.417000        1.0080           0
   17052 WT1  4780 TIP3 H2   HT     0.417000        1.0080           0
   17053 WT1  4782 TIP3 OH2  OT    -0.834000       15.9994           0
   17054 WT1  4782 TIP3 H1   HT     0.417000        1.0080           0
   17055 WT1  4782 TIP3 H2   HT     0.417000        1.0080           0
   17056 WT1  4783 TIP3 OH2  OT    -0.834000       15.9994           0
   17057 WT1  4783 TIP3 H1   HT     0.417000        1.0080           0
   17058 WT1  4783 TIP3 H2   HT     0.417000        1.0080           0
   17059 WT1  4784 TIP3 OH2  OT    -0.834000       15.9994           0
   17060 WT1  4784 TIP3 H1   HT     0.417000        1.0080           0
   17061 WT1  4784 TIP3 H2   HT     0.417000        1.0080           0
   17062 WT1  4785 TIP3 OH2  OT    -0.834000       15.9994           0
   17063 WT1  4785 TIP3 H1   HT     0.417000        1.0080           0
   17064 WT1  4785 TIP3 H2   HT     0.417000        1.0080           0
   17065 WT1  4787 TIP3 OH2  OT    -0.834000       15.9994           0
   17066 WT1  4787 TIP3 H1   HT     0.417000        1.0080           0
   17067 WT1  4787 TIP3 H2   HT     0.417000        1.0080           0
   17068 WT1  4788 TIP3 OH2  OT    -0.834000       15.9994           0
   17069 WT1  4788 TIP3 H1   HT     0.417000        1.0080           0
   17070 WT1  4788 TIP3 H2   HT     0.417000        1.0080           0
   17071 WT1  4790 TIP3 OH2  OT    -0.834000       15.9994           0
   17072 WT1  4790 TIP3 H1   HT     0.417000        1.0080           0
   17073 WT1  4790 TIP3 H2   HT     0.417000        1.0080           0
   17074 WT1  4791 TIP3 OH2  OT    -0.834000       15.9994           0
   17075 WT1  4791 TIP3 H1   HT     0.417000        1.0080           0
   17076 WT1  4791 TIP3 H2   HT     0.417000        1.0080           0
   17077 WT1  4792 TIP3 OH2  OT    -0.834000       15.9994           0
   17078 WT1  4792 TIP3 H1   HT     0.417000        1.0080           0
   17079 WT1  4792 TIP3 H2   HT     0.417000        1.0080           0
   17080 WT1  4793 TIP3 OH2  OT    -0.834000       15.9994           0
   17081 WT1  4793 TIP3 H1   HT     0.417000        1.0080           0
   17082 WT1  4793 TIP3 H2   HT     0.417000        1.0080           0
   17083 WT1  4794 TIP3 OH2  OT    -0.834000       15.9994           0
   17084 WT1  4794 TIP3 H1   HT     0.417000        1.0080           0
   17085 WT1  4794 TIP3 H2   HT     0.417000        1.0080           0
   17086 WT1  4795 TIP3 OH2  OT    -0.834000       15.9994           0
   17087 WT1  4795 TIP3 H1   HT     0.417000        1.0080           0
   17088 WT1  4795 TIP3 H2   HT     0.417000        1.0080           0
   17089 WT1  4796 TIP3 OH2  OT    -0.834000       15.9994           0
   17090 WT1  4796 TIP3 H1   HT     0.417000        1.0080           0
   17091 WT1  4796 TIP3 H2   HT     0.417000        1.0080           0
   17092 WT1  4797 TIP3 OH2  OT    -0.834000       15.9994           0
   17093 WT1  4797 TIP3 H1   HT     0.417000        1.0080           0
   17094 WT1  4797 TIP3 H2   HT     0.417000        1.0080           0
   17095 WT1  4798 TIP3 OH2  OT    -0.834000       15.9994           0
   17096 WT1  4798 TIP3 H1   HT     0.417000        1.0080           0
   17097 WT1  4798 TIP3 H2   HT     0.417000        1.0080           0
   17098 WT1  4799 TIP3 OH2  OT    -0.834000       15.9994           0
   17099 WT1  4799 TIP3 H1   HT     0.417000        1.0080           0
   17100 WT1  4799 TIP3 H2   HT     0.417000        1.0080           0
   17101 WT1  4800 TIP3 OH2  OT    -0.834000       15.9994           0
   17102 WT1  4800 TIP3 H1   HT     0.417000        1.0080           0
   17103 WT1  4800 TIP3 H2   HT     0.417000        1.0080           0
   17104 WT1  4801 TIP3 OH2  OT    -0.834000       15.9994           0
   17105 WT1  4801 TIP3 H1   HT     0.417000        1.0080           0
   17106 WT1  4801 TIP3 H2   HT     0.417000        1.0080           0
   17107 WT1  4803 TIP3 OH2  OT    -0.834000       15.9994           0
   17108 WT1  4803 TIP3 H1   HT     0.417000        1.0080           0
   17109 WT1  4803 TIP3 H2   HT     0.417000        1.0080           0
   17110 WT1  4804 TIP3 OH2  OT    -0.834000       15.9994           0
   17111 WT1  4804 TIP3 H1   HT     0.417000        1.0080           0
   17112 WT1  4804 TIP3 H2   HT     0.417000        1.0080           0
   17113 WT1  4805 TIP3 OH2  OT    -0.834000       15.9994           0
   17114 WT1  4805 TIP3 H1   HT     0.417000        1.0080           0
   17115 WT1  4805 TIP3 H2   HT     0.417000        1.0080           0
   17116 WT1  4806 TIP3 OH2  OT    -0.834000       15.9994           0
   17117 WT1  4806 TIP3 H1   HT     0.417000        1.0080           0
   17118 WT1  4806 TIP3 H2   HT     0.417000        1.0080           0
   17119 WT1  4807 TIP3 OH2  OT    -0.834000       15.9994           0
   17120 WT1  4807 TIP3 H1   HT     0.417000        1.0080           0
   17121 WT1  4807 TIP3 H2   HT     0.417000        1.0080           0
   17122 WT1  4808 TIP3 OH2  OT    -0.834000       15.9994           0
   17123 WT1  4808 TIP3 H1   HT     0.417000        1.0080           0
   17124 WT1  4808 TIP3 H2   HT     0.417000        1.0080           0
   17125 WT1  4809 TIP3 OH2  OT    -0.834000       15.9994           0
   17126 WT1  4809 TIP3 H1   HT     0.417000        1.0080           0
   17127 WT1  4809 TIP3 H2   HT     0.417000        1.0080           0
   17128 WT1  4810 TIP3 OH2  OT    -0.834000       15.9994           0
   17129 WT1  4810 TIP3 H1   HT     0.417000        1.0080           0
   17130 WT1  4810 TIP3 H2   HT     0.417000        1.0080           0
   17131 WT1  4811 TIP3 OH2  OT    -0.834000       15.9994           0
   17132 WT1  4811 TIP3 H1   HT     0.417000        1.0080           0
   17133 WT1  4811 TIP3 H2   HT     0.417000        1.0080           0
   17134 WT1  4812 TIP3 OH2  OT    -0.834000       15.9994           0
   17135 WT1  4812 TIP3 H1   HT     0.417000        1.0080           0
   17136 WT1  4812 TIP3 H2   HT     0.417000        1.0080           0
   17137 WT1  4813 TIP3 OH2  OT    -0.834000       15.9994           0
   17138 WT1  4813 TIP3 H1   HT     0.417000        1.0080           0
   17139 WT1  4813 TIP3 H2   HT     0.417000        1.0080           0
   17140 WT1  4814 TIP3 OH2  OT    -0.834000       15.9994           0
   17141 WT1  4814 TIP3 H1   HT     0.417000        1.0080           0
   17142 WT1  4814 TIP3 H2   HT     0.417000        1.0080           0
   17143 WT1  4815 TIP3 OH2  OT    -0.834000       15.9994           0
   17144 WT1  4815 TIP3 H1   HT     0.417000        1.0080           0
   17145 WT1  4815 TIP3 H2   HT     0.417000        1.0080           0
   17146 WT1  4816 TIP3 OH2  OT    -0.834000       15.9994           0
   17147 WT1  4816 TIP3 H1   HT     0.417000        1.0080           0
   17148 WT1  4816 TIP3 H2   HT     0.417000        1.0080           0
   17149 WT1  4817 TIP3 OH2  OT    -0.834000       15.9994           0
   17150 WT1  4817 TIP3 H1   HT     0.417000        1.0080           0
   17151 WT1  4817 TIP3 H2   HT     0.417000        1.0080           0
   17152 WT1  4818 TIP3 OH2  OT    -0.834000       15.9994           0
   17153 WT1  4818 TIP3 H1   HT     0.417000        1.0080           0
   17154 WT1  4818 TIP3 H2   HT     0.417000        1.0080           0
   17155 WT1  4819 TIP3 OH2  OT    -0.834000       15.9994           0
   17156 WT1  4819 TIP3 H1   HT     0.417000        1.0080           0
   17157 WT1  4819 TIP3 H2   HT     0.417000        1.0080           0
   17158 WT1  4820 TIP3 OH2  OT    -0.834000       15.9994           0
   17159 WT1  4820 TIP3 H1   HT     0.417000        1.0080           0
   17160 WT1  4820 TIP3 H2   HT     0.417000        1.0080           0
   17161 WT1  4821 TIP3 OH2  OT    -0.834000       15.9994           0
   17162 WT1  4821 TIP3 H1   HT     0.417000        1.0080           0
   17163 WT1  4821 TIP3 H2   HT     0.417000        1.0080           0
   17164 WT1  4822 TIP3 OH2  OT    -0.834000       15.9994           0
   17165 WT1  4822 TIP3 H1   HT     0.417000        1.0080           0
   17166 WT1  4822 TIP3 H2   HT     0.417000        1.0080           0
   17167 WT1  4823 TIP3 OH2  OT    -0.834000       15.9994           0
   17168 WT1  4823 TIP3 H1   HT     0.417000        1.0080           0
   17169 WT1  4823 TIP3 H2   HT     0.417000        1.0080           0
   17170 WT1  4824 TIP3 OH2  OT    -0.834000       15.9994           0
   17171 WT1  4824 TIP3 H1   HT     0.417000        1.0080           0
   17172 WT1  4824 TIP3 H2   HT     0.417000        1.0080           0
   17173 WT1  4825 TIP3 OH2  OT    -0.834000       15.9994           0
   17174 WT1  4825 TIP3 H1   HT     0.417000        1.0080           0
   17175 WT1  4825 TIP3 H2   HT     0.417000        1.0080           0
   17176 WT1  4830 TIP3 OH2  OT    -0.834000       15.9994           0
   17177 WT1  4830 TIP3 H1   HT     0.417000        1.0080           0
   17178 WT1  4830 TIP3 H2   HT     0.417000        1.0080           0
   17179 WT1  4831 TIP3 OH2  OT    -0.834000       15.9994           0
   17180 WT1  4831 TIP3 H1   HT     0.417000        1.0080           0
   17181 WT1  4831 TIP3 H2   HT     0.417000        1.0080           0
   17182 WT1  4832 TIP3 OH2  OT    -0.834000       15.9994           0
   17183 WT1  4832 TIP3 H1   HT     0.417000        1.0080           0
   17184 WT1  4832 TIP3 H2   HT     0.417000        1.0080           0
   17185 WT1  4833 TIP3 OH2  OT    -0.834000       15.9994           0
   17186 WT1  4833 TIP3 H1   HT     0.417000        1.0080           0
   17187 WT1  4833 TIP3 H2   HT     0.417000        1.0080           0
   17188 WT1  4834 TIP3 OH2  OT    -0.834000       15.9994           0
   17189 WT1  4834 TIP3 H1   HT     0.417000        1.0080           0
   17190 WT1  4834 TIP3 H2   HT     0.417000        1.0080           0
   17191 WT1  4835 TIP3 OH2  OT    -0.834000       15.9994           0
   17192 WT1  4835 TIP3 H1   HT     0.417000        1.0080           0
   17193 WT1  4835 TIP3 H2   HT     0.417000        1.0080           0
   17194 WT1  4836 TIP3 OH2  OT    -0.834000       15.9994           0
   17195 WT1  4836 TIP3 H1   HT     0.417000        1.0080           0
   17196 WT1  4836 TIP3 H2   HT     0.417000        1.0080           0
   17197 WT1  4837 TIP3 OH2  OT    -0.834000       15.9994           0
   17198 WT1  4837 TIP3 H1   HT     0.417000        1.0080           0
   17199 WT1  4837 TIP3 H2   HT     0.417000        1.0080           0
   17200 WT1  4838 TIP3 OH2  OT    -0.834000       15.9994           0
   17201 WT1  4838 TIP3 H1   HT     0.417000        1.0080           0
   17202 WT1  4838 TIP3 H2   HT     0.417000        1.0080           0
   17203 WT1  4839 TIP3 OH2  OT    -0.834000       15.9994           0
   17204 WT1  4839 TIP3 H1   HT     0.417000        1.0080           0
   17205 WT1  4839 TIP3 H2   HT     0.417000        1.0080           0
   17206 WT1  4840 TIP3 OH2  OT    -0.834000       15.9994           0
   17207 WT1  4840 TIP3 H1   HT     0.417000        1.0080           0
   17208 WT1  4840 TIP3 H2   HT     0.417000        1.0080           0
   17209 WT1  4841 TIP3 OH2  OT    -0.834000       15.9994           0
   17210 WT1  4841 TIP3 H1   HT     0.417000        1.0080           0
   17211 WT1  4841 TIP3 H2   HT     0.417000        1.0080           0
   17212 WT1  4842 TIP3 OH2  OT    -0.834000       15.9994           0
   17213 WT1  4842 TIP3 H1   HT     0.417000        1.0080           0
   17214 WT1  4842 TIP3 H2   HT     0.417000        1.0080           0
   17215 WT1  4843 TIP3 OH2  OT    -0.834000       15.9994           0
   17216 WT1  4843 TIP3 H1   HT     0.417000        1.0080           0
   17217 WT1  4843 TIP3 H2   HT     0.417000        1.0080           0
   17218 WT1  4844 TIP3 OH2  OT    -0.834000       15.9994           0
   17219 WT1  4844 TIP3 H1   HT     0.417000        1.0080           0
   17220 WT1  4844 TIP3 H2   HT     0.417000        1.0080           0
   17221 WT1  4845 TIP3 OH2  OT    -0.834000       15.9994           0
   17222 WT1  4845 TIP3 H1   HT     0.417000        1.0080           0
   17223 WT1  4845 TIP3 H2   HT     0.417000        1.0080           0
   17224 WT1  4846 TIP3 OH2  OT    -0.834000       15.9994           0
   17225 WT1  4846 TIP3 H1   HT     0.417000        1.0080           0
   17226 WT1  4846 TIP3 H2   HT     0.417000        1.0080           0
   17227 WT1  4848 TIP3 OH2  OT    -0.834000       15.9994           0
   17228 WT1  4848 TIP3 H1   HT     0.417000        1.0080           0
   17229 WT1  4848 TIP3 H2   HT     0.417000        1.0080           0
   17230 WT1  4849 TIP3 OH2  OT    -0.834000       15.9994           0
   17231 WT1  4849 TIP3 H1   HT     0.417000        1.0080           0
   17232 WT1  4849 TIP3 H2   HT     0.417000        1.0080           0
   17233 WT1  4851 TIP3 OH2  OT    -0.834000       15.9994           0
   17234 WT1  4851 TIP3 H1   HT     0.417000        1.0080           0
   17235 WT1  4851 TIP3 H2   HT     0.417000        1.0080           0
   17236 WT1  4852 TIP3 OH2  OT    -0.834000       15.9994           0
   17237 WT1  4852 TIP3 H1   HT     0.417000        1.0080           0
   17238 WT1  4852 TIP3 H2   HT     0.417000        1.0080           0
   17239 WT1  4853 TIP3 OH2  OT    -0.834000       15.9994           0
   17240 WT1  4853 TIP3 H1   HT     0.417000        1.0080           0
   17241 WT1  4853 TIP3 H2   HT     0.417000        1.0080           0
   17242 WT1  4854 TIP3 OH2  OT    -0.834000       15.9994           0
   17243 WT1  4854 TIP3 H1   HT     0.417000        1.0080           0
   17244 WT1  4854 TIP3 H2   HT     0.417000        1.0080           0
   17245 WT1  4855 TIP3 OH2  OT    -0.834000       15.9994           0
   17246 WT1  4855 TIP3 H1   HT     0.417000        1.0080           0
   17247 WT1  4855 TIP3 H2   HT     0.417000        1.0080           0
   17248 WT1  4856 TIP3 OH2  OT    -0.834000       15.9994           0
   17249 WT1  4856 TIP3 H1   HT     0.417000        1.0080           0
   17250 WT1  4856 TIP3 H2   HT     0.417000        1.0080           0
   17251 WT1  4857 TIP3 OH2  OT    -0.834000       15.9994           0
   17252 WT1  4857 TIP3 H1   HT     0.417000        1.0080           0
   17253 WT1  4857 TIP3 H2   HT     0.417000        1.0080           0
   17254 WT1  4858 TIP3 OH2  OT    -0.834000       15.9994           0
   17255 WT1  4858 TIP3 H1   HT     0.417000        1.0080           0
   17256 WT1  4858 TIP3 H2   HT     0.417000        1.0080           0
   17257 WT1  4859 TIP3 OH2  OT    -0.834000       15.9994           0
   17258 WT1  4859 TIP3 H1   HT     0.417000        1.0080           0
   17259 WT1  4859 TIP3 H2   HT     0.417000        1.0080           0
   17260 WT1  4860 TIP3 OH2  OT    -0.834000       15.9994           0
   17261 WT1  4860 TIP3 H1   HT     0.417000        1.0080           0
   17262 WT1  4860 TIP3 H2   HT     0.417000        1.0080           0
   17263 WT1  4861 TIP3 OH2  OT    -0.834000       15.9994           0
   17264 WT1  4861 TIP3 H1   HT     0.417000        1.0080           0
   17265 WT1  4861 TIP3 H2   HT     0.417000        1.0080           0
   17266 WT1  4862 TIP3 OH2  OT    -0.834000       15.9994           0
   17267 WT1  4862 TIP3 H1   HT     0.417000        1.0080           0
   17268 WT1  4862 TIP3 H2   HT     0.417000        1.0080           0
   17269 WT1  4863 TIP3 OH2  OT    -0.834000       15.9994           0
   17270 WT1  4863 TIP3 H1   HT     0.417000        1.0080           0
   17271 WT1  4863 TIP3 H2   HT     0.417000        1.0080           0
   17272 WT1  4864 TIP3 OH2  OT    -0.834000       15.9994           0
   17273 WT1  4864 TIP3 H1   HT     0.417000        1.0080           0
   17274 WT1  4864 TIP3 H2   HT     0.417000        1.0080           0
   17275 WT1  4865 TIP3 OH2  OT    -0.834000       15.9994           0
   17276 WT1  4865 TIP3 H1   HT     0.417000        1.0080           0
   17277 WT1  4865 TIP3 H2   HT     0.417000        1.0080           0
   17278 WT1  4866 TIP3 OH2  OT    -0.834000       15.9994           0
   17279 WT1  4866 TIP3 H1   HT     0.417000        1.0080           0
   17280 WT1  4866 TIP3 H2   HT     0.417000        1.0080           0
   17281 WT1  4867 TIP3 OH2  OT    -0.834000       15.9994           0
   17282 WT1  4867 TIP3 H1   HT     0.417000        1.0080           0
   17283 WT1  4867 TIP3 H2   HT     0.417000        1.0080           0
   17284 WT1  4871 TIP3 OH2  OT    -0.834000       15.9994           0
   17285 WT1  4871 TIP3 H1   HT     0.417000        1.0080           0
   17286 WT1  4871 TIP3 H2   HT     0.417000        1.0080           0
   17287 WT1  4872 TIP3 OH2  OT    -0.834000       15.9994           0
   17288 WT1  4872 TIP3 H1   HT     0.417000        1.0080           0
   17289 WT1  4872 TIP3 H2   HT     0.417000        1.0080           0
   17290 WT1  4873 TIP3 OH2  OT    -0.834000       15.9994           0
   17291 WT1  4873 TIP3 H1   HT     0.417000        1.0080           0
   17292 WT1  4873 TIP3 H2   HT     0.417000        1.0080           0
   17293 WT1  4875 TIP3 OH2  OT    -0.834000       15.9994           0
   17294 WT1  4875 TIP3 H1   HT     0.417000        1.0080           0
   17295 WT1  4875 TIP3 H2   HT     0.417000        1.0080           0
   17296 WT1  4876 TIP3 OH2  OT    -0.834000       15.9994           0
   17297 WT1  4876 TIP3 H1   HT     0.417000        1.0080           0
   17298 WT1  4876 TIP3 H2   HT     0.417000        1.0080           0
   17299 WT1  4877 TIP3 OH2  OT    -0.834000       15.9994           0
   17300 WT1  4877 TIP3 H1   HT     0.417000        1.0080           0
   17301 WT1  4877 TIP3 H2   HT     0.417000        1.0080           0
   17302 WT1  4878 TIP3 OH2  OT    -0.834000       15.9994           0
   17303 WT1  4878 TIP3 H1   HT     0.417000        1.0080           0
   17304 WT1  4878 TIP3 H2   HT     0.417000        1.0080           0
   17305 WT1  4879 TIP3 OH2  OT    -0.834000       15.9994           0
   17306 WT1  4879 TIP3 H1   HT     0.417000        1.0080           0
   17307 WT1  4879 TIP3 H2   HT     0.417000        1.0080           0
   17308 WT1  4880 TIP3 OH2  OT    -0.834000       15.9994           0
   17309 WT1  4880 TIP3 H1   HT     0.417000        1.0080           0
   17310 WT1  4880 TIP3 H2   HT     0.417000        1.0080           0
   17311 WT1  4881 TIP3 OH2  OT    -0.834000       15.9994           0
   17312 WT1  4881 TIP3 H1   HT     0.417000        1.0080           0
   17313 WT1  4881 TIP3 H2   HT     0.417000        1.0080           0
   17314 WT1  4882 TIP3 OH2  OT    -0.834000       15.9994           0
   17315 WT1  4882 TIP3 H1   HT     0.417000        1.0080           0
   17316 WT1  4882 TIP3 H2   HT     0.417000        1.0080           0
   17317 WT1  4883 TIP3 OH2  OT    -0.834000       15.9994           0
   17318 WT1  4883 TIP3 H1   HT     0.417000        1.0080           0
   17319 WT1  4883 TIP3 H2   HT     0.417000        1.0080           0
   17320 WT1  4884 TIP3 OH2  OT    -0.834000       15.9994           0
   17321 WT1  4884 TIP3 H1   HT     0.417000        1.0080           0
   17322 WT1  4884 TIP3 H2   HT     0.417000        1.0080           0
   17323 WT1  4885 TIP3 OH2  OT    -0.834000       15.9994           0
   17324 WT1  4885 TIP3 H1   HT     0.417000        1.0080           0
   17325 WT1  4885 TIP3 H2   HT     0.417000        1.0080           0
   17326 WT1  4886 TIP3 OH2  OT    -0.834000       15.9994           0
   17327 WT1  4886 TIP3 H1   HT     0.417000        1.0080           0
   17328 WT1  4886 TIP3 H2   HT     0.417000        1.0080           0
   17329 WT1  4887 TIP3 OH2  OT    -0.834000       15.9994           0
   17330 WT1  4887 TIP3 H1   HT     0.417000        1.0080           0
   17331 WT1  4887 TIP3 H2   HT     0.417000        1.0080           0
   17332 WT1  4889 TIP3 OH2  OT    -0.834000       15.9994           0
   17333 WT1  4889 TIP3 H1   HT     0.417000        1.0080           0
   17334 WT1  4889 TIP3 H2   HT     0.417000        1.0080           0
   17335 WT1  4890 TIP3 OH2  OT    -0.834000       15.9994           0
   17336 WT1  4890 TIP3 H1   HT     0.417000        1.0080           0
   17337 WT1  4890 TIP3 H2   HT     0.417000        1.0080           0
   17338 WT1  4891 TIP3 OH2  OT    -0.834000       15.9994           0
   17339 WT1  4891 TIP3 H1   HT     0.417000        1.0080           0
   17340 WT1  4891 TIP3 H2   HT     0.417000        1.0080           0
   17341 WT1  4892 TIP3 OH2  OT    -0.834000       15.9994           0
   17342 WT1  4892 TIP3 H1   HT     0.417000        1.0080           0
   17343 WT1  4892 TIP3 H2   HT     0.417000        1.0080           0
   17344 WT1  4893 TIP3 OH2  OT    -0.834000       15.9994           0
   17345 WT1  4893 TIP3 H1   HT     0.417000        1.0080           0
   17346 WT1  4893 TIP3 H2   HT     0.417000        1.0080           0
   17347 WT1  4895 TIP3 OH2  OT    -0.834000       15.9994           0
   17348 WT1  4895 TIP3 H1   HT     0.417000        1.0080           0
   17349 WT1  4895 TIP3 H2   HT     0.417000        1.0080           0
   17350 WT1  4896 TIP3 OH2  OT    -0.834000       15.9994           0
   17351 WT1  4896 TIP3 H1   HT     0.417000        1.0080           0
   17352 WT1  4896 TIP3 H2   HT     0.417000        1.0080           0
   17353 WT1  4897 TIP3 OH2  OT    -0.834000       15.9994           0
   17354 WT1  4897 TIP3 H1   HT     0.417000        1.0080           0
   17355 WT1  4897 TIP3 H2   HT     0.417000        1.0080           0
   17356 WT1  4898 TIP3 OH2  OT    -0.834000       15.9994           0
   17357 WT1  4898 TIP3 H1   HT     0.417000        1.0080           0
   17358 WT1  4898 TIP3 H2   HT     0.417000        1.0080           0
   17359 WT1  4899 TIP3 OH2  OT    -0.834000       15.9994           0
   17360 WT1  4899 TIP3 H1   HT     0.417000        1.0080           0
   17361 WT1  4899 TIP3 H2   HT     0.417000        1.0080           0
   17362 WT1  4901 TIP3 OH2  OT    -0.834000       15.9994           0
   17363 WT1  4901 TIP3 H1   HT     0.417000        1.0080           0
   17364 WT1  4901 TIP3 H2   HT     0.417000        1.0080           0
   17365 WT1  4902 TIP3 OH2  OT    -0.834000       15.9994           0
   17366 WT1  4902 TIP3 H1   HT     0.417000        1.0080           0
   17367 WT1  4902 TIP3 H2   HT     0.417000        1.0080           0
   17368 WT1  4903 TIP3 OH2  OT    -0.834000       15.9994           0
   17369 WT1  4903 TIP3 H1   HT     0.417000        1.0080           0
   17370 WT1  4903 TIP3 H2   HT     0.417000        1.0080           0
   17371 WT1  4904 TIP3 OH2  OT    -0.834000       15.9994           0
   17372 WT1  4904 TIP3 H1   HT     0.417000        1.0080           0
   17373 WT1  4904 TIP3 H2   HT     0.417000        1.0080           0
   17374 WT1  4905 TIP3 OH2  OT    -0.834000       15.9994           0
   17375 WT1  4905 TIP3 H1   HT     0.417000        1.0080           0
   17376 WT1  4905 TIP3 H2   HT     0.417000        1.0080           0
   17377 WT1  4906 TIP3 OH2  OT    -0.834000       15.9994           0
   17378 WT1  4906 TIP3 H1   HT     0.417000        1.0080           0
   17379 WT1  4906 TIP3 H2   HT     0.417000        1.0080           0
   17380 WT1  4907 TIP3 OH2  OT    -0.834000       15.9994           0
   17381 WT1  4907 TIP3 H1   HT     0.417000        1.0080           0
   17382 WT1  4907 TIP3 H2   HT     0.417000        1.0080           0
   17383 WT1  4908 TIP3 OH2  OT    -0.834000       15.9994           0
   17384 WT1  4908 TIP3 H1   HT     0.417000        1.0080           0
   17385 WT1  4908 TIP3 H2   HT     0.417000        1.0080           0
   17386 WT1  4909 TIP3 OH2  OT    -0.834000       15.9994           0
   17387 WT1  4909 TIP3 H1   HT     0.417000        1.0080           0
   17388 WT1  4909 TIP3 H2   HT     0.417000        1.0080           0
   17389 WT1  4911 TIP3 OH2  OT    -0.834000       15.9994           0
   17390 WT1  4911 TIP3 H1   HT     0.417000        1.0080           0
   17391 WT1  4911 TIP3 H2   HT     0.417000        1.0080           0
   17392 WT1  4912 TIP3 OH2  OT    -0.834000       15.9994           0
   17393 WT1  4912 TIP3 H1   HT     0.417000        1.0080           0
   17394 WT1  4912 TIP3 H2   HT     0.417000        1.0080           0
   17395 WT1  4913 TIP3 OH2  OT    -0.834000       15.9994           0
   17396 WT1  4913 TIP3 H1   HT     0.417000        1.0080           0
   17397 WT1  4913 TIP3 H2   HT     0.417000        1.0080           0
   17398 WT1  4914 TIP3 OH2  OT    -0.834000       15.9994           0
   17399 WT1  4914 TIP3 H1   HT     0.417000        1.0080           0
   17400 WT1  4914 TIP3 H2   HT     0.417000        1.0080           0
   17401 WT1  4915 TIP3 OH2  OT    -0.834000       15.9994           0
   17402 WT1  4915 TIP3 H1   HT     0.417000        1.0080           0
   17403 WT1  4915 TIP3 H2   HT     0.417000        1.0080           0
   17404 WT1  4916 TIP3 OH2  OT    -0.834000       15.9994           0
   17405 WT1  4916 TIP3 H1   HT     0.417000        1.0080           0
   17406 WT1  4916 TIP3 H2   HT     0.417000        1.0080           0
   17407 WT1  4917 TIP3 OH2  OT    -0.834000       15.9994           0
   17408 WT1  4917 TIP3 H1   HT     0.417000        1.0080           0
   17409 WT1  4917 TIP3 H2   HT     0.417000        1.0080           0
   17410 WT1  4918 TIP3 OH2  OT    -0.834000       15.9994           0
   17411 WT1  4918 TIP3 H1   HT     0.417000        1.0080           0
   17412 WT1  4918 TIP3 H2   HT     0.417000        1.0080           0
   17413 WT1  4919 TIP3 OH2  OT    -0.834000       15.9994           0
   17414 WT1  4919 TIP3 H1   HT     0.417000        1.0080           0
   17415 WT1  4919 TIP3 H2   HT     0.417000        1.0080           0
   17416 WT1  4920 TIP3 OH2  OT    -0.834000       15.9994           0
   17417 WT1  4920 TIP3 H1   HT     0.417000        1.0080           0
   17418 WT1  4920 TIP3 H2   HT     0.417000        1.0080           0
   17419 WT1  4921 TIP3 OH2  OT    -0.834000       15.9994           0
   17420 WT1  4921 TIP3 H1   HT     0.417000        1.0080           0
   17421 WT1  4921 TIP3 H2   HT     0.417000        1.0080           0
   17422 WT1  4922 TIP3 OH2  OT    -0.834000       15.9994           0
   17423 WT1  4922 TIP3 H1   HT     0.417000        1.0080           0
   17424 WT1  4922 TIP3 H2   HT     0.417000        1.0080           0
   17425 WT1  4923 TIP3 OH2  OT    -0.834000       15.9994           0
   17426 WT1  4923 TIP3 H1   HT     0.417000        1.0080           0
   17427 WT1  4923 TIP3 H2   HT     0.417000        1.0080           0
   17428 WT1  4924 TIP3 OH2  OT    -0.834000       15.9994           0
   17429 WT1  4924 TIP3 H1   HT     0.417000        1.0080           0
   17430 WT1  4924 TIP3 H2   HT     0.417000        1.0080           0
   17431 WT1  4925 TIP3 OH2  OT    -0.834000       15.9994           0
   17432 WT1  4925 TIP3 H1   HT     0.417000        1.0080           0
   17433 WT1  4925 TIP3 H2   HT     0.417000        1.0080           0
   17434 WT1  4926 TIP3 OH2  OT    -0.834000       15.9994           0
   17435 WT1  4926 TIP3 H1   HT     0.417000        1.0080           0
   17436 WT1  4926 TIP3 H2   HT     0.417000        1.0080           0
   17437 WT1  4927 TIP3 OH2  OT    -0.834000       15.9994           0
   17438 WT1  4927 TIP3 H1   HT     0.417000        1.0080           0
   17439 WT1  4927 TIP3 H2   HT     0.417000        1.0080           0
   17440 WT1  4929 TIP3 OH2  OT    -0.834000       15.9994           0
   17441 WT1  4929 TIP3 H1   HT     0.417000        1.0080           0
   17442 WT1  4929 TIP3 H2   HT     0.417000        1.0080           0
   17443 WT1  4930 TIP3 OH2  OT    -0.834000       15.9994           0
   17444 WT1  4930 TIP3 H1   HT     0.417000        1.0080           0
   17445 WT1  4930 TIP3 H2   HT     0.417000        1.0080           0
   17446 WT1  4932 TIP3 OH2  OT    -0.834000       15.9994           0
   17447 WT1  4932 TIP3 H1   HT     0.417000        1.0080           0
   17448 WT1  4932 TIP3 H2   HT     0.417000        1.0080           0
   17449 WT1  4933 TIP3 OH2  OT    -0.834000       15.9994           0
   17450 WT1  4933 TIP3 H1   HT     0.417000        1.0080           0
   17451 WT1  4933 TIP3 H2   HT     0.417000        1.0080           0
   17452 WT1  4934 TIP3 OH2  OT    -0.834000       15.9994           0
   17453 WT1  4934 TIP3 H1   HT     0.417000        1.0080           0
   17454 WT1  4934 TIP3 H2   HT     0.417000        1.0080           0
   17455 WT1  4935 TIP3 OH2  OT    -0.834000       15.9994           0
   17456 WT1  4935 TIP3 H1   HT     0.417000        1.0080           0
   17457 WT1  4935 TIP3 H2   HT     0.417000        1.0080           0
   17458 WT1  4936 TIP3 OH2  OT    -0.834000       15.9994           0
   17459 WT1  4936 TIP3 H1   HT     0.417000        1.0080           0
   17460 WT1  4936 TIP3 H2   HT     0.417000        1.0080           0
   17461 WT1  4937 TIP3 OH2  OT    -0.834000       15.9994           0
   17462 WT1  4937 TIP3 H1   HT     0.417000        1.0080           0
   17463 WT1  4937 TIP3 H2   HT     0.417000        1.0080           0
   17464 WT1  4938 TIP3 OH2  OT    -0.834000       15.9994           0
   17465 WT1  4938 TIP3 H1   HT     0.417000        1.0080           0
   17466 WT1  4938 TIP3 H2   HT     0.417000        1.0080           0
   17467 WT1  4939 TIP3 OH2  OT    -0.834000       15.9994           0
   17468 WT1  4939 TIP3 H1   HT     0.417000        1.0080           0
   17469 WT1  4939 TIP3 H2   HT     0.417000        1.0080           0
   17470 WT1  4940 TIP3 OH2  OT    -0.834000       15.9994           0
   17471 WT1  4940 TIP3 H1   HT     0.417000        1.0080           0
   17472 WT1  4940 TIP3 H2   HT     0.417000        1.0080           0
   17473 WT1  4941 TIP3 OH2  OT    -0.834000       15.9994           0
   17474 WT1  4941 TIP3 H1   HT     0.417000        1.0080           0
   17475 WT1  4941 TIP3 H2   HT     0.417000        1.0080           0
   17476 WT1  4942 TIP3 OH2  OT    -0.834000       15.9994           0
   17477 WT1  4942 TIP3 H1   HT     0.417000        1.0080           0
   17478 WT1  4942 TIP3 H2   HT     0.417000        1.0080           0
   17479 WT1  4943 TIP3 OH2  OT    -0.834000       15.9994           0
   17480 WT1  4943 TIP3 H1   HT     0.417000        1.0080           0
   17481 WT1  4943 TIP3 H2   HT     0.417000        1.0080           0
   17482 WT1  4944 TIP3 OH2  OT    -0.834000       15.9994           0
   17483 WT1  4944 TIP3 H1   HT     0.417000        1.0080           0
   17484 WT1  4944 TIP3 H2   HT     0.417000        1.0080           0
   17485 WT1  4945 TIP3 OH2  OT    -0.834000       15.9994           0
   17486 WT1  4945 TIP3 H1   HT     0.417000        1.0080           0
   17487 WT1  4945 TIP3 H2   HT     0.417000        1.0080           0
   17488 WT1  4946 TIP3 OH2  OT    -0.834000       15.9994           0
   17489 WT1  4946 TIP3 H1   HT     0.417000        1.0080           0
   17490 WT1  4946 TIP3 H2   HT     0.417000        1.0080           0
   17491 WT1  4947 TIP3 OH2  OT    -0.834000       15.9994           0
   17492 WT1  4947 TIP3 H1   HT     0.417000        1.0080           0
   17493 WT1  4947 TIP3 H2   HT     0.417000        1.0080           0
   17494 WT1  4948 TIP3 OH2  OT    -0.834000       15.9994           0
   17495 WT1  4948 TIP3 H1   HT     0.417000        1.0080           0
   17496 WT1  4948 TIP3 H2   HT     0.417000        1.0080           0
   17497 WT1  4949 TIP3 OH2  OT    -0.834000       15.9994           0
   17498 WT1  4949 TIP3 H1   HT     0.417000        1.0080           0
   17499 WT1  4949 TIP3 H2   HT     0.417000        1.0080           0
   17500 WT1  4950 TIP3 OH2  OT    -0.834000       15.9994           0
   17501 WT1  4950 TIP3 H1   HT     0.417000        1.0080           0
   17502 WT1  4950 TIP3 H2   HT     0.417000        1.0080           0
   17503 WT1  4951 TIP3 OH2  OT    -0.834000       15.9994           0
   17504 WT1  4951 TIP3 H1   HT     0.417000        1.0080           0
   17505 WT1  4951 TIP3 H2   HT     0.417000        1.0080           0
   17506 WT1  4953 TIP3 OH2  OT    -0.834000       15.9994           0
   17507 WT1  4953 TIP3 H1   HT     0.417000        1.0080           0
   17508 WT1  4953 TIP3 H2   HT     0.417000        1.0080           0
   17509 WT1  4954 TIP3 OH2  OT    -0.834000       15.9994           0
   17510 WT1  4954 TIP3 H1   HT     0.417000        1.0080           0
   17511 WT1  4954 TIP3 H2   HT     0.417000        1.0080           0
   17512 WT1  4955 TIP3 OH2  OT    -0.834000       15.9994           0
   17513 WT1  4955 TIP3 H1   HT     0.417000        1.0080           0
   17514 WT1  4955 TIP3 H2   HT     0.417000        1.0080           0
   17515 WT1  4956 TIP3 OH2  OT    -0.834000       15.9994           0
   17516 WT1  4956 TIP3 H1   HT     0.417000        1.0080           0
   17517 WT1  4956 TIP3 H2   HT     0.417000        1.0080           0
   17518 WT1  4957 TIP3 OH2  OT    -0.834000       15.9994           0
   17519 WT1  4957 TIP3 H1   HT     0.417000        1.0080           0
   17520 WT1  4957 TIP3 H2   HT     0.417000        1.0080           0
   17521 WT1  4958 TIP3 OH2  OT    -0.834000       15.9994           0
   17522 WT1  4958 TIP3 H1   HT     0.417000        1.0080           0
   17523 WT1  4958 TIP3 H2   HT     0.417000        1.0080           0
   17524 WT1  4959 TIP3 OH2  OT    -0.834000       15.9994           0
   17525 WT1  4959 TIP3 H1   HT     0.417000        1.0080           0
   17526 WT1  4959 TIP3 H2   HT     0.417000        1.0080           0
   17527 WT1  4960 TIP3 OH2  OT    -0.834000       15.9994           0
   17528 WT1  4960 TIP3 H1   HT     0.417000        1.0080           0
   17529 WT1  4960 TIP3 H2   HT     0.417000        1.0080           0
   17530 WT1  4961 TIP3 OH2  OT    -0.834000       15.9994           0
   17531 WT1  4961 TIP3 H1   HT     0.417000        1.0080           0
   17532 WT1  4961 TIP3 H2   HT     0.417000        1.0080           0
   17533 WT1  4962 TIP3 OH2  OT    -0.834000       15.9994           0
   17534 WT1  4962 TIP3 H1   HT     0.417000        1.0080           0
   17535 WT1  4962 TIP3 H2   HT     0.417000        1.0080           0
   17536 WT1  4963 TIP3 OH2  OT    -0.834000       15.9994           0
   17537 WT1  4963 TIP3 H1   HT     0.417000        1.0080           0
   17538 WT1  4963 TIP3 H2   HT     0.417000        1.0080           0
   17539 WT1  4964 TIP3 OH2  OT    -0.834000       15.9994           0
   17540 WT1  4964 TIP3 H1   HT     0.417000        1.0080           0
   17541 WT1  4964 TIP3 H2   HT     0.417000        1.0080           0
   17542 WT1  4965 TIP3 OH2  OT    -0.834000       15.9994           0
   17543 WT1  4965 TIP3 H1   HT     0.417000        1.0080           0
   17544 WT1  4965 TIP3 H2   HT     0.417000        1.0080           0
   17545 WT1  4966 TIP3 OH2  OT    -0.834000       15.9994           0
   17546 WT1  4966 TIP3 H1   HT     0.417000        1.0080           0
   17547 WT1  4966 TIP3 H2   HT     0.417000        1.0080           0
   17548 WT1  4967 TIP3 OH2  OT    -0.834000       15.9994           0
   17549 WT1  4967 TIP3 H1   HT     0.417000        1.0080           0
   17550 WT1  4967 TIP3 H2   HT     0.417000        1.0080           0
   17551 WT1  4968 TIP3 OH2  OT    -0.834000       15.9994           0
   17552 WT1  4968 TIP3 H1   HT     0.417000        1.0080           0
   17553 WT1  4968 TIP3 H2   HT     0.417000        1.0080           0
   17554 WT1  4969 TIP3 OH2  OT    -0.834000       15.9994           0
   17555 WT1  4969 TIP3 H1   HT     0.417000        1.0080           0
   17556 WT1  4969 TIP3 H2   HT     0.417000        1.0080           0
   17557 WT1  4971 TIP3 OH2  OT    -0.834000       15.9994           0
   17558 WT1  4971 TIP3 H1   HT     0.417000        1.0080           0
   17559 WT1  4971 TIP3 H2   HT     0.417000        1.0080           0
   17560 WT1  4972 TIP3 OH2  OT    -0.834000       15.9994           0
   17561 WT1  4972 TIP3 H1   HT     0.417000        1.0080           0
   17562 WT1  4972 TIP3 H2   HT     0.417000        1.0080           0
   17563 WT1  4973 TIP3 OH2  OT    -0.834000       15.9994           0
   17564 WT1  4973 TIP3 H1   HT     0.417000        1.0080           0
   17565 WT1  4973 TIP3 H2   HT     0.417000        1.0080           0
   17566 WT1  4975 TIP3 OH2  OT    -0.834000       15.9994           0
   17567 WT1  4975 TIP3 H1   HT     0.417000        1.0080           0
   17568 WT1  4975 TIP3 H2   HT     0.417000        1.0080           0
   17569 WT1  4976 TIP3 OH2  OT    -0.834000       15.9994           0
   17570 WT1  4976 TIP3 H1   HT     0.417000        1.0080           0
   17571 WT1  4976 TIP3 H2   HT     0.417000        1.0080           0
   17572 WT1  4977 TIP3 OH2  OT    -0.834000       15.9994           0
   17573 WT1  4977 TIP3 H1   HT     0.417000        1.0080           0
   17574 WT1  4977 TIP3 H2   HT     0.417000        1.0080           0
   17575 WT1  4978 TIP3 OH2  OT    -0.834000       15.9994           0
   17576 WT1  4978 TIP3 H1   HT     0.417000        1.0080           0
   17577 WT1  4978 TIP3 H2   HT     0.417000        1.0080           0
   17578 WT1  4979 TIP3 OH2  OT    -0.834000       15.9994           0
   17579 WT1  4979 TIP3 H1   HT     0.417000        1.0080           0
   17580 WT1  4979 TIP3 H2   HT     0.417000        1.0080           0
   17581 WT1  4980 TIP3 OH2  OT    -0.834000       15.9994           0
   17582 WT1  4980 TIP3 H1   HT     0.417000        1.0080           0
   17583 WT1  4980 TIP3 H2   HT     0.417000        1.0080           0
   17584 WT1  4981 TIP3 OH2  OT    -0.834000       15.9994           0
   17585 WT1  4981 TIP3 H1   HT     0.417000        1.0080           0
   17586 WT1  4981 TIP3 H2   HT     0.417000        1.0080           0
   17587 WT1  4982 TIP3 OH2  OT    -0.834000       15.9994           0
   17588 WT1  4982 TIP3 H1   HT     0.417000        1.0080           0
   17589 WT1  4982 TIP3 H2   HT     0.417000        1.0080           0
   17590 WT1  4983 TIP3 OH2  OT    -0.834000       15.9994           0
   17591 WT1  4983 TIP3 H1   HT     0.417000        1.0080           0
   17592 WT1  4983 TIP3 H2   HT     0.417000        1.0080           0
   17593 WT1  4984 TIP3 OH2  OT    -0.834000       15.9994           0
   17594 WT1  4984 TIP3 H1   HT     0.417000        1.0080           0
   17595 WT1  4984 TIP3 H2   HT     0.417000        1.0080           0
   17596 WT1  4985 TIP3 OH2  OT    -0.834000       15.9994           0
   17597 WT1  4985 TIP3 H1   HT     0.417000        1.0080           0
   17598 WT1  4985 TIP3 H2   HT     0.417000        1.0080           0
   17599 WT1  4986 TIP3 OH2  OT    -0.834000       15.9994           0
   17600 WT1  4986 TIP3 H1   HT     0.417000        1.0080           0
   17601 WT1  4986 TIP3 H2   HT     0.417000        1.0080           0
   17602 WT1  4987 TIP3 OH2  OT    -0.834000       15.9994           0
   17603 WT1  4987 TIP3 H1   HT     0.417000        1.0080           0
   17604 WT1  4987 TIP3 H2   HT     0.417000        1.0080           0
   17605 WT1  4988 TIP3 OH2  OT    -0.834000       15.9994           0
   17606 WT1  4988 TIP3 H1   HT     0.417000        1.0080           0
   17607 WT1  4988 TIP3 H2   HT     0.417000        1.0080           0
   17608 WT1  4989 TIP3 OH2  OT    -0.834000       15.9994           0
   17609 WT1  4989 TIP3 H1   HT     0.417000        1.0080           0
   17610 WT1  4989 TIP3 H2   HT     0.417000        1.0080           0
   17611 WT1  4990 TIP3 OH2  OT    -0.834000       15.9994           0
   17612 WT1  4990 TIP3 H1   HT     0.417000        1.0080           0
   17613 WT1  4990 TIP3 H2   HT     0.417000        1.0080           0
   17614 WT1  4991 TIP3 OH2  OT    -0.834000       15.9994           0
   17615 WT1  4991 TIP3 H1   HT     0.417000        1.0080           0
   17616 WT1  4991 TIP3 H2   HT     0.417000        1.0080           0
   17617 WT1  4992 TIP3 OH2  OT    -0.834000       15.9994           0
   17618 WT1  4992 TIP3 H1   HT     0.417000        1.0080           0
   17619 WT1  4992 TIP3 H2   HT     0.417000        1.0080           0
   17620 WT1  4993 TIP3 OH2  OT    -0.834000       15.9994           0
   17621 WT1  4993 TIP3 H1   HT     0.417000        1.0080           0
   17622 WT1  4993 TIP3 H2   HT     0.417000        1.0080           0
   17623 WT1  4994 TIP3 OH2  OT    -0.834000       15.9994           0
   17624 WT1  4994 TIP3 H1   HT     0.417000        1.0080           0
   17625 WT1  4994 TIP3 H2   HT     0.417000        1.0080           0
   17626 WT1  4995 TIP3 OH2  OT    -0.834000       15.9994           0
   17627 WT1  4995 TIP3 H1   HT     0.417000        1.0080           0
   17628 WT1  4995 TIP3 H2   HT     0.417000        1.0080           0
   17629 WT1  4996 TIP3 OH2  OT    -0.834000       15.9994           0
   17630 WT1  4996 TIP3 H1   HT     0.417000        1.0080           0
   17631 WT1  4996 TIP3 H2   HT     0.417000        1.0080           0
   17632 WT1  4998 TIP3 OH2  OT    -0.834000       15.9994           0
   17633 WT1  4998 TIP3 H1   HT     0.417000        1.0080           0
   17634 WT1  4998 TIP3 H2   HT     0.417000        1.0080           0
   17635 WT1  4999 TIP3 OH2  OT    -0.834000       15.9994           0
   17636 WT1  4999 TIP3 H1   HT     0.417000        1.0080           0
   17637 WT1  4999 TIP3 H2   HT     0.417000        1.0080           0
   17638 WT1  5000 TIP3 OH2  OT    -0.834000       15.9994           0
   17639 WT1  5000 TIP3 H1   HT     0.417000        1.0080           0
   17640 WT1  5000 TIP3 H2   HT     0.417000        1.0080           0
   17641 WT1  5001 TIP3 OH2  OT    -0.834000       15.9994           0
   17642 WT1  5001 TIP3 H1   HT     0.417000        1.0080           0
   17643 WT1  5001 TIP3 H2   HT     0.417000        1.0080           0
   17644 WT1  5002 TIP3 OH2  OT    -0.834000       15.9994           0
   17645 WT1  5002 TIP3 H1   HT     0.417000        1.0080           0
   17646 WT1  5002 TIP3 H2   HT     0.417000        1.0080           0
   17647 WT1  5003 TIP3 OH2  OT    -0.834000       15.9994           0
   17648 WT1  5003 TIP3 H1   HT     0.417000        1.0080           0
   17649 WT1  5003 TIP3 H2   HT     0.417000        1.0080           0
   17650 WT1  5004 TIP3 OH2  OT    -0.834000       15.9994           0
   17651 WT1  5004 TIP3 H1   HT     0.417000        1.0080           0
   17652 WT1  5004 TIP3 H2   HT     0.417000        1.0080           0
   17653 WT1  5005 TIP3 OH2  OT    -0.834000       15.9994           0
   17654 WT1  5005 TIP3 H1   HT     0.417000        1.0080           0
   17655 WT1  5005 TIP3 H2   HT     0.417000        1.0080           0
   17656 WT1  5006 TIP3 OH2  OT    -0.834000       15.9994           0
   17657 WT1  5006 TIP3 H1   HT     0.417000        1.0080           0
   17658 WT1  5006 TIP3 H2   HT     0.417000        1.0080           0
   17659 WT1  5007 TIP3 OH2  OT    -0.834000       15.9994           0
   17660 WT1  5007 TIP3 H1   HT     0.417000        1.0080           0
   17661 WT1  5007 TIP3 H2   HT     0.417000        1.0080           0
   17662 WT1  5008 TIP3 OH2  OT    -0.834000       15.9994           0
   17663 WT1  5008 TIP3 H1   HT     0.417000        1.0080           0
   17664 WT1  5008 TIP3 H2   HT     0.417000        1.0080           0
   17665 WT1  5009 TIP3 OH2  OT    -0.834000       15.9994           0
   17666 WT1  5009 TIP3 H1   HT     0.417000        1.0080           0
   17667 WT1  5009 TIP3 H2   HT     0.417000        1.0080           0
   17668 WT1  5010 TIP3 OH2  OT    -0.834000       15.9994           0
   17669 WT1  5010 TIP3 H1   HT     0.417000        1.0080           0
   17670 WT1  5010 TIP3 H2   HT     0.417000        1.0080           0
   17671 WT1  5012 TIP3 OH2  OT    -0.834000       15.9994           0
   17672 WT1  5012 TIP3 H1   HT     0.417000        1.0080           0
   17673 WT1  5012 TIP3 H2   HT     0.417000        1.0080           0
   17674 WT1  5013 TIP3 OH2  OT    -0.834000       15.9994           0
   17675 WT1  5013 TIP3 H1   HT     0.417000        1.0080           0
   17676 WT1  5013 TIP3 H2   HT     0.417000        1.0080           0
   17677 WT1  5014 TIP3 OH2  OT    -0.834000       15.9994           0
   17678 WT1  5014 TIP3 H1   HT     0.417000        1.0080           0
   17679 WT1  5014 TIP3 H2   HT     0.417000        1.0080           0
   17680 WT1  5015 TIP3 OH2  OT    -0.834000       15.9994           0
   17681 WT1  5015 TIP3 H1   HT     0.417000        1.0080           0
   17682 WT1  5015 TIP3 H2   HT     0.417000        1.0080           0
   17683 WT1  5016 TIP3 OH2  OT    -0.834000       15.9994           0
   17684 WT1  5016 TIP3 H1   HT     0.417000        1.0080           0
   17685 WT1  5016 TIP3 H2   HT     0.417000        1.0080           0
   17686 WT1  5017 TIP3 OH2  OT    -0.834000       15.9994           0
   17687 WT1  5017 TIP3 H1   HT     0.417000        1.0080           0
   17688 WT1  5017 TIP3 H2   HT     0.417000        1.0080           0
   17689 WT1  5019 TIP3 OH2  OT    -0.834000       15.9994           0
   17690 WT1  5019 TIP3 H1   HT     0.417000        1.0080           0
   17691 WT1  5019 TIP3 H2   HT     0.417000        1.0080           0
   17692 WT1  5020 TIP3 OH2  OT    -0.834000       15.9994           0
   17693 WT1  5020 TIP3 H1   HT     0.417000        1.0080           0
   17694 WT1  5020 TIP3 H2   HT     0.417000        1.0080           0
   17695 WT1  5021 TIP3 OH2  OT    -0.834000       15.9994           0
   17696 WT1  5021 TIP3 H1   HT     0.417000        1.0080           0
   17697 WT1  5021 TIP3 H2   HT     0.417000        1.0080           0
   17698 WT1  5022 TIP3 OH2  OT    -0.834000       15.9994           0
   17699 WT1  5022 TIP3 H1   HT     0.417000        1.0080           0
   17700 WT1  5022 TIP3 H2   HT     0.417000        1.0080           0
   17701 WT1  5023 TIP3 OH2  OT    -0.834000       15.9994           0
   17702 WT1  5023 TIP3 H1   HT     0.417000        1.0080           0
   17703 WT1  5023 TIP3 H2   HT     0.417000        1.0080           0
   17704 WT1  5024 TIP3 OH2  OT    -0.834000       15.9994           0
   17705 WT1  5024 TIP3 H1   HT     0.417000        1.0080           0
   17706 WT1  5024 TIP3 H2   HT     0.417000        1.0080           0
   17707 WT1  5025 TIP3 OH2  OT    -0.834000       15.9994           0
   17708 WT1  5025 TIP3 H1   HT     0.417000        1.0080           0
   17709 WT1  5025 TIP3 H2   HT     0.417000        1.0080           0
   17710 WT1  5026 TIP3 OH2  OT    -0.834000       15.9994           0
   17711 WT1  5026 TIP3 H1   HT     0.417000        1.0080           0
   17712 WT1  5026 TIP3 H2   HT     0.417000        1.0080           0
   17713 WT1  5027 TIP3 OH2  OT    -0.834000       15.9994           0
   17714 WT1  5027 TIP3 H1   HT     0.417000        1.0080           0
   17715 WT1  5027 TIP3 H2   HT     0.417000        1.0080           0
   17716 WT1  5028 TIP3 OH2  OT    -0.834000       15.9994           0
   17717 WT1  5028 TIP3 H1   HT     0.417000        1.0080           0
   17718 WT1  5028 TIP3 H2   HT     0.417000        1.0080           0
   17719 WT1  5029 TIP3 OH2  OT    -0.834000       15.9994           0
   17720 WT1  5029 TIP3 H1   HT     0.417000        1.0080           0
   17721 WT1  5029 TIP3 H2   HT     0.417000        1.0080           0
   17722 WT1  5030 TIP3 OH2  OT    -0.834000       15.9994           0
   17723 WT1  5030 TIP3 H1   HT     0.417000        1.0080           0
   17724 WT1  5030 TIP3 H2   HT     0.417000        1.0080           0
   17725 WT1  5032 TIP3 OH2  OT    -0.834000       15.9994           0
   17726 WT1  5032 TIP3 H1   HT     0.417000        1.0080           0
   17727 WT1  5032 TIP3 H2   HT     0.417000        1.0080           0
   17728 WT1  5033 TIP3 OH2  OT    -0.834000       15.9994           0
   17729 WT1  5033 TIP3 H1   HT     0.417000        1.0080           0
   17730 WT1  5033 TIP3 H2   HT     0.417000        1.0080           0
   17731 WT1  5034 TIP3 OH2  OT    -0.834000       15.9994           0
   17732 WT1  5034 TIP3 H1   HT     0.417000        1.0080           0
   17733 WT1  5034 TIP3 H2   HT     0.417000        1.0080           0
   17734 WT1  5035 TIP3 OH2  OT    -0.834000       15.9994           0
   17735 WT1  5035 TIP3 H1   HT     0.417000        1.0080           0
   17736 WT1  5035 TIP3 H2   HT     0.417000        1.0080           0
   17737 WT1  5036 TIP3 OH2  OT    -0.834000       15.9994           0
   17738 WT1  5036 TIP3 H1   HT     0.417000        1.0080           0
   17739 WT1  5036 TIP3 H2   HT     0.417000        1.0080           0
   17740 WT1  5039 TIP3 OH2  OT    -0.834000       15.9994           0
   17741 WT1  5039 TIP3 H1   HT     0.417000        1.0080           0
   17742 WT1  5039 TIP3 H2   HT     0.417000        1.0080           0
   17743 WT1  5040 TIP3 OH2  OT    -0.834000       15.9994           0
   17744 WT1  5040 TIP3 H1   HT     0.417000        1.0080           0
   17745 WT1  5040 TIP3 H2   HT     0.417000        1.0080           0
   17746 WT1  5041 TIP3 OH2  OT    -0.834000       15.9994           0
   17747 WT1  5041 TIP3 H1   HT     0.417000        1.0080           0
   17748 WT1  5041 TIP3 H2   HT     0.417000        1.0080           0
   17749 WT1  5042 TIP3 OH2  OT    -0.834000       15.9994           0
   17750 WT1  5042 TIP3 H1   HT     0.417000        1.0080           0
   17751 WT1  5042 TIP3 H2   HT     0.417000        1.0080           0
   17752 WT1  5043 TIP3 OH2  OT    -0.834000       15.9994           0
   17753 WT1  5043 TIP3 H1   HT     0.417000        1.0080           0
   17754 WT1  5043 TIP3 H2   HT     0.417000        1.0080           0
   17755 WT1  5044 TIP3 OH2  OT    -0.834000       15.9994           0
   17756 WT1  5044 TIP3 H1   HT     0.417000        1.0080           0
   17757 WT1  5044 TIP3 H2   HT     0.417000        1.0080           0
   17758 WT1  5045 TIP3 OH2  OT    -0.834000       15.9994           0
   17759 WT1  5045 TIP3 H1   HT     0.417000        1.0080           0
   17760 WT1  5045 TIP3 H2   HT     0.417000        1.0080           0
   17761 WT1  5046 TIP3 OH2  OT    -0.834000       15.9994           0
   17762 WT1  5046 TIP3 H1   HT     0.417000        1.0080           0
   17763 WT1  5046 TIP3 H2   HT     0.417000        1.0080           0
   17764 WT1  5047 TIP3 OH2  OT    -0.834000       15.9994           0
   17765 WT1  5047 TIP3 H1   HT     0.417000        1.0080           0
   17766 WT1  5047 TIP3 H2   HT     0.417000        1.0080           0
   17767 WT1  5048 TIP3 OH2  OT    -0.834000       15.9994           0
   17768 WT1  5048 TIP3 H1   HT     0.417000        1.0080           0
   17769 WT1  5048 TIP3 H2   HT     0.417000        1.0080           0
   17770 WT1  5049 TIP3 OH2  OT    -0.834000       15.9994           0
   17771 WT1  5049 TIP3 H1   HT     0.417000        1.0080           0
   17772 WT1  5049 TIP3 H2   HT     0.417000        1.0080           0
   17773 WT1  5050 TIP3 OH2  OT    -0.834000       15.9994           0
   17774 WT1  5050 TIP3 H1   HT     0.417000        1.0080           0
   17775 WT1  5050 TIP3 H2   HT     0.417000        1.0080           0
   17776 WT1  5051 TIP3 OH2  OT    -0.834000       15.9994           0
   17777 WT1  5051 TIP3 H1   HT     0.417000        1.0080           0
   17778 WT1  5051 TIP3 H2   HT     0.417000        1.0080           0
   17779 WT1  5052 TIP3 OH2  OT    -0.834000       15.9994           0
   17780 WT1  5052 TIP3 H1   HT     0.417000        1.0080           0
   17781 WT1  5052 TIP3 H2   HT     0.417000        1.0080           0
   17782 WT1  5053 TIP3 OH2  OT    -0.834000       15.9994           0
   17783 WT1  5053 TIP3 H1   HT     0.417000        1.0080           0
   17784 WT1  5053 TIP3 H2   HT     0.417000        1.0080           0
   17785 WT1  5054 TIP3 OH2  OT    -0.834000       15.9994           0
   17786 WT1  5054 TIP3 H1   HT     0.417000        1.0080           0
   17787 WT1  5054 TIP3 H2   HT     0.417000        1.0080           0
   17788 WT1  5055 TIP3 OH2  OT    -0.834000       15.9994           0
   17789 WT1  5055 TIP3 H1   HT     0.417000        1.0080           0
   17790 WT1  5055 TIP3 H2   HT     0.417000        1.0080           0
   17791 WT1  5056 TIP3 OH2  OT    -0.834000       15.9994           0
   17792 WT1  5056 TIP3 H1   HT     0.417000        1.0080           0
   17793 WT1  5056 TIP3 H2   HT     0.417000        1.0080           0
   17794 WT1  5058 TIP3 OH2  OT    -0.834000       15.9994           0
   17795 WT1  5058 TIP3 H1   HT     0.417000        1.0080           0
   17796 WT1  5058 TIP3 H2   HT     0.417000        1.0080           0
   17797 WT1  5059 TIP3 OH2  OT    -0.834000       15.9994           0
   17798 WT1  5059 TIP3 H1   HT     0.417000        1.0080           0
   17799 WT1  5059 TIP3 H2   HT     0.417000        1.0080           0
   17800 WT1  5060 TIP3 OH2  OT    -0.834000       15.9994           0
   17801 WT1  5060 TIP3 H1   HT     0.417000        1.0080           0
   17802 WT1  5060 TIP3 H2   HT     0.417000        1.0080           0
   17803 WT1  5061 TIP3 OH2  OT    -0.834000       15.9994           0
   17804 WT1  5061 TIP3 H1   HT     0.417000        1.0080           0
   17805 WT1  5061 TIP3 H2   HT     0.417000        1.0080           0
   17806 WT1  5062 TIP3 OH2  OT    -0.834000       15.9994           0
   17807 WT1  5062 TIP3 H1   HT     0.417000        1.0080           0
   17808 WT1  5062 TIP3 H2   HT     0.417000        1.0080           0
   17809 WT1  5063 TIP3 OH2  OT    -0.834000       15.9994           0
   17810 WT1  5063 TIP3 H1   HT     0.417000        1.0080           0
   17811 WT1  5063 TIP3 H2   HT     0.417000        1.0080           0
   17812 WT1  5064 TIP3 OH2  OT    -0.834000       15.9994           0
   17813 WT1  5064 TIP3 H1   HT     0.417000        1.0080           0
   17814 WT1  5064 TIP3 H2   HT     0.417000        1.0080           0
   17815 WT1  5065 TIP3 OH2  OT    -0.834000       15.9994           0
   17816 WT1  5065 TIP3 H1   HT     0.417000        1.0080           0
   17817 WT1  5065 TIP3 H2   HT     0.417000        1.0080           0
   17818 WT1  5066 TIP3 OH2  OT    -0.834000       15.9994           0
   17819 WT1  5066 TIP3 H1   HT     0.417000        1.0080           0
   17820 WT1  5066 TIP3 H2   HT     0.417000        1.0080           0
   17821 WT1  5067 TIP3 OH2  OT    -0.834000       15.9994           0
   17822 WT1  5067 TIP3 H1   HT     0.417000        1.0080           0
   17823 WT1  5067 TIP3 H2   HT     0.417000        1.0080           0
   17824 WT1  5068 TIP3 OH2  OT    -0.834000       15.9994           0
   17825 WT1  5068 TIP3 H1   HT     0.417000        1.0080           0
   17826 WT1  5068 TIP3 H2   HT     0.417000        1.0080           0
   17827 WT1  5069 TIP3 OH2  OT    -0.834000       15.9994           0
   17828 WT1  5069 TIP3 H1   HT     0.417000        1.0080           0
   17829 WT1  5069 TIP3 H2   HT     0.417000        1.0080           0
   17830 WT1  5070 TIP3 OH2  OT    -0.834000       15.9994           0
   17831 WT1  5070 TIP3 H1   HT     0.417000        1.0080           0
   17832 WT1  5070 TIP3 H2   HT     0.417000        1.0080           0
   17833 WT1  5071 TIP3 OH2  OT    -0.834000       15.9994           0
   17834 WT1  5071 TIP3 H1   HT     0.417000        1.0080           0
   17835 WT1  5071 TIP3 H2   HT     0.417000        1.0080           0
   17836 WT1  5072 TIP3 OH2  OT    -0.834000       15.9994           0
   17837 WT1  5072 TIP3 H1   HT     0.417000        1.0080           0
   17838 WT1  5072 TIP3 H2   HT     0.417000        1.0080           0
   17839 WT1  5073 TIP3 OH2  OT    -0.834000       15.9994           0
   17840 WT1  5073 TIP3 H1   HT     0.417000        1.0080           0
   17841 WT1  5073 TIP3 H2   HT     0.417000        1.0080           0
   17842 WT1  5074 TIP3 OH2  OT    -0.834000       15.9994           0
   17843 WT1  5074 TIP3 H1   HT     0.417000        1.0080           0
   17844 WT1  5074 TIP3 H2   HT     0.417000        1.0080           0
   17845 WT1  5075 TIP3 OH2  OT    -0.834000       15.9994           0
   17846 WT1  5075 TIP3 H1   HT     0.417000        1.0080           0
   17847 WT1  5075 TIP3 H2   HT     0.417000        1.0080           0
   17848 WT1  5076 TIP3 OH2  OT    -0.834000       15.9994           0
   17849 WT1  5076 TIP3 H1   HT     0.417000        1.0080           0
   17850 WT1  5076 TIP3 H2   HT     0.417000        1.0080           0
   17851 WT1  5079 TIP3 OH2  OT    -0.834000       15.9994           0
   17852 WT1  5079 TIP3 H1   HT     0.417000        1.0080           0
   17853 WT1  5079 TIP3 H2   HT     0.417000        1.0080           0
   17854 WT1  5081 TIP3 OH2  OT    -0.834000       15.9994           0
   17855 WT1  5081 TIP3 H1   HT     0.417000        1.0080           0
   17856 WT1  5081 TIP3 H2   HT     0.417000        1.0080           0
   17857 WT1  5082 TIP3 OH2  OT    -0.834000       15.9994           0
   17858 WT1  5082 TIP3 H1   HT     0.417000        1.0080           0
   17859 WT1  5082 TIP3 H2   HT     0.417000        1.0080           0
   17860 WT1  5083 TIP3 OH2  OT    -0.834000       15.9994           0
   17861 WT1  5083 TIP3 H1   HT     0.417000        1.0080           0
   17862 WT1  5083 TIP3 H2   HT     0.417000        1.0080           0
   17863 WT1  5084 TIP3 OH2  OT    -0.834000       15.9994           0
   17864 WT1  5084 TIP3 H1   HT     0.417000        1.0080           0
   17865 WT1  5084 TIP3 H2   HT     0.417000        1.0080           0
   17866 WT1  5085 TIP3 OH2  OT    -0.834000       15.9994           0
   17867 WT1  5085 TIP3 H1   HT     0.417000        1.0080           0
   17868 WT1  5085 TIP3 H2   HT     0.417000        1.0080           0
   17869 WT1  5086 TIP3 OH2  OT    -0.834000       15.9994           0
   17870 WT1  5086 TIP3 H1   HT     0.417000        1.0080           0
   17871 WT1  5086 TIP3 H2   HT     0.417000        1.0080           0
   17872 WT1  5087 TIP3 OH2  OT    -0.834000       15.9994           0
   17873 WT1  5087 TIP3 H1   HT     0.417000        1.0080           0
   17874 WT1  5087 TIP3 H2   HT     0.417000        1.0080           0
   17875 WT1  5088 TIP3 OH2  OT    -0.834000       15.9994           0
   17876 WT1  5088 TIP3 H1   HT     0.417000        1.0080           0
   17877 WT1  5088 TIP3 H2   HT     0.417000        1.0080           0
   17878 WT1  5089 TIP3 OH2  OT    -0.834000       15.9994           0
   17879 WT1  5089 TIP3 H1   HT     0.417000        1.0080           0
   17880 WT1  5089 TIP3 H2   HT     0.417000        1.0080           0
   17881 WT1  5090 TIP3 OH2  OT    -0.834000       15.9994           0
   17882 WT1  5090 TIP3 H1   HT     0.417000        1.0080           0
   17883 WT1  5090 TIP3 H2   HT     0.417000        1.0080           0
   17884 WT1  5091 TIP3 OH2  OT    -0.834000       15.9994           0
   17885 WT1  5091 TIP3 H1   HT     0.417000        1.0080           0
   17886 WT1  5091 TIP3 H2   HT     0.417000        1.0080           0
   17887 WT1  5092 TIP3 OH2  OT    -0.834000       15.9994           0
   17888 WT1  5092 TIP3 H1   HT     0.417000        1.0080           0
   17889 WT1  5092 TIP3 H2   HT     0.417000        1.0080           0
   17890 WT1  5093 TIP3 OH2  OT    -0.834000       15.9994           0
   17891 WT1  5093 TIP3 H1   HT     0.417000        1.0080           0
   17892 WT1  5093 TIP3 H2   HT     0.417000        1.0080           0
   17893 WT1  5094 TIP3 OH2  OT    -0.834000       15.9994           0
   17894 WT1  5094 TIP3 H1   HT     0.417000        1.0080           0
   17895 WT1  5094 TIP3 H2   HT     0.417000        1.0080           0
   17896 WT1  5095 TIP3 OH2  OT    -0.834000       15.9994           0
   17897 WT1  5095 TIP3 H1   HT     0.417000        1.0080           0
   17898 WT1  5095 TIP3 H2   HT     0.417000        1.0080           0
   17899 WT1  5097 TIP3 OH2  OT    -0.834000       15.9994           0
   17900 WT1  5097 TIP3 H1   HT     0.417000        1.0080           0
   17901 WT1  5097 TIP3 H2   HT     0.417000        1.0080           0
   17902 WT1  5098 TIP3 OH2  OT    -0.834000       15.9994           0
   17903 WT1  5098 TIP3 H1   HT     0.417000        1.0080           0
   17904 WT1  5098 TIP3 H2   HT     0.417000        1.0080           0
   17905 WT1  5099 TIP3 OH2  OT    -0.834000       15.9994           0
   17906 WT1  5099 TIP3 H1   HT     0.417000        1.0080           0
   17907 WT1  5099 TIP3 H2   HT     0.417000        1.0080           0
   17908 WT1  5101 TIP3 OH2  OT    -0.834000       15.9994           0
   17909 WT1  5101 TIP3 H1   HT     0.417000        1.0080           0
   17910 WT1  5101 TIP3 H2   HT     0.417000        1.0080           0
   17911 WT1  5103 TIP3 OH2  OT    -0.834000       15.9994           0
   17912 WT1  5103 TIP3 H1   HT     0.417000        1.0080           0
   17913 WT1  5103 TIP3 H2   HT     0.417000        1.0080           0
   17914 WT1  5104 TIP3 OH2  OT    -0.834000       15.9994           0
   17915 WT1  5104 TIP3 H1   HT     0.417000        1.0080           0
   17916 WT1  5104 TIP3 H2   HT     0.417000        1.0080           0
   17917 WT1  5106 TIP3 OH2  OT    -0.834000       15.9994           0
   17918 WT1  5106 TIP3 H1   HT     0.417000        1.0080           0
   17919 WT1  5106 TIP3 H2   HT     0.417000        1.0080           0
   17920 WT1  5107 TIP3 OH2  OT    -0.834000       15.9994           0
   17921 WT1  5107 TIP3 H1   HT     0.417000        1.0080           0
   17922 WT1  5107 TIP3 H2   HT     0.417000        1.0080           0
   17923 WT1  5108 TIP3 OH2  OT    -0.834000       15.9994           0
   17924 WT1  5108 TIP3 H1   HT     0.417000        1.0080           0
   17925 WT1  5108 TIP3 H2   HT     0.417000        1.0080           0
   17926 WT1  5109 TIP3 OH2  OT    -0.834000       15.9994           0
   17927 WT1  5109 TIP3 H1   HT     0.417000        1.0080           0
   17928 WT1  5109 TIP3 H2   HT     0.417000        1.0080           0
   17929 WT1  5110 TIP3 OH2  OT    -0.834000       15.9994           0
   17930 WT1  5110 TIP3 H1   HT     0.417000        1.0080           0
   17931 WT1  5110 TIP3 H2   HT     0.417000        1.0080           0
   17932 WT1  5111 TIP3 OH2  OT    -0.834000       15.9994           0
   17933 WT1  5111 TIP3 H1   HT     0.417000        1.0080           0
   17934 WT1  5111 TIP3 H2   HT     0.417000        1.0080           0
   17935 WT1  5112 TIP3 OH2  OT    -0.834000       15.9994           0
   17936 WT1  5112 TIP3 H1   HT     0.417000        1.0080           0
   17937 WT1  5112 TIP3 H2   HT     0.417000        1.0080           0
   17938 WT1  5113 TIP3 OH2  OT    -0.834000       15.9994           0
   17939 WT1  5113 TIP3 H1   HT     0.417000        1.0080           0
   17940 WT1  5113 TIP3 H2   HT     0.417000        1.0080           0
   17941 WT1  5114 TIP3 OH2  OT    -0.834000       15.9994           0
   17942 WT1  5114 TIP3 H1   HT     0.417000        1.0080           0
   17943 WT1  5114 TIP3 H2   HT     0.417000        1.0080           0
   17944 WT1  5115 TIP3 OH2  OT    -0.834000       15.9994           0
   17945 WT1  5115 TIP3 H1   HT     0.417000        1.0080           0
   17946 WT1  5115 TIP3 H2   HT     0.417000        1.0080           0
   17947 WT1  5116 TIP3 OH2  OT    -0.834000       15.9994           0
   17948 WT1  5116 TIP3 H1   HT     0.417000        1.0080           0
   17949 WT1  5116 TIP3 H2   HT     0.417000        1.0080           0
   17950 WT1  5117 TIP3 OH2  OT    -0.834000       15.9994           0
   17951 WT1  5117 TIP3 H1   HT     0.417000        1.0080           0
   17952 WT1  5117 TIP3 H2   HT     0.417000        1.0080           0
   17953 WT1  5118 TIP3 OH2  OT    -0.834000       15.9994           0
   17954 WT1  5118 TIP3 H1   HT     0.417000        1.0080           0
   17955 WT1  5118 TIP3 H2   HT     0.417000        1.0080           0
   17956 WT1  5119 TIP3 OH2  OT    -0.834000       15.9994           0
   17957 WT1  5119 TIP3 H1   HT     0.417000        1.0080           0
   17958 WT1  5119 TIP3 H2   HT     0.417000        1.0080           0
   17959 WT1  5121 TIP3 OH2  OT    -0.834000       15.9994           0
   17960 WT1  5121 TIP3 H1   HT     0.417000        1.0080           0
   17961 WT1  5121 TIP3 H2   HT     0.417000        1.0080           0
   17962 WT1  5123 TIP3 OH2  OT    -0.834000       15.9994           0
   17963 WT1  5123 TIP3 H1   HT     0.417000        1.0080           0
   17964 WT1  5123 TIP3 H2   HT     0.417000        1.0080           0
   17965 WT1  5124 TIP3 OH2  OT    -0.834000       15.9994           0
   17966 WT1  5124 TIP3 H1   HT     0.417000        1.0080           0
   17967 WT1  5124 TIP3 H2   HT     0.417000        1.0080           0
   17968 WT1  5125 TIP3 OH2  OT    -0.834000       15.9994           0
   17969 WT1  5125 TIP3 H1   HT     0.417000        1.0080           0
   17970 WT1  5125 TIP3 H2   HT     0.417000        1.0080           0
   17971 WT1  5126 TIP3 OH2  OT    -0.834000       15.9994           0
   17972 WT1  5126 TIP3 H1   HT     0.417000        1.0080           0
   17973 WT1  5126 TIP3 H2   HT     0.417000        1.0080           0
   17974 WT1  5127 TIP3 OH2  OT    -0.834000       15.9994           0
   17975 WT1  5127 TIP3 H1   HT     0.417000        1.0080           0
   17976 WT1  5127 TIP3 H2   HT     0.417000        1.0080           0
   17977 WT1  5128 TIP3 OH2  OT    -0.834000       15.9994           0
   17978 WT1  5128 TIP3 H1   HT     0.417000        1.0080           0
   17979 WT1  5128 TIP3 H2   HT     0.417000        1.0080           0
   17980 WT1  5129 TIP3 OH2  OT    -0.834000       15.9994           0
   17981 WT1  5129 TIP3 H1   HT     0.417000        1.0080           0
   17982 WT1  5129 TIP3 H2   HT     0.417000        1.0080           0
   17983 WT1  5130 TIP3 OH2  OT    -0.834000       15.9994           0
   17984 WT1  5130 TIP3 H1   HT     0.417000        1.0080           0
   17985 WT1  5130 TIP3 H2   HT     0.417000        1.0080           0
   17986 WT1  5131 TIP3 OH2  OT    -0.834000       15.9994           0
   17987 WT1  5131 TIP3 H1   HT     0.417000        1.0080           0
   17988 WT1  5131 TIP3 H2   HT     0.417000        1.0080           0
   17989 WT1  5132 TIP3 OH2  OT    -0.834000       15.9994           0
   17990 WT1  5132 TIP3 H1   HT     0.417000        1.0080           0
   17991 WT1  5132 TIP3 H2   HT     0.417000        1.0080           0
   17992 WT1  5133 TIP3 OH2  OT    -0.834000       15.9994           0
   17993 WT1  5133 TIP3 H1   HT     0.417000        1.0080           0
   17994 WT1  5133 TIP3 H2   HT     0.417000        1.0080           0
   17995 WT1  5134 TIP3 OH2  OT    -0.834000       15.9994           0
   17996 WT1  5134 TIP3 H1   HT     0.417000        1.0080           0
   17997 WT1  5134 TIP3 H2   HT     0.417000        1.0080           0
   17998 WT1  5135 TIP3 OH2  OT    -0.834000       15.9994           0
   17999 WT1  5135 TIP3 H1   HT     0.417000        1.0080           0
   18000 WT1  5135 TIP3 H2   HT     0.417000        1.0080           0
   18001 WT1  5136 TIP3 OH2  OT    -0.834000       15.9994           0
   18002 WT1  5136 TIP3 H1   HT     0.417000        1.0080           0
   18003 WT1  5136 TIP3 H2   HT     0.417000        1.0080           0
   18004 WT1  5137 TIP3 OH2  OT    -0.834000       15.9994           0
   18005 WT1  5137 TIP3 H1   HT     0.417000        1.0080           0
   18006 WT1  5137 TIP3 H2   HT     0.417000        1.0080           0
   18007 WT1  5138 TIP3 OH2  OT    -0.834000       15.9994           0
   18008 WT1  5138 TIP3 H1   HT     0.417000        1.0080           0
   18009 WT1  5138 TIP3 H2   HT     0.417000        1.0080           0
   18010 WT1  5140 TIP3 OH2  OT    -0.834000       15.9994           0
   18011 WT1  5140 TIP3 H1   HT     0.417000        1.0080           0
   18012 WT1  5140 TIP3 H2   HT     0.417000        1.0080           0
   18013 WT1  5142 TIP3 OH2  OT    -0.834000       15.9994           0
   18014 WT1  5142 TIP3 H1   HT     0.417000        1.0080           0
   18015 WT1  5142 TIP3 H2   HT     0.417000        1.0080           0
   18016 WT1  5143 TIP3 OH2  OT    -0.834000       15.9994           0
   18017 WT1  5143 TIP3 H1   HT     0.417000        1.0080           0
   18018 WT1  5143 TIP3 H2   HT     0.417000        1.0080           0
   18019 WT1  5144 TIP3 OH2  OT    -0.834000       15.9994           0
   18020 WT1  5144 TIP3 H1   HT     0.417000        1.0080           0
   18021 WT1  5144 TIP3 H2   HT     0.417000        1.0080           0
   18022 WT1  5146 TIP3 OH2  OT    -0.834000       15.9994           0
   18023 WT1  5146 TIP3 H1   HT     0.417000        1.0080           0
   18024 WT1  5146 TIP3 H2   HT     0.417000        1.0080           0
   18025 WT1  5147 TIP3 OH2  OT    -0.834000       15.9994           0
   18026 WT1  5147 TIP3 H1   HT     0.417000        1.0080           0
   18027 WT1  5147 TIP3 H2   HT     0.417000        1.0080           0
   18028 WT1  5148 TIP3 OH2  OT    -0.834000       15.9994           0
   18029 WT1  5148 TIP3 H1   HT     0.417000        1.0080           0
   18030 WT1  5148 TIP3 H2   HT     0.417000        1.0080           0
   18031 WT1  5149 TIP3 OH2  OT    -0.834000       15.9994           0
   18032 WT1  5149 TIP3 H1   HT     0.417000        1.0080           0
   18033 WT1  5149 TIP3 H2   HT     0.417000        1.0080           0
   18034 WT1  5150 TIP3 OH2  OT    -0.834000       15.9994           0
   18035 WT1  5150 TIP3 H1   HT     0.417000        1.0080           0
   18036 WT1  5150 TIP3 H2   HT     0.417000        1.0080           0
   18037 WT1  5151 TIP3 OH2  OT    -0.834000       15.9994           0
   18038 WT1  5151 TIP3 H1   HT     0.417000        1.0080           0
   18039 WT1  5151 TIP3 H2   HT     0.417000        1.0080           0
   18040 WT1  5153 TIP3 OH2  OT    -0.834000       15.9994           0
   18041 WT1  5153 TIP3 H1   HT     0.417000        1.0080           0
   18042 WT1  5153 TIP3 H2   HT     0.417000        1.0080           0
   18043 WT1  5154 TIP3 OH2  OT    -0.834000       15.9994           0
   18044 WT1  5154 TIP3 H1   HT     0.417000        1.0080           0
   18045 WT1  5154 TIP3 H2   HT     0.417000        1.0080           0
   18046 WT1  5155 TIP3 OH2  OT    -0.834000       15.9994           0
   18047 WT1  5155 TIP3 H1   HT     0.417000        1.0080           0
   18048 WT1  5155 TIP3 H2   HT     0.417000        1.0080           0
   18049 WT1  5156 TIP3 OH2  OT    -0.834000       15.9994           0
   18050 WT1  5156 TIP3 H1   HT     0.417000        1.0080           0
   18051 WT1  5156 TIP3 H2   HT     0.417000        1.0080           0
   18052 WT1  5157 TIP3 OH2  OT    -0.834000       15.9994           0
   18053 WT1  5157 TIP3 H1   HT     0.417000        1.0080           0
   18054 WT1  5157 TIP3 H2   HT     0.417000        1.0080           0
   18055 WT1  5158 TIP3 OH2  OT    -0.834000       15.9994           0
   18056 WT1  5158 TIP3 H1   HT     0.417000        1.0080           0
   18057 WT1  5158 TIP3 H2   HT     0.417000        1.0080           0
   18058 WT1  5160 TIP3 OH2  OT    -0.834000       15.9994           0
   18059 WT1  5160 TIP3 H1   HT     0.417000        1.0080           0
   18060 WT1  5160 TIP3 H2   HT     0.417000        1.0080           0
   18061 WT1  5161 TIP3 OH2  OT    -0.834000       15.9994           0
   18062 WT1  5161 TIP3 H1   HT     0.417000        1.0080           0
   18063 WT1  5161 TIP3 H2   HT     0.417000        1.0080           0
   18064 WT1  5162 TIP3 OH2  OT    -0.834000       15.9994           0
   18065 WT1  5162 TIP3 H1   HT     0.417000        1.0080           0
   18066 WT1  5162 TIP3 H2   HT     0.417000        1.0080           0
   18067 WT1  5163 TIP3 OH2  OT    -0.834000       15.9994           0
   18068 WT1  5163 TIP3 H1   HT     0.417000        1.0080           0
   18069 WT1  5163 TIP3 H2   HT     0.417000        1.0080           0
   18070 WT1  5164 TIP3 OH2  OT    -0.834000       15.9994           0
   18071 WT1  5164 TIP3 H1   HT     0.417000        1.0080           0
   18072 WT1  5164 TIP3 H2   HT     0.417000        1.0080           0
   18073 WT1  5165 TIP3 OH2  OT    -0.834000       15.9994           0
   18074 WT1  5165 TIP3 H1   HT     0.417000        1.0080           0
   18075 WT1  5165 TIP3 H2   HT     0.417000        1.0080           0
   18076 WT1  5166 TIP3 OH2  OT    -0.834000       15.9994           0
   18077 WT1  5166 TIP3 H1   HT     0.417000        1.0080           0
   18078 WT1  5166 TIP3 H2   HT     0.417000        1.0080           0
   18079 WT1  5167 TIP3 OH2  OT    -0.834000       15.9994           0
   18080 WT1  5167 TIP3 H1   HT     0.417000        1.0080           0
   18081 WT1  5167 TIP3 H2   HT     0.417000        1.0080           0
   18082 WT1  5168 TIP3 OH2  OT    -0.834000       15.9994           0
   18083 WT1  5168 TIP3 H1   HT     0.417000        1.0080           0
   18084 WT1  5168 TIP3 H2   HT     0.417000        1.0080           0
   18085 WT1  5169 TIP3 OH2  OT    -0.834000       15.9994           0
   18086 WT1  5169 TIP3 H1   HT     0.417000        1.0080           0
   18087 WT1  5169 TIP3 H2   HT     0.417000        1.0080           0
   18088 WT1  5170 TIP3 OH2  OT    -0.834000       15.9994           0
   18089 WT1  5170 TIP3 H1   HT     0.417000        1.0080           0
   18090 WT1  5170 TIP3 H2   HT     0.417000        1.0080           0
   18091 WT1  5171 TIP3 OH2  OT    -0.834000       15.9994           0
   18092 WT1  5171 TIP3 H1   HT     0.417000        1.0080           0
   18093 WT1  5171 TIP3 H2   HT     0.417000        1.0080           0
   18094 WT1  5172 TIP3 OH2  OT    -0.834000       15.9994           0
   18095 WT1  5172 TIP3 H1   HT     0.417000        1.0080           0
   18096 WT1  5172 TIP3 H2   HT     0.417000        1.0080           0
   18097 WT1  5173 TIP3 OH2  OT    -0.834000       15.9994           0
   18098 WT1  5173 TIP3 H1   HT     0.417000        1.0080           0
   18099 WT1  5173 TIP3 H2   HT     0.417000        1.0080           0
   18100 WT1  5174 TIP3 OH2  OT    -0.834000       15.9994           0
   18101 WT1  5174 TIP3 H1   HT     0.417000        1.0080           0
   18102 WT1  5174 TIP3 H2   HT     0.417000        1.0080           0
   18103 WT1  5175 TIP3 OH2  OT    -0.834000       15.9994           0
   18104 WT1  5175 TIP3 H1   HT     0.417000        1.0080           0
   18105 WT1  5175 TIP3 H2   HT     0.417000        1.0080           0
   18106 WT1  5176 TIP3 OH2  OT    -0.834000       15.9994           0
   18107 WT1  5176 TIP3 H1   HT     0.417000        1.0080           0
   18108 WT1  5176 TIP3 H2   HT     0.417000        1.0080           0
   18109 WT1  5177 TIP3 OH2  OT    -0.834000       15.9994           0
   18110 WT1  5177 TIP3 H1   HT     0.417000        1.0080           0
   18111 WT1  5177 TIP3 H2   HT     0.417000        1.0080           0
   18112 WT1  5178 TIP3 OH2  OT    -0.834000       15.9994           0
   18113 WT1  5178 TIP3 H1   HT     0.417000        1.0080           0
   18114 WT1  5178 TIP3 H2   HT     0.417000        1.0080           0
   18115 WT1  5180 TIP3 OH2  OT    -0.834000       15.9994           0
   18116 WT1  5180 TIP3 H1   HT     0.417000        1.0080           0
   18117 WT1  5180 TIP3 H2   HT     0.417000        1.0080           0
   18118 WT1  5181 TIP3 OH2  OT    -0.834000       15.9994           0
   18119 WT1  5181 TIP3 H1   HT     0.417000        1.0080           0
   18120 WT1  5181 TIP3 H2   HT     0.417000        1.0080           0
   18121 WT1  5182 TIP3 OH2  OT    -0.834000       15.9994           0
   18122 WT1  5182 TIP3 H1   HT     0.417000        1.0080           0
   18123 WT1  5182 TIP3 H2   HT     0.417000        1.0080           0
   18124 WT1  5183 TIP3 OH2  OT    -0.834000       15.9994           0
   18125 WT1  5183 TIP3 H1   HT     0.417000        1.0080           0
   18126 WT1  5183 TIP3 H2   HT     0.417000        1.0080           0
   18127 WT1  5186 TIP3 OH2  OT    -0.834000       15.9994           0
   18128 WT1  5186 TIP3 H1   HT     0.417000        1.0080           0
   18129 WT1  5186 TIP3 H2   HT     0.417000        1.0080           0
   18130 WT1  5187 TIP3 OH2  OT    -0.834000       15.9994           0
   18131 WT1  5187 TIP3 H1   HT     0.417000        1.0080           0
   18132 WT1  5187 TIP3 H2   HT     0.417000        1.0080           0
   18133 WT1  5188 TIP3 OH2  OT    -0.834000       15.9994           0
   18134 WT1  5188 TIP3 H1   HT     0.417000        1.0080           0
   18135 WT1  5188 TIP3 H2   HT     0.417000        1.0080           0
   18136 WT1  5189 TIP3 OH2  OT    -0.834000       15.9994           0
   18137 WT1  5189 TIP3 H1   HT     0.417000        1.0080           0
   18138 WT1  5189 TIP3 H2   HT     0.417000        1.0080           0
   18139 WT1  5190 TIP3 OH2  OT    -0.834000       15.9994           0
   18140 WT1  5190 TIP3 H1   HT     0.417000        1.0080           0
   18141 WT1  5190 TIP3 H2   HT     0.417000        1.0080           0
   18142 WT1  5191 TIP3 OH2  OT    -0.834000       15.9994           0
   18143 WT1  5191 TIP3 H1   HT     0.417000        1.0080           0
   18144 WT1  5191 TIP3 H2   HT     0.417000        1.0080           0
   18145 WT1  5192 TIP3 OH2  OT    -0.834000       15.9994           0
   18146 WT1  5192 TIP3 H1   HT     0.417000        1.0080           0
   18147 WT1  5192 TIP3 H2   HT     0.417000        1.0080           0
   18148 WT1  5193 TIP3 OH2  OT    -0.834000       15.9994           0
   18149 WT1  5193 TIP3 H1   HT     0.417000        1.0080           0
   18150 WT1  5193 TIP3 H2   HT     0.417000        1.0080           0
   18151 WT1  5194 TIP3 OH2  OT    -0.834000       15.9994           0
   18152 WT1  5194 TIP3 H1   HT     0.417000        1.0080           0
   18153 WT1  5194 TIP3 H2   HT     0.417000        1.0080           0
   18154 WT1  5195 TIP3 OH2  OT    -0.834000       15.9994           0
   18155 WT1  5195 TIP3 H1   HT     0.417000        1.0080           0
   18156 WT1  5195 TIP3 H2   HT     0.417000        1.0080           0
   18157 WT1  5196 TIP3 OH2  OT    -0.834000       15.9994           0
   18158 WT1  5196 TIP3 H1   HT     0.417000        1.0080           0
   18159 WT1  5196 TIP3 H2   HT     0.417000        1.0080           0
   18160 WT1  5197 TIP3 OH2  OT    -0.834000       15.9994           0
   18161 WT1  5197 TIP3 H1   HT     0.417000        1.0080           0
   18162 WT1  5197 TIP3 H2   HT     0.417000        1.0080           0
   18163 WT1  5198 TIP3 OH2  OT    -0.834000       15.9994           0
   18164 WT1  5198 TIP3 H1   HT     0.417000        1.0080           0
   18165 WT1  5198 TIP3 H2   HT     0.417000        1.0080           0
   18166 WT1  5199 TIP3 OH2  OT    -0.834000       15.9994           0
   18167 WT1  5199 TIP3 H1   HT     0.417000        1.0080           0
   18168 WT1  5199 TIP3 H2   HT     0.417000        1.0080           0
   18169 WT1  5200 TIP3 OH2  OT    -0.834000       15.9994           0
   18170 WT1  5200 TIP3 H1   HT     0.417000        1.0080           0
   18171 WT1  5200 TIP3 H2   HT     0.417000        1.0080           0
   18172 WT1  5201 TIP3 OH2  OT    -0.834000       15.9994           0
   18173 WT1  5201 TIP3 H1   HT     0.417000        1.0080           0
   18174 WT1  5201 TIP3 H2   HT     0.417000        1.0080           0
   18175 WT1  5202 TIP3 OH2  OT    -0.834000       15.9994           0
   18176 WT1  5202 TIP3 H1   HT     0.417000        1.0080           0
   18177 WT1  5202 TIP3 H2   HT     0.417000        1.0080           0
   18178 WT1  5203 TIP3 OH2  OT    -0.834000       15.9994           0
   18179 WT1  5203 TIP3 H1   HT     0.417000        1.0080           0
   18180 WT1  5203 TIP3 H2   HT     0.417000        1.0080           0
   18181 WT1  5204 TIP3 OH2  OT    -0.834000       15.9994           0
   18182 WT1  5204 TIP3 H1   HT     0.417000        1.0080           0
   18183 WT1  5204 TIP3 H2   HT     0.417000        1.0080           0
   18184 WT1  5205 TIP3 OH2  OT    -0.834000       15.9994           0
   18185 WT1  5205 TIP3 H1   HT     0.417000        1.0080           0
   18186 WT1  5205 TIP3 H2   HT     0.417000        1.0080           0
   18187 WT1  5206 TIP3 OH2  OT    -0.834000       15.9994           0
   18188 WT1  5206 TIP3 H1   HT     0.417000        1.0080           0
   18189 WT1  5206 TIP3 H2   HT     0.417000        1.0080           0
   18190 WT1  5207 TIP3 OH2  OT    -0.834000       15.9994           0
   18191 WT1  5207 TIP3 H1   HT     0.417000        1.0080           0
   18192 WT1  5207 TIP3 H2   HT     0.417000        1.0080           0
   18193 WT1  5208 TIP3 OH2  OT    -0.834000       15.9994           0
   18194 WT1  5208 TIP3 H1   HT     0.417000        1.0080           0
   18195 WT1  5208 TIP3 H2   HT     0.417000        1.0080           0
   18196 WT1  5210 TIP3 OH2  OT    -0.834000       15.9994           0
   18197 WT1  5210 TIP3 H1   HT     0.417000        1.0080           0
   18198 WT1  5210 TIP3 H2   HT     0.417000        1.0080           0
   18199 WT1  5211 TIP3 OH2  OT    -0.834000       15.9994           0
   18200 WT1  5211 TIP3 H1   HT     0.417000        1.0080           0
   18201 WT1  5211 TIP3 H2   HT     0.417000        1.0080           0
   18202 WT1  5212 TIP3 OH2  OT    -0.834000       15.9994           0
   18203 WT1  5212 TIP3 H1   HT     0.417000        1.0080           0
   18204 WT1  5212 TIP3 H2   HT     0.417000        1.0080           0
   18205 WT1  5213 TIP3 OH2  OT    -0.834000       15.9994           0
   18206 WT1  5213 TIP3 H1   HT     0.417000        1.0080           0
   18207 WT1  5213 TIP3 H2   HT     0.417000        1.0080           0
   18208 WT1  5214 TIP3 OH2  OT    -0.834000       15.9994           0
   18209 WT1  5214 TIP3 H1   HT     0.417000        1.0080           0
   18210 WT1  5214 TIP3 H2   HT     0.417000        1.0080           0
   18211 WT1  5215 TIP3 OH2  OT    -0.834000       15.9994           0
   18212 WT1  5215 TIP3 H1   HT     0.417000        1.0080           0
   18213 WT1  5215 TIP3 H2   HT     0.417000        1.0080           0
   18214 WT1  5216 TIP3 OH2  OT    -0.834000       15.9994           0
   18215 WT1  5216 TIP3 H1   HT     0.417000        1.0080           0
   18216 WT1  5216 TIP3 H2   HT     0.417000        1.0080           0
   18217 WT1  5217 TIP3 OH2  OT    -0.834000       15.9994           0
   18218 WT1  5217 TIP3 H1   HT     0.417000        1.0080           0
   18219 WT1  5217 TIP3 H2   HT     0.417000        1.0080           0
   18220 WT1  5218 TIP3 OH2  OT    -0.834000       15.9994           0
   18221 WT1  5218 TIP3 H1   HT     0.417000        1.0080           0
   18222 WT1  5218 TIP3 H2   HT     0.417000        1.0080           0
   18223 WT1  5219 TIP3 OH2  OT    -0.834000       15.9994           0
   18224 WT1  5219 TIP3 H1   HT     0.417000        1.0080           0
   18225 WT1  5219 TIP3 H2   HT     0.417000        1.0080           0
   18226 WT1  5223 TIP3 OH2  OT    -0.834000       15.9994           0
   18227 WT1  5223 TIP3 H1   HT     0.417000        1.0080           0
   18228 WT1  5223 TIP3 H2   HT     0.417000        1.0080           0
   18229 WT1  5224 TIP3 OH2  OT    -0.834000       15.9994           0
   18230 WT1  5224 TIP3 H1   HT     0.417000        1.0080           0
   18231 WT1  5224 TIP3 H2   HT     0.417000        1.0080           0
   18232 WT1  5225 TIP3 OH2  OT    -0.834000       15.9994           0
   18233 WT1  5225 TIP3 H1   HT     0.417000        1.0080           0
   18234 WT1  5225 TIP3 H2   HT     0.417000        1.0080           0
   18235 WT1  5226 TIP3 OH2  OT    -0.834000       15.9994           0
   18236 WT1  5226 TIP3 H1   HT     0.417000        1.0080           0
   18237 WT1  5226 TIP3 H2   HT     0.417000        1.0080           0
   18238 WT1  5228 TIP3 OH2  OT    -0.834000       15.9994           0
   18239 WT1  5228 TIP3 H1   HT     0.417000        1.0080           0
   18240 WT1  5228 TIP3 H2   HT     0.417000        1.0080           0
   18241 WT1  5229 TIP3 OH2  OT    -0.834000       15.9994           0
   18242 WT1  5229 TIP3 H1   HT     0.417000        1.0080           0
   18243 WT1  5229 TIP3 H2   HT     0.417000        1.0080           0
   18244 WT1  5230 TIP3 OH2  OT    -0.834000       15.9994           0
   18245 WT1  5230 TIP3 H1   HT     0.417000        1.0080           0
   18246 WT1  5230 TIP3 H2   HT     0.417000        1.0080           0
   18247 WT1  5231 TIP3 OH2  OT    -0.834000       15.9994           0
   18248 WT1  5231 TIP3 H1   HT     0.417000        1.0080           0
   18249 WT1  5231 TIP3 H2   HT     0.417000        1.0080           0
   18250 WT1  5232 TIP3 OH2  OT    -0.834000       15.9994           0
   18251 WT1  5232 TIP3 H1   HT     0.417000        1.0080           0
   18252 WT1  5232 TIP3 H2   HT     0.417000        1.0080           0
   18253 WT1  5233 TIP3 OH2  OT    -0.834000       15.9994           0
   18254 WT1  5233 TIP3 H1   HT     0.417000        1.0080           0
   18255 WT1  5233 TIP3 H2   HT     0.417000        1.0080           0
   18256 WT1  5234 TIP3 OH2  OT    -0.834000       15.9994           0
   18257 WT1  5234 TIP3 H1   HT     0.417000        1.0080           0
   18258 WT1  5234 TIP3 H2   HT     0.417000        1.0080           0
   18259 WT1  5235 TIP3 OH2  OT    -0.834000       15.9994           0
   18260 WT1  5235 TIP3 H1   HT     0.417000        1.0080           0
   18261 WT1  5235 TIP3 H2   HT     0.417000        1.0080           0
   18262 WT1  5236 TIP3 OH2  OT    -0.834000       15.9994           0
   18263 WT1  5236 TIP3 H1   HT     0.417000        1.0080           0
   18264 WT1  5236 TIP3 H2   HT     0.417000        1.0080           0
   18265 WT1  5237 TIP3 OH2  OT    -0.834000       15.9994           0
   18266 WT1  5237 TIP3 H1   HT     0.417000        1.0080           0
   18267 WT1  5237 TIP3 H2   HT     0.417000        1.0080           0
   18268 WT1  5238 TIP3 OH2  OT    -0.834000       15.9994           0
   18269 WT1  5238 TIP3 H1   HT     0.417000        1.0080           0
   18270 WT1  5238 TIP3 H2   HT     0.417000        1.0080           0
   18271 WT1  5239 TIP3 OH2  OT    -0.834000       15.9994           0
   18272 WT1  5239 TIP3 H1   HT     0.417000        1.0080           0
   18273 WT1  5239 TIP3 H2   HT     0.417000        1.0080           0
   18274 WT1  5240 TIP3 OH2  OT    -0.834000       15.9994           0
   18275 WT1  5240 TIP3 H1   HT     0.417000        1.0080           0
   18276 WT1  5240 TIP3 H2   HT     0.417000        1.0080           0
   18277 WT1  5241 TIP3 OH2  OT    -0.834000       15.9994           0
   18278 WT1  5241 TIP3 H1   HT     0.417000        1.0080           0
   18279 WT1  5241 TIP3 H2   HT     0.417000        1.0080           0
   18280 WT1  5242 TIP3 OH2  OT    -0.834000       15.9994           0
   18281 WT1  5242 TIP3 H1   HT     0.417000        1.0080           0
   18282 WT1  5242 TIP3 H2   HT     0.417000        1.0080           0
   18283 WT1  5243 TIP3 OH2  OT    -0.834000       15.9994           0
   18284 WT1  5243 TIP3 H1   HT     0.417000        1.0080           0
   18285 WT1  5243 TIP3 H2   HT     0.417000        1.0080           0
   18286 WT1  5244 TIP3 OH2  OT    -0.834000       15.9994           0
   18287 WT1  5244 TIP3 H1   HT     0.417000        1.0080           0
   18288 WT1  5244 TIP3 H2   HT     0.417000        1.0080           0
   18289 WT1  5246 TIP3 OH2  OT    -0.834000       15.9994           0
   18290 WT1  5246 TIP3 H1   HT     0.417000        1.0080           0
   18291 WT1  5246 TIP3 H2   HT     0.417000        1.0080           0
   18292 WT1  5248 TIP3 OH2  OT    -0.834000       15.9994           0
   18293 WT1  5248 TIP3 H1   HT     0.417000        1.0080           0
   18294 WT1  5248 TIP3 H2   HT     0.417000        1.0080           0
   18295 WT1  5249 TIP3 OH2  OT    -0.834000       15.9994           0
   18296 WT1  5249 TIP3 H1   HT     0.417000        1.0080           0
   18297 WT1  5249 TIP3 H2   HT     0.417000        1.0080           0
   18298 WT1  5251 TIP3 OH2  OT    -0.834000       15.9994           0
   18299 WT1  5251 TIP3 H1   HT     0.417000        1.0080           0
   18300 WT1  5251 TIP3 H2   HT     0.417000        1.0080           0
   18301 WT1  5252 TIP3 OH2  OT    -0.834000       15.9994           0
   18302 WT1  5252 TIP3 H1   HT     0.417000        1.0080           0
   18303 WT1  5252 TIP3 H2   HT     0.417000        1.0080           0
   18304 WT1  5253 TIP3 OH2  OT    -0.834000       15.9994           0
   18305 WT1  5253 TIP3 H1   HT     0.417000        1.0080           0
   18306 WT1  5253 TIP3 H2   HT     0.417000        1.0080           0
   18307 WT1  5254 TIP3 OH2  OT    -0.834000       15.9994           0
   18308 WT1  5254 TIP3 H1   HT     0.417000        1.0080           0
   18309 WT1  5254 TIP3 H2   HT     0.417000        1.0080           0
   18310 WT1  5255 TIP3 OH2  OT    -0.834000       15.9994           0
   18311 WT1  5255 TIP3 H1   HT     0.417000        1.0080           0
   18312 WT1  5255 TIP3 H2   HT     0.417000        1.0080           0
   18313 WT1  5256 TIP3 OH2  OT    -0.834000       15.9994           0
   18314 WT1  5256 TIP3 H1   HT     0.417000        1.0080           0
   18315 WT1  5256 TIP3 H2   HT     0.417000        1.0080           0
   18316 WT1  5257 TIP3 OH2  OT    -0.834000       15.9994           0
   18317 WT1  5257 TIP3 H1   HT     0.417000        1.0080           0
   18318 WT1  5257 TIP3 H2   HT     0.417000        1.0080           0
   18319 WT1  5258 TIP3 OH2  OT    -0.834000       15.9994           0
   18320 WT1  5258 TIP3 H1   HT     0.417000        1.0080           0
   18321 WT1  5258 TIP3 H2   HT     0.417000        1.0080           0
   18322 WT1  5259 TIP3 OH2  OT    -0.834000       15.9994           0
   18323 WT1  5259 TIP3 H1   HT     0.417000        1.0080           0
   18324 WT1  5259 TIP3 H2   HT     0.417000        1.0080           0
   18325 WT1  5260 TIP3 OH2  OT    -0.834000       15.9994           0
   18326 WT1  5260 TIP3 H1   HT     0.417000        1.0080           0
   18327 WT1  5260 TIP3 H2   HT     0.417000        1.0080           0
   18328 WT1  5261 TIP3 OH2  OT    -0.834000       15.9994           0
   18329 WT1  5261 TIP3 H1   HT     0.417000        1.0080           0
   18330 WT1  5261 TIP3 H2   HT     0.417000        1.0080           0
   18331 WT1  5262 TIP3 OH2  OT    -0.834000       15.9994           0
   18332 WT1  5262 TIP3 H1   HT     0.417000        1.0080           0
   18333 WT1  5262 TIP3 H2   HT     0.417000        1.0080           0
   18334 WT1  5263 TIP3 OH2  OT    -0.834000       15.9994           0
   18335 WT1  5263 TIP3 H1   HT     0.417000        1.0080           0
   18336 WT1  5263 TIP3 H2   HT     0.417000        1.0080           0
   18337 WT1  5264 TIP3 OH2  OT    -0.834000       15.9994           0
   18338 WT1  5264 TIP3 H1   HT     0.417000        1.0080           0
   18339 WT1  5264 TIP3 H2   HT     0.417000        1.0080           0
   18340 WT1  5265 TIP3 OH2  OT    -0.834000       15.9994           0
   18341 WT1  5265 TIP3 H1   HT     0.417000        1.0080           0
   18342 WT1  5265 TIP3 H2   HT     0.417000        1.0080           0
   18343 WT1  5266 TIP3 OH2  OT    -0.834000       15.9994           0
   18344 WT1  5266 TIP3 H1   HT     0.417000        1.0080           0
   18345 WT1  5266 TIP3 H2   HT     0.417000        1.0080           0
   18346 WT1  5269 TIP3 OH2  OT    -0.834000       15.9994           0
   18347 WT1  5269 TIP3 H1   HT     0.417000        1.0080           0
   18348 WT1  5269 TIP3 H2   HT     0.417000        1.0080           0
   18349 WT1  5270 TIP3 OH2  OT    -0.834000       15.9994           0
   18350 WT1  5270 TIP3 H1   HT     0.417000        1.0080           0
   18351 WT1  5270 TIP3 H2   HT     0.417000        1.0080           0
   18352 WT1  5271 TIP3 OH2  OT    -0.834000       15.9994           0
   18353 WT1  5271 TIP3 H1   HT     0.417000        1.0080           0
   18354 WT1  5271 TIP3 H2   HT     0.417000        1.0080           0
   18355 WT1  5272 TIP3 OH2  OT    -0.834000       15.9994           0
   18356 WT1  5272 TIP3 H1   HT     0.417000        1.0080           0
   18357 WT1  5272 TIP3 H2   HT     0.417000        1.0080           0
   18358 WT1  5273 TIP3 OH2  OT    -0.834000       15.9994           0
   18359 WT1  5273 TIP3 H1   HT     0.417000        1.0080           0
   18360 WT1  5273 TIP3 H2   HT     0.417000        1.0080           0
   18361 WT1  5274 TIP3 OH2  OT    -0.834000       15.9994           0
   18362 WT1  5274 TIP3 H1   HT     0.417000        1.0080           0
   18363 WT1  5274 TIP3 H2   HT     0.417000        1.0080           0
   18364 WT1  5275 TIP3 OH2  OT    -0.834000       15.9994           0
   18365 WT1  5275 TIP3 H1   HT     0.417000        1.0080           0
   18366 WT1  5275 TIP3 H2   HT     0.417000        1.0080           0
   18367 WT1  5276 TIP3 OH2  OT    -0.834000       15.9994           0
   18368 WT1  5276 TIP3 H1   HT     0.417000        1.0080           0
   18369 WT1  5276 TIP3 H2   HT     0.417000        1.0080           0
   18370 WT1  5277 TIP3 OH2  OT    -0.834000       15.9994           0
   18371 WT1  5277 TIP3 H1   HT     0.417000        1.0080           0
   18372 WT1  5277 TIP3 H2   HT     0.417000        1.0080           0
   18373 WT1  5278 TIP3 OH2  OT    -0.834000       15.9994           0
   18374 WT1  5278 TIP3 H1   HT     0.417000        1.0080           0
   18375 WT1  5278 TIP3 H2   HT     0.417000        1.0080           0
   18376 WT1  5279 TIP3 OH2  OT    -0.834000       15.9994           0
   18377 WT1  5279 TIP3 H1   HT     0.417000        1.0080           0
   18378 WT1  5279 TIP3 H2   HT     0.417000        1.0080           0
   18379 WT1  5280 TIP3 OH2  OT    -0.834000       15.9994           0
   18380 WT1  5280 TIP3 H1   HT     0.417000        1.0080           0
   18381 WT1  5280 TIP3 H2   HT     0.417000        1.0080           0
   18382 WT1  5281 TIP3 OH2  OT    -0.834000       15.9994           0
   18383 WT1  5281 TIP3 H1   HT     0.417000        1.0080           0
   18384 WT1  5281 TIP3 H2   HT     0.417000        1.0080           0
   18385 WT1  5282 TIP3 OH2  OT    -0.834000       15.9994           0
   18386 WT1  5282 TIP3 H1   HT     0.417000        1.0080           0
   18387 WT1  5282 TIP3 H2   HT     0.417000        1.0080           0
   18388 WT1  5283 TIP3 OH2  OT    -0.834000       15.9994           0
   18389 WT1  5283 TIP3 H1   HT     0.417000        1.0080           0
   18390 WT1  5283 TIP3 H2   HT     0.417000        1.0080           0
   18391 WT1  5284 TIP3 OH2  OT    -0.834000       15.9994           0
   18392 WT1  5284 TIP3 H1   HT     0.417000        1.0080           0
   18393 WT1  5284 TIP3 H2   HT     0.417000        1.0080           0
   18394 WT1  5285 TIP3 OH2  OT    -0.834000       15.9994           0
   18395 WT1  5285 TIP3 H1   HT     0.417000        1.0080           0
   18396 WT1  5285 TIP3 H2   HT     0.417000        1.0080           0
   18397 WT1  5286 TIP3 OH2  OT    -0.834000       15.9994           0
   18398 WT1  5286 TIP3 H1   HT     0.417000        1.0080           0
   18399 WT1  5286 TIP3 H2   HT     0.417000        1.0080           0
   18400 WT1  5287 TIP3 OH2  OT    -0.834000       15.9994           0
   18401 WT1  5287 TIP3 H1   HT     0.417000        1.0080           0
   18402 WT1  5287 TIP3 H2   HT     0.417000        1.0080           0
   18403 WT1  5289 TIP3 OH2  OT    -0.834000       15.9994           0
   18404 WT1  5289 TIP3 H1   HT     0.417000        1.0080           0
   18405 WT1  5289 TIP3 H2   HT     0.417000        1.0080           0
   18406 WT1  5291 TIP3 OH2  OT    -0.834000       15.9994           0
   18407 WT1  5291 TIP3 H1   HT     0.417000        1.0080           0
   18408 WT1  5291 TIP3 H2   HT     0.417000        1.0080           0
   18409 WT1  5292 TIP3 OH2  OT    -0.834000       15.9994           0
   18410 WT1  5292 TIP3 H1   HT     0.417000        1.0080           0
   18411 WT1  5292 TIP3 H2   HT     0.417000        1.0080           0
   18412 WT1  5293 TIP3 OH2  OT    -0.834000       15.9994           0
   18413 WT1  5293 TIP3 H1   HT     0.417000        1.0080           0
   18414 WT1  5293 TIP3 H2   HT     0.417000        1.0080           0
   18415 WT1  5294 TIP3 OH2  OT    -0.834000       15.9994           0
   18416 WT1  5294 TIP3 H1   HT     0.417000        1.0080           0
   18417 WT1  5294 TIP3 H2   HT     0.417000        1.0080           0
   18418 WT1  5295 TIP3 OH2  OT    -0.834000       15.9994           0
   18419 WT1  5295 TIP3 H1   HT     0.417000        1.0080           0
   18420 WT1  5295 TIP3 H2   HT     0.417000        1.0080           0
   18421 WT1  5296 TIP3 OH2  OT    -0.834000       15.9994           0
   18422 WT1  5296 TIP3 H1   HT     0.417000        1.0080           0
   18423 WT1  5296 TIP3 H2   HT     0.417000        1.0080           0
   18424 WT1  5297 TIP3 OH2  OT    -0.834000       15.9994           0
   18425 WT1  5297 TIP3 H1   HT     0.417000        1.0080           0
   18426 WT1  5297 TIP3 H2   HT     0.417000        1.0080           0
   18427 WT1  5298 TIP3 OH2  OT    -0.834000       15.9994           0
   18428 WT1  5298 TIP3 H1   HT     0.417000        1.0080           0
   18429 WT1  5298 TIP3 H2   HT     0.417000        1.0080           0
   18430 WT1  5299 TIP3 OH2  OT    -0.834000       15.9994           0
   18431 WT1  5299 TIP3 H1   HT     0.417000        1.0080           0
   18432 WT1  5299 TIP3 H2   HT     0.417000        1.0080           0
   18433 WT1  5300 TIP3 OH2  OT    -0.834000       15.9994           0
   18434 WT1  5300 TIP3 H1   HT     0.417000        1.0080           0
   18435 WT1  5300 TIP3 H2   HT     0.417000        1.0080           0
   18436 WT1  5301 TIP3 OH2  OT    -0.834000       15.9994           0
   18437 WT1  5301 TIP3 H1   HT     0.417000        1.0080           0
   18438 WT1  5301 TIP3 H2   HT     0.417000        1.0080           0
   18439 WT1  5302 TIP3 OH2  OT    -0.834000       15.9994           0
   18440 WT1  5302 TIP3 H1   HT     0.417000        1.0080           0
   18441 WT1  5302 TIP3 H2   HT     0.417000        1.0080           0
   18442 WT1  5303 TIP3 OH2  OT    -0.834000       15.9994           0
   18443 WT1  5303 TIP3 H1   HT     0.417000        1.0080           0
   18444 WT1  5303 TIP3 H2   HT     0.417000        1.0080           0
   18445 WT1  5304 TIP3 OH2  OT    -0.834000       15.9994           0
   18446 WT1  5304 TIP3 H1   HT     0.417000        1.0080           0
   18447 WT1  5304 TIP3 H2   HT     0.417000        1.0080           0
   18448 WT1  5305 TIP3 OH2  OT    -0.834000       15.9994           0
   18449 WT1  5305 TIP3 H1   HT     0.417000        1.0080           0
   18450 WT1  5305 TIP3 H2   HT     0.417000        1.0080           0
   18451 WT1  5306 TIP3 OH2  OT    -0.834000       15.9994           0
   18452 WT1  5306 TIP3 H1   HT     0.417000        1.0080           0
   18453 WT1  5306 TIP3 H2   HT     0.417000        1.0080           0
   18454 WT1  5307 TIP3 OH2  OT    -0.834000       15.9994           0
   18455 WT1  5307 TIP3 H1   HT     0.417000        1.0080           0
   18456 WT1  5307 TIP3 H2   HT     0.417000        1.0080           0
   18457 WT1  5308 TIP3 OH2  OT    -0.834000       15.9994           0
   18458 WT1  5308 TIP3 H1   HT     0.417000        1.0080           0
   18459 WT1  5308 TIP3 H2   HT     0.417000        1.0080           0
   18460 WT1  5309 TIP3 OH2  OT    -0.834000       15.9994           0
   18461 WT1  5309 TIP3 H1   HT     0.417000        1.0080           0
   18462 WT1  5309 TIP3 H2   HT     0.417000        1.0080           0
   18463 WT1  5310 TIP3 OH2  OT    -0.834000       15.9994           0
   18464 WT1  5310 TIP3 H1   HT     0.417000        1.0080           0
   18465 WT1  5310 TIP3 H2   HT     0.417000        1.0080           0
   18466 WT1  5311 TIP3 OH2  OT    -0.834000       15.9994           0
   18467 WT1  5311 TIP3 H1   HT     0.417000        1.0080           0
   18468 WT1  5311 TIP3 H2   HT     0.417000        1.0080           0
   18469 WT1  5314 TIP3 OH2  OT    -0.834000       15.9994           0
   18470 WT1  5314 TIP3 H1   HT     0.417000        1.0080           0
   18471 WT1  5314 TIP3 H2   HT     0.417000        1.0080           0
   18472 WT1  5315 TIP3 OH2  OT    -0.834000       15.9994           0
   18473 WT1  5315 TIP3 H1   HT     0.417000        1.0080           0
   18474 WT1  5315 TIP3 H2   HT     0.417000        1.0080           0
   18475 WT1  5317 TIP3 OH2  OT    -0.834000       15.9994           0
   18476 WT1  5317 TIP3 H1   HT     0.417000        1.0080           0
   18477 WT1  5317 TIP3 H2   HT     0.417000        1.0080           0
   18478 WT1  5318 TIP3 OH2  OT    -0.834000       15.9994           0
   18479 WT1  5318 TIP3 H1   HT     0.417000        1.0080           0
   18480 WT1  5318 TIP3 H2   HT     0.417000        1.0080           0
   18481 WT1  5319 TIP3 OH2  OT    -0.834000       15.9994           0
   18482 WT1  5319 TIP3 H1   HT     0.417000        1.0080           0
   18483 WT1  5319 TIP3 H2   HT     0.417000        1.0080           0
   18484 WT1  5320 TIP3 OH2  OT    -0.834000       15.9994           0
   18485 WT1  5320 TIP3 H1   HT     0.417000        1.0080           0
   18486 WT1  5320 TIP3 H2   HT     0.417000        1.0080           0
   18487 WT1  5321 TIP3 OH2  OT    -0.834000       15.9994           0
   18488 WT1  5321 TIP3 H1   HT     0.417000        1.0080           0
   18489 WT1  5321 TIP3 H2   HT     0.417000        1.0080           0
   18490 WT1  5322 TIP3 OH2  OT    -0.834000       15.9994           0
   18491 WT1  5322 TIP3 H1   HT     0.417000        1.0080           0
   18492 WT1  5322 TIP3 H2   HT     0.417000        1.0080           0
   18493 WT1  5323 TIP3 OH2  OT    -0.834000       15.9994           0
   18494 WT1  5323 TIP3 H1   HT     0.417000        1.0080           0
   18495 WT1  5323 TIP3 H2   HT     0.417000        1.0080           0
   18496 WT1  5324 TIP3 OH2  OT    -0.834000       15.9994           0
   18497 WT1  5324 TIP3 H1   HT     0.417000        1.0080           0
   18498 WT1  5324 TIP3 H2   HT     0.417000        1.0080           0
   18499 WT1  5325 TIP3 OH2  OT    -0.834000       15.9994           0
   18500 WT1  5325 TIP3 H1   HT     0.417000        1.0080           0
   18501 WT1  5325 TIP3 H2   HT     0.417000        1.0080           0
   18502 WT1  5326 TIP3 OH2  OT    -0.834000       15.9994           0
   18503 WT1  5326 TIP3 H1   HT     0.417000        1.0080           0
   18504 WT1  5326 TIP3 H2   HT     0.417000        1.0080           0
   18505 WT1  5327 TIP3 OH2  OT    -0.834000       15.9994           0
   18506 WT1  5327 TIP3 H1   HT     0.417000        1.0080           0
   18507 WT1  5327 TIP3 H2   HT     0.417000        1.0080           0
   18508 WT1  5328 TIP3 OH2  OT    -0.834000       15.9994           0
   18509 WT1  5328 TIP3 H1   HT     0.417000        1.0080           0
   18510 WT1  5328 TIP3 H2   HT     0.417000        1.0080           0
   18511 WT1  5329 TIP3 OH2  OT    -0.834000       15.9994           0
   18512 WT1  5329 TIP3 H1   HT     0.417000        1.0080           0
   18513 WT1  5329 TIP3 H2   HT     0.417000        1.0080           0
   18514 WT1  5330 TIP3 OH2  OT    -0.834000       15.9994           0
   18515 WT1  5330 TIP3 H1   HT     0.417000        1.0080           0
   18516 WT1  5330 TIP3 H2   HT     0.417000        1.0080           0
   18517 WT1  5331 TIP3 OH2  OT    -0.834000       15.9994           0
   18518 WT1  5331 TIP3 H1   HT     0.417000        1.0080           0
   18519 WT1  5331 TIP3 H2   HT     0.417000        1.0080           0
   18520 WT1  5334 TIP3 OH2  OT    -0.834000       15.9994           0
   18521 WT1  5334 TIP3 H1   HT     0.417000        1.0080           0
   18522 WT1  5334 TIP3 H2   HT     0.417000        1.0080           0
   18523 WT1  5335 TIP3 OH2  OT    -0.834000       15.9994           0
   18524 WT1  5335 TIP3 H1   HT     0.417000        1.0080           0
   18525 WT1  5335 TIP3 H2   HT     0.417000        1.0080           0
   18526 WT1  5336 TIP3 OH2  OT    -0.834000       15.9994           0
   18527 WT1  5336 TIP3 H1   HT     0.417000        1.0080           0
   18528 WT1  5336 TIP3 H2   HT     0.417000        1.0080           0
   18529 WT1  5337 TIP3 OH2  OT    -0.834000       15.9994           0
   18530 WT1  5337 TIP3 H1   HT     0.417000        1.0080           0
   18531 WT1  5337 TIP3 H2   HT     0.417000        1.0080           0
   18532 WT1  5338 TIP3 OH2  OT    -0.834000       15.9994           0
   18533 WT1  5338 TIP3 H1   HT     0.417000        1.0080           0
   18534 WT1  5338 TIP3 H2   HT     0.417000        1.0080           0
   18535 WT1  5339 TIP3 OH2  OT    -0.834000       15.9994           0
   18536 WT1  5339 TIP3 H1   HT     0.417000        1.0080           0
   18537 WT1  5339 TIP3 H2   HT     0.417000        1.0080           0
   18538 WT1  5340 TIP3 OH2  OT    -0.834000       15.9994           0
   18539 WT1  5340 TIP3 H1   HT     0.417000        1.0080           0
   18540 WT1  5340 TIP3 H2   HT     0.417000        1.0080           0
   18541 WT1  5341 TIP3 OH2  OT    -0.834000       15.9994           0
   18542 WT1  5341 TIP3 H1   HT     0.417000        1.0080           0
   18543 WT1  5341 TIP3 H2   HT     0.417000        1.0080           0
   18544 WT1  5342 TIP3 OH2  OT    -0.834000       15.9994           0
   18545 WT1  5342 TIP3 H1   HT     0.417000        1.0080           0
   18546 WT1  5342 TIP3 H2   HT     0.417000        1.0080           0
   18547 WT1  5343 TIP3 OH2  OT    -0.834000       15.9994           0
   18548 WT1  5343 TIP3 H1   HT     0.417000        1.0080           0
   18549 WT1  5343 TIP3 H2   HT     0.417000        1.0080           0
   18550 WT1  5344 TIP3 OH2  OT    -0.834000       15.9994           0
   18551 WT1  5344 TIP3 H1   HT     0.417000        1.0080           0
   18552 WT1  5344 TIP3 H2   HT     0.417000        1.0080           0
   18553 WT1  5345 TIP3 OH2  OT    -0.834000       15.9994           0
   18554 WT1  5345 TIP3 H1   HT     0.417000        1.0080           0
   18555 WT1  5345 TIP3 H2   HT     0.417000        1.0080           0
   18556 WT1  5346 TIP3 OH2  OT    -0.834000       15.9994           0
   18557 WT1  5346 TIP3 H1   HT     0.417000        1.0080           0
   18558 WT1  5346 TIP3 H2   HT     0.417000        1.0080           0
   18559 WT1  5347 TIP3 OH2  OT    -0.834000       15.9994           0
   18560 WT1  5347 TIP3 H1   HT     0.417000        1.0080           0
   18561 WT1  5347 TIP3 H2   HT     0.417000        1.0080           0
   18562 WT1  5348 TIP3 OH2  OT    -0.834000       15.9994           0
   18563 WT1  5348 TIP3 H1   HT     0.417000        1.0080           0
   18564 WT1  5348 TIP3 H2   HT     0.417000        1.0080           0
   18565 WT1  5349 TIP3 OH2  OT    -0.834000       15.9994           0
   18566 WT1  5349 TIP3 H1   HT     0.417000        1.0080           0
   18567 WT1  5349 TIP3 H2   HT     0.417000        1.0080           0
   18568 WT1  5350 TIP3 OH2  OT    -0.834000       15.9994           0
   18569 WT1  5350 TIP3 H1   HT     0.417000        1.0080           0
   18570 WT1  5350 TIP3 H2   HT     0.417000        1.0080           0
   18571 WT1  5352 TIP3 OH2  OT    -0.834000       15.9994           0
   18572 WT1  5352 TIP3 H1   HT     0.417000        1.0080           0
   18573 WT1  5352 TIP3 H2   HT     0.417000        1.0080           0
   18574 WT1  5353 TIP3 OH2  OT    -0.834000       15.9994           0
   18575 WT1  5353 TIP3 H1   HT     0.417000        1.0080           0
   18576 WT1  5353 TIP3 H2   HT     0.417000        1.0080           0
   18577 WT1  5355 TIP3 OH2  OT    -0.834000       15.9994           0
   18578 WT1  5355 TIP3 H1   HT     0.417000        1.0080           0
   18579 WT1  5355 TIP3 H2   HT     0.417000        1.0080           0
   18580 WT1  5356 TIP3 OH2  OT    -0.834000       15.9994           0
   18581 WT1  5356 TIP3 H1   HT     0.417000        1.0080           0
   18582 WT1  5356 TIP3 H2   HT     0.417000        1.0080           0
   18583 WT1  5357 TIP3 OH2  OT    -0.834000       15.9994           0
   18584 WT1  5357 TIP3 H1   HT     0.417000        1.0080           0
   18585 WT1  5357 TIP3 H2   HT     0.417000        1.0080           0
   18586 WT1  5358 TIP3 OH2  OT    -0.834000       15.9994           0
   18587 WT1  5358 TIP3 H1   HT     0.417000        1.0080           0
   18588 WT1  5358 TIP3 H2   HT     0.417000        1.0080           0
   18589 WT1  5359 TIP3 OH2  OT    -0.834000       15.9994           0
   18590 WT1  5359 TIP3 H1   HT     0.417000        1.0080           0
   18591 WT1  5359 TIP3 H2   HT     0.417000        1.0080           0
   18592 WT1  5360 TIP3 OH2  OT    -0.834000       15.9994           0
   18593 WT1  5360 TIP3 H1   HT     0.417000        1.0080           0
   18594 WT1  5360 TIP3 H2   HT     0.417000        1.0080           0
   18595 WT1  5361 TIP3 OH2  OT    -0.834000       15.9994           0
   18596 WT1  5361 TIP3 H1   HT     0.417000        1.0080           0
   18597 WT1  5361 TIP3 H2   HT     0.417000        1.0080           0
   18598 WT1  5362 TIP3 OH2  OT    -0.834000       15.9994           0
   18599 WT1  5362 TIP3 H1   HT     0.417000        1.0080           0
   18600 WT1  5362 TIP3 H2   HT     0.417000        1.0080           0
   18601 WT1  5364 TIP3 OH2  OT    -0.834000       15.9994           0
   18602 WT1  5364 TIP3 H1   HT     0.417000        1.0080           0
   18603 WT1  5364 TIP3 H2   HT     0.417000        1.0080           0
   18604 WT1  5365 TIP3 OH2  OT    -0.834000       15.9994           0
   18605 WT1  5365 TIP3 H1   HT     0.417000        1.0080           0
   18606 WT1  5365 TIP3 H2   HT     0.417000        1.0080           0
   18607 WT1  5366 TIP3 OH2  OT    -0.834000       15.9994           0
   18608 WT1  5366 TIP3 H1   HT     0.417000        1.0080           0
   18609 WT1  5366 TIP3 H2   HT     0.417000        1.0080           0
   18610 WT1  5367 TIP3 OH2  OT    -0.834000       15.9994           0
   18611 WT1  5367 TIP3 H1   HT     0.417000        1.0080           0
   18612 WT1  5367 TIP3 H2   HT     0.417000        1.0080           0
   18613 WT1  5368 TIP3 OH2  OT    -0.834000       15.9994           0
   18614 WT1  5368 TIP3 H1   HT     0.417000        1.0080           0
   18615 WT1  5368 TIP3 H2   HT     0.417000        1.0080           0
   18616 WT1  5369 TIP3 OH2  OT    -0.834000       15.9994           0
   18617 WT1  5369 TIP3 H1   HT     0.417000        1.0080           0
   18618 WT1  5369 TIP3 H2   HT     0.417000        1.0080           0
   18619 WT1  5370 TIP3 OH2  OT    -0.834000       15.9994           0
   18620 WT1  5370 TIP3 H1   HT     0.417000        1.0080           0
   18621 WT1  5370 TIP3 H2   HT     0.417000        1.0080           0
   18622 WT1  5371 TIP3 OH2  OT    -0.834000       15.9994           0
   18623 WT1  5371 TIP3 H1   HT     0.417000        1.0080           0
   18624 WT1  5371 TIP3 H2   HT     0.417000        1.0080           0
   18625 WT1  5372 TIP3 OH2  OT    -0.834000       15.9994           0
   18626 WT1  5372 TIP3 H1   HT     0.417000        1.0080           0
   18627 WT1  5372 TIP3 H2   HT     0.417000        1.0080           0
   18628 WT1  5375 TIP3 OH2  OT    -0.834000       15.9994           0
   18629 WT1  5375 TIP3 H1   HT     0.417000        1.0080           0
   18630 WT1  5375 TIP3 H2   HT     0.417000        1.0080           0
   18631 WT1  5376 TIP3 OH2  OT    -0.834000       15.9994           0
   18632 WT1  5376 TIP3 H1   HT     0.417000        1.0080           0
   18633 WT1  5376 TIP3 H2   HT     0.417000        1.0080           0
   18634 WT1  5377 TIP3 OH2  OT    -0.834000       15.9994           0
   18635 WT1  5377 TIP3 H1   HT     0.417000        1.0080           0
   18636 WT1  5377 TIP3 H2   HT     0.417000        1.0080           0
   18637 WT1  5378 TIP3 OH2  OT    -0.834000       15.9994           0
   18638 WT1  5378 TIP3 H1   HT     0.417000        1.0080           0
   18639 WT1  5378 TIP3 H2   HT     0.417000        1.0080           0
   18640 WT1  5379 TIP3 OH2  OT    -0.834000       15.9994           0
   18641 WT1  5379 TIP3 H1   HT     0.417000        1.0080           0
   18642 WT1  5379 TIP3 H2   HT     0.417000        1.0080           0
   18643 WT1  5380 TIP3 OH2  OT    -0.834000       15.9994           0
   18644 WT1  5380 TIP3 H1   HT     0.417000        1.0080           0
   18645 WT1  5380 TIP3 H2   HT     0.417000        1.0080           0
   18646 WT1  5381 TIP3 OH2  OT    -0.834000       15.9994           0
   18647 WT1  5381 TIP3 H1   HT     0.417000        1.0080           0
   18648 WT1  5381 TIP3 H2   HT     0.417000        1.0080           0
   18649 WT1  5382 TIP3 OH2  OT    -0.834000       15.9994           0
   18650 WT1  5382 TIP3 H1   HT     0.417000        1.0080           0
   18651 WT1  5382 TIP3 H2   HT     0.417000        1.0080           0
   18652 WT1  5383 TIP3 OH2  OT    -0.834000       15.9994           0
   18653 WT1  5383 TIP3 H1   HT     0.417000        1.0080           0
   18654 WT1  5383 TIP3 H2   HT     0.417000        1.0080           0
   18655 WT1  5384 TIP3 OH2  OT    -0.834000       15.9994           0
   18656 WT1  5384 TIP3 H1   HT     0.417000        1.0080           0
   18657 WT1  5384 TIP3 H2   HT     0.417000        1.0080           0
   18658 WT1  5385 TIP3 OH2  OT    -0.834000       15.9994           0
   18659 WT1  5385 TIP3 H1   HT     0.417000        1.0080           0
   18660 WT1  5385 TIP3 H2   HT     0.417000        1.0080           0
   18661 WT1  5386 TIP3 OH2  OT    -0.834000       15.9994           0
   18662 WT1  5386 TIP3 H1   HT     0.417000        1.0080           0
   18663 WT1  5386 TIP3 H2   HT     0.417000        1.0080           0
   18664 WT1  5387 TIP3 OH2  OT    -0.834000       15.9994           0
   18665 WT1  5387 TIP3 H1   HT     0.417000        1.0080           0
   18666 WT1  5387 TIP3 H2   HT     0.417000        1.0080           0
   18667 WT1  5388 TIP3 OH2  OT    -0.834000       15.9994           0
   18668 WT1  5388 TIP3 H1   HT     0.417000        1.0080           0
   18669 WT1  5388 TIP3 H2   HT     0.417000        1.0080           0
   18670 WT1  5389 TIP3 OH2  OT    -0.834000       15.9994           0
   18671 WT1  5389 TIP3 H1   HT     0.417000        1.0080           0
   18672 WT1  5389 TIP3 H2   HT     0.417000        1.0080           0
   18673 WT1  5390 TIP3 OH2  OT    -0.834000       15.9994           0
   18674 WT1  5390 TIP3 H1   HT     0.417000        1.0080           0
   18675 WT1  5390 TIP3 H2   HT     0.417000        1.0080           0
   18676 WT1  5391 TIP3 OH2  OT    -0.834000       15.9994           0
   18677 WT1  5391 TIP3 H1   HT     0.417000        1.0080           0
   18678 WT1  5391 TIP3 H2   HT     0.417000        1.0080           0
   18679 WT1  5392 TIP3 OH2  OT    -0.834000       15.9994           0
   18680 WT1  5392 TIP3 H1   HT     0.417000        1.0080           0
   18681 WT1  5392 TIP3 H2   HT     0.417000        1.0080           0
   18682 WT1  5393 TIP3 OH2  OT    -0.834000       15.9994           0
   18683 WT1  5393 TIP3 H1   HT     0.417000        1.0080           0
   18684 WT1  5393 TIP3 H2   HT     0.417000        1.0080           0
   18685 WT1  5394 TIP3 OH2  OT    -0.834000       15.9994           0
   18686 WT1  5394 TIP3 H1   HT     0.417000        1.0080           0
   18687 WT1  5394 TIP3 H2   HT     0.417000        1.0080           0
   18688 WT1  5395 TIP3 OH2  OT    -0.834000       15.9994           0
   18689 WT1  5395 TIP3 H1   HT     0.417000        1.0080           0
   18690 WT1  5395 TIP3 H2   HT     0.417000        1.0080           0
   18691 WT1  5396 TIP3 OH2  OT    -0.834000       15.9994           0
   18692 WT1  5396 TIP3 H1   HT     0.417000        1.0080           0
   18693 WT1  5396 TIP3 H2   HT     0.417000        1.0080           0
   18694 WT1  5397 TIP3 OH2  OT    -0.834000       15.9994           0
   18695 WT1  5397 TIP3 H1   HT     0.417000        1.0080           0
   18696 WT1  5397 TIP3 H2   HT     0.417000        1.0080           0
   18697 WT1  5398 TIP3 OH2  OT    -0.834000       15.9994           0
   18698 WT1  5398 TIP3 H1   HT     0.417000        1.0080           0
   18699 WT1  5398 TIP3 H2   HT     0.417000        1.0080           0
   18700 WT1  5399 TIP3 OH2  OT    -0.834000       15.9994           0
   18701 WT1  5399 TIP3 H1   HT     0.417000        1.0080           0
   18702 WT1  5399 TIP3 H2   HT     0.417000        1.0080           0
   18703 WT1  5400 TIP3 OH2  OT    -0.834000       15.9994           0
   18704 WT1  5400 TIP3 H1   HT     0.417000        1.0080           0
   18705 WT1  5400 TIP3 H2   HT     0.417000        1.0080           0
   18706 WT1  5401 TIP3 OH2  OT    -0.834000       15.9994           0
   18707 WT1  5401 TIP3 H1   HT     0.417000        1.0080           0
   18708 WT1  5401 TIP3 H2   HT     0.417000        1.0080           0
   18709 WT1  5402 TIP3 OH2  OT    -0.834000       15.9994           0
   18710 WT1  5402 TIP3 H1   HT     0.417000        1.0080           0
   18711 WT1  5402 TIP3 H2   HT     0.417000        1.0080           0
   18712 WT1  5403 TIP3 OH2  OT    -0.834000       15.9994           0
   18713 WT1  5403 TIP3 H1   HT     0.417000        1.0080           0
   18714 WT1  5403 TIP3 H2   HT     0.417000        1.0080           0
   18715 WT1  5404 TIP3 OH2  OT    -0.834000       15.9994           0
   18716 WT1  5404 TIP3 H1   HT     0.417000        1.0080           0
   18717 WT1  5404 TIP3 H2   HT     0.417000        1.0080           0
   18718 WT1  5405 TIP3 OH2  OT    -0.834000       15.9994           0
   18719 WT1  5405 TIP3 H1   HT     0.417000        1.0080           0
   18720 WT1  5405 TIP3 H2   HT     0.417000        1.0080           0
   18721 WT1  5406 TIP3 OH2  OT    -0.834000       15.9994           0
   18722 WT1  5406 TIP3 H1   HT     0.417000        1.0080           0
   18723 WT1  5406 TIP3 H2   HT     0.417000        1.0080           0
   18724 WT1  5407 TIP3 OH2  OT    -0.834000       15.9994           0
   18725 WT1  5407 TIP3 H1   HT     0.417000        1.0080           0
   18726 WT1  5407 TIP3 H2   HT     0.417000        1.0080           0
   18727 WT1  5408 TIP3 OH2  OT    -0.834000       15.9994           0
   18728 WT1  5408 TIP3 H1   HT     0.417000        1.0080           0
   18729 WT1  5408 TIP3 H2   HT     0.417000        1.0080           0
   18730 WT1  5409 TIP3 OH2  OT    -0.834000       15.9994           0
   18731 WT1  5409 TIP3 H1   HT     0.417000        1.0080           0
   18732 WT1  5409 TIP3 H2   HT     0.417000        1.0080           0
   18733 WT1  5410 TIP3 OH2  OT    -0.834000       15.9994           0
   18734 WT1  5410 TIP3 H1   HT     0.417000        1.0080           0
   18735 WT1  5410 TIP3 H2   HT     0.417000        1.0080           0
   18736 WT1  5411 TIP3 OH2  OT    -0.834000       15.9994           0
   18737 WT1  5411 TIP3 H1   HT     0.417000        1.0080           0
   18738 WT1  5411 TIP3 H2   HT     0.417000        1.0080           0
   18739 WT1  5412 TIP3 OH2  OT    -0.834000       15.9994           0
   18740 WT1  5412 TIP3 H1   HT     0.417000        1.0080           0
   18741 WT1  5412 TIP3 H2   HT     0.417000        1.0080           0
   18742 WT1  5413 TIP3 OH2  OT    -0.834000       15.9994           0
   18743 WT1  5413 TIP3 H1   HT     0.417000        1.0080           0
   18744 WT1  5413 TIP3 H2   HT     0.417000        1.0080           0
   18745 WT1  5415 TIP3 OH2  OT    -0.834000       15.9994           0
   18746 WT1  5415 TIP3 H1   HT     0.417000        1.0080           0
   18747 WT1  5415 TIP3 H2   HT     0.417000        1.0080           0
   18748 WT1  5417 TIP3 OH2  OT    -0.834000       15.9994           0
   18749 WT1  5417 TIP3 H1   HT     0.417000        1.0080           0
   18750 WT1  5417 TIP3 H2   HT     0.417000        1.0080           0
   18751 WT1  5418 TIP3 OH2  OT    -0.834000       15.9994           0
   18752 WT1  5418 TIP3 H1   HT     0.417000        1.0080           0
   18753 WT1  5418 TIP3 H2   HT     0.417000        1.0080           0
   18754 WT1  5419 TIP3 OH2  OT    -0.834000       15.9994           0
   18755 WT1  5419 TIP3 H1   HT     0.417000        1.0080           0
   18756 WT1  5419 TIP3 H2   HT     0.417000        1.0080           0
   18757 WT1  5420 TIP3 OH2  OT    -0.834000       15.9994           0
   18758 WT1  5420 TIP3 H1   HT     0.417000        1.0080           0
   18759 WT1  5420 TIP3 H2   HT     0.417000        1.0080           0
   18760 WT1  5421 TIP3 OH2  OT    -0.834000       15.9994           0
   18761 WT1  5421 TIP3 H1   HT     0.417000        1.0080           0
   18762 WT1  5421 TIP3 H2   HT     0.417000        1.0080           0
   18763 WT1  5422 TIP3 OH2  OT    -0.834000       15.9994           0
   18764 WT1  5422 TIP3 H1   HT     0.417000        1.0080           0
   18765 WT1  5422 TIP3 H2   HT     0.417000        1.0080           0
   18766 WT1  5423 TIP3 OH2  OT    -0.834000       15.9994           0
   18767 WT1  5423 TIP3 H1   HT     0.417000        1.0080           0
   18768 WT1  5423 TIP3 H2   HT     0.417000        1.0080           0
   18769 WT1  5424 TIP3 OH2  OT    -0.834000       15.9994           0
   18770 WT1  5424 TIP3 H1   HT     0.417000        1.0080           0
   18771 WT1  5424 TIP3 H2   HT     0.417000        1.0080           0
   18772 WT1  5425 TIP3 OH2  OT    -0.834000       15.9994           0
   18773 WT1  5425 TIP3 H1   HT     0.417000        1.0080           0
   18774 WT1  5425 TIP3 H2   HT     0.417000        1.0080           0
   18775 WT1  5426 TIP3 OH2  OT    -0.834000       15.9994           0
   18776 WT1  5426 TIP3 H1   HT     0.417000        1.0080           0
   18777 WT1  5426 TIP3 H2   HT     0.417000        1.0080           0
   18778 WT1  5427 TIP3 OH2  OT    -0.834000       15.9994           0
   18779 WT1  5427 TIP3 H1   HT     0.417000        1.0080           0
   18780 WT1  5427 TIP3 H2   HT     0.417000        1.0080           0
   18781 WT1  5428 TIP3 OH2  OT    -0.834000       15.9994           0
   18782 WT1  5428 TIP3 H1   HT     0.417000        1.0080           0
   18783 WT1  5428 TIP3 H2   HT     0.417000        1.0080           0
   18784 WT1  5429 TIP3 OH2  OT    -0.834000       15.9994           0
   18785 WT1  5429 TIP3 H1   HT     0.417000        1.0080           0
   18786 WT1  5429 TIP3 H2   HT     0.417000        1.0080           0
   18787 WT1  5430 TIP3 OH2  OT    -0.834000       15.9994           0
   18788 WT1  5430 TIP3 H1   HT     0.417000        1.0080           0
   18789 WT1  5430 TIP3 H2   HT     0.417000        1.0080           0
   18790 WT1  5431 TIP3 OH2  OT    -0.834000       15.9994           0
   18791 WT1  5431 TIP3 H1   HT     0.417000        1.0080           0
   18792 WT1  5431 TIP3 H2   HT     0.417000        1.0080           0
   18793 WT1  5432 TIP3 OH2  OT    -0.834000       15.9994           0
   18794 WT1  5432 TIP3 H1   HT     0.417000        1.0080           0
   18795 WT1  5432 TIP3 H2   HT     0.417000        1.0080           0
   18796 WT1  5433 TIP3 OH2  OT    -0.834000       15.9994           0
   18797 WT1  5433 TIP3 H1   HT     0.417000        1.0080           0
   18798 WT1  5433 TIP3 H2   HT     0.417000        1.0080           0
   18799 WT1  5434 TIP3 OH2  OT    -0.834000       15.9994           0
   18800 WT1  5434 TIP3 H1   HT     0.417000        1.0080           0
   18801 WT1  5434 TIP3 H2   HT     0.417000        1.0080           0
   18802 WT1  5435 TIP3 OH2  OT    -0.834000       15.9994           0
   18803 WT1  5435 TIP3 H1   HT     0.417000        1.0080           0
   18804 WT1  5435 TIP3 H2   HT     0.417000        1.0080           0
   18805 WT1  5437 TIP3 OH2  OT    -0.834000       15.9994           0
   18806 WT1  5437 TIP3 H1   HT     0.417000        1.0080           0
   18807 WT1  5437 TIP3 H2   HT     0.417000        1.0080           0
   18808 WT1  5438 TIP3 OH2  OT    -0.834000       15.9994           0
   18809 WT1  5438 TIP3 H1   HT     0.417000        1.0080           0
   18810 WT1  5438 TIP3 H2   HT     0.417000        1.0080           0
   18811 WT1  5440 TIP3 OH2  OT    -0.834000       15.9994           0
   18812 WT1  5440 TIP3 H1   HT     0.417000        1.0080           0
   18813 WT1  5440 TIP3 H2   HT     0.417000        1.0080           0
   18814 WT1  5442 TIP3 OH2  OT    -0.834000       15.9994           0
   18815 WT1  5442 TIP3 H1   HT     0.417000        1.0080           0
   18816 WT1  5442 TIP3 H2   HT     0.417000        1.0080           0
   18817 WT1  5443 TIP3 OH2  OT    -0.834000       15.9994           0
   18818 WT1  5443 TIP3 H1   HT     0.417000        1.0080           0
   18819 WT1  5443 TIP3 H2   HT     0.417000        1.0080           0
   18820 WT1  5444 TIP3 OH2  OT    -0.834000       15.9994           0
   18821 WT1  5444 TIP3 H1   HT     0.417000        1.0080           0
   18822 WT1  5444 TIP3 H2   HT     0.417000        1.0080           0
   18823 WT1  5445 TIP3 OH2  OT    -0.834000       15.9994           0
   18824 WT1  5445 TIP3 H1   HT     0.417000        1.0080           0
   18825 WT1  5445 TIP3 H2   HT     0.417000        1.0080           0
   18826 WT1  5446 TIP3 OH2  OT    -0.834000       15.9994           0
   18827 WT1  5446 TIP3 H1   HT     0.417000        1.0080           0
   18828 WT1  5446 TIP3 H2   HT     0.417000        1.0080           0
   18829 WT1  5447 TIP3 OH2  OT    -0.834000       15.9994           0
   18830 WT1  5447 TIP3 H1   HT     0.417000        1.0080           0
   18831 WT1  5447 TIP3 H2   HT     0.417000        1.0080           0
   18832 WT1  5448 TIP3 OH2  OT    -0.834000       15.9994           0
   18833 WT1  5448 TIP3 H1   HT     0.417000        1.0080           0
   18834 WT1  5448 TIP3 H2   HT     0.417000        1.0080           0
   18835 WT1  5449 TIP3 OH2  OT    -0.834000       15.9994           0
   18836 WT1  5449 TIP3 H1   HT     0.417000        1.0080           0
   18837 WT1  5449 TIP3 H2   HT     0.417000        1.0080           0
   18838 WT1  5450 TIP3 OH2  OT    -0.834000       15.9994           0
   18839 WT1  5450 TIP3 H1   HT     0.417000        1.0080           0
   18840 WT1  5450 TIP3 H2   HT     0.417000        1.0080           0
   18841 WT1  5451 TIP3 OH2  OT    -0.834000       15.9994           0
   18842 WT1  5451 TIP3 H1   HT     0.417000        1.0080           0
   18843 WT1  5451 TIP3 H2   HT     0.417000        1.0080           0
   18844 WT1  5452 TIP3 OH2  OT    -0.834000       15.9994           0
   18845 WT1  5452 TIP3 H1   HT     0.417000        1.0080           0
   18846 WT1  5452 TIP3 H2   HT     0.417000        1.0080           0
   18847 WT1  5453 TIP3 OH2  OT    -0.834000       15.9994           0
   18848 WT1  5453 TIP3 H1   HT     0.417000        1.0080           0
   18849 WT1  5453 TIP3 H2   HT     0.417000        1.0080           0
   18850 WT1  5454 TIP3 OH2  OT    -0.834000       15.9994           0
   18851 WT1  5454 TIP3 H1   HT     0.417000        1.0080           0
   18852 WT1  5454 TIP3 H2   HT     0.417000        1.0080           0
   18853 WT1  5455 TIP3 OH2  OT    -0.834000       15.9994           0
   18854 WT1  5455 TIP3 H1   HT     0.417000        1.0080           0
   18855 WT1  5455 TIP3 H2   HT     0.417000        1.0080           0
   18856 WT1  5456 TIP3 OH2  OT    -0.834000       15.9994           0
   18857 WT1  5456 TIP3 H1   HT     0.417000        1.0080           0
   18858 WT1  5456 TIP3 H2   HT     0.417000        1.0080           0
   18859 WT1  5457 TIP3 OH2  OT    -0.834000       15.9994           0
   18860 WT1  5457 TIP3 H1   HT     0.417000        1.0080           0
   18861 WT1  5457 TIP3 H2   HT     0.417000        1.0080           0
   18862 WT1  5460 TIP3 OH2  OT    -0.834000       15.9994           0
   18863 WT1  5460 TIP3 H1   HT     0.417000        1.0080           0
   18864 WT1  5460 TIP3 H2   HT     0.417000        1.0080           0
   18865 WT1  5461 TIP3 OH2  OT    -0.834000       15.9994           0
   18866 WT1  5461 TIP3 H1   HT     0.417000        1.0080           0
   18867 WT1  5461 TIP3 H2   HT     0.417000        1.0080           0
   18868 WT1  5462 TIP3 OH2  OT    -0.834000       15.9994           0
   18869 WT1  5462 TIP3 H1   HT     0.417000        1.0080           0
   18870 WT1  5462 TIP3 H2   HT     0.417000        1.0080           0
   18871 WT1  5463 TIP3 OH2  OT    -0.834000       15.9994           0
   18872 WT1  5463 TIP3 H1   HT     0.417000        1.0080           0
   18873 WT1  5463 TIP3 H2   HT     0.417000        1.0080           0
   18874 WT1  5464 TIP3 OH2  OT    -0.834000       15.9994           0
   18875 WT1  5464 TIP3 H1   HT     0.417000        1.0080           0
   18876 WT1  5464 TIP3 H2   HT     0.417000        1.0080           0
   18877 WT1  5465 TIP3 OH2  OT    -0.834000       15.9994           0
   18878 WT1  5465 TIP3 H1   HT     0.417000        1.0080           0
   18879 WT1  5465 TIP3 H2   HT     0.417000        1.0080           0
   18880 WT1  5466 TIP3 OH2  OT    -0.834000       15.9994           0
   18881 WT1  5466 TIP3 H1   HT     0.417000        1.0080           0
   18882 WT1  5466 TIP3 H2   HT     0.417000        1.0080           0
   18883 WT1  5467 TIP3 OH2  OT    -0.834000       15.9994           0
   18884 WT1  5467 TIP3 H1   HT     0.417000        1.0080           0
   18885 WT1  5467 TIP3 H2   HT     0.417000        1.0080           0
   18886 WT1  5468 TIP3 OH2  OT    -0.834000       15.9994           0
   18887 WT1  5468 TIP3 H1   HT     0.417000        1.0080           0
   18888 WT1  5468 TIP3 H2   HT     0.417000        1.0080           0
   18889 WT1  5469 TIP3 OH2  OT    -0.834000       15.9994           0
   18890 WT1  5469 TIP3 H1   HT     0.417000        1.0080           0
   18891 WT1  5469 TIP3 H2   HT     0.417000        1.0080           0
   18892 WT1  5470 TIP3 OH2  OT    -0.834000       15.9994           0
   18893 WT1  5470 TIP3 H1   HT     0.417000        1.0080           0
   18894 WT1  5470 TIP3 H2   HT     0.417000        1.0080           0
   18895 WT1  5471 TIP3 OH2  OT    -0.834000       15.9994           0
   18896 WT1  5471 TIP3 H1   HT     0.417000        1.0080           0
   18897 WT1  5471 TIP3 H2   HT     0.417000        1.0080           0
   18898 WT1  5472 TIP3 OH2  OT    -0.834000       15.9994           0
   18899 WT1  5472 TIP3 H1   HT     0.417000        1.0080           0
   18900 WT1  5472 TIP3 H2   HT     0.417000        1.0080           0
   18901 WT1  5473 TIP3 OH2  OT    -0.834000       15.9994           0
   18902 WT1  5473 TIP3 H1   HT     0.417000        1.0080           0
   18903 WT1  5473 TIP3 H2   HT     0.417000        1.0080           0
   18904 WT1  5476 TIP3 OH2  OT    -0.834000       15.9994           0
   18905 WT1  5476 TIP3 H1   HT     0.417000        1.0080           0
   18906 WT1  5476 TIP3 H2   HT     0.417000        1.0080           0
   18907 WT1  5477 TIP3 OH2  OT    -0.834000       15.9994           0
   18908 WT1  5477 TIP3 H1   HT     0.417000        1.0080           0
   18909 WT1  5477 TIP3 H2   HT     0.417000        1.0080           0
   18910 WT1  5479 TIP3 OH2  OT    -0.834000       15.9994           0
   18911 WT1  5479 TIP3 H1   HT     0.417000        1.0080           0
   18912 WT1  5479 TIP3 H2   HT     0.417000        1.0080           0
   18913 WT1  5481 TIP3 OH2  OT    -0.834000       15.9994           0
   18914 WT1  5481 TIP3 H1   HT     0.417000        1.0080           0
   18915 WT1  5481 TIP3 H2   HT     0.417000        1.0080           0
   18916 WT1  5482 TIP3 OH2  OT    -0.834000       15.9994           0
   18917 WT1  5482 TIP3 H1   HT     0.417000        1.0080           0
   18918 WT1  5482 TIP3 H2   HT     0.417000        1.0080           0
   18919 WT1  5483 TIP3 OH2  OT    -0.834000       15.9994           0
   18920 WT1  5483 TIP3 H1   HT     0.417000        1.0080           0
   18921 WT1  5483 TIP3 H2   HT     0.417000        1.0080           0
   18922 WT1  5484 TIP3 OH2  OT    -0.834000       15.9994           0
   18923 WT1  5484 TIP3 H1   HT     0.417000        1.0080           0
   18924 WT1  5484 TIP3 H2   HT     0.417000        1.0080           0
   18925 WT1  5485 TIP3 OH2  OT    -0.834000       15.9994           0
   18926 WT1  5485 TIP3 H1   HT     0.417000        1.0080           0
   18927 WT1  5485 TIP3 H2   HT     0.417000        1.0080           0
   18928 WT1  5486 TIP3 OH2  OT    -0.834000       15.9994           0
   18929 WT1  5486 TIP3 H1   HT     0.417000        1.0080           0
   18930 WT1  5486 TIP3 H2   HT     0.417000        1.0080           0
   18931 WT1  5487 TIP3 OH2  OT    -0.834000       15.9994           0
   18932 WT1  5487 TIP3 H1   HT     0.417000        1.0080           0
   18933 WT1  5487 TIP3 H2   HT     0.417000        1.0080           0
   18934 WT1  5488 TIP3 OH2  OT    -0.834000       15.9994           0
   18935 WT1  5488 TIP3 H1   HT     0.417000        1.0080           0
   18936 WT1  5488 TIP3 H2   HT     0.417000        1.0080           0
   18937 WT1  5489 TIP3 OH2  OT    -0.834000       15.9994           0
   18938 WT1  5489 TIP3 H1   HT     0.417000        1.0080           0
   18939 WT1  5489 TIP3 H2   HT     0.417000        1.0080           0
   18940 WT1  5490 TIP3 OH2  OT    -0.834000       15.9994           0
   18941 WT1  5490 TIP3 H1   HT     0.417000        1.0080           0
   18942 WT1  5490 TIP3 H2   HT     0.417000        1.0080           0
   18943 WT1  5491 TIP3 OH2  OT    -0.834000       15.9994           0
   18944 WT1  5491 TIP3 H1   HT     0.417000        1.0080           0
   18945 WT1  5491 TIP3 H2   HT     0.417000        1.0080           0
   18946 WT1  5492 TIP3 OH2  OT    -0.834000       15.9994           0
   18947 WT1  5492 TIP3 H1   HT     0.417000        1.0080           0
   18948 WT1  5492 TIP3 H2   HT     0.417000        1.0080           0
   18949 WT1  5493 TIP3 OH2  OT    -0.834000       15.9994           0
   18950 WT1  5493 TIP3 H1   HT     0.417000        1.0080           0
   18951 WT1  5493 TIP3 H2   HT     0.417000        1.0080           0
   18952 WT1  5495 TIP3 OH2  OT    -0.834000       15.9994           0
   18953 WT1  5495 TIP3 H1   HT     0.417000        1.0080           0
   18954 WT1  5495 TIP3 H2   HT     0.417000        1.0080           0
   18955 WT1  5496 TIP3 OH2  OT    -0.834000       15.9994           0
   18956 WT1  5496 TIP3 H1   HT     0.417000        1.0080           0
   18957 WT1  5496 TIP3 H2   HT     0.417000        1.0080           0
   18958 WT1  5497 TIP3 OH2  OT    -0.834000       15.9994           0
   18959 WT1  5497 TIP3 H1   HT     0.417000        1.0080           0
   18960 WT1  5497 TIP3 H2   HT     0.417000        1.0080           0
   18961 WT1  5499 TIP3 OH2  OT    -0.834000       15.9994           0
   18962 WT1  5499 TIP3 H1   HT     0.417000        1.0080           0
   18963 WT1  5499 TIP3 H2   HT     0.417000        1.0080           0
   18964 WT1  5500 TIP3 OH2  OT    -0.834000       15.9994           0
   18965 WT1  5500 TIP3 H1   HT     0.417000        1.0080           0
   18966 WT1  5500 TIP3 H2   HT     0.417000        1.0080           0
   18967 WT1  5501 TIP3 OH2  OT    -0.834000       15.9994           0
   18968 WT1  5501 TIP3 H1   HT     0.417000        1.0080           0
   18969 WT1  5501 TIP3 H2   HT     0.417000        1.0080           0
   18970 WT1  5502 TIP3 OH2  OT    -0.834000       15.9994           0
   18971 WT1  5502 TIP3 H1   HT     0.417000        1.0080           0
   18972 WT1  5502 TIP3 H2   HT     0.417000        1.0080           0
   18973 WT1  5503 TIP3 OH2  OT    -0.834000       15.9994           0
   18974 WT1  5503 TIP3 H1   HT     0.417000        1.0080           0
   18975 WT1  5503 TIP3 H2   HT     0.417000        1.0080           0
   18976 WT1  5505 TIP3 OH2  OT    -0.834000       15.9994           0
   18977 WT1  5505 TIP3 H1   HT     0.417000        1.0080           0
   18978 WT1  5505 TIP3 H2   HT     0.417000        1.0080           0
   18979 WT1  5506 TIP3 OH2  OT    -0.834000       15.9994           0
   18980 WT1  5506 TIP3 H1   HT     0.417000        1.0080           0
   18981 WT1  5506 TIP3 H2   HT     0.417000        1.0080           0
   18982 WT1  5507 TIP3 OH2  OT    -0.834000       15.9994           0
   18983 WT1  5507 TIP3 H1   HT     0.417000        1.0080           0
   18984 WT1  5507 TIP3 H2   HT     0.417000        1.0080           0
   18985 WT1  5508 TIP3 OH2  OT    -0.834000       15.9994           0
   18986 WT1  5508 TIP3 H1   HT     0.417000        1.0080           0
   18987 WT1  5508 TIP3 H2   HT     0.417000        1.0080           0
   18988 WT1  5509 TIP3 OH2  OT    -0.834000       15.9994           0
   18989 WT1  5509 TIP3 H1   HT     0.417000        1.0080           0
   18990 WT1  5509 TIP3 H2   HT     0.417000        1.0080           0
   18991 WT1  5510 TIP3 OH2  OT    -0.834000       15.9994           0
   18992 WT1  5510 TIP3 H1   HT     0.417000        1.0080           0
   18993 WT1  5510 TIP3 H2   HT     0.417000        1.0080           0
   18994 WT1  5511 TIP3 OH2  OT    -0.834000       15.9994           0
   18995 WT1  5511 TIP3 H1   HT     0.417000        1.0080           0
   18996 WT1  5511 TIP3 H2   HT     0.417000        1.0080           0
   18997 WT1  5512 TIP3 OH2  OT    -0.834000       15.9994           0
   18998 WT1  5512 TIP3 H1   HT     0.417000        1.0080           0
   18999 WT1  5512 TIP3 H2   HT     0.417000        1.0080           0
   19000 WT1  5513 TIP3 OH2  OT    -0.834000       15.9994           0
   19001 WT1  5513 TIP3 H1   HT     0.417000        1.0080           0
   19002 WT1  5513 TIP3 H2   HT     0.417000        1.0080           0
   19003 WT1  5514 TIP3 OH2  OT    -0.834000       15.9994           0
   19004 WT1  5514 TIP3 H1   HT     0.417000        1.0080           0
   19005 WT1  5514 TIP3 H2   HT     0.417000        1.0080           0
   19006 WT1  5515 TIP3 OH2  OT    -0.834000       15.9994           0
   19007 WT1  5515 TIP3 H1   HT     0.417000        1.0080           0
   19008 WT1  5515 TIP3 H2   HT     0.417000        1.0080           0
   19009 WT1  5516 TIP3 OH2  OT    -0.834000       15.9994           0
   19010 WT1  5516 TIP3 H1   HT     0.417000        1.0080           0
   19011 WT1  5516 TIP3 H2   HT     0.417000        1.0080           0
   19012 WT1  5517 TIP3 OH2  OT    -0.834000       15.9994           0
   19013 WT1  5517 TIP3 H1   HT     0.417000        1.0080           0
   19014 WT1  5517 TIP3 H2   HT     0.417000        1.0080           0
   19015 WT1  5518 TIP3 OH2  OT    -0.834000       15.9994           0
   19016 WT1  5518 TIP3 H1   HT     0.417000        1.0080           0
   19017 WT1  5518 TIP3 H2   HT     0.417000        1.0080           0
   19018 WT1  5520 TIP3 OH2  OT    -0.834000       15.9994           0
   19019 WT1  5520 TIP3 H1   HT     0.417000        1.0080           0
   19020 WT1  5520 TIP3 H2   HT     0.417000        1.0080           0
   19021 WT1  5522 TIP3 OH2  OT    -0.834000       15.9994           0
   19022 WT1  5522 TIP3 H1   HT     0.417000        1.0080           0
   19023 WT1  5522 TIP3 H2   HT     0.417000        1.0080           0
   19024 WT1  5523 TIP3 OH2  OT    -0.834000       15.9994           0
   19025 WT1  5523 TIP3 H1   HT     0.417000        1.0080           0
   19026 WT1  5523 TIP3 H2   HT     0.417000        1.0080           0
   19027 WT1  5524 TIP3 OH2  OT    -0.834000       15.9994           0
   19028 WT1  5524 TIP3 H1   HT     0.417000        1.0080           0
   19029 WT1  5524 TIP3 H2   HT     0.417000        1.0080           0
   19030 WT1  5525 TIP3 OH2  OT    -0.834000       15.9994           0
   19031 WT1  5525 TIP3 H1   HT     0.417000        1.0080           0
   19032 WT1  5525 TIP3 H2   HT     0.417000        1.0080           0
   19033 WT1  5526 TIP3 OH2  OT    -0.834000       15.9994           0
   19034 WT1  5526 TIP3 H1   HT     0.417000        1.0080           0
   19035 WT1  5526 TIP3 H2   HT     0.417000        1.0080           0
   19036 WT1  5527 TIP3 OH2  OT    -0.834000       15.9994           0
   19037 WT1  5527 TIP3 H1   HT     0.417000        1.0080           0
   19038 WT1  5527 TIP3 H2   HT     0.417000        1.0080           0
   19039 WT1  5528 TIP3 OH2  OT    -0.834000       15.9994           0
   19040 WT1  5528 TIP3 H1   HT     0.417000        1.0080           0
   19041 WT1  5528 TIP3 H2   HT     0.417000        1.0080           0
   19042 WT1  5529 TIP3 OH2  OT    -0.834000       15.9994           0
   19043 WT1  5529 TIP3 H1   HT     0.417000        1.0080           0
   19044 WT1  5529 TIP3 H2   HT     0.417000        1.0080           0
   19045 WT1  5530 TIP3 OH2  OT    -0.834000       15.9994           0
   19046 WT1  5530 TIP3 H1   HT     0.417000        1.0080           0
   19047 WT1  5530 TIP3 H2   HT     0.417000        1.0080           0
   19048 WT1  5531 TIP3 OH2  OT    -0.834000       15.9994           0
   19049 WT1  5531 TIP3 H1   HT     0.417000        1.0080           0
   19050 WT1  5531 TIP3 H2   HT     0.417000        1.0080           0
   19051 WT1  5532 TIP3 OH2  OT    -0.834000       15.9994           0
   19052 WT1  5532 TIP3 H1   HT     0.417000        1.0080           0
   19053 WT1  5532 TIP3 H2   HT     0.417000        1.0080           0
   19054 WT1  5533 TIP3 OH2  OT    -0.834000       15.9994           0
   19055 WT1  5533 TIP3 H1   HT     0.417000        1.0080           0
   19056 WT1  5533 TIP3 H2   HT     0.417000        1.0080           0
   19057 WT1  5534 TIP3 OH2  OT    -0.834000       15.9994           0
   19058 WT1  5534 TIP3 H1   HT     0.417000        1.0080           0
   19059 WT1  5534 TIP3 H2   HT     0.417000        1.0080           0
   19060 WT1  5535 TIP3 OH2  OT    -0.834000       15.9994           0
   19061 WT1  5535 TIP3 H1   HT     0.417000        1.0080           0
   19062 WT1  5535 TIP3 H2   HT     0.417000        1.0080           0
   19063 WT1  5536 TIP3 OH2  OT    -0.834000       15.9994           0
   19064 WT1  5536 TIP3 H1   HT     0.417000        1.0080           0
   19065 WT1  5536 TIP3 H2   HT     0.417000        1.0080           0
   19066 WT1  5537 TIP3 OH2  OT    -0.834000       15.9994           0
   19067 WT1  5537 TIP3 H1   HT     0.417000        1.0080           0
   19068 WT1  5537 TIP3 H2   HT     0.417000        1.0080           0
   19069 WT1  5539 TIP3 OH2  OT    -0.834000       15.9994           0
   19070 WT1  5539 TIP3 H1   HT     0.417000        1.0080           0
   19071 WT1  5539 TIP3 H2   HT     0.417000        1.0080           0
   19072 WT1  5540 TIP3 OH2  OT    -0.834000       15.9994           0
   19073 WT1  5540 TIP3 H1   HT     0.417000        1.0080           0
   19074 WT1  5540 TIP3 H2   HT     0.417000        1.0080           0
   19075 WT1  5541 TIP3 OH2  OT    -0.834000       15.9994           0
   19076 WT1  5541 TIP3 H1   HT     0.417000        1.0080           0
   19077 WT1  5541 TIP3 H2   HT     0.417000        1.0080           0
   19078 WT1  5543 TIP3 OH2  OT    -0.834000       15.9994           0
   19079 WT1  5543 TIP3 H1   HT     0.417000        1.0080           0
   19080 WT1  5543 TIP3 H2   HT     0.417000        1.0080           0
   19081 WT1  5544 TIP3 OH2  OT    -0.834000       15.9994           0
   19082 WT1  5544 TIP3 H1   HT     0.417000        1.0080           0
   19083 WT1  5544 TIP3 H2   HT     0.417000        1.0080           0
   19084 WT1  5545 TIP3 OH2  OT    -0.834000       15.9994           0
   19085 WT1  5545 TIP3 H1   HT     0.417000        1.0080           0
   19086 WT1  5545 TIP3 H2   HT     0.417000        1.0080           0
   19087 WT1  5547 TIP3 OH2  OT    -0.834000       15.9994           0
   19088 WT1  5547 TIP3 H1   HT     0.417000        1.0080           0
   19089 WT1  5547 TIP3 H2   HT     0.417000        1.0080           0
   19090 WT1  5548 TIP3 OH2  OT    -0.834000       15.9994           0
   19091 WT1  5548 TIP3 H1   HT     0.417000        1.0080           0
   19092 WT1  5548 TIP3 H2   HT     0.417000        1.0080           0
   19093 WT1  5549 TIP3 OH2  OT    -0.834000       15.9994           0
   19094 WT1  5549 TIP3 H1   HT     0.417000        1.0080           0
   19095 WT1  5549 TIP3 H2   HT     0.417000        1.0080           0
   19096 WT1  5550 TIP3 OH2  OT    -0.834000       15.9994           0
   19097 WT1  5550 TIP3 H1   HT     0.417000        1.0080           0
   19098 WT1  5550 TIP3 H2   HT     0.417000        1.0080           0
   19099 WT1  5551 TIP3 OH2  OT    -0.834000       15.9994           0
   19100 WT1  5551 TIP3 H1   HT     0.417000        1.0080           0
   19101 WT1  5551 TIP3 H2   HT     0.417000        1.0080           0
   19102 WT1  5552 TIP3 OH2  OT    -0.834000       15.9994           0
   19103 WT1  5552 TIP3 H1   HT     0.417000        1.0080           0
   19104 WT1  5552 TIP3 H2   HT     0.417000        1.0080           0
   19105 WT1  5553 TIP3 OH2  OT    -0.834000       15.9994           0
   19106 WT1  5553 TIP3 H1   HT     0.417000        1.0080           0
   19107 WT1  5553 TIP3 H2   HT     0.417000        1.0080           0
   19108 WT1  5554 TIP3 OH2  OT    -0.834000       15.9994           0
   19109 WT1  5554 TIP3 H1   HT     0.417000        1.0080           0
   19110 WT1  5554 TIP3 H2   HT     0.417000        1.0080           0
   19111 WT1  5555 TIP3 OH2  OT    -0.834000       15.9994           0
   19112 WT1  5555 TIP3 H1   HT     0.417000        1.0080           0
   19113 WT1  5555 TIP3 H2   HT     0.417000        1.0080           0
   19114 WT1  5556 TIP3 OH2  OT    -0.834000       15.9994           0
   19115 WT1  5556 TIP3 H1   HT     0.417000        1.0080           0
   19116 WT1  5556 TIP3 H2   HT     0.417000        1.0080           0
   19117 WT1  5557 TIP3 OH2  OT    -0.834000       15.9994           0
   19118 WT1  5557 TIP3 H1   HT     0.417000        1.0080           0
   19119 WT1  5557 TIP3 H2   HT     0.417000        1.0080           0
   19120 WT1  5558 TIP3 OH2  OT    -0.834000       15.9994           0
   19121 WT1  5558 TIP3 H1   HT     0.417000        1.0080           0
   19122 WT1  5558 TIP3 H2   HT     0.417000        1.0080           0
   19123 WT1  5559 TIP3 OH2  OT    -0.834000       15.9994           0
   19124 WT1  5559 TIP3 H1   HT     0.417000        1.0080           0
   19125 WT1  5559 TIP3 H2   HT     0.417000        1.0080           0
   19126 WT1  5560 TIP3 OH2  OT    -0.834000       15.9994           0
   19127 WT1  5560 TIP3 H1   HT     0.417000        1.0080           0
   19128 WT1  5560 TIP3 H2   HT     0.417000        1.0080           0
   19129 WT1  5561 TIP3 OH2  OT    -0.834000       15.9994           0
   19130 WT1  5561 TIP3 H1   HT     0.417000        1.0080           0
   19131 WT1  5561 TIP3 H2   HT     0.417000        1.0080           0
   19132 WT1  5563 TIP3 OH2  OT    -0.834000       15.9994           0
   19133 WT1  5563 TIP3 H1   HT     0.417000        1.0080           0
   19134 WT1  5563 TIP3 H2   HT     0.417000        1.0080           0
   19135 WT1  5564 TIP3 OH2  OT    -0.834000       15.9994           0
   19136 WT1  5564 TIP3 H1   HT     0.417000        1.0080           0
   19137 WT1  5564 TIP3 H2   HT     0.417000        1.0080           0
   19138 WT1  5565 TIP3 OH2  OT    -0.834000       15.9994           0
   19139 WT1  5565 TIP3 H1   HT     0.417000        1.0080           0
   19140 WT1  5565 TIP3 H2   HT     0.417000        1.0080           0
   19141 WT1  5566 TIP3 OH2  OT    -0.834000       15.9994           0
   19142 WT1  5566 TIP3 H1   HT     0.417000        1.0080           0
   19143 WT1  5566 TIP3 H2   HT     0.417000        1.0080           0
   19144 WT1  5567 TIP3 OH2  OT    -0.834000       15.9994           0
   19145 WT1  5567 TIP3 H1   HT     0.417000        1.0080           0
   19146 WT1  5567 TIP3 H2   HT     0.417000        1.0080           0
   19147 WT1  5568 TIP3 OH2  OT    -0.834000       15.9994           0
   19148 WT1  5568 TIP3 H1   HT     0.417000        1.0080           0
   19149 WT1  5568 TIP3 H2   HT     0.417000        1.0080           0
   19150 WT1  5569 TIP3 OH2  OT    -0.834000       15.9994           0
   19151 WT1  5569 TIP3 H1   HT     0.417000        1.0080           0
   19152 WT1  5569 TIP3 H2   HT     0.417000        1.0080           0
   19153 WT1  5570 TIP3 OH2  OT    -0.834000       15.9994           0
   19154 WT1  5570 TIP3 H1   HT     0.417000        1.0080           0
   19155 WT1  5570 TIP3 H2   HT     0.417000        1.0080           0
   19156 WT1  5571 TIP3 OH2  OT    -0.834000       15.9994           0
   19157 WT1  5571 TIP3 H1   HT     0.417000        1.0080           0
   19158 WT1  5571 TIP3 H2   HT     0.417000        1.0080           0
   19159 WT1  5572 TIP3 OH2  OT    -0.834000       15.9994           0
   19160 WT1  5572 TIP3 H1   HT     0.417000        1.0080           0
   19161 WT1  5572 TIP3 H2   HT     0.417000        1.0080           0
   19162 WT1  5573 TIP3 OH2  OT    -0.834000       15.9994           0
   19163 WT1  5573 TIP3 H1   HT     0.417000        1.0080           0
   19164 WT1  5573 TIP3 H2   HT     0.417000        1.0080           0
   19165 WT1  5574 TIP3 OH2  OT    -0.834000       15.9994           0
   19166 WT1  5574 TIP3 H1   HT     0.417000        1.0080           0
   19167 WT1  5574 TIP3 H2   HT     0.417000        1.0080           0
   19168 WT1  5575 TIP3 OH2  OT    -0.834000       15.9994           0
   19169 WT1  5575 TIP3 H1   HT     0.417000        1.0080           0
   19170 WT1  5575 TIP3 H2   HT     0.417000        1.0080           0
   19171 WT1  5577 TIP3 OH2  OT    -0.834000       15.9994           0
   19172 WT1  5577 TIP3 H1   HT     0.417000        1.0080           0
   19173 WT1  5577 TIP3 H2   HT     0.417000        1.0080           0
   19174 WT1  5578 TIP3 OH2  OT    -0.834000       15.9994           0
   19175 WT1  5578 TIP3 H1   HT     0.417000        1.0080           0
   19176 WT1  5578 TIP3 H2   HT     0.417000        1.0080           0
   19177 WT1  5579 TIP3 OH2  OT    -0.834000       15.9994           0
   19178 WT1  5579 TIP3 H1   HT     0.417000        1.0080           0
   19179 WT1  5579 TIP3 H2   HT     0.417000        1.0080           0
   19180 WT1  5582 TIP3 OH2  OT    -0.834000       15.9994           0
   19181 WT1  5582 TIP3 H1   HT     0.417000        1.0080           0
   19182 WT1  5582 TIP3 H2   HT     0.417000        1.0080           0
   19183 WT1  5583 TIP3 OH2  OT    -0.834000       15.9994           0
   19184 WT1  5583 TIP3 H1   HT     0.417000        1.0080           0
   19185 WT1  5583 TIP3 H2   HT     0.417000        1.0080           0
   19186 WT1  5585 TIP3 OH2  OT    -0.834000       15.9994           0
   19187 WT1  5585 TIP3 H1   HT     0.417000        1.0080           0
   19188 WT1  5585 TIP3 H2   HT     0.417000        1.0080           0
   19189 WT1  5586 TIP3 OH2  OT    -0.834000       15.9994           0
   19190 WT1  5586 TIP3 H1   HT     0.417000        1.0080           0
   19191 WT1  5586 TIP3 H2   HT     0.417000        1.0080           0
   19192 WT1  5589 TIP3 OH2  OT    -0.834000       15.9994           0
   19193 WT1  5589 TIP3 H1   HT     0.417000        1.0080           0
   19194 WT1  5589 TIP3 H2   HT     0.417000        1.0080           0
   19195 WT1  5590 TIP3 OH2  OT    -0.834000       15.9994           0
   19196 WT1  5590 TIP3 H1   HT     0.417000        1.0080           0
   19197 WT1  5590 TIP3 H2   HT     0.417000        1.0080           0
   19198 WT1  5591 TIP3 OH2  OT    -0.834000       15.9994           0
   19199 WT1  5591 TIP3 H1   HT     0.417000        1.0080           0
   19200 WT1  5591 TIP3 H2   HT     0.417000        1.0080           0
   19201 WT1  5592 TIP3 OH2  OT    -0.834000       15.9994           0
   19202 WT1  5592 TIP3 H1   HT     0.417000        1.0080           0
   19203 WT1  5592 TIP3 H2   HT     0.417000        1.0080           0
   19204 WT1  5593 TIP3 OH2  OT    -0.834000       15.9994           0
   19205 WT1  5593 TIP3 H1   HT     0.417000        1.0080           0
   19206 WT1  5593 TIP3 H2   HT     0.417000        1.0080           0
   19207 WT1  5594 TIP3 OH2  OT    -0.834000       15.9994           0
   19208 WT1  5594 TIP3 H1   HT     0.417000        1.0080           0
   19209 WT1  5594 TIP3 H2   HT     0.417000        1.0080           0
   19210 WT1  5595 TIP3 OH2  OT    -0.834000       15.9994           0
   19211 WT1  5595 TIP3 H1   HT     0.417000        1.0080           0
   19212 WT1  5595 TIP3 H2   HT     0.417000        1.0080           0
   19213 WT1  5596 TIP3 OH2  OT    -0.834000       15.9994           0
   19214 WT1  5596 TIP3 H1   HT     0.417000        1.0080           0
   19215 WT1  5596 TIP3 H2   HT     0.417000        1.0080           0
   19216 WT1  5597 TIP3 OH2  OT    -0.834000       15.9994           0
   19217 WT1  5597 TIP3 H1   HT     0.417000        1.0080           0
   19218 WT1  5597 TIP3 H2   HT     0.417000        1.0080           0
   19219 WT1  5598 TIP3 OH2  OT    -0.834000       15.9994           0
   19220 WT1  5598 TIP3 H1   HT     0.417000        1.0080           0
   19221 WT1  5598 TIP3 H2   HT     0.417000        1.0080           0
   19222 WT1  5599 TIP3 OH2  OT    -0.834000       15.9994           0
   19223 WT1  5599 TIP3 H1   HT     0.417000        1.0080           0
   19224 WT1  5599 TIP3 H2   HT     0.417000        1.0080           0
   19225 WT1  5600 TIP3 OH2  OT    -0.834000       15.9994           0
   19226 WT1  5600 TIP3 H1   HT     0.417000        1.0080           0
   19227 WT1  5600 TIP3 H2   HT     0.417000        1.0080           0
   19228 WT1  5601 TIP3 OH2  OT    -0.834000       15.9994           0
   19229 WT1  5601 TIP3 H1   HT     0.417000        1.0080           0
   19230 WT1  5601 TIP3 H2   HT     0.417000        1.0080           0
   19231 WT1  5602 TIP3 OH2  OT    -0.834000       15.9994           0
   19232 WT1  5602 TIP3 H1   HT     0.417000        1.0080           0
   19233 WT1  5602 TIP3 H2   HT     0.417000        1.0080           0
   19234 WT1  5603 TIP3 OH2  OT    -0.834000       15.9994           0
   19235 WT1  5603 TIP3 H1   HT     0.417000        1.0080           0
   19236 WT1  5603 TIP3 H2   HT     0.417000        1.0080           0
   19237 WT1  5604 TIP3 OH2  OT    -0.834000       15.9994           0
   19238 WT1  5604 TIP3 H1   HT     0.417000        1.0080           0
   19239 WT1  5604 TIP3 H2   HT     0.417000        1.0080           0
   19240 WT1  5605 TIP3 OH2  OT    -0.834000       15.9994           0
   19241 WT1  5605 TIP3 H1   HT     0.417000        1.0080           0
   19242 WT1  5605 TIP3 H2   HT     0.417000        1.0080           0
   19243 WT1  5606 TIP3 OH2  OT    -0.834000       15.9994           0
   19244 WT1  5606 TIP3 H1   HT     0.417000        1.0080           0
   19245 WT1  5606 TIP3 H2   HT     0.417000        1.0080           0
   19246 WT1  5607 TIP3 OH2  OT    -0.834000       15.9994           0
   19247 WT1  5607 TIP3 H1   HT     0.417000        1.0080           0
   19248 WT1  5607 TIP3 H2   HT     0.417000        1.0080           0
   19249 WT1  5608 TIP3 OH2  OT    -0.834000       15.9994           0
   19250 WT1  5608 TIP3 H1   HT     0.417000        1.0080           0
   19251 WT1  5608 TIP3 H2   HT     0.417000        1.0080           0
   19252 WT1  5609 TIP3 OH2  OT    -0.834000       15.9994           0
   19253 WT1  5609 TIP3 H1   HT     0.417000        1.0080           0
   19254 WT1  5609 TIP3 H2   HT     0.417000        1.0080           0
   19255 WT1  5610 TIP3 OH2  OT    -0.834000       15.9994           0
   19256 WT1  5610 TIP3 H1   HT     0.417000        1.0080           0
   19257 WT1  5610 TIP3 H2   HT     0.417000        1.0080           0
   19258 WT1  5611 TIP3 OH2  OT    -0.834000       15.9994           0
   19259 WT1  5611 TIP3 H1   HT     0.417000        1.0080           0
   19260 WT1  5611 TIP3 H2   HT     0.417000        1.0080           0
   19261 WT1  5612 TIP3 OH2  OT    -0.834000       15.9994           0
   19262 WT1  5612 TIP3 H1   HT     0.417000        1.0080           0
   19263 WT1  5612 TIP3 H2   HT     0.417000        1.0080           0
   19264 WT1  5613 TIP3 OH2  OT    -0.834000       15.9994           0
   19265 WT1  5613 TIP3 H1   HT     0.417000        1.0080           0
   19266 WT1  5613 TIP3 H2   HT     0.417000        1.0080           0
   19267 WT1  5614 TIP3 OH2  OT    -0.834000       15.9994           0
   19268 WT1  5614 TIP3 H1   HT     0.417000        1.0080           0
   19269 WT1  5614 TIP3 H2   HT     0.417000        1.0080           0
   19270 WT1  5615 TIP3 OH2  OT    -0.834000       15.9994           0
   19271 WT1  5615 TIP3 H1   HT     0.417000        1.0080           0
   19272 WT1  5615 TIP3 H2   HT     0.417000        1.0080           0
   19273 WT1  5616 TIP3 OH2  OT    -0.834000       15.9994           0
   19274 WT1  5616 TIP3 H1   HT     0.417000        1.0080           0
   19275 WT1  5616 TIP3 H2   HT     0.417000        1.0080           0
   19276 WT1  5617 TIP3 OH2  OT    -0.834000       15.9994           0
   19277 WT1  5617 TIP3 H1   HT     0.417000        1.0080           0
   19278 WT1  5617 TIP3 H2   HT     0.417000        1.0080           0
   19279 WT1  5618 TIP3 OH2  OT    -0.834000       15.9994           0
   19280 WT1  5618 TIP3 H1   HT     0.417000        1.0080           0
   19281 WT1  5618 TIP3 H2   HT     0.417000        1.0080           0
   19282 WT1  5619 TIP3 OH2  OT    -0.834000       15.9994           0
   19283 WT1  5619 TIP3 H1   HT     0.417000        1.0080           0
   19284 WT1  5619 TIP3 H2   HT     0.417000        1.0080           0
   19285 WT1  5620 TIP3 OH2  OT    -0.834000       15.9994           0
   19286 WT1  5620 TIP3 H1   HT     0.417000        1.0080           0
   19287 WT1  5620 TIP3 H2   HT     0.417000        1.0080           0
   19288 WT1  5621 TIP3 OH2  OT    -0.834000       15.9994           0
   19289 WT1  5621 TIP3 H1   HT     0.417000        1.0080           0
   19290 WT1  5621 TIP3 H2   HT     0.417000        1.0080           0
   19291 WT1  5623 TIP3 OH2  OT    -0.834000       15.9994           0
   19292 WT1  5623 TIP3 H1   HT     0.417000        1.0080           0
   19293 WT1  5623 TIP3 H2   HT     0.417000        1.0080           0
   19294 WT1  5624 TIP3 OH2  OT    -0.834000       15.9994           0
   19295 WT1  5624 TIP3 H1   HT     0.417000        1.0080           0
   19296 WT1  5624 TIP3 H2   HT     0.417000        1.0080           0
   19297 WT1  5625 TIP3 OH2  OT    -0.834000       15.9994           0
   19298 WT1  5625 TIP3 H1   HT     0.417000        1.0080           0
   19299 WT1  5625 TIP3 H2   HT     0.417000        1.0080           0
   19300 WT1  5626 TIP3 OH2  OT    -0.834000       15.9994           0
   19301 WT1  5626 TIP3 H1   HT     0.417000        1.0080           0
   19302 WT1  5626 TIP3 H2   HT     0.417000        1.0080           0
   19303 WT1  5628 TIP3 OH2  OT    -0.834000       15.9994           0
   19304 WT1  5628 TIP3 H1   HT     0.417000        1.0080           0
   19305 WT1  5628 TIP3 H2   HT     0.417000        1.0080           0
   19306 WT1  5630 TIP3 OH2  OT    -0.834000       15.9994           0
   19307 WT1  5630 TIP3 H1   HT     0.417000        1.0080           0
   19308 WT1  5630 TIP3 H2   HT     0.417000        1.0080           0
   19309 WT1  5631 TIP3 OH2  OT    -0.834000       15.9994           0
   19310 WT1  5631 TIP3 H1   HT     0.417000        1.0080           0
   19311 WT1  5631 TIP3 H2   HT     0.417000        1.0080           0
   19312 WT1  5632 TIP3 OH2  OT    -0.834000       15.9994           0
   19313 WT1  5632 TIP3 H1   HT     0.417000        1.0080           0
   19314 WT1  5632 TIP3 H2   HT     0.417000        1.0080           0
   19315 WT1  5633 TIP3 OH2  OT    -0.834000       15.9994           0
   19316 WT1  5633 TIP3 H1   HT     0.417000        1.0080           0
   19317 WT1  5633 TIP3 H2   HT     0.417000        1.0080           0
   19318 WT1  5634 TIP3 OH2  OT    -0.834000       15.9994           0
   19319 WT1  5634 TIP3 H1   HT     0.417000        1.0080           0
   19320 WT1  5634 TIP3 H2   HT     0.417000        1.0080           0
   19321 WT1  5635 TIP3 OH2  OT    -0.834000       15.9994           0
   19322 WT1  5635 TIP3 H1   HT     0.417000        1.0080           0
   19323 WT1  5635 TIP3 H2   HT     0.417000        1.0080           0
   19324 WT1  5636 TIP3 OH2  OT    -0.834000       15.9994           0
   19325 WT1  5636 TIP3 H1   HT     0.417000        1.0080           0
   19326 WT1  5636 TIP3 H2   HT     0.417000        1.0080           0
   19327 WT1  5637 TIP3 OH2  OT    -0.834000       15.9994           0
   19328 WT1  5637 TIP3 H1   HT     0.417000        1.0080           0
   19329 WT1  5637 TIP3 H2   HT     0.417000        1.0080           0
   19330 WT1  5638 TIP3 OH2  OT    -0.834000       15.9994           0
   19331 WT1  5638 TIP3 H1   HT     0.417000        1.0080           0
   19332 WT1  5638 TIP3 H2   HT     0.417000        1.0080           0
   19333 WT1  5639 TIP3 OH2  OT    -0.834000       15.9994           0
   19334 WT1  5639 TIP3 H1   HT     0.417000        1.0080           0
   19335 WT1  5639 TIP3 H2   HT     0.417000        1.0080           0
   19336 WT1  5640 TIP3 OH2  OT    -0.834000       15.9994           0
   19337 WT1  5640 TIP3 H1   HT     0.417000        1.0080           0
   19338 WT1  5640 TIP3 H2   HT     0.417000        1.0080           0
   19339 WT1  5641 TIP3 OH2  OT    -0.834000       15.9994           0
   19340 WT1  5641 TIP3 H1   HT     0.417000        1.0080           0
   19341 WT1  5641 TIP3 H2   HT     0.417000        1.0080           0
   19342 WT1  5643 TIP3 OH2  OT    -0.834000       15.9994           0
   19343 WT1  5643 TIP3 H1   HT     0.417000        1.0080           0
   19344 WT1  5643 TIP3 H2   HT     0.417000        1.0080           0
   19345 WT1  5645 TIP3 OH2  OT    -0.834000       15.9994           0
   19346 WT1  5645 TIP3 H1   HT     0.417000        1.0080           0
   19347 WT1  5645 TIP3 H2   HT     0.417000        1.0080           0
   19348 WT1  5646 TIP3 OH2  OT    -0.834000       15.9994           0
   19349 WT1  5646 TIP3 H1   HT     0.417000        1.0080           0
   19350 WT1  5646 TIP3 H2   HT     0.417000        1.0080           0
   19351 WT1  5647 TIP3 OH2  OT    -0.834000       15.9994           0
   19352 WT1  5647 TIP3 H1   HT     0.417000        1.0080           0
   19353 WT1  5647 TIP3 H2   HT     0.417000        1.0080           0
   19354 WT1  5648 TIP3 OH2  OT    -0.834000       15.9994           0
   19355 WT1  5648 TIP3 H1   HT     0.417000        1.0080           0
   19356 WT1  5648 TIP3 H2   HT     0.417000        1.0080           0
   19357 WT1  5649 TIP3 OH2  OT    -0.834000       15.9994           0
   19358 WT1  5649 TIP3 H1   HT     0.417000        1.0080           0
   19359 WT1  5649 TIP3 H2   HT     0.417000        1.0080           0
   19360 WT1  5650 TIP3 OH2  OT    -0.834000       15.9994           0
   19361 WT1  5650 TIP3 H1   HT     0.417000        1.0080           0
   19362 WT1  5650 TIP3 H2   HT     0.417000        1.0080           0
   19363 WT1  5651 TIP3 OH2  OT    -0.834000       15.9994           0
   19364 WT1  5651 TIP3 H1   HT     0.417000        1.0080           0
   19365 WT1  5651 TIP3 H2   HT     0.417000        1.0080           0
   19366 WT1  5652 TIP3 OH2  OT    -0.834000       15.9994           0
   19367 WT1  5652 TIP3 H1   HT     0.417000        1.0080           0
   19368 WT1  5652 TIP3 H2   HT     0.417000        1.0080           0
   19369 WT1  5653 TIP3 OH2  OT    -0.834000       15.9994           0
   19370 WT1  5653 TIP3 H1   HT     0.417000        1.0080           0
   19371 WT1  5653 TIP3 H2   HT     0.417000        1.0080           0
   19372 WT1  5654 TIP3 OH2  OT    -0.834000       15.9994           0
   19373 WT1  5654 TIP3 H1   HT     0.417000        1.0080           0
   19374 WT1  5654 TIP3 H2   HT     0.417000        1.0080           0
   19375 WT1  5655 TIP3 OH2  OT    -0.834000       15.9994           0
   19376 WT1  5655 TIP3 H1   HT     0.417000        1.0080           0
   19377 WT1  5655 TIP3 H2   HT     0.417000        1.0080           0
   19378 WT1  5656 TIP3 OH2  OT    -0.834000       15.9994           0
   19379 WT1  5656 TIP3 H1   HT     0.417000        1.0080           0
   19380 WT1  5656 TIP3 H2   HT     0.417000        1.0080           0
   19381 WT1  5657 TIP3 OH2  OT    -0.834000       15.9994           0
   19382 WT1  5657 TIP3 H1   HT     0.417000        1.0080           0
   19383 WT1  5657 TIP3 H2   HT     0.417000        1.0080           0
   19384 WT1  5658 TIP3 OH2  OT    -0.834000       15.9994           0
   19385 WT1  5658 TIP3 H1   HT     0.417000        1.0080           0
   19386 WT1  5658 TIP3 H2   HT     0.417000        1.0080           0
   19387 WT1  5659 TIP3 OH2  OT    -0.834000       15.9994           0
   19388 WT1  5659 TIP3 H1   HT     0.417000        1.0080           0
   19389 WT1  5659 TIP3 H2   HT     0.417000        1.0080           0
   19390 WT1  5660 TIP3 OH2  OT    -0.834000       15.9994           0
   19391 WT1  5660 TIP3 H1   HT     0.417000        1.0080           0
   19392 WT1  5660 TIP3 H2   HT     0.417000        1.0080           0
   19393 WT1  5661 TIP3 OH2  OT    -0.834000       15.9994           0
   19394 WT1  5661 TIP3 H1   HT     0.417000        1.0080           0
   19395 WT1  5661 TIP3 H2   HT     0.417000        1.0080           0
   19396 WT1  5662 TIP3 OH2  OT    -0.834000       15.9994           0
   19397 WT1  5662 TIP3 H1   HT     0.417000        1.0080           0
   19398 WT1  5662 TIP3 H2   HT     0.417000        1.0080           0
   19399 WT1  5663 TIP3 OH2  OT    -0.834000       15.9994           0
   19400 WT1  5663 TIP3 H1   HT     0.417000        1.0080           0
   19401 WT1  5663 TIP3 H2   HT     0.417000        1.0080           0
   19402 WT1  5664 TIP3 OH2  OT    -0.834000       15.9994           0
   19403 WT1  5664 TIP3 H1   HT     0.417000        1.0080           0
   19404 WT1  5664 TIP3 H2   HT     0.417000        1.0080           0
   19405 WT1  5665 TIP3 OH2  OT    -0.834000       15.9994           0
   19406 WT1  5665 TIP3 H1   HT     0.417000        1.0080           0
   19407 WT1  5665 TIP3 H2   HT     0.417000        1.0080           0
   19408 WT1  5666 TIP3 OH2  OT    -0.834000       15.9994           0
   19409 WT1  5666 TIP3 H1   HT     0.417000        1.0080           0
   19410 WT1  5666 TIP3 H2   HT     0.417000        1.0080           0
   19411 WT1  5667 TIP3 OH2  OT    -0.834000       15.9994           0
   19412 WT1  5667 TIP3 H1   HT     0.417000        1.0080           0
   19413 WT1  5667 TIP3 H2   HT     0.417000        1.0080           0
   19414 WT1  5668 TIP3 OH2  OT    -0.834000       15.9994           0
   19415 WT1  5668 TIP3 H1   HT     0.417000        1.0080           0
   19416 WT1  5668 TIP3 H2   HT     0.417000        1.0080           0
   19417 WT1  5669 TIP3 OH2  OT    -0.834000       15.9994           0
   19418 WT1  5669 TIP3 H1   HT     0.417000        1.0080           0
   19419 WT1  5669 TIP3 H2   HT     0.417000        1.0080           0
   19420 WT1  5670 TIP3 OH2  OT    -0.834000       15.9994           0
   19421 WT1  5670 TIP3 H1   HT     0.417000        1.0080           0
   19422 WT1  5670 TIP3 H2   HT     0.417000        1.0080           0
   19423 WT1  5671 TIP3 OH2  OT    -0.834000       15.9994           0
   19424 WT1  5671 TIP3 H1   HT     0.417000        1.0080           0
   19425 WT1  5671 TIP3 H2   HT     0.417000        1.0080           0
   19426 WT1  5673 TIP3 OH2  OT    -0.834000       15.9994           0
   19427 WT1  5673 TIP3 H1   HT     0.417000        1.0080           0
   19428 WT1  5673 TIP3 H2   HT     0.417000        1.0080           0
   19429 WT1  5674 TIP3 OH2  OT    -0.834000       15.9994           0
   19430 WT1  5674 TIP3 H1   HT     0.417000        1.0080           0
   19431 WT1  5674 TIP3 H2   HT     0.417000        1.0080           0
   19432 WT1  5675 TIP3 OH2  OT    -0.834000       15.9994           0
   19433 WT1  5675 TIP3 H1   HT     0.417000        1.0080           0
   19434 WT1  5675 TIP3 H2   HT     0.417000        1.0080           0
   19435 WT1  5676 TIP3 OH2  OT    -0.834000       15.9994           0
   19436 WT1  5676 TIP3 H1   HT     0.417000        1.0080           0
   19437 WT1  5676 TIP3 H2   HT     0.417000        1.0080           0
   19438 WT1  5677 TIP3 OH2  OT    -0.834000       15.9994           0
   19439 WT1  5677 TIP3 H1   HT     0.417000        1.0080           0
   19440 WT1  5677 TIP3 H2   HT     0.417000        1.0080           0
   19441 WT1  5678 TIP3 OH2  OT    -0.834000       15.9994           0
   19442 WT1  5678 TIP3 H1   HT     0.417000        1.0080           0
   19443 WT1  5678 TIP3 H2   HT     0.417000        1.0080           0
   19444 WT1  5679 TIP3 OH2  OT    -0.834000       15.9994           0
   19445 WT1  5679 TIP3 H1   HT     0.417000        1.0080           0
   19446 WT1  5679 TIP3 H2   HT     0.417000        1.0080           0
   19447 WT1  5680 TIP3 OH2  OT    -0.834000       15.9994           0
   19448 WT1  5680 TIP3 H1   HT     0.417000        1.0080           0
   19449 WT1  5680 TIP3 H2   HT     0.417000        1.0080           0
   19450 WT1  5681 TIP3 OH2  OT    -0.834000       15.9994           0
   19451 WT1  5681 TIP3 H1   HT     0.417000        1.0080           0
   19452 WT1  5681 TIP3 H2   HT     0.417000        1.0080           0
   19453 WT1  5682 TIP3 OH2  OT    -0.834000       15.9994           0
   19454 WT1  5682 TIP3 H1   HT     0.417000        1.0080           0
   19455 WT1  5682 TIP3 H2   HT     0.417000        1.0080           0
   19456 WT1  5683 TIP3 OH2  OT    -0.834000       15.9994           0
   19457 WT1  5683 TIP3 H1   HT     0.417000        1.0080           0
   19458 WT1  5683 TIP3 H2   HT     0.417000        1.0080           0
   19459 WT1  5684 TIP3 OH2  OT    -0.834000       15.9994           0
   19460 WT1  5684 TIP3 H1   HT     0.417000        1.0080           0
   19461 WT1  5684 TIP3 H2   HT     0.417000        1.0080           0
   19462 WT1  5685 TIP3 OH2  OT    -0.834000       15.9994           0
   19463 WT1  5685 TIP3 H1   HT     0.417000        1.0080           0
   19464 WT1  5685 TIP3 H2   HT     0.417000        1.0080           0
   19465 WT1  5686 TIP3 OH2  OT    -0.834000       15.9994           0
   19466 WT1  5686 TIP3 H1   HT     0.417000        1.0080           0
   19467 WT1  5686 TIP3 H2   HT     0.417000        1.0080           0
   19468 WT1  5687 TIP3 OH2  OT    -0.834000       15.9994           0
   19469 WT1  5687 TIP3 H1   HT     0.417000        1.0080           0
   19470 WT1  5687 TIP3 H2   HT     0.417000        1.0080           0
   19471 WT1  5688 TIP3 OH2  OT    -0.834000       15.9994           0
   19472 WT1  5688 TIP3 H1   HT     0.417000        1.0080           0
   19473 WT1  5688 TIP3 H2   HT     0.417000        1.0080           0
   19474 WT1  5689 TIP3 OH2  OT    -0.834000       15.9994           0
   19475 WT1  5689 TIP3 H1   HT     0.417000        1.0080           0
   19476 WT1  5689 TIP3 H2   HT     0.417000        1.0080           0
   19477 WT1  5690 TIP3 OH2  OT    -0.834000       15.9994           0
   19478 WT1  5690 TIP3 H1   HT     0.417000        1.0080           0
   19479 WT1  5690 TIP3 H2   HT     0.417000        1.0080           0
   19480 WT1  5691 TIP3 OH2  OT    -0.834000       15.9994           0
   19481 WT1  5691 TIP3 H1   HT     0.417000        1.0080           0
   19482 WT1  5691 TIP3 H2   HT     0.417000        1.0080           0
   19483 WT1  5692 TIP3 OH2  OT    -0.834000       15.9994           0
   19484 WT1  5692 TIP3 H1   HT     0.417000        1.0080           0
   19485 WT1  5692 TIP3 H2   HT     0.417000        1.0080           0
   19486 WT1  5693 TIP3 OH2  OT    -0.834000       15.9994           0
   19487 WT1  5693 TIP3 H1   HT     0.417000        1.0080           0
   19488 WT1  5693 TIP3 H2   HT     0.417000        1.0080           0
   19489 WT1  5694 TIP3 OH2  OT    -0.834000       15.9994           0
   19490 WT1  5694 TIP3 H1   HT     0.417000        1.0080           0
   19491 WT1  5694 TIP3 H2   HT     0.417000        1.0080           0
   19492 WT1  5695 TIP3 OH2  OT    -0.834000       15.9994           0
   19493 WT1  5695 TIP3 H1   HT     0.417000        1.0080           0
   19494 WT1  5695 TIP3 H2   HT     0.417000        1.0080           0
   19495 WT1  5696 TIP3 OH2  OT    -0.834000       15.9994           0
   19496 WT1  5696 TIP3 H1   HT     0.417000        1.0080           0
   19497 WT1  5696 TIP3 H2   HT     0.417000        1.0080           0
   19498 WT1  5697 TIP3 OH2  OT    -0.834000       15.9994           0
   19499 WT1  5697 TIP3 H1   HT     0.417000        1.0080           0
   19500 WT1  5697 TIP3 H2   HT     0.417000        1.0080           0
   19501 WT1  5698 TIP3 OH2  OT    -0.834000       15.9994           0
   19502 WT1  5698 TIP3 H1   HT     0.417000        1.0080           0
   19503 WT1  5698 TIP3 H2   HT     0.417000        1.0080           0
   19504 WT1  5699 TIP3 OH2  OT    -0.834000       15.9994           0
   19505 WT1  5699 TIP3 H1   HT     0.417000        1.0080           0
   19506 WT1  5699 TIP3 H2   HT     0.417000        1.0080           0
   19507 WT1  5700 TIP3 OH2  OT    -0.834000       15.9994           0
   19508 WT1  5700 TIP3 H1   HT     0.417000        1.0080           0
   19509 WT1  5700 TIP3 H2   HT     0.417000        1.0080           0
   19510 WT1  5701 TIP3 OH2  OT    -0.834000       15.9994           0
   19511 WT1  5701 TIP3 H1   HT     0.417000        1.0080           0
   19512 WT1  5701 TIP3 H2   HT     0.417000        1.0080           0
   19513 WT1  5702 TIP3 OH2  OT    -0.834000       15.9994           0
   19514 WT1  5702 TIP3 H1   HT     0.417000        1.0080           0
   19515 WT1  5702 TIP3 H2   HT     0.417000        1.0080           0
   19516 WT1  5703 TIP3 OH2  OT    -0.834000       15.9994           0
   19517 WT1  5703 TIP3 H1   HT     0.417000        1.0080           0
   19518 WT1  5703 TIP3 H2   HT     0.417000        1.0080           0
   19519 WT1  5704 TIP3 OH2  OT    -0.834000       15.9994           0
   19520 WT1  5704 TIP3 H1   HT     0.417000        1.0080           0
   19521 WT1  5704 TIP3 H2   HT     0.417000        1.0080           0
   19522 WT1  5705 TIP3 OH2  OT    -0.834000       15.9994           0
   19523 WT1  5705 TIP3 H1   HT     0.417000        1.0080           0
   19524 WT1  5705 TIP3 H2   HT     0.417000        1.0080           0
   19525 WT1  5706 TIP3 OH2  OT    -0.834000       15.9994           0
   19526 WT1  5706 TIP3 H1   HT     0.417000        1.0080           0
   19527 WT1  5706 TIP3 H2   HT     0.417000        1.0080           0
   19528 WT1  5707 TIP3 OH2  OT    -0.834000       15.9994           0
   19529 WT1  5707 TIP3 H1   HT     0.417000        1.0080           0
   19530 WT1  5707 TIP3 H2   HT     0.417000        1.0080           0
   19531 WT1  5708 TIP3 OH2  OT    -0.834000       15.9994           0
   19532 WT1  5708 TIP3 H1   HT     0.417000        1.0080           0
   19533 WT1  5708 TIP3 H2   HT     0.417000        1.0080           0
   19534 WT1  5709 TIP3 OH2  OT    -0.834000       15.9994           0
   19535 WT1  5709 TIP3 H1   HT     0.417000        1.0080           0
   19536 WT1  5709 TIP3 H2   HT     0.417000        1.0080           0
   19537 WT1  5710 TIP3 OH2  OT    -0.834000       15.9994           0
   19538 WT1  5710 TIP3 H1   HT     0.417000        1.0080           0
   19539 WT1  5710 TIP3 H2   HT     0.417000        1.0080           0
   19540 WT1  5711 TIP3 OH2  OT    -0.834000       15.9994           0
   19541 WT1  5711 TIP3 H1   HT     0.417000        1.0080           0
   19542 WT1  5711 TIP3 H2   HT     0.417000        1.0080           0
   19543 WT1  5712 TIP3 OH2  OT    -0.834000       15.9994           0
   19544 WT1  5712 TIP3 H1   HT     0.417000        1.0080           0
   19545 WT1  5712 TIP3 H2   HT     0.417000        1.0080           0
   19546 WT1  5713 TIP3 OH2  OT    -0.834000       15.9994           0
   19547 WT1  5713 TIP3 H1   HT     0.417000        1.0080           0
   19548 WT1  5713 TIP3 H2   HT     0.417000        1.0080           0
   19549 WT1  5714 TIP3 OH2  OT    -0.834000       15.9994           0
   19550 WT1  5714 TIP3 H1   HT     0.417000        1.0080           0
   19551 WT1  5714 TIP3 H2   HT     0.417000        1.0080           0
   19552 WT1  5716 TIP3 OH2  OT    -0.834000       15.9994           0
   19553 WT1  5716 TIP3 H1   HT     0.417000        1.0080           0
   19554 WT1  5716 TIP3 H2   HT     0.417000        1.0080           0
   19555 WT1  5717 TIP3 OH2  OT    -0.834000       15.9994           0
   19556 WT1  5717 TIP3 H1   HT     0.417000        1.0080           0
   19557 WT1  5717 TIP3 H2   HT     0.417000        1.0080           0
   19558 WT1  5718 TIP3 OH2  OT    -0.834000       15.9994           0
   19559 WT1  5718 TIP3 H1   HT     0.417000        1.0080           0
   19560 WT1  5718 TIP3 H2   HT     0.417000        1.0080           0
   19561 WT1  5719 TIP3 OH2  OT    -0.834000       15.9994           0
   19562 WT1  5719 TIP3 H1   HT     0.417000        1.0080           0
   19563 WT1  5719 TIP3 H2   HT     0.417000        1.0080           0
   19564 WT1  5720 TIP3 OH2  OT    -0.834000       15.9994           0
   19565 WT1  5720 TIP3 H1   HT     0.417000        1.0080           0
   19566 WT1  5720 TIP3 H2   HT     0.417000        1.0080           0
   19567 WT1  5721 TIP3 OH2  OT    -0.834000       15.9994           0
   19568 WT1  5721 TIP3 H1   HT     0.417000        1.0080           0
   19569 WT1  5721 TIP3 H2   HT     0.417000        1.0080           0
   19570 WT1  5722 TIP3 OH2  OT    -0.834000       15.9994           0
   19571 WT1  5722 TIP3 H1   HT     0.417000        1.0080           0
   19572 WT1  5722 TIP3 H2   HT     0.417000        1.0080           0
   19573 WT1  5723 TIP3 OH2  OT    -0.834000       15.9994           0
   19574 WT1  5723 TIP3 H1   HT     0.417000        1.0080           0
   19575 WT1  5723 TIP3 H2   HT     0.417000        1.0080           0
   19576 WT1  5724 TIP3 OH2  OT    -0.834000       15.9994           0
   19577 WT1  5724 TIP3 H1   HT     0.417000        1.0080           0
   19578 WT1  5724 TIP3 H2   HT     0.417000        1.0080           0
   19579 WT1  5725 TIP3 OH2  OT    -0.834000       15.9994           0
   19580 WT1  5725 TIP3 H1   HT     0.417000        1.0080           0
   19581 WT1  5725 TIP3 H2   HT     0.417000        1.0080           0
   19582 WT1  5726 TIP3 OH2  OT    -0.834000       15.9994           0
   19583 WT1  5726 TIP3 H1   HT     0.417000        1.0080           0
   19584 WT1  5726 TIP3 H2   HT     0.417000        1.0080           0
   19585 WT1  5727 TIP3 OH2  OT    -0.834000       15.9994           0
   19586 WT1  5727 TIP3 H1   HT     0.417000        1.0080           0
   19587 WT1  5727 TIP3 H2   HT     0.417000        1.0080           0
   19588 WT1  5729 TIP3 OH2  OT    -0.834000       15.9994           0
   19589 WT1  5729 TIP3 H1   HT     0.417000        1.0080           0
   19590 WT1  5729 TIP3 H2   HT     0.417000        1.0080           0
   19591 WT1  5730 TIP3 OH2  OT    -0.834000       15.9994           0
   19592 WT1  5730 TIP3 H1   HT     0.417000        1.0080           0
   19593 WT1  5730 TIP3 H2   HT     0.417000        1.0080           0
   19594 WT1  5731 TIP3 OH2  OT    -0.834000       15.9994           0
   19595 WT1  5731 TIP3 H1   HT     0.417000        1.0080           0
   19596 WT1  5731 TIP3 H2   HT     0.417000        1.0080           0
   19597 WT1  5732 TIP3 OH2  OT    -0.834000       15.9994           0
   19598 WT1  5732 TIP3 H1   HT     0.417000        1.0080           0
   19599 WT1  5732 TIP3 H2   HT     0.417000        1.0080           0
   19600 WT1  5733 TIP3 OH2  OT    -0.834000       15.9994           0
   19601 WT1  5733 TIP3 H1   HT     0.417000        1.0080           0
   19602 WT1  5733 TIP3 H2   HT     0.417000        1.0080           0
   19603 WT1  5734 TIP3 OH2  OT    -0.834000       15.9994           0
   19604 WT1  5734 TIP3 H1   HT     0.417000        1.0080           0
   19605 WT1  5734 TIP3 H2   HT     0.417000        1.0080           0
   19606 WT1  5735 TIP3 OH2  OT    -0.834000       15.9994           0
   19607 WT1  5735 TIP3 H1   HT     0.417000        1.0080           0
   19608 WT1  5735 TIP3 H2   HT     0.417000        1.0080           0
   19609 WT1  5736 TIP3 OH2  OT    -0.834000       15.9994           0
   19610 WT1  5736 TIP3 H1   HT     0.417000        1.0080           0
   19611 WT1  5736 TIP3 H2   HT     0.417000        1.0080           0
   19612 WT1  5737 TIP3 OH2  OT    -0.834000       15.9994           0
   19613 WT1  5737 TIP3 H1   HT     0.417000        1.0080           0
   19614 WT1  5737 TIP3 H2   HT     0.417000        1.0080           0
   19615 WT1  5738 TIP3 OH2  OT    -0.834000       15.9994           0
   19616 WT1  5738 TIP3 H1   HT     0.417000        1.0080           0
   19617 WT1  5738 TIP3 H2   HT     0.417000        1.0080           0
   19618 WT1  5739 TIP3 OH2  OT    -0.834000       15.9994           0
   19619 WT1  5739 TIP3 H1   HT     0.417000        1.0080           0
   19620 WT1  5739 TIP3 H2   HT     0.417000        1.0080           0
   19621 WT1  5740 TIP3 OH2  OT    -0.834000       15.9994           0
   19622 WT1  5740 TIP3 H1   HT     0.417000        1.0080           0
   19623 WT1  5740 TIP3 H2   HT     0.417000        1.0080           0
   19624 WT1  5741 TIP3 OH2  OT    -0.834000       15.9994           0
   19625 WT1  5741 TIP3 H1   HT     0.417000        1.0080           0
   19626 WT1  5741 TIP3 H2   HT     0.417000        1.0080           0
   19627 WT1  5742 TIP3 OH2  OT    -0.834000       15.9994           0
   19628 WT1  5742 TIP3 H1   HT     0.417000        1.0080           0
   19629 WT1  5742 TIP3 H2   HT     0.417000        1.0080           0
   19630 WT1  5743 TIP3 OH2  OT    -0.834000       15.9994           0
   19631 WT1  5743 TIP3 H1   HT     0.417000        1.0080           0
   19632 WT1  5743 TIP3 H2   HT     0.417000        1.0080           0
   19633 WT1  5744 TIP3 OH2  OT    -0.834000       15.9994           0
   19634 WT1  5744 TIP3 H1   HT     0.417000        1.0080           0
   19635 WT1  5744 TIP3 H2   HT     0.417000        1.0080           0
   19636 WT1  5745 TIP3 OH2  OT    -0.834000       15.9994           0
   19637 WT1  5745 TIP3 H1   HT     0.417000        1.0080           0
   19638 WT1  5745 TIP3 H2   HT     0.417000        1.0080           0
   19639 WT1  5746 TIP3 OH2  OT    -0.834000       15.9994           0
   19640 WT1  5746 TIP3 H1   HT     0.417000        1.0080           0
   19641 WT1  5746 TIP3 H2   HT     0.417000        1.0080           0
   19642 WT1  5747 TIP3 OH2  OT    -0.834000       15.9994           0
   19643 WT1  5747 TIP3 H1   HT     0.417000        1.0080           0
   19644 WT1  5747 TIP3 H2   HT     0.417000        1.0080           0
   19645 WT1  5748 TIP3 OH2  OT    -0.834000       15.9994           0
   19646 WT1  5748 TIP3 H1   HT     0.417000        1.0080           0
   19647 WT1  5748 TIP3 H2   HT     0.417000        1.0080           0
   19648 WT1  5750 TIP3 OH2  OT    -0.834000       15.9994           0
   19649 WT1  5750 TIP3 H1   HT     0.417000        1.0080           0
   19650 WT1  5750 TIP3 H2   HT     0.417000        1.0080           0
   19651 WT1  5751 TIP3 OH2  OT    -0.834000       15.9994           0
   19652 WT1  5751 TIP3 H1   HT     0.417000        1.0080           0
   19653 WT1  5751 TIP3 H2   HT     0.417000        1.0080           0
   19654 WT1  5752 TIP3 OH2  OT    -0.834000       15.9994           0
   19655 WT1  5752 TIP3 H1   HT     0.417000        1.0080           0
   19656 WT1  5752 TIP3 H2   HT     0.417000        1.0080           0
   19657 WT1  5753 TIP3 OH2  OT    -0.834000       15.9994           0
   19658 WT1  5753 TIP3 H1   HT     0.417000        1.0080           0
   19659 WT1  5753 TIP3 H2   HT     0.417000        1.0080           0
   19660 WT1  5754 TIP3 OH2  OT    -0.834000       15.9994           0
   19661 WT1  5754 TIP3 H1   HT     0.417000        1.0080           0
   19662 WT1  5754 TIP3 H2   HT     0.417000        1.0080           0
   19663 WT1  5755 TIP3 OH2  OT    -0.834000       15.9994           0
   19664 WT1  5755 TIP3 H1   HT     0.417000        1.0080           0
   19665 WT1  5755 TIP3 H2   HT     0.417000        1.0080           0
   19666 WT1  5756 TIP3 OH2  OT    -0.834000       15.9994           0
   19667 WT1  5756 TIP3 H1   HT     0.417000        1.0080           0
   19668 WT1  5756 TIP3 H2   HT     0.417000        1.0080           0
   19669 WT1  5757 TIP3 OH2  OT    -0.834000       15.9994           0
   19670 WT1  5757 TIP3 H1   HT     0.417000        1.0080           0
   19671 WT1  5757 TIP3 H2   HT     0.417000        1.0080           0
   19672 WT1  5758 TIP3 OH2  OT    -0.834000       15.9994           0
   19673 WT1  5758 TIP3 H1   HT     0.417000        1.0080           0
   19674 WT1  5758 TIP3 H2   HT     0.417000        1.0080           0
   19675 WT1  5759 TIP3 OH2  OT    -0.834000       15.9994           0
   19676 WT1  5759 TIP3 H1   HT     0.417000        1.0080           0
   19677 WT1  5759 TIP3 H2   HT     0.417000        1.0080           0
   19678 WT1  5760 TIP3 OH2  OT    -0.834000       15.9994           0
   19679 WT1  5760 TIP3 H1   HT     0.417000        1.0080           0
   19680 WT1  5760 TIP3 H2   HT     0.417000        1.0080           0
   19681 WT1  5761 TIP3 OH2  OT    -0.834000       15.9994           0
   19682 WT1  5761 TIP3 H1   HT     0.417000        1.0080           0
   19683 WT1  5761 TIP3 H2   HT     0.417000        1.0080           0
   19684 WT1  5762 TIP3 OH2  OT    -0.834000       15.9994           0
   19685 WT1  5762 TIP3 H1   HT     0.417000        1.0080           0
   19686 WT1  5762 TIP3 H2   HT     0.417000        1.0080           0
   19687 WT1  5763 TIP3 OH2  OT    -0.834000       15.9994           0
   19688 WT1  5763 TIP3 H1   HT     0.417000        1.0080           0
   19689 WT1  5763 TIP3 H2   HT     0.417000        1.0080           0
   19690 WT1  5764 TIP3 OH2  OT    -0.834000       15.9994           0
   19691 WT1  5764 TIP3 H1   HT     0.417000        1.0080           0
   19692 WT1  5764 TIP3 H2   HT     0.417000        1.0080           0
   19693 WT1  5765 TIP3 OH2  OT    -0.834000       15.9994           0
   19694 WT1  5765 TIP3 H1   HT     0.417000        1.0080           0
   19695 WT1  5765 TIP3 H2   HT     0.417000        1.0080           0
   19696 WT1  5766 TIP3 OH2  OT    -0.834000       15.9994           0
   19697 WT1  5766 TIP3 H1   HT     0.417000        1.0080           0
   19698 WT1  5766 TIP3 H2   HT     0.417000        1.0080           0
   19699 WT1  5767 TIP3 OH2  OT    -0.834000       15.9994           0
   19700 WT1  5767 TIP3 H1   HT     0.417000        1.0080           0
   19701 WT1  5767 TIP3 H2   HT     0.417000        1.0080           0
   19702 WT1  5768 TIP3 OH2  OT    -0.834000       15.9994           0
   19703 WT1  5768 TIP3 H1   HT     0.417000        1.0080           0
   19704 WT1  5768 TIP3 H2   HT     0.417000        1.0080           0
   19705 WT1  5769 TIP3 OH2  OT    -0.834000       15.9994           0
   19706 WT1  5769 TIP3 H1   HT     0.417000        1.0080           0
   19707 WT1  5769 TIP3 H2   HT     0.417000        1.0080           0
   19708 WT1  5770 TIP3 OH2  OT    -0.834000       15.9994           0
   19709 WT1  5770 TIP3 H1   HT     0.417000        1.0080           0
   19710 WT1  5770 TIP3 H2   HT     0.417000        1.0080           0
   19711 WT1  5771 TIP3 OH2  OT    -0.834000       15.9994           0
   19712 WT1  5771 TIP3 H1   HT     0.417000        1.0080           0
   19713 WT1  5771 TIP3 H2   HT     0.417000        1.0080           0
   19714 WT1  5772 TIP3 OH2  OT    -0.834000       15.9994           0
   19715 WT1  5772 TIP3 H1   HT     0.417000        1.0080           0
   19716 WT1  5772 TIP3 H2   HT     0.417000        1.0080           0
   19717 WT1  5774 TIP3 OH2  OT    -0.834000       15.9994           0
   19718 WT1  5774 TIP3 H1   HT     0.417000        1.0080           0
   19719 WT1  5774 TIP3 H2   HT     0.417000        1.0080           0
   19720 WT1  5775 TIP3 OH2  OT    -0.834000       15.9994           0
   19721 WT1  5775 TIP3 H1   HT     0.417000        1.0080           0
   19722 WT1  5775 TIP3 H2   HT     0.417000        1.0080           0
   19723 WT1  5777 TIP3 OH2  OT    -0.834000       15.9994           0
   19724 WT1  5777 TIP3 H1   HT     0.417000        1.0080           0
   19725 WT1  5777 TIP3 H2   HT     0.417000        1.0080           0
   19726 WT1  5778 TIP3 OH2  OT    -0.834000       15.9994           0
   19727 WT1  5778 TIP3 H1   HT     0.417000        1.0080           0
   19728 WT1  5778 TIP3 H2   HT     0.417000        1.0080           0
   19729 WT1  5779 TIP3 OH2  OT    -0.834000       15.9994           0
   19730 WT1  5779 TIP3 H1   HT     0.417000        1.0080           0
   19731 WT1  5779 TIP3 H2   HT     0.417000        1.0080           0
   19732 WT1  5780 TIP3 OH2  OT    -0.834000       15.9994           0
   19733 WT1  5780 TIP3 H1   HT     0.417000        1.0080           0
   19734 WT1  5780 TIP3 H2   HT     0.417000        1.0080           0
   19735 WT1  5781 TIP3 OH2  OT    -0.834000       15.9994           0
   19736 WT1  5781 TIP3 H1   HT     0.417000        1.0080           0
   19737 WT1  5781 TIP3 H2   HT     0.417000        1.0080           0
   19738 WT1  5782 TIP3 OH2  OT    -0.834000       15.9994           0
   19739 WT1  5782 TIP3 H1   HT     0.417000        1.0080           0
   19740 WT1  5782 TIP3 H2   HT     0.417000        1.0080           0
   19741 WT1  5783 TIP3 OH2  OT    -0.834000       15.9994           0
   19742 WT1  5783 TIP3 H1   HT     0.417000        1.0080           0
   19743 WT1  5783 TIP3 H2   HT     0.417000        1.0080           0
   19744 WT1  5784 TIP3 OH2  OT    -0.834000       15.9994           0
   19745 WT1  5784 TIP3 H1   HT     0.417000        1.0080           0
   19746 WT1  5784 TIP3 H2   HT     0.417000        1.0080           0
   19747 WT1  5785 TIP3 OH2  OT    -0.834000       15.9994           0
   19748 WT1  5785 TIP3 H1   HT     0.417000        1.0080           0
   19749 WT1  5785 TIP3 H2   HT     0.417000        1.0080           0
   19750 WT1  5786 TIP3 OH2  OT    -0.834000       15.9994           0
   19751 WT1  5786 TIP3 H1   HT     0.417000        1.0080           0
   19752 WT1  5786 TIP3 H2   HT     0.417000        1.0080           0
   19753 WT1  5787 TIP3 OH2  OT    -0.834000       15.9994           0
   19754 WT1  5787 TIP3 H1   HT     0.417000        1.0080           0
   19755 WT1  5787 TIP3 H2   HT     0.417000        1.0080           0
   19756 WT1  5788 TIP3 OH2  OT    -0.834000       15.9994           0
   19757 WT1  5788 TIP3 H1   HT     0.417000        1.0080           0
   19758 WT1  5788 TIP3 H2   HT     0.417000        1.0080           0
   19759 WT1  5789 TIP3 OH2  OT    -0.834000       15.9994           0
   19760 WT1  5789 TIP3 H1   HT     0.417000        1.0080           0
   19761 WT1  5789 TIP3 H2   HT     0.417000        1.0080           0
   19762 WT1  5790 TIP3 OH2  OT    -0.834000       15.9994           0
   19763 WT1  5790 TIP3 H1   HT     0.417000        1.0080           0
   19764 WT1  5790 TIP3 H2   HT     0.417000        1.0080           0
   19765 WT1  5791 TIP3 OH2  OT    -0.834000       15.9994           0
   19766 WT1  5791 TIP3 H1   HT     0.417000        1.0080           0
   19767 WT1  5791 TIP3 H2   HT     0.417000        1.0080           0
   19768 WT1  5794 TIP3 OH2  OT    -0.834000       15.9994           0
   19769 WT1  5794 TIP3 H1   HT     0.417000        1.0080           0
   19770 WT1  5794 TIP3 H2   HT     0.417000        1.0080           0
   19771 WT1  5795 TIP3 OH2  OT    -0.834000       15.9994           0
   19772 WT1  5795 TIP3 H1   HT     0.417000        1.0080           0
   19773 WT1  5795 TIP3 H2   HT     0.417000        1.0080           0
   19774 WT1  5796 TIP3 OH2  OT    -0.834000       15.9994           0
   19775 WT1  5796 TIP3 H1   HT     0.417000        1.0080           0
   19776 WT1  5796 TIP3 H2   HT     0.417000        1.0080           0
   19777 WT1  5797 TIP3 OH2  OT    -0.834000       15.9994           0
   19778 WT1  5797 TIP3 H1   HT     0.417000        1.0080           0
   19779 WT1  5797 TIP3 H2   HT     0.417000        1.0080           0
   19780 WT1  5798 TIP3 OH2  OT    -0.834000       15.9994           0
   19781 WT1  5798 TIP3 H1   HT     0.417000        1.0080           0
   19782 WT1  5798 TIP3 H2   HT     0.417000        1.0080           0
   19783 WT1  5800 TIP3 OH2  OT    -0.834000       15.9994           0
   19784 WT1  5800 TIP3 H1   HT     0.417000        1.0080           0
   19785 WT1  5800 TIP3 H2   HT     0.417000        1.0080           0
   19786 WT1  5801 TIP3 OH2  OT    -0.834000       15.9994           0
   19787 WT1  5801 TIP3 H1   HT     0.417000        1.0080           0
   19788 WT1  5801 TIP3 H2   HT     0.417000        1.0080           0
   19789 WT1  5802 TIP3 OH2  OT    -0.834000       15.9994           0
   19790 WT1  5802 TIP3 H1   HT     0.417000        1.0080           0
   19791 WT1  5802 TIP3 H2   HT     0.417000        1.0080           0
   19792 WT1  5803 TIP3 OH2  OT    -0.834000       15.9994           0
   19793 WT1  5803 TIP3 H1   HT     0.417000        1.0080           0
   19794 WT1  5803 TIP3 H2   HT     0.417000        1.0080           0
   19795 WT1  5804 TIP3 OH2  OT    -0.834000       15.9994           0
   19796 WT1  5804 TIP3 H1   HT     0.417000        1.0080           0
   19797 WT1  5804 TIP3 H2   HT     0.417000        1.0080           0
   19798 WT1  5805 TIP3 OH2  OT    -0.834000       15.9994           0
   19799 WT1  5805 TIP3 H1   HT     0.417000        1.0080           0
   19800 WT1  5805 TIP3 H2   HT     0.417000        1.0080           0
   19801 WT1  5806 TIP3 OH2  OT    -0.834000       15.9994           0
   19802 WT1  5806 TIP3 H1   HT     0.417000        1.0080           0
   19803 WT1  5806 TIP3 H2   HT     0.417000        1.0080           0
   19804 WT1  5807 TIP3 OH2  OT    -0.834000       15.9994           0
   19805 WT1  5807 TIP3 H1   HT     0.417000        1.0080           0
   19806 WT1  5807 TIP3 H2   HT     0.417000        1.0080           0
   19807 WT1  5809 TIP3 OH2  OT    -0.834000       15.9994           0
   19808 WT1  5809 TIP3 H1   HT     0.417000        1.0080           0
   19809 WT1  5809 TIP3 H2   HT     0.417000        1.0080           0
   19810 WT1  5810 TIP3 OH2  OT    -0.834000       15.9994           0
   19811 WT1  5810 TIP3 H1   HT     0.417000        1.0080           0
   19812 WT1  5810 TIP3 H2   HT     0.417000        1.0080           0
   19813 WT1  5811 TIP3 OH2  OT    -0.834000       15.9994           0
   19814 WT1  5811 TIP3 H1   HT     0.417000        1.0080           0
   19815 WT1  5811 TIP3 H2   HT     0.417000        1.0080           0
   19816 WT1  5812 TIP3 OH2  OT    -0.834000       15.9994           0
   19817 WT1  5812 TIP3 H1   HT     0.417000        1.0080           0
   19818 WT1  5812 TIP3 H2   HT     0.417000        1.0080           0
   19819 WT1  5813 TIP3 OH2  OT    -0.834000       15.9994           0
   19820 WT1  5813 TIP3 H1   HT     0.417000        1.0080           0
   19821 WT1  5813 TIP3 H2   HT     0.417000        1.0080           0
   19822 WT1  5814 TIP3 OH2  OT    -0.834000       15.9994           0
   19823 WT1  5814 TIP3 H1   HT     0.417000        1.0080           0
   19824 WT1  5814 TIP3 H2   HT     0.417000        1.0080           0
   19825 WT1  5817 TIP3 OH2  OT    -0.834000       15.9994           0
   19826 WT1  5817 TIP3 H1   HT     0.417000        1.0080           0
   19827 WT1  5817 TIP3 H2   HT     0.417000        1.0080           0
   19828 WT1  5818 TIP3 OH2  OT    -0.834000       15.9994           0
   19829 WT1  5818 TIP3 H1   HT     0.417000        1.0080           0
   19830 WT1  5818 TIP3 H2   HT     0.417000        1.0080           0
   19831 WT1  5819 TIP3 OH2  OT    -0.834000       15.9994           0
   19832 WT1  5819 TIP3 H1   HT     0.417000        1.0080           0
   19833 WT1  5819 TIP3 H2   HT     0.417000        1.0080           0
   19834 WT1  5820 TIP3 OH2  OT    -0.834000       15.9994           0
   19835 WT1  5820 TIP3 H1   HT     0.417000        1.0080           0
   19836 WT1  5820 TIP3 H2   HT     0.417000        1.0080           0
   19837 WT1  5821 TIP3 OH2  OT    -0.834000       15.9994           0
   19838 WT1  5821 TIP3 H1   HT     0.417000        1.0080           0
   19839 WT1  5821 TIP3 H2   HT     0.417000        1.0080           0
   19840 WT1  5822 TIP3 OH2  OT    -0.834000       15.9994           0
   19841 WT1  5822 TIP3 H1   HT     0.417000        1.0080           0
   19842 WT1  5822 TIP3 H2   HT     0.417000        1.0080           0
   19843 WT1  5823 TIP3 OH2  OT    -0.834000       15.9994           0
   19844 WT1  5823 TIP3 H1   HT     0.417000        1.0080           0
   19845 WT1  5823 TIP3 H2   HT     0.417000        1.0080           0
   19846 WT1  5824 TIP3 OH2  OT    -0.834000       15.9994           0
   19847 WT1  5824 TIP3 H1   HT     0.417000        1.0080           0
   19848 WT1  5824 TIP3 H2   HT     0.417000        1.0080           0
   19849 WT1  5825 TIP3 OH2  OT    -0.834000       15.9994           0
   19850 WT1  5825 TIP3 H1   HT     0.417000        1.0080           0
   19851 WT1  5825 TIP3 H2   HT     0.417000        1.0080           0
   19852 WT1  5826 TIP3 OH2  OT    -0.834000       15.9994           0
   19853 WT1  5826 TIP3 H1   HT     0.417000        1.0080           0
   19854 WT1  5826 TIP3 H2   HT     0.417000        1.0080           0
   19855 WT1  5827 TIP3 OH2  OT    -0.834000       15.9994           0
   19856 WT1  5827 TIP3 H1   HT     0.417000        1.0080           0
   19857 WT1  5827 TIP3 H2   HT     0.417000        1.0080           0
   19858 WT1  5828 TIP3 OH2  OT    -0.834000       15.9994           0
   19859 WT1  5828 TIP3 H1   HT     0.417000        1.0080           0
   19860 WT1  5828 TIP3 H2   HT     0.417000        1.0080           0
   19861 WT1  5829 TIP3 OH2  OT    -0.834000       15.9994           0
   19862 WT1  5829 TIP3 H1   HT     0.417000        1.0080           0
   19863 WT1  5829 TIP3 H2   HT     0.417000        1.0080           0
   19864 WT1  5830 TIP3 OH2  OT    -0.834000       15.9994           0
   19865 WT1  5830 TIP3 H1   HT     0.417000        1.0080           0
   19866 WT1  5830 TIP3 H2   HT     0.417000        1.0080           0
   19867 WT1  5831 TIP3 OH2  OT    -0.834000       15.9994           0
   19868 WT1  5831 TIP3 H1   HT     0.417000        1.0080           0
   19869 WT1  5831 TIP3 H2   HT     0.417000        1.0080           0
   19870 WT1  5832 TIP3 OH2  OT    -0.834000       15.9994           0
   19871 WT1  5832 TIP3 H1   HT     0.417000        1.0080           0
   19872 WT1  5832 TIP3 H2   HT     0.417000        1.0080           0
   19873 WT1  5834 TIP3 OH2  OT    -0.834000       15.9994           0
   19874 WT1  5834 TIP3 H1   HT     0.417000        1.0080           0
   19875 WT1  5834 TIP3 H2   HT     0.417000        1.0080           0
   19876 WT1  5835 TIP3 OH2  OT    -0.834000       15.9994           0
   19877 WT1  5835 TIP3 H1   HT     0.417000        1.0080           0
   19878 WT1  5835 TIP3 H2   HT     0.417000        1.0080           0
   19879 WT1  5836 TIP3 OH2  OT    -0.834000       15.9994           0
   19880 WT1  5836 TIP3 H1   HT     0.417000        1.0080           0
   19881 WT1  5836 TIP3 H2   HT     0.417000        1.0080           0
   19882 WT1  5837 TIP3 OH2  OT    -0.834000       15.9994           0
   19883 WT1  5837 TIP3 H1   HT     0.417000        1.0080           0
   19884 WT1  5837 TIP3 H2   HT     0.417000        1.0080           0
   19885 WT1  5839 TIP3 OH2  OT    -0.834000       15.9994           0
   19886 WT1  5839 TIP3 H1   HT     0.417000        1.0080           0
   19887 WT1  5839 TIP3 H2   HT     0.417000        1.0080           0
   19888 WT1  5840 TIP3 OH2  OT    -0.834000       15.9994           0
   19889 WT1  5840 TIP3 H1   HT     0.417000        1.0080           0
   19890 WT1  5840 TIP3 H2   HT     0.417000        1.0080           0
   19891 WT1  5841 TIP3 OH2  OT    -0.834000       15.9994           0
   19892 WT1  5841 TIP3 H1   HT     0.417000        1.0080           0
   19893 WT1  5841 TIP3 H2   HT     0.417000        1.0080           0
   19894 WT1  5842 TIP3 OH2  OT    -0.834000       15.9994           0
   19895 WT1  5842 TIP3 H1   HT     0.417000        1.0080           0
   19896 WT1  5842 TIP3 H2   HT     0.417000        1.0080           0
   19897 WT1  5843 TIP3 OH2  OT    -0.834000       15.9994           0
   19898 WT1  5843 TIP3 H1   HT     0.417000        1.0080           0
   19899 WT1  5843 TIP3 H2   HT     0.417000        1.0080           0
   19900 WT1  5844 TIP3 OH2  OT    -0.834000       15.9994           0
   19901 WT1  5844 TIP3 H1   HT     0.417000        1.0080           0
   19902 WT1  5844 TIP3 H2   HT     0.417000        1.0080           0
   19903 WT1  5845 TIP3 OH2  OT    -0.834000       15.9994           0
   19904 WT1  5845 TIP3 H1   HT     0.417000        1.0080           0
   19905 WT1  5845 TIP3 H2   HT     0.417000        1.0080           0
   19906 WT1  5846 TIP3 OH2  OT    -0.834000       15.9994           0
   19907 WT1  5846 TIP3 H1   HT     0.417000        1.0080           0
   19908 WT1  5846 TIP3 H2   HT     0.417000        1.0080           0
   19909 WT1  5847 TIP3 OH2  OT    -0.834000       15.9994           0
   19910 WT1  5847 TIP3 H1   HT     0.417000        1.0080           0
   19911 WT1  5847 TIP3 H2   HT     0.417000        1.0080           0
   19912 WT1  5848 TIP3 OH2  OT    -0.834000       15.9994           0
   19913 WT1  5848 TIP3 H1   HT     0.417000        1.0080           0
   19914 WT1  5848 TIP3 H2   HT     0.417000        1.0080           0
   19915 WT1  5849 TIP3 OH2  OT    -0.834000       15.9994           0
   19916 WT1  5849 TIP3 H1   HT     0.417000        1.0080           0
   19917 WT1  5849 TIP3 H2   HT     0.417000        1.0080           0
   19918 WT1  5850 TIP3 OH2  OT    -0.834000       15.9994           0
   19919 WT1  5850 TIP3 H1   HT     0.417000        1.0080           0
   19920 WT1  5850 TIP3 H2   HT     0.417000        1.0080           0
   19921 WT1  5855 TIP3 OH2  OT    -0.834000       15.9994           0
   19922 WT1  5855 TIP3 H1   HT     0.417000        1.0080           0
   19923 WT1  5855 TIP3 H2   HT     0.417000        1.0080           0
   19924 WT1  5858 TIP3 OH2  OT    -0.834000       15.9994           0
   19925 WT1  5858 TIP3 H1   HT     0.417000        1.0080           0
   19926 WT1  5858 TIP3 H2   HT     0.417000        1.0080           0
   19927 WT1  5859 TIP3 OH2  OT    -0.834000       15.9994           0
   19928 WT1  5859 TIP3 H1   HT     0.417000        1.0080           0
   19929 WT1  5859 TIP3 H2   HT     0.417000        1.0080           0
   19930 WT1  5860 TIP3 OH2  OT    -0.834000       15.9994           0
   19931 WT1  5860 TIP3 H1   HT     0.417000        1.0080           0
   19932 WT1  5860 TIP3 H2   HT     0.417000        1.0080           0
   19933 WT1  5861 TIP3 OH2  OT    -0.834000       15.9994           0
   19934 WT1  5861 TIP3 H1   HT     0.417000        1.0080           0
   19935 WT1  5861 TIP3 H2   HT     0.417000        1.0080           0
   19936 WT1  5862 TIP3 OH2  OT    -0.834000       15.9994           0
   19937 WT1  5862 TIP3 H1   HT     0.417000        1.0080           0
   19938 WT1  5862 TIP3 H2   HT     0.417000        1.0080           0
   19939 WT1  5863 TIP3 OH2  OT    -0.834000       15.9994           0
   19940 WT1  5863 TIP3 H1   HT     0.417000        1.0080           0
   19941 WT1  5863 TIP3 H2   HT     0.417000        1.0080           0
   19942 WT1  5864 TIP3 OH2  OT    -0.834000       15.9994           0
   19943 WT1  5864 TIP3 H1   HT     0.417000        1.0080           0
   19944 WT1  5864 TIP3 H2   HT     0.417000        1.0080           0
   19945 WT1  5865 TIP3 OH2  OT    -0.834000       15.9994           0
   19946 WT1  5865 TIP3 H1   HT     0.417000        1.0080           0
   19947 WT1  5865 TIP3 H2   HT     0.417000        1.0080           0
   19948 WT1  5866 TIP3 OH2  OT    -0.834000       15.9994           0
   19949 WT1  5866 TIP3 H1   HT     0.417000        1.0080           0
   19950 WT1  5866 TIP3 H2   HT     0.417000        1.0080           0
   19951 WT1  5867 TIP3 OH2  OT    -0.834000       15.9994           0
   19952 WT1  5867 TIP3 H1   HT     0.417000        1.0080           0
   19953 WT1  5867 TIP3 H2   HT     0.417000        1.0080           0
   19954 WT1  5868 TIP3 OH2  OT    -0.834000       15.9994           0
   19955 WT1  5868 TIP3 H1   HT     0.417000        1.0080           0
   19956 WT1  5868 TIP3 H2   HT     0.417000        1.0080           0
   19957 WT1  5869 TIP3 OH2  OT    -0.834000       15.9994           0
   19958 WT1  5869 TIP3 H1   HT     0.417000        1.0080           0
   19959 WT1  5869 TIP3 H2   HT     0.417000        1.0080           0
   19960 WT1  5870 TIP3 OH2  OT    -0.834000       15.9994           0
   19961 WT1  5870 TIP3 H1   HT     0.417000        1.0080           0
   19962 WT1  5870 TIP3 H2   HT     0.417000        1.0080           0
   19963 WT1  5871 TIP3 OH2  OT    -0.834000       15.9994           0
   19964 WT1  5871 TIP3 H1   HT     0.417000        1.0080           0
   19965 WT1  5871 TIP3 H2   HT     0.417000        1.0080           0
   19966 WT1  5872 TIP3 OH2  OT    -0.834000       15.9994           0
   19967 WT1  5872 TIP3 H1   HT     0.417000        1.0080           0
   19968 WT1  5872 TIP3 H2   HT     0.417000        1.0080           0
   19969 WT1  5873 TIP3 OH2  OT    -0.834000       15.9994           0
   19970 WT1  5873 TIP3 H1   HT     0.417000        1.0080           0
   19971 WT1  5873 TIP3 H2   HT     0.417000        1.0080           0
   19972 WT1  5874 TIP3 OH2  OT    -0.834000       15.9994           0
   19973 WT1  5874 TIP3 H1   HT     0.417000        1.0080           0
   19974 WT1  5874 TIP3 H2   HT     0.417000        1.0080           0
   19975 WT1  5877 TIP3 OH2  OT    -0.834000       15.9994           0
   19976 WT1  5877 TIP3 H1   HT     0.417000        1.0080           0
   19977 WT1  5877 TIP3 H2   HT     0.417000        1.0080           0
   19978 WT1  5878 TIP3 OH2  OT    -0.834000       15.9994           0
   19979 WT1  5878 TIP3 H1   HT     0.417000        1.0080           0
   19980 WT1  5878 TIP3 H2   HT     0.417000        1.0080           0
   19981 WT1  5881 TIP3 OH2  OT    -0.834000       15.9994           0
   19982 WT1  5881 TIP3 H1   HT     0.417000        1.0080           0
   19983 WT1  5881 TIP3 H2   HT     0.417000        1.0080           0
   19984 WT1  5882 TIP3 OH2  OT    -0.834000       15.9994           0
   19985 WT1  5882 TIP3 H1   HT     0.417000        1.0080           0
   19986 WT1  5882 TIP3 H2   HT     0.417000        1.0080           0
   19987 WT1  5883 TIP3 OH2  OT    -0.834000       15.9994           0
   19988 WT1  5883 TIP3 H1   HT     0.417000        1.0080           0
   19989 WT1  5883 TIP3 H2   HT     0.417000        1.0080           0
   19990 WT1  5884 TIP3 OH2  OT    -0.834000       15.9994           0
   19991 WT1  5884 TIP3 H1   HT     0.417000        1.0080           0
   19992 WT1  5884 TIP3 H2   HT     0.417000        1.0080           0
   19993 WT1  5885 TIP3 OH2  OT    -0.834000       15.9994           0
   19994 WT1  5885 TIP3 H1   HT     0.417000        1.0080           0
   19995 WT1  5885 TIP3 H2   HT     0.417000        1.0080           0
   19996 WT1  5886 TIP3 OH2  OT    -0.834000       15.9994           0
   19997 WT1  5886 TIP3 H1   HT     0.417000        1.0080           0
   19998 WT1  5886 TIP3 H2   HT     0.417000        1.0080           0
   19999 WT1  5887 TIP3 OH2  OT    -0.834000       15.9994           0
   20000 WT1  5887 TIP3 H1   HT     0.417000        1.0080           0
   20001 WT1  5887 TIP3 H2   HT     0.417000        1.0080           0
   20002 WT1  5888 TIP3 OH2  OT    -0.834000       15.9994           0
   20003 WT1  5888 TIP3 H1   HT     0.417000        1.0080           0
   20004 WT1  5888 TIP3 H2   HT     0.417000        1.0080           0
   20005 WT1  5889 TIP3 OH2  OT    -0.834000       15.9994           0
   20006 WT1  5889 TIP3 H1   HT     0.417000        1.0080           0
   20007 WT1  5889 TIP3 H2   HT     0.417000        1.0080           0
   20008 WT1  5890 TIP3 OH2  OT    -0.834000       15.9994           0
   20009 WT1  5890 TIP3 H1   HT     0.417000        1.0080           0
   20010 WT1  5890 TIP3 H2   HT     0.417000        1.0080           0
   20011 WT1  5891 TIP3 OH2  OT    -0.834000       15.9994           0
   20012 WT1  5891 TIP3 H1   HT     0.417000        1.0080           0
   20013 WT1  5891 TIP3 H2   HT     0.417000        1.0080           0
   20014 WT1  5892 TIP3 OH2  OT    -0.834000       15.9994           0
   20015 WT1  5892 TIP3 H1   HT     0.417000        1.0080           0
   20016 WT1  5892 TIP3 H2   HT     0.417000        1.0080           0
   20017 WT1  5893 TIP3 OH2  OT    -0.834000       15.9994           0
   20018 WT1  5893 TIP3 H1   HT     0.417000        1.0080           0
   20019 WT1  5893 TIP3 H2   HT     0.417000        1.0080           0
   20020 WT1  5894 TIP3 OH2  OT    -0.834000       15.9994           0
   20021 WT1  5894 TIP3 H1   HT     0.417000        1.0080           0
   20022 WT1  5894 TIP3 H2   HT     0.417000        1.0080           0
   20023 WT1  5895 TIP3 OH2  OT    -0.834000       15.9994           0
   20024 WT1  5895 TIP3 H1   HT     0.417000        1.0080           0
   20025 WT1  5895 TIP3 H2   HT     0.417000        1.0080           0
   20026 WT1  5896 TIP3 OH2  OT    -0.834000       15.9994           0
   20027 WT1  5896 TIP3 H1   HT     0.417000        1.0080           0
   20028 WT1  5896 TIP3 H2   HT     0.417000        1.0080           0
   20029 WT1  5897 TIP3 OH2  OT    -0.834000       15.9994           0
   20030 WT1  5897 TIP3 H1   HT     0.417000        1.0080           0
   20031 WT1  5897 TIP3 H2   HT     0.417000        1.0080           0
   20032 WT1  5899 TIP3 OH2  OT    -0.834000       15.9994           0
   20033 WT1  5899 TIP3 H1   HT     0.417000        1.0080           0
   20034 WT1  5899 TIP3 H2   HT     0.417000        1.0080           0
   20035 WT1  5901 TIP3 OH2  OT    -0.834000       15.9994           0
   20036 WT1  5901 TIP3 H1   HT     0.417000        1.0080           0
   20037 WT1  5901 TIP3 H2   HT     0.417000        1.0080           0
   20038 WT1  5902 TIP3 OH2  OT    -0.834000       15.9994           0
   20039 WT1  5902 TIP3 H1   HT     0.417000        1.0080           0
   20040 WT1  5902 TIP3 H2   HT     0.417000        1.0080           0
   20041 WT1  5903 TIP3 OH2  OT    -0.834000       15.9994           0
   20042 WT1  5903 TIP3 H1   HT     0.417000        1.0080           0
   20043 WT1  5903 TIP3 H2   HT     0.417000        1.0080           0
   20044 WT1  5904 TIP3 OH2  OT    -0.834000       15.9994           0
   20045 WT1  5904 TIP3 H1   HT     0.417000        1.0080           0
   20046 WT1  5904 TIP3 H2   HT     0.417000        1.0080           0
   20047 WT1  5906 TIP3 OH2  OT    -0.834000       15.9994           0
   20048 WT1  5906 TIP3 H1   HT     0.417000        1.0080           0
   20049 WT1  5906 TIP3 H2   HT     0.417000        1.0080           0
   20050 WT1  5907 TIP3 OH2  OT    -0.834000       15.9994           0
   20051 WT1  5907 TIP3 H1   HT     0.417000        1.0080           0
   20052 WT1  5907 TIP3 H2   HT     0.417000        1.0080           0
   20053 WT1  5908 TIP3 OH2  OT    -0.834000       15.9994           0
   20054 WT1  5908 TIP3 H1   HT     0.417000        1.0080           0
   20055 WT1  5908 TIP3 H2   HT     0.417000        1.0080           0
   20056 WT1  5909 TIP3 OH2  OT    -0.834000       15.9994           0
   20057 WT1  5909 TIP3 H1   HT     0.417000        1.0080           0
   20058 WT1  5909 TIP3 H2   HT     0.417000        1.0080           0
   20059 WT1  5910 TIP3 OH2  OT    -0.834000       15.9994           0
   20060 WT1  5910 TIP3 H1   HT     0.417000        1.0080           0
   20061 WT1  5910 TIP3 H2   HT     0.417000        1.0080           0
   20062 WT1  5911 TIP3 OH2  OT    -0.834000       15.9994           0
   20063 WT1  5911 TIP3 H1   HT     0.417000        1.0080           0
   20064 WT1  5911 TIP3 H2   HT     0.417000        1.0080           0
   20065 WT1  5912 TIP3 OH2  OT    -0.834000       15.9994           0
   20066 WT1  5912 TIP3 H1   HT     0.417000        1.0080           0
   20067 WT1  5912 TIP3 H2   HT     0.417000        1.0080           0
   20068 WT1  5913 TIP3 OH2  OT    -0.834000       15.9994           0
   20069 WT1  5913 TIP3 H1   HT     0.417000        1.0080           0
   20070 WT1  5913 TIP3 H2   HT     0.417000        1.0080           0
   20071 WT1  5914 TIP3 OH2  OT    -0.834000       15.9994           0
   20072 WT1  5914 TIP3 H1   HT     0.417000        1.0080           0
   20073 WT1  5914 TIP3 H2   HT     0.417000        1.0080           0
   20074 WT1  5915 TIP3 OH2  OT    -0.834000       15.9994           0
   20075 WT1  5915 TIP3 H1   HT     0.417000        1.0080           0
   20076 WT1  5915 TIP3 H2   HT     0.417000        1.0080           0
   20077 WT1  5916 TIP3 OH2  OT    -0.834000       15.9994           0
   20078 WT1  5916 TIP3 H1   HT     0.417000        1.0080           0
   20079 WT1  5916 TIP3 H2   HT     0.417000        1.0080           0
   20080 WT1  5918 TIP3 OH2  OT    -0.834000       15.9994           0
   20081 WT1  5918 TIP3 H1   HT     0.417000        1.0080           0
   20082 WT1  5918 TIP3 H2   HT     0.417000        1.0080           0
   20083 WT1  5919 TIP3 OH2  OT    -0.834000       15.9994           0
   20084 WT1  5919 TIP3 H1   HT     0.417000        1.0080           0
   20085 WT1  5919 TIP3 H2   HT     0.417000        1.0080           0
   20086 WT1  5920 TIP3 OH2  OT    -0.834000       15.9994           0
   20087 WT1  5920 TIP3 H1   HT     0.417000        1.0080           0
   20088 WT1  5920 TIP3 H2   HT     0.417000        1.0080           0
   20089 WT1  5923 TIP3 OH2  OT    -0.834000       15.9994           0
   20090 WT1  5923 TIP3 H1   HT     0.417000        1.0080           0
   20091 WT1  5923 TIP3 H2   HT     0.417000        1.0080           0
   20092 WT1  5924 TIP3 OH2  OT    -0.834000       15.9994           0
   20093 WT1  5924 TIP3 H1   HT     0.417000        1.0080           0
   20094 WT1  5924 TIP3 H2   HT     0.417000        1.0080           0
   20095 WT1  5925 TIP3 OH2  OT    -0.834000       15.9994           0
   20096 WT1  5925 TIP3 H1   HT     0.417000        1.0080           0
   20097 WT1  5925 TIP3 H2   HT     0.417000        1.0080           0
   20098 WT1  5926 TIP3 OH2  OT    -0.834000       15.9994           0
   20099 WT1  5926 TIP3 H1   HT     0.417000        1.0080           0
   20100 WT1  5926 TIP3 H2   HT     0.417000        1.0080           0
   20101 WT1  5927 TIP3 OH2  OT    -0.834000       15.9994           0
   20102 WT1  5927 TIP3 H1   HT     0.417000        1.0080           0
   20103 WT1  5927 TIP3 H2   HT     0.417000        1.0080           0
   20104 WT1  5928 TIP3 OH2  OT    -0.834000       15.9994           0
   20105 WT1  5928 TIP3 H1   HT     0.417000        1.0080           0
   20106 WT1  5928 TIP3 H2   HT     0.417000        1.0080           0
   20107 WT1  5929 TIP3 OH2  OT    -0.834000       15.9994           0
   20108 WT1  5929 TIP3 H1   HT     0.417000        1.0080           0
   20109 WT1  5929 TIP3 H2   HT     0.417000        1.0080           0
   20110 WT1  5930 TIP3 OH2  OT    -0.834000       15.9994           0
   20111 WT1  5930 TIP3 H1   HT     0.417000        1.0080           0
   20112 WT1  5930 TIP3 H2   HT     0.417000        1.0080           0
   20113 WT1  5931 TIP3 OH2  OT    -0.834000       15.9994           0
   20114 WT1  5931 TIP3 H1   HT     0.417000        1.0080           0
   20115 WT1  5931 TIP3 H2   HT     0.417000        1.0080           0
   20116 WT1  5932 TIP3 OH2  OT    -0.834000       15.9994           0
   20117 WT1  5932 TIP3 H1   HT     0.417000        1.0080           0
   20118 WT1  5932 TIP3 H2   HT     0.417000        1.0080           0
   20119 WT1  5933 TIP3 OH2  OT    -0.834000       15.9994           0
   20120 WT1  5933 TIP3 H1   HT     0.417000        1.0080           0
   20121 WT1  5933 TIP3 H2   HT     0.417000        1.0080           0
   20122 WT1  5934 TIP3 OH2  OT    -0.834000       15.9994           0
   20123 WT1  5934 TIP3 H1   HT     0.417000        1.0080           0
   20124 WT1  5934 TIP3 H2   HT     0.417000        1.0080           0
   20125 WT1  5935 TIP3 OH2  OT    -0.834000       15.9994           0
   20126 WT1  5935 TIP3 H1   HT     0.417000        1.0080           0
   20127 WT1  5935 TIP3 H2   HT     0.417000        1.0080           0
   20128 WT1  5936 TIP3 OH2  OT    -0.834000       15.9994           0
   20129 WT1  5936 TIP3 H1   HT     0.417000        1.0080           0
   20130 WT1  5936 TIP3 H2   HT     0.417000        1.0080           0
   20131 WT1  5937 TIP3 OH2  OT    -0.834000       15.9994           0
   20132 WT1  5937 TIP3 H1   HT     0.417000        1.0080           0
   20133 WT1  5937 TIP3 H2   HT     0.417000        1.0080           0
   20134 WT1  5938 TIP3 OH2  OT    -0.834000       15.9994           0
   20135 WT1  5938 TIP3 H1   HT     0.417000        1.0080           0
   20136 WT1  5938 TIP3 H2   HT     0.417000        1.0080           0
   20137 WT1  5941 TIP3 OH2  OT    -0.834000       15.9994           0
   20138 WT1  5941 TIP3 H1   HT     0.417000        1.0080           0
   20139 WT1  5941 TIP3 H2   HT     0.417000        1.0080           0
   20140 WT1  5943 TIP3 OH2  OT    -0.834000       15.9994           0
   20141 WT1  5943 TIP3 H1   HT     0.417000        1.0080           0
   20142 WT1  5943 TIP3 H2   HT     0.417000        1.0080           0
   20143 WT1  5944 TIP3 OH2  OT    -0.834000       15.9994           0
   20144 WT1  5944 TIP3 H1   HT     0.417000        1.0080           0
   20145 WT1  5944 TIP3 H2   HT     0.417000        1.0080           0
   20146 WT1  5945 TIP3 OH2  OT    -0.834000       15.9994           0
   20147 WT1  5945 TIP3 H1   HT     0.417000        1.0080           0
   20148 WT1  5945 TIP3 H2   HT     0.417000        1.0080           0
   20149 WT1  5946 TIP3 OH2  OT    -0.834000       15.9994           0
   20150 WT1  5946 TIP3 H1   HT     0.417000        1.0080           0
   20151 WT1  5946 TIP3 H2   HT     0.417000        1.0080           0
   20152 WT1  5947 TIP3 OH2  OT    -0.834000       15.9994           0
   20153 WT1  5947 TIP3 H1   HT     0.417000        1.0080           0
   20154 WT1  5947 TIP3 H2   HT     0.417000        1.0080           0
   20155 WT1  5948 TIP3 OH2  OT    -0.834000       15.9994           0
   20156 WT1  5948 TIP3 H1   HT     0.417000        1.0080           0
   20157 WT1  5948 TIP3 H2   HT     0.417000        1.0080           0
   20158 WT1  5949 TIP3 OH2  OT    -0.834000       15.9994           0
   20159 WT1  5949 TIP3 H1   HT     0.417000        1.0080           0
   20160 WT1  5949 TIP3 H2   HT     0.417000        1.0080           0
   20161 WT1  5950 TIP3 OH2  OT    -0.834000       15.9994           0
   20162 WT1  5950 TIP3 H1   HT     0.417000        1.0080           0
   20163 WT1  5950 TIP3 H2   HT     0.417000        1.0080           0
   20164 WT1  5951 TIP3 OH2  OT    -0.834000       15.9994           0
   20165 WT1  5951 TIP3 H1   HT     0.417000        1.0080           0
   20166 WT1  5951 TIP3 H2   HT     0.417000        1.0080           0
   20167 WT1  5952 TIP3 OH2  OT    -0.834000       15.9994           0
   20168 WT1  5952 TIP3 H1   HT     0.417000        1.0080           0
   20169 WT1  5952 TIP3 H2   HT     0.417000        1.0080           0
   20170 WT1  5953 TIP3 OH2  OT    -0.834000       15.9994           0
   20171 WT1  5953 TIP3 H1   HT     0.417000        1.0080           0
   20172 WT1  5953 TIP3 H2   HT     0.417000        1.0080           0
   20173 WT1  5954 TIP3 OH2  OT    -0.834000       15.9994           0
   20174 WT1  5954 TIP3 H1   HT     0.417000        1.0080           0
   20175 WT1  5954 TIP3 H2   HT     0.417000        1.0080           0
   20176 WT1  5955 TIP3 OH2  OT    -0.834000       15.9994           0
   20177 WT1  5955 TIP3 H1   HT     0.417000        1.0080           0
   20178 WT1  5955 TIP3 H2   HT     0.417000        1.0080           0
   20179 WT1  5956 TIP3 OH2  OT    -0.834000       15.9994           0
   20180 WT1  5956 TIP3 H1   HT     0.417000        1.0080           0
   20181 WT1  5956 TIP3 H2   HT     0.417000        1.0080           0
   20182 WT1  5957 TIP3 OH2  OT    -0.834000       15.9994           0
   20183 WT1  5957 TIP3 H1   HT     0.417000        1.0080           0
   20184 WT1  5957 TIP3 H2   HT     0.417000        1.0080           0
   20185 WT1  5958 TIP3 OH2  OT    -0.834000       15.9994           0
   20186 WT1  5958 TIP3 H1   HT     0.417000        1.0080           0
   20187 WT1  5958 TIP3 H2   HT     0.417000        1.0080           0
   20188 WT1  5959 TIP3 OH2  OT    -0.834000       15.9994           0
   20189 WT1  5959 TIP3 H1   HT     0.417000        1.0080           0
   20190 WT1  5959 TIP3 H2   HT     0.417000        1.0080           0
   20191 WT1  5961 TIP3 OH2  OT    -0.834000       15.9994           0
   20192 WT1  5961 TIP3 H1   HT     0.417000        1.0080           0
   20193 WT1  5961 TIP3 H2   HT     0.417000        1.0080           0
   20194 WT1  5962 TIP3 OH2  OT    -0.834000       15.9994           0
   20195 WT1  5962 TIP3 H1   HT     0.417000        1.0080           0
   20196 WT1  5962 TIP3 H2   HT     0.417000        1.0080           0
   20197 WT1  5963 TIP3 OH2  OT    -0.834000       15.9994           0
   20198 WT1  5963 TIP3 H1   HT     0.417000        1.0080           0
   20199 WT1  5963 TIP3 H2   HT     0.417000        1.0080           0
   20200 WT1  5965 TIP3 OH2  OT    -0.834000       15.9994           0
   20201 WT1  5965 TIP3 H1   HT     0.417000        1.0080           0
   20202 WT1  5965 TIP3 H2   HT     0.417000        1.0080           0
   20203 WT1  5966 TIP3 OH2  OT    -0.834000       15.9994           0
   20204 WT1  5966 TIP3 H1   HT     0.417000        1.0080           0
   20205 WT1  5966 TIP3 H2   HT     0.417000        1.0080           0
   20206 WT1  5967 TIP3 OH2  OT    -0.834000       15.9994           0
   20207 WT1  5967 TIP3 H1   HT     0.417000        1.0080           0
   20208 WT1  5967 TIP3 H2   HT     0.417000        1.0080           0
   20209 WT1  5968 TIP3 OH2  OT    -0.834000       15.9994           0
   20210 WT1  5968 TIP3 H1   HT     0.417000        1.0080           0
   20211 WT1  5968 TIP3 H2   HT     0.417000        1.0080           0
   20212 WT1  5969 TIP3 OH2  OT    -0.834000       15.9994           0
   20213 WT1  5969 TIP3 H1   HT     0.417000        1.0080           0
   20214 WT1  5969 TIP3 H2   HT     0.417000        1.0080           0
   20215 WT1  5970 TIP3 OH2  OT    -0.834000       15.9994           0
   20216 WT1  5970 TIP3 H1   HT     0.417000        1.0080           0
   20217 WT1  5970 TIP3 H2   HT     0.417000        1.0080           0
   20218 WT1  5971 TIP3 OH2  OT    -0.834000       15.9994           0
   20219 WT1  5971 TIP3 H1   HT     0.417000        1.0080           0
   20220 WT1  5971 TIP3 H2   HT     0.417000        1.0080           0
   20221 WT1  5972 TIP3 OH2  OT    -0.834000       15.9994           0
   20222 WT1  5972 TIP3 H1   HT     0.417000        1.0080           0
   20223 WT1  5972 TIP3 H2   HT     0.417000        1.0080           0
   20224 WT1  5973 TIP3 OH2  OT    -0.834000       15.9994           0
   20225 WT1  5973 TIP3 H1   HT     0.417000        1.0080           0
   20226 WT1  5973 TIP3 H2   HT     0.417000        1.0080           0
   20227 WT1  5974 TIP3 OH2  OT    -0.834000       15.9994           0
   20228 WT1  5974 TIP3 H1   HT     0.417000        1.0080           0
   20229 WT1  5974 TIP3 H2   HT     0.417000        1.0080           0
   20230 WT1  5975 TIP3 OH2  OT    -0.834000       15.9994           0
   20231 WT1  5975 TIP3 H1   HT     0.417000        1.0080           0
   20232 WT1  5975 TIP3 H2   HT     0.417000        1.0080           0
   20233 WT1  5976 TIP3 OH2  OT    -0.834000       15.9994           0
   20234 WT1  5976 TIP3 H1   HT     0.417000        1.0080           0
   20235 WT1  5976 TIP3 H2   HT     0.417000        1.0080           0
   20236 WT1  5977 TIP3 OH2  OT    -0.834000       15.9994           0
   20237 WT1  5977 TIP3 H1   HT     0.417000        1.0080           0
   20238 WT1  5977 TIP3 H2   HT     0.417000        1.0080           0
   20239 WT1  5978 TIP3 OH2  OT    -0.834000       15.9994           0
   20240 WT1  5978 TIP3 H1   HT     0.417000        1.0080           0
   20241 WT1  5978 TIP3 H2   HT     0.417000        1.0080           0
   20242 WT1  5981 TIP3 OH2  OT    -0.834000       15.9994           0
   20243 WT1  5981 TIP3 H1   HT     0.417000        1.0080           0
   20244 WT1  5981 TIP3 H2   HT     0.417000        1.0080           0
   20245 WT1  5983 TIP3 OH2  OT    -0.834000       15.9994           0
   20246 WT1  5983 TIP3 H1   HT     0.417000        1.0080           0
   20247 WT1  5983 TIP3 H2   HT     0.417000        1.0080           0
   20248 WT1  5984 TIP3 OH2  OT    -0.834000       15.9994           0
   20249 WT1  5984 TIP3 H1   HT     0.417000        1.0080           0
   20250 WT1  5984 TIP3 H2   HT     0.417000        1.0080           0
   20251 WT1  5985 TIP3 OH2  OT    -0.834000       15.9994           0
   20252 WT1  5985 TIP3 H1   HT     0.417000        1.0080           0
   20253 WT1  5985 TIP3 H2   HT     0.417000        1.0080           0
   20254 WT1  5986 TIP3 OH2  OT    -0.834000       15.9994           0
   20255 WT1  5986 TIP3 H1   HT     0.417000        1.0080           0
   20256 WT1  5986 TIP3 H2   HT     0.417000        1.0080           0
   20257 WT1  5987 TIP3 OH2  OT    -0.834000       15.9994           0
   20258 WT1  5987 TIP3 H1   HT     0.417000        1.0080           0
   20259 WT1  5987 TIP3 H2   HT     0.417000        1.0080           0
   20260 WT1  5988 TIP3 OH2  OT    -0.834000       15.9994           0
   20261 WT1  5988 TIP3 H1   HT     0.417000        1.0080           0
   20262 WT1  5988 TIP3 H2   HT     0.417000        1.0080           0
   20263 WT1  5989 TIP3 OH2  OT    -0.834000       15.9994           0
   20264 WT1  5989 TIP3 H1   HT     0.417000        1.0080           0
   20265 WT1  5989 TIP3 H2   HT     0.417000        1.0080           0
   20266 WT1  5990 TIP3 OH2  OT    -0.834000       15.9994           0
   20267 WT1  5990 TIP3 H1   HT     0.417000        1.0080           0
   20268 WT1  5990 TIP3 H2   HT     0.417000        1.0080           0
   20269 WT1  5991 TIP3 OH2  OT    -0.834000       15.9994           0
   20270 WT1  5991 TIP3 H1   HT     0.417000        1.0080           0
   20271 WT1  5991 TIP3 H2   HT     0.417000        1.0080           0
   20272 WT1  5992 TIP3 OH2  OT    -0.834000       15.9994           0
   20273 WT1  5992 TIP3 H1   HT     0.417000        1.0080           0
   20274 WT1  5992 TIP3 H2   HT     0.417000        1.0080           0
   20275 WT1  5993 TIP3 OH2  OT    -0.834000       15.9994           0
   20276 WT1  5993 TIP3 H1   HT     0.417000        1.0080           0
   20277 WT1  5993 TIP3 H2   HT     0.417000        1.0080           0
   20278 WT1  5994 TIP3 OH2  OT    -0.834000       15.9994           0
   20279 WT1  5994 TIP3 H1   HT     0.417000        1.0080           0
   20280 WT1  5994 TIP3 H2   HT     0.417000        1.0080           0
   20281 WT1  5995 TIP3 OH2  OT    -0.834000       15.9994           0
   20282 WT1  5995 TIP3 H1   HT     0.417000        1.0080           0
   20283 WT1  5995 TIP3 H2   HT     0.417000        1.0080           0
   20284 WT1  5996 TIP3 OH2  OT    -0.834000       15.9994           0
   20285 WT1  5996 TIP3 H1   HT     0.417000        1.0080           0
   20286 WT1  5996 TIP3 H2   HT     0.417000        1.0080           0
   20287 WT1  5997 TIP3 OH2  OT    -0.834000       15.9994           0
   20288 WT1  5997 TIP3 H1   HT     0.417000        1.0080           0
   20289 WT1  5997 TIP3 H2   HT     0.417000        1.0080           0
   20290 WT1  5998 TIP3 OH2  OT    -0.834000       15.9994           0
   20291 WT1  5998 TIP3 H1   HT     0.417000        1.0080           0
   20292 WT1  5998 TIP3 H2   HT     0.417000        1.0080           0
   20293 WT1  5999 TIP3 OH2  OT    -0.834000       15.9994           0
   20294 WT1  5999 TIP3 H1   HT     0.417000        1.0080           0
   20295 WT1  5999 TIP3 H2   HT     0.417000        1.0080           0
   20296 WT1  6000 TIP3 OH2  OT    -0.834000       15.9994           0
   20297 WT1  6000 TIP3 H1   HT     0.417000        1.0080           0
   20298 WT1  6000 TIP3 H2   HT     0.417000        1.0080           0
   20299 WT1  6001 TIP3 OH2  OT    -0.834000       15.9994           0
   20300 WT1  6001 TIP3 H1   HT     0.417000        1.0080           0
   20301 WT1  6001 TIP3 H2   HT     0.417000        1.0080           0
   20302 WT1  6004 TIP3 OH2  OT    -0.834000       15.9994           0
   20303 WT1  6004 TIP3 H1   HT     0.417000        1.0080           0
   20304 WT1  6004 TIP3 H2   HT     0.417000        1.0080           0
   20305 WT1  6005 TIP3 OH2  OT    -0.834000       15.9994           0
   20306 WT1  6005 TIP3 H1   HT     0.417000        1.0080           0
   20307 WT1  6005 TIP3 H2   HT     0.417000        1.0080           0
   20308 WT1  6006 TIP3 OH2  OT    -0.834000       15.9994           0
   20309 WT1  6006 TIP3 H1   HT     0.417000        1.0080           0
   20310 WT1  6006 TIP3 H2   HT     0.417000        1.0080           0
   20311 WT1  6007 TIP3 OH2  OT    -0.834000       15.9994           0
   20312 WT1  6007 TIP3 H1   HT     0.417000        1.0080           0
   20313 WT1  6007 TIP3 H2   HT     0.417000        1.0080           0
   20314 WT1  6008 TIP3 OH2  OT    -0.834000       15.9994           0
   20315 WT1  6008 TIP3 H1   HT     0.417000        1.0080           0
   20316 WT1  6008 TIP3 H2   HT     0.417000        1.0080           0
   20317 WT1  6009 TIP3 OH2  OT    -0.834000       15.9994           0
   20318 WT1  6009 TIP3 H1   HT     0.417000        1.0080           0
   20319 WT1  6009 TIP3 H2   HT     0.417000        1.0080           0
   20320 WT1  6010 TIP3 OH2  OT    -0.834000       15.9994           0
   20321 WT1  6010 TIP3 H1   HT     0.417000        1.0080           0
   20322 WT1  6010 TIP3 H2   HT     0.417000        1.0080           0
   20323 WT1  6011 TIP3 OH2  OT    -0.834000       15.9994           0
   20324 WT1  6011 TIP3 H1   HT     0.417000        1.0080           0
   20325 WT1  6011 TIP3 H2   HT     0.417000        1.0080           0
   20326 WT1  6012 TIP3 OH2  OT    -0.834000       15.9994           0
   20327 WT1  6012 TIP3 H1   HT     0.417000        1.0080           0
   20328 WT1  6012 TIP3 H2   HT     0.417000        1.0080           0
   20329 WT1  6013 TIP3 OH2  OT    -0.834000       15.9994           0
   20330 WT1  6013 TIP3 H1   HT     0.417000        1.0080           0
   20331 WT1  6013 TIP3 H2   HT     0.417000        1.0080           0
   20332 WT1  6014 TIP3 OH2  OT    -0.834000       15.9994           0
   20333 WT1  6014 TIP3 H1   HT     0.417000        1.0080           0
   20334 WT1  6014 TIP3 H2   HT     0.417000        1.0080           0
   20335 WT1  6015 TIP3 OH2  OT    -0.834000       15.9994           0
   20336 WT1  6015 TIP3 H1   HT     0.417000        1.0080           0
   20337 WT1  6015 TIP3 H2   HT     0.417000        1.0080           0
   20338 WT1  6016 TIP3 OH2  OT    -0.834000       15.9994           0
   20339 WT1  6016 TIP3 H1   HT     0.417000        1.0080           0
   20340 WT1  6016 TIP3 H2   HT     0.417000        1.0080           0
   20341 WT1  6017 TIP3 OH2  OT    -0.834000       15.9994           0
   20342 WT1  6017 TIP3 H1   HT     0.417000        1.0080           0
   20343 WT1  6017 TIP3 H2   HT     0.417000        1.0080           0
   20344 WT1  6018 TIP3 OH2  OT    -0.834000       15.9994           0
   20345 WT1  6018 TIP3 H1   HT     0.417000        1.0080           0
   20346 WT1  6018 TIP3 H2   HT     0.417000        1.0080           0
   20347 WT1  6019 TIP3 OH2  OT    -0.834000       15.9994           0
   20348 WT1  6019 TIP3 H1   HT     0.417000        1.0080           0
   20349 WT1  6019 TIP3 H2   HT     0.417000        1.0080           0
   20350 WT1  6020 TIP3 OH2  OT    -0.834000       15.9994           0
   20351 WT1  6020 TIP3 H1   HT     0.417000        1.0080           0
   20352 WT1  6020 TIP3 H2   HT     0.417000        1.0080           0
   20353 WT1  6021 TIP3 OH2  OT    -0.834000       15.9994           0
   20354 WT1  6021 TIP3 H1   HT     0.417000        1.0080           0
   20355 WT1  6021 TIP3 H2   HT     0.417000        1.0080           0
   20356 WT1  6022 TIP3 OH2  OT    -0.834000       15.9994           0
   20357 WT1  6022 TIP3 H1   HT     0.417000        1.0080           0
   20358 WT1  6022 TIP3 H2   HT     0.417000        1.0080           0
   20359 WT1  6024 TIP3 OH2  OT    -0.834000       15.9994           0
   20360 WT1  6024 TIP3 H1   HT     0.417000        1.0080           0
   20361 WT1  6024 TIP3 H2   HT     0.417000        1.0080           0
   20362 WT1  6026 TIP3 OH2  OT    -0.834000       15.9994           0
   20363 WT1  6026 TIP3 H1   HT     0.417000        1.0080           0
   20364 WT1  6026 TIP3 H2   HT     0.417000        1.0080           0
   20365 WT1  6027 TIP3 OH2  OT    -0.834000       15.9994           0
   20366 WT1  6027 TIP3 H1   HT     0.417000        1.0080           0
   20367 WT1  6027 TIP3 H2   HT     0.417000        1.0080           0
   20368 WT1  6028 TIP3 OH2  OT    -0.834000       15.9994           0
   20369 WT1  6028 TIP3 H1   HT     0.417000        1.0080           0
   20370 WT1  6028 TIP3 H2   HT     0.417000        1.0080           0
   20371 WT1  6030 TIP3 OH2  OT    -0.834000       15.9994           0
   20372 WT1  6030 TIP3 H1   HT     0.417000        1.0080           0
   20373 WT1  6030 TIP3 H2   HT     0.417000        1.0080           0
   20374 WT1  6031 TIP3 OH2  OT    -0.834000       15.9994           0
   20375 WT1  6031 TIP3 H1   HT     0.417000        1.0080           0
   20376 WT1  6031 TIP3 H2   HT     0.417000        1.0080           0
   20377 WT1  6032 TIP3 OH2  OT    -0.834000       15.9994           0
   20378 WT1  6032 TIP3 H1   HT     0.417000        1.0080           0
   20379 WT1  6032 TIP3 H2   HT     0.417000        1.0080           0
   20380 WT1  6033 TIP3 OH2  OT    -0.834000       15.9994           0
   20381 WT1  6033 TIP3 H1   HT     0.417000        1.0080           0
   20382 WT1  6033 TIP3 H2   HT     0.417000        1.0080           0
   20383 WT1  6034 TIP3 OH2  OT    -0.834000       15.9994           0
   20384 WT1  6034 TIP3 H1   HT     0.417000        1.0080           0
   20385 WT1  6034 TIP3 H2   HT     0.417000        1.0080           0
   20386 WT1  6035 TIP3 OH2  OT    -0.834000       15.9994           0
   20387 WT1  6035 TIP3 H1   HT     0.417000        1.0080           0
   20388 WT1  6035 TIP3 H2   HT     0.417000        1.0080           0
   20389 WT1  6036 TIP3 OH2  OT    -0.834000       15.9994           0
   20390 WT1  6036 TIP3 H1   HT     0.417000        1.0080           0
   20391 WT1  6036 TIP3 H2   HT     0.417000        1.0080           0
   20392 WT1  6037 TIP3 OH2  OT    -0.834000       15.9994           0
   20393 WT1  6037 TIP3 H1   HT     0.417000        1.0080           0
   20394 WT1  6037 TIP3 H2   HT     0.417000        1.0080           0
   20395 WT1  6038 TIP3 OH2  OT    -0.834000       15.9994           0
   20396 WT1  6038 TIP3 H1   HT     0.417000        1.0080           0
   20397 WT1  6038 TIP3 H2   HT     0.417000        1.0080           0
   20398 WT1  6039 TIP3 OH2  OT    -0.834000       15.9994           0
   20399 WT1  6039 TIP3 H1   HT     0.417000        1.0080           0
   20400 WT1  6039 TIP3 H2   HT     0.417000        1.0080           0
   20401 WT1  6041 TIP3 OH2  OT    -0.834000       15.9994           0
   20402 WT1  6041 TIP3 H1   HT     0.417000        1.0080           0
   20403 WT1  6041 TIP3 H2   HT     0.417000        1.0080           0
   20404 WT1  6042 TIP3 OH2  OT    -0.834000       15.9994           0
   20405 WT1  6042 TIP3 H1   HT     0.417000        1.0080           0
   20406 WT1  6042 TIP3 H2   HT     0.417000        1.0080           0
   20407 WT1  6044 TIP3 OH2  OT    -0.834000       15.9994           0
   20408 WT1  6044 TIP3 H1   HT     0.417000        1.0080           0
   20409 WT1  6044 TIP3 H2   HT     0.417000        1.0080           0
   20410 WT1  6046 TIP3 OH2  OT    -0.834000       15.9994           0
   20411 WT1  6046 TIP3 H1   HT     0.417000        1.0080           0
   20412 WT1  6046 TIP3 H2   HT     0.417000        1.0080           0
   20413 WT1  6048 TIP3 OH2  OT    -0.834000       15.9994           0
   20414 WT1  6048 TIP3 H1   HT     0.417000        1.0080           0
   20415 WT1  6048 TIP3 H2   HT     0.417000        1.0080           0
   20416 WT1  6049 TIP3 OH2  OT    -0.834000       15.9994           0
   20417 WT1  6049 TIP3 H1   HT     0.417000        1.0080           0
   20418 WT1  6049 TIP3 H2   HT     0.417000        1.0080           0
   20419 WT1  6050 TIP3 OH2  OT    -0.834000       15.9994           0
   20420 WT1  6050 TIP3 H1   HT     0.417000        1.0080           0
   20421 WT1  6050 TIP3 H2   HT     0.417000        1.0080           0
   20422 WT1  6051 TIP3 OH2  OT    -0.834000       15.9994           0
   20423 WT1  6051 TIP3 H1   HT     0.417000        1.0080           0
   20424 WT1  6051 TIP3 H2   HT     0.417000        1.0080           0
   20425 WT1  6052 TIP3 OH2  OT    -0.834000       15.9994           0
   20426 WT1  6052 TIP3 H1   HT     0.417000        1.0080           0
   20427 WT1  6052 TIP3 H2   HT     0.417000        1.0080           0
   20428 WT1  6053 TIP3 OH2  OT    -0.834000       15.9994           0
   20429 WT1  6053 TIP3 H1   HT     0.417000        1.0080           0
   20430 WT1  6053 TIP3 H2   HT     0.417000        1.0080           0
   20431 WT1  6054 TIP3 OH2  OT    -0.834000       15.9994           0
   20432 WT1  6054 TIP3 H1   HT     0.417000        1.0080           0
   20433 WT1  6054 TIP3 H2   HT     0.417000        1.0080           0
   20434 WT1  6055 TIP3 OH2  OT    -0.834000       15.9994           0
   20435 WT1  6055 TIP3 H1   HT     0.417000        1.0080           0
   20436 WT1  6055 TIP3 H2   HT     0.417000        1.0080           0
   20437 WT1  6056 TIP3 OH2  OT    -0.834000       15.9994           0
   20438 WT1  6056 TIP3 H1   HT     0.417000        1.0080           0
   20439 WT1  6056 TIP3 H2   HT     0.417000        1.0080           0
   20440 WT1  6057 TIP3 OH2  OT    -0.834000       15.9994           0
   20441 WT1  6057 TIP3 H1   HT     0.417000        1.0080           0
   20442 WT1  6057 TIP3 H2   HT     0.417000        1.0080           0
   20443 WT1  6058 TIP3 OH2  OT    -0.834000       15.9994           0
   20444 WT1  6058 TIP3 H1   HT     0.417000        1.0080           0
   20445 WT1  6058 TIP3 H2   HT     0.417000        1.0080           0
   20446 WT1  6059 TIP3 OH2  OT    -0.834000       15.9994           0
   20447 WT1  6059 TIP3 H1   HT     0.417000        1.0080           0
   20448 WT1  6059 TIP3 H2   HT     0.417000        1.0080           0
   20449 WT1  6060 TIP3 OH2  OT    -0.834000       15.9994           0
   20450 WT1  6060 TIP3 H1   HT     0.417000        1.0080           0
   20451 WT1  6060 TIP3 H2   HT     0.417000        1.0080           0
   20452 WT1  6061 TIP3 OH2  OT    -0.834000       15.9994           0
   20453 WT1  6061 TIP3 H1   HT     0.417000        1.0080           0
   20454 WT1  6061 TIP3 H2   HT     0.417000        1.0080           0
   20455 WT1  6062 TIP3 OH2  OT    -0.834000       15.9994           0
   20456 WT1  6062 TIP3 H1   HT     0.417000        1.0080           0
   20457 WT1  6062 TIP3 H2   HT     0.417000        1.0080           0
   20458 WT1  6063 TIP3 OH2  OT    -0.834000       15.9994           0
   20459 WT1  6063 TIP3 H1   HT     0.417000        1.0080           0
   20460 WT1  6063 TIP3 H2   HT     0.417000        1.0080           0
   20461 WT1  6066 TIP3 OH2  OT    -0.834000       15.9994           0
   20462 WT1  6066 TIP3 H1   HT     0.417000        1.0080           0
   20463 WT1  6066 TIP3 H2   HT     0.417000        1.0080           0
   20464 WT1  6068 TIP3 OH2  OT    -0.834000       15.9994           0
   20465 WT1  6068 TIP3 H1   HT     0.417000        1.0080           0
   20466 WT1  6068 TIP3 H2   HT     0.417000        1.0080           0
   20467 WT1  6070 TIP3 OH2  OT    -0.834000       15.9994           0
   20468 WT1  6070 TIP3 H1   HT     0.417000        1.0080           0
   20469 WT1  6070 TIP3 H2   HT     0.417000        1.0080           0
   20470 WT1  6071 TIP3 OH2  OT    -0.834000       15.9994           0
   20471 WT1  6071 TIP3 H1   HT     0.417000        1.0080           0
   20472 WT1  6071 TIP3 H2   HT     0.417000        1.0080           0
   20473 WT1  6072 TIP3 OH2  OT    -0.834000       15.9994           0
   20474 WT1  6072 TIP3 H1   HT     0.417000        1.0080           0
   20475 WT1  6072 TIP3 H2   HT     0.417000        1.0080           0
   20476 WT1  6073 TIP3 OH2  OT    -0.834000       15.9994           0
   20477 WT1  6073 TIP3 H1   HT     0.417000        1.0080           0
   20478 WT1  6073 TIP3 H2   HT     0.417000        1.0080           0
   20479 WT1  6074 TIP3 OH2  OT    -0.834000       15.9994           0
   20480 WT1  6074 TIP3 H1   HT     0.417000        1.0080           0
   20481 WT1  6074 TIP3 H2   HT     0.417000        1.0080           0
   20482 WT1  6075 TIP3 OH2  OT    -0.834000       15.9994           0
   20483 WT1  6075 TIP3 H1   HT     0.417000        1.0080           0
   20484 WT1  6075 TIP3 H2   HT     0.417000        1.0080           0
   20485 WT1  6076 TIP3 OH2  OT    -0.834000       15.9994           0
   20486 WT1  6076 TIP3 H1   HT     0.417000        1.0080           0
   20487 WT1  6076 TIP3 H2   HT     0.417000        1.0080           0
   20488 WT1  6077 TIP3 OH2  OT    -0.834000       15.9994           0
   20489 WT1  6077 TIP3 H1   HT     0.417000        1.0080           0
   20490 WT1  6077 TIP3 H2   HT     0.417000        1.0080           0
   20491 WT1  6078 TIP3 OH2  OT    -0.834000       15.9994           0
   20492 WT1  6078 TIP3 H1   HT     0.417000        1.0080           0
   20493 WT1  6078 TIP3 H2   HT     0.417000        1.0080           0
   20494 WT1  6079 TIP3 OH2  OT    -0.834000       15.9994           0
   20495 WT1  6079 TIP3 H1   HT     0.417000        1.0080           0
   20496 WT1  6079 TIP3 H2   HT     0.417000        1.0080           0
   20497 WT1  6080 TIP3 OH2  OT    -0.834000       15.9994           0
   20498 WT1  6080 TIP3 H1   HT     0.417000        1.0080           0
   20499 WT1  6080 TIP3 H2   HT     0.417000        1.0080           0
   20500 WT1  6081 TIP3 OH2  OT    -0.834000       15.9994           0
   20501 WT1  6081 TIP3 H1   HT     0.417000        1.0080           0
   20502 WT1  6081 TIP3 H2   HT     0.417000        1.0080           0
   20503 WT1  6082 TIP3 OH2  OT    -0.834000       15.9994           0
   20504 WT1  6082 TIP3 H1   HT     0.417000        1.0080           0
   20505 WT1  6082 TIP3 H2   HT     0.417000        1.0080           0
   20506 WT1  6083 TIP3 OH2  OT    -0.834000       15.9994           0
   20507 WT1  6083 TIP3 H1   HT     0.417000        1.0080           0
   20508 WT1  6083 TIP3 H2   HT     0.417000        1.0080           0
   20509 WT1  6084 TIP3 OH2  OT    -0.834000       15.9994           0
   20510 WT1  6084 TIP3 H1   HT     0.417000        1.0080           0
   20511 WT1  6084 TIP3 H2   HT     0.417000        1.0080           0
   20512 WT1  6085 TIP3 OH2  OT    -0.834000       15.9994           0
   20513 WT1  6085 TIP3 H1   HT     0.417000        1.0080           0
   20514 WT1  6085 TIP3 H2   HT     0.417000        1.0080           0
   20515 WT1  6086 TIP3 OH2  OT    -0.834000       15.9994           0
   20516 WT1  6086 TIP3 H1   HT     0.417000        1.0080           0
   20517 WT1  6086 TIP3 H2   HT     0.417000        1.0080           0
   20518 WT1  6089 TIP3 OH2  OT    -0.834000       15.9994           0
   20519 WT1  6089 TIP3 H1   HT     0.417000        1.0080           0
   20520 WT1  6089 TIP3 H2   HT     0.417000        1.0080           0
   20521 WT1  6090 TIP3 OH2  OT    -0.834000       15.9994           0
   20522 WT1  6090 TIP3 H1   HT     0.417000        1.0080           0
   20523 WT1  6090 TIP3 H2   HT     0.417000        1.0080           0
   20524 WT1  6091 TIP3 OH2  OT    -0.834000       15.9994           0
   20525 WT1  6091 TIP3 H1   HT     0.417000        1.0080           0
   20526 WT1  6091 TIP3 H2   HT     0.417000        1.0080           0
   20527 WT1  6092 TIP3 OH2  OT    -0.834000       15.9994           0
   20528 WT1  6092 TIP3 H1   HT     0.417000        1.0080           0
   20529 WT1  6092 TIP3 H2   HT     0.417000        1.0080           0
   20530 WT1  6093 TIP3 OH2  OT    -0.834000       15.9994           0
   20531 WT1  6093 TIP3 H1   HT     0.417000        1.0080           0
   20532 WT1  6093 TIP3 H2   HT     0.417000        1.0080           0
   20533 WT1  6094 TIP3 OH2  OT    -0.834000       15.9994           0
   20534 WT1  6094 TIP3 H1   HT     0.417000        1.0080           0
   20535 WT1  6094 TIP3 H2   HT     0.417000        1.0080           0
   20536 WT1  6095 TIP3 OH2  OT    -0.834000       15.9994           0
   20537 WT1  6095 TIP3 H1   HT     0.417000        1.0080           0
   20538 WT1  6095 TIP3 H2   HT     0.417000        1.0080           0
   20539 WT1  6096 TIP3 OH2  OT    -0.834000       15.9994           0
   20540 WT1  6096 TIP3 H1   HT     0.417000        1.0080           0
   20541 WT1  6096 TIP3 H2   HT     0.417000        1.0080           0
   20542 WT1  6097 TIP3 OH2  OT    -0.834000       15.9994           0
   20543 WT1  6097 TIP3 H1   HT     0.417000        1.0080           0
   20544 WT1  6097 TIP3 H2   HT     0.417000        1.0080           0
   20545 WT1  6098 TIP3 OH2  OT    -0.834000       15.9994           0
   20546 WT1  6098 TIP3 H1   HT     0.417000        1.0080           0
   20547 WT1  6098 TIP3 H2   HT     0.417000        1.0080           0
   20548 WT1  6099 TIP3 OH2  OT    -0.834000       15.9994           0
   20549 WT1  6099 TIP3 H1   HT     0.417000        1.0080           0
   20550 WT1  6099 TIP3 H2   HT     0.417000        1.0080           0
   20551 WT1  6100 TIP3 OH2  OT    -0.834000       15.9994           0
   20552 WT1  6100 TIP3 H1   HT     0.417000        1.0080           0
   20553 WT1  6100 TIP3 H2   HT     0.417000        1.0080           0
   20554 WT1  6101 TIP3 OH2  OT    -0.834000       15.9994           0
   20555 WT1  6101 TIP3 H1   HT     0.417000        1.0080           0
   20556 WT1  6101 TIP3 H2   HT     0.417000        1.0080           0
   20557 WT1  6102 TIP3 OH2  OT    -0.834000       15.9994           0
   20558 WT1  6102 TIP3 H1   HT     0.417000        1.0080           0
   20559 WT1  6102 TIP3 H2   HT     0.417000        1.0080           0
   20560 WT1  6103 TIP3 OH2  OT    -0.834000       15.9994           0
   20561 WT1  6103 TIP3 H1   HT     0.417000        1.0080           0
   20562 WT1  6103 TIP3 H2   HT     0.417000        1.0080           0
   20563 WT1  6104 TIP3 OH2  OT    -0.834000       15.9994           0
   20564 WT1  6104 TIP3 H1   HT     0.417000        1.0080           0
   20565 WT1  6104 TIP3 H2   HT     0.417000        1.0080           0
   20566 WT1  6105 TIP3 OH2  OT    -0.834000       15.9994           0
   20567 WT1  6105 TIP3 H1   HT     0.417000        1.0080           0
   20568 WT1  6105 TIP3 H2   HT     0.417000        1.0080           0
   20569 WT1  6106 TIP3 OH2  OT    -0.834000       15.9994           0
   20570 WT1  6106 TIP3 H1   HT     0.417000        1.0080           0
   20571 WT1  6106 TIP3 H2   HT     0.417000        1.0080           0
   20572 WT1  6108 TIP3 OH2  OT    -0.834000       15.9994           0
   20573 WT1  6108 TIP3 H1   HT     0.417000        1.0080           0
   20574 WT1  6108 TIP3 H2   HT     0.417000        1.0080           0
   20575 WT1  6109 TIP3 OH2  OT    -0.834000       15.9994           0
   20576 WT1  6109 TIP3 H1   HT     0.417000        1.0080           0
   20577 WT1  6109 TIP3 H2   HT     0.417000        1.0080           0
   20578 WT1  6110 TIP3 OH2  OT    -0.834000       15.9994           0
   20579 WT1  6110 TIP3 H1   HT     0.417000        1.0080           0
   20580 WT1  6110 TIP3 H2   HT     0.417000        1.0080           0
   20581 WT1  6112 TIP3 OH2  OT    -0.834000       15.9994           0
   20582 WT1  6112 TIP3 H1   HT     0.417000        1.0080           0
   20583 WT1  6112 TIP3 H2   HT     0.417000        1.0080           0
   20584 WT1  6113 TIP3 OH2  OT    -0.834000       15.9994           0
   20585 WT1  6113 TIP3 H1   HT     0.417000        1.0080           0
   20586 WT1  6113 TIP3 H2   HT     0.417000        1.0080           0
   20587 WT1  6115 TIP3 OH2  OT    -0.834000       15.9994           0
   20588 WT1  6115 TIP3 H1   HT     0.417000        1.0080           0
   20589 WT1  6115 TIP3 H2   HT     0.417000        1.0080           0
   20590 WT1  6116 TIP3 OH2  OT    -0.834000       15.9994           0
   20591 WT1  6116 TIP3 H1   HT     0.417000        1.0080           0
   20592 WT1  6116 TIP3 H2   HT     0.417000        1.0080           0
   20593 WT1  6117 TIP3 OH2  OT    -0.834000       15.9994           0
   20594 WT1  6117 TIP3 H1   HT     0.417000        1.0080           0
   20595 WT1  6117 TIP3 H2   HT     0.417000        1.0080           0
   20596 WT1  6118 TIP3 OH2  OT    -0.834000       15.9994           0
   20597 WT1  6118 TIP3 H1   HT     0.417000        1.0080           0
   20598 WT1  6118 TIP3 H2   HT     0.417000        1.0080           0
   20599 WT1  6119 TIP3 OH2  OT    -0.834000       15.9994           0
   20600 WT1  6119 TIP3 H1   HT     0.417000        1.0080           0
   20601 WT1  6119 TIP3 H2   HT     0.417000        1.0080           0
   20602 WT1  6120 TIP3 OH2  OT    -0.834000       15.9994           0
   20603 WT1  6120 TIP3 H1   HT     0.417000        1.0080           0
   20604 WT1  6120 TIP3 H2   HT     0.417000        1.0080           0
   20605 WT1  6121 TIP3 OH2  OT    -0.834000       15.9994           0
   20606 WT1  6121 TIP3 H1   HT     0.417000        1.0080           0
   20607 WT1  6121 TIP3 H2   HT     0.417000        1.0080           0
   20608 WT1  6122 TIP3 OH2  OT    -0.834000       15.9994           0
   20609 WT1  6122 TIP3 H1   HT     0.417000        1.0080           0
   20610 WT1  6122 TIP3 H2   HT     0.417000        1.0080           0
   20611 WT1  6123 TIP3 OH2  OT    -0.834000       15.9994           0
   20612 WT1  6123 TIP3 H1   HT     0.417000        1.0080           0
   20613 WT1  6123 TIP3 H2   HT     0.417000        1.0080           0
   20614 WT1  6124 TIP3 OH2  OT    -0.834000       15.9994           0
   20615 WT1  6124 TIP3 H1   HT     0.417000        1.0080           0
   20616 WT1  6124 TIP3 H2   HT     0.417000        1.0080           0
   20617 WT1  6125 TIP3 OH2  OT    -0.834000       15.9994           0
   20618 WT1  6125 TIP3 H1   HT     0.417000        1.0080           0
   20619 WT1  6125 TIP3 H2   HT     0.417000        1.0080           0
   20620 WT1  6126 TIP3 OH2  OT    -0.834000       15.9994           0
   20621 WT1  6126 TIP3 H1   HT     0.417000        1.0080           0
   20622 WT1  6126 TIP3 H2   HT     0.417000        1.0080           0
   20623 WT1  6127 TIP3 OH2  OT    -0.834000       15.9994           0
   20624 WT1  6127 TIP3 H1   HT     0.417000        1.0080           0
   20625 WT1  6127 TIP3 H2   HT     0.417000        1.0080           0
   20626 WT1  6128 TIP3 OH2  OT    -0.834000       15.9994           0
   20627 WT1  6128 TIP3 H1   HT     0.417000        1.0080           0
   20628 WT1  6128 TIP3 H2   HT     0.417000        1.0080           0
   20629 WT1  6129 TIP3 OH2  OT    -0.834000       15.9994           0
   20630 WT1  6129 TIP3 H1   HT     0.417000        1.0080           0
   20631 WT1  6129 TIP3 H2   HT     0.417000        1.0080           0
   20632 WT1  6131 TIP3 OH2  OT    -0.834000       15.9994           0
   20633 WT1  6131 TIP3 H1   HT     0.417000        1.0080           0
   20634 WT1  6131 TIP3 H2   HT     0.417000        1.0080           0
   20635 WT1  6132 TIP3 OH2  OT    -0.834000       15.9994           0
   20636 WT1  6132 TIP3 H1   HT     0.417000        1.0080           0
   20637 WT1  6132 TIP3 H2   HT     0.417000        1.0080           0
   20638 WT1  6133 TIP3 OH2  OT    -0.834000       15.9994           0
   20639 WT1  6133 TIP3 H1   HT     0.417000        1.0080           0
   20640 WT1  6133 TIP3 H2   HT     0.417000        1.0080           0
   20641 WT1  6134 TIP3 OH2  OT    -0.834000       15.9994           0
   20642 WT1  6134 TIP3 H1   HT     0.417000        1.0080           0
   20643 WT1  6134 TIP3 H2   HT     0.417000        1.0080           0
   20644 WT1  6135 TIP3 OH2  OT    -0.834000       15.9994           0
   20645 WT1  6135 TIP3 H1   HT     0.417000        1.0080           0
   20646 WT1  6135 TIP3 H2   HT     0.417000        1.0080           0
   20647 WT1  6136 TIP3 OH2  OT    -0.834000       15.9994           0
   20648 WT1  6136 TIP3 H1   HT     0.417000        1.0080           0
   20649 WT1  6136 TIP3 H2   HT     0.417000        1.0080           0
   20650 WT1  6137 TIP3 OH2  OT    -0.834000       15.9994           0
   20651 WT1  6137 TIP3 H1   HT     0.417000        1.0080           0
   20652 WT1  6137 TIP3 H2   HT     0.417000        1.0080           0
   20653 WT1  6138 TIP3 OH2  OT    -0.834000       15.9994           0
   20654 WT1  6138 TIP3 H1   HT     0.417000        1.0080           0
   20655 WT1  6138 TIP3 H2   HT     0.417000        1.0080           0
   20656 WT1  6139 TIP3 OH2  OT    -0.834000       15.9994           0
   20657 WT1  6139 TIP3 H1   HT     0.417000        1.0080           0
   20658 WT1  6139 TIP3 H2   HT     0.417000        1.0080           0
   20659 WT1  6140 TIP3 OH2  OT    -0.834000       15.9994           0
   20660 WT1  6140 TIP3 H1   HT     0.417000        1.0080           0
   20661 WT1  6140 TIP3 H2   HT     0.417000        1.0080           0
   20662 WT1  6141 TIP3 OH2  OT    -0.834000       15.9994           0
   20663 WT1  6141 TIP3 H1   HT     0.417000        1.0080           0
   20664 WT1  6141 TIP3 H2   HT     0.417000        1.0080           0
   20665 WT1  6142 TIP3 OH2  OT    -0.834000       15.9994           0
   20666 WT1  6142 TIP3 H1   HT     0.417000        1.0080           0
   20667 WT1  6142 TIP3 H2   HT     0.417000        1.0080           0
   20668 WT1  6143 TIP3 OH2  OT    -0.834000       15.9994           0
   20669 WT1  6143 TIP3 H1   HT     0.417000        1.0080           0
   20670 WT1  6143 TIP3 H2   HT     0.417000        1.0080           0
   20671 WT1  6144 TIP3 OH2  OT    -0.834000       15.9994           0
   20672 WT1  6144 TIP3 H1   HT     0.417000        1.0080           0
   20673 WT1  6144 TIP3 H2   HT     0.417000        1.0080           0
   20674 WT1  6145 TIP3 OH2  OT    -0.834000       15.9994           0
   20675 WT1  6145 TIP3 H1   HT     0.417000        1.0080           0
   20676 WT1  6145 TIP3 H2   HT     0.417000        1.0080           0
   20677 WT1  6146 TIP3 OH2  OT    -0.834000       15.9994           0
   20678 WT1  6146 TIP3 H1   HT     0.417000        1.0080           0
   20679 WT1  6146 TIP3 H2   HT     0.417000        1.0080           0
   20680 WT1  6147 TIP3 OH2  OT    -0.834000       15.9994           0
   20681 WT1  6147 TIP3 H1   HT     0.417000        1.0080           0
   20682 WT1  6147 TIP3 H2   HT     0.417000        1.0080           0
   20683 WT1  6149 TIP3 OH2  OT    -0.834000       15.9994           0
   20684 WT1  6149 TIP3 H1   HT     0.417000        1.0080           0
   20685 WT1  6149 TIP3 H2   HT     0.417000        1.0080           0
   20686 WT1  6151 TIP3 OH2  OT    -0.834000       15.9994           0
   20687 WT1  6151 TIP3 H1   HT     0.417000        1.0080           0
   20688 WT1  6151 TIP3 H2   HT     0.417000        1.0080           0
   20689 WT1  6152 TIP3 OH2  OT    -0.834000       15.9994           0
   20690 WT1  6152 TIP3 H1   HT     0.417000        1.0080           0
   20691 WT1  6152 TIP3 H2   HT     0.417000        1.0080           0
   20692 WT1  6155 TIP3 OH2  OT    -0.834000       15.9994           0
   20693 WT1  6155 TIP3 H1   HT     0.417000        1.0080           0
   20694 WT1  6155 TIP3 H2   HT     0.417000        1.0080           0
   20695 WT1  6156 TIP3 OH2  OT    -0.834000       15.9994           0
   20696 WT1  6156 TIP3 H1   HT     0.417000        1.0080           0
   20697 WT1  6156 TIP3 H2   HT     0.417000        1.0080           0
   20698 WT1  6157 TIP3 OH2  OT    -0.834000       15.9994           0
   20699 WT1  6157 TIP3 H1   HT     0.417000        1.0080           0
   20700 WT1  6157 TIP3 H2   HT     0.417000        1.0080           0
   20701 WT1  6158 TIP3 OH2  OT    -0.834000       15.9994           0
   20702 WT1  6158 TIP3 H1   HT     0.417000        1.0080           0
   20703 WT1  6158 TIP3 H2   HT     0.417000        1.0080           0
   20704 WT1  6159 TIP3 OH2  OT    -0.834000       15.9994           0
   20705 WT1  6159 TIP3 H1   HT     0.417000        1.0080           0
   20706 WT1  6159 TIP3 H2   HT     0.417000        1.0080           0
   20707 WT1  6160 TIP3 OH2  OT    -0.834000       15.9994           0
   20708 WT1  6160 TIP3 H1   HT     0.417000        1.0080           0
   20709 WT1  6160 TIP3 H2   HT     0.417000        1.0080           0
   20710 WT1  6161 TIP3 OH2  OT    -0.834000       15.9994           0
   20711 WT1  6161 TIP3 H1   HT     0.417000        1.0080           0
   20712 WT1  6161 TIP3 H2   HT     0.417000        1.0080           0
   20713 WT1  6162 TIP3 OH2  OT    -0.834000       15.9994           0
   20714 WT1  6162 TIP3 H1   HT     0.417000        1.0080           0
   20715 WT1  6162 TIP3 H2   HT     0.417000        1.0080           0
   20716 WT1  6163 TIP3 OH2  OT    -0.834000       15.9994           0
   20717 WT1  6163 TIP3 H1   HT     0.417000        1.0080           0
   20718 WT1  6163 TIP3 H2   HT     0.417000        1.0080           0
   20719 WT1  6164 TIP3 OH2  OT    -0.834000       15.9994           0
   20720 WT1  6164 TIP3 H1   HT     0.417000        1.0080           0
   20721 WT1  6164 TIP3 H2   HT     0.417000        1.0080           0
   20722 WT1  6165 TIP3 OH2  OT    -0.834000       15.9994           0
   20723 WT1  6165 TIP3 H1   HT     0.417000        1.0080           0
   20724 WT1  6165 TIP3 H2   HT     0.417000        1.0080           0
   20725 WT1  6166 TIP3 OH2  OT    -0.834000       15.9994           0
   20726 WT1  6166 TIP3 H1   HT     0.417000        1.0080           0
   20727 WT1  6166 TIP3 H2   HT     0.417000        1.0080           0
   20728 WT1  6168 TIP3 OH2  OT    -0.834000       15.9994           0
   20729 WT1  6168 TIP3 H1   HT     0.417000        1.0080           0
   20730 WT1  6168 TIP3 H2   HT     0.417000        1.0080           0
   20731 WT1  6169 TIP3 OH2  OT    -0.834000       15.9994           0
   20732 WT1  6169 TIP3 H1   HT     0.417000        1.0080           0
   20733 WT1  6169 TIP3 H2   HT     0.417000        1.0080           0
   20734 WT1  6172 TIP3 OH2  OT    -0.834000       15.9994           0
   20735 WT1  6172 TIP3 H1   HT     0.417000        1.0080           0
   20736 WT1  6172 TIP3 H2   HT     0.417000        1.0080           0
   20737 WT1  6173 TIP3 OH2  OT    -0.834000       15.9994           0
   20738 WT1  6173 TIP3 H1   HT     0.417000        1.0080           0
   20739 WT1  6173 TIP3 H2   HT     0.417000        1.0080           0
   20740 WT1  6176 TIP3 OH2  OT    -0.834000       15.9994           0
   20741 WT1  6176 TIP3 H1   HT     0.417000        1.0080           0
   20742 WT1  6176 TIP3 H2   HT     0.417000        1.0080           0
   20743 WT1  6177 TIP3 OH2  OT    -0.834000       15.9994           0
   20744 WT1  6177 TIP3 H1   HT     0.417000        1.0080           0
   20745 WT1  6177 TIP3 H2   HT     0.417000        1.0080           0
   20746 WT1  6178 TIP3 OH2  OT    -0.834000       15.9994           0
   20747 WT1  6178 TIP3 H1   HT     0.417000        1.0080           0
   20748 WT1  6178 TIP3 H2   HT     0.417000        1.0080           0
   20749 WT1  6180 TIP3 OH2  OT    -0.834000       15.9994           0
   20750 WT1  6180 TIP3 H1   HT     0.417000        1.0080           0
   20751 WT1  6180 TIP3 H2   HT     0.417000        1.0080           0
   20752 WT1  6181 TIP3 OH2  OT    -0.834000       15.9994           0
   20753 WT1  6181 TIP3 H1   HT     0.417000        1.0080           0
   20754 WT1  6181 TIP3 H2   HT     0.417000        1.0080           0
   20755 WT1  6182 TIP3 OH2  OT    -0.834000       15.9994           0
   20756 WT1  6182 TIP3 H1   HT     0.417000        1.0080           0
   20757 WT1  6182 TIP3 H2   HT     0.417000        1.0080           0
   20758 WT1  6183 TIP3 OH2  OT    -0.834000       15.9994           0
   20759 WT1  6183 TIP3 H1   HT     0.417000        1.0080           0
   20760 WT1  6183 TIP3 H2   HT     0.417000        1.0080           0
   20761 WT1  6184 TIP3 OH2  OT    -0.834000       15.9994           0
   20762 WT1  6184 TIP3 H1   HT     0.417000        1.0080           0
   20763 WT1  6184 TIP3 H2   HT     0.417000        1.0080           0
   20764 WT1  6185 TIP3 OH2  OT    -0.834000       15.9994           0
   20765 WT1  6185 TIP3 H1   HT     0.417000        1.0080           0
   20766 WT1  6185 TIP3 H2   HT     0.417000        1.0080           0
   20767 WT1  6186 TIP3 OH2  OT    -0.834000       15.9994           0
   20768 WT1  6186 TIP3 H1   HT     0.417000        1.0080           0
   20769 WT1  6186 TIP3 H2   HT     0.417000        1.0080           0
   20770 WT1  6187 TIP3 OH2  OT    -0.834000       15.9994           0
   20771 WT1  6187 TIP3 H1   HT     0.417000        1.0080           0
   20772 WT1  6187 TIP3 H2   HT     0.417000        1.0080           0
   20773 WT1  6188 TIP3 OH2  OT    -0.834000       15.9994           0
   20774 WT1  6188 TIP3 H1   HT     0.417000        1.0080           0
   20775 WT1  6188 TIP3 H2   HT     0.417000        1.0080           0
   20776 WT1  6190 TIP3 OH2  OT    -0.834000       15.9994           0
   20777 WT1  6190 TIP3 H1   HT     0.417000        1.0080           0
   20778 WT1  6190 TIP3 H2   HT     0.417000        1.0080           0
   20779 WT1  6191 TIP3 OH2  OT    -0.834000       15.9994           0
   20780 WT1  6191 TIP3 H1   HT     0.417000        1.0080           0
   20781 WT1  6191 TIP3 H2   HT     0.417000        1.0080           0
   20782 WT1  6192 TIP3 OH2  OT    -0.834000       15.9994           0
   20783 WT1  6192 TIP3 H1   HT     0.417000        1.0080           0
   20784 WT1  6192 TIP3 H2   HT     0.417000        1.0080           0
   20785 WT1  6193 TIP3 OH2  OT    -0.834000       15.9994           0
   20786 WT1  6193 TIP3 H1   HT     0.417000        1.0080           0
   20787 WT1  6193 TIP3 H2   HT     0.417000        1.0080           0
   20788 WT1  6194 TIP3 OH2  OT    -0.834000       15.9994           0
   20789 WT1  6194 TIP3 H1   HT     0.417000        1.0080           0
   20790 WT1  6194 TIP3 H2   HT     0.417000        1.0080           0
   20791 WT1  6195 TIP3 OH2  OT    -0.834000       15.9994           0
   20792 WT1  6195 TIP3 H1   HT     0.417000        1.0080           0
   20793 WT1  6195 TIP3 H2   HT     0.417000        1.0080           0
   20794 WT1  6196 TIP3 OH2  OT    -0.834000       15.9994           0
   20795 WT1  6196 TIP3 H1   HT     0.417000        1.0080           0
   20796 WT1  6196 TIP3 H2   HT     0.417000        1.0080           0
   20797 WT1  6197 TIP3 OH2  OT    -0.834000       15.9994           0
   20798 WT1  6197 TIP3 H1   HT     0.417000        1.0080           0
   20799 WT1  6197 TIP3 H2   HT     0.417000        1.0080           0
   20800 WT1  6198 TIP3 OH2  OT    -0.834000       15.9994           0
   20801 WT1  6198 TIP3 H1   HT     0.417000        1.0080           0
   20802 WT1  6198 TIP3 H2   HT     0.417000        1.0080           0
   20803 WT1  6199 TIP3 OH2  OT    -0.834000       15.9994           0
   20804 WT1  6199 TIP3 H1   HT     0.417000        1.0080           0
   20805 WT1  6199 TIP3 H2   HT     0.417000        1.0080           0
   20806 WT1  6200 TIP3 OH2  OT    -0.834000       15.9994           0
   20807 WT1  6200 TIP3 H1   HT     0.417000        1.0080           0
   20808 WT1  6200 TIP3 H2   HT     0.417000        1.0080           0
   20809 WT1  6201 TIP3 OH2  OT    -0.834000       15.9994           0
   20810 WT1  6201 TIP3 H1   HT     0.417000        1.0080           0
   20811 WT1  6201 TIP3 H2   HT     0.417000        1.0080           0
   20812 WT1  6202 TIP3 OH2  OT    -0.834000       15.9994           0
   20813 WT1  6202 TIP3 H1   HT     0.417000        1.0080           0
   20814 WT1  6202 TIP3 H2   HT     0.417000        1.0080           0
   20815 WT1  6203 TIP3 OH2  OT    -0.834000       15.9994           0
   20816 WT1  6203 TIP3 H1   HT     0.417000        1.0080           0
   20817 WT1  6203 TIP3 H2   HT     0.417000        1.0080           0
   20818 WT1  6204 TIP3 OH2  OT    -0.834000       15.9994           0
   20819 WT1  6204 TIP3 H1   HT     0.417000        1.0080           0
   20820 WT1  6204 TIP3 H2   HT     0.417000        1.0080           0
   20821 WT1  6205 TIP3 OH2  OT    -0.834000       15.9994           0
   20822 WT1  6205 TIP3 H1   HT     0.417000        1.0080           0
   20823 WT1  6205 TIP3 H2   HT     0.417000        1.0080           0
   20824 WT1  6206 TIP3 OH2  OT    -0.834000       15.9994           0
   20825 WT1  6206 TIP3 H1   HT     0.417000        1.0080           0
   20826 WT1  6206 TIP3 H2   HT     0.417000        1.0080           0
   20827 WT1  6207 TIP3 OH2  OT    -0.834000       15.9994           0
   20828 WT1  6207 TIP3 H1   HT     0.417000        1.0080           0
   20829 WT1  6207 TIP3 H2   HT     0.417000        1.0080           0
   20830 WT1  6208 TIP3 OH2  OT    -0.834000       15.9994           0
   20831 WT1  6208 TIP3 H1   HT     0.417000        1.0080           0
   20832 WT1  6208 TIP3 H2   HT     0.417000        1.0080           0
   20833 WT1  6209 TIP3 OH2  OT    -0.834000       15.9994           0
   20834 WT1  6209 TIP3 H1   HT     0.417000        1.0080           0
   20835 WT1  6209 TIP3 H2   HT     0.417000        1.0080           0
   20836 WT1  6210 TIP3 OH2  OT    -0.834000       15.9994           0
   20837 WT1  6210 TIP3 H1   HT     0.417000        1.0080           0
   20838 WT1  6210 TIP3 H2   HT     0.417000        1.0080           0
   20839 WT1  6212 TIP3 OH2  OT    -0.834000       15.9994           0
   20840 WT1  6212 TIP3 H1   HT     0.417000        1.0080           0
   20841 WT1  6212 TIP3 H2   HT     0.417000        1.0080           0
   20842 WT1  6214 TIP3 OH2  OT    -0.834000       15.9994           0
   20843 WT1  6214 TIP3 H1   HT     0.417000        1.0080           0
   20844 WT1  6214 TIP3 H2   HT     0.417000        1.0080           0
   20845 WT1  6215 TIP3 OH2  OT    -0.834000       15.9994           0
   20846 WT1  6215 TIP3 H1   HT     0.417000        1.0080           0
   20847 WT1  6215 TIP3 H2   HT     0.417000        1.0080           0
   20848 WT1  6216 TIP3 OH2  OT    -0.834000       15.9994           0
   20849 WT1  6216 TIP3 H1   HT     0.417000        1.0080           0
   20850 WT1  6216 TIP3 H2   HT     0.417000        1.0080           0
   20851 WT1  6217 TIP3 OH2  OT    -0.834000       15.9994           0
   20852 WT1  6217 TIP3 H1   HT     0.417000        1.0080           0
   20853 WT1  6217 TIP3 H2   HT     0.417000        1.0080           0
   20854 WT1  6218 TIP3 OH2  OT    -0.834000       15.9994           0
   20855 WT1  6218 TIP3 H1   HT     0.417000        1.0080           0
   20856 WT1  6218 TIP3 H2   HT     0.417000        1.0080           0
   20857 WT1  6219 TIP3 OH2  OT    -0.834000       15.9994           0
   20858 WT1  6219 TIP3 H1   HT     0.417000        1.0080           0
   20859 WT1  6219 TIP3 H2   HT     0.417000        1.0080           0
   20860 WT1  6220 TIP3 OH2  OT    -0.834000       15.9994           0
   20861 WT1  6220 TIP3 H1   HT     0.417000        1.0080           0
   20862 WT1  6220 TIP3 H2   HT     0.417000        1.0080           0
   20863 WT1  6221 TIP3 OH2  OT    -0.834000       15.9994           0
   20864 WT1  6221 TIP3 H1   HT     0.417000        1.0080           0
   20865 WT1  6221 TIP3 H2   HT     0.417000        1.0080           0
   20866 WT1  6222 TIP3 OH2  OT    -0.834000       15.9994           0
   20867 WT1  6222 TIP3 H1   HT     0.417000        1.0080           0
   20868 WT1  6222 TIP3 H2   HT     0.417000        1.0080           0
   20869 WT1  6223 TIP3 OH2  OT    -0.834000       15.9994           0
   20870 WT1  6223 TIP3 H1   HT     0.417000        1.0080           0
   20871 WT1  6223 TIP3 H2   HT     0.417000        1.0080           0
   20872 WT1  6224 TIP3 OH2  OT    -0.834000       15.9994           0
   20873 WT1  6224 TIP3 H1   HT     0.417000        1.0080           0
   20874 WT1  6224 TIP3 H2   HT     0.417000        1.0080           0
   20875 WT1  6225 TIP3 OH2  OT    -0.834000       15.9994           0
   20876 WT1  6225 TIP3 H1   HT     0.417000        1.0080           0
   20877 WT1  6225 TIP3 H2   HT     0.417000        1.0080           0
   20878 WT1  6226 TIP3 OH2  OT    -0.834000       15.9994           0
   20879 WT1  6226 TIP3 H1   HT     0.417000        1.0080           0
   20880 WT1  6226 TIP3 H2   HT     0.417000        1.0080           0
   20881 WT1  6227 TIP3 OH2  OT    -0.834000       15.9994           0
   20882 WT1  6227 TIP3 H1   HT     0.417000        1.0080           0
   20883 WT1  6227 TIP3 H2   HT     0.417000        1.0080           0
   20884 WT1  6228 TIP3 OH2  OT    -0.834000       15.9994           0
   20885 WT1  6228 TIP3 H1   HT     0.417000        1.0080           0
   20886 WT1  6228 TIP3 H2   HT     0.417000        1.0080           0
   20887 WT1  6230 TIP3 OH2  OT    -0.834000       15.9994           0
   20888 WT1  6230 TIP3 H1   HT     0.417000        1.0080           0
   20889 WT1  6230 TIP3 H2   HT     0.417000        1.0080           0
   20890 WT1  6231 TIP3 OH2  OT    -0.834000       15.9994           0
   20891 WT1  6231 TIP3 H1   HT     0.417000        1.0080           0
   20892 WT1  6231 TIP3 H2   HT     0.417000        1.0080           0
   20893 WT1  6233 TIP3 OH2  OT    -0.834000       15.9994           0
   20894 WT1  6233 TIP3 H1   HT     0.417000        1.0080           0
   20895 WT1  6233 TIP3 H2   HT     0.417000        1.0080           0
   20896 WT1  6236 TIP3 OH2  OT    -0.834000       15.9994           0
   20897 WT1  6236 TIP3 H1   HT     0.417000        1.0080           0
   20898 WT1  6236 TIP3 H2   HT     0.417000        1.0080           0
   20899 WT1  6237 TIP3 OH2  OT    -0.834000       15.9994           0
   20900 WT1  6237 TIP3 H1   HT     0.417000        1.0080           0
   20901 WT1  6237 TIP3 H2   HT     0.417000        1.0080           0
   20902 WT1  6238 TIP3 OH2  OT    -0.834000       15.9994           0
   20903 WT1  6238 TIP3 H1   HT     0.417000        1.0080           0
   20904 WT1  6238 TIP3 H2   HT     0.417000        1.0080           0
   20905 WT1  6239 TIP3 OH2  OT    -0.834000       15.9994           0
   20906 WT1  6239 TIP3 H1   HT     0.417000        1.0080           0
   20907 WT1  6239 TIP3 H2   HT     0.417000        1.0080           0
   20908 WT1  6240 TIP3 OH2  OT    -0.834000       15.9994           0
   20909 WT1  6240 TIP3 H1   HT     0.417000        1.0080           0
   20910 WT1  6240 TIP3 H2   HT     0.417000        1.0080           0
   20911 WT1  6241 TIP3 OH2  OT    -0.834000       15.9994           0
   20912 WT1  6241 TIP3 H1   HT     0.417000        1.0080           0
   20913 WT1  6241 TIP3 H2   HT     0.417000        1.0080           0
   20914 WT1  6242 TIP3 OH2  OT    -0.834000       15.9994           0
   20915 WT1  6242 TIP3 H1   HT     0.417000        1.0080           0
   20916 WT1  6242 TIP3 H2   HT     0.417000        1.0080           0
   20917 WT1  6243 TIP3 OH2  OT    -0.834000       15.9994           0
   20918 WT1  6243 TIP3 H1   HT     0.417000        1.0080           0
   20919 WT1  6243 TIP3 H2   HT     0.417000        1.0080           0
   20920 WT1  6244 TIP3 OH2  OT    -0.834000       15.9994           0
   20921 WT1  6244 TIP3 H1   HT     0.417000        1.0080           0
   20922 WT1  6244 TIP3 H2   HT     0.417000        1.0080           0
   20923 WT1  6245 TIP3 OH2  OT    -0.834000       15.9994           0
   20924 WT1  6245 TIP3 H1   HT     0.417000        1.0080           0
   20925 WT1  6245 TIP3 H2   HT     0.417000        1.0080           0
   20926 WT1  6246 TIP3 OH2  OT    -0.834000       15.9994           0
   20927 WT1  6246 TIP3 H1   HT     0.417000        1.0080           0
   20928 WT1  6246 TIP3 H2   HT     0.417000        1.0080           0
   20929 WT1  6247 TIP3 OH2  OT    -0.834000       15.9994           0
   20930 WT1  6247 TIP3 H1   HT     0.417000        1.0080           0
   20931 WT1  6247 TIP3 H2   HT     0.417000        1.0080           0
   20932 WT1  6248 TIP3 OH2  OT    -0.834000       15.9994           0
   20933 WT1  6248 TIP3 H1   HT     0.417000        1.0080           0
   20934 WT1  6248 TIP3 H2   HT     0.417000        1.0080           0
   20935 WT1  6249 TIP3 OH2  OT    -0.834000       15.9994           0
   20936 WT1  6249 TIP3 H1   HT     0.417000        1.0080           0
   20937 WT1  6249 TIP3 H2   HT     0.417000        1.0080           0
   20938 WT1  6250 TIP3 OH2  OT    -0.834000       15.9994           0
   20939 WT1  6250 TIP3 H1   HT     0.417000        1.0080           0
   20940 WT1  6250 TIP3 H2   HT     0.417000        1.0080           0
   20941 WT1  6251 TIP3 OH2  OT    -0.834000       15.9994           0
   20942 WT1  6251 TIP3 H1   HT     0.417000        1.0080           0
   20943 WT1  6251 TIP3 H2   HT     0.417000        1.0080           0
   20944 WT1  6252 TIP3 OH2  OT    -0.834000       15.9994           0
   20945 WT1  6252 TIP3 H1   HT     0.417000        1.0080           0
   20946 WT1  6252 TIP3 H2   HT     0.417000        1.0080           0
   20947 WT1  6253 TIP3 OH2  OT    -0.834000       15.9994           0
   20948 WT1  6253 TIP3 H1   HT     0.417000        1.0080           0
   20949 WT1  6253 TIP3 H2   HT     0.417000        1.0080           0
   20950 WT1  6254 TIP3 OH2  OT    -0.834000       15.9994           0
   20951 WT1  6254 TIP3 H1   HT     0.417000        1.0080           0
   20952 WT1  6254 TIP3 H2   HT     0.417000        1.0080           0
   20953 WT1  6256 TIP3 OH2  OT    -0.834000       15.9994           0
   20954 WT1  6256 TIP3 H1   HT     0.417000        1.0080           0
   20955 WT1  6256 TIP3 H2   HT     0.417000        1.0080           0
   20956 WT1  6257 TIP3 OH2  OT    -0.834000       15.9994           0
   20957 WT1  6257 TIP3 H1   HT     0.417000        1.0080           0
   20958 WT1  6257 TIP3 H2   HT     0.417000        1.0080           0
   20959 WT1  6258 TIP3 OH2  OT    -0.834000       15.9994           0
   20960 WT1  6258 TIP3 H1   HT     0.417000        1.0080           0
   20961 WT1  6258 TIP3 H2   HT     0.417000        1.0080           0
   20962 WT1  6260 TIP3 OH2  OT    -0.834000       15.9994           0
   20963 WT1  6260 TIP3 H1   HT     0.417000        1.0080           0
   20964 WT1  6260 TIP3 H2   HT     0.417000        1.0080           0
   20965 WT1  6261 TIP3 OH2  OT    -0.834000       15.9994           0
   20966 WT1  6261 TIP3 H1   HT     0.417000        1.0080           0
   20967 WT1  6261 TIP3 H2   HT     0.417000        1.0080           0
   20968 WT1  6262 TIP3 OH2  OT    -0.834000       15.9994           0
   20969 WT1  6262 TIP3 H1   HT     0.417000        1.0080           0
   20970 WT1  6262 TIP3 H2   HT     0.417000        1.0080           0
   20971 WT1  6263 TIP3 OH2  OT    -0.834000       15.9994           0
   20972 WT1  6263 TIP3 H1   HT     0.417000        1.0080           0
   20973 WT1  6263 TIP3 H2   HT     0.417000        1.0080           0
   20974 WT1  6264 TIP3 OH2  OT    -0.834000       15.9994           0
   20975 WT1  6264 TIP3 H1   HT     0.417000        1.0080           0
   20976 WT1  6264 TIP3 H2   HT     0.417000        1.0080           0
   20977 WT1  6265 TIP3 OH2  OT    -0.834000       15.9994           0
   20978 WT1  6265 TIP3 H1   HT     0.417000        1.0080           0
   20979 WT1  6265 TIP3 H2   HT     0.417000        1.0080           0
   20980 WT1  6266 TIP3 OH2  OT    -0.834000       15.9994           0
   20981 WT1  6266 TIP3 H1   HT     0.417000        1.0080           0
   20982 WT1  6266 TIP3 H2   HT     0.417000        1.0080           0
   20983 WT1  6267 TIP3 OH2  OT    -0.834000       15.9994           0
   20984 WT1  6267 TIP3 H1   HT     0.417000        1.0080           0
   20985 WT1  6267 TIP3 H2   HT     0.417000        1.0080           0
   20986 WT1  6268 TIP3 OH2  OT    -0.834000       15.9994           0
   20987 WT1  6268 TIP3 H1   HT     0.417000        1.0080           0
   20988 WT1  6268 TIP3 H2   HT     0.417000        1.0080           0
   20989 WT1  6269 TIP3 OH2  OT    -0.834000       15.9994           0
   20990 WT1  6269 TIP3 H1   HT     0.417000        1.0080           0
   20991 WT1  6269 TIP3 H2   HT     0.417000        1.0080           0
   20992 WT1  6270 TIP3 OH2  OT    -0.834000       15.9994           0
   20993 WT1  6270 TIP3 H1   HT     0.417000        1.0080           0
   20994 WT1  6270 TIP3 H2   HT     0.417000        1.0080           0
   20995 WT1  6271 TIP3 OH2  OT    -0.834000       15.9994           0
   20996 WT1  6271 TIP3 H1   HT     0.417000        1.0080           0
   20997 WT1  6271 TIP3 H2   HT     0.417000        1.0080           0
   20998 WT1  6272 TIP3 OH2  OT    -0.834000       15.9994           0
   20999 WT1  6272 TIP3 H1   HT     0.417000        1.0080           0
   21000 WT1  6272 TIP3 H2   HT     0.417000        1.0080           0
   21001 WT1  6273 TIP3 OH2  OT    -0.834000       15.9994           0
   21002 WT1  6273 TIP3 H1   HT     0.417000        1.0080           0
   21003 WT1  6273 TIP3 H2   HT     0.417000        1.0080           0
   21004 WT1  6274 TIP3 OH2  OT    -0.834000       15.9994           0
   21005 WT1  6274 TIP3 H1   HT     0.417000        1.0080           0
   21006 WT1  6274 TIP3 H2   HT     0.417000        1.0080           0
   21007 WT1  6275 TIP3 OH2  OT    -0.834000       15.9994           0
   21008 WT1  6275 TIP3 H1   HT     0.417000        1.0080           0
   21009 WT1  6275 TIP3 H2   HT     0.417000        1.0080           0
   21010 WT1  6276 TIP3 OH2  OT    -0.834000       15.9994           0
   21011 WT1  6276 TIP3 H1   HT     0.417000        1.0080           0
   21012 WT1  6276 TIP3 H2   HT     0.417000        1.0080           0
   21013 WT1  6277 TIP3 OH2  OT    -0.834000       15.9994           0
   21014 WT1  6277 TIP3 H1   HT     0.417000        1.0080           0
   21015 WT1  6277 TIP3 H2   HT     0.417000        1.0080           0
   21016 WT1  6278 TIP3 OH2  OT    -0.834000       15.9994           0
   21017 WT1  6278 TIP3 H1   HT     0.417000        1.0080           0
   21018 WT1  6278 TIP3 H2   HT     0.417000        1.0080           0
   21019 WT1  6279 TIP3 OH2  OT    -0.834000       15.9994           0
   21020 WT1  6279 TIP3 H1   HT     0.417000        1.0080           0
   21021 WT1  6279 TIP3 H2   HT     0.417000        1.0080           0
   21022 WT1  6281 TIP3 OH2  OT    -0.834000       15.9994           0
   21023 WT1  6281 TIP3 H1   HT     0.417000        1.0080           0
   21024 WT1  6281 TIP3 H2   HT     0.417000        1.0080           0
   21025 WT1  6282 TIP3 OH2  OT    -0.834000       15.9994           0
   21026 WT1  6282 TIP3 H1   HT     0.417000        1.0080           0
   21027 WT1  6282 TIP3 H2   HT     0.417000        1.0080           0
   21028 WT1  6283 TIP3 OH2  OT    -0.834000       15.9994           0
   21029 WT1  6283 TIP3 H1   HT     0.417000        1.0080           0
   21030 WT1  6283 TIP3 H2   HT     0.417000        1.0080           0
   21031 WT1  6284 TIP3 OH2  OT    -0.834000       15.9994           0
   21032 WT1  6284 TIP3 H1   HT     0.417000        1.0080           0
   21033 WT1  6284 TIP3 H2   HT     0.417000        1.0080           0
   21034 WT1  6285 TIP3 OH2  OT    -0.834000       15.9994           0
   21035 WT1  6285 TIP3 H1   HT     0.417000        1.0080           0
   21036 WT1  6285 TIP3 H2   HT     0.417000        1.0080           0
   21037 WT1  6286 TIP3 OH2  OT    -0.834000       15.9994           0
   21038 WT1  6286 TIP3 H1   HT     0.417000        1.0080           0
   21039 WT1  6286 TIP3 H2   HT     0.417000        1.0080           0
   21040 WT1  6287 TIP3 OH2  OT    -0.834000       15.9994           0
   21041 WT1  6287 TIP3 H1   HT     0.417000        1.0080           0
   21042 WT1  6287 TIP3 H2   HT     0.417000        1.0080           0
   21043 WT1  6288 TIP3 OH2  OT    -0.834000       15.9994           0
   21044 WT1  6288 TIP3 H1   HT     0.417000        1.0080           0
   21045 WT1  6288 TIP3 H2   HT     0.417000        1.0080           0
   21046 WT1  6289 TIP3 OH2  OT    -0.834000       15.9994           0
   21047 WT1  6289 TIP3 H1   HT     0.417000        1.0080           0
   21048 WT1  6289 TIP3 H2   HT     0.417000        1.0080           0
   21049 WT1  6290 TIP3 OH2  OT    -0.834000       15.9994           0
   21050 WT1  6290 TIP3 H1   HT     0.417000        1.0080           0
   21051 WT1  6290 TIP3 H2   HT     0.417000        1.0080           0
   21052 WT1  6291 TIP3 OH2  OT    -0.834000       15.9994           0
   21053 WT1  6291 TIP3 H1   HT     0.417000        1.0080           0
   21054 WT1  6291 TIP3 H2   HT     0.417000        1.0080           0
   21055 WT1  6292 TIP3 OH2  OT    -0.834000       15.9994           0
   21056 WT1  6292 TIP3 H1   HT     0.417000        1.0080           0
   21057 WT1  6292 TIP3 H2   HT     0.417000        1.0080           0
   21058 WT1  6293 TIP3 OH2  OT    -0.834000       15.9994           0
   21059 WT1  6293 TIP3 H1   HT     0.417000        1.0080           0
   21060 WT1  6293 TIP3 H2   HT     0.417000        1.0080           0
   21061 WT1  6294 TIP3 OH2  OT    -0.834000       15.9994           0
   21062 WT1  6294 TIP3 H1   HT     0.417000        1.0080           0
   21063 WT1  6294 TIP3 H2   HT     0.417000        1.0080           0
   21064 WT1  6296 TIP3 OH2  OT    -0.834000       15.9994           0
   21065 WT1  6296 TIP3 H1   HT     0.417000        1.0080           0
   21066 WT1  6296 TIP3 H2   HT     0.417000        1.0080           0
   21067 WT1  6297 TIP3 OH2  OT    -0.834000       15.9994           0
   21068 WT1  6297 TIP3 H1   HT     0.417000        1.0080           0
   21069 WT1  6297 TIP3 H2   HT     0.417000        1.0080           0
   21070 WT1  6298 TIP3 OH2  OT    -0.834000       15.9994           0
   21071 WT1  6298 TIP3 H1   HT     0.417000        1.0080           0
   21072 WT1  6298 TIP3 H2   HT     0.417000        1.0080           0
   21073 WT1  6300 TIP3 OH2  OT    -0.834000       15.9994           0
   21074 WT1  6300 TIP3 H1   HT     0.417000        1.0080           0
   21075 WT1  6300 TIP3 H2   HT     0.417000        1.0080           0
   21076 WT1  6302 TIP3 OH2  OT    -0.834000       15.9994           0
   21077 WT1  6302 TIP3 H1   HT     0.417000        1.0080           0
   21078 WT1  6302 TIP3 H2   HT     0.417000        1.0080           0
   21079 WT1  6303 TIP3 OH2  OT    -0.834000       15.9994           0
   21080 WT1  6303 TIP3 H1   HT     0.417000        1.0080           0
   21081 WT1  6303 TIP3 H2   HT     0.417000        1.0080           0
   21082 WT1  6304 TIP3 OH2  OT    -0.834000       15.9994           0
   21083 WT1  6304 TIP3 H1   HT     0.417000        1.0080           0
   21084 WT1  6304 TIP3 H2   HT     0.417000        1.0080           0
   21085 WT1  6305 TIP3 OH2  OT    -0.834000       15.9994           0
   21086 WT1  6305 TIP3 H1   HT     0.417000        1.0080           0
   21087 WT1  6305 TIP3 H2   HT     0.417000        1.0080           0
   21088 WT1  6306 TIP3 OH2  OT    -0.834000       15.9994           0
   21089 WT1  6306 TIP3 H1   HT     0.417000        1.0080           0
   21090 WT1  6306 TIP3 H2   HT     0.417000        1.0080           0
   21091 WT1  6307 TIP3 OH2  OT    -0.834000       15.9994           0
   21092 WT1  6307 TIP3 H1   HT     0.417000        1.0080           0
   21093 WT1  6307 TIP3 H2   HT     0.417000        1.0080           0
   21094 WT1  6308 TIP3 OH2  OT    -0.834000       15.9994           0
   21095 WT1  6308 TIP3 H1   HT     0.417000        1.0080           0
   21096 WT1  6308 TIP3 H2   HT     0.417000        1.0080           0
   21097 WT1  6309 TIP3 OH2  OT    -0.834000       15.9994           0
   21098 WT1  6309 TIP3 H1   HT     0.417000        1.0080           0
   21099 WT1  6309 TIP3 H2   HT     0.417000        1.0080           0
   21100 WT1  6310 TIP3 OH2  OT    -0.834000       15.9994           0
   21101 WT1  6310 TIP3 H1   HT     0.417000        1.0080           0
   21102 WT1  6310 TIP3 H2   HT     0.417000        1.0080           0
   21103 WT1  6311 TIP3 OH2  OT    -0.834000       15.9994           0
   21104 WT1  6311 TIP3 H1   HT     0.417000        1.0080           0
   21105 WT1  6311 TIP3 H2   HT     0.417000        1.0080           0
   21106 WT1  6312 TIP3 OH2  OT    -0.834000       15.9994           0
   21107 WT1  6312 TIP3 H1   HT     0.417000        1.0080           0
   21108 WT1  6312 TIP3 H2   HT     0.417000        1.0080           0
   21109 WT1  6313 TIP3 OH2  OT    -0.834000       15.9994           0
   21110 WT1  6313 TIP3 H1   HT     0.417000        1.0080           0
   21111 WT1  6313 TIP3 H2   HT     0.417000        1.0080           0
   21112 WT1  6314 TIP3 OH2  OT    -0.834000       15.9994           0
   21113 WT1  6314 TIP3 H1   HT     0.417000        1.0080           0
   21114 WT1  6314 TIP3 H2   HT     0.417000        1.0080           0
   21115 WT1  6315 TIP3 OH2  OT    -0.834000       15.9994           0
   21116 WT1  6315 TIP3 H1   HT     0.417000        1.0080           0
   21117 WT1  6315 TIP3 H2   HT     0.417000        1.0080           0
   21118 WT1  6316 TIP3 OH2  OT    -0.834000       15.9994           0
   21119 WT1  6316 TIP3 H1   HT     0.417000        1.0080           0
   21120 WT1  6316 TIP3 H2   HT     0.417000        1.0080           0
   21121 WT1  6317 TIP3 OH2  OT    -0.834000       15.9994           0
   21122 WT1  6317 TIP3 H1   HT     0.417000        1.0080           0
   21123 WT1  6317 TIP3 H2   HT     0.417000        1.0080           0
   21124 WT1  6318 TIP3 OH2  OT    -0.834000       15.9994           0
   21125 WT1  6318 TIP3 H1   HT     0.417000        1.0080           0
   21126 WT1  6318 TIP3 H2   HT     0.417000        1.0080           0
   21127 WT1  6319 TIP3 OH2  OT    -0.834000       15.9994           0
   21128 WT1  6319 TIP3 H1   HT     0.417000        1.0080           0
   21129 WT1  6319 TIP3 H2   HT     0.417000        1.0080           0
   21130 WT1  6321 TIP3 OH2  OT    -0.834000       15.9994           0
   21131 WT1  6321 TIP3 H1   HT     0.417000        1.0080           0
   21132 WT1  6321 TIP3 H2   HT     0.417000        1.0080           0
   21133 WT1  6323 TIP3 OH2  OT    -0.834000       15.9994           0
   21134 WT1  6323 TIP3 H1   HT     0.417000        1.0080           0
   21135 WT1  6323 TIP3 H2   HT     0.417000        1.0080           0
   21136 WT1  6324 TIP3 OH2  OT    -0.834000       15.9994           0
   21137 WT1  6324 TIP3 H1   HT     0.417000        1.0080           0
   21138 WT1  6324 TIP3 H2   HT     0.417000        1.0080           0
   21139 WT1  6325 TIP3 OH2  OT    -0.834000       15.9994           0
   21140 WT1  6325 TIP3 H1   HT     0.417000        1.0080           0
   21141 WT1  6325 TIP3 H2   HT     0.417000        1.0080           0
   21142 WT1  6326 TIP3 OH2  OT    -0.834000       15.9994           0
   21143 WT1  6326 TIP3 H1   HT     0.417000        1.0080           0
   21144 WT1  6326 TIP3 H2   HT     0.417000        1.0080           0
   21145 WT1  6327 TIP3 OH2  OT    -0.834000       15.9994           0
   21146 WT1  6327 TIP3 H1   HT     0.417000        1.0080           0
   21147 WT1  6327 TIP3 H2   HT     0.417000        1.0080           0
   21148 WT1  6328 TIP3 OH2  OT    -0.834000       15.9994           0
   21149 WT1  6328 TIP3 H1   HT     0.417000        1.0080           0
   21150 WT1  6328 TIP3 H2   HT     0.417000        1.0080           0
   21151 WT1  6329 TIP3 OH2  OT    -0.834000       15.9994           0
   21152 WT1  6329 TIP3 H1   HT     0.417000        1.0080           0
   21153 WT1  6329 TIP3 H2   HT     0.417000        1.0080           0
   21154 WT1  6330 TIP3 OH2  OT    -0.834000       15.9994           0
   21155 WT1  6330 TIP3 H1   HT     0.417000        1.0080           0
   21156 WT1  6330 TIP3 H2   HT     0.417000        1.0080           0
   21157 WT1  6331 TIP3 OH2  OT    -0.834000       15.9994           0
   21158 WT1  6331 TIP3 H1   HT     0.417000        1.0080           0
   21159 WT1  6331 TIP3 H2   HT     0.417000        1.0080           0
   21160 WT1  6332 TIP3 OH2  OT    -0.834000       15.9994           0
   21161 WT1  6332 TIP3 H1   HT     0.417000        1.0080           0
   21162 WT1  6332 TIP3 H2   HT     0.417000        1.0080           0
   21163 WT1  6333 TIP3 OH2  OT    -0.834000       15.9994           0
   21164 WT1  6333 TIP3 H1   HT     0.417000        1.0080           0
   21165 WT1  6333 TIP3 H2   HT     0.417000        1.0080           0
   21166 WT1  6334 TIP3 OH2  OT    -0.834000       15.9994           0
   21167 WT1  6334 TIP3 H1   HT     0.417000        1.0080           0
   21168 WT1  6334 TIP3 H2   HT     0.417000        1.0080           0
   21169 WT1  6335 TIP3 OH2  OT    -0.834000       15.9994           0
   21170 WT1  6335 TIP3 H1   HT     0.417000        1.0080           0
   21171 WT1  6335 TIP3 H2   HT     0.417000        1.0080           0
   21172 WT1  6336 TIP3 OH2  OT    -0.834000       15.9994           0
   21173 WT1  6336 TIP3 H1   HT     0.417000        1.0080           0
   21174 WT1  6336 TIP3 H2   HT     0.417000        1.0080           0
   21175 WT1  6337 TIP3 OH2  OT    -0.834000       15.9994           0
   21176 WT1  6337 TIP3 H1   HT     0.417000        1.0080           0
   21177 WT1  6337 TIP3 H2   HT     0.417000        1.0080           0
   21178 WT1  6338 TIP3 OH2  OT    -0.834000       15.9994           0
   21179 WT1  6338 TIP3 H1   HT     0.417000        1.0080           0
   21180 WT1  6338 TIP3 H2   HT     0.417000        1.0080           0
   21181 WT1  6339 TIP3 OH2  OT    -0.834000       15.9994           0
   21182 WT1  6339 TIP3 H1   HT     0.417000        1.0080           0
   21183 WT1  6339 TIP3 H2   HT     0.417000        1.0080           0
   21184 WT1  6341 TIP3 OH2  OT    -0.834000       15.9994           0
   21185 WT1  6341 TIP3 H1   HT     0.417000        1.0080           0
   21186 WT1  6341 TIP3 H2   HT     0.417000        1.0080           0
   21187 WT1  6342 TIP3 OH2  OT    -0.834000       15.9994           0
   21188 WT1  6342 TIP3 H1   HT     0.417000        1.0080           0
   21189 WT1  6342 TIP3 H2   HT     0.417000        1.0080           0
   21190 WT1  6343 TIP3 OH2  OT    -0.834000       15.9994           0
   21191 WT1  6343 TIP3 H1   HT     0.417000        1.0080           0
   21192 WT1  6343 TIP3 H2   HT     0.417000        1.0080           0
   21193 WT1  6344 TIP3 OH2  OT    -0.834000       15.9994           0
   21194 WT1  6344 TIP3 H1   HT     0.417000        1.0080           0
   21195 WT1  6344 TIP3 H2   HT     0.417000        1.0080           0
   21196 WT1  6345 TIP3 OH2  OT    -0.834000       15.9994           0
   21197 WT1  6345 TIP3 H1   HT     0.417000        1.0080           0
   21198 WT1  6345 TIP3 H2   HT     0.417000        1.0080           0
   21199 WT1  6346 TIP3 OH2  OT    -0.834000       15.9994           0
   21200 WT1  6346 TIP3 H1   HT     0.417000        1.0080           0
   21201 WT1  6346 TIP3 H2   HT     0.417000        1.0080           0
   21202 WT1  6347 TIP3 OH2  OT    -0.834000       15.9994           0
   21203 WT1  6347 TIP3 H1   HT     0.417000        1.0080           0
   21204 WT1  6347 TIP3 H2   HT     0.417000        1.0080           0
   21205 WT1  6348 TIP3 OH2  OT    -0.834000       15.9994           0
   21206 WT1  6348 TIP3 H1   HT     0.417000        1.0080           0
   21207 WT1  6348 TIP3 H2   HT     0.417000        1.0080           0
   21208 WT1  6349 TIP3 OH2  OT    -0.834000       15.9994           0
   21209 WT1  6349 TIP3 H1   HT     0.417000        1.0080           0
   21210 WT1  6349 TIP3 H2   HT     0.417000        1.0080           0
   21211 WT1  6351 TIP3 OH2  OT    -0.834000       15.9994           0
   21212 WT1  6351 TIP3 H1   HT     0.417000        1.0080           0
   21213 WT1  6351 TIP3 H2   HT     0.417000        1.0080           0
   21214 WT1  6352 TIP3 OH2  OT    -0.834000       15.9994           0
   21215 WT1  6352 TIP3 H1   HT     0.417000        1.0080           0
   21216 WT1  6352 TIP3 H2   HT     0.417000        1.0080           0
   21217 WT1  6353 TIP3 OH2  OT    -0.834000       15.9994           0
   21218 WT1  6353 TIP3 H1   HT     0.417000        1.0080           0
   21219 WT1  6353 TIP3 H2   HT     0.417000        1.0080           0
   21220 WT1  6354 TIP3 OH2  OT    -0.834000       15.9994           0
   21221 WT1  6354 TIP3 H1   HT     0.417000        1.0080           0
   21222 WT1  6354 TIP3 H2   HT     0.417000        1.0080           0
   21223 WT1  6355 TIP3 OH2  OT    -0.834000       15.9994           0
   21224 WT1  6355 TIP3 H1   HT     0.417000        1.0080           0
   21225 WT1  6355 TIP3 H2   HT     0.417000        1.0080           0
   21226 WT1  6356 TIP3 OH2  OT    -0.834000       15.9994           0
   21227 WT1  6356 TIP3 H1   HT     0.417000        1.0080           0
   21228 WT1  6356 TIP3 H2   HT     0.417000        1.0080           0
   21229 WT1  6357 TIP3 OH2  OT    -0.834000       15.9994           0
   21230 WT1  6357 TIP3 H1   HT     0.417000        1.0080           0
   21231 WT1  6357 TIP3 H2   HT     0.417000        1.0080           0
   21232 WT1  6358 TIP3 OH2  OT    -0.834000       15.9994           0
   21233 WT1  6358 TIP3 H1   HT     0.417000        1.0080           0
   21234 WT1  6358 TIP3 H2   HT     0.417000        1.0080           0
   21235 WT1  6359 TIP3 OH2  OT    -0.834000       15.9994           0
   21236 WT1  6359 TIP3 H1   HT     0.417000        1.0080           0
   21237 WT1  6359 TIP3 H2   HT     0.417000        1.0080           0
   21238 WT1  6360 TIP3 OH2  OT    -0.834000       15.9994           0
   21239 WT1  6360 TIP3 H1   HT     0.417000        1.0080           0
   21240 WT1  6360 TIP3 H2   HT     0.417000        1.0080           0
   21241 WT1  6361 TIP3 OH2  OT    -0.834000       15.9994           0
   21242 WT1  6361 TIP3 H1   HT     0.417000        1.0080           0
   21243 WT1  6361 TIP3 H2   HT     0.417000        1.0080           0
   21244 WT1  6362 TIP3 OH2  OT    -0.834000       15.9994           0
   21245 WT1  6362 TIP3 H1   HT     0.417000        1.0080           0
   21246 WT1  6362 TIP3 H2   HT     0.417000        1.0080           0
   21247 WT1  6364 TIP3 OH2  OT    -0.834000       15.9994           0
   21248 WT1  6364 TIP3 H1   HT     0.417000        1.0080           0
   21249 WT1  6364 TIP3 H2   HT     0.417000        1.0080           0
   21250 WT1  6365 TIP3 OH2  OT    -0.834000       15.9994           0
   21251 WT1  6365 TIP3 H1   HT     0.417000        1.0080           0
   21252 WT1  6365 TIP3 H2   HT     0.417000        1.0080           0
   21253 WT1  6366 TIP3 OH2  OT    -0.834000       15.9994           0
   21254 WT1  6366 TIP3 H1   HT     0.417000        1.0080           0
   21255 WT1  6366 TIP3 H2   HT     0.417000        1.0080           0
   21256 WT1  6367 TIP3 OH2  OT    -0.834000       15.9994           0
   21257 WT1  6367 TIP3 H1   HT     0.417000        1.0080           0
   21258 WT1  6367 TIP3 H2   HT     0.417000        1.0080           0
   21259 WT1  6368 TIP3 OH2  OT    -0.834000       15.9994           0
   21260 WT1  6368 TIP3 H1   HT     0.417000        1.0080           0
   21261 WT1  6368 TIP3 H2   HT     0.417000        1.0080           0
   21262 WT1  6369 TIP3 OH2  OT    -0.834000       15.9994           0
   21263 WT1  6369 TIP3 H1   HT     0.417000        1.0080           0
   21264 WT1  6369 TIP3 H2   HT     0.417000        1.0080           0
   21265 WT1  6370 TIP3 OH2  OT    -0.834000       15.9994           0
   21266 WT1  6370 TIP3 H1   HT     0.417000        1.0080           0
   21267 WT1  6370 TIP3 H2   HT     0.417000        1.0080           0
   21268 WT1  6371 TIP3 OH2  OT    -0.834000       15.9994           0
   21269 WT1  6371 TIP3 H1   HT     0.417000        1.0080           0
   21270 WT1  6371 TIP3 H2   HT     0.417000        1.0080           0
   21271 WT1  6372 TIP3 OH2  OT    -0.834000       15.9994           0
   21272 WT1  6372 TIP3 H1   HT     0.417000        1.0080           0
   21273 WT1  6372 TIP3 H2   HT     0.417000        1.0080           0
   21274 WT1  6373 TIP3 OH2  OT    -0.834000       15.9994           0
   21275 WT1  6373 TIP3 H1   HT     0.417000        1.0080           0
   21276 WT1  6373 TIP3 H2   HT     0.417000        1.0080           0
   21277 WT1  6374 TIP3 OH2  OT    -0.834000       15.9994           0
   21278 WT1  6374 TIP3 H1   HT     0.417000        1.0080           0
   21279 WT1  6374 TIP3 H2   HT     0.417000        1.0080           0
   21280 WT1  6375 TIP3 OH2  OT    -0.834000       15.9994           0
   21281 WT1  6375 TIP3 H1   HT     0.417000        1.0080           0
   21282 WT1  6375 TIP3 H2   HT     0.417000        1.0080           0
   21283 WT1  6376 TIP3 OH2  OT    -0.834000       15.9994           0
   21284 WT1  6376 TIP3 H1   HT     0.417000        1.0080           0
   21285 WT1  6376 TIP3 H2   HT     0.417000        1.0080           0
   21286 WT1  6379 TIP3 OH2  OT    -0.834000       15.9994           0
   21287 WT1  6379 TIP3 H1   HT     0.417000        1.0080           0
   21288 WT1  6379 TIP3 H2   HT     0.417000        1.0080           0
   21289 WT1  6380 TIP3 OH2  OT    -0.834000       15.9994           0
   21290 WT1  6380 TIP3 H1   HT     0.417000        1.0080           0
   21291 WT1  6380 TIP3 H2   HT     0.417000        1.0080           0
   21292 WT1  6381 TIP3 OH2  OT    -0.834000       15.9994           0
   21293 WT1  6381 TIP3 H1   HT     0.417000        1.0080           0
   21294 WT1  6381 TIP3 H2   HT     0.417000        1.0080           0
   21295 WT1  6382 TIP3 OH2  OT    -0.834000       15.9994           0
   21296 WT1  6382 TIP3 H1   HT     0.417000        1.0080           0
   21297 WT1  6382 TIP3 H2   HT     0.417000        1.0080           0
   21298 WT1  6383 TIP3 OH2  OT    -0.834000       15.9994           0
   21299 WT1  6383 TIP3 H1   HT     0.417000        1.0080           0
   21300 WT1  6383 TIP3 H2   HT     0.417000        1.0080           0
   21301 WT1  6384 TIP3 OH2  OT    -0.834000       15.9994           0
   21302 WT1  6384 TIP3 H1   HT     0.417000        1.0080           0
   21303 WT1  6384 TIP3 H2   HT     0.417000        1.0080           0
   21304 WT1  6385 TIP3 OH2  OT    -0.834000       15.9994           0
   21305 WT1  6385 TIP3 H1   HT     0.417000        1.0080           0
   21306 WT1  6385 TIP3 H2   HT     0.417000        1.0080           0
   21307 WT1  6386 TIP3 OH2  OT    -0.834000       15.9994           0
   21308 WT1  6386 TIP3 H1   HT     0.417000        1.0080           0
   21309 WT1  6386 TIP3 H2   HT     0.417000        1.0080           0
   21310 WT1  6387 TIP3 OH2  OT    -0.834000       15.9994           0
   21311 WT1  6387 TIP3 H1   HT     0.417000        1.0080           0
   21312 WT1  6387 TIP3 H2   HT     0.417000        1.0080           0
   21313 WT1  6388 TIP3 OH2  OT    -0.834000       15.9994           0
   21314 WT1  6388 TIP3 H1   HT     0.417000        1.0080           0
   21315 WT1  6388 TIP3 H2   HT     0.417000        1.0080           0
   21316 WT1  6389 TIP3 OH2  OT    -0.834000       15.9994           0
   21317 WT1  6389 TIP3 H1   HT     0.417000        1.0080           0
   21318 WT1  6389 TIP3 H2   HT     0.417000        1.0080           0
   21319 WT1  6390 TIP3 OH2  OT    -0.834000       15.9994           0
   21320 WT1  6390 TIP3 H1   HT     0.417000        1.0080           0
   21321 WT1  6390 TIP3 H2   HT     0.417000        1.0080           0
   21322 WT1  6391 TIP3 OH2  OT    -0.834000       15.9994           0
   21323 WT1  6391 TIP3 H1   HT     0.417000        1.0080           0
   21324 WT1  6391 TIP3 H2   HT     0.417000        1.0080           0
   21325 WT1  6392 TIP3 OH2  OT    -0.834000       15.9994           0
   21326 WT1  6392 TIP3 H1   HT     0.417000        1.0080           0
   21327 WT1  6392 TIP3 H2   HT     0.417000        1.0080           0
   21328 WT1  6393 TIP3 OH2  OT    -0.834000       15.9994           0
   21329 WT1  6393 TIP3 H1   HT     0.417000        1.0080           0
   21330 WT1  6393 TIP3 H2   HT     0.417000        1.0080           0
   21331 WT1  6394 TIP3 OH2  OT    -0.834000       15.9994           0
   21332 WT1  6394 TIP3 H1   HT     0.417000        1.0080           0
   21333 WT1  6394 TIP3 H2   HT     0.417000        1.0080           0
   21334 WT1  6395 TIP3 OH2  OT    -0.834000       15.9994           0
   21335 WT1  6395 TIP3 H1   HT     0.417000        1.0080           0
   21336 WT1  6395 TIP3 H2   HT     0.417000        1.0080           0
   21337 WT1  6396 TIP3 OH2  OT    -0.834000       15.9994           0
   21338 WT1  6396 TIP3 H1   HT     0.417000        1.0080           0
   21339 WT1  6396 TIP3 H2   HT     0.417000        1.0080           0
   21340 WT1  6397 TIP3 OH2  OT    -0.834000       15.9994           0
   21341 WT1  6397 TIP3 H1   HT     0.417000        1.0080           0
   21342 WT1  6397 TIP3 H2   HT     0.417000        1.0080           0
   21343 WT1  6398 TIP3 OH2  OT    -0.834000       15.9994           0
   21344 WT1  6398 TIP3 H1   HT     0.417000        1.0080           0
   21345 WT1  6398 TIP3 H2   HT     0.417000        1.0080           0
   21346 WT1  6399 TIP3 OH2  OT    -0.834000       15.9994           0
   21347 WT1  6399 TIP3 H1   HT     0.417000        1.0080           0
   21348 WT1  6399 TIP3 H2   HT     0.417000        1.0080           0
   21349 WT1  6402 TIP3 OH2  OT    -0.834000       15.9994           0
   21350 WT1  6402 TIP3 H1   HT     0.417000        1.0080           0
   21351 WT1  6402 TIP3 H2   HT     0.417000        1.0080           0
   21352 WT1  6403 TIP3 OH2  OT    -0.834000       15.9994           0
   21353 WT1  6403 TIP3 H1   HT     0.417000        1.0080           0
   21354 WT1  6403 TIP3 H2   HT     0.417000        1.0080           0
   21355 WT1  6404 TIP3 OH2  OT    -0.834000       15.9994           0
   21356 WT1  6404 TIP3 H1   HT     0.417000        1.0080           0
   21357 WT1  6404 TIP3 H2   HT     0.417000        1.0080           0
   21358 WT1  6405 TIP3 OH2  OT    -0.834000       15.9994           0
   21359 WT1  6405 TIP3 H1   HT     0.417000        1.0080           0
   21360 WT1  6405 TIP3 H2   HT     0.417000        1.0080           0
   21361 WT1  6406 TIP3 OH2  OT    -0.834000       15.9994           0
   21362 WT1  6406 TIP3 H1   HT     0.417000        1.0080           0
   21363 WT1  6406 TIP3 H2   HT     0.417000        1.0080           0
   21364 WT1  6407 TIP3 OH2  OT    -0.834000       15.9994           0
   21365 WT1  6407 TIP3 H1   HT     0.417000        1.0080           0
   21366 WT1  6407 TIP3 H2   HT     0.417000        1.0080           0
   21367 WT1  6408 TIP3 OH2  OT    -0.834000       15.9994           0
   21368 WT1  6408 TIP3 H1   HT     0.417000        1.0080           0
   21369 WT1  6408 TIP3 H2   HT     0.417000        1.0080           0
   21370 WT1  6409 TIP3 OH2  OT    -0.834000       15.9994           0
   21371 WT1  6409 TIP3 H1   HT     0.417000        1.0080           0
   21372 WT1  6409 TIP3 H2   HT     0.417000        1.0080           0
   21373 WT1  6410 TIP3 OH2  OT    -0.834000       15.9994           0
   21374 WT1  6410 TIP3 H1   HT     0.417000        1.0080           0
   21375 WT1  6410 TIP3 H2   HT     0.417000        1.0080           0
   21376 WT1  6411 TIP3 OH2  OT    -0.834000       15.9994           0
   21377 WT1  6411 TIP3 H1   HT     0.417000        1.0080           0
   21378 WT1  6411 TIP3 H2   HT     0.417000        1.0080           0
   21379 WT1  6412 TIP3 OH2  OT    -0.834000       15.9994           0
   21380 WT1  6412 TIP3 H1   HT     0.417000        1.0080           0
   21381 WT1  6412 TIP3 H2   HT     0.417000        1.0080           0
   21382 WT1  6413 TIP3 OH2  OT    -0.834000       15.9994           0
   21383 WT1  6413 TIP3 H1   HT     0.417000        1.0080           0
   21384 WT1  6413 TIP3 H2   HT     0.417000        1.0080           0
   21385 WT1  6414 TIP3 OH2  OT    -0.834000       15.9994           0
   21386 WT1  6414 TIP3 H1   HT     0.417000        1.0080           0
   21387 WT1  6414 TIP3 H2   HT     0.417000        1.0080           0
   21388 WT1  6415 TIP3 OH2  OT    -0.834000       15.9994           0
   21389 WT1  6415 TIP3 H1   HT     0.417000        1.0080           0
   21390 WT1  6415 TIP3 H2   HT     0.417000        1.0080           0
   21391 WT1  6416 TIP3 OH2  OT    -0.834000       15.9994           0
   21392 WT1  6416 TIP3 H1   HT     0.417000        1.0080           0
   21393 WT1  6416 TIP3 H2   HT     0.417000        1.0080           0
   21394 WT1  6417 TIP3 OH2  OT    -0.834000       15.9994           0
   21395 WT1  6417 TIP3 H1   HT     0.417000        1.0080           0
   21396 WT1  6417 TIP3 H2   HT     0.417000        1.0080           0
   21397 WT1  6418 TIP3 OH2  OT    -0.834000       15.9994           0
   21398 WT1  6418 TIP3 H1   HT     0.417000        1.0080           0
   21399 WT1  6418 TIP3 H2   HT     0.417000        1.0080           0
   21400 WT1  6419 TIP3 OH2  OT    -0.834000       15.9994           0
   21401 WT1  6419 TIP3 H1   HT     0.417000        1.0080           0
   21402 WT1  6419 TIP3 H2   HT     0.417000        1.0080           0
   21403 WT1  6422 TIP3 OH2  OT    -0.834000       15.9994           0
   21404 WT1  6422 TIP3 H1   HT     0.417000        1.0080           0
   21405 WT1  6422 TIP3 H2   HT     0.417000        1.0080           0
   21406 WT1  6423 TIP3 OH2  OT    -0.834000       15.9994           0
   21407 WT1  6423 TIP3 H1   HT     0.417000        1.0080           0
   21408 WT1  6423 TIP3 H2   HT     0.417000        1.0080           0
   21409 WT1  6424 TIP3 OH2  OT    -0.834000       15.9994           0
   21410 WT1  6424 TIP3 H1   HT     0.417000        1.0080           0
   21411 WT1  6424 TIP3 H2   HT     0.417000        1.0080           0
   21412 WT1  6425 TIP3 OH2  OT    -0.834000       15.9994           0
   21413 WT1  6425 TIP3 H1   HT     0.417000        1.0080           0
   21414 WT1  6425 TIP3 H2   HT     0.417000        1.0080           0
   21415 WT1  6427 TIP3 OH2  OT    -0.834000       15.9994           0
   21416 WT1  6427 TIP3 H1   HT     0.417000        1.0080           0
   21417 WT1  6427 TIP3 H2   HT     0.417000        1.0080           0
   21418 WT1  6428 TIP3 OH2  OT    -0.834000       15.9994           0
   21419 WT1  6428 TIP3 H1   HT     0.417000        1.0080           0
   21420 WT1  6428 TIP3 H2   HT     0.417000        1.0080           0
   21421 WT1  6429 TIP3 OH2  OT    -0.834000       15.9994           0
   21422 WT1  6429 TIP3 H1   HT     0.417000        1.0080           0
   21423 WT1  6429 TIP3 H2   HT     0.417000        1.0080           0
   21424 WT1  6430 TIP3 OH2  OT    -0.834000       15.9994           0
   21425 WT1  6430 TIP3 H1   HT     0.417000        1.0080           0
   21426 WT1  6430 TIP3 H2   HT     0.417000        1.0080           0
   21427 WT1  6431 TIP3 OH2  OT    -0.834000       15.9994           0
   21428 WT1  6431 TIP3 H1   HT     0.417000        1.0080           0
   21429 WT1  6431 TIP3 H2   HT     0.417000        1.0080           0
   21430 WT1  6432 TIP3 OH2  OT    -0.834000       15.9994           0
   21431 WT1  6432 TIP3 H1   HT     0.417000        1.0080           0
   21432 WT1  6432 TIP3 H2   HT     0.417000        1.0080           0
   21433 WT1  6433 TIP3 OH2  OT    -0.834000       15.9994           0
   21434 WT1  6433 TIP3 H1   HT     0.417000        1.0080           0
   21435 WT1  6433 TIP3 H2   HT     0.417000        1.0080           0
   21436 WT1  6434 TIP3 OH2  OT    -0.834000       15.9994           0
   21437 WT1  6434 TIP3 H1   HT     0.417000        1.0080           0
   21438 WT1  6434 TIP3 H2   HT     0.417000        1.0080           0
   21439 WT1  6435 TIP3 OH2  OT    -0.834000       15.9994           0
   21440 WT1  6435 TIP3 H1   HT     0.417000        1.0080           0
   21441 WT1  6435 TIP3 H2   HT     0.417000        1.0080           0
   21442 WT1  6436 TIP3 OH2  OT    -0.834000       15.9994           0
   21443 WT1  6436 TIP3 H1   HT     0.417000        1.0080           0
   21444 WT1  6436 TIP3 H2   HT     0.417000        1.0080           0
   21445 WT1  6437 TIP3 OH2  OT    -0.834000       15.9994           0
   21446 WT1  6437 TIP3 H1   HT     0.417000        1.0080           0
   21447 WT1  6437 TIP3 H2   HT     0.417000        1.0080           0
   21448 WT1  6438 TIP3 OH2  OT    -0.834000       15.9994           0
   21449 WT1  6438 TIP3 H1   HT     0.417000        1.0080           0
   21450 WT1  6438 TIP3 H2   HT     0.417000        1.0080           0
   21451 WT1  6439 TIP3 OH2  OT    -0.834000       15.9994           0
   21452 WT1  6439 TIP3 H1   HT     0.417000        1.0080           0
   21453 WT1  6439 TIP3 H2   HT     0.417000        1.0080           0
   21454 WT1  6440 TIP3 OH2  OT    -0.834000       15.9994           0
   21455 WT1  6440 TIP3 H1   HT     0.417000        1.0080           0
   21456 WT1  6440 TIP3 H2   HT     0.417000        1.0080           0
   21457 WT1  6442 TIP3 OH2  OT    -0.834000       15.9994           0
   21458 WT1  6442 TIP3 H1   HT     0.417000        1.0080           0
   21459 WT1  6442 TIP3 H2   HT     0.417000        1.0080           0
   21460 WT1  6443 TIP3 OH2  OT    -0.834000       15.9994           0
   21461 WT1  6443 TIP3 H1   HT     0.417000        1.0080           0
   21462 WT1  6443 TIP3 H2   HT     0.417000        1.0080           0
   21463 WT1  6444 TIP3 OH2  OT    -0.834000       15.9994           0
   21464 WT1  6444 TIP3 H1   HT     0.417000        1.0080           0
   21465 WT1  6444 TIP3 H2   HT     0.417000        1.0080           0
   21466 WT1  6445 TIP3 OH2  OT    -0.834000       15.9994           0
   21467 WT1  6445 TIP3 H1   HT     0.417000        1.0080           0
   21468 WT1  6445 TIP3 H2   HT     0.417000        1.0080           0
   21469 WT1  6447 TIP3 OH2  OT    -0.834000       15.9994           0
   21470 WT1  6447 TIP3 H1   HT     0.417000        1.0080           0
   21471 WT1  6447 TIP3 H2   HT     0.417000        1.0080           0
   21472 WT1  6448 TIP3 OH2  OT    -0.834000       15.9994           0
   21473 WT1  6448 TIP3 H1   HT     0.417000        1.0080           0
   21474 WT1  6448 TIP3 H2   HT     0.417000        1.0080           0
   21475 WT1  6450 TIP3 OH2  OT    -0.834000       15.9994           0
   21476 WT1  6450 TIP3 H1   HT     0.417000        1.0080           0
   21477 WT1  6450 TIP3 H2   HT     0.417000        1.0080           0
   21478 WT1  6451 TIP3 OH2  OT    -0.834000       15.9994           0
   21479 WT1  6451 TIP3 H1   HT     0.417000        1.0080           0
   21480 WT1  6451 TIP3 H2   HT     0.417000        1.0080           0
   21481 WT1  6452 TIP3 OH2  OT    -0.834000       15.9994           0
   21482 WT1  6452 TIP3 H1   HT     0.417000        1.0080           0
   21483 WT1  6452 TIP3 H2   HT     0.417000        1.0080           0
   21484 WT1  6453 TIP3 OH2  OT    -0.834000       15.9994           0
   21485 WT1  6453 TIP3 H1   HT     0.417000        1.0080           0
   21486 WT1  6453 TIP3 H2   HT     0.417000        1.0080           0
   21487 WT1  6454 TIP3 OH2  OT    -0.834000       15.9994           0
   21488 WT1  6454 TIP3 H1   HT     0.417000        1.0080           0
   21489 WT1  6454 TIP3 H2   HT     0.417000        1.0080           0
   21490 WT1  6455 TIP3 OH2  OT    -0.834000       15.9994           0
   21491 WT1  6455 TIP3 H1   HT     0.417000        1.0080           0
   21492 WT1  6455 TIP3 H2   HT     0.417000        1.0080           0
   21493 WT1  6456 TIP3 OH2  OT    -0.834000       15.9994           0
   21494 WT1  6456 TIP3 H1   HT     0.417000        1.0080           0
   21495 WT1  6456 TIP3 H2   HT     0.417000        1.0080           0
   21496 WT1  6457 TIP3 OH2  OT    -0.834000       15.9994           0
   21497 WT1  6457 TIP3 H1   HT     0.417000        1.0080           0
   21498 WT1  6457 TIP3 H2   HT     0.417000        1.0080           0
   21499 WT1  6458 TIP3 OH2  OT    -0.834000       15.9994           0
   21500 WT1  6458 TIP3 H1   HT     0.417000        1.0080           0
   21501 WT1  6458 TIP3 H2   HT     0.417000        1.0080           0
   21502 WT1  6459 TIP3 OH2  OT    -0.834000       15.9994           0
   21503 WT1  6459 TIP3 H1   HT     0.417000        1.0080           0
   21504 WT1  6459 TIP3 H2   HT     0.417000        1.0080           0
   21505 WT1  6460 TIP3 OH2  OT    -0.834000       15.9994           0
   21506 WT1  6460 TIP3 H1   HT     0.417000        1.0080           0
   21507 WT1  6460 TIP3 H2   HT     0.417000        1.0080           0
   21508 WT1  6461 TIP3 OH2  OT    -0.834000       15.9994           0
   21509 WT1  6461 TIP3 H1   HT     0.417000        1.0080           0
   21510 WT1  6461 TIP3 H2   HT     0.417000        1.0080           0
   21511 WT1  6462 TIP3 OH2  OT    -0.834000       15.9994           0
   21512 WT1  6462 TIP3 H1   HT     0.417000        1.0080           0
   21513 WT1  6462 TIP3 H2   HT     0.417000        1.0080           0
   21514 WT1  6463 TIP3 OH2  OT    -0.834000       15.9994           0
   21515 WT1  6463 TIP3 H1   HT     0.417000        1.0080           0
   21516 WT1  6463 TIP3 H2   HT     0.417000        1.0080           0
   21517 WT1  6464 TIP3 OH2  OT    -0.834000       15.9994           0
   21518 WT1  6464 TIP3 H1   HT     0.417000        1.0080           0
   21519 WT1  6464 TIP3 H2   HT     0.417000        1.0080           0
   21520 WT1  6465 TIP3 OH2  OT    -0.834000       15.9994           0
   21521 WT1  6465 TIP3 H1   HT     0.417000        1.0080           0
   21522 WT1  6465 TIP3 H2   HT     0.417000        1.0080           0
   21523 WT1  6467 TIP3 OH2  OT    -0.834000       15.9994           0
   21524 WT1  6467 TIP3 H1   HT     0.417000        1.0080           0
   21525 WT1  6467 TIP3 H2   HT     0.417000        1.0080           0
   21526 WT1  6468 TIP3 OH2  OT    -0.834000       15.9994           0
   21527 WT1  6468 TIP3 H1   HT     0.417000        1.0080           0
   21528 WT1  6468 TIP3 H2   HT     0.417000        1.0080           0
   21529 WT1  6469 TIP3 OH2  OT    -0.834000       15.9994           0
   21530 WT1  6469 TIP3 H1   HT     0.417000        1.0080           0
   21531 WT1  6469 TIP3 H2   HT     0.417000        1.0080           0
   21532 WT1  6470 TIP3 OH2  OT    -0.834000       15.9994           0
   21533 WT1  6470 TIP3 H1   HT     0.417000        1.0080           0
   21534 WT1  6470 TIP3 H2   HT     0.417000        1.0080           0
   21535 WT1  6471 TIP3 OH2  OT    -0.834000       15.9994           0
   21536 WT1  6471 TIP3 H1   HT     0.417000        1.0080           0
   21537 WT1  6471 TIP3 H2   HT     0.417000        1.0080           0
   21538 WT1  6472 TIP3 OH2  OT    -0.834000       15.9994           0
   21539 WT1  6472 TIP3 H1   HT     0.417000        1.0080           0
   21540 WT1  6472 TIP3 H2   HT     0.417000        1.0080           0
   21541 WT1  6474 TIP3 OH2  OT    -0.834000       15.9994           0
   21542 WT1  6474 TIP3 H1   HT     0.417000        1.0080           0
   21543 WT1  6474 TIP3 H2   HT     0.417000        1.0080           0
   21544 WT1  6475 TIP3 OH2  OT    -0.834000       15.9994           0
   21545 WT1  6475 TIP3 H1   HT     0.417000        1.0080           0
   21546 WT1  6475 TIP3 H2   HT     0.417000        1.0080           0
   21547 WT1  6476 TIP3 OH2  OT    -0.834000       15.9994           0
   21548 WT1  6476 TIP3 H1   HT     0.417000        1.0080           0
   21549 WT1  6476 TIP3 H2   HT     0.417000        1.0080           0
   21550 WT1  6477 TIP3 OH2  OT    -0.834000       15.9994           0
   21551 WT1  6477 TIP3 H1   HT     0.417000        1.0080           0
   21552 WT1  6477 TIP3 H2   HT     0.417000        1.0080           0
   21553 WT1  6478 TIP3 OH2  OT    -0.834000       15.9994           0
   21554 WT1  6478 TIP3 H1   HT     0.417000        1.0080           0
   21555 WT1  6478 TIP3 H2   HT     0.417000        1.0080           0
   21556 WT1  6479 TIP3 OH2  OT    -0.834000       15.9994           0
   21557 WT1  6479 TIP3 H1   HT     0.417000        1.0080           0
   21558 WT1  6479 TIP3 H2   HT     0.417000        1.0080           0
   21559 WT1  6480 TIP3 OH2  OT    -0.834000       15.9994           0
   21560 WT1  6480 TIP3 H1   HT     0.417000        1.0080           0
   21561 WT1  6480 TIP3 H2   HT     0.417000        1.0080           0
   21562 WT1  6481 TIP3 OH2  OT    -0.834000       15.9994           0
   21563 WT1  6481 TIP3 H1   HT     0.417000        1.0080           0
   21564 WT1  6481 TIP3 H2   HT     0.417000        1.0080           0
   21565 WT1  6482 TIP3 OH2  OT    -0.834000       15.9994           0
   21566 WT1  6482 TIP3 H1   HT     0.417000        1.0080           0
   21567 WT1  6482 TIP3 H2   HT     0.417000        1.0080           0
   21568 WT1  6483 TIP3 OH2  OT    -0.834000       15.9994           0
   21569 WT1  6483 TIP3 H1   HT     0.417000        1.0080           0
   21570 WT1  6483 TIP3 H2   HT     0.417000        1.0080           0
   21571 WT1  6485 TIP3 OH2  OT    -0.834000       15.9994           0
   21572 WT1  6485 TIP3 H1   HT     0.417000        1.0080           0
   21573 WT1  6485 TIP3 H2   HT     0.417000        1.0080           0
   21574 WT1  6487 TIP3 OH2  OT    -0.834000       15.9994           0
   21575 WT1  6487 TIP3 H1   HT     0.417000        1.0080           0
   21576 WT1  6487 TIP3 H2   HT     0.417000        1.0080           0
   21577 WT1  6488 TIP3 OH2  OT    -0.834000       15.9994           0
   21578 WT1  6488 TIP3 H1   HT     0.417000        1.0080           0
   21579 WT1  6488 TIP3 H2   HT     0.417000        1.0080           0
   21580 WT1  6489 TIP3 OH2  OT    -0.834000       15.9994           0
   21581 WT1  6489 TIP3 H1   HT     0.417000        1.0080           0
   21582 WT1  6489 TIP3 H2   HT     0.417000        1.0080           0
   21583 WT1  6490 TIP3 OH2  OT    -0.834000       15.9994           0
   21584 WT1  6490 TIP3 H1   HT     0.417000        1.0080           0
   21585 WT1  6490 TIP3 H2   HT     0.417000        1.0080           0
   21586 WT1  6491 TIP3 OH2  OT    -0.834000       15.9994           0
   21587 WT1  6491 TIP3 H1   HT     0.417000        1.0080           0
   21588 WT1  6491 TIP3 H2   HT     0.417000        1.0080           0
   21589 WT1  6492 TIP3 OH2  OT    -0.834000       15.9994           0
   21590 WT1  6492 TIP3 H1   HT     0.417000        1.0080           0
   21591 WT1  6492 TIP3 H2   HT     0.417000        1.0080           0
   21592 WT1  6493 TIP3 OH2  OT    -0.834000       15.9994           0
   21593 WT1  6493 TIP3 H1   HT     0.417000        1.0080           0
   21594 WT1  6493 TIP3 H2   HT     0.417000        1.0080           0
   21595 WT1  6494 TIP3 OH2  OT    -0.834000       15.9994           0
   21596 WT1  6494 TIP3 H1   HT     0.417000        1.0080           0
   21597 WT1  6494 TIP3 H2   HT     0.417000        1.0080           0
   21598 WT1  6495 TIP3 OH2  OT    -0.834000       15.9994           0
   21599 WT1  6495 TIP3 H1   HT     0.417000        1.0080           0
   21600 WT1  6495 TIP3 H2   HT     0.417000        1.0080           0
   21601 WT1  6496 TIP3 OH2  OT    -0.834000       15.9994           0
   21602 WT1  6496 TIP3 H1   HT     0.417000        1.0080           0
   21603 WT1  6496 TIP3 H2   HT     0.417000        1.0080           0
   21604 WT1  6497 TIP3 OH2  OT    -0.834000       15.9994           0
   21605 WT1  6497 TIP3 H1   HT     0.417000        1.0080           0
   21606 WT1  6497 TIP3 H2   HT     0.417000        1.0080           0
   21607 WT1  6498 TIP3 OH2  OT    -0.834000       15.9994           0
   21608 WT1  6498 TIP3 H1   HT     0.417000        1.0080           0
   21609 WT1  6498 TIP3 H2   HT     0.417000        1.0080           0
   21610 WT1  6499 TIP3 OH2  OT    -0.834000       15.9994           0
   21611 WT1  6499 TIP3 H1   HT     0.417000        1.0080           0
   21612 WT1  6499 TIP3 H2   HT     0.417000        1.0080           0
   21613 WT1  6500 TIP3 OH2  OT    -0.834000       15.9994           0
   21614 WT1  6500 TIP3 H1   HT     0.417000        1.0080           0
   21615 WT1  6500 TIP3 H2   HT     0.417000        1.0080           0
   21616 WT1  6501 TIP3 OH2  OT    -0.834000       15.9994           0
   21617 WT1  6501 TIP3 H1   HT     0.417000        1.0080           0
   21618 WT1  6501 TIP3 H2   HT     0.417000        1.0080           0
   21619 WT1  6502 TIP3 OH2  OT    -0.834000       15.9994           0
   21620 WT1  6502 TIP3 H1   HT     0.417000        1.0080           0
   21621 WT1  6502 TIP3 H2   HT     0.417000        1.0080           0
   21622 WT1  6503 TIP3 OH2  OT    -0.834000       15.9994           0
   21623 WT1  6503 TIP3 H1   HT     0.417000        1.0080           0
   21624 WT1  6503 TIP3 H2   HT     0.417000        1.0080           0
   21625 WT1  6504 TIP3 OH2  OT    -0.834000       15.9994           0
   21626 WT1  6504 TIP3 H1   HT     0.417000        1.0080           0
   21627 WT1  6504 TIP3 H2   HT     0.417000        1.0080           0
   21628 WT1  6505 TIP3 OH2  OT    -0.834000       15.9994           0
   21629 WT1  6505 TIP3 H1   HT     0.417000        1.0080           0
   21630 WT1  6505 TIP3 H2   HT     0.417000        1.0080           0
   21631 WT1  6507 TIP3 OH2  OT    -0.834000       15.9994           0
   21632 WT1  6507 TIP3 H1   HT     0.417000        1.0080           0
   21633 WT1  6507 TIP3 H2   HT     0.417000        1.0080           0
   21634 WT1  6509 TIP3 OH2  OT    -0.834000       15.9994           0
   21635 WT1  6509 TIP3 H1   HT     0.417000        1.0080           0
   21636 WT1  6509 TIP3 H2   HT     0.417000        1.0080           0
   21637 WT1  6510 TIP3 OH2  OT    -0.834000       15.9994           0
   21638 WT1  6510 TIP3 H1   HT     0.417000        1.0080           0
   21639 WT1  6510 TIP3 H2   HT     0.417000        1.0080           0
   21640 WT1  6511 TIP3 OH2  OT    -0.834000       15.9994           0
   21641 WT1  6511 TIP3 H1   HT     0.417000        1.0080           0
   21642 WT1  6511 TIP3 H2   HT     0.417000        1.0080           0
   21643 WT1  6512 TIP3 OH2  OT    -0.834000       15.9994           0
   21644 WT1  6512 TIP3 H1   HT     0.417000        1.0080           0
   21645 WT1  6512 TIP3 H2   HT     0.417000        1.0080           0
   21646 WT1  6513 TIP3 OH2  OT    -0.834000       15.9994           0
   21647 WT1  6513 TIP3 H1   HT     0.417000        1.0080           0
   21648 WT1  6513 TIP3 H2   HT     0.417000        1.0080           0
   21649 WT1  6514 TIP3 OH2  OT    -0.834000       15.9994           0
   21650 WT1  6514 TIP3 H1   HT     0.417000        1.0080           0
   21651 WT1  6514 TIP3 H2   HT     0.417000        1.0080           0
   21652 WT1  6515 TIP3 OH2  OT    -0.834000       15.9994           0
   21653 WT1  6515 TIP3 H1   HT     0.417000        1.0080           0
   21654 WT1  6515 TIP3 H2   HT     0.417000        1.0080           0
   21655 WT1  6516 TIP3 OH2  OT    -0.834000       15.9994           0
   21656 WT1  6516 TIP3 H1   HT     0.417000        1.0080           0
   21657 WT1  6516 TIP3 H2   HT     0.417000        1.0080           0
   21658 WT1  6517 TIP3 OH2  OT    -0.834000       15.9994           0
   21659 WT1  6517 TIP3 H1   HT     0.417000        1.0080           0
   21660 WT1  6517 TIP3 H2   HT     0.417000        1.0080           0
   21661 WT1  6518 TIP3 OH2  OT    -0.834000       15.9994           0
   21662 WT1  6518 TIP3 H1   HT     0.417000        1.0080           0
   21663 WT1  6518 TIP3 H2   HT     0.417000        1.0080           0
   21664 WT1  6519 TIP3 OH2  OT    -0.834000       15.9994           0
   21665 WT1  6519 TIP3 H1   HT     0.417000        1.0080           0
   21666 WT1  6519 TIP3 H2   HT     0.417000        1.0080           0
   21667 WT1  6520 TIP3 OH2  OT    -0.834000       15.9994           0
   21668 WT1  6520 TIP3 H1   HT     0.417000        1.0080           0
   21669 WT1  6520 TIP3 H2   HT     0.417000        1.0080           0
   21670 WT1  6521 TIP3 OH2  OT    -0.834000       15.9994           0
   21671 WT1  6521 TIP3 H1   HT     0.417000        1.0080           0
   21672 WT1  6521 TIP3 H2   HT     0.417000        1.0080           0
   21673 WT1  6522 TIP3 OH2  OT    -0.834000       15.9994           0
   21674 WT1  6522 TIP3 H1   HT     0.417000        1.0080           0
   21675 WT1  6522 TIP3 H2   HT     0.417000        1.0080           0
   21676 WT1  6523 TIP3 OH2  OT    -0.834000       15.9994           0
   21677 WT1  6523 TIP3 H1   HT     0.417000        1.0080           0
   21678 WT1  6523 TIP3 H2   HT     0.417000        1.0080           0
   21679 WT1  6524 TIP3 OH2  OT    -0.834000       15.9994           0
   21680 WT1  6524 TIP3 H1   HT     0.417000        1.0080           0
   21681 WT1  6524 TIP3 H2   HT     0.417000        1.0080           0
   21682 WT1  6525 TIP3 OH2  OT    -0.834000       15.9994           0
   21683 WT1  6525 TIP3 H1   HT     0.417000        1.0080           0
   21684 WT1  6525 TIP3 H2   HT     0.417000        1.0080           0
   21685 WT1  6526 TIP3 OH2  OT    -0.834000       15.9994           0
   21686 WT1  6526 TIP3 H1   HT     0.417000        1.0080           0
   21687 WT1  6526 TIP3 H2   HT     0.417000        1.0080           0
   21688 WT1  6527 TIP3 OH2  OT    -0.834000       15.9994           0
   21689 WT1  6527 TIP3 H1   HT     0.417000        1.0080           0
   21690 WT1  6527 TIP3 H2   HT     0.417000        1.0080           0
   21691 WT1  6529 TIP3 OH2  OT    -0.834000       15.9994           0
   21692 WT1  6529 TIP3 H1   HT     0.417000        1.0080           0
   21693 WT1  6529 TIP3 H2   HT     0.417000        1.0080           0
   21694 WT1  6530 TIP3 OH2  OT    -0.834000       15.9994           0
   21695 WT1  6530 TIP3 H1   HT     0.417000        1.0080           0
   21696 WT1  6530 TIP3 H2   HT     0.417000        1.0080           0
   21697 WT1  6531 TIP3 OH2  OT    -0.834000       15.9994           0
   21698 WT1  6531 TIP3 H1   HT     0.417000        1.0080           0
   21699 WT1  6531 TIP3 H2   HT     0.417000        1.0080           0
   21700 WT1  6532 TIP3 OH2  OT    -0.834000       15.9994           0
   21701 WT1  6532 TIP3 H1   HT     0.417000        1.0080           0
   21702 WT1  6532 TIP3 H2   HT     0.417000        1.0080           0
   21703 WT1  6533 TIP3 OH2  OT    -0.834000       15.9994           0
   21704 WT1  6533 TIP3 H1   HT     0.417000        1.0080           0
   21705 WT1  6533 TIP3 H2   HT     0.417000        1.0080           0
   21706 WT1  6534 TIP3 OH2  OT    -0.834000       15.9994           0
   21707 WT1  6534 TIP3 H1   HT     0.417000        1.0080           0
   21708 WT1  6534 TIP3 H2   HT     0.417000        1.0080           0
   21709 WT1  6535 TIP3 OH2  OT    -0.834000       15.9994           0
   21710 WT1  6535 TIP3 H1   HT     0.417000        1.0080           0
   21711 WT1  6535 TIP3 H2   HT     0.417000        1.0080           0
   21712 WT1  6536 TIP3 OH2  OT    -0.834000       15.9994           0
   21713 WT1  6536 TIP3 H1   HT     0.417000        1.0080           0
   21714 WT1  6536 TIP3 H2   HT     0.417000        1.0080           0
   21715 WT1  6537 TIP3 OH2  OT    -0.834000       15.9994           0
   21716 WT1  6537 TIP3 H1   HT     0.417000        1.0080           0
   21717 WT1  6537 TIP3 H2   HT     0.417000        1.0080           0
   21718 WT1  6538 TIP3 OH2  OT    -0.834000       15.9994           0
   21719 WT1  6538 TIP3 H1   HT     0.417000        1.0080           0
   21720 WT1  6538 TIP3 H2   HT     0.417000        1.0080           0
   21721 WT1  6539 TIP3 OH2  OT    -0.834000       15.9994           0
   21722 WT1  6539 TIP3 H1   HT     0.417000        1.0080           0
   21723 WT1  6539 TIP3 H2   HT     0.417000        1.0080           0
   21724 WT1  6540 TIP3 OH2  OT    -0.834000       15.9994           0
   21725 WT1  6540 TIP3 H1   HT     0.417000        1.0080           0
   21726 WT1  6540 TIP3 H2   HT     0.417000        1.0080           0
   21727 WT1  6541 TIP3 OH2  OT    -0.834000       15.9994           0
   21728 WT1  6541 TIP3 H1   HT     0.417000        1.0080           0
   21729 WT1  6541 TIP3 H2   HT     0.417000        1.0080           0
   21730 WT1  6542 TIP3 OH2  OT    -0.834000       15.9994           0
   21731 WT1  6542 TIP3 H1   HT     0.417000        1.0080           0
   21732 WT1  6542 TIP3 H2   HT     0.417000        1.0080           0
   21733 WT1  6543 TIP3 OH2  OT    -0.834000       15.9994           0
   21734 WT1  6543 TIP3 H1   HT     0.417000        1.0080           0
   21735 WT1  6543 TIP3 H2   HT     0.417000        1.0080           0
   21736 WT1  6544 TIP3 OH2  OT    -0.834000       15.9994           0
   21737 WT1  6544 TIP3 H1   HT     0.417000        1.0080           0
   21738 WT1  6544 TIP3 H2   HT     0.417000        1.0080           0
   21739 WT1  6545 TIP3 OH2  OT    -0.834000       15.9994           0
   21740 WT1  6545 TIP3 H1   HT     0.417000        1.0080           0
   21741 WT1  6545 TIP3 H2   HT     0.417000        1.0080           0
   21742 WT1  6547 TIP3 OH2  OT    -0.834000       15.9994           0
   21743 WT1  6547 TIP3 H1   HT     0.417000        1.0080           0
   21744 WT1  6547 TIP3 H2   HT     0.417000        1.0080           0
   21745 WT1  6549 TIP3 OH2  OT    -0.834000       15.9994           0
   21746 WT1  6549 TIP3 H1   HT     0.417000        1.0080           0
   21747 WT1  6549 TIP3 H2   HT     0.417000        1.0080           0
   21748 WT1  6550 TIP3 OH2  OT    -0.834000       15.9994           0
   21749 WT1  6550 TIP3 H1   HT     0.417000        1.0080           0
   21750 WT1  6550 TIP3 H2   HT     0.417000        1.0080           0
   21751 WT1  6551 TIP3 OH2  OT    -0.834000       15.9994           0
   21752 WT1  6551 TIP3 H1   HT     0.417000        1.0080           0
   21753 WT1  6551 TIP3 H2   HT     0.417000        1.0080           0
   21754 WT1  6552 TIP3 OH2  OT    -0.834000       15.9994           0
   21755 WT1  6552 TIP3 H1   HT     0.417000        1.0080           0
   21756 WT1  6552 TIP3 H2   HT     0.417000        1.0080           0
   21757 WT1  6553 TIP3 OH2  OT    -0.834000       15.9994           0
   21758 WT1  6553 TIP3 H1   HT     0.417000        1.0080           0
   21759 WT1  6553 TIP3 H2   HT     0.417000        1.0080           0
   21760 WT1  6554 TIP3 OH2  OT    -0.834000       15.9994           0
   21761 WT1  6554 TIP3 H1   HT     0.417000        1.0080           0
   21762 WT1  6554 TIP3 H2   HT     0.417000        1.0080           0
   21763 WT1  6555 TIP3 OH2  OT    -0.834000       15.9994           0
   21764 WT1  6555 TIP3 H1   HT     0.417000        1.0080           0
   21765 WT1  6555 TIP3 H2   HT     0.417000        1.0080           0
   21766 WT1  6556 TIP3 OH2  OT    -0.834000       15.9994           0
   21767 WT1  6556 TIP3 H1   HT     0.417000        1.0080           0
   21768 WT1  6556 TIP3 H2   HT     0.417000        1.0080           0
   21769 WT1  6557 TIP3 OH2  OT    -0.834000       15.9994           0
   21770 WT1  6557 TIP3 H1   HT     0.417000        1.0080           0
   21771 WT1  6557 TIP3 H2   HT     0.417000        1.0080           0
   21772 WT1  6558 TIP3 OH2  OT    -0.834000       15.9994           0
   21773 WT1  6558 TIP3 H1   HT     0.417000        1.0080           0
   21774 WT1  6558 TIP3 H2   HT     0.417000        1.0080           0
   21775 WT1  6559 TIP3 OH2  OT    -0.834000       15.9994           0
   21776 WT1  6559 TIP3 H1   HT     0.417000        1.0080           0
   21777 WT1  6559 TIP3 H2   HT     0.417000        1.0080           0
   21778 WT1  6560 TIP3 OH2  OT    -0.834000       15.9994           0
   21779 WT1  6560 TIP3 H1   HT     0.417000        1.0080           0
   21780 WT1  6560 TIP3 H2   HT     0.417000        1.0080           0
   21781 WT1  6561 TIP3 OH2  OT    -0.834000       15.9994           0
   21782 WT1  6561 TIP3 H1   HT     0.417000        1.0080           0
   21783 WT1  6561 TIP3 H2   HT     0.417000        1.0080           0
   21784 WT1  6562 TIP3 OH2  OT    -0.834000       15.9994           0
   21785 WT1  6562 TIP3 H1   HT     0.417000        1.0080           0
   21786 WT1  6562 TIP3 H2   HT     0.417000        1.0080           0
   21787 WT1  6563 TIP3 OH2  OT    -0.834000       15.9994           0
   21788 WT1  6563 TIP3 H1   HT     0.417000        1.0080           0
   21789 WT1  6563 TIP3 H2   HT     0.417000        1.0080           0
   21790 WT1  6564 TIP3 OH2  OT    -0.834000       15.9994           0
   21791 WT1  6564 TIP3 H1   HT     0.417000        1.0080           0
   21792 WT1  6564 TIP3 H2   HT     0.417000        1.0080           0
   21793 WT1  6565 TIP3 OH2  OT    -0.834000       15.9994           0
   21794 WT1  6565 TIP3 H1   HT     0.417000        1.0080           0
   21795 WT1  6565 TIP3 H2   HT     0.417000        1.0080           0
   21796 WT1  6566 TIP3 OH2  OT    -0.834000       15.9994           0
   21797 WT1  6566 TIP3 H1   HT     0.417000        1.0080           0
   21798 WT1  6566 TIP3 H2   HT     0.417000        1.0080           0
   21799 WT1  6567 TIP3 OH2  OT    -0.834000       15.9994           0
   21800 WT1  6567 TIP3 H1   HT     0.417000        1.0080           0
   21801 WT1  6567 TIP3 H2   HT     0.417000        1.0080           0
   21802 WT1  6568 TIP3 OH2  OT    -0.834000       15.9994           0
   21803 WT1  6568 TIP3 H1   HT     0.417000        1.0080           0
   21804 WT1  6568 TIP3 H2   HT     0.417000        1.0080           0
   21805 WT1  6570 TIP3 OH2  OT    -0.834000       15.9994           0
   21806 WT1  6570 TIP3 H1   HT     0.417000        1.0080           0
   21807 WT1  6570 TIP3 H2   HT     0.417000        1.0080           0
   21808 WT1  6572 TIP3 OH2  OT    -0.834000       15.9994           0
   21809 WT1  6572 TIP3 H1   HT     0.417000        1.0080           0
   21810 WT1  6572 TIP3 H2   HT     0.417000        1.0080           0
   21811 WT1  6573 TIP3 OH2  OT    -0.834000       15.9994           0
   21812 WT1  6573 TIP3 H1   HT     0.417000        1.0080           0
   21813 WT1  6573 TIP3 H2   HT     0.417000        1.0080           0
   21814 WT1  6574 TIP3 OH2  OT    -0.834000       15.9994           0
   21815 WT1  6574 TIP3 H1   HT     0.417000        1.0080           0
   21816 WT1  6574 TIP3 H2   HT     0.417000        1.0080           0
   21817 WT1  6575 TIP3 OH2  OT    -0.834000       15.9994           0
   21818 WT1  6575 TIP3 H1   HT     0.417000        1.0080           0
   21819 WT1  6575 TIP3 H2   HT     0.417000        1.0080           0
   21820 WT1  6576 TIP3 OH2  OT    -0.834000       15.9994           0
   21821 WT1  6576 TIP3 H1   HT     0.417000        1.0080           0
   21822 WT1  6576 TIP3 H2   HT     0.417000        1.0080           0
   21823 WT1  6577 TIP3 OH2  OT    -0.834000       15.9994           0
   21824 WT1  6577 TIP3 H1   HT     0.417000        1.0080           0
   21825 WT1  6577 TIP3 H2   HT     0.417000        1.0080           0
   21826 WT1  6578 TIP3 OH2  OT    -0.834000       15.9994           0
   21827 WT1  6578 TIP3 H1   HT     0.417000        1.0080           0
   21828 WT1  6578 TIP3 H2   HT     0.417000        1.0080           0
   21829 WT1  6579 TIP3 OH2  OT    -0.834000       15.9994           0
   21830 WT1  6579 TIP3 H1   HT     0.417000        1.0080           0
   21831 WT1  6579 TIP3 H2   HT     0.417000        1.0080           0
   21832 WT1  6580 TIP3 OH2  OT    -0.834000       15.9994           0
   21833 WT1  6580 TIP3 H1   HT     0.417000        1.0080           0
   21834 WT1  6580 TIP3 H2   HT     0.417000        1.0080           0
   21835 WT1  6581 TIP3 OH2  OT    -0.834000       15.9994           0
   21836 WT1  6581 TIP3 H1   HT     0.417000        1.0080           0
   21837 WT1  6581 TIP3 H2   HT     0.417000        1.0080           0
   21838 WT1  6582 TIP3 OH2  OT    -0.834000       15.9994           0
   21839 WT1  6582 TIP3 H1   HT     0.417000        1.0080           0
   21840 WT1  6582 TIP3 H2   HT     0.417000        1.0080           0
   21841 WT1  6583 TIP3 OH2  OT    -0.834000       15.9994           0
   21842 WT1  6583 TIP3 H1   HT     0.417000        1.0080           0
   21843 WT1  6583 TIP3 H2   HT     0.417000        1.0080           0
   21844 WT1  6584 TIP3 OH2  OT    -0.834000       15.9994           0
   21845 WT1  6584 TIP3 H1   HT     0.417000        1.0080           0
   21846 WT1  6584 TIP3 H2   HT     0.417000        1.0080           0
   21847 WT1  6585 TIP3 OH2  OT    -0.834000       15.9994           0
   21848 WT1  6585 TIP3 H1   HT     0.417000        1.0080           0
   21849 WT1  6585 TIP3 H2   HT     0.417000        1.0080           0
   21850 WT1  6586 TIP3 OH2  OT    -0.834000       15.9994           0
   21851 WT1  6586 TIP3 H1   HT     0.417000        1.0080           0
   21852 WT1  6586 TIP3 H2   HT     0.417000        1.0080           0
   21853 WT1  6589 TIP3 OH2  OT    -0.834000       15.9994           0
   21854 WT1  6589 TIP3 H1   HT     0.417000        1.0080           0
   21855 WT1  6589 TIP3 H2   HT     0.417000        1.0080           0
   21856 WT1  6590 TIP3 OH2  OT    -0.834000       15.9994           0
   21857 WT1  6590 TIP3 H1   HT     0.417000        1.0080           0
   21858 WT1  6590 TIP3 H2   HT     0.417000        1.0080           0
   21859 WT1  6592 TIP3 OH2  OT    -0.834000       15.9994           0
   21860 WT1  6592 TIP3 H1   HT     0.417000        1.0080           0
   21861 WT1  6592 TIP3 H2   HT     0.417000        1.0080           0
   21862 WT1  6594 TIP3 OH2  OT    -0.834000       15.9994           0
   21863 WT1  6594 TIP3 H1   HT     0.417000        1.0080           0
   21864 WT1  6594 TIP3 H2   HT     0.417000        1.0080           0
   21865 WT1  6595 TIP3 OH2  OT    -0.834000       15.9994           0
   21866 WT1  6595 TIP3 H1   HT     0.417000        1.0080           0
   21867 WT1  6595 TIP3 H2   HT     0.417000        1.0080           0
   21868 WT1  6597 TIP3 OH2  OT    -0.834000       15.9994           0
   21869 WT1  6597 TIP3 H1   HT     0.417000        1.0080           0
   21870 WT1  6597 TIP3 H2   HT     0.417000        1.0080           0
   21871 WT1  6598 TIP3 OH2  OT    -0.834000       15.9994           0
   21872 WT1  6598 TIP3 H1   HT     0.417000        1.0080           0
   21873 WT1  6598 TIP3 H2   HT     0.417000        1.0080           0
   21874 WT1  6599 TIP3 OH2  OT    -0.834000       15.9994           0
   21875 WT1  6599 TIP3 H1   HT     0.417000        1.0080           0
   21876 WT1  6599 TIP3 H2   HT     0.417000        1.0080           0
   21877 WT1  6600 TIP3 OH2  OT    -0.834000       15.9994           0
   21878 WT1  6600 TIP3 H1   HT     0.417000        1.0080           0
   21879 WT1  6600 TIP3 H2   HT     0.417000        1.0080           0
   21880 WT1  6601 TIP3 OH2  OT    -0.834000       15.9994           0
   21881 WT1  6601 TIP3 H1   HT     0.417000        1.0080           0
   21882 WT1  6601 TIP3 H2   HT     0.417000        1.0080           0
   21883 WT1  6602 TIP3 OH2  OT    -0.834000       15.9994           0
   21884 WT1  6602 TIP3 H1   HT     0.417000        1.0080           0
   21885 WT1  6602 TIP3 H2   HT     0.417000        1.0080           0
   21886 WT1  6603 TIP3 OH2  OT    -0.834000       15.9994           0
   21887 WT1  6603 TIP3 H1   HT     0.417000        1.0080           0
   21888 WT1  6603 TIP3 H2   HT     0.417000        1.0080           0
   21889 WT1  6604 TIP3 OH2  OT    -0.834000       15.9994           0
   21890 WT1  6604 TIP3 H1   HT     0.417000        1.0080           0
   21891 WT1  6604 TIP3 H2   HT     0.417000        1.0080           0
   21892 WT1  6605 TIP3 OH2  OT    -0.834000       15.9994           0
   21893 WT1  6605 TIP3 H1   HT     0.417000        1.0080           0
   21894 WT1  6605 TIP3 H2   HT     0.417000        1.0080           0
   21895 WT1  6606 TIP3 OH2  OT    -0.834000       15.9994           0
   21896 WT1  6606 TIP3 H1   HT     0.417000        1.0080           0
   21897 WT1  6606 TIP3 H2   HT     0.417000        1.0080           0
   21898 WT1  6607 TIP3 OH2  OT    -0.834000       15.9994           0
   21899 WT1  6607 TIP3 H1   HT     0.417000        1.0080           0
   21900 WT1  6607 TIP3 H2   HT     0.417000        1.0080           0
   21901 WT1  6608 TIP3 OH2  OT    -0.834000       15.9994           0
   21902 WT1  6608 TIP3 H1   HT     0.417000        1.0080           0
   21903 WT1  6608 TIP3 H2   HT     0.417000        1.0080           0
   21904 WT1  6609 TIP3 OH2  OT    -0.834000       15.9994           0
   21905 WT1  6609 TIP3 H1   HT     0.417000        1.0080           0
   21906 WT1  6609 TIP3 H2   HT     0.417000        1.0080           0
   21907 WT1  6610 TIP3 OH2  OT    -0.834000       15.9994           0
   21908 WT1  6610 TIP3 H1   HT     0.417000        1.0080           0
   21909 WT1  6610 TIP3 H2   HT     0.417000        1.0080           0
   21910 WT1  6612 TIP3 OH2  OT    -0.834000       15.9994           0
   21911 WT1  6612 TIP3 H1   HT     0.417000        1.0080           0
   21912 WT1  6612 TIP3 H2   HT     0.417000        1.0080           0
   21913 WT1  6613 TIP3 OH2  OT    -0.834000       15.9994           0
   21914 WT1  6613 TIP3 H1   HT     0.417000        1.0080           0
   21915 WT1  6613 TIP3 H2   HT     0.417000        1.0080           0
   21916 WT1  6614 TIP3 OH2  OT    -0.834000       15.9994           0
   21917 WT1  6614 TIP3 H1   HT     0.417000        1.0080           0
   21918 WT1  6614 TIP3 H2   HT     0.417000        1.0080           0
   21919 WT1  6615 TIP3 OH2  OT    -0.834000       15.9994           0
   21920 WT1  6615 TIP3 H1   HT     0.417000        1.0080           0
   21921 WT1  6615 TIP3 H2   HT     0.417000        1.0080           0
   21922 WT1  6616 TIP3 OH2  OT    -0.834000       15.9994           0
   21923 WT1  6616 TIP3 H1   HT     0.417000        1.0080           0
   21924 WT1  6616 TIP3 H2   HT     0.417000        1.0080           0
   21925 WT1  6617 TIP3 OH2  OT    -0.834000       15.9994           0
   21926 WT1  6617 TIP3 H1   HT     0.417000        1.0080           0
   21927 WT1  6617 TIP3 H2   HT     0.417000        1.0080           0
   21928 WT1  6618 TIP3 OH2  OT    -0.834000       15.9994           0
   21929 WT1  6618 TIP3 H1   HT     0.417000        1.0080           0
   21930 WT1  6618 TIP3 H2   HT     0.417000        1.0080           0
   21931 WT1  6619 TIP3 OH2  OT    -0.834000       15.9994           0
   21932 WT1  6619 TIP3 H1   HT     0.417000        1.0080           0
   21933 WT1  6619 TIP3 H2   HT     0.417000        1.0080           0
   21934 WT1  6620 TIP3 OH2  OT    -0.834000       15.9994           0
   21935 WT1  6620 TIP3 H1   HT     0.417000        1.0080           0
   21936 WT1  6620 TIP3 H2   HT     0.417000        1.0080           0
   21937 WT1  6621 TIP3 OH2  OT    -0.834000       15.9994           0
   21938 WT1  6621 TIP3 H1   HT     0.417000        1.0080           0
   21939 WT1  6621 TIP3 H2   HT     0.417000        1.0080           0
   21940 WT1  6622 TIP3 OH2  OT    -0.834000       15.9994           0
   21941 WT1  6622 TIP3 H1   HT     0.417000        1.0080           0
   21942 WT1  6622 TIP3 H2   HT     0.417000        1.0080           0
   21943 WT1  6623 TIP3 OH2  OT    -0.834000       15.9994           0
   21944 WT1  6623 TIP3 H1   HT     0.417000        1.0080           0
   21945 WT1  6623 TIP3 H2   HT     0.417000        1.0080           0
   21946 WT1  6624 TIP3 OH2  OT    -0.834000       15.9994           0
   21947 WT1  6624 TIP3 H1   HT     0.417000        1.0080           0
   21948 WT1  6624 TIP3 H2   HT     0.417000        1.0080           0
   21949 WT1  6625 TIP3 OH2  OT    -0.834000       15.9994           0
   21950 WT1  6625 TIP3 H1   HT     0.417000        1.0080           0
   21951 WT1  6625 TIP3 H2   HT     0.417000        1.0080           0
   21952 WT1  6626 TIP3 OH2  OT    -0.834000       15.9994           0
   21953 WT1  6626 TIP3 H1   HT     0.417000        1.0080           0
   21954 WT1  6626 TIP3 H2   HT     0.417000        1.0080           0
   21955 WT1  6627 TIP3 OH2  OT    -0.834000       15.9994           0
   21956 WT1  6627 TIP3 H1   HT     0.417000        1.0080           0
   21957 WT1  6627 TIP3 H2   HT     0.417000        1.0080           0
   21958 WT1  6628 TIP3 OH2  OT    -0.834000       15.9994           0
   21959 WT1  6628 TIP3 H1   HT     0.417000        1.0080           0
   21960 WT1  6628 TIP3 H2   HT     0.417000        1.0080           0
   21961 WT1  6629 TIP3 OH2  OT    -0.834000       15.9994           0
   21962 WT1  6629 TIP3 H1   HT     0.417000        1.0080           0
   21963 WT1  6629 TIP3 H2   HT     0.417000        1.0080           0
   21964 WT1  6630 TIP3 OH2  OT    -0.834000       15.9994           0
   21965 WT1  6630 TIP3 H1   HT     0.417000        1.0080           0
   21966 WT1  6630 TIP3 H2   HT     0.417000        1.0080           0
   21967 WT1  6631 TIP3 OH2  OT    -0.834000       15.9994           0
   21968 WT1  6631 TIP3 H1   HT     0.417000        1.0080           0
   21969 WT1  6631 TIP3 H2   HT     0.417000        1.0080           0
   21970 WT1  6633 TIP3 OH2  OT    -0.834000       15.9994           0
   21971 WT1  6633 TIP3 H1   HT     0.417000        1.0080           0
   21972 WT1  6633 TIP3 H2   HT     0.417000        1.0080           0
   21973 WT1  6634 TIP3 OH2  OT    -0.834000       15.9994           0
   21974 WT1  6634 TIP3 H1   HT     0.417000        1.0080           0
   21975 WT1  6634 TIP3 H2   HT     0.417000        1.0080           0
   21976 WT1  6635 TIP3 OH2  OT    -0.834000       15.9994           0
   21977 WT1  6635 TIP3 H1   HT     0.417000        1.0080           0
   21978 WT1  6635 TIP3 H2   HT     0.417000        1.0080           0
   21979 WT1  6636 TIP3 OH2  OT    -0.834000       15.9994           0
   21980 WT1  6636 TIP3 H1   HT     0.417000        1.0080           0
   21981 WT1  6636 TIP3 H2   HT     0.417000        1.0080           0
   21982 WT1  6637 TIP3 OH2  OT    -0.834000       15.9994           0
   21983 WT1  6637 TIP3 H1   HT     0.417000        1.0080           0
   21984 WT1  6637 TIP3 H2   HT     0.417000        1.0080           0
   21985 WT1  6638 TIP3 OH2  OT    -0.834000       15.9994           0
   21986 WT1  6638 TIP3 H1   HT     0.417000        1.0080           0
   21987 WT1  6638 TIP3 H2   HT     0.417000        1.0080           0
   21988 WT1  6639 TIP3 OH2  OT    -0.834000       15.9994           0
   21989 WT1  6639 TIP3 H1   HT     0.417000        1.0080           0
   21990 WT1  6639 TIP3 H2   HT     0.417000        1.0080           0
   21991 WT1  6640 TIP3 OH2  OT    -0.834000       15.9994           0
   21992 WT1  6640 TIP3 H1   HT     0.417000        1.0080           0
   21993 WT1  6640 TIP3 H2   HT     0.417000        1.0080           0
   21994 WT1  6641 TIP3 OH2  OT    -0.834000       15.9994           0
   21995 WT1  6641 TIP3 H1   HT     0.417000        1.0080           0
   21996 WT1  6641 TIP3 H2   HT     0.417000        1.0080           0
   21997 WT1  6642 TIP3 OH2  OT    -0.834000       15.9994           0
   21998 WT1  6642 TIP3 H1   HT     0.417000        1.0080           0
   21999 WT1  6642 TIP3 H2   HT     0.417000        1.0080           0
   22000 WT1  6643 TIP3 OH2  OT    -0.834000       15.9994           0
   22001 WT1  6643 TIP3 H1   HT     0.417000        1.0080           0
   22002 WT1  6643 TIP3 H2   HT     0.417000        1.0080           0
   22003 WT1  6644 TIP3 OH2  OT    -0.834000       15.9994           0
   22004 WT1  6644 TIP3 H1   HT     0.417000        1.0080           0
   22005 WT1  6644 TIP3 H2   HT     0.417000        1.0080           0
   22006 WT1  6645 TIP3 OH2  OT    -0.834000       15.9994           0
   22007 WT1  6645 TIP3 H1   HT     0.417000        1.0080           0
   22008 WT1  6645 TIP3 H2   HT     0.417000        1.0080           0
   22009 WT1  6646 TIP3 OH2  OT    -0.834000       15.9994           0
   22010 WT1  6646 TIP3 H1   HT     0.417000        1.0080           0
   22011 WT1  6646 TIP3 H2   HT     0.417000        1.0080           0
   22012 WT1  6647 TIP3 OH2  OT    -0.834000       15.9994           0
   22013 WT1  6647 TIP3 H1   HT     0.417000        1.0080           0
   22014 WT1  6647 TIP3 H2   HT     0.417000        1.0080           0
   22015 WT1  6648 TIP3 OH2  OT    -0.834000       15.9994           0
   22016 WT1  6648 TIP3 H1   HT     0.417000        1.0080           0
   22017 WT1  6648 TIP3 H2   HT     0.417000        1.0080           0
   22018 WT1  6649 TIP3 OH2  OT    -0.834000       15.9994           0
   22019 WT1  6649 TIP3 H1   HT     0.417000        1.0080           0
   22020 WT1  6649 TIP3 H2   HT     0.417000        1.0080           0
   22021 WT1  6650 TIP3 OH2  OT    -0.834000       15.9994           0
   22022 WT1  6650 TIP3 H1   HT     0.417000        1.0080           0
   22023 WT1  6650 TIP3 H2   HT     0.417000        1.0080           0
   22024 WT1  6652 TIP3 OH2  OT    -0.834000       15.9994           0
   22025 WT1  6652 TIP3 H1   HT     0.417000        1.0080           0
   22026 WT1  6652 TIP3 H2   HT     0.417000        1.0080           0
   22027 WT1  6653 TIP3 OH2  OT    -0.834000       15.9994           0
   22028 WT1  6653 TIP3 H1   HT     0.417000        1.0080           0
   22029 WT1  6653 TIP3 H2   HT     0.417000        1.0080           0
   22030 WT1  6656 TIP3 OH2  OT    -0.834000       15.9994           0
   22031 WT1  6656 TIP3 H1   HT     0.417000        1.0080           0
   22032 WT1  6656 TIP3 H2   HT     0.417000        1.0080           0
   22033 WT1  6657 TIP3 OH2  OT    -0.834000       15.9994           0
   22034 WT1  6657 TIP3 H1   HT     0.417000        1.0080           0
   22035 WT1  6657 TIP3 H2   HT     0.417000        1.0080           0
   22036 WT1  6658 TIP3 OH2  OT    -0.834000       15.9994           0
   22037 WT1  6658 TIP3 H1   HT     0.417000        1.0080           0
   22038 WT1  6658 TIP3 H2   HT     0.417000        1.0080           0
   22039 WT1  6659 TIP3 OH2  OT    -0.834000       15.9994           0
   22040 WT1  6659 TIP3 H1   HT     0.417000        1.0080           0
   22041 WT1  6659 TIP3 H2   HT     0.417000        1.0080           0
   22042 WT1  6660 TIP3 OH2  OT    -0.834000       15.9994           0
   22043 WT1  6660 TIP3 H1   HT     0.417000        1.0080           0
   22044 WT1  6660 TIP3 H2   HT     0.417000        1.0080           0
   22045 WT1  6661 TIP3 OH2  OT    -0.834000       15.9994           0
   22046 WT1  6661 TIP3 H1   HT     0.417000        1.0080           0
   22047 WT1  6661 TIP3 H2   HT     0.417000        1.0080           0
   22048 WT1  6662 TIP3 OH2  OT    -0.834000       15.9994           0
   22049 WT1  6662 TIP3 H1   HT     0.417000        1.0080           0
   22050 WT1  6662 TIP3 H2   HT     0.417000        1.0080           0
   22051 WT1  6663 TIP3 OH2  OT    -0.834000       15.9994           0
   22052 WT1  6663 TIP3 H1   HT     0.417000        1.0080           0
   22053 WT1  6663 TIP3 H2   HT     0.417000        1.0080           0
   22054 WT1  6664 TIP3 OH2  OT    -0.834000       15.9994           0
   22055 WT1  6664 TIP3 H1   HT     0.417000        1.0080           0
   22056 WT1  6664 TIP3 H2   HT     0.417000        1.0080           0
   22057 WT1  6665 TIP3 OH2  OT    -0.834000       15.9994           0
   22058 WT1  6665 TIP3 H1   HT     0.417000        1.0080           0
   22059 WT1  6665 TIP3 H2   HT     0.417000        1.0080           0
   22060 WT1  6666 TIP3 OH2  OT    -0.834000       15.9994           0
   22061 WT1  6666 TIP3 H1   HT     0.417000        1.0080           0
   22062 WT1  6666 TIP3 H2   HT     0.417000        1.0080           0
   22063 WT1  6667 TIP3 OH2  OT    -0.834000       15.9994           0
   22064 WT1  6667 TIP3 H1   HT     0.417000        1.0080           0
   22065 WT1  6667 TIP3 H2   HT     0.417000        1.0080           0
   22066 WT1  6668 TIP3 OH2  OT    -0.834000       15.9994           0
   22067 WT1  6668 TIP3 H1   HT     0.417000        1.0080           0
   22068 WT1  6668 TIP3 H2   HT     0.417000        1.0080           0
   22069 WT1  6669 TIP3 OH2  OT    -0.834000       15.9994           0
   22070 WT1  6669 TIP3 H1   HT     0.417000        1.0080           0
   22071 WT1  6669 TIP3 H2   HT     0.417000        1.0080           0
   22072 WT1  6670 TIP3 OH2  OT    -0.834000       15.9994           0
   22073 WT1  6670 TIP3 H1   HT     0.417000        1.0080           0
   22074 WT1  6670 TIP3 H2   HT     0.417000        1.0080           0
   22075 WT1  6671 TIP3 OH2  OT    -0.834000       15.9994           0
   22076 WT1  6671 TIP3 H1   HT     0.417000        1.0080           0
   22077 WT1  6671 TIP3 H2   HT     0.417000        1.0080           0
   22078 WT1  6672 TIP3 OH2  OT    -0.834000       15.9994           0
   22079 WT1  6672 TIP3 H1   HT     0.417000        1.0080           0
   22080 WT1  6672 TIP3 H2   HT     0.417000        1.0080           0
   22081 WT1  6673 TIP3 OH2  OT    -0.834000       15.9994           0
   22082 WT1  6673 TIP3 H1   HT     0.417000        1.0080           0
   22083 WT1  6673 TIP3 H2   HT     0.417000        1.0080           0
   22084 WT1  6674 TIP3 OH2  OT    -0.834000       15.9994           0
   22085 WT1  6674 TIP3 H1   HT     0.417000        1.0080           0
   22086 WT1  6674 TIP3 H2   HT     0.417000        1.0080           0
   22087 WT1  6675 TIP3 OH2  OT    -0.834000       15.9994           0
   22088 WT1  6675 TIP3 H1   HT     0.417000        1.0080           0
   22089 WT1  6675 TIP3 H2   HT     0.417000        1.0080           0
   22090 WT1  6676 TIP3 OH2  OT    -0.834000       15.9994           0
   22091 WT1  6676 TIP3 H1   HT     0.417000        1.0080           0
   22092 WT1  6676 TIP3 H2   HT     0.417000        1.0080           0
   22093 WT1  6677 TIP3 OH2  OT    -0.834000       15.9994           0
   22094 WT1  6677 TIP3 H1   HT     0.417000        1.0080           0
   22095 WT1  6677 TIP3 H2   HT     0.417000        1.0080           0
   22096 WT1  6678 TIP3 OH2  OT    -0.834000       15.9994           0
   22097 WT1  6678 TIP3 H1   HT     0.417000        1.0080           0
   22098 WT1  6678 TIP3 H2   HT     0.417000        1.0080           0
   22099 WT1  6679 TIP3 OH2  OT    -0.834000       15.9994           0
   22100 WT1  6679 TIP3 H1   HT     0.417000        1.0080           0
   22101 WT1  6679 TIP3 H2   HT     0.417000        1.0080           0
   22102 WT1  6680 TIP3 OH2  OT    -0.834000       15.9994           0
   22103 WT1  6680 TIP3 H1   HT     0.417000        1.0080           0
   22104 WT1  6680 TIP3 H2   HT     0.417000        1.0080           0
   22105 WT1  6681 TIP3 OH2  OT    -0.834000       15.9994           0
   22106 WT1  6681 TIP3 H1   HT     0.417000        1.0080           0
   22107 WT1  6681 TIP3 H2   HT     0.417000        1.0080           0
   22108 WT1  6683 TIP3 OH2  OT    -0.834000       15.9994           0
   22109 WT1  6683 TIP3 H1   HT     0.417000        1.0080           0
   22110 WT1  6683 TIP3 H2   HT     0.417000        1.0080           0
   22111 WT1  6684 TIP3 OH2  OT    -0.834000       15.9994           0
   22112 WT1  6684 TIP3 H1   HT     0.417000        1.0080           0
   22113 WT1  6684 TIP3 H2   HT     0.417000        1.0080           0
   22114 WT1  6685 TIP3 OH2  OT    -0.834000       15.9994           0
   22115 WT1  6685 TIP3 H1   HT     0.417000        1.0080           0
   22116 WT1  6685 TIP3 H2   HT     0.417000        1.0080           0
   22117 WT1  6686 TIP3 OH2  OT    -0.834000       15.9994           0
   22118 WT1  6686 TIP3 H1   HT     0.417000        1.0080           0
   22119 WT1  6686 TIP3 H2   HT     0.417000        1.0080           0
   22120 WT1  6687 TIP3 OH2  OT    -0.834000       15.9994           0
   22121 WT1  6687 TIP3 H1   HT     0.417000        1.0080           0
   22122 WT1  6687 TIP3 H2   HT     0.417000        1.0080           0
   22123 WT1  6688 TIP3 OH2  OT    -0.834000       15.9994           0
   22124 WT1  6688 TIP3 H1   HT     0.417000        1.0080           0
   22125 WT1  6688 TIP3 H2   HT     0.417000        1.0080           0
   22126 WT1  6689 TIP3 OH2  OT    -0.834000       15.9994           0
   22127 WT1  6689 TIP3 H1   HT     0.417000        1.0080           0
   22128 WT1  6689 TIP3 H2   HT     0.417000        1.0080           0
   22129 WT1  6690 TIP3 OH2  OT    -0.834000       15.9994           0
   22130 WT1  6690 TIP3 H1   HT     0.417000        1.0080           0
   22131 WT1  6690 TIP3 H2   HT     0.417000        1.0080           0
   22132 WT1  6691 TIP3 OH2  OT    -0.834000       15.9994           0
   22133 WT1  6691 TIP3 H1   HT     0.417000        1.0080           0
   22134 WT1  6691 TIP3 H2   HT     0.417000        1.0080           0
   22135 WT1  6692 TIP3 OH2  OT    -0.834000       15.9994           0
   22136 WT1  6692 TIP3 H1   HT     0.417000        1.0080           0
   22137 WT1  6692 TIP3 H2   HT     0.417000        1.0080           0
   22138 WT1  6693 TIP3 OH2  OT    -0.834000       15.9994           0
   22139 WT1  6693 TIP3 H1   HT     0.417000        1.0080           0
   22140 WT1  6693 TIP3 H2   HT     0.417000        1.0080           0
   22141 WT1  6694 TIP3 OH2  OT    -0.834000       15.9994           0
   22142 WT1  6694 TIP3 H1   HT     0.417000        1.0080           0
   22143 WT1  6694 TIP3 H2   HT     0.417000        1.0080           0
   22144 WT1  6697 TIP3 OH2  OT    -0.834000       15.9994           0
   22145 WT1  6697 TIP3 H1   HT     0.417000        1.0080           0
   22146 WT1  6697 TIP3 H2   HT     0.417000        1.0080           0
   22147 WT1  6698 TIP3 OH2  OT    -0.834000       15.9994           0
   22148 WT1  6698 TIP3 H1   HT     0.417000        1.0080           0
   22149 WT1  6698 TIP3 H2   HT     0.417000        1.0080           0
   22150 WT1  6700 TIP3 OH2  OT    -0.834000       15.9994           0
   22151 WT1  6700 TIP3 H1   HT     0.417000        1.0080           0
   22152 WT1  6700 TIP3 H2   HT     0.417000        1.0080           0
   22153 WT1  6701 TIP3 OH2  OT    -0.834000       15.9994           0
   22154 WT1  6701 TIP3 H1   HT     0.417000        1.0080           0
   22155 WT1  6701 TIP3 H2   HT     0.417000        1.0080           0
   22156 WT1  6702 TIP3 OH2  OT    -0.834000       15.9994           0
   22157 WT1  6702 TIP3 H1   HT     0.417000        1.0080           0
   22158 WT1  6702 TIP3 H2   HT     0.417000        1.0080           0
   22159 WT1  6703 TIP3 OH2  OT    -0.834000       15.9994           0
   22160 WT1  6703 TIP3 H1   HT     0.417000        1.0080           0
   22161 WT1  6703 TIP3 H2   HT     0.417000        1.0080           0
   22162 WT1  6704 TIP3 OH2  OT    -0.834000       15.9994           0
   22163 WT1  6704 TIP3 H1   HT     0.417000        1.0080           0
   22164 WT1  6704 TIP3 H2   HT     0.417000        1.0080           0
   22165 WT1  6705 TIP3 OH2  OT    -0.834000       15.9994           0
   22166 WT1  6705 TIP3 H1   HT     0.417000        1.0080           0
   22167 WT1  6705 TIP3 H2   HT     0.417000        1.0080           0
   22168 WT1  6706 TIP3 OH2  OT    -0.834000       15.9994           0
   22169 WT1  6706 TIP3 H1   HT     0.417000        1.0080           0
   22170 WT1  6706 TIP3 H2   HT     0.417000        1.0080           0
   22171 WT1  6707 TIP3 OH2  OT    -0.834000       15.9994           0
   22172 WT1  6707 TIP3 H1   HT     0.417000        1.0080           0
   22173 WT1  6707 TIP3 H2   HT     0.417000        1.0080           0
   22174 WT1  6708 TIP3 OH2  OT    -0.834000       15.9994           0
   22175 WT1  6708 TIP3 H1   HT     0.417000        1.0080           0
   22176 WT1  6708 TIP3 H2   HT     0.417000        1.0080           0
   22177 WT1  6709 TIP3 OH2  OT    -0.834000       15.9994           0
   22178 WT1  6709 TIP3 H1   HT     0.417000        1.0080           0
   22179 WT1  6709 TIP3 H2   HT     0.417000        1.0080           0
   22180 WT1  6710 TIP3 OH2  OT    -0.834000       15.9994           0
   22181 WT1  6710 TIP3 H1   HT     0.417000        1.0080           0
   22182 WT1  6710 TIP3 H2   HT     0.417000        1.0080           0
   22183 WT1  6711 TIP3 OH2  OT    -0.834000       15.9994           0
   22184 WT1  6711 TIP3 H1   HT     0.417000        1.0080           0
   22185 WT1  6711 TIP3 H2   HT     0.417000        1.0080           0
   22186 WT1  6712 TIP3 OH2  OT    -0.834000       15.9994           0
   22187 WT1  6712 TIP3 H1   HT     0.417000        1.0080           0
   22188 WT1  6712 TIP3 H2   HT     0.417000        1.0080           0
   22189 WT1  6713 TIP3 OH2  OT    -0.834000       15.9994           0
   22190 WT1  6713 TIP3 H1   HT     0.417000        1.0080           0
   22191 WT1  6713 TIP3 H2   HT     0.417000        1.0080           0
   22192 WT1  6714 TIP3 OH2  OT    -0.834000       15.9994           0
   22193 WT1  6714 TIP3 H1   HT     0.417000        1.0080           0
   22194 WT1  6714 TIP3 H2   HT     0.417000        1.0080           0
   22195 WT1  6715 TIP3 OH2  OT    -0.834000       15.9994           0
   22196 WT1  6715 TIP3 H1   HT     0.417000        1.0080           0
   22197 WT1  6715 TIP3 H2   HT     0.417000        1.0080           0
   22198 WT1  6717 TIP3 OH2  OT    -0.834000       15.9994           0
   22199 WT1  6717 TIP3 H1   HT     0.417000        1.0080           0
   22200 WT1  6717 TIP3 H2   HT     0.417000        1.0080           0
   22201 WT1  6719 TIP3 OH2  OT    -0.834000       15.9994           0
   22202 WT1  6719 TIP3 H1   HT     0.417000        1.0080           0
   22203 WT1  6719 TIP3 H2   HT     0.417000        1.0080           0
   22204 WT1  6721 TIP3 OH2  OT    -0.834000       15.9994           0
   22205 WT1  6721 TIP3 H1   HT     0.417000        1.0080           0
   22206 WT1  6721 TIP3 H2   HT     0.417000        1.0080           0
   22207 WT1  6722 TIP3 OH2  OT    -0.834000       15.9994           0
   22208 WT1  6722 TIP3 H1   HT     0.417000        1.0080           0
   22209 WT1  6722 TIP3 H2   HT     0.417000        1.0080           0
   22210 WT1  6724 TIP3 OH2  OT    -0.834000       15.9994           0
   22211 WT1  6724 TIP3 H1   HT     0.417000        1.0080           0
   22212 WT1  6724 TIP3 H2   HT     0.417000        1.0080           0
   22213 WT1  6725 TIP3 OH2  OT    -0.834000       15.9994           0
   22214 WT1  6725 TIP3 H1   HT     0.417000        1.0080           0
   22215 WT1  6725 TIP3 H2   HT     0.417000        1.0080           0
   22216 WT1  6726 TIP3 OH2  OT    -0.834000       15.9994           0
   22217 WT1  6726 TIP3 H1   HT     0.417000        1.0080           0
   22218 WT1  6726 TIP3 H2   HT     0.417000        1.0080           0
   22219 WT1  6727 TIP3 OH2  OT    -0.834000       15.9994           0
   22220 WT1  6727 TIP3 H1   HT     0.417000        1.0080           0
   22221 WT1  6727 TIP3 H2   HT     0.417000        1.0080           0
   22222 WT1  6728 TIP3 OH2  OT    -0.834000       15.9994           0
   22223 WT1  6728 TIP3 H1   HT     0.417000        1.0080           0
   22224 WT1  6728 TIP3 H2   HT     0.417000        1.0080           0
   22225 WT1  6729 TIP3 OH2  OT    -0.834000       15.9994           0
   22226 WT1  6729 TIP3 H1   HT     0.417000        1.0080           0
   22227 WT1  6729 TIP3 H2   HT     0.417000        1.0080           0
   22228 WT1  6730 TIP3 OH2  OT    -0.834000       15.9994           0
   22229 WT1  6730 TIP3 H1   HT     0.417000        1.0080           0
   22230 WT1  6730 TIP3 H2   HT     0.417000        1.0080           0
   22231 WT1  6731 TIP3 OH2  OT    -0.834000       15.9994           0
   22232 WT1  6731 TIP3 H1   HT     0.417000        1.0080           0
   22233 WT1  6731 TIP3 H2   HT     0.417000        1.0080           0
   22234 WT1  6732 TIP3 OH2  OT    -0.834000       15.9994           0
   22235 WT1  6732 TIP3 H1   HT     0.417000        1.0080           0
   22236 WT1  6732 TIP3 H2   HT     0.417000        1.0080           0
   22237 WT1  6733 TIP3 OH2  OT    -0.834000       15.9994           0
   22238 WT1  6733 TIP3 H1   HT     0.417000        1.0080           0
   22239 WT1  6733 TIP3 H2   HT     0.417000        1.0080           0
   22240 WT1  6734 TIP3 OH2  OT    -0.834000       15.9994           0
   22241 WT1  6734 TIP3 H1   HT     0.417000        1.0080           0
   22242 WT1  6734 TIP3 H2   HT     0.417000        1.0080           0
   22243 WT1  6735 TIP3 OH2  OT    -0.834000       15.9994           0
   22244 WT1  6735 TIP3 H1   HT     0.417000        1.0080           0
   22245 WT1  6735 TIP3 H2   HT     0.417000        1.0080           0
   22246 WT1  6736 TIP3 OH2  OT    -0.834000       15.9994           0
   22247 WT1  6736 TIP3 H1   HT     0.417000        1.0080           0
   22248 WT1  6736 TIP3 H2   HT     0.417000        1.0080           0
   22249 WT1  6737 TIP3 OH2  OT    -0.834000       15.9994           0
   22250 WT1  6737 TIP3 H1   HT     0.417000        1.0080           0
   22251 WT1  6737 TIP3 H2   HT     0.417000        1.0080           0
   22252 WT1  6740 TIP3 OH2  OT    -0.834000       15.9994           0
   22253 WT1  6740 TIP3 H1   HT     0.417000        1.0080           0
   22254 WT1  6740 TIP3 H2   HT     0.417000        1.0080           0
   22255 WT1  6741 TIP3 OH2  OT    -0.834000       15.9994           0
   22256 WT1  6741 TIP3 H1   HT     0.417000        1.0080           0
   22257 WT1  6741 TIP3 H2   HT     0.417000        1.0080           0
   22258 WT1  6742 TIP3 OH2  OT    -0.834000       15.9994           0
   22259 WT1  6742 TIP3 H1   HT     0.417000        1.0080           0
   22260 WT1  6742 TIP3 H2   HT     0.417000        1.0080           0
   22261 WT1  6744 TIP3 OH2  OT    -0.834000       15.9994           0
   22262 WT1  6744 TIP3 H1   HT     0.417000        1.0080           0
   22263 WT1  6744 TIP3 H2   HT     0.417000        1.0080           0
   22264 WT1  6745 TIP3 OH2  OT    -0.834000       15.9994           0
   22265 WT1  6745 TIP3 H1   HT     0.417000        1.0080           0
   22266 WT1  6745 TIP3 H2   HT     0.417000        1.0080           0
   22267 WT1  6747 TIP3 OH2  OT    -0.834000       15.9994           0
   22268 WT1  6747 TIP3 H1   HT     0.417000        1.0080           0
   22269 WT1  6747 TIP3 H2   HT     0.417000        1.0080           0
   22270 WT1  6748 TIP3 OH2  OT    -0.834000       15.9994           0
   22271 WT1  6748 TIP3 H1   HT     0.417000        1.0080           0
   22272 WT1  6748 TIP3 H2   HT     0.417000        1.0080           0
   22273 WT1  6749 TIP3 OH2  OT    -0.834000       15.9994           0
   22274 WT1  6749 TIP3 H1   HT     0.417000        1.0080           0
   22275 WT1  6749 TIP3 H2   HT     0.417000        1.0080           0
   22276 WT1  6750 TIP3 OH2  OT    -0.834000       15.9994           0
   22277 WT1  6750 TIP3 H1   HT     0.417000        1.0080           0
   22278 WT1  6750 TIP3 H2   HT     0.417000        1.0080           0
   22279 WT1  6751 TIP3 OH2  OT    -0.834000       15.9994           0
   22280 WT1  6751 TIP3 H1   HT     0.417000        1.0080           0
   22281 WT1  6751 TIP3 H2   HT     0.417000        1.0080           0
   22282 WT1  6752 TIP3 OH2  OT    -0.834000       15.9994           0
   22283 WT1  6752 TIP3 H1   HT     0.417000        1.0080           0
   22284 WT1  6752 TIP3 H2   HT     0.417000        1.0080           0
   22285 WT1  6753 TIP3 OH2  OT    -0.834000       15.9994           0
   22286 WT1  6753 TIP3 H1   HT     0.417000        1.0080           0
   22287 WT1  6753 TIP3 H2   HT     0.417000        1.0080           0
   22288 WT1  6754 TIP3 OH2  OT    -0.834000       15.9994           0
   22289 WT1  6754 TIP3 H1   HT     0.417000        1.0080           0
   22290 WT1  6754 TIP3 H2   HT     0.417000        1.0080           0
   22291 WT1  6755 TIP3 OH2  OT    -0.834000       15.9994           0
   22292 WT1  6755 TIP3 H1   HT     0.417000        1.0080           0
   22293 WT1  6755 TIP3 H2   HT     0.417000        1.0080           0
   22294 WT1  6756 TIP3 OH2  OT    -0.834000       15.9994           0
   22295 WT1  6756 TIP3 H1   HT     0.417000        1.0080           0
   22296 WT1  6756 TIP3 H2   HT     0.417000        1.0080           0
   22297 WT1  6757 TIP3 OH2  OT    -0.834000       15.9994           0
   22298 WT1  6757 TIP3 H1   HT     0.417000        1.0080           0
   22299 WT1  6757 TIP3 H2   HT     0.417000        1.0080           0
   22300 WT1  6758 TIP3 OH2  OT    -0.834000       15.9994           0
   22301 WT1  6758 TIP3 H1   HT     0.417000        1.0080           0
   22302 WT1  6758 TIP3 H2   HT     0.417000        1.0080           0
   22303 WT1  6759 TIP3 OH2  OT    -0.834000       15.9994           0
   22304 WT1  6759 TIP3 H1   HT     0.417000        1.0080           0
   22305 WT1  6759 TIP3 H2   HT     0.417000        1.0080           0
   22306 WT1  6761 TIP3 OH2  OT    -0.834000       15.9994           0
   22307 WT1  6761 TIP3 H1   HT     0.417000        1.0080           0
   22308 WT1  6761 TIP3 H2   HT     0.417000        1.0080           0
   22309 WT1  6762 TIP3 OH2  OT    -0.834000       15.9994           0
   22310 WT1  6762 TIP3 H1   HT     0.417000        1.0080           0
   22311 WT1  6762 TIP3 H2   HT     0.417000        1.0080           0
   22312 WT1  6763 TIP3 OH2  OT    -0.834000       15.9994           0
   22313 WT1  6763 TIP3 H1   HT     0.417000        1.0080           0
   22314 WT1  6763 TIP3 H2   HT     0.417000        1.0080           0
   22315 WT1  6765 TIP3 OH2  OT    -0.834000       15.9994           0
   22316 WT1  6765 TIP3 H1   HT     0.417000        1.0080           0
   22317 WT1  6765 TIP3 H2   HT     0.417000        1.0080           0
   22318 WT1  6767 TIP3 OH2  OT    -0.834000       15.9994           0
   22319 WT1  6767 TIP3 H1   HT     0.417000        1.0080           0
   22320 WT1  6767 TIP3 H2   HT     0.417000        1.0080           0
   22321 WT1  6768 TIP3 OH2  OT    -0.834000       15.9994           0
   22322 WT1  6768 TIP3 H1   HT     0.417000        1.0080           0
   22323 WT1  6768 TIP3 H2   HT     0.417000        1.0080           0
   22324 WT1  6769 TIP3 OH2  OT    -0.834000       15.9994           0
   22325 WT1  6769 TIP3 H1   HT     0.417000        1.0080           0
   22326 WT1  6769 TIP3 H2   HT     0.417000        1.0080           0
   22327 WT1  6770 TIP3 OH2  OT    -0.834000       15.9994           0
   22328 WT1  6770 TIP3 H1   HT     0.417000        1.0080           0
   22329 WT1  6770 TIP3 H2   HT     0.417000        1.0080           0
   22330 WT1  6771 TIP3 OH2  OT    -0.834000       15.9994           0
   22331 WT1  6771 TIP3 H1   HT     0.417000        1.0080           0
   22332 WT1  6771 TIP3 H2   HT     0.417000        1.0080           0
   22333 WT1  6772 TIP3 OH2  OT    -0.834000       15.9994           0
   22334 WT1  6772 TIP3 H1   HT     0.417000        1.0080           0
   22335 WT1  6772 TIP3 H2   HT     0.417000        1.0080           0
   22336 WT1  6773 TIP3 OH2  OT    -0.834000       15.9994           0
   22337 WT1  6773 TIP3 H1   HT     0.417000        1.0080           0
   22338 WT1  6773 TIP3 H2   HT     0.417000        1.0080           0
   22339 WT1  6774 TIP3 OH2  OT    -0.834000       15.9994           0
   22340 WT1  6774 TIP3 H1   HT     0.417000        1.0080           0
   22341 WT1  6774 TIP3 H2   HT     0.417000        1.0080           0
   22342 WT1  6775 TIP3 OH2  OT    -0.834000       15.9994           0
   22343 WT1  6775 TIP3 H1   HT     0.417000        1.0080           0
   22344 WT1  6775 TIP3 H2   HT     0.417000        1.0080           0
   22345 WT1  6776 TIP3 OH2  OT    -0.834000       15.9994           0
   22346 WT1  6776 TIP3 H1   HT     0.417000        1.0080           0
   22347 WT1  6776 TIP3 H2   HT     0.417000        1.0080           0
   22348 WT1  6777 TIP3 OH2  OT    -0.834000       15.9994           0
   22349 WT1  6777 TIP3 H1   HT     0.417000        1.0080           0
   22350 WT1  6777 TIP3 H2   HT     0.417000        1.0080           0
   22351 WT1  6778 TIP3 OH2  OT    -0.834000       15.9994           0
   22352 WT1  6778 TIP3 H1   HT     0.417000        1.0080           0
   22353 WT1  6778 TIP3 H2   HT     0.417000        1.0080           0
   22354 WT1  6779 TIP3 OH2  OT    -0.834000       15.9994           0
   22355 WT1  6779 TIP3 H1   HT     0.417000        1.0080           0
   22356 WT1  6779 TIP3 H2   HT     0.417000        1.0080           0
   22357 WT1  6782 TIP3 OH2  OT    -0.834000       15.9994           0
   22358 WT1  6782 TIP3 H1   HT     0.417000        1.0080           0
   22359 WT1  6782 TIP3 H2   HT     0.417000        1.0080           0
   22360 WT1  6783 TIP3 OH2  OT    -0.834000       15.9994           0
   22361 WT1  6783 TIP3 H1   HT     0.417000        1.0080           0
   22362 WT1  6783 TIP3 H2   HT     0.417000        1.0080           0
   22363 WT1  6784 TIP3 OH2  OT    -0.834000       15.9994           0
   22364 WT1  6784 TIP3 H1   HT     0.417000        1.0080           0
   22365 WT1  6784 TIP3 H2   HT     0.417000        1.0080           0
   22366 WT1  6785 TIP3 OH2  OT    -0.834000       15.9994           0
   22367 WT1  6785 TIP3 H1   HT     0.417000        1.0080           0
   22368 WT1  6785 TIP3 H2   HT     0.417000        1.0080           0
   22369 WT1  6786 TIP3 OH2  OT    -0.834000       15.9994           0
   22370 WT1  6786 TIP3 H1   HT     0.417000        1.0080           0
   22371 WT1  6786 TIP3 H2   HT     0.417000        1.0080           0
   22372 WT1  6787 TIP3 OH2  OT    -0.834000       15.9994           0
   22373 WT1  6787 TIP3 H1   HT     0.417000        1.0080           0
   22374 WT1  6787 TIP3 H2   HT     0.417000        1.0080           0
   22375 WT1  6788 TIP3 OH2  OT    -0.834000       15.9994           0
   22376 WT1  6788 TIP3 H1   HT     0.417000        1.0080           0
   22377 WT1  6788 TIP3 H2   HT     0.417000        1.0080           0
   22378 WT1  6789 TIP3 OH2  OT    -0.834000       15.9994           0
   22379 WT1  6789 TIP3 H1   HT     0.417000        1.0080           0
   22380 WT1  6789 TIP3 H2   HT     0.417000        1.0080           0
   22381 WT1  6790 TIP3 OH2  OT    -0.834000       15.9994           0
   22382 WT1  6790 TIP3 H1   HT     0.417000        1.0080           0
   22383 WT1  6790 TIP3 H2   HT     0.417000        1.0080           0
   22384 WT1  6791 TIP3 OH2  OT    -0.834000       15.9994           0
   22385 WT1  6791 TIP3 H1   HT     0.417000        1.0080           0
   22386 WT1  6791 TIP3 H2   HT     0.417000        1.0080           0
   22387 WT1  6792 TIP3 OH2  OT    -0.834000       15.9994           0
   22388 WT1  6792 TIP3 H1   HT     0.417000        1.0080           0
   22389 WT1  6792 TIP3 H2   HT     0.417000        1.0080           0
   22390 WT1  6793 TIP3 OH2  OT    -0.834000       15.9994           0
   22391 WT1  6793 TIP3 H1   HT     0.417000        1.0080           0
   22392 WT1  6793 TIP3 H2   HT     0.417000        1.0080           0
   22393 WT1  6794 TIP3 OH2  OT    -0.834000       15.9994           0
   22394 WT1  6794 TIP3 H1   HT     0.417000        1.0080           0
   22395 WT1  6794 TIP3 H2   HT     0.417000        1.0080           0
   22396 WT1  6795 TIP3 OH2  OT    -0.834000       15.9994           0
   22397 WT1  6795 TIP3 H1   HT     0.417000        1.0080           0
   22398 WT1  6795 TIP3 H2   HT     0.417000        1.0080           0
   22399 WT1  6797 TIP3 OH2  OT    -0.834000       15.9994           0
   22400 WT1  6797 TIP3 H1   HT     0.417000        1.0080           0
   22401 WT1  6797 TIP3 H2   HT     0.417000        1.0080           0
   22402 WT1  6798 TIP3 OH2  OT    -0.834000       15.9994           0
   22403 WT1  6798 TIP3 H1   HT     0.417000        1.0080           0
   22404 WT1  6798 TIP3 H2   HT     0.417000        1.0080           0
   22405 WT1  6800 TIP3 OH2  OT    -0.834000       15.9994           0
   22406 WT1  6800 TIP3 H1   HT     0.417000        1.0080           0
   22407 WT1  6800 TIP3 H2   HT     0.417000        1.0080           0
   22408 WT1  6801 TIP3 OH2  OT    -0.834000       15.9994           0
   22409 WT1  6801 TIP3 H1   HT     0.417000        1.0080           0
   22410 WT1  6801 TIP3 H2   HT     0.417000        1.0080           0
   22411 WT1  6802 TIP3 OH2  OT    -0.834000       15.9994           0
   22412 WT1  6802 TIP3 H1   HT     0.417000        1.0080           0
   22413 WT1  6802 TIP3 H2   HT     0.417000        1.0080           0
   22414 WT1  6803 TIP3 OH2  OT    -0.834000       15.9994           0
   22415 WT1  6803 TIP3 H1   HT     0.417000        1.0080           0
   22416 WT1  6803 TIP3 H2   HT     0.417000        1.0080           0
   22417 WT1  6804 TIP3 OH2  OT    -0.834000       15.9994           0
   22418 WT1  6804 TIP3 H1   HT     0.417000        1.0080           0
   22419 WT1  6804 TIP3 H2   HT     0.417000        1.0080           0
   22420 WT1  6805 TIP3 OH2  OT    -0.834000       15.9994           0
   22421 WT1  6805 TIP3 H1   HT     0.417000        1.0080           0
   22422 WT1  6805 TIP3 H2   HT     0.417000        1.0080           0
   22423 WT1  6807 TIP3 OH2  OT    -0.834000       15.9994           0
   22424 WT1  6807 TIP3 H1   HT     0.417000        1.0080           0
   22425 WT1  6807 TIP3 H2   HT     0.417000        1.0080           0
   22426 WT1  6808 TIP3 OH2  OT    -0.834000       15.9994           0
   22427 WT1  6808 TIP3 H1   HT     0.417000        1.0080           0
   22428 WT1  6808 TIP3 H2   HT     0.417000        1.0080           0
   22429 WT1  6809 TIP3 OH2  OT    -0.834000       15.9994           0
   22430 WT1  6809 TIP3 H1   HT     0.417000        1.0080           0
   22431 WT1  6809 TIP3 H2   HT     0.417000        1.0080           0
   22432 WT1  6810 TIP3 OH2  OT    -0.834000       15.9994           0
   22433 WT1  6810 TIP3 H1   HT     0.417000        1.0080           0
   22434 WT1  6810 TIP3 H2   HT     0.417000        1.0080           0
   22435 WT1  6811 TIP3 OH2  OT    -0.834000       15.9994           0
   22436 WT1  6811 TIP3 H1   HT     0.417000        1.0080           0
   22437 WT1  6811 TIP3 H2   HT     0.417000        1.0080           0
   22438 WT1  6812 TIP3 OH2  OT    -0.834000       15.9994           0
   22439 WT1  6812 TIP3 H1   HT     0.417000        1.0080           0
   22440 WT1  6812 TIP3 H2   HT     0.417000        1.0080           0
   22441 WT1  6813 TIP3 OH2  OT    -0.834000       15.9994           0
   22442 WT1  6813 TIP3 H1   HT     0.417000        1.0080           0
   22443 WT1  6813 TIP3 H2   HT     0.417000        1.0080           0
   22444 WT1  6814 TIP3 OH2  OT    -0.834000       15.9994           0
   22445 WT1  6814 TIP3 H1   HT     0.417000        1.0080           0
   22446 WT1  6814 TIP3 H2   HT     0.417000        1.0080           0
   22447 WT1  6815 TIP3 OH2  OT    -0.834000       15.9994           0
   22448 WT1  6815 TIP3 H1   HT     0.417000        1.0080           0
   22449 WT1  6815 TIP3 H2   HT     0.417000        1.0080           0
   22450 WT1  6816 TIP3 OH2  OT    -0.834000       15.9994           0
   22451 WT1  6816 TIP3 H1   HT     0.417000        1.0080           0
   22452 WT1  6816 TIP3 H2   HT     0.417000        1.0080           0
   22453 WT1  6817 TIP3 OH2  OT    -0.834000       15.9994           0
   22454 WT1  6817 TIP3 H1   HT     0.417000        1.0080           0
   22455 WT1  6817 TIP3 H2   HT     0.417000        1.0080           0
   22456 WT1  6819 TIP3 OH2  OT    -0.834000       15.9994           0
   22457 WT1  6819 TIP3 H1   HT     0.417000        1.0080           0
   22458 WT1  6819 TIP3 H2   HT     0.417000        1.0080           0
   22459 WT1  6820 TIP3 OH2  OT    -0.834000       15.9994           0
   22460 WT1  6820 TIP3 H1   HT     0.417000        1.0080           0
   22461 WT1  6820 TIP3 H2   HT     0.417000        1.0080           0
   22462 WT1  6821 TIP3 OH2  OT    -0.834000       15.9994           0
   22463 WT1  6821 TIP3 H1   HT     0.417000        1.0080           0
   22464 WT1  6821 TIP3 H2   HT     0.417000        1.0080           0
   22465 WT1  6822 TIP3 OH2  OT    -0.834000       15.9994           0
   22466 WT1  6822 TIP3 H1   HT     0.417000        1.0080           0
   22467 WT1  6822 TIP3 H2   HT     0.417000        1.0080           0
   22468 WT1  6823 TIP3 OH2  OT    -0.834000       15.9994           0
   22469 WT1  6823 TIP3 H1   HT     0.417000        1.0080           0
   22470 WT1  6823 TIP3 H2   HT     0.417000        1.0080           0
   22471 WT1  6825 TIP3 OH2  OT    -0.834000       15.9994           0
   22472 WT1  6825 TIP3 H1   HT     0.417000        1.0080           0
   22473 WT1  6825 TIP3 H2   HT     0.417000        1.0080           0
   22474 WT1  6826 TIP3 OH2  OT    -0.834000       15.9994           0
   22475 WT1  6826 TIP3 H1   HT     0.417000        1.0080           0
   22476 WT1  6826 TIP3 H2   HT     0.417000        1.0080           0
   22477 WT1  6827 TIP3 OH2  OT    -0.834000       15.9994           0
   22478 WT1  6827 TIP3 H1   HT     0.417000        1.0080           0
   22479 WT1  6827 TIP3 H2   HT     0.417000        1.0080           0
   22480 WT1  6828 TIP3 OH2  OT    -0.834000       15.9994           0
   22481 WT1  6828 TIP3 H1   HT     0.417000        1.0080           0
   22482 WT1  6828 TIP3 H2   HT     0.417000        1.0080           0
   22483 WT1  6829 TIP3 OH2  OT    -0.834000       15.9994           0
   22484 WT1  6829 TIP3 H1   HT     0.417000        1.0080           0
   22485 WT1  6829 TIP3 H2   HT     0.417000        1.0080           0
   22486 WT1  6830 TIP3 OH2  OT    -0.834000       15.9994           0
   22487 WT1  6830 TIP3 H1   HT     0.417000        1.0080           0
   22488 WT1  6830 TIP3 H2   HT     0.417000        1.0080           0
   22489 WT1  6831 TIP3 OH2  OT    -0.834000       15.9994           0
   22490 WT1  6831 TIP3 H1   HT     0.417000        1.0080           0
   22491 WT1  6831 TIP3 H2   HT     0.417000        1.0080           0
   22492 WT1  6832 TIP3 OH2  OT    -0.834000       15.9994           0
   22493 WT1  6832 TIP3 H1   HT     0.417000        1.0080           0
   22494 WT1  6832 TIP3 H2   HT     0.417000        1.0080           0
   22495 WT1  6833 TIP3 OH2  OT    -0.834000       15.9994           0
   22496 WT1  6833 TIP3 H1   HT     0.417000        1.0080           0
   22497 WT1  6833 TIP3 H2   HT     0.417000        1.0080           0
   22498 WT1  6834 TIP3 OH2  OT    -0.834000       15.9994           0
   22499 WT1  6834 TIP3 H1   HT     0.417000        1.0080           0
   22500 WT1  6834 TIP3 H2   HT     0.417000        1.0080           0
   22501 WT1  6835 TIP3 OH2  OT    -0.834000       15.9994           0
   22502 WT1  6835 TIP3 H1   HT     0.417000        1.0080           0
   22503 WT1  6835 TIP3 H2   HT     0.417000        1.0080           0
   22504 WT1  6836 TIP3 OH2  OT    -0.834000       15.9994           0
   22505 WT1  6836 TIP3 H1   HT     0.417000        1.0080           0
   22506 WT1  6836 TIP3 H2   HT     0.417000        1.0080           0
   22507 WT1  6837 TIP3 OH2  OT    -0.834000       15.9994           0
   22508 WT1  6837 TIP3 H1   HT     0.417000        1.0080           0
   22509 WT1  6837 TIP3 H2   HT     0.417000        1.0080           0
   22510 WT1  6838 TIP3 OH2  OT    -0.834000       15.9994           0
   22511 WT1  6838 TIP3 H1   HT     0.417000        1.0080           0
   22512 WT1  6838 TIP3 H2   HT     0.417000        1.0080           0
   22513 WT1  6839 TIP3 OH2  OT    -0.834000       15.9994           0
   22514 WT1  6839 TIP3 H1   HT     0.417000        1.0080           0
   22515 WT1  6839 TIP3 H2   HT     0.417000        1.0080           0
   22516 WT1  6840 TIP3 OH2  OT    -0.834000       15.9994           0
   22517 WT1  6840 TIP3 H1   HT     0.417000        1.0080           0
   22518 WT1  6840 TIP3 H2   HT     0.417000        1.0080           0
   22519 WT1  6841 TIP3 OH2  OT    -0.834000       15.9994           0
   22520 WT1  6841 TIP3 H1   HT     0.417000        1.0080           0
   22521 WT1  6841 TIP3 H2   HT     0.417000        1.0080           0
   22522 WT1  6842 TIP3 OH2  OT    -0.834000       15.9994           0
   22523 WT1  6842 TIP3 H1   HT     0.417000        1.0080           0
   22524 WT1  6842 TIP3 H2   HT     0.417000        1.0080           0
   22525 WT1  6844 TIP3 OH2  OT    -0.834000       15.9994           0
   22526 WT1  6844 TIP3 H1   HT     0.417000        1.0080           0
   22527 WT1  6844 TIP3 H2   HT     0.417000        1.0080           0
   22528 WT1  6845 TIP3 OH2  OT    -0.834000       15.9994           0
   22529 WT1  6845 TIP3 H1   HT     0.417000        1.0080           0
   22530 WT1  6845 TIP3 H2   HT     0.417000        1.0080           0
   22531 WT1  6846 TIP3 OH2  OT    -0.834000       15.9994           0
   22532 WT1  6846 TIP3 H1   HT     0.417000        1.0080           0
   22533 WT1  6846 TIP3 H2   HT     0.417000        1.0080           0
   22534 WT1  6847 TIP3 OH2  OT    -0.834000       15.9994           0
   22535 WT1  6847 TIP3 H1   HT     0.417000        1.0080           0
   22536 WT1  6847 TIP3 H2   HT     0.417000        1.0080           0
   22537 WT1  6848 TIP3 OH2  OT    -0.834000       15.9994           0
   22538 WT1  6848 TIP3 H1   HT     0.417000        1.0080           0
   22539 WT1  6848 TIP3 H2   HT     0.417000        1.0080           0
   22540 WT1  6849 TIP3 OH2  OT    -0.834000       15.9994           0
   22541 WT1  6849 TIP3 H1   HT     0.417000        1.0080           0
   22542 WT1  6849 TIP3 H2   HT     0.417000        1.0080           0
   22543 WT1  6850 TIP3 OH2  OT    -0.834000       15.9994           0
   22544 WT1  6850 TIP3 H1   HT     0.417000        1.0080           0
   22545 WT1  6850 TIP3 H2   HT     0.417000        1.0080           0
   22546 WT1  6851 TIP3 OH2  OT    -0.834000       15.9994           0
   22547 WT1  6851 TIP3 H1   HT     0.417000        1.0080           0
   22548 WT1  6851 TIP3 H2   HT     0.417000        1.0080           0
   22549 WT1  6852 TIP3 OH2  OT    -0.834000       15.9994           0
   22550 WT1  6852 TIP3 H1   HT     0.417000        1.0080           0
   22551 WT1  6852 TIP3 H2   HT     0.417000        1.0080           0
   22552 WT1  6853 TIP3 OH2  OT    -0.834000       15.9994           0
   22553 WT1  6853 TIP3 H1   HT     0.417000        1.0080           0
   22554 WT1  6853 TIP3 H2   HT     0.417000        1.0080           0
   22555 WT1  6854 TIP3 OH2  OT    -0.834000       15.9994           0
   22556 WT1  6854 TIP3 H1   HT     0.417000        1.0080           0
   22557 WT1  6854 TIP3 H2   HT     0.417000        1.0080           0
   22558 WT1  6855 TIP3 OH2  OT    -0.834000       15.9994           0
   22559 WT1  6855 TIP3 H1   HT     0.417000        1.0080           0
   22560 WT1  6855 TIP3 H2   HT     0.417000        1.0080           0
   22561 WT1  6856 TIP3 OH2  OT    -0.834000       15.9994           0
   22562 WT1  6856 TIP3 H1   HT     0.417000        1.0080           0
   22563 WT1  6856 TIP3 H2   HT     0.417000        1.0080           0
   22564 WT1  6857 TIP3 OH2  OT    -0.834000       15.9994           0
   22565 WT1  6857 TIP3 H1   HT     0.417000        1.0080           0
   22566 WT1  6857 TIP3 H2   HT     0.417000        1.0080           0
   22567 WT1  6858 TIP3 OH2  OT    -0.834000       15.9994           0
   22568 WT1  6858 TIP3 H1   HT     0.417000        1.0080           0
   22569 WT1  6858 TIP3 H2   HT     0.417000        1.0080           0
   22570 WT1  6859 TIP3 OH2  OT    -0.834000       15.9994           0
   22571 WT1  6859 TIP3 H1   HT     0.417000        1.0080           0
   22572 WT1  6859 TIP3 H2   HT     0.417000        1.0080           0
   22573 WT1  6861 TIP3 OH2  OT    -0.834000       15.9994           0
   22574 WT1  6861 TIP3 H1   HT     0.417000        1.0080           0
   22575 WT1  6861 TIP3 H2   HT     0.417000        1.0080           0
   22576 WT1  6862 TIP3 OH2  OT    -0.834000       15.9994           0
   22577 WT1  6862 TIP3 H1   HT     0.417000        1.0080           0
   22578 WT1  6862 TIP3 H2   HT     0.417000        1.0080           0
   22579 WT1  6864 TIP3 OH2  OT    -0.834000       15.9994           0
   22580 WT1  6864 TIP3 H1   HT     0.417000        1.0080           0
   22581 WT1  6864 TIP3 H2   HT     0.417000        1.0080           0
   22582 WT1  6865 TIP3 OH2  OT    -0.834000       15.9994           0
   22583 WT1  6865 TIP3 H1   HT     0.417000        1.0080           0
   22584 WT1  6865 TIP3 H2   HT     0.417000        1.0080           0
   22585 WT1  6866 TIP3 OH2  OT    -0.834000       15.9994           0
   22586 WT1  6866 TIP3 H1   HT     0.417000        1.0080           0
   22587 WT1  6866 TIP3 H2   HT     0.417000        1.0080           0
   22588 WT1  6867 TIP3 OH2  OT    -0.834000       15.9994           0
   22589 WT1  6867 TIP3 H1   HT     0.417000        1.0080           0
   22590 WT1  6867 TIP3 H2   HT     0.417000        1.0080           0
   22591 WT1  6869 TIP3 OH2  OT    -0.834000       15.9994           0
   22592 WT1  6869 TIP3 H1   HT     0.417000        1.0080           0
   22593 WT1  6869 TIP3 H2   HT     0.417000        1.0080           0
   22594 WT1  6870 TIP3 OH2  OT    -0.834000       15.9994           0
   22595 WT1  6870 TIP3 H1   HT     0.417000        1.0080           0
   22596 WT1  6870 TIP3 H2   HT     0.417000        1.0080           0
   22597 WT1  6872 TIP3 OH2  OT    -0.834000       15.9994           0
   22598 WT1  6872 TIP3 H1   HT     0.417000        1.0080           0
   22599 WT1  6872 TIP3 H2   HT     0.417000        1.0080           0
   22600 WT1  6873 TIP3 OH2  OT    -0.834000       15.9994           0
   22601 WT1  6873 TIP3 H1   HT     0.417000        1.0080           0
   22602 WT1  6873 TIP3 H2   HT     0.417000        1.0080           0
   22603 WT1  6874 TIP3 OH2  OT    -0.834000       15.9994           0
   22604 WT1  6874 TIP3 H1   HT     0.417000        1.0080           0
   22605 WT1  6874 TIP3 H2   HT     0.417000        1.0080           0
   22606 WT1  6875 TIP3 OH2  OT    -0.834000       15.9994           0
   22607 WT1  6875 TIP3 H1   HT     0.417000        1.0080           0
   22608 WT1  6875 TIP3 H2   HT     0.417000        1.0080           0
   22609 WT1  6876 TIP3 OH2  OT    -0.834000       15.9994           0
   22610 WT1  6876 TIP3 H1   HT     0.417000        1.0080           0
   22611 WT1  6876 TIP3 H2   HT     0.417000        1.0080           0
   22612 WT1  6877 TIP3 OH2  OT    -0.834000       15.9994           0
   22613 WT1  6877 TIP3 H1   HT     0.417000        1.0080           0
   22614 WT1  6877 TIP3 H2   HT     0.417000        1.0080           0
   22615 WT1  6878 TIP3 OH2  OT    -0.834000       15.9994           0
   22616 WT1  6878 TIP3 H1   HT     0.417000        1.0080           0
   22617 WT1  6878 TIP3 H2   HT     0.417000        1.0080           0
   22618 WT1  6879 TIP3 OH2  OT    -0.834000       15.9994           0
   22619 WT1  6879 TIP3 H1   HT     0.417000        1.0080           0
   22620 WT1  6879 TIP3 H2   HT     0.417000        1.0080           0
   22621 WT1  6880 TIP3 OH2  OT    -0.834000       15.9994           0
   22622 WT1  6880 TIP3 H1   HT     0.417000        1.0080           0
   22623 WT1  6880 TIP3 H2   HT     0.417000        1.0080           0
   22624 WT1  6881 TIP3 OH2  OT    -0.834000       15.9994           0
   22625 WT1  6881 TIP3 H1   HT     0.417000        1.0080           0
   22626 WT1  6881 TIP3 H2   HT     0.417000        1.0080           0
   22627 WT1  6882 TIP3 OH2  OT    -0.834000       15.9994           0
   22628 WT1  6882 TIP3 H1   HT     0.417000        1.0080           0
   22629 WT1  6882 TIP3 H2   HT     0.417000        1.0080           0
   22630 WT1  6883 TIP3 OH2  OT    -0.834000       15.9994           0
   22631 WT1  6883 TIP3 H1   HT     0.417000        1.0080           0
   22632 WT1  6883 TIP3 H2   HT     0.417000        1.0080           0
   22633 WT1  6884 TIP3 OH2  OT    -0.834000       15.9994           0
   22634 WT1  6884 TIP3 H1   HT     0.417000        1.0080           0
   22635 WT1  6884 TIP3 H2   HT     0.417000        1.0080           0
   22636 WT1  6885 TIP3 OH2  OT    -0.834000       15.9994           0
   22637 WT1  6885 TIP3 H1   HT     0.417000        1.0080           0
   22638 WT1  6885 TIP3 H2   HT     0.417000        1.0080           0
   22639 WT1  6886 TIP3 OH2  OT    -0.834000       15.9994           0
   22640 WT1  6886 TIP3 H1   HT     0.417000        1.0080           0
   22641 WT1  6886 TIP3 H2   HT     0.417000        1.0080           0
   22642 WT1  6887 TIP3 OH2  OT    -0.834000       15.9994           0
   22643 WT1  6887 TIP3 H1   HT     0.417000        1.0080           0
   22644 WT1  6887 TIP3 H2   HT     0.417000        1.0080           0
   22645 WT1  6888 TIP3 OH2  OT    -0.834000       15.9994           0
   22646 WT1  6888 TIP3 H1   HT     0.417000        1.0080           0
   22647 WT1  6888 TIP3 H2   HT     0.417000        1.0080           0
   22648 WT1  6889 TIP3 OH2  OT    -0.834000       15.9994           0
   22649 WT1  6889 TIP3 H1   HT     0.417000        1.0080           0
   22650 WT1  6889 TIP3 H2   HT     0.417000        1.0080           0
   22651 WT1  6890 TIP3 OH2  OT    -0.834000       15.9994           0
   22652 WT1  6890 TIP3 H1   HT     0.417000        1.0080           0
   22653 WT1  6890 TIP3 H2   HT     0.417000        1.0080           0
   22654 WT1  6891 TIP3 OH2  OT    -0.834000       15.9994           0
   22655 WT1  6891 TIP3 H1   HT     0.417000        1.0080           0
   22656 WT1  6891 TIP3 H2   HT     0.417000        1.0080           0
   22657 WT1  6892 TIP3 OH2  OT    -0.834000       15.9994           0
   22658 WT1  6892 TIP3 H1   HT     0.417000        1.0080           0
   22659 WT1  6892 TIP3 H2   HT     0.417000        1.0080           0
   22660 WT1  6893 TIP3 OH2  OT    -0.834000       15.9994           0
   22661 WT1  6893 TIP3 H1   HT     0.417000        1.0080           0
   22662 WT1  6893 TIP3 H2   HT     0.417000        1.0080           0
   22663 WT1  6895 TIP3 OH2  OT    -0.834000       15.9994           0
   22664 WT1  6895 TIP3 H1   HT     0.417000        1.0080           0
   22665 WT1  6895 TIP3 H2   HT     0.417000        1.0080           0
   22666 WT1  6896 TIP3 OH2  OT    -0.834000       15.9994           0
   22667 WT1  6896 TIP3 H1   HT     0.417000        1.0080           0
   22668 WT1  6896 TIP3 H2   HT     0.417000        1.0080           0
   22669 WT1  6897 TIP3 OH2  OT    -0.834000       15.9994           0
   22670 WT1  6897 TIP3 H1   HT     0.417000        1.0080           0
   22671 WT1  6897 TIP3 H2   HT     0.417000        1.0080           0
   22672 WT1  6898 TIP3 OH2  OT    -0.834000       15.9994           0
   22673 WT1  6898 TIP3 H1   HT     0.417000        1.0080           0
   22674 WT1  6898 TIP3 H2   HT     0.417000        1.0080           0
   22675 WT1  6899 TIP3 OH2  OT    -0.834000       15.9994           0
   22676 WT1  6899 TIP3 H1   HT     0.417000        1.0080           0
   22677 WT1  6899 TIP3 H2   HT     0.417000        1.0080           0
   22678 WT1  6900 TIP3 OH2  OT    -0.834000       15.9994           0
   22679 WT1  6900 TIP3 H1   HT     0.417000        1.0080           0
   22680 WT1  6900 TIP3 H2   HT     0.417000        1.0080           0
   22681 WT1  6901 TIP3 OH2  OT    -0.834000       15.9994           0
   22682 WT1  6901 TIP3 H1   HT     0.417000        1.0080           0
   22683 WT1  6901 TIP3 H2   HT     0.417000        1.0080           0
   22684 WT1  6902 TIP3 OH2  OT    -0.834000       15.9994           0
   22685 WT1  6902 TIP3 H1   HT     0.417000        1.0080           0
   22686 WT1  6902 TIP3 H2   HT     0.417000        1.0080           0
   22687 WT1  6903 TIP3 OH2  OT    -0.834000       15.9994           0
   22688 WT1  6903 TIP3 H1   HT     0.417000        1.0080           0
   22689 WT1  6903 TIP3 H2   HT     0.417000        1.0080           0
   22690 WT1  6904 TIP3 OH2  OT    -0.834000       15.9994           0
   22691 WT1  6904 TIP3 H1   HT     0.417000        1.0080           0
   22692 WT1  6904 TIP3 H2   HT     0.417000        1.0080           0
   22693 WT1  6905 TIP3 OH2  OT    -0.834000       15.9994           0
   22694 WT1  6905 TIP3 H1   HT     0.417000        1.0080           0
   22695 WT1  6905 TIP3 H2   HT     0.417000        1.0080           0
   22696 WT1  6906 TIP3 OH2  OT    -0.834000       15.9994           0
   22697 WT1  6906 TIP3 H1   HT     0.417000        1.0080           0
   22698 WT1  6906 TIP3 H2   HT     0.417000        1.0080           0
   22699 WT1  6908 TIP3 OH2  OT    -0.834000       15.9994           0
   22700 WT1  6908 TIP3 H1   HT     0.417000        1.0080           0
   22701 WT1  6908 TIP3 H2   HT     0.417000        1.0080           0
   22702 WT1  6909 TIP3 OH2  OT    -0.834000       15.9994           0
   22703 WT1  6909 TIP3 H1   HT     0.417000        1.0080           0
   22704 WT1  6909 TIP3 H2   HT     0.417000        1.0080           0
   22705 WT1  6910 TIP3 OH2  OT    -0.834000       15.9994           0
   22706 WT1  6910 TIP3 H1   HT     0.417000        1.0080           0
   22707 WT1  6910 TIP3 H2   HT     0.417000        1.0080           0
   22708 WT1  6911 TIP3 OH2  OT    -0.834000       15.9994           0
   22709 WT1  6911 TIP3 H1   HT     0.417000        1.0080           0
   22710 WT1  6911 TIP3 H2   HT     0.417000        1.0080           0
   22711 WT1  6912 TIP3 OH2  OT    -0.834000       15.9994           0
   22712 WT1  6912 TIP3 H1   HT     0.417000        1.0080           0
   22713 WT1  6912 TIP3 H2   HT     0.417000        1.0080           0
   22714 WT1  6913 TIP3 OH2  OT    -0.834000       15.9994           0
   22715 WT1  6913 TIP3 H1   HT     0.417000        1.0080           0
   22716 WT1  6913 TIP3 H2   HT     0.417000        1.0080           0
   22717 WT1  6914 TIP3 OH2  OT    -0.834000       15.9994           0
   22718 WT1  6914 TIP3 H1   HT     0.417000        1.0080           0
   22719 WT1  6914 TIP3 H2   HT     0.417000        1.0080           0
   22720 WT1  6915 TIP3 OH2  OT    -0.834000       15.9994           0
   22721 WT1  6915 TIP3 H1   HT     0.417000        1.0080           0
   22722 WT1  6915 TIP3 H2   HT     0.417000        1.0080           0
   22723 WT1  6916 TIP3 OH2  OT    -0.834000       15.9994           0
   22724 WT1  6916 TIP3 H1   HT     0.417000        1.0080           0
   22725 WT1  6916 TIP3 H2   HT     0.417000        1.0080           0
   22726 WT1  6917 TIP3 OH2  OT    -0.834000       15.9994           0
   22727 WT1  6917 TIP3 H1   HT     0.417000        1.0080           0
   22728 WT1  6917 TIP3 H2   HT     0.417000        1.0080           0
   22729 WT1  6918 TIP3 OH2  OT    -0.834000       15.9994           0
   22730 WT1  6918 TIP3 H1   HT     0.417000        1.0080           0
   22731 WT1  6918 TIP3 H2   HT     0.417000        1.0080           0
   22732 WT1  6919 TIP3 OH2  OT    -0.834000       15.9994           0
   22733 WT1  6919 TIP3 H1   HT     0.417000        1.0080           0
   22734 WT1  6919 TIP3 H2   HT     0.417000        1.0080           0
   22735 WT1  6920 TIP3 OH2  OT    -0.834000       15.9994           0
   22736 WT1  6920 TIP3 H1   HT     0.417000        1.0080           0
   22737 WT1  6920 TIP3 H2   HT     0.417000        1.0080           0
   22738 WT1  6921 TIP3 OH2  OT    -0.834000       15.9994           0
   22739 WT1  6921 TIP3 H1   HT     0.417000        1.0080           0
   22740 WT1  6921 TIP3 H2   HT     0.417000        1.0080           0
   22741 WT1  6922 TIP3 OH2  OT    -0.834000       15.9994           0
   22742 WT1  6922 TIP3 H1   HT     0.417000        1.0080           0
   22743 WT1  6922 TIP3 H2   HT     0.417000        1.0080           0
   22744 WT1  6923 TIP3 OH2  OT    -0.834000       15.9994           0
   22745 WT1  6923 TIP3 H1   HT     0.417000        1.0080           0
   22746 WT1  6923 TIP3 H2   HT     0.417000        1.0080           0
   22747 WT1  6925 TIP3 OH2  OT    -0.834000       15.9994           0
   22748 WT1  6925 TIP3 H1   HT     0.417000        1.0080           0
   22749 WT1  6925 TIP3 H2   HT     0.417000        1.0080           0
   22750 WT1  6926 TIP3 OH2  OT    -0.834000       15.9994           0
   22751 WT1  6926 TIP3 H1   HT     0.417000        1.0080           0
   22752 WT1  6926 TIP3 H2   HT     0.417000        1.0080           0
   22753 WT1  6927 TIP3 OH2  OT    -0.834000       15.9994           0
   22754 WT1  6927 TIP3 H1   HT     0.417000        1.0080           0
   22755 WT1  6927 TIP3 H2   HT     0.417000        1.0080           0
   22756 WT1  6928 TIP3 OH2  OT    -0.834000       15.9994           0
   22757 WT1  6928 TIP3 H1   HT     0.417000        1.0080           0
   22758 WT1  6928 TIP3 H2   HT     0.417000        1.0080           0
   22759 WT1  6929 TIP3 OH2  OT    -0.834000       15.9994           0
   22760 WT1  6929 TIP3 H1   HT     0.417000        1.0080           0
   22761 WT1  6929 TIP3 H2   HT     0.417000        1.0080           0
   22762 WT1  6930 TIP3 OH2  OT    -0.834000       15.9994           0
   22763 WT1  6930 TIP3 H1   HT     0.417000        1.0080           0
   22764 WT1  6930 TIP3 H2   HT     0.417000        1.0080           0
   22765 WT1  6931 TIP3 OH2  OT    -0.834000       15.9994           0
   22766 WT1  6931 TIP3 H1   HT     0.417000        1.0080           0
   22767 WT1  6931 TIP3 H2   HT     0.417000        1.0080           0
   22768 WT1  6932 TIP3 OH2  OT    -0.834000       15.9994           0
   22769 WT1  6932 TIP3 H1   HT     0.417000        1.0080           0
   22770 WT1  6932 TIP3 H2   HT     0.417000        1.0080           0
   22771 WT1  6933 TIP3 OH2  OT    -0.834000       15.9994           0
   22772 WT1  6933 TIP3 H1   HT     0.417000        1.0080           0
   22773 WT1  6933 TIP3 H2   HT     0.417000        1.0080           0
   22774 WT1  6934 TIP3 OH2  OT    -0.834000       15.9994           0
   22775 WT1  6934 TIP3 H1   HT     0.417000        1.0080           0
   22776 WT1  6934 TIP3 H2   HT     0.417000        1.0080           0
   22777 WT1  6935 TIP3 OH2  OT    -0.834000       15.9994           0
   22778 WT1  6935 TIP3 H1   HT     0.417000        1.0080           0
   22779 WT1  6935 TIP3 H2   HT     0.417000        1.0080           0
   22780 WT1  6936 TIP3 OH2  OT    -0.834000       15.9994           0
   22781 WT1  6936 TIP3 H1   HT     0.417000        1.0080           0
   22782 WT1  6936 TIP3 H2   HT     0.417000        1.0080           0
   22783 WT1  6937 TIP3 OH2  OT    -0.834000       15.9994           0
   22784 WT1  6937 TIP3 H1   HT     0.417000        1.0080           0
   22785 WT1  6937 TIP3 H2   HT     0.417000        1.0080           0
   22786 WT1  6938 TIP3 OH2  OT    -0.834000       15.9994           0
   22787 WT1  6938 TIP3 H1   HT     0.417000        1.0080           0
   22788 WT1  6938 TIP3 H2   HT     0.417000        1.0080           0
   22789 WT1  6939 TIP3 OH2  OT    -0.834000       15.9994           0
   22790 WT1  6939 TIP3 H1   HT     0.417000        1.0080           0
   22791 WT1  6939 TIP3 H2   HT     0.417000        1.0080           0
   22792 WT1  6940 TIP3 OH2  OT    -0.834000       15.9994           0
   22793 WT1  6940 TIP3 H1   HT     0.417000        1.0080           0
   22794 WT1  6940 TIP3 H2   HT     0.417000        1.0080           0
   22795 WT1  6941 TIP3 OH2  OT    -0.834000       15.9994           0
   22796 WT1  6941 TIP3 H1   HT     0.417000        1.0080           0
   22797 WT1  6941 TIP3 H2   HT     0.417000        1.0080           0
   22798 WT1  6942 TIP3 OH2  OT    -0.834000       15.9994           0
   22799 WT1  6942 TIP3 H1   HT     0.417000        1.0080           0
   22800 WT1  6942 TIP3 H2   HT     0.417000        1.0080           0
   22801 WT1  6943 TIP3 OH2  OT    -0.834000       15.9994           0
   22802 WT1  6943 TIP3 H1   HT     0.417000        1.0080           0
   22803 WT1  6943 TIP3 H2   HT     0.417000        1.0080           0
   22804 WT1  6944 TIP3 OH2  OT    -0.834000       15.9994           0
   22805 WT1  6944 TIP3 H1   HT     0.417000        1.0080           0
   22806 WT1  6944 TIP3 H2   HT     0.417000        1.0080           0
   22807 WT1  6945 TIP3 OH2  OT    -0.834000       15.9994           0
   22808 WT1  6945 TIP3 H1   HT     0.417000        1.0080           0
   22809 WT1  6945 TIP3 H2   HT     0.417000        1.0080           0
   22810 WT1  6946 TIP3 OH2  OT    -0.834000       15.9994           0
   22811 WT1  6946 TIP3 H1   HT     0.417000        1.0080           0
   22812 WT1  6946 TIP3 H2   HT     0.417000        1.0080           0
   22813 WT1  6947 TIP3 OH2  OT    -0.834000       15.9994           0
   22814 WT1  6947 TIP3 H1   HT     0.417000        1.0080           0
   22815 WT1  6947 TIP3 H2   HT     0.417000        1.0080           0
   22816 WT1  6948 TIP3 OH2  OT    -0.834000       15.9994           0
   22817 WT1  6948 TIP3 H1   HT     0.417000        1.0080           0
   22818 WT1  6948 TIP3 H2   HT     0.417000        1.0080           0
   22819 WT1  6949 TIP3 OH2  OT    -0.834000       15.9994           0
   22820 WT1  6949 TIP3 H1   HT     0.417000        1.0080           0
   22821 WT1  6949 TIP3 H2   HT     0.417000        1.0080           0
   22822 WT1  6951 TIP3 OH2  OT    -0.834000       15.9994           0
   22823 WT1  6951 TIP3 H1   HT     0.417000        1.0080           0
   22824 WT1  6951 TIP3 H2   HT     0.417000        1.0080           0
   22825 WT1  6952 TIP3 OH2  OT    -0.834000       15.9994           0
   22826 WT1  6952 TIP3 H1   HT     0.417000        1.0080           0
   22827 WT1  6952 TIP3 H2   HT     0.417000        1.0080           0
   22828 WT1  6953 TIP3 OH2  OT    -0.834000       15.9994           0
   22829 WT1  6953 TIP3 H1   HT     0.417000        1.0080           0
   22830 WT1  6953 TIP3 H2   HT     0.417000        1.0080           0
   22831 WT1  6954 TIP3 OH2  OT    -0.834000       15.9994           0
   22832 WT1  6954 TIP3 H1   HT     0.417000        1.0080           0
   22833 WT1  6954 TIP3 H2   HT     0.417000        1.0080           0
   22834 WT1  6955 TIP3 OH2  OT    -0.834000       15.9994           0
   22835 WT1  6955 TIP3 H1   HT     0.417000        1.0080           0
   22836 WT1  6955 TIP3 H2   HT     0.417000        1.0080           0
   22837 WT1  6956 TIP3 OH2  OT    -0.834000       15.9994           0
   22838 WT1  6956 TIP3 H1   HT     0.417000        1.0080           0
   22839 WT1  6956 TIP3 H2   HT     0.417000        1.0080           0
   22840 WT1  6957 TIP3 OH2  OT    -0.834000       15.9994           0
   22841 WT1  6957 TIP3 H1   HT     0.417000        1.0080           0
   22842 WT1  6957 TIP3 H2   HT     0.417000        1.0080           0
   22843 WT1  6958 TIP3 OH2  OT    -0.834000       15.9994           0
   22844 WT1  6958 TIP3 H1   HT     0.417000        1.0080           0
   22845 WT1  6958 TIP3 H2   HT     0.417000        1.0080           0
   22846 WT1  6959 TIP3 OH2  OT    -0.834000       15.9994           0
   22847 WT1  6959 TIP3 H1   HT     0.417000        1.0080           0
   22848 WT1  6959 TIP3 H2   HT     0.417000        1.0080           0
   22849 WT1  6960 TIP3 OH2  OT    -0.834000       15.9994           0
   22850 WT1  6960 TIP3 H1   HT     0.417000        1.0080           0
   22851 WT1  6960 TIP3 H2   HT     0.417000        1.0080           0
   22852 WT1  6961 TIP3 OH2  OT    -0.834000       15.9994           0
   22853 WT1  6961 TIP3 H1   HT     0.417000        1.0080           0
   22854 WT1  6961 TIP3 H2   HT     0.417000        1.0080           0
   22855 WT1  6962 TIP3 OH2  OT    -0.834000       15.9994           0
   22856 WT1  6962 TIP3 H1   HT     0.417000        1.0080           0
   22857 WT1  6962 TIP3 H2   HT     0.417000        1.0080           0
   22858 WT1  6963 TIP3 OH2  OT    -0.834000       15.9994           0
   22859 WT1  6963 TIP3 H1   HT     0.417000        1.0080           0
   22860 WT1  6963 TIP3 H2   HT     0.417000        1.0080           0
   22861 WT1  6964 TIP3 OH2  OT    -0.834000       15.9994           0
   22862 WT1  6964 TIP3 H1   HT     0.417000        1.0080           0
   22863 WT1  6964 TIP3 H2   HT     0.417000        1.0080           0
   22864 WT1  6966 TIP3 OH2  OT    -0.834000       15.9994           0
   22865 WT1  6966 TIP3 H1   HT     0.417000        1.0080           0
   22866 WT1  6966 TIP3 H2   HT     0.417000        1.0080           0
   22867 WT1  6968 TIP3 OH2  OT    -0.834000       15.9994           0
   22868 WT1  6968 TIP3 H1   HT     0.417000        1.0080           0
   22869 WT1  6968 TIP3 H2   HT     0.417000        1.0080           0
   22870 WT1  6969 TIP3 OH2  OT    -0.834000       15.9994           0
   22871 WT1  6969 TIP3 H1   HT     0.417000        1.0080           0
   22872 WT1  6969 TIP3 H2   HT     0.417000        1.0080           0
   22873 WT1  6970 TIP3 OH2  OT    -0.834000       15.9994           0
   22874 WT1  6970 TIP3 H1   HT     0.417000        1.0080           0
   22875 WT1  6970 TIP3 H2   HT     0.417000        1.0080           0
   22876 WT1  6971 TIP3 OH2  OT    -0.834000       15.9994           0
   22877 WT1  6971 TIP3 H1   HT     0.417000        1.0080           0
   22878 WT1  6971 TIP3 H2   HT     0.417000        1.0080           0
   22879 WT1  6973 TIP3 OH2  OT    -0.834000       15.9994           0
   22880 WT1  6973 TIP3 H1   HT     0.417000        1.0080           0
   22881 WT1  6973 TIP3 H2   HT     0.417000        1.0080           0
   22882 WT1  6974 TIP3 OH2  OT    -0.834000       15.9994           0
   22883 WT1  6974 TIP3 H1   HT     0.417000        1.0080           0
   22884 WT1  6974 TIP3 H2   HT     0.417000        1.0080           0
   22885 WT1  6975 TIP3 OH2  OT    -0.834000       15.9994           0
   22886 WT1  6975 TIP3 H1   HT     0.417000        1.0080           0
   22887 WT1  6975 TIP3 H2   HT     0.417000        1.0080           0
   22888 WT1  6976 TIP3 OH2  OT    -0.834000       15.9994           0
   22889 WT1  6976 TIP3 H1   HT     0.417000        1.0080           0
   22890 WT1  6976 TIP3 H2   HT     0.417000        1.0080           0
   22891 WT1  6977 TIP3 OH2  OT    -0.834000       15.9994           0
   22892 WT1  6977 TIP3 H1   HT     0.417000        1.0080           0
   22893 WT1  6977 TIP3 H2   HT     0.417000        1.0080           0
   22894 WT1  6978 TIP3 OH2  OT    -0.834000       15.9994           0
   22895 WT1  6978 TIP3 H1   HT     0.417000        1.0080           0
   22896 WT1  6978 TIP3 H2   HT     0.417000        1.0080           0
   22897 WT1  6979 TIP3 OH2  OT    -0.834000       15.9994           0
   22898 WT1  6979 TIP3 H1   HT     0.417000        1.0080           0
   22899 WT1  6979 TIP3 H2   HT     0.417000        1.0080           0
   22900 WT1  6980 TIP3 OH2  OT    -0.834000       15.9994           0
   22901 WT1  6980 TIP3 H1   HT     0.417000        1.0080           0
   22902 WT1  6980 TIP3 H2   HT     0.417000        1.0080           0
   22903 WT1  6981 TIP3 OH2  OT    -0.834000       15.9994           0
   22904 WT1  6981 TIP3 H1   HT     0.417000        1.0080           0
   22905 WT1  6981 TIP3 H2   HT     0.417000        1.0080           0
   22906 WT1  6982 TIP3 OH2  OT    -0.834000       15.9994           0
   22907 WT1  6982 TIP3 H1   HT     0.417000        1.0080           0
   22908 WT1  6982 TIP3 H2   HT     0.417000        1.0080           0
   22909 WT1  6983 TIP3 OH2  OT    -0.834000       15.9994           0
   22910 WT1  6983 TIP3 H1   HT     0.417000        1.0080           0
   22911 WT1  6983 TIP3 H2   HT     0.417000        1.0080           0
   22912 WT1  6984 TIP3 OH2  OT    -0.834000       15.9994           0
   22913 WT1  6984 TIP3 H1   HT     0.417000        1.0080           0
   22914 WT1  6984 TIP3 H2   HT     0.417000        1.0080           0
   22915 WT1  6985 TIP3 OH2  OT    -0.834000       15.9994           0
   22916 WT1  6985 TIP3 H1   HT     0.417000        1.0080           0
   22917 WT1  6985 TIP3 H2   HT     0.417000        1.0080           0
   22918 WT1  6986 TIP3 OH2  OT    -0.834000       15.9994           0
   22919 WT1  6986 TIP3 H1   HT     0.417000        1.0080           0
   22920 WT1  6986 TIP3 H2   HT     0.417000        1.0080           0
   22921 WT1  6987 TIP3 OH2  OT    -0.834000       15.9994           0
   22922 WT1  6987 TIP3 H1   HT     0.417000        1.0080           0
   22923 WT1  6987 TIP3 H2   HT     0.417000        1.0080           0
   22924 WT1  6988 TIP3 OH2  OT    -0.834000       15.9994           0
   22925 WT1  6988 TIP3 H1   HT     0.417000        1.0080           0
   22926 WT1  6988 TIP3 H2   HT     0.417000        1.0080           0
   22927 WT1  6990 TIP3 OH2  OT    -0.834000       15.9994           0
   22928 WT1  6990 TIP3 H1   HT     0.417000        1.0080           0
   22929 WT1  6990 TIP3 H2   HT     0.417000        1.0080           0
   22930 WT1  6991 TIP3 OH2  OT    -0.834000       15.9994           0
   22931 WT1  6991 TIP3 H1   HT     0.417000        1.0080           0
   22932 WT1  6991 TIP3 H2   HT     0.417000        1.0080           0
   22933 WT1  6992 TIP3 OH2  OT    -0.834000       15.9994           0
   22934 WT1  6992 TIP3 H1   HT     0.417000        1.0080           0
   22935 WT1  6992 TIP3 H2   HT     0.417000        1.0080           0
   22936 WT1  6993 TIP3 OH2  OT    -0.834000       15.9994           0
   22937 WT1  6993 TIP3 H1   HT     0.417000        1.0080           0
   22938 WT1  6993 TIP3 H2   HT     0.417000        1.0080           0
   22939 WT1  6994 TIP3 OH2  OT    -0.834000       15.9994           0
   22940 WT1  6994 TIP3 H1   HT     0.417000        1.0080           0
   22941 WT1  6994 TIP3 H2   HT     0.417000        1.0080           0
   22942 WT1  6995 TIP3 OH2  OT    -0.834000       15.9994           0
   22943 WT1  6995 TIP3 H1   HT     0.417000        1.0080           0
   22944 WT1  6995 TIP3 H2   HT     0.417000        1.0080           0
   22945 WT1  6996 TIP3 OH2  OT    -0.834000       15.9994           0
   22946 WT1  6996 TIP3 H1   HT     0.417000        1.0080           0
   22947 WT1  6996 TIP3 H2   HT     0.417000        1.0080           0
   22948 WT1  6997 TIP3 OH2  OT    -0.834000       15.9994           0
   22949 WT1  6997 TIP3 H1   HT     0.417000        1.0080           0
   22950 WT1  6997 TIP3 H2   HT     0.417000        1.0080           0
   22951 WT1  6998 TIP3 OH2  OT    -0.834000       15.9994           0
   22952 WT1  6998 TIP3 H1   HT     0.417000        1.0080           0
   22953 WT1  6998 TIP3 H2   HT     0.417000        1.0080           0
   22954 WT1  6999 TIP3 OH2  OT    -0.834000       15.9994           0
   22955 WT1  6999 TIP3 H1   HT     0.417000        1.0080           0
   22956 WT1  6999 TIP3 H2   HT     0.417000        1.0080           0
   22957 WT1  7000 TIP3 OH2  OT    -0.834000       15.9994           0
   22958 WT1  7000 TIP3 H1   HT     0.417000        1.0080           0
   22959 WT1  7000 TIP3 H2   HT     0.417000        1.0080           0
   22960 WT1  7001 TIP3 OH2  OT    -0.834000       15.9994           0
   22961 WT1  7001 TIP3 H1   HT     0.417000        1.0080           0
   22962 WT1  7001 TIP3 H2   HT     0.417000        1.0080           0
   22963 WT1  7002 TIP3 OH2  OT    -0.834000       15.9994           0
   22964 WT1  7002 TIP3 H1   HT     0.417000        1.0080           0
   22965 WT1  7002 TIP3 H2   HT     0.417000        1.0080           0
   22966 WT1  7003 TIP3 OH2  OT    -0.834000       15.9994           0
   22967 WT1  7003 TIP3 H1   HT     0.417000        1.0080           0
   22968 WT1  7003 TIP3 H2   HT     0.417000        1.0080           0
   22969 WT1  7004 TIP3 OH2  OT    -0.834000       15.9994           0
   22970 WT1  7004 TIP3 H1   HT     0.417000        1.0080           0
   22971 WT1  7004 TIP3 H2   HT     0.417000        1.0080           0
   22972 WT1  7005 TIP3 OH2  OT    -0.834000       15.9994           0
   22973 WT1  7005 TIP3 H1   HT     0.417000        1.0080           0
   22974 WT1  7005 TIP3 H2   HT     0.417000        1.0080           0
   22975 WT1  7006 TIP3 OH2  OT    -0.834000       15.9994           0
   22976 WT1  7006 TIP3 H1   HT     0.417000        1.0080           0
   22977 WT1  7006 TIP3 H2   HT     0.417000        1.0080           0
   22978 WT1  7007 TIP3 OH2  OT    -0.834000       15.9994           0
   22979 WT1  7007 TIP3 H1   HT     0.417000        1.0080           0
   22980 WT1  7007 TIP3 H2   HT     0.417000        1.0080           0
   22981 WT1  7008 TIP3 OH2  OT    -0.834000       15.9994           0
   22982 WT1  7008 TIP3 H1   HT     0.417000        1.0080           0
   22983 WT1  7008 TIP3 H2   HT     0.417000        1.0080           0
   22984 WT1  7011 TIP3 OH2  OT    -0.834000       15.9994           0
   22985 WT1  7011 TIP3 H1   HT     0.417000        1.0080           0
   22986 WT1  7011 TIP3 H2   HT     0.417000        1.0080           0
   22987 WT1  7012 TIP3 OH2  OT    -0.834000       15.9994           0
   22988 WT1  7012 TIP3 H1   HT     0.417000        1.0080           0
   22989 WT1  7012 TIP3 H2   HT     0.417000        1.0080           0
   22990 WT1  7014 TIP3 OH2  OT    -0.834000       15.9994           0
   22991 WT1  7014 TIP3 H1   HT     0.417000        1.0080           0
   22992 WT1  7014 TIP3 H2   HT     0.417000        1.0080           0
   22993 WT1  7015 TIP3 OH2  OT    -0.834000       15.9994           0
   22994 WT1  7015 TIP3 H1   HT     0.417000        1.0080           0
   22995 WT1  7015 TIP3 H2   HT     0.417000        1.0080           0
   22996 WT1  7016 TIP3 OH2  OT    -0.834000       15.9994           0
   22997 WT1  7016 TIP3 H1   HT     0.417000        1.0080           0
   22998 WT1  7016 TIP3 H2   HT     0.417000        1.0080           0
   22999 WT1  7017 TIP3 OH2  OT    -0.834000       15.9994           0
   23000 WT1  7017 TIP3 H1   HT     0.417000        1.0080           0
   23001 WT1  7017 TIP3 H2   HT     0.417000        1.0080           0
   23002 WT1  7018 TIP3 OH2  OT    -0.834000       15.9994           0
   23003 WT1  7018 TIP3 H1   HT     0.417000        1.0080           0
   23004 WT1  7018 TIP3 H2   HT     0.417000        1.0080           0
   23005 WT1  7019 TIP3 OH2  OT    -0.834000       15.9994           0
   23006 WT1  7019 TIP3 H1   HT     0.417000        1.0080           0
   23007 WT1  7019 TIP3 H2   HT     0.417000        1.0080           0
   23008 WT1  7020 TIP3 OH2  OT    -0.834000       15.9994           0
   23009 WT1  7020 TIP3 H1   HT     0.417000        1.0080           0
   23010 WT1  7020 TIP3 H2   HT     0.417000        1.0080           0
   23011 WT1  7021 TIP3 OH2  OT    -0.834000       15.9994           0
   23012 WT1  7021 TIP3 H1   HT     0.417000        1.0080           0
   23013 WT1  7021 TIP3 H2   HT     0.417000        1.0080           0
   23014 WT1  7022 TIP3 OH2  OT    -0.834000       15.9994           0
   23015 WT1  7022 TIP3 H1   HT     0.417000        1.0080           0
   23016 WT1  7022 TIP3 H2   HT     0.417000        1.0080           0
   23017 WT1  7023 TIP3 OH2  OT    -0.834000       15.9994           0
   23018 WT1  7023 TIP3 H1   HT     0.417000        1.0080           0
   23019 WT1  7023 TIP3 H2   HT     0.417000        1.0080           0
   23020 WT1  7024 TIP3 OH2  OT    -0.834000       15.9994           0
   23021 WT1  7024 TIP3 H1   HT     0.417000        1.0080           0
   23022 WT1  7024 TIP3 H2   HT     0.417000        1.0080           0
   23023 WT1  7025 TIP3 OH2  OT    -0.834000       15.9994           0
   23024 WT1  7025 TIP3 H1   HT     0.417000        1.0080           0
   23025 WT1  7025 TIP3 H2   HT     0.417000        1.0080           0
   23026 WT1  7026 TIP3 OH2  OT    -0.834000       15.9994           0
   23027 WT1  7026 TIP3 H1   HT     0.417000        1.0080           0
   23028 WT1  7026 TIP3 H2   HT     0.417000        1.0080           0
   23029 WT1  7027 TIP3 OH2  OT    -0.834000       15.9994           0
   23030 WT1  7027 TIP3 H1   HT     0.417000        1.0080           0
   23031 WT1  7027 TIP3 H2   HT     0.417000        1.0080           0
   23032 WT1  7028 TIP3 OH2  OT    -0.834000       15.9994           0
   23033 WT1  7028 TIP3 H1   HT     0.417000        1.0080           0
   23034 WT1  7028 TIP3 H2   HT     0.417000        1.0080           0
   23035 WT1  7029 TIP3 OH2  OT    -0.834000       15.9994           0
   23036 WT1  7029 TIP3 H1   HT     0.417000        1.0080           0
   23037 WT1  7029 TIP3 H2   HT     0.417000        1.0080           0
   23038 WT1  7031 TIP3 OH2  OT    -0.834000       15.9994           0
   23039 WT1  7031 TIP3 H1   HT     0.417000        1.0080           0
   23040 WT1  7031 TIP3 H2   HT     0.417000        1.0080           0
   23041 WT1  7032 TIP3 OH2  OT    -0.834000       15.9994           0
   23042 WT1  7032 TIP3 H1   HT     0.417000        1.0080           0
   23043 WT1  7032 TIP3 H2   HT     0.417000        1.0080           0
   23044 WT1  7033 TIP3 OH2  OT    -0.834000       15.9994           0
   23045 WT1  7033 TIP3 H1   HT     0.417000        1.0080           0
   23046 WT1  7033 TIP3 H2   HT     0.417000        1.0080           0
   23047 WT1  7037 TIP3 OH2  OT    -0.834000       15.9994           0
   23048 WT1  7037 TIP3 H1   HT     0.417000        1.0080           0
   23049 WT1  7037 TIP3 H2   HT     0.417000        1.0080           0
   23050 WT1  7038 TIP3 OH2  OT    -0.834000       15.9994           0
   23051 WT1  7038 TIP3 H1   HT     0.417000        1.0080           0
   23052 WT1  7038 TIP3 H2   HT     0.417000        1.0080           0
   23053 WT1  7039 TIP3 OH2  OT    -0.834000       15.9994           0
   23054 WT1  7039 TIP3 H1   HT     0.417000        1.0080           0
   23055 WT1  7039 TIP3 H2   HT     0.417000        1.0080           0
   23056 WT1  7040 TIP3 OH2  OT    -0.834000       15.9994           0
   23057 WT1  7040 TIP3 H1   HT     0.417000        1.0080           0
   23058 WT1  7040 TIP3 H2   HT     0.417000        1.0080           0
   23059 WT1  7041 TIP3 OH2  OT    -0.834000       15.9994           0
   23060 WT1  7041 TIP3 H1   HT     0.417000        1.0080           0
   23061 WT1  7041 TIP3 H2   HT     0.417000        1.0080           0
   23062 WT1  7042 TIP3 OH2  OT    -0.834000       15.9994           0
   23063 WT1  7042 TIP3 H1   HT     0.417000        1.0080           0
   23064 WT1  7042 TIP3 H2   HT     0.417000        1.0080           0
   23065 WT1  7043 TIP3 OH2  OT    -0.834000       15.9994           0
   23066 WT1  7043 TIP3 H1   HT     0.417000        1.0080           0
   23067 WT1  7043 TIP3 H2   HT     0.417000        1.0080           0
   23068 WT1  7044 TIP3 OH2  OT    -0.834000       15.9994           0
   23069 WT1  7044 TIP3 H1   HT     0.417000        1.0080           0
   23070 WT1  7044 TIP3 H2   HT     0.417000        1.0080           0
   23071 WT1  7045 TIP3 OH2  OT    -0.834000       15.9994           0
   23072 WT1  7045 TIP3 H1   HT     0.417000        1.0080           0
   23073 WT1  7045 TIP3 H2   HT     0.417000        1.0080           0
   23074 WT1  7046 TIP3 OH2  OT    -0.834000       15.9994           0
   23075 WT1  7046 TIP3 H1   HT     0.417000        1.0080           0
   23076 WT1  7046 TIP3 H2   HT     0.417000        1.0080           0
   23077 WT1  7047 TIP3 OH2  OT    -0.834000       15.9994           0
   23078 WT1  7047 TIP3 H1   HT     0.417000        1.0080           0
   23079 WT1  7047 TIP3 H2   HT     0.417000        1.0080           0
   23080 WT1  7050 TIP3 OH2  OT    -0.834000       15.9994           0
   23081 WT1  7050 TIP3 H1   HT     0.417000        1.0080           0
   23082 WT1  7050 TIP3 H2   HT     0.417000        1.0080           0
   23083 WT1  7051 TIP3 OH2  OT    -0.834000       15.9994           0
   23084 WT1  7051 TIP3 H1   HT     0.417000        1.0080           0
   23085 WT1  7051 TIP3 H2   HT     0.417000        1.0080           0
   23086 WT1  7052 TIP3 OH2  OT    -0.834000       15.9994           0
   23087 WT1  7052 TIP3 H1   HT     0.417000        1.0080           0
   23088 WT1  7052 TIP3 H2   HT     0.417000        1.0080           0
   23089 WT1  7054 TIP3 OH2  OT    -0.834000       15.9994           0
   23090 WT1  7054 TIP3 H1   HT     0.417000        1.0080           0
   23091 WT1  7054 TIP3 H2   HT     0.417000        1.0080           0
   23092 WT1  7055 TIP3 OH2  OT    -0.834000       15.9994           0
   23093 WT1  7055 TIP3 H1   HT     0.417000        1.0080           0
   23094 WT1  7055 TIP3 H2   HT     0.417000        1.0080           0
   23095 WT1  7056 TIP3 OH2  OT    -0.834000       15.9994           0
   23096 WT1  7056 TIP3 H1   HT     0.417000        1.0080           0
   23097 WT1  7056 TIP3 H2   HT     0.417000        1.0080           0
   23098 WT1  7057 TIP3 OH2  OT    -0.834000       15.9994           0
   23099 WT1  7057 TIP3 H1   HT     0.417000        1.0080           0
   23100 WT1  7057 TIP3 H2   HT     0.417000        1.0080           0
   23101 WT1  7058 TIP3 OH2  OT    -0.834000       15.9994           0
   23102 WT1  7058 TIP3 H1   HT     0.417000        1.0080           0
   23103 WT1  7058 TIP3 H2   HT     0.417000        1.0080           0
   23104 WT1  7059 TIP3 OH2  OT    -0.834000       15.9994           0
   23105 WT1  7059 TIP3 H1   HT     0.417000        1.0080           0
   23106 WT1  7059 TIP3 H2   HT     0.417000        1.0080           0
   23107 WT1  7060 TIP3 OH2  OT    -0.834000       15.9994           0
   23108 WT1  7060 TIP3 H1   HT     0.417000        1.0080           0
   23109 WT1  7060 TIP3 H2   HT     0.417000        1.0080           0
   23110 WT1  7061 TIP3 OH2  OT    -0.834000       15.9994           0
   23111 WT1  7061 TIP3 H1   HT     0.417000        1.0080           0
   23112 WT1  7061 TIP3 H2   HT     0.417000        1.0080           0
   23113 WT1  7062 TIP3 OH2  OT    -0.834000       15.9994           0
   23114 WT1  7062 TIP3 H1   HT     0.417000        1.0080           0
   23115 WT1  7062 TIP3 H2   HT     0.417000        1.0080           0
   23116 WT1  7063 TIP3 OH2  OT    -0.834000       15.9994           0
   23117 WT1  7063 TIP3 H1   HT     0.417000        1.0080           0
   23118 WT1  7063 TIP3 H2   HT     0.417000        1.0080           0
   23119 WT1  7064 TIP3 OH2  OT    -0.834000       15.9994           0
   23120 WT1  7064 TIP3 H1   HT     0.417000        1.0080           0
   23121 WT1  7064 TIP3 H2   HT     0.417000        1.0080           0
   23122 WT1  7065 TIP3 OH2  OT    -0.834000       15.9994           0
   23123 WT1  7065 TIP3 H1   HT     0.417000        1.0080           0
   23124 WT1  7065 TIP3 H2   HT     0.417000        1.0080           0
   23125 WT1  7066 TIP3 OH2  OT    -0.834000       15.9994           0
   23126 WT1  7066 TIP3 H1   HT     0.417000        1.0080           0
   23127 WT1  7066 TIP3 H2   HT     0.417000        1.0080           0
   23128 WT1  7067 TIP3 OH2  OT    -0.834000       15.9994           0
   23129 WT1  7067 TIP3 H1   HT     0.417000        1.0080           0
   23130 WT1  7067 TIP3 H2   HT     0.417000        1.0080           0
   23131 WT1  7068 TIP3 OH2  OT    -0.834000       15.9994           0
   23132 WT1  7068 TIP3 H1   HT     0.417000        1.0080           0
   23133 WT1  7068 TIP3 H2   HT     0.417000        1.0080           0
   23134 WT1  7069 TIP3 OH2  OT    -0.834000       15.9994           0
   23135 WT1  7069 TIP3 H1   HT     0.417000        1.0080           0
   23136 WT1  7069 TIP3 H2   HT     0.417000        1.0080           0
   23137 WT1  7070 TIP3 OH2  OT    -0.834000       15.9994           0
   23138 WT1  7070 TIP3 H1   HT     0.417000        1.0080           0
   23139 WT1  7070 TIP3 H2   HT     0.417000        1.0080           0
   23140 WT1  7071 TIP3 OH2  OT    -0.834000       15.9994           0
   23141 WT1  7071 TIP3 H1   HT     0.417000        1.0080           0
   23142 WT1  7071 TIP3 H2   HT     0.417000        1.0080           0
   23143 WT1  7072 TIP3 OH2  OT    -0.834000       15.9994           0
   23144 WT1  7072 TIP3 H1   HT     0.417000        1.0080           0
   23145 WT1  7072 TIP3 H2   HT     0.417000        1.0080           0
   23146 WT1  7073 TIP3 OH2  OT    -0.834000       15.9994           0
   23147 WT1  7073 TIP3 H1   HT     0.417000        1.0080           0
   23148 WT1  7073 TIP3 H2   HT     0.417000        1.0080           0
   23149 WT1  7076 TIP3 OH2  OT    -0.834000       15.9994           0
   23150 WT1  7076 TIP3 H1   HT     0.417000        1.0080           0
   23151 WT1  7076 TIP3 H2   HT     0.417000        1.0080           0
   23152 WT1  7077 TIP3 OH2  OT    -0.834000       15.9994           0
   23153 WT1  7077 TIP3 H1   HT     0.417000        1.0080           0
   23154 WT1  7077 TIP3 H2   HT     0.417000        1.0080           0
   23155 WT1  7078 TIP3 OH2  OT    -0.834000       15.9994           0
   23156 WT1  7078 TIP3 H1   HT     0.417000        1.0080           0
   23157 WT1  7078 TIP3 H2   HT     0.417000        1.0080           0
   23158 WT1  7081 TIP3 OH2  OT    -0.834000       15.9994           0
   23159 WT1  7081 TIP3 H1   HT     0.417000        1.0080           0
   23160 WT1  7081 TIP3 H2   HT     0.417000        1.0080           0
   23161 WT1  7082 TIP3 OH2  OT    -0.834000       15.9994           0
   23162 WT1  7082 TIP3 H1   HT     0.417000        1.0080           0
   23163 WT1  7082 TIP3 H2   HT     0.417000        1.0080           0
   23164 WT1  7083 TIP3 OH2  OT    -0.834000       15.9994           0
   23165 WT1  7083 TIP3 H1   HT     0.417000        1.0080           0
   23166 WT1  7083 TIP3 H2   HT     0.417000        1.0080           0
   23167 WT1  7084 TIP3 OH2  OT    -0.834000       15.9994           0
   23168 WT1  7084 TIP3 H1   HT     0.417000        1.0080           0
   23169 WT1  7084 TIP3 H2   HT     0.417000        1.0080           0
   23170 WT1  7085 TIP3 OH2  OT    -0.834000       15.9994           0
   23171 WT1  7085 TIP3 H1   HT     0.417000        1.0080           0
   23172 WT1  7085 TIP3 H2   HT     0.417000        1.0080           0
   23173 WT1  7086 TIP3 OH2  OT    -0.834000       15.9994           0
   23174 WT1  7086 TIP3 H1   HT     0.417000        1.0080           0
   23175 WT1  7086 TIP3 H2   HT     0.417000        1.0080           0
   23176 WT1  7087 TIP3 OH2  OT    -0.834000       15.9994           0
   23177 WT1  7087 TIP3 H1   HT     0.417000        1.0080           0
   23178 WT1  7087 TIP3 H2   HT     0.417000        1.0080           0
   23179 WT1  7088 TIP3 OH2  OT    -0.834000       15.9994           0
   23180 WT1  7088 TIP3 H1   HT     0.417000        1.0080           0
   23181 WT1  7088 TIP3 H2   HT     0.417000        1.0080           0
   23182 WT1  7089 TIP3 OH2  OT    -0.834000       15.9994           0
   23183 WT1  7089 TIP3 H1   HT     0.417000        1.0080           0
   23184 WT1  7089 TIP3 H2   HT     0.417000        1.0080           0
   23185 WT1  7091 TIP3 OH2  OT    -0.834000       15.9994           0
   23186 WT1  7091 TIP3 H1   HT     0.417000        1.0080           0
   23187 WT1  7091 TIP3 H2   HT     0.417000        1.0080           0
   23188 WT1  7093 TIP3 OH2  OT    -0.834000       15.9994           0
   23189 WT1  7093 TIP3 H1   HT     0.417000        1.0080           0
   23190 WT1  7093 TIP3 H2   HT     0.417000        1.0080           0
   23191 WT1  7094 TIP3 OH2  OT    -0.834000       15.9994           0
   23192 WT1  7094 TIP3 H1   HT     0.417000        1.0080           0
   23193 WT1  7094 TIP3 H2   HT     0.417000        1.0080           0
   23194 WT1  7095 TIP3 OH2  OT    -0.834000       15.9994           0
   23195 WT1  7095 TIP3 H1   HT     0.417000        1.0080           0
   23196 WT1  7095 TIP3 H2   HT     0.417000        1.0080           0
   23197 WT1  7098 TIP3 OH2  OT    -0.834000       15.9994           0
   23198 WT1  7098 TIP3 H1   HT     0.417000        1.0080           0
   23199 WT1  7098 TIP3 H2   HT     0.417000        1.0080           0
   23200 WT1  7099 TIP3 OH2  OT    -0.834000       15.9994           0
   23201 WT1  7099 TIP3 H1   HT     0.417000        1.0080           0
   23202 WT1  7099 TIP3 H2   HT     0.417000        1.0080           0
   23203 WT1  7101 TIP3 OH2  OT    -0.834000       15.9994           0
   23204 WT1  7101 TIP3 H1   HT     0.417000        1.0080           0
   23205 WT1  7101 TIP3 H2   HT     0.417000        1.0080           0
   23206 WT1  7102 TIP3 OH2  OT    -0.834000       15.9994           0
   23207 WT1  7102 TIP3 H1   HT     0.417000        1.0080           0
   23208 WT1  7102 TIP3 H2   HT     0.417000        1.0080           0
   23209 WT1  7103 TIP3 OH2  OT    -0.834000       15.9994           0
   23210 WT1  7103 TIP3 H1   HT     0.417000        1.0080           0
   23211 WT1  7103 TIP3 H2   HT     0.417000        1.0080           0
   23212 WT1  7104 TIP3 OH2  OT    -0.834000       15.9994           0
   23213 WT1  7104 TIP3 H1   HT     0.417000        1.0080           0
   23214 WT1  7104 TIP3 H2   HT     0.417000        1.0080           0
   23215 WT1  7105 TIP3 OH2  OT    -0.834000       15.9994           0
   23216 WT1  7105 TIP3 H1   HT     0.417000        1.0080           0
   23217 WT1  7105 TIP3 H2   HT     0.417000        1.0080           0
   23218 WT1  7106 TIP3 OH2  OT    -0.834000       15.9994           0
   23219 WT1  7106 TIP3 H1   HT     0.417000        1.0080           0
   23220 WT1  7106 TIP3 H2   HT     0.417000        1.0080           0
   23221 WT1  7107 TIP3 OH2  OT    -0.834000       15.9994           0
   23222 WT1  7107 TIP3 H1   HT     0.417000        1.0080           0
   23223 WT1  7107 TIP3 H2   HT     0.417000        1.0080           0
   23224 WT1  7108 TIP3 OH2  OT    -0.834000       15.9994           0
   23225 WT1  7108 TIP3 H1   HT     0.417000        1.0080           0
   23226 WT1  7108 TIP3 H2   HT     0.417000        1.0080           0
   23227 WT1  7109 TIP3 OH2  OT    -0.834000       15.9994           0
   23228 WT1  7109 TIP3 H1   HT     0.417000        1.0080           0
   23229 WT1  7109 TIP3 H2   HT     0.417000        1.0080           0
   23230 WT1  7110 TIP3 OH2  OT    -0.834000       15.9994           0
   23231 WT1  7110 TIP3 H1   HT     0.417000        1.0080           0
   23232 WT1  7110 TIP3 H2   HT     0.417000        1.0080           0
   23233 WT1  7111 TIP3 OH2  OT    -0.834000       15.9994           0
   23234 WT1  7111 TIP3 H1   HT     0.417000        1.0080           0
   23235 WT1  7111 TIP3 H2   HT     0.417000        1.0080           0
   23236 WT1  7114 TIP3 OH2  OT    -0.834000       15.9994           0
   23237 WT1  7114 TIP3 H1   HT     0.417000        1.0080           0
   23238 WT1  7114 TIP3 H2   HT     0.417000        1.0080           0
   23239 WT1  7117 TIP3 OH2  OT    -0.834000       15.9994           0
   23240 WT1  7117 TIP3 H1   HT     0.417000        1.0080           0
   23241 WT1  7117 TIP3 H2   HT     0.417000        1.0080           0
   23242 WT1  7118 TIP3 OH2  OT    -0.834000       15.9994           0
   23243 WT1  7118 TIP3 H1   HT     0.417000        1.0080           0
   23244 WT1  7118 TIP3 H2   HT     0.417000        1.0080           0
   23245 WT1  7120 TIP3 OH2  OT    -0.834000       15.9994           0
   23246 WT1  7120 TIP3 H1   HT     0.417000        1.0080           0
   23247 WT1  7120 TIP3 H2   HT     0.417000        1.0080           0
   23248 WT1  7121 TIP3 OH2  OT    -0.834000       15.9994           0
   23249 WT1  7121 TIP3 H1   HT     0.417000        1.0080           0
   23250 WT1  7121 TIP3 H2   HT     0.417000        1.0080           0
   23251 WT1  7122 TIP3 OH2  OT    -0.834000       15.9994           0
   23252 WT1  7122 TIP3 H1   HT     0.417000        1.0080           0
   23253 WT1  7122 TIP3 H2   HT     0.417000        1.0080           0
   23254 WT1  7123 TIP3 OH2  OT    -0.834000       15.9994           0
   23255 WT1  7123 TIP3 H1   HT     0.417000        1.0080           0
   23256 WT1  7123 TIP3 H2   HT     0.417000        1.0080           0
   23257 WT1  7124 TIP3 OH2  OT    -0.834000       15.9994           0
   23258 WT1  7124 TIP3 H1   HT     0.417000        1.0080           0
   23259 WT1  7124 TIP3 H2   HT     0.417000        1.0080           0
   23260 WT1  7125 TIP3 OH2  OT    -0.834000       15.9994           0
   23261 WT1  7125 TIP3 H1   HT     0.417000        1.0080           0
   23262 WT1  7125 TIP3 H2   HT     0.417000        1.0080           0
   23263 WT1  7126 TIP3 OH2  OT    -0.834000       15.9994           0
   23264 WT1  7126 TIP3 H1   HT     0.417000        1.0080           0
   23265 WT1  7126 TIP3 H2   HT     0.417000        1.0080           0
   23266 WT1  7127 TIP3 OH2  OT    -0.834000       15.9994           0
   23267 WT1  7127 TIP3 H1   HT     0.417000        1.0080           0
   23268 WT1  7127 TIP3 H2   HT     0.417000        1.0080           0
   23269 WT1  7128 TIP3 OH2  OT    -0.834000       15.9994           0
   23270 WT1  7128 TIP3 H1   HT     0.417000        1.0080           0
   23271 WT1  7128 TIP3 H2   HT     0.417000        1.0080           0
   23272 WT1  7129 TIP3 OH2  OT    -0.834000       15.9994           0
   23273 WT1  7129 TIP3 H1   HT     0.417000        1.0080           0
   23274 WT1  7129 TIP3 H2   HT     0.417000        1.0080           0
   23275 WT1  7130 TIP3 OH2  OT    -0.834000       15.9994           0
   23276 WT1  7130 TIP3 H1   HT     0.417000        1.0080           0
   23277 WT1  7130 TIP3 H2   HT     0.417000        1.0080           0
   23278 WT1  7131 TIP3 OH2  OT    -0.834000       15.9994           0
   23279 WT1  7131 TIP3 H1   HT     0.417000        1.0080           0
   23280 WT1  7131 TIP3 H2   HT     0.417000        1.0080           0
   23281 WT1  7132 TIP3 OH2  OT    -0.834000       15.9994           0
   23282 WT1  7132 TIP3 H1   HT     0.417000        1.0080           0
   23283 WT1  7132 TIP3 H2   HT     0.417000        1.0080           0
   23284 WT1  7133 TIP3 OH2  OT    -0.834000       15.9994           0
   23285 WT1  7133 TIP3 H1   HT     0.417000        1.0080           0
   23286 WT1  7133 TIP3 H2   HT     0.417000        1.0080           0
   23287 WT1  7134 TIP3 OH2  OT    -0.834000       15.9994           0
   23288 WT1  7134 TIP3 H1   HT     0.417000        1.0080           0
   23289 WT1  7134 TIP3 H2   HT     0.417000        1.0080           0
   23290 WT1  7135 TIP3 OH2  OT    -0.834000       15.9994           0
   23291 WT1  7135 TIP3 H1   HT     0.417000        1.0080           0
   23292 WT1  7135 TIP3 H2   HT     0.417000        1.0080           0
   23293 WT1  7139 TIP3 OH2  OT    -0.834000       15.9994           0
   23294 WT1  7139 TIP3 H1   HT     0.417000        1.0080           0
   23295 WT1  7139 TIP3 H2   HT     0.417000        1.0080           0
   23296 WT1  7140 TIP3 OH2  OT    -0.834000       15.9994           0
   23297 WT1  7140 TIP3 H1   HT     0.417000        1.0080           0
   23298 WT1  7140 TIP3 H2   HT     0.417000        1.0080           0
   23299 WT1  7141 TIP3 OH2  OT    -0.834000       15.9994           0
   23300 WT1  7141 TIP3 H1   HT     0.417000        1.0080           0
   23301 WT1  7141 TIP3 H2   HT     0.417000        1.0080           0
   23302 WT1  7142 TIP3 OH2  OT    -0.834000       15.9994           0
   23303 WT1  7142 TIP3 H1   HT     0.417000        1.0080           0
   23304 WT1  7142 TIP3 H2   HT     0.417000        1.0080           0
   23305 WT1  7143 TIP3 OH2  OT    -0.834000       15.9994           0
   23306 WT1  7143 TIP3 H1   HT     0.417000        1.0080           0
   23307 WT1  7143 TIP3 H2   HT     0.417000        1.0080           0
   23308 WT1  7144 TIP3 OH2  OT    -0.834000       15.9994           0
   23309 WT1  7144 TIP3 H1   HT     0.417000        1.0080           0
   23310 WT1  7144 TIP3 H2   HT     0.417000        1.0080           0
   23311 WT1  7145 TIP3 OH2  OT    -0.834000       15.9994           0
   23312 WT1  7145 TIP3 H1   HT     0.417000        1.0080           0
   23313 WT1  7145 TIP3 H2   HT     0.417000        1.0080           0
   23314 WT1  7146 TIP3 OH2  OT    -0.834000       15.9994           0
   23315 WT1  7146 TIP3 H1   HT     0.417000        1.0080           0
   23316 WT1  7146 TIP3 H2   HT     0.417000        1.0080           0
   23317 WT1  7147 TIP3 OH2  OT    -0.834000       15.9994           0
   23318 WT1  7147 TIP3 H1   HT     0.417000        1.0080           0
   23319 WT1  7147 TIP3 H2   HT     0.417000        1.0080           0
   23320 WT1  7148 TIP3 OH2  OT    -0.834000       15.9994           0
   23321 WT1  7148 TIP3 H1   HT     0.417000        1.0080           0
   23322 WT1  7148 TIP3 H2   HT     0.417000        1.0080           0
   23323 WT1  7149 TIP3 OH2  OT    -0.834000       15.9994           0
   23324 WT1  7149 TIP3 H1   HT     0.417000        1.0080           0
   23325 WT1  7149 TIP3 H2   HT     0.417000        1.0080           0
   23326 WT1  7150 TIP3 OH2  OT    -0.834000       15.9994           0
   23327 WT1  7150 TIP3 H1   HT     0.417000        1.0080           0
   23328 WT1  7150 TIP3 H2   HT     0.417000        1.0080           0
   23329 WT1  7151 TIP3 OH2  OT    -0.834000       15.9994           0
   23330 WT1  7151 TIP3 H1   HT     0.417000        1.0080           0
   23331 WT1  7151 TIP3 H2   HT     0.417000        1.0080           0
   23332 WT1  7152 TIP3 OH2  OT    -0.834000       15.9994           0
   23333 WT1  7152 TIP3 H1   HT     0.417000        1.0080           0
   23334 WT1  7152 TIP3 H2   HT     0.417000        1.0080           0
   23335 WT1  7153 TIP3 OH2  OT    -0.834000       15.9994           0
   23336 WT1  7153 TIP3 H1   HT     0.417000        1.0080           0
   23337 WT1  7153 TIP3 H2   HT     0.417000        1.0080           0
   23338 WT1  7154 TIP3 OH2  OT    -0.834000       15.9994           0
   23339 WT1  7154 TIP3 H1   HT     0.417000        1.0080           0
   23340 WT1  7154 TIP3 H2   HT     0.417000        1.0080           0
   23341 WT1  7157 TIP3 OH2  OT    -0.834000       15.9994           0
   23342 WT1  7157 TIP3 H1   HT     0.417000        1.0080           0
   23343 WT1  7157 TIP3 H2   HT     0.417000        1.0080           0
   23344 WT1  7160 TIP3 OH2  OT    -0.834000       15.9994           0
   23345 WT1  7160 TIP3 H1   HT     0.417000        1.0080           0
   23346 WT1  7160 TIP3 H2   HT     0.417000        1.0080           0
   23347 WT1  7161 TIP3 OH2  OT    -0.834000       15.9994           0
   23348 WT1  7161 TIP3 H1   HT     0.417000        1.0080           0
   23349 WT1  7161 TIP3 H2   HT     0.417000        1.0080           0
   23350 WT1  7162 TIP3 OH2  OT    -0.834000       15.9994           0
   23351 WT1  7162 TIP3 H1   HT     0.417000        1.0080           0
   23352 WT1  7162 TIP3 H2   HT     0.417000        1.0080           0
   23353 WT1  7164 TIP3 OH2  OT    -0.834000       15.9994           0
   23354 WT1  7164 TIP3 H1   HT     0.417000        1.0080           0
   23355 WT1  7164 TIP3 H2   HT     0.417000        1.0080           0
   23356 WT1  7165 TIP3 OH2  OT    -0.834000       15.9994           0
   23357 WT1  7165 TIP3 H1   HT     0.417000        1.0080           0
   23358 WT1  7165 TIP3 H2   HT     0.417000        1.0080           0
   23359 WT1  7166 TIP3 OH2  OT    -0.834000       15.9994           0
   23360 WT1  7166 TIP3 H1   HT     0.417000        1.0080           0
   23361 WT1  7166 TIP3 H2   HT     0.417000        1.0080           0
   23362 WT1  7167 TIP3 OH2  OT    -0.834000       15.9994           0
   23363 WT1  7167 TIP3 H1   HT     0.417000        1.0080           0
   23364 WT1  7167 TIP3 H2   HT     0.417000        1.0080           0
   23365 WT1  7168 TIP3 OH2  OT    -0.834000       15.9994           0
   23366 WT1  7168 TIP3 H1   HT     0.417000        1.0080           0
   23367 WT1  7168 TIP3 H2   HT     0.417000        1.0080           0
   23368 WT1  7169 TIP3 OH2  OT    -0.834000       15.9994           0
   23369 WT1  7169 TIP3 H1   HT     0.417000        1.0080           0
   23370 WT1  7169 TIP3 H2   HT     0.417000        1.0080           0
   23371 WT1  7170 TIP3 OH2  OT    -0.834000       15.9994           0
   23372 WT1  7170 TIP3 H1   HT     0.417000        1.0080           0
   23373 WT1  7170 TIP3 H2   HT     0.417000        1.0080           0
   23374 WT1  7171 TIP3 OH2  OT    -0.834000       15.9994           0
   23375 WT1  7171 TIP3 H1   HT     0.417000        1.0080           0
   23376 WT1  7171 TIP3 H2   HT     0.417000        1.0080           0
   23377 WT1  7172 TIP3 OH2  OT    -0.834000       15.9994           0
   23378 WT1  7172 TIP3 H1   HT     0.417000        1.0080           0
   23379 WT1  7172 TIP3 H2   HT     0.417000        1.0080           0
   23380 WT1  7173 TIP3 OH2  OT    -0.834000       15.9994           0
   23381 WT1  7173 TIP3 H1   HT     0.417000        1.0080           0
   23382 WT1  7173 TIP3 H2   HT     0.417000        1.0080           0
   23383 WT1  7174 TIP3 OH2  OT    -0.834000       15.9994           0
   23384 WT1  7174 TIP3 H1   HT     0.417000        1.0080           0
   23385 WT1  7174 TIP3 H2   HT     0.417000        1.0080           0
   23386 WT1  7175 TIP3 OH2  OT    -0.834000       15.9994           0
   23387 WT1  7175 TIP3 H1   HT     0.417000        1.0080           0
   23388 WT1  7175 TIP3 H2   HT     0.417000        1.0080           0
   23389 WT1  7176 TIP3 OH2  OT    -0.834000       15.9994           0
   23390 WT1  7176 TIP3 H1   HT     0.417000        1.0080           0
   23391 WT1  7176 TIP3 H2   HT     0.417000        1.0080           0
   23392 WT1  7177 TIP3 OH2  OT    -0.834000       15.9994           0
   23393 WT1  7177 TIP3 H1   HT     0.417000        1.0080           0
   23394 WT1  7177 TIP3 H2   HT     0.417000        1.0080           0
   23395 WT1  7178 TIP3 OH2  OT    -0.834000       15.9994           0
   23396 WT1  7178 TIP3 H1   HT     0.417000        1.0080           0
   23397 WT1  7178 TIP3 H2   HT     0.417000        1.0080           0
   23398 WT1  7179 TIP3 OH2  OT    -0.834000       15.9994           0
   23399 WT1  7179 TIP3 H1   HT     0.417000        1.0080           0
   23400 WT1  7179 TIP3 H2   HT     0.417000        1.0080           0
   23401 WT1  7180 TIP3 OH2  OT    -0.834000       15.9994           0
   23402 WT1  7180 TIP3 H1   HT     0.417000        1.0080           0
   23403 WT1  7180 TIP3 H2   HT     0.417000        1.0080           0
   23404 WT1  7181 TIP3 OH2  OT    -0.834000       15.9994           0
   23405 WT1  7181 TIP3 H1   HT     0.417000        1.0080           0
   23406 WT1  7181 TIP3 H2   HT     0.417000        1.0080           0
   23407 WT1  7182 TIP3 OH2  OT    -0.834000       15.9994           0
   23408 WT1  7182 TIP3 H1   HT     0.417000        1.0080           0
   23409 WT1  7182 TIP3 H2   HT     0.417000        1.0080           0
   23410 WT1  7183 TIP3 OH2  OT    -0.834000       15.9994           0
   23411 WT1  7183 TIP3 H1   HT     0.417000        1.0080           0
   23412 WT1  7183 TIP3 H2   HT     0.417000        1.0080           0
   23413 WT1  7184 TIP3 OH2  OT    -0.834000       15.9994           0
   23414 WT1  7184 TIP3 H1   HT     0.417000        1.0080           0
   23415 WT1  7184 TIP3 H2   HT     0.417000        1.0080           0
   23416 WT1  7185 TIP3 OH2  OT    -0.834000       15.9994           0
   23417 WT1  7185 TIP3 H1   HT     0.417000        1.0080           0
   23418 WT1  7185 TIP3 H2   HT     0.417000        1.0080           0
   23419 WT1  7186 TIP3 OH2  OT    -0.834000       15.9994           0
   23420 WT1  7186 TIP3 H1   HT     0.417000        1.0080           0
   23421 WT1  7186 TIP3 H2   HT     0.417000        1.0080           0
   23422 WT1  7187 TIP3 OH2  OT    -0.834000       15.9994           0
   23423 WT1  7187 TIP3 H1   HT     0.417000        1.0080           0
   23424 WT1  7187 TIP3 H2   HT     0.417000        1.0080           0
   23425 WT1  7188 TIP3 OH2  OT    -0.834000       15.9994           0
   23426 WT1  7188 TIP3 H1   HT     0.417000        1.0080           0
   23427 WT1  7188 TIP3 H2   HT     0.417000        1.0080           0
   23428 WT1  7189 TIP3 OH2  OT    -0.834000       15.9994           0
   23429 WT1  7189 TIP3 H1   HT     0.417000        1.0080           0
   23430 WT1  7189 TIP3 H2   HT     0.417000        1.0080           0
   23431 WT1  7190 TIP3 OH2  OT    -0.834000       15.9994           0
   23432 WT1  7190 TIP3 H1   HT     0.417000        1.0080           0
   23433 WT1  7190 TIP3 H2   HT     0.417000        1.0080           0
   23434 WT1  7191 TIP3 OH2  OT    -0.834000       15.9994           0
   23435 WT1  7191 TIP3 H1   HT     0.417000        1.0080           0
   23436 WT1  7191 TIP3 H2   HT     0.417000        1.0080           0
   23437 WT1  7192 TIP3 OH2  OT    -0.834000       15.9994           0
   23438 WT1  7192 TIP3 H1   HT     0.417000        1.0080           0
   23439 WT1  7192 TIP3 H2   HT     0.417000        1.0080           0
   23440 WT1  7193 TIP3 OH2  OT    -0.834000       15.9994           0
   23441 WT1  7193 TIP3 H1   HT     0.417000        1.0080           0
   23442 WT1  7193 TIP3 H2   HT     0.417000        1.0080           0
   23443 WT1  7194 TIP3 OH2  OT    -0.834000       15.9994           0
   23444 WT1  7194 TIP3 H1   HT     0.417000        1.0080           0
   23445 WT1  7194 TIP3 H2   HT     0.417000        1.0080           0
   23446 WT1  7195 TIP3 OH2  OT    -0.834000       15.9994           0
   23447 WT1  7195 TIP3 H1   HT     0.417000        1.0080           0
   23448 WT1  7195 TIP3 H2   HT     0.417000        1.0080           0
   23449 WT1  7196 TIP3 OH2  OT    -0.834000       15.9994           0
   23450 WT1  7196 TIP3 H1   HT     0.417000        1.0080           0
   23451 WT1  7196 TIP3 H2   HT     0.417000        1.0080           0
   23452 WT1  7197 TIP3 OH2  OT    -0.834000       15.9994           0
   23453 WT1  7197 TIP3 H1   HT     0.417000        1.0080           0
   23454 WT1  7197 TIP3 H2   HT     0.417000        1.0080           0
   23455 WT1  7198 TIP3 OH2  OT    -0.834000       15.9994           0
   23456 WT1  7198 TIP3 H1   HT     0.417000        1.0080           0
   23457 WT1  7198 TIP3 H2   HT     0.417000        1.0080           0
   23458 WT1  7200 TIP3 OH2  OT    -0.834000       15.9994           0
   23459 WT1  7200 TIP3 H1   HT     0.417000        1.0080           0
   23460 WT1  7200 TIP3 H2   HT     0.417000        1.0080           0
   23461 WT1  7201 TIP3 OH2  OT    -0.834000       15.9994           0
   23462 WT1  7201 TIP3 H1   HT     0.417000        1.0080           0
   23463 WT1  7201 TIP3 H2   HT     0.417000        1.0080           0
   23464 WT1  7202 TIP3 OH2  OT    -0.834000       15.9994           0
   23465 WT1  7202 TIP3 H1   HT     0.417000        1.0080           0
   23466 WT1  7202 TIP3 H2   HT     0.417000        1.0080           0
   23467 WT1  7203 TIP3 OH2  OT    -0.834000       15.9994           0
   23468 WT1  7203 TIP3 H1   HT     0.417000        1.0080           0
   23469 WT1  7203 TIP3 H2   HT     0.417000        1.0080           0
   23470 WT1  7204 TIP3 OH2  OT    -0.834000       15.9994           0
   23471 WT1  7204 TIP3 H1   HT     0.417000        1.0080           0
   23472 WT1  7204 TIP3 H2   HT     0.417000        1.0080           0
   23473 WT1  7205 TIP3 OH2  OT    -0.834000       15.9994           0
   23474 WT1  7205 TIP3 H1   HT     0.417000        1.0080           0
   23475 WT1  7205 TIP3 H2   HT     0.417000        1.0080           0
   23476 WT1  7206 TIP3 OH2  OT    -0.834000       15.9994           0
   23477 WT1  7206 TIP3 H1   HT     0.417000        1.0080           0
   23478 WT1  7206 TIP3 H2   HT     0.417000        1.0080           0
   23479 WT1  7207 TIP3 OH2  OT    -0.834000       15.9994           0
   23480 WT1  7207 TIP3 H1   HT     0.417000        1.0080           0
   23481 WT1  7207 TIP3 H2   HT     0.417000        1.0080           0
   23482 WT1  7208 TIP3 OH2  OT    -0.834000       15.9994           0
   23483 WT1  7208 TIP3 H1   HT     0.417000        1.0080           0
   23484 WT1  7208 TIP3 H2   HT     0.417000        1.0080           0
   23485 WT1  7209 TIP3 OH2  OT    -0.834000       15.9994           0
   23486 WT1  7209 TIP3 H1   HT     0.417000        1.0080           0
   23487 WT1  7209 TIP3 H2   HT     0.417000        1.0080           0
   23488 WT1  7210 TIP3 OH2  OT    -0.834000       15.9994           0
   23489 WT1  7210 TIP3 H1   HT     0.417000        1.0080           0
   23490 WT1  7210 TIP3 H2   HT     0.417000        1.0080           0
   23491 WT1  7211 TIP3 OH2  OT    -0.834000       15.9994           0
   23492 WT1  7211 TIP3 H1   HT     0.417000        1.0080           0
   23493 WT1  7211 TIP3 H2   HT     0.417000        1.0080           0
   23494 WT1  7212 TIP3 OH2  OT    -0.834000       15.9994           0
   23495 WT1  7212 TIP3 H1   HT     0.417000        1.0080           0
   23496 WT1  7212 TIP3 H2   HT     0.417000        1.0080           0
   23497 WT1  7213 TIP3 OH2  OT    -0.834000       15.9994           0
   23498 WT1  7213 TIP3 H1   HT     0.417000        1.0080           0
   23499 WT1  7213 TIP3 H2   HT     0.417000        1.0080           0
   23500 WT1  7215 TIP3 OH2  OT    -0.834000       15.9994           0
   23501 WT1  7215 TIP3 H1   HT     0.417000        1.0080           0
   23502 WT1  7215 TIP3 H2   HT     0.417000        1.0080           0
   23503 WT1  7216 TIP3 OH2  OT    -0.834000       15.9994           0
   23504 WT1  7216 TIP3 H1   HT     0.417000        1.0080           0
   23505 WT1  7216 TIP3 H2   HT     0.417000        1.0080           0
   23506 WT1  7217 TIP3 OH2  OT    -0.834000       15.9994           0
   23507 WT1  7217 TIP3 H1   HT     0.417000        1.0080           0
   23508 WT1  7217 TIP3 H2   HT     0.417000        1.0080           0
   23509 WT1  7218 TIP3 OH2  OT    -0.834000       15.9994           0
   23510 WT1  7218 TIP3 H1   HT     0.417000        1.0080           0
   23511 WT1  7218 TIP3 H2   HT     0.417000        1.0080           0
   23512 WT1  7219 TIP3 OH2  OT    -0.834000       15.9994           0
   23513 WT1  7219 TIP3 H1   HT     0.417000        1.0080           0
   23514 WT1  7219 TIP3 H2   HT     0.417000        1.0080           0
   23515 WT1  7221 TIP3 OH2  OT    -0.834000       15.9994           0
   23516 WT1  7221 TIP3 H1   HT     0.417000        1.0080           0
   23517 WT1  7221 TIP3 H2   HT     0.417000        1.0080           0
   23518 WT1  7222 TIP3 OH2  OT    -0.834000       15.9994           0
   23519 WT1  7222 TIP3 H1   HT     0.417000        1.0080           0
   23520 WT1  7222 TIP3 H2   HT     0.417000        1.0080           0
   23521 WT1  7223 TIP3 OH2  OT    -0.834000       15.9994           0
   23522 WT1  7223 TIP3 H1   HT     0.417000        1.0080           0
   23523 WT1  7223 TIP3 H2   HT     0.417000        1.0080           0
   23524 WT1  7225 TIP3 OH2  OT    -0.834000       15.9994           0
   23525 WT1  7225 TIP3 H1   HT     0.417000        1.0080           0
   23526 WT1  7225 TIP3 H2   HT     0.417000        1.0080           0
   23527 WT1  7226 TIP3 OH2  OT    -0.834000       15.9994           0
   23528 WT1  7226 TIP3 H1   HT     0.417000        1.0080           0
   23529 WT1  7226 TIP3 H2   HT     0.417000        1.0080           0
   23530 WT1  7227 TIP3 OH2  OT    -0.834000       15.9994           0
   23531 WT1  7227 TIP3 H1   HT     0.417000        1.0080           0
   23532 WT1  7227 TIP3 H2   HT     0.417000        1.0080           0
   23533 WT1  7228 TIP3 OH2  OT    -0.834000       15.9994           0
   23534 WT1  7228 TIP3 H1   HT     0.417000        1.0080           0
   23535 WT1  7228 TIP3 H2   HT     0.417000        1.0080           0
   23536 WT1  7229 TIP3 OH2  OT    -0.834000       15.9994           0
   23537 WT1  7229 TIP3 H1   HT     0.417000        1.0080           0
   23538 WT1  7229 TIP3 H2   HT     0.417000        1.0080           0
   23539 WT1  7230 TIP3 OH2  OT    -0.834000       15.9994           0
   23540 WT1  7230 TIP3 H1   HT     0.417000        1.0080           0
   23541 WT1  7230 TIP3 H2   HT     0.417000        1.0080           0
   23542 WT1  7231 TIP3 OH2  OT    -0.834000       15.9994           0
   23543 WT1  7231 TIP3 H1   HT     0.417000        1.0080           0
   23544 WT1  7231 TIP3 H2   HT     0.417000        1.0080           0
   23545 WT1  7232 TIP3 OH2  OT    -0.834000       15.9994           0
   23546 WT1  7232 TIP3 H1   HT     0.417000        1.0080           0
   23547 WT1  7232 TIP3 H2   HT     0.417000        1.0080           0
   23548 WT1  7233 TIP3 OH2  OT    -0.834000       15.9994           0
   23549 WT1  7233 TIP3 H1   HT     0.417000        1.0080           0
   23550 WT1  7233 TIP3 H2   HT     0.417000        1.0080           0
   23551 WT1  7234 TIP3 OH2  OT    -0.834000       15.9994           0
   23552 WT1  7234 TIP3 H1   HT     0.417000        1.0080           0
   23553 WT1  7234 TIP3 H2   HT     0.417000        1.0080           0
   23554 WT1  7235 TIP3 OH2  OT    -0.834000       15.9994           0
   23555 WT1  7235 TIP3 H1   HT     0.417000        1.0080           0
   23556 WT1  7235 TIP3 H2   HT     0.417000        1.0080           0
   23557 WT1  7236 TIP3 OH2  OT    -0.834000       15.9994           0
   23558 WT1  7236 TIP3 H1   HT     0.417000        1.0080           0
   23559 WT1  7236 TIP3 H2   HT     0.417000        1.0080           0
   23560 WT1  7237 TIP3 OH2  OT    -0.834000       15.9994           0
   23561 WT1  7237 TIP3 H1   HT     0.417000        1.0080           0
   23562 WT1  7237 TIP3 H2   HT     0.417000        1.0080           0
   23563 WT1  7238 TIP3 OH2  OT    -0.834000       15.9994           0
   23564 WT1  7238 TIP3 H1   HT     0.417000        1.0080           0
   23565 WT1  7238 TIP3 H2   HT     0.417000        1.0080           0
   23566 WT1  7239 TIP3 OH2  OT    -0.834000       15.9994           0
   23567 WT1  7239 TIP3 H1   HT     0.417000        1.0080           0
   23568 WT1  7239 TIP3 H2   HT     0.417000        1.0080           0
   23569 WT1  7241 TIP3 OH2  OT    -0.834000       15.9994           0
   23570 WT1  7241 TIP3 H1   HT     0.417000        1.0080           0
   23571 WT1  7241 TIP3 H2   HT     0.417000        1.0080           0
   23572 WT1  7242 TIP3 OH2  OT    -0.834000       15.9994           0
   23573 WT1  7242 TIP3 H1   HT     0.417000        1.0080           0
   23574 WT1  7242 TIP3 H2   HT     0.417000        1.0080           0
   23575 WT1  7243 TIP3 OH2  OT    -0.834000       15.9994           0
   23576 WT1  7243 TIP3 H1   HT     0.417000        1.0080           0
   23577 WT1  7243 TIP3 H2   HT     0.417000        1.0080           0
   23578 WT1  7245 TIP3 OH2  OT    -0.834000       15.9994           0
   23579 WT1  7245 TIP3 H1   HT     0.417000        1.0080           0
   23580 WT1  7245 TIP3 H2   HT     0.417000        1.0080           0
   23581 WT1  7246 TIP3 OH2  OT    -0.834000       15.9994           0
   23582 WT1  7246 TIP3 H1   HT     0.417000        1.0080           0
   23583 WT1  7246 TIP3 H2   HT     0.417000        1.0080           0
   23584 WT1  7247 TIP3 OH2  OT    -0.834000       15.9994           0
   23585 WT1  7247 TIP3 H1   HT     0.417000        1.0080           0
   23586 WT1  7247 TIP3 H2   HT     0.417000        1.0080           0
   23587 WT1  7248 TIP3 OH2  OT    -0.834000       15.9994           0
   23588 WT1  7248 TIP3 H1   HT     0.417000        1.0080           0
   23589 WT1  7248 TIP3 H2   HT     0.417000        1.0080           0
   23590 WT1  7249 TIP3 OH2  OT    -0.834000       15.9994           0
   23591 WT1  7249 TIP3 H1   HT     0.417000        1.0080           0
   23592 WT1  7249 TIP3 H2   HT     0.417000        1.0080           0
   23593 WT1  7250 TIP3 OH2  OT    -0.834000       15.9994           0
   23594 WT1  7250 TIP3 H1   HT     0.417000        1.0080           0
   23595 WT1  7250 TIP3 H2   HT     0.417000        1.0080           0
   23596 WT1  7251 TIP3 OH2  OT    -0.834000       15.9994           0
   23597 WT1  7251 TIP3 H1   HT     0.417000        1.0080           0
   23598 WT1  7251 TIP3 H2   HT     0.417000        1.0080           0
   23599 WT1  7252 TIP3 OH2  OT    -0.834000       15.9994           0
   23600 WT1  7252 TIP3 H1   HT     0.417000        1.0080           0
   23601 WT1  7252 TIP3 H2   HT     0.417000        1.0080           0
   23602 WT1  7253 TIP3 OH2  OT    -0.834000       15.9994           0
   23603 WT1  7253 TIP3 H1   HT     0.417000        1.0080           0
   23604 WT1  7253 TIP3 H2   HT     0.417000        1.0080           0
   23605 WT1  7254 TIP3 OH2  OT    -0.834000       15.9994           0
   23606 WT1  7254 TIP3 H1   HT     0.417000        1.0080           0
   23607 WT1  7254 TIP3 H2   HT     0.417000        1.0080           0
   23608 WT1  7255 TIP3 OH2  OT    -0.834000       15.9994           0
   23609 WT1  7255 TIP3 H1   HT     0.417000        1.0080           0
   23610 WT1  7255 TIP3 H2   HT     0.417000        1.0080           0
   23611 WT1  7256 TIP3 OH2  OT    -0.834000       15.9994           0
   23612 WT1  7256 TIP3 H1   HT     0.417000        1.0080           0
   23613 WT1  7256 TIP3 H2   HT     0.417000        1.0080           0
   23614 WT1  7257 TIP3 OH2  OT    -0.834000       15.9994           0
   23615 WT1  7257 TIP3 H1   HT     0.417000        1.0080           0
   23616 WT1  7257 TIP3 H2   HT     0.417000        1.0080           0
   23617 WT1  7259 TIP3 OH2  OT    -0.834000       15.9994           0
   23618 WT1  7259 TIP3 H1   HT     0.417000        1.0080           0
   23619 WT1  7259 TIP3 H2   HT     0.417000        1.0080           0
   23620 WT1  7260 TIP3 OH2  OT    -0.834000       15.9994           0
   23621 WT1  7260 TIP3 H1   HT     0.417000        1.0080           0
   23622 WT1  7260 TIP3 H2   HT     0.417000        1.0080           0
   23623 WT1  7261 TIP3 OH2  OT    -0.834000       15.9994           0
   23624 WT1  7261 TIP3 H1   HT     0.417000        1.0080           0
   23625 WT1  7261 TIP3 H2   HT     0.417000        1.0080           0
   23626 WT1  7262 TIP3 OH2  OT    -0.834000       15.9994           0
   23627 WT1  7262 TIP3 H1   HT     0.417000        1.0080           0
   23628 WT1  7262 TIP3 H2   HT     0.417000        1.0080           0
   23629 WT1  7264 TIP3 OH2  OT    -0.834000       15.9994           0
   23630 WT1  7264 TIP3 H1   HT     0.417000        1.0080           0
   23631 WT1  7264 TIP3 H2   HT     0.417000        1.0080           0
   23632 WT1  7265 TIP3 OH2  OT    -0.834000       15.9994           0
   23633 WT1  7265 TIP3 H1   HT     0.417000        1.0080           0
   23634 WT1  7265 TIP3 H2   HT     0.417000        1.0080           0
   23635 WT1  7266 TIP3 OH2  OT    -0.834000       15.9994           0
   23636 WT1  7266 TIP3 H1   HT     0.417000        1.0080           0
   23637 WT1  7266 TIP3 H2   HT     0.417000        1.0080           0
   23638 WT1  7267 TIP3 OH2  OT    -0.834000       15.9994           0
   23639 WT1  7267 TIP3 H1   HT     0.417000        1.0080           0
   23640 WT1  7267 TIP3 H2   HT     0.417000        1.0080           0
   23641 WT1  7268 TIP3 OH2  OT    -0.834000       15.9994           0
   23642 WT1  7268 TIP3 H1   HT     0.417000        1.0080           0
   23643 WT1  7268 TIP3 H2   HT     0.417000        1.0080           0
   23644 WT1  7269 TIP3 OH2  OT    -0.834000       15.9994           0
   23645 WT1  7269 TIP3 H1   HT     0.417000        1.0080           0
   23646 WT1  7269 TIP3 H2   HT     0.417000        1.0080           0
   23647 WT1  7270 TIP3 OH2  OT    -0.834000       15.9994           0
   23648 WT1  7270 TIP3 H1   HT     0.417000        1.0080           0
   23649 WT1  7270 TIP3 H2   HT     0.417000        1.0080           0
   23650 WT1  7271 TIP3 OH2  OT    -0.834000       15.9994           0
   23651 WT1  7271 TIP3 H1   HT     0.417000        1.0080           0
   23652 WT1  7271 TIP3 H2   HT     0.417000        1.0080           0
   23653 WT1  7272 TIP3 OH2  OT    -0.834000       15.9994           0
   23654 WT1  7272 TIP3 H1   HT     0.417000        1.0080           0
   23655 WT1  7272 TIP3 H2   HT     0.417000        1.0080           0
   23656 WT1  7273 TIP3 OH2  OT    -0.834000       15.9994           0
   23657 WT1  7273 TIP3 H1   HT     0.417000        1.0080           0
   23658 WT1  7273 TIP3 H2   HT     0.417000        1.0080           0
   23659 WT1  7274 TIP3 OH2  OT    -0.834000       15.9994           0
   23660 WT1  7274 TIP3 H1   HT     0.417000        1.0080           0
   23661 WT1  7274 TIP3 H2   HT     0.417000        1.0080           0
   23662 WT1  7275 TIP3 OH2  OT    -0.834000       15.9994           0
   23663 WT1  7275 TIP3 H1   HT     0.417000        1.0080           0
   23664 WT1  7275 TIP3 H2   HT     0.417000        1.0080           0
   23665 WT1  7276 TIP3 OH2  OT    -0.834000       15.9994           0
   23666 WT1  7276 TIP3 H1   HT     0.417000        1.0080           0
   23667 WT1  7276 TIP3 H2   HT     0.417000        1.0080           0
   23668 WT1  7277 TIP3 OH2  OT    -0.834000       15.9994           0
   23669 WT1  7277 TIP3 H1   HT     0.417000        1.0080           0
   23670 WT1  7277 TIP3 H2   HT     0.417000        1.0080           0
   23671 WT1  7279 TIP3 OH2  OT    -0.834000       15.9994           0
   23672 WT1  7279 TIP3 H1   HT     0.417000        1.0080           0
   23673 WT1  7279 TIP3 H2   HT     0.417000        1.0080           0
   23674 WT1  7280 TIP3 OH2  OT    -0.834000       15.9994           0
   23675 WT1  7280 TIP3 H1   HT     0.417000        1.0080           0
   23676 WT1  7280 TIP3 H2   HT     0.417000        1.0080           0
   23677 WT1  7281 TIP3 OH2  OT    -0.834000       15.9994           0
   23678 WT1  7281 TIP3 H1   HT     0.417000        1.0080           0
   23679 WT1  7281 TIP3 H2   HT     0.417000        1.0080           0
   23680 WT1  7282 TIP3 OH2  OT    -0.834000       15.9994           0
   23681 WT1  7282 TIP3 H1   HT     0.417000        1.0080           0
   23682 WT1  7282 TIP3 H2   HT     0.417000        1.0080           0
   23683 WT1  7283 TIP3 OH2  OT    -0.834000       15.9994           0
   23684 WT1  7283 TIP3 H1   HT     0.417000        1.0080           0
   23685 WT1  7283 TIP3 H2   HT     0.417000        1.0080           0
   23686 WT1  7285 TIP3 OH2  OT    -0.834000       15.9994           0
   23687 WT1  7285 TIP3 H1   HT     0.417000        1.0080           0
   23688 WT1  7285 TIP3 H2   HT     0.417000        1.0080           0
   23689 WT1  7287 TIP3 OH2  OT    -0.834000       15.9994           0
   23690 WT1  7287 TIP3 H1   HT     0.417000        1.0080           0
   23691 WT1  7287 TIP3 H2   HT     0.417000        1.0080           0
   23692 WT1  7288 TIP3 OH2  OT    -0.834000       15.9994           0
   23693 WT1  7288 TIP3 H1   HT     0.417000        1.0080           0
   23694 WT1  7288 TIP3 H2   HT     0.417000        1.0080           0
   23695 WT1  7290 TIP3 OH2  OT    -0.834000       15.9994           0
   23696 WT1  7290 TIP3 H1   HT     0.417000        1.0080           0
   23697 WT1  7290 TIP3 H2   HT     0.417000        1.0080           0
   23698 WT1  7291 TIP3 OH2  OT    -0.834000       15.9994           0
   23699 WT1  7291 TIP3 H1   HT     0.417000        1.0080           0
   23700 WT1  7291 TIP3 H2   HT     0.417000        1.0080           0
   23701 WT1  7292 TIP3 OH2  OT    -0.834000       15.9994           0
   23702 WT1  7292 TIP3 H1   HT     0.417000        1.0080           0
   23703 WT1  7292 TIP3 H2   HT     0.417000        1.0080           0
   23704 WT1  7293 TIP3 OH2  OT    -0.834000       15.9994           0
   23705 WT1  7293 TIP3 H1   HT     0.417000        1.0080           0
   23706 WT1  7293 TIP3 H2   HT     0.417000        1.0080           0
   23707 WT1  7294 TIP3 OH2  OT    -0.834000       15.9994           0
   23708 WT1  7294 TIP3 H1   HT     0.417000        1.0080           0
   23709 WT1  7294 TIP3 H2   HT     0.417000        1.0080           0
   23710 WT1  7295 TIP3 OH2  OT    -0.834000       15.9994           0
   23711 WT1  7295 TIP3 H1   HT     0.417000        1.0080           0
   23712 WT1  7295 TIP3 H2   HT     0.417000        1.0080           0
   23713 WT1  7296 TIP3 OH2  OT    -0.834000       15.9994           0
   23714 WT1  7296 TIP3 H1   HT     0.417000        1.0080           0
   23715 WT1  7296 TIP3 H2   HT     0.417000        1.0080           0
   23716 WT1  7297 TIP3 OH2  OT    -0.834000       15.9994           0
   23717 WT1  7297 TIP3 H1   HT     0.417000        1.0080           0
   23718 WT1  7297 TIP3 H2   HT     0.417000        1.0080           0
   23719 WT1  7298 TIP3 OH2  OT    -0.834000       15.9994           0
   23720 WT1  7298 TIP3 H1   HT     0.417000        1.0080           0
   23721 WT1  7298 TIP3 H2   HT     0.417000        1.0080           0
   23722 WT1  7299 TIP3 OH2  OT    -0.834000       15.9994           0
   23723 WT1  7299 TIP3 H1   HT     0.417000        1.0080           0
   23724 WT1  7299 TIP3 H2   HT     0.417000        1.0080           0
   23725 WT1  7300 TIP3 OH2  OT    -0.834000       15.9994           0
   23726 WT1  7300 TIP3 H1   HT     0.417000        1.0080           0
   23727 WT1  7300 TIP3 H2   HT     0.417000        1.0080           0
   23728 WT1  7301 TIP3 OH2  OT    -0.834000       15.9994           0
   23729 WT1  7301 TIP3 H1   HT     0.417000        1.0080           0
   23730 WT1  7301 TIP3 H2   HT     0.417000        1.0080           0
   23731 WT1  7302 TIP3 OH2  OT    -0.834000       15.9994           0
   23732 WT1  7302 TIP3 H1   HT     0.417000        1.0080           0
   23733 WT1  7302 TIP3 H2   HT     0.417000        1.0080           0
   23734 WT1  7303 TIP3 OH2  OT    -0.834000       15.9994           0
   23735 WT1  7303 TIP3 H1   HT     0.417000        1.0080           0
   23736 WT1  7303 TIP3 H2   HT     0.417000        1.0080           0
   23737 WT1  7304 TIP3 OH2  OT    -0.834000       15.9994           0
   23738 WT1  7304 TIP3 H1   HT     0.417000        1.0080           0
   23739 WT1  7304 TIP3 H2   HT     0.417000        1.0080           0
   23740 WT1  7305 TIP3 OH2  OT    -0.834000       15.9994           0
   23741 WT1  7305 TIP3 H1   HT     0.417000        1.0080           0
   23742 WT1  7305 TIP3 H2   HT     0.417000        1.0080           0
   23743 WT1  7306 TIP3 OH2  OT    -0.834000       15.9994           0
   23744 WT1  7306 TIP3 H1   HT     0.417000        1.0080           0
   23745 WT1  7306 TIP3 H2   HT     0.417000        1.0080           0
   23746 WT1  7307 TIP3 OH2  OT    -0.834000       15.9994           0
   23747 WT1  7307 TIP3 H1   HT     0.417000        1.0080           0
   23748 WT1  7307 TIP3 H2   HT     0.417000        1.0080           0
   23749 WT1  7310 TIP3 OH2  OT    -0.834000       15.9994           0
   23750 WT1  7310 TIP3 H1   HT     0.417000        1.0080           0
   23751 WT1  7310 TIP3 H2   HT     0.417000        1.0080           0
   23752 WT1  7311 TIP3 OH2  OT    -0.834000       15.9994           0
   23753 WT1  7311 TIP3 H1   HT     0.417000        1.0080           0
   23754 WT1  7311 TIP3 H2   HT     0.417000        1.0080           0
   23755 WT1  7312 TIP3 OH2  OT    -0.834000       15.9994           0
   23756 WT1  7312 TIP3 H1   HT     0.417000        1.0080           0
   23757 WT1  7312 TIP3 H2   HT     0.417000        1.0080           0
   23758 WT1  7313 TIP3 OH2  OT    -0.834000       15.9994           0
   23759 WT1  7313 TIP3 H1   HT     0.417000        1.0080           0
   23760 WT1  7313 TIP3 H2   HT     0.417000        1.0080           0
   23761 WT1  7314 TIP3 OH2  OT    -0.834000       15.9994           0
   23762 WT1  7314 TIP3 H1   HT     0.417000        1.0080           0
   23763 WT1  7314 TIP3 H2   HT     0.417000        1.0080           0
   23764 WT1  7315 TIP3 OH2  OT    -0.834000       15.9994           0
   23765 WT1  7315 TIP3 H1   HT     0.417000        1.0080           0
   23766 WT1  7315 TIP3 H2   HT     0.417000        1.0080           0
   23767 WT1  7316 TIP3 OH2  OT    -0.834000       15.9994           0
   23768 WT1  7316 TIP3 H1   HT     0.417000        1.0080           0
   23769 WT1  7316 TIP3 H2   HT     0.417000        1.0080           0
   23770 WT1  7317 TIP3 OH2  OT    -0.834000       15.9994           0
   23771 WT1  7317 TIP3 H1   HT     0.417000        1.0080           0
   23772 WT1  7317 TIP3 H2   HT     0.417000        1.0080           0
   23773 WT1  7318 TIP3 OH2  OT    -0.834000       15.9994           0
   23774 WT1  7318 TIP3 H1   HT     0.417000        1.0080           0
   23775 WT1  7318 TIP3 H2   HT     0.417000        1.0080           0
   23776 WT1  7319 TIP3 OH2  OT    -0.834000       15.9994           0
   23777 WT1  7319 TIP3 H1   HT     0.417000        1.0080           0
   23778 WT1  7319 TIP3 H2   HT     0.417000        1.0080           0
   23779 WT1  7320 TIP3 OH2  OT    -0.834000       15.9994           0
   23780 WT1  7320 TIP3 H1   HT     0.417000        1.0080           0
   23781 WT1  7320 TIP3 H2   HT     0.417000        1.0080           0
   23782 WT1  7321 TIP3 OH2  OT    -0.834000       15.9994           0
   23783 WT1  7321 TIP3 H1   HT     0.417000        1.0080           0
   23784 WT1  7321 TIP3 H2   HT     0.417000        1.0080           0
   23785 WT1  7323 TIP3 OH2  OT    -0.834000       15.9994           0
   23786 WT1  7323 TIP3 H1   HT     0.417000        1.0080           0
   23787 WT1  7323 TIP3 H2   HT     0.417000        1.0080           0
   23788 WT1  7324 TIP3 OH2  OT    -0.834000       15.9994           0
   23789 WT1  7324 TIP3 H1   HT     0.417000        1.0080           0
   23790 WT1  7324 TIP3 H2   HT     0.417000        1.0080           0
   23791 WT1  7325 TIP3 OH2  OT    -0.834000       15.9994           0
   23792 WT1  7325 TIP3 H1   HT     0.417000        1.0080           0
   23793 WT1  7325 TIP3 H2   HT     0.417000        1.0080           0
   23794 WT1  7326 TIP3 OH2  OT    -0.834000       15.9994           0
   23795 WT1  7326 TIP3 H1   HT     0.417000        1.0080           0
   23796 WT1  7326 TIP3 H2   HT     0.417000        1.0080           0
   23797 WT1  7328 TIP3 OH2  OT    -0.834000       15.9994           0
   23798 WT1  7328 TIP3 H1   HT     0.417000        1.0080           0
   23799 WT1  7328 TIP3 H2   HT     0.417000        1.0080           0
   23800 WT1  7329 TIP3 OH2  OT    -0.834000       15.9994           0
   23801 WT1  7329 TIP3 H1   HT     0.417000        1.0080           0
   23802 WT1  7329 TIP3 H2   HT     0.417000        1.0080           0
   23803 WT1  7331 TIP3 OH2  OT    -0.834000       15.9994           0
   23804 WT1  7331 TIP3 H1   HT     0.417000        1.0080           0
   23805 WT1  7331 TIP3 H2   HT     0.417000        1.0080           0
   23806 WT1  7332 TIP3 OH2  OT    -0.834000       15.9994           0
   23807 WT1  7332 TIP3 H1   HT     0.417000        1.0080           0
   23808 WT1  7332 TIP3 H2   HT     0.417000        1.0080           0
   23809 WT1  7333 TIP3 OH2  OT    -0.834000       15.9994           0
   23810 WT1  7333 TIP3 H1   HT     0.417000        1.0080           0
   23811 WT1  7333 TIP3 H2   HT     0.417000        1.0080           0
   23812 WT1  7334 TIP3 OH2  OT    -0.834000       15.9994           0
   23813 WT1  7334 TIP3 H1   HT     0.417000        1.0080           0
   23814 WT1  7334 TIP3 H2   HT     0.417000        1.0080           0
   23815 WT1  7335 TIP3 OH2  OT    -0.834000       15.9994           0
   23816 WT1  7335 TIP3 H1   HT     0.417000        1.0080           0
   23817 WT1  7335 TIP3 H2   HT     0.417000        1.0080           0
   23818 WT1  7336 TIP3 OH2  OT    -0.834000       15.9994           0
   23819 WT1  7336 TIP3 H1   HT     0.417000        1.0080           0
   23820 WT1  7336 TIP3 H2   HT     0.417000        1.0080           0
   23821 WT1  7338 TIP3 OH2  OT    -0.834000       15.9994           0
   23822 WT1  7338 TIP3 H1   HT     0.417000        1.0080           0
   23823 WT1  7338 TIP3 H2   HT     0.417000        1.0080           0
   23824 WT1  7339 TIP3 OH2  OT    -0.834000       15.9994           0
   23825 WT1  7339 TIP3 H1   HT     0.417000        1.0080           0
   23826 WT1  7339 TIP3 H2   HT     0.417000        1.0080           0
   23827 WT1  7340 TIP3 OH2  OT    -0.834000       15.9994           0
   23828 WT1  7340 TIP3 H1   HT     0.417000        1.0080           0
   23829 WT1  7340 TIP3 H2   HT     0.417000        1.0080           0
   23830 WT1  7343 TIP3 OH2  OT    -0.834000       15.9994           0
   23831 WT1  7343 TIP3 H1   HT     0.417000        1.0080           0
   23832 WT1  7343 TIP3 H2   HT     0.417000        1.0080           0
   23833 WT1  7344 TIP3 OH2  OT    -0.834000       15.9994           0
   23834 WT1  7344 TIP3 H1   HT     0.417000        1.0080           0
   23835 WT1  7344 TIP3 H2   HT     0.417000        1.0080           0
   23836 WT1  7345 TIP3 OH2  OT    -0.834000       15.9994           0
   23837 WT1  7345 TIP3 H1   HT     0.417000        1.0080           0
   23838 WT1  7345 TIP3 H2   HT     0.417000        1.0080           0
   23839 WT1  7346 TIP3 OH2  OT    -0.834000       15.9994           0
   23840 WT1  7346 TIP3 H1   HT     0.417000        1.0080           0
   23841 WT1  7346 TIP3 H2   HT     0.417000        1.0080           0
   23842 WT1  7347 TIP3 OH2  OT    -0.834000       15.9994           0
   23843 WT1  7347 TIP3 H1   HT     0.417000        1.0080           0
   23844 WT1  7347 TIP3 H2   HT     0.417000        1.0080           0
   23845 WT1  7349 TIP3 OH2  OT    -0.834000       15.9994           0
   23846 WT1  7349 TIP3 H1   HT     0.417000        1.0080           0
   23847 WT1  7349 TIP3 H2   HT     0.417000        1.0080           0
   23848 WT1  7350 TIP3 OH2  OT    -0.834000       15.9994           0
   23849 WT1  7350 TIP3 H1   HT     0.417000        1.0080           0
   23850 WT1  7350 TIP3 H2   HT     0.417000        1.0080           0
   23851 WT1  7351 TIP3 OH2  OT    -0.834000       15.9994           0
   23852 WT1  7351 TIP3 H1   HT     0.417000        1.0080           0
   23853 WT1  7351 TIP3 H2   HT     0.417000        1.0080           0
   23854 WT1  7352 TIP3 OH2  OT    -0.834000       15.9994           0
   23855 WT1  7352 TIP3 H1   HT     0.417000        1.0080           0
   23856 WT1  7352 TIP3 H2   HT     0.417000        1.0080           0
   23857 WT1  7353 TIP3 OH2  OT    -0.834000       15.9994           0
   23858 WT1  7353 TIP3 H1   HT     0.417000        1.0080           0
   23859 WT1  7353 TIP3 H2   HT     0.417000        1.0080           0
   23860 WT1  7354 TIP3 OH2  OT    -0.834000       15.9994           0
   23861 WT1  7354 TIP3 H1   HT     0.417000        1.0080           0
   23862 WT1  7354 TIP3 H2   HT     0.417000        1.0080           0
   23863 WT1  7355 TIP3 OH2  OT    -0.834000       15.9994           0
   23864 WT1  7355 TIP3 H1   HT     0.417000        1.0080           0
   23865 WT1  7355 TIP3 H2   HT     0.417000        1.0080           0
   23866 WT1  7356 TIP3 OH2  OT    -0.834000       15.9994           0
   23867 WT1  7356 TIP3 H1   HT     0.417000        1.0080           0
   23868 WT1  7356 TIP3 H2   HT     0.417000        1.0080           0
   23869 WT1  7357 TIP3 OH2  OT    -0.834000       15.9994           0
   23870 WT1  7357 TIP3 H1   HT     0.417000        1.0080           0
   23871 WT1  7357 TIP3 H2   HT     0.417000        1.0080           0
   23872 WT1  7358 TIP3 OH2  OT    -0.834000       15.9994           0
   23873 WT1  7358 TIP3 H1   HT     0.417000        1.0080           0
   23874 WT1  7358 TIP3 H2   HT     0.417000        1.0080           0
   23875 WT1  7359 TIP3 OH2  OT    -0.834000       15.9994           0
   23876 WT1  7359 TIP3 H1   HT     0.417000        1.0080           0
   23877 WT1  7359 TIP3 H2   HT     0.417000        1.0080           0
   23878 WT1  7360 TIP3 OH2  OT    -0.834000       15.9994           0
   23879 WT1  7360 TIP3 H1   HT     0.417000        1.0080           0
   23880 WT1  7360 TIP3 H2   HT     0.417000        1.0080           0
   23881 WT1  7361 TIP3 OH2  OT    -0.834000       15.9994           0
   23882 WT1  7361 TIP3 H1   HT     0.417000        1.0080           0
   23883 WT1  7361 TIP3 H2   HT     0.417000        1.0080           0
   23884 WT1  7362 TIP3 OH2  OT    -0.834000       15.9994           0
   23885 WT1  7362 TIP3 H1   HT     0.417000        1.0080           0
   23886 WT1  7362 TIP3 H2   HT     0.417000        1.0080           0
   23887 WT1  7363 TIP3 OH2  OT    -0.834000       15.9994           0
   23888 WT1  7363 TIP3 H1   HT     0.417000        1.0080           0
   23889 WT1  7363 TIP3 H2   HT     0.417000        1.0080           0
   23890 WT1  7364 TIP3 OH2  OT    -0.834000       15.9994           0
   23891 WT1  7364 TIP3 H1   HT     0.417000        1.0080           0
   23892 WT1  7364 TIP3 H2   HT     0.417000        1.0080           0
   23893 WT1  7365 TIP3 OH2  OT    -0.834000       15.9994           0
   23894 WT1  7365 TIP3 H1   HT     0.417000        1.0080           0
   23895 WT1  7365 TIP3 H2   HT     0.417000        1.0080           0
   23896 WT1  7367 TIP3 OH2  OT    -0.834000       15.9994           0
   23897 WT1  7367 TIP3 H1   HT     0.417000        1.0080           0
   23898 WT1  7367 TIP3 H2   HT     0.417000        1.0080           0
   23899 WT1  7369 TIP3 OH2  OT    -0.834000       15.9994           0
   23900 WT1  7369 TIP3 H1   HT     0.417000        1.0080           0
   23901 WT1  7369 TIP3 H2   HT     0.417000        1.0080           0
   23902 WT1  7370 TIP3 OH2  OT    -0.834000       15.9994           0
   23903 WT1  7370 TIP3 H1   HT     0.417000        1.0080           0
   23904 WT1  7370 TIP3 H2   HT     0.417000        1.0080           0
   23905 WT1  7371 TIP3 OH2  OT    -0.834000       15.9994           0
   23906 WT1  7371 TIP3 H1   HT     0.417000        1.0080           0
   23907 WT1  7371 TIP3 H2   HT     0.417000        1.0080           0
   23908 WT1  7372 TIP3 OH2  OT    -0.834000       15.9994           0
   23909 WT1  7372 TIP3 H1   HT     0.417000        1.0080           0
   23910 WT1  7372 TIP3 H2   HT     0.417000        1.0080           0
   23911 WT1  7374 TIP3 OH2  OT    -0.834000       15.9994           0
   23912 WT1  7374 TIP3 H1   HT     0.417000        1.0080           0
   23913 WT1  7374 TIP3 H2   HT     0.417000        1.0080           0
   23914 WT1  7375 TIP3 OH2  OT    -0.834000       15.9994           0
   23915 WT1  7375 TIP3 H1   HT     0.417000        1.0080           0
   23916 WT1  7375 TIP3 H2   HT     0.417000        1.0080           0
   23917 WT1  7376 TIP3 OH2  OT    -0.834000       15.9994           0
   23918 WT1  7376 TIP3 H1   HT     0.417000        1.0080           0
   23919 WT1  7376 TIP3 H2   HT     0.417000        1.0080           0
   23920 WT1  7377 TIP3 OH2  OT    -0.834000       15.9994           0
   23921 WT1  7377 TIP3 H1   HT     0.417000        1.0080           0
   23922 WT1  7377 TIP3 H2   HT     0.417000        1.0080           0
   23923 WT1  7378 TIP3 OH2  OT    -0.834000       15.9994           0
   23924 WT1  7378 TIP3 H1   HT     0.417000        1.0080           0
   23925 WT1  7378 TIP3 H2   HT     0.417000        1.0080           0
   23926 WT1  7379 TIP3 OH2  OT    -0.834000       15.9994           0
   23927 WT1  7379 TIP3 H1   HT     0.417000        1.0080           0
   23928 WT1  7379 TIP3 H2   HT     0.417000        1.0080           0
   23929 WT1  7380 TIP3 OH2  OT    -0.834000       15.9994           0
   23930 WT1  7380 TIP3 H1   HT     0.417000        1.0080           0
   23931 WT1  7380 TIP3 H2   HT     0.417000        1.0080           0
   23932 WT1  7381 TIP3 OH2  OT    -0.834000       15.9994           0
   23933 WT1  7381 TIP3 H1   HT     0.417000        1.0080           0
   23934 WT1  7381 TIP3 H2   HT     0.417000        1.0080           0
   23935 WT1  7382 TIP3 OH2  OT    -0.834000       15.9994           0
   23936 WT1  7382 TIP3 H1   HT     0.417000        1.0080           0
   23937 WT1  7382 TIP3 H2   HT     0.417000        1.0080           0
   23938 WT1  7383 TIP3 OH2  OT    -0.834000       15.9994           0
   23939 WT1  7383 TIP3 H1   HT     0.417000        1.0080           0
   23940 WT1  7383 TIP3 H2   HT     0.417000        1.0080           0
   23941 WT1  7384 TIP3 OH2  OT    -0.834000       15.9994           0
   23942 WT1  7384 TIP3 H1   HT     0.417000        1.0080           0
   23943 WT1  7384 TIP3 H2   HT     0.417000        1.0080           0
   23944 WT1  7385 TIP3 OH2  OT    -0.834000       15.9994           0
   23945 WT1  7385 TIP3 H1   HT     0.417000        1.0080           0
   23946 WT1  7385 TIP3 H2   HT     0.417000        1.0080           0
   23947 WT1  7386 TIP3 OH2  OT    -0.834000       15.9994           0
   23948 WT1  7386 TIP3 H1   HT     0.417000        1.0080           0
   23949 WT1  7386 TIP3 H2   HT     0.417000        1.0080           0
   23950 WT1  7387 TIP3 OH2  OT    -0.834000       15.9994           0
   23951 WT1  7387 TIP3 H1   HT     0.417000        1.0080           0
   23952 WT1  7387 TIP3 H2   HT     0.417000        1.0080           0
   23953 WT1  7388 TIP3 OH2  OT    -0.834000       15.9994           0
   23954 WT1  7388 TIP3 H1   HT     0.417000        1.0080           0
   23955 WT1  7388 TIP3 H2   HT     0.417000        1.0080           0
   23956 WT1  7390 TIP3 OH2  OT    -0.834000       15.9994           0
   23957 WT1  7390 TIP3 H1   HT     0.417000        1.0080           0
   23958 WT1  7390 TIP3 H2   HT     0.417000        1.0080           0
   23959 WT1  7392 TIP3 OH2  OT    -0.834000       15.9994           0
   23960 WT1  7392 TIP3 H1   HT     0.417000        1.0080           0
   23961 WT1  7392 TIP3 H2   HT     0.417000        1.0080           0
   23962 WT1  7393 TIP3 OH2  OT    -0.834000       15.9994           0
   23963 WT1  7393 TIP3 H1   HT     0.417000        1.0080           0
   23964 WT1  7393 TIP3 H2   HT     0.417000        1.0080           0
   23965 WT1  7394 TIP3 OH2  OT    -0.834000       15.9994           0
   23966 WT1  7394 TIP3 H1   HT     0.417000        1.0080           0
   23967 WT1  7394 TIP3 H2   HT     0.417000        1.0080           0
   23968 WT1  7395 TIP3 OH2  OT    -0.834000       15.9994           0
   23969 WT1  7395 TIP3 H1   HT     0.417000        1.0080           0
   23970 WT1  7395 TIP3 H2   HT     0.417000        1.0080           0
   23971 WT1  7396 TIP3 OH2  OT    -0.834000       15.9994           0
   23972 WT1  7396 TIP3 H1   HT     0.417000        1.0080           0
   23973 WT1  7396 TIP3 H2   HT     0.417000        1.0080           0
   23974 WT1  7397 TIP3 OH2  OT    -0.834000       15.9994           0
   23975 WT1  7397 TIP3 H1   HT     0.417000        1.0080           0
   23976 WT1  7397 TIP3 H2   HT     0.417000        1.0080           0
   23977 WT1  7398 TIP3 OH2  OT    -0.834000       15.9994           0
   23978 WT1  7398 TIP3 H1   HT     0.417000        1.0080           0
   23979 WT1  7398 TIP3 H2   HT     0.417000        1.0080           0
   23980 WT1  7399 TIP3 OH2  OT    -0.834000       15.9994           0
   23981 WT1  7399 TIP3 H1   HT     0.417000        1.0080           0
   23982 WT1  7399 TIP3 H2   HT     0.417000        1.0080           0
   23983 WT1  7400 TIP3 OH2  OT    -0.834000       15.9994           0
   23984 WT1  7400 TIP3 H1   HT     0.417000        1.0080           0
   23985 WT1  7400 TIP3 H2   HT     0.417000        1.0080           0
   23986 WT1  7401 TIP3 OH2  OT    -0.834000       15.9994           0
   23987 WT1  7401 TIP3 H1   HT     0.417000        1.0080           0
   23988 WT1  7401 TIP3 H2   HT     0.417000        1.0080           0
   23989 WT1  7402 TIP3 OH2  OT    -0.834000       15.9994           0
   23990 WT1  7402 TIP3 H1   HT     0.417000        1.0080           0
   23991 WT1  7402 TIP3 H2   HT     0.417000        1.0080           0
   23992 WT1  7403 TIP3 OH2  OT    -0.834000       15.9994           0
   23993 WT1  7403 TIP3 H1   HT     0.417000        1.0080           0
   23994 WT1  7403 TIP3 H2   HT     0.417000        1.0080           0
   23995 WT1  7404 TIP3 OH2  OT    -0.834000       15.9994           0
   23996 WT1  7404 TIP3 H1   HT     0.417000        1.0080           0
   23997 WT1  7404 TIP3 H2   HT     0.417000        1.0080           0
   23998 WT1  7405 TIP3 OH2  OT    -0.834000       15.9994           0
   23999 WT1  7405 TIP3 H1   HT     0.417000        1.0080           0
   24000 WT1  7405 TIP3 H2   HT     0.417000        1.0080           0
   24001 WT1  7406 TIP3 OH2  OT    -0.834000       15.9994           0
   24002 WT1  7406 TIP3 H1   HT     0.417000        1.0080           0
   24003 WT1  7406 TIP3 H2   HT     0.417000        1.0080           0
   24004 WT1  7407 TIP3 OH2  OT    -0.834000       15.9994           0
   24005 WT1  7407 TIP3 H1   HT     0.417000        1.0080           0
   24006 WT1  7407 TIP3 H2   HT     0.417000        1.0080           0
   24007 WT1  7408 TIP3 OH2  OT    -0.834000       15.9994           0
   24008 WT1  7408 TIP3 H1   HT     0.417000        1.0080           0
   24009 WT1  7408 TIP3 H2   HT     0.417000        1.0080           0
   24010 WT1  7409 TIP3 OH2  OT    -0.834000       15.9994           0
   24011 WT1  7409 TIP3 H1   HT     0.417000        1.0080           0
   24012 WT1  7409 TIP3 H2   HT     0.417000        1.0080           0
   24013 WT1  7411 TIP3 OH2  OT    -0.834000       15.9994           0
   24014 WT1  7411 TIP3 H1   HT     0.417000        1.0080           0
   24015 WT1  7411 TIP3 H2   HT     0.417000        1.0080           0
   24016 WT1  7412 TIP3 OH2  OT    -0.834000       15.9994           0
   24017 WT1  7412 TIP3 H1   HT     0.417000        1.0080           0
   24018 WT1  7412 TIP3 H2   HT     0.417000        1.0080           0
   24019 WT1  7414 TIP3 OH2  OT    -0.834000       15.9994           0
   24020 WT1  7414 TIP3 H1   HT     0.417000        1.0080           0
   24021 WT1  7414 TIP3 H2   HT     0.417000        1.0080           0
   24022 WT1  7415 TIP3 OH2  OT    -0.834000       15.9994           0
   24023 WT1  7415 TIP3 H1   HT     0.417000        1.0080           0
   24024 WT1  7415 TIP3 H2   HT     0.417000        1.0080           0
   24025 WT1  7416 TIP3 OH2  OT    -0.834000       15.9994           0
   24026 WT1  7416 TIP3 H1   HT     0.417000        1.0080           0
   24027 WT1  7416 TIP3 H2   HT     0.417000        1.0080           0
   24028 WT1  7417 TIP3 OH2  OT    -0.834000       15.9994           0
   24029 WT1  7417 TIP3 H1   HT     0.417000        1.0080           0
   24030 WT1  7417 TIP3 H2   HT     0.417000        1.0080           0
   24031 WT1  7418 TIP3 OH2  OT    -0.834000       15.9994           0
   24032 WT1  7418 TIP3 H1   HT     0.417000        1.0080           0
   24033 WT1  7418 TIP3 H2   HT     0.417000        1.0080           0
   24034 WT1  7419 TIP3 OH2  OT    -0.834000       15.9994           0
   24035 WT1  7419 TIP3 H1   HT     0.417000        1.0080           0
   24036 WT1  7419 TIP3 H2   HT     0.417000        1.0080           0
   24037 WT1  7420 TIP3 OH2  OT    -0.834000       15.9994           0
   24038 WT1  7420 TIP3 H1   HT     0.417000        1.0080           0
   24039 WT1  7420 TIP3 H2   HT     0.417000        1.0080           0
   24040 WT1  7421 TIP3 OH2  OT    -0.834000       15.9994           0
   24041 WT1  7421 TIP3 H1   HT     0.417000        1.0080           0
   24042 WT1  7421 TIP3 H2   HT     0.417000        1.0080           0
   24043 WT1  7422 TIP3 OH2  OT    -0.834000       15.9994           0
   24044 WT1  7422 TIP3 H1   HT     0.417000        1.0080           0
   24045 WT1  7422 TIP3 H2   HT     0.417000        1.0080           0
   24046 WT1  7423 TIP3 OH2  OT    -0.834000       15.9994           0
   24047 WT1  7423 TIP3 H1   HT     0.417000        1.0080           0
   24048 WT1  7423 TIP3 H2   HT     0.417000        1.0080           0
   24049 WT1  7424 TIP3 OH2  OT    -0.834000       15.9994           0
   24050 WT1  7424 TIP3 H1   HT     0.417000        1.0080           0
   24051 WT1  7424 TIP3 H2   HT     0.417000        1.0080           0
   24052 WT1  7425 TIP3 OH2  OT    -0.834000       15.9994           0
   24053 WT1  7425 TIP3 H1   HT     0.417000        1.0080           0
   24054 WT1  7425 TIP3 H2   HT     0.417000        1.0080           0
   24055 WT1  7426 TIP3 OH2  OT    -0.834000       15.9994           0
   24056 WT1  7426 TIP3 H1   HT     0.417000        1.0080           0
   24057 WT1  7426 TIP3 H2   HT     0.417000        1.0080           0
   24058 WT1  7427 TIP3 OH2  OT    -0.834000       15.9994           0
   24059 WT1  7427 TIP3 H1   HT     0.417000        1.0080           0
   24060 WT1  7427 TIP3 H2   HT     0.417000        1.0080           0
   24061 WT1  7428 TIP3 OH2  OT    -0.834000       15.9994           0
   24062 WT1  7428 TIP3 H1   HT     0.417000        1.0080           0
   24063 WT1  7428 TIP3 H2   HT     0.417000        1.0080           0
   24064 WT1  7429 TIP3 OH2  OT    -0.834000       15.9994           0
   24065 WT1  7429 TIP3 H1   HT     0.417000        1.0080           0
   24066 WT1  7429 TIP3 H2   HT     0.417000        1.0080           0
   24067 WT1  7430 TIP3 OH2  OT    -0.834000       15.9994           0
   24068 WT1  7430 TIP3 H1   HT     0.417000        1.0080           0
   24069 WT1  7430 TIP3 H2   HT     0.417000        1.0080           0
   24070 WT1  7431 TIP3 OH2  OT    -0.834000       15.9994           0
   24071 WT1  7431 TIP3 H1   HT     0.417000        1.0080           0
   24072 WT1  7431 TIP3 H2   HT     0.417000        1.0080           0
   24073 WT1  7433 TIP3 OH2  OT    -0.834000       15.9994           0
   24074 WT1  7433 TIP3 H1   HT     0.417000        1.0080           0
   24075 WT1  7433 TIP3 H2   HT     0.417000        1.0080           0
   24076 WT1  7434 TIP3 OH2  OT    -0.834000       15.9994           0
   24077 WT1  7434 TIP3 H1   HT     0.417000        1.0080           0
   24078 WT1  7434 TIP3 H2   HT     0.417000        1.0080           0
   24079 WT1  7435 TIP3 OH2  OT    -0.834000       15.9994           0
   24080 WT1  7435 TIP3 H1   HT     0.417000        1.0080           0
   24081 WT1  7435 TIP3 H2   HT     0.417000        1.0080           0
   24082 WT1  7436 TIP3 OH2  OT    -0.834000       15.9994           0
   24083 WT1  7436 TIP3 H1   HT     0.417000        1.0080           0
   24084 WT1  7436 TIP3 H2   HT     0.417000        1.0080           0
   24085 WT1  7437 TIP3 OH2  OT    -0.834000       15.9994           0
   24086 WT1  7437 TIP3 H1   HT     0.417000        1.0080           0
   24087 WT1  7437 TIP3 H2   HT     0.417000        1.0080           0
   24088 WT1  7438 TIP3 OH2  OT    -0.834000       15.9994           0
   24089 WT1  7438 TIP3 H1   HT     0.417000        1.0080           0
   24090 WT1  7438 TIP3 H2   HT     0.417000        1.0080           0
   24091 WT1  7439 TIP3 OH2  OT    -0.834000       15.9994           0
   24092 WT1  7439 TIP3 H1   HT     0.417000        1.0080           0
   24093 WT1  7439 TIP3 H2   HT     0.417000        1.0080           0
   24094 WT1  7440 TIP3 OH2  OT    -0.834000       15.9994           0
   24095 WT1  7440 TIP3 H1   HT     0.417000        1.0080           0
   24096 WT1  7440 TIP3 H2   HT     0.417000        1.0080           0
   24097 WT1  7441 TIP3 OH2  OT    -0.834000       15.9994           0
   24098 WT1  7441 TIP3 H1   HT     0.417000        1.0080           0
   24099 WT1  7441 TIP3 H2   HT     0.417000        1.0080           0
   24100 WT1  7443 TIP3 OH2  OT    -0.834000       15.9994           0
   24101 WT1  7443 TIP3 H1   HT     0.417000        1.0080           0
   24102 WT1  7443 TIP3 H2   HT     0.417000        1.0080           0
   24103 WT1  7444 TIP3 OH2  OT    -0.834000       15.9994           0
   24104 WT1  7444 TIP3 H1   HT     0.417000        1.0080           0
   24105 WT1  7444 TIP3 H2   HT     0.417000        1.0080           0
   24106 WT1  7445 TIP3 OH2  OT    -0.834000       15.9994           0
   24107 WT1  7445 TIP3 H1   HT     0.417000        1.0080           0
   24108 WT1  7445 TIP3 H2   HT     0.417000        1.0080           0
   24109 WT1  7446 TIP3 OH2  OT    -0.834000       15.9994           0
   24110 WT1  7446 TIP3 H1   HT     0.417000        1.0080           0
   24111 WT1  7446 TIP3 H2   HT     0.417000        1.0080           0
   24112 WT1  7447 TIP3 OH2  OT    -0.834000       15.9994           0
   24113 WT1  7447 TIP3 H1   HT     0.417000        1.0080           0
   24114 WT1  7447 TIP3 H2   HT     0.417000        1.0080           0
   24115 WT1  7449 TIP3 OH2  OT    -0.834000       15.9994           0
   24116 WT1  7449 TIP3 H1   HT     0.417000        1.0080           0
   24117 WT1  7449 TIP3 H2   HT     0.417000        1.0080           0
   24118 WT1  7450 TIP3 OH2  OT    -0.834000       15.9994           0
   24119 WT1  7450 TIP3 H1   HT     0.417000        1.0080           0
   24120 WT1  7450 TIP3 H2   HT     0.417000        1.0080           0
   24121 WT1  7451 TIP3 OH2  OT    -0.834000       15.9994           0
   24122 WT1  7451 TIP3 H1   HT     0.417000        1.0080           0
   24123 WT1  7451 TIP3 H2   HT     0.417000        1.0080           0
   24124 WT1  7452 TIP3 OH2  OT    -0.834000       15.9994           0
   24125 WT1  7452 TIP3 H1   HT     0.417000        1.0080           0
   24126 WT1  7452 TIP3 H2   HT     0.417000        1.0080           0
   24127 WT1  7453 TIP3 OH2  OT    -0.834000       15.9994           0
   24128 WT1  7453 TIP3 H1   HT     0.417000        1.0080           0
   24129 WT1  7453 TIP3 H2   HT     0.417000        1.0080           0
   24130 WT1  7454 TIP3 OH2  OT    -0.834000       15.9994           0
   24131 WT1  7454 TIP3 H1   HT     0.417000        1.0080           0
   24132 WT1  7454 TIP3 H2   HT     0.417000        1.0080           0
   24133 WT1  7455 TIP3 OH2  OT    -0.834000       15.9994           0
   24134 WT1  7455 TIP3 H1   HT     0.417000        1.0080           0
   24135 WT1  7455 TIP3 H2   HT     0.417000        1.0080           0
   24136 WT1  7457 TIP3 OH2  OT    -0.834000       15.9994           0
   24137 WT1  7457 TIP3 H1   HT     0.417000        1.0080           0
   24138 WT1  7457 TIP3 H2   HT     0.417000        1.0080           0
   24139 WT1  7459 TIP3 OH2  OT    -0.834000       15.9994           0
   24140 WT1  7459 TIP3 H1   HT     0.417000        1.0080           0
   24141 WT1  7459 TIP3 H2   HT     0.417000        1.0080           0
   24142 WT1  7460 TIP3 OH2  OT    -0.834000       15.9994           0
   24143 WT1  7460 TIP3 H1   HT     0.417000        1.0080           0
   24144 WT1  7460 TIP3 H2   HT     0.417000        1.0080           0
   24145 WT1  7461 TIP3 OH2  OT    -0.834000       15.9994           0
   24146 WT1  7461 TIP3 H1   HT     0.417000        1.0080           0
   24147 WT1  7461 TIP3 H2   HT     0.417000        1.0080           0
   24148 WT1  7462 TIP3 OH2  OT    -0.834000       15.9994           0
   24149 WT1  7462 TIP3 H1   HT     0.417000        1.0080           0
   24150 WT1  7462 TIP3 H2   HT     0.417000        1.0080           0
   24151 WT1  7463 TIP3 OH2  OT    -0.834000       15.9994           0
   24152 WT1  7463 TIP3 H1   HT     0.417000        1.0080           0
   24153 WT1  7463 TIP3 H2   HT     0.417000        1.0080           0
   24154 WT1  7464 TIP3 OH2  OT    -0.834000       15.9994           0
   24155 WT1  7464 TIP3 H1   HT     0.417000        1.0080           0
   24156 WT1  7464 TIP3 H2   HT     0.417000        1.0080           0
   24157 WT1  7465 TIP3 OH2  OT    -0.834000       15.9994           0
   24158 WT1  7465 TIP3 H1   HT     0.417000        1.0080           0
   24159 WT1  7465 TIP3 H2   HT     0.417000        1.0080           0
   24160 WT1  7466 TIP3 OH2  OT    -0.834000       15.9994           0
   24161 WT1  7466 TIP3 H1   HT     0.417000        1.0080           0
   24162 WT1  7466 TIP3 H2   HT     0.417000        1.0080           0
   24163 WT1  7467 TIP3 OH2  OT    -0.834000       15.9994           0
   24164 WT1  7467 TIP3 H1   HT     0.417000        1.0080           0
   24165 WT1  7467 TIP3 H2   HT     0.417000        1.0080           0
   24166 WT1  7468 TIP3 OH2  OT    -0.834000       15.9994           0
   24167 WT1  7468 TIP3 H1   HT     0.417000        1.0080           0
   24168 WT1  7468 TIP3 H2   HT     0.417000        1.0080           0
   24169 WT1  7469 TIP3 OH2  OT    -0.834000       15.9994           0
   24170 WT1  7469 TIP3 H1   HT     0.417000        1.0080           0
   24171 WT1  7469 TIP3 H2   HT     0.417000        1.0080           0
   24172 WT1  7470 TIP3 OH2  OT    -0.834000       15.9994           0
   24173 WT1  7470 TIP3 H1   HT     0.417000        1.0080           0
   24174 WT1  7470 TIP3 H2   HT     0.417000        1.0080           0
   24175 WT1  7471 TIP3 OH2  OT    -0.834000       15.9994           0
   24176 WT1  7471 TIP3 H1   HT     0.417000        1.0080           0
   24177 WT1  7471 TIP3 H2   HT     0.417000        1.0080           0
   24178 WT1  7472 TIP3 OH2  OT    -0.834000       15.9994           0
   24179 WT1  7472 TIP3 H1   HT     0.417000        1.0080           0
   24180 WT1  7472 TIP3 H2   HT     0.417000        1.0080           0
   24181 WT1  7474 TIP3 OH2  OT    -0.834000       15.9994           0
   24182 WT1  7474 TIP3 H1   HT     0.417000        1.0080           0
   24183 WT1  7474 TIP3 H2   HT     0.417000        1.0080           0
   24184 WT1  7475 TIP3 OH2  OT    -0.834000       15.9994           0
   24185 WT1  7475 TIP3 H1   HT     0.417000        1.0080           0
   24186 WT1  7475 TIP3 H2   HT     0.417000        1.0080           0
   24187 WT1  7476 TIP3 OH2  OT    -0.834000       15.9994           0
   24188 WT1  7476 TIP3 H1   HT     0.417000        1.0080           0
   24189 WT1  7476 TIP3 H2   HT     0.417000        1.0080           0
   24190 WT1  7477 TIP3 OH2  OT    -0.834000       15.9994           0
   24191 WT1  7477 TIP3 H1   HT     0.417000        1.0080           0
   24192 WT1  7477 TIP3 H2   HT     0.417000        1.0080           0
   24193 WT1  7478 TIP3 OH2  OT    -0.834000       15.9994           0
   24194 WT1  7478 TIP3 H1   HT     0.417000        1.0080           0
   24195 WT1  7478 TIP3 H2   HT     0.417000        1.0080           0
   24196 WT1  7479 TIP3 OH2  OT    -0.834000       15.9994           0
   24197 WT1  7479 TIP3 H1   HT     0.417000        1.0080           0
   24198 WT1  7479 TIP3 H2   HT     0.417000        1.0080           0
   24199 WT1  7480 TIP3 OH2  OT    -0.834000       15.9994           0
   24200 WT1  7480 TIP3 H1   HT     0.417000        1.0080           0
   24201 WT1  7480 TIP3 H2   HT     0.417000        1.0080           0
   24202 WT1  7481 TIP3 OH2  OT    -0.834000       15.9994           0
   24203 WT1  7481 TIP3 H1   HT     0.417000        1.0080           0
   24204 WT1  7481 TIP3 H2   HT     0.417000        1.0080           0
   24205 WT1  7482 TIP3 OH2  OT    -0.834000       15.9994           0
   24206 WT1  7482 TIP3 H1   HT     0.417000        1.0080           0
   24207 WT1  7482 TIP3 H2   HT     0.417000        1.0080           0
   24208 WT1  7483 TIP3 OH2  OT    -0.834000       15.9994           0
   24209 WT1  7483 TIP3 H1   HT     0.417000        1.0080           0
   24210 WT1  7483 TIP3 H2   HT     0.417000        1.0080           0
   24211 WT1  7484 TIP3 OH2  OT    -0.834000       15.9994           0
   24212 WT1  7484 TIP3 H1   HT     0.417000        1.0080           0
   24213 WT1  7484 TIP3 H2   HT     0.417000        1.0080           0
   24214 WT1  7485 TIP3 OH2  OT    -0.834000       15.9994           0
   24215 WT1  7485 TIP3 H1   HT     0.417000        1.0080           0
   24216 WT1  7485 TIP3 H2   HT     0.417000        1.0080           0
   24217 WT1  7486 TIP3 OH2  OT    -0.834000       15.9994           0
   24218 WT1  7486 TIP3 H1   HT     0.417000        1.0080           0
   24219 WT1  7486 TIP3 H2   HT     0.417000        1.0080           0
   24220 WT1  7487 TIP3 OH2  OT    -0.834000       15.9994           0
   24221 WT1  7487 TIP3 H1   HT     0.417000        1.0080           0
   24222 WT1  7487 TIP3 H2   HT     0.417000        1.0080           0
   24223 WT1  7488 TIP3 OH2  OT    -0.834000       15.9994           0
   24224 WT1  7488 TIP3 H1   HT     0.417000        1.0080           0
   24225 WT1  7488 TIP3 H2   HT     0.417000        1.0080           0
   24226 WT1  7489 TIP3 OH2  OT    -0.834000       15.9994           0
   24227 WT1  7489 TIP3 H1   HT     0.417000        1.0080           0
   24228 WT1  7489 TIP3 H2   HT     0.417000        1.0080           0
   24229 WT1  7490 TIP3 OH2  OT    -0.834000       15.9994           0
   24230 WT1  7490 TIP3 H1   HT     0.417000        1.0080           0
   24231 WT1  7490 TIP3 H2   HT     0.417000        1.0080           0
   24232 WT1  7491 TIP3 OH2  OT    -0.834000       15.9994           0
   24233 WT1  7491 TIP3 H1   HT     0.417000        1.0080           0
   24234 WT1  7491 TIP3 H2   HT     0.417000        1.0080           0
   24235 WT1  7492 TIP3 OH2  OT    -0.834000       15.9994           0
   24236 WT1  7492 TIP3 H1   HT     0.417000        1.0080           0
   24237 WT1  7492 TIP3 H2   HT     0.417000        1.0080           0
   24238 WT1  7493 TIP3 OH2  OT    -0.834000       15.9994           0
   24239 WT1  7493 TIP3 H1   HT     0.417000        1.0080           0
   24240 WT1  7493 TIP3 H2   HT     0.417000        1.0080           0
   24241 WT1  7495 TIP3 OH2  OT    -0.834000       15.9994           0
   24242 WT1  7495 TIP3 H1   HT     0.417000        1.0080           0
   24243 WT1  7495 TIP3 H2   HT     0.417000        1.0080           0
   24244 WT1  7496 TIP3 OH2  OT    -0.834000       15.9994           0
   24245 WT1  7496 TIP3 H1   HT     0.417000        1.0080           0
   24246 WT1  7496 TIP3 H2   HT     0.417000        1.0080           0
   24247 WT1  7497 TIP3 OH2  OT    -0.834000       15.9994           0
   24248 WT1  7497 TIP3 H1   HT     0.417000        1.0080           0
   24249 WT1  7497 TIP3 H2   HT     0.417000        1.0080           0
   24250 WT1  7498 TIP3 OH2  OT    -0.834000       15.9994           0
   24251 WT1  7498 TIP3 H1   HT     0.417000        1.0080           0
   24252 WT1  7498 TIP3 H2   HT     0.417000        1.0080           0
   24253 WT1  7499 TIP3 OH2  OT    -0.834000       15.9994           0
   24254 WT1  7499 TIP3 H1   HT     0.417000        1.0080           0
   24255 WT1  7499 TIP3 H2   HT     0.417000        1.0080           0
   24256 WT1  7500 TIP3 OH2  OT    -0.834000       15.9994           0
   24257 WT1  7500 TIP3 H1   HT     0.417000        1.0080           0
   24258 WT1  7500 TIP3 H2   HT     0.417000        1.0080           0
   24259 WT1  7501 TIP3 OH2  OT    -0.834000       15.9994           0
   24260 WT1  7501 TIP3 H1   HT     0.417000        1.0080           0
   24261 WT1  7501 TIP3 H2   HT     0.417000        1.0080           0
   24262 WT1  7502 TIP3 OH2  OT    -0.834000       15.9994           0
   24263 WT1  7502 TIP3 H1   HT     0.417000        1.0080           0
   24264 WT1  7502 TIP3 H2   HT     0.417000        1.0080           0
   24265 WT1  7503 TIP3 OH2  OT    -0.834000       15.9994           0
   24266 WT1  7503 TIP3 H1   HT     0.417000        1.0080           0
   24267 WT1  7503 TIP3 H2   HT     0.417000        1.0080           0
   24268 WT1  7504 TIP3 OH2  OT    -0.834000       15.9994           0
   24269 WT1  7504 TIP3 H1   HT     0.417000        1.0080           0
   24270 WT1  7504 TIP3 H2   HT     0.417000        1.0080           0
   24271 WT1  7505 TIP3 OH2  OT    -0.834000       15.9994           0
   24272 WT1  7505 TIP3 H1   HT     0.417000        1.0080           0
   24273 WT1  7505 TIP3 H2   HT     0.417000        1.0080           0
   24274 WT1  7506 TIP3 OH2  OT    -0.834000       15.9994           0
   24275 WT1  7506 TIP3 H1   HT     0.417000        1.0080           0
   24276 WT1  7506 TIP3 H2   HT     0.417000        1.0080           0
   24277 WT1  7507 TIP3 OH2  OT    -0.834000       15.9994           0
   24278 WT1  7507 TIP3 H1   HT     0.417000        1.0080           0
   24279 WT1  7507 TIP3 H2   HT     0.417000        1.0080           0
   24280 WT1  7508 TIP3 OH2  OT    -0.834000       15.9994           0
   24281 WT1  7508 TIP3 H1   HT     0.417000        1.0080           0
   24282 WT1  7508 TIP3 H2   HT     0.417000        1.0080           0
   24283 WT1  7509 TIP3 OH2  OT    -0.834000       15.9994           0
   24284 WT1  7509 TIP3 H1   HT     0.417000        1.0080           0
   24285 WT1  7509 TIP3 H2   HT     0.417000        1.0080           0
   24286 WT1  7510 TIP3 OH2  OT    -0.834000       15.9994           0
   24287 WT1  7510 TIP3 H1   HT     0.417000        1.0080           0
   24288 WT1  7510 TIP3 H2   HT     0.417000        1.0080           0
   24289 WT1  7511 TIP3 OH2  OT    -0.834000       15.9994           0
   24290 WT1  7511 TIP3 H1   HT     0.417000        1.0080           0
   24291 WT1  7511 TIP3 H2   HT     0.417000        1.0080           0
   24292 WT1  7512 TIP3 OH2  OT    -0.834000       15.9994           0
   24293 WT1  7512 TIP3 H1   HT     0.417000        1.0080           0
   24294 WT1  7512 TIP3 H2   HT     0.417000        1.0080           0
   24295 WT1  7514 TIP3 OH2  OT    -0.834000       15.9994           0
   24296 WT1  7514 TIP3 H1   HT     0.417000        1.0080           0
   24297 WT1  7514 TIP3 H2   HT     0.417000        1.0080           0
   24298 WT1  7515 TIP3 OH2  OT    -0.834000       15.9994           0
   24299 WT1  7515 TIP3 H1   HT     0.417000        1.0080           0
   24300 WT1  7515 TIP3 H2   HT     0.417000        1.0080           0
   24301 WT1  7516 TIP3 OH2  OT    -0.834000       15.9994           0
   24302 WT1  7516 TIP3 H1   HT     0.417000        1.0080           0
   24303 WT1  7516 TIP3 H2   HT     0.417000        1.0080           0
   24304 WT1  7518 TIP3 OH2  OT    -0.834000       15.9994           0
   24305 WT1  7518 TIP3 H1   HT     0.417000        1.0080           0
   24306 WT1  7518 TIP3 H2   HT     0.417000        1.0080           0
   24307 WT1  7519 TIP3 OH2  OT    -0.834000       15.9994           0
   24308 WT1  7519 TIP3 H1   HT     0.417000        1.0080           0
   24309 WT1  7519 TIP3 H2   HT     0.417000        1.0080           0
   24310 WT1  7520 TIP3 OH2  OT    -0.834000       15.9994           0
   24311 WT1  7520 TIP3 H1   HT     0.417000        1.0080           0
   24312 WT1  7520 TIP3 H2   HT     0.417000        1.0080           0
   24313 WT1  7521 TIP3 OH2  OT    -0.834000       15.9994           0
   24314 WT1  7521 TIP3 H1   HT     0.417000        1.0080           0
   24315 WT1  7521 TIP3 H2   HT     0.417000        1.0080           0
   24316 WT1  7522 TIP3 OH2  OT    -0.834000       15.9994           0
   24317 WT1  7522 TIP3 H1   HT     0.417000        1.0080           0
   24318 WT1  7522 TIP3 H2   HT     0.417000        1.0080           0
   24319 WT1  7523 TIP3 OH2  OT    -0.834000       15.9994           0
   24320 WT1  7523 TIP3 H1   HT     0.417000        1.0080           0
   24321 WT1  7523 TIP3 H2   HT     0.417000        1.0080           0
   24322 WT1  7524 TIP3 OH2  OT    -0.834000       15.9994           0
   24323 WT1  7524 TIP3 H1   HT     0.417000        1.0080           0
   24324 WT1  7524 TIP3 H2   HT     0.417000        1.0080           0
   24325 WT1  7525 TIP3 OH2  OT    -0.834000       15.9994           0
   24326 WT1  7525 TIP3 H1   HT     0.417000        1.0080           0
   24327 WT1  7525 TIP3 H2   HT     0.417000        1.0080           0
   24328 WT1  7526 TIP3 OH2  OT    -0.834000       15.9994           0
   24329 WT1  7526 TIP3 H1   HT     0.417000        1.0080           0
   24330 WT1  7526 TIP3 H2   HT     0.417000        1.0080           0
   24331 WT1  7527 TIP3 OH2  OT    -0.834000       15.9994           0
   24332 WT1  7527 TIP3 H1   HT     0.417000        1.0080           0
   24333 WT1  7527 TIP3 H2   HT     0.417000        1.0080           0
   24334 WT1  7529 TIP3 OH2  OT    -0.834000       15.9994           0
   24335 WT1  7529 TIP3 H1   HT     0.417000        1.0080           0
   24336 WT1  7529 TIP3 H2   HT     0.417000        1.0080           0
   24337 WT1  7530 TIP3 OH2  OT    -0.834000       15.9994           0
   24338 WT1  7530 TIP3 H1   HT     0.417000        1.0080           0
   24339 WT1  7530 TIP3 H2   HT     0.417000        1.0080           0
   24340 WT1  7531 TIP3 OH2  OT    -0.834000       15.9994           0
   24341 WT1  7531 TIP3 H1   HT     0.417000        1.0080           0
   24342 WT1  7531 TIP3 H2   HT     0.417000        1.0080           0
   24343 WT1  7532 TIP3 OH2  OT    -0.834000       15.9994           0
   24344 WT1  7532 TIP3 H1   HT     0.417000        1.0080           0
   24345 WT1  7532 TIP3 H2   HT     0.417000        1.0080           0
   24346 WT1  7534 TIP3 OH2  OT    -0.834000       15.9994           0
   24347 WT1  7534 TIP3 H1   HT     0.417000        1.0080           0
   24348 WT1  7534 TIP3 H2   HT     0.417000        1.0080           0
   24349 WT1  7535 TIP3 OH2  OT    -0.834000       15.9994           0
   24350 WT1  7535 TIP3 H1   HT     0.417000        1.0080           0
   24351 WT1  7535 TIP3 H2   HT     0.417000        1.0080           0
   24352 WT1  7538 TIP3 OH2  OT    -0.834000       15.9994           0
   24353 WT1  7538 TIP3 H1   HT     0.417000        1.0080           0
   24354 WT1  7538 TIP3 H2   HT     0.417000        1.0080           0
   24355 WT1  7539 TIP3 OH2  OT    -0.834000       15.9994           0
   24356 WT1  7539 TIP3 H1   HT     0.417000        1.0080           0
   24357 WT1  7539 TIP3 H2   HT     0.417000        1.0080           0
   24358 WT1  7541 TIP3 OH2  OT    -0.834000       15.9994           0
   24359 WT1  7541 TIP3 H1   HT     0.417000        1.0080           0
   24360 WT1  7541 TIP3 H2   HT     0.417000        1.0080           0
   24361 WT1  7543 TIP3 OH2  OT    -0.834000       15.9994           0
   24362 WT1  7543 TIP3 H1   HT     0.417000        1.0080           0
   24363 WT1  7543 TIP3 H2   HT     0.417000        1.0080           0
   24364 WT1  7544 TIP3 OH2  OT    -0.834000       15.9994           0
   24365 WT1  7544 TIP3 H1   HT     0.417000        1.0080           0
   24366 WT1  7544 TIP3 H2   HT     0.417000        1.0080           0
   24367 WT1  7545 TIP3 OH2  OT    -0.834000       15.9994           0
   24368 WT1  7545 TIP3 H1   HT     0.417000        1.0080           0
   24369 WT1  7545 TIP3 H2   HT     0.417000        1.0080           0
   24370 WT1  7546 TIP3 OH2  OT    -0.834000       15.9994           0
   24371 WT1  7546 TIP3 H1   HT     0.417000        1.0080           0
   24372 WT1  7546 TIP3 H2   HT     0.417000        1.0080           0
   24373 WT1  7547 TIP3 OH2  OT    -0.834000       15.9994           0
   24374 WT1  7547 TIP3 H1   HT     0.417000        1.0080           0
   24375 WT1  7547 TIP3 H2   HT     0.417000        1.0080           0
   24376 WT1  7548 TIP3 OH2  OT    -0.834000       15.9994           0
   24377 WT1  7548 TIP3 H1   HT     0.417000        1.0080           0
   24378 WT1  7548 TIP3 H2   HT     0.417000        1.0080           0
   24379 WT1  7549 TIP3 OH2  OT    -0.834000       15.9994           0
   24380 WT1  7549 TIP3 H1   HT     0.417000        1.0080           0
   24381 WT1  7549 TIP3 H2   HT     0.417000        1.0080           0
   24382 WT1  7550 TIP3 OH2  OT    -0.834000       15.9994           0
   24383 WT1  7550 TIP3 H1   HT     0.417000        1.0080           0
   24384 WT1  7550 TIP3 H2   HT     0.417000        1.0080           0
   24385 WT1  7551 TIP3 OH2  OT    -0.834000       15.9994           0
   24386 WT1  7551 TIP3 H1   HT     0.417000        1.0080           0
   24387 WT1  7551 TIP3 H2   HT     0.417000        1.0080           0
   24388 WT1  7552 TIP3 OH2  OT    -0.834000       15.9994           0
   24389 WT1  7552 TIP3 H1   HT     0.417000        1.0080           0
   24390 WT1  7552 TIP3 H2   HT     0.417000        1.0080           0
   24391 WT1  7553 TIP3 OH2  OT    -0.834000       15.9994           0
   24392 WT1  7553 TIP3 H1   HT     0.417000        1.0080           0
   24393 WT1  7553 TIP3 H2   HT     0.417000        1.0080           0
   24394 WT1  7554 TIP3 OH2  OT    -0.834000       15.9994           0
   24395 WT1  7554 TIP3 H1   HT     0.417000        1.0080           0
   24396 WT1  7554 TIP3 H2   HT     0.417000        1.0080           0
   24397 WT1  7557 TIP3 OH2  OT    -0.834000       15.9994           0
   24398 WT1  7557 TIP3 H1   HT     0.417000        1.0080           0
   24399 WT1  7557 TIP3 H2   HT     0.417000        1.0080           0
   24400 WT1  7559 TIP3 OH2  OT    -0.834000       15.9994           0
   24401 WT1  7559 TIP3 H1   HT     0.417000        1.0080           0
   24402 WT1  7559 TIP3 H2   HT     0.417000        1.0080           0
   24403 WT1  7561 TIP3 OH2  OT    -0.834000       15.9994           0
   24404 WT1  7561 TIP3 H1   HT     0.417000        1.0080           0
   24405 WT1  7561 TIP3 H2   HT     0.417000        1.0080           0
   24406 WT1  7563 TIP3 OH2  OT    -0.834000       15.9994           0
   24407 WT1  7563 TIP3 H1   HT     0.417000        1.0080           0
   24408 WT1  7563 TIP3 H2   HT     0.417000        1.0080           0
   24409 WT1  7564 TIP3 OH2  OT    -0.834000       15.9994           0
   24410 WT1  7564 TIP3 H1   HT     0.417000        1.0080           0
   24411 WT1  7564 TIP3 H2   HT     0.417000        1.0080           0
   24412 WT1  7565 TIP3 OH2  OT    -0.834000       15.9994           0
   24413 WT1  7565 TIP3 H1   HT     0.417000        1.0080           0
   24414 WT1  7565 TIP3 H2   HT     0.417000        1.0080           0
   24415 WT1  7566 TIP3 OH2  OT    -0.834000       15.9994           0
   24416 WT1  7566 TIP3 H1   HT     0.417000        1.0080           0
   24417 WT1  7566 TIP3 H2   HT     0.417000        1.0080           0
   24418 WT1  7567 TIP3 OH2  OT    -0.834000       15.9994           0
   24419 WT1  7567 TIP3 H1   HT     0.417000        1.0080           0
   24420 WT1  7567 TIP3 H2   HT     0.417000        1.0080           0
   24421 WT1  7568 TIP3 OH2  OT    -0.834000       15.9994           0
   24422 WT1  7568 TIP3 H1   HT     0.417000        1.0080           0
   24423 WT1  7568 TIP3 H2   HT     0.417000        1.0080           0
   24424 WT1  7569 TIP3 OH2  OT    -0.834000       15.9994           0
   24425 WT1  7569 TIP3 H1   HT     0.417000        1.0080           0
   24426 WT1  7569 TIP3 H2   HT     0.417000        1.0080           0
   24427 WT1  7570 TIP3 OH2  OT    -0.834000       15.9994           0
   24428 WT1  7570 TIP3 H1   HT     0.417000        1.0080           0
   24429 WT1  7570 TIP3 H2   HT     0.417000        1.0080           0
   24430 WT1  7571 TIP3 OH2  OT    -0.834000       15.9994           0
   24431 WT1  7571 TIP3 H1   HT     0.417000        1.0080           0
   24432 WT1  7571 TIP3 H2   HT     0.417000        1.0080           0
   24433 WT1  7572 TIP3 OH2  OT    -0.834000       15.9994           0
   24434 WT1  7572 TIP3 H1   HT     0.417000        1.0080           0
   24435 WT1  7572 TIP3 H2   HT     0.417000        1.0080           0
   24436 WT1  7573 TIP3 OH2  OT    -0.834000       15.9994           0
   24437 WT1  7573 TIP3 H1   HT     0.417000        1.0080           0
   24438 WT1  7573 TIP3 H2   HT     0.417000        1.0080           0
   24439 WT1  7574 TIP3 OH2  OT    -0.834000       15.9994           0
   24440 WT1  7574 TIP3 H1   HT     0.417000        1.0080           0
   24441 WT1  7574 TIP3 H2   HT     0.417000        1.0080           0
   24442 WT1  7575 TIP3 OH2  OT    -0.834000       15.9994           0
   24443 WT1  7575 TIP3 H1   HT     0.417000        1.0080           0
   24444 WT1  7575 TIP3 H2   HT     0.417000        1.0080           0
   24445 WT1  7576 TIP3 OH2  OT    -0.834000       15.9994           0
   24446 WT1  7576 TIP3 H1   HT     0.417000        1.0080           0
   24447 WT1  7576 TIP3 H2   HT     0.417000        1.0080           0
   24448 WT1  7577 TIP3 OH2  OT    -0.834000       15.9994           0
   24449 WT1  7577 TIP3 H1   HT     0.417000        1.0080           0
   24450 WT1  7577 TIP3 H2   HT     0.417000        1.0080           0
   24451 WT1  7578 TIP3 OH2  OT    -0.834000       15.9994           0
   24452 WT1  7578 TIP3 H1   HT     0.417000        1.0080           0
   24453 WT1  7578 TIP3 H2   HT     0.417000        1.0080           0
   24454 WT1  7579 TIP3 OH2  OT    -0.834000       15.9994           0
   24455 WT1  7579 TIP3 H1   HT     0.417000        1.0080           0
   24456 WT1  7579 TIP3 H2   HT     0.417000        1.0080           0
   24457 WT1  7580 TIP3 OH2  OT    -0.834000       15.9994           0
   24458 WT1  7580 TIP3 H1   HT     0.417000        1.0080           0
   24459 WT1  7580 TIP3 H2   HT     0.417000        1.0080           0
   24460 WT1  7581 TIP3 OH2  OT    -0.834000       15.9994           0
   24461 WT1  7581 TIP3 H1   HT     0.417000        1.0080           0
   24462 WT1  7581 TIP3 H2   HT     0.417000        1.0080           0
   24463 WT1  7582 TIP3 OH2  OT    -0.834000       15.9994           0
   24464 WT1  7582 TIP3 H1   HT     0.417000        1.0080           0
   24465 WT1  7582 TIP3 H2   HT     0.417000        1.0080           0
   24466 WT1  7584 TIP3 OH2  OT    -0.834000       15.9994           0
   24467 WT1  7584 TIP3 H1   HT     0.417000        1.0080           0
   24468 WT1  7584 TIP3 H2   HT     0.417000        1.0080           0
   24469 WT1  7586 TIP3 OH2  OT    -0.834000       15.9994           0
   24470 WT1  7586 TIP3 H1   HT     0.417000        1.0080           0
   24471 WT1  7586 TIP3 H2   HT     0.417000        1.0080           0
   24472 WT1  7587 TIP3 OH2  OT    -0.834000       15.9994           0
   24473 WT1  7587 TIP3 H1   HT     0.417000        1.0080           0
   24474 WT1  7587 TIP3 H2   HT     0.417000        1.0080           0
   24475 WT1  7588 TIP3 OH2  OT    -0.834000       15.9994           0
   24476 WT1  7588 TIP3 H1   HT     0.417000        1.0080           0
   24477 WT1  7588 TIP3 H2   HT     0.417000        1.0080           0
   24478 WT1  7589 TIP3 OH2  OT    -0.834000       15.9994           0
   24479 WT1  7589 TIP3 H1   HT     0.417000        1.0080           0
   24480 WT1  7589 TIP3 H2   HT     0.417000        1.0080           0
   24481 WT1  7590 TIP3 OH2  OT    -0.834000       15.9994           0
   24482 WT1  7590 TIP3 H1   HT     0.417000        1.0080           0
   24483 WT1  7590 TIP3 H2   HT     0.417000        1.0080           0
   24484 WT1  7591 TIP3 OH2  OT    -0.834000       15.9994           0
   24485 WT1  7591 TIP3 H1   HT     0.417000        1.0080           0
   24486 WT1  7591 TIP3 H2   HT     0.417000        1.0080           0
   24487 WT1  7592 TIP3 OH2  OT    -0.834000       15.9994           0
   24488 WT1  7592 TIP3 H1   HT     0.417000        1.0080           0
   24489 WT1  7592 TIP3 H2   HT     0.417000        1.0080           0
   24490 WT1  7593 TIP3 OH2  OT    -0.834000       15.9994           0
   24491 WT1  7593 TIP3 H1   HT     0.417000        1.0080           0
   24492 WT1  7593 TIP3 H2   HT     0.417000        1.0080           0
   24493 WT1  7594 TIP3 OH2  OT    -0.834000       15.9994           0
   24494 WT1  7594 TIP3 H1   HT     0.417000        1.0080           0
   24495 WT1  7594 TIP3 H2   HT     0.417000        1.0080           0
   24496 WT1  7595 TIP3 OH2  OT    -0.834000       15.9994           0
   24497 WT1  7595 TIP3 H1   HT     0.417000        1.0080           0
   24498 WT1  7595 TIP3 H2   HT     0.417000        1.0080           0
   24499 WT1  7596 TIP3 OH2  OT    -0.834000       15.9994           0
   24500 WT1  7596 TIP3 H1   HT     0.417000        1.0080           0
   24501 WT1  7596 TIP3 H2   HT     0.417000        1.0080           0
   24502 WT1  7597 TIP3 OH2  OT    -0.834000       15.9994           0
   24503 WT1  7597 TIP3 H1   HT     0.417000        1.0080           0
   24504 WT1  7597 TIP3 H2   HT     0.417000        1.0080           0
   24505 WT1  7598 TIP3 OH2  OT    -0.834000       15.9994           0
   24506 WT1  7598 TIP3 H1   HT     0.417000        1.0080           0
   24507 WT1  7598 TIP3 H2   HT     0.417000        1.0080           0
   24508 WT1  7600 TIP3 OH2  OT    -0.834000       15.9994           0
   24509 WT1  7600 TIP3 H1   HT     0.417000        1.0080           0
   24510 WT1  7600 TIP3 H2   HT     0.417000        1.0080           0
   24511 WT1  7602 TIP3 OH2  OT    -0.834000       15.9994           0
   24512 WT1  7602 TIP3 H1   HT     0.417000        1.0080           0
   24513 WT1  7602 TIP3 H2   HT     0.417000        1.0080           0
   24514 WT1  7603 TIP3 OH2  OT    -0.834000       15.9994           0
   24515 WT1  7603 TIP3 H1   HT     0.417000        1.0080           0
   24516 WT1  7603 TIP3 H2   HT     0.417000        1.0080           0
   24517 WT1  7604 TIP3 OH2  OT    -0.834000       15.9994           0
   24518 WT1  7604 TIP3 H1   HT     0.417000        1.0080           0
   24519 WT1  7604 TIP3 H2   HT     0.417000        1.0080           0
   24520 WT1  7605 TIP3 OH2  OT    -0.834000       15.9994           0
   24521 WT1  7605 TIP3 H1   HT     0.417000        1.0080           0
   24522 WT1  7605 TIP3 H2   HT     0.417000        1.0080           0
   24523 WT1  7606 TIP3 OH2  OT    -0.834000       15.9994           0
   24524 WT1  7606 TIP3 H1   HT     0.417000        1.0080           0
   24525 WT1  7606 TIP3 H2   HT     0.417000        1.0080           0
   24526 WT1  7608 TIP3 OH2  OT    -0.834000       15.9994           0
   24527 WT1  7608 TIP3 H1   HT     0.417000        1.0080           0
   24528 WT1  7608 TIP3 H2   HT     0.417000        1.0080           0
   24529 WT1  7609 TIP3 OH2  OT    -0.834000       15.9994           0
   24530 WT1  7609 TIP3 H1   HT     0.417000        1.0080           0
   24531 WT1  7609 TIP3 H2   HT     0.417000        1.0080           0
   24532 WT1  7610 TIP3 OH2  OT    -0.834000       15.9994           0
   24533 WT1  7610 TIP3 H1   HT     0.417000        1.0080           0
   24534 WT1  7610 TIP3 H2   HT     0.417000        1.0080           0
   24535 WT1  7611 TIP3 OH2  OT    -0.834000       15.9994           0
   24536 WT1  7611 TIP3 H1   HT     0.417000        1.0080           0
   24537 WT1  7611 TIP3 H2   HT     0.417000        1.0080           0
   24538 WT1  7612 TIP3 OH2  OT    -0.834000       15.9994           0
   24539 WT1  7612 TIP3 H1   HT     0.417000        1.0080           0
   24540 WT1  7612 TIP3 H2   HT     0.417000        1.0080           0
   24541 WT1  7613 TIP3 OH2  OT    -0.834000       15.9994           0
   24542 WT1  7613 TIP3 H1   HT     0.417000        1.0080           0
   24543 WT1  7613 TIP3 H2   HT     0.417000        1.0080           0
   24544 WT1  7614 TIP3 OH2  OT    -0.834000       15.9994           0
   24545 WT1  7614 TIP3 H1   HT     0.417000        1.0080           0
   24546 WT1  7614 TIP3 H2   HT     0.417000        1.0080           0
   24547 WT1  7615 TIP3 OH2  OT    -0.834000       15.9994           0
   24548 WT1  7615 TIP3 H1   HT     0.417000        1.0080           0
   24549 WT1  7615 TIP3 H2   HT     0.417000        1.0080           0
   24550 WT1  7616 TIP3 OH2  OT    -0.834000       15.9994           0
   24551 WT1  7616 TIP3 H1   HT     0.417000        1.0080           0
   24552 WT1  7616 TIP3 H2   HT     0.417000        1.0080           0
   24553 WT1  7617 TIP3 OH2  OT    -0.834000       15.9994           0
   24554 WT1  7617 TIP3 H1   HT     0.417000        1.0080           0
   24555 WT1  7617 TIP3 H2   HT     0.417000        1.0080           0
   24556 WT1  7619 TIP3 OH2  OT    -0.834000       15.9994           0
   24557 WT1  7619 TIP3 H1   HT     0.417000        1.0080           0
   24558 WT1  7619 TIP3 H2   HT     0.417000        1.0080           0
   24559 WT1  7620 TIP3 OH2  OT    -0.834000       15.9994           0
   24560 WT1  7620 TIP3 H1   HT     0.417000        1.0080           0
   24561 WT1  7620 TIP3 H2   HT     0.417000        1.0080           0
   24562 WT1  7622 TIP3 OH2  OT    -0.834000       15.9994           0
   24563 WT1  7622 TIP3 H1   HT     0.417000        1.0080           0
   24564 WT1  7622 TIP3 H2   HT     0.417000        1.0080           0
   24565 WT1  7624 TIP3 OH2  OT    -0.834000       15.9994           0
   24566 WT1  7624 TIP3 H1   HT     0.417000        1.0080           0
   24567 WT1  7624 TIP3 H2   HT     0.417000        1.0080           0
   24568 WT1  7625 TIP3 OH2  OT    -0.834000       15.9994           0
   24569 WT1  7625 TIP3 H1   HT     0.417000        1.0080           0
   24570 WT1  7625 TIP3 H2   HT     0.417000        1.0080           0
   24571 WT1  7626 TIP3 OH2  OT    -0.834000       15.9994           0
   24572 WT1  7626 TIP3 H1   HT     0.417000        1.0080           0
   24573 WT1  7626 TIP3 H2   HT     0.417000        1.0080           0
   24574 WT1  7627 TIP3 OH2  OT    -0.834000       15.9994           0
   24575 WT1  7627 TIP3 H1   HT     0.417000        1.0080           0
   24576 WT1  7627 TIP3 H2   HT     0.417000        1.0080           0
   24577 WT1  7628 TIP3 OH2  OT    -0.834000       15.9994           0
   24578 WT1  7628 TIP3 H1   HT     0.417000        1.0080           0
   24579 WT1  7628 TIP3 H2   HT     0.417000        1.0080           0
   24580 WT1  7630 TIP3 OH2  OT    -0.834000       15.9994           0
   24581 WT1  7630 TIP3 H1   HT     0.417000        1.0080           0
   24582 WT1  7630 TIP3 H2   HT     0.417000        1.0080           0
   24583 WT1  7631 TIP3 OH2  OT    -0.834000       15.9994           0
   24584 WT1  7631 TIP3 H1   HT     0.417000        1.0080           0
   24585 WT1  7631 TIP3 H2   HT     0.417000        1.0080           0
   24586 WT1  7632 TIP3 OH2  OT    -0.834000       15.9994           0
   24587 WT1  7632 TIP3 H1   HT     0.417000        1.0080           0
   24588 WT1  7632 TIP3 H2   HT     0.417000        1.0080           0
   24589 WT1  7633 TIP3 OH2  OT    -0.834000       15.9994           0
   24590 WT1  7633 TIP3 H1   HT     0.417000        1.0080           0
   24591 WT1  7633 TIP3 H2   HT     0.417000        1.0080           0
   24592 WT1  7634 TIP3 OH2  OT    -0.834000       15.9994           0
   24593 WT1  7634 TIP3 H1   HT     0.417000        1.0080           0
   24594 WT1  7634 TIP3 H2   HT     0.417000        1.0080           0
   24595 WT1  7635 TIP3 OH2  OT    -0.834000       15.9994           0
   24596 WT1  7635 TIP3 H1   HT     0.417000        1.0080           0
   24597 WT1  7635 TIP3 H2   HT     0.417000        1.0080           0
   24598 WT1  7636 TIP3 OH2  OT    -0.834000       15.9994           0
   24599 WT1  7636 TIP3 H1   HT     0.417000        1.0080           0
   24600 WT1  7636 TIP3 H2   HT     0.417000        1.0080           0
   24601 WT1  7637 TIP3 OH2  OT    -0.834000       15.9994           0
   24602 WT1  7637 TIP3 H1   HT     0.417000        1.0080           0
   24603 WT1  7637 TIP3 H2   HT     0.417000        1.0080           0
   24604 WT1  7638 TIP3 OH2  OT    -0.834000       15.9994           0
   24605 WT1  7638 TIP3 H1   HT     0.417000        1.0080           0
   24606 WT1  7638 TIP3 H2   HT     0.417000        1.0080           0
   24607 WT1  7640 TIP3 OH2  OT    -0.834000       15.9994           0
   24608 WT1  7640 TIP3 H1   HT     0.417000        1.0080           0
   24609 WT1  7640 TIP3 H2   HT     0.417000        1.0080           0
   24610 WT1  7641 TIP3 OH2  OT    -0.834000       15.9994           0
   24611 WT1  7641 TIP3 H1   HT     0.417000        1.0080           0
   24612 WT1  7641 TIP3 H2   HT     0.417000        1.0080           0
   24613 WT1  7643 TIP3 OH2  OT    -0.834000       15.9994           0
   24614 WT1  7643 TIP3 H1   HT     0.417000        1.0080           0
   24615 WT1  7643 TIP3 H2   HT     0.417000        1.0080           0
   24616 WT1  7644 TIP3 OH2  OT    -0.834000       15.9994           0
   24617 WT1  7644 TIP3 H1   HT     0.417000        1.0080           0
   24618 WT1  7644 TIP3 H2   HT     0.417000        1.0080           0
   24619 WT1  7645 TIP3 OH2  OT    -0.834000       15.9994           0
   24620 WT1  7645 TIP3 H1   HT     0.417000        1.0080           0
   24621 WT1  7645 TIP3 H2   HT     0.417000        1.0080           0
   24622 WT1  7646 TIP3 OH2  OT    -0.834000       15.9994           0
   24623 WT1  7646 TIP3 H1   HT     0.417000        1.0080           0
   24624 WT1  7646 TIP3 H2   HT     0.417000        1.0080           0
   24625 WT1  7647 TIP3 OH2  OT    -0.834000       15.9994           0
   24626 WT1  7647 TIP3 H1   HT     0.417000        1.0080           0
   24627 WT1  7647 TIP3 H2   HT     0.417000        1.0080           0
   24628 WT1  7648 TIP3 OH2  OT    -0.834000       15.9994           0
   24629 WT1  7648 TIP3 H1   HT     0.417000        1.0080           0
   24630 WT1  7648 TIP3 H2   HT     0.417000        1.0080           0
   24631 WT1  7649 TIP3 OH2  OT    -0.834000       15.9994           0
   24632 WT1  7649 TIP3 H1   HT     0.417000        1.0080           0
   24633 WT1  7649 TIP3 H2   HT     0.417000        1.0080           0
   24634 WT1  7650 TIP3 OH2  OT    -0.834000       15.9994           0
   24635 WT1  7650 TIP3 H1   HT     0.417000        1.0080           0
   24636 WT1  7650 TIP3 H2   HT     0.417000        1.0080           0
   24637 WT1  7651 TIP3 OH2  OT    -0.834000       15.9994           0
   24638 WT1  7651 TIP3 H1   HT     0.417000        1.0080           0
   24639 WT1  7651 TIP3 H2   HT     0.417000        1.0080           0
   24640 WT1  7652 TIP3 OH2  OT    -0.834000       15.9994           0
   24641 WT1  7652 TIP3 H1   HT     0.417000        1.0080           0
   24642 WT1  7652 TIP3 H2   HT     0.417000        1.0080           0
   24643 WT1  7653 TIP3 OH2  OT    -0.834000       15.9994           0
   24644 WT1  7653 TIP3 H1   HT     0.417000        1.0080           0
   24645 WT1  7653 TIP3 H2   HT     0.417000        1.0080           0
   24646 WT1  7654 TIP3 OH2  OT    -0.834000       15.9994           0
   24647 WT1  7654 TIP3 H1   HT     0.417000        1.0080           0
   24648 WT1  7654 TIP3 H2   HT     0.417000        1.0080           0
   24649 WT1  7655 TIP3 OH2  OT    -0.834000       15.9994           0
   24650 WT1  7655 TIP3 H1   HT     0.417000        1.0080           0
   24651 WT1  7655 TIP3 H2   HT     0.417000        1.0080           0
   24652 WT1  7656 TIP3 OH2  OT    -0.834000       15.9994           0
   24653 WT1  7656 TIP3 H1   HT     0.417000        1.0080           0
   24654 WT1  7656 TIP3 H2   HT     0.417000        1.0080           0
   24655 WT1  7657 TIP3 OH2  OT    -0.834000       15.9994           0
   24656 WT1  7657 TIP3 H1   HT     0.417000        1.0080           0
   24657 WT1  7657 TIP3 H2   HT     0.417000        1.0080           0
   24658 WT1  7658 TIP3 OH2  OT    -0.834000       15.9994           0
   24659 WT1  7658 TIP3 H1   HT     0.417000        1.0080           0
   24660 WT1  7658 TIP3 H2   HT     0.417000        1.0080           0
   24661 WT1  7659 TIP3 OH2  OT    -0.834000       15.9994           0
   24662 WT1  7659 TIP3 H1   HT     0.417000        1.0080           0
   24663 WT1  7659 TIP3 H2   HT     0.417000        1.0080           0
   24664 WT1  7660 TIP3 OH2  OT    -0.834000       15.9994           0
   24665 WT1  7660 TIP3 H1   HT     0.417000        1.0080           0
   24666 WT1  7660 TIP3 H2   HT     0.417000        1.0080           0
   24667 WT1  7661 TIP3 OH2  OT    -0.834000       15.9994           0
   24668 WT1  7661 TIP3 H1   HT     0.417000        1.0080           0
   24669 WT1  7661 TIP3 H2   HT     0.417000        1.0080           0
   24670 WT1  7662 TIP3 OH2  OT    -0.834000       15.9994           0
   24671 WT1  7662 TIP3 H1   HT     0.417000        1.0080           0
   24672 WT1  7662 TIP3 H2   HT     0.417000        1.0080           0
   24673 WT1  7663 TIP3 OH2  OT    -0.834000       15.9994           0
   24674 WT1  7663 TIP3 H1   HT     0.417000        1.0080           0
   24675 WT1  7663 TIP3 H2   HT     0.417000        1.0080           0
   24676 WT1  7664 TIP3 OH2  OT    -0.834000       15.9994           0
   24677 WT1  7664 TIP3 H1   HT     0.417000        1.0080           0
   24678 WT1  7664 TIP3 H2   HT     0.417000        1.0080           0
   24679 WT1  7667 TIP3 OH2  OT    -0.834000       15.9994           0
   24680 WT1  7667 TIP3 H1   HT     0.417000        1.0080           0
   24681 WT1  7667 TIP3 H2   HT     0.417000        1.0080           0
   24682 WT1  7668 TIP3 OH2  OT    -0.834000       15.9994           0
   24683 WT1  7668 TIP3 H1   HT     0.417000        1.0080           0
   24684 WT1  7668 TIP3 H2   HT     0.417000        1.0080           0
   24685 WT1  7669 TIP3 OH2  OT    -0.834000       15.9994           0
   24686 WT1  7669 TIP3 H1   HT     0.417000        1.0080           0
   24687 WT1  7669 TIP3 H2   HT     0.417000        1.0080           0
   24688 WT1  7670 TIP3 OH2  OT    -0.834000       15.9994           0
   24689 WT1  7670 TIP3 H1   HT     0.417000        1.0080           0
   24690 WT1  7670 TIP3 H2   HT     0.417000        1.0080           0
   24691 WT1  7671 TIP3 OH2  OT    -0.834000       15.9994           0
   24692 WT1  7671 TIP3 H1   HT     0.417000        1.0080           0
   24693 WT1  7671 TIP3 H2   HT     0.417000        1.0080           0
   24694 WT1  7672 TIP3 OH2  OT    -0.834000       15.9994           0
   24695 WT1  7672 TIP3 H1   HT     0.417000        1.0080           0
   24696 WT1  7672 TIP3 H2   HT     0.417000        1.0080           0
   24697 WT1  7673 TIP3 OH2  OT    -0.834000       15.9994           0
   24698 WT1  7673 TIP3 H1   HT     0.417000        1.0080           0
   24699 WT1  7673 TIP3 H2   HT     0.417000        1.0080           0
   24700 WT1  7674 TIP3 OH2  OT    -0.834000       15.9994           0
   24701 WT1  7674 TIP3 H1   HT     0.417000        1.0080           0
   24702 WT1  7674 TIP3 H2   HT     0.417000        1.0080           0
   24703 WT1  7675 TIP3 OH2  OT    -0.834000       15.9994           0
   24704 WT1  7675 TIP3 H1   HT     0.417000        1.0080           0
   24705 WT1  7675 TIP3 H2   HT     0.417000        1.0080           0
   24706 WT1  7676 TIP3 OH2  OT    -0.834000       15.9994           0
   24707 WT1  7676 TIP3 H1   HT     0.417000        1.0080           0
   24708 WT1  7676 TIP3 H2   HT     0.417000        1.0080           0
   24709 WT1  7677 TIP3 OH2  OT    -0.834000       15.9994           0
   24710 WT1  7677 TIP3 H1   HT     0.417000        1.0080           0
   24711 WT1  7677 TIP3 H2   HT     0.417000        1.0080           0
   24712 WT1  7678 TIP3 OH2  OT    -0.834000       15.9994           0
   24713 WT1  7678 TIP3 H1   HT     0.417000        1.0080           0
   24714 WT1  7678 TIP3 H2   HT     0.417000        1.0080           0
   24715 WT1  7679 TIP3 OH2  OT    -0.834000       15.9994           0
   24716 WT1  7679 TIP3 H1   HT     0.417000        1.0080           0
   24717 WT1  7679 TIP3 H2   HT     0.417000        1.0080           0
   24718 WT1  7680 TIP3 OH2  OT    -0.834000       15.9994           0
   24719 WT1  7680 TIP3 H1   HT     0.417000        1.0080           0
   24720 WT1  7680 TIP3 H2   HT     0.417000        1.0080           0
   24721 WT1  7681 TIP3 OH2  OT    -0.834000       15.9994           0
   24722 WT1  7681 TIP3 H1   HT     0.417000        1.0080           0
   24723 WT1  7681 TIP3 H2   HT     0.417000        1.0080           0
   24724 WT1  7682 TIP3 OH2  OT    -0.834000       15.9994           0
   24725 WT1  7682 TIP3 H1   HT     0.417000        1.0080           0
   24726 WT1  7682 TIP3 H2   HT     0.417000        1.0080           0
   24727 WT1  7683 TIP3 OH2  OT    -0.834000       15.9994           0
   24728 WT1  7683 TIP3 H1   HT     0.417000        1.0080           0
   24729 WT1  7683 TIP3 H2   HT     0.417000        1.0080           0
   24730 WT1  7684 TIP3 OH2  OT    -0.834000       15.9994           0
   24731 WT1  7684 TIP3 H1   HT     0.417000        1.0080           0
   24732 WT1  7684 TIP3 H2   HT     0.417000        1.0080           0
   24733 WT1  7685 TIP3 OH2  OT    -0.834000       15.9994           0
   24734 WT1  7685 TIP3 H1   HT     0.417000        1.0080           0
   24735 WT1  7685 TIP3 H2   HT     0.417000        1.0080           0
   24736 WT1  7686 TIP3 OH2  OT    -0.834000       15.9994           0
   24737 WT1  7686 TIP3 H1   HT     0.417000        1.0080           0
   24738 WT1  7686 TIP3 H2   HT     0.417000        1.0080           0
   24739 WT1  7687 TIP3 OH2  OT    -0.834000       15.9994           0
   24740 WT1  7687 TIP3 H1   HT     0.417000        1.0080           0
   24741 WT1  7687 TIP3 H2   HT     0.417000        1.0080           0
   24742 WT1  7688 TIP3 OH2  OT    -0.834000       15.9994           0
   24743 WT1  7688 TIP3 H1   HT     0.417000        1.0080           0
   24744 WT1  7688 TIP3 H2   HT     0.417000        1.0080           0
   24745 WT1  7689 TIP3 OH2  OT    -0.834000       15.9994           0
   24746 WT1  7689 TIP3 H1   HT     0.417000        1.0080           0
   24747 WT1  7689 TIP3 H2   HT     0.417000        1.0080           0
   24748 WT1  7690 TIP3 OH2  OT    -0.834000       15.9994           0
   24749 WT1  7690 TIP3 H1   HT     0.417000        1.0080           0
   24750 WT1  7690 TIP3 H2   HT     0.417000        1.0080           0
   24751 WT1  7691 TIP3 OH2  OT    -0.834000       15.9994           0
   24752 WT1  7691 TIP3 H1   HT     0.417000        1.0080           0
   24753 WT1  7691 TIP3 H2   HT     0.417000        1.0080           0
   24754 WT1  7692 TIP3 OH2  OT    -0.834000       15.9994           0
   24755 WT1  7692 TIP3 H1   HT     0.417000        1.0080           0
   24756 WT1  7692 TIP3 H2   HT     0.417000        1.0080           0
   24757 WT1  7693 TIP3 OH2  OT    -0.834000       15.9994           0
   24758 WT1  7693 TIP3 H1   HT     0.417000        1.0080           0
   24759 WT1  7693 TIP3 H2   HT     0.417000        1.0080           0
   24760 WT1  7694 TIP3 OH2  OT    -0.834000       15.9994           0
   24761 WT1  7694 TIP3 H1   HT     0.417000        1.0080           0
   24762 WT1  7694 TIP3 H2   HT     0.417000        1.0080           0
   24763 WT1  7695 TIP3 OH2  OT    -0.834000       15.9994           0
   24764 WT1  7695 TIP3 H1   HT     0.417000        1.0080           0
   24765 WT1  7695 TIP3 H2   HT     0.417000        1.0080           0
   24766 WT1  7696 TIP3 OH2  OT    -0.834000       15.9994           0
   24767 WT1  7696 TIP3 H1   HT     0.417000        1.0080           0
   24768 WT1  7696 TIP3 H2   HT     0.417000        1.0080           0
   24769 WT1  7697 TIP3 OH2  OT    -0.834000       15.9994           0
   24770 WT1  7697 TIP3 H1   HT     0.417000        1.0080           0
   24771 WT1  7697 TIP3 H2   HT     0.417000        1.0080           0
   24772 WT1  7698 TIP3 OH2  OT    -0.834000       15.9994           0
   24773 WT1  7698 TIP3 H1   HT     0.417000        1.0080           0
   24774 WT1  7698 TIP3 H2   HT     0.417000        1.0080           0
   24775 WT1  7699 TIP3 OH2  OT    -0.834000       15.9994           0
   24776 WT1  7699 TIP3 H1   HT     0.417000        1.0080           0
   24777 WT1  7699 TIP3 H2   HT     0.417000        1.0080           0
   24778 WT1  7700 TIP3 OH2  OT    -0.834000       15.9994           0
   24779 WT1  7700 TIP3 H1   HT     0.417000        1.0080           0
   24780 WT1  7700 TIP3 H2   HT     0.417000        1.0080           0
   24781 WT1  7702 TIP3 OH2  OT    -0.834000       15.9994           0
   24782 WT1  7702 TIP3 H1   HT     0.417000        1.0080           0
   24783 WT1  7702 TIP3 H2   HT     0.417000        1.0080           0
   24784 WT1  7703 TIP3 OH2  OT    -0.834000       15.9994           0
   24785 WT1  7703 TIP3 H1   HT     0.417000        1.0080           0
   24786 WT1  7703 TIP3 H2   HT     0.417000        1.0080           0
   24787 WT1  7704 TIP3 OH2  OT    -0.834000       15.9994           0
   24788 WT1  7704 TIP3 H1   HT     0.417000        1.0080           0
   24789 WT1  7704 TIP3 H2   HT     0.417000        1.0080           0
   24790 WT1  7705 TIP3 OH2  OT    -0.834000       15.9994           0
   24791 WT1  7705 TIP3 H1   HT     0.417000        1.0080           0
   24792 WT1  7705 TIP3 H2   HT     0.417000        1.0080           0
   24793 WT1  7706 TIP3 OH2  OT    -0.834000       15.9994           0
   24794 WT1  7706 TIP3 H1   HT     0.417000        1.0080           0
   24795 WT1  7706 TIP3 H2   HT     0.417000        1.0080           0
   24796 WT1  7707 TIP3 OH2  OT    -0.834000       15.9994           0
   24797 WT1  7707 TIP3 H1   HT     0.417000        1.0080           0
   24798 WT1  7707 TIP3 H2   HT     0.417000        1.0080           0
   24799 WT1  7708 TIP3 OH2  OT    -0.834000       15.9994           0
   24800 WT1  7708 TIP3 H1   HT     0.417000        1.0080           0
   24801 WT1  7708 TIP3 H2   HT     0.417000        1.0080           0
   24802 WT1  7709 TIP3 OH2  OT    -0.834000       15.9994           0
   24803 WT1  7709 TIP3 H1   HT     0.417000        1.0080           0
   24804 WT1  7709 TIP3 H2   HT     0.417000        1.0080           0
   24805 WT1  7710 TIP3 OH2  OT    -0.834000       15.9994           0
   24806 WT1  7710 TIP3 H1   HT     0.417000        1.0080           0
   24807 WT1  7710 TIP3 H2   HT     0.417000        1.0080           0
   24808 WT1  7711 TIP3 OH2  OT    -0.834000       15.9994           0
   24809 WT1  7711 TIP3 H1   HT     0.417000        1.0080           0
   24810 WT1  7711 TIP3 H2   HT     0.417000        1.0080           0
   24811 WT1  7712 TIP3 OH2  OT    -0.834000       15.9994           0
   24812 WT1  7712 TIP3 H1   HT     0.417000        1.0080           0
   24813 WT1  7712 TIP3 H2   HT     0.417000        1.0080           0
   24814 WT1  7713 TIP3 OH2  OT    -0.834000       15.9994           0
   24815 WT1  7713 TIP3 H1   HT     0.417000        1.0080           0
   24816 WT1  7713 TIP3 H2   HT     0.417000        1.0080           0
   24817 WT1  7714 TIP3 OH2  OT    -0.834000       15.9994           0
   24818 WT1  7714 TIP3 H1   HT     0.417000        1.0080           0
   24819 WT1  7714 TIP3 H2   HT     0.417000        1.0080           0
   24820 WT1  7715 TIP3 OH2  OT    -0.834000       15.9994           0
   24821 WT1  7715 TIP3 H1   HT     0.417000        1.0080           0
   24822 WT1  7715 TIP3 H2   HT     0.417000        1.0080           0
   24823 WT1  7716 TIP3 OH2  OT    -0.834000       15.9994           0
   24824 WT1  7716 TIP3 H1   HT     0.417000        1.0080           0
   24825 WT1  7716 TIP3 H2   HT     0.417000        1.0080           0
   24826 WT1  7717 TIP3 OH2  OT    -0.834000       15.9994           0
   24827 WT1  7717 TIP3 H1   HT     0.417000        1.0080           0
   24828 WT1  7717 TIP3 H2   HT     0.417000        1.0080           0
   24829 WT1  7718 TIP3 OH2  OT    -0.834000       15.9994           0
   24830 WT1  7718 TIP3 H1   HT     0.417000        1.0080           0
   24831 WT1  7718 TIP3 H2   HT     0.417000        1.0080           0
   24832 WT1  7719 TIP3 OH2  OT    -0.834000       15.9994           0
   24833 WT1  7719 TIP3 H1   HT     0.417000        1.0080           0
   24834 WT1  7719 TIP3 H2   HT     0.417000        1.0080           0
   24835 WT1  7720 TIP3 OH2  OT    -0.834000       15.9994           0
   24836 WT1  7720 TIP3 H1   HT     0.417000        1.0080           0
   24837 WT1  7720 TIP3 H2   HT     0.417000        1.0080           0
   24838 WT1  7721 TIP3 OH2  OT    -0.834000       15.9994           0
   24839 WT1  7721 TIP3 H1   HT     0.417000        1.0080           0
   24840 WT1  7721 TIP3 H2   HT     0.417000        1.0080           0
   24841 WT1  7722 TIP3 OH2  OT    -0.834000       15.9994           0
   24842 WT1  7722 TIP3 H1   HT     0.417000        1.0080           0
   24843 WT1  7722 TIP3 H2   HT     0.417000        1.0080           0
   24844 WT1  7723 TIP3 OH2  OT    -0.834000       15.9994           0
   24845 WT1  7723 TIP3 H1   HT     0.417000        1.0080           0
   24846 WT1  7723 TIP3 H2   HT     0.417000        1.0080           0
   24847 WT1  7726 TIP3 OH2  OT    -0.834000       15.9994           0
   24848 WT1  7726 TIP3 H1   HT     0.417000        1.0080           0
   24849 WT1  7726 TIP3 H2   HT     0.417000        1.0080           0
   24850 WT1  7728 TIP3 OH2  OT    -0.834000       15.9994           0
   24851 WT1  7728 TIP3 H1   HT     0.417000        1.0080           0
   24852 WT1  7728 TIP3 H2   HT     0.417000        1.0080           0
   24853 WT1  7729 TIP3 OH2  OT    -0.834000       15.9994           0
   24854 WT1  7729 TIP3 H1   HT     0.417000        1.0080           0
   24855 WT1  7729 TIP3 H2   HT     0.417000        1.0080           0
   24856 WT1  7730 TIP3 OH2  OT    -0.834000       15.9994           0
   24857 WT1  7730 TIP3 H1   HT     0.417000        1.0080           0
   24858 WT1  7730 TIP3 H2   HT     0.417000        1.0080           0
   24859 WT1  7731 TIP3 OH2  OT    -0.834000       15.9994           0
   24860 WT1  7731 TIP3 H1   HT     0.417000        1.0080           0
   24861 WT1  7731 TIP3 H2   HT     0.417000        1.0080           0
   24862 WT1  7732 TIP3 OH2  OT    -0.834000       15.9994           0
   24863 WT1  7732 TIP3 H1   HT     0.417000        1.0080           0
   24864 WT1  7732 TIP3 H2   HT     0.417000        1.0080           0
   24865 WT1  7733 TIP3 OH2  OT    -0.834000       15.9994           0
   24866 WT1  7733 TIP3 H1   HT     0.417000        1.0080           0
   24867 WT1  7733 TIP3 H2   HT     0.417000        1.0080           0
   24868 WT1  7734 TIP3 OH2  OT    -0.834000       15.9994           0
   24869 WT1  7734 TIP3 H1   HT     0.417000        1.0080           0
   24870 WT1  7734 TIP3 H2   HT     0.417000        1.0080           0
   24871 WT1  7735 TIP3 OH2  OT    -0.834000       15.9994           0
   24872 WT1  7735 TIP3 H1   HT     0.417000        1.0080           0
   24873 WT1  7735 TIP3 H2   HT     0.417000        1.0080           0
   24874 WT1  7736 TIP3 OH2  OT    -0.834000       15.9994           0
   24875 WT1  7736 TIP3 H1   HT     0.417000        1.0080           0
   24876 WT1  7736 TIP3 H2   HT     0.417000        1.0080           0
   24877 WT1  7737 TIP3 OH2  OT    -0.834000       15.9994           0
   24878 WT1  7737 TIP3 H1   HT     0.417000        1.0080           0
   24879 WT1  7737 TIP3 H2   HT     0.417000        1.0080           0
   24880 WT1  7738 TIP3 OH2  OT    -0.834000       15.9994           0
   24881 WT1  7738 TIP3 H1   HT     0.417000        1.0080           0
   24882 WT1  7738 TIP3 H2   HT     0.417000        1.0080           0
   24883 WT1  7739 TIP3 OH2  OT    -0.834000       15.9994           0
   24884 WT1  7739 TIP3 H1   HT     0.417000        1.0080           0
   24885 WT1  7739 TIP3 H2   HT     0.417000        1.0080           0
   24886 WT1  7740 TIP3 OH2  OT    -0.834000       15.9994           0
   24887 WT1  7740 TIP3 H1   HT     0.417000        1.0080           0
   24888 WT1  7740 TIP3 H2   HT     0.417000        1.0080           0
   24889 WT1  7741 TIP3 OH2  OT    -0.834000       15.9994           0
   24890 WT1  7741 TIP3 H1   HT     0.417000        1.0080           0
   24891 WT1  7741 TIP3 H2   HT     0.417000        1.0080           0
   24892 WT1  7742 TIP3 OH2  OT    -0.834000       15.9994           0
   24893 WT1  7742 TIP3 H1   HT     0.417000        1.0080           0
   24894 WT1  7742 TIP3 H2   HT     0.417000        1.0080           0
   24895 WT1  7743 TIP3 OH2  OT    -0.834000       15.9994           0
   24896 WT1  7743 TIP3 H1   HT     0.417000        1.0080           0
   24897 WT1  7743 TIP3 H2   HT     0.417000        1.0080           0
   24898 WT1  7744 TIP3 OH2  OT    -0.834000       15.9994           0
   24899 WT1  7744 TIP3 H1   HT     0.417000        1.0080           0
   24900 WT1  7744 TIP3 H2   HT     0.417000        1.0080           0
   24901 WT1  7745 TIP3 OH2  OT    -0.834000       15.9994           0
   24902 WT1  7745 TIP3 H1   HT     0.417000        1.0080           0
   24903 WT1  7745 TIP3 H2   HT     0.417000        1.0080           0
   24904 WT1  7746 TIP3 OH2  OT    -0.834000       15.9994           0
   24905 WT1  7746 TIP3 H1   HT     0.417000        1.0080           0
   24906 WT1  7746 TIP3 H2   HT     0.417000        1.0080           0
   24907 WT1  7747 TIP3 OH2  OT    -0.834000       15.9994           0
   24908 WT1  7747 TIP3 H1   HT     0.417000        1.0080           0
   24909 WT1  7747 TIP3 H2   HT     0.417000        1.0080           0
   24910 WT1  7748 TIP3 OH2  OT    -0.834000       15.9994           0
   24911 WT1  7748 TIP3 H1   HT     0.417000        1.0080           0
   24912 WT1  7748 TIP3 H2   HT     0.417000        1.0080           0
   24913 WT1  7750 TIP3 OH2  OT    -0.834000       15.9994           0
   24914 WT1  7750 TIP3 H1   HT     0.417000        1.0080           0
   24915 WT1  7750 TIP3 H2   HT     0.417000        1.0080           0
   24916 WT1  7751 TIP3 OH2  OT    -0.834000       15.9994           0
   24917 WT1  7751 TIP3 H1   HT     0.417000        1.0080           0
   24918 WT1  7751 TIP3 H2   HT     0.417000        1.0080           0
   24919 WT1  7752 TIP3 OH2  OT    -0.834000       15.9994           0
   24920 WT1  7752 TIP3 H1   HT     0.417000        1.0080           0
   24921 WT1  7752 TIP3 H2   HT     0.417000        1.0080           0
   24922 WT1  7753 TIP3 OH2  OT    -0.834000       15.9994           0
   24923 WT1  7753 TIP3 H1   HT     0.417000        1.0080           0
   24924 WT1  7753 TIP3 H2   HT     0.417000        1.0080           0
   24925 WT1  7754 TIP3 OH2  OT    -0.834000       15.9994           0
   24926 WT1  7754 TIP3 H1   HT     0.417000        1.0080           0
   24927 WT1  7754 TIP3 H2   HT     0.417000        1.0080           0
   24928 WT1  7755 TIP3 OH2  OT    -0.834000       15.9994           0
   24929 WT1  7755 TIP3 H1   HT     0.417000        1.0080           0
   24930 WT1  7755 TIP3 H2   HT     0.417000        1.0080           0
   24931 WT1  7756 TIP3 OH2  OT    -0.834000       15.9994           0
   24932 WT1  7756 TIP3 H1   HT     0.417000        1.0080           0
   24933 WT1  7756 TIP3 H2   HT     0.417000        1.0080           0
   24934 WT1  7757 TIP3 OH2  OT    -0.834000       15.9994           0
   24935 WT1  7757 TIP3 H1   HT     0.417000        1.0080           0
   24936 WT1  7757 TIP3 H2   HT     0.417000        1.0080           0
   24937 WT1  7758 TIP3 OH2  OT    -0.834000       15.9994           0
   24938 WT1  7758 TIP3 H1   HT     0.417000        1.0080           0
   24939 WT1  7758 TIP3 H2   HT     0.417000        1.0080           0
   24940 WT1  7759 TIP3 OH2  OT    -0.834000       15.9994           0
   24941 WT1  7759 TIP3 H1   HT     0.417000        1.0080           0
   24942 WT1  7759 TIP3 H2   HT     0.417000        1.0080           0
   24943 WT1  7760 TIP3 OH2  OT    -0.834000       15.9994           0
   24944 WT1  7760 TIP3 H1   HT     0.417000        1.0080           0
   24945 WT1  7760 TIP3 H2   HT     0.417000        1.0080           0
   24946 WT1  7761 TIP3 OH2  OT    -0.834000       15.9994           0
   24947 WT1  7761 TIP3 H1   HT     0.417000        1.0080           0
   24948 WT1  7761 TIP3 H2   HT     0.417000        1.0080           0
   24949 WT1  7762 TIP3 OH2  OT    -0.834000       15.9994           0
   24950 WT1  7762 TIP3 H1   HT     0.417000        1.0080           0
   24951 WT1  7762 TIP3 H2   HT     0.417000        1.0080           0
   24952 WT1  7763 TIP3 OH2  OT    -0.834000       15.9994           0
   24953 WT1  7763 TIP3 H1   HT     0.417000        1.0080           0
   24954 WT1  7763 TIP3 H2   HT     0.417000        1.0080           0
   24955 WT1  7764 TIP3 OH2  OT    -0.834000       15.9994           0
   24956 WT1  7764 TIP3 H1   HT     0.417000        1.0080           0
   24957 WT1  7764 TIP3 H2   HT     0.417000        1.0080           0
   24958 WT1  7766 TIP3 OH2  OT    -0.834000       15.9994           0
   24959 WT1  7766 TIP3 H1   HT     0.417000        1.0080           0
   24960 WT1  7766 TIP3 H2   HT     0.417000        1.0080           0
   24961 WT1  7767 TIP3 OH2  OT    -0.834000       15.9994           0
   24962 WT1  7767 TIP3 H1   HT     0.417000        1.0080           0
   24963 WT1  7767 TIP3 H2   HT     0.417000        1.0080           0
   24964 WT1  7768 TIP3 OH2  OT    -0.834000       15.9994           0
   24965 WT1  7768 TIP3 H1   HT     0.417000        1.0080           0
   24966 WT1  7768 TIP3 H2   HT     0.417000        1.0080           0
   24967 WT1  7770 TIP3 OH2  OT    -0.834000       15.9994           0
   24968 WT1  7770 TIP3 H1   HT     0.417000        1.0080           0
   24969 WT1  7770 TIP3 H2   HT     0.417000        1.0080           0
   24970 WT1  7771 TIP3 OH2  OT    -0.834000       15.9994           0
   24971 WT1  7771 TIP3 H1   HT     0.417000        1.0080           0
   24972 WT1  7771 TIP3 H2   HT     0.417000        1.0080           0
   24973 WT1  7772 TIP3 OH2  OT    -0.834000       15.9994           0
   24974 WT1  7772 TIP3 H1   HT     0.417000        1.0080           0
   24975 WT1  7772 TIP3 H2   HT     0.417000        1.0080           0
   24976 WT1  7773 TIP3 OH2  OT    -0.834000       15.9994           0
   24977 WT1  7773 TIP3 H1   HT     0.417000        1.0080           0
   24978 WT1  7773 TIP3 H2   HT     0.417000        1.0080           0
   24979 WT1  7774 TIP3 OH2  OT    -0.834000       15.9994           0
   24980 WT1  7774 TIP3 H1   HT     0.417000        1.0080           0
   24981 WT1  7774 TIP3 H2   HT     0.417000        1.0080           0
   24982 WT1  7775 TIP3 OH2  OT    -0.834000       15.9994           0
   24983 WT1  7775 TIP3 H1   HT     0.417000        1.0080           0
   24984 WT1  7775 TIP3 H2   HT     0.417000        1.0080           0
   24985 WT1  7776 TIP3 OH2  OT    -0.834000       15.9994           0
   24986 WT1  7776 TIP3 H1   HT     0.417000        1.0080           0
   24987 WT1  7776 TIP3 H2   HT     0.417000        1.0080           0
   24988 WT1  7777 TIP3 OH2  OT    -0.834000       15.9994           0
   24989 WT1  7777 TIP3 H1   HT     0.417000        1.0080           0
   24990 WT1  7777 TIP3 H2   HT     0.417000        1.0080           0
   24991 WT1  7778 TIP3 OH2  OT    -0.834000       15.9994           0
   24992 WT1  7778 TIP3 H1   HT     0.417000        1.0080           0
   24993 WT1  7778 TIP3 H2   HT     0.417000        1.0080           0
   24994 WT1  7779 TIP3 OH2  OT    -0.834000       15.9994           0
   24995 WT1  7779 TIP3 H1   HT     0.417000        1.0080           0
   24996 WT1  7779 TIP3 H2   HT     0.417000        1.0080           0
   24997 WT1  7780 TIP3 OH2  OT    -0.834000       15.9994           0
   24998 WT1  7780 TIP3 H1   HT     0.417000        1.0080           0
   24999 WT1  7780 TIP3 H2   HT     0.417000        1.0080           0
   25000 WT1  7781 TIP3 OH2  OT    -0.834000       15.9994           0
   25001 WT1  7781 TIP3 H1   HT     0.417000        1.0080           0
   25002 WT1  7781 TIP3 H2   HT     0.417000        1.0080           0
   25003 WT1  7782 TIP3 OH2  OT    -0.834000       15.9994           0
   25004 WT1  7782 TIP3 H1   HT     0.417000        1.0080           0
   25005 WT1  7782 TIP3 H2   HT     0.417000        1.0080           0
   25006 WT1  7783 TIP3 OH2  OT    -0.834000       15.9994           0
   25007 WT1  7783 TIP3 H1   HT     0.417000        1.0080           0
   25008 WT1  7783 TIP3 H2   HT     0.417000        1.0080           0
   25009 WT1  7784 TIP3 OH2  OT    -0.834000       15.9994           0
   25010 WT1  7784 TIP3 H1   HT     0.417000        1.0080           0
   25011 WT1  7784 TIP3 H2   HT     0.417000        1.0080           0
   25012 WT1  7786 TIP3 OH2  OT    -0.834000       15.9994           0
   25013 WT1  7786 TIP3 H1   HT     0.417000        1.0080           0
   25014 WT1  7786 TIP3 H2   HT     0.417000        1.0080           0
   25015 WT1  7789 TIP3 OH2  OT    -0.834000       15.9994           0
   25016 WT1  7789 TIP3 H1   HT     0.417000        1.0080           0
   25017 WT1  7789 TIP3 H2   HT     0.417000        1.0080           0
   25018 WT1  7790 TIP3 OH2  OT    -0.834000       15.9994           0
   25019 WT1  7790 TIP3 H1   HT     0.417000        1.0080           0
   25020 WT1  7790 TIP3 H2   HT     0.417000        1.0080           0
   25021 WT1  7791 TIP3 OH2  OT    -0.834000       15.9994           0
   25022 WT1  7791 TIP3 H1   HT     0.417000        1.0080           0
   25023 WT1  7791 TIP3 H2   HT     0.417000        1.0080           0
   25024 WT1  7792 TIP3 OH2  OT    -0.834000       15.9994           0
   25025 WT1  7792 TIP3 H1   HT     0.417000        1.0080           0
   25026 WT1  7792 TIP3 H2   HT     0.417000        1.0080           0
   25027 WT1  7793 TIP3 OH2  OT    -0.834000       15.9994           0
   25028 WT1  7793 TIP3 H1   HT     0.417000        1.0080           0
   25029 WT1  7793 TIP3 H2   HT     0.417000        1.0080           0
   25030 WT1  7794 TIP3 OH2  OT    -0.834000       15.9994           0
   25031 WT1  7794 TIP3 H1   HT     0.417000        1.0080           0
   25032 WT1  7794 TIP3 H2   HT     0.417000        1.0080           0
   25033 WT1  7796 TIP3 OH2  OT    -0.834000       15.9994           0
   25034 WT1  7796 TIP3 H1   HT     0.417000        1.0080           0
   25035 WT1  7796 TIP3 H2   HT     0.417000        1.0080           0
   25036 WT1  7797 TIP3 OH2  OT    -0.834000       15.9994           0
   25037 WT1  7797 TIP3 H1   HT     0.417000        1.0080           0
   25038 WT1  7797 TIP3 H2   HT     0.417000        1.0080           0
   25039 WT1  7798 TIP3 OH2  OT    -0.834000       15.9994           0
   25040 WT1  7798 TIP3 H1   HT     0.417000        1.0080           0
   25041 WT1  7798 TIP3 H2   HT     0.417000        1.0080           0
   25042 WT1  7799 TIP3 OH2  OT    -0.834000       15.9994           0
   25043 WT1  7799 TIP3 H1   HT     0.417000        1.0080           0
   25044 WT1  7799 TIP3 H2   HT     0.417000        1.0080           0
   25045 WT1  7800 TIP3 OH2  OT    -0.834000       15.9994           0
   25046 WT1  7800 TIP3 H1   HT     0.417000        1.0080           0
   25047 WT1  7800 TIP3 H2   HT     0.417000        1.0080           0
   25048 WT1  7801 TIP3 OH2  OT    -0.834000       15.9994           0
   25049 WT1  7801 TIP3 H1   HT     0.417000        1.0080           0
   25050 WT1  7801 TIP3 H2   HT     0.417000        1.0080           0
   25051 WT1  7802 TIP3 OH2  OT    -0.834000       15.9994           0
   25052 WT1  7802 TIP3 H1   HT     0.417000        1.0080           0
   25053 WT1  7802 TIP3 H2   HT     0.417000        1.0080           0
   25054 WT1  7803 TIP3 OH2  OT    -0.834000       15.9994           0
   25055 WT1  7803 TIP3 H1   HT     0.417000        1.0080           0
   25056 WT1  7803 TIP3 H2   HT     0.417000        1.0080           0
   25057 WT1  7804 TIP3 OH2  OT    -0.834000       15.9994           0
   25058 WT1  7804 TIP3 H1   HT     0.417000        1.0080           0
   25059 WT1  7804 TIP3 H2   HT     0.417000        1.0080           0
   25060 WT1  7805 TIP3 OH2  OT    -0.834000       15.9994           0
   25061 WT1  7805 TIP3 H1   HT     0.417000        1.0080           0
   25062 WT1  7805 TIP3 H2   HT     0.417000        1.0080           0
   25063 WT1  7807 TIP3 OH2  OT    -0.834000       15.9994           0
   25064 WT1  7807 TIP3 H1   HT     0.417000        1.0080           0
   25065 WT1  7807 TIP3 H2   HT     0.417000        1.0080           0
   25066 WT1  7810 TIP3 OH2  OT    -0.834000       15.9994           0
   25067 WT1  7810 TIP3 H1   HT     0.417000        1.0080           0
   25068 WT1  7810 TIP3 H2   HT     0.417000        1.0080           0
   25069 WT1  7811 TIP3 OH2  OT    -0.834000       15.9994           0
   25070 WT1  7811 TIP3 H1   HT     0.417000        1.0080           0
   25071 WT1  7811 TIP3 H2   HT     0.417000        1.0080           0
   25072 WT1  7812 TIP3 OH2  OT    -0.834000       15.9994           0
   25073 WT1  7812 TIP3 H1   HT     0.417000        1.0080           0
   25074 WT1  7812 TIP3 H2   HT     0.417000        1.0080           0
   25075 WT1  7813 TIP3 OH2  OT    -0.834000       15.9994           0
   25076 WT1  7813 TIP3 H1   HT     0.417000        1.0080           0
   25077 WT1  7813 TIP3 H2   HT     0.417000        1.0080           0
   25078 WT1  7814 TIP3 OH2  OT    -0.834000       15.9994           0
   25079 WT1  7814 TIP3 H1   HT     0.417000        1.0080           0
   25080 WT1  7814 TIP3 H2   HT     0.417000        1.0080           0
   25081 WT1  7815 TIP3 OH2  OT    -0.834000       15.9994           0
   25082 WT1  7815 TIP3 H1   HT     0.417000        1.0080           0
   25083 WT1  7815 TIP3 H2   HT     0.417000        1.0080           0
   25084 WT1  7816 TIP3 OH2  OT    -0.834000       15.9994           0
   25085 WT1  7816 TIP3 H1   HT     0.417000        1.0080           0
   25086 WT1  7816 TIP3 H2   HT     0.417000        1.0080           0
   25087 WT1  7817 TIP3 OH2  OT    -0.834000       15.9994           0
   25088 WT1  7817 TIP3 H1   HT     0.417000        1.0080           0
   25089 WT1  7817 TIP3 H2   HT     0.417000        1.0080           0
   25090 WT1  7818 TIP3 OH2  OT    -0.834000       15.9994           0
   25091 WT1  7818 TIP3 H1   HT     0.417000        1.0080           0
   25092 WT1  7818 TIP3 H2   HT     0.417000        1.0080           0
   25093 WT1  7819 TIP3 OH2  OT    -0.834000       15.9994           0
   25094 WT1  7819 TIP3 H1   HT     0.417000        1.0080           0
   25095 WT1  7819 TIP3 H2   HT     0.417000        1.0080           0
   25096 WT1  7820 TIP3 OH2  OT    -0.834000       15.9994           0
   25097 WT1  7820 TIP3 H1   HT     0.417000        1.0080           0
   25098 WT1  7820 TIP3 H2   HT     0.417000        1.0080           0
   25099 WT1  7821 TIP3 OH2  OT    -0.834000       15.9994           0
   25100 WT1  7821 TIP3 H1   HT     0.417000        1.0080           0
   25101 WT1  7821 TIP3 H2   HT     0.417000        1.0080           0
   25102 WT1  7822 TIP3 OH2  OT    -0.834000       15.9994           0
   25103 WT1  7822 TIP3 H1   HT     0.417000        1.0080           0
   25104 WT1  7822 TIP3 H2   HT     0.417000        1.0080           0
   25105 WT1  7823 TIP3 OH2  OT    -0.834000       15.9994           0
   25106 WT1  7823 TIP3 H1   HT     0.417000        1.0080           0
   25107 WT1  7823 TIP3 H2   HT     0.417000        1.0080           0
   25108 WT1  7824 TIP3 OH2  OT    -0.834000       15.9994           0
   25109 WT1  7824 TIP3 H1   HT     0.417000        1.0080           0
   25110 WT1  7824 TIP3 H2   HT     0.417000        1.0080           0
   25111 WT1  7825 TIP3 OH2  OT    -0.834000       15.9994           0
   25112 WT1  7825 TIP3 H1   HT     0.417000        1.0080           0
   25113 WT1  7825 TIP3 H2   HT     0.417000        1.0080           0
   25114 WT1  7826 TIP3 OH2  OT    -0.834000       15.9994           0
   25115 WT1  7826 TIP3 H1   HT     0.417000        1.0080           0
   25116 WT1  7826 TIP3 H2   HT     0.417000        1.0080           0
   25117 WT1  7827 TIP3 OH2  OT    -0.834000       15.9994           0
   25118 WT1  7827 TIP3 H1   HT     0.417000        1.0080           0
   25119 WT1  7827 TIP3 H2   HT     0.417000        1.0080           0
   25120 WT1  7828 TIP3 OH2  OT    -0.834000       15.9994           0
   25121 WT1  7828 TIP3 H1   HT     0.417000        1.0080           0
   25122 WT1  7828 TIP3 H2   HT     0.417000        1.0080           0
   25123 WT1  7830 TIP3 OH2  OT    -0.834000       15.9994           0
   25124 WT1  7830 TIP3 H1   HT     0.417000        1.0080           0
   25125 WT1  7830 TIP3 H2   HT     0.417000        1.0080           0
   25126 WT1  7831 TIP3 OH2  OT    -0.834000       15.9994           0
   25127 WT1  7831 TIP3 H1   HT     0.417000        1.0080           0
   25128 WT1  7831 TIP3 H2   HT     0.417000        1.0080           0
   25129 WT1  7832 TIP3 OH2  OT    -0.834000       15.9994           0
   25130 WT1  7832 TIP3 H1   HT     0.417000        1.0080           0
   25131 WT1  7832 TIP3 H2   HT     0.417000        1.0080           0
   25132 WT1  7833 TIP3 OH2  OT    -0.834000       15.9994           0
   25133 WT1  7833 TIP3 H1   HT     0.417000        1.0080           0
   25134 WT1  7833 TIP3 H2   HT     0.417000        1.0080           0
   25135 WT1  7834 TIP3 OH2  OT    -0.834000       15.9994           0
   25136 WT1  7834 TIP3 H1   HT     0.417000        1.0080           0
   25137 WT1  7834 TIP3 H2   HT     0.417000        1.0080           0
   25138 WT1  7835 TIP3 OH2  OT    -0.834000       15.9994           0
   25139 WT1  7835 TIP3 H1   HT     0.417000        1.0080           0
   25140 WT1  7835 TIP3 H2   HT     0.417000        1.0080           0
   25141 WT1  7836 TIP3 OH2  OT    -0.834000       15.9994           0
   25142 WT1  7836 TIP3 H1   HT     0.417000        1.0080           0
   25143 WT1  7836 TIP3 H2   HT     0.417000        1.0080           0
   25144 WT1  7837 TIP3 OH2  OT    -0.834000       15.9994           0
   25145 WT1  7837 TIP3 H1   HT     0.417000        1.0080           0
   25146 WT1  7837 TIP3 H2   HT     0.417000        1.0080           0
   25147 WT1  7838 TIP3 OH2  OT    -0.834000       15.9994           0
   25148 WT1  7838 TIP3 H1   HT     0.417000        1.0080           0
   25149 WT1  7838 TIP3 H2   HT     0.417000        1.0080           0
   25150 WT1  7839 TIP3 OH2  OT    -0.834000       15.9994           0
   25151 WT1  7839 TIP3 H1   HT     0.417000        1.0080           0
   25152 WT1  7839 TIP3 H2   HT     0.417000        1.0080           0
   25153 WT1  7840 TIP3 OH2  OT    -0.834000       15.9994           0
   25154 WT1  7840 TIP3 H1   HT     0.417000        1.0080           0
   25155 WT1  7840 TIP3 H2   HT     0.417000        1.0080           0
   25156 WT1  7841 TIP3 OH2  OT    -0.834000       15.9994           0
   25157 WT1  7841 TIP3 H1   HT     0.417000        1.0080           0
   25158 WT1  7841 TIP3 H2   HT     0.417000        1.0080           0
   25159 WT1  7842 TIP3 OH2  OT    -0.834000       15.9994           0
   25160 WT1  7842 TIP3 H1   HT     0.417000        1.0080           0
   25161 WT1  7842 TIP3 H2   HT     0.417000        1.0080           0
   25162 WT1  7843 TIP3 OH2  OT    -0.834000       15.9994           0
   25163 WT1  7843 TIP3 H1   HT     0.417000        1.0080           0
   25164 WT1  7843 TIP3 H2   HT     0.417000        1.0080           0
   25165 WT1  7844 TIP3 OH2  OT    -0.834000       15.9994           0
   25166 WT1  7844 TIP3 H1   HT     0.417000        1.0080           0
   25167 WT1  7844 TIP3 H2   HT     0.417000        1.0080           0
   25168 WT1  7845 TIP3 OH2  OT    -0.834000       15.9994           0
   25169 WT1  7845 TIP3 H1   HT     0.417000        1.0080           0
   25170 WT1  7845 TIP3 H2   HT     0.417000        1.0080           0
   25171 WT1  7846 TIP3 OH2  OT    -0.834000       15.9994           0
   25172 WT1  7846 TIP3 H1   HT     0.417000        1.0080           0
   25173 WT1  7846 TIP3 H2   HT     0.417000        1.0080           0
   25174 WT1  7847 TIP3 OH2  OT    -0.834000       15.9994           0
   25175 WT1  7847 TIP3 H1   HT     0.417000        1.0080           0
   25176 WT1  7847 TIP3 H2   HT     0.417000        1.0080           0
   25177 WT1  7848 TIP3 OH2  OT    -0.834000       15.9994           0
   25178 WT1  7848 TIP3 H1   HT     0.417000        1.0080           0
   25179 WT1  7848 TIP3 H2   HT     0.417000        1.0080           0
   25180 WT1  7849 TIP3 OH2  OT    -0.834000       15.9994           0
   25181 WT1  7849 TIP3 H1   HT     0.417000        1.0080           0
   25182 WT1  7849 TIP3 H2   HT     0.417000        1.0080           0
   25183 WT1  7851 TIP3 OH2  OT    -0.834000       15.9994           0
   25184 WT1  7851 TIP3 H1   HT     0.417000        1.0080           0
   25185 WT1  7851 TIP3 H2   HT     0.417000        1.0080           0
   25186 WT1  7852 TIP3 OH2  OT    -0.834000       15.9994           0
   25187 WT1  7852 TIP3 H1   HT     0.417000        1.0080           0
   25188 WT1  7852 TIP3 H2   HT     0.417000        1.0080           0
   25189 WT1  7853 TIP3 OH2  OT    -0.834000       15.9994           0
   25190 WT1  7853 TIP3 H1   HT     0.417000        1.0080           0
   25191 WT1  7853 TIP3 H2   HT     0.417000        1.0080           0
   25192 WT1  7854 TIP3 OH2  OT    -0.834000       15.9994           0
   25193 WT1  7854 TIP3 H1   HT     0.417000        1.0080           0
   25194 WT1  7854 TIP3 H2   HT     0.417000        1.0080           0
   25195 WT1  7856 TIP3 OH2  OT    -0.834000       15.9994           0
   25196 WT1  7856 TIP3 H1   HT     0.417000        1.0080           0
   25197 WT1  7856 TIP3 H2   HT     0.417000        1.0080           0
   25198 WT1  7857 TIP3 OH2  OT    -0.834000       15.9994           0
   25199 WT1  7857 TIP3 H1   HT     0.417000        1.0080           0
   25200 WT1  7857 TIP3 H2   HT     0.417000        1.0080           0
   25201 WT1  7858 TIP3 OH2  OT    -0.834000       15.9994           0
   25202 WT1  7858 TIP3 H1   HT     0.417000        1.0080           0
   25203 WT1  7858 TIP3 H2   HT     0.417000        1.0080           0
   25204 WT1  7859 TIP3 OH2  OT    -0.834000       15.9994           0
   25205 WT1  7859 TIP3 H1   HT     0.417000        1.0080           0
   25206 WT1  7859 TIP3 H2   HT     0.417000        1.0080           0
   25207 WT1  7860 TIP3 OH2  OT    -0.834000       15.9994           0
   25208 WT1  7860 TIP3 H1   HT     0.417000        1.0080           0
   25209 WT1  7860 TIP3 H2   HT     0.417000        1.0080           0
   25210 WT1  7861 TIP3 OH2  OT    -0.834000       15.9994           0
   25211 WT1  7861 TIP3 H1   HT     0.417000        1.0080           0
   25212 WT1  7861 TIP3 H2   HT     0.417000        1.0080           0
   25213 WT1  7862 TIP3 OH2  OT    -0.834000       15.9994           0
   25214 WT1  7862 TIP3 H1   HT     0.417000        1.0080           0
   25215 WT1  7862 TIP3 H2   HT     0.417000        1.0080           0
   25216 WT1  7863 TIP3 OH2  OT    -0.834000       15.9994           0
   25217 WT1  7863 TIP3 H1   HT     0.417000        1.0080           0
   25218 WT1  7863 TIP3 H2   HT     0.417000        1.0080           0
   25219 WT1  7864 TIP3 OH2  OT    -0.834000       15.9994           0
   25220 WT1  7864 TIP3 H1   HT     0.417000        1.0080           0
   25221 WT1  7864 TIP3 H2   HT     0.417000        1.0080           0
   25222 WT1  7865 TIP3 OH2  OT    -0.834000       15.9994           0
   25223 WT1  7865 TIP3 H1   HT     0.417000        1.0080           0
   25224 WT1  7865 TIP3 H2   HT     0.417000        1.0080           0
   25225 WT1  7866 TIP3 OH2  OT    -0.834000       15.9994           0
   25226 WT1  7866 TIP3 H1   HT     0.417000        1.0080           0
   25227 WT1  7866 TIP3 H2   HT     0.417000        1.0080           0
   25228 WT1  7867 TIP3 OH2  OT    -0.834000       15.9994           0
   25229 WT1  7867 TIP3 H1   HT     0.417000        1.0080           0
   25230 WT1  7867 TIP3 H2   HT     0.417000        1.0080           0
   25231 WT1  7868 TIP3 OH2  OT    -0.834000       15.9994           0
   25232 WT1  7868 TIP3 H1   HT     0.417000        1.0080           0
   25233 WT1  7868 TIP3 H2   HT     0.417000        1.0080           0
   25234 WT1  7869 TIP3 OH2  OT    -0.834000       15.9994           0
   25235 WT1  7869 TIP3 H1   HT     0.417000        1.0080           0
   25236 WT1  7869 TIP3 H2   HT     0.417000        1.0080           0
   25237 WT1  7871 TIP3 OH2  OT    -0.834000       15.9994           0
   25238 WT1  7871 TIP3 H1   HT     0.417000        1.0080           0
   25239 WT1  7871 TIP3 H2   HT     0.417000        1.0080           0
   25240 WT1  7872 TIP3 OH2  OT    -0.834000       15.9994           0
   25241 WT1  7872 TIP3 H1   HT     0.417000        1.0080           0
   25242 WT1  7872 TIP3 H2   HT     0.417000        1.0080           0
   25243 WT1  7875 TIP3 OH2  OT    -0.834000       15.9994           0
   25244 WT1  7875 TIP3 H1   HT     0.417000        1.0080           0
   25245 WT1  7875 TIP3 H2   HT     0.417000        1.0080           0
   25246 WT1  7877 TIP3 OH2  OT    -0.834000       15.9994           0
   25247 WT1  7877 TIP3 H1   HT     0.417000        1.0080           0
   25248 WT1  7877 TIP3 H2   HT     0.417000        1.0080           0
   25249 WT1  7878 TIP3 OH2  OT    -0.834000       15.9994           0
   25250 WT1  7878 TIP3 H1   HT     0.417000        1.0080           0
   25251 WT1  7878 TIP3 H2   HT     0.417000        1.0080           0
   25252 WT1  7879 TIP3 OH2  OT    -0.834000       15.9994           0
   25253 WT1  7879 TIP3 H1   HT     0.417000        1.0080           0
   25254 WT1  7879 TIP3 H2   HT     0.417000        1.0080           0
   25255 WT1  7880 TIP3 OH2  OT    -0.834000       15.9994           0
   25256 WT1  7880 TIP3 H1   HT     0.417000        1.0080           0
   25257 WT1  7880 TIP3 H2   HT     0.417000        1.0080           0
   25258 WT1  7881 TIP3 OH2  OT    -0.834000       15.9994           0
   25259 WT1  7881 TIP3 H1   HT     0.417000        1.0080           0
   25260 WT1  7881 TIP3 H2   HT     0.417000        1.0080           0
   25261 WT1  7882 TIP3 OH2  OT    -0.834000       15.9994           0
   25262 WT1  7882 TIP3 H1   HT     0.417000        1.0080           0
   25263 WT1  7882 TIP3 H2   HT     0.417000        1.0080           0
   25264 WT1  7883 TIP3 OH2  OT    -0.834000       15.9994           0
   25265 WT1  7883 TIP3 H1   HT     0.417000        1.0080           0
   25266 WT1  7883 TIP3 H2   HT     0.417000        1.0080           0
   25267 WT1  7884 TIP3 OH2  OT    -0.834000       15.9994           0
   25268 WT1  7884 TIP3 H1   HT     0.417000        1.0080           0
   25269 WT1  7884 TIP3 H2   HT     0.417000        1.0080           0
   25270 WT1  7885 TIP3 OH2  OT    -0.834000       15.9994           0
   25271 WT1  7885 TIP3 H1   HT     0.417000        1.0080           0
   25272 WT1  7885 TIP3 H2   HT     0.417000        1.0080           0
   25273 WT1  7886 TIP3 OH2  OT    -0.834000       15.9994           0
   25274 WT1  7886 TIP3 H1   HT     0.417000        1.0080           0
   25275 WT1  7886 TIP3 H2   HT     0.417000        1.0080           0
   25276 WT1  7887 TIP3 OH2  OT    -0.834000       15.9994           0
   25277 WT1  7887 TIP3 H1   HT     0.417000        1.0080           0
   25278 WT1  7887 TIP3 H2   HT     0.417000        1.0080           0
   25279 WT1  7888 TIP3 OH2  OT    -0.834000       15.9994           0
   25280 WT1  7888 TIP3 H1   HT     0.417000        1.0080           0
   25281 WT1  7888 TIP3 H2   HT     0.417000        1.0080           0
   25282 WT1  7889 TIP3 OH2  OT    -0.834000       15.9994           0
   25283 WT1  7889 TIP3 H1   HT     0.417000        1.0080           0
   25284 WT1  7889 TIP3 H2   HT     0.417000        1.0080           0
   25285 WT1  7890 TIP3 OH2  OT    -0.834000       15.9994           0
   25286 WT1  7890 TIP3 H1   HT     0.417000        1.0080           0
   25287 WT1  7890 TIP3 H2   HT     0.417000        1.0080           0
   25288 WT1  7891 TIP3 OH2  OT    -0.834000       15.9994           0
   25289 WT1  7891 TIP3 H1   HT     0.417000        1.0080           0
   25290 WT1  7891 TIP3 H2   HT     0.417000        1.0080           0
   25291 WT1  7895 TIP3 OH2  OT    -0.834000       15.9994           0
   25292 WT1  7895 TIP3 H1   HT     0.417000        1.0080           0
   25293 WT1  7895 TIP3 H2   HT     0.417000        1.0080           0
   25294 WT1  7896 TIP3 OH2  OT    -0.834000       15.9994           0
   25295 WT1  7896 TIP3 H1   HT     0.417000        1.0080           0
   25296 WT1  7896 TIP3 H2   HT     0.417000        1.0080           0
   25297 WT1  7897 TIP3 OH2  OT    -0.834000       15.9994           0
   25298 WT1  7897 TIP3 H1   HT     0.417000        1.0080           0
   25299 WT1  7897 TIP3 H2   HT     0.417000        1.0080           0
   25300 WT1  7898 TIP3 OH2  OT    -0.834000       15.9994           0
   25301 WT1  7898 TIP3 H1   HT     0.417000        1.0080           0
   25302 WT1  7898 TIP3 H2   HT     0.417000        1.0080           0
   25303 WT1  7899 TIP3 OH2  OT    -0.834000       15.9994           0
   25304 WT1  7899 TIP3 H1   HT     0.417000        1.0080           0
   25305 WT1  7899 TIP3 H2   HT     0.417000        1.0080           0
   25306 WT1  7900 TIP3 OH2  OT    -0.834000       15.9994           0
   25307 WT1  7900 TIP3 H1   HT     0.417000        1.0080           0
   25308 WT1  7900 TIP3 H2   HT     0.417000        1.0080           0
   25309 WT1  7901 TIP3 OH2  OT    -0.834000       15.9994           0
   25310 WT1  7901 TIP3 H1   HT     0.417000        1.0080           0
   25311 WT1  7901 TIP3 H2   HT     0.417000        1.0080           0
   25312 WT1  7902 TIP3 OH2  OT    -0.834000       15.9994           0
   25313 WT1  7902 TIP3 H1   HT     0.417000        1.0080           0
   25314 WT1  7902 TIP3 H2   HT     0.417000        1.0080           0
   25315 WT1  7903 TIP3 OH2  OT    -0.834000       15.9994           0
   25316 WT1  7903 TIP3 H1   HT     0.417000        1.0080           0
   25317 WT1  7903 TIP3 H2   HT     0.417000        1.0080           0
   25318 WT1  7904 TIP3 OH2  OT    -0.834000       15.9994           0
   25319 WT1  7904 TIP3 H1   HT     0.417000        1.0080           0
   25320 WT1  7904 TIP3 H2   HT     0.417000        1.0080           0
   25321 WT1  7905 TIP3 OH2  OT    -0.834000       15.9994           0
   25322 WT1  7905 TIP3 H1   HT     0.417000        1.0080           0
   25323 WT1  7905 TIP3 H2   HT     0.417000        1.0080           0
   25324 WT1  7906 TIP3 OH2  OT    -0.834000       15.9994           0
   25325 WT1  7906 TIP3 H1   HT     0.417000        1.0080           0
   25326 WT1  7906 TIP3 H2   HT     0.417000        1.0080           0
   25327 WT1  7907 TIP3 OH2  OT    -0.834000       15.9994           0
   25328 WT1  7907 TIP3 H1   HT     0.417000        1.0080           0
   25329 WT1  7907 TIP3 H2   HT     0.417000        1.0080           0
   25330 WT1  7908 TIP3 OH2  OT    -0.834000       15.9994           0
   25331 WT1  7908 TIP3 H1   HT     0.417000        1.0080           0
   25332 WT1  7908 TIP3 H2   HT     0.417000        1.0080           0
   25333 WT1  7909 TIP3 OH2  OT    -0.834000       15.9994           0
   25334 WT1  7909 TIP3 H1   HT     0.417000        1.0080           0
   25335 WT1  7909 TIP3 H2   HT     0.417000        1.0080           0
   25336 WT1  7910 TIP3 OH2  OT    -0.834000       15.9994           0
   25337 WT1  7910 TIP3 H1   HT     0.417000        1.0080           0
   25338 WT1  7910 TIP3 H2   HT     0.417000        1.0080           0
   25339 WT1  7911 TIP3 OH2  OT    -0.834000       15.9994           0
   25340 WT1  7911 TIP3 H1   HT     0.417000        1.0080           0
   25341 WT1  7911 TIP3 H2   HT     0.417000        1.0080           0
   25342 WT1  7913 TIP3 OH2  OT    -0.834000       15.9994           0
   25343 WT1  7913 TIP3 H1   HT     0.417000        1.0080           0
   25344 WT1  7913 TIP3 H2   HT     0.417000        1.0080           0
   25345 WT1  7916 TIP3 OH2  OT    -0.834000       15.9994           0
   25346 WT1  7916 TIP3 H1   HT     0.417000        1.0080           0
   25347 WT1  7916 TIP3 H2   HT     0.417000        1.0080           0
   25348 WT1  7917 TIP3 OH2  OT    -0.834000       15.9994           0
   25349 WT1  7917 TIP3 H1   HT     0.417000        1.0080           0
   25350 WT1  7917 TIP3 H2   HT     0.417000        1.0080           0
   25351 WT1  7918 TIP3 OH2  OT    -0.834000       15.9994           0
   25352 WT1  7918 TIP3 H1   HT     0.417000        1.0080           0
   25353 WT1  7918 TIP3 H2   HT     0.417000        1.0080           0
   25354 WT1  7919 TIP3 OH2  OT    -0.834000       15.9994           0
   25355 WT1  7919 TIP3 H1   HT     0.417000        1.0080           0
   25356 WT1  7919 TIP3 H2   HT     0.417000        1.0080           0
   25357 WT1  7920 TIP3 OH2  OT    -0.834000       15.9994           0
   25358 WT1  7920 TIP3 H1   HT     0.417000        1.0080           0
   25359 WT1  7920 TIP3 H2   HT     0.417000        1.0080           0
   25360 WT1  7921 TIP3 OH2  OT    -0.834000       15.9994           0
   25361 WT1  7921 TIP3 H1   HT     0.417000        1.0080           0
   25362 WT1  7921 TIP3 H2   HT     0.417000        1.0080           0
   25363 WT1  7922 TIP3 OH2  OT    -0.834000       15.9994           0
   25364 WT1  7922 TIP3 H1   HT     0.417000        1.0080           0
   25365 WT1  7922 TIP3 H2   HT     0.417000        1.0080           0
   25366 WT1  7923 TIP3 OH2  OT    -0.834000       15.9994           0
   25367 WT1  7923 TIP3 H1   HT     0.417000        1.0080           0
   25368 WT1  7923 TIP3 H2   HT     0.417000        1.0080           0
   25369 WT1  7924 TIP3 OH2  OT    -0.834000       15.9994           0
   25370 WT1  7924 TIP3 H1   HT     0.417000        1.0080           0
   25371 WT1  7924 TIP3 H2   HT     0.417000        1.0080           0
   25372 WT1  7925 TIP3 OH2  OT    -0.834000       15.9994           0
   25373 WT1  7925 TIP3 H1   HT     0.417000        1.0080           0
   25374 WT1  7925 TIP3 H2   HT     0.417000        1.0080           0
   25375 WT1  7926 TIP3 OH2  OT    -0.834000       15.9994           0
   25376 WT1  7926 TIP3 H1   HT     0.417000        1.0080           0
   25377 WT1  7926 TIP3 H2   HT     0.417000        1.0080           0
   25378 WT1  7927 TIP3 OH2  OT    -0.834000       15.9994           0
   25379 WT1  7927 TIP3 H1   HT     0.417000        1.0080           0
   25380 WT1  7927 TIP3 H2   HT     0.417000        1.0080           0
   25381 WT1  7928 TIP3 OH2  OT    -0.834000       15.9994           0
   25382 WT1  7928 TIP3 H1   HT     0.417000        1.0080           0
   25383 WT1  7928 TIP3 H2   HT     0.417000        1.0080           0
   25384 WT1  7929 TIP3 OH2  OT    -0.834000       15.9994           0
   25385 WT1  7929 TIP3 H1   HT     0.417000        1.0080           0
   25386 WT1  7929 TIP3 H2   HT     0.417000        1.0080           0
   25387 WT1  7930 TIP3 OH2  OT    -0.834000       15.9994           0
   25388 WT1  7930 TIP3 H1   HT     0.417000        1.0080           0
   25389 WT1  7930 TIP3 H2   HT     0.417000        1.0080           0
   25390 WT1  7931 TIP3 OH2  OT    -0.834000       15.9994           0
   25391 WT1  7931 TIP3 H1   HT     0.417000        1.0080           0
   25392 WT1  7931 TIP3 H2   HT     0.417000        1.0080           0
   25393 WT1  7932 TIP3 OH2  OT    -0.834000       15.9994           0
   25394 WT1  7932 TIP3 H1   HT     0.417000        1.0080           0
   25395 WT1  7932 TIP3 H2   HT     0.417000        1.0080           0
   25396 WT1  7933 TIP3 OH2  OT    -0.834000       15.9994           0
   25397 WT1  7933 TIP3 H1   HT     0.417000        1.0080           0
   25398 WT1  7933 TIP3 H2   HT     0.417000        1.0080           0
   25399 WT1  7935 TIP3 OH2  OT    -0.834000       15.9994           0
   25400 WT1  7935 TIP3 H1   HT     0.417000        1.0080           0
   25401 WT1  7935 TIP3 H2   HT     0.417000        1.0080           0
   25402 WT1  7937 TIP3 OH2  OT    -0.834000       15.9994           0
   25403 WT1  7937 TIP3 H1   HT     0.417000        1.0080           0
   25404 WT1  7937 TIP3 H2   HT     0.417000        1.0080           0
   25405 WT1  7938 TIP3 OH2  OT    -0.834000       15.9994           0
   25406 WT1  7938 TIP3 H1   HT     0.417000        1.0080           0
   25407 WT1  7938 TIP3 H2   HT     0.417000        1.0080           0
   25408 WT1  7939 TIP3 OH2  OT    -0.834000       15.9994           0
   25409 WT1  7939 TIP3 H1   HT     0.417000        1.0080           0
   25410 WT1  7939 TIP3 H2   HT     0.417000        1.0080           0
   25411 WT1  7940 TIP3 OH2  OT    -0.834000       15.9994           0
   25412 WT1  7940 TIP3 H1   HT     0.417000        1.0080           0
   25413 WT1  7940 TIP3 H2   HT     0.417000        1.0080           0
   25414 WT1  7941 TIP3 OH2  OT    -0.834000       15.9994           0
   25415 WT1  7941 TIP3 H1   HT     0.417000        1.0080           0
   25416 WT1  7941 TIP3 H2   HT     0.417000        1.0080           0
   25417 WT1  7942 TIP3 OH2  OT    -0.834000       15.9994           0
   25418 WT1  7942 TIP3 H1   HT     0.417000        1.0080           0
   25419 WT1  7942 TIP3 H2   HT     0.417000        1.0080           0
   25420 WT1  7943 TIP3 OH2  OT    -0.834000       15.9994           0
   25421 WT1  7943 TIP3 H1   HT     0.417000        1.0080           0
   25422 WT1  7943 TIP3 H2   HT     0.417000        1.0080           0
   25423 WT1  7944 TIP3 OH2  OT    -0.834000       15.9994           0
   25424 WT1  7944 TIP3 H1   HT     0.417000        1.0080           0
   25425 WT1  7944 TIP3 H2   HT     0.417000        1.0080           0
   25426 WT1  7945 TIP3 OH2  OT    -0.834000       15.9994           0
   25427 WT1  7945 TIP3 H1   HT     0.417000        1.0080           0
   25428 WT1  7945 TIP3 H2   HT     0.417000        1.0080           0
   25429 WT1  7946 TIP3 OH2  OT    -0.834000       15.9994           0
   25430 WT1  7946 TIP3 H1   HT     0.417000        1.0080           0
   25431 WT1  7946 TIP3 H2   HT     0.417000        1.0080           0
   25432 WT1  7947 TIP3 OH2  OT    -0.834000       15.9994           0
   25433 WT1  7947 TIP3 H1   HT     0.417000        1.0080           0
   25434 WT1  7947 TIP3 H2   HT     0.417000        1.0080           0
   25435 WT1  7948 TIP3 OH2  OT    -0.834000       15.9994           0
   25436 WT1  7948 TIP3 H1   HT     0.417000        1.0080           0
   25437 WT1  7948 TIP3 H2   HT     0.417000        1.0080           0
   25438 WT1  7949 TIP3 OH2  OT    -0.834000       15.9994           0
   25439 WT1  7949 TIP3 H1   HT     0.417000        1.0080           0
   25440 WT1  7949 TIP3 H2   HT     0.417000        1.0080           0
   25441 WT1  7950 TIP3 OH2  OT    -0.834000       15.9994           0
   25442 WT1  7950 TIP3 H1   HT     0.417000        1.0080           0
   25443 WT1  7950 TIP3 H2   HT     0.417000        1.0080           0
   25444 WT1  7951 TIP3 OH2  OT    -0.834000       15.9994           0
   25445 WT1  7951 TIP3 H1   HT     0.417000        1.0080           0
   25446 WT1  7951 TIP3 H2   HT     0.417000        1.0080           0
   25447 WT1  7952 TIP3 OH2  OT    -0.834000       15.9994           0
   25448 WT1  7952 TIP3 H1   HT     0.417000        1.0080           0
   25449 WT1  7952 TIP3 H2   HT     0.417000        1.0080           0
   25450 WT1  7953 TIP3 OH2  OT    -0.834000       15.9994           0
   25451 WT1  7953 TIP3 H1   HT     0.417000        1.0080           0
   25452 WT1  7953 TIP3 H2   HT     0.417000        1.0080           0
   25453 WT1  7954 TIP3 OH2  OT    -0.834000       15.9994           0
   25454 WT1  7954 TIP3 H1   HT     0.417000        1.0080           0
   25455 WT1  7954 TIP3 H2   HT     0.417000        1.0080           0
   25456 WT1  7955 TIP3 OH2  OT    -0.834000       15.9994           0
   25457 WT1  7955 TIP3 H1   HT     0.417000        1.0080           0
   25458 WT1  7955 TIP3 H2   HT     0.417000        1.0080           0
   25459 WT1  7956 TIP3 OH2  OT    -0.834000       15.9994           0
   25460 WT1  7956 TIP3 H1   HT     0.417000        1.0080           0
   25461 WT1  7956 TIP3 H2   HT     0.417000        1.0080           0
   25462 WT1  7957 TIP3 OH2  OT    -0.834000       15.9994           0
   25463 WT1  7957 TIP3 H1   HT     0.417000        1.0080           0
   25464 WT1  7957 TIP3 H2   HT     0.417000        1.0080           0
   25465 WT1  7958 TIP3 OH2  OT    -0.834000       15.9994           0
   25466 WT1  7958 TIP3 H1   HT     0.417000        1.0080           0
   25467 WT1  7958 TIP3 H2   HT     0.417000        1.0080           0
   25468 WT1  7959 TIP3 OH2  OT    -0.834000       15.9994           0
   25469 WT1  7959 TIP3 H1   HT     0.417000        1.0080           0
   25470 WT1  7959 TIP3 H2   HT     0.417000        1.0080           0
   25471 WT1  7962 TIP3 OH2  OT    -0.834000       15.9994           0
   25472 WT1  7962 TIP3 H1   HT     0.417000        1.0080           0
   25473 WT1  7962 TIP3 H2   HT     0.417000        1.0080           0
   25474 WT1  7963 TIP3 OH2  OT    -0.834000       15.9994           0
   25475 WT1  7963 TIP3 H1   HT     0.417000        1.0080           0
   25476 WT1  7963 TIP3 H2   HT     0.417000        1.0080           0
   25477 WT1  7964 TIP3 OH2  OT    -0.834000       15.9994           0
   25478 WT1  7964 TIP3 H1   HT     0.417000        1.0080           0
   25479 WT1  7964 TIP3 H2   HT     0.417000        1.0080           0
   25480 WT1  7965 TIP3 OH2  OT    -0.834000       15.9994           0
   25481 WT1  7965 TIP3 H1   HT     0.417000        1.0080           0
   25482 WT1  7965 TIP3 H2   HT     0.417000        1.0080           0
   25483 WT1  7966 TIP3 OH2  OT    -0.834000       15.9994           0
   25484 WT1  7966 TIP3 H1   HT     0.417000        1.0080           0
   25485 WT1  7966 TIP3 H2   HT     0.417000        1.0080           0
   25486 WT1  7967 TIP3 OH2  OT    -0.834000       15.9994           0
   25487 WT1  7967 TIP3 H1   HT     0.417000        1.0080           0
   25488 WT1  7967 TIP3 H2   HT     0.417000        1.0080           0
   25489 WT1  7968 TIP3 OH2  OT    -0.834000       15.9994           0
   25490 WT1  7968 TIP3 H1   HT     0.417000        1.0080           0
   25491 WT1  7968 TIP3 H2   HT     0.417000        1.0080           0
   25492 WT1  7969 TIP3 OH2  OT    -0.834000       15.9994           0
   25493 WT1  7969 TIP3 H1   HT     0.417000        1.0080           0
   25494 WT1  7969 TIP3 H2   HT     0.417000        1.0080           0
   25495 WT1  7970 TIP3 OH2  OT    -0.834000       15.9994           0
   25496 WT1  7970 TIP3 H1   HT     0.417000        1.0080           0
   25497 WT1  7970 TIP3 H2   HT     0.417000        1.0080           0
   25498 WT1  7971 TIP3 OH2  OT    -0.834000       15.9994           0
   25499 WT1  7971 TIP3 H1   HT     0.417000        1.0080           0
   25500 WT1  7971 TIP3 H2   HT     0.417000        1.0080           0
   25501 WT1  7972 TIP3 OH2  OT    -0.834000       15.9994           0
   25502 WT1  7972 TIP3 H1   HT     0.417000        1.0080           0
   25503 WT1  7972 TIP3 H2   HT     0.417000        1.0080           0
   25504 WT1  7973 TIP3 OH2  OT    -0.834000       15.9994           0
   25505 WT1  7973 TIP3 H1   HT     0.417000        1.0080           0
   25506 WT1  7973 TIP3 H2   HT     0.417000        1.0080           0
   25507 WT1  7974 TIP3 OH2  OT    -0.834000       15.9994           0
   25508 WT1  7974 TIP3 H1   HT     0.417000        1.0080           0
   25509 WT1  7974 TIP3 H2   HT     0.417000        1.0080           0
   25510 WT1  7975 TIP3 OH2  OT    -0.834000       15.9994           0
   25511 WT1  7975 TIP3 H1   HT     0.417000        1.0080           0
   25512 WT1  7975 TIP3 H2   HT     0.417000        1.0080           0
   25513 WT1  7976 TIP3 OH2  OT    -0.834000       15.9994           0
   25514 WT1  7976 TIP3 H1   HT     0.417000        1.0080           0
   25515 WT1  7976 TIP3 H2   HT     0.417000        1.0080           0
   25516 WT1  7977 TIP3 OH2  OT    -0.834000       15.9994           0
   25517 WT1  7977 TIP3 H1   HT     0.417000        1.0080           0
   25518 WT1  7977 TIP3 H2   HT     0.417000        1.0080           0
   25519 WT1  7978 TIP3 OH2  OT    -0.834000       15.9994           0
   25520 WT1  7978 TIP3 H1   HT     0.417000        1.0080           0
   25521 WT1  7978 TIP3 H2   HT     0.417000        1.0080           0
   25522 WT1  7979 TIP3 OH2  OT    -0.834000       15.9994           0
   25523 WT1  7979 TIP3 H1   HT     0.417000        1.0080           0
   25524 WT1  7979 TIP3 H2   HT     0.417000        1.0080           0
   25525 WT1  7980 TIP3 OH2  OT    -0.834000       15.9994           0
   25526 WT1  7980 TIP3 H1   HT     0.417000        1.0080           0
   25527 WT1  7980 TIP3 H2   HT     0.417000        1.0080           0
   25528 WT1  7981 TIP3 OH2  OT    -0.834000       15.9994           0
   25529 WT1  7981 TIP3 H1   HT     0.417000        1.0080           0
   25530 WT1  7981 TIP3 H2   HT     0.417000        1.0080           0
   25531 WT1  7982 TIP3 OH2  OT    -0.834000       15.9994           0
   25532 WT1  7982 TIP3 H1   HT     0.417000        1.0080           0
   25533 WT1  7982 TIP3 H2   HT     0.417000        1.0080           0
   25534 WT1  7983 TIP3 OH2  OT    -0.834000       15.9994           0
   25535 WT1  7983 TIP3 H1   HT     0.417000        1.0080           0
   25536 WT1  7983 TIP3 H2   HT     0.417000        1.0080           0
   25537 WT1  7984 TIP3 OH2  OT    -0.834000       15.9994           0
   25538 WT1  7984 TIP3 H1   HT     0.417000        1.0080           0
   25539 WT1  7984 TIP3 H2   HT     0.417000        1.0080           0
   25540 WT1  7985 TIP3 OH2  OT    -0.834000       15.9994           0
   25541 WT1  7985 TIP3 H1   HT     0.417000        1.0080           0
   25542 WT1  7985 TIP3 H2   HT     0.417000        1.0080           0
   25543 WT1  7986 TIP3 OH2  OT    -0.834000       15.9994           0
   25544 WT1  7986 TIP3 H1   HT     0.417000        1.0080           0
   25545 WT1  7986 TIP3 H2   HT     0.417000        1.0080           0
   25546 WT1  7987 TIP3 OH2  OT    -0.834000       15.9994           0
   25547 WT1  7987 TIP3 H1   HT     0.417000        1.0080           0
   25548 WT1  7987 TIP3 H2   HT     0.417000        1.0080           0
   25549 WT1  7988 TIP3 OH2  OT    -0.834000       15.9994           0
   25550 WT1  7988 TIP3 H1   HT     0.417000        1.0080           0
   25551 WT1  7988 TIP3 H2   HT     0.417000        1.0080           0
   25552 WT1  7989 TIP3 OH2  OT    -0.834000       15.9994           0
   25553 WT1  7989 TIP3 H1   HT     0.417000        1.0080           0
   25554 WT1  7989 TIP3 H2   HT     0.417000        1.0080           0
   25555 WT1  7990 TIP3 OH2  OT    -0.834000       15.9994           0
   25556 WT1  7990 TIP3 H1   HT     0.417000        1.0080           0
   25557 WT1  7990 TIP3 H2   HT     0.417000        1.0080           0
   25558 WT1  7991 TIP3 OH2  OT    -0.834000       15.9994           0
   25559 WT1  7991 TIP3 H1   HT     0.417000        1.0080           0
   25560 WT1  7991 TIP3 H2   HT     0.417000        1.0080           0
   25561 WT1  7992 TIP3 OH2  OT    -0.834000       15.9994           0
   25562 WT1  7992 TIP3 H1   HT     0.417000        1.0080           0
   25563 WT1  7992 TIP3 H2   HT     0.417000        1.0080           0
   25564 WT1  7993 TIP3 OH2  OT    -0.834000       15.9994           0
   25565 WT1  7993 TIP3 H1   HT     0.417000        1.0080           0
   25566 WT1  7993 TIP3 H2   HT     0.417000        1.0080           0
   25567 WT1  7994 TIP3 OH2  OT    -0.834000       15.9994           0
   25568 WT1  7994 TIP3 H1   HT     0.417000        1.0080           0
   25569 WT1  7994 TIP3 H2   HT     0.417000        1.0080           0
   25570 WT1  7995 TIP3 OH2  OT    -0.834000       15.9994           0
   25571 WT1  7995 TIP3 H1   HT     0.417000        1.0080           0
   25572 WT1  7995 TIP3 H2   HT     0.417000        1.0080           0
   25573 WT1  7996 TIP3 OH2  OT    -0.834000       15.9994           0
   25574 WT1  7996 TIP3 H1   HT     0.417000        1.0080           0
   25575 WT1  7996 TIP3 H2   HT     0.417000        1.0080           0
   25576 WT1  7997 TIP3 OH2  OT    -0.834000       15.9994           0
   25577 WT1  7997 TIP3 H1   HT     0.417000        1.0080           0
   25578 WT1  7997 TIP3 H2   HT     0.417000        1.0080           0
   25579 WT1  7999 TIP3 OH2  OT    -0.834000       15.9994           0
   25580 WT1  7999 TIP3 H1   HT     0.417000        1.0080           0
   25581 WT1  7999 TIP3 H2   HT     0.417000        1.0080           0
   25582 WT1  8000 TIP3 OH2  OT    -0.834000       15.9994           0
   25583 WT1  8000 TIP3 H1   HT     0.417000        1.0080           0
   25584 WT1  8000 TIP3 H2   HT     0.417000        1.0080           0
   25585 WT1  8001 TIP3 OH2  OT    -0.834000       15.9994           0
   25586 WT1  8001 TIP3 H1   HT     0.417000        1.0080           0
   25587 WT1  8001 TIP3 H2   HT     0.417000        1.0080           0
   25588 WT1  8002 TIP3 OH2  OT    -0.834000       15.9994           0
   25589 WT1  8002 TIP3 H1   HT     0.417000        1.0080           0
   25590 WT1  8002 TIP3 H2   HT     0.417000        1.0080           0
   25591 WT1  8003 TIP3 OH2  OT    -0.834000       15.9994           0
   25592 WT1  8003 TIP3 H1   HT     0.417000        1.0080           0
   25593 WT1  8003 TIP3 H2   HT     0.417000        1.0080           0
   25594 WT1  8004 TIP3 OH2  OT    -0.834000       15.9994           0
   25595 WT1  8004 TIP3 H1   HT     0.417000        1.0080           0
   25596 WT1  8004 TIP3 H2   HT     0.417000        1.0080           0
   25597 WT1  8005 TIP3 OH2  OT    -0.834000       15.9994           0
   25598 WT1  8005 TIP3 H1   HT     0.417000        1.0080           0
   25599 WT1  8005 TIP3 H2   HT     0.417000        1.0080           0
   25600 WT1  8006 TIP3 OH2  OT    -0.834000       15.9994           0
   25601 WT1  8006 TIP3 H1   HT     0.417000        1.0080           0
   25602 WT1  8006 TIP3 H2   HT     0.417000        1.0080           0
   25603 WT1  8007 TIP3 OH2  OT    -0.834000       15.9994           0
   25604 WT1  8007 TIP3 H1   HT     0.417000        1.0080           0
   25605 WT1  8007 TIP3 H2   HT     0.417000        1.0080           0
   25606 WT1  8008 TIP3 OH2  OT    -0.834000       15.9994           0
   25607 WT1  8008 TIP3 H1   HT     0.417000        1.0080           0
   25608 WT1  8008 TIP3 H2   HT     0.417000        1.0080           0
   25609 WT1  8010 TIP3 OH2  OT    -0.834000       15.9994           0
   25610 WT1  8010 TIP3 H1   HT     0.417000        1.0080           0
   25611 WT1  8010 TIP3 H2   HT     0.417000        1.0080           0
   25612 WT1  8011 TIP3 OH2  OT    -0.834000       15.9994           0
   25613 WT1  8011 TIP3 H1   HT     0.417000        1.0080           0
   25614 WT1  8011 TIP3 H2   HT     0.417000        1.0080           0
   25615 WT1  8012 TIP3 OH2  OT    -0.834000       15.9994           0
   25616 WT1  8012 TIP3 H1   HT     0.417000        1.0080           0
   25617 WT1  8012 TIP3 H2   HT     0.417000        1.0080           0
   25618 WT1  8013 TIP3 OH2  OT    -0.834000       15.9994           0
   25619 WT1  8013 TIP3 H1   HT     0.417000        1.0080           0
   25620 WT1  8013 TIP3 H2   HT     0.417000        1.0080           0
   25621 WT1  8015 TIP3 OH2  OT    -0.834000       15.9994           0
   25622 WT1  8015 TIP3 H1   HT     0.417000        1.0080           0
   25623 WT1  8015 TIP3 H2   HT     0.417000        1.0080           0
   25624 WT1  8016 TIP3 OH2  OT    -0.834000       15.9994           0
   25625 WT1  8016 TIP3 H1   HT     0.417000        1.0080           0
   25626 WT1  8016 TIP3 H2   HT     0.417000        1.0080           0
   25627 WT1  8018 TIP3 OH2  OT    -0.834000       15.9994           0
   25628 WT1  8018 TIP3 H1   HT     0.417000        1.0080           0
   25629 WT1  8018 TIP3 H2   HT     0.417000        1.0080           0
   25630 WT1  8019 TIP3 OH2  OT    -0.834000       15.9994           0
   25631 WT1  8019 TIP3 H1   HT     0.417000        1.0080           0
   25632 WT1  8019 TIP3 H2   HT     0.417000        1.0080           0
   25633 WT1  8020 TIP3 OH2  OT    -0.834000       15.9994           0
   25634 WT1  8020 TIP3 H1   HT     0.417000        1.0080           0
   25635 WT1  8020 TIP3 H2   HT     0.417000        1.0080           0
   25636 WT1  8021 TIP3 OH2  OT    -0.834000       15.9994           0
   25637 WT1  8021 TIP3 H1   HT     0.417000        1.0080           0
   25638 WT1  8021 TIP3 H2   HT     0.417000        1.0080           0
   25639 WT1  8022 TIP3 OH2  OT    -0.834000       15.9994           0
   25640 WT1  8022 TIP3 H1   HT     0.417000        1.0080           0
   25641 WT1  8022 TIP3 H2   HT     0.417000        1.0080           0
   25642 WT1  8023 TIP3 OH2  OT    -0.834000       15.9994           0
   25643 WT1  8023 TIP3 H1   HT     0.417000        1.0080           0
   25644 WT1  8023 TIP3 H2   HT     0.417000        1.0080           0
   25645 WT1  8024 TIP3 OH2  OT    -0.834000       15.9994           0
   25646 WT1  8024 TIP3 H1   HT     0.417000        1.0080           0
   25647 WT1  8024 TIP3 H2   HT     0.417000        1.0080           0
   25648 WT1  8025 TIP3 OH2  OT    -0.834000       15.9994           0
   25649 WT1  8025 TIP3 H1   HT     0.417000        1.0080           0
   25650 WT1  8025 TIP3 H2   HT     0.417000        1.0080           0
   25651 WT1  8026 TIP3 OH2  OT    -0.834000       15.9994           0
   25652 WT1  8026 TIP3 H1   HT     0.417000        1.0080           0
   25653 WT1  8026 TIP3 H2   HT     0.417000        1.0080           0
   25654 WT1  8027 TIP3 OH2  OT    -0.834000       15.9994           0
   25655 WT1  8027 TIP3 H1   HT     0.417000        1.0080           0
   25656 WT1  8027 TIP3 H2   HT     0.417000        1.0080           0
   25657 WT1  8028 TIP3 OH2  OT    -0.834000       15.9994           0
   25658 WT1  8028 TIP3 H1   HT     0.417000        1.0080           0
   25659 WT1  8028 TIP3 H2   HT     0.417000        1.0080           0
   25660 WT1  8029 TIP3 OH2  OT    -0.834000       15.9994           0
   25661 WT1  8029 TIP3 H1   HT     0.417000        1.0080           0
   25662 WT1  8029 TIP3 H2   HT     0.417000        1.0080           0
   25663 WT1  8030 TIP3 OH2  OT    -0.834000       15.9994           0
   25664 WT1  8030 TIP3 H1   HT     0.417000        1.0080           0
   25665 WT1  8030 TIP3 H2   HT     0.417000        1.0080           0
   25666 WT1  8032 TIP3 OH2  OT    -0.834000       15.9994           0
   25667 WT1  8032 TIP3 H1   HT     0.417000        1.0080           0
   25668 WT1  8032 TIP3 H2   HT     0.417000        1.0080           0
   25669 WT1  8033 TIP3 OH2  OT    -0.834000       15.9994           0
   25670 WT1  8033 TIP3 H1   HT     0.417000        1.0080           0
   25671 WT1  8033 TIP3 H2   HT     0.417000        1.0080           0
   25672 WT1  8034 TIP3 OH2  OT    -0.834000       15.9994           0
   25673 WT1  8034 TIP3 H1   HT     0.417000        1.0080           0
   25674 WT1  8034 TIP3 H2   HT     0.417000        1.0080           0
   25675 WT1  8035 TIP3 OH2  OT    -0.834000       15.9994           0
   25676 WT1  8035 TIP3 H1   HT     0.417000        1.0080           0
   25677 WT1  8035 TIP3 H2   HT     0.417000        1.0080           0
   25678 WT1  8036 TIP3 OH2  OT    -0.834000       15.9994           0
   25679 WT1  8036 TIP3 H1   HT     0.417000        1.0080           0
   25680 WT1  8036 TIP3 H2   HT     0.417000        1.0080           0
   25681 WT1  8037 TIP3 OH2  OT    -0.834000       15.9994           0
   25682 WT1  8037 TIP3 H1   HT     0.417000        1.0080           0
   25683 WT1  8037 TIP3 H2   HT     0.417000        1.0080           0
   25684 WT1  8039 TIP3 OH2  OT    -0.834000       15.9994           0
   25685 WT1  8039 TIP3 H1   HT     0.417000        1.0080           0
   25686 WT1  8039 TIP3 H2   HT     0.417000        1.0080           0
   25687 WT1  8040 TIP3 OH2  OT    -0.834000       15.9994           0
   25688 WT1  8040 TIP3 H1   HT     0.417000        1.0080           0
   25689 WT1  8040 TIP3 H2   HT     0.417000        1.0080           0
   25690 WT1  8041 TIP3 OH2  OT    -0.834000       15.9994           0
   25691 WT1  8041 TIP3 H1   HT     0.417000        1.0080           0
   25692 WT1  8041 TIP3 H2   HT     0.417000        1.0080           0
   25693 WT1  8043 TIP3 OH2  OT    -0.834000       15.9994           0
   25694 WT1  8043 TIP3 H1   HT     0.417000        1.0080           0
   25695 WT1  8043 TIP3 H2   HT     0.417000        1.0080           0
   25696 WT1  8044 TIP3 OH2  OT    -0.834000       15.9994           0
   25697 WT1  8044 TIP3 H1   HT     0.417000        1.0080           0
   25698 WT1  8044 TIP3 H2   HT     0.417000        1.0080           0
   25699 WT1  8045 TIP3 OH2  OT    -0.834000       15.9994           0
   25700 WT1  8045 TIP3 H1   HT     0.417000        1.0080           0
   25701 WT1  8045 TIP3 H2   HT     0.417000        1.0080           0
   25702 WT1  8046 TIP3 OH2  OT    -0.834000       15.9994           0
   25703 WT1  8046 TIP3 H1   HT     0.417000        1.0080           0
   25704 WT1  8046 TIP3 H2   HT     0.417000        1.0080           0
   25705 WT1  8047 TIP3 OH2  OT    -0.834000       15.9994           0
   25706 WT1  8047 TIP3 H1   HT     0.417000        1.0080           0
   25707 WT1  8047 TIP3 H2   HT     0.417000        1.0080           0
   25708 WT1  8048 TIP3 OH2  OT    -0.834000       15.9994           0
   25709 WT1  8048 TIP3 H1   HT     0.417000        1.0080           0
   25710 WT1  8048 TIP3 H2   HT     0.417000        1.0080           0
   25711 WT1  8049 TIP3 OH2  OT    -0.834000       15.9994           0
   25712 WT1  8049 TIP3 H1   HT     0.417000        1.0080           0
   25713 WT1  8049 TIP3 H2   HT     0.417000        1.0080           0
   25714 WT1  8050 TIP3 OH2  OT    -0.834000       15.9994           0
   25715 WT1  8050 TIP3 H1   HT     0.417000        1.0080           0
   25716 WT1  8050 TIP3 H2   HT     0.417000        1.0080           0
   25717 WT1  8051 TIP3 OH2  OT    -0.834000       15.9994           0
   25718 WT1  8051 TIP3 H1   HT     0.417000        1.0080           0
   25719 WT1  8051 TIP3 H2   HT     0.417000        1.0080           0
   25720 WT1  8052 TIP3 OH2  OT    -0.834000       15.9994           0
   25721 WT1  8052 TIP3 H1   HT     0.417000        1.0080           0
   25722 WT1  8052 TIP3 H2   HT     0.417000        1.0080           0
   25723 WT1  8053 TIP3 OH2  OT    -0.834000       15.9994           0
   25724 WT1  8053 TIP3 H1   HT     0.417000        1.0080           0
   25725 WT1  8053 TIP3 H2   HT     0.417000        1.0080           0
   25726 WT1  8054 TIP3 OH2  OT    -0.834000       15.9994           0
   25727 WT1  8054 TIP3 H1   HT     0.417000        1.0080           0
   25728 WT1  8054 TIP3 H2   HT     0.417000        1.0080           0
   25729 WT1  8055 TIP3 OH2  OT    -0.834000       15.9994           0
   25730 WT1  8055 TIP3 H1   HT     0.417000        1.0080           0
   25731 WT1  8055 TIP3 H2   HT     0.417000        1.0080           0
   25732 WT1  8056 TIP3 OH2  OT    -0.834000       15.9994           0
   25733 WT1  8056 TIP3 H1   HT     0.417000        1.0080           0
   25734 WT1  8056 TIP3 H2   HT     0.417000        1.0080           0
   25735 WT1  8057 TIP3 OH2  OT    -0.834000       15.9994           0
   25736 WT1  8057 TIP3 H1   HT     0.417000        1.0080           0
   25737 WT1  8057 TIP3 H2   HT     0.417000        1.0080           0
   25738 WT1  8058 TIP3 OH2  OT    -0.834000       15.9994           0
   25739 WT1  8058 TIP3 H1   HT     0.417000        1.0080           0
   25740 WT1  8058 TIP3 H2   HT     0.417000        1.0080           0
   25741 WT1  8059 TIP3 OH2  OT    -0.834000       15.9994           0
   25742 WT1  8059 TIP3 H1   HT     0.417000        1.0080           0
   25743 WT1  8059 TIP3 H2   HT     0.417000        1.0080           0
   25744 WT1  8060 TIP3 OH2  OT    -0.834000       15.9994           0
   25745 WT1  8060 TIP3 H1   HT     0.417000        1.0080           0
   25746 WT1  8060 TIP3 H2   HT     0.417000        1.0080           0
   25747 WT1  8061 TIP3 OH2  OT    -0.834000       15.9994           0
   25748 WT1  8061 TIP3 H1   HT     0.417000        1.0080           0
   25749 WT1  8061 TIP3 H2   HT     0.417000        1.0080           0
   25750 WT1  8063 TIP3 OH2  OT    -0.834000       15.9994           0
   25751 WT1  8063 TIP3 H1   HT     0.417000        1.0080           0
   25752 WT1  8063 TIP3 H2   HT     0.417000        1.0080           0
   25753 WT1  8064 TIP3 OH2  OT    -0.834000       15.9994           0
   25754 WT1  8064 TIP3 H1   HT     0.417000        1.0080           0
   25755 WT1  8064 TIP3 H2   HT     0.417000        1.0080           0
   25756 WT1  8065 TIP3 OH2  OT    -0.834000       15.9994           0
   25757 WT1  8065 TIP3 H1   HT     0.417000        1.0080           0
   25758 WT1  8065 TIP3 H2   HT     0.417000        1.0080           0
   25759 WT1  8066 TIP3 OH2  OT    -0.834000       15.9994           0
   25760 WT1  8066 TIP3 H1   HT     0.417000        1.0080           0
   25761 WT1  8066 TIP3 H2   HT     0.417000        1.0080           0
   25762 WT1  8067 TIP3 OH2  OT    -0.834000       15.9994           0
   25763 WT1  8067 TIP3 H1   HT     0.417000        1.0080           0
   25764 WT1  8067 TIP3 H2   HT     0.417000        1.0080           0
   25765 WT1  8068 TIP3 OH2  OT    -0.834000       15.9994           0
   25766 WT1  8068 TIP3 H1   HT     0.417000        1.0080           0
   25767 WT1  8068 TIP3 H2   HT     0.417000        1.0080           0
   25768 WT1  8069 TIP3 OH2  OT    -0.834000       15.9994           0
   25769 WT1  8069 TIP3 H1   HT     0.417000        1.0080           0
   25770 WT1  8069 TIP3 H2   HT     0.417000        1.0080           0
   25771 WT1  8070 TIP3 OH2  OT    -0.834000       15.9994           0
   25772 WT1  8070 TIP3 H1   HT     0.417000        1.0080           0
   25773 WT1  8070 TIP3 H2   HT     0.417000        1.0080           0
   25774 WT1  8071 TIP3 OH2  OT    -0.834000       15.9994           0
   25775 WT1  8071 TIP3 H1   HT     0.417000        1.0080           0
   25776 WT1  8071 TIP3 H2   HT     0.417000        1.0080           0
   25777 WT1  8072 TIP3 OH2  OT    -0.834000       15.9994           0
   25778 WT1  8072 TIP3 H1   HT     0.417000        1.0080           0
   25779 WT1  8072 TIP3 H2   HT     0.417000        1.0080           0
   25780 WT1  8073 TIP3 OH2  OT    -0.834000       15.9994           0
   25781 WT1  8073 TIP3 H1   HT     0.417000        1.0080           0
   25782 WT1  8073 TIP3 H2   HT     0.417000        1.0080           0
   25783 WT1  8074 TIP3 OH2  OT    -0.834000       15.9994           0
   25784 WT1  8074 TIP3 H1   HT     0.417000        1.0080           0
   25785 WT1  8074 TIP3 H2   HT     0.417000        1.0080           0
   25786 WT1  8075 TIP3 OH2  OT    -0.834000       15.9994           0
   25787 WT1  8075 TIP3 H1   HT     0.417000        1.0080           0
   25788 WT1  8075 TIP3 H2   HT     0.417000        1.0080           0
   25789 WT1  8076 TIP3 OH2  OT    -0.834000       15.9994           0
   25790 WT1  8076 TIP3 H1   HT     0.417000        1.0080           0
   25791 WT1  8076 TIP3 H2   HT     0.417000        1.0080           0
   25792 WT1  8077 TIP3 OH2  OT    -0.834000       15.9994           0
   25793 WT1  8077 TIP3 H1   HT     0.417000        1.0080           0
   25794 WT1  8077 TIP3 H2   HT     0.417000        1.0080           0
   25795 WT1  8078 TIP3 OH2  OT    -0.834000       15.9994           0
   25796 WT1  8078 TIP3 H1   HT     0.417000        1.0080           0
   25797 WT1  8078 TIP3 H2   HT     0.417000        1.0080           0
   25798 WT1  8080 TIP3 OH2  OT    -0.834000       15.9994           0
   25799 WT1  8080 TIP3 H1   HT     0.417000        1.0080           0
   25800 WT1  8080 TIP3 H2   HT     0.417000        1.0080           0
   25801 WT1  8081 TIP3 OH2  OT    -0.834000       15.9994           0
   25802 WT1  8081 TIP3 H1   HT     0.417000        1.0080           0
   25803 WT1  8081 TIP3 H2   HT     0.417000        1.0080           0
   25804 WT1  8084 TIP3 OH2  OT    -0.834000       15.9994           0
   25805 WT1  8084 TIP3 H1   HT     0.417000        1.0080           0
   25806 WT1  8084 TIP3 H2   HT     0.417000        1.0080           0
   25807 WT1  8085 TIP3 OH2  OT    -0.834000       15.9994           0
   25808 WT1  8085 TIP3 H1   HT     0.417000        1.0080           0
   25809 WT1  8085 TIP3 H2   HT     0.417000        1.0080           0
   25810 WT1  8086 TIP3 OH2  OT    -0.834000       15.9994           0
   25811 WT1  8086 TIP3 H1   HT     0.417000        1.0080           0
   25812 WT1  8086 TIP3 H2   HT     0.417000        1.0080           0
   25813 WT1  8087 TIP3 OH2  OT    -0.834000       15.9994           0
   25814 WT1  8087 TIP3 H1   HT     0.417000        1.0080           0
   25815 WT1  8087 TIP3 H2   HT     0.417000        1.0080           0
   25816 WT1  8088 TIP3 OH2  OT    -0.834000       15.9994           0
   25817 WT1  8088 TIP3 H1   HT     0.417000        1.0080           0
   25818 WT1  8088 TIP3 H2   HT     0.417000        1.0080           0
   25819 WT1  8089 TIP3 OH2  OT    -0.834000       15.9994           0
   25820 WT1  8089 TIP3 H1   HT     0.417000        1.0080           0
   25821 WT1  8089 TIP3 H2   HT     0.417000        1.0080           0
   25822 WT1  8090 TIP3 OH2  OT    -0.834000       15.9994           0
   25823 WT1  8090 TIP3 H1   HT     0.417000        1.0080           0
   25824 WT1  8090 TIP3 H2   HT     0.417000        1.0080           0
   25825 WT1  8091 TIP3 OH2  OT    -0.834000       15.9994           0
   25826 WT1  8091 TIP3 H1   HT     0.417000        1.0080           0
   25827 WT1  8091 TIP3 H2   HT     0.417000        1.0080           0
   25828 WT1  8092 TIP3 OH2  OT    -0.834000       15.9994           0
   25829 WT1  8092 TIP3 H1   HT     0.417000        1.0080           0
   25830 WT1  8092 TIP3 H2   HT     0.417000        1.0080           0
   25831 WT1  8093 TIP3 OH2  OT    -0.834000       15.9994           0
   25832 WT1  8093 TIP3 H1   HT     0.417000        1.0080           0
   25833 WT1  8093 TIP3 H2   HT     0.417000        1.0080           0
   25834 WT1  8094 TIP3 OH2  OT    -0.834000       15.9994           0
   25835 WT1  8094 TIP3 H1   HT     0.417000        1.0080           0
   25836 WT1  8094 TIP3 H2   HT     0.417000        1.0080           0
   25837 WT1  8095 TIP3 OH2  OT    -0.834000       15.9994           0
   25838 WT1  8095 TIP3 H1   HT     0.417000        1.0080           0
   25839 WT1  8095 TIP3 H2   HT     0.417000        1.0080           0
   25840 WT1  8096 TIP3 OH2  OT    -0.834000       15.9994           0
   25841 WT1  8096 TIP3 H1   HT     0.417000        1.0080           0
   25842 WT1  8096 TIP3 H2   HT     0.417000        1.0080           0
   25843 WT1  8097 TIP3 OH2  OT    -0.834000       15.9994           0
   25844 WT1  8097 TIP3 H1   HT     0.417000        1.0080           0
   25845 WT1  8097 TIP3 H2   HT     0.417000        1.0080           0
   25846 WT1  8098 TIP3 OH2  OT    -0.834000       15.9994           0
   25847 WT1  8098 TIP3 H1   HT     0.417000        1.0080           0
   25848 WT1  8098 TIP3 H2   HT     0.417000        1.0080           0
   25849 WT1  8099 TIP3 OH2  OT    -0.834000       15.9994           0
   25850 WT1  8099 TIP3 H1   HT     0.417000        1.0080           0
   25851 WT1  8099 TIP3 H2   HT     0.417000        1.0080           0
   25852 WT1  8100 TIP3 OH2  OT    -0.834000       15.9994           0
   25853 WT1  8100 TIP3 H1   HT     0.417000        1.0080           0
   25854 WT1  8100 TIP3 H2   HT     0.417000        1.0080           0
   25855 WT1  8101 TIP3 OH2  OT    -0.834000       15.9994           0
   25856 WT1  8101 TIP3 H1   HT     0.417000        1.0080           0
   25857 WT1  8101 TIP3 H2   HT     0.417000        1.0080           0
   25858 WT1  8102 TIP3 OH2  OT    -0.834000       15.9994           0
   25859 WT1  8102 TIP3 H1   HT     0.417000        1.0080           0
   25860 WT1  8102 TIP3 H2   HT     0.417000        1.0080           0
   25861 WT1  8103 TIP3 OH2  OT    -0.834000       15.9994           0
   25862 WT1  8103 TIP3 H1   HT     0.417000        1.0080           0
   25863 WT1  8103 TIP3 H2   HT     0.417000        1.0080           0
   25864 WT1  8104 TIP3 OH2  OT    -0.834000       15.9994           0
   25865 WT1  8104 TIP3 H1   HT     0.417000        1.0080           0
   25866 WT1  8104 TIP3 H2   HT     0.417000        1.0080           0
   25867 WT1  8106 TIP3 OH2  OT    -0.834000       15.9994           0
   25868 WT1  8106 TIP3 H1   HT     0.417000        1.0080           0
   25869 WT1  8106 TIP3 H2   HT     0.417000        1.0080           0
   25870 WT1  8107 TIP3 OH2  OT    -0.834000       15.9994           0
   25871 WT1  8107 TIP3 H1   HT     0.417000        1.0080           0
   25872 WT1  8107 TIP3 H2   HT     0.417000        1.0080           0
   25873 WT1  8108 TIP3 OH2  OT    -0.834000       15.9994           0
   25874 WT1  8108 TIP3 H1   HT     0.417000        1.0080           0
   25875 WT1  8108 TIP3 H2   HT     0.417000        1.0080           0
   25876 WT1  8109 TIP3 OH2  OT    -0.834000       15.9994           0
   25877 WT1  8109 TIP3 H1   HT     0.417000        1.0080           0
   25878 WT1  8109 TIP3 H2   HT     0.417000        1.0080           0
   25879 WT1  8110 TIP3 OH2  OT    -0.834000       15.9994           0
   25880 WT1  8110 TIP3 H1   HT     0.417000        1.0080           0
   25881 WT1  8110 TIP3 H2   HT     0.417000        1.0080           0
   25882 WT1  8111 TIP3 OH2  OT    -0.834000       15.9994           0
   25883 WT1  8111 TIP3 H1   HT     0.417000        1.0080           0
   25884 WT1  8111 TIP3 H2   HT     0.417000        1.0080           0
   25885 WT1  8112 TIP3 OH2  OT    -0.834000       15.9994           0
   25886 WT1  8112 TIP3 H1   HT     0.417000        1.0080           0
   25887 WT1  8112 TIP3 H2   HT     0.417000        1.0080           0
   25888 WT1  8113 TIP3 OH2  OT    -0.834000       15.9994           0
   25889 WT1  8113 TIP3 H1   HT     0.417000        1.0080           0
   25890 WT1  8113 TIP3 H2   HT     0.417000        1.0080           0
   25891 WT1  8114 TIP3 OH2  OT    -0.834000       15.9994           0
   25892 WT1  8114 TIP3 H1   HT     0.417000        1.0080           0
   25893 WT1  8114 TIP3 H2   HT     0.417000        1.0080           0
   25894 WT1  8115 TIP3 OH2  OT    -0.834000       15.9994           0
   25895 WT1  8115 TIP3 H1   HT     0.417000        1.0080           0
   25896 WT1  8115 TIP3 H2   HT     0.417000        1.0080           0
   25897 WT1  8116 TIP3 OH2  OT    -0.834000       15.9994           0
   25898 WT1  8116 TIP3 H1   HT     0.417000        1.0080           0
   25899 WT1  8116 TIP3 H2   HT     0.417000        1.0080           0
   25900 WT1  8117 TIP3 OH2  OT    -0.834000       15.9994           0
   25901 WT1  8117 TIP3 H1   HT     0.417000        1.0080           0
   25902 WT1  8117 TIP3 H2   HT     0.417000        1.0080           0
   25903 WT1  8118 TIP3 OH2  OT    -0.834000       15.9994           0
   25904 WT1  8118 TIP3 H1   HT     0.417000        1.0080           0
   25905 WT1  8118 TIP3 H2   HT     0.417000        1.0080           0
   25906 WT1  8119 TIP3 OH2  OT    -0.834000       15.9994           0
   25907 WT1  8119 TIP3 H1   HT     0.417000        1.0080           0
   25908 WT1  8119 TIP3 H2   HT     0.417000        1.0080           0
   25909 WT1  8120 TIP3 OH2  OT    -0.834000       15.9994           0
   25910 WT1  8120 TIP3 H1   HT     0.417000        1.0080           0
   25911 WT1  8120 TIP3 H2   HT     0.417000        1.0080           0
   25912 WT1  8121 TIP3 OH2  OT    -0.834000       15.9994           0
   25913 WT1  8121 TIP3 H1   HT     0.417000        1.0080           0
   25914 WT1  8121 TIP3 H2   HT     0.417000        1.0080           0
   25915 WT1  8126 TIP3 OH2  OT    -0.834000       15.9994           0
   25916 WT1  8126 TIP3 H1   HT     0.417000        1.0080           0
   25917 WT1  8126 TIP3 H2   HT     0.417000        1.0080           0
   25918 WT1  8127 TIP3 OH2  OT    -0.834000       15.9994           0
   25919 WT1  8127 TIP3 H1   HT     0.417000        1.0080           0
   25920 WT1  8127 TIP3 H2   HT     0.417000        1.0080           0
   25921 WT1  8128 TIP3 OH2  OT    -0.834000       15.9994           0
   25922 WT1  8128 TIP3 H1   HT     0.417000        1.0080           0
   25923 WT1  8128 TIP3 H2   HT     0.417000        1.0080           0
   25924 WT1  8129 TIP3 OH2  OT    -0.834000       15.9994           0
   25925 WT1  8129 TIP3 H1   HT     0.417000        1.0080           0
   25926 WT1  8129 TIP3 H2   HT     0.417000        1.0080           0
   25927 WT1  8130 TIP3 OH2  OT    -0.834000       15.9994           0
   25928 WT1  8130 TIP3 H1   HT     0.417000        1.0080           0
   25929 WT1  8130 TIP3 H2   HT     0.417000        1.0080           0
   25930 WT1  8131 TIP3 OH2  OT    -0.834000       15.9994           0
   25931 WT1  8131 TIP3 H1   HT     0.417000        1.0080           0
   25932 WT1  8131 TIP3 H2   HT     0.417000        1.0080           0
   25933 WT1  8132 TIP3 OH2  OT    -0.834000       15.9994           0
   25934 WT1  8132 TIP3 H1   HT     0.417000        1.0080           0
   25935 WT1  8132 TIP3 H2   HT     0.417000        1.0080           0
   25936 WT1  8133 TIP3 OH2  OT    -0.834000       15.9994           0
   25937 WT1  8133 TIP3 H1   HT     0.417000        1.0080           0
   25938 WT1  8133 TIP3 H2   HT     0.417000        1.0080           0
   25939 WT1  8134 TIP3 OH2  OT    -0.834000       15.9994           0
   25940 WT1  8134 TIP3 H1   HT     0.417000        1.0080           0
   25941 WT1  8134 TIP3 H2   HT     0.417000        1.0080           0
   25942 WT1  8135 TIP3 OH2  OT    -0.834000       15.9994           0
   25943 WT1  8135 TIP3 H1   HT     0.417000        1.0080           0
   25944 WT1  8135 TIP3 H2   HT     0.417000        1.0080           0
   25945 WT1  8136 TIP3 OH2  OT    -0.834000       15.9994           0
   25946 WT1  8136 TIP3 H1   HT     0.417000        1.0080           0
   25947 WT1  8136 TIP3 H2   HT     0.417000        1.0080           0
   25948 WT1  8137 TIP3 OH2  OT    -0.834000       15.9994           0
   25949 WT1  8137 TIP3 H1   HT     0.417000        1.0080           0
   25950 WT1  8137 TIP3 H2   HT     0.417000        1.0080           0
   25951 WT1  8138 TIP3 OH2  OT    -0.834000       15.9994           0
   25952 WT1  8138 TIP3 H1   HT     0.417000        1.0080           0
   25953 WT1  8138 TIP3 H2   HT     0.417000        1.0080           0
   25954 WT1  8139 TIP3 OH2  OT    -0.834000       15.9994           0
   25955 WT1  8139 TIP3 H1   HT     0.417000        1.0080           0
   25956 WT1  8139 TIP3 H2   HT     0.417000        1.0080           0
   25957 WT1  8140 TIP3 OH2  OT    -0.834000       15.9994           0
   25958 WT1  8140 TIP3 H1   HT     0.417000        1.0080           0
   25959 WT1  8140 TIP3 H2   HT     0.417000        1.0080           0
   25960 WT1  8143 TIP3 OH2  OT    -0.834000       15.9994           0
   25961 WT1  8143 TIP3 H1   HT     0.417000        1.0080           0
   25962 WT1  8143 TIP3 H2   HT     0.417000        1.0080           0
   25963 WT1  8144 TIP3 OH2  OT    -0.834000       15.9994           0
   25964 WT1  8144 TIP3 H1   HT     0.417000        1.0080           0
   25965 WT1  8144 TIP3 H2   HT     0.417000        1.0080           0
   25966 WT1  8145 TIP3 OH2  OT    -0.834000       15.9994           0
   25967 WT1  8145 TIP3 H1   HT     0.417000        1.0080           0
   25968 WT1  8145 TIP3 H2   HT     0.417000        1.0080           0
   25969 WT1  8146 TIP3 OH2  OT    -0.834000       15.9994           0
   25970 WT1  8146 TIP3 H1   HT     0.417000        1.0080           0
   25971 WT1  8146 TIP3 H2   HT     0.417000        1.0080           0
   25972 WT1  8147 TIP3 OH2  OT    -0.834000       15.9994           0
   25973 WT1  8147 TIP3 H1   HT     0.417000        1.0080           0
   25974 WT1  8147 TIP3 H2   HT     0.417000        1.0080           0
   25975 WT1  8150 TIP3 OH2  OT    -0.834000       15.9994           0
   25976 WT1  8150 TIP3 H1   HT     0.417000        1.0080           0
   25977 WT1  8150 TIP3 H2   HT     0.417000        1.0080           0
   25978 WT1  8152 TIP3 OH2  OT    -0.834000       15.9994           0
   25979 WT1  8152 TIP3 H1   HT     0.417000        1.0080           0
   25980 WT1  8152 TIP3 H2   HT     0.417000        1.0080           0
   25981 WT1  8153 TIP3 OH2  OT    -0.834000       15.9994           0
   25982 WT1  8153 TIP3 H1   HT     0.417000        1.0080           0
   25983 WT1  8153 TIP3 H2   HT     0.417000        1.0080           0
   25984 WT1  8154 TIP3 OH2  OT    -0.834000       15.9994           0
   25985 WT1  8154 TIP3 H1   HT     0.417000        1.0080           0
   25986 WT1  8154 TIP3 H2   HT     0.417000        1.0080           0
   25987 WT1  8155 TIP3 OH2  OT    -0.834000       15.9994           0
   25988 WT1  8155 TIP3 H1   HT     0.417000        1.0080           0
   25989 WT1  8155 TIP3 H2   HT     0.417000        1.0080           0
   25990 WT1  8156 TIP3 OH2  OT    -0.834000       15.9994           0
   25991 WT1  8156 TIP3 H1   HT     0.417000        1.0080           0
   25992 WT1  8156 TIP3 H2   HT     0.417000        1.0080           0
   25993 WT1  8157 TIP3 OH2  OT    -0.834000       15.9994           0
   25994 WT1  8157 TIP3 H1   HT     0.417000        1.0080           0
   25995 WT1  8157 TIP3 H2   HT     0.417000        1.0080           0
   25996 WT1  8158 TIP3 OH2  OT    -0.834000       15.9994           0
   25997 WT1  8158 TIP3 H1   HT     0.417000        1.0080           0
   25998 WT1  8158 TIP3 H2   HT     0.417000        1.0080           0
   25999 WT1  8159 TIP3 OH2  OT    -0.834000       15.9994           0
   26000 WT1  8159 TIP3 H1   HT     0.417000        1.0080           0
   26001 WT1  8159 TIP3 H2   HT     0.417000        1.0080           0
   26002 WT1  8160 TIP3 OH2  OT    -0.834000       15.9994           0
   26003 WT1  8160 TIP3 H1   HT     0.417000        1.0080           0
   26004 WT1  8160 TIP3 H2   HT     0.417000        1.0080           0
   26005 WT1  8162 TIP3 OH2  OT    -0.834000       15.9994           0
   26006 WT1  8162 TIP3 H1   HT     0.417000        1.0080           0
   26007 WT1  8162 TIP3 H2   HT     0.417000        1.0080           0
   26008 WT1  8163 TIP3 OH2  OT    -0.834000       15.9994           0
   26009 WT1  8163 TIP3 H1   HT     0.417000        1.0080           0
   26010 WT1  8163 TIP3 H2   HT     0.417000        1.0080           0
   26011 WT1  8165 TIP3 OH2  OT    -0.834000       15.9994           0
   26012 WT1  8165 TIP3 H1   HT     0.417000        1.0080           0
   26013 WT1  8165 TIP3 H2   HT     0.417000        1.0080           0
   26014 WT1  8167 TIP3 OH2  OT    -0.834000       15.9994           0
   26015 WT1  8167 TIP3 H1   HT     0.417000        1.0080           0
   26016 WT1  8167 TIP3 H2   HT     0.417000        1.0080           0
   26017 WT1  8169 TIP3 OH2  OT    -0.834000       15.9994           0
   26018 WT1  8169 TIP3 H1   HT     0.417000        1.0080           0
   26019 WT1  8169 TIP3 H2   HT     0.417000        1.0080           0
   26020 WT1  8170 TIP3 OH2  OT    -0.834000       15.9994           0
   26021 WT1  8170 TIP3 H1   HT     0.417000        1.0080           0
   26022 WT1  8170 TIP3 H2   HT     0.417000        1.0080           0
   26023 WT1  8171 TIP3 OH2  OT    -0.834000       15.9994           0
   26024 WT1  8171 TIP3 H1   HT     0.417000        1.0080           0
   26025 WT1  8171 TIP3 H2   HT     0.417000        1.0080           0
   26026 WT1  8172 TIP3 OH2  OT    -0.834000       15.9994           0
   26027 WT1  8172 TIP3 H1   HT     0.417000        1.0080           0
   26028 WT1  8172 TIP3 H2   HT     0.417000        1.0080           0
   26029 WT1  8173 TIP3 OH2  OT    -0.834000       15.9994           0
   26030 WT1  8173 TIP3 H1   HT     0.417000        1.0080           0
   26031 WT1  8173 TIP3 H2   HT     0.417000        1.0080           0
   26032 WT1  8174 TIP3 OH2  OT    -0.834000       15.9994           0
   26033 WT1  8174 TIP3 H1   HT     0.417000        1.0080           0
   26034 WT1  8174 TIP3 H2   HT     0.417000        1.0080           0
   26035 WT1  8175 TIP3 OH2  OT    -0.834000       15.9994           0
   26036 WT1  8175 TIP3 H1   HT     0.417000        1.0080           0
   26037 WT1  8175 TIP3 H2   HT     0.417000        1.0080           0
   26038 WT1  8176 TIP3 OH2  OT    -0.834000       15.9994           0
   26039 WT1  8176 TIP3 H1   HT     0.417000        1.0080           0
   26040 WT1  8176 TIP3 H2   HT     0.417000        1.0080           0
   26041 WT1  8177 TIP3 OH2  OT    -0.834000       15.9994           0
   26042 WT1  8177 TIP3 H1   HT     0.417000        1.0080           0
   26043 WT1  8177 TIP3 H2   HT     0.417000        1.0080           0
   26044 WT1  8178 TIP3 OH2  OT    -0.834000       15.9994           0
   26045 WT1  8178 TIP3 H1   HT     0.417000        1.0080           0
   26046 WT1  8178 TIP3 H2   HT     0.417000        1.0080           0
   26047 WT1  8179 TIP3 OH2  OT    -0.834000       15.9994           0
   26048 WT1  8179 TIP3 H1   HT     0.417000        1.0080           0
   26049 WT1  8179 TIP3 H2   HT     0.417000        1.0080           0
   26050 WT1  8180 TIP3 OH2  OT    -0.834000       15.9994           0
   26051 WT1  8180 TIP3 H1   HT     0.417000        1.0080           0
   26052 WT1  8180 TIP3 H2   HT     0.417000        1.0080           0
   26053 WT1  8181 TIP3 OH2  OT    -0.834000       15.9994           0
   26054 WT1  8181 TIP3 H1   HT     0.417000        1.0080           0
   26055 WT1  8181 TIP3 H2   HT     0.417000        1.0080           0
   26056 WT1  8182 TIP3 OH2  OT    -0.834000       15.9994           0
   26057 WT1  8182 TIP3 H1   HT     0.417000        1.0080           0
   26058 WT1  8182 TIP3 H2   HT     0.417000        1.0080           0
   26059 WT1  8184 TIP3 OH2  OT    -0.834000       15.9994           0
   26060 WT1  8184 TIP3 H1   HT     0.417000        1.0080           0
   26061 WT1  8184 TIP3 H2   HT     0.417000        1.0080           0
   26062 WT1  8185 TIP3 OH2  OT    -0.834000       15.9994           0
   26063 WT1  8185 TIP3 H1   HT     0.417000        1.0080           0
   26064 WT1  8185 TIP3 H2   HT     0.417000        1.0080           0
   26065 WT1  8186 TIP3 OH2  OT    -0.834000       15.9994           0
   26066 WT1  8186 TIP3 H1   HT     0.417000        1.0080           0
   26067 WT1  8186 TIP3 H2   HT     0.417000        1.0080           0
   26068 WT1  8187 TIP3 OH2  OT    -0.834000       15.9994           0
   26069 WT1  8187 TIP3 H1   HT     0.417000        1.0080           0
   26070 WT1  8187 TIP3 H2   HT     0.417000        1.0080           0
   26071 WT1  8188 TIP3 OH2  OT    -0.834000       15.9994           0
   26072 WT1  8188 TIP3 H1   HT     0.417000        1.0080           0
   26073 WT1  8188 TIP3 H2   HT     0.417000        1.0080           0
   26074 WT1  8189 TIP3 OH2  OT    -0.834000       15.9994           0
   26075 WT1  8189 TIP3 H1   HT     0.417000        1.0080           0
   26076 WT1  8189 TIP3 H2   HT     0.417000        1.0080           0
   26077 WT1  8190 TIP3 OH2  OT    -0.834000       15.9994           0
   26078 WT1  8190 TIP3 H1   HT     0.417000        1.0080           0
   26079 WT1  8190 TIP3 H2   HT     0.417000        1.0080           0
   26080 WT1  8192 TIP3 OH2  OT    -0.834000       15.9994           0
   26081 WT1  8192 TIP3 H1   HT     0.417000        1.0080           0
   26082 WT1  8192 TIP3 H2   HT     0.417000        1.0080           0
   26083 WT1  8193 TIP3 OH2  OT    -0.834000       15.9994           0
   26084 WT1  8193 TIP3 H1   HT     0.417000        1.0080           0
   26085 WT1  8193 TIP3 H2   HT     0.417000        1.0080           0
   26086 WT1  8194 TIP3 OH2  OT    -0.834000       15.9994           0
   26087 WT1  8194 TIP3 H1   HT     0.417000        1.0080           0
   26088 WT1  8194 TIP3 H2   HT     0.417000        1.0080           0
   26089 WT1  8195 TIP3 OH2  OT    -0.834000       15.9994           0
   26090 WT1  8195 TIP3 H1   HT     0.417000        1.0080           0
   26091 WT1  8195 TIP3 H2   HT     0.417000        1.0080           0
   26092 WT1  8196 TIP3 OH2  OT    -0.834000       15.9994           0
   26093 WT1  8196 TIP3 H1   HT     0.417000        1.0080           0
   26094 WT1  8196 TIP3 H2   HT     0.417000        1.0080           0
   26095 WT1  8197 TIP3 OH2  OT    -0.834000       15.9994           0
   26096 WT1  8197 TIP3 H1   HT     0.417000        1.0080           0
   26097 WT1  8197 TIP3 H2   HT     0.417000        1.0080           0
   26098 WT1  8198 TIP3 OH2  OT    -0.834000       15.9994           0
   26099 WT1  8198 TIP3 H1   HT     0.417000        1.0080           0
   26100 WT1  8198 TIP3 H2   HT     0.417000        1.0080           0
   26101 WT1  8199 TIP3 OH2  OT    -0.834000       15.9994           0
   26102 WT1  8199 TIP3 H1   HT     0.417000        1.0080           0
   26103 WT1  8199 TIP3 H2   HT     0.417000        1.0080           0
   26104 WT1  8200 TIP3 OH2  OT    -0.834000       15.9994           0
   26105 WT1  8200 TIP3 H1   HT     0.417000        1.0080           0
   26106 WT1  8200 TIP3 H2   HT     0.417000        1.0080           0
   26107 WT1  8201 TIP3 OH2  OT    -0.834000       15.9994           0
   26108 WT1  8201 TIP3 H1   HT     0.417000        1.0080           0
   26109 WT1  8201 TIP3 H2   HT     0.417000        1.0080           0
   26110 WT1  8202 TIP3 OH2  OT    -0.834000       15.9994           0
   26111 WT1  8202 TIP3 H1   HT     0.417000        1.0080           0
   26112 WT1  8202 TIP3 H2   HT     0.417000        1.0080           0
   26113 WT1  8203 TIP3 OH2  OT    -0.834000       15.9994           0
   26114 WT1  8203 TIP3 H1   HT     0.417000        1.0080           0
   26115 WT1  8203 TIP3 H2   HT     0.417000        1.0080           0
   26116 WT1  8204 TIP3 OH2  OT    -0.834000       15.9994           0
   26117 WT1  8204 TIP3 H1   HT     0.417000        1.0080           0
   26118 WT1  8204 TIP3 H2   HT     0.417000        1.0080           0
   26119 WT1  8205 TIP3 OH2  OT    -0.834000       15.9994           0
   26120 WT1  8205 TIP3 H1   HT     0.417000        1.0080           0
   26121 WT1  8205 TIP3 H2   HT     0.417000        1.0080           0
   26122 WT1  8206 TIP3 OH2  OT    -0.834000       15.9994           0
   26123 WT1  8206 TIP3 H1   HT     0.417000        1.0080           0
   26124 WT1  8206 TIP3 H2   HT     0.417000        1.0080           0
   26125 WT1  8207 TIP3 OH2  OT    -0.834000       15.9994           0
   26126 WT1  8207 TIP3 H1   HT     0.417000        1.0080           0
   26127 WT1  8207 TIP3 H2   HT     0.417000        1.0080           0
   26128 WT1  8208 TIP3 OH2  OT    -0.834000       15.9994           0
   26129 WT1  8208 TIP3 H1   HT     0.417000        1.0080           0
   26130 WT1  8208 TIP3 H2   HT     0.417000        1.0080           0
   26131 WT1  8210 TIP3 OH2  OT    -0.834000       15.9994           0
   26132 WT1  8210 TIP3 H1   HT     0.417000        1.0080           0
   26133 WT1  8210 TIP3 H2   HT     0.417000        1.0080           0
   26134 WT1  8211 TIP3 OH2  OT    -0.834000       15.9994           0
   26135 WT1  8211 TIP3 H1   HT     0.417000        1.0080           0
   26136 WT1  8211 TIP3 H2   HT     0.417000        1.0080           0
   26137 WT1  8212 TIP3 OH2  OT    -0.834000       15.9994           0
   26138 WT1  8212 TIP3 H1   HT     0.417000        1.0080           0
   26139 WT1  8212 TIP3 H2   HT     0.417000        1.0080           0
   26140 WT1  8213 TIP3 OH2  OT    -0.834000       15.9994           0
   26141 WT1  8213 TIP3 H1   HT     0.417000        1.0080           0
   26142 WT1  8213 TIP3 H2   HT     0.417000        1.0080           0
   26143 WT1  8214 TIP3 OH2  OT    -0.834000       15.9994           0
   26144 WT1  8214 TIP3 H1   HT     0.417000        1.0080           0
   26145 WT1  8214 TIP3 H2   HT     0.417000        1.0080           0
   26146 WT1  8215 TIP3 OH2  OT    -0.834000       15.9994           0
   26147 WT1  8215 TIP3 H1   HT     0.417000        1.0080           0
   26148 WT1  8215 TIP3 H2   HT     0.417000        1.0080           0
   26149 WT1  8216 TIP3 OH2  OT    -0.834000       15.9994           0
   26150 WT1  8216 TIP3 H1   HT     0.417000        1.0080           0
   26151 WT1  8216 TIP3 H2   HT     0.417000        1.0080           0
   26152 WT1  8217 TIP3 OH2  OT    -0.834000       15.9994           0
   26153 WT1  8217 TIP3 H1   HT     0.417000        1.0080           0
   26154 WT1  8217 TIP3 H2   HT     0.417000        1.0080           0
   26155 WT1  8218 TIP3 OH2  OT    -0.834000       15.9994           0
   26156 WT1  8218 TIP3 H1   HT     0.417000        1.0080           0
   26157 WT1  8218 TIP3 H2   HT     0.417000        1.0080           0
   26158 WT1  8219 TIP3 OH2  OT    -0.834000       15.9994           0
   26159 WT1  8219 TIP3 H1   HT     0.417000        1.0080           0
   26160 WT1  8219 TIP3 H2   HT     0.417000        1.0080           0
   26161 WT1  8220 TIP3 OH2  OT    -0.834000       15.9994           0
   26162 WT1  8220 TIP3 H1   HT     0.417000        1.0080           0
   26163 WT1  8220 TIP3 H2   HT     0.417000        1.0080           0
   26164 WT1  8221 TIP3 OH2  OT    -0.834000       15.9994           0
   26165 WT1  8221 TIP3 H1   HT     0.417000        1.0080           0
   26166 WT1  8221 TIP3 H2   HT     0.417000        1.0080           0
   26167 WT1  8222 TIP3 OH2  OT    -0.834000       15.9994           0
   26168 WT1  8222 TIP3 H1   HT     0.417000        1.0080           0
   26169 WT1  8222 TIP3 H2   HT     0.417000        1.0080           0
   26170 WT1  8223 TIP3 OH2  OT    -0.834000       15.9994           0
   26171 WT1  8223 TIP3 H1   HT     0.417000        1.0080           0
   26172 WT1  8223 TIP3 H2   HT     0.417000        1.0080           0
   26173 WT1  8224 TIP3 OH2  OT    -0.834000       15.9994           0
   26174 WT1  8224 TIP3 H1   HT     0.417000        1.0080           0
   26175 WT1  8224 TIP3 H2   HT     0.417000        1.0080           0
   26176 WT1  8225 TIP3 OH2  OT    -0.834000       15.9994           0
   26177 WT1  8225 TIP3 H1   HT     0.417000        1.0080           0
   26178 WT1  8225 TIP3 H2   HT     0.417000        1.0080           0
   26179 WT1  8226 TIP3 OH2  OT    -0.834000       15.9994           0
   26180 WT1  8226 TIP3 H1   HT     0.417000        1.0080           0
   26181 WT1  8226 TIP3 H2   HT     0.417000        1.0080           0
   26182 WT1  8227 TIP3 OH2  OT    -0.834000       15.9994           0
   26183 WT1  8227 TIP3 H1   HT     0.417000        1.0080           0
   26184 WT1  8227 TIP3 H2   HT     0.417000        1.0080           0
   26185 WT1  8228 TIP3 OH2  OT    -0.834000       15.9994           0
   26186 WT1  8228 TIP3 H1   HT     0.417000        1.0080           0
   26187 WT1  8228 TIP3 H2   HT     0.417000        1.0080           0
   26188 WT1  8229 TIP3 OH2  OT    -0.834000       15.9994           0
   26189 WT1  8229 TIP3 H1   HT     0.417000        1.0080           0
   26190 WT1  8229 TIP3 H2   HT     0.417000        1.0080           0
   26191 WT1  8231 TIP3 OH2  OT    -0.834000       15.9994           0
   26192 WT1  8231 TIP3 H1   HT     0.417000        1.0080           0
   26193 WT1  8231 TIP3 H2   HT     0.417000        1.0080           0
   26194 WT1  8232 TIP3 OH2  OT    -0.834000       15.9994           0
   26195 WT1  8232 TIP3 H1   HT     0.417000        1.0080           0
   26196 WT1  8232 TIP3 H2   HT     0.417000        1.0080           0
   26197 WT1  8233 TIP3 OH2  OT    -0.834000       15.9994           0
   26198 WT1  8233 TIP3 H1   HT     0.417000        1.0080           0
   26199 WT1  8233 TIP3 H2   HT     0.417000        1.0080           0
   26200 WT1  8234 TIP3 OH2  OT    -0.834000       15.9994           0
   26201 WT1  8234 TIP3 H1   HT     0.417000        1.0080           0
   26202 WT1  8234 TIP3 H2   HT     0.417000        1.0080           0
   26203 WT1  8235 TIP3 OH2  OT    -0.834000       15.9994           0
   26204 WT1  8235 TIP3 H1   HT     0.417000        1.0080           0
   26205 WT1  8235 TIP3 H2   HT     0.417000        1.0080           0
   26206 WT1  8236 TIP3 OH2  OT    -0.834000       15.9994           0
   26207 WT1  8236 TIP3 H1   HT     0.417000        1.0080           0
   26208 WT1  8236 TIP3 H2   HT     0.417000        1.0080           0
   26209 WT1  8238 TIP3 OH2  OT    -0.834000       15.9994           0
   26210 WT1  8238 TIP3 H1   HT     0.417000        1.0080           0
   26211 WT1  8238 TIP3 H2   HT     0.417000        1.0080           0
   26212 WT1  8239 TIP3 OH2  OT    -0.834000       15.9994           0
   26213 WT1  8239 TIP3 H1   HT     0.417000        1.0080           0
   26214 WT1  8239 TIP3 H2   HT     0.417000        1.0080           0
   26215 WT1  8240 TIP3 OH2  OT    -0.834000       15.9994           0
   26216 WT1  8240 TIP3 H1   HT     0.417000        1.0080           0
   26217 WT1  8240 TIP3 H2   HT     0.417000        1.0080           0
   26218 WT1  8241 TIP3 OH2  OT    -0.834000       15.9994           0
   26219 WT1  8241 TIP3 H1   HT     0.417000        1.0080           0
   26220 WT1  8241 TIP3 H2   HT     0.417000        1.0080           0
   26221 WT1  8242 TIP3 OH2  OT    -0.834000       15.9994           0
   26222 WT1  8242 TIP3 H1   HT     0.417000        1.0080           0
   26223 WT1  8242 TIP3 H2   HT     0.417000        1.0080           0
   26224 WT1  8243 TIP3 OH2  OT    -0.834000       15.9994           0
   26225 WT1  8243 TIP3 H1   HT     0.417000        1.0080           0
   26226 WT1  8243 TIP3 H2   HT     0.417000        1.0080           0
   26227 WT1  8244 TIP3 OH2  OT    -0.834000       15.9994           0
   26228 WT1  8244 TIP3 H1   HT     0.417000        1.0080           0
   26229 WT1  8244 TIP3 H2   HT     0.417000        1.0080           0
   26230 WT1  8245 TIP3 OH2  OT    -0.834000       15.9994           0
   26231 WT1  8245 TIP3 H1   HT     0.417000        1.0080           0
   26232 WT1  8245 TIP3 H2   HT     0.417000        1.0080           0
   26233 WT1  8246 TIP3 OH2  OT    -0.834000       15.9994           0
   26234 WT1  8246 TIP3 H1   HT     0.417000        1.0080           0
   26235 WT1  8246 TIP3 H2   HT     0.417000        1.0080           0
   26236 WT1  8247 TIP3 OH2  OT    -0.834000       15.9994           0
   26237 WT1  8247 TIP3 H1   HT     0.417000        1.0080           0
   26238 WT1  8247 TIP3 H2   HT     0.417000        1.0080           0
   26239 WT1  8248 TIP3 OH2  OT    -0.834000       15.9994           0
   26240 WT1  8248 TIP3 H1   HT     0.417000        1.0080           0
   26241 WT1  8248 TIP3 H2   HT     0.417000        1.0080           0
   26242 WT1  8250 TIP3 OH2  OT    -0.834000       15.9994           0
   26243 WT1  8250 TIP3 H1   HT     0.417000        1.0080           0
   26244 WT1  8250 TIP3 H2   HT     0.417000        1.0080           0
   26245 WT1  8251 TIP3 OH2  OT    -0.834000       15.9994           0
   26246 WT1  8251 TIP3 H1   HT     0.417000        1.0080           0
   26247 WT1  8251 TIP3 H2   HT     0.417000        1.0080           0
   26248 WT1  8252 TIP3 OH2  OT    -0.834000       15.9994           0
   26249 WT1  8252 TIP3 H1   HT     0.417000        1.0080           0
   26250 WT1  8252 TIP3 H2   HT     0.417000        1.0080           0
   26251 WT1  8253 TIP3 OH2  OT    -0.834000       15.9994           0
   26252 WT1  8253 TIP3 H1   HT     0.417000        1.0080           0
   26253 WT1  8253 TIP3 H2   HT     0.417000        1.0080           0
   26254 WT1  8254 TIP3 OH2  OT    -0.834000       15.9994           0
   26255 WT1  8254 TIP3 H1   HT     0.417000        1.0080           0
   26256 WT1  8254 TIP3 H2   HT     0.417000        1.0080           0
   26257 WT1  8255 TIP3 OH2  OT    -0.834000       15.9994           0
   26258 WT1  8255 TIP3 H1   HT     0.417000        1.0080           0
   26259 WT1  8255 TIP3 H2   HT     0.417000        1.0080           0
   26260 WT1  8256 TIP3 OH2  OT    -0.834000       15.9994           0
   26261 WT1  8256 TIP3 H1   HT     0.417000        1.0080           0
   26262 WT1  8256 TIP3 H2   HT     0.417000        1.0080           0
   26263 WT1  8257 TIP3 OH2  OT    -0.834000       15.9994           0
   26264 WT1  8257 TIP3 H1   HT     0.417000        1.0080           0
   26265 WT1  8257 TIP3 H2   HT     0.417000        1.0080           0
   26266 WT1  8258 TIP3 OH2  OT    -0.834000       15.9994           0
   26267 WT1  8258 TIP3 H1   HT     0.417000        1.0080           0
   26268 WT1  8258 TIP3 H2   HT     0.417000        1.0080           0
   26269 WT1  8259 TIP3 OH2  OT    -0.834000       15.9994           0
   26270 WT1  8259 TIP3 H1   HT     0.417000        1.0080           0
   26271 WT1  8259 TIP3 H2   HT     0.417000        1.0080           0
   26272 WT1  8260 TIP3 OH2  OT    -0.834000       15.9994           0
   26273 WT1  8260 TIP3 H1   HT     0.417000        1.0080           0
   26274 WT1  8260 TIP3 H2   HT     0.417000        1.0080           0
   26275 WT1  8261 TIP3 OH2  OT    -0.834000       15.9994           0
   26276 WT1  8261 TIP3 H1   HT     0.417000        1.0080           0
   26277 WT1  8261 TIP3 H2   HT     0.417000        1.0080           0
   26278 WT1  8262 TIP3 OH2  OT    -0.834000       15.9994           0
   26279 WT1  8262 TIP3 H1   HT     0.417000        1.0080           0
   26280 WT1  8262 TIP3 H2   HT     0.417000        1.0080           0
   26281 WT1  8263 TIP3 OH2  OT    -0.834000       15.9994           0
   26282 WT1  8263 TIP3 H1   HT     0.417000        1.0080           0
   26283 WT1  8263 TIP3 H2   HT     0.417000        1.0080           0
   26284 WT1  8264 TIP3 OH2  OT    -0.834000       15.9994           0
   26285 WT1  8264 TIP3 H1   HT     0.417000        1.0080           0
   26286 WT1  8264 TIP3 H2   HT     0.417000        1.0080           0
   26287 WT1  8265 TIP3 OH2  OT    -0.834000       15.9994           0
   26288 WT1  8265 TIP3 H1   HT     0.417000        1.0080           0
   26289 WT1  8265 TIP3 H2   HT     0.417000        1.0080           0
   26290 WT1  8266 TIP3 OH2  OT    -0.834000       15.9994           0
   26291 WT1  8266 TIP3 H1   HT     0.417000        1.0080           0
   26292 WT1  8266 TIP3 H2   HT     0.417000        1.0080           0
   26293 WT1  8267 TIP3 OH2  OT    -0.834000       15.9994           0
   26294 WT1  8267 TIP3 H1   HT     0.417000        1.0080           0
   26295 WT1  8267 TIP3 H2   HT     0.417000        1.0080           0
   26296 WT1  8268 TIP3 OH2  OT    -0.834000       15.9994           0
   26297 WT1  8268 TIP3 H1   HT     0.417000        1.0080           0
   26298 WT1  8268 TIP3 H2   HT     0.417000        1.0080           0
   26299 WT1  8271 TIP3 OH2  OT    -0.834000       15.9994           0
   26300 WT1  8271 TIP3 H1   HT     0.417000        1.0080           0
   26301 WT1  8271 TIP3 H2   HT     0.417000        1.0080           0
   26302 WT1  8272 TIP3 OH2  OT    -0.834000       15.9994           0
   26303 WT1  8272 TIP3 H1   HT     0.417000        1.0080           0
   26304 WT1  8272 TIP3 H2   HT     0.417000        1.0080           0
   26305 WT1  8273 TIP3 OH2  OT    -0.834000       15.9994           0
   26306 WT1  8273 TIP3 H1   HT     0.417000        1.0080           0
   26307 WT1  8273 TIP3 H2   HT     0.417000        1.0080           0
   26308 WT1  8274 TIP3 OH2  OT    -0.834000       15.9994           0
   26309 WT1  8274 TIP3 H1   HT     0.417000        1.0080           0
   26310 WT1  8274 TIP3 H2   HT     0.417000        1.0080           0
   26311 WT1  8276 TIP3 OH2  OT    -0.834000       15.9994           0
   26312 WT1  8276 TIP3 H1   HT     0.417000        1.0080           0
   26313 WT1  8276 TIP3 H2   HT     0.417000        1.0080           0
   26314 WT1  8277 TIP3 OH2  OT    -0.834000       15.9994           0
   26315 WT1  8277 TIP3 H1   HT     0.417000        1.0080           0
   26316 WT1  8277 TIP3 H2   HT     0.417000        1.0080           0
   26317 WT1  8278 TIP3 OH2  OT    -0.834000       15.9994           0
   26318 WT1  8278 TIP3 H1   HT     0.417000        1.0080           0
   26319 WT1  8278 TIP3 H2   HT     0.417000        1.0080           0
   26320 WT1  8279 TIP3 OH2  OT    -0.834000       15.9994           0
   26321 WT1  8279 TIP3 H1   HT     0.417000        1.0080           0
   26322 WT1  8279 TIP3 H2   HT     0.417000        1.0080           0
   26323 WT1  8280 TIP3 OH2  OT    -0.834000       15.9994           0
   26324 WT1  8280 TIP3 H1   HT     0.417000        1.0080           0
   26325 WT1  8280 TIP3 H2   HT     0.417000        1.0080           0
   26326 WT1  8281 TIP3 OH2  OT    -0.834000       15.9994           0
   26327 WT1  8281 TIP3 H1   HT     0.417000        1.0080           0
   26328 WT1  8281 TIP3 H2   HT     0.417000        1.0080           0
   26329 WT1  8282 TIP3 OH2  OT    -0.834000       15.9994           0
   26330 WT1  8282 TIP3 H1   HT     0.417000        1.0080           0
   26331 WT1  8282 TIP3 H2   HT     0.417000        1.0080           0
   26332 WT1  8283 TIP3 OH2  OT    -0.834000       15.9994           0
   26333 WT1  8283 TIP3 H1   HT     0.417000        1.0080           0
   26334 WT1  8283 TIP3 H2   HT     0.417000        1.0080           0
   26335 WT1  8284 TIP3 OH2  OT    -0.834000       15.9994           0
   26336 WT1  8284 TIP3 H1   HT     0.417000        1.0080           0
   26337 WT1  8284 TIP3 H2   HT     0.417000        1.0080           0
   26338 WT1  8285 TIP3 OH2  OT    -0.834000       15.9994           0
   26339 WT1  8285 TIP3 H1   HT     0.417000        1.0080           0
   26340 WT1  8285 TIP3 H2   HT     0.417000        1.0080           0
   26341 WT1  8286 TIP3 OH2  OT    -0.834000       15.9994           0
   26342 WT1  8286 TIP3 H1   HT     0.417000        1.0080           0
   26343 WT1  8286 TIP3 H2   HT     0.417000        1.0080           0
   26344 WT1  8287 TIP3 OH2  OT    -0.834000       15.9994           0
   26345 WT1  8287 TIP3 H1   HT     0.417000        1.0080           0
   26346 WT1  8287 TIP3 H2   HT     0.417000        1.0080           0
   26347 WT1  8288 TIP3 OH2  OT    -0.834000       15.9994           0
   26348 WT1  8288 TIP3 H1   HT     0.417000        1.0080           0
   26349 WT1  8288 TIP3 H2   HT     0.417000        1.0080           0
   26350 WT1  8289 TIP3 OH2  OT    -0.834000       15.9994           0
   26351 WT1  8289 TIP3 H1   HT     0.417000        1.0080           0
   26352 WT1  8289 TIP3 H2   HT     0.417000        1.0080           0
   26353 WT1  8290 TIP3 OH2  OT    -0.834000       15.9994           0
   26354 WT1  8290 TIP3 H1   HT     0.417000        1.0080           0
   26355 WT1  8290 TIP3 H2   HT     0.417000        1.0080           0
   26356 WT1  8292 TIP3 OH2  OT    -0.834000       15.9994           0
   26357 WT1  8292 TIP3 H1   HT     0.417000        1.0080           0
   26358 WT1  8292 TIP3 H2   HT     0.417000        1.0080           0
   26359 WT1  8293 TIP3 OH2  OT    -0.834000       15.9994           0
   26360 WT1  8293 TIP3 H1   HT     0.417000        1.0080           0
   26361 WT1  8293 TIP3 H2   HT     0.417000        1.0080           0
   26362 WT1  8294 TIP3 OH2  OT    -0.834000       15.9994           0
   26363 WT1  8294 TIP3 H1   HT     0.417000        1.0080           0
   26364 WT1  8294 TIP3 H2   HT     0.417000        1.0080           0
   26365 WT1  8295 TIP3 OH2  OT    -0.834000       15.9994           0
   26366 WT1  8295 TIP3 H1   HT     0.417000        1.0080           0
   26367 WT1  8295 TIP3 H2   HT     0.417000        1.0080           0
   26368 WT1  8296 TIP3 OH2  OT    -0.834000       15.9994           0
   26369 WT1  8296 TIP3 H1   HT     0.417000        1.0080           0
   26370 WT1  8296 TIP3 H2   HT     0.417000        1.0080           0
   26371 WT1  8297 TIP3 OH2  OT    -0.834000       15.9994           0
   26372 WT1  8297 TIP3 H1   HT     0.417000        1.0080           0
   26373 WT1  8297 TIP3 H2   HT     0.417000        1.0080           0
   26374 WT1  8298 TIP3 OH2  OT    -0.834000       15.9994           0
   26375 WT1  8298 TIP3 H1   HT     0.417000        1.0080           0
   26376 WT1  8298 TIP3 H2   HT     0.417000        1.0080           0
   26377 WT1  8299 TIP3 OH2  OT    -0.834000       15.9994           0
   26378 WT1  8299 TIP3 H1   HT     0.417000        1.0080           0
   26379 WT1  8299 TIP3 H2   HT     0.417000        1.0080           0
   26380 WT1  8300 TIP3 OH2  OT    -0.834000       15.9994           0
   26381 WT1  8300 TIP3 H1   HT     0.417000        1.0080           0
   26382 WT1  8300 TIP3 H2   HT     0.417000        1.0080           0
   26383 WT1  8301 TIP3 OH2  OT    -0.834000       15.9994           0
   26384 WT1  8301 TIP3 H1   HT     0.417000        1.0080           0
   26385 WT1  8301 TIP3 H2   HT     0.417000        1.0080           0
   26386 WT1  8302 TIP3 OH2  OT    -0.834000       15.9994           0
   26387 WT1  8302 TIP3 H1   HT     0.417000        1.0080           0
   26388 WT1  8302 TIP3 H2   HT     0.417000        1.0080           0
   26389 WT1  8303 TIP3 OH2  OT    -0.834000       15.9994           0
   26390 WT1  8303 TIP3 H1   HT     0.417000        1.0080           0
   26391 WT1  8303 TIP3 H2   HT     0.417000        1.0080           0
   26392 WT1  8304 TIP3 OH2  OT    -0.834000       15.9994           0
   26393 WT1  8304 TIP3 H1   HT     0.417000        1.0080           0
   26394 WT1  8304 TIP3 H2   HT     0.417000        1.0080           0
   26395 WT1  8305 TIP3 OH2  OT    -0.834000       15.9994           0
   26396 WT1  8305 TIP3 H1   HT     0.417000        1.0080           0
   26397 WT1  8305 TIP3 H2   HT     0.417000        1.0080           0
   26398 WT1  8306 TIP3 OH2  OT    -0.834000       15.9994           0
   26399 WT1  8306 TIP3 H1   HT     0.417000        1.0080           0
   26400 WT1  8306 TIP3 H2   HT     0.417000        1.0080           0
   26401 WT1  8307 TIP3 OH2  OT    -0.834000       15.9994           0
   26402 WT1  8307 TIP3 H1   HT     0.417000        1.0080           0
   26403 WT1  8307 TIP3 H2   HT     0.417000        1.0080           0
   26404 WT1  8308 TIP3 OH2  OT    -0.834000       15.9994           0
   26405 WT1  8308 TIP3 H1   HT     0.417000        1.0080           0
   26406 WT1  8308 TIP3 H2   HT     0.417000        1.0080           0
   26407 WT1  8309 TIP3 OH2  OT    -0.834000       15.9994           0
   26408 WT1  8309 TIP3 H1   HT     0.417000        1.0080           0
   26409 WT1  8309 TIP3 H2   HT     0.417000        1.0080           0
   26410 WT1  8310 TIP3 OH2  OT    -0.834000       15.9994           0
   26411 WT1  8310 TIP3 H1   HT     0.417000        1.0080           0
   26412 WT1  8310 TIP3 H2   HT     0.417000        1.0080           0
   26413 WT1  8313 TIP3 OH2  OT    -0.834000       15.9994           0
   26414 WT1  8313 TIP3 H1   HT     0.417000        1.0080           0
   26415 WT1  8313 TIP3 H2   HT     0.417000        1.0080           0
   26416 WT1  8314 TIP3 OH2  OT    -0.834000       15.9994           0
   26417 WT1  8314 TIP3 H1   HT     0.417000        1.0080           0
   26418 WT1  8314 TIP3 H2   HT     0.417000        1.0080           0
   26419 WT1  8315 TIP3 OH2  OT    -0.834000       15.9994           0
   26420 WT1  8315 TIP3 H1   HT     0.417000        1.0080           0
   26421 WT1  8315 TIP3 H2   HT     0.417000        1.0080           0
   26422 WT1  8316 TIP3 OH2  OT    -0.834000       15.9994           0
   26423 WT1  8316 TIP3 H1   HT     0.417000        1.0080           0
   26424 WT1  8316 TIP3 H2   HT     0.417000        1.0080           0
   26425 WT1  8317 TIP3 OH2  OT    -0.834000       15.9994           0
   26426 WT1  8317 TIP3 H1   HT     0.417000        1.0080           0
   26427 WT1  8317 TIP3 H2   HT     0.417000        1.0080           0
   26428 WT1  8318 TIP3 OH2  OT    -0.834000       15.9994           0
   26429 WT1  8318 TIP3 H1   HT     0.417000        1.0080           0
   26430 WT1  8318 TIP3 H2   HT     0.417000        1.0080           0
   26431 WT1  8319 TIP3 OH2  OT    -0.834000       15.9994           0
   26432 WT1  8319 TIP3 H1   HT     0.417000        1.0080           0
   26433 WT1  8319 TIP3 H2   HT     0.417000        1.0080           0
   26434 WT1  8320 TIP3 OH2  OT    -0.834000       15.9994           0
   26435 WT1  8320 TIP3 H1   HT     0.417000        1.0080           0
   26436 WT1  8320 TIP3 H2   HT     0.417000        1.0080           0
   26437 WT1  8321 TIP3 OH2  OT    -0.834000       15.9994           0
   26438 WT1  8321 TIP3 H1   HT     0.417000        1.0080           0
   26439 WT1  8321 TIP3 H2   HT     0.417000        1.0080           0
   26440 WT1  8322 TIP3 OH2  OT    -0.834000       15.9994           0
   26441 WT1  8322 TIP3 H1   HT     0.417000        1.0080           0
   26442 WT1  8322 TIP3 H2   HT     0.417000        1.0080           0
   26443 WT1  8323 TIP3 OH2  OT    -0.834000       15.9994           0
   26444 WT1  8323 TIP3 H1   HT     0.417000        1.0080           0
   26445 WT1  8323 TIP3 H2   HT     0.417000        1.0080           0
   26446 WT1  8324 TIP3 OH2  OT    -0.834000       15.9994           0
   26447 WT1  8324 TIP3 H1   HT     0.417000        1.0080           0
   26448 WT1  8324 TIP3 H2   HT     0.417000        1.0080           0
   26449 WT1  8325 TIP3 OH2  OT    -0.834000       15.9994           0
   26450 WT1  8325 TIP3 H1   HT     0.417000        1.0080           0
   26451 WT1  8325 TIP3 H2   HT     0.417000        1.0080           0
   26452 WT1  8326 TIP3 OH2  OT    -0.834000       15.9994           0
   26453 WT1  8326 TIP3 H1   HT     0.417000        1.0080           0
   26454 WT1  8326 TIP3 H2   HT     0.417000        1.0080           0
   26455 WT1  8327 TIP3 OH2  OT    -0.834000       15.9994           0
   26456 WT1  8327 TIP3 H1   HT     0.417000        1.0080           0
   26457 WT1  8327 TIP3 H2   HT     0.417000        1.0080           0
   26458 WT1  8328 TIP3 OH2  OT    -0.834000       15.9994           0
   26459 WT1  8328 TIP3 H1   HT     0.417000        1.0080           0
   26460 WT1  8328 TIP3 H2   HT     0.417000        1.0080           0
   26461 WT1  8329 TIP3 OH2  OT    -0.834000       15.9994           0
   26462 WT1  8329 TIP3 H1   HT     0.417000        1.0080           0
   26463 WT1  8329 TIP3 H2   HT     0.417000        1.0080           0
   26464 WT1  8330 TIP3 OH2  OT    -0.834000       15.9994           0
   26465 WT1  8330 TIP3 H1   HT     0.417000        1.0080           0
   26466 WT1  8330 TIP3 H2   HT     0.417000        1.0080           0
   26467 WT1  8331 TIP3 OH2  OT    -0.834000       15.9994           0
   26468 WT1  8331 TIP3 H1   HT     0.417000        1.0080           0
   26469 WT1  8331 TIP3 H2   HT     0.417000        1.0080           0
   26470 WT1  8332 TIP3 OH2  OT    -0.834000       15.9994           0
   26471 WT1  8332 TIP3 H1   HT     0.417000        1.0080           0
   26472 WT1  8332 TIP3 H2   HT     0.417000        1.0080           0
   26473 WT1  8333 TIP3 OH2  OT    -0.834000       15.9994           0
   26474 WT1  8333 TIP3 H1   HT     0.417000        1.0080           0
   26475 WT1  8333 TIP3 H2   HT     0.417000        1.0080           0
   26476 WT1  8334 TIP3 OH2  OT    -0.834000       15.9994           0
   26477 WT1  8334 TIP3 H1   HT     0.417000        1.0080           0
   26478 WT1  8334 TIP3 H2   HT     0.417000        1.0080           0
   26479 WT1  8335 TIP3 OH2  OT    -0.834000       15.9994           0
   26480 WT1  8335 TIP3 H1   HT     0.417000        1.0080           0
   26481 WT1  8335 TIP3 H2   HT     0.417000        1.0080           0
   26482 WT1  8336 TIP3 OH2  OT    -0.834000       15.9994           0
   26483 WT1  8336 TIP3 H1   HT     0.417000        1.0080           0
   26484 WT1  8336 TIP3 H2   HT     0.417000        1.0080           0
   26485 WT1  8338 TIP3 OH2  OT    -0.834000       15.9994           0
   26486 WT1  8338 TIP3 H1   HT     0.417000        1.0080           0
   26487 WT1  8338 TIP3 H2   HT     0.417000        1.0080           0
   26488 WT1  8339 TIP3 OH2  OT    -0.834000       15.9994           0
   26489 WT1  8339 TIP3 H1   HT     0.417000        1.0080           0
   26490 WT1  8339 TIP3 H2   HT     0.417000        1.0080           0
   26491 WT1  8340 TIP3 OH2  OT    -0.834000       15.9994           0
   26492 WT1  8340 TIP3 H1   HT     0.417000        1.0080           0
   26493 WT1  8340 TIP3 H2   HT     0.417000        1.0080           0
   26494 WT1  8341 TIP3 OH2  OT    -0.834000       15.9994           0
   26495 WT1  8341 TIP3 H1   HT     0.417000        1.0080           0
   26496 WT1  8341 TIP3 H2   HT     0.417000        1.0080           0
   26497 WT1  8342 TIP3 OH2  OT    -0.834000       15.9994           0
   26498 WT1  8342 TIP3 H1   HT     0.417000        1.0080           0
   26499 WT1  8342 TIP3 H2   HT     0.417000        1.0080           0
   26500 WT1  8343 TIP3 OH2  OT    -0.834000       15.9994           0
   26501 WT1  8343 TIP3 H1   HT     0.417000        1.0080           0
   26502 WT1  8343 TIP3 H2   HT     0.417000        1.0080           0
   26503 WT1  8344 TIP3 OH2  OT    -0.834000       15.9994           0
   26504 WT1  8344 TIP3 H1   HT     0.417000        1.0080           0
   26505 WT1  8344 TIP3 H2   HT     0.417000        1.0080           0
   26506 WT1  8345 TIP3 OH2  OT    -0.834000       15.9994           0
   26507 WT1  8345 TIP3 H1   HT     0.417000        1.0080           0
   26508 WT1  8345 TIP3 H2   HT     0.417000        1.0080           0
   26509 WT1  8346 TIP3 OH2  OT    -0.834000       15.9994           0
   26510 WT1  8346 TIP3 H1   HT     0.417000        1.0080           0
   26511 WT1  8346 TIP3 H2   HT     0.417000        1.0080           0
   26512 WT1  8347 TIP3 OH2  OT    -0.834000       15.9994           0
   26513 WT1  8347 TIP3 H1   HT     0.417000        1.0080           0
   26514 WT1  8347 TIP3 H2   HT     0.417000        1.0080           0
   26515 WT1  8348 TIP3 OH2  OT    -0.834000       15.9994           0
   26516 WT1  8348 TIP3 H1   HT     0.417000        1.0080           0
   26517 WT1  8348 TIP3 H2   HT     0.417000        1.0080           0
   26518 WT1  8349 TIP3 OH2  OT    -0.834000       15.9994           0
   26519 WT1  8349 TIP3 H1   HT     0.417000        1.0080           0
   26520 WT1  8349 TIP3 H2   HT     0.417000        1.0080           0
   26521 WT1  8350 TIP3 OH2  OT    -0.834000       15.9994           0
   26522 WT1  8350 TIP3 H1   HT     0.417000        1.0080           0
   26523 WT1  8350 TIP3 H2   HT     0.417000        1.0080           0
   26524 WT1  8351 TIP3 OH2  OT    -0.834000       15.9994           0
   26525 WT1  8351 TIP3 H1   HT     0.417000        1.0080           0
   26526 WT1  8351 TIP3 H2   HT     0.417000        1.0080           0
   26527 WT1  8352 TIP3 OH2  OT    -0.834000       15.9994           0
   26528 WT1  8352 TIP3 H1   HT     0.417000        1.0080           0
   26529 WT1  8352 TIP3 H2   HT     0.417000        1.0080           0
   26530 WT1  8353 TIP3 OH2  OT    -0.834000       15.9994           0
   26531 WT1  8353 TIP3 H1   HT     0.417000        1.0080           0
   26532 WT1  8353 TIP3 H2   HT     0.417000        1.0080           0
   26533 WT1  8354 TIP3 OH2  OT    -0.834000       15.9994           0
   26534 WT1  8354 TIP3 H1   HT     0.417000        1.0080           0
   26535 WT1  8354 TIP3 H2   HT     0.417000        1.0080           0
   26536 WT1  8360 TIP3 OH2  OT    -0.834000       15.9994           0
   26537 WT1  8360 TIP3 H1   HT     0.417000        1.0080           0
   26538 WT1  8360 TIP3 H2   HT     0.417000        1.0080           0
   26539 WT1  8361 TIP3 OH2  OT    -0.834000       15.9994           0
   26540 WT1  8361 TIP3 H1   HT     0.417000        1.0080           0
   26541 WT1  8361 TIP3 H2   HT     0.417000        1.0080           0
   26542 WT1  8362 TIP3 OH2  OT    -0.834000       15.9994           0
   26543 WT1  8362 TIP3 H1   HT     0.417000        1.0080           0
   26544 WT1  8362 TIP3 H2   HT     0.417000        1.0080           0
   26545 WT1  8363 TIP3 OH2  OT    -0.834000       15.9994           0
   26546 WT1  8363 TIP3 H1   HT     0.417000        1.0080           0
   26547 WT1  8363 TIP3 H2   HT     0.417000        1.0080           0
   26548 WT1  8364 TIP3 OH2  OT    -0.834000       15.9994           0
   26549 WT1  8364 TIP3 H1   HT     0.417000        1.0080           0
   26550 WT1  8364 TIP3 H2   HT     0.417000        1.0080           0
   26551 WT1  8365 TIP3 OH2  OT    -0.834000       15.9994           0
   26552 WT1  8365 TIP3 H1   HT     0.417000        1.0080           0
   26553 WT1  8365 TIP3 H2   HT     0.417000        1.0080           0
   26554 WT1  8366 TIP3 OH2  OT    -0.834000       15.9994           0
   26555 WT1  8366 TIP3 H1   HT     0.417000        1.0080           0
   26556 WT1  8366 TIP3 H2   HT     0.417000        1.0080           0
   26557 WT1  8367 TIP3 OH2  OT    -0.834000       15.9994           0
   26558 WT1  8367 TIP3 H1   HT     0.417000        1.0080           0
   26559 WT1  8367 TIP3 H2   HT     0.417000        1.0080           0
   26560 WT1  8368 TIP3 OH2  OT    -0.834000       15.9994           0
   26561 WT1  8368 TIP3 H1   HT     0.417000        1.0080           0
   26562 WT1  8368 TIP3 H2   HT     0.417000        1.0080           0
   26563 WT1  8369 TIP3 OH2  OT    -0.834000       15.9994           0
   26564 WT1  8369 TIP3 H1   HT     0.417000        1.0080           0
   26565 WT1  8369 TIP3 H2   HT     0.417000        1.0080           0
   26566 WT1  8370 TIP3 OH2  OT    -0.834000       15.9994           0
   26567 WT1  8370 TIP3 H1   HT     0.417000        1.0080           0
   26568 WT1  8370 TIP3 H2   HT     0.417000        1.0080           0
   26569 WT1  8371 TIP3 OH2  OT    -0.834000       15.9994           0
   26570 WT1  8371 TIP3 H1   HT     0.417000        1.0080           0
   26571 WT1  8371 TIP3 H2   HT     0.417000        1.0080           0
   26572 WT1  8373 TIP3 OH2  OT    -0.834000       15.9994           0
   26573 WT1  8373 TIP3 H1   HT     0.417000        1.0080           0
   26574 WT1  8373 TIP3 H2   HT     0.417000        1.0080           0
   26575 WT1  8377 TIP3 OH2  OT    -0.834000       15.9994           0
   26576 WT1  8377 TIP3 H1   HT     0.417000        1.0080           0
   26577 WT1  8377 TIP3 H2   HT     0.417000        1.0080           0
   26578 WT1  8378 TIP3 OH2  OT    -0.834000       15.9994           0
   26579 WT1  8378 TIP3 H1   HT     0.417000        1.0080           0
   26580 WT1  8378 TIP3 H2   HT     0.417000        1.0080           0
   26581 WT1  8379 TIP3 OH2  OT    -0.834000       15.9994           0
   26582 WT1  8379 TIP3 H1   HT     0.417000        1.0080           0
   26583 WT1  8379 TIP3 H2   HT     0.417000        1.0080           0
   26584 WT1  8380 TIP3 OH2  OT    -0.834000       15.9994           0
   26585 WT1  8380 TIP3 H1   HT     0.417000        1.0080           0
   26586 WT1  8380 TIP3 H2   HT     0.417000        1.0080           0
   26587 WT1  8381 TIP3 OH2  OT    -0.834000       15.9994           0
   26588 WT1  8381 TIP3 H1   HT     0.417000        1.0080           0
   26589 WT1  8381 TIP3 H2   HT     0.417000        1.0080           0
   26590 WT1  8382 TIP3 OH2  OT    -0.834000       15.9994           0
   26591 WT1  8382 TIP3 H1   HT     0.417000        1.0080           0
   26592 WT1  8382 TIP3 H2   HT     0.417000        1.0080           0
   26593 WT1  8383 TIP3 OH2  OT    -0.834000       15.9994           0
   26594 WT1  8383 TIP3 H1   HT     0.417000        1.0080           0
   26595 WT1  8383 TIP3 H2   HT     0.417000        1.0080           0
   26596 WT1  8384 TIP3 OH2  OT    -0.834000       15.9994           0
   26597 WT1  8384 TIP3 H1   HT     0.417000        1.0080           0
   26598 WT1  8384 TIP3 H2   HT     0.417000        1.0080           0
   26599 WT1  8385 TIP3 OH2  OT    -0.834000       15.9994           0
   26600 WT1  8385 TIP3 H1   HT     0.417000        1.0080           0
   26601 WT1  8385 TIP3 H2   HT     0.417000        1.0080           0
   26602 WT1  8386 TIP3 OH2  OT    -0.834000       15.9994           0
   26603 WT1  8386 TIP3 H1   HT     0.417000        1.0080           0
   26604 WT1  8386 TIP3 H2   HT     0.417000        1.0080           0
   26605 WT1  8387 TIP3 OH2  OT    -0.834000       15.9994           0
   26606 WT1  8387 TIP3 H1   HT     0.417000        1.0080           0
   26607 WT1  8387 TIP3 H2   HT     0.417000        1.0080           0
   26608 WT1  8388 TIP3 OH2  OT    -0.834000       15.9994           0
   26609 WT1  8388 TIP3 H1   HT     0.417000        1.0080           0
   26610 WT1  8388 TIP3 H2   HT     0.417000        1.0080           0
   26611 WT1  8389 TIP3 OH2  OT    -0.834000       15.9994           0
   26612 WT1  8389 TIP3 H1   HT     0.417000        1.0080           0
   26613 WT1  8389 TIP3 H2   HT     0.417000        1.0080           0
   26614 WT1  8390 TIP3 OH2  OT    -0.834000       15.9994           0
   26615 WT1  8390 TIP3 H1   HT     0.417000        1.0080           0
   26616 WT1  8390 TIP3 H2   HT     0.417000        1.0080           0
   26617 WT1  8391 TIP3 OH2  OT    -0.834000       15.9994           0
   26618 WT1  8391 TIP3 H1   HT     0.417000        1.0080           0
   26619 WT1  8391 TIP3 H2   HT     0.417000        1.0080           0
   26620 WT1  8392 TIP3 OH2  OT    -0.834000       15.9994           0
   26621 WT1  8392 TIP3 H1   HT     0.417000        1.0080           0
   26622 WT1  8392 TIP3 H2   HT     0.417000        1.0080           0
   26623 WT1  8393 TIP3 OH2  OT    -0.834000       15.9994           0
   26624 WT1  8393 TIP3 H1   HT     0.417000        1.0080           0
   26625 WT1  8393 TIP3 H2   HT     0.417000        1.0080           0
   26626 WT1  8394 TIP3 OH2  OT    -0.834000       15.9994           0
   26627 WT1  8394 TIP3 H1   HT     0.417000        1.0080           0
   26628 WT1  8394 TIP3 H2   HT     0.417000        1.0080           0
   26629 WT1  8396 TIP3 OH2  OT    -0.834000       15.9994           0
   26630 WT1  8396 TIP3 H1   HT     0.417000        1.0080           0
   26631 WT1  8396 TIP3 H2   HT     0.417000        1.0080           0
   26632 WT1  8397 TIP3 OH2  OT    -0.834000       15.9994           0
   26633 WT1  8397 TIP3 H1   HT     0.417000        1.0080           0
   26634 WT1  8397 TIP3 H2   HT     0.417000        1.0080           0
   26635 WT1  8399 TIP3 OH2  OT    -0.834000       15.9994           0
   26636 WT1  8399 TIP3 H1   HT     0.417000        1.0080           0
   26637 WT1  8399 TIP3 H2   HT     0.417000        1.0080           0
   26638 WT1  8401 TIP3 OH2  OT    -0.834000       15.9994           0
   26639 WT1  8401 TIP3 H1   HT     0.417000        1.0080           0
   26640 WT1  8401 TIP3 H2   HT     0.417000        1.0080           0
   26641 WT1  8402 TIP3 OH2  OT    -0.834000       15.9994           0
   26642 WT1  8402 TIP3 H1   HT     0.417000        1.0080           0
   26643 WT1  8402 TIP3 H2   HT     0.417000        1.0080           0
   26644 WT1  8403 TIP3 OH2  OT    -0.834000       15.9994           0
   26645 WT1  8403 TIP3 H1   HT     0.417000        1.0080           0
   26646 WT1  8403 TIP3 H2   HT     0.417000        1.0080           0
   26647 WT1  8404 TIP3 OH2  OT    -0.834000       15.9994           0
   26648 WT1  8404 TIP3 H1   HT     0.417000        1.0080           0
   26649 WT1  8404 TIP3 H2   HT     0.417000        1.0080           0
   26650 WT1  8405 TIP3 OH2  OT    -0.834000       15.9994           0
   26651 WT1  8405 TIP3 H1   HT     0.417000        1.0080           0
   26652 WT1  8405 TIP3 H2   HT     0.417000        1.0080           0
   26653 WT1  8406 TIP3 OH2  OT    -0.834000       15.9994           0
   26654 WT1  8406 TIP3 H1   HT     0.417000        1.0080           0
   26655 WT1  8406 TIP3 H2   HT     0.417000        1.0080           0
   26656 WT1  8407 TIP3 OH2  OT    -0.834000       15.9994           0
   26657 WT1  8407 TIP3 H1   HT     0.417000        1.0080           0
   26658 WT1  8407 TIP3 H2   HT     0.417000        1.0080           0
   26659 WT1  8408 TIP3 OH2  OT    -0.834000       15.9994           0
   26660 WT1  8408 TIP3 H1   HT     0.417000        1.0080           0
   26661 WT1  8408 TIP3 H2   HT     0.417000        1.0080           0
   26662 WT1  8409 TIP3 OH2  OT    -0.834000       15.9994           0
   26663 WT1  8409 TIP3 H1   HT     0.417000        1.0080           0
   26664 WT1  8409 TIP3 H2   HT     0.417000        1.0080           0
   26665 WT1  8410 TIP3 OH2  OT    -0.834000       15.9994           0
   26666 WT1  8410 TIP3 H1   HT     0.417000        1.0080           0
   26667 WT1  8410 TIP3 H2   HT     0.417000        1.0080           0
   26668 WT1  8411 TIP3 OH2  OT    -0.834000       15.9994           0
   26669 WT1  8411 TIP3 H1   HT     0.417000        1.0080           0
   26670 WT1  8411 TIP3 H2   HT     0.417000        1.0080           0
   26671 WT1  8412 TIP3 OH2  OT    -0.834000       15.9994           0
   26672 WT1  8412 TIP3 H1   HT     0.417000        1.0080           0
   26673 WT1  8412 TIP3 H2   HT     0.417000        1.0080           0
   26674 WT1  8413 TIP3 OH2  OT    -0.834000       15.9994           0
   26675 WT1  8413 TIP3 H1   HT     0.417000        1.0080           0
   26676 WT1  8413 TIP3 H2   HT     0.417000        1.0080           0
   26677 WT1  8414 TIP3 OH2  OT    -0.834000       15.9994           0
   26678 WT1  8414 TIP3 H1   HT     0.417000        1.0080           0
   26679 WT1  8414 TIP3 H2   HT     0.417000        1.0080           0
   26680 WT1  8415 TIP3 OH2  OT    -0.834000       15.9994           0
   26681 WT1  8415 TIP3 H1   HT     0.417000        1.0080           0
   26682 WT1  8415 TIP3 H2   HT     0.417000        1.0080           0
   26683 WT1  8416 TIP3 OH2  OT    -0.834000       15.9994           0
   26684 WT1  8416 TIP3 H1   HT     0.417000        1.0080           0
   26685 WT1  8416 TIP3 H2   HT     0.417000        1.0080           0
   26686 WT1  8417 TIP3 OH2  OT    -0.834000       15.9994           0
   26687 WT1  8417 TIP3 H1   HT     0.417000        1.0080           0
   26688 WT1  8417 TIP3 H2   HT     0.417000        1.0080           0
   26689 WT1  8418 TIP3 OH2  OT    -0.834000       15.9994           0
   26690 WT1  8418 TIP3 H1   HT     0.417000        1.0080           0
   26691 WT1  8418 TIP3 H2   HT     0.417000        1.0080           0
   26692 WT1  8420 TIP3 OH2  OT    -0.834000       15.9994           0
   26693 WT1  8420 TIP3 H1   HT     0.417000        1.0080           0
   26694 WT1  8420 TIP3 H2   HT     0.417000        1.0080           0
   26695 WT1  8422 TIP3 OH2  OT    -0.834000       15.9994           0
   26696 WT1  8422 TIP3 H1   HT     0.417000        1.0080           0
   26697 WT1  8422 TIP3 H2   HT     0.417000        1.0080           0
   26698 WT1  8423 TIP3 OH2  OT    -0.834000       15.9994           0
   26699 WT1  8423 TIP3 H1   HT     0.417000        1.0080           0
   26700 WT1  8423 TIP3 H2   HT     0.417000        1.0080           0
   26701 WT1  8425 TIP3 OH2  OT    -0.834000       15.9994           0
   26702 WT1  8425 TIP3 H1   HT     0.417000        1.0080           0
   26703 WT1  8425 TIP3 H2   HT     0.417000        1.0080           0
   26704 WT1  8426 TIP3 OH2  OT    -0.834000       15.9994           0
   26705 WT1  8426 TIP3 H1   HT     0.417000        1.0080           0
   26706 WT1  8426 TIP3 H2   HT     0.417000        1.0080           0
   26707 WT1  8427 TIP3 OH2  OT    -0.834000       15.9994           0
   26708 WT1  8427 TIP3 H1   HT     0.417000        1.0080           0
   26709 WT1  8427 TIP3 H2   HT     0.417000        1.0080           0
   26710 WT1  8428 TIP3 OH2  OT    -0.834000       15.9994           0
   26711 WT1  8428 TIP3 H1   HT     0.417000        1.0080           0
   26712 WT1  8428 TIP3 H2   HT     0.417000        1.0080           0
   26713 WT1  8429 TIP3 OH2  OT    -0.834000       15.9994           0
   26714 WT1  8429 TIP3 H1   HT     0.417000        1.0080           0
   26715 WT1  8429 TIP3 H2   HT     0.417000        1.0080           0
   26716 WT1  8430 TIP3 OH2  OT    -0.834000       15.9994           0
   26717 WT1  8430 TIP3 H1   HT     0.417000        1.0080           0
   26718 WT1  8430 TIP3 H2   HT     0.417000        1.0080           0
   26719 WT1  8431 TIP3 OH2  OT    -0.834000       15.9994           0
   26720 WT1  8431 TIP3 H1   HT     0.417000        1.0080           0
   26721 WT1  8431 TIP3 H2   HT     0.417000        1.0080           0
   26722 WT1  8432 TIP3 OH2  OT    -0.834000       15.9994           0
   26723 WT1  8432 TIP3 H1   HT     0.417000        1.0080           0
   26724 WT1  8432 TIP3 H2   HT     0.417000        1.0080           0
   26725 WT1  8433 TIP3 OH2  OT    -0.834000       15.9994           0
   26726 WT1  8433 TIP3 H1   HT     0.417000        1.0080           0
   26727 WT1  8433 TIP3 H2   HT     0.417000        1.0080           0
   26728 WT1  8434 TIP3 OH2  OT    -0.834000       15.9994           0
   26729 WT1  8434 TIP3 H1   HT     0.417000        1.0080           0
   26730 WT1  8434 TIP3 H2   HT     0.417000        1.0080           0
   26731 WT1  8435 TIP3 OH2  OT    -0.834000       15.9994           0
   26732 WT1  8435 TIP3 H1   HT     0.417000        1.0080           0
   26733 WT1  8435 TIP3 H2   HT     0.417000        1.0080           0
   26734 WT1  8436 TIP3 OH2  OT    -0.834000       15.9994           0
   26735 WT1  8436 TIP3 H1   HT     0.417000        1.0080           0
   26736 WT1  8436 TIP3 H2   HT     0.417000        1.0080           0
   26737 WT1  8441 TIP3 OH2  OT    -0.834000       15.9994           0
   26738 WT1  8441 TIP3 H1   HT     0.417000        1.0080           0
   26739 WT1  8441 TIP3 H2   HT     0.417000        1.0080           0
   26740 WT1  8442 TIP3 OH2  OT    -0.834000       15.9994           0
   26741 WT1  8442 TIP3 H1   HT     0.417000        1.0080           0
   26742 WT1  8442 TIP3 H2   HT     0.417000        1.0080           0
   26743 WT1  8443 TIP3 OH2  OT    -0.834000       15.9994           0
   26744 WT1  8443 TIP3 H1   HT     0.417000        1.0080           0
   26745 WT1  8443 TIP3 H2   HT     0.417000        1.0080           0
   26746 WT1  8444 TIP3 OH2  OT    -0.834000       15.9994           0
   26747 WT1  8444 TIP3 H1   HT     0.417000        1.0080           0
   26748 WT1  8444 TIP3 H2   HT     0.417000        1.0080           0
   26749 WT1  8445 TIP3 OH2  OT    -0.834000       15.9994           0
   26750 WT1  8445 TIP3 H1   HT     0.417000        1.0080           0
   26751 WT1  8445 TIP3 H2   HT     0.417000        1.0080           0
   26752 WT1  8446 TIP3 OH2  OT    -0.834000       15.9994           0
   26753 WT1  8446 TIP3 H1   HT     0.417000        1.0080           0
   26754 WT1  8446 TIP3 H2   HT     0.417000        1.0080           0
   26755 WT1  8448 TIP3 OH2  OT    -0.834000       15.9994           0
   26756 WT1  8448 TIP3 H1   HT     0.417000        1.0080           0
   26757 WT1  8448 TIP3 H2   HT     0.417000        1.0080           0
   26758 WT1  8450 TIP3 OH2  OT    -0.834000       15.9994           0
   26759 WT1  8450 TIP3 H1   HT     0.417000        1.0080           0
   26760 WT1  8450 TIP3 H2   HT     0.417000        1.0080           0
   26761 WT1  8451 TIP3 OH2  OT    -0.834000       15.9994           0
   26762 WT1  8451 TIP3 H1   HT     0.417000        1.0080           0
   26763 WT1  8451 TIP3 H2   HT     0.417000        1.0080           0
   26764 WT1  8453 TIP3 OH2  OT    -0.834000       15.9994           0
   26765 WT1  8453 TIP3 H1   HT     0.417000        1.0080           0
   26766 WT1  8453 TIP3 H2   HT     0.417000        1.0080           0
   26767 WT1  8454 TIP3 OH2  OT    -0.834000       15.9994           0
   26768 WT1  8454 TIP3 H1   HT     0.417000        1.0080           0
   26769 WT1  8454 TIP3 H2   HT     0.417000        1.0080           0
   26770 WT1  8455 TIP3 OH2  OT    -0.834000       15.9994           0
   26771 WT1  8455 TIP3 H1   HT     0.417000        1.0080           0
   26772 WT1  8455 TIP3 H2   HT     0.417000        1.0080           0
   26773 WT1  8456 TIP3 OH2  OT    -0.834000       15.9994           0
   26774 WT1  8456 TIP3 H1   HT     0.417000        1.0080           0
   26775 WT1  8456 TIP3 H2   HT     0.417000        1.0080           0
   26776 WT1  8457 TIP3 OH2  OT    -0.834000       15.9994           0
   26777 WT1  8457 TIP3 H1   HT     0.417000        1.0080           0
   26778 WT1  8457 TIP3 H2   HT     0.417000        1.0080           0
   26779 WT1  8459 TIP3 OH2  OT    -0.834000       15.9994           0
   26780 WT1  8459 TIP3 H1   HT     0.417000        1.0080           0
   26781 WT1  8459 TIP3 H2   HT     0.417000        1.0080           0
   26782 WT1  8460 TIP3 OH2  OT    -0.834000       15.9994           0
   26783 WT1  8460 TIP3 H1   HT     0.417000        1.0080           0
   26784 WT1  8460 TIP3 H2   HT     0.417000        1.0080           0
   26785 WT1  8462 TIP3 OH2  OT    -0.834000       15.9994           0
   26786 WT1  8462 TIP3 H1   HT     0.417000        1.0080           0
   26787 WT1  8462 TIP3 H2   HT     0.417000        1.0080           0
   26788 WT1  8463 TIP3 OH2  OT    -0.834000       15.9994           0
   26789 WT1  8463 TIP3 H1   HT     0.417000        1.0080           0
   26790 WT1  8463 TIP3 H2   HT     0.417000        1.0080           0
   26791 WT1  8464 TIP3 OH2  OT    -0.834000       15.9994           0
   26792 WT1  8464 TIP3 H1   HT     0.417000        1.0080           0
   26793 WT1  8464 TIP3 H2   HT     0.417000        1.0080           0
   26794 WT1  8465 TIP3 OH2  OT    -0.834000       15.9994           0
   26795 WT1  8465 TIP3 H1   HT     0.417000        1.0080           0
   26796 WT1  8465 TIP3 H2   HT     0.417000        1.0080           0
   26797 WT1  8466 TIP3 OH2  OT    -0.834000       15.9994           0
   26798 WT1  8466 TIP3 H1   HT     0.417000        1.0080           0
   26799 WT1  8466 TIP3 H2   HT     0.417000        1.0080           0
   26800 WT1  8467 TIP3 OH2  OT    -0.834000       15.9994           0
   26801 WT1  8467 TIP3 H1   HT     0.417000        1.0080           0
   26802 WT1  8467 TIP3 H2   HT     0.417000        1.0080           0
   26803 WT1  8468 TIP3 OH2  OT    -0.834000       15.9994           0
   26804 WT1  8468 TIP3 H1   HT     0.417000        1.0080           0
   26805 WT1  8468 TIP3 H2   HT     0.417000        1.0080           0
   26806 WT1  8469 TIP3 OH2  OT    -0.834000       15.9994           0
   26807 WT1  8469 TIP3 H1   HT     0.417000        1.0080           0
   26808 WT1  8469 TIP3 H2   HT     0.417000        1.0080           0
   26809 WT1  8470 TIP3 OH2  OT    -0.834000       15.9994           0
   26810 WT1  8470 TIP3 H1   HT     0.417000        1.0080           0
   26811 WT1  8470 TIP3 H2   HT     0.417000        1.0080           0
   26812 WT1  8471 TIP3 OH2  OT    -0.834000       15.9994           0
   26813 WT1  8471 TIP3 H1   HT     0.417000        1.0080           0
   26814 WT1  8471 TIP3 H2   HT     0.417000        1.0080           0
   26815 WT1  8472 TIP3 OH2  OT    -0.834000       15.9994           0
   26816 WT1  8472 TIP3 H1   HT     0.417000        1.0080           0
   26817 WT1  8472 TIP3 H2   HT     0.417000        1.0080           0
   26818 WT1  8473 TIP3 OH2  OT    -0.834000       15.9994           0
   26819 WT1  8473 TIP3 H1   HT     0.417000        1.0080           0
   26820 WT1  8473 TIP3 H2   HT     0.417000        1.0080           0
   26821 WT1  8474 TIP3 OH2  OT    -0.834000       15.9994           0
   26822 WT1  8474 TIP3 H1   HT     0.417000        1.0080           0
   26823 WT1  8474 TIP3 H2   HT     0.417000        1.0080           0
   26824 WT1  8475 TIP3 OH2  OT    -0.834000       15.9994           0
   26825 WT1  8475 TIP3 H1   HT     0.417000        1.0080           0
   26826 WT1  8475 TIP3 H2   HT     0.417000        1.0080           0
   26827 WT1  8476 TIP3 OH2  OT    -0.834000       15.9994           0
   26828 WT1  8476 TIP3 H1   HT     0.417000        1.0080           0
   26829 WT1  8476 TIP3 H2   HT     0.417000        1.0080           0
   26830 WT1  8477 TIP3 OH2  OT    -0.834000       15.9994           0
   26831 WT1  8477 TIP3 H1   HT     0.417000        1.0080           0
   26832 WT1  8477 TIP3 H2   HT     0.417000        1.0080           0
   26833 WT1  8480 TIP3 OH2  OT    -0.834000       15.9994           0
   26834 WT1  8480 TIP3 H1   HT     0.417000        1.0080           0
   26835 WT1  8480 TIP3 H2   HT     0.417000        1.0080           0
   26836 WT1  8481 TIP3 OH2  OT    -0.834000       15.9994           0
   26837 WT1  8481 TIP3 H1   HT     0.417000        1.0080           0
   26838 WT1  8481 TIP3 H2   HT     0.417000        1.0080           0
   26839 WT1  8482 TIP3 OH2  OT    -0.834000       15.9994           0
   26840 WT1  8482 TIP3 H1   HT     0.417000        1.0080           0
   26841 WT1  8482 TIP3 H2   HT     0.417000        1.0080           0
   26842 WT1  8483 TIP3 OH2  OT    -0.834000       15.9994           0
   26843 WT1  8483 TIP3 H1   HT     0.417000        1.0080           0
   26844 WT1  8483 TIP3 H2   HT     0.417000        1.0080           0
   26845 WT1  8484 TIP3 OH2  OT    -0.834000       15.9994           0
   26846 WT1  8484 TIP3 H1   HT     0.417000        1.0080           0
   26847 WT1  8484 TIP3 H2   HT     0.417000        1.0080           0
   26848 WT1  8485 TIP3 OH2  OT    -0.834000       15.9994           0
   26849 WT1  8485 TIP3 H1   HT     0.417000        1.0080           0
   26850 WT1  8485 TIP3 H2   HT     0.417000        1.0080           0
   26851 WT1  8486 TIP3 OH2  OT    -0.834000       15.9994           0
   26852 WT1  8486 TIP3 H1   HT     0.417000        1.0080           0
   26853 WT1  8486 TIP3 H2   HT     0.417000        1.0080           0
   26854 WT1  8487 TIP3 OH2  OT    -0.834000       15.9994           0
   26855 WT1  8487 TIP3 H1   HT     0.417000        1.0080           0
   26856 WT1  8487 TIP3 H2   HT     0.417000        1.0080           0
   26857 WT1  8488 TIP3 OH2  OT    -0.834000       15.9994           0
   26858 WT1  8488 TIP3 H1   HT     0.417000        1.0080           0
   26859 WT1  8488 TIP3 H2   HT     0.417000        1.0080           0
   26860 WT1  8489 TIP3 OH2  OT    -0.834000       15.9994           0
   26861 WT1  8489 TIP3 H1   HT     0.417000        1.0080           0
   26862 WT1  8489 TIP3 H2   HT     0.417000        1.0080           0
   26863 WT1  8490 TIP3 OH2  OT    -0.834000       15.9994           0
   26864 WT1  8490 TIP3 H1   HT     0.417000        1.0080           0
   26865 WT1  8490 TIP3 H2   HT     0.417000        1.0080           0
   26866 WT1  8491 TIP3 OH2  OT    -0.834000       15.9994           0
   26867 WT1  8491 TIP3 H1   HT     0.417000        1.0080           0
   26868 WT1  8491 TIP3 H2   HT     0.417000        1.0080           0
   26869 WT1  8492 TIP3 OH2  OT    -0.834000       15.9994           0
   26870 WT1  8492 TIP3 H1   HT     0.417000        1.0080           0
   26871 WT1  8492 TIP3 H2   HT     0.417000        1.0080           0
   26872 WT1  8493 TIP3 OH2  OT    -0.834000       15.9994           0
   26873 WT1  8493 TIP3 H1   HT     0.417000        1.0080           0
   26874 WT1  8493 TIP3 H2   HT     0.417000        1.0080           0
   26875 WT1  8494 TIP3 OH2  OT    -0.834000       15.9994           0
   26876 WT1  8494 TIP3 H1   HT     0.417000        1.0080           0
   26877 WT1  8494 TIP3 H2   HT     0.417000        1.0080           0
   26878 WT1  8495 TIP3 OH2  OT    -0.834000       15.9994           0
   26879 WT1  8495 TIP3 H1   HT     0.417000        1.0080           0
   26880 WT1  8495 TIP3 H2   HT     0.417000        1.0080           0
   26881 WT1  8496 TIP3 OH2  OT    -0.834000       15.9994           0
   26882 WT1  8496 TIP3 H1   HT     0.417000        1.0080           0
   26883 WT1  8496 TIP3 H2   HT     0.417000        1.0080           0
   26884 WT1  8497 TIP3 OH2  OT    -0.834000       15.9994           0
   26885 WT1  8497 TIP3 H1   HT     0.417000        1.0080           0
   26886 WT1  8497 TIP3 H2   HT     0.417000        1.0080           0
   26887 WT1  8498 TIP3 OH2  OT    -0.834000       15.9994           0
   26888 WT1  8498 TIP3 H1   HT     0.417000        1.0080           0
   26889 WT1  8498 TIP3 H2   HT     0.417000        1.0080           0
   26890 WT1  8499 TIP3 OH2  OT    -0.834000       15.9994           0
   26891 WT1  8499 TIP3 H1   HT     0.417000        1.0080           0
   26892 WT1  8499 TIP3 H2   HT     0.417000        1.0080           0
   26893 WT1  8503 TIP3 OH2  OT    -0.834000       15.9994           0
   26894 WT1  8503 TIP3 H1   HT     0.417000        1.0080           0
   26895 WT1  8503 TIP3 H2   HT     0.417000        1.0080           0
   26896 WT1  8504 TIP3 OH2  OT    -0.834000       15.9994           0
   26897 WT1  8504 TIP3 H1   HT     0.417000        1.0080           0
   26898 WT1  8504 TIP3 H2   HT     0.417000        1.0080           0
   26899 WT1  8505 TIP3 OH2  OT    -0.834000       15.9994           0
   26900 WT1  8505 TIP3 H1   HT     0.417000        1.0080           0
   26901 WT1  8505 TIP3 H2   HT     0.417000        1.0080           0
   26902 WT1  8507 TIP3 OH2  OT    -0.834000       15.9994           0
   26903 WT1  8507 TIP3 H1   HT     0.417000        1.0080           0
   26904 WT1  8507 TIP3 H2   HT     0.417000        1.0080           0
   26905 WT1  8508 TIP3 OH2  OT    -0.834000       15.9994           0
   26906 WT1  8508 TIP3 H1   HT     0.417000        1.0080           0
   26907 WT1  8508 TIP3 H2   HT     0.417000        1.0080           0
   26908 WT1  8509 TIP3 OH2  OT    -0.834000       15.9994           0
   26909 WT1  8509 TIP3 H1   HT     0.417000        1.0080           0
   26910 WT1  8509 TIP3 H2   HT     0.417000        1.0080           0
   26911 WT1  8510 TIP3 OH2  OT    -0.834000       15.9994           0
   26912 WT1  8510 TIP3 H1   HT     0.417000        1.0080           0
   26913 WT1  8510 TIP3 H2   HT     0.417000        1.0080           0
   26914 WT1  8511 TIP3 OH2  OT    -0.834000       15.9994           0
   26915 WT1  8511 TIP3 H1   HT     0.417000        1.0080           0
   26916 WT1  8511 TIP3 H2   HT     0.417000        1.0080           0
   26917 WT1  8512 TIP3 OH2  OT    -0.834000       15.9994           0
   26918 WT1  8512 TIP3 H1   HT     0.417000        1.0080           0
   26919 WT1  8512 TIP3 H2   HT     0.417000        1.0080           0
   26920 WT1  8513 TIP3 OH2  OT    -0.834000       15.9994           0
   26921 WT1  8513 TIP3 H1   HT     0.417000        1.0080           0
   26922 WT1  8513 TIP3 H2   HT     0.417000        1.0080           0
   26923 WT1  8514 TIP3 OH2  OT    -0.834000       15.9994           0
   26924 WT1  8514 TIP3 H1   HT     0.417000        1.0080           0
   26925 WT1  8514 TIP3 H2   HT     0.417000        1.0080           0
   26926 WT1  8515 TIP3 OH2  OT    -0.834000       15.9994           0
   26927 WT1  8515 TIP3 H1   HT     0.417000        1.0080           0
   26928 WT1  8515 TIP3 H2   HT     0.417000        1.0080           0
   26929 WT1  8516 TIP3 OH2  OT    -0.834000       15.9994           0
   26930 WT1  8516 TIP3 H1   HT     0.417000        1.0080           0
   26931 WT1  8516 TIP3 H2   HT     0.417000        1.0080           0
   26932 WT1  8517 TIP3 OH2  OT    -0.834000       15.9994           0
   26933 WT1  8517 TIP3 H1   HT     0.417000        1.0080           0
   26934 WT1  8517 TIP3 H2   HT     0.417000        1.0080           0
   26935 WT1  8518 TIP3 OH2  OT    -0.834000       15.9994           0
   26936 WT1  8518 TIP3 H1   HT     0.417000        1.0080           0
   26937 WT1  8518 TIP3 H2   HT     0.417000        1.0080           0
   26938 WT1  8519 TIP3 OH2  OT    -0.834000       15.9994           0
   26939 WT1  8519 TIP3 H1   HT     0.417000        1.0080           0
   26940 WT1  8519 TIP3 H2   HT     0.417000        1.0080           0
   26941 WT1  8520 TIP3 OH2  OT    -0.834000       15.9994           0
   26942 WT1  8520 TIP3 H1   HT     0.417000        1.0080           0
   26943 WT1  8520 TIP3 H2   HT     0.417000        1.0080           0
   26944 WT1  8521 TIP3 OH2  OT    -0.834000       15.9994           0
   26945 WT1  8521 TIP3 H1   HT     0.417000        1.0080           0
   26946 WT1  8521 TIP3 H2   HT     0.417000        1.0080           0
   26947 WT1  8522 TIP3 OH2  OT    -0.834000       15.9994           0
   26948 WT1  8522 TIP3 H1   HT     0.417000        1.0080           0
   26949 WT1  8522 TIP3 H2   HT     0.417000        1.0080           0
   26950 WT1  8523 TIP3 OH2  OT    -0.834000       15.9994           0
   26951 WT1  8523 TIP3 H1   HT     0.417000        1.0080           0
   26952 WT1  8523 TIP3 H2   HT     0.417000        1.0080           0
   26953 WT1  8527 TIP3 OH2  OT    -0.834000       15.9994           0
   26954 WT1  8527 TIP3 H1   HT     0.417000        1.0080           0
   26955 WT1  8527 TIP3 H2   HT     0.417000        1.0080           0
   26956 WT1  8528 TIP3 OH2  OT    -0.834000       15.9994           0
   26957 WT1  8528 TIP3 H1   HT     0.417000        1.0080           0
   26958 WT1  8528 TIP3 H2   HT     0.417000        1.0080           0
   26959 WT1  8529 TIP3 OH2  OT    -0.834000       15.9994           0
   26960 WT1  8529 TIP3 H1   HT     0.417000        1.0080           0
   26961 WT1  8529 TIP3 H2   HT     0.417000        1.0080           0
   26962 WT1  8530 TIP3 OH2  OT    -0.834000       15.9994           0
   26963 WT1  8530 TIP3 H1   HT     0.417000        1.0080           0
   26964 WT1  8530 TIP3 H2   HT     0.417000        1.0080           0
   26965 WT1  8531 TIP3 OH2  OT    -0.834000       15.9994           0
   26966 WT1  8531 TIP3 H1   HT     0.417000        1.0080           0
   26967 WT1  8531 TIP3 H2   HT     0.417000        1.0080           0
   26968 WT1  8532 TIP3 OH2  OT    -0.834000       15.9994           0
   26969 WT1  8532 TIP3 H1   HT     0.417000        1.0080           0
   26970 WT1  8532 TIP3 H2   HT     0.417000        1.0080           0
   26971 WT1  8533 TIP3 OH2  OT    -0.834000       15.9994           0
   26972 WT1  8533 TIP3 H1   HT     0.417000        1.0080           0
   26973 WT1  8533 TIP3 H2   HT     0.417000        1.0080           0
   26974 WT1  8534 TIP3 OH2  OT    -0.834000       15.9994           0
   26975 WT1  8534 TIP3 H1   HT     0.417000        1.0080           0
   26976 WT1  8534 TIP3 H2   HT     0.417000        1.0080           0
   26977 WT1  8535 TIP3 OH2  OT    -0.834000       15.9994           0
   26978 WT1  8535 TIP3 H1   HT     0.417000        1.0080           0
   26979 WT1  8535 TIP3 H2   HT     0.417000        1.0080           0
   26980 WT1  8536 TIP3 OH2  OT    -0.834000       15.9994           0
   26981 WT1  8536 TIP3 H1   HT     0.417000        1.0080           0
   26982 WT1  8536 TIP3 H2   HT     0.417000        1.0080           0
   26983 WT1  8538 TIP3 OH2  OT    -0.834000       15.9994           0
   26984 WT1  8538 TIP3 H1   HT     0.417000        1.0080           0
   26985 WT1  8538 TIP3 H2   HT     0.417000        1.0080           0
   26986 WT1  8539 TIP3 OH2  OT    -0.834000       15.9994           0
   26987 WT1  8539 TIP3 H1   HT     0.417000        1.0080           0
   26988 WT1  8539 TIP3 H2   HT     0.417000        1.0080           0
   26989 WT1  8540 TIP3 OH2  OT    -0.834000       15.9994           0
   26990 WT1  8540 TIP3 H1   HT     0.417000        1.0080           0
   26991 WT1  8540 TIP3 H2   HT     0.417000        1.0080           0
   26992 WT1  8541 TIP3 OH2  OT    -0.834000       15.9994           0
   26993 WT1  8541 TIP3 H1   HT     0.417000        1.0080           0
   26994 WT1  8541 TIP3 H2   HT     0.417000        1.0080           0
   26995 WT1  8542 TIP3 OH2  OT    -0.834000       15.9994           0
   26996 WT1  8542 TIP3 H1   HT     0.417000        1.0080           0
   26997 WT1  8542 TIP3 H2   HT     0.417000        1.0080           0
   26998 WT1  8543 TIP3 OH2  OT    -0.834000       15.9994           0
   26999 WT1  8543 TIP3 H1   HT     0.417000        1.0080           0
   27000 WT1  8543 TIP3 H2   HT     0.417000        1.0080           0
   27001 WT1  8544 TIP3 OH2  OT    -0.834000       15.9994           0
   27002 WT1  8544 TIP3 H1   HT     0.417000        1.0080           0
   27003 WT1  8544 TIP3 H2   HT     0.417000        1.0080           0
   27004 WT1  8545 TIP3 OH2  OT    -0.834000       15.9994           0
   27005 WT1  8545 TIP3 H1   HT     0.417000        1.0080           0
   27006 WT1  8545 TIP3 H2   HT     0.417000        1.0080           0
   27007 WT1  8546 TIP3 OH2  OT    -0.834000       15.9994           0
   27008 WT1  8546 TIP3 H1   HT     0.417000        1.0080           0
   27009 WT1  8546 TIP3 H2   HT     0.417000        1.0080           0
   27010 WT1  8547 TIP3 OH2  OT    -0.834000       15.9994           0
   27011 WT1  8547 TIP3 H1   HT     0.417000        1.0080           0
   27012 WT1  8547 TIP3 H2   HT     0.417000        1.0080           0
   27013 WT1  8548 TIP3 OH2  OT    -0.834000       15.9994           0
   27014 WT1  8548 TIP3 H1   HT     0.417000        1.0080           0
   27015 WT1  8548 TIP3 H2   HT     0.417000        1.0080           0
   27016 WT1  8549 TIP3 OH2  OT    -0.834000       15.9994           0
   27017 WT1  8549 TIP3 H1   HT     0.417000        1.0080           0
   27018 WT1  8549 TIP3 H2   HT     0.417000        1.0080           0
   27019 WT1  8550 TIP3 OH2  OT    -0.834000       15.9994           0
   27020 WT1  8550 TIP3 H1   HT     0.417000        1.0080           0
   27021 WT1  8550 TIP3 H2   HT     0.417000        1.0080           0
   27022 WT1  8551 TIP3 OH2  OT    -0.834000       15.9994           0
   27023 WT1  8551 TIP3 H1   HT     0.417000        1.0080           0
   27024 WT1  8551 TIP3 H2   HT     0.417000        1.0080           0
   27025 WT1  8552 TIP3 OH2  OT    -0.834000       15.9994           0
   27026 WT1  8552 TIP3 H1   HT     0.417000        1.0080           0
   27027 WT1  8552 TIP3 H2   HT     0.417000        1.0080           0
   27028 WT1  8553 TIP3 OH2  OT    -0.834000       15.9994           0
   27029 WT1  8553 TIP3 H1   HT     0.417000        1.0080           0
   27030 WT1  8553 TIP3 H2   HT     0.417000        1.0080           0
   27031 WT1  8554 TIP3 OH2  OT    -0.834000       15.9994           0
   27032 WT1  8554 TIP3 H1   HT     0.417000        1.0080           0
   27033 WT1  8554 TIP3 H2   HT     0.417000        1.0080           0
   27034 WT1  8555 TIP3 OH2  OT    -0.834000       15.9994           0
   27035 WT1  8555 TIP3 H1   HT     0.417000        1.0080           0
   27036 WT1  8555 TIP3 H2   HT     0.417000        1.0080           0
   27037 WT1  8556 TIP3 OH2  OT    -0.834000       15.9994           0
   27038 WT1  8556 TIP3 H1   HT     0.417000        1.0080           0
   27039 WT1  8556 TIP3 H2   HT     0.417000        1.0080           0
   27040 WT1  8557 TIP3 OH2  OT    -0.834000       15.9994           0
   27041 WT1  8557 TIP3 H1   HT     0.417000        1.0080           0
   27042 WT1  8557 TIP3 H2   HT     0.417000        1.0080           0
   27043 WT1  8558 TIP3 OH2  OT    -0.834000       15.9994           0
   27044 WT1  8558 TIP3 H1   HT     0.417000        1.0080           0
   27045 WT1  8558 TIP3 H2   HT     0.417000        1.0080           0
   27046 WT1  8559 TIP3 OH2  OT    -0.834000       15.9994           0
   27047 WT1  8559 TIP3 H1   HT     0.417000        1.0080           0
   27048 WT1  8559 TIP3 H2   HT     0.417000        1.0080           0
   27049 WT1  8560 TIP3 OH2  OT    -0.834000       15.9994           0
   27050 WT1  8560 TIP3 H1   HT     0.417000        1.0080           0
   27051 WT1  8560 TIP3 H2   HT     0.417000        1.0080           0
   27052 WT1  8561 TIP3 OH2  OT    -0.834000       15.9994           0
   27053 WT1  8561 TIP3 H1   HT     0.417000        1.0080           0
   27054 WT1  8561 TIP3 H2   HT     0.417000        1.0080           0
   27055 WT1  8562 TIP3 OH2  OT    -0.834000       15.9994           0
   27056 WT1  8562 TIP3 H1   HT     0.417000        1.0080           0
   27057 WT1  8562 TIP3 H2   HT     0.417000        1.0080           0
   27058 WT1  8563 TIP3 OH2  OT    -0.834000       15.9994           0
   27059 WT1  8563 TIP3 H1   HT     0.417000        1.0080           0
   27060 WT1  8563 TIP3 H2   HT     0.417000        1.0080           0
   27061 WT1  8564 TIP3 OH2  OT    -0.834000       15.9994           0
   27062 WT1  8564 TIP3 H1   HT     0.417000        1.0080           0
   27063 WT1  8564 TIP3 H2   HT     0.417000        1.0080           0
   27064 WT1  8565 TIP3 OH2  OT    -0.834000       15.9994           0
   27065 WT1  8565 TIP3 H1   HT     0.417000        1.0080           0
   27066 WT1  8565 TIP3 H2   HT     0.417000        1.0080           0
   27067 WT1  8566 TIP3 OH2  OT    -0.834000       15.9994           0
   27068 WT1  8566 TIP3 H1   HT     0.417000        1.0080           0
   27069 WT1  8566 TIP3 H2   HT     0.417000        1.0080           0
   27070 WT1  8567 TIP3 OH2  OT    -0.834000       15.9994           0
   27071 WT1  8567 TIP3 H1   HT     0.417000        1.0080           0
   27072 WT1  8567 TIP3 H2   HT     0.417000        1.0080           0
   27073 WT1  8568 TIP3 OH2  OT    -0.834000       15.9994           0
   27074 WT1  8568 TIP3 H1   HT     0.417000        1.0080           0
   27075 WT1  8568 TIP3 H2   HT     0.417000        1.0080           0
   27076 WT1  8571 TIP3 OH2  OT    -0.834000       15.9994           0
   27077 WT1  8571 TIP3 H1   HT     0.417000        1.0080           0
   27078 WT1  8571 TIP3 H2   HT     0.417000        1.0080           0
   27079 WT1  8572 TIP3 OH2  OT    -0.834000       15.9994           0
   27080 WT1  8572 TIP3 H1   HT     0.417000        1.0080           0
   27081 WT1  8572 TIP3 H2   HT     0.417000        1.0080           0
   27082 WT1  8573 TIP3 OH2  OT    -0.834000       15.9994           0
   27083 WT1  8573 TIP3 H1   HT     0.417000        1.0080           0
   27084 WT1  8573 TIP3 H2   HT     0.417000        1.0080           0
   27085 WT1  8574 TIP3 OH2  OT    -0.834000       15.9994           0
   27086 WT1  8574 TIP3 H1   HT     0.417000        1.0080           0
   27087 WT1  8574 TIP3 H2   HT     0.417000        1.0080           0
   27088 WT1  8575 TIP3 OH2  OT    -0.834000       15.9994           0
   27089 WT1  8575 TIP3 H1   HT     0.417000        1.0080           0
   27090 WT1  8575 TIP3 H2   HT     0.417000        1.0080           0
   27091 WT1  8576 TIP3 OH2  OT    -0.834000       15.9994           0
   27092 WT1  8576 TIP3 H1   HT     0.417000        1.0080           0
   27093 WT1  8576 TIP3 H2   HT     0.417000        1.0080           0
   27094 WT1  8577 TIP3 OH2  OT    -0.834000       15.9994           0
   27095 WT1  8577 TIP3 H1   HT     0.417000        1.0080           0
   27096 WT1  8577 TIP3 H2   HT     0.417000        1.0080           0
   27097 WT1  8578 TIP3 OH2  OT    -0.834000       15.9994           0
   27098 WT1  8578 TIP3 H1   HT     0.417000        1.0080           0
   27099 WT1  8578 TIP3 H2   HT     0.417000        1.0080           0
   27100 WT1  8579 TIP3 OH2  OT    -0.834000       15.9994           0
   27101 WT1  8579 TIP3 H1   HT     0.417000        1.0080           0
   27102 WT1  8579 TIP3 H2   HT     0.417000        1.0080           0
   27103 WT1  8580 TIP3 OH2  OT    -0.834000       15.9994           0
   27104 WT1  8580 TIP3 H1   HT     0.417000        1.0080           0
   27105 WT1  8580 TIP3 H2   HT     0.417000        1.0080           0
   27106 WT1  8581 TIP3 OH2  OT    -0.834000       15.9994           0
   27107 WT1  8581 TIP3 H1   HT     0.417000        1.0080           0
   27108 WT1  8581 TIP3 H2   HT     0.417000        1.0080           0
   27109 WT1  8582 TIP3 OH2  OT    -0.834000       15.9994           0
   27110 WT1  8582 TIP3 H1   HT     0.417000        1.0080           0
   27111 WT1  8582 TIP3 H2   HT     0.417000        1.0080           0
   27112 WT1  8583 TIP3 OH2  OT    -0.834000       15.9994           0
   27113 WT1  8583 TIP3 H1   HT     0.417000        1.0080           0
   27114 WT1  8583 TIP3 H2   HT     0.417000        1.0080           0
   27115 WT1  8584 TIP3 OH2  OT    -0.834000       15.9994           0
   27116 WT1  8584 TIP3 H1   HT     0.417000        1.0080           0
   27117 WT1  8584 TIP3 H2   HT     0.417000        1.0080           0
   27118 WT1  8585 TIP3 OH2  OT    -0.834000       15.9994           0
   27119 WT1  8585 TIP3 H1   HT     0.417000        1.0080           0
   27120 WT1  8585 TIP3 H2   HT     0.417000        1.0080           0
   27121 WT1  8588 TIP3 OH2  OT    -0.834000       15.9994           0
   27122 WT1  8588 TIP3 H1   HT     0.417000        1.0080           0
   27123 WT1  8588 TIP3 H2   HT     0.417000        1.0080           0
   27124 WT1  8589 TIP3 OH2  OT    -0.834000       15.9994           0
   27125 WT1  8589 TIP3 H1   HT     0.417000        1.0080           0
   27126 WT1  8589 TIP3 H2   HT     0.417000        1.0080           0
   27127 WT1  8590 TIP3 OH2  OT    -0.834000       15.9994           0
   27128 WT1  8590 TIP3 H1   HT     0.417000        1.0080           0
   27129 WT1  8590 TIP3 H2   HT     0.417000        1.0080           0
   27130 WT1  8591 TIP3 OH2  OT    -0.834000       15.9994           0
   27131 WT1  8591 TIP3 H1   HT     0.417000        1.0080           0
   27132 WT1  8591 TIP3 H2   HT     0.417000        1.0080           0
   27133 WT1  8592 TIP3 OH2  OT    -0.834000       15.9994           0
   27134 WT1  8592 TIP3 H1   HT     0.417000        1.0080           0
   27135 WT1  8592 TIP3 H2   HT     0.417000        1.0080           0
   27136 WT1  8593 TIP3 OH2  OT    -0.834000       15.9994           0
   27137 WT1  8593 TIP3 H1   HT     0.417000        1.0080           0
   27138 WT1  8593 TIP3 H2   HT     0.417000        1.0080           0
   27139 WT1  8594 TIP3 OH2  OT    -0.834000       15.9994           0
   27140 WT1  8594 TIP3 H1   HT     0.417000        1.0080           0
   27141 WT1  8594 TIP3 H2   HT     0.417000        1.0080           0
   27142 WT1  8595 TIP3 OH2  OT    -0.834000       15.9994           0
   27143 WT1  8595 TIP3 H1   HT     0.417000        1.0080           0
   27144 WT1  8595 TIP3 H2   HT     0.417000        1.0080           0
   27145 WT1  8596 TIP3 OH2  OT    -0.834000       15.9994           0
   27146 WT1  8596 TIP3 H1   HT     0.417000        1.0080           0
   27147 WT1  8596 TIP3 H2   HT     0.417000        1.0080           0
   27148 WT1  8597 TIP3 OH2  OT    -0.834000       15.9994           0
   27149 WT1  8597 TIP3 H1   HT     0.417000        1.0080           0
   27150 WT1  8597 TIP3 H2   HT     0.417000        1.0080           0
   27151 WT1  8598 TIP3 OH2  OT    -0.834000       15.9994           0
   27152 WT1  8598 TIP3 H1   HT     0.417000        1.0080           0
   27153 WT1  8598 TIP3 H2   HT     0.417000        1.0080           0
   27154 WT1  8599 TIP3 OH2  OT    -0.834000       15.9994           0
   27155 WT1  8599 TIP3 H1   HT     0.417000        1.0080           0
   27156 WT1  8599 TIP3 H2   HT     0.417000        1.0080           0
   27157 WT1  8600 TIP3 OH2  OT    -0.834000       15.9994           0
   27158 WT1  8600 TIP3 H1   HT     0.417000        1.0080           0
   27159 WT1  8600 TIP3 H2   HT     0.417000        1.0080           0
   27160 WT1  8601 TIP3 OH2  OT    -0.834000       15.9994           0
   27161 WT1  8601 TIP3 H1   HT     0.417000        1.0080           0
   27162 WT1  8601 TIP3 H2   HT     0.417000        1.0080           0
   27163 WT1  8602 TIP3 OH2  OT    -0.834000       15.9994           0
   27164 WT1  8602 TIP3 H1   HT     0.417000        1.0080           0
   27165 WT1  8602 TIP3 H2   HT     0.417000        1.0080           0
   27166 WT1  8604 TIP3 OH2  OT    -0.834000       15.9994           0
   27167 WT1  8604 TIP3 H1   HT     0.417000        1.0080           0
   27168 WT1  8604 TIP3 H2   HT     0.417000        1.0080           0
   27169 WT1  8605 TIP3 OH2  OT    -0.834000       15.9994           0
   27170 WT1  8605 TIP3 H1   HT     0.417000        1.0080           0
   27171 WT1  8605 TIP3 H2   HT     0.417000        1.0080           0
   27172 WT1  8606 TIP3 OH2  OT    -0.834000       15.9994           0
   27173 WT1  8606 TIP3 H1   HT     0.417000        1.0080           0
   27174 WT1  8606 TIP3 H2   HT     0.417000        1.0080           0
   27175 WT1  8607 TIP3 OH2  OT    -0.834000       15.9994           0
   27176 WT1  8607 TIP3 H1   HT     0.417000        1.0080           0
   27177 WT1  8607 TIP3 H2   HT     0.417000        1.0080           0
   27178 WT1  8608 TIP3 OH2  OT    -0.834000       15.9994           0
   27179 WT1  8608 TIP3 H1   HT     0.417000        1.0080           0
   27180 WT1  8608 TIP3 H2   HT     0.417000        1.0080           0
   27181 WT1  8609 TIP3 OH2  OT    -0.834000       15.9994           0
   27182 WT1  8609 TIP3 H1   HT     0.417000        1.0080           0
   27183 WT1  8609 TIP3 H2   HT     0.417000        1.0080           0
   27184 WT1  8610 TIP3 OH2  OT    -0.834000       15.9994           0
   27185 WT1  8610 TIP3 H1   HT     0.417000        1.0080           0
   27186 WT1  8610 TIP3 H2   HT     0.417000        1.0080           0
   27187 WT1  8611 TIP3 OH2  OT    -0.834000       15.9994           0
   27188 WT1  8611 TIP3 H1   HT     0.417000        1.0080           0
   27189 WT1  8611 TIP3 H2   HT     0.417000        1.0080           0
   27190 WT1  8612 TIP3 OH2  OT    -0.834000       15.9994           0
   27191 WT1  8612 TIP3 H1   HT     0.417000        1.0080           0
   27192 WT1  8612 TIP3 H2   HT     0.417000        1.0080           0
   27193 WT1  8613 TIP3 OH2  OT    -0.834000       15.9994           0
   27194 WT1  8613 TIP3 H1   HT     0.417000        1.0080           0
   27195 WT1  8613 TIP3 H2   HT     0.417000        1.0080           0
   27196 WT1  8614 TIP3 OH2  OT    -0.834000       15.9994           0
   27197 WT1  8614 TIP3 H1   HT     0.417000        1.0080           0
   27198 WT1  8614 TIP3 H2   HT     0.417000        1.0080           0
   27199 WT1  8615 TIP3 OH2  OT    -0.834000       15.9994           0
   27200 WT1  8615 TIP3 H1   HT     0.417000        1.0080           0
   27201 WT1  8615 TIP3 H2   HT     0.417000        1.0080           0
   27202 WT1  8616 TIP3 OH2  OT    -0.834000       15.9994           0
   27203 WT1  8616 TIP3 H1   HT     0.417000        1.0080           0
   27204 WT1  8616 TIP3 H2   HT     0.417000        1.0080           0
   27205 WT1  8617 TIP3 OH2  OT    -0.834000       15.9994           0
   27206 WT1  8617 TIP3 H1   HT     0.417000        1.0080           0
   27207 WT1  8617 TIP3 H2   HT     0.417000        1.0080           0
   27208 WT1  8618 TIP3 OH2  OT    -0.834000       15.9994           0
   27209 WT1  8618 TIP3 H1   HT     0.417000        1.0080           0
   27210 WT1  8618 TIP3 H2   HT     0.417000        1.0080           0
   27211 WT1  8619 TIP3 OH2  OT    -0.834000       15.9994           0
   27212 WT1  8619 TIP3 H1   HT     0.417000        1.0080           0
   27213 WT1  8619 TIP3 H2   HT     0.417000        1.0080           0
   27214 WT1  8620 TIP3 OH2  OT    -0.834000       15.9994           0
   27215 WT1  8620 TIP3 H1   HT     0.417000        1.0080           0
   27216 WT1  8620 TIP3 H2   HT     0.417000        1.0080           0
   27217 WT1  8621 TIP3 OH2  OT    -0.834000       15.9994           0
   27218 WT1  8621 TIP3 H1   HT     0.417000        1.0080           0
   27219 WT1  8621 TIP3 H2   HT     0.417000        1.0080           0
   27220 WT1  8622 TIP3 OH2  OT    -0.834000       15.9994           0
   27221 WT1  8622 TIP3 H1   HT     0.417000        1.0080           0
   27222 WT1  8622 TIP3 H2   HT     0.417000        1.0080           0
   27223 WT1  8623 TIP3 OH2  OT    -0.834000       15.9994           0
   27224 WT1  8623 TIP3 H1   HT     0.417000        1.0080           0
   27225 WT1  8623 TIP3 H2   HT     0.417000        1.0080           0
   27226 WT1  8624 TIP3 OH2  OT    -0.834000       15.9994           0
   27227 WT1  8624 TIP3 H1   HT     0.417000        1.0080           0
   27228 WT1  8624 TIP3 H2   HT     0.417000        1.0080           0
   27229 WT1  8625 TIP3 OH2  OT    -0.834000       15.9994           0
   27230 WT1  8625 TIP3 H1   HT     0.417000        1.0080           0
   27231 WT1  8625 TIP3 H2   HT     0.417000        1.0080           0
   27232 WT1  8627 TIP3 OH2  OT    -0.834000       15.9994           0
   27233 WT1  8627 TIP3 H1   HT     0.417000        1.0080           0
   27234 WT1  8627 TIP3 H2   HT     0.417000        1.0080           0
   27235 WT1  8628 TIP3 OH2  OT    -0.834000       15.9994           0
   27236 WT1  8628 TIP3 H1   HT     0.417000        1.0080           0
   27237 WT1  8628 TIP3 H2   HT     0.417000        1.0080           0
   27238 WT1  8629 TIP3 OH2  OT    -0.834000       15.9994           0
   27239 WT1  8629 TIP3 H1   HT     0.417000        1.0080           0
   27240 WT1  8629 TIP3 H2   HT     0.417000        1.0080           0
   27241 WT1  8631 TIP3 OH2  OT    -0.834000       15.9994           0
   27242 WT1  8631 TIP3 H1   HT     0.417000        1.0080           0
   27243 WT1  8631 TIP3 H2   HT     0.417000        1.0080           0
   27244 WT1  8633 TIP3 OH2  OT    -0.834000       15.9994           0
   27245 WT1  8633 TIP3 H1   HT     0.417000        1.0080           0
   27246 WT1  8633 TIP3 H2   HT     0.417000        1.0080           0
   27247 WT1  8634 TIP3 OH2  OT    -0.834000       15.9994           0
   27248 WT1  8634 TIP3 H1   HT     0.417000        1.0080           0
   27249 WT1  8634 TIP3 H2   HT     0.417000        1.0080           0
   27250 WT1  8635 TIP3 OH2  OT    -0.834000       15.9994           0
   27251 WT1  8635 TIP3 H1   HT     0.417000        1.0080           0
   27252 WT1  8635 TIP3 H2   HT     0.417000        1.0080           0
   27253 WT1  8636 TIP3 OH2  OT    -0.834000       15.9994           0
   27254 WT1  8636 TIP3 H1   HT     0.417000        1.0080           0
   27255 WT1  8636 TIP3 H2   HT     0.417000        1.0080           0
   27256 WT1  8637 TIP3 OH2  OT    -0.834000       15.9994           0
   27257 WT1  8637 TIP3 H1   HT     0.417000        1.0080           0
   27258 WT1  8637 TIP3 H2   HT     0.417000        1.0080           0
   27259 WT1  8638 TIP3 OH2  OT    -0.834000       15.9994           0
   27260 WT1  8638 TIP3 H1   HT     0.417000        1.0080           0
   27261 WT1  8638 TIP3 H2   HT     0.417000        1.0080           0
   27262 WT1  8639 TIP3 OH2  OT    -0.834000       15.9994           0
   27263 WT1  8639 TIP3 H1   HT     0.417000        1.0080           0
   27264 WT1  8639 TIP3 H2   HT     0.417000        1.0080           0
   27265 WT1  8640 TIP3 OH2  OT    -0.834000       15.9994           0
   27266 WT1  8640 TIP3 H1   HT     0.417000        1.0080           0
   27267 WT1  8640 TIP3 H2   HT     0.417000        1.0080           0
   27268 WT1  8641 TIP3 OH2  OT    -0.834000       15.9994           0
   27269 WT1  8641 TIP3 H1   HT     0.417000        1.0080           0
   27270 WT1  8641 TIP3 H2   HT     0.417000        1.0080           0
   27271 WT1  8642 TIP3 OH2  OT    -0.834000       15.9994           0
   27272 WT1  8642 TIP3 H1   HT     0.417000        1.0080           0
   27273 WT1  8642 TIP3 H2   HT     0.417000        1.0080           0
   27274 WT1  8643 TIP3 OH2  OT    -0.834000       15.9994           0
   27275 WT1  8643 TIP3 H1   HT     0.417000        1.0080           0
   27276 WT1  8643 TIP3 H2   HT     0.417000        1.0080           0
   27277 WT1  8644 TIP3 OH2  OT    -0.834000       15.9994           0
   27278 WT1  8644 TIP3 H1   HT     0.417000        1.0080           0
   27279 WT1  8644 TIP3 H2   HT     0.417000        1.0080           0
   27280 WT1  8645 TIP3 OH2  OT    -0.834000       15.9994           0
   27281 WT1  8645 TIP3 H1   HT     0.417000        1.0080           0
   27282 WT1  8645 TIP3 H2   HT     0.417000        1.0080           0
   27283 WT1  8646 TIP3 OH2  OT    -0.834000       15.9994           0
   27284 WT1  8646 TIP3 H1   HT     0.417000        1.0080           0
   27285 WT1  8646 TIP3 H2   HT     0.417000        1.0080           0
   27286 WT1  8647 TIP3 OH2  OT    -0.834000       15.9994           0
   27287 WT1  8647 TIP3 H1   HT     0.417000        1.0080           0
   27288 WT1  8647 TIP3 H2   HT     0.417000        1.0080           0
   27289 WT1  8648 TIP3 OH2  OT    -0.834000       15.9994           0
   27290 WT1  8648 TIP3 H1   HT     0.417000        1.0080           0
   27291 WT1  8648 TIP3 H2   HT     0.417000        1.0080           0
   27292 WT1  8649 TIP3 OH2  OT    -0.834000       15.9994           0
   27293 WT1  8649 TIP3 H1   HT     0.417000        1.0080           0
   27294 WT1  8649 TIP3 H2   HT     0.417000        1.0080           0
   27295 WT1  8652 TIP3 OH2  OT    -0.834000       15.9994           0
   27296 WT1  8652 TIP3 H1   HT     0.417000        1.0080           0
   27297 WT1  8652 TIP3 H2   HT     0.417000        1.0080           0
   27298 WT1  8653 TIP3 OH2  OT    -0.834000       15.9994           0
   27299 WT1  8653 TIP3 H1   HT     0.417000        1.0080           0
   27300 WT1  8653 TIP3 H2   HT     0.417000        1.0080           0
   27301 WT1  8654 TIP3 OH2  OT    -0.834000       15.9994           0
   27302 WT1  8654 TIP3 H1   HT     0.417000        1.0080           0
   27303 WT1  8654 TIP3 H2   HT     0.417000        1.0080           0
   27304 WT1  8655 TIP3 OH2  OT    -0.834000       15.9994           0
   27305 WT1  8655 TIP3 H1   HT     0.417000        1.0080           0
   27306 WT1  8655 TIP3 H2   HT     0.417000        1.0080           0
   27307 WT1  8656 TIP3 OH2  OT    -0.834000       15.9994           0
   27308 WT1  8656 TIP3 H1   HT     0.417000        1.0080           0
   27309 WT1  8656 TIP3 H2   HT     0.417000        1.0080           0
   27310 WT1  8657 TIP3 OH2  OT    -0.834000       15.9994           0
   27311 WT1  8657 TIP3 H1   HT     0.417000        1.0080           0
   27312 WT1  8657 TIP3 H2   HT     0.417000        1.0080           0
   27313 WT1  8658 TIP3 OH2  OT    -0.834000       15.9994           0
   27314 WT1  8658 TIP3 H1   HT     0.417000        1.0080           0
   27315 WT1  8658 TIP3 H2   HT     0.417000        1.0080           0
   27316 WT1  8659 TIP3 OH2  OT    -0.834000       15.9994           0
   27317 WT1  8659 TIP3 H1   HT     0.417000        1.0080           0
   27318 WT1  8659 TIP3 H2   HT     0.417000        1.0080           0
   27319 WT1  8660 TIP3 OH2  OT    -0.834000       15.9994           0
   27320 WT1  8660 TIP3 H1   HT     0.417000        1.0080           0
   27321 WT1  8660 TIP3 H2   HT     0.417000        1.0080           0
   27322 WT1  8662 TIP3 OH2  OT    -0.834000       15.9994           0
   27323 WT1  8662 TIP3 H1   HT     0.417000        1.0080           0
   27324 WT1  8662 TIP3 H2   HT     0.417000        1.0080           0
   27325 WT1  8663 TIP3 OH2  OT    -0.834000       15.9994           0
   27326 WT1  8663 TIP3 H1   HT     0.417000        1.0080           0
   27327 WT1  8663 TIP3 H2   HT     0.417000        1.0080           0
   27328 WT1  8664 TIP3 OH2  OT    -0.834000       15.9994           0
   27329 WT1  8664 TIP3 H1   HT     0.417000        1.0080           0
   27330 WT1  8664 TIP3 H2   HT     0.417000        1.0080           0
   27331 WT1  8665 TIP3 OH2  OT    -0.834000       15.9994           0
   27332 WT1  8665 TIP3 H1   HT     0.417000        1.0080           0
   27333 WT1  8665 TIP3 H2   HT     0.417000        1.0080           0
   27334 WT1  8666 TIP3 OH2  OT    -0.834000       15.9994           0
   27335 WT1  8666 TIP3 H1   HT     0.417000        1.0080           0
   27336 WT1  8666 TIP3 H2   HT     0.417000        1.0080           0
   27337 WT1  8667 TIP3 OH2  OT    -0.834000       15.9994           0
   27338 WT1  8667 TIP3 H1   HT     0.417000        1.0080           0
   27339 WT1  8667 TIP3 H2   HT     0.417000        1.0080           0
   27340 WT1  8668 TIP3 OH2  OT    -0.834000       15.9994           0
   27341 WT1  8668 TIP3 H1   HT     0.417000        1.0080           0
   27342 WT1  8668 TIP3 H2   HT     0.417000        1.0080           0
   27343 WT1  8670 TIP3 OH2  OT    -0.834000       15.9994           0
   27344 WT1  8670 TIP3 H1   HT     0.417000        1.0080           0
   27345 WT1  8670 TIP3 H2   HT     0.417000        1.0080           0
   27346 WT1  8672 TIP3 OH2  OT    -0.834000       15.9994           0
   27347 WT1  8672 TIP3 H1   HT     0.417000        1.0080           0
   27348 WT1  8672 TIP3 H2   HT     0.417000        1.0080           0
   27349 WT1  8673 TIP3 OH2  OT    -0.834000       15.9994           0
   27350 WT1  8673 TIP3 H1   HT     0.417000        1.0080           0
   27351 WT1  8673 TIP3 H2   HT     0.417000        1.0080           0
   27352 WT1  8674 TIP3 OH2  OT    -0.834000       15.9994           0
   27353 WT1  8674 TIP3 H1   HT     0.417000        1.0080           0
   27354 WT1  8674 TIP3 H2   HT     0.417000        1.0080           0
   27355 WT1  8675 TIP3 OH2  OT    -0.834000       15.9994           0
   27356 WT1  8675 TIP3 H1   HT     0.417000        1.0080           0
   27357 WT1  8675 TIP3 H2   HT     0.417000        1.0080           0
   27358 WT1  8676 TIP3 OH2  OT    -0.834000       15.9994           0
   27359 WT1  8676 TIP3 H1   HT     0.417000        1.0080           0
   27360 WT1  8676 TIP3 H2   HT     0.417000        1.0080           0
   27361 WT1  8677 TIP3 OH2  OT    -0.834000       15.9994           0
   27362 WT1  8677 TIP3 H1   HT     0.417000        1.0080           0
   27363 WT1  8677 TIP3 H2   HT     0.417000        1.0080           0
   27364 WT1  8678 TIP3 OH2  OT    -0.834000       15.9994           0
   27365 WT1  8678 TIP3 H1   HT     0.417000        1.0080           0
   27366 WT1  8678 TIP3 H2   HT     0.417000        1.0080           0
   27367 WT1  8679 TIP3 OH2  OT    -0.834000       15.9994           0
   27368 WT1  8679 TIP3 H1   HT     0.417000        1.0080           0
   27369 WT1  8679 TIP3 H2   HT     0.417000        1.0080           0
   27370 WT1  8680 TIP3 OH2  OT    -0.834000       15.9994           0
   27371 WT1  8680 TIP3 H1   HT     0.417000        1.0080           0
   27372 WT1  8680 TIP3 H2   HT     0.417000        1.0080           0
   27373 WT1  8681 TIP3 OH2  OT    -0.834000       15.9994           0
   27374 WT1  8681 TIP3 H1   HT     0.417000        1.0080           0
   27375 WT1  8681 TIP3 H2   HT     0.417000        1.0080           0
   27376 WT1  8682 TIP3 OH2  OT    -0.834000       15.9994           0
   27377 WT1  8682 TIP3 H1   HT     0.417000        1.0080           0
   27378 WT1  8682 TIP3 H2   HT     0.417000        1.0080           0
   27379 WT1  8683 TIP3 OH2  OT    -0.834000       15.9994           0
   27380 WT1  8683 TIP3 H1   HT     0.417000        1.0080           0
   27381 WT1  8683 TIP3 H2   HT     0.417000        1.0080           0
   27382 WT1  8684 TIP3 OH2  OT    -0.834000       15.9994           0
   27383 WT1  8684 TIP3 H1   HT     0.417000        1.0080           0
   27384 WT1  8684 TIP3 H2   HT     0.417000        1.0080           0
   27385 WT1  8685 TIP3 OH2  OT    -0.834000       15.9994           0
   27386 WT1  8685 TIP3 H1   HT     0.417000        1.0080           0
   27387 WT1  8685 TIP3 H2   HT     0.417000        1.0080           0
   27388 WT1  8686 TIP3 OH2  OT    -0.834000       15.9994           0
   27389 WT1  8686 TIP3 H1   HT     0.417000        1.0080           0
   27390 WT1  8686 TIP3 H2   HT     0.417000        1.0080           0
   27391 WT1  8687 TIP3 OH2  OT    -0.834000       15.9994           0
   27392 WT1  8687 TIP3 H1   HT     0.417000        1.0080           0
   27393 WT1  8687 TIP3 H2   HT     0.417000        1.0080           0
   27394 WT1  8688 TIP3 OH2  OT    -0.834000       15.9994           0
   27395 WT1  8688 TIP3 H1   HT     0.417000        1.0080           0
   27396 WT1  8688 TIP3 H2   HT     0.417000        1.0080           0
   27397 WT1  8689 TIP3 OH2  OT    -0.834000       15.9994           0
   27398 WT1  8689 TIP3 H1   HT     0.417000        1.0080           0
   27399 WT1  8689 TIP3 H2   HT     0.417000        1.0080           0
   27400 WT1  8690 TIP3 OH2  OT    -0.834000       15.9994           0
   27401 WT1  8690 TIP3 H1   HT     0.417000        1.0080           0
   27402 WT1  8690 TIP3 H2   HT     0.417000        1.0080           0
   27403 WT1  8691 TIP3 OH2  OT    -0.834000       15.9994           0
   27404 WT1  8691 TIP3 H1   HT     0.417000        1.0080           0
   27405 WT1  8691 TIP3 H2   HT     0.417000        1.0080           0
   27406 WT1  8692 TIP3 OH2  OT    -0.834000       15.9994           0
   27407 WT1  8692 TIP3 H1   HT     0.417000        1.0080           0
   27408 WT1  8692 TIP3 H2   HT     0.417000        1.0080           0
   27409 WT1  8694 TIP3 OH2  OT    -0.834000       15.9994           0
   27410 WT1  8694 TIP3 H1   HT     0.417000        1.0080           0
   27411 WT1  8694 TIP3 H2   HT     0.417000        1.0080           0
   27412 WT1  8695 TIP3 OH2  OT    -0.834000       15.9994           0
   27413 WT1  8695 TIP3 H1   HT     0.417000        1.0080           0
   27414 WT1  8695 TIP3 H2   HT     0.417000        1.0080           0
   27415 WT1  8696 TIP3 OH2  OT    -0.834000       15.9994           0
   27416 WT1  8696 TIP3 H1   HT     0.417000        1.0080           0
   27417 WT1  8696 TIP3 H2   HT     0.417000        1.0080           0
   27418 WT1  8697 TIP3 OH2  OT    -0.834000       15.9994           0
   27419 WT1  8697 TIP3 H1   HT     0.417000        1.0080           0
   27420 WT1  8697 TIP3 H2   HT     0.417000        1.0080           0
   27421 WT1  8699 TIP3 OH2  OT    -0.834000       15.9994           0
   27422 WT1  8699 TIP3 H1   HT     0.417000        1.0080           0
   27423 WT1  8699 TIP3 H2   HT     0.417000        1.0080           0
   27424 WT1  8700 TIP3 OH2  OT    -0.834000       15.9994           0
   27425 WT1  8700 TIP3 H1   HT     0.417000        1.0080           0
   27426 WT1  8700 TIP3 H2   HT     0.417000        1.0080           0
   27427 WT1  8702 TIP3 OH2  OT    -0.834000       15.9994           0
   27428 WT1  8702 TIP3 H1   HT     0.417000        1.0080           0
   27429 WT1  8702 TIP3 H2   HT     0.417000        1.0080           0
   27430 WT1  8703 TIP3 OH2  OT    -0.834000       15.9994           0
   27431 WT1  8703 TIP3 H1   HT     0.417000        1.0080           0
   27432 WT1  8703 TIP3 H2   HT     0.417000        1.0080           0
   27433 WT1  8704 TIP3 OH2  OT    -0.834000       15.9994           0
   27434 WT1  8704 TIP3 H1   HT     0.417000        1.0080           0
   27435 WT1  8704 TIP3 H2   HT     0.417000        1.0080           0
   27436 WT1  8705 TIP3 OH2  OT    -0.834000       15.9994           0
   27437 WT1  8705 TIP3 H1   HT     0.417000        1.0080           0
   27438 WT1  8705 TIP3 H2   HT     0.417000        1.0080           0
   27439 WT1  8706 TIP3 OH2  OT    -0.834000       15.9994           0
   27440 WT1  8706 TIP3 H1   HT     0.417000        1.0080           0
   27441 WT1  8706 TIP3 H2   HT     0.417000        1.0080           0
   27442 WT1  8707 TIP3 OH2  OT    -0.834000       15.9994           0
   27443 WT1  8707 TIP3 H1   HT     0.417000        1.0080           0
   27444 WT1  8707 TIP3 H2   HT     0.417000        1.0080           0
   27445 WT1  8708 TIP3 OH2  OT    -0.834000       15.9994           0
   27446 WT1  8708 TIP3 H1   HT     0.417000        1.0080           0
   27447 WT1  8708 TIP3 H2   HT     0.417000        1.0080           0
   27448 WT1  8709 TIP3 OH2  OT    -0.834000       15.9994           0
   27449 WT1  8709 TIP3 H1   HT     0.417000        1.0080           0
   27450 WT1  8709 TIP3 H2   HT     0.417000        1.0080           0
   27451 WT1  8710 TIP3 OH2  OT    -0.834000       15.9994           0
   27452 WT1  8710 TIP3 H1   HT     0.417000        1.0080           0
   27453 WT1  8710 TIP3 H2   HT     0.417000        1.0080           0
   27454 WT1  8711 TIP3 OH2  OT    -0.834000       15.9994           0
   27455 WT1  8711 TIP3 H1   HT     0.417000        1.0080           0
   27456 WT1  8711 TIP3 H2   HT     0.417000        1.0080           0
   27457 WT1  8712 TIP3 OH2  OT    -0.834000       15.9994           0
   27458 WT1  8712 TIP3 H1   HT     0.417000        1.0080           0
   27459 WT1  8712 TIP3 H2   HT     0.417000        1.0080           0
   27460 WT1  8713 TIP3 OH2  OT    -0.834000       15.9994           0
   27461 WT1  8713 TIP3 H1   HT     0.417000        1.0080           0
   27462 WT1  8713 TIP3 H2   HT     0.417000        1.0080           0
   27463 WT1  8714 TIP3 OH2  OT    -0.834000       15.9994           0
   27464 WT1  8714 TIP3 H1   HT     0.417000        1.0080           0
   27465 WT1  8714 TIP3 H2   HT     0.417000        1.0080           0
   27466 WT1  8715 TIP3 OH2  OT    -0.834000       15.9994           0
   27467 WT1  8715 TIP3 H1   HT     0.417000        1.0080           0
   27468 WT1  8715 TIP3 H2   HT     0.417000        1.0080           0
   27469 WT1  8716 TIP3 OH2  OT    -0.834000       15.9994           0
   27470 WT1  8716 TIP3 H1   HT     0.417000        1.0080           0
   27471 WT1  8716 TIP3 H2   HT     0.417000        1.0080           0
   27472 WT1  8717 TIP3 OH2  OT    -0.834000       15.9994           0
   27473 WT1  8717 TIP3 H1   HT     0.417000        1.0080           0
   27474 WT1  8717 TIP3 H2   HT     0.417000        1.0080           0
   27475 WT1  8718 TIP3 OH2  OT    -0.834000       15.9994           0
   27476 WT1  8718 TIP3 H1   HT     0.417000        1.0080           0
   27477 WT1  8718 TIP3 H2   HT     0.417000        1.0080           0
   27478 WT1  8719 TIP3 OH2  OT    -0.834000       15.9994           0
   27479 WT1  8719 TIP3 H1   HT     0.417000        1.0080           0
   27480 WT1  8719 TIP3 H2   HT     0.417000        1.0080           0
   27481 WT1  8720 TIP3 OH2  OT    -0.834000       15.9994           0
   27482 WT1  8720 TIP3 H1   HT     0.417000        1.0080           0
   27483 WT1  8720 TIP3 H2   HT     0.417000        1.0080           0
   27484 WT1  8721 TIP3 OH2  OT    -0.834000       15.9994           0
   27485 WT1  8721 TIP3 H1   HT     0.417000        1.0080           0
   27486 WT1  8721 TIP3 H2   HT     0.417000        1.0080           0
   27487 WT1  8722 TIP3 OH2  OT    -0.834000       15.9994           0
   27488 WT1  8722 TIP3 H1   HT     0.417000        1.0080           0
   27489 WT1  8722 TIP3 H2   HT     0.417000        1.0080           0
   27490 WT1  8723 TIP3 OH2  OT    -0.834000       15.9994           0
   27491 WT1  8723 TIP3 H1   HT     0.417000        1.0080           0
   27492 WT1  8723 TIP3 H2   HT     0.417000        1.0080           0
   27493 WT1  8724 TIP3 OH2  OT    -0.834000       15.9994           0
   27494 WT1  8724 TIP3 H1   HT     0.417000        1.0080           0
   27495 WT1  8724 TIP3 H2   HT     0.417000        1.0080           0
   27496 WT1  8725 TIP3 OH2  OT    -0.834000       15.9994           0
   27497 WT1  8725 TIP3 H1   HT     0.417000        1.0080           0
   27498 WT1  8725 TIP3 H2   HT     0.417000        1.0080           0
   27499 WT1  8726 TIP3 OH2  OT    -0.834000       15.9994           0
   27500 WT1  8726 TIP3 H1   HT     0.417000        1.0080           0
   27501 WT1  8726 TIP3 H2   HT     0.417000        1.0080           0
   27502 WT1  8727 TIP3 OH2  OT    -0.834000       15.9994           0
   27503 WT1  8727 TIP3 H1   HT     0.417000        1.0080           0
   27504 WT1  8727 TIP3 H2   HT     0.417000        1.0080           0
   27505 WT1  8729 TIP3 OH2  OT    -0.834000       15.9994           0
   27506 WT1  8729 TIP3 H1   HT     0.417000        1.0080           0
   27507 WT1  8729 TIP3 H2   HT     0.417000        1.0080           0
   27508 WT1  8730 TIP3 OH2  OT    -0.834000       15.9994           0
   27509 WT1  8730 TIP3 H1   HT     0.417000        1.0080           0
   27510 WT1  8730 TIP3 H2   HT     0.417000        1.0080           0
   27511 WT1  8731 TIP3 OH2  OT    -0.834000       15.9994           0
   27512 WT1  8731 TIP3 H1   HT     0.417000        1.0080           0
   27513 WT1  8731 TIP3 H2   HT     0.417000        1.0080           0
   27514 WT1  8732 TIP3 OH2  OT    -0.834000       15.9994           0
   27515 WT1  8732 TIP3 H1   HT     0.417000        1.0080           0
   27516 WT1  8732 TIP3 H2   HT     0.417000        1.0080           0
   27517 WT1  8734 TIP3 OH2  OT    -0.834000       15.9994           0
   27518 WT1  8734 TIP3 H1   HT     0.417000        1.0080           0
   27519 WT1  8734 TIP3 H2   HT     0.417000        1.0080           0
   27520 WT1  8735 TIP3 OH2  OT    -0.834000       15.9994           0
   27521 WT1  8735 TIP3 H1   HT     0.417000        1.0080           0
   27522 WT1  8735 TIP3 H2   HT     0.417000        1.0080           0
   27523 WT1  8736 TIP3 OH2  OT    -0.834000       15.9994           0
   27524 WT1  8736 TIP3 H1   HT     0.417000        1.0080           0
   27525 WT1  8736 TIP3 H2   HT     0.417000        1.0080           0
   27526 WT1  8737 TIP3 OH2  OT    -0.834000       15.9994           0
   27527 WT1  8737 TIP3 H1   HT     0.417000        1.0080           0
   27528 WT1  8737 TIP3 H2   HT     0.417000        1.0080           0
   27529 WT1  8738 TIP3 OH2  OT    -0.834000       15.9994           0
   27530 WT1  8738 TIP3 H1   HT     0.417000        1.0080           0
   27531 WT1  8738 TIP3 H2   HT     0.417000        1.0080           0
   27532 WT1  8739 TIP3 OH2  OT    -0.834000       15.9994           0
   27533 WT1  8739 TIP3 H1   HT     0.417000        1.0080           0
   27534 WT1  8739 TIP3 H2   HT     0.417000        1.0080           0
   27535 WT1  8740 TIP3 OH2  OT    -0.834000       15.9994           0
   27536 WT1  8740 TIP3 H1   HT     0.417000        1.0080           0
   27537 WT1  8740 TIP3 H2   HT     0.417000        1.0080           0
   27538 WT1  8741 TIP3 OH2  OT    -0.834000       15.9994           0
   27539 WT1  8741 TIP3 H1   HT     0.417000        1.0080           0
   27540 WT1  8741 TIP3 H2   HT     0.417000        1.0080           0
   27541 WT1  8742 TIP3 OH2  OT    -0.834000       15.9994           0
   27542 WT1  8742 TIP3 H1   HT     0.417000        1.0080           0
   27543 WT1  8742 TIP3 H2   HT     0.417000        1.0080           0
   27544 WT1  8743 TIP3 OH2  OT    -0.834000       15.9994           0
   27545 WT1  8743 TIP3 H1   HT     0.417000        1.0080           0
   27546 WT1  8743 TIP3 H2   HT     0.417000        1.0080           0
   27547 WT1  8744 TIP3 OH2  OT    -0.834000       15.9994           0
   27548 WT1  8744 TIP3 H1   HT     0.417000        1.0080           0
   27549 WT1  8744 TIP3 H2   HT     0.417000        1.0080           0
   27550 WT1  8745 TIP3 OH2  OT    -0.834000       15.9994           0
   27551 WT1  8745 TIP3 H1   HT     0.417000        1.0080           0
   27552 WT1  8745 TIP3 H2   HT     0.417000        1.0080           0
   27553 WT1  8746 TIP3 OH2  OT    -0.834000       15.9994           0
   27554 WT1  8746 TIP3 H1   HT     0.417000        1.0080           0
   27555 WT1  8746 TIP3 H2   HT     0.417000        1.0080           0
   27556 WT1  8747 TIP3 OH2  OT    -0.834000       15.9994           0
   27557 WT1  8747 TIP3 H1   HT     0.417000        1.0080           0
   27558 WT1  8747 TIP3 H2   HT     0.417000        1.0080           0
   27559 WT1  8748 TIP3 OH2  OT    -0.834000       15.9994           0
   27560 WT1  8748 TIP3 H1   HT     0.417000        1.0080           0
   27561 WT1  8748 TIP3 H2   HT     0.417000        1.0080           0
   27562 WT1  8749 TIP3 OH2  OT    -0.834000       15.9994           0
   27563 WT1  8749 TIP3 H1   HT     0.417000        1.0080           0
   27564 WT1  8749 TIP3 H2   HT     0.417000        1.0080           0
   27565 WT1  8750 TIP3 OH2  OT    -0.834000       15.9994           0
   27566 WT1  8750 TIP3 H1   HT     0.417000        1.0080           0
   27567 WT1  8750 TIP3 H2   HT     0.417000        1.0080           0
   27568 WT1  8751 TIP3 OH2  OT    -0.834000       15.9994           0
   27569 WT1  8751 TIP3 H1   HT     0.417000        1.0080           0
   27570 WT1  8751 TIP3 H2   HT     0.417000        1.0080           0
   27571 WT1  8752 TIP3 OH2  OT    -0.834000       15.9994           0
   27572 WT1  8752 TIP3 H1   HT     0.417000        1.0080           0
   27573 WT1  8752 TIP3 H2   HT     0.417000        1.0080           0
   27574 WT1  8754 TIP3 OH2  OT    -0.834000       15.9994           0
   27575 WT1  8754 TIP3 H1   HT     0.417000        1.0080           0
   27576 WT1  8754 TIP3 H2   HT     0.417000        1.0080           0
   27577 WT1  8756 TIP3 OH2  OT    -0.834000       15.9994           0
   27578 WT1  8756 TIP3 H1   HT     0.417000        1.0080           0
   27579 WT1  8756 TIP3 H2   HT     0.417000        1.0080           0
   27580 WT1  8757 TIP3 OH2  OT    -0.834000       15.9994           0
   27581 WT1  8757 TIP3 H1   HT     0.417000        1.0080           0
   27582 WT1  8757 TIP3 H2   HT     0.417000        1.0080           0
   27583 WT1  8758 TIP3 OH2  OT    -0.834000       15.9994           0
   27584 WT1  8758 TIP3 H1   HT     0.417000        1.0080           0
   27585 WT1  8758 TIP3 H2   HT     0.417000        1.0080           0
   27586 WT1  8759 TIP3 OH2  OT    -0.834000       15.9994           0
   27587 WT1  8759 TIP3 H1   HT     0.417000        1.0080           0
   27588 WT1  8759 TIP3 H2   HT     0.417000        1.0080           0
   27589 WT1  8760 TIP3 OH2  OT    -0.834000       15.9994           0
   27590 WT1  8760 TIP3 H1   HT     0.417000        1.0080           0
   27591 WT1  8760 TIP3 H2   HT     0.417000        1.0080           0
   27592 WT1  8761 TIP3 OH2  OT    -0.834000       15.9994           0
   27593 WT1  8761 TIP3 H1   HT     0.417000        1.0080           0
   27594 WT1  8761 TIP3 H2   HT     0.417000        1.0080           0
   27595 WT1  8762 TIP3 OH2  OT    -0.834000       15.9994           0
   27596 WT1  8762 TIP3 H1   HT     0.417000        1.0080           0
   27597 WT1  8762 TIP3 H2   HT     0.417000        1.0080           0
   27598 WT1  8763 TIP3 OH2  OT    -0.834000       15.9994           0
   27599 WT1  8763 TIP3 H1   HT     0.417000        1.0080           0
   27600 WT1  8763 TIP3 H2   HT     0.417000        1.0080           0
   27601 WT1  8764 TIP3 OH2  OT    -0.834000       15.9994           0
   27602 WT1  8764 TIP3 H1   HT     0.417000        1.0080           0
   27603 WT1  8764 TIP3 H2   HT     0.417000        1.0080           0
   27604 WT1  8765 TIP3 OH2  OT    -0.834000       15.9994           0
   27605 WT1  8765 TIP3 H1   HT     0.417000        1.0080           0
   27606 WT1  8765 TIP3 H2   HT     0.417000        1.0080           0
   27607 WT1  8766 TIP3 OH2  OT    -0.834000       15.9994           0
   27608 WT1  8766 TIP3 H1   HT     0.417000        1.0080           0
   27609 WT1  8766 TIP3 H2   HT     0.417000        1.0080           0
   27610 WT1  8767 TIP3 OH2  OT    -0.834000       15.9994           0
   27611 WT1  8767 TIP3 H1   HT     0.417000        1.0080           0
   27612 WT1  8767 TIP3 H2   HT     0.417000        1.0080           0
   27613 WT1  8768 TIP3 OH2  OT    -0.834000       15.9994           0
   27614 WT1  8768 TIP3 H1   HT     0.417000        1.0080           0
   27615 WT1  8768 TIP3 H2   HT     0.417000        1.0080           0
   27616 WT1  8769 TIP3 OH2  OT    -0.834000       15.9994           0
   27617 WT1  8769 TIP3 H1   HT     0.417000        1.0080           0
   27618 WT1  8769 TIP3 H2   HT     0.417000        1.0080           0
   27619 WT1  8770 TIP3 OH2  OT    -0.834000       15.9994           0
   27620 WT1  8770 TIP3 H1   HT     0.417000        1.0080           0
   27621 WT1  8770 TIP3 H2   HT     0.417000        1.0080           0
   27622 WT1  8771 TIP3 OH2  OT    -0.834000       15.9994           0
   27623 WT1  8771 TIP3 H1   HT     0.417000        1.0080           0
   27624 WT1  8771 TIP3 H2   HT     0.417000        1.0080           0
   27625 WT1  8772 TIP3 OH2  OT    -0.834000       15.9994           0
   27626 WT1  8772 TIP3 H1   HT     0.417000        1.0080           0
   27627 WT1  8772 TIP3 H2   HT     0.417000        1.0080           0
   27628 WT1  8773 TIP3 OH2  OT    -0.834000       15.9994           0
   27629 WT1  8773 TIP3 H1   HT     0.417000        1.0080           0
   27630 WT1  8773 TIP3 H2   HT     0.417000        1.0080           0
   27631 WT1  8774 TIP3 OH2  OT    -0.834000       15.9994           0
   27632 WT1  8774 TIP3 H1   HT     0.417000        1.0080           0
   27633 WT1  8774 TIP3 H2   HT     0.417000        1.0080           0
   27634 WT1  8775 TIP3 OH2  OT    -0.834000       15.9994           0
   27635 WT1  8775 TIP3 H1   HT     0.417000        1.0080           0
   27636 WT1  8775 TIP3 H2   HT     0.417000        1.0080           0
   27637 WT1  8776 TIP3 OH2  OT    -0.834000       15.9994           0
   27638 WT1  8776 TIP3 H1   HT     0.417000        1.0080           0
   27639 WT1  8776 TIP3 H2   HT     0.417000        1.0080           0
   27640 WT1  8777 TIP3 OH2  OT    -0.834000       15.9994           0
   27641 WT1  8777 TIP3 H1   HT     0.417000        1.0080           0
   27642 WT1  8777 TIP3 H2   HT     0.417000        1.0080           0
   27643 WT1  8778 TIP3 OH2  OT    -0.834000       15.9994           0
   27644 WT1  8778 TIP3 H1   HT     0.417000        1.0080           0
   27645 WT1  8778 TIP3 H2   HT     0.417000        1.0080           0
   27646 WT1  8779 TIP3 OH2  OT    -0.834000       15.9994           0
   27647 WT1  8779 TIP3 H1   HT     0.417000        1.0080           0
   27648 WT1  8779 TIP3 H2   HT     0.417000        1.0080           0
   27649 WT1  8780 TIP3 OH2  OT    -0.834000       15.9994           0
   27650 WT1  8780 TIP3 H1   HT     0.417000        1.0080           0
   27651 WT1  8780 TIP3 H2   HT     0.417000        1.0080           0
   27652 WT1  8781 TIP3 OH2  OT    -0.834000       15.9994           0
   27653 WT1  8781 TIP3 H1   HT     0.417000        1.0080           0
   27654 WT1  8781 TIP3 H2   HT     0.417000        1.0080           0
   27655 WT1  8782 TIP3 OH2  OT    -0.834000       15.9994           0
   27656 WT1  8782 TIP3 H1   HT     0.417000        1.0080           0
   27657 WT1  8782 TIP3 H2   HT     0.417000        1.0080           0
   27658 WT1  8783 TIP3 OH2  OT    -0.834000       15.9994           0
   27659 WT1  8783 TIP3 H1   HT     0.417000        1.0080           0
   27660 WT1  8783 TIP3 H2   HT     0.417000        1.0080           0
   27661 WT1  8784 TIP3 OH2  OT    -0.834000       15.9994           0
   27662 WT1  8784 TIP3 H1   HT     0.417000        1.0080           0
   27663 WT1  8784 TIP3 H2   HT     0.417000        1.0080           0
   27664 WT1  8785 TIP3 OH2  OT    -0.834000       15.9994           0
   27665 WT1  8785 TIP3 H1   HT     0.417000        1.0080           0
   27666 WT1  8785 TIP3 H2   HT     0.417000        1.0080           0
   27667 WT1  8786 TIP3 OH2  OT    -0.834000       15.9994           0
   27668 WT1  8786 TIP3 H1   HT     0.417000        1.0080           0
   27669 WT1  8786 TIP3 H2   HT     0.417000        1.0080           0
   27670 WT1  8787 TIP3 OH2  OT    -0.834000       15.9994           0
   27671 WT1  8787 TIP3 H1   HT     0.417000        1.0080           0
   27672 WT1  8787 TIP3 H2   HT     0.417000        1.0080           0
   27673 WT1  8788 TIP3 OH2  OT    -0.834000       15.9994           0
   27674 WT1  8788 TIP3 H1   HT     0.417000        1.0080           0
   27675 WT1  8788 TIP3 H2   HT     0.417000        1.0080           0
   27676 WT1  8789 TIP3 OH2  OT    -0.834000       15.9994           0
   27677 WT1  8789 TIP3 H1   HT     0.417000        1.0080           0
   27678 WT1  8789 TIP3 H2   HT     0.417000        1.0080           0
   27679 WT1  8790 TIP3 OH2  OT    -0.834000       15.9994           0
   27680 WT1  8790 TIP3 H1   HT     0.417000        1.0080           0
   27681 WT1  8790 TIP3 H2   HT     0.417000        1.0080           0
   27682 WT1  8791 TIP3 OH2  OT    -0.834000       15.9994           0
   27683 WT1  8791 TIP3 H1   HT     0.417000        1.0080           0
   27684 WT1  8791 TIP3 H2   HT     0.417000        1.0080           0
   27685 WT1  8793 TIP3 OH2  OT    -0.834000       15.9994           0
   27686 WT1  8793 TIP3 H1   HT     0.417000        1.0080           0
   27687 WT1  8793 TIP3 H2   HT     0.417000        1.0080           0
   27688 WT1  8794 TIP3 OH2  OT    -0.834000       15.9994           0
   27689 WT1  8794 TIP3 H1   HT     0.417000        1.0080           0
   27690 WT1  8794 TIP3 H2   HT     0.417000        1.0080           0
   27691 WT1  8795 TIP3 OH2  OT    -0.834000       15.9994           0
   27692 WT1  8795 TIP3 H1   HT     0.417000        1.0080           0
   27693 WT1  8795 TIP3 H2   HT     0.417000        1.0080           0
   27694 WT1  8796 TIP3 OH2  OT    -0.834000       15.9994           0
   27695 WT1  8796 TIP3 H1   HT     0.417000        1.0080           0
   27696 WT1  8796 TIP3 H2   HT     0.417000        1.0080           0
   27697 WT1  8797 TIP3 OH2  OT    -0.834000       15.9994           0
   27698 WT1  8797 TIP3 H1   HT     0.417000        1.0080           0
   27699 WT1  8797 TIP3 H2   HT     0.417000        1.0080           0
   27700 WT1  8799 TIP3 OH2  OT    -0.834000       15.9994           0
   27701 WT1  8799 TIP3 H1   HT     0.417000        1.0080           0
   27702 WT1  8799 TIP3 H2   HT     0.417000        1.0080           0
   27703 WT1  8800 TIP3 OH2  OT    -0.834000       15.9994           0
   27704 WT1  8800 TIP3 H1   HT     0.417000        1.0080           0
   27705 WT1  8800 TIP3 H2   HT     0.417000        1.0080           0
   27706 WT1  8801 TIP3 OH2  OT    -0.834000       15.9994           0
   27707 WT1  8801 TIP3 H1   HT     0.417000        1.0080           0
   27708 WT1  8801 TIP3 H2   HT     0.417000        1.0080           0
   27709 WT1  8802 TIP3 OH2  OT    -0.834000       15.9994           0
   27710 WT1  8802 TIP3 H1   HT     0.417000        1.0080           0
   27711 WT1  8802 TIP3 H2   HT     0.417000        1.0080           0
   27712 WT1  8803 TIP3 OH2  OT    -0.834000       15.9994           0
   27713 WT1  8803 TIP3 H1   HT     0.417000        1.0080           0
   27714 WT1  8803 TIP3 H2   HT     0.417000        1.0080           0
   27715 WT1  8804 TIP3 OH2  OT    -0.834000       15.9994           0
   27716 WT1  8804 TIP3 H1   HT     0.417000        1.0080           0
   27717 WT1  8804 TIP3 H2   HT     0.417000        1.0080           0
   27718 WT1  8805 TIP3 OH2  OT    -0.834000       15.9994           0
   27719 WT1  8805 TIP3 H1   HT     0.417000        1.0080           0
   27720 WT1  8805 TIP3 H2   HT     0.417000        1.0080           0
   27721 WT1  8806 TIP3 OH2  OT    -0.834000       15.9994           0
   27722 WT1  8806 TIP3 H1   HT     0.417000        1.0080           0
   27723 WT1  8806 TIP3 H2   HT     0.417000        1.0080           0
   27724 WT1  8808 TIP3 OH2  OT    -0.834000       15.9994           0
   27725 WT1  8808 TIP3 H1   HT     0.417000        1.0080           0
   27726 WT1  8808 TIP3 H2   HT     0.417000        1.0080           0
   27727 WT1  8809 TIP3 OH2  OT    -0.834000       15.9994           0
   27728 WT1  8809 TIP3 H1   HT     0.417000        1.0080           0
   27729 WT1  8809 TIP3 H2   HT     0.417000        1.0080           0
   27730 WT1  8810 TIP3 OH2  OT    -0.834000       15.9994           0
   27731 WT1  8810 TIP3 H1   HT     0.417000        1.0080           0
   27732 WT1  8810 TIP3 H2   HT     0.417000        1.0080           0
   27733 WT1  8811 TIP3 OH2  OT    -0.834000       15.9994           0
   27734 WT1  8811 TIP3 H1   HT     0.417000        1.0080           0
   27735 WT1  8811 TIP3 H2   HT     0.417000        1.0080           0
   27736 WT1  8812 TIP3 OH2  OT    -0.834000       15.9994           0
   27737 WT1  8812 TIP3 H1   HT     0.417000        1.0080           0
   27738 WT1  8812 TIP3 H2   HT     0.417000        1.0080           0
   27739 WT1  8813 TIP3 OH2  OT    -0.834000       15.9994           0
   27740 WT1  8813 TIP3 H1   HT     0.417000        1.0080           0
   27741 WT1  8813 TIP3 H2   HT     0.417000        1.0080           0
   27742 WT1  8814 TIP3 OH2  OT    -0.834000       15.9994           0
   27743 WT1  8814 TIP3 H1   HT     0.417000        1.0080           0
   27744 WT1  8814 TIP3 H2   HT     0.417000        1.0080           0
   27745 WT1  8815 TIP3 OH2  OT    -0.834000       15.9994           0
   27746 WT1  8815 TIP3 H1   HT     0.417000        1.0080           0
   27747 WT1  8815 TIP3 H2   HT     0.417000        1.0080           0
   27748 WT1  8816 TIP3 OH2  OT    -0.834000       15.9994           0
   27749 WT1  8816 TIP3 H1   HT     0.417000        1.0080           0
   27750 WT1  8816 TIP3 H2   HT     0.417000        1.0080           0
   27751 WT1  8817 TIP3 OH2  OT    -0.834000       15.9994           0
   27752 WT1  8817 TIP3 H1   HT     0.417000        1.0080           0
   27753 WT1  8817 TIP3 H2   HT     0.417000        1.0080           0
   27754 WT1  8819 TIP3 OH2  OT    -0.834000       15.9994           0
   27755 WT1  8819 TIP3 H1   HT     0.417000        1.0080           0
   27756 WT1  8819 TIP3 H2   HT     0.417000        1.0080           0
   27757 WT1  8820 TIP3 OH2  OT    -0.834000       15.9994           0
   27758 WT1  8820 TIP3 H1   HT     0.417000        1.0080           0
   27759 WT1  8820 TIP3 H2   HT     0.417000        1.0080           0
   27760 WT1  8822 TIP3 OH2  OT    -0.834000       15.9994           0
   27761 WT1  8822 TIP3 H1   HT     0.417000        1.0080           0
   27762 WT1  8822 TIP3 H2   HT     0.417000        1.0080           0
   27763 WT1  8823 TIP3 OH2  OT    -0.834000       15.9994           0
   27764 WT1  8823 TIP3 H1   HT     0.417000        1.0080           0
   27765 WT1  8823 TIP3 H2   HT     0.417000        1.0080           0
   27766 WT1  8824 TIP3 OH2  OT    -0.834000       15.9994           0
   27767 WT1  8824 TIP3 H1   HT     0.417000        1.0080           0
   27768 WT1  8824 TIP3 H2   HT     0.417000        1.0080           0
   27769 WT1  8825 TIP3 OH2  OT    -0.834000       15.9994           0
   27770 WT1  8825 TIP3 H1   HT     0.417000        1.0080           0
   27771 WT1  8825 TIP3 H2   HT     0.417000        1.0080           0
   27772 WT1  8826 TIP3 OH2  OT    -0.834000       15.9994           0
   27773 WT1  8826 TIP3 H1   HT     0.417000        1.0080           0
   27774 WT1  8826 TIP3 H2   HT     0.417000        1.0080           0
   27775 WT1  8827 TIP3 OH2  OT    -0.834000       15.9994           0
   27776 WT1  8827 TIP3 H1   HT     0.417000        1.0080           0
   27777 WT1  8827 TIP3 H2   HT     0.417000        1.0080           0
   27778 WT1  8828 TIP3 OH2  OT    -0.834000       15.9994           0
   27779 WT1  8828 TIP3 H1   HT     0.417000        1.0080           0
   27780 WT1  8828 TIP3 H2   HT     0.417000        1.0080           0
   27781 WT1  8829 TIP3 OH2  OT    -0.834000       15.9994           0
   27782 WT1  8829 TIP3 H1   HT     0.417000        1.0080           0
   27783 WT1  8829 TIP3 H2   HT     0.417000        1.0080           0
   27784 WT1  8830 TIP3 OH2  OT    -0.834000       15.9994           0
   27785 WT1  8830 TIP3 H1   HT     0.417000        1.0080           0
   27786 WT1  8830 TIP3 H2   HT     0.417000        1.0080           0
   27787 WT1  8832 TIP3 OH2  OT    -0.834000       15.9994           0
   27788 WT1  8832 TIP3 H1   HT     0.417000        1.0080           0
   27789 WT1  8832 TIP3 H2   HT     0.417000        1.0080           0
   27790 WT1  8833 TIP3 OH2  OT    -0.834000       15.9994           0
   27791 WT1  8833 TIP3 H1   HT     0.417000        1.0080           0
   27792 WT1  8833 TIP3 H2   HT     0.417000        1.0080           0
   27793 WT1  8834 TIP3 OH2  OT    -0.834000       15.9994           0
   27794 WT1  8834 TIP3 H1   HT     0.417000        1.0080           0
   27795 WT1  8834 TIP3 H2   HT     0.417000        1.0080           0
   27796 WT1  8836 TIP3 OH2  OT    -0.834000       15.9994           0
   27797 WT1  8836 TIP3 H1   HT     0.417000        1.0080           0
   27798 WT1  8836 TIP3 H2   HT     0.417000        1.0080           0
   27799 WT1  8837 TIP3 OH2  OT    -0.834000       15.9994           0
   27800 WT1  8837 TIP3 H1   HT     0.417000        1.0080           0
   27801 WT1  8837 TIP3 H2   HT     0.417000        1.0080           0
   27802 WT1  8839 TIP3 OH2  OT    -0.834000       15.9994           0
   27803 WT1  8839 TIP3 H1   HT     0.417000        1.0080           0
   27804 WT1  8839 TIP3 H2   HT     0.417000        1.0080           0
   27805 WT1  8840 TIP3 OH2  OT    -0.834000       15.9994           0
   27806 WT1  8840 TIP3 H1   HT     0.417000        1.0080           0
   27807 WT1  8840 TIP3 H2   HT     0.417000        1.0080           0
   27808 WT1  8841 TIP3 OH2  OT    -0.834000       15.9994           0
   27809 WT1  8841 TIP3 H1   HT     0.417000        1.0080           0
   27810 WT1  8841 TIP3 H2   HT     0.417000        1.0080           0
   27811 WT1  8842 TIP3 OH2  OT    -0.834000       15.9994           0
   27812 WT1  8842 TIP3 H1   HT     0.417000        1.0080           0
   27813 WT1  8842 TIP3 H2   HT     0.417000        1.0080           0
   27814 WT1  8843 TIP3 OH2  OT    -0.834000       15.9994           0
   27815 WT1  8843 TIP3 H1   HT     0.417000        1.0080           0
   27816 WT1  8843 TIP3 H2   HT     0.417000        1.0080           0
   27817 WT1  8844 TIP3 OH2  OT    -0.834000       15.9994           0
   27818 WT1  8844 TIP3 H1   HT     0.417000        1.0080           0
   27819 WT1  8844 TIP3 H2   HT     0.417000        1.0080           0
   27820 WT1  8845 TIP3 OH2  OT    -0.834000       15.9994           0
   27821 WT1  8845 TIP3 H1   HT     0.417000        1.0080           0
   27822 WT1  8845 TIP3 H2   HT     0.417000        1.0080           0
   27823 WT1  8846 TIP3 OH2  OT    -0.834000       15.9994           0
   27824 WT1  8846 TIP3 H1   HT     0.417000        1.0080           0
   27825 WT1  8846 TIP3 H2   HT     0.417000        1.0080           0
   27826 WT1  8847 TIP3 OH2  OT    -0.834000       15.9994           0
   27827 WT1  8847 TIP3 H1   HT     0.417000        1.0080           0
   27828 WT1  8847 TIP3 H2   HT     0.417000        1.0080           0
   27829 WT1  8848 TIP3 OH2  OT    -0.834000       15.9994           0
   27830 WT1  8848 TIP3 H1   HT     0.417000        1.0080           0
   27831 WT1  8848 TIP3 H2   HT     0.417000        1.0080           0
   27832 WT1  8849 TIP3 OH2  OT    -0.834000       15.9994           0
   27833 WT1  8849 TIP3 H1   HT     0.417000        1.0080           0
   27834 WT1  8849 TIP3 H2   HT     0.417000        1.0080           0
   27835 WT1  8850 TIP3 OH2  OT    -0.834000       15.9994           0
   27836 WT1  8850 TIP3 H1   HT     0.417000        1.0080           0
   27837 WT1  8850 TIP3 H2   HT     0.417000        1.0080           0
   27838 WT1  8851 TIP3 OH2  OT    -0.834000       15.9994           0
   27839 WT1  8851 TIP3 H1   HT     0.417000        1.0080           0
   27840 WT1  8851 TIP3 H2   HT     0.417000        1.0080           0
   27841 WT1  8852 TIP3 OH2  OT    -0.834000       15.9994           0
   27842 WT1  8852 TIP3 H1   HT     0.417000        1.0080           0
   27843 WT1  8852 TIP3 H2   HT     0.417000        1.0080           0
   27844 WT1  8853 TIP3 OH2  OT    -0.834000       15.9994           0
   27845 WT1  8853 TIP3 H1   HT     0.417000        1.0080           0
   27846 WT1  8853 TIP3 H2   HT     0.417000        1.0080           0
   27847 WT1  8854 TIP3 OH2  OT    -0.834000       15.9994           0
   27848 WT1  8854 TIP3 H1   HT     0.417000        1.0080           0
   27849 WT1  8854 TIP3 H2   HT     0.417000        1.0080           0
   27850 WT1  8855 TIP3 OH2  OT    -0.834000       15.9994           0
   27851 WT1  8855 TIP3 H1   HT     0.417000        1.0080           0
   27852 WT1  8855 TIP3 H2   HT     0.417000        1.0080           0
   27853 WT1  8856 TIP3 OH2  OT    -0.834000       15.9994           0
   27854 WT1  8856 TIP3 H1   HT     0.417000        1.0080           0
   27855 WT1  8856 TIP3 H2   HT     0.417000        1.0080           0
   27856 WT1  8858 TIP3 OH2  OT    -0.834000       15.9994           0
   27857 WT1  8858 TIP3 H1   HT     0.417000        1.0080           0
   27858 WT1  8858 TIP3 H2   HT     0.417000        1.0080           0
   27859 WT1  8859 TIP3 OH2  OT    -0.834000       15.9994           0
   27860 WT1  8859 TIP3 H1   HT     0.417000        1.0080           0
   27861 WT1  8859 TIP3 H2   HT     0.417000        1.0080           0
   27862 WT1  8860 TIP3 OH2  OT    -0.834000       15.9994           0
   27863 WT1  8860 TIP3 H1   HT     0.417000        1.0080           0
   27864 WT1  8860 TIP3 H2   HT     0.417000        1.0080           0
   27865 WT1  8861 TIP3 OH2  OT    -0.834000       15.9994           0
   27866 WT1  8861 TIP3 H1   HT     0.417000        1.0080           0
   27867 WT1  8861 TIP3 H2   HT     0.417000        1.0080           0
   27868 WT1  8862 TIP3 OH2  OT    -0.834000       15.9994           0
   27869 WT1  8862 TIP3 H1   HT     0.417000        1.0080           0
   27870 WT1  8862 TIP3 H2   HT     0.417000        1.0080           0
   27871 WT1  8863 TIP3 OH2  OT    -0.834000       15.9994           0
   27872 WT1  8863 TIP3 H1   HT     0.417000        1.0080           0
   27873 WT1  8863 TIP3 H2   HT     0.417000        1.0080           0
   27874 WT1  8864 TIP3 OH2  OT    -0.834000       15.9994           0
   27875 WT1  8864 TIP3 H1   HT     0.417000        1.0080           0
   27876 WT1  8864 TIP3 H2   HT     0.417000        1.0080           0
   27877 WT1  8865 TIP3 OH2  OT    -0.834000       15.9994           0
   27878 WT1  8865 TIP3 H1   HT     0.417000        1.0080           0
   27879 WT1  8865 TIP3 H2   HT     0.417000        1.0080           0
   27880 WT1  8866 TIP3 OH2  OT    -0.834000       15.9994           0
   27881 WT1  8866 TIP3 H1   HT     0.417000        1.0080           0
   27882 WT1  8866 TIP3 H2   HT     0.417000        1.0080           0
   27883 WT1  8867 TIP3 OH2  OT    -0.834000       15.9994           0
   27884 WT1  8867 TIP3 H1   HT     0.417000        1.0080           0
   27885 WT1  8867 TIP3 H2   HT     0.417000        1.0080           0
   27886 WT1  8868 TIP3 OH2  OT    -0.834000       15.9994           0
   27887 WT1  8868 TIP3 H1   HT     0.417000        1.0080           0
   27888 WT1  8868 TIP3 H2   HT     0.417000        1.0080           0
   27889 WT1  8869 TIP3 OH2  OT    -0.834000       15.9994           0
   27890 WT1  8869 TIP3 H1   HT     0.417000        1.0080           0
   27891 WT1  8869 TIP3 H2   HT     0.417000        1.0080           0
   27892 WT1  8870 TIP3 OH2  OT    -0.834000       15.9994           0
   27893 WT1  8870 TIP3 H1   HT     0.417000        1.0080           0
   27894 WT1  8870 TIP3 H2   HT     0.417000        1.0080           0
   27895 WT1  8871 TIP3 OH2  OT    -0.834000       15.9994           0
   27896 WT1  8871 TIP3 H1   HT     0.417000        1.0080           0
   27897 WT1  8871 TIP3 H2   HT     0.417000        1.0080           0
   27898 WT1  8872 TIP3 OH2  OT    -0.834000       15.9994           0
   27899 WT1  8872 TIP3 H1   HT     0.417000        1.0080           0
   27900 WT1  8872 TIP3 H2   HT     0.417000        1.0080           0
   27901 WT1  8873 TIP3 OH2  OT    -0.834000       15.9994           0
   27902 WT1  8873 TIP3 H1   HT     0.417000        1.0080           0
   27903 WT1  8873 TIP3 H2   HT     0.417000        1.0080           0
   27904 WT1  8874 TIP3 OH2  OT    -0.834000       15.9994           0
   27905 WT1  8874 TIP3 H1   HT     0.417000        1.0080           0
   27906 WT1  8874 TIP3 H2   HT     0.417000        1.0080           0
   27907 WT1  8875 TIP3 OH2  OT    -0.834000       15.9994           0
   27908 WT1  8875 TIP3 H1   HT     0.417000        1.0080           0
   27909 WT1  8875 TIP3 H2   HT     0.417000        1.0080           0
   27910 WT1  8877 TIP3 OH2  OT    -0.834000       15.9994           0
   27911 WT1  8877 TIP3 H1   HT     0.417000        1.0080           0
   27912 WT1  8877 TIP3 H2   HT     0.417000        1.0080           0
   27913 WT1  8878 TIP3 OH2  OT    -0.834000       15.9994           0
   27914 WT1  8878 TIP3 H1   HT     0.417000        1.0080           0
   27915 WT1  8878 TIP3 H2   HT     0.417000        1.0080           0
   27916 WT1  8879 TIP3 OH2  OT    -0.834000       15.9994           0
   27917 WT1  8879 TIP3 H1   HT     0.417000        1.0080           0
   27918 WT1  8879 TIP3 H2   HT     0.417000        1.0080           0
   27919 WT1  8880 TIP3 OH2  OT    -0.834000       15.9994           0
   27920 WT1  8880 TIP3 H1   HT     0.417000        1.0080           0
   27921 WT1  8880 TIP3 H2   HT     0.417000        1.0080           0
   27922 WT1  8881 TIP3 OH2  OT    -0.834000       15.9994           0
   27923 WT1  8881 TIP3 H1   HT     0.417000        1.0080           0
   27924 WT1  8881 TIP3 H2   HT     0.417000        1.0080           0
   27925 WT1  8882 TIP3 OH2  OT    -0.834000       15.9994           0
   27926 WT1  8882 TIP3 H1   HT     0.417000        1.0080           0
   27927 WT1  8882 TIP3 H2   HT     0.417000        1.0080           0
   27928 WT1  8883 TIP3 OH2  OT    -0.834000       15.9994           0
   27929 WT1  8883 TIP3 H1   HT     0.417000        1.0080           0
   27930 WT1  8883 TIP3 H2   HT     0.417000        1.0080           0
   27931 WT1  8884 TIP3 OH2  OT    -0.834000       15.9994           0
   27932 WT1  8884 TIP3 H1   HT     0.417000        1.0080           0
   27933 WT1  8884 TIP3 H2   HT     0.417000        1.0080           0
   27934 WT1  8885 TIP3 OH2  OT    -0.834000       15.9994           0
   27935 WT1  8885 TIP3 H1   HT     0.417000        1.0080           0
   27936 WT1  8885 TIP3 H2   HT     0.417000        1.0080           0
   27937 WT1  8886 TIP3 OH2  OT    -0.834000       15.9994           0
   27938 WT1  8886 TIP3 H1   HT     0.417000        1.0080           0
   27939 WT1  8886 TIP3 H2   HT     0.417000        1.0080           0
   27940 WT1  8887 TIP3 OH2  OT    -0.834000       15.9994           0
   27941 WT1  8887 TIP3 H1   HT     0.417000        1.0080           0
   27942 WT1  8887 TIP3 H2   HT     0.417000        1.0080           0
   27943 WT1  8888 TIP3 OH2  OT    -0.834000       15.9994           0
   27944 WT1  8888 TIP3 H1   HT     0.417000        1.0080           0
   27945 WT1  8888 TIP3 H2   HT     0.417000        1.0080           0
   27946 WT1  8889 TIP3 OH2  OT    -0.834000       15.9994           0
   27947 WT1  8889 TIP3 H1   HT     0.417000        1.0080           0
   27948 WT1  8889 TIP3 H2   HT     0.417000        1.0080           0
   27949 WT1  8890 TIP3 OH2  OT    -0.834000       15.9994           0
   27950 WT1  8890 TIP3 H1   HT     0.417000        1.0080           0
   27951 WT1  8890 TIP3 H2   HT     0.417000        1.0080           0
   27952 WT1  8891 TIP3 OH2  OT    -0.834000       15.9994           0
   27953 WT1  8891 TIP3 H1   HT     0.417000        1.0080           0
   27954 WT1  8891 TIP3 H2   HT     0.417000        1.0080           0
   27955 WT1  8893 TIP3 OH2  OT    -0.834000       15.9994           0
   27956 WT1  8893 TIP3 H1   HT     0.417000        1.0080           0
   27957 WT1  8893 TIP3 H2   HT     0.417000        1.0080           0
   27958 WT1  8894 TIP3 OH2  OT    -0.834000       15.9994           0
   27959 WT1  8894 TIP3 H1   HT     0.417000        1.0080           0
   27960 WT1  8894 TIP3 H2   HT     0.417000        1.0080           0
   27961 WT1  8895 TIP3 OH2  OT    -0.834000       15.9994           0
   27962 WT1  8895 TIP3 H1   HT     0.417000        1.0080           0
   27963 WT1  8895 TIP3 H2   HT     0.417000        1.0080           0
   27964 WT1  8896 TIP3 OH2  OT    -0.834000       15.9994           0
   27965 WT1  8896 TIP3 H1   HT     0.417000        1.0080           0
   27966 WT1  8896 TIP3 H2   HT     0.417000        1.0080           0
   27967 WT1  8897 TIP3 OH2  OT    -0.834000       15.9994           0
   27968 WT1  8897 TIP3 H1   HT     0.417000        1.0080           0
   27969 WT1  8897 TIP3 H2   HT     0.417000        1.0080           0
   27970 WT1  8898 TIP3 OH2  OT    -0.834000       15.9994           0
   27971 WT1  8898 TIP3 H1   HT     0.417000        1.0080           0
   27972 WT1  8898 TIP3 H2   HT     0.417000        1.0080           0
   27973 WT1  8901 TIP3 OH2  OT    -0.834000       15.9994           0
   27974 WT1  8901 TIP3 H1   HT     0.417000        1.0080           0
   27975 WT1  8901 TIP3 H2   HT     0.417000        1.0080           0
   27976 WT1  8902 TIP3 OH2  OT    -0.834000       15.9994           0
   27977 WT1  8902 TIP3 H1   HT     0.417000        1.0080           0
   27978 WT1  8902 TIP3 H2   HT     0.417000        1.0080           0
   27979 WT1  8903 TIP3 OH2  OT    -0.834000       15.9994           0
   27980 WT1  8903 TIP3 H1   HT     0.417000        1.0080           0
   27981 WT1  8903 TIP3 H2   HT     0.417000        1.0080           0
   27982 WT1  8904 TIP3 OH2  OT    -0.834000       15.9994           0
   27983 WT1  8904 TIP3 H1   HT     0.417000        1.0080           0
   27984 WT1  8904 TIP3 H2   HT     0.417000        1.0080           0
   27985 WT1  8905 TIP3 OH2  OT    -0.834000       15.9994           0
   27986 WT1  8905 TIP3 H1   HT     0.417000        1.0080           0
   27987 WT1  8905 TIP3 H2   HT     0.417000        1.0080           0
   27988 WT1  8906 TIP3 OH2  OT    -0.834000       15.9994           0
   27989 WT1  8906 TIP3 H1   HT     0.417000        1.0080           0
   27990 WT1  8906 TIP3 H2   HT     0.417000        1.0080           0
   27991 WT1  8907 TIP3 OH2  OT    -0.834000       15.9994           0
   27992 WT1  8907 TIP3 H1   HT     0.417000        1.0080           0
   27993 WT1  8907 TIP3 H2   HT     0.417000        1.0080           0
   27994 WT1  8908 TIP3 OH2  OT    -0.834000       15.9994           0
   27995 WT1  8908 TIP3 H1   HT     0.417000        1.0080           0
   27996 WT1  8908 TIP3 H2   HT     0.417000        1.0080           0
   27997 WT1  8909 TIP3 OH2  OT    -0.834000       15.9994           0
   27998 WT1  8909 TIP3 H1   HT     0.417000        1.0080           0
   27999 WT1  8909 TIP3 H2   HT     0.417000        1.0080           0
   28000 WT1  8910 TIP3 OH2  OT    -0.834000       15.9994           0
   28001 WT1  8910 TIP3 H1   HT     0.417000        1.0080           0
   28002 WT1  8910 TIP3 H2   HT     0.417000        1.0080           0
   28003 WT1  8911 TIP3 OH2  OT    -0.834000       15.9994           0
   28004 WT1  8911 TIP3 H1   HT     0.417000        1.0080           0
   28005 WT1  8911 TIP3 H2   HT     0.417000        1.0080           0
   28006 WT1  8912 TIP3 OH2  OT    -0.834000       15.9994           0
   28007 WT1  8912 TIP3 H1   HT     0.417000        1.0080           0
   28008 WT1  8912 TIP3 H2   HT     0.417000        1.0080           0
   28009 WT1  8913 TIP3 OH2  OT    -0.834000       15.9994           0
   28010 WT1  8913 TIP3 H1   HT     0.417000        1.0080           0
   28011 WT1  8913 TIP3 H2   HT     0.417000        1.0080           0
   28012 WT1  8914 TIP3 OH2  OT    -0.834000       15.9994           0
   28013 WT1  8914 TIP3 H1   HT     0.417000        1.0080           0
   28014 WT1  8914 TIP3 H2   HT     0.417000        1.0080           0
   28015 WT1  8915 TIP3 OH2  OT    -0.834000       15.9994           0
   28016 WT1  8915 TIP3 H1   HT     0.417000        1.0080           0
   28017 WT1  8915 TIP3 H2   HT     0.417000        1.0080           0
   28018 WT1  8916 TIP3 OH2  OT    -0.834000       15.9994           0
   28019 WT1  8916 TIP3 H1   HT     0.417000        1.0080           0
   28020 WT1  8916 TIP3 H2   HT     0.417000        1.0080           0
   28021 WT1  8917 TIP3 OH2  OT    -0.834000       15.9994           0
   28022 WT1  8917 TIP3 H1   HT     0.417000        1.0080           0
   28023 WT1  8917 TIP3 H2   HT     0.417000        1.0080           0
   28024 WT1  8918 TIP3 OH2  OT    -0.834000       15.9994           0
   28025 WT1  8918 TIP3 H1   HT     0.417000        1.0080           0
   28026 WT1  8918 TIP3 H2   HT     0.417000        1.0080           0
   28027 WT1  8919 TIP3 OH2  OT    -0.834000       15.9994           0
   28028 WT1  8919 TIP3 H1   HT     0.417000        1.0080           0
   28029 WT1  8919 TIP3 H2   HT     0.417000        1.0080           0
   28030 WT1  8921 TIP3 OH2  OT    -0.834000       15.9994           0
   28031 WT1  8921 TIP3 H1   HT     0.417000        1.0080           0
   28032 WT1  8921 TIP3 H2   HT     0.417000        1.0080           0
   28033 WT1  8922 TIP3 OH2  OT    -0.834000       15.9994           0
   28034 WT1  8922 TIP3 H1   HT     0.417000        1.0080           0
   28035 WT1  8922 TIP3 H2   HT     0.417000        1.0080           0
   28036 WT1  8923 TIP3 OH2  OT    -0.834000       15.9994           0
   28037 WT1  8923 TIP3 H1   HT     0.417000        1.0080           0
   28038 WT1  8923 TIP3 H2   HT     0.417000        1.0080           0
   28039 WT1  8924 TIP3 OH2  OT    -0.834000       15.9994           0
   28040 WT1  8924 TIP3 H1   HT     0.417000        1.0080           0
   28041 WT1  8924 TIP3 H2   HT     0.417000        1.0080           0
   28042 WT1  8926 TIP3 OH2  OT    -0.834000       15.9994           0
   28043 WT1  8926 TIP3 H1   HT     0.417000        1.0080           0
   28044 WT1  8926 TIP3 H2   HT     0.417000        1.0080           0
   28045 WT1  8927 TIP3 OH2  OT    -0.834000       15.9994           0
   28046 WT1  8927 TIP3 H1   HT     0.417000        1.0080           0
   28047 WT1  8927 TIP3 H2   HT     0.417000        1.0080           0
   28048 WT1  8928 TIP3 OH2  OT    -0.834000       15.9994           0
   28049 WT1  8928 TIP3 H1   HT     0.417000        1.0080           0
   28050 WT1  8928 TIP3 H2   HT     0.417000        1.0080           0
   28051 WT1  8929 TIP3 OH2  OT    -0.834000       15.9994           0
   28052 WT1  8929 TIP3 H1   HT     0.417000        1.0080           0
   28053 WT1  8929 TIP3 H2   HT     0.417000        1.0080           0
   28054 WT1  8930 TIP3 OH2  OT    -0.834000       15.9994           0
   28055 WT1  8930 TIP3 H1   HT     0.417000        1.0080           0
   28056 WT1  8930 TIP3 H2   HT     0.417000        1.0080           0
   28057 WT1  8931 TIP3 OH2  OT    -0.834000       15.9994           0
   28058 WT1  8931 TIP3 H1   HT     0.417000        1.0080           0
   28059 WT1  8931 TIP3 H2   HT     0.417000        1.0080           0
   28060 WT1  8932 TIP3 OH2  OT    -0.834000       15.9994           0
   28061 WT1  8932 TIP3 H1   HT     0.417000        1.0080           0
   28062 WT1  8932 TIP3 H2   HT     0.417000        1.0080           0
   28063 WT1  8933 TIP3 OH2  OT    -0.834000       15.9994           0
   28064 WT1  8933 TIP3 H1   HT     0.417000        1.0080           0
   28065 WT1  8933 TIP3 H2   HT     0.417000        1.0080           0
   28066 WT1  8934 TIP3 OH2  OT    -0.834000       15.9994           0
   28067 WT1  8934 TIP3 H1   HT     0.417000        1.0080           0
   28068 WT1  8934 TIP3 H2   HT     0.417000        1.0080           0
   28069 WT1  8935 TIP3 OH2  OT    -0.834000       15.9994           0
   28070 WT1  8935 TIP3 H1   HT     0.417000        1.0080           0
   28071 WT1  8935 TIP3 H2   HT     0.417000        1.0080           0
   28072 WT1  8936 TIP3 OH2  OT    -0.834000       15.9994           0
   28073 WT1  8936 TIP3 H1   HT     0.417000        1.0080           0
   28074 WT1  8936 TIP3 H2   HT     0.417000        1.0080           0
   28075 WT1  8937 TIP3 OH2  OT    -0.834000       15.9994           0
   28076 WT1  8937 TIP3 H1   HT     0.417000        1.0080           0
   28077 WT1  8937 TIP3 H2   HT     0.417000        1.0080           0
   28078 WT1  8938 TIP3 OH2  OT    -0.834000       15.9994           0
   28079 WT1  8938 TIP3 H1   HT     0.417000        1.0080           0
   28080 WT1  8938 TIP3 H2   HT     0.417000        1.0080           0
   28081 WT1  8939 TIP3 OH2  OT    -0.834000       15.9994           0
   28082 WT1  8939 TIP3 H1   HT     0.417000        1.0080           0
   28083 WT1  8939 TIP3 H2   HT     0.417000        1.0080           0
   28084 WT1  8940 TIP3 OH2  OT    -0.834000       15.9994           0
   28085 WT1  8940 TIP3 H1   HT     0.417000        1.0080           0
   28086 WT1  8940 TIP3 H2   HT     0.417000        1.0080           0
   28087 WT1  8941 TIP3 OH2  OT    -0.834000       15.9994           0
   28088 WT1  8941 TIP3 H1   HT     0.417000        1.0080           0
   28089 WT1  8941 TIP3 H2   HT     0.417000        1.0080           0
   28090 WT1  8942 TIP3 OH2  OT    -0.834000       15.9994           0
   28091 WT1  8942 TIP3 H1   HT     0.417000        1.0080           0
   28092 WT1  8942 TIP3 H2   HT     0.417000        1.0080           0
   28093 WT1  8944 TIP3 OH2  OT    -0.834000       15.9994           0
   28094 WT1  8944 TIP3 H1   HT     0.417000        1.0080           0
   28095 WT1  8944 TIP3 H2   HT     0.417000        1.0080           0
   28096 WT1  8946 TIP3 OH2  OT    -0.834000       15.9994           0
   28097 WT1  8946 TIP3 H1   HT     0.417000        1.0080           0
   28098 WT1  8946 TIP3 H2   HT     0.417000        1.0080           0
   28099 WT1  8948 TIP3 OH2  OT    -0.834000       15.9994           0
   28100 WT1  8948 TIP3 H1   HT     0.417000        1.0080           0
   28101 WT1  8948 TIP3 H2   HT     0.417000        1.0080           0
   28102 WT1  8949 TIP3 OH2  OT    -0.834000       15.9994           0
   28103 WT1  8949 TIP3 H1   HT     0.417000        1.0080           0
   28104 WT1  8949 TIP3 H2   HT     0.417000        1.0080           0
   28105 WT1  8950 TIP3 OH2  OT    -0.834000       15.9994           0
   28106 WT1  8950 TIP3 H1   HT     0.417000        1.0080           0
   28107 WT1  8950 TIP3 H2   HT     0.417000        1.0080           0
   28108 WT1  8951 TIP3 OH2  OT    -0.834000       15.9994           0
   28109 WT1  8951 TIP3 H1   HT     0.417000        1.0080           0
   28110 WT1  8951 TIP3 H2   HT     0.417000        1.0080           0
   28111 WT1  8952 TIP3 OH2  OT    -0.834000       15.9994           0
   28112 WT1  8952 TIP3 H1   HT     0.417000        1.0080           0
   28113 WT1  8952 TIP3 H2   HT     0.417000        1.0080           0
   28114 WT1  8953 TIP3 OH2  OT    -0.834000       15.9994           0
   28115 WT1  8953 TIP3 H1   HT     0.417000        1.0080           0
   28116 WT1  8953 TIP3 H2   HT     0.417000        1.0080           0
   28117 WT1  8954 TIP3 OH2  OT    -0.834000       15.9994           0
   28118 WT1  8954 TIP3 H1   HT     0.417000        1.0080           0
   28119 WT1  8954 TIP3 H2   HT     0.417000        1.0080           0
   28120 WT1  8955 TIP3 OH2  OT    -0.834000       15.9994           0
   28121 WT1  8955 TIP3 H1   HT     0.417000        1.0080           0
   28122 WT1  8955 TIP3 H2   HT     0.417000        1.0080           0
   28123 WT1  8956 TIP3 OH2  OT    -0.834000       15.9994           0
   28124 WT1  8956 TIP3 H1   HT     0.417000        1.0080           0
   28125 WT1  8956 TIP3 H2   HT     0.417000        1.0080           0
   28126 WT1  8957 TIP3 OH2  OT    -0.834000       15.9994           0
   28127 WT1  8957 TIP3 H1   HT     0.417000        1.0080           0
   28128 WT1  8957 TIP3 H2   HT     0.417000        1.0080           0
   28129 WT1  8958 TIP3 OH2  OT    -0.834000       15.9994           0
   28130 WT1  8958 TIP3 H1   HT     0.417000        1.0080           0
   28131 WT1  8958 TIP3 H2   HT     0.417000        1.0080           0
   28132 WT1  8959 TIP3 OH2  OT    -0.834000       15.9994           0
   28133 WT1  8959 TIP3 H1   HT     0.417000        1.0080           0
   28134 WT1  8959 TIP3 H2   HT     0.417000        1.0080           0
   28135 WT1  8960 TIP3 OH2  OT    -0.834000       15.9994           0
   28136 WT1  8960 TIP3 H1   HT     0.417000        1.0080           0
   28137 WT1  8960 TIP3 H2   HT     0.417000        1.0080           0
   28138 WT1  8961 TIP3 OH2  OT    -0.834000       15.9994           0
   28139 WT1  8961 TIP3 H1   HT     0.417000        1.0080           0
   28140 WT1  8961 TIP3 H2   HT     0.417000        1.0080           0
   28141 WT1  8962 TIP3 OH2  OT    -0.834000       15.9994           0
   28142 WT1  8962 TIP3 H1   HT     0.417000        1.0080           0
   28143 WT1  8962 TIP3 H2   HT     0.417000        1.0080           0
   28144 WT1  8963 TIP3 OH2  OT    -0.834000       15.9994           0
   28145 WT1  8963 TIP3 H1   HT     0.417000        1.0080           0
   28146 WT1  8963 TIP3 H2   HT     0.417000        1.0080           0
   28147 WT1  8964 TIP3 OH2  OT    -0.834000       15.9994           0
   28148 WT1  8964 TIP3 H1   HT     0.417000        1.0080           0
   28149 WT1  8964 TIP3 H2   HT     0.417000        1.0080           0
   28150 WT1  8967 TIP3 OH2  OT    -0.834000       15.9994           0
   28151 WT1  8967 TIP3 H1   HT     0.417000        1.0080           0
   28152 WT1  8967 TIP3 H2   HT     0.417000        1.0080           0
   28153 WT1  8968 TIP3 OH2  OT    -0.834000       15.9994           0
   28154 WT1  8968 TIP3 H1   HT     0.417000        1.0080           0
   28155 WT1  8968 TIP3 H2   HT     0.417000        1.0080           0
   28156 WT1  8969 TIP3 OH2  OT    -0.834000       15.9994           0
   28157 WT1  8969 TIP3 H1   HT     0.417000        1.0080           0
   28158 WT1  8969 TIP3 H2   HT     0.417000        1.0080           0
   28159 WT1  8970 TIP3 OH2  OT    -0.834000       15.9994           0
   28160 WT1  8970 TIP3 H1   HT     0.417000        1.0080           0
   28161 WT1  8970 TIP3 H2   HT     0.417000        1.0080           0
   28162 WT1  8971 TIP3 OH2  OT    -0.834000       15.9994           0
   28163 WT1  8971 TIP3 H1   HT     0.417000        1.0080           0
   28164 WT1  8971 TIP3 H2   HT     0.417000        1.0080           0
   28165 WT1  8972 TIP3 OH2  OT    -0.834000       15.9994           0
   28166 WT1  8972 TIP3 H1   HT     0.417000        1.0080           0
   28167 WT1  8972 TIP3 H2   HT     0.417000        1.0080           0
   28168 WT1  8973 TIP3 OH2  OT    -0.834000       15.9994           0
   28169 WT1  8973 TIP3 H1   HT     0.417000        1.0080           0
   28170 WT1  8973 TIP3 H2   HT     0.417000        1.0080           0
   28171 WT1  8974 TIP3 OH2  OT    -0.834000       15.9994           0
   28172 WT1  8974 TIP3 H1   HT     0.417000        1.0080           0
   28173 WT1  8974 TIP3 H2   HT     0.417000        1.0080           0
   28174 WT1  8975 TIP3 OH2  OT    -0.834000       15.9994           0
   28175 WT1  8975 TIP3 H1   HT     0.417000        1.0080           0
   28176 WT1  8975 TIP3 H2   HT     0.417000        1.0080           0
   28177 WT1  8976 TIP3 OH2  OT    -0.834000       15.9994           0
   28178 WT1  8976 TIP3 H1   HT     0.417000        1.0080           0
   28179 WT1  8976 TIP3 H2   HT     0.417000        1.0080           0
   28180 WT1  8977 TIP3 OH2  OT    -0.834000       15.9994           0
   28181 WT1  8977 TIP3 H1   HT     0.417000        1.0080           0
   28182 WT1  8977 TIP3 H2   HT     0.417000        1.0080           0
   28183 WT1  8978 TIP3 OH2  OT    -0.834000       15.9994           0
   28184 WT1  8978 TIP3 H1   HT     0.417000        1.0080           0
   28185 WT1  8978 TIP3 H2   HT     0.417000        1.0080           0
   28186 WT1  8979 TIP3 OH2  OT    -0.834000       15.9994           0
   28187 WT1  8979 TIP3 H1   HT     0.417000        1.0080           0
   28188 WT1  8979 TIP3 H2   HT     0.417000        1.0080           0
   28189 WT1  8980 TIP3 OH2  OT    -0.834000       15.9994           0
   28190 WT1  8980 TIP3 H1   HT     0.417000        1.0080           0
   28191 WT1  8980 TIP3 H2   HT     0.417000        1.0080           0
   28192 WT1  8981 TIP3 OH2  OT    -0.834000       15.9994           0
   28193 WT1  8981 TIP3 H1   HT     0.417000        1.0080           0
   28194 WT1  8981 TIP3 H2   HT     0.417000        1.0080           0
   28195 WT1  8984 TIP3 OH2  OT    -0.834000       15.9994           0
   28196 WT1  8984 TIP3 H1   HT     0.417000        1.0080           0
   28197 WT1  8984 TIP3 H2   HT     0.417000        1.0080           0
   28198 WT1  8985 TIP3 OH2  OT    -0.834000       15.9994           0
   28199 WT1  8985 TIP3 H1   HT     0.417000        1.0080           0
   28200 WT1  8985 TIP3 H2   HT     0.417000        1.0080           0
   28201 WT1  8987 TIP3 OH2  OT    -0.834000       15.9994           0
   28202 WT1  8987 TIP3 H1   HT     0.417000        1.0080           0
   28203 WT1  8987 TIP3 H2   HT     0.417000        1.0080           0
   28204 WT1  8988 TIP3 OH2  OT    -0.834000       15.9994           0
   28205 WT1  8988 TIP3 H1   HT     0.417000        1.0080           0
   28206 WT1  8988 TIP3 H2   HT     0.417000        1.0080           0
   28207 WT1  8989 TIP3 OH2  OT    -0.834000       15.9994           0
   28208 WT1  8989 TIP3 H1   HT     0.417000        1.0080           0
   28209 WT1  8989 TIP3 H2   HT     0.417000        1.0080           0
   28210 WT1  8990 TIP3 OH2  OT    -0.834000       15.9994           0
   28211 WT1  8990 TIP3 H1   HT     0.417000        1.0080           0
   28212 WT1  8990 TIP3 H2   HT     0.417000        1.0080           0
   28213 WT1  8991 TIP3 OH2  OT    -0.834000       15.9994           0
   28214 WT1  8991 TIP3 H1   HT     0.417000        1.0080           0
   28215 WT1  8991 TIP3 H2   HT     0.417000        1.0080           0
   28216 WT1  8992 TIP3 OH2  OT    -0.834000       15.9994           0
   28217 WT1  8992 TIP3 H1   HT     0.417000        1.0080           0
   28218 WT1  8992 TIP3 H2   HT     0.417000        1.0080           0
   28219 WT1  8993 TIP3 OH2  OT    -0.834000       15.9994           0
   28220 WT1  8993 TIP3 H1   HT     0.417000        1.0080           0
   28221 WT1  8993 TIP3 H2   HT     0.417000        1.0080           0
   28222 WT1  8994 TIP3 OH2  OT    -0.834000       15.9994           0
   28223 WT1  8994 TIP3 H1   HT     0.417000        1.0080           0
   28224 WT1  8994 TIP3 H2   HT     0.417000        1.0080           0
   28225 WT1  8995 TIP3 OH2  OT    -0.834000       15.9994           0
   28226 WT1  8995 TIP3 H1   HT     0.417000        1.0080           0
   28227 WT1  8995 TIP3 H2   HT     0.417000        1.0080           0
   28228 WT1  8996 TIP3 OH2  OT    -0.834000       15.9994           0
   28229 WT1  8996 TIP3 H1   HT     0.417000        1.0080           0
   28230 WT1  8996 TIP3 H2   HT     0.417000        1.0080           0
   28231 WT1  8997 TIP3 OH2  OT    -0.834000       15.9994           0
   28232 WT1  8997 TIP3 H1   HT     0.417000        1.0080           0
   28233 WT1  8997 TIP3 H2   HT     0.417000        1.0080           0
   28234 WT1  8998 TIP3 OH2  OT    -0.834000       15.9994           0
   28235 WT1  8998 TIP3 H1   HT     0.417000        1.0080           0
   28236 WT1  8998 TIP3 H2   HT     0.417000        1.0080           0
   28237 WT1  8999 TIP3 OH2  OT    -0.834000       15.9994           0
   28238 WT1  8999 TIP3 H1   HT     0.417000        1.0080           0
   28239 WT1  8999 TIP3 H2   HT     0.417000        1.0080           0
   28240 WT1  9000 TIP3 OH2  OT    -0.834000       15.9994           0
   28241 WT1  9000 TIP3 H1   HT     0.417000        1.0080           0
   28242 WT1  9000 TIP3 H2   HT     0.417000        1.0080           0
   28243 WT1  9001 TIP3 OH2  OT    -0.834000       15.9994           0
   28244 WT1  9001 TIP3 H1   HT     0.417000        1.0080           0
   28245 WT1  9001 TIP3 H2   HT     0.417000        1.0080           0
   28246 WT1  9002 TIP3 OH2  OT    -0.834000       15.9994           0
   28247 WT1  9002 TIP3 H1   HT     0.417000        1.0080           0
   28248 WT1  9002 TIP3 H2   HT     0.417000        1.0080           0
   28249 WT1  9003 TIP3 OH2  OT    -0.834000       15.9994           0
   28250 WT1  9003 TIP3 H1   HT     0.417000        1.0080           0
   28251 WT1  9003 TIP3 H2   HT     0.417000        1.0080           0
   28252 WT1  9004 TIP3 OH2  OT    -0.834000       15.9994           0
   28253 WT1  9004 TIP3 H1   HT     0.417000        1.0080           0
   28254 WT1  9004 TIP3 H2   HT     0.417000        1.0080           0
   28255 WT1  9005 TIP3 OH2  OT    -0.834000       15.9994           0
   28256 WT1  9005 TIP3 H1   HT     0.417000        1.0080           0
   28257 WT1  9005 TIP3 H2   HT     0.417000        1.0080           0
   28258 WT1  9006 TIP3 OH2  OT    -0.834000       15.9994           0
   28259 WT1  9006 TIP3 H1   HT     0.417000        1.0080           0
   28260 WT1  9006 TIP3 H2   HT     0.417000        1.0080           0
   28261 WT1  9007 TIP3 OH2  OT    -0.834000       15.9994           0
   28262 WT1  9007 TIP3 H1   HT     0.417000        1.0080           0
   28263 WT1  9007 TIP3 H2   HT     0.417000        1.0080           0
   28264 WT1  9008 TIP3 OH2  OT    -0.834000       15.9994           0
   28265 WT1  9008 TIP3 H1   HT     0.417000        1.0080           0
   28266 WT1  9008 TIP3 H2   HT     0.417000        1.0080           0
   28267 WT1  9009 TIP3 OH2  OT    -0.834000       15.9994           0
   28268 WT1  9009 TIP3 H1   HT     0.417000        1.0080           0
   28269 WT1  9009 TIP3 H2   HT     0.417000        1.0080           0
   28270 WT1  9010 TIP3 OH2  OT    -0.834000       15.9994           0
   28271 WT1  9010 TIP3 H1   HT     0.417000        1.0080           0
   28272 WT1  9010 TIP3 H2   HT     0.417000        1.0080           0
   28273 WT1  9011 TIP3 OH2  OT    -0.834000       15.9994           0
   28274 WT1  9011 TIP3 H1   HT     0.417000        1.0080           0
   28275 WT1  9011 TIP3 H2   HT     0.417000        1.0080           0
   28276 WT1  9012 TIP3 OH2  OT    -0.834000       15.9994           0
   28277 WT1  9012 TIP3 H1   HT     0.417000        1.0080           0
   28278 WT1  9012 TIP3 H2   HT     0.417000        1.0080           0
   28279 WT1  9013 TIP3 OH2  OT    -0.834000       15.9994           0
   28280 WT1  9013 TIP3 H1   HT     0.417000        1.0080           0
   28281 WT1  9013 TIP3 H2   HT     0.417000        1.0080           0
   28282 WT1  9014 TIP3 OH2  OT    -0.834000       15.9994           0
   28283 WT1  9014 TIP3 H1   HT     0.417000        1.0080           0
   28284 WT1  9014 TIP3 H2   HT     0.417000        1.0080           0
   28285 WT1  9015 TIP3 OH2  OT    -0.834000       15.9994           0
   28286 WT1  9015 TIP3 H1   HT     0.417000        1.0080           0
   28287 WT1  9015 TIP3 H2   HT     0.417000        1.0080           0
   28288 WT1  9016 TIP3 OH2  OT    -0.834000       15.9994           0
   28289 WT1  9016 TIP3 H1   HT     0.417000        1.0080           0
   28290 WT1  9016 TIP3 H2   HT     0.417000        1.0080           0
   28291 WT1  9017 TIP3 OH2  OT    -0.834000       15.9994           0
   28292 WT1  9017 TIP3 H1   HT     0.417000        1.0080           0
   28293 WT1  9017 TIP3 H2   HT     0.417000        1.0080           0
   28294 WT1  9018 TIP3 OH2  OT    -0.834000       15.9994           0
   28295 WT1  9018 TIP3 H1   HT     0.417000        1.0080           0
   28296 WT1  9018 TIP3 H2   HT     0.417000        1.0080           0
   28297 WT1  9019 TIP3 OH2  OT    -0.834000       15.9994           0
   28298 WT1  9019 TIP3 H1   HT     0.417000        1.0080           0
   28299 WT1  9019 TIP3 H2   HT     0.417000        1.0080           0
   28300 WT1  9020 TIP3 OH2  OT    -0.834000       15.9994           0
   28301 WT1  9020 TIP3 H1   HT     0.417000        1.0080           0
   28302 WT1  9020 TIP3 H2   HT     0.417000        1.0080           0
   28303 WT1  9021 TIP3 OH2  OT    -0.834000       15.9994           0
   28304 WT1  9021 TIP3 H1   HT     0.417000        1.0080           0
   28305 WT1  9021 TIP3 H2   HT     0.417000        1.0080           0
   28306 WT1  9022 TIP3 OH2  OT    -0.834000       15.9994           0
   28307 WT1  9022 TIP3 H1   HT     0.417000        1.0080           0
   28308 WT1  9022 TIP3 H2   HT     0.417000        1.0080           0
   28309 WT1  9023 TIP3 OH2  OT    -0.834000       15.9994           0
   28310 WT1  9023 TIP3 H1   HT     0.417000        1.0080           0
   28311 WT1  9023 TIP3 H2   HT     0.417000        1.0080           0
   28312 WT1  9024 TIP3 OH2  OT    -0.834000       15.9994           0
   28313 WT1  9024 TIP3 H1   HT     0.417000        1.0080           0
   28314 WT1  9024 TIP3 H2   HT     0.417000        1.0080           0
   28315 WT1  9025 TIP3 OH2  OT    -0.834000       15.9994           0
   28316 WT1  9025 TIP3 H1   HT     0.417000        1.0080           0
   28317 WT1  9025 TIP3 H2   HT     0.417000        1.0080           0
   28318 WT1  9026 TIP3 OH2  OT    -0.834000       15.9994           0
   28319 WT1  9026 TIP3 H1   HT     0.417000        1.0080           0
   28320 WT1  9026 TIP3 H2   HT     0.417000        1.0080           0
   28321 WT1  9027 TIP3 OH2  OT    -0.834000       15.9994           0
   28322 WT1  9027 TIP3 H1   HT     0.417000        1.0080           0
   28323 WT1  9027 TIP3 H2   HT     0.417000        1.0080           0
   28324 WT1  9028 TIP3 OH2  OT    -0.834000       15.9994           0
   28325 WT1  9028 TIP3 H1   HT     0.417000        1.0080           0
   28326 WT1  9028 TIP3 H2   HT     0.417000        1.0080           0
   28327 WT1  9029 TIP3 OH2  OT    -0.834000       15.9994           0
   28328 WT1  9029 TIP3 H1   HT     0.417000        1.0080           0
   28329 WT1  9029 TIP3 H2   HT     0.417000        1.0080           0
   28330 WT1  9030 TIP3 OH2  OT    -0.834000       15.9994           0
   28331 WT1  9030 TIP3 H1   HT     0.417000        1.0080           0
   28332 WT1  9030 TIP3 H2   HT     0.417000        1.0080           0
   28333 WT1  9032 TIP3 OH2  OT    -0.834000       15.9994           0
   28334 WT1  9032 TIP3 H1   HT     0.417000        1.0080           0
   28335 WT1  9032 TIP3 H2   HT     0.417000        1.0080           0
   28336 WT1  9033 TIP3 OH2  OT    -0.834000       15.9994           0
   28337 WT1  9033 TIP3 H1   HT     0.417000        1.0080           0
   28338 WT1  9033 TIP3 H2   HT     0.417000        1.0080           0
   28339 WT1  9034 TIP3 OH2  OT    -0.834000       15.9994           0
   28340 WT1  9034 TIP3 H1   HT     0.417000        1.0080           0
   28341 WT1  9034 TIP3 H2   HT     0.417000        1.0080           0
   28342 WT1  9035 TIP3 OH2  OT    -0.834000       15.9994           0
   28343 WT1  9035 TIP3 H1   HT     0.417000        1.0080           0
   28344 WT1  9035 TIP3 H2   HT     0.417000        1.0080           0
   28345 WT1  9036 TIP3 OH2  OT    -0.834000       15.9994           0
   28346 WT1  9036 TIP3 H1   HT     0.417000        1.0080           0
   28347 WT1  9036 TIP3 H2   HT     0.417000        1.0080           0
   28348 WT1  9037 TIP3 OH2  OT    -0.834000       15.9994           0
   28349 WT1  9037 TIP3 H1   HT     0.417000        1.0080           0
   28350 WT1  9037 TIP3 H2   HT     0.417000        1.0080           0
   28351 WT1  9038 TIP3 OH2  OT    -0.834000       15.9994           0
   28352 WT1  9038 TIP3 H1   HT     0.417000        1.0080           0
   28353 WT1  9038 TIP3 H2   HT     0.417000        1.0080           0
   28354 WT1  9039 TIP3 OH2  OT    -0.834000       15.9994           0
   28355 WT1  9039 TIP3 H1   HT     0.417000        1.0080           0
   28356 WT1  9039 TIP3 H2   HT     0.417000        1.0080           0
   28357 WT1  9040 TIP3 OH2  OT    -0.834000       15.9994           0
   28358 WT1  9040 TIP3 H1   HT     0.417000        1.0080           0
   28359 WT1  9040 TIP3 H2   HT     0.417000        1.0080           0
   28360 WT1  9041 TIP3 OH2  OT    -0.834000       15.9994           0
   28361 WT1  9041 TIP3 H1   HT     0.417000        1.0080           0
   28362 WT1  9041 TIP3 H2   HT     0.417000        1.0080           0
   28363 WT1  9042 TIP3 OH2  OT    -0.834000       15.9994           0
   28364 WT1  9042 TIP3 H1   HT     0.417000        1.0080           0
   28365 WT1  9042 TIP3 H2   HT     0.417000        1.0080           0
   28366 WT1  9043 TIP3 OH2  OT    -0.834000       15.9994           0
   28367 WT1  9043 TIP3 H1   HT     0.417000        1.0080           0
   28368 WT1  9043 TIP3 H2   HT     0.417000        1.0080           0
   28369 WT1  9044 TIP3 OH2  OT    -0.834000       15.9994           0
   28370 WT1  9044 TIP3 H1   HT     0.417000        1.0080           0
   28371 WT1  9044 TIP3 H2   HT     0.417000        1.0080           0
   28372 WT1  9045 TIP3 OH2  OT    -0.834000       15.9994           0
   28373 WT1  9045 TIP3 H1   HT     0.417000        1.0080           0
   28374 WT1  9045 TIP3 H2   HT     0.417000        1.0080           0
   28375 WT1  9046 TIP3 OH2  OT    -0.834000       15.9994           0
   28376 WT1  9046 TIP3 H1   HT     0.417000        1.0080           0
   28377 WT1  9046 TIP3 H2   HT     0.417000        1.0080           0
   28378 WT1  9047 TIP3 OH2  OT    -0.834000       15.9994           0
   28379 WT1  9047 TIP3 H1   HT     0.417000        1.0080           0
   28380 WT1  9047 TIP3 H2   HT     0.417000        1.0080           0
   28381 WT1  9049 TIP3 OH2  OT    -0.834000       15.9994           0
   28382 WT1  9049 TIP3 H1   HT     0.417000        1.0080           0
   28383 WT1  9049 TIP3 H2   HT     0.417000        1.0080           0
   28384 WT1  9050 TIP3 OH2  OT    -0.834000       15.9994           0
   28385 WT1  9050 TIP3 H1   HT     0.417000        1.0080           0
   28386 WT1  9050 TIP3 H2   HT     0.417000        1.0080           0
   28387 WT1  9051 TIP3 OH2  OT    -0.834000       15.9994           0
   28388 WT1  9051 TIP3 H1   HT     0.417000        1.0080           0
   28389 WT1  9051 TIP3 H2   HT     0.417000        1.0080           0
   28390 WT1  9052 TIP3 OH2  OT    -0.834000       15.9994           0
   28391 WT1  9052 TIP3 H1   HT     0.417000        1.0080           0
   28392 WT1  9052 TIP3 H2   HT     0.417000        1.0080           0
   28393 WT1  9053 TIP3 OH2  OT    -0.834000       15.9994           0
   28394 WT1  9053 TIP3 H1   HT     0.417000        1.0080           0
   28395 WT1  9053 TIP3 H2   HT     0.417000        1.0080           0
   28396 WT1  9054 TIP3 OH2  OT    -0.834000       15.9994           0
   28397 WT1  9054 TIP3 H1   HT     0.417000        1.0080           0
   28398 WT1  9054 TIP3 H2   HT     0.417000        1.0080           0
   28399 WT1  9055 TIP3 OH2  OT    -0.834000       15.9994           0
   28400 WT1  9055 TIP3 H1   HT     0.417000        1.0080           0
   28401 WT1  9055 TIP3 H2   HT     0.417000        1.0080           0
   28402 WT1  9056 TIP3 OH2  OT    -0.834000       15.9994           0
   28403 WT1  9056 TIP3 H1   HT     0.417000        1.0080           0
   28404 WT1  9056 TIP3 H2   HT     0.417000        1.0080           0
   28405 WT1  9057 TIP3 OH2  OT    -0.834000       15.9994           0
   28406 WT1  9057 TIP3 H1   HT     0.417000        1.0080           0
   28407 WT1  9057 TIP3 H2   HT     0.417000        1.0080           0
   28408 WT1  9058 TIP3 OH2  OT    -0.834000       15.9994           0
   28409 WT1  9058 TIP3 H1   HT     0.417000        1.0080           0
   28410 WT1  9058 TIP3 H2   HT     0.417000        1.0080           0
   28411 WT1  9059 TIP3 OH2  OT    -0.834000       15.9994           0
   28412 WT1  9059 TIP3 H1   HT     0.417000        1.0080           0
   28413 WT1  9059 TIP3 H2   HT     0.417000        1.0080           0
   28414 WT1  9060 TIP3 OH2  OT    -0.834000       15.9994           0
   28415 WT1  9060 TIP3 H1   HT     0.417000        1.0080           0
   28416 WT1  9060 TIP3 H2   HT     0.417000        1.0080           0
   28417 WT1  9061 TIP3 OH2  OT    -0.834000       15.9994           0
   28418 WT1  9061 TIP3 H1   HT     0.417000        1.0080           0
   28419 WT1  9061 TIP3 H2   HT     0.417000        1.0080           0
   28420 WT1  9062 TIP3 OH2  OT    -0.834000       15.9994           0
   28421 WT1  9062 TIP3 H1   HT     0.417000        1.0080           0
   28422 WT1  9062 TIP3 H2   HT     0.417000        1.0080           0
   28423 WT1  9063 TIP3 OH2  OT    -0.834000       15.9994           0
   28424 WT1  9063 TIP3 H1   HT     0.417000        1.0080           0
   28425 WT1  9063 TIP3 H2   HT     0.417000        1.0080           0
   28426 WT1  9066 TIP3 OH2  OT    -0.834000       15.9994           0
   28427 WT1  9066 TIP3 H1   HT     0.417000        1.0080           0
   28428 WT1  9066 TIP3 H2   HT     0.417000        1.0080           0
   28429 WT1  9067 TIP3 OH2  OT    -0.834000       15.9994           0
   28430 WT1  9067 TIP3 H1   HT     0.417000        1.0080           0
   28431 WT1  9067 TIP3 H2   HT     0.417000        1.0080           0
   28432 WT1  9069 TIP3 OH2  OT    -0.834000       15.9994           0
   28433 WT1  9069 TIP3 H1   HT     0.417000        1.0080           0
   28434 WT1  9069 TIP3 H2   HT     0.417000        1.0080           0
   28435 WT1  9072 TIP3 OH2  OT    -0.834000       15.9994           0
   28436 WT1  9072 TIP3 H1   HT     0.417000        1.0080           0
   28437 WT1  9072 TIP3 H2   HT     0.417000        1.0080           0
   28438 WT1  9073 TIP3 OH2  OT    -0.834000       15.9994           0
   28439 WT1  9073 TIP3 H1   HT     0.417000        1.0080           0
   28440 WT1  9073 TIP3 H2   HT     0.417000        1.0080           0
   28441 WT1  9075 TIP3 OH2  OT    -0.834000       15.9994           0
   28442 WT1  9075 TIP3 H1   HT     0.417000        1.0080           0
   28443 WT1  9075 TIP3 H2   HT     0.417000        1.0080           0
   28444 WT1  9076 TIP3 OH2  OT    -0.834000       15.9994           0
   28445 WT1  9076 TIP3 H1   HT     0.417000        1.0080           0
   28446 WT1  9076 TIP3 H2   HT     0.417000        1.0080           0
   28447 WT1  9078 TIP3 OH2  OT    -0.834000       15.9994           0
   28448 WT1  9078 TIP3 H1   HT     0.417000        1.0080           0
   28449 WT1  9078 TIP3 H2   HT     0.417000        1.0080           0
   28450 WT1  9079 TIP3 OH2  OT    -0.834000       15.9994           0
   28451 WT1  9079 TIP3 H1   HT     0.417000        1.0080           0
   28452 WT1  9079 TIP3 H2   HT     0.417000        1.0080           0
   28453 WT1  9080 TIP3 OH2  OT    -0.834000       15.9994           0
   28454 WT1  9080 TIP3 H1   HT     0.417000        1.0080           0
   28455 WT1  9080 TIP3 H2   HT     0.417000        1.0080           0
   28456 WT1  9081 TIP3 OH2  OT    -0.834000       15.9994           0
   28457 WT1  9081 TIP3 H1   HT     0.417000        1.0080           0
   28458 WT1  9081 TIP3 H2   HT     0.417000        1.0080           0
   28459 WT1  9082 TIP3 OH2  OT    -0.834000       15.9994           0
   28460 WT1  9082 TIP3 H1   HT     0.417000        1.0080           0
   28461 WT1  9082 TIP3 H2   HT     0.417000        1.0080           0
   28462 WT1  9083 TIP3 OH2  OT    -0.834000       15.9994           0
   28463 WT1  9083 TIP3 H1   HT     0.417000        1.0080           0
   28464 WT1  9083 TIP3 H2   HT     0.417000        1.0080           0
   28465 WT1  9084 TIP3 OH2  OT    -0.834000       15.9994           0
   28466 WT1  9084 TIP3 H1   HT     0.417000        1.0080           0
   28467 WT1  9084 TIP3 H2   HT     0.417000        1.0080           0
   28468 WT1  9085 TIP3 OH2  OT    -0.834000       15.9994           0
   28469 WT1  9085 TIP3 H1   HT     0.417000        1.0080           0
   28470 WT1  9085 TIP3 H2   HT     0.417000        1.0080           0
   28471 WT1  9086 TIP3 OH2  OT    -0.834000       15.9994           0
   28472 WT1  9086 TIP3 H1   HT     0.417000        1.0080           0
   28473 WT1  9086 TIP3 H2   HT     0.417000        1.0080           0
   28474 WT1  9087 TIP3 OH2  OT    -0.834000       15.9994           0
   28475 WT1  9087 TIP3 H1   HT     0.417000        1.0080           0
   28476 WT1  9087 TIP3 H2   HT     0.417000        1.0080           0
   28477 WT1  9090 TIP3 OH2  OT    -0.834000       15.9994           0
   28478 WT1  9090 TIP3 H1   HT     0.417000        1.0080           0
   28479 WT1  9090 TIP3 H2   HT     0.417000        1.0080           0
   28480 WT1  9091 TIP3 OH2  OT    -0.834000       15.9994           0
   28481 WT1  9091 TIP3 H1   HT     0.417000        1.0080           0
   28482 WT1  9091 TIP3 H2   HT     0.417000        1.0080           0
   28483 WT1  9092 TIP3 OH2  OT    -0.834000       15.9994           0
   28484 WT1  9092 TIP3 H1   HT     0.417000        1.0080           0
   28485 WT1  9092 TIP3 H2   HT     0.417000        1.0080           0
   28486 WT1  9093 TIP3 OH2  OT    -0.834000       15.9994           0
   28487 WT1  9093 TIP3 H1   HT     0.417000        1.0080           0
   28488 WT1  9093 TIP3 H2   HT     0.417000        1.0080           0
   28489 WT1  9094 TIP3 OH2  OT    -0.834000       15.9994           0
   28490 WT1  9094 TIP3 H1   HT     0.417000        1.0080           0
   28491 WT1  9094 TIP3 H2   HT     0.417000        1.0080           0
   28492 WT1  9096 TIP3 OH2  OT    -0.834000       15.9994           0
   28493 WT1  9096 TIP3 H1   HT     0.417000        1.0080           0
   28494 WT1  9096 TIP3 H2   HT     0.417000        1.0080           0
   28495 WT1  9097 TIP3 OH2  OT    -0.834000       15.9994           0
   28496 WT1  9097 TIP3 H1   HT     0.417000        1.0080           0
   28497 WT1  9097 TIP3 H2   HT     0.417000        1.0080           0
   28498 WT1  9098 TIP3 OH2  OT    -0.834000       15.9994           0
   28499 WT1  9098 TIP3 H1   HT     0.417000        1.0080           0
   28500 WT1  9098 TIP3 H2   HT     0.417000        1.0080           0
   28501 WT1  9099 TIP3 OH2  OT    -0.834000       15.9994           0
   28502 WT1  9099 TIP3 H1   HT     0.417000        1.0080           0
   28503 WT1  9099 TIP3 H2   HT     0.417000        1.0080           0
   28504 WT1  9100 TIP3 OH2  OT    -0.834000       15.9994           0
   28505 WT1  9100 TIP3 H1   HT     0.417000        1.0080           0
   28506 WT1  9100 TIP3 H2   HT     0.417000        1.0080           0
   28507 WT1  9101 TIP3 OH2  OT    -0.834000       15.9994           0
   28508 WT1  9101 TIP3 H1   HT     0.417000        1.0080           0
   28509 WT1  9101 TIP3 H2   HT     0.417000        1.0080           0
   28510 WT1  9102 TIP3 OH2  OT    -0.834000       15.9994           0
   28511 WT1  9102 TIP3 H1   HT     0.417000        1.0080           0
   28512 WT1  9102 TIP3 H2   HT     0.417000        1.0080           0
   28513 WT1  9103 TIP3 OH2  OT    -0.834000       15.9994           0
   28514 WT1  9103 TIP3 H1   HT     0.417000        1.0080           0
   28515 WT1  9103 TIP3 H2   HT     0.417000        1.0080           0
   28516 WT1  9104 TIP3 OH2  OT    -0.834000       15.9994           0
   28517 WT1  9104 TIP3 H1   HT     0.417000        1.0080           0
   28518 WT1  9104 TIP3 H2   HT     0.417000        1.0080           0
   28519 WT1  9105 TIP3 OH2  OT    -0.834000       15.9994           0
   28520 WT1  9105 TIP3 H1   HT     0.417000        1.0080           0
   28521 WT1  9105 TIP3 H2   HT     0.417000        1.0080           0
   28522 WT1  9106 TIP3 OH2  OT    -0.834000       15.9994           0
   28523 WT1  9106 TIP3 H1   HT     0.417000        1.0080           0
   28524 WT1  9106 TIP3 H2   HT     0.417000        1.0080           0
   28525 WT1  9107 TIP3 OH2  OT    -0.834000       15.9994           0
   28526 WT1  9107 TIP3 H1   HT     0.417000        1.0080           0
   28527 WT1  9107 TIP3 H2   HT     0.417000        1.0080           0
   28528 WT1  9108 TIP3 OH2  OT    -0.834000       15.9994           0
   28529 WT1  9108 TIP3 H1   HT     0.417000        1.0080           0
   28530 WT1  9108 TIP3 H2   HT     0.417000        1.0080           0
   28531 WT1  9109 TIP3 OH2  OT    -0.834000       15.9994           0
   28532 WT1  9109 TIP3 H1   HT     0.417000        1.0080           0
   28533 WT1  9109 TIP3 H2   HT     0.417000        1.0080           0
   28534 WT1  9110 TIP3 OH2  OT    -0.834000       15.9994           0
   28535 WT1  9110 TIP3 H1   HT     0.417000        1.0080           0
   28536 WT1  9110 TIP3 H2   HT     0.417000        1.0080           0
   28537 WT1  9113 TIP3 OH2  OT    -0.834000       15.9994           0
   28538 WT1  9113 TIP3 H1   HT     0.417000        1.0080           0
   28539 WT1  9113 TIP3 H2   HT     0.417000        1.0080           0
   28540 WT1  9114 TIP3 OH2  OT    -0.834000       15.9994           0
   28541 WT1  9114 TIP3 H1   HT     0.417000        1.0080           0
   28542 WT1  9114 TIP3 H2   HT     0.417000        1.0080           0
   28543 WT1  9115 TIP3 OH2  OT    -0.834000       15.9994           0
   28544 WT1  9115 TIP3 H1   HT     0.417000        1.0080           0
   28545 WT1  9115 TIP3 H2   HT     0.417000        1.0080           0
   28546 WT1  9116 TIP3 OH2  OT    -0.834000       15.9994           0
   28547 WT1  9116 TIP3 H1   HT     0.417000        1.0080           0
   28548 WT1  9116 TIP3 H2   HT     0.417000        1.0080           0
   28549 WT1  9117 TIP3 OH2  OT    -0.834000       15.9994           0
   28550 WT1  9117 TIP3 H1   HT     0.417000        1.0080           0
   28551 WT1  9117 TIP3 H2   HT     0.417000        1.0080           0
   28552 WT1  9118 TIP3 OH2  OT    -0.834000       15.9994           0
   28553 WT1  9118 TIP3 H1   HT     0.417000        1.0080           0
   28554 WT1  9118 TIP3 H2   HT     0.417000        1.0080           0
   28555 WT1  9119 TIP3 OH2  OT    -0.834000       15.9994           0
   28556 WT1  9119 TIP3 H1   HT     0.417000        1.0080           0
   28557 WT1  9119 TIP3 H2   HT     0.417000        1.0080           0
   28558 WT1  9120 TIP3 OH2  OT    -0.834000       15.9994           0
   28559 WT1  9120 TIP3 H1   HT     0.417000        1.0080           0
   28560 WT1  9120 TIP3 H2   HT     0.417000        1.0080           0
   28561 WT1  9121 TIP3 OH2  OT    -0.834000       15.9994           0
   28562 WT1  9121 TIP3 H1   HT     0.417000        1.0080           0
   28563 WT1  9121 TIP3 H2   HT     0.417000        1.0080           0
   28564 WT1  9122 TIP3 OH2  OT    -0.834000       15.9994           0
   28565 WT1  9122 TIP3 H1   HT     0.417000        1.0080           0
   28566 WT1  9122 TIP3 H2   HT     0.417000        1.0080           0
   28567 WT1  9123 TIP3 OH2  OT    -0.834000       15.9994           0
   28568 WT1  9123 TIP3 H1   HT     0.417000        1.0080           0
   28569 WT1  9123 TIP3 H2   HT     0.417000        1.0080           0
   28570 WT1  9124 TIP3 OH2  OT    -0.834000       15.9994           0
   28571 WT1  9124 TIP3 H1   HT     0.417000        1.0080           0
   28572 WT1  9124 TIP3 H2   HT     0.417000        1.0080           0
   28573 WT1  9125 TIP3 OH2  OT    -0.834000       15.9994           0
   28574 WT1  9125 TIP3 H1   HT     0.417000        1.0080           0
   28575 WT1  9125 TIP3 H2   HT     0.417000        1.0080           0
   28576 WT1  9126 TIP3 OH2  OT    -0.834000       15.9994           0
   28577 WT1  9126 TIP3 H1   HT     0.417000        1.0080           0
   28578 WT1  9126 TIP3 H2   HT     0.417000        1.0080           0
   28579 WT1  9127 TIP3 OH2  OT    -0.834000       15.9994           0
   28580 WT1  9127 TIP3 H1   HT     0.417000        1.0080           0
   28581 WT1  9127 TIP3 H2   HT     0.417000        1.0080           0
   28582 WT1  9128 TIP3 OH2  OT    -0.834000       15.9994           0
   28583 WT1  9128 TIP3 H1   HT     0.417000        1.0080           0
   28584 WT1  9128 TIP3 H2   HT     0.417000        1.0080           0
   28585 WT1  9129 TIP3 OH2  OT    -0.834000       15.9994           0
   28586 WT1  9129 TIP3 H1   HT     0.417000        1.0080           0
   28587 WT1  9129 TIP3 H2   HT     0.417000        1.0080           0
   28588 WT1  9131 TIP3 OH2  OT    -0.834000       15.9994           0
   28589 WT1  9131 TIP3 H1   HT     0.417000        1.0080           0
   28590 WT1  9131 TIP3 H2   HT     0.417000        1.0080           0
   28591 WT1  9132 TIP3 OH2  OT    -0.834000       15.9994           0
   28592 WT1  9132 TIP3 H1   HT     0.417000        1.0080           0
   28593 WT1  9132 TIP3 H2   HT     0.417000        1.0080           0
   28594 WT1  9134 TIP3 OH2  OT    -0.834000       15.9994           0
   28595 WT1  9134 TIP3 H1   HT     0.417000        1.0080           0
   28596 WT1  9134 TIP3 H2   HT     0.417000        1.0080           0
   28597 WT1  9135 TIP3 OH2  OT    -0.834000       15.9994           0
   28598 WT1  9135 TIP3 H1   HT     0.417000        1.0080           0
   28599 WT1  9135 TIP3 H2   HT     0.417000        1.0080           0
   28600 WT1  9136 TIP3 OH2  OT    -0.834000       15.9994           0
   28601 WT1  9136 TIP3 H1   HT     0.417000        1.0080           0
   28602 WT1  9136 TIP3 H2   HT     0.417000        1.0080           0
   28603 WT1  9138 TIP3 OH2  OT    -0.834000       15.9994           0
   28604 WT1  9138 TIP3 H1   HT     0.417000        1.0080           0
   28605 WT1  9138 TIP3 H2   HT     0.417000        1.0080           0
   28606 WT1  9139 TIP3 OH2  OT    -0.834000       15.9994           0
   28607 WT1  9139 TIP3 H1   HT     0.417000        1.0080           0
   28608 WT1  9139 TIP3 H2   HT     0.417000        1.0080           0
   28609 WT1  9140 TIP3 OH2  OT    -0.834000       15.9994           0
   28610 WT1  9140 TIP3 H1   HT     0.417000        1.0080           0
   28611 WT1  9140 TIP3 H2   HT     0.417000        1.0080           0
   28612 WT1  9141 TIP3 OH2  OT    -0.834000       15.9994           0
   28613 WT1  9141 TIP3 H1   HT     0.417000        1.0080           0
   28614 WT1  9141 TIP3 H2   HT     0.417000        1.0080           0
   28615 WT1  9142 TIP3 OH2  OT    -0.834000       15.9994           0
   28616 WT1  9142 TIP3 H1   HT     0.417000        1.0080           0
   28617 WT1  9142 TIP3 H2   HT     0.417000        1.0080           0
   28618 WT1  9144 TIP3 OH2  OT    -0.834000       15.9994           0
   28619 WT1  9144 TIP3 H1   HT     0.417000        1.0080           0
   28620 WT1  9144 TIP3 H2   HT     0.417000        1.0080           0
   28621 WT1  9145 TIP3 OH2  OT    -0.834000       15.9994           0
   28622 WT1  9145 TIP3 H1   HT     0.417000        1.0080           0
   28623 WT1  9145 TIP3 H2   HT     0.417000        1.0080           0
   28624 WT1  9146 TIP3 OH2  OT    -0.834000       15.9994           0
   28625 WT1  9146 TIP3 H1   HT     0.417000        1.0080           0
   28626 WT1  9146 TIP3 H2   HT     0.417000        1.0080           0
   28627 WT1  9147 TIP3 OH2  OT    -0.834000       15.9994           0
   28628 WT1  9147 TIP3 H1   HT     0.417000        1.0080           0
   28629 WT1  9147 TIP3 H2   HT     0.417000        1.0080           0
   28630 WT1  9148 TIP3 OH2  OT    -0.834000       15.9994           0
   28631 WT1  9148 TIP3 H1   HT     0.417000        1.0080           0
   28632 WT1  9148 TIP3 H2   HT     0.417000        1.0080           0
   28633 WT1  9149 TIP3 OH2  OT    -0.834000       15.9994           0
   28634 WT1  9149 TIP3 H1   HT     0.417000        1.0080           0
   28635 WT1  9149 TIP3 H2   HT     0.417000        1.0080           0
   28636 WT1  9150 TIP3 OH2  OT    -0.834000       15.9994           0
   28637 WT1  9150 TIP3 H1   HT     0.417000        1.0080           0
   28638 WT1  9150 TIP3 H2   HT     0.417000        1.0080           0
   28639 WT1  9152 TIP3 OH2  OT    -0.834000       15.9994           0
   28640 WT1  9152 TIP3 H1   HT     0.417000        1.0080           0
   28641 WT1  9152 TIP3 H2   HT     0.417000        1.0080           0
   28642 WT1  9153 TIP3 OH2  OT    -0.834000       15.9994           0
   28643 WT1  9153 TIP3 H1   HT     0.417000        1.0080           0
   28644 WT1  9153 TIP3 H2   HT     0.417000        1.0080           0
   28645 WT1  9155 TIP3 OH2  OT    -0.834000       15.9994           0
   28646 WT1  9155 TIP3 H1   HT     0.417000        1.0080           0
   28647 WT1  9155 TIP3 H2   HT     0.417000        1.0080           0
   28648 WT1  9156 TIP3 OH2  OT    -0.834000       15.9994           0
   28649 WT1  9156 TIP3 H1   HT     0.417000        1.0080           0
   28650 WT1  9156 TIP3 H2   HT     0.417000        1.0080           0
   28651 WT1  9157 TIP3 OH2  OT    -0.834000       15.9994           0
   28652 WT1  9157 TIP3 H1   HT     0.417000        1.0080           0
   28653 WT1  9157 TIP3 H2   HT     0.417000        1.0080           0
   28654 WT1  9158 TIP3 OH2  OT    -0.834000       15.9994           0
   28655 WT1  9158 TIP3 H1   HT     0.417000        1.0080           0
   28656 WT1  9158 TIP3 H2   HT     0.417000        1.0080           0
   28657 WT1  9159 TIP3 OH2  OT    -0.834000       15.9994           0
   28658 WT1  9159 TIP3 H1   HT     0.417000        1.0080           0
   28659 WT1  9159 TIP3 H2   HT     0.417000        1.0080           0
   28660 WT1  9160 TIP3 OH2  OT    -0.834000       15.9994           0
   28661 WT1  9160 TIP3 H1   HT     0.417000        1.0080           0
   28662 WT1  9160 TIP3 H2   HT     0.417000        1.0080           0
   28663 WT1  9161 TIP3 OH2  OT    -0.834000       15.9994           0
   28664 WT1  9161 TIP3 H1   HT     0.417000        1.0080           0
   28665 WT1  9161 TIP3 H2   HT     0.417000        1.0080           0
   28666 WT1  9162 TIP3 OH2  OT    -0.834000       15.9994           0
   28667 WT1  9162 TIP3 H1   HT     0.417000        1.0080           0
   28668 WT1  9162 TIP3 H2   HT     0.417000        1.0080           0
   28669 WT1  9163 TIP3 OH2  OT    -0.834000       15.9994           0
   28670 WT1  9163 TIP3 H1   HT     0.417000        1.0080           0
   28671 WT1  9163 TIP3 H2   HT     0.417000        1.0080           0
   28672 WT1  9164 TIP3 OH2  OT    -0.834000       15.9994           0
   28673 WT1  9164 TIP3 H1   HT     0.417000        1.0080           0
   28674 WT1  9164 TIP3 H2   HT     0.417000        1.0080           0
   28675 WT1  9165 TIP3 OH2  OT    -0.834000       15.9994           0
   28676 WT1  9165 TIP3 H1   HT     0.417000        1.0080           0
   28677 WT1  9165 TIP3 H2   HT     0.417000        1.0080           0
   28678 WT1  9166 TIP3 OH2  OT    -0.834000       15.9994           0
   28679 WT1  9166 TIP3 H1   HT     0.417000        1.0080           0
   28680 WT1  9166 TIP3 H2   HT     0.417000        1.0080           0
   28681 WT1  9167 TIP3 OH2  OT    -0.834000       15.9994           0
   28682 WT1  9167 TIP3 H1   HT     0.417000        1.0080           0
   28683 WT1  9167 TIP3 H2   HT     0.417000        1.0080           0
   28684 WT1  9168 TIP3 OH2  OT    -0.834000       15.9994           0
   28685 WT1  9168 TIP3 H1   HT     0.417000        1.0080           0
   28686 WT1  9168 TIP3 H2   HT     0.417000        1.0080           0
   28687 WT1  9169 TIP3 OH2  OT    -0.834000       15.9994           0
   28688 WT1  9169 TIP3 H1   HT     0.417000        1.0080           0
   28689 WT1  9169 TIP3 H2   HT     0.417000        1.0080           0
   28690 WT1  9170 TIP3 OH2  OT    -0.834000       15.9994           0
   28691 WT1  9170 TIP3 H1   HT     0.417000        1.0080           0
   28692 WT1  9170 TIP3 H2   HT     0.417000        1.0080           0
   28693 WT1  9171 TIP3 OH2  OT    -0.834000       15.9994           0
   28694 WT1  9171 TIP3 H1   HT     0.417000        1.0080           0
   28695 WT1  9171 TIP3 H2   HT     0.417000        1.0080           0
   28696 WT1  9172 TIP3 OH2  OT    -0.834000       15.9994           0
   28697 WT1  9172 TIP3 H1   HT     0.417000        1.0080           0
   28698 WT1  9172 TIP3 H2   HT     0.417000        1.0080           0
   28699 WT1  9173 TIP3 OH2  OT    -0.834000       15.9994           0
   28700 WT1  9173 TIP3 H1   HT     0.417000        1.0080           0
   28701 WT1  9173 TIP3 H2   HT     0.417000        1.0080           0
   28702 WT1  9174 TIP3 OH2  OT    -0.834000       15.9994           0
   28703 WT1  9174 TIP3 H1   HT     0.417000        1.0080           0
   28704 WT1  9174 TIP3 H2   HT     0.417000        1.0080           0
   28705 WT1  9176 TIP3 OH2  OT    -0.834000       15.9994           0
   28706 WT1  9176 TIP3 H1   HT     0.417000        1.0080           0
   28707 WT1  9176 TIP3 H2   HT     0.417000        1.0080           0
   28708 WT1  9177 TIP3 OH2  OT    -0.834000       15.9994           0
   28709 WT1  9177 TIP3 H1   HT     0.417000        1.0080           0
   28710 WT1  9177 TIP3 H2   HT     0.417000        1.0080           0
   28711 WT1  9178 TIP3 OH2  OT    -0.834000       15.9994           0
   28712 WT1  9178 TIP3 H1   HT     0.417000        1.0080           0
   28713 WT1  9178 TIP3 H2   HT     0.417000        1.0080           0
   28714 WT1  9179 TIP3 OH2  OT    -0.834000       15.9994           0
   28715 WT1  9179 TIP3 H1   HT     0.417000        1.0080           0
   28716 WT1  9179 TIP3 H2   HT     0.417000        1.0080           0
   28717 WT1  9180 TIP3 OH2  OT    -0.834000       15.9994           0
   28718 WT1  9180 TIP3 H1   HT     0.417000        1.0080           0
   28719 WT1  9180 TIP3 H2   HT     0.417000        1.0080           0
   28720 WT1  9181 TIP3 OH2  OT    -0.834000       15.9994           0
   28721 WT1  9181 TIP3 H1   HT     0.417000        1.0080           0
   28722 WT1  9181 TIP3 H2   HT     0.417000        1.0080           0
   28723 WT1  9182 TIP3 OH2  OT    -0.834000       15.9994           0
   28724 WT1  9182 TIP3 H1   HT     0.417000        1.0080           0
   28725 WT1  9182 TIP3 H2   HT     0.417000        1.0080           0
   28726 WT1  9183 TIP3 OH2  OT    -0.834000       15.9994           0
   28727 WT1  9183 TIP3 H1   HT     0.417000        1.0080           0
   28728 WT1  9183 TIP3 H2   HT     0.417000        1.0080           0
   28729 WT1  9185 TIP3 OH2  OT    -0.834000       15.9994           0
   28730 WT1  9185 TIP3 H1   HT     0.417000        1.0080           0
   28731 WT1  9185 TIP3 H2   HT     0.417000        1.0080           0
   28732 WT1  9186 TIP3 OH2  OT    -0.834000       15.9994           0
   28733 WT1  9186 TIP3 H1   HT     0.417000        1.0080           0
   28734 WT1  9186 TIP3 H2   HT     0.417000        1.0080           0
   28735 WT1  9187 TIP3 OH2  OT    -0.834000       15.9994           0
   28736 WT1  9187 TIP3 H1   HT     0.417000        1.0080           0
   28737 WT1  9187 TIP3 H2   HT     0.417000        1.0080           0
   28738 WT1  9188 TIP3 OH2  OT    -0.834000       15.9994           0
   28739 WT1  9188 TIP3 H1   HT     0.417000        1.0080           0
   28740 WT1  9188 TIP3 H2   HT     0.417000        1.0080           0
   28741 WT1  9189 TIP3 OH2  OT    -0.834000       15.9994           0
   28742 WT1  9189 TIP3 H1   HT     0.417000        1.0080           0
   28743 WT1  9189 TIP3 H2   HT     0.417000        1.0080           0
   28744 WT1  9190 TIP3 OH2  OT    -0.834000       15.9994           0
   28745 WT1  9190 TIP3 H1   HT     0.417000        1.0080           0
   28746 WT1  9190 TIP3 H2   HT     0.417000        1.0080           0
   28747 WT1  9191 TIP3 OH2  OT    -0.834000       15.9994           0
   28748 WT1  9191 TIP3 H1   HT     0.417000        1.0080           0
   28749 WT1  9191 TIP3 H2   HT     0.417000        1.0080           0
   28750 WT1  9192 TIP3 OH2  OT    -0.834000       15.9994           0
   28751 WT1  9192 TIP3 H1   HT     0.417000        1.0080           0
   28752 WT1  9192 TIP3 H2   HT     0.417000        1.0080           0
   28753 WT1  9195 TIP3 OH2  OT    -0.834000       15.9994           0
   28754 WT1  9195 TIP3 H1   HT     0.417000        1.0080           0
   28755 WT1  9195 TIP3 H2   HT     0.417000        1.0080           0
   28756 WT1  9196 TIP3 OH2  OT    -0.834000       15.9994           0
   28757 WT1  9196 TIP3 H1   HT     0.417000        1.0080           0
   28758 WT1  9196 TIP3 H2   HT     0.417000        1.0080           0
   28759 WT1  9198 TIP3 OH2  OT    -0.834000       15.9994           0
   28760 WT1  9198 TIP3 H1   HT     0.417000        1.0080           0
   28761 WT1  9198 TIP3 H2   HT     0.417000        1.0080           0
   28762 WT1  9199 TIP3 OH2  OT    -0.834000       15.9994           0
   28763 WT1  9199 TIP3 H1   HT     0.417000        1.0080           0
   28764 WT1  9199 TIP3 H2   HT     0.417000        1.0080           0
   28765 WT1  9200 TIP3 OH2  OT    -0.834000       15.9994           0
   28766 WT1  9200 TIP3 H1   HT     0.417000        1.0080           0
   28767 WT1  9200 TIP3 H2   HT     0.417000        1.0080           0
   28768 WT1  9201 TIP3 OH2  OT    -0.834000       15.9994           0
   28769 WT1  9201 TIP3 H1   HT     0.417000        1.0080           0
   28770 WT1  9201 TIP3 H2   HT     0.417000        1.0080           0
   28771 WT1  9202 TIP3 OH2  OT    -0.834000       15.9994           0
   28772 WT1  9202 TIP3 H1   HT     0.417000        1.0080           0
   28773 WT1  9202 TIP3 H2   HT     0.417000        1.0080           0
   28774 WT1  9203 TIP3 OH2  OT    -0.834000       15.9994           0
   28775 WT1  9203 TIP3 H1   HT     0.417000        1.0080           0
   28776 WT1  9203 TIP3 H2   HT     0.417000        1.0080           0
   28777 WT1  9204 TIP3 OH2  OT    -0.834000       15.9994           0
   28778 WT1  9204 TIP3 H1   HT     0.417000        1.0080           0
   28779 WT1  9204 TIP3 H2   HT     0.417000        1.0080           0
   28780 WT1  9205 TIP3 OH2  OT    -0.834000       15.9994           0
   28781 WT1  9205 TIP3 H1   HT     0.417000        1.0080           0
   28782 WT1  9205 TIP3 H2   HT     0.417000        1.0080           0
   28783 WT1  9206 TIP3 OH2  OT    -0.834000       15.9994           0
   28784 WT1  9206 TIP3 H1   HT     0.417000        1.0080           0
   28785 WT1  9206 TIP3 H2   HT     0.417000        1.0080           0
   28786 WT1  9207 TIP3 OH2  OT    -0.834000       15.9994           0
   28787 WT1  9207 TIP3 H1   HT     0.417000        1.0080           0
   28788 WT1  9207 TIP3 H2   HT     0.417000        1.0080           0
   28789 WT1  9208 TIP3 OH2  OT    -0.834000       15.9994           0
   28790 WT1  9208 TIP3 H1   HT     0.417000        1.0080           0
   28791 WT1  9208 TIP3 H2   HT     0.417000        1.0080           0
   28792 WT1  9209 TIP3 OH2  OT    -0.834000       15.9994           0
   28793 WT1  9209 TIP3 H1   HT     0.417000        1.0080           0
   28794 WT1  9209 TIP3 H2   HT     0.417000        1.0080           0
   28795 WT1  9210 TIP3 OH2  OT    -0.834000       15.9994           0
   28796 WT1  9210 TIP3 H1   HT     0.417000        1.0080           0
   28797 WT1  9210 TIP3 H2   HT     0.417000        1.0080           0
   28798 WT1  9211 TIP3 OH2  OT    -0.834000       15.9994           0
   28799 WT1  9211 TIP3 H1   HT     0.417000        1.0080           0
   28800 WT1  9211 TIP3 H2   HT     0.417000        1.0080           0
   28801 WT1  9212 TIP3 OH2  OT    -0.834000       15.9994           0
   28802 WT1  9212 TIP3 H1   HT     0.417000        1.0080           0
   28803 WT1  9212 TIP3 H2   HT     0.417000        1.0080           0
   28804 WT1  9213 TIP3 OH2  OT    -0.834000       15.9994           0
   28805 WT1  9213 TIP3 H1   HT     0.417000        1.0080           0
   28806 WT1  9213 TIP3 H2   HT     0.417000        1.0080           0
   28807 WT1  9214 TIP3 OH2  OT    -0.834000       15.9994           0
   28808 WT1  9214 TIP3 H1   HT     0.417000        1.0080           0
   28809 WT1  9214 TIP3 H2   HT     0.417000        1.0080           0
   28810 WT1  9215 TIP3 OH2  OT    -0.834000       15.9994           0
   28811 WT1  9215 TIP3 H1   HT     0.417000        1.0080           0
   28812 WT1  9215 TIP3 H2   HT     0.417000        1.0080           0
   28813 WT1  9216 TIP3 OH2  OT    -0.834000       15.9994           0
   28814 WT1  9216 TIP3 H1   HT     0.417000        1.0080           0
   28815 WT1  9216 TIP3 H2   HT     0.417000        1.0080           0
   28816 WT1  9217 TIP3 OH2  OT    -0.834000       15.9994           0
   28817 WT1  9217 TIP3 H1   HT     0.417000        1.0080           0
   28818 WT1  9217 TIP3 H2   HT     0.417000        1.0080           0
   28819 WT1  9218 TIP3 OH2  OT    -0.834000       15.9994           0
   28820 WT1  9218 TIP3 H1   HT     0.417000        1.0080           0
   28821 WT1  9218 TIP3 H2   HT     0.417000        1.0080           0
   28822 WT1  9219 TIP3 OH2  OT    -0.834000       15.9994           0
   28823 WT1  9219 TIP3 H1   HT     0.417000        1.0080           0
   28824 WT1  9219 TIP3 H2   HT     0.417000        1.0080           0
   28825 WT1  9221 TIP3 OH2  OT    -0.834000       15.9994           0
   28826 WT1  9221 TIP3 H1   HT     0.417000        1.0080           0
   28827 WT1  9221 TIP3 H2   HT     0.417000        1.0080           0
   28828 WT1  9222 TIP3 OH2  OT    -0.834000       15.9994           0
   28829 WT1  9222 TIP3 H1   HT     0.417000        1.0080           0
   28830 WT1  9222 TIP3 H2   HT     0.417000        1.0080           0
   28831 WT1  9223 TIP3 OH2  OT    -0.834000       15.9994           0
   28832 WT1  9223 TIP3 H1   HT     0.417000        1.0080           0
   28833 WT1  9223 TIP3 H2   HT     0.417000        1.0080           0
   28834 WT1  9224 TIP3 OH2  OT    -0.834000       15.9994           0
   28835 WT1  9224 TIP3 H1   HT     0.417000        1.0080           0
   28836 WT1  9224 TIP3 H2   HT     0.417000        1.0080           0
   28837 WT1  9225 TIP3 OH2  OT    -0.834000       15.9994           0
   28838 WT1  9225 TIP3 H1   HT     0.417000        1.0080           0
   28839 WT1  9225 TIP3 H2   HT     0.417000        1.0080           0
   28840 WT1  9226 TIP3 OH2  OT    -0.834000       15.9994           0
   28841 WT1  9226 TIP3 H1   HT     0.417000        1.0080           0
   28842 WT1  9226 TIP3 H2   HT     0.417000        1.0080           0
   28843 WT1  9227 TIP3 OH2  OT    -0.834000       15.9994           0
   28844 WT1  9227 TIP3 H1   HT     0.417000        1.0080           0
   28845 WT1  9227 TIP3 H2   HT     0.417000        1.0080           0
   28846 WT1  9228 TIP3 OH2  OT    -0.834000       15.9994           0
   28847 WT1  9228 TIP3 H1   HT     0.417000        1.0080           0
   28848 WT1  9228 TIP3 H2   HT     0.417000        1.0080           0
   28849 WT1  9229 TIP3 OH2  OT    -0.834000       15.9994           0
   28850 WT1  9229 TIP3 H1   HT     0.417000        1.0080           0
   28851 WT1  9229 TIP3 H2   HT     0.417000        1.0080           0
   28852 WT1  9230 TIP3 OH2  OT    -0.834000       15.9994           0
   28853 WT1  9230 TIP3 H1   HT     0.417000        1.0080           0
   28854 WT1  9230 TIP3 H2   HT     0.417000        1.0080           0
   28855 WT1  9231 TIP3 OH2  OT    -0.834000       15.9994           0
   28856 WT1  9231 TIP3 H1   HT     0.417000        1.0080           0
   28857 WT1  9231 TIP3 H2   HT     0.417000        1.0080           0
   28858 WT1  9232 TIP3 OH2  OT    -0.834000       15.9994           0
   28859 WT1  9232 TIP3 H1   HT     0.417000        1.0080           0
   28860 WT1  9232 TIP3 H2   HT     0.417000        1.0080           0
   28861 WT1  9234 TIP3 OH2  OT    -0.834000       15.9994           0
   28862 WT1  9234 TIP3 H1   HT     0.417000        1.0080           0
   28863 WT1  9234 TIP3 H2   HT     0.417000        1.0080           0
   28864 WT1  9235 TIP3 OH2  OT    -0.834000       15.9994           0
   28865 WT1  9235 TIP3 H1   HT     0.417000        1.0080           0
   28866 WT1  9235 TIP3 H2   HT     0.417000        1.0080           0
   28867 WT1  9236 TIP3 OH2  OT    -0.834000       15.9994           0
   28868 WT1  9236 TIP3 H1   HT     0.417000        1.0080           0
   28869 WT1  9236 TIP3 H2   HT     0.417000        1.0080           0
   28870 WT1  9238 TIP3 OH2  OT    -0.834000       15.9994           0
   28871 WT1  9238 TIP3 H1   HT     0.417000        1.0080           0
   28872 WT1  9238 TIP3 H2   HT     0.417000        1.0080           0
   28873 WT1  9239 TIP3 OH2  OT    -0.834000       15.9994           0
   28874 WT1  9239 TIP3 H1   HT     0.417000        1.0080           0
   28875 WT1  9239 TIP3 H2   HT     0.417000        1.0080           0
   28876 WT1  9240 TIP3 OH2  OT    -0.834000       15.9994           0
   28877 WT1  9240 TIP3 H1   HT     0.417000        1.0080           0
   28878 WT1  9240 TIP3 H2   HT     0.417000        1.0080           0
   28879 WT1  9241 TIP3 OH2  OT    -0.834000       15.9994           0
   28880 WT1  9241 TIP3 H1   HT     0.417000        1.0080           0
   28881 WT1  9241 TIP3 H2   HT     0.417000        1.0080           0
   28882 WT1  9243 TIP3 OH2  OT    -0.834000       15.9994           0
   28883 WT1  9243 TIP3 H1   HT     0.417000        1.0080           0
   28884 WT1  9243 TIP3 H2   HT     0.417000        1.0080           0
   28885 WT1  9244 TIP3 OH2  OT    -0.834000       15.9994           0
   28886 WT1  9244 TIP3 H1   HT     0.417000        1.0080           0
   28887 WT1  9244 TIP3 H2   HT     0.417000        1.0080           0
   28888 WT1  9245 TIP3 OH2  OT    -0.834000       15.9994           0
   28889 WT1  9245 TIP3 H1   HT     0.417000        1.0080           0
   28890 WT1  9245 TIP3 H2   HT     0.417000        1.0080           0
   28891 WT1  9246 TIP3 OH2  OT    -0.834000       15.9994           0
   28892 WT1  9246 TIP3 H1   HT     0.417000        1.0080           0
   28893 WT1  9246 TIP3 H2   HT     0.417000        1.0080           0
   28894 WT1  9247 TIP3 OH2  OT    -0.834000       15.9994           0
   28895 WT1  9247 TIP3 H1   HT     0.417000        1.0080           0
   28896 WT1  9247 TIP3 H2   HT     0.417000        1.0080           0
   28897 WT1  9248 TIP3 OH2  OT    -0.834000       15.9994           0
   28898 WT1  9248 TIP3 H1   HT     0.417000        1.0080           0
   28899 WT1  9248 TIP3 H2   HT     0.417000        1.0080           0
   28900 WT1  9249 TIP3 OH2  OT    -0.834000       15.9994           0
   28901 WT1  9249 TIP3 H1   HT     0.417000        1.0080           0
   28902 WT1  9249 TIP3 H2   HT     0.417000        1.0080           0
   28903 WT1  9250 TIP3 OH2  OT    -0.834000       15.9994           0
   28904 WT1  9250 TIP3 H1   HT     0.417000        1.0080           0
   28905 WT1  9250 TIP3 H2   HT     0.417000        1.0080           0
   28906 WT1  9251 TIP3 OH2  OT    -0.834000       15.9994           0
   28907 WT1  9251 TIP3 H1   HT     0.417000        1.0080           0
   28908 WT1  9251 TIP3 H2   HT     0.417000        1.0080           0
   28909 WT1  9252 TIP3 OH2  OT    -0.834000       15.9994           0
   28910 WT1  9252 TIP3 H1   HT     0.417000        1.0080           0
   28911 WT1  9252 TIP3 H2   HT     0.417000        1.0080           0
   28912 WT1  9253 TIP3 OH2  OT    -0.834000       15.9994           0
   28913 WT1  9253 TIP3 H1   HT     0.417000        1.0080           0
   28914 WT1  9253 TIP3 H2   HT     0.417000        1.0080           0
   28915 WT1  9254 TIP3 OH2  OT    -0.834000       15.9994           0
   28916 WT1  9254 TIP3 H1   HT     0.417000        1.0080           0
   28917 WT1  9254 TIP3 H2   HT     0.417000        1.0080           0
   28918 WT1  9255 TIP3 OH2  OT    -0.834000       15.9994           0
   28919 WT1  9255 TIP3 H1   HT     0.417000        1.0080           0
   28920 WT1  9255 TIP3 H2   HT     0.417000        1.0080           0
   28921 WT1  9256 TIP3 OH2  OT    -0.834000       15.9994           0
   28922 WT1  9256 TIP3 H1   HT     0.417000        1.0080           0
   28923 WT1  9256 TIP3 H2   HT     0.417000        1.0080           0
   28924 WT1  9257 TIP3 OH2  OT    -0.834000       15.9994           0
   28925 WT1  9257 TIP3 H1   HT     0.417000        1.0080           0
   28926 WT1  9257 TIP3 H2   HT     0.417000        1.0080           0
   28927 WT1  9259 TIP3 OH2  OT    -0.834000       15.9994           0
   28928 WT1  9259 TIP3 H1   HT     0.417000        1.0080           0
   28929 WT1  9259 TIP3 H2   HT     0.417000        1.0080           0
   28930 WT1  9260 TIP3 OH2  OT    -0.834000       15.9994           0
   28931 WT1  9260 TIP3 H1   HT     0.417000        1.0080           0
   28932 WT1  9260 TIP3 H2   HT     0.417000        1.0080           0
   28933 WT1  9261 TIP3 OH2  OT    -0.834000       15.9994           0
   28934 WT1  9261 TIP3 H1   HT     0.417000        1.0080           0
   28935 WT1  9261 TIP3 H2   HT     0.417000        1.0080           0
   28936 WT2  2    TIP3 OH2  OT    -0.834000       15.9994           0
   28937 WT2  2    TIP3 H1   HT     0.417000        1.0080           0
   28938 WT2  2    TIP3 H2   HT     0.417000        1.0080           0
   28939 WT2  3    TIP3 OH2  OT    -0.834000       15.9994           0
   28940 WT2  3    TIP3 H1   HT     0.417000        1.0080           0
   28941 WT2  3    TIP3 H2   HT     0.417000        1.0080           0
   28942 WT2  4    TIP3 OH2  OT    -0.834000       15.9994           0
   28943 WT2  4    TIP3 H1   HT     0.417000        1.0080           0
   28944 WT2  4    TIP3 H2   HT     0.417000        1.0080           0
   28945 WT2  5    TIP3 OH2  OT    -0.834000       15.9994           0
   28946 WT2  5    TIP3 H1   HT     0.417000        1.0080           0
   28947 WT2  5    TIP3 H2   HT     0.417000        1.0080           0
   28948 WT2  7    TIP3 OH2  OT    -0.834000       15.9994           0
   28949 WT2  7    TIP3 H1   HT     0.417000        1.0080           0
   28950 WT2  7    TIP3 H2   HT     0.417000        1.0080           0
   28951 WT2  8    TIP3 OH2  OT    -0.834000       15.9994           0
   28952 WT2  8    TIP3 H1   HT     0.417000        1.0080           0
   28953 WT2  8    TIP3 H2   HT     0.417000        1.0080           0
   28954 WT2  9    TIP3 OH2  OT    -0.834000       15.9994           0
   28955 WT2  9    TIP3 H1   HT     0.417000        1.0080           0
   28956 WT2  9    TIP3 H2   HT     0.417000        1.0080           0
   28957 WT2  10   TIP3 OH2  OT    -0.834000       15.9994           0
   28958 WT2  10   TIP3 H1   HT     0.417000        1.0080           0
   28959 WT2  10   TIP3 H2   HT     0.417000        1.0080           0
   28960 WT2  11   TIP3 OH2  OT    -0.834000       15.9994           0
   28961 WT2  11   TIP3 H1   HT     0.417000        1.0080           0
   28962 WT2  11   TIP3 H2   HT     0.417000        1.0080           0
   28963 WT2  12   TIP3 OH2  OT    -0.834000       15.9994           0
   28964 WT2  12   TIP3 H1   HT     0.417000        1.0080           0
   28965 WT2  12   TIP3 H2   HT     0.417000        1.0080           0
   28966 WT2  15   TIP3 OH2  OT    -0.834000       15.9994           0
   28967 WT2  15   TIP3 H1   HT     0.417000        1.0080           0
   28968 WT2  15   TIP3 H2   HT     0.417000        1.0080           0
   28969 WT2  16   TIP3 OH2  OT    -0.834000       15.9994           0
   28970 WT2  16   TIP3 H1   HT     0.417000        1.0080           0
   28971 WT2  16   TIP3 H2   HT     0.417000        1.0080           0
   28972 WT2  21   TIP3 OH2  OT    -0.834000       15.9994           0
   28973 WT2  21   TIP3 H1   HT     0.417000        1.0080           0
   28974 WT2  21   TIP3 H2   HT     0.417000        1.0080           0
   28975 WT2  22   TIP3 OH2  OT    -0.834000       15.9994           0
   28976 WT2  22   TIP3 H1   HT     0.417000        1.0080           0
   28977 WT2  22   TIP3 H2   HT     0.417000        1.0080           0
   28978 WT2  23   TIP3 OH2  OT    -0.834000       15.9994           0
   28979 WT2  23   TIP3 H1   HT     0.417000        1.0080           0
   28980 WT2  23   TIP3 H2   HT     0.417000        1.0080           0
   28981 WT2  24   TIP3 OH2  OT    -0.834000       15.9994           0
   28982 WT2  24   TIP3 H1   HT     0.417000        1.0080           0
   28983 WT2  24   TIP3 H2   HT     0.417000        1.0080           0
   28984 WT2  25   TIP3 OH2  OT    -0.834000       15.9994           0
   28985 WT2  25   TIP3 H1   HT     0.417000        1.0080           0
   28986 WT2  25   TIP3 H2   HT     0.417000        1.0080           0
   28987 WT2  26   TIP3 OH2  OT    -0.834000       15.9994           0
   28988 WT2  26   TIP3 H1   HT     0.417000        1.0080           0
   28989 WT2  26   TIP3 H2   HT     0.417000        1.0080           0
   28990 WT2  27   TIP3 OH2  OT    -0.834000       15.9994           0
   28991 WT2  27   TIP3 H1   HT     0.417000        1.0080           0
   28992 WT2  27   TIP3 H2   HT     0.417000        1.0080           0
   28993 WT2  28   TIP3 OH2  OT    -0.834000       15.9994           0
   28994 WT2  28   TIP3 H1   HT     0.417000        1.0080           0
   28995 WT2  28   TIP3 H2   HT     0.417000        1.0080           0
   28996 WT2  29   TIP3 OH2  OT    -0.834000       15.9994           0
   28997 WT2  29   TIP3 H1   HT     0.417000        1.0080           0
   28998 WT2  29   TIP3 H2   HT     0.417000        1.0080           0
   28999 WT2  30   TIP3 OH2  OT    -0.834000       15.9994           0
   29000 WT2  30   TIP3 H1   HT     0.417000        1.0080           0
   29001 WT2  30   TIP3 H2   HT     0.417000        1.0080           0
   29002 WT2  31   TIP3 OH2  OT    -0.834000       15.9994           0
   29003 WT2  31   TIP3 H1   HT     0.417000        1.0080           0
   29004 WT2  31   TIP3 H2   HT     0.417000        1.0080           0
   29005 WT2  32   TIP3 OH2  OT    -0.834000       15.9994           0
   29006 WT2  32   TIP3 H1   HT     0.417000        1.0080           0
   29007 WT2  32   TIP3 H2   HT     0.417000        1.0080           0
   29008 WT2  33   TIP3 OH2  OT    -0.834000       15.9994           0
   29009 WT2  33   TIP3 H1   HT     0.417000        1.0080           0
   29010 WT2  33   TIP3 H2   HT     0.417000        1.0080           0
   29011 WT2  35   TIP3 OH2  OT    -0.834000       15.9994           0
   29012 WT2  35   TIP3 H1   HT     0.417000        1.0080           0
   29013 WT2  35   TIP3 H2   HT     0.417000        1.0080           0
   29014 WT2  36   TIP3 OH2  OT    -0.834000       15.9994           0
   29015 WT2  36   TIP3 H1   HT     0.417000        1.0080           0
   29016 WT2  36   TIP3 H2   HT     0.417000        1.0080           0
   29017 WT2  38   TIP3 OH2  OT    -0.834000       15.9994           0
   29018 WT2  38   TIP3 H1   HT     0.417000        1.0080           0
   29019 WT2  38   TIP3 H2   HT     0.417000        1.0080           0
   29020 WT2  40   TIP3 OH2  OT    -0.834000       15.9994           0
   29021 WT2  40   TIP3 H1   HT     0.417000        1.0080           0
   29022 WT2  40   TIP3 H2   HT     0.417000        1.0080           0
   29023 WT2  43   TIP3 OH2  OT    -0.834000       15.9994           0
   29024 WT2  43   TIP3 H1   HT     0.417000        1.0080           0
   29025 WT2  43   TIP3 H2   HT     0.417000        1.0080           0
   29026 WT2  44   TIP3 OH2  OT    -0.834000       15.9994           0
   29027 WT2  44   TIP3 H1   HT     0.417000        1.0080           0
   29028 WT2  44   TIP3 H2   HT     0.417000        1.0080           0
   29029 WT2  45   TIP3 OH2  OT    -0.834000       15.9994           0
   29030 WT2  45   TIP3 H1   HT     0.417000        1.0080           0
   29031 WT2  45   TIP3 H2   HT     0.417000        1.0080           0
   29032 WT2  46   TIP3 OH2  OT    -0.834000       15.9994           0
   29033 WT2  46   TIP3 H1   HT     0.417000        1.0080           0
   29034 WT2  46   TIP3 H2   HT     0.417000        1.0080           0
   29035 WT2  47   TIP3 OH2  OT    -0.834000       15.9994           0
   29036 WT2  47   TIP3 H1   HT     0.417000        1.0080           0
   29037 WT2  47   TIP3 H2   HT     0.417000        1.0080           0
   29038 WT2  48   TIP3 OH2  OT    -0.834000       15.9994           0
   29039 WT2  48   TIP3 H1   HT     0.417000        1.0080           0
   29040 WT2  48   TIP3 H2   HT     0.417000        1.0080           0
   29041 WT2  49   TIP3 OH2  OT    -0.834000       15.9994           0
   29042 WT2  49   TIP3 H1   HT     0.417000        1.0080           0
   29043 WT2  49   TIP3 H2   HT     0.417000        1.0080           0
   29044 WT2  50   TIP3 OH2  OT    -0.834000       15.9994           0
   29045 WT2  50   TIP3 H1   HT     0.417000        1.0080           0
   29046 WT2  50   TIP3 H2   HT     0.417000        1.0080           0
   29047 WT2  51   TIP3 OH2  OT    -0.834000       15.9994           0
   29048 WT2  51   TIP3 H1   HT     0.417000        1.0080           0
   29049 WT2  51   TIP3 H2   HT     0.417000        1.0080           0
   29050 WT2  52   TIP3 OH2  OT    -0.834000       15.9994           0
   29051 WT2  52   TIP3 H1   HT     0.417000        1.0080           0
   29052 WT2  52   TIP3 H2   HT     0.417000        1.0080           0
   29053 WT2  53   TIP3 OH2  OT    -0.834000       15.9994           0
   29054 WT2  53   TIP3 H1   HT     0.417000        1.0080           0
   29055 WT2  53   TIP3 H2   HT     0.417000        1.0080           0
   29056 WT2  54   TIP3 OH2  OT    -0.834000       15.9994           0
   29057 WT2  54   TIP3 H1   HT     0.417000        1.0080           0
   29058 WT2  54   TIP3 H2   HT     0.417000        1.0080           0
   29059 WT2  55   TIP3 OH2  OT    -0.834000       15.9994           0
   29060 WT2  55   TIP3 H1   HT     0.417000        1.0080           0
   29061 WT2  55   TIP3 H2   HT     0.417000        1.0080           0
   29062 WT2  56   TIP3 OH2  OT    -0.834000       15.9994           0
   29063 WT2  56   TIP3 H1   HT     0.417000        1.0080           0
   29064 WT2  56   TIP3 H2   HT     0.417000        1.0080           0
   29065 WT2  57   TIP3 OH2  OT    -0.834000       15.9994           0
   29066 WT2  57   TIP3 H1   HT     0.417000        1.0080           0
   29067 WT2  57   TIP3 H2   HT     0.417000        1.0080           0
   29068 WT2  59   TIP3 OH2  OT    -0.834000       15.9994           0
   29069 WT2  59   TIP3 H1   HT     0.417000        1.0080           0
   29070 WT2  59   TIP3 H2   HT     0.417000        1.0080           0
   29071 WT2  64   TIP3 OH2  OT    -0.834000       15.9994           0
   29072 WT2  64   TIP3 H1   HT     0.417000        1.0080           0
   29073 WT2  64   TIP3 H2   HT     0.417000        1.0080           0
   29074 WT2  65   TIP3 OH2  OT    -0.834000       15.9994           0
   29075 WT2  65   TIP3 H1   HT     0.417000        1.0080           0
   29076 WT2  65   TIP3 H2   HT     0.417000        1.0080           0
   29077 WT2  66   TIP3 OH2  OT    -0.834000       15.9994           0
   29078 WT2  66   TIP3 H1   HT     0.417000        1.0080           0
   29079 WT2  66   TIP3 H2   HT     0.417000        1.0080           0
   29080 WT2  67   TIP3 OH2  OT    -0.834000       15.9994           0
   29081 WT2  67   TIP3 H1   HT     0.417000        1.0080           0
   29082 WT2  67   TIP3 H2   HT     0.417000        1.0080           0
   29083 WT2  68   TIP3 OH2  OT    -0.834000       15.9994           0
   29084 WT2  68   TIP3 H1   HT     0.417000        1.0080           0
   29085 WT2  68   TIP3 H2   HT     0.417000        1.0080           0
   29086 WT2  69   TIP3 OH2  OT    -0.834000       15.9994           0
   29087 WT2  69   TIP3 H1   HT     0.417000        1.0080           0
   29088 WT2  69   TIP3 H2   HT     0.417000        1.0080           0
   29089 WT2  70   TIP3 OH2  OT    -0.834000       15.9994           0
   29090 WT2  70   TIP3 H1   HT     0.417000        1.0080           0
   29091 WT2  70   TIP3 H2   HT     0.417000        1.0080           0
   29092 WT2  71   TIP3 OH2  OT    -0.834000       15.9994           0
   29093 WT2  71   TIP3 H1   HT     0.417000        1.0080           0
   29094 WT2  71   TIP3 H2   HT     0.417000        1.0080           0
   29095 WT2  72   TIP3 OH2  OT    -0.834000       15.9994           0
   29096 WT2  72   TIP3 H1   HT     0.417000        1.0080           0
   29097 WT2  72   TIP3 H2   HT     0.417000        1.0080           0
   29098 WT2  73   TIP3 OH2  OT    -0.834000       15.9994           0
   29099 WT2  73   TIP3 H1   HT     0.417000        1.0080           0
   29100 WT2  73   TIP3 H2   HT     0.417000        1.0080           0
   29101 WT2  74   TIP3 OH2  OT    -0.834000       15.9994           0
   29102 WT2  74   TIP3 H1   HT     0.417000        1.0080           0
   29103 WT2  74   TIP3 H2   HT     0.417000        1.0080           0
   29104 WT2  75   TIP3 OH2  OT    -0.834000       15.9994           0
   29105 WT2  75   TIP3 H1   HT     0.417000        1.0080           0
   29106 WT2  75   TIP3 H2   HT     0.417000        1.0080           0
   29107 WT2  76   TIP3 OH2  OT    -0.834000       15.9994           0
   29108 WT2  76   TIP3 H1   HT     0.417000        1.0080           0
   29109 WT2  76   TIP3 H2   HT     0.417000        1.0080           0
   29110 WT2  77   TIP3 OH2  OT    -0.834000       15.9994           0
   29111 WT2  77   TIP3 H1   HT     0.417000        1.0080           0
   29112 WT2  77   TIP3 H2   HT     0.417000        1.0080           0
   29113 WT2  79   TIP3 OH2  OT    -0.834000       15.9994           0
   29114 WT2  79   TIP3 H1   HT     0.417000        1.0080           0
   29115 WT2  79   TIP3 H2   HT     0.417000        1.0080           0
   29116 WT2  83   TIP3 OH2  OT    -0.834000       15.9994           0
   29117 WT2  83   TIP3 H1   HT     0.417000        1.0080           0
   29118 WT2  83   TIP3 H2   HT     0.417000        1.0080           0
   29119 WT2  85   TIP3 OH2  OT    -0.834000       15.9994           0
   29120 WT2  85   TIP3 H1   HT     0.417000        1.0080           0
   29121 WT2  85   TIP3 H2   HT     0.417000        1.0080           0
   29122 WT2  86   TIP3 OH2  OT    -0.834000       15.9994           0
   29123 WT2  86   TIP3 H1   HT     0.417000        1.0080           0
   29124 WT2  86   TIP3 H2   HT     0.417000        1.0080           0
   29125 WT2  87   TIP3 OH2  OT    -0.834000       15.9994           0
   29126 WT2  87   TIP3 H1   HT     0.417000        1.0080           0
   29127 WT2  87   TIP3 H2   HT     0.417000        1.0080           0
   29128 WT2  88   TIP3 OH2  OT    -0.834000       15.9994           0
   29129 WT2  88   TIP3 H1   HT     0.417000        1.0080           0
   29130 WT2  88   TIP3 H2   HT     0.417000        1.0080           0
   29131 WT2  89   TIP3 OH2  OT    -0.834000       15.9994           0
   29132 WT2  89   TIP3 H1   HT     0.417000        1.0080           0
   29133 WT2  89   TIP3 H2   HT     0.417000        1.0080           0
   29134 WT2  90   TIP3 OH2  OT    -0.834000       15.9994           0
   29135 WT2  90   TIP3 H1   HT     0.417000        1.0080           0
   29136 WT2  90   TIP3 H2   HT     0.417000        1.0080           0
   29137 WT2  91   TIP3 OH2  OT    -0.834000       15.9994           0
   29138 WT2  91   TIP3 H1   HT     0.417000        1.0080           0
   29139 WT2  91   TIP3 H2   HT     0.417000        1.0080           0
   29140 WT2  92   TIP3 OH2  OT    -0.834000       15.9994           0
   29141 WT2  92   TIP3 H1   HT     0.417000        1.0080           0
   29142 WT2  92   TIP3 H2   HT     0.417000        1.0080           0
   29143 WT2  93   TIP3 OH2  OT    -0.834000       15.9994           0
   29144 WT2  93   TIP3 H1   HT     0.417000        1.0080           0
   29145 WT2  93   TIP3 H2   HT     0.417000        1.0080           0
   29146 WT2  94   TIP3 OH2  OT    -0.834000       15.9994           0
   29147 WT2  94   TIP3 H1   HT     0.417000        1.0080           0
   29148 WT2  94   TIP3 H2   HT     0.417000        1.0080           0
   29149 WT2  95   TIP3 OH2  OT    -0.834000       15.9994           0
   29150 WT2  95   TIP3 H1   HT     0.417000        1.0080           0
   29151 WT2  95   TIP3 H2   HT     0.417000        1.0080           0
   29152 WT2  96   TIP3 OH2  OT    -0.834000       15.9994           0
   29153 WT2  96   TIP3 H1   HT     0.417000        1.0080           0
   29154 WT2  96   TIP3 H2   HT     0.417000        1.0080           0
   29155 WT2  97   TIP3 OH2  OT    -0.834000       15.9994           0
   29156 WT2  97   TIP3 H1   HT     0.417000        1.0080           0
   29157 WT2  97   TIP3 H2   HT     0.417000        1.0080           0
   29158 WT2  98   TIP3 OH2  OT    -0.834000       15.9994           0
   29159 WT2  98   TIP3 H1   HT     0.417000        1.0080           0
   29160 WT2  98   TIP3 H2   HT     0.417000        1.0080           0
   29161 WT2  99   TIP3 OH2  OT    -0.834000       15.9994           0
   29162 WT2  99   TIP3 H1   HT     0.417000        1.0080           0
   29163 WT2  99   TIP3 H2   HT     0.417000        1.0080           0
   29164 WT2  100  TIP3 OH2  OT    -0.834000       15.9994           0
   29165 WT2  100  TIP3 H1   HT     0.417000        1.0080           0
   29166 WT2  100  TIP3 H2   HT     0.417000        1.0080           0
   29167 WT2  101  TIP3 OH2  OT    -0.834000       15.9994           0
   29168 WT2  101  TIP3 H1   HT     0.417000        1.0080           0
   29169 WT2  101  TIP3 H2   HT     0.417000        1.0080           0
   29170 WT2  107  TIP3 OH2  OT    -0.834000       15.9994           0
   29171 WT2  107  TIP3 H1   HT     0.417000        1.0080           0
   29172 WT2  107  TIP3 H2   HT     0.417000        1.0080           0
   29173 WT2  108  TIP3 OH2  OT    -0.834000       15.9994           0
   29174 WT2  108  TIP3 H1   HT     0.417000        1.0080           0
   29175 WT2  108  TIP3 H2   HT     0.417000        1.0080           0
   29176 WT2  109  TIP3 OH2  OT    -0.834000       15.9994           0
   29177 WT2  109  TIP3 H1   HT     0.417000        1.0080           0
   29178 WT2  109  TIP3 H2   HT     0.417000        1.0080           0
   29179 WT2  110  TIP3 OH2  OT    -0.834000       15.9994           0
   29180 WT2  110  TIP3 H1   HT     0.417000        1.0080           0
   29181 WT2  110  TIP3 H2   HT     0.417000        1.0080           0
   29182 WT2  111  TIP3 OH2  OT    -0.834000       15.9994           0
   29183 WT2  111  TIP3 H1   HT     0.417000        1.0080           0
   29184 WT2  111  TIP3 H2   HT     0.417000        1.0080           0
   29185 WT2  112  TIP3 OH2  OT    -0.834000       15.9994           0
   29186 WT2  112  TIP3 H1   HT     0.417000        1.0080           0
   29187 WT2  112  TIP3 H2   HT     0.417000        1.0080           0
   29188 WT2  113  TIP3 OH2  OT    -0.834000       15.9994           0
   29189 WT2  113  TIP3 H1   HT     0.417000        1.0080           0
   29190 WT2  113  TIP3 H2   HT     0.417000        1.0080           0
   29191 WT2  114  TIP3 OH2  OT    -0.834000       15.9994           0
   29192 WT2  114  TIP3 H1   HT     0.417000        1.0080           0
   29193 WT2  114  TIP3 H2   HT     0.417000        1.0080           0
   29194 WT2  115  TIP3 OH2  OT    -0.834000       15.9994           0
   29195 WT2  115  TIP3 H1   HT     0.417000        1.0080           0
   29196 WT2  115  TIP3 H2   HT     0.417000        1.0080           0
   29197 WT2  116  TIP3 OH2  OT    -0.834000       15.9994           0
   29198 WT2  116  TIP3 H1   HT     0.417000        1.0080           0
   29199 WT2  116  TIP3 H2   HT     0.417000        1.0080           0
   29200 WT2  117  TIP3 OH2  OT    -0.834000       15.9994           0
   29201 WT2  117  TIP3 H1   HT     0.417000        1.0080           0
   29202 WT2  117  TIP3 H2   HT     0.417000        1.0080           0
   29203 WT2  118  TIP3 OH2  OT    -0.834000       15.9994           0
   29204 WT2  118  TIP3 H1   HT     0.417000        1.0080           0
   29205 WT2  118  TIP3 H2   HT     0.417000        1.0080           0
   29206 WT2  119  TIP3 OH2  OT    -0.834000       15.9994           0
   29207 WT2  119  TIP3 H1   HT     0.417000        1.0080           0
   29208 WT2  119  TIP3 H2   HT     0.417000        1.0080           0
   29209 WT2  123  TIP3 OH2  OT    -0.834000       15.9994           0
   29210 WT2  123  TIP3 H1   HT     0.417000        1.0080           0
   29211 WT2  123  TIP3 H2   HT     0.417000        1.0080           0
   29212 WT2  125  TIP3 OH2  OT    -0.834000       15.9994           0
   29213 WT2  125  TIP3 H1   HT     0.417000        1.0080           0
   29214 WT2  125  TIP3 H2   HT     0.417000        1.0080           0
   29215 WT2  129  TIP3 OH2  OT    -0.834000       15.9994           0
   29216 WT2  129  TIP3 H1   HT     0.417000        1.0080           0
   29217 WT2  129  TIP3 H2   HT     0.417000        1.0080           0
   29218 WT2  130  TIP3 OH2  OT    -0.834000       15.9994           0
   29219 WT2  130  TIP3 H1   HT     0.417000        1.0080           0
   29220 WT2  130  TIP3 H2   HT     0.417000        1.0080           0
   29221 WT2  131  TIP3 OH2  OT    -0.834000       15.9994           0
   29222 WT2  131  TIP3 H1   HT     0.417000        1.0080           0
   29223 WT2  131  TIP3 H2   HT     0.417000        1.0080           0
   29224 WT2  132  TIP3 OH2  OT    -0.834000       15.9994           0
   29225 WT2  132  TIP3 H1   HT     0.417000        1.0080           0
   29226 WT2  132  TIP3 H2   HT     0.417000        1.0080           0
   29227 WT2  133  TIP3 OH2  OT    -0.834000       15.9994           0
   29228 WT2  133  TIP3 H1   HT     0.417000        1.0080           0
   29229 WT2  133  TIP3 H2   HT     0.417000        1.0080           0
   29230 WT2  134  TIP3 OH2  OT    -0.834000       15.9994           0
   29231 WT2  134  TIP3 H1   HT     0.417000        1.0080           0
   29232 WT2  134  TIP3 H2   HT     0.417000        1.0080           0
   29233 WT2  135  TIP3 OH2  OT    -0.834000       15.9994           0
   29234 WT2  135  TIP3 H1   HT     0.417000        1.0080           0
   29235 WT2  135  TIP3 H2   HT     0.417000        1.0080           0
   29236 WT2  136  TIP3 OH2  OT    -0.834000       15.9994           0
   29237 WT2  136  TIP3 H1   HT     0.417000        1.0080           0
   29238 WT2  136  TIP3 H2   HT     0.417000        1.0080           0
   29239 WT2  137  TIP3 OH2  OT    -0.834000       15.9994           0
   29240 WT2  137  TIP3 H1   HT     0.417000        1.0080           0
   29241 WT2  137  TIP3 H2   HT     0.417000        1.0080           0
   29242 WT2  139  TIP3 OH2  OT    -0.834000       15.9994           0
   29243 WT2  139  TIP3 H1   HT     0.417000        1.0080           0
   29244 WT2  139  TIP3 H2   HT     0.417000        1.0080           0
   29245 WT2  140  TIP3 OH2  OT    -0.834000       15.9994           0
   29246 WT2  140  TIP3 H1   HT     0.417000        1.0080           0
   29247 WT2  140  TIP3 H2   HT     0.417000        1.0080           0
   29248 WT2  142  TIP3 OH2  OT    -0.834000       15.9994           0
   29249 WT2  142  TIP3 H1   HT     0.417000        1.0080           0
   29250 WT2  142  TIP3 H2   HT     0.417000        1.0080           0
   29251 WT2  144  TIP3 OH2  OT    -0.834000       15.9994           0
   29252 WT2  144  TIP3 H1   HT     0.417000        1.0080           0
   29253 WT2  144  TIP3 H2   HT     0.417000        1.0080           0
   29254 WT2  145  TIP3 OH2  OT    -0.834000       15.9994           0
   29255 WT2  145  TIP3 H1   HT     0.417000        1.0080           0
   29256 WT2  145  TIP3 H2   HT     0.417000        1.0080           0
   29257 WT2  146  TIP3 OH2  OT    -0.834000       15.9994           0
   29258 WT2  146  TIP3 H1   HT     0.417000        1.0080           0
   29259 WT2  146  TIP3 H2   HT     0.417000        1.0080           0
   29260 WT2  149  TIP3 OH2  OT    -0.834000       15.9994           0
   29261 WT2  149  TIP3 H1   HT     0.417000        1.0080           0
   29262 WT2  149  TIP3 H2   HT     0.417000        1.0080           0
   29263 WT2  150  TIP3 OH2  OT    -0.834000       15.9994           0
   29264 WT2  150  TIP3 H1   HT     0.417000        1.0080           0
   29265 WT2  150  TIP3 H2   HT     0.417000        1.0080           0
   29266 WT2  151  TIP3 OH2  OT    -0.834000       15.9994           0
   29267 WT2  151  TIP3 H1   HT     0.417000        1.0080           0
   29268 WT2  151  TIP3 H2   HT     0.417000        1.0080           0
   29269 WT2  152  TIP3 OH2  OT    -0.834000       15.9994           0
   29270 WT2  152  TIP3 H1   HT     0.417000        1.0080           0
   29271 WT2  152  TIP3 H2   HT     0.417000        1.0080           0
   29272 WT2  153  TIP3 OH2  OT    -0.834000       15.9994           0
   29273 WT2  153  TIP3 H1   HT     0.417000        1.0080           0
   29274 WT2  153  TIP3 H2   HT     0.417000        1.0080           0
   29275 WT2  154  TIP3 OH2  OT    -0.834000       15.9994           0
   29276 WT2  154  TIP3 H1   HT     0.417000        1.0080           0
   29277 WT2  154  TIP3 H2   HT     0.417000        1.0080           0
   29278 WT2  155  TIP3 OH2  OT    -0.834000       15.9994           0
   29279 WT2  155  TIP3 H1   HT     0.417000        1.0080           0
   29280 WT2  155  TIP3 H2   HT     0.417000        1.0080           0
   29281 WT2  156  TIP3 OH2  OT    -0.834000       15.9994           0
   29282 WT2  156  TIP3 H1   HT     0.417000        1.0080           0
   29283 WT2  156  TIP3 H2   HT     0.417000        1.0080           0
   29284 WT2  157  TIP3 OH2  OT    -0.834000       15.9994           0
   29285 WT2  157  TIP3 H1   HT     0.417000        1.0080           0
   29286 WT2  157  TIP3 H2   HT     0.417000        1.0080           0
   29287 WT2  158  TIP3 OH2  OT    -0.834000       15.9994           0
   29288 WT2  158  TIP3 H1   HT     0.417000        1.0080           0
   29289 WT2  158  TIP3 H2   HT     0.417000        1.0080           0
   29290 WT2  161  TIP3 OH2  OT    -0.834000       15.9994           0
   29291 WT2  161  TIP3 H1   HT     0.417000        1.0080           0
   29292 WT2  161  TIP3 H2   HT     0.417000        1.0080           0
   29293 WT2  163  TIP3 OH2  OT    -0.834000       15.9994           0
   29294 WT2  163  TIP3 H1   HT     0.417000        1.0080           0
   29295 WT2  163  TIP3 H2   HT     0.417000        1.0080           0
   29296 WT2  164  TIP3 OH2  OT    -0.834000       15.9994           0
   29297 WT2  164  TIP3 H1   HT     0.417000        1.0080           0
   29298 WT2  164  TIP3 H2   HT     0.417000        1.0080           0
   29299 WT2  167  TIP3 OH2  OT    -0.834000       15.9994           0
   29300 WT2  167  TIP3 H1   HT     0.417000        1.0080           0
   29301 WT2  167  TIP3 H2   HT     0.417000        1.0080           0
   29302 WT2  170  TIP3 OH2  OT    -0.834000       15.9994           0
   29303 WT2  170  TIP3 H1   HT     0.417000        1.0080           0
   29304 WT2  170  TIP3 H2   HT     0.417000        1.0080           0
   29305 WT2  171  TIP3 OH2  OT    -0.834000       15.9994           0
   29306 WT2  171  TIP3 H1   HT     0.417000        1.0080           0
   29307 WT2  171  TIP3 H2   HT     0.417000        1.0080           0
   29308 WT2  173  TIP3 OH2  OT    -0.834000       15.9994           0
   29309 WT2  173  TIP3 H1   HT     0.417000        1.0080           0
   29310 WT2  173  TIP3 H2   HT     0.417000        1.0080           0
   29311 WT2  174  TIP3 OH2  OT    -0.834000       15.9994           0
   29312 WT2  174  TIP3 H1   HT     0.417000        1.0080           0
   29313 WT2  174  TIP3 H2   HT     0.417000        1.0080           0
   29314 WT2  176  TIP3 OH2  OT    -0.834000       15.9994           0
   29315 WT2  176  TIP3 H1   HT     0.417000        1.0080           0
   29316 WT2  176  TIP3 H2   HT     0.417000        1.0080           0
   29317 WT2  177  TIP3 OH2  OT    -0.834000       15.9994           0
   29318 WT2  177  TIP3 H1   HT     0.417000        1.0080           0
   29319 WT2  177  TIP3 H2   HT     0.417000        1.0080           0
   29320 WT2  178  TIP3 OH2  OT    -0.834000       15.9994           0
   29321 WT2  178  TIP3 H1   HT     0.417000        1.0080           0
   29322 WT2  178  TIP3 H2   HT     0.417000        1.0080           0
   29323 WT2  179  TIP3 OH2  OT    -0.834000       15.9994           0
   29324 WT2  179  TIP3 H1   HT     0.417000        1.0080           0
   29325 WT2  179  TIP3 H2   HT     0.417000        1.0080           0
   29326 WT2  180  TIP3 OH2  OT    -0.834000       15.9994           0
   29327 WT2  180  TIP3 H1   HT     0.417000        1.0080           0
   29328 WT2  180  TIP3 H2   HT     0.417000        1.0080           0
   29329 WT2  181  TIP3 OH2  OT    -0.834000       15.9994           0
   29330 WT2  181  TIP3 H1   HT     0.417000        1.0080           0
   29331 WT2  181  TIP3 H2   HT     0.417000        1.0080           0
   29332 WT2  182  TIP3 OH2  OT    -0.834000       15.9994           0
   29333 WT2  182  TIP3 H1   HT     0.417000        1.0080           0
   29334 WT2  182  TIP3 H2   HT     0.417000        1.0080           0
   29335 WT2  183  TIP3 OH2  OT    -0.834000       15.9994           0
   29336 WT2  183  TIP3 H1   HT     0.417000        1.0080           0
   29337 WT2  183  TIP3 H2   HT     0.417000        1.0080           0
   29338 WT2  189  TIP3 OH2  OT    -0.834000       15.9994           0
   29339 WT2  189  TIP3 H1   HT     0.417000        1.0080           0
   29340 WT2  189  TIP3 H2   HT     0.417000        1.0080           0
   29341 WT2  190  TIP3 OH2  OT    -0.834000       15.9994           0
   29342 WT2  190  TIP3 H1   HT     0.417000        1.0080           0
   29343 WT2  190  TIP3 H2   HT     0.417000        1.0080           0
   29344 WT2  191  TIP3 OH2  OT    -0.834000       15.9994           0
   29345 WT2  191  TIP3 H1   HT     0.417000        1.0080           0
   29346 WT2  191  TIP3 H2   HT     0.417000        1.0080           0
   29347 WT2  192  TIP3 OH2  OT    -0.834000       15.9994           0
   29348 WT2  192  TIP3 H1   HT     0.417000        1.0080           0
   29349 WT2  192  TIP3 H2   HT     0.417000        1.0080           0
   29350 WT2  193  TIP3 OH2  OT    -0.834000       15.9994           0
   29351 WT2  193  TIP3 H1   HT     0.417000        1.0080           0
   29352 WT2  193  TIP3 H2   HT     0.417000        1.0080           0
   29353 WT2  195  TIP3 OH2  OT    -0.834000       15.9994           0
   29354 WT2  195  TIP3 H1   HT     0.417000        1.0080           0
   29355 WT2  195  TIP3 H2   HT     0.417000        1.0080           0
   29356 WT2  196  TIP3 OH2  OT    -0.834000       15.9994           0
   29357 WT2  196  TIP3 H1   HT     0.417000        1.0080           0
   29358 WT2  196  TIP3 H2   HT     0.417000        1.0080           0
   29359 WT2  197  TIP3 OH2  OT    -0.834000       15.9994           0
   29360 WT2  197  TIP3 H1   HT     0.417000        1.0080           0
   29361 WT2  197  TIP3 H2   HT     0.417000        1.0080           0
   29362 WT2  198  TIP3 OH2  OT    -0.834000       15.9994           0
   29363 WT2  198  TIP3 H1   HT     0.417000        1.0080           0
   29364 WT2  198  TIP3 H2   HT     0.417000        1.0080           0
   29365 WT2  199  TIP3 OH2  OT    -0.834000       15.9994           0
   29366 WT2  199  TIP3 H1   HT     0.417000        1.0080           0
   29367 WT2  199  TIP3 H2   HT     0.417000        1.0080           0
   29368 WT2  201  TIP3 OH2  OT    -0.834000       15.9994           0
   29369 WT2  201  TIP3 H1   HT     0.417000        1.0080           0
   29370 WT2  201  TIP3 H2   HT     0.417000        1.0080           0
   29371 WT2  202  TIP3 OH2  OT    -0.834000       15.9994           0
   29372 WT2  202  TIP3 H1   HT     0.417000        1.0080           0
   29373 WT2  202  TIP3 H2   HT     0.417000        1.0080           0
   29374 WT2  203  TIP3 OH2  OT    -0.834000       15.9994           0
   29375 WT2  203  TIP3 H1   HT     0.417000        1.0080           0
   29376 WT2  203  TIP3 H2   HT     0.417000        1.0080           0
   29377 WT2  204  TIP3 OH2  OT    -0.834000       15.9994           0
   29378 WT2  204  TIP3 H1   HT     0.417000        1.0080           0
   29379 WT2  204  TIP3 H2   HT     0.417000        1.0080           0
   29380 WT2  212  TIP3 OH2  OT    -0.834000       15.9994           0
   29381 WT2  212  TIP3 H1   HT     0.417000        1.0080           0
   29382 WT2  212  TIP3 H2   HT     0.417000        1.0080           0
   29383 WT2  214  TIP3 OH2  OT    -0.834000       15.9994           0
   29384 WT2  214  TIP3 H1   HT     0.417000        1.0080           0
   29385 WT2  214  TIP3 H2   HT     0.417000        1.0080           0
   29386 WT2  215  TIP3 OH2  OT    -0.834000       15.9994           0
   29387 WT2  215  TIP3 H1   HT     0.417000        1.0080           0
   29388 WT2  215  TIP3 H2   HT     0.417000        1.0080           0
   29389 WT2  217  TIP3 OH2  OT    -0.834000       15.9994           0
   29390 WT2  217  TIP3 H1   HT     0.417000        1.0080           0
   29391 WT2  217  TIP3 H2   HT     0.417000        1.0080           0
   29392 WT2  218  TIP3 OH2  OT    -0.834000       15.9994           0
   29393 WT2  218  TIP3 H1   HT     0.417000        1.0080           0
   29394 WT2  218  TIP3 H2   HT     0.417000        1.0080           0
   29395 WT2  219  TIP3 OH2  OT    -0.834000       15.9994           0
   29396 WT2  219  TIP3 H1   HT     0.417000        1.0080           0
   29397 WT2  219  TIP3 H2   HT     0.417000        1.0080           0
   29398 WT2  220  TIP3 OH2  OT    -0.834000       15.9994           0
   29399 WT2  220  TIP3 H1   HT     0.417000        1.0080           0
   29400 WT2  220  TIP3 H2   HT     0.417000        1.0080           0
   29401 WT2  221  TIP3 OH2  OT    -0.834000       15.9994           0
   29402 WT2  221  TIP3 H1   HT     0.417000        1.0080           0
   29403 WT2  221  TIP3 H2   HT     0.417000        1.0080           0
   29404 WT2  222  TIP3 OH2  OT    -0.834000       15.9994           0
   29405 WT2  222  TIP3 H1   HT     0.417000        1.0080           0
   29406 WT2  222  TIP3 H2   HT     0.417000        1.0080           0
   29407 WT2  223  TIP3 OH2  OT    -0.834000       15.9994           0
   29408 WT2  223  TIP3 H1   HT     0.417000        1.0080           0
   29409 WT2  223  TIP3 H2   HT     0.417000        1.0080           0
   29410 WT2  224  TIP3 OH2  OT    -0.834000       15.9994           0
   29411 WT2  224  TIP3 H1   HT     0.417000        1.0080           0
   29412 WT2  224  TIP3 H2   HT     0.417000        1.0080           0
   29413 WT2  231  TIP3 OH2  OT    -0.834000       15.9994           0
   29414 WT2  231  TIP3 H1   HT     0.417000        1.0080           0
   29415 WT2  231  TIP3 H2   HT     0.417000        1.0080           0
   29416 WT2  233  TIP3 OH2  OT    -0.834000       15.9994           0
   29417 WT2  233  TIP3 H1   HT     0.417000        1.0080           0
   29418 WT2  233  TIP3 H2   HT     0.417000        1.0080           0
   29419 WT2  235  TIP3 OH2  OT    -0.834000       15.9994           0
   29420 WT2  235  TIP3 H1   HT     0.417000        1.0080           0
   29421 WT2  235  TIP3 H2   HT     0.417000        1.0080           0
   29422 WT2  236  TIP3 OH2  OT    -0.834000       15.9994           0
   29423 WT2  236  TIP3 H1   HT     0.417000        1.0080           0
   29424 WT2  236  TIP3 H2   HT     0.417000        1.0080           0
   29425 WT2  237  TIP3 OH2  OT    -0.834000       15.9994           0
   29426 WT2  237  TIP3 H1   HT     0.417000        1.0080           0
   29427 WT2  237  TIP3 H2   HT     0.417000        1.0080           0
   29428 WT2  238  TIP3 OH2  OT    -0.834000       15.9994           0
   29429 WT2  238  TIP3 H1   HT     0.417000        1.0080           0
   29430 WT2  238  TIP3 H2   HT     0.417000        1.0080           0
   29431 WT2  239  TIP3 OH2  OT    -0.834000       15.9994           0
   29432 WT2  239  TIP3 H1   HT     0.417000        1.0080           0
   29433 WT2  239  TIP3 H2   HT     0.417000        1.0080           0
   29434 WT2  240  TIP3 OH2  OT    -0.834000       15.9994           0
   29435 WT2  240  TIP3 H1   HT     0.417000        1.0080           0
   29436 WT2  240  TIP3 H2   HT     0.417000        1.0080           0
   29437 WT2  241  TIP3 OH2  OT    -0.834000       15.9994           0
   29438 WT2  241  TIP3 H1   HT     0.417000        1.0080           0
   29439 WT2  241  TIP3 H2   HT     0.417000        1.0080           0
   29440 WT2  242  TIP3 OH2  OT    -0.834000       15.9994           0
   29441 WT2  242  TIP3 H1   HT     0.417000        1.0080           0
   29442 WT2  242  TIP3 H2   HT     0.417000        1.0080           0
   29443 WT2  244  TIP3 OH2  OT    -0.834000       15.9994           0
   29444 WT2  244  TIP3 H1   HT     0.417000        1.0080           0
   29445 WT2  244  TIP3 H2   HT     0.417000        1.0080           0
   29446 WT2  245  TIP3 OH2  OT    -0.834000       15.9994           0
   29447 WT2  245  TIP3 H1   HT     0.417000        1.0080           0
   29448 WT2  245  TIP3 H2   HT     0.417000        1.0080           0
   29449 WT2  246  TIP3 OH2  OT    -0.834000       15.9994           0
   29450 WT2  246  TIP3 H1   HT     0.417000        1.0080           0
   29451 WT2  246  TIP3 H2   HT     0.417000        1.0080           0
   29452 WT2  252  TIP3 OH2  OT    -0.834000       15.9994           0
   29453 WT2  252  TIP3 H1   HT     0.417000        1.0080           0
   29454 WT2  252  TIP3 H2   HT     0.417000        1.0080           0
   29455 WT2  253  TIP3 OH2  OT    -0.834000       15.9994           0
   29456 WT2  253  TIP3 H1   HT     0.417000        1.0080           0
   29457 WT2  253  TIP3 H2   HT     0.417000        1.0080           0
   29458 WT2  255  TIP3 OH2  OT    -0.834000       15.9994           0
   29459 WT2  255  TIP3 H1   HT     0.417000        1.0080           0
   29460 WT2  255  TIP3 H2   HT     0.417000        1.0080           0
   29461 WT2  256  TIP3 OH2  OT    -0.834000       15.9994           0
   29462 WT2  256  TIP3 H1   HT     0.417000        1.0080           0
   29463 WT2  256  TIP3 H2   HT     0.417000        1.0080           0
   29464 WT2  257  TIP3 OH2  OT    -0.834000       15.9994           0
   29465 WT2  257  TIP3 H1   HT     0.417000        1.0080           0
   29466 WT2  257  TIP3 H2   HT     0.417000        1.0080           0
   29467 WT2  258  TIP3 OH2  OT    -0.834000       15.9994           0
   29468 WT2  258  TIP3 H1   HT     0.417000        1.0080           0
   29469 WT2  258  TIP3 H2   HT     0.417000        1.0080           0
   29470 WT2  259  TIP3 OH2  OT    -0.834000       15.9994           0
   29471 WT2  259  TIP3 H1   HT     0.417000        1.0080           0
   29472 WT2  259  TIP3 H2   HT     0.417000        1.0080           0
   29473 WT2  260  TIP3 OH2  OT    -0.834000       15.9994           0
   29474 WT2  260  TIP3 H1   HT     0.417000        1.0080           0
   29475 WT2  260  TIP3 H2   HT     0.417000        1.0080           0
   29476 WT2  261  TIP3 OH2  OT    -0.834000       15.9994           0
   29477 WT2  261  TIP3 H1   HT     0.417000        1.0080           0
   29478 WT2  261  TIP3 H2   HT     0.417000        1.0080           0
   29479 WT2  262  TIP3 OH2  OT    -0.834000       15.9994           0
   29480 WT2  262  TIP3 H1   HT     0.417000        1.0080           0
   29481 WT2  262  TIP3 H2   HT     0.417000        1.0080           0
   29482 WT2  263  TIP3 OH2  OT    -0.834000       15.9994           0
   29483 WT2  263  TIP3 H1   HT     0.417000        1.0080           0
   29484 WT2  263  TIP3 H2   HT     0.417000        1.0080           0
   29485 WT2  264  TIP3 OH2  OT    -0.834000       15.9994           0
   29486 WT2  264  TIP3 H1   HT     0.417000        1.0080           0
   29487 WT2  264  TIP3 H2   HT     0.417000        1.0080           0
   29488 WT2  266  TIP3 OH2  OT    -0.834000       15.9994           0
   29489 WT2  266  TIP3 H1   HT     0.417000        1.0080           0
   29490 WT2  266  TIP3 H2   HT     0.417000        1.0080           0
   29491 WT2  267  TIP3 OH2  OT    -0.834000       15.9994           0
   29492 WT2  267  TIP3 H1   HT     0.417000        1.0080           0
   29493 WT2  267  TIP3 H2   HT     0.417000        1.0080           0
   29494 WT2  271  TIP3 OH2  OT    -0.834000       15.9994           0
   29495 WT2  271  TIP3 H1   HT     0.417000        1.0080           0
   29496 WT2  271  TIP3 H2   HT     0.417000        1.0080           0
   29497 WT2  273  TIP3 OH2  OT    -0.834000       15.9994           0
   29498 WT2  273  TIP3 H1   HT     0.417000        1.0080           0
   29499 WT2  273  TIP3 H2   HT     0.417000        1.0080           0
   29500 WT2  278  TIP3 OH2  OT    -0.834000       15.9994           0
   29501 WT2  278  TIP3 H1   HT     0.417000        1.0080           0
   29502 WT2  278  TIP3 H2   HT     0.417000        1.0080           0
   29503 WT2  279  TIP3 OH2  OT    -0.834000       15.9994           0
   29504 WT2  279  TIP3 H1   HT     0.417000        1.0080           0
   29505 WT2  279  TIP3 H2   HT     0.417000        1.0080           0
   29506 WT2  280  TIP3 OH2  OT    -0.834000       15.9994           0
   29507 WT2  280  TIP3 H1   HT     0.417000        1.0080           0
   29508 WT2  280  TIP3 H2   HT     0.417000        1.0080           0
   29509 WT2  281  TIP3 OH2  OT    -0.834000       15.9994           0
   29510 WT2  281  TIP3 H1   HT     0.417000        1.0080           0
   29511 WT2  281  TIP3 H2   HT     0.417000        1.0080           0
   29512 WT2  282  TIP3 OH2  OT    -0.834000       15.9994           0
   29513 WT2  282  TIP3 H1   HT     0.417000        1.0080           0
   29514 WT2  282  TIP3 H2   HT     0.417000        1.0080           0
   29515 WT2  283  TIP3 OH2  OT    -0.834000       15.9994           0
   29516 WT2  283  TIP3 H1   HT     0.417000        1.0080           0
   29517 WT2  283  TIP3 H2   HT     0.417000        1.0080           0
   29518 WT2  284  TIP3 OH2  OT    -0.834000       15.9994           0
   29519 WT2  284  TIP3 H1   HT     0.417000        1.0080           0
   29520 WT2  284  TIP3 H2   HT     0.417000        1.0080           0
   29521 WT2  285  TIP3 OH2  OT    -0.834000       15.9994           0
   29522 WT2  285  TIP3 H1   HT     0.417000        1.0080           0
   29523 WT2  285  TIP3 H2   HT     0.417000        1.0080           0
   29524 WT2  291  TIP3 OH2  OT    -0.834000       15.9994           0
   29525 WT2  291  TIP3 H1   HT     0.417000        1.0080           0
   29526 WT2  291  TIP3 H2   HT     0.417000        1.0080           0
   29527 WT2  295  TIP3 OH2  OT    -0.834000       15.9994           0
   29528 WT2  295  TIP3 H1   HT     0.417000        1.0080           0
   29529 WT2  295  TIP3 H2   HT     0.417000        1.0080           0
   29530 WT2  296  TIP3 OH2  OT    -0.834000       15.9994           0
   29531 WT2  296  TIP3 H1   HT     0.417000        1.0080           0
   29532 WT2  296  TIP3 H2   HT     0.417000        1.0080           0
   29533 WT2  297  TIP3 OH2  OT    -0.834000       15.9994           0
   29534 WT2  297  TIP3 H1   HT     0.417000        1.0080           0
   29535 WT2  297  TIP3 H2   HT     0.417000        1.0080           0
   29536 WT2  298  TIP3 OH2  OT    -0.834000       15.9994           0
   29537 WT2  298  TIP3 H1   HT     0.417000        1.0080           0
   29538 WT2  298  TIP3 H2   HT     0.417000        1.0080           0
   29539 WT2  299  TIP3 OH2  OT    -0.834000       15.9994           0
   29540 WT2  299  TIP3 H1   HT     0.417000        1.0080           0
   29541 WT2  299  TIP3 H2   HT     0.417000        1.0080           0
   29542 WT2  300  TIP3 OH2  OT    -0.834000       15.9994           0
   29543 WT2  300  TIP3 H1   HT     0.417000        1.0080           0
   29544 WT2  300  TIP3 H2   HT     0.417000        1.0080           0
   29545 WT2  301  TIP3 OH2  OT    -0.834000       15.9994           0
   29546 WT2  301  TIP3 H1   HT     0.417000        1.0080           0
   29547 WT2  301  TIP3 H2   HT     0.417000        1.0080           0
   29548 WT2  302  TIP3 OH2  OT    -0.834000       15.9994           0
   29549 WT2  302  TIP3 H1   HT     0.417000        1.0080           0
   29550 WT2  302  TIP3 H2   HT     0.417000        1.0080           0
   29551 WT2  303  TIP3 OH2  OT    -0.834000       15.9994           0
   29552 WT2  303  TIP3 H1   HT     0.417000        1.0080           0
   29553 WT2  303  TIP3 H2   HT     0.417000        1.0080           0
   29554 WT2  304  TIP3 OH2  OT    -0.834000       15.9994           0
   29555 WT2  304  TIP3 H1   HT     0.417000        1.0080           0
   29556 WT2  304  TIP3 H2   HT     0.417000        1.0080           0
   29557 WT2  305  TIP3 OH2  OT    -0.834000       15.9994           0
   29558 WT2  305  TIP3 H1   HT     0.417000        1.0080           0
   29559 WT2  305  TIP3 H2   HT     0.417000        1.0080           0
   29560 WT2  306  TIP3 OH2  OT    -0.834000       15.9994           0
   29561 WT2  306  TIP3 H1   HT     0.417000        1.0080           0
   29562 WT2  306  TIP3 H2   HT     0.417000        1.0080           0
   29563 WT2  307  TIP3 OH2  OT    -0.834000       15.9994           0
   29564 WT2  307  TIP3 H1   HT     0.417000        1.0080           0
   29565 WT2  307  TIP3 H2   HT     0.417000        1.0080           0
   29566 WT2  309  TIP3 OH2  OT    -0.834000       15.9994           0
   29567 WT2  309  TIP3 H1   HT     0.417000        1.0080           0
   29568 WT2  309  TIP3 H2   HT     0.417000        1.0080           0
   29569 WT2  315  TIP3 OH2  OT    -0.834000       15.9994           0
   29570 WT2  315  TIP3 H1   HT     0.417000        1.0080           0
   29571 WT2  315  TIP3 H2   HT     0.417000        1.0080           0
   29572 WT2  316  TIP3 OH2  OT    -0.834000       15.9994           0
   29573 WT2  316  TIP3 H1   HT     0.417000        1.0080           0
   29574 WT2  316  TIP3 H2   HT     0.417000        1.0080           0
   29575 WT2  317  TIP3 OH2  OT    -0.834000       15.9994           0
   29576 WT2  317  TIP3 H1   HT     0.417000        1.0080           0
   29577 WT2  317  TIP3 H2   HT     0.417000        1.0080           0
   29578 WT2  319  TIP3 OH2  OT    -0.834000       15.9994           0
   29579 WT2  319  TIP3 H1   HT     0.417000        1.0080           0
   29580 WT2  319  TIP3 H2   HT     0.417000        1.0080           0
   29581 WT2  320  TIP3 OH2  OT    -0.834000       15.9994           0
   29582 WT2  320  TIP3 H1   HT     0.417000        1.0080           0
   29583 WT2  320  TIP3 H2   HT     0.417000        1.0080           0
   29584 WT2  321  TIP3 OH2  OT    -0.834000       15.9994           0
   29585 WT2  321  TIP3 H1   HT     0.417000        1.0080           0
   29586 WT2  321  TIP3 H2   HT     0.417000        1.0080           0
   29587 WT2  322  TIP3 OH2  OT    -0.834000       15.9994           0
   29588 WT2  322  TIP3 H1   HT     0.417000        1.0080           0
   29589 WT2  322  TIP3 H2   HT     0.417000        1.0080           0
   29590 WT2  324  TIP3 OH2  OT    -0.834000       15.9994           0
   29591 WT2  324  TIP3 H1   HT     0.417000        1.0080           0
   29592 WT2  324  TIP3 H2   HT     0.417000        1.0080           0
   29593 WT2  325  TIP3 OH2  OT    -0.834000       15.9994           0
   29594 WT2  325  TIP3 H1   HT     0.417000        1.0080           0
   29595 WT2  325  TIP3 H2   HT     0.417000        1.0080           0
   29596 WT2  326  TIP3 OH2  OT    -0.834000       15.9994           0
   29597 WT2  326  TIP3 H1   HT     0.417000        1.0080           0
   29598 WT2  326  TIP3 H2   HT     0.417000        1.0080           0
   29599 WT2  327  TIP3 OH2  OT    -0.834000       15.9994           0
   29600 WT2  327  TIP3 H1   HT     0.417000        1.0080           0
   29601 WT2  327  TIP3 H2   HT     0.417000        1.0080           0
   29602 WT2  329  TIP3 OH2  OT    -0.834000       15.9994           0
   29603 WT2  329  TIP3 H1   HT     0.417000        1.0080           0
   29604 WT2  329  TIP3 H2   HT     0.417000        1.0080           0
   29605 WT2  334  TIP3 OH2  OT    -0.834000       15.9994           0
   29606 WT2  334  TIP3 H1   HT     0.417000        1.0080           0
   29607 WT2  334  TIP3 H2   HT     0.417000        1.0080           0
   29608 WT2  335  TIP3 OH2  OT    -0.834000       15.9994           0
   29609 WT2  335  TIP3 H1   HT     0.417000        1.0080           0
   29610 WT2  335  TIP3 H2   HT     0.417000        1.0080           0
   29611 WT2  337  TIP3 OH2  OT    -0.834000       15.9994           0
   29612 WT2  337  TIP3 H1   HT     0.417000        1.0080           0
   29613 WT2  337  TIP3 H2   HT     0.417000        1.0080           0
   29614 WT2  338  TIP3 OH2  OT    -0.834000       15.9994           0
   29615 WT2  338  TIP3 H1   HT     0.417000        1.0080           0
   29616 WT2  338  TIP3 H2   HT     0.417000        1.0080           0
   29617 WT2  339  TIP3 OH2  OT    -0.834000       15.9994           0
   29618 WT2  339  TIP3 H1   HT     0.417000        1.0080           0
   29619 WT2  339  TIP3 H2   HT     0.417000        1.0080           0
   29620 WT2  340  TIP3 OH2  OT    -0.834000       15.9994           0
   29621 WT2  340  TIP3 H1   HT     0.417000        1.0080           0
   29622 WT2  340  TIP3 H2   HT     0.417000        1.0080           0
   29623 WT2  341  TIP3 OH2  OT    -0.834000       15.9994           0
   29624 WT2  341  TIP3 H1   HT     0.417000        1.0080           0
   29625 WT2  341  TIP3 H2   HT     0.417000        1.0080           0
   29626 WT2  343  TIP3 OH2  OT    -0.834000       15.9994           0
   29627 WT2  343  TIP3 H1   HT     0.417000        1.0080           0
   29628 WT2  343  TIP3 H2   HT     0.417000        1.0080           0
   29629 WT2  344  TIP3 OH2  OT    -0.834000       15.9994           0
   29630 WT2  344  TIP3 H1   HT     0.417000        1.0080           0
   29631 WT2  344  TIP3 H2   HT     0.417000        1.0080           0
   29632 WT2  345  TIP3 OH2  OT    -0.834000       15.9994           0
   29633 WT2  345  TIP3 H1   HT     0.417000        1.0080           0
   29634 WT2  345  TIP3 H2   HT     0.417000        1.0080           0
   29635 WT2  346  TIP3 OH2  OT    -0.834000       15.9994           0
   29636 WT2  346  TIP3 H1   HT     0.417000        1.0080           0
   29637 WT2  346  TIP3 H2   HT     0.417000        1.0080           0
   29638 WT2  347  TIP3 OH2  OT    -0.834000       15.9994           0
   29639 WT2  347  TIP3 H1   HT     0.417000        1.0080           0
   29640 WT2  347  TIP3 H2   HT     0.417000        1.0080           0
   29641 WT2  348  TIP3 OH2  OT    -0.834000       15.9994           0
   29642 WT2  348  TIP3 H1   HT     0.417000        1.0080           0
   29643 WT2  348  TIP3 H2   HT     0.417000        1.0080           0
   29644 WT2  349  TIP3 OH2  OT    -0.834000       15.9994           0
   29645 WT2  349  TIP3 H1   HT     0.417000        1.0080           0
   29646 WT2  349  TIP3 H2   HT     0.417000        1.0080           0
   29647 WT2  361  TIP3 OH2  OT    -0.834000       15.9994           0
   29648 WT2  361  TIP3 H1   HT     0.417000        1.0080           0
   29649 WT2  361  TIP3 H2   HT     0.417000        1.0080           0
   29650 WT2  362  TIP3 OH2  OT    -0.834000       15.9994           0
   29651 WT2  362  TIP3 H1   HT     0.417000        1.0080           0
   29652 WT2  362  TIP3 H2   HT     0.417000        1.0080           0
   29653 WT2  363  TIP3 OH2  OT    -0.834000       15.9994           0
   29654 WT2  363  TIP3 H1   HT     0.417000        1.0080           0
   29655 WT2  363  TIP3 H2   HT     0.417000        1.0080           0
   29656 WT2  364  TIP3 OH2  OT    -0.834000       15.9994           0
   29657 WT2  364  TIP3 H1   HT     0.417000        1.0080           0
   29658 WT2  364  TIP3 H2   HT     0.417000        1.0080           0
   29659 WT2  365  TIP3 OH2  OT    -0.834000       15.9994           0
   29660 WT2  365  TIP3 H1   HT     0.417000        1.0080           0
   29661 WT2  365  TIP3 H2   HT     0.417000        1.0080           0
   29662 WT2  366  TIP3 OH2  OT    -0.834000       15.9994           0
   29663 WT2  366  TIP3 H1   HT     0.417000        1.0080           0
   29664 WT2  366  TIP3 H2   HT     0.417000        1.0080           0
   29665 WT2  367  TIP3 OH2  OT    -0.834000       15.9994           0
   29666 WT2  367  TIP3 H1   HT     0.417000        1.0080           0
   29667 WT2  367  TIP3 H2   HT     0.417000        1.0080           0
   29668 WT2  368  TIP3 OH2  OT    -0.834000       15.9994           0
   29669 WT2  368  TIP3 H1   HT     0.417000        1.0080           0
   29670 WT2  368  TIP3 H2   HT     0.417000        1.0080           0
   29671 WT2  369  TIP3 OH2  OT    -0.834000       15.9994           0
   29672 WT2  369  TIP3 H1   HT     0.417000        1.0080           0
   29673 WT2  369  TIP3 H2   HT     0.417000        1.0080           0
   29674 WT2  371  TIP3 OH2  OT    -0.834000       15.9994           0
   29675 WT2  371  TIP3 H1   HT     0.417000        1.0080           0
   29676 WT2  371  TIP3 H2   HT     0.417000        1.0080           0
   29677 WT2  372  TIP3 OH2  OT    -0.834000       15.9994           0
   29678 WT2  372  TIP3 H1   HT     0.417000        1.0080           0
   29679 WT2  372  TIP3 H2   HT     0.417000        1.0080           0
   29680 WT2  373  TIP3 OH2  OT    -0.834000       15.9994           0
   29681 WT2  373  TIP3 H1   HT     0.417000        1.0080           0
   29682 WT2  373  TIP3 H2   HT     0.417000        1.0080           0
   29683 WT2  375  TIP3 OH2  OT    -0.834000       15.9994           0
   29684 WT2  375  TIP3 H1   HT     0.417000        1.0080           0
   29685 WT2  375  TIP3 H2   HT     0.417000        1.0080           0
   29686 WT2  378  TIP3 OH2  OT    -0.834000       15.9994           0
   29687 WT2  378  TIP3 H1   HT     0.417000        1.0080           0
   29688 WT2  378  TIP3 H2   HT     0.417000        1.0080           0
   29689 WT2  381  TIP3 OH2  OT    -0.834000       15.9994           0
   29690 WT2  381  TIP3 H1   HT     0.417000        1.0080           0
   29691 WT2  381  TIP3 H2   HT     0.417000        1.0080           0
   29692 WT2  383  TIP3 OH2  OT    -0.834000       15.9994           0
   29693 WT2  383  TIP3 H1   HT     0.417000        1.0080           0
   29694 WT2  383  TIP3 H2   HT     0.417000        1.0080           0
   29695 WT2  384  TIP3 OH2  OT    -0.834000       15.9994           0
   29696 WT2  384  TIP3 H1   HT     0.417000        1.0080           0
   29697 WT2  384  TIP3 H2   HT     0.417000        1.0080           0
   29698 WT2  385  TIP3 OH2  OT    -0.834000       15.9994           0
   29699 WT2  385  TIP3 H1   HT     0.417000        1.0080           0
   29700 WT2  385  TIP3 H2   HT     0.417000        1.0080           0
   29701 WT2  386  TIP3 OH2  OT    -0.834000       15.9994           0
   29702 WT2  386  TIP3 H1   HT     0.417000        1.0080           0
   29703 WT2  386  TIP3 H2   HT     0.417000        1.0080           0
   29704 WT2  387  TIP3 OH2  OT    -0.834000       15.9994           0
   29705 WT2  387  TIP3 H1   HT     0.417000        1.0080           0
   29706 WT2  387  TIP3 H2   HT     0.417000        1.0080           0
   29707 WT2  388  TIP3 OH2  OT    -0.834000       15.9994           0
   29708 WT2  388  TIP3 H1   HT     0.417000        1.0080           0
   29709 WT2  388  TIP3 H2   HT     0.417000        1.0080           0
   29710 WT2  389  TIP3 OH2  OT    -0.834000       15.9994           0
   29711 WT2  389  TIP3 H1   HT     0.417000        1.0080           0
   29712 WT2  389  TIP3 H2   HT     0.417000        1.0080           0
   29713 WT2  390  TIP3 OH2  OT    -0.834000       15.9994           0
   29714 WT2  390  TIP3 H1   HT     0.417000        1.0080           0
   29715 WT2  390  TIP3 H2   HT     0.417000        1.0080           0
   29716 WT2  392  TIP3 OH2  OT    -0.834000       15.9994           0
   29717 WT2  392  TIP3 H1   HT     0.417000        1.0080           0
   29718 WT2  392  TIP3 H2   HT     0.417000        1.0080           0
   29719 WT2  393  TIP3 OH2  OT    -0.834000       15.9994           0
   29720 WT2  393  TIP3 H1   HT     0.417000        1.0080           0
   29721 WT2  393  TIP3 H2   HT     0.417000        1.0080           0
   29722 WT2  394  TIP3 OH2  OT    -0.834000       15.9994           0
   29723 WT2  394  TIP3 H1   HT     0.417000        1.0080           0
   29724 WT2  394  TIP3 H2   HT     0.417000        1.0080           0
   29725 WT2  398  TIP3 OH2  OT    -0.834000       15.9994           0
   29726 WT2  398  TIP3 H1   HT     0.417000        1.0080           0
   29727 WT2  398  TIP3 H2   HT     0.417000        1.0080           0
   29728 WT2  401  TIP3 OH2  OT    -0.834000       15.9994           0
   29729 WT2  401  TIP3 H1   HT     0.417000        1.0080           0
   29730 WT2  401  TIP3 H2   HT     0.417000        1.0080           0
   29731 WT2  403  TIP3 OH2  OT    -0.834000       15.9994           0
   29732 WT2  403  TIP3 H1   HT     0.417000        1.0080           0
   29733 WT2  403  TIP3 H2   HT     0.417000        1.0080           0
   29734 WT2  404  TIP3 OH2  OT    -0.834000       15.9994           0
   29735 WT2  404  TIP3 H1   HT     0.417000        1.0080           0
   29736 WT2  404  TIP3 H2   HT     0.417000        1.0080           0
   29737 WT2  405  TIP3 OH2  OT    -0.834000       15.9994           0
   29738 WT2  405  TIP3 H1   HT     0.417000        1.0080           0
   29739 WT2  405  TIP3 H2   HT     0.417000        1.0080           0
   29740 WT2  406  TIP3 OH2  OT    -0.834000       15.9994           0
   29741 WT2  406  TIP3 H1   HT     0.417000        1.0080           0
   29742 WT2  406  TIP3 H2   HT     0.417000        1.0080           0
   29743 WT2  407  TIP3 OH2  OT    -0.834000       15.9994           0
   29744 WT2  407  TIP3 H1   HT     0.417000        1.0080           0
   29745 WT2  407  TIP3 H2   HT     0.417000        1.0080           0
   29746 WT2  408  TIP3 OH2  OT    -0.834000       15.9994           0
   29747 WT2  408  TIP3 H1   HT     0.417000        1.0080           0
   29748 WT2  408  TIP3 H2   HT     0.417000        1.0080           0
   29749 WT2  409  TIP3 OH2  OT    -0.834000       15.9994           0
   29750 WT2  409  TIP3 H1   HT     0.417000        1.0080           0
   29751 WT2  409  TIP3 H2   HT     0.417000        1.0080           0
   29752 WT2  410  TIP3 OH2  OT    -0.834000       15.9994           0
   29753 WT2  410  TIP3 H1   HT     0.417000        1.0080           0
   29754 WT2  410  TIP3 H2   HT     0.417000        1.0080           0
   29755 WT2  411  TIP3 OH2  OT    -0.834000       15.9994           0
   29756 WT2  411  TIP3 H1   HT     0.417000        1.0080           0
   29757 WT2  411  TIP3 H2   HT     0.417000        1.0080           0
   29758 WT2  412  TIP3 OH2  OT    -0.834000       15.9994           0
   29759 WT2  412  TIP3 H1   HT     0.417000        1.0080           0
   29760 WT2  412  TIP3 H2   HT     0.417000        1.0080           0
   29761 WT2  416  TIP3 OH2  OT    -0.834000       15.9994           0
   29762 WT2  416  TIP3 H1   HT     0.417000        1.0080           0
   29763 WT2  416  TIP3 H2   HT     0.417000        1.0080           0
   29764 WT2  420  TIP3 OH2  OT    -0.834000       15.9994           0
   29765 WT2  420  TIP3 H1   HT     0.417000        1.0080           0
   29766 WT2  420  TIP3 H2   HT     0.417000        1.0080           0
   29767 WT2  424  TIP3 OH2  OT    -0.834000       15.9994           0
   29768 WT2  424  TIP3 H1   HT     0.417000        1.0080           0
   29769 WT2  424  TIP3 H2   HT     0.417000        1.0080           0
   29770 WT2  425  TIP3 OH2  OT    -0.834000       15.9994           0
   29771 WT2  425  TIP3 H1   HT     0.417000        1.0080           0
   29772 WT2  425  TIP3 H2   HT     0.417000        1.0080           0
   29773 WT2  426  TIP3 OH2  OT    -0.834000       15.9994           0
   29774 WT2  426  TIP3 H1   HT     0.417000        1.0080           0
   29775 WT2  426  TIP3 H2   HT     0.417000        1.0080           0
   29776 WT2  427  TIP3 OH2  OT    -0.834000       15.9994           0
   29777 WT2  427  TIP3 H1   HT     0.417000        1.0080           0
   29778 WT2  427  TIP3 H2   HT     0.417000        1.0080           0
   29779 WT2  428  TIP3 OH2  OT    -0.834000       15.9994           0
   29780 WT2  428  TIP3 H1   HT     0.417000        1.0080           0
   29781 WT2  428  TIP3 H2   HT     0.417000        1.0080           0
   29782 WT2  429  TIP3 OH2  OT    -0.834000       15.9994           0
   29783 WT2  429  TIP3 H1   HT     0.417000        1.0080           0
   29784 WT2  429  TIP3 H2   HT     0.417000        1.0080           0
   29785 WT2  430  TIP3 OH2  OT    -0.834000       15.9994           0
   29786 WT2  430  TIP3 H1   HT     0.417000        1.0080           0
   29787 WT2  430  TIP3 H2   HT     0.417000        1.0080           0
   29788 WT2  431  TIP3 OH2  OT    -0.834000       15.9994           0
   29789 WT2  431  TIP3 H1   HT     0.417000        1.0080           0
   29790 WT2  431  TIP3 H2   HT     0.417000        1.0080           0
   29791 WT2  432  TIP3 OH2  OT    -0.834000       15.9994           0
   29792 WT2  432  TIP3 H1   HT     0.417000        1.0080           0
   29793 WT2  432  TIP3 H2   HT     0.417000        1.0080           0
   29794 WT2  433  TIP3 OH2  OT    -0.834000       15.9994           0
   29795 WT2  433  TIP3 H1   HT     0.417000        1.0080           0
   29796 WT2  433  TIP3 H2   HT     0.417000        1.0080           0
   29797 WT2  435  TIP3 OH2  OT    -0.834000       15.9994           0
   29798 WT2  435  TIP3 H1   HT     0.417000        1.0080           0
   29799 WT2  435  TIP3 H2   HT     0.417000        1.0080           0
   29800 WT2  439  TIP3 OH2  OT    -0.834000       15.9994           0
   29801 WT2  439  TIP3 H1   HT     0.417000        1.0080           0
   29802 WT2  439  TIP3 H2   HT     0.417000        1.0080           0
   29803 WT2  443  TIP3 OH2  OT    -0.834000       15.9994           0
   29804 WT2  443  TIP3 H1   HT     0.417000        1.0080           0
   29805 WT2  443  TIP3 H2   HT     0.417000        1.0080           0
   29806 WT2  444  TIP3 OH2  OT    -0.834000       15.9994           0
   29807 WT2  444  TIP3 H1   HT     0.417000        1.0080           0
   29808 WT2  444  TIP3 H2   HT     0.417000        1.0080           0
   29809 WT2  445  TIP3 OH2  OT    -0.834000       15.9994           0
   29810 WT2  445  TIP3 H1   HT     0.417000        1.0080           0
   29811 WT2  445  TIP3 H2   HT     0.417000        1.0080           0
   29812 WT2  446  TIP3 OH2  OT    -0.834000       15.9994           0
   29813 WT2  446  TIP3 H1   HT     0.417000        1.0080           0
   29814 WT2  446  TIP3 H2   HT     0.417000        1.0080           0
   29815 WT2  447  TIP3 OH2  OT    -0.834000       15.9994           0
   29816 WT2  447  TIP3 H1   HT     0.417000        1.0080           0
   29817 WT2  447  TIP3 H2   HT     0.417000        1.0080           0
   29818 WT2  448  TIP3 OH2  OT    -0.834000       15.9994           0
   29819 WT2  448  TIP3 H1   HT     0.417000        1.0080           0
   29820 WT2  448  TIP3 H2   HT     0.417000        1.0080           0
   29821 WT2  450  TIP3 OH2  OT    -0.834000       15.9994           0
   29822 WT2  450  TIP3 H1   HT     0.417000        1.0080           0
   29823 WT2  450  TIP3 H2   HT     0.417000        1.0080           0
   29824 WT2  451  TIP3 OH2  OT    -0.834000       15.9994           0
   29825 WT2  451  TIP3 H1   HT     0.417000        1.0080           0
   29826 WT2  451  TIP3 H2   HT     0.417000        1.0080           0
   29827 WT2  452  TIP3 OH2  OT    -0.834000       15.9994           0
   29828 WT2  452  TIP3 H1   HT     0.417000        1.0080           0
   29829 WT2  452  TIP3 H2   HT     0.417000        1.0080           0
   29830 WT2  453  TIP3 OH2  OT    -0.834000       15.9994           0
   29831 WT2  453  TIP3 H1   HT     0.417000        1.0080           0
   29832 WT2  453  TIP3 H2   HT     0.417000        1.0080           0
   29833 WT2  454  TIP3 OH2  OT    -0.834000       15.9994           0
   29834 WT2  454  TIP3 H1   HT     0.417000        1.0080           0
   29835 WT2  454  TIP3 H2   HT     0.417000        1.0080           0
   29836 WT2  455  TIP3 OH2  OT    -0.834000       15.9994           0
   29837 WT2  455  TIP3 H1   HT     0.417000        1.0080           0
   29838 WT2  455  TIP3 H2   HT     0.417000        1.0080           0
   29839 WT2  458  TIP3 OH2  OT    -0.834000       15.9994           0
   29840 WT2  458  TIP3 H1   HT     0.417000        1.0080           0
   29841 WT2  458  TIP3 H2   HT     0.417000        1.0080           0
   29842 WT2  460  TIP3 OH2  OT    -0.834000       15.9994           0
   29843 WT2  460  TIP3 H1   HT     0.417000        1.0080           0
   29844 WT2  460  TIP3 H2   HT     0.417000        1.0080           0
   29845 WT2  465  TIP3 OH2  OT    -0.834000       15.9994           0
   29846 WT2  465  TIP3 H1   HT     0.417000        1.0080           0
   29847 WT2  465  TIP3 H2   HT     0.417000        1.0080           0
   29848 WT2  466  TIP3 OH2  OT    -0.834000       15.9994           0
   29849 WT2  466  TIP3 H1   HT     0.417000        1.0080           0
   29850 WT2  466  TIP3 H2   HT     0.417000        1.0080           0
   29851 WT2  467  TIP3 OH2  OT    -0.834000       15.9994           0
   29852 WT2  467  TIP3 H1   HT     0.417000        1.0080           0
   29853 WT2  467  TIP3 H2   HT     0.417000        1.0080           0
   29854 WT2  468  TIP3 OH2  OT    -0.834000       15.9994           0
   29855 WT2  468  TIP3 H1   HT     0.417000        1.0080           0
   29856 WT2  468  TIP3 H2   HT     0.417000        1.0080           0
   29857 WT2  469  TIP3 OH2  OT    -0.834000       15.9994           0
   29858 WT2  469  TIP3 H1   HT     0.417000        1.0080           0
   29859 WT2  469  TIP3 H2   HT     0.417000        1.0080           0
   29860 WT2  470  TIP3 OH2  OT    -0.834000       15.9994           0
   29861 WT2  470  TIP3 H1   HT     0.417000        1.0080           0
   29862 WT2  470  TIP3 H2   HT     0.417000        1.0080           0
   29863 WT2  471  TIP3 OH2  OT    -0.834000       15.9994           0
   29864 WT2  471  TIP3 H1   HT     0.417000        1.0080           0
   29865 WT2  471  TIP3 H2   HT     0.417000        1.0080           0
   29866 WT2  472  TIP3 OH2  OT    -0.834000       15.9994           0
   29867 WT2  472  TIP3 H1   HT     0.417000        1.0080           0
   29868 WT2  472  TIP3 H2   HT     0.417000        1.0080           0
   29869 WT2  473  TIP3 OH2  OT    -0.834000       15.9994           0
   29870 WT2  473  TIP3 H1   HT     0.417000        1.0080           0
   29871 WT2  473  TIP3 H2   HT     0.417000        1.0080           0
   29872 WT2  474  TIP3 OH2  OT    -0.834000       15.9994           0
   29873 WT2  474  TIP3 H1   HT     0.417000        1.0080           0
   29874 WT2  474  TIP3 H2   HT     0.417000        1.0080           0
   29875 WT2  475  TIP3 OH2  OT    -0.834000       15.9994           0
   29876 WT2  475  TIP3 H1   HT     0.417000        1.0080           0
   29877 WT2  475  TIP3 H2   HT     0.417000        1.0080           0
   29878 WT2  476  TIP3 OH2  OT    -0.834000       15.9994           0
   29879 WT2  476  TIP3 H1   HT     0.417000        1.0080           0
   29880 WT2  476  TIP3 H2   HT     0.417000        1.0080           0
   29881 WT2  478  TIP3 OH2  OT    -0.834000       15.9994           0
   29882 WT2  478  TIP3 H1   HT     0.417000        1.0080           0
   29883 WT2  478  TIP3 H2   HT     0.417000        1.0080           0
   29884 WT2  480  TIP3 OH2  OT    -0.834000       15.9994           0
   29885 WT2  480  TIP3 H1   HT     0.417000        1.0080           0
   29886 WT2  480  TIP3 H2   HT     0.417000        1.0080           0
   29887 WT2  481  TIP3 OH2  OT    -0.834000       15.9994           0
   29888 WT2  481  TIP3 H1   HT     0.417000        1.0080           0
   29889 WT2  481  TIP3 H2   HT     0.417000        1.0080           0
   29890 WT2  483  TIP3 OH2  OT    -0.834000       15.9994           0
   29891 WT2  483  TIP3 H1   HT     0.417000        1.0080           0
   29892 WT2  483  TIP3 H2   HT     0.417000        1.0080           0
   29893 WT2  484  TIP3 OH2  OT    -0.834000       15.9994           0
   29894 WT2  484  TIP3 H1   HT     0.417000        1.0080           0
   29895 WT2  484  TIP3 H2   HT     0.417000        1.0080           0
   29896 WT2  485  TIP3 OH2  OT    -0.834000       15.9994           0
   29897 WT2  485  TIP3 H1   HT     0.417000        1.0080           0
   29898 WT2  485  TIP3 H2   HT     0.417000        1.0080           0
   29899 WT2  486  TIP3 OH2  OT    -0.834000       15.9994           0
   29900 WT2  486  TIP3 H1   HT     0.417000        1.0080           0
   29901 WT2  486  TIP3 H2   HT     0.417000        1.0080           0
   29902 WT2  488  TIP3 OH2  OT    -0.834000       15.9994           0
   29903 WT2  488  TIP3 H1   HT     0.417000        1.0080           0
   29904 WT2  488  TIP3 H2   HT     0.417000        1.0080           0
   29905 WT2  489  TIP3 OH2  OT    -0.834000       15.9994           0
   29906 WT2  489  TIP3 H1   HT     0.417000        1.0080           0
   29907 WT2  489  TIP3 H2   HT     0.417000        1.0080           0
   29908 WT2  490  TIP3 OH2  OT    -0.834000       15.9994           0
   29909 WT2  490  TIP3 H1   HT     0.417000        1.0080           0
   29910 WT2  490  TIP3 H2   HT     0.417000        1.0080           0
   29911 WT2  491  TIP3 OH2  OT    -0.834000       15.9994           0
   29912 WT2  491  TIP3 H1   HT     0.417000        1.0080           0
   29913 WT2  491  TIP3 H2   HT     0.417000        1.0080           0
   29914 WT2  492  TIP3 OH2  OT    -0.834000       15.9994           0
   29915 WT2  492  TIP3 H1   HT     0.417000        1.0080           0
   29916 WT2  492  TIP3 H2   HT     0.417000        1.0080           0
   29917 WT2  494  TIP3 OH2  OT    -0.834000       15.9994           0
   29918 WT2  494  TIP3 H1   HT     0.417000        1.0080           0
   29919 WT2  494  TIP3 H2   HT     0.417000        1.0080           0
   29920 WT2  495  TIP3 OH2  OT    -0.834000       15.9994           0
   29921 WT2  495  TIP3 H1   HT     0.417000        1.0080           0
   29922 WT2  495  TIP3 H2   HT     0.417000        1.0080           0
   29923 WT2  496  TIP3 OH2  OT    -0.834000       15.9994           0
   29924 WT2  496  TIP3 H1   HT     0.417000        1.0080           0
   29925 WT2  496  TIP3 H2   HT     0.417000        1.0080           0
   29926 WT2  498  TIP3 OH2  OT    -0.834000       15.9994           0
   29927 WT2  498  TIP3 H1   HT     0.417000        1.0080           0
   29928 WT2  498  TIP3 H2   HT     0.417000        1.0080           0
   29929 WT2  499  TIP3 OH2  OT    -0.834000       15.9994           0
   29930 WT2  499  TIP3 H1   HT     0.417000        1.0080           0
   29931 WT2  499  TIP3 H2   HT     0.417000        1.0080           0
   29932 WT2  503  TIP3 OH2  OT    -0.834000       15.9994           0
   29933 WT2  503  TIP3 H1   HT     0.417000        1.0080           0
   29934 WT2  503  TIP3 H2   HT     0.417000        1.0080           0
   29935 WT2  506  TIP3 OH2  OT    -0.834000       15.9994           0
   29936 WT2  506  TIP3 H1   HT     0.417000        1.0080           0
   29937 WT2  506  TIP3 H2   HT     0.417000        1.0080           0
   29938 WT2  507  TIP3 OH2  OT    -0.834000       15.9994           0
   29939 WT2  507  TIP3 H1   HT     0.417000        1.0080           0
   29940 WT2  507  TIP3 H2   HT     0.417000        1.0080           0
   29941 WT2  508  TIP3 OH2  OT    -0.834000       15.9994           0
   29942 WT2  508  TIP3 H1   HT     0.417000        1.0080           0
   29943 WT2  508  TIP3 H2   HT     0.417000        1.0080           0
   29944 WT2  509  TIP3 OH2  OT    -0.834000       15.9994           0
   29945 WT2  509  TIP3 H1   HT     0.417000        1.0080           0
   29946 WT2  509  TIP3 H2   HT     0.417000        1.0080           0
   29947 WT2  510  TIP3 OH2  OT    -0.834000       15.9994           0
   29948 WT2  510  TIP3 H1   HT     0.417000        1.0080           0
   29949 WT2  510  TIP3 H2   HT     0.417000        1.0080           0
   29950 WT2  511  TIP3 OH2  OT    -0.834000       15.9994           0
   29951 WT2  511  TIP3 H1   HT     0.417000        1.0080           0
   29952 WT2  511  TIP3 H2   HT     0.417000        1.0080           0
   29953 WT2  512  TIP3 OH2  OT    -0.834000       15.9994           0
   29954 WT2  512  TIP3 H1   HT     0.417000        1.0080           0
   29955 WT2  512  TIP3 H2   HT     0.417000        1.0080           0
   29956 WT2  513  TIP3 OH2  OT    -0.834000       15.9994           0
   29957 WT2  513  TIP3 H1   HT     0.417000        1.0080           0
   29958 WT2  513  TIP3 H2   HT     0.417000        1.0080           0
   29959 WT2  514  TIP3 OH2  OT    -0.834000       15.9994           0
   29960 WT2  514  TIP3 H1   HT     0.417000        1.0080           0
   29961 WT2  514  TIP3 H2   HT     0.417000        1.0080           0
   29962 WT2  515  TIP3 OH2  OT    -0.834000       15.9994           0
   29963 WT2  515  TIP3 H1   HT     0.417000        1.0080           0
   29964 WT2  515  TIP3 H2   HT     0.417000        1.0080           0
   29965 WT2  516  TIP3 OH2  OT    -0.834000       15.9994           0
   29966 WT2  516  TIP3 H1   HT     0.417000        1.0080           0
   29967 WT2  516  TIP3 H2   HT     0.417000        1.0080           0
   29968 WT2  517  TIP3 OH2  OT    -0.834000       15.9994           0
   29969 WT2  517  TIP3 H1   HT     0.417000        1.0080           0
   29970 WT2  517  TIP3 H2   HT     0.417000        1.0080           0
   29971 WT2  528  TIP3 OH2  OT    -0.834000       15.9994           0
   29972 WT2  528  TIP3 H1   HT     0.417000        1.0080           0
   29973 WT2  528  TIP3 H2   HT     0.417000        1.0080           0
   29974 WT2  529  TIP3 OH2  OT    -0.834000       15.9994           0
   29975 WT2  529  TIP3 H1   HT     0.417000        1.0080           0
   29976 WT2  529  TIP3 H2   HT     0.417000        1.0080           0
   29977 WT2  530  TIP3 OH2  OT    -0.834000       15.9994           0
   29978 WT2  530  TIP3 H1   HT     0.417000        1.0080           0
   29979 WT2  530  TIP3 H2   HT     0.417000        1.0080           0
   29980 WT2  531  TIP3 OH2  OT    -0.834000       15.9994           0
   29981 WT2  531  TIP3 H1   HT     0.417000        1.0080           0
   29982 WT2  531  TIP3 H2   HT     0.417000        1.0080           0
   29983 WT2  532  TIP3 OH2  OT    -0.834000       15.9994           0
   29984 WT2  532  TIP3 H1   HT     0.417000        1.0080           0
   29985 WT2  532  TIP3 H2   HT     0.417000        1.0080           0
   29986 WT2  533  TIP3 OH2  OT    -0.834000       15.9994           0
   29987 WT2  533  TIP3 H1   HT     0.417000        1.0080           0
   29988 WT2  533  TIP3 H2   HT     0.417000        1.0080           0
   29989 WT2  534  TIP3 OH2  OT    -0.834000       15.9994           0
   29990 WT2  534  TIP3 H1   HT     0.417000        1.0080           0
   29991 WT2  534  TIP3 H2   HT     0.417000        1.0080           0
   29992 WT2  535  TIP3 OH2  OT    -0.834000       15.9994           0
   29993 WT2  535  TIP3 H1   HT     0.417000        1.0080           0
   29994 WT2  535  TIP3 H2   HT     0.417000        1.0080           0
   29995 WT2  536  TIP3 OH2  OT    -0.834000       15.9994           0
   29996 WT2  536  TIP3 H1   HT     0.417000        1.0080           0
   29997 WT2  536  TIP3 H2   HT     0.417000        1.0080           0
   29998 WT2  537  TIP3 OH2  OT    -0.834000       15.9994           0
   29999 WT2  537  TIP3 H1   HT     0.417000        1.0080           0
   30000 WT2  537  TIP3 H2   HT     0.417000        1.0080           0
   30001 WT2  538  TIP3 OH2  OT    -0.834000       15.9994           0
   30002 WT2  538  TIP3 H1   HT     0.417000        1.0080           0
   30003 WT2  538  TIP3 H2   HT     0.417000        1.0080           0
   30004 WT2  540  TIP3 OH2  OT    -0.834000       15.9994           0
   30005 WT2  540  TIP3 H1   HT     0.417000        1.0080           0
   30006 WT2  540  TIP3 H2   HT     0.417000        1.0080           0
   30007 WT2  543  TIP3 OH2  OT    -0.834000       15.9994           0
   30008 WT2  543  TIP3 H1   HT     0.417000        1.0080           0
   30009 WT2  543  TIP3 H2   HT     0.417000        1.0080           0
   30010 WT2  547  TIP3 OH2  OT    -0.834000       15.9994           0
   30011 WT2  547  TIP3 H1   HT     0.417000        1.0080           0
   30012 WT2  547  TIP3 H2   HT     0.417000        1.0080           0
   30013 WT2  549  TIP3 OH2  OT    -0.834000       15.9994           0
   30014 WT2  549  TIP3 H1   HT     0.417000        1.0080           0
   30015 WT2  549  TIP3 H2   HT     0.417000        1.0080           0
   30016 WT2  550  TIP3 OH2  OT    -0.834000       15.9994           0
   30017 WT2  550  TIP3 H1   HT     0.417000        1.0080           0
   30018 WT2  550  TIP3 H2   HT     0.417000        1.0080           0
   30019 WT2  551  TIP3 OH2  OT    -0.834000       15.9994           0
   30020 WT2  551  TIP3 H1   HT     0.417000        1.0080           0
   30021 WT2  551  TIP3 H2   HT     0.417000        1.0080           0
   30022 WT2  552  TIP3 OH2  OT    -0.834000       15.9994           0
   30023 WT2  552  TIP3 H1   HT     0.417000        1.0080           0
   30024 WT2  552  TIP3 H2   HT     0.417000        1.0080           0
   30025 WT2  553  TIP3 OH2  OT    -0.834000       15.9994           0
   30026 WT2  553  TIP3 H1   HT     0.417000        1.0080           0
   30027 WT2  553  TIP3 H2   HT     0.417000        1.0080           0
   30028 WT2  554  TIP3 OH2  OT    -0.834000       15.9994           0
   30029 WT2  554  TIP3 H1   HT     0.417000        1.0080           0
   30030 WT2  554  TIP3 H2   HT     0.417000        1.0080           0
   30031 WT2  555  TIP3 OH2  OT    -0.834000       15.9994           0
   30032 WT2  555  TIP3 H1   HT     0.417000        1.0080           0
   30033 WT2  555  TIP3 H2   HT     0.417000        1.0080           0
   30034 WT2  557  TIP3 OH2  OT    -0.834000       15.9994           0
   30035 WT2  557  TIP3 H1   HT     0.417000        1.0080           0
   30036 WT2  557  TIP3 H2   HT     0.417000        1.0080           0
   30037 WT2  558  TIP3 OH2  OT    -0.834000       15.9994           0
   30038 WT2  558  TIP3 H1   HT     0.417000        1.0080           0
   30039 WT2  558  TIP3 H2   HT     0.417000        1.0080           0
   30040 WT2  562  TIP3 OH2  OT    -0.834000       15.9994           0
   30041 WT2  562  TIP3 H1   HT     0.417000        1.0080           0
   30042 WT2  562  TIP3 H2   HT     0.417000        1.0080           0
   30043 WT2  563  TIP3 OH2  OT    -0.834000       15.9994           0
   30044 WT2  563  TIP3 H1   HT     0.417000        1.0080           0
   30045 WT2  563  TIP3 H2   HT     0.417000        1.0080           0
   30046 WT2  568  TIP3 OH2  OT    -0.834000       15.9994           0
   30047 WT2  568  TIP3 H1   HT     0.417000        1.0080           0
   30048 WT2  568  TIP3 H2   HT     0.417000        1.0080           0
   30049 WT2  570  TIP3 OH2  OT    -0.834000       15.9994           0
   30050 WT2  570  TIP3 H1   HT     0.417000        1.0080           0
   30051 WT2  570  TIP3 H2   HT     0.417000        1.0080           0
   30052 WT2  572  TIP3 OH2  OT    -0.834000       15.9994           0
   30053 WT2  572  TIP3 H1   HT     0.417000        1.0080           0
   30054 WT2  572  TIP3 H2   HT     0.417000        1.0080           0
   30055 WT2  573  TIP3 OH2  OT    -0.834000       15.9994           0
   30056 WT2  573  TIP3 H1   HT     0.417000        1.0080           0
   30057 WT2  573  TIP3 H2   HT     0.417000        1.0080           0
   30058 WT2  574  TIP3 OH2  OT    -0.834000       15.9994           0
   30059 WT2  574  TIP3 H1   HT     0.417000        1.0080           0
   30060 WT2  574  TIP3 H2   HT     0.417000        1.0080           0
   30061 WT2  575  TIP3 OH2  OT    -0.834000       15.9994           0
   30062 WT2  575  TIP3 H1   HT     0.417000        1.0080           0
   30063 WT2  575  TIP3 H2   HT     0.417000        1.0080           0
   30064 WT2  576  TIP3 OH2  OT    -0.834000       15.9994           0
   30065 WT2  576  TIP3 H1   HT     0.417000        1.0080           0
   30066 WT2  576  TIP3 H2   HT     0.417000        1.0080           0
   30067 WT2  577  TIP3 OH2  OT    -0.834000       15.9994           0
   30068 WT2  577  TIP3 H1   HT     0.417000        1.0080           0
   30069 WT2  577  TIP3 H2   HT     0.417000        1.0080           0
   30070 WT2  578  TIP3 OH2  OT    -0.834000       15.9994           0
   30071 WT2  578  TIP3 H1   HT     0.417000        1.0080           0
   30072 WT2  578  TIP3 H2   HT     0.417000        1.0080           0
   30073 WT2  579  TIP3 OH2  OT    -0.834000       15.9994           0
   30074 WT2  579  TIP3 H1   HT     0.417000        1.0080           0
   30075 WT2  579  TIP3 H2   HT     0.417000        1.0080           0
   30076 WT2  580  TIP3 OH2  OT    -0.834000       15.9994           0
   30077 WT2  580  TIP3 H1   HT     0.417000        1.0080           0
   30078 WT2  580  TIP3 H2   HT     0.417000        1.0080           0
   30079 WT2  584  TIP3 OH2  OT    -0.834000       15.9994           0
   30080 WT2  584  TIP3 H1   HT     0.417000        1.0080           0
   30081 WT2  584  TIP3 H2   HT     0.417000        1.0080           0
   30082 WT2  588  TIP3 OH2  OT    -0.834000       15.9994           0
   30083 WT2  588  TIP3 H1   HT     0.417000        1.0080           0
   30084 WT2  588  TIP3 H2   HT     0.417000        1.0080           0
   30085 WT2  591  TIP3 OH2  OT    -0.834000       15.9994           0
   30086 WT2  591  TIP3 H1   HT     0.417000        1.0080           0
   30087 WT2  591  TIP3 H2   HT     0.417000        1.0080           0
   30088 WT2  592  TIP3 OH2  OT    -0.834000       15.9994           0
   30089 WT2  592  TIP3 H1   HT     0.417000        1.0080           0
   30090 WT2  592  TIP3 H2   HT     0.417000        1.0080           0
   30091 WT2  593  TIP3 OH2  OT    -0.834000       15.9994           0
   30092 WT2  593  TIP3 H1   HT     0.417000        1.0080           0
   30093 WT2  593  TIP3 H2   HT     0.417000        1.0080           0
   30094 WT2  594  TIP3 OH2  OT    -0.834000       15.9994           0
   30095 WT2  594  TIP3 H1   HT     0.417000        1.0080           0
   30096 WT2  594  TIP3 H2   HT     0.417000        1.0080           0
   30097 WT2  595  TIP3 OH2  OT    -0.834000       15.9994           0
   30098 WT2  595  TIP3 H1   HT     0.417000        1.0080           0
   30099 WT2  595  TIP3 H2   HT     0.417000        1.0080           0
   30100 WT2  596  TIP3 OH2  OT    -0.834000       15.9994           0
   30101 WT2  596  TIP3 H1   HT     0.417000        1.0080           0
   30102 WT2  596  TIP3 H2   HT     0.417000        1.0080           0
   30103 WT2  597  TIP3 OH2  OT    -0.834000       15.9994           0
   30104 WT2  597  TIP3 H1   HT     0.417000        1.0080           0
   30105 WT2  597  TIP3 H2   HT     0.417000        1.0080           0
   30106 WT2  598  TIP3 OH2  OT    -0.834000       15.9994           0
   30107 WT2  598  TIP3 H1   HT     0.417000        1.0080           0
   30108 WT2  598  TIP3 H2   HT     0.417000        1.0080           0
   30109 WT2  599  TIP3 OH2  OT    -0.834000       15.9994           0
   30110 WT2  599  TIP3 H1   HT     0.417000        1.0080           0
   30111 WT2  599  TIP3 H2   HT     0.417000        1.0080           0
   30112 WT2  600  TIP3 OH2  OT    -0.834000       15.9994           0
   30113 WT2  600  TIP3 H1   HT     0.417000        1.0080           0
   30114 WT2  600  TIP3 H2   HT     0.417000        1.0080           0
   30115 WT2  602  TIP3 OH2  OT    -0.834000       15.9994           0
   30116 WT2  602  TIP3 H1   HT     0.417000        1.0080           0
   30117 WT2  602  TIP3 H2   HT     0.417000        1.0080           0
   30118 WT2  611  TIP3 OH2  OT    -0.834000       15.9994           0
   30119 WT2  611  TIP3 H1   HT     0.417000        1.0080           0
   30120 WT2  611  TIP3 H2   HT     0.417000        1.0080           0
   30121 WT2  612  TIP3 OH2  OT    -0.834000       15.9994           0
   30122 WT2  612  TIP3 H1   HT     0.417000        1.0080           0
   30123 WT2  612  TIP3 H2   HT     0.417000        1.0080           0
   30124 WT2  613  TIP3 OH2  OT    -0.834000       15.9994           0
   30125 WT2  613  TIP3 H1   HT     0.417000        1.0080           0
   30126 WT2  613  TIP3 H2   HT     0.417000        1.0080           0
   30127 WT2  615  TIP3 OH2  OT    -0.834000       15.9994           0
   30128 WT2  615  TIP3 H1   HT     0.417000        1.0080           0
   30129 WT2  615  TIP3 H2   HT     0.417000        1.0080           0
   30130 WT2  616  TIP3 OH2  OT    -0.834000       15.9994           0
   30131 WT2  616  TIP3 H1   HT     0.417000        1.0080           0
   30132 WT2  616  TIP3 H2   HT     0.417000        1.0080           0
   30133 WT2  617  TIP3 OH2  OT    -0.834000       15.9994           0
   30134 WT2  617  TIP3 H1   HT     0.417000        1.0080           0
   30135 WT2  617  TIP3 H2   HT     0.417000        1.0080           0
   30136 WT2  618  TIP3 OH2  OT    -0.834000       15.9994           0
   30137 WT2  618  TIP3 H1   HT     0.417000        1.0080           0
   30138 WT2  618  TIP3 H2   HT     0.417000        1.0080           0
   30139 WT2  619  TIP3 OH2  OT    -0.834000       15.9994           0
   30140 WT2  619  TIP3 H1   HT     0.417000        1.0080           0
   30141 WT2  619  TIP3 H2   HT     0.417000        1.0080           0
   30142 WT2  620  TIP3 OH2  OT    -0.834000       15.9994           0
   30143 WT2  620  TIP3 H1   HT     0.417000        1.0080           0
   30144 WT2  620  TIP3 H2   HT     0.417000        1.0080           0
   30145 WT2  621  TIP3 OH2  OT    -0.834000       15.9994           0
   30146 WT2  621  TIP3 H1   HT     0.417000        1.0080           0
   30147 WT2  621  TIP3 H2   HT     0.417000        1.0080           0
   30148 WT2  623  TIP3 OH2  OT    -0.834000       15.9994           0
   30149 WT2  623  TIP3 H1   HT     0.417000        1.0080           0
   30150 WT2  623  TIP3 H2   HT     0.417000        1.0080           0
   30151 WT2  624  TIP3 OH2  OT    -0.834000       15.9994           0
   30152 WT2  624  TIP3 H1   HT     0.417000        1.0080           0
   30153 WT2  624  TIP3 H2   HT     0.417000        1.0080           0
   30154 WT2  625  TIP3 OH2  OT    -0.834000       15.9994           0
   30155 WT2  625  TIP3 H1   HT     0.417000        1.0080           0
   30156 WT2  625  TIP3 H2   HT     0.417000        1.0080           0
   30157 WT2  626  TIP3 OH2  OT    -0.834000       15.9994           0
   30158 WT2  626  TIP3 H1   HT     0.417000        1.0080           0
   30159 WT2  626  TIP3 H2   HT     0.417000        1.0080           0
   30160 WT2  632  TIP3 OH2  OT    -0.834000       15.9994           0
   30161 WT2  632  TIP3 H1   HT     0.417000        1.0080           0
   30162 WT2  632  TIP3 H2   HT     0.417000        1.0080           0
   30163 WT2  634  TIP3 OH2  OT    -0.834000       15.9994           0
   30164 WT2  634  TIP3 H1   HT     0.417000        1.0080           0
   30165 WT2  634  TIP3 H2   HT     0.417000        1.0080           0
   30166 WT2  635  TIP3 OH2  OT    -0.834000       15.9994           0
   30167 WT2  635  TIP3 H1   HT     0.417000        1.0080           0
   30168 WT2  635  TIP3 H2   HT     0.417000        1.0080           0
   30169 WT2  636  TIP3 OH2  OT    -0.834000       15.9994           0
   30170 WT2  636  TIP3 H1   HT     0.417000        1.0080           0
   30171 WT2  636  TIP3 H2   HT     0.417000        1.0080           0
   30172 WT2  637  TIP3 OH2  OT    -0.834000       15.9994           0
   30173 WT2  637  TIP3 H1   HT     0.417000        1.0080           0
   30174 WT2  637  TIP3 H2   HT     0.417000        1.0080           0
   30175 WT2  638  TIP3 OH2  OT    -0.834000       15.9994           0
   30176 WT2  638  TIP3 H1   HT     0.417000        1.0080           0
   30177 WT2  638  TIP3 H2   HT     0.417000        1.0080           0
   30178 WT2  639  TIP3 OH2  OT    -0.834000       15.9994           0
   30179 WT2  639  TIP3 H1   HT     0.417000        1.0080           0
   30180 WT2  639  TIP3 H2   HT     0.417000        1.0080           0
   30181 WT2  640  TIP3 OH2  OT    -0.834000       15.9994           0
   30182 WT2  640  TIP3 H1   HT     0.417000        1.0080           0
   30183 WT2  640  TIP3 H2   HT     0.417000        1.0080           0
   30184 WT2  641  TIP3 OH2  OT    -0.834000       15.9994           0
   30185 WT2  641  TIP3 H1   HT     0.417000        1.0080           0
   30186 WT2  641  TIP3 H2   HT     0.417000        1.0080           0
   30187 WT2  642  TIP3 OH2  OT    -0.834000       15.9994           0
   30188 WT2  642  TIP3 H1   HT     0.417000        1.0080           0
   30189 WT2  642  TIP3 H2   HT     0.417000        1.0080           0
   30190 WT2  643  TIP3 OH2  OT    -0.834000       15.9994           0
   30191 WT2  643  TIP3 H1   HT     0.417000        1.0080           0
   30192 WT2  643  TIP3 H2   HT     0.417000        1.0080           0
   30193 WT2  645  TIP3 OH2  OT    -0.834000       15.9994           0
   30194 WT2  645  TIP3 H1   HT     0.417000        1.0080           0
   30195 WT2  645  TIP3 H2   HT     0.417000        1.0080           0
   30196 WT2  648  TIP3 OH2  OT    -0.834000       15.9994           0
   30197 WT2  648  TIP3 H1   HT     0.417000        1.0080           0
   30198 WT2  648  TIP3 H2   HT     0.417000        1.0080           0
   30199 WT2  653  TIP3 OH2  OT    -0.834000       15.9994           0
   30200 WT2  653  TIP3 H1   HT     0.417000        1.0080           0
   30201 WT2  653  TIP3 H2   HT     0.417000        1.0080           0
   30202 WT2  654  TIP3 OH2  OT    -0.834000       15.9994           0
   30203 WT2  654  TIP3 H1   HT     0.417000        1.0080           0
   30204 WT2  654  TIP3 H2   HT     0.417000        1.0080           0
   30205 WT2  656  TIP3 OH2  OT    -0.834000       15.9994           0
   30206 WT2  656  TIP3 H1   HT     0.417000        1.0080           0
   30207 WT2  656  TIP3 H2   HT     0.417000        1.0080           0
   30208 WT2  657  TIP3 OH2  OT    -0.834000       15.9994           0
   30209 WT2  657  TIP3 H1   HT     0.417000        1.0080           0
   30210 WT2  657  TIP3 H2   HT     0.417000        1.0080           0
   30211 WT2  658  TIP3 OH2  OT    -0.834000       15.9994           0
   30212 WT2  658  TIP3 H1   HT     0.417000        1.0080           0
   30213 WT2  658  TIP3 H2   HT     0.417000        1.0080           0
   30214 WT2  659  TIP3 OH2  OT    -0.834000       15.9994           0
   30215 WT2  659  TIP3 H1   HT     0.417000        1.0080           0
   30216 WT2  659  TIP3 H2   HT     0.417000        1.0080           0
   30217 WT2  660  TIP3 OH2  OT    -0.834000       15.9994           0
   30218 WT2  660  TIP3 H1   HT     0.417000        1.0080           0
   30219 WT2  660  TIP3 H2   HT     0.417000        1.0080           0
   30220 WT2  661  TIP3 OH2  OT    -0.834000       15.9994           0
   30221 WT2  661  TIP3 H1   HT     0.417000        1.0080           0
   30222 WT2  661  TIP3 H2   HT     0.417000        1.0080           0
   30223 WT2  662  TIP3 OH2  OT    -0.834000       15.9994           0
   30224 WT2  662  TIP3 H1   HT     0.417000        1.0080           0
   30225 WT2  662  TIP3 H2   HT     0.417000        1.0080           0
   30226 WT2  663  TIP3 OH2  OT    -0.834000       15.9994           0
   30227 WT2  663  TIP3 H1   HT     0.417000        1.0080           0
   30228 WT2  663  TIP3 H2   HT     0.417000        1.0080           0
   30229 WT2  665  TIP3 OH2  OT    -0.834000       15.9994           0
   30230 WT2  665  TIP3 H1   HT     0.417000        1.0080           0
   30231 WT2  665  TIP3 H2   HT     0.417000        1.0080           0
   30232 WT2  666  TIP3 OH2  OT    -0.834000       15.9994           0
   30233 WT2  666  TIP3 H1   HT     0.417000        1.0080           0
   30234 WT2  666  TIP3 H2   HT     0.417000        1.0080           0
   30235 WT2  672  TIP3 OH2  OT    -0.834000       15.9994           0
   30236 WT2  672  TIP3 H1   HT     0.417000        1.0080           0
   30237 WT2  672  TIP3 H2   HT     0.417000        1.0080           0
   30238 WT2  674  TIP3 OH2  OT    -0.834000       15.9994           0
   30239 WT2  674  TIP3 H1   HT     0.417000        1.0080           0
   30240 WT2  674  TIP3 H2   HT     0.417000        1.0080           0
   30241 WT2  675  TIP3 OH2  OT    -0.834000       15.9994           0
   30242 WT2  675  TIP3 H1   HT     0.417000        1.0080           0
   30243 WT2  675  TIP3 H2   HT     0.417000        1.0080           0
   30244 WT2  676  TIP3 OH2  OT    -0.834000       15.9994           0
   30245 WT2  676  TIP3 H1   HT     0.417000        1.0080           0
   30246 WT2  676  TIP3 H2   HT     0.417000        1.0080           0
   30247 WT2  677  TIP3 OH2  OT    -0.834000       15.9994           0
   30248 WT2  677  TIP3 H1   HT     0.417000        1.0080           0
   30249 WT2  677  TIP3 H2   HT     0.417000        1.0080           0
   30250 WT2  679  TIP3 OH2  OT    -0.834000       15.9994           0
   30251 WT2  679  TIP3 H1   HT     0.417000        1.0080           0
   30252 WT2  679  TIP3 H2   HT     0.417000        1.0080           0
   30253 WT2  680  TIP3 OH2  OT    -0.834000       15.9994           0
   30254 WT2  680  TIP3 H1   HT     0.417000        1.0080           0
   30255 WT2  680  TIP3 H2   HT     0.417000        1.0080           0
   30256 WT2  681  TIP3 OH2  OT    -0.834000       15.9994           0
   30257 WT2  681  TIP3 H1   HT     0.417000        1.0080           0
   30258 WT2  681  TIP3 H2   HT     0.417000        1.0080           0
   30259 WT2  682  TIP3 OH2  OT    -0.834000       15.9994           0
   30260 WT2  682  TIP3 H1   HT     0.417000        1.0080           0
   30261 WT2  682  TIP3 H2   HT     0.417000        1.0080           0
   30262 WT2  683  TIP3 OH2  OT    -0.834000       15.9994           0
   30263 WT2  683  TIP3 H1   HT     0.417000        1.0080           0
   30264 WT2  683  TIP3 H2   HT     0.417000        1.0080           0
   30265 WT2  684  TIP3 OH2  OT    -0.834000       15.9994           0
   30266 WT2  684  TIP3 H1   HT     0.417000        1.0080           0
   30267 WT2  684  TIP3 H2   HT     0.417000        1.0080           0
   30268 WT2  685  TIP3 OH2  OT    -0.834000       15.9994           0
   30269 WT2  685  TIP3 H1   HT     0.417000        1.0080           0
   30270 WT2  685  TIP3 H2   HT     0.417000        1.0080           0
   30271 WT2  686  TIP3 OH2  OT    -0.834000       15.9994           0
   30272 WT2  686  TIP3 H1   HT     0.417000        1.0080           0
   30273 WT2  686  TIP3 H2   HT     0.417000        1.0080           0
   30274 WT2  687  TIP3 OH2  OT    -0.834000       15.9994           0
   30275 WT2  687  TIP3 H1   HT     0.417000        1.0080           0
   30276 WT2  687  TIP3 H2   HT     0.417000        1.0080           0
   30277 WT2  692  TIP3 OH2  OT    -0.834000       15.9994           0
   30278 WT2  692  TIP3 H1   HT     0.417000        1.0080           0
   30279 WT2  692  TIP3 H2   HT     0.417000        1.0080           0
   30280 WT2  695  TIP3 OH2  OT    -0.834000       15.9994           0
   30281 WT2  695  TIP3 H1   HT     0.417000        1.0080           0
   30282 WT2  695  TIP3 H2   HT     0.417000        1.0080           0
   30283 WT2  696  TIP3 OH2  OT    -0.834000       15.9994           0
   30284 WT2  696  TIP3 H1   HT     0.417000        1.0080           0
   30285 WT2  696  TIP3 H2   HT     0.417000        1.0080           0
   30286 WT2  697  TIP3 OH2  OT    -0.834000       15.9994           0
   30287 WT2  697  TIP3 H1   HT     0.417000        1.0080           0
   30288 WT2  697  TIP3 H2   HT     0.417000        1.0080           0
   30289 WT2  698  TIP3 OH2  OT    -0.834000       15.9994           0
   30290 WT2  698  TIP3 H1   HT     0.417000        1.0080           0
   30291 WT2  698  TIP3 H2   HT     0.417000        1.0080           0
   30292 WT2  699  TIP3 OH2  OT    -0.834000       15.9994           0
   30293 WT2  699  TIP3 H1   HT     0.417000        1.0080           0
   30294 WT2  699  TIP3 H2   HT     0.417000        1.0080           0
   30295 WT2  700  TIP3 OH2  OT    -0.834000       15.9994           0
   30296 WT2  700  TIP3 H1   HT     0.417000        1.0080           0
   30297 WT2  700  TIP3 H2   HT     0.417000        1.0080           0
   30298 WT2  701  TIP3 OH2  OT    -0.834000       15.9994           0
   30299 WT2  701  TIP3 H1   HT     0.417000        1.0080           0
   30300 WT2  701  TIP3 H2   HT     0.417000        1.0080           0
   30301 WT2  702  TIP3 OH2  OT    -0.834000       15.9994           0
   30302 WT2  702  TIP3 H1   HT     0.417000        1.0080           0
   30303 WT2  702  TIP3 H2   HT     0.417000        1.0080           0
   30304 WT2  703  TIP3 OH2  OT    -0.834000       15.9994           0
   30305 WT2  703  TIP3 H1   HT     0.417000        1.0080           0
   30306 WT2  703  TIP3 H2   HT     0.417000        1.0080           0
   30307 WT2  704  TIP3 OH2  OT    -0.834000       15.9994           0
   30308 WT2  704  TIP3 H1   HT     0.417000        1.0080           0
   30309 WT2  704  TIP3 H2   HT     0.417000        1.0080           0
   30310 WT2  705  TIP3 OH2  OT    -0.834000       15.9994           0
   30311 WT2  705  TIP3 H1   HT     0.417000        1.0080           0
   30312 WT2  705  TIP3 H2   HT     0.417000        1.0080           0
   30313 WT2  706  TIP3 OH2  OT    -0.834000       15.9994           0
   30314 WT2  706  TIP3 H1   HT     0.417000        1.0080           0
   30315 WT2  706  TIP3 H2   HT     0.417000        1.0080           0
   30316 WT2  707  TIP3 OH2  OT    -0.834000       15.9994           0
   30317 WT2  707  TIP3 H1   HT     0.417000        1.0080           0
   30318 WT2  707  TIP3 H2   HT     0.417000        1.0080           0
   30319 WT2  708  TIP3 OH2  OT    -0.834000       15.9994           0
   30320 WT2  708  TIP3 H1   HT     0.417000        1.0080           0
   30321 WT2  708  TIP3 H2   HT     0.417000        1.0080           0
   30322 WT2  710  TIP3 OH2  OT    -0.834000       15.9994           0
   30323 WT2  710  TIP3 H1   HT     0.417000        1.0080           0
   30324 WT2  710  TIP3 H2   HT     0.417000        1.0080           0
   30325 WT2  715  TIP3 OH2  OT    -0.834000       15.9994           0
   30326 WT2  715  TIP3 H1   HT     0.417000        1.0080           0
   30327 WT2  715  TIP3 H2   HT     0.417000        1.0080           0
   30328 WT2  716  TIP3 OH2  OT    -0.834000       15.9994           0
   30329 WT2  716  TIP3 H1   HT     0.417000        1.0080           0
   30330 WT2  716  TIP3 H2   HT     0.417000        1.0080           0
   30331 WT2  717  TIP3 OH2  OT    -0.834000       15.9994           0
   30332 WT2  717  TIP3 H1   HT     0.417000        1.0080           0
   30333 WT2  717  TIP3 H2   HT     0.417000        1.0080           0
   30334 WT2  718  TIP3 OH2  OT    -0.834000       15.9994           0
   30335 WT2  718  TIP3 H1   HT     0.417000        1.0080           0
   30336 WT2  718  TIP3 H2   HT     0.417000        1.0080           0
   30337 WT2  720  TIP3 OH2  OT    -0.834000       15.9994           0
   30338 WT2  720  TIP3 H1   HT     0.417000        1.0080           0
   30339 WT2  720  TIP3 H2   HT     0.417000        1.0080           0
   30340 WT2  721  TIP3 OH2  OT    -0.834000       15.9994           0
   30341 WT2  721  TIP3 H1   HT     0.417000        1.0080           0
   30342 WT2  721  TIP3 H2   HT     0.417000        1.0080           0
   30343 WT2  722  TIP3 OH2  OT    -0.834000       15.9994           0
   30344 WT2  722  TIP3 H1   HT     0.417000        1.0080           0
   30345 WT2  722  TIP3 H2   HT     0.417000        1.0080           0
   30346 WT2  723  TIP3 OH2  OT    -0.834000       15.9994           0
   30347 WT2  723  TIP3 H1   HT     0.417000        1.0080           0
   30348 WT2  723  TIP3 H2   HT     0.417000        1.0080           0
   30349 WT2  724  TIP3 OH2  OT    -0.834000       15.9994           0
   30350 WT2  724  TIP3 H1   HT     0.417000        1.0080           0
   30351 WT2  724  TIP3 H2   HT     0.417000        1.0080           0
   30352 WT2  725  TIP3 OH2  OT    -0.834000       15.9994           0
   30353 WT2  725  TIP3 H1   HT     0.417000        1.0080           0
   30354 WT2  725  TIP3 H2   HT     0.417000        1.0080           0
   30355 WT2  726  TIP3 OH2  OT    -0.834000       15.9994           0
   30356 WT2  726  TIP3 H1   HT     0.417000        1.0080           0
   30357 WT2  726  TIP3 H2   HT     0.417000        1.0080           0
   30358 WT2  732  TIP3 OH2  OT    -0.834000       15.9994           0
   30359 WT2  732  TIP3 H1   HT     0.417000        1.0080           0
   30360 WT2  732  TIP3 H2   HT     0.417000        1.0080           0
   30361 WT2  735  TIP3 OH2  OT    -0.834000       15.9994           0
   30362 WT2  735  TIP3 H1   HT     0.417000        1.0080           0
   30363 WT2  735  TIP3 H2   HT     0.417000        1.0080           0
   30364 WT2  736  TIP3 OH2  OT    -0.834000       15.9994           0
   30365 WT2  736  TIP3 H1   HT     0.417000        1.0080           0
   30366 WT2  736  TIP3 H2   HT     0.417000        1.0080           0
   30367 WT2  737  TIP3 OH2  OT    -0.834000       15.9994           0
   30368 WT2  737  TIP3 H1   HT     0.417000        1.0080           0
   30369 WT2  737  TIP3 H2   HT     0.417000        1.0080           0
   30370 WT2  738  TIP3 OH2  OT    -0.834000       15.9994           0
   30371 WT2  738  TIP3 H1   HT     0.417000        1.0080           0
   30372 WT2  738  TIP3 H2   HT     0.417000        1.0080           0
   30373 WT2  739  TIP3 OH2  OT    -0.834000       15.9994           0
   30374 WT2  739  TIP3 H1   HT     0.417000        1.0080           0
   30375 WT2  739  TIP3 H2   HT     0.417000        1.0080           0
   30376 WT2  740  TIP3 OH2  OT    -0.834000       15.9994           0
   30377 WT2  740  TIP3 H1   HT     0.417000        1.0080           0
   30378 WT2  740  TIP3 H2   HT     0.417000        1.0080           0
   30379 WT2  741  TIP3 OH2  OT    -0.834000       15.9994           0
   30380 WT2  741  TIP3 H1   HT     0.417000        1.0080           0
   30381 WT2  741  TIP3 H2   HT     0.417000        1.0080           0
   30382 WT2  742  TIP3 OH2  OT    -0.834000       15.9994           0
   30383 WT2  742  TIP3 H1   HT     0.417000        1.0080           0
   30384 WT2  742  TIP3 H2   HT     0.417000        1.0080           0
   30385 WT2  743  TIP3 OH2  OT    -0.834000       15.9994           0
   30386 WT2  743  TIP3 H1   HT     0.417000        1.0080           0
   30387 WT2  743  TIP3 H2   HT     0.417000        1.0080           0
   30388 WT2  744  TIP3 OH2  OT    -0.834000       15.9994           0
   30389 WT2  744  TIP3 H1   HT     0.417000        1.0080           0
   30390 WT2  744  TIP3 H2   HT     0.417000        1.0080           0
   30391 WT2  745  TIP3 OH2  OT    -0.834000       15.9994           0
   30392 WT2  745  TIP3 H1   HT     0.417000        1.0080           0
   30393 WT2  745  TIP3 H2   HT     0.417000        1.0080           0
   30394 WT2  746  TIP3 OH2  OT    -0.834000       15.9994           0
   30395 WT2  746  TIP3 H1   HT     0.417000        1.0080           0
   30396 WT2  746  TIP3 H2   HT     0.417000        1.0080           0
   30397 WT2  747  TIP3 OH2  OT    -0.834000       15.9994           0
   30398 WT2  747  TIP3 H1   HT     0.417000        1.0080           0
   30399 WT2  747  TIP3 H2   HT     0.417000        1.0080           0
   30400 WT2  748  TIP3 OH2  OT    -0.834000       15.9994           0
   30401 WT2  748  TIP3 H1   HT     0.417000        1.0080           0
   30402 WT2  748  TIP3 H2   HT     0.417000        1.0080           0
   30403 WT2  749  TIP3 OH2  OT    -0.834000       15.9994           0
   30404 WT2  749  TIP3 H1   HT     0.417000        1.0080           0
   30405 WT2  749  TIP3 H2   HT     0.417000        1.0080           0
   30406 WT2  750  TIP3 OH2  OT    -0.834000       15.9994           0
   30407 WT2  750  TIP3 H1   HT     0.417000        1.0080           0
   30408 WT2  750  TIP3 H2   HT     0.417000        1.0080           0
   30409 WT2  751  TIP3 OH2  OT    -0.834000       15.9994           0
   30410 WT2  751  TIP3 H1   HT     0.417000        1.0080           0
   30411 WT2  751  TIP3 H2   HT     0.417000        1.0080           0
   30412 WT2  757  TIP3 OH2  OT    -0.834000       15.9994           0
   30413 WT2  757  TIP3 H1   HT     0.417000        1.0080           0
   30414 WT2  757  TIP3 H2   HT     0.417000        1.0080           0
   30415 WT2  758  TIP3 OH2  OT    -0.834000       15.9994           0
   30416 WT2  758  TIP3 H1   HT     0.417000        1.0080           0
   30417 WT2  758  TIP3 H2   HT     0.417000        1.0080           0
   30418 WT2  759  TIP3 OH2  OT    -0.834000       15.9994           0
   30419 WT2  759  TIP3 H1   HT     0.417000        1.0080           0
   30420 WT2  759  TIP3 H2   HT     0.417000        1.0080           0
   30421 WT2  760  TIP3 OH2  OT    -0.834000       15.9994           0
   30422 WT2  760  TIP3 H1   HT     0.417000        1.0080           0
   30423 WT2  760  TIP3 H2   HT     0.417000        1.0080           0
   30424 WT2  761  TIP3 OH2  OT    -0.834000       15.9994           0
   30425 WT2  761  TIP3 H1   HT     0.417000        1.0080           0
   30426 WT2  761  TIP3 H2   HT     0.417000        1.0080           0
   30427 WT2  762  TIP3 OH2  OT    -0.834000       15.9994           0
   30428 WT2  762  TIP3 H1   HT     0.417000        1.0080           0
   30429 WT2  762  TIP3 H2   HT     0.417000        1.0080           0
   30430 WT2  763  TIP3 OH2  OT    -0.834000       15.9994           0
   30431 WT2  763  TIP3 H1   HT     0.417000        1.0080           0
   30432 WT2  763  TIP3 H2   HT     0.417000        1.0080           0
   30433 WT2  764  TIP3 OH2  OT    -0.834000       15.9994           0
   30434 WT2  764  TIP3 H1   HT     0.417000        1.0080           0
   30435 WT2  764  TIP3 H2   HT     0.417000        1.0080           0
   30436 WT2  765  TIP3 OH2  OT    -0.834000       15.9994           0
   30437 WT2  765  TIP3 H1   HT     0.417000        1.0080           0
   30438 WT2  765  TIP3 H2   HT     0.417000        1.0080           0
   30439 WT2  766  TIP3 OH2  OT    -0.834000       15.9994           0
   30440 WT2  766  TIP3 H1   HT     0.417000        1.0080           0
   30441 WT2  766  TIP3 H2   HT     0.417000        1.0080           0
   30442 WT2  767  TIP3 OH2  OT    -0.834000       15.9994           0
   30443 WT2  767  TIP3 H1   HT     0.417000        1.0080           0
   30444 WT2  767  TIP3 H2   HT     0.417000        1.0080           0
   30445 WT2  768  TIP3 OH2  OT    -0.834000       15.9994           0
   30446 WT2  768  TIP3 H1   HT     0.417000        1.0080           0
   30447 WT2  768  TIP3 H2   HT     0.417000        1.0080           0
   30448 WT2  770  TIP3 OH2  OT    -0.834000       15.9994           0
   30449 WT2  770  TIP3 H1   HT     0.417000        1.0080           0
   30450 WT2  770  TIP3 H2   HT     0.417000        1.0080           0
   30451 WT2  776  TIP3 OH2  OT    -0.834000       15.9994           0
   30452 WT2  776  TIP3 H1   HT     0.417000        1.0080           0
   30453 WT2  776  TIP3 H2   HT     0.417000        1.0080           0
   30454 WT2  778  TIP3 OH2  OT    -0.834000       15.9994           0
   30455 WT2  778  TIP3 H1   HT     0.417000        1.0080           0
   30456 WT2  778  TIP3 H2   HT     0.417000        1.0080           0
   30457 WT2  780  TIP3 OH2  OT    -0.834000       15.9994           0
   30458 WT2  780  TIP3 H1   HT     0.417000        1.0080           0
   30459 WT2  780  TIP3 H2   HT     0.417000        1.0080           0
   30460 WT2  781  TIP3 OH2  OT    -0.834000       15.9994           0
   30461 WT2  781  TIP3 H1   HT     0.417000        1.0080           0
   30462 WT2  781  TIP3 H2   HT     0.417000        1.0080           0
   30463 WT2  782  TIP3 OH2  OT    -0.834000       15.9994           0
   30464 WT2  782  TIP3 H1   HT     0.417000        1.0080           0
   30465 WT2  782  TIP3 H2   HT     0.417000        1.0080           0
   30466 WT2  783  TIP3 OH2  OT    -0.834000       15.9994           0
   30467 WT2  783  TIP3 H1   HT     0.417000        1.0080           0
   30468 WT2  783  TIP3 H2   HT     0.417000        1.0080           0
   30469 WT2  784  TIP3 OH2  OT    -0.834000       15.9994           0
   30470 WT2  784  TIP3 H1   HT     0.417000        1.0080           0
   30471 WT2  784  TIP3 H2   HT     0.417000        1.0080           0
   30472 WT2  785  TIP3 OH2  OT    -0.834000       15.9994           0
   30473 WT2  785  TIP3 H1   HT     0.417000        1.0080           0
   30474 WT2  785  TIP3 H2   HT     0.417000        1.0080           0
   30475 WT2  786  TIP3 OH2  OT    -0.834000       15.9994           0
   30476 WT2  786  TIP3 H1   HT     0.417000        1.0080           0
   30477 WT2  786  TIP3 H2   HT     0.417000        1.0080           0
   30478 WT2  787  TIP3 OH2  OT    -0.834000       15.9994           0
   30479 WT2  787  TIP3 H1   HT     0.417000        1.0080           0
   30480 WT2  787  TIP3 H2   HT     0.417000        1.0080           0
   30481 WT2  788  TIP3 OH2  OT    -0.834000       15.9994           0
   30482 WT2  788  TIP3 H1   HT     0.417000        1.0080           0
   30483 WT2  788  TIP3 H2   HT     0.417000        1.0080           0
   30484 WT2  789  TIP3 OH2  OT    -0.834000       15.9994           0
   30485 WT2  789  TIP3 H1   HT     0.417000        1.0080           0
   30486 WT2  789  TIP3 H2   HT     0.417000        1.0080           0
   30487 WT2  790  TIP3 OH2  OT    -0.834000       15.9994           0
   30488 WT2  790  TIP3 H1   HT     0.417000        1.0080           0
   30489 WT2  790  TIP3 H2   HT     0.417000        1.0080           0
   30490 WT2  792  TIP3 OH2  OT    -0.834000       15.9994           0
   30491 WT2  792  TIP3 H1   HT     0.417000        1.0080           0
   30492 WT2  792  TIP3 H2   HT     0.417000        1.0080           0
   30493 WT2  794  TIP3 OH2  OT    -0.834000       15.9994           0
   30494 WT2  794  TIP3 H1   HT     0.417000        1.0080           0
   30495 WT2  794  TIP3 H2   HT     0.417000        1.0080           0
   30496 WT2  796  TIP3 OH2  OT    -0.834000       15.9994           0
   30497 WT2  796  TIP3 H1   HT     0.417000        1.0080           0
   30498 WT2  796  TIP3 H2   HT     0.417000        1.0080           0
   30499 WT2  801  TIP3 OH2  OT    -0.834000       15.9994           0
   30500 WT2  801  TIP3 H1   HT     0.417000        1.0080           0
   30501 WT2  801  TIP3 H2   HT     0.417000        1.0080           0
   30502 WT2  802  TIP3 OH2  OT    -0.834000       15.9994           0
   30503 WT2  802  TIP3 H1   HT     0.417000        1.0080           0
   30504 WT2  802  TIP3 H2   HT     0.417000        1.0080           0
   30505 WT2  803  TIP3 OH2  OT    -0.834000       15.9994           0
   30506 WT2  803  TIP3 H1   HT     0.417000        1.0080           0
   30507 WT2  803  TIP3 H2   HT     0.417000        1.0080           0
   30508 WT2  804  TIP3 OH2  OT    -0.834000       15.9994           0
   30509 WT2  804  TIP3 H1   HT     0.417000        1.0080           0
   30510 WT2  804  TIP3 H2   HT     0.417000        1.0080           0
   30511 WT2  805  TIP3 OH2  OT    -0.834000       15.9994           0
   30512 WT2  805  TIP3 H1   HT     0.417000        1.0080           0
   30513 WT2  805  TIP3 H2   HT     0.417000        1.0080           0
   30514 WT2  806  TIP3 OH2  OT    -0.834000       15.9994           0
   30515 WT2  806  TIP3 H1   HT     0.417000        1.0080           0
   30516 WT2  806  TIP3 H2   HT     0.417000        1.0080           0
   30517 WT2  807  TIP3 OH2  OT    -0.834000       15.9994           0
   30518 WT2  807  TIP3 H1   HT     0.417000        1.0080           0
   30519 WT2  807  TIP3 H2   HT     0.417000        1.0080           0
   30520 WT2  808  TIP3 OH2  OT    -0.834000       15.9994           0
   30521 WT2  808  TIP3 H1   HT     0.417000        1.0080           0
   30522 WT2  808  TIP3 H2   HT     0.417000        1.0080           0
   30523 WT2  809  TIP3 OH2  OT    -0.834000       15.9994           0
   30524 WT2  809  TIP3 H1   HT     0.417000        1.0080           0
   30525 WT2  809  TIP3 H2   HT     0.417000        1.0080           0
   30526 WT2  810  TIP3 OH2  OT    -0.834000       15.9994           0
   30527 WT2  810  TIP3 H1   HT     0.417000        1.0080           0
   30528 WT2  810  TIP3 H2   HT     0.417000        1.0080           0
   30529 WT2  811  TIP3 OH2  OT    -0.834000       15.9994           0
   30530 WT2  811  TIP3 H1   HT     0.417000        1.0080           0
   30531 WT2  811  TIP3 H2   HT     0.417000        1.0080           0
   30532 WT2  813  TIP3 OH2  OT    -0.834000       15.9994           0
   30533 WT2  813  TIP3 H1   HT     0.417000        1.0080           0
   30534 WT2  813  TIP3 H2   HT     0.417000        1.0080           0
   30535 WT2  817  TIP3 OH2  OT    -0.834000       15.9994           0
   30536 WT2  817  TIP3 H1   HT     0.417000        1.0080           0
   30537 WT2  817  TIP3 H2   HT     0.417000        1.0080           0
   30538 WT2  823  TIP3 OH2  OT    -0.834000       15.9994           0
   30539 WT2  823  TIP3 H1   HT     0.417000        1.0080           0
   30540 WT2  823  TIP3 H2   HT     0.417000        1.0080           0
   30541 WT2  824  TIP3 OH2  OT    -0.834000       15.9994           0
   30542 WT2  824  TIP3 H1   HT     0.417000        1.0080           0
   30543 WT2  824  TIP3 H2   HT     0.417000        1.0080           0
   30544 WT2  825  TIP3 OH2  OT    -0.834000       15.9994           0
   30545 WT2  825  TIP3 H1   HT     0.417000        1.0080           0
   30546 WT2  825  TIP3 H2   HT     0.417000        1.0080           0
   30547 WT2  826  TIP3 OH2  OT    -0.834000       15.9994           0
   30548 WT2  826  TIP3 H1   HT     0.417000        1.0080           0
   30549 WT2  826  TIP3 H2   HT     0.417000        1.0080           0
   30550 WT2  827  TIP3 OH2  OT    -0.834000       15.9994           0
   30551 WT2  827  TIP3 H1   HT     0.417000        1.0080           0
   30552 WT2  827  TIP3 H2   HT     0.417000        1.0080           0
   30553 WT2  828  TIP3 OH2  OT    -0.834000       15.9994           0
   30554 WT2  828  TIP3 H1   HT     0.417000        1.0080           0
   30555 WT2  828  TIP3 H2   HT     0.417000        1.0080           0
   30556 WT2  829  TIP3 OH2  OT    -0.834000       15.9994           0
   30557 WT2  829  TIP3 H1   HT     0.417000        1.0080           0
   30558 WT2  829  TIP3 H2   HT     0.417000        1.0080           0
   30559 WT2  830  TIP3 OH2  OT    -0.834000       15.9994           0
   30560 WT2  830  TIP3 H1   HT     0.417000        1.0080           0
   30561 WT2  830  TIP3 H2   HT     0.417000        1.0080           0
   30562 WT2  831  TIP3 OH2  OT    -0.834000       15.9994           0
   30563 WT2  831  TIP3 H1   HT     0.417000        1.0080           0
   30564 WT2  831  TIP3 H2   HT     0.417000        1.0080           0
   30565 WT2  832  TIP3 OH2  OT    -0.834000       15.9994           0
   30566 WT2  832  TIP3 H1   HT     0.417000        1.0080           0
   30567 WT2  832  TIP3 H2   HT     0.417000        1.0080           0
   30568 WT2  843  TIP3 OH2  OT    -0.834000       15.9994           0
   30569 WT2  843  TIP3 H1   HT     0.417000        1.0080           0
   30570 WT2  843  TIP3 H2   HT     0.417000        1.0080           0
   30571 WT2  844  TIP3 OH2  OT    -0.834000       15.9994           0
   30572 WT2  844  TIP3 H1   HT     0.417000        1.0080           0
   30573 WT2  844  TIP3 H2   HT     0.417000        1.0080           0
   30574 WT2  845  TIP3 OH2  OT    -0.834000       15.9994           0
   30575 WT2  845  TIP3 H1   HT     0.417000        1.0080           0
   30576 WT2  845  TIP3 H2   HT     0.417000        1.0080           0
   30577 WT2  846  TIP3 OH2  OT    -0.834000       15.9994           0
   30578 WT2  846  TIP3 H1   HT     0.417000        1.0080           0
   30579 WT2  846  TIP3 H2   HT     0.417000        1.0080           0
   30580 WT2  847  TIP3 OH2  OT    -0.834000       15.9994           0
   30581 WT2  847  TIP3 H1   HT     0.417000        1.0080           0
   30582 WT2  847  TIP3 H2   HT     0.417000        1.0080           0
   30583 WT2  848  TIP3 OH2  OT    -0.834000       15.9994           0
   30584 WT2  848  TIP3 H1   HT     0.417000        1.0080           0
   30585 WT2  848  TIP3 H2   HT     0.417000        1.0080           0
   30586 WT2  849  TIP3 OH2  OT    -0.834000       15.9994           0
   30587 WT2  849  TIP3 H1   HT     0.417000        1.0080           0
   30588 WT2  849  TIP3 H2   HT     0.417000        1.0080           0
   30589 WT2  850  TIP3 OH2  OT    -0.834000       15.9994           0
   30590 WT2  850  TIP3 H1   HT     0.417000        1.0080           0
   30591 WT2  850  TIP3 H2   HT     0.417000        1.0080           0
   30592 WT2  852  TIP3 OH2  OT    -0.834000       15.9994           0
   30593 WT2  852  TIP3 H1   HT     0.417000        1.0080           0
   30594 WT2  852  TIP3 H2   HT     0.417000        1.0080           0
   30595 WT2  853  TIP3 OH2  OT    -0.834000       15.9994           0
   30596 WT2  853  TIP3 H1   HT     0.417000        1.0080           0
   30597 WT2  853  TIP3 H2   HT     0.417000        1.0080           0
   30598 WT2  854  TIP3 OH2  OT    -0.834000       15.9994           0
   30599 WT2  854  TIP3 H1   HT     0.417000        1.0080           0
   30600 WT2  854  TIP3 H2   HT     0.417000        1.0080           0
   30601 WT2  862  TIP3 OH2  OT    -0.834000       15.9994           0
   30602 WT2  862  TIP3 H1   HT     0.417000        1.0080           0
   30603 WT2  862  TIP3 H2   HT     0.417000        1.0080           0
   30604 WT2  865  TIP3 OH2  OT    -0.834000       15.9994           0
   30605 WT2  865  TIP3 H1   HT     0.417000        1.0080           0
   30606 WT2  865  TIP3 H2   HT     0.417000        1.0080           0
   30607 WT2  866  TIP3 OH2  OT    -0.834000       15.9994           0
   30608 WT2  866  TIP3 H1   HT     0.417000        1.0080           0
   30609 WT2  866  TIP3 H2   HT     0.417000        1.0080           0
   30610 WT2  867  TIP3 OH2  OT    -0.834000       15.9994           0
   30611 WT2  867  TIP3 H1   HT     0.417000        1.0080           0
   30612 WT2  867  TIP3 H2   HT     0.417000        1.0080           0
   30613 WT2  869  TIP3 OH2  OT    -0.834000       15.9994           0
   30614 WT2  869  TIP3 H1   HT     0.417000        1.0080           0
   30615 WT2  869  TIP3 H2   HT     0.417000        1.0080           0
   30616 WT2  870  TIP3 OH2  OT    -0.834000       15.9994           0
   30617 WT2  870  TIP3 H1   HT     0.417000        1.0080           0
   30618 WT2  870  TIP3 H2   HT     0.417000        1.0080           0
   30619 WT2  871  TIP3 OH2  OT    -0.834000       15.9994           0
   30620 WT2  871  TIP3 H1   HT     0.417000        1.0080           0
   30621 WT2  871  TIP3 H2   HT     0.417000        1.0080           0
   30622 WT2  872  TIP3 OH2  OT    -0.834000       15.9994           0
   30623 WT2  872  TIP3 H1   HT     0.417000        1.0080           0
   30624 WT2  872  TIP3 H2   HT     0.417000        1.0080           0
   30625 WT2  873  TIP3 OH2  OT    -0.834000       15.9994           0
   30626 WT2  873  TIP3 H1   HT     0.417000        1.0080           0
   30627 WT2  873  TIP3 H2   HT     0.417000        1.0080           0
   30628 WT2  874  TIP3 OH2  OT    -0.834000       15.9994           0
   30629 WT2  874  TIP3 H1   HT     0.417000        1.0080           0
   30630 WT2  874  TIP3 H2   HT     0.417000        1.0080           0
   30631 WT2  875  TIP3 OH2  OT    -0.834000       15.9994           0
   30632 WT2  875  TIP3 H1   HT     0.417000        1.0080           0
   30633 WT2  875  TIP3 H2   HT     0.417000        1.0080           0
   30634 WT2  878  TIP3 OH2  OT    -0.834000       15.9994           0
   30635 WT2  878  TIP3 H1   HT     0.417000        1.0080           0
   30636 WT2  878  TIP3 H2   HT     0.417000        1.0080           0
   30637 WT2  880  TIP3 OH2  OT    -0.834000       15.9994           0
   30638 WT2  880  TIP3 H1   HT     0.417000        1.0080           0
   30639 WT2  880  TIP3 H2   HT     0.417000        1.0080           0
   30640 WT2  883  TIP3 OH2  OT    -0.834000       15.9994           0
   30641 WT2  883  TIP3 H1   HT     0.417000        1.0080           0
   30642 WT2  883  TIP3 H2   HT     0.417000        1.0080           0
   30643 WT2  885  TIP3 OH2  OT    -0.834000       15.9994           0
   30644 WT2  885  TIP3 H1   HT     0.417000        1.0080           0
   30645 WT2  885  TIP3 H2   HT     0.417000        1.0080           0
   30646 WT2  887  TIP3 OH2  OT    -0.834000       15.9994           0
   30647 WT2  887  TIP3 H1   HT     0.417000        1.0080           0
   30648 WT2  887  TIP3 H2   HT     0.417000        1.0080           0
   30649 WT2  888  TIP3 OH2  OT    -0.834000       15.9994           0
   30650 WT2  888  TIP3 H1   HT     0.417000        1.0080           0
   30651 WT2  888  TIP3 H2   HT     0.417000        1.0080           0
   30652 WT2  889  TIP3 OH2  OT    -0.834000       15.9994           0
   30653 WT2  889  TIP3 H1   HT     0.417000        1.0080           0
   30654 WT2  889  TIP3 H2   HT     0.417000        1.0080           0
   30655 WT2  890  TIP3 OH2  OT    -0.834000       15.9994           0
   30656 WT2  890  TIP3 H1   HT     0.417000        1.0080           0
   30657 WT2  890  TIP3 H2   HT     0.417000        1.0080           0
   30658 WT2  891  TIP3 OH2  OT    -0.834000       15.9994           0
   30659 WT2  891  TIP3 H1   HT     0.417000        1.0080           0
   30660 WT2  891  TIP3 H2   HT     0.417000        1.0080           0
   30661 WT2  893  TIP3 OH2  OT    -0.834000       15.9994           0
   30662 WT2  893  TIP3 H1   HT     0.417000        1.0080           0
   30663 WT2  893  TIP3 H2   HT     0.417000        1.0080           0
   30664 WT2  894  TIP3 OH2  OT    -0.834000       15.9994           0
   30665 WT2  894  TIP3 H1   HT     0.417000        1.0080           0
   30666 WT2  894  TIP3 H2   HT     0.417000        1.0080           0
   30667 WT2  895  TIP3 OH2  OT    -0.834000       15.9994           0
   30668 WT2  895  TIP3 H1   HT     0.417000        1.0080           0
   30669 WT2  895  TIP3 H2   HT     0.417000        1.0080           0
   30670 WT2  897  TIP3 OH2  OT    -0.834000       15.9994           0
   30671 WT2  897  TIP3 H1   HT     0.417000        1.0080           0
   30672 WT2  897  TIP3 H2   HT     0.417000        1.0080           0
   30673 WT2  902  TIP3 OH2  OT    -0.834000       15.9994           0
   30674 WT2  902  TIP3 H1   HT     0.417000        1.0080           0
   30675 WT2  902  TIP3 H2   HT     0.417000        1.0080           0
   30676 WT2  905  TIP3 OH2  OT    -0.834000       15.9994           0
   30677 WT2  905  TIP3 H1   HT     0.417000        1.0080           0
   30678 WT2  905  TIP3 H2   HT     0.417000        1.0080           0
   30679 WT2  906  TIP3 OH2  OT    -0.834000       15.9994           0
   30680 WT2  906  TIP3 H1   HT     0.417000        1.0080           0
   30681 WT2  906  TIP3 H2   HT     0.417000        1.0080           0
   30682 WT2  907  TIP3 OH2  OT    -0.834000       15.9994           0
   30683 WT2  907  TIP3 H1   HT     0.417000        1.0080           0
   30684 WT2  907  TIP3 H2   HT     0.417000        1.0080           0
   30685 WT2  908  TIP3 OH2  OT    -0.834000       15.9994           0
   30686 WT2  908  TIP3 H1   HT     0.417000        1.0080           0
   30687 WT2  908  TIP3 H2   HT     0.417000        1.0080           0
   30688 WT2  909  TIP3 OH2  OT    -0.834000       15.9994           0
   30689 WT2  909  TIP3 H1   HT     0.417000        1.0080           0
   30690 WT2  909  TIP3 H2   HT     0.417000        1.0080           0
   30691 WT2  910  TIP3 OH2  OT    -0.834000       15.9994           0
   30692 WT2  910  TIP3 H1   HT     0.417000        1.0080           0
   30693 WT2  910  TIP3 H2   HT     0.417000        1.0080           0
   30694 WT2  911  TIP3 OH2  OT    -0.834000       15.9994           0
   30695 WT2  911  TIP3 H1   HT     0.417000        1.0080           0
   30696 WT2  911  TIP3 H2   HT     0.417000        1.0080           0
   30697 WT2  912  TIP3 OH2  OT    -0.834000       15.9994           0
   30698 WT2  912  TIP3 H1   HT     0.417000        1.0080           0
   30699 WT2  912  TIP3 H2   HT     0.417000        1.0080           0
   30700 WT2  913  TIP3 OH2  OT    -0.834000       15.9994           0
   30701 WT2  913  TIP3 H1   HT     0.417000        1.0080           0
   30702 WT2  913  TIP3 H2   HT     0.417000        1.0080           0
   30703 WT2  914  TIP3 OH2  OT    -0.834000       15.9994           0
   30704 WT2  914  TIP3 H1   HT     0.417000        1.0080           0
   30705 WT2  914  TIP3 H2   HT     0.417000        1.0080           0
   30706 WT2  915  TIP3 OH2  OT    -0.834000       15.9994           0
   30707 WT2  915  TIP3 H1   HT     0.417000        1.0080           0
   30708 WT2  915  TIP3 H2   HT     0.417000        1.0080           0
   30709 WT2  916  TIP3 OH2  OT    -0.834000       15.9994           0
   30710 WT2  916  TIP3 H1   HT     0.417000        1.0080           0
   30711 WT2  916  TIP3 H2   HT     0.417000        1.0080           0
   30712 WT2  918  TIP3 OH2  OT    -0.834000       15.9994           0
   30713 WT2  918  TIP3 H1   HT     0.417000        1.0080           0
   30714 WT2  918  TIP3 H2   HT     0.417000        1.0080           0
   30715 WT2  924  TIP3 OH2  OT    -0.834000       15.9994           0
   30716 WT2  924  TIP3 H1   HT     0.417000        1.0080           0
   30717 WT2  924  TIP3 H2   HT     0.417000        1.0080           0
   30718 WT2  925  TIP3 OH2  OT    -0.834000       15.9994           0
   30719 WT2  925  TIP3 H1   HT     0.417000        1.0080           0
   30720 WT2  925  TIP3 H2   HT     0.417000        1.0080           0
   30721 WT2  926  TIP3 OH2  OT    -0.834000       15.9994           0
   30722 WT2  926  TIP3 H1   HT     0.417000        1.0080           0
   30723 WT2  926  TIP3 H2   HT     0.417000        1.0080           0
   30724 WT2  927  TIP3 OH2  OT    -0.834000       15.9994           0
   30725 WT2  927  TIP3 H1   HT     0.417000        1.0080           0
   30726 WT2  927  TIP3 H2   HT     0.417000        1.0080           0
   30727 WT2  928  TIP3 OH2  OT    -0.834000       15.9994           0
   30728 WT2  928  TIP3 H1   HT     0.417000        1.0080           0
   30729 WT2  928  TIP3 H2   HT     0.417000        1.0080           0
   30730 WT2  929  TIP3 OH2  OT    -0.834000       15.9994           0
   30731 WT2  929  TIP3 H1   HT     0.417000        1.0080           0
   30732 WT2  929  TIP3 H2   HT     0.417000        1.0080           0
   30733 WT2  930  TIP3 OH2  OT    -0.834000       15.9994           0
   30734 WT2  930  TIP3 H1   HT     0.417000        1.0080           0
   30735 WT2  930  TIP3 H2   HT     0.417000        1.0080           0
   30736 WT2  931  TIP3 OH2  OT    -0.834000       15.9994           0
   30737 WT2  931  TIP3 H1   HT     0.417000        1.0080           0
   30738 WT2  931  TIP3 H2   HT     0.417000        1.0080           0
   30739 WT2  932  TIP3 OH2  OT    -0.834000       15.9994           0
   30740 WT2  932  TIP3 H1   HT     0.417000        1.0080           0
   30741 WT2  932  TIP3 H2   HT     0.417000        1.0080           0
   30742 WT2  933  TIP3 OH2  OT    -0.834000       15.9994           0
   30743 WT2  933  TIP3 H1   HT     0.417000        1.0080           0
   30744 WT2  933  TIP3 H2   HT     0.417000        1.0080           0
   30745 WT2  934  TIP3 OH2  OT    -0.834000       15.9994           0
   30746 WT2  934  TIP3 H1   HT     0.417000        1.0080           0
   30747 WT2  934  TIP3 H2   HT     0.417000        1.0080           0
   30748 WT2  935  TIP3 OH2  OT    -0.834000       15.9994           0
   30749 WT2  935  TIP3 H1   HT     0.417000        1.0080           0
   30750 WT2  935  TIP3 H2   HT     0.417000        1.0080           0
   30751 WT2  936  TIP3 OH2  OT    -0.834000       15.9994           0
   30752 WT2  936  TIP3 H1   HT     0.417000        1.0080           0
   30753 WT2  936  TIP3 H2   HT     0.417000        1.0080           0
   30754 WT2  940  TIP3 OH2  OT    -0.834000       15.9994           0
   30755 WT2  940  TIP3 H1   HT     0.417000        1.0080           0
   30756 WT2  940  TIP3 H2   HT     0.417000        1.0080           0
   30757 WT2  941  TIP3 OH2  OT    -0.834000       15.9994           0
   30758 WT2  941  TIP3 H1   HT     0.417000        1.0080           0
   30759 WT2  941  TIP3 H2   HT     0.417000        1.0080           0
   30760 WT2  942  TIP3 OH2  OT    -0.834000       15.9994           0
   30761 WT2  942  TIP3 H1   HT     0.417000        1.0080           0
   30762 WT2  942  TIP3 H2   HT     0.417000        1.0080           0
   30763 WT2  947  TIP3 OH2  OT    -0.834000       15.9994           0
   30764 WT2  947  TIP3 H1   HT     0.417000        1.0080           0
   30765 WT2  947  TIP3 H2   HT     0.417000        1.0080           0
   30766 WT2  948  TIP3 OH2  OT    -0.834000       15.9994           0
   30767 WT2  948  TIP3 H1   HT     0.417000        1.0080           0
   30768 WT2  948  TIP3 H2   HT     0.417000        1.0080           0
   30769 WT2  949  TIP3 OH2  OT    -0.834000       15.9994           0
   30770 WT2  949  TIP3 H1   HT     0.417000        1.0080           0
   30771 WT2  949  TIP3 H2   HT     0.417000        1.0080           0
   30772 WT2  950  TIP3 OH2  OT    -0.834000       15.9994           0
   30773 WT2  950  TIP3 H1   HT     0.417000        1.0080           0
   30774 WT2  950  TIP3 H2   HT     0.417000        1.0080           0
   30775 WT2  951  TIP3 OH2  OT    -0.834000       15.9994           0
   30776 WT2  951  TIP3 H1   HT     0.417000        1.0080           0
   30777 WT2  951  TIP3 H2   HT     0.417000        1.0080           0
   30778 WT2  952  TIP3 OH2  OT    -0.834000       15.9994           0
   30779 WT2  952  TIP3 H1   HT     0.417000        1.0080           0
   30780 WT2  952  TIP3 H2   HT     0.417000        1.0080           0
   30781 WT2  953  TIP3 OH2  OT    -0.834000       15.9994           0
   30782 WT2  953  TIP3 H1   HT     0.417000        1.0080           0
   30783 WT2  953  TIP3 H2   HT     0.417000        1.0080           0
   30784 WT2  954  TIP3 OH2  OT    -0.834000       15.9994           0
   30785 WT2  954  TIP3 H1   HT     0.417000        1.0080           0
   30786 WT2  954  TIP3 H2   HT     0.417000        1.0080           0
   30787 WT2  955  TIP3 OH2  OT    -0.834000       15.9994           0
   30788 WT2  955  TIP3 H1   HT     0.417000        1.0080           0
   30789 WT2  955  TIP3 H2   HT     0.417000        1.0080           0
   30790 WT2  956  TIP3 OH2  OT    -0.834000       15.9994           0
   30791 WT2  956  TIP3 H1   HT     0.417000        1.0080           0
   30792 WT2  956  TIP3 H2   HT     0.417000        1.0080           0
   30793 WT2  964  TIP3 OH2  OT    -0.834000       15.9994           0
   30794 WT2  964  TIP3 H1   HT     0.417000        1.0080           0
   30795 WT2  964  TIP3 H2   HT     0.417000        1.0080           0
   30796 WT2  968  TIP3 OH2  OT    -0.834000       15.9994           0
   30797 WT2  968  TIP3 H1   HT     0.417000        1.0080           0
   30798 WT2  968  TIP3 H2   HT     0.417000        1.0080           0
   30799 WT2  969  TIP3 OH2  OT    -0.834000       15.9994           0
   30800 WT2  969  TIP3 H1   HT     0.417000        1.0080           0
   30801 WT2  969  TIP3 H2   HT     0.417000        1.0080           0
   30802 WT2  970  TIP3 OH2  OT    -0.834000       15.9994           0
   30803 WT2  970  TIP3 H1   HT     0.417000        1.0080           0
   30804 WT2  970  TIP3 H2   HT     0.417000        1.0080           0
   30805 WT2  971  TIP3 OH2  OT    -0.834000       15.9994           0
   30806 WT2  971  TIP3 H1   HT     0.417000        1.0080           0
   30807 WT2  971  TIP3 H2   HT     0.417000        1.0080           0
   30808 WT2  972  TIP3 OH2  OT    -0.834000       15.9994           0
   30809 WT2  972  TIP3 H1   HT     0.417000        1.0080           0
   30810 WT2  972  TIP3 H2   HT     0.417000        1.0080           0
   30811 WT2  973  TIP3 OH2  OT    -0.834000       15.9994           0
   30812 WT2  973  TIP3 H1   HT     0.417000        1.0080           0
   30813 WT2  973  TIP3 H2   HT     0.417000        1.0080           0
   30814 WT2  974  TIP3 OH2  OT    -0.834000       15.9994           0
   30815 WT2  974  TIP3 H1   HT     0.417000        1.0080           0
   30816 WT2  974  TIP3 H2   HT     0.417000        1.0080           0
   30817 WT2  975  TIP3 OH2  OT    -0.834000       15.9994           0
   30818 WT2  975  TIP3 H1   HT     0.417000        1.0080           0
   30819 WT2  975  TIP3 H2   HT     0.417000        1.0080           0
   30820 WT2  976  TIP3 OH2  OT    -0.834000       15.9994           0
   30821 WT2  976  TIP3 H1   HT     0.417000        1.0080           0
   30822 WT2  976  TIP3 H2   HT     0.417000        1.0080           0
   30823 WT2  977  TIP3 OH2  OT    -0.834000       15.9994           0
   30824 WT2  977  TIP3 H1   HT     0.417000        1.0080           0
   30825 WT2  977  TIP3 H2   HT     0.417000        1.0080           0
   30826 WT2  978  TIP3 OH2  OT    -0.834000       15.9994           0
   30827 WT2  978  TIP3 H1   HT     0.417000        1.0080           0
   30828 WT2  978  TIP3 H2   HT     0.417000        1.0080           0
   30829 WT2  985  TIP3 OH2  OT    -0.834000       15.9994           0
   30830 WT2  985  TIP3 H1   HT     0.417000        1.0080           0
   30831 WT2  985  TIP3 H2   HT     0.417000        1.0080           0
   30832 WT2  987  TIP3 OH2  OT    -0.834000       15.9994           0
   30833 WT2  987  TIP3 H1   HT     0.417000        1.0080           0
   30834 WT2  987  TIP3 H2   HT     0.417000        1.0080           0
   30835 WT2  988  TIP3 OH2  OT    -0.834000       15.9994           0
   30836 WT2  988  TIP3 H1   HT     0.417000        1.0080           0
   30837 WT2  988  TIP3 H2   HT     0.417000        1.0080           0
   30838 WT2  989  TIP3 OH2  OT    -0.834000       15.9994           0
   30839 WT2  989  TIP3 H1   HT     0.417000        1.0080           0
   30840 WT2  989  TIP3 H2   HT     0.417000        1.0080           0
   30841 WT2  990  TIP3 OH2  OT    -0.834000       15.9994           0
   30842 WT2  990  TIP3 H1   HT     0.417000        1.0080           0
   30843 WT2  990  TIP3 H2   HT     0.417000        1.0080           0
   30844 WT2  991  TIP3 OH2  OT    -0.834000       15.9994           0
   30845 WT2  991  TIP3 H1   HT     0.417000        1.0080           0
   30846 WT2  991  TIP3 H2   HT     0.417000        1.0080           0
   30847 WT2  992  TIP3 OH2  OT    -0.834000       15.9994           0
   30848 WT2  992  TIP3 H1   HT     0.417000        1.0080           0
   30849 WT2  992  TIP3 H2   HT     0.417000        1.0080           0
   30850 WT2  994  TIP3 OH2  OT    -0.834000       15.9994           0
   30851 WT2  994  TIP3 H1   HT     0.417000        1.0080           0
   30852 WT2  994  TIP3 H2   HT     0.417000        1.0080           0
   30853 WT2  995  TIP3 OH2  OT    -0.834000       15.9994           0
   30854 WT2  995  TIP3 H1   HT     0.417000        1.0080           0
   30855 WT2  995  TIP3 H2   HT     0.417000        1.0080           0
   30856 WT2  996  TIP3 OH2  OT    -0.834000       15.9994           0
   30857 WT2  996  TIP3 H1   HT     0.417000        1.0080           0
   30858 WT2  996  TIP3 H2   HT     0.417000        1.0080           0
   30859 WT2  997  TIP3 OH2  OT    -0.834000       15.9994           0
   30860 WT2  997  TIP3 H1   HT     0.417000        1.0080           0
   30861 WT2  997  TIP3 H2   HT     0.417000        1.0080           0
   30862 WT2  998  TIP3 OH2  OT    -0.834000       15.9994           0
   30863 WT2  998  TIP3 H1   HT     0.417000        1.0080           0
   30864 WT2  998  TIP3 H2   HT     0.417000        1.0080           0
   30865 WT2  1000 TIP3 OH2  OT    -0.834000       15.9994           0
   30866 WT2  1000 TIP3 H1   HT     0.417000        1.0080           0
   30867 WT2  1000 TIP3 H2   HT     0.417000        1.0080           0
   30868 WT2  1001 TIP3 OH2  OT    -0.834000       15.9994           0
   30869 WT2  1001 TIP3 H1   HT     0.417000        1.0080           0
   30870 WT2  1001 TIP3 H2   HT     0.417000        1.0080           0
   30871 WT2  1003 TIP3 OH2  OT    -0.834000       15.9994           0
   30872 WT2  1003 TIP3 H1   HT     0.417000        1.0080           0
   30873 WT2  1003 TIP3 H2   HT     0.417000        1.0080           0
   30874 WT2  1007 TIP3 OH2  OT    -0.834000       15.9994           0
   30875 WT2  1007 TIP3 H1   HT     0.417000        1.0080           0
   30876 WT2  1007 TIP3 H2   HT     0.417000        1.0080           0
   30877 WT2  1010 TIP3 OH2  OT    -0.834000       15.9994           0
   30878 WT2  1010 TIP3 H1   HT     0.417000        1.0080           0
   30879 WT2  1010 TIP3 H2   HT     0.417000        1.0080           0
   30880 WT2  1011 TIP3 OH2  OT    -0.834000       15.9994           0
   30881 WT2  1011 TIP3 H1   HT     0.417000        1.0080           0
   30882 WT2  1011 TIP3 H2   HT     0.417000        1.0080           0
   30883 WT2  1012 TIP3 OH2  OT    -0.834000       15.9994           0
   30884 WT2  1012 TIP3 H1   HT     0.417000        1.0080           0
   30885 WT2  1012 TIP3 H2   HT     0.417000        1.0080           0
   30886 WT2  1013 TIP3 OH2  OT    -0.834000       15.9994           0
   30887 WT2  1013 TIP3 H1   HT     0.417000        1.0080           0
   30888 WT2  1013 TIP3 H2   HT     0.417000        1.0080           0
   30889 WT2  1014 TIP3 OH2  OT    -0.834000       15.9994           0
   30890 WT2  1014 TIP3 H1   HT     0.417000        1.0080           0
   30891 WT2  1014 TIP3 H2   HT     0.417000        1.0080           0
   30892 WT2  1015 TIP3 OH2  OT    -0.834000       15.9994           0
   30893 WT2  1015 TIP3 H1   HT     0.417000        1.0080           0
   30894 WT2  1015 TIP3 H2   HT     0.417000        1.0080           0
   30895 WT2  1016 TIP3 OH2  OT    -0.834000       15.9994           0
   30896 WT2  1016 TIP3 H1   HT     0.417000        1.0080           0
   30897 WT2  1016 TIP3 H2   HT     0.417000        1.0080           0
   30898 WT2  1017 TIP3 OH2  OT    -0.834000       15.9994           0
   30899 WT2  1017 TIP3 H1   HT     0.417000        1.0080           0
   30900 WT2  1017 TIP3 H2   HT     0.417000        1.0080           0
   30901 WT2  1018 TIP3 OH2  OT    -0.834000       15.9994           0
   30902 WT2  1018 TIP3 H1   HT     0.417000        1.0080           0
   30903 WT2  1018 TIP3 H2   HT     0.417000        1.0080           0
   30904 WT2  1020 TIP3 OH2  OT    -0.834000       15.9994           0
   30905 WT2  1020 TIP3 H1   HT     0.417000        1.0080           0
   30906 WT2  1020 TIP3 H2   HT     0.417000        1.0080           0
   30907 WT2  1022 TIP3 OH2  OT    -0.834000       15.9994           0
   30908 WT2  1022 TIP3 H1   HT     0.417000        1.0080           0
   30909 WT2  1022 TIP3 H2   HT     0.417000        1.0080           0
   30910 WT2  1023 TIP3 OH2  OT    -0.834000       15.9994           0
   30911 WT2  1023 TIP3 H1   HT     0.417000        1.0080           0
   30912 WT2  1023 TIP3 H2   HT     0.417000        1.0080           0
   30913 WT2  1027 TIP3 OH2  OT    -0.834000       15.9994           0
   30914 WT2  1027 TIP3 H1   HT     0.417000        1.0080           0
   30915 WT2  1027 TIP3 H2   HT     0.417000        1.0080           0
   30916 WT2  1032 TIP3 OH2  OT    -0.834000       15.9994           0
   30917 WT2  1032 TIP3 H1   HT     0.417000        1.0080           0
   30918 WT2  1032 TIP3 H2   HT     0.417000        1.0080           0
   30919 WT2  1033 TIP3 OH2  OT    -0.834000       15.9994           0
   30920 WT2  1033 TIP3 H1   HT     0.417000        1.0080           0
   30921 WT2  1033 TIP3 H2   HT     0.417000        1.0080           0
   30922 WT2  1035 TIP3 OH2  OT    -0.834000       15.9994           0
   30923 WT2  1035 TIP3 H1   HT     0.417000        1.0080           0
   30924 WT2  1035 TIP3 H2   HT     0.417000        1.0080           0
   30925 WT2  1036 TIP3 OH2  OT    -0.834000       15.9994           0
   30926 WT2  1036 TIP3 H1   HT     0.417000        1.0080           0
   30927 WT2  1036 TIP3 H2   HT     0.417000        1.0080           0
   30928 WT2  1037 TIP3 OH2  OT    -0.834000       15.9994           0
   30929 WT2  1037 TIP3 H1   HT     0.417000        1.0080           0
   30930 WT2  1037 TIP3 H2   HT     0.417000        1.0080           0
   30931 WT2  1038 TIP3 OH2  OT    -0.834000       15.9994           0
   30932 WT2  1038 TIP3 H1   HT     0.417000        1.0080           0
   30933 WT2  1038 TIP3 H2   HT     0.417000        1.0080           0
   30934 WT2  1039 TIP3 OH2  OT    -0.834000       15.9994           0
   30935 WT2  1039 TIP3 H1   HT     0.417000        1.0080           0
   30936 WT2  1039 TIP3 H2   HT     0.417000        1.0080           0
   30937 WT2  1040 TIP3 OH2  OT    -0.834000       15.9994           0
   30938 WT2  1040 TIP3 H1   HT     0.417000        1.0080           0
   30939 WT2  1040 TIP3 H2   HT     0.417000        1.0080           0
   30940 WT2  1042 TIP3 OH2  OT    -0.834000       15.9994           0
   30941 WT2  1042 TIP3 H1   HT     0.417000        1.0080           0
   30942 WT2  1042 TIP3 H2   HT     0.417000        1.0080           0
   30943 WT2  1043 TIP3 OH2  OT    -0.834000       15.9994           0
   30944 WT2  1043 TIP3 H1   HT     0.417000        1.0080           0
   30945 WT2  1043 TIP3 H2   HT     0.417000        1.0080           0
   30946 WT2  1051 TIP3 OH2  OT    -0.834000       15.9994           0
   30947 WT2  1051 TIP3 H1   HT     0.417000        1.0080           0
   30948 WT2  1051 TIP3 H2   HT     0.417000        1.0080           0
   30949 WT2  1053 TIP3 OH2  OT    -0.834000       15.9994           0
   30950 WT2  1053 TIP3 H1   HT     0.417000        1.0080           0
   30951 WT2  1053 TIP3 H2   HT     0.417000        1.0080           0
   30952 WT2  1054 TIP3 OH2  OT    -0.834000       15.9994           0
   30953 WT2  1054 TIP3 H1   HT     0.417000        1.0080           0
   30954 WT2  1054 TIP3 H2   HT     0.417000        1.0080           0
   30955 WT2  1055 TIP3 OH2  OT    -0.834000       15.9994           0
   30956 WT2  1055 TIP3 H1   HT     0.417000        1.0080           0
   30957 WT2  1055 TIP3 H2   HT     0.417000        1.0080           0
   30958 WT2  1056 TIP3 OH2  OT    -0.834000       15.9994           0
   30959 WT2  1056 TIP3 H1   HT     0.417000        1.0080           0
   30960 WT2  1056 TIP3 H2   HT     0.417000        1.0080           0
   30961 WT2  1057 TIP3 OH2  OT    -0.834000       15.9994           0
   30962 WT2  1057 TIP3 H1   HT     0.417000        1.0080           0
   30963 WT2  1057 TIP3 H2   HT     0.417000        1.0080           0
   30964 WT2  1058 TIP3 OH2  OT    -0.834000       15.9994           0
   30965 WT2  1058 TIP3 H1   HT     0.417000        1.0080           0
   30966 WT2  1058 TIP3 H2   HT     0.417000        1.0080           0
   30967 WT2  1059 TIP3 OH2  OT    -0.834000       15.9994           0
   30968 WT2  1059 TIP3 H1   HT     0.417000        1.0080           0
   30969 WT2  1059 TIP3 H2   HT     0.417000        1.0080           0
   30970 WT2  1060 TIP3 OH2  OT    -0.834000       15.9994           0
   30971 WT2  1060 TIP3 H1   HT     0.417000        1.0080           0
   30972 WT2  1060 TIP3 H2   HT     0.417000        1.0080           0
   30973 WT2  1061 TIP3 OH2  OT    -0.834000       15.9994           0
   30974 WT2  1061 TIP3 H1   HT     0.417000        1.0080           0
   30975 WT2  1061 TIP3 H2   HT     0.417000        1.0080           0
   30976 WT2  1062 TIP3 OH2  OT    -0.834000       15.9994           0
   30977 WT2  1062 TIP3 H1   HT     0.417000        1.0080           0
   30978 WT2  1062 TIP3 H2   HT     0.417000        1.0080           0
   30979 WT2  1063 TIP3 OH2  OT    -0.834000       15.9994           0
   30980 WT2  1063 TIP3 H1   HT     0.417000        1.0080           0
   30981 WT2  1063 TIP3 H2   HT     0.417000        1.0080           0
   30982 WT2  1065 TIP3 OH2  OT    -0.834000       15.9994           0
   30983 WT2  1065 TIP3 H1   HT     0.417000        1.0080           0
   30984 WT2  1065 TIP3 H2   HT     0.417000        1.0080           0
   30985 WT2  1066 TIP3 OH2  OT    -0.834000       15.9994           0
   30986 WT2  1066 TIP3 H1   HT     0.417000        1.0080           0
   30987 WT2  1066 TIP3 H2   HT     0.417000        1.0080           0
   30988 WT2  1072 TIP3 OH2  OT    -0.834000       15.9994           0
   30989 WT2  1072 TIP3 H1   HT     0.417000        1.0080           0
   30990 WT2  1072 TIP3 H2   HT     0.417000        1.0080           0
   30991 WT2  1075 TIP3 OH2  OT    -0.834000       15.9994           0
   30992 WT2  1075 TIP3 H1   HT     0.417000        1.0080           0
   30993 WT2  1075 TIP3 H2   HT     0.417000        1.0080           0
   30994 WT2  1076 TIP3 OH2  OT    -0.834000       15.9994           0
   30995 WT2  1076 TIP3 H1   HT     0.417000        1.0080           0
   30996 WT2  1076 TIP3 H2   HT     0.417000        1.0080           0
   30997 WT2  1077 TIP3 OH2  OT    -0.834000       15.9994           0
   30998 WT2  1077 TIP3 H1   HT     0.417000        1.0080           0
   30999 WT2  1077 TIP3 H2   HT     0.417000        1.0080           0
   31000 WT2  1078 TIP3 OH2  OT    -0.834000       15.9994           0
   31001 WT2  1078 TIP3 H1   HT     0.417000        1.0080           0
   31002 WT2  1078 TIP3 H2   HT     0.417000        1.0080           0
   31003 WT2  1079 TIP3 OH2  OT    -0.834000       15.9994           0
   31004 WT2  1079 TIP3 H1   HT     0.417000        1.0080           0
   31005 WT2  1079 TIP3 H2   HT     0.417000        1.0080           0
   31006 WT2  1080 TIP3 OH2  OT    -0.834000       15.9994           0
   31007 WT2  1080 TIP3 H1   HT     0.417000        1.0080           0
   31008 WT2  1080 TIP3 H2   HT     0.417000        1.0080           0
   31009 WT2  1081 TIP3 OH2  OT    -0.834000       15.9994           0
   31010 WT2  1081 TIP3 H1   HT     0.417000        1.0080           0
   31011 WT2  1081 TIP3 H2   HT     0.417000        1.0080           0
   31012 WT2  1082 TIP3 OH2  OT    -0.834000       15.9994           0
   31013 WT2  1082 TIP3 H1   HT     0.417000        1.0080           0
   31014 WT2  1082 TIP3 H2   HT     0.417000        1.0080           0
   31015 WT2  1083 TIP3 OH2  OT    -0.834000       15.9994           0
   31016 WT2  1083 TIP3 H1   HT     0.417000        1.0080           0
   31017 WT2  1083 TIP3 H2   HT     0.417000        1.0080           0
   31018 WT2  1085 TIP3 OH2  OT    -0.834000       15.9994           0
   31019 WT2  1085 TIP3 H1   HT     0.417000        1.0080           0
   31020 WT2  1085 TIP3 H2   HT     0.417000        1.0080           0
   31021 WT2  1090 TIP3 OH2  OT    -0.834000       15.9994           0
   31022 WT2  1090 TIP3 H1   HT     0.417000        1.0080           0
   31023 WT2  1090 TIP3 H2   HT     0.417000        1.0080           0
   31024 WT2  1092 TIP3 OH2  OT    -0.834000       15.9994           0
   31025 WT2  1092 TIP3 H1   HT     0.417000        1.0080           0
   31026 WT2  1092 TIP3 H2   HT     0.417000        1.0080           0
   31027 WT2  1094 TIP3 OH2  OT    -0.834000       15.9994           0
   31028 WT2  1094 TIP3 H1   HT     0.417000        1.0080           0
   31029 WT2  1094 TIP3 H2   HT     0.417000        1.0080           0
   31030 WT2  1096 TIP3 OH2  OT    -0.834000       15.9994           0
   31031 WT2  1096 TIP3 H1   HT     0.417000        1.0080           0
   31032 WT2  1096 TIP3 H2   HT     0.417000        1.0080           0
   31033 WT2  1097 TIP3 OH2  OT    -0.834000       15.9994           0
   31034 WT2  1097 TIP3 H1   HT     0.417000        1.0080           0
   31035 WT2  1097 TIP3 H2   HT     0.417000        1.0080           0
   31036 WT2  1098 TIP3 OH2  OT    -0.834000       15.9994           0
   31037 WT2  1098 TIP3 H1   HT     0.417000        1.0080           0
   31038 WT2  1098 TIP3 H2   HT     0.417000        1.0080           0
   31039 WT2  1099 TIP3 OH2  OT    -0.834000       15.9994           0
   31040 WT2  1099 TIP3 H1   HT     0.417000        1.0080           0
   31041 WT2  1099 TIP3 H2   HT     0.417000        1.0080           0
   31042 WT2  1100 TIP3 OH2  OT    -0.834000       15.9994           0
   31043 WT2  1100 TIP3 H1   HT     0.417000        1.0080           0
   31044 WT2  1100 TIP3 H2   HT     0.417000        1.0080           0
   31045 WT2  1101 TIP3 OH2  OT    -0.834000       15.9994           0
   31046 WT2  1101 TIP3 H1   HT     0.417000        1.0080           0
   31047 WT2  1101 TIP3 H2   HT     0.417000        1.0080           0
   31048 WT2  1102 TIP3 OH2  OT    -0.834000       15.9994           0
   31049 WT2  1102 TIP3 H1   HT     0.417000        1.0080           0
   31050 WT2  1102 TIP3 H2   HT     0.417000        1.0080           0
   31051 WT2  1103 TIP3 OH2  OT    -0.834000       15.9994           0
   31052 WT2  1103 TIP3 H1   HT     0.417000        1.0080           0
   31053 WT2  1103 TIP3 H2   HT     0.417000        1.0080           0
   31054 WT2  1104 TIP3 OH2  OT    -0.834000       15.9994           0
   31055 WT2  1104 TIP3 H1   HT     0.417000        1.0080           0
   31056 WT2  1104 TIP3 H2   HT     0.417000        1.0080           0
   31057 WT2  1105 TIP3 OH2  OT    -0.834000       15.9994           0
   31058 WT2  1105 TIP3 H1   HT     0.417000        1.0080           0
   31059 WT2  1105 TIP3 H2   HT     0.417000        1.0080           0
   31060 WT2  1106 TIP3 OH2  OT    -0.834000       15.9994           0
   31061 WT2  1106 TIP3 H1   HT     0.417000        1.0080           0
   31062 WT2  1106 TIP3 H2   HT     0.417000        1.0080           0
   31063 WT2  1107 TIP3 OH2  OT    -0.834000       15.9994           0
   31064 WT2  1107 TIP3 H1   HT     0.417000        1.0080           0
   31065 WT2  1107 TIP3 H2   HT     0.417000        1.0080           0
   31066 WT2  1112 TIP3 OH2  OT    -0.834000       15.9994           0
   31067 WT2  1112 TIP3 H1   HT     0.417000        1.0080           0
   31068 WT2  1112 TIP3 H2   HT     0.417000        1.0080           0
   31069 WT2  1113 TIP3 OH2  OT    -0.834000       15.9994           0
   31070 WT2  1113 TIP3 H1   HT     0.417000        1.0080           0
   31071 WT2  1113 TIP3 H2   HT     0.417000        1.0080           0
   31072 WT2  1115 TIP3 OH2  OT    -0.834000       15.9994           0
   31073 WT2  1115 TIP3 H1   HT     0.417000        1.0080           0
   31074 WT2  1115 TIP3 H2   HT     0.417000        1.0080           0
   31075 WT2  1116 TIP3 OH2  OT    -0.834000       15.9994           0
   31076 WT2  1116 TIP3 H1   HT     0.417000        1.0080           0
   31077 WT2  1116 TIP3 H2   HT     0.417000        1.0080           0
   31078 WT2  1117 TIP3 OH2  OT    -0.834000       15.9994           0
   31079 WT2  1117 TIP3 H1   HT     0.417000        1.0080           0
   31080 WT2  1117 TIP3 H2   HT     0.417000        1.0080           0
   31081 WT2  1118 TIP3 OH2  OT    -0.834000       15.9994           0
   31082 WT2  1118 TIP3 H1   HT     0.417000        1.0080           0
   31083 WT2  1118 TIP3 H2   HT     0.417000        1.0080           0
   31084 WT2  1119 TIP3 OH2  OT    -0.834000       15.9994           0
   31085 WT2  1119 TIP3 H1   HT     0.417000        1.0080           0
   31086 WT2  1119 TIP3 H2   HT     0.417000        1.0080           0
   31087 WT2  1120 TIP3 OH2  OT    -0.834000       15.9994           0
   31088 WT2  1120 TIP3 H1   HT     0.417000        1.0080           0
   31089 WT2  1120 TIP3 H2   HT     0.417000        1.0080           0
   31090 WT2  1121 TIP3 OH2  OT    -0.834000       15.9994           0
   31091 WT2  1121 TIP3 H1   HT     0.417000        1.0080           0
   31092 WT2  1121 TIP3 H2   HT     0.417000        1.0080           0
   31093 WT2  1122 TIP3 OH2  OT    -0.834000       15.9994           0
   31094 WT2  1122 TIP3 H1   HT     0.417000        1.0080           0
   31095 WT2  1122 TIP3 H2   HT     0.417000        1.0080           0
   31096 WT2  1123 TIP3 OH2  OT    -0.834000       15.9994           0
   31097 WT2  1123 TIP3 H1   HT     0.417000        1.0080           0
   31098 WT2  1123 TIP3 H2   HT     0.417000        1.0080           0
   31099 WT2  1125 TIP3 OH2  OT    -0.834000       15.9994           0
   31100 WT2  1125 TIP3 H1   HT     0.417000        1.0080           0
   31101 WT2  1125 TIP3 H2   HT     0.417000        1.0080           0
   31102 WT2  1126 TIP3 OH2  OT    -0.834000       15.9994           0
   31103 WT2  1126 TIP3 H1   HT     0.417000        1.0080           0
   31104 WT2  1126 TIP3 H2   HT     0.417000        1.0080           0
   31105 WT2  1128 TIP3 OH2  OT    -0.834000       15.9994           0
   31106 WT2  1128 TIP3 H1   HT     0.417000        1.0080           0
   31107 WT2  1128 TIP3 H2   HT     0.417000        1.0080           0
   31108 WT2  1134 TIP3 OH2  OT    -0.834000       15.9994           0
   31109 WT2  1134 TIP3 H1   HT     0.417000        1.0080           0
   31110 WT2  1134 TIP3 H2   HT     0.417000        1.0080           0
   31111 WT2  1135 TIP3 OH2  OT    -0.834000       15.9994           0
   31112 WT2  1135 TIP3 H1   HT     0.417000        1.0080           0
   31113 WT2  1135 TIP3 H2   HT     0.417000        1.0080           0
   31114 WT2  1137 TIP3 OH2  OT    -0.834000       15.9994           0
   31115 WT2  1137 TIP3 H1   HT     0.417000        1.0080           0
   31116 WT2  1137 TIP3 H2   HT     0.417000        1.0080           0
   31117 WT2  1139 TIP3 OH2  OT    -0.834000       15.9994           0
   31118 WT2  1139 TIP3 H1   HT     0.417000        1.0080           0
   31119 WT2  1139 TIP3 H2   HT     0.417000        1.0080           0
   31120 WT2  1140 TIP3 OH2  OT    -0.834000       15.9994           0
   31121 WT2  1140 TIP3 H1   HT     0.417000        1.0080           0
   31122 WT2  1140 TIP3 H2   HT     0.417000        1.0080           0
   31123 WT2  1141 TIP3 OH2  OT    -0.834000       15.9994           0
   31124 WT2  1141 TIP3 H1   HT     0.417000        1.0080           0
   31125 WT2  1141 TIP3 H2   HT     0.417000        1.0080           0
   31126 WT2  1142 TIP3 OH2  OT    -0.834000       15.9994           0
   31127 WT2  1142 TIP3 H1   HT     0.417000        1.0080           0
   31128 WT2  1142 TIP3 H2   HT     0.417000        1.0080           0
   31129 WT2  1143 TIP3 OH2  OT    -0.834000       15.9994           0
   31130 WT2  1143 TIP3 H1   HT     0.417000        1.0080           0
   31131 WT2  1143 TIP3 H2   HT     0.417000        1.0080           0
   31132 WT2  1144 TIP3 OH2  OT    -0.834000       15.9994           0
   31133 WT2  1144 TIP3 H1   HT     0.417000        1.0080           0
   31134 WT2  1144 TIP3 H2   HT     0.417000        1.0080           0
   31135 WT2  1145 TIP3 OH2  OT    -0.834000       15.9994           0
   31136 WT2  1145 TIP3 H1   HT     0.417000        1.0080           0
   31137 WT2  1145 TIP3 H2   HT     0.417000        1.0080           0
   31138 WT2  1146 TIP3 OH2  OT    -0.834000       15.9994           0
   31139 WT2  1146 TIP3 H1   HT     0.417000        1.0080           0
   31140 WT2  1146 TIP3 H2   HT     0.417000        1.0080           0
   31141 WT2  1147 TIP3 OH2  OT    -0.834000       15.9994           0
   31142 WT2  1147 TIP3 H1   HT     0.417000        1.0080           0
   31143 WT2  1147 TIP3 H2   HT     0.417000        1.0080           0
   31144 WT2  1148 TIP3 OH2  OT    -0.834000       15.9994           0
   31145 WT2  1148 TIP3 H1   HT     0.417000        1.0080           0
   31146 WT2  1148 TIP3 H2   HT     0.417000        1.0080           0
   31147 WT2  1150 TIP3 OH2  OT    -0.834000       15.9994           0
   31148 WT2  1150 TIP3 H1   HT     0.417000        1.0080           0
   31149 WT2  1150 TIP3 H2   HT     0.417000        1.0080           0
   31150 WT2  1155 TIP3 OH2  OT    -0.834000       15.9994           0
   31151 WT2  1155 TIP3 H1   HT     0.417000        1.0080           0
   31152 WT2  1155 TIP3 H2   HT     0.417000        1.0080           0
   31153 WT2  1157 TIP3 OH2  OT    -0.834000       15.9994           0
   31154 WT2  1157 TIP3 H1   HT     0.417000        1.0080           0
   31155 WT2  1157 TIP3 H2   HT     0.417000        1.0080           0
   31156 WT2  1158 TIP3 OH2  OT    -0.834000       15.9994           0
   31157 WT2  1158 TIP3 H1   HT     0.417000        1.0080           0
   31158 WT2  1158 TIP3 H2   HT     0.417000        1.0080           0
   31159 WT2  1159 TIP3 OH2  OT    -0.834000       15.9994           0
   31160 WT2  1159 TIP3 H1   HT     0.417000        1.0080           0
   31161 WT2  1159 TIP3 H2   HT     0.417000        1.0080           0
   31162 WT2  1160 TIP3 OH2  OT    -0.834000       15.9994           0
   31163 WT2  1160 TIP3 H1   HT     0.417000        1.0080           0
   31164 WT2  1160 TIP3 H2   HT     0.417000        1.0080           0
   31165 WT2  1161 TIP3 OH2  OT    -0.834000       15.9994           0
   31166 WT2  1161 TIP3 H1   HT     0.417000        1.0080           0
   31167 WT2  1161 TIP3 H2   HT     0.417000        1.0080           0
   31168 WT2  1162 TIP3 OH2  OT    -0.834000       15.9994           0
   31169 WT2  1162 TIP3 H1   HT     0.417000        1.0080           0
   31170 WT2  1162 TIP3 H2   HT     0.417000        1.0080           0
   31171 WT2  1163 TIP3 OH2  OT    -0.834000       15.9994           0
   31172 WT2  1163 TIP3 H1   HT     0.417000        1.0080           0
   31173 WT2  1163 TIP3 H2   HT     0.417000        1.0080           0
   31174 WT2  1164 TIP3 OH2  OT    -0.834000       15.9994           0
   31175 WT2  1164 TIP3 H1   HT     0.417000        1.0080           0
   31176 WT2  1164 TIP3 H2   HT     0.417000        1.0080           0
   31177 WT2  1165 TIP3 OH2  OT    -0.834000       15.9994           0
   31178 WT2  1165 TIP3 H1   HT     0.417000        1.0080           0
   31179 WT2  1165 TIP3 H2   HT     0.417000        1.0080           0
   31180 WT2  1166 TIP3 OH2  OT    -0.834000       15.9994           0
   31181 WT2  1166 TIP3 H1   HT     0.417000        1.0080           0
   31182 WT2  1166 TIP3 H2   HT     0.417000        1.0080           0
   31183 WT2  1167 TIP3 OH2  OT    -0.834000       15.9994           0
   31184 WT2  1167 TIP3 H1   HT     0.417000        1.0080           0
   31185 WT2  1167 TIP3 H2   HT     0.417000        1.0080           0
   31186 WT2  1177 TIP3 OH2  OT    -0.834000       15.9994           0
   31187 WT2  1177 TIP3 H1   HT     0.417000        1.0080           0
   31188 WT2  1177 TIP3 H2   HT     0.417000        1.0080           0
   31189 WT2  1178 TIP3 OH2  OT    -0.834000       15.9994           0
   31190 WT2  1178 TIP3 H1   HT     0.417000        1.0080           0
   31191 WT2  1178 TIP3 H2   HT     0.417000        1.0080           0
   31192 WT2  1179 TIP3 OH2  OT    -0.834000       15.9994           0
   31193 WT2  1179 TIP3 H1   HT     0.417000        1.0080           0
   31194 WT2  1179 TIP3 H2   HT     0.417000        1.0080           0
   31195 WT2  1180 TIP3 OH2  OT    -0.834000       15.9994           0
   31196 WT2  1180 TIP3 H1   HT     0.417000        1.0080           0
   31197 WT2  1180 TIP3 H2   HT     0.417000        1.0080           0
   31198 WT2  1182 TIP3 OH2  OT    -0.834000       15.9994           0
   31199 WT2  1182 TIP3 H1   HT     0.417000        1.0080           0
   31200 WT2  1182 TIP3 H2   HT     0.417000        1.0080           0
   31201 WT2  1183 TIP3 OH2  OT    -0.834000       15.9994           0
   31202 WT2  1183 TIP3 H1   HT     0.417000        1.0080           0
   31203 WT2  1183 TIP3 H2   HT     0.417000        1.0080           0
   31204 WT2  1184 TIP3 OH2  OT    -0.834000       15.9994           0
   31205 WT2  1184 TIP3 H1   HT     0.417000        1.0080           0
   31206 WT2  1184 TIP3 H2   HT     0.417000        1.0080           0
   31207 WT2  1185 TIP3 OH2  OT    -0.834000       15.9994           0
   31208 WT2  1185 TIP3 H1   HT     0.417000        1.0080           0
   31209 WT2  1185 TIP3 H2   HT     0.417000        1.0080           0
   31210 WT2  1186 TIP3 OH2  OT    -0.834000       15.9994           0
   31211 WT2  1186 TIP3 H1   HT     0.417000        1.0080           0
   31212 WT2  1186 TIP3 H2   HT     0.417000        1.0080           0
   31213 WT2  1187 TIP3 OH2  OT    -0.834000       15.9994           0
   31214 WT2  1187 TIP3 H1   HT     0.417000        1.0080           0
   31215 WT2  1187 TIP3 H2   HT     0.417000        1.0080           0
   31216 WT2  1188 TIP3 OH2  OT    -0.834000       15.9994           0
   31217 WT2  1188 TIP3 H1   HT     0.417000        1.0080           0
   31218 WT2  1188 TIP3 H2   HT     0.417000        1.0080           0
   31219 WT2  1189 TIP3 OH2  OT    -0.834000       15.9994           0
   31220 WT2  1189 TIP3 H1   HT     0.417000        1.0080           0
   31221 WT2  1189 TIP3 H2   HT     0.417000        1.0080           0
   31222 WT2  1190 TIP3 OH2  OT    -0.834000       15.9994           0
   31223 WT2  1190 TIP3 H1   HT     0.417000        1.0080           0
   31224 WT2  1190 TIP3 H2   HT     0.417000        1.0080           0
   31225 WT2  1194 TIP3 OH2  OT    -0.834000       15.9994           0
   31226 WT2  1194 TIP3 H1   HT     0.417000        1.0080           0
   31227 WT2  1194 TIP3 H2   HT     0.417000        1.0080           0
   31228 WT2  1197 TIP3 OH2  OT    -0.834000       15.9994           0
   31229 WT2  1197 TIP3 H1   HT     0.417000        1.0080           0
   31230 WT2  1197 TIP3 H2   HT     0.417000        1.0080           0
   31231 WT2  1200 TIP3 OH2  OT    -0.834000       15.9994           0
   31232 WT2  1200 TIP3 H1   HT     0.417000        1.0080           0
   31233 WT2  1200 TIP3 H2   HT     0.417000        1.0080           0
   31234 WT2  1201 TIP3 OH2  OT    -0.834000       15.9994           0
   31235 WT2  1201 TIP3 H1   HT     0.417000        1.0080           0
   31236 WT2  1201 TIP3 H2   HT     0.417000        1.0080           0
   31237 WT2  1202 TIP3 OH2  OT    -0.834000       15.9994           0
   31238 WT2  1202 TIP3 H1   HT     0.417000        1.0080           0
   31239 WT2  1202 TIP3 H2   HT     0.417000        1.0080           0
   31240 WT2  1203 TIP3 OH2  OT    -0.834000       15.9994           0
   31241 WT2  1203 TIP3 H1   HT     0.417000        1.0080           0
   31242 WT2  1203 TIP3 H2   HT     0.417000        1.0080           0
   31243 WT2  1204 TIP3 OH2  OT    -0.834000       15.9994           0
   31244 WT2  1204 TIP3 H1   HT     0.417000        1.0080           0
   31245 WT2  1204 TIP3 H2   HT     0.417000        1.0080           0
   31246 WT2  1205 TIP3 OH2  OT    -0.834000       15.9994           0
   31247 WT2  1205 TIP3 H1   HT     0.417000        1.0080           0
   31248 WT2  1205 TIP3 H2   HT     0.417000        1.0080           0
   31249 WT2  1206 TIP3 OH2  OT    -0.834000       15.9994           0
   31250 WT2  1206 TIP3 H1   HT     0.417000        1.0080           0
   31251 WT2  1206 TIP3 H2   HT     0.417000        1.0080           0
   31252 WT2  1207 TIP3 OH2  OT    -0.834000       15.9994           0
   31253 WT2  1207 TIP3 H1   HT     0.417000        1.0080           0
   31254 WT2  1207 TIP3 H2   HT     0.417000        1.0080           0
   31255 WT2  1208 TIP3 OH2  OT    -0.834000       15.9994           0
   31256 WT2  1208 TIP3 H1   HT     0.417000        1.0080           0
   31257 WT2  1208 TIP3 H2   HT     0.417000        1.0080           0
   31258 WT2  1211 TIP3 OH2  OT    -0.834000       15.9994           0
   31259 WT2  1211 TIP3 H1   HT     0.417000        1.0080           0
   31260 WT2  1211 TIP3 H2   HT     0.417000        1.0080           0
   31261 WT2  1212 TIP3 OH2  OT    -0.834000       15.9994           0
   31262 WT2  1212 TIP3 H1   HT     0.417000        1.0080           0
   31263 WT2  1212 TIP3 H2   HT     0.417000        1.0080           0
   31264 WT2  1214 TIP3 OH2  OT    -0.834000       15.9994           0
   31265 WT2  1214 TIP3 H1   HT     0.417000        1.0080           0
   31266 WT2  1214 TIP3 H2   HT     0.417000        1.0080           0
   31267 WT2  1215 TIP3 OH2  OT    -0.834000       15.9994           0
   31268 WT2  1215 TIP3 H1   HT     0.417000        1.0080           0
   31269 WT2  1215 TIP3 H2   HT     0.417000        1.0080           0
   31270 WT2  1217 TIP3 OH2  OT    -0.834000       15.9994           0
   31271 WT2  1217 TIP3 H1   HT     0.417000        1.0080           0
   31272 WT2  1217 TIP3 H2   HT     0.417000        1.0080           0
   31273 WT2  1219 TIP3 OH2  OT    -0.834000       15.9994           0
   31274 WT2  1219 TIP3 H1   HT     0.417000        1.0080           0
   31275 WT2  1219 TIP3 H2   HT     0.417000        1.0080           0
   31276 WT2  1220 TIP3 OH2  OT    -0.834000       15.9994           0
   31277 WT2  1220 TIP3 H1   HT     0.417000        1.0080           0
   31278 WT2  1220 TIP3 H2   HT     0.417000        1.0080           0
   31279 WT2  1222 TIP3 OH2  OT    -0.834000       15.9994           0
   31280 WT2  1222 TIP3 H1   HT     0.417000        1.0080           0
   31281 WT2  1222 TIP3 H2   HT     0.417000        1.0080           0
   31282 WT2  1223 TIP3 OH2  OT    -0.834000       15.9994           0
   31283 WT2  1223 TIP3 H1   HT     0.417000        1.0080           0
   31284 WT2  1223 TIP3 H2   HT     0.417000        1.0080           0
   31285 WT2  1224 TIP3 OH2  OT    -0.834000       15.9994           0
   31286 WT2  1224 TIP3 H1   HT     0.417000        1.0080           0
   31287 WT2  1224 TIP3 H2   HT     0.417000        1.0080           0
   31288 WT2  1225 TIP3 OH2  OT    -0.834000       15.9994           0
   31289 WT2  1225 TIP3 H1   HT     0.417000        1.0080           0
   31290 WT2  1225 TIP3 H2   HT     0.417000        1.0080           0
   31291 WT2  1226 TIP3 OH2  OT    -0.834000       15.9994           0
   31292 WT2  1226 TIP3 H1   HT     0.417000        1.0080           0
   31293 WT2  1226 TIP3 H2   HT     0.417000        1.0080           0
   31294 WT2  1227 TIP3 OH2  OT    -0.834000       15.9994           0
   31295 WT2  1227 TIP3 H1   HT     0.417000        1.0080           0
   31296 WT2  1227 TIP3 H2   HT     0.417000        1.0080           0
   31297 WT2  1228 TIP3 OH2  OT    -0.834000       15.9994           0
   31298 WT2  1228 TIP3 H1   HT     0.417000        1.0080           0
   31299 WT2  1228 TIP3 H2   HT     0.417000        1.0080           0
   31300 WT2  1229 TIP3 OH2  OT    -0.834000       15.9994           0
   31301 WT2  1229 TIP3 H1   HT     0.417000        1.0080           0
   31302 WT2  1229 TIP3 H2   HT     0.417000        1.0080           0
   31303 WT2  1230 TIP3 OH2  OT    -0.834000       15.9994           0
   31304 WT2  1230 TIP3 H1   HT     0.417000        1.0080           0
   31305 WT2  1230 TIP3 H2   HT     0.417000        1.0080           0
   31306 WT2  1233 TIP3 OH2  OT    -0.834000       15.9994           0
   31307 WT2  1233 TIP3 H1   HT     0.417000        1.0080           0
   31308 WT2  1233 TIP3 H2   HT     0.417000        1.0080           0
   31309 WT2  1240 TIP3 OH2  OT    -0.834000       15.9994           0
   31310 WT2  1240 TIP3 H1   HT     0.417000        1.0080           0
   31311 WT2  1240 TIP3 H2   HT     0.417000        1.0080           0
   31312 WT2  1241 TIP3 OH2  OT    -0.834000       15.9994           0
   31313 WT2  1241 TIP3 H1   HT     0.417000        1.0080           0
   31314 WT2  1241 TIP3 H2   HT     0.417000        1.0080           0
   31315 WT2  1242 TIP3 OH2  OT    -0.834000       15.9994           0
   31316 WT2  1242 TIP3 H1   HT     0.417000        1.0080           0
   31317 WT2  1242 TIP3 H2   HT     0.417000        1.0080           0
   31318 WT2  1243 TIP3 OH2  OT    -0.834000       15.9994           0
   31319 WT2  1243 TIP3 H1   HT     0.417000        1.0080           0
   31320 WT2  1243 TIP3 H2   HT     0.417000        1.0080           0
   31321 WT2  1244 TIP3 OH2  OT    -0.834000       15.9994           0
   31322 WT2  1244 TIP3 H1   HT     0.417000        1.0080           0
   31323 WT2  1244 TIP3 H2   HT     0.417000        1.0080           0
   31324 WT2  1246 TIP3 OH2  OT    -0.834000       15.9994           0
   31325 WT2  1246 TIP3 H1   HT     0.417000        1.0080           0
   31326 WT2  1246 TIP3 H2   HT     0.417000        1.0080           0
   31327 WT2  1247 TIP3 OH2  OT    -0.834000       15.9994           0
   31328 WT2  1247 TIP3 H1   HT     0.417000        1.0080           0
   31329 WT2  1247 TIP3 H2   HT     0.417000        1.0080           0
   31330 WT2  1248 TIP3 OH2  OT    -0.834000       15.9994           0
   31331 WT2  1248 TIP3 H1   HT     0.417000        1.0080           0
   31332 WT2  1248 TIP3 H2   HT     0.417000        1.0080           0
   31333 WT2  1249 TIP3 OH2  OT    -0.834000       15.9994           0
   31334 WT2  1249 TIP3 H1   HT     0.417000        1.0080           0
   31335 WT2  1249 TIP3 H2   HT     0.417000        1.0080           0
   31336 WT2  1250 TIP3 OH2  OT    -0.834000       15.9994           0
   31337 WT2  1250 TIP3 H1   HT     0.417000        1.0080           0
   31338 WT2  1250 TIP3 H2   HT     0.417000        1.0080           0
   31339 WT2  1251 TIP3 OH2  OT    -0.834000       15.9994           0
   31340 WT2  1251 TIP3 H1   HT     0.417000        1.0080           0
   31341 WT2  1251 TIP3 H2   HT     0.417000        1.0080           0
   31342 WT2  1256 TIP3 OH2  OT    -0.834000       15.9994           0
   31343 WT2  1256 TIP3 H1   HT     0.417000        1.0080           0
   31344 WT2  1256 TIP3 H2   HT     0.417000        1.0080           0
   31345 WT2  1258 TIP3 OH2  OT    -0.834000       15.9994           0
   31346 WT2  1258 TIP3 H1   HT     0.417000        1.0080           0
   31347 WT2  1258 TIP3 H2   HT     0.417000        1.0080           0
   31348 WT2  1263 TIP3 OH2  OT    -0.834000       15.9994           0
   31349 WT2  1263 TIP3 H1   HT     0.417000        1.0080           0
   31350 WT2  1263 TIP3 H2   HT     0.417000        1.0080           0
   31351 WT2  1265 TIP3 OH2  OT    -0.834000       15.9994           0
   31352 WT2  1265 TIP3 H1   HT     0.417000        1.0080           0
   31353 WT2  1265 TIP3 H2   HT     0.417000        1.0080           0
   31354 WT2  1266 TIP3 OH2  OT    -0.834000       15.9994           0
   31355 WT2  1266 TIP3 H1   HT     0.417000        1.0080           0
   31356 WT2  1266 TIP3 H2   HT     0.417000        1.0080           0
   31357 WT2  1267 TIP3 OH2  OT    -0.834000       15.9994           0
   31358 WT2  1267 TIP3 H1   HT     0.417000        1.0080           0
   31359 WT2  1267 TIP3 H2   HT     0.417000        1.0080           0
   31360 WT2  1268 TIP3 OH2  OT    -0.834000       15.9994           0
   31361 WT2  1268 TIP3 H1   HT     0.417000        1.0080           0
   31362 WT2  1268 TIP3 H2   HT     0.417000        1.0080           0
   31363 WT2  1269 TIP3 OH2  OT    -0.834000       15.9994           0
   31364 WT2  1269 TIP3 H1   HT     0.417000        1.0080           0
   31365 WT2  1269 TIP3 H2   HT     0.417000        1.0080           0
   31366 WT2  1270 TIP3 OH2  OT    -0.834000       15.9994           0
   31367 WT2  1270 TIP3 H1   HT     0.417000        1.0080           0
   31368 WT2  1270 TIP3 H2   HT     0.417000        1.0080           0
   31369 WT2  1271 TIP3 OH2  OT    -0.834000       15.9994           0
   31370 WT2  1271 TIP3 H1   HT     0.417000        1.0080           0
   31371 WT2  1271 TIP3 H2   HT     0.417000        1.0080           0
   31372 WT2  1272 TIP3 OH2  OT    -0.834000       15.9994           0
   31373 WT2  1272 TIP3 H1   HT     0.417000        1.0080           0
   31374 WT2  1272 TIP3 H2   HT     0.417000        1.0080           0
   31375 WT2  1274 TIP3 OH2  OT    -0.834000       15.9994           0
   31376 WT2  1274 TIP3 H1   HT     0.417000        1.0080           0
   31377 WT2  1274 TIP3 H2   HT     0.417000        1.0080           0
   31378 WT2  1276 TIP3 OH2  OT    -0.834000       15.9994           0
   31379 WT2  1276 TIP3 H1   HT     0.417000        1.0080           0
   31380 WT2  1276 TIP3 H2   HT     0.417000        1.0080           0
   31381 WT2  1278 TIP3 OH2  OT    -0.834000       15.9994           0
   31382 WT2  1278 TIP3 H1   HT     0.417000        1.0080           0
   31383 WT2  1278 TIP3 H2   HT     0.417000        1.0080           0
   31384 WT2  1281 TIP3 OH2  OT    -0.834000       15.9994           0
   31385 WT2  1281 TIP3 H1   HT     0.417000        1.0080           0
   31386 WT2  1281 TIP3 H2   HT     0.417000        1.0080           0
   31387 WT2  1283 TIP3 OH2  OT    -0.834000       15.9994           0
   31388 WT2  1283 TIP3 H1   HT     0.417000        1.0080           0
   31389 WT2  1283 TIP3 H2   HT     0.417000        1.0080           0
   31390 WT2  1284 TIP3 OH2  OT    -0.834000       15.9994           0
   31391 WT2  1284 TIP3 H1   HT     0.417000        1.0080           0
   31392 WT2  1284 TIP3 H2   HT     0.417000        1.0080           0
   31393 WT2  1285 TIP3 OH2  OT    -0.834000       15.9994           0
   31394 WT2  1285 TIP3 H1   HT     0.417000        1.0080           0
   31395 WT2  1285 TIP3 H2   HT     0.417000        1.0080           0
   31396 WT2  1286 TIP3 OH2  OT    -0.834000       15.9994           0
   31397 WT2  1286 TIP3 H1   HT     0.417000        1.0080           0
   31398 WT2  1286 TIP3 H2   HT     0.417000        1.0080           0
   31399 WT2  1287 TIP3 OH2  OT    -0.834000       15.9994           0
   31400 WT2  1287 TIP3 H1   HT     0.417000        1.0080           0
   31401 WT2  1287 TIP3 H2   HT     0.417000        1.0080           0
   31402 WT2  1288 TIP3 OH2  OT    -0.834000       15.9994           0
   31403 WT2  1288 TIP3 H1   HT     0.417000        1.0080           0
   31404 WT2  1288 TIP3 H2   HT     0.417000        1.0080           0
   31405 WT2  1289 TIP3 OH2  OT    -0.834000       15.9994           0
   31406 WT2  1289 TIP3 H1   HT     0.417000        1.0080           0
   31407 WT2  1289 TIP3 H2   HT     0.417000        1.0080           0
   31408 WT2  1290 TIP3 OH2  OT    -0.834000       15.9994           0
   31409 WT2  1290 TIP3 H1   HT     0.417000        1.0080           0
   31410 WT2  1290 TIP3 H2   HT     0.417000        1.0080           0
   31411 WT2  1291 TIP3 OH2  OT    -0.834000       15.9994           0
   31412 WT2  1291 TIP3 H1   HT     0.417000        1.0080           0
   31413 WT2  1291 TIP3 H2   HT     0.417000        1.0080           0
   31414 WT2  1292 TIP3 OH2  OT    -0.834000       15.9994           0
   31415 WT2  1292 TIP3 H1   HT     0.417000        1.0080           0
   31416 WT2  1292 TIP3 H2   HT     0.417000        1.0080           0
   31417 WT2  1293 TIP3 OH2  OT    -0.834000       15.9994           0
   31418 WT2  1293 TIP3 H1   HT     0.417000        1.0080           0
   31419 WT2  1293 TIP3 H2   HT     0.417000        1.0080           0
   31420 WT2  1295 TIP3 OH2  OT    -0.834000       15.9994           0
   31421 WT2  1295 TIP3 H1   HT     0.417000        1.0080           0
   31422 WT2  1295 TIP3 H2   HT     0.417000        1.0080           0
   31423 WT2  1297 TIP3 OH2  OT    -0.834000       15.9994           0
   31424 WT2  1297 TIP3 H1   HT     0.417000        1.0080           0
   31425 WT2  1297 TIP3 H2   HT     0.417000        1.0080           0
   31426 WT2  1298 TIP3 OH2  OT    -0.834000       15.9994           0
   31427 WT2  1298 TIP3 H1   HT     0.417000        1.0080           0
   31428 WT2  1298 TIP3 H2   HT     0.417000        1.0080           0
   31429 WT2  1301 TIP3 OH2  OT    -0.834000       15.9994           0
   31430 WT2  1301 TIP3 H1   HT     0.417000        1.0080           0
   31431 WT2  1301 TIP3 H2   HT     0.417000        1.0080           0
   31432 WT2  1303 TIP3 OH2  OT    -0.834000       15.9994           0
   31433 WT2  1303 TIP3 H1   HT     0.417000        1.0080           0
   31434 WT2  1303 TIP3 H2   HT     0.417000        1.0080           0
   31435 WT2  1304 TIP3 OH2  OT    -0.834000       15.9994           0
   31436 WT2  1304 TIP3 H1   HT     0.417000        1.0080           0
   31437 WT2  1304 TIP3 H2   HT     0.417000        1.0080           0
   31438 WT2  1305 TIP3 OH2  OT    -0.834000       15.9994           0
   31439 WT2  1305 TIP3 H1   HT     0.417000        1.0080           0
   31440 WT2  1305 TIP3 H2   HT     0.417000        1.0080           0
   31441 WT2  1307 TIP3 OH2  OT    -0.834000       15.9994           0
   31442 WT2  1307 TIP3 H1   HT     0.417000        1.0080           0
   31443 WT2  1307 TIP3 H2   HT     0.417000        1.0080           0
   31444 WT2  1308 TIP3 OH2  OT    -0.834000       15.9994           0
   31445 WT2  1308 TIP3 H1   HT     0.417000        1.0080           0
   31446 WT2  1308 TIP3 H2   HT     0.417000        1.0080           0
   31447 WT2  1309 TIP3 OH2  OT    -0.834000       15.9994           0
   31448 WT2  1309 TIP3 H1   HT     0.417000        1.0080           0
   31449 WT2  1309 TIP3 H2   HT     0.417000        1.0080           0
   31450 WT2  1311 TIP3 OH2  OT    -0.834000       15.9994           0
   31451 WT2  1311 TIP3 H1   HT     0.417000        1.0080           0
   31452 WT2  1311 TIP3 H2   HT     0.417000        1.0080           0
   31453 WT2  1312 TIP3 OH2  OT    -0.834000       15.9994           0
   31454 WT2  1312 TIP3 H1   HT     0.417000        1.0080           0
   31455 WT2  1312 TIP3 H2   HT     0.417000        1.0080           0
   31456 WT2  1313 TIP3 OH2  OT    -0.834000       15.9994           0
   31457 WT2  1313 TIP3 H1   HT     0.417000        1.0080           0
   31458 WT2  1313 TIP3 H2   HT     0.417000        1.0080           0
   31459 WT2  1314 TIP3 OH2  OT    -0.834000       15.9994           0
   31460 WT2  1314 TIP3 H1   HT     0.417000        1.0080           0
   31461 WT2  1314 TIP3 H2   HT     0.417000        1.0080           0
   31462 WT2  1316 TIP3 OH2  OT    -0.834000       15.9994           0
   31463 WT2  1316 TIP3 H1   HT     0.417000        1.0080           0
   31464 WT2  1316 TIP3 H2   HT     0.417000        1.0080           0
   31465 WT2  1317 TIP3 OH2  OT    -0.834000       15.9994           0
   31466 WT2  1317 TIP3 H1   HT     0.417000        1.0080           0
   31467 WT2  1317 TIP3 H2   HT     0.417000        1.0080           0
   31468 WT2  1319 TIP3 OH2  OT    -0.834000       15.9994           0
   31469 WT2  1319 TIP3 H1   HT     0.417000        1.0080           0
   31470 WT2  1319 TIP3 H2   HT     0.417000        1.0080           0
   31471 WT2  1322 TIP3 OH2  OT    -0.834000       15.9994           0
   31472 WT2  1322 TIP3 H1   HT     0.417000        1.0080           0
   31473 WT2  1322 TIP3 H2   HT     0.417000        1.0080           0
   31474 WT2  1324 TIP3 OH2  OT    -0.834000       15.9994           0
   31475 WT2  1324 TIP3 H1   HT     0.417000        1.0080           0
   31476 WT2  1324 TIP3 H2   HT     0.417000        1.0080           0
   31477 WT2  1326 TIP3 OH2  OT    -0.834000       15.9994           0
   31478 WT2  1326 TIP3 H1   HT     0.417000        1.0080           0
   31479 WT2  1326 TIP3 H2   HT     0.417000        1.0080           0
   31480 WT2  1327 TIP3 OH2  OT    -0.834000       15.9994           0
   31481 WT2  1327 TIP3 H1   HT     0.417000        1.0080           0
   31482 WT2  1327 TIP3 H2   HT     0.417000        1.0080           0
   31483 WT2  1328 TIP3 OH2  OT    -0.834000       15.9994           0
   31484 WT2  1328 TIP3 H1   HT     0.417000        1.0080           0
   31485 WT2  1328 TIP3 H2   HT     0.417000        1.0080           0
   31486 WT2  1329 TIP3 OH2  OT    -0.834000       15.9994           0
   31487 WT2  1329 TIP3 H1   HT     0.417000        1.0080           0
   31488 WT2  1329 TIP3 H2   HT     0.417000        1.0080           0
   31489 WT2  1330 TIP3 OH2  OT    -0.834000       15.9994           0
   31490 WT2  1330 TIP3 H1   HT     0.417000        1.0080           0
   31491 WT2  1330 TIP3 H2   HT     0.417000        1.0080           0
   31492 WT2  1332 TIP3 OH2  OT    -0.834000       15.9994           0
   31493 WT2  1332 TIP3 H1   HT     0.417000        1.0080           0
   31494 WT2  1332 TIP3 H2   HT     0.417000        1.0080           0
   31495 WT2  1333 TIP3 OH2  OT    -0.834000       15.9994           0
   31496 WT2  1333 TIP3 H1   HT     0.417000        1.0080           0
   31497 WT2  1333 TIP3 H2   HT     0.417000        1.0080           0
   31498 WT2  1334 TIP3 OH2  OT    -0.834000       15.9994           0
   31499 WT2  1334 TIP3 H1   HT     0.417000        1.0080           0
   31500 WT2  1334 TIP3 H2   HT     0.417000        1.0080           0
   31501 WT2  1335 TIP3 OH2  OT    -0.834000       15.9994           0
   31502 WT2  1335 TIP3 H1   HT     0.417000        1.0080           0
   31503 WT2  1335 TIP3 H2   HT     0.417000        1.0080           0
   31504 WT2  1336 TIP3 OH2  OT    -0.834000       15.9994           0
   31505 WT2  1336 TIP3 H1   HT     0.417000        1.0080           0
   31506 WT2  1336 TIP3 H2   HT     0.417000        1.0080           0
   31507 WT2  1337 TIP3 OH2  OT    -0.834000       15.9994           0
   31508 WT2  1337 TIP3 H1   HT     0.417000        1.0080           0
   31509 WT2  1337 TIP3 H2   HT     0.417000        1.0080           0
   31510 WT2  1344 TIP3 OH2  OT    -0.834000       15.9994           0
   31511 WT2  1344 TIP3 H1   HT     0.417000        1.0080           0
   31512 WT2  1344 TIP3 H2   HT     0.417000        1.0080           0
   31513 WT2  1345 TIP3 OH2  OT    -0.834000       15.9994           0
   31514 WT2  1345 TIP3 H1   HT     0.417000        1.0080           0
   31515 WT2  1345 TIP3 H2   HT     0.417000        1.0080           0
   31516 WT2  1346 TIP3 OH2  OT    -0.834000       15.9994           0
   31517 WT2  1346 TIP3 H1   HT     0.417000        1.0080           0
   31518 WT2  1346 TIP3 H2   HT     0.417000        1.0080           0
   31519 WT2  1347 TIP3 OH2  OT    -0.834000       15.9994           0
   31520 WT2  1347 TIP3 H1   HT     0.417000        1.0080           0
   31521 WT2  1347 TIP3 H2   HT     0.417000        1.0080           0
   31522 WT2  1349 TIP3 OH2  OT    -0.834000       15.9994           0
   31523 WT2  1349 TIP3 H1   HT     0.417000        1.0080           0
   31524 WT2  1349 TIP3 H2   HT     0.417000        1.0080           0
   31525 WT2  1350 TIP3 OH2  OT    -0.834000       15.9994           0
   31526 WT2  1350 TIP3 H1   HT     0.417000        1.0080           0
   31527 WT2  1350 TIP3 H2   HT     0.417000        1.0080           0
   31528 WT2  1351 TIP3 OH2  OT    -0.834000       15.9994           0
   31529 WT2  1351 TIP3 H1   HT     0.417000        1.0080           0
   31530 WT2  1351 TIP3 H2   HT     0.417000        1.0080           0
   31531 WT2  1352 TIP3 OH2  OT    -0.834000       15.9994           0
   31532 WT2  1352 TIP3 H1   HT     0.417000        1.0080           0
   31533 WT2  1352 TIP3 H2   HT     0.417000        1.0080           0
   31534 WT2  1353 TIP3 OH2  OT    -0.834000       15.9994           0
   31535 WT2  1353 TIP3 H1   HT     0.417000        1.0080           0
   31536 WT2  1353 TIP3 H2   HT     0.417000        1.0080           0
   31537 WT2  1354 TIP3 OH2  OT    -0.834000       15.9994           0
   31538 WT2  1354 TIP3 H1   HT     0.417000        1.0080           0
   31539 WT2  1354 TIP3 H2   HT     0.417000        1.0080           0
   31540 WT2  1355 TIP3 OH2  OT    -0.834000       15.9994           0
   31541 WT2  1355 TIP3 H1   HT     0.417000        1.0080           0
   31542 WT2  1355 TIP3 H2   HT     0.417000        1.0080           0
   31543 WT2  1356 TIP3 OH2  OT    -0.834000       15.9994           0
   31544 WT2  1356 TIP3 H1   HT     0.417000        1.0080           0
   31545 WT2  1356 TIP3 H2   HT     0.417000        1.0080           0
   31546 WT2  1357 TIP3 OH2  OT    -0.834000       15.9994           0
   31547 WT2  1357 TIP3 H1   HT     0.417000        1.0080           0
   31548 WT2  1357 TIP3 H2   HT     0.417000        1.0080           0
   31549 WT2  1361 TIP3 OH2  OT    -0.834000       15.9994           0
   31550 WT2  1361 TIP3 H1   HT     0.417000        1.0080           0
   31551 WT2  1361 TIP3 H2   HT     0.417000        1.0080           0
   31552 WT2  1367 TIP3 OH2  OT    -0.834000       15.9994           0
   31553 WT2  1367 TIP3 H1   HT     0.417000        1.0080           0
   31554 WT2  1367 TIP3 H2   HT     0.417000        1.0080           0
   31555 WT2  1368 TIP3 OH2  OT    -0.834000       15.9994           0
   31556 WT2  1368 TIP3 H1   HT     0.417000        1.0080           0
   31557 WT2  1368 TIP3 H2   HT     0.417000        1.0080           0
   31558 WT2  1370 TIP3 OH2  OT    -0.834000       15.9994           0
   31559 WT2  1370 TIP3 H1   HT     0.417000        1.0080           0
   31560 WT2  1370 TIP3 H2   HT     0.417000        1.0080           0
   31561 WT2  1371 TIP3 OH2  OT    -0.834000       15.9994           0
   31562 WT2  1371 TIP3 H1   HT     0.417000        1.0080           0
   31563 WT2  1371 TIP3 H2   HT     0.417000        1.0080           0
   31564 WT2  1372 TIP3 OH2  OT    -0.834000       15.9994           0
   31565 WT2  1372 TIP3 H1   HT     0.417000        1.0080           0
   31566 WT2  1372 TIP3 H2   HT     0.417000        1.0080           0
   31567 WT2  1373 TIP3 OH2  OT    -0.834000       15.9994           0
   31568 WT2  1373 TIP3 H1   HT     0.417000        1.0080           0
   31569 WT2  1373 TIP3 H2   HT     0.417000        1.0080           0
   31570 WT2  1374 TIP3 OH2  OT    -0.834000       15.9994           0
   31571 WT2  1374 TIP3 H1   HT     0.417000        1.0080           0
   31572 WT2  1374 TIP3 H2   HT     0.417000        1.0080           0
   31573 WT2  1375 TIP3 OH2  OT    -0.834000       15.9994           0
   31574 WT2  1375 TIP3 H1   HT     0.417000        1.0080           0
   31575 WT2  1375 TIP3 H2   HT     0.417000        1.0080           0
   31576 WT2  1376 TIP3 OH2  OT    -0.834000       15.9994           0
   31577 WT2  1376 TIP3 H1   HT     0.417000        1.0080           0
   31578 WT2  1376 TIP3 H2   HT     0.417000        1.0080           0
   31579 WT2  1377 TIP3 OH2  OT    -0.834000       15.9994           0
   31580 WT2  1377 TIP3 H1   HT     0.417000        1.0080           0
   31581 WT2  1377 TIP3 H2   HT     0.417000        1.0080           0
   31582 WT2  1379 TIP3 OH2  OT    -0.834000       15.9994           0
   31583 WT2  1379 TIP3 H1   HT     0.417000        1.0080           0
   31584 WT2  1379 TIP3 H2   HT     0.417000        1.0080           0
   31585 WT2  1380 TIP3 OH2  OT    -0.834000       15.9994           0
   31586 WT2  1380 TIP3 H1   HT     0.417000        1.0080           0
   31587 WT2  1380 TIP3 H2   HT     0.417000        1.0080           0
   31588 WT2  1385 TIP3 OH2  OT    -0.834000       15.9994           0
   31589 WT2  1385 TIP3 H1   HT     0.417000        1.0080           0
   31590 WT2  1385 TIP3 H2   HT     0.417000        1.0080           0
   31591 WT2  1386 TIP3 OH2  OT    -0.834000       15.9994           0
   31592 WT2  1386 TIP3 H1   HT     0.417000        1.0080           0
   31593 WT2  1386 TIP3 H2   HT     0.417000        1.0080           0
   31594 WT2  1387 TIP3 OH2  OT    -0.834000       15.9994           0
   31595 WT2  1387 TIP3 H1   HT     0.417000        1.0080           0
   31596 WT2  1387 TIP3 H2   HT     0.417000        1.0080           0
   31597 WT2  1388 TIP3 OH2  OT    -0.834000       15.9994           0
   31598 WT2  1388 TIP3 H1   HT     0.417000        1.0080           0
   31599 WT2  1388 TIP3 H2   HT     0.417000        1.0080           0
   31600 WT2  1389 TIP3 OH2  OT    -0.834000       15.9994           0
   31601 WT2  1389 TIP3 H1   HT     0.417000        1.0080           0
   31602 WT2  1389 TIP3 H2   HT     0.417000        1.0080           0
   31603 WT2  1392 TIP3 OH2  OT    -0.834000       15.9994           0
   31604 WT2  1392 TIP3 H1   HT     0.417000        1.0080           0
   31605 WT2  1392 TIP3 H2   HT     0.417000        1.0080           0
   31606 WT2  1393 TIP3 OH2  OT    -0.834000       15.9994           0
   31607 WT2  1393 TIP3 H1   HT     0.417000        1.0080           0
   31608 WT2  1393 TIP3 H2   HT     0.417000        1.0080           0
   31609 WT2  1394 TIP3 OH2  OT    -0.834000       15.9994           0
   31610 WT2  1394 TIP3 H1   HT     0.417000        1.0080           0
   31611 WT2  1394 TIP3 H2   HT     0.417000        1.0080           0
   31612 WT2  1395 TIP3 OH2  OT    -0.834000       15.9994           0
   31613 WT2  1395 TIP3 H1   HT     0.417000        1.0080           0
   31614 WT2  1395 TIP3 H2   HT     0.417000        1.0080           0
   31615 WT2  1396 TIP3 OH2  OT    -0.834000       15.9994           0
   31616 WT2  1396 TIP3 H1   HT     0.417000        1.0080           0
   31617 WT2  1396 TIP3 H2   HT     0.417000        1.0080           0
   31618 WT2  1397 TIP3 OH2  OT    -0.834000       15.9994           0
   31619 WT2  1397 TIP3 H1   HT     0.417000        1.0080           0
   31620 WT2  1397 TIP3 H2   HT     0.417000        1.0080           0
   31621 WT2  1398 TIP3 OH2  OT    -0.834000       15.9994           0
   31622 WT2  1398 TIP3 H1   HT     0.417000        1.0080           0
   31623 WT2  1398 TIP3 H2   HT     0.417000        1.0080           0
   31624 WT2  1401 TIP3 OH2  OT    -0.834000       15.9994           0
   31625 WT2  1401 TIP3 H1   HT     0.417000        1.0080           0
   31626 WT2  1401 TIP3 H2   HT     0.417000        1.0080           0
   31627 WT2  1407 TIP3 OH2  OT    -0.834000       15.9994           0
   31628 WT2  1407 TIP3 H1   HT     0.417000        1.0080           0
   31629 WT2  1407 TIP3 H2   HT     0.417000        1.0080           0
   31630 WT2  1408 TIP3 OH2  OT    -0.834000       15.9994           0
   31631 WT2  1408 TIP3 H1   HT     0.417000        1.0080           0
   31632 WT2  1408 TIP3 H2   HT     0.417000        1.0080           0
   31633 WT2  1411 TIP3 OH2  OT    -0.834000       15.9994           0
   31634 WT2  1411 TIP3 H1   HT     0.417000        1.0080           0
   31635 WT2  1411 TIP3 H2   HT     0.417000        1.0080           0
   31636 WT2  1412 TIP3 OH2  OT    -0.834000       15.9994           0
   31637 WT2  1412 TIP3 H1   HT     0.417000        1.0080           0
   31638 WT2  1412 TIP3 H2   HT     0.417000        1.0080           0
   31639 WT2  1413 TIP3 OH2  OT    -0.834000       15.9994           0
   31640 WT2  1413 TIP3 H1   HT     0.417000        1.0080           0
   31641 WT2  1413 TIP3 H2   HT     0.417000        1.0080           0
   31642 WT2  1414 TIP3 OH2  OT    -0.834000       15.9994           0
   31643 WT2  1414 TIP3 H1   HT     0.417000        1.0080           0
   31644 WT2  1414 TIP3 H2   HT     0.417000        1.0080           0
   31645 WT2  1415 TIP3 OH2  OT    -0.834000       15.9994           0
   31646 WT2  1415 TIP3 H1   HT     0.417000        1.0080           0
   31647 WT2  1415 TIP3 H2   HT     0.417000        1.0080           0
   31648 WT2  1416 TIP3 OH2  OT    -0.834000       15.9994           0
   31649 WT2  1416 TIP3 H1   HT     0.417000        1.0080           0
   31650 WT2  1416 TIP3 H2   HT     0.417000        1.0080           0
   31651 WT2  1417 TIP3 OH2  OT    -0.834000       15.9994           0
   31652 WT2  1417 TIP3 H1   HT     0.417000        1.0080           0
   31653 WT2  1417 TIP3 H2   HT     0.417000        1.0080           0
   31654 WT2  1418 TIP3 OH2  OT    -0.834000       15.9994           0
   31655 WT2  1418 TIP3 H1   HT     0.417000        1.0080           0
   31656 WT2  1418 TIP3 H2   HT     0.417000        1.0080           0
   31657 WT2  1419 TIP3 OH2  OT    -0.834000       15.9994           0
   31658 WT2  1419 TIP3 H1   HT     0.417000        1.0080           0
   31659 WT2  1419 TIP3 H2   HT     0.417000        1.0080           0
   31660 WT2  1420 TIP3 OH2  OT    -0.834000       15.9994           0
   31661 WT2  1420 TIP3 H1   HT     0.417000        1.0080           0
   31662 WT2  1420 TIP3 H2   HT     0.417000        1.0080           0
   31663 WT2  1421 TIP3 OH2  OT    -0.834000       15.9994           0
   31664 WT2  1421 TIP3 H1   HT     0.417000        1.0080           0
   31665 WT2  1421 TIP3 H2   HT     0.417000        1.0080           0
   31666 WT2  1422 TIP3 OH2  OT    -0.834000       15.9994           0
   31667 WT2  1422 TIP3 H1   HT     0.417000        1.0080           0
   31668 WT2  1422 TIP3 H2   HT     0.417000        1.0080           0
   31669 WT2  1425 TIP3 OH2  OT    -0.834000       15.9994           0
   31670 WT2  1425 TIP3 H1   HT     0.417000        1.0080           0
   31671 WT2  1425 TIP3 H2   HT     0.417000        1.0080           0
   31672 WT2  1427 TIP3 OH2  OT    -0.834000       15.9994           0
   31673 WT2  1427 TIP3 H1   HT     0.417000        1.0080           0
   31674 WT2  1427 TIP3 H2   HT     0.417000        1.0080           0
   31675 WT2  1428 TIP3 OH2  OT    -0.834000       15.9994           0
   31676 WT2  1428 TIP3 H1   HT     0.417000        1.0080           0
   31677 WT2  1428 TIP3 H2   HT     0.417000        1.0080           0
   31678 WT2  1429 TIP3 OH2  OT    -0.834000       15.9994           0
   31679 WT2  1429 TIP3 H1   HT     0.417000        1.0080           0
   31680 WT2  1429 TIP3 H2   HT     0.417000        1.0080           0
   31681 WT2  1430 TIP3 OH2  OT    -0.834000       15.9994           0
   31682 WT2  1430 TIP3 H1   HT     0.417000        1.0080           0
   31683 WT2  1430 TIP3 H2   HT     0.417000        1.0080           0
   31684 WT2  1431 TIP3 OH2  OT    -0.834000       15.9994           0
   31685 WT2  1431 TIP3 H1   HT     0.417000        1.0080           0
   31686 WT2  1431 TIP3 H2   HT     0.417000        1.0080           0
   31687 WT2  1432 TIP3 OH2  OT    -0.834000       15.9994           0
   31688 WT2  1432 TIP3 H1   HT     0.417000        1.0080           0
   31689 WT2  1432 TIP3 H2   HT     0.417000        1.0080           0
   31690 WT2  1433 TIP3 OH2  OT    -0.834000       15.9994           0
   31691 WT2  1433 TIP3 H1   HT     0.417000        1.0080           0
   31692 WT2  1433 TIP3 H2   HT     0.417000        1.0080           0
   31693 WT2  1434 TIP3 OH2  OT    -0.834000       15.9994           0
   31694 WT2  1434 TIP3 H1   HT     0.417000        1.0080           0
   31695 WT2  1434 TIP3 H2   HT     0.417000        1.0080           0
   31696 WT2  1435 TIP3 OH2  OT    -0.834000       15.9994           0
   31697 WT2  1435 TIP3 H1   HT     0.417000        1.0080           0
   31698 WT2  1435 TIP3 H2   HT     0.417000        1.0080           0
   31699 WT2  1436 TIP3 OH2  OT    -0.834000       15.9994           0
   31700 WT2  1436 TIP3 H1   HT     0.417000        1.0080           0
   31701 WT2  1436 TIP3 H2   HT     0.417000        1.0080           0
   31702 WT2  1437 TIP3 OH2  OT    -0.834000       15.9994           0
   31703 WT2  1437 TIP3 H1   HT     0.417000        1.0080           0
   31704 WT2  1437 TIP3 H2   HT     0.417000        1.0080           0
   31705 WT2  1438 TIP3 OH2  OT    -0.834000       15.9994           0
   31706 WT2  1438 TIP3 H1   HT     0.417000        1.0080           0
   31707 WT2  1438 TIP3 H2   HT     0.417000        1.0080           0
   31708 WT2  1439 TIP3 OH2  OT    -0.834000       15.9994           0
   31709 WT2  1439 TIP3 H1   HT     0.417000        1.0080           0
   31710 WT2  1439 TIP3 H2   HT     0.417000        1.0080           0
   31711 WT2  1440 TIP3 OH2  OT    -0.834000       15.9994           0
   31712 WT2  1440 TIP3 H1   HT     0.417000        1.0080           0
   31713 WT2  1440 TIP3 H2   HT     0.417000        1.0080           0
   31714 WT2  1441 TIP3 OH2  OT    -0.834000       15.9994           0
   31715 WT2  1441 TIP3 H1   HT     0.417000        1.0080           0
   31716 WT2  1441 TIP3 H2   HT     0.417000        1.0080           0
   31717 WT2  1442 TIP3 OH2  OT    -0.834000       15.9994           0
   31718 WT2  1442 TIP3 H1   HT     0.417000        1.0080           0
   31719 WT2  1442 TIP3 H2   HT     0.417000        1.0080           0
   31720 WT2  1443 TIP3 OH2  OT    -0.834000       15.9994           0
   31721 WT2  1443 TIP3 H1   HT     0.417000        1.0080           0
   31722 WT2  1443 TIP3 H2   HT     0.417000        1.0080           0
   31723 WT2  1450 TIP3 OH2  OT    -0.834000       15.9994           0
   31724 WT2  1450 TIP3 H1   HT     0.417000        1.0080           0
   31725 WT2  1450 TIP3 H2   HT     0.417000        1.0080           0
   31726 WT2  1451 TIP3 OH2  OT    -0.834000       15.9994           0
   31727 WT2  1451 TIP3 H1   HT     0.417000        1.0080           0
   31728 WT2  1451 TIP3 H2   HT     0.417000        1.0080           0
   31729 WT2  1452 TIP3 OH2  OT    -0.834000       15.9994           0
   31730 WT2  1452 TIP3 H1   HT     0.417000        1.0080           0
   31731 WT2  1452 TIP3 H2   HT     0.417000        1.0080           0
   31732 WT2  1453 TIP3 OH2  OT    -0.834000       15.9994           0
   31733 WT2  1453 TIP3 H1   HT     0.417000        1.0080           0
   31734 WT2  1453 TIP3 H2   HT     0.417000        1.0080           0
   31735 WT2  1454 TIP3 OH2  OT    -0.834000       15.9994           0
   31736 WT2  1454 TIP3 H1   HT     0.417000        1.0080           0
   31737 WT2  1454 TIP3 H2   HT     0.417000        1.0080           0
   31738 WT2  1455 TIP3 OH2  OT    -0.834000       15.9994           0
   31739 WT2  1455 TIP3 H1   HT     0.417000        1.0080           0
   31740 WT2  1455 TIP3 H2   HT     0.417000        1.0080           0
   31741 WT2  1456 TIP3 OH2  OT    -0.834000       15.9994           0
   31742 WT2  1456 TIP3 H1   HT     0.417000        1.0080           0
   31743 WT2  1456 TIP3 H2   HT     0.417000        1.0080           0
   31744 WT2  1457 TIP3 OH2  OT    -0.834000       15.9994           0
   31745 WT2  1457 TIP3 H1   HT     0.417000        1.0080           0
   31746 WT2  1457 TIP3 H2   HT     0.417000        1.0080           0
   31747 WT2  1458 TIP3 OH2  OT    -0.834000       15.9994           0
   31748 WT2  1458 TIP3 H1   HT     0.417000        1.0080           0
   31749 WT2  1458 TIP3 H2   HT     0.417000        1.0080           0
   31750 WT2  1459 TIP3 OH2  OT    -0.834000       15.9994           0
   31751 WT2  1459 TIP3 H1   HT     0.417000        1.0080           0
   31752 WT2  1459 TIP3 H2   HT     0.417000        1.0080           0
   31753 WT2  1460 TIP3 OH2  OT    -0.834000       15.9994           0
   31754 WT2  1460 TIP3 H1   HT     0.417000        1.0080           0
   31755 WT2  1460 TIP3 H2   HT     0.417000        1.0080           0
   31756 WT2  1461 TIP3 OH2  OT    -0.834000       15.9994           0
   31757 WT2  1461 TIP3 H1   HT     0.417000        1.0080           0
   31758 WT2  1461 TIP3 H2   HT     0.417000        1.0080           0
   31759 WT2  1463 TIP3 OH2  OT    -0.834000       15.9994           0
   31760 WT2  1463 TIP3 H1   HT     0.417000        1.0080           0
   31761 WT2  1463 TIP3 H2   HT     0.417000        1.0080           0
   31762 WT2  1465 TIP3 OH2  OT    -0.834000       15.9994           0
   31763 WT2  1465 TIP3 H1   HT     0.417000        1.0080           0
   31764 WT2  1465 TIP3 H2   HT     0.417000        1.0080           0
   31765 WT2  1466 TIP3 OH2  OT    -0.834000       15.9994           0
   31766 WT2  1466 TIP3 H1   HT     0.417000        1.0080           0
   31767 WT2  1466 TIP3 H2   HT     0.417000        1.0080           0
   31768 WT2  1471 TIP3 OH2  OT    -0.834000       15.9994           0
   31769 WT2  1471 TIP3 H1   HT     0.417000        1.0080           0
   31770 WT2  1471 TIP3 H2   HT     0.417000        1.0080           0
   31771 WT2  1474 TIP3 OH2  OT    -0.834000       15.9994           0
   31772 WT2  1474 TIP3 H1   HT     0.417000        1.0080           0
   31773 WT2  1474 TIP3 H2   HT     0.417000        1.0080           0
   31774 WT2  1475 TIP3 OH2  OT    -0.834000       15.9994           0
   31775 WT2  1475 TIP3 H1   HT     0.417000        1.0080           0
   31776 WT2  1475 TIP3 H2   HT     0.417000        1.0080           0
   31777 WT2  1476 TIP3 OH2  OT    -0.834000       15.9994           0
   31778 WT2  1476 TIP3 H1   HT     0.417000        1.0080           0
   31779 WT2  1476 TIP3 H2   HT     0.417000        1.0080           0
   31780 WT2  1477 TIP3 OH2  OT    -0.834000       15.9994           0
   31781 WT2  1477 TIP3 H1   HT     0.417000        1.0080           0
   31782 WT2  1477 TIP3 H2   HT     0.417000        1.0080           0
   31783 WT2  1478 TIP3 OH2  OT    -0.834000       15.9994           0
   31784 WT2  1478 TIP3 H1   HT     0.417000        1.0080           0
   31785 WT2  1478 TIP3 H2   HT     0.417000        1.0080           0
   31786 WT2  1479 TIP3 OH2  OT    -0.834000       15.9994           0
   31787 WT2  1479 TIP3 H1   HT     0.417000        1.0080           0
   31788 WT2  1479 TIP3 H2   HT     0.417000        1.0080           0
   31789 WT2  1480 TIP3 OH2  OT    -0.834000       15.9994           0
   31790 WT2  1480 TIP3 H1   HT     0.417000        1.0080           0
   31791 WT2  1480 TIP3 H2   HT     0.417000        1.0080           0
   31792 WT2  1481 TIP3 OH2  OT    -0.834000       15.9994           0
   31793 WT2  1481 TIP3 H1   HT     0.417000        1.0080           0
   31794 WT2  1481 TIP3 H2   HT     0.417000        1.0080           0
   31795 WT2  1483 TIP3 OH2  OT    -0.834000       15.9994           0
   31796 WT2  1483 TIP3 H1   HT     0.417000        1.0080           0
   31797 WT2  1483 TIP3 H2   HT     0.417000        1.0080           0
   31798 WT2  1485 TIP3 OH2  OT    -0.834000       15.9994           0
   31799 WT2  1485 TIP3 H1   HT     0.417000        1.0080           0
   31800 WT2  1485 TIP3 H2   HT     0.417000        1.0080           0
   31801 WT2  1492 TIP3 OH2  OT    -0.834000       15.9994           0
   31802 WT2  1492 TIP3 H1   HT     0.417000        1.0080           0
   31803 WT2  1492 TIP3 H2   HT     0.417000        1.0080           0
   31804 WT2  1493 TIP3 OH2  OT    -0.834000       15.9994           0
   31805 WT2  1493 TIP3 H1   HT     0.417000        1.0080           0
   31806 WT2  1493 TIP3 H2   HT     0.417000        1.0080           0
   31807 WT2  1494 TIP3 OH2  OT    -0.834000       15.9994           0
   31808 WT2  1494 TIP3 H1   HT     0.417000        1.0080           0
   31809 WT2  1494 TIP3 H2   HT     0.417000        1.0080           0
   31810 WT2  1496 TIP3 OH2  OT    -0.834000       15.9994           0
   31811 WT2  1496 TIP3 H1   HT     0.417000        1.0080           0
   31812 WT2  1496 TIP3 H2   HT     0.417000        1.0080           0
   31813 WT2  1497 TIP3 OH2  OT    -0.834000       15.9994           0
   31814 WT2  1497 TIP3 H1   HT     0.417000        1.0080           0
   31815 WT2  1497 TIP3 H2   HT     0.417000        1.0080           0
   31816 WT2  1498 TIP3 OH2  OT    -0.834000       15.9994           0
   31817 WT2  1498 TIP3 H1   HT     0.417000        1.0080           0
   31818 WT2  1498 TIP3 H2   HT     0.417000        1.0080           0
   31819 WT2  1499 TIP3 OH2  OT    -0.834000       15.9994           0
   31820 WT2  1499 TIP3 H1   HT     0.417000        1.0080           0
   31821 WT2  1499 TIP3 H2   HT     0.417000        1.0080           0
   31822 WT2  1500 TIP3 OH2  OT    -0.834000       15.9994           0
   31823 WT2  1500 TIP3 H1   HT     0.417000        1.0080           0
   31824 WT2  1500 TIP3 H2   HT     0.417000        1.0080           0
   31825 WT2  1501 TIP3 OH2  OT    -0.834000       15.9994           0
   31826 WT2  1501 TIP3 H1   HT     0.417000        1.0080           0
   31827 WT2  1501 TIP3 H2   HT     0.417000        1.0080           0
   31828 WT2  1502 TIP3 OH2  OT    -0.834000       15.9994           0
   31829 WT2  1502 TIP3 H1   HT     0.417000        1.0080           0
   31830 WT2  1502 TIP3 H2   HT     0.417000        1.0080           0
   31831 WT2  1503 TIP3 OH2  OT    -0.834000       15.9994           0
   31832 WT2  1503 TIP3 H1   HT     0.417000        1.0080           0
   31833 WT2  1503 TIP3 H2   HT     0.417000        1.0080           0
   31834 WT2  1504 TIP3 OH2  OT    -0.834000       15.9994           0
   31835 WT2  1504 TIP3 H1   HT     0.417000        1.0080           0
   31836 WT2  1504 TIP3 H2   HT     0.417000        1.0080           0
   31837 WT2  1506 TIP3 OH2  OT    -0.834000       15.9994           0
   31838 WT2  1506 TIP3 H1   HT     0.417000        1.0080           0
   31839 WT2  1506 TIP3 H2   HT     0.417000        1.0080           0
   31840 WT2  1507 TIP3 OH2  OT    -0.834000       15.9994           0
   31841 WT2  1507 TIP3 H1   HT     0.417000        1.0080           0
   31842 WT2  1507 TIP3 H2   HT     0.417000        1.0080           0
   31843 WT2  1512 TIP3 OH2  OT    -0.834000       15.9994           0
   31844 WT2  1512 TIP3 H1   HT     0.417000        1.0080           0
   31845 WT2  1512 TIP3 H2   HT     0.417000        1.0080           0
   31846 WT2  1514 TIP3 OH2  OT    -0.834000       15.9994           0
   31847 WT2  1514 TIP3 H1   HT     0.417000        1.0080           0
   31848 WT2  1514 TIP3 H2   HT     0.417000        1.0080           0
   31849 WT2  1515 TIP3 OH2  OT    -0.834000       15.9994           0
   31850 WT2  1515 TIP3 H1   HT     0.417000        1.0080           0
   31851 WT2  1515 TIP3 H2   HT     0.417000        1.0080           0
   31852 WT2  1517 TIP3 OH2  OT    -0.834000       15.9994           0
   31853 WT2  1517 TIP3 H1   HT     0.417000        1.0080           0
   31854 WT2  1517 TIP3 H2   HT     0.417000        1.0080           0
   31855 WT2  1518 TIP3 OH2  OT    -0.834000       15.9994           0
   31856 WT2  1518 TIP3 H1   HT     0.417000        1.0080           0
   31857 WT2  1518 TIP3 H2   HT     0.417000        1.0080           0
   31858 WT2  1519 TIP3 OH2  OT    -0.834000       15.9994           0
   31859 WT2  1519 TIP3 H1   HT     0.417000        1.0080           0
   31860 WT2  1519 TIP3 H2   HT     0.417000        1.0080           0
   31861 WT2  1520 TIP3 OH2  OT    -0.834000       15.9994           0
   31862 WT2  1520 TIP3 H1   HT     0.417000        1.0080           0
   31863 WT2  1520 TIP3 H2   HT     0.417000        1.0080           0
   31864 WT2  1521 TIP3 OH2  OT    -0.834000       15.9994           0
   31865 WT2  1521 TIP3 H1   HT     0.417000        1.0080           0
   31866 WT2  1521 TIP3 H2   HT     0.417000        1.0080           0
   31867 WT2  1522 TIP3 OH2  OT    -0.834000       15.9994           0
   31868 WT2  1522 TIP3 H1   HT     0.417000        1.0080           0
   31869 WT2  1522 TIP3 H2   HT     0.417000        1.0080           0
   31870 WT2  1523 TIP3 OH2  OT    -0.834000       15.9994           0
   31871 WT2  1523 TIP3 H1   HT     0.417000        1.0080           0
   31872 WT2  1523 TIP3 H2   HT     0.417000        1.0080           0
   31873 WT2  1524 TIP3 OH2  OT    -0.834000       15.9994           0
   31874 WT2  1524 TIP3 H1   HT     0.417000        1.0080           0
   31875 WT2  1524 TIP3 H2   HT     0.417000        1.0080           0
   31876 WT2  1525 TIP3 OH2  OT    -0.834000       15.9994           0
   31877 WT2  1525 TIP3 H1   HT     0.417000        1.0080           0
   31878 WT2  1525 TIP3 H2   HT     0.417000        1.0080           0
   31879 WT2  1526 TIP3 OH2  OT    -0.834000       15.9994           0
   31880 WT2  1526 TIP3 H1   HT     0.417000        1.0080           0
   31881 WT2  1526 TIP3 H2   HT     0.417000        1.0080           0
   31882 WT2  1527 TIP3 OH2  OT    -0.834000       15.9994           0
   31883 WT2  1527 TIP3 H1   HT     0.417000        1.0080           0
   31884 WT2  1527 TIP3 H2   HT     0.417000        1.0080           0
   31885 WT2  1531 TIP3 OH2  OT    -0.834000       15.9994           0
   31886 WT2  1531 TIP3 H1   HT     0.417000        1.0080           0
   31887 WT2  1531 TIP3 H2   HT     0.417000        1.0080           0
   31888 WT2  1532 TIP3 OH2  OT    -0.834000       15.9994           0
   31889 WT2  1532 TIP3 H1   HT     0.417000        1.0080           0
   31890 WT2  1532 TIP3 H2   HT     0.417000        1.0080           0
   31891 WT2  1534 TIP3 OH2  OT    -0.834000       15.9994           0
   31892 WT2  1534 TIP3 H1   HT     0.417000        1.0080           0
   31893 WT2  1534 TIP3 H2   HT     0.417000        1.0080           0
   31894 WT2  1535 TIP3 OH2  OT    -0.834000       15.9994           0
   31895 WT2  1535 TIP3 H1   HT     0.417000        1.0080           0
   31896 WT2  1535 TIP3 H2   HT     0.417000        1.0080           0
   31897 WT2  1536 TIP3 OH2  OT    -0.834000       15.9994           0
   31898 WT2  1536 TIP3 H1   HT     0.417000        1.0080           0
   31899 WT2  1536 TIP3 H2   HT     0.417000        1.0080           0
   31900 WT2  1537 TIP3 OH2  OT    -0.834000       15.9994           0
   31901 WT2  1537 TIP3 H1   HT     0.417000        1.0080           0
   31902 WT2  1537 TIP3 H2   HT     0.417000        1.0080           0
   31903 WT2  1538 TIP3 OH2  OT    -0.834000       15.9994           0
   31904 WT2  1538 TIP3 H1   HT     0.417000        1.0080           0
   31905 WT2  1538 TIP3 H2   HT     0.417000        1.0080           0
   31906 WT2  1539 TIP3 OH2  OT    -0.834000       15.9994           0
   31907 WT2  1539 TIP3 H1   HT     0.417000        1.0080           0
   31908 WT2  1539 TIP3 H2   HT     0.417000        1.0080           0
   31909 WT2  1540 TIP3 OH2  OT    -0.834000       15.9994           0
   31910 WT2  1540 TIP3 H1   HT     0.417000        1.0080           0
   31911 WT2  1540 TIP3 H2   HT     0.417000        1.0080           0
   31912 WT2  1541 TIP3 OH2  OT    -0.834000       15.9994           0
   31913 WT2  1541 TIP3 H1   HT     0.417000        1.0080           0
   31914 WT2  1541 TIP3 H2   HT     0.417000        1.0080           0
   31915 WT2  1542 TIP3 OH2  OT    -0.834000       15.9994           0
   31916 WT2  1542 TIP3 H1   HT     0.417000        1.0080           0
   31917 WT2  1542 TIP3 H2   HT     0.417000        1.0080           0
   31918 WT2  1543 TIP3 OH2  OT    -0.834000       15.9994           0
   31919 WT2  1543 TIP3 H1   HT     0.417000        1.0080           0
   31920 WT2  1543 TIP3 H2   HT     0.417000        1.0080           0
   31921 WT2  1544 TIP3 OH2  OT    -0.834000       15.9994           0
   31922 WT2  1544 TIP3 H1   HT     0.417000        1.0080           0
   31923 WT2  1544 TIP3 H2   HT     0.417000        1.0080           0
   31924 WT2  1545 TIP3 OH2  OT    -0.834000       15.9994           0
   31925 WT2  1545 TIP3 H1   HT     0.417000        1.0080           0
   31926 WT2  1545 TIP3 H2   HT     0.417000        1.0080           0
   31927 WT2  1546 TIP3 OH2  OT    -0.834000       15.9994           0
   31928 WT2  1546 TIP3 H1   HT     0.417000        1.0080           0
   31929 WT2  1546 TIP3 H2   HT     0.417000        1.0080           0
   31930 WT2  1547 TIP3 OH2  OT    -0.834000       15.9994           0
   31931 WT2  1547 TIP3 H1   HT     0.417000        1.0080           0
   31932 WT2  1547 TIP3 H2   HT     0.417000        1.0080           0
   31933 WT2  1551 TIP3 OH2  OT    -0.834000       15.9994           0
   31934 WT2  1551 TIP3 H1   HT     0.417000        1.0080           0
   31935 WT2  1551 TIP3 H2   HT     0.417000        1.0080           0
   31936 WT2  1552 TIP3 OH2  OT    -0.834000       15.9994           0
   31937 WT2  1552 TIP3 H1   HT     0.417000        1.0080           0
   31938 WT2  1552 TIP3 H2   HT     0.417000        1.0080           0
   31939 WT2  1555 TIP3 OH2  OT    -0.834000       15.9994           0
   31940 WT2  1555 TIP3 H1   HT     0.417000        1.0080           0
   31941 WT2  1555 TIP3 H2   HT     0.417000        1.0080           0
   31942 WT2  1557 TIP3 OH2  OT    -0.834000       15.9994           0
   31943 WT2  1557 TIP3 H1   HT     0.417000        1.0080           0
   31944 WT2  1557 TIP3 H2   HT     0.417000        1.0080           0
   31945 WT2  1558 TIP3 OH2  OT    -0.834000       15.9994           0
   31946 WT2  1558 TIP3 H1   HT     0.417000        1.0080           0
   31947 WT2  1558 TIP3 H2   HT     0.417000        1.0080           0
   31948 WT2  1559 TIP3 OH2  OT    -0.834000       15.9994           0
   31949 WT2  1559 TIP3 H1   HT     0.417000        1.0080           0
   31950 WT2  1559 TIP3 H2   HT     0.417000        1.0080           0
   31951 WT2  1560 TIP3 OH2  OT    -0.834000       15.9994           0
   31952 WT2  1560 TIP3 H1   HT     0.417000        1.0080           0
   31953 WT2  1560 TIP3 H2   HT     0.417000        1.0080           0
   31954 WT2  1561 TIP3 OH2  OT    -0.834000       15.9994           0
   31955 WT2  1561 TIP3 H1   HT     0.417000        1.0080           0
   31956 WT2  1561 TIP3 H2   HT     0.417000        1.0080           0
   31957 WT2  1562 TIP3 OH2  OT    -0.834000       15.9994           0
   31958 WT2  1562 TIP3 H1   HT     0.417000        1.0080           0
   31959 WT2  1562 TIP3 H2   HT     0.417000        1.0080           0
   31960 WT2  1563 TIP3 OH2  OT    -0.834000       15.9994           0
   31961 WT2  1563 TIP3 H1   HT     0.417000        1.0080           0
   31962 WT2  1563 TIP3 H2   HT     0.417000        1.0080           0
   31963 WT2  1564 TIP3 OH2  OT    -0.834000       15.9994           0
   31964 WT2  1564 TIP3 H1   HT     0.417000        1.0080           0
   31965 WT2  1564 TIP3 H2   HT     0.417000        1.0080           0
   31966 WT2  1565 TIP3 OH2  OT    -0.834000       15.9994           0
   31967 WT2  1565 TIP3 H1   HT     0.417000        1.0080           0
   31968 WT2  1565 TIP3 H2   HT     0.417000        1.0080           0
   31969 WT2  1569 TIP3 OH2  OT    -0.834000       15.9994           0
   31970 WT2  1569 TIP3 H1   HT     0.417000        1.0080           0
   31971 WT2  1569 TIP3 H2   HT     0.417000        1.0080           0
   31972 WT2  1570 TIP3 OH2  OT    -0.834000       15.9994           0
   31973 WT2  1570 TIP3 H1   HT     0.417000        1.0080           0
   31974 WT2  1570 TIP3 H2   HT     0.417000        1.0080           0
   31975 WT2  1576 TIP3 OH2  OT    -0.834000       15.9994           0
   31976 WT2  1576 TIP3 H1   HT     0.417000        1.0080           0
   31977 WT2  1576 TIP3 H2   HT     0.417000        1.0080           0
   31978 WT2  1577 TIP3 OH2  OT    -0.834000       15.9994           0
   31979 WT2  1577 TIP3 H1   HT     0.417000        1.0080           0
   31980 WT2  1577 TIP3 H2   HT     0.417000        1.0080           0
   31981 WT2  1578 TIP3 OH2  OT    -0.834000       15.9994           0
   31982 WT2  1578 TIP3 H1   HT     0.417000        1.0080           0
   31983 WT2  1578 TIP3 H2   HT     0.417000        1.0080           0
   31984 WT2  1579 TIP3 OH2  OT    -0.834000       15.9994           0
   31985 WT2  1579 TIP3 H1   HT     0.417000        1.0080           0
   31986 WT2  1579 TIP3 H2   HT     0.417000        1.0080           0
   31987 WT2  1580 TIP3 OH2  OT    -0.834000       15.9994           0
   31988 WT2  1580 TIP3 H1   HT     0.417000        1.0080           0
   31989 WT2  1580 TIP3 H2   HT     0.417000        1.0080           0
   31990 WT2  1581 TIP3 OH2  OT    -0.834000       15.9994           0
   31991 WT2  1581 TIP3 H1   HT     0.417000        1.0080           0
   31992 WT2  1581 TIP3 H2   HT     0.417000        1.0080           0
   31993 WT2  1582 TIP3 OH2  OT    -0.834000       15.9994           0
   31994 WT2  1582 TIP3 H1   HT     0.417000        1.0080           0
   31995 WT2  1582 TIP3 H2   HT     0.417000        1.0080           0
   31996 WT2  1583 TIP3 OH2  OT    -0.834000       15.9994           0
   31997 WT2  1583 TIP3 H1   HT     0.417000        1.0080           0
   31998 WT2  1583 TIP3 H2   HT     0.417000        1.0080           0
   31999 WT2  1584 TIP3 OH2  OT    -0.834000       15.9994           0
   32000 WT2  1584 TIP3 H1   HT     0.417000        1.0080           0
   32001 WT2  1584 TIP3 H2   HT     0.417000        1.0080           0
   32002 WT2  1585 TIP3 OH2  OT    -0.834000       15.9994           0
   32003 WT2  1585 TIP3 H1   HT     0.417000        1.0080           0
   32004 WT2  1585 TIP3 H2   HT     0.417000        1.0080           0
   32005 WT2  1586 TIP3 OH2  OT    -0.834000       15.9994           0
   32006 WT2  1586 TIP3 H1   HT     0.417000        1.0080           0
   32007 WT2  1586 TIP3 H2   HT     0.417000        1.0080           0
   32008 WT2  1587 TIP3 OH2  OT    -0.834000       15.9994           0
   32009 WT2  1587 TIP3 H1   HT     0.417000        1.0080           0
   32010 WT2  1587 TIP3 H2   HT     0.417000        1.0080           0
   32011 WT2  1589 TIP3 OH2  OT    -0.834000       15.9994           0
   32012 WT2  1589 TIP3 H1   HT     0.417000        1.0080           0
   32013 WT2  1589 TIP3 H2   HT     0.417000        1.0080           0
   32014 WT2  1590 TIP3 OH2  OT    -0.834000       15.9994           0
   32015 WT2  1590 TIP3 H1   HT     0.417000        1.0080           0
   32016 WT2  1590 TIP3 H2   HT     0.417000        1.0080           0
   32017 WT2  1592 TIP3 OH2  OT    -0.834000       15.9994           0
   32018 WT2  1592 TIP3 H1   HT     0.417000        1.0080           0
   32019 WT2  1592 TIP3 H2   HT     0.417000        1.0080           0
   32020 WT2  1593 TIP3 OH2  OT    -0.834000       15.9994           0
   32021 WT2  1593 TIP3 H1   HT     0.417000        1.0080           0
   32022 WT2  1593 TIP3 H2   HT     0.417000        1.0080           0
   32023 WT2  1598 TIP3 OH2  OT    -0.834000       15.9994           0
   32024 WT2  1598 TIP3 H1   HT     0.417000        1.0080           0
   32025 WT2  1598 TIP3 H2   HT     0.417000        1.0080           0
   32026 WT2  1599 TIP3 OH2  OT    -0.834000       15.9994           0
   32027 WT2  1599 TIP3 H1   HT     0.417000        1.0080           0
   32028 WT2  1599 TIP3 H2   HT     0.417000        1.0080           0
   32029 WT2  1600 TIP3 OH2  OT    -0.834000       15.9994           0
   32030 WT2  1600 TIP3 H1   HT     0.417000        1.0080           0
   32031 WT2  1600 TIP3 H2   HT     0.417000        1.0080           0
   32032 WT2  1601 TIP3 OH2  OT    -0.834000       15.9994           0
   32033 WT2  1601 TIP3 H1   HT     0.417000        1.0080           0
   32034 WT2  1601 TIP3 H2   HT     0.417000        1.0080           0
   32035 WT2  1602 TIP3 OH2  OT    -0.834000       15.9994           0
   32036 WT2  1602 TIP3 H1   HT     0.417000        1.0080           0
   32037 WT2  1602 TIP3 H2   HT     0.417000        1.0080           0
   32038 WT2  1603 TIP3 OH2  OT    -0.834000       15.9994           0
   32039 WT2  1603 TIP3 H1   HT     0.417000        1.0080           0
   32040 WT2  1603 TIP3 H2   HT     0.417000        1.0080           0
   32041 WT2  1604 TIP3 OH2  OT    -0.834000       15.9994           0
   32042 WT2  1604 TIP3 H1   HT     0.417000        1.0080           0
   32043 WT2  1604 TIP3 H2   HT     0.417000        1.0080           0
   32044 WT2  1605 TIP3 OH2  OT    -0.834000       15.9994           0
   32045 WT2  1605 TIP3 H1   HT     0.417000        1.0080           0
   32046 WT2  1605 TIP3 H2   HT     0.417000        1.0080           0
   32047 WT2  1606 TIP3 OH2  OT    -0.834000       15.9994           0
   32048 WT2  1606 TIP3 H1   HT     0.417000        1.0080           0
   32049 WT2  1606 TIP3 H2   HT     0.417000        1.0080           0
   32050 WT2  1607 TIP3 OH2  OT    -0.834000       15.9994           0
   32051 WT2  1607 TIP3 H1   HT     0.417000        1.0080           0
   32052 WT2  1607 TIP3 H2   HT     0.417000        1.0080           0
   32053 WT2  1608 TIP3 OH2  OT    -0.834000       15.9994           0
   32054 WT2  1608 TIP3 H1   HT     0.417000        1.0080           0
   32055 WT2  1608 TIP3 H2   HT     0.417000        1.0080           0
   32056 WT2  1609 TIP3 OH2  OT    -0.834000       15.9994           0
   32057 WT2  1609 TIP3 H1   HT     0.417000        1.0080           0
   32058 WT2  1609 TIP3 H2   HT     0.417000        1.0080           0
   32059 WT2  1610 TIP3 OH2  OT    -0.834000       15.9994           0
   32060 WT2  1610 TIP3 H1   HT     0.417000        1.0080           0
   32061 WT2  1610 TIP3 H2   HT     0.417000        1.0080           0
   32062 WT2  1611 TIP3 OH2  OT    -0.834000       15.9994           0
   32063 WT2  1611 TIP3 H1   HT     0.417000        1.0080           0
   32064 WT2  1611 TIP3 H2   HT     0.417000        1.0080           0
   32065 WT2  1612 TIP3 OH2  OT    -0.834000       15.9994           0
   32066 WT2  1612 TIP3 H1   HT     0.417000        1.0080           0
   32067 WT2  1612 TIP3 H2   HT     0.417000        1.0080           0
   32068 WT2  1616 TIP3 OH2  OT    -0.834000       15.9994           0
   32069 WT2  1616 TIP3 H1   HT     0.417000        1.0080           0
   32070 WT2  1616 TIP3 H2   HT     0.417000        1.0080           0
   32071 WT2  1617 TIP3 OH2  OT    -0.834000       15.9994           0
   32072 WT2  1617 TIP3 H1   HT     0.417000        1.0080           0
   32073 WT2  1617 TIP3 H2   HT     0.417000        1.0080           0
   32074 WT2  1618 TIP3 OH2  OT    -0.834000       15.9994           0
   32075 WT2  1618 TIP3 H1   HT     0.417000        1.0080           0
   32076 WT2  1618 TIP3 H2   HT     0.417000        1.0080           0
   32077 WT2  1620 TIP3 OH2  OT    -0.834000       15.9994           0
   32078 WT2  1620 TIP3 H1   HT     0.417000        1.0080           0
   32079 WT2  1620 TIP3 H2   HT     0.417000        1.0080           0
   32080 WT2  1621 TIP3 OH2  OT    -0.834000       15.9994           0
   32081 WT2  1621 TIP3 H1   HT     0.417000        1.0080           0
   32082 WT2  1621 TIP3 H2   HT     0.417000        1.0080           0
   32083 WT2  1622 TIP3 OH2  OT    -0.834000       15.9994           0
   32084 WT2  1622 TIP3 H1   HT     0.417000        1.0080           0
   32085 WT2  1622 TIP3 H2   HT     0.417000        1.0080           0
   32086 WT2  1623 TIP3 OH2  OT    -0.834000       15.9994           0
   32087 WT2  1623 TIP3 H1   HT     0.417000        1.0080           0
   32088 WT2  1623 TIP3 H2   HT     0.417000        1.0080           0
   32089 WT2  1624 TIP3 OH2  OT    -0.834000       15.9994           0
   32090 WT2  1624 TIP3 H1   HT     0.417000        1.0080           0
   32091 WT2  1624 TIP3 H2   HT     0.417000        1.0080           0
   32092 WT2  1625 TIP3 OH2  OT    -0.834000       15.9994           0
   32093 WT2  1625 TIP3 H1   HT     0.417000        1.0080           0
   32094 WT2  1625 TIP3 H2   HT     0.417000        1.0080           0
   32095 WT2  1626 TIP3 OH2  OT    -0.834000       15.9994           0
   32096 WT2  1626 TIP3 H1   HT     0.417000        1.0080           0
   32097 WT2  1626 TIP3 H2   HT     0.417000        1.0080           0
   32098 WT2  1627 TIP3 OH2  OT    -0.834000       15.9994           0
   32099 WT2  1627 TIP3 H1   HT     0.417000        1.0080           0
   32100 WT2  1627 TIP3 H2   HT     0.417000        1.0080           0
   32101 WT2  1628 TIP3 OH2  OT    -0.834000       15.9994           0
   32102 WT2  1628 TIP3 H1   HT     0.417000        1.0080           0
   32103 WT2  1628 TIP3 H2   HT     0.417000        1.0080           0
   32104 WT2  1629 TIP3 OH2  OT    -0.834000       15.9994           0
   32105 WT2  1629 TIP3 H1   HT     0.417000        1.0080           0
   32106 WT2  1629 TIP3 H2   HT     0.417000        1.0080           0
   32107 WT2  1630 TIP3 OH2  OT    -0.834000       15.9994           0
   32108 WT2  1630 TIP3 H1   HT     0.417000        1.0080           0
   32109 WT2  1630 TIP3 H2   HT     0.417000        1.0080           0
   32110 WT2  1632 TIP3 OH2  OT    -0.834000       15.9994           0
   32111 WT2  1632 TIP3 H1   HT     0.417000        1.0080           0
   32112 WT2  1632 TIP3 H2   HT     0.417000        1.0080           0
   32113 WT2  1638 TIP3 OH2  OT    -0.834000       15.9994           0
   32114 WT2  1638 TIP3 H1   HT     0.417000        1.0080           0
   32115 WT2  1638 TIP3 H2   HT     0.417000        1.0080           0
   32116 WT2  1639 TIP3 OH2  OT    -0.834000       15.9994           0
   32117 WT2  1639 TIP3 H1   HT     0.417000        1.0080           0
   32118 WT2  1639 TIP3 H2   HT     0.417000        1.0080           0
   32119 WT2  1640 TIP3 OH2  OT    -0.834000       15.9994           0
   32120 WT2  1640 TIP3 H1   HT     0.417000        1.0080           0
   32121 WT2  1640 TIP3 H2   HT     0.417000        1.0080           0
   32122 WT2  1641 TIP3 OH2  OT    -0.834000       15.9994           0
   32123 WT2  1641 TIP3 H1   HT     0.417000        1.0080           0
   32124 WT2  1641 TIP3 H2   HT     0.417000        1.0080           0
   32125 WT2  1642 TIP3 OH2  OT    -0.834000       15.9994           0
   32126 WT2  1642 TIP3 H1   HT     0.417000        1.0080           0
   32127 WT2  1642 TIP3 H2   HT     0.417000        1.0080           0
   32128 WT2  1643 TIP3 OH2  OT    -0.834000       15.9994           0
   32129 WT2  1643 TIP3 H1   HT     0.417000        1.0080           0
   32130 WT2  1643 TIP3 H2   HT     0.417000        1.0080           0
   32131 WT2  1644 TIP3 OH2  OT    -0.834000       15.9994           0
   32132 WT2  1644 TIP3 H1   HT     0.417000        1.0080           0
   32133 WT2  1644 TIP3 H2   HT     0.417000        1.0080           0
   32134 WT2  1645 TIP3 OH2  OT    -0.834000       15.9994           0
   32135 WT2  1645 TIP3 H1   HT     0.417000        1.0080           0
   32136 WT2  1645 TIP3 H2   HT     0.417000        1.0080           0
   32137 WT2  1646 TIP3 OH2  OT    -0.834000       15.9994           0
   32138 WT2  1646 TIP3 H1   HT     0.417000        1.0080           0
   32139 WT2  1646 TIP3 H2   HT     0.417000        1.0080           0
   32140 WT2  1647 TIP3 OH2  OT    -0.834000       15.9994           0
   32141 WT2  1647 TIP3 H1   HT     0.417000        1.0080           0
   32142 WT2  1647 TIP3 H2   HT     0.417000        1.0080           0
   32143 WT2  1648 TIP3 OH2  OT    -0.834000       15.9994           0
   32144 WT2  1648 TIP3 H1   HT     0.417000        1.0080           0
   32145 WT2  1648 TIP3 H2   HT     0.417000        1.0080           0
   32146 WT2  1649 TIP3 OH2  OT    -0.834000       15.9994           0
   32147 WT2  1649 TIP3 H1   HT     0.417000        1.0080           0
   32148 WT2  1649 TIP3 H2   HT     0.417000        1.0080           0
   32149 WT2  1651 TIP3 OH2  OT    -0.834000       15.9994           0
   32150 WT2  1651 TIP3 H1   HT     0.417000        1.0080           0
   32151 WT2  1651 TIP3 H2   HT     0.417000        1.0080           0
   32152 WT2  1653 TIP3 OH2  OT    -0.834000       15.9994           0
   32153 WT2  1653 TIP3 H1   HT     0.417000        1.0080           0
   32154 WT2  1653 TIP3 H2   HT     0.417000        1.0080           0
   32155 WT2  1656 TIP3 OH2  OT    -0.834000       15.9994           0
   32156 WT2  1656 TIP3 H1   HT     0.417000        1.0080           0
   32157 WT2  1656 TIP3 H2   HT     0.417000        1.0080           0
   32158 WT2  1658 TIP3 OH2  OT    -0.834000       15.9994           0
   32159 WT2  1658 TIP3 H1   HT     0.417000        1.0080           0
   32160 WT2  1658 TIP3 H2   HT     0.417000        1.0080           0
   32161 WT2  1659 TIP3 OH2  OT    -0.834000       15.9994           0
   32162 WT2  1659 TIP3 H1   HT     0.417000        1.0080           0
   32163 WT2  1659 TIP3 H2   HT     0.417000        1.0080           0
   32164 WT2  1661 TIP3 OH2  OT    -0.834000       15.9994           0
   32165 WT2  1661 TIP3 H1   HT     0.417000        1.0080           0
   32166 WT2  1661 TIP3 H2   HT     0.417000        1.0080           0
   32167 WT2  1662 TIP3 OH2  OT    -0.834000       15.9994           0
   32168 WT2  1662 TIP3 H1   HT     0.417000        1.0080           0
   32169 WT2  1662 TIP3 H2   HT     0.417000        1.0080           0
   32170 WT2  1663 TIP3 OH2  OT    -0.834000       15.9994           0
   32171 WT2  1663 TIP3 H1   HT     0.417000        1.0080           0
   32172 WT2  1663 TIP3 H2   HT     0.417000        1.0080           0
   32173 WT2  1664 TIP3 OH2  OT    -0.834000       15.9994           0
   32174 WT2  1664 TIP3 H1   HT     0.417000        1.0080           0
   32175 WT2  1664 TIP3 H2   HT     0.417000        1.0080           0
   32176 WT2  1665 TIP3 OH2  OT    -0.834000       15.9994           0
   32177 WT2  1665 TIP3 H1   HT     0.417000        1.0080           0
   32178 WT2  1665 TIP3 H2   HT     0.417000        1.0080           0
   32179 WT2  1666 TIP3 OH2  OT    -0.834000       15.9994           0
   32180 WT2  1666 TIP3 H1   HT     0.417000        1.0080           0
   32181 WT2  1666 TIP3 H2   HT     0.417000        1.0080           0
   32182 WT2  1667 TIP3 OH2  OT    -0.834000       15.9994           0
   32183 WT2  1667 TIP3 H1   HT     0.417000        1.0080           0
   32184 WT2  1667 TIP3 H2   HT     0.417000        1.0080           0
   32185 WT2  1668 TIP3 OH2  OT    -0.834000       15.9994           0
   32186 WT2  1668 TIP3 H1   HT     0.417000        1.0080           0
   32187 WT2  1668 TIP3 H2   HT     0.417000        1.0080           0
   32188 WT2  1669 TIP3 OH2  OT    -0.834000       15.9994           0
   32189 WT2  1669 TIP3 H1   HT     0.417000        1.0080           0
   32190 WT2  1669 TIP3 H2   HT     0.417000        1.0080           0
   32191 WT2  1670 TIP3 OH2  OT    -0.834000       15.9994           0
   32192 WT2  1670 TIP3 H1   HT     0.417000        1.0080           0
   32193 WT2  1670 TIP3 H2   HT     0.417000        1.0080           0
   32194 WT2  1671 TIP3 OH2  OT    -0.834000       15.9994           0
   32195 WT2  1671 TIP3 H1   HT     0.417000        1.0080           0
   32196 WT2  1671 TIP3 H2   HT     0.417000        1.0080           0
   32197 WT2  1672 TIP3 OH2  OT    -0.834000       15.9994           0
   32198 WT2  1672 TIP3 H1   HT     0.417000        1.0080           0
   32199 WT2  1672 TIP3 H2   HT     0.417000        1.0080           0
   32200 WT2  1674 TIP3 OH2  OT    -0.834000       15.9994           0
   32201 WT2  1674 TIP3 H1   HT     0.417000        1.0080           0
   32202 WT2  1674 TIP3 H2   HT     0.417000        1.0080           0
   32203 WT2  1681 TIP3 OH2  OT    -0.834000       15.9994           0
   32204 WT2  1681 TIP3 H1   HT     0.417000        1.0080           0
   32205 WT2  1681 TIP3 H2   HT     0.417000        1.0080           0
   32206 WT2  1683 TIP3 OH2  OT    -0.834000       15.9994           0
   32207 WT2  1683 TIP3 H1   HT     0.417000        1.0080           0
   32208 WT2  1683 TIP3 H2   HT     0.417000        1.0080           0
   32209 WT2  1684 TIP3 OH2  OT    -0.834000       15.9994           0
   32210 WT2  1684 TIP3 H1   HT     0.417000        1.0080           0
   32211 WT2  1684 TIP3 H2   HT     0.417000        1.0080           0
   32212 WT2  1685 TIP3 OH2  OT    -0.834000       15.9994           0
   32213 WT2  1685 TIP3 H1   HT     0.417000        1.0080           0
   32214 WT2  1685 TIP3 H2   HT     0.417000        1.0080           0
   32215 WT2  1686 TIP3 OH2  OT    -0.834000       15.9994           0
   32216 WT2  1686 TIP3 H1   HT     0.417000        1.0080           0
   32217 WT2  1686 TIP3 H2   HT     0.417000        1.0080           0
   32218 WT2  1687 TIP3 OH2  OT    -0.834000       15.9994           0
   32219 WT2  1687 TIP3 H1   HT     0.417000        1.0080           0
   32220 WT2  1687 TIP3 H2   HT     0.417000        1.0080           0
   32221 WT2  1688 TIP3 OH2  OT    -0.834000       15.9994           0
   32222 WT2  1688 TIP3 H1   HT     0.417000        1.0080           0
   32223 WT2  1688 TIP3 H2   HT     0.417000        1.0080           0
   32224 WT2  1689 TIP3 OH2  OT    -0.834000       15.9994           0
   32225 WT2  1689 TIP3 H1   HT     0.417000        1.0080           0
   32226 WT2  1689 TIP3 H2   HT     0.417000        1.0080           0
   32227 WT2  1690 TIP3 OH2  OT    -0.834000       15.9994           0
   32228 WT2  1690 TIP3 H1   HT     0.417000        1.0080           0
   32229 WT2  1690 TIP3 H2   HT     0.417000        1.0080           0
   32230 WT2  1691 TIP3 OH2  OT    -0.834000       15.9994           0
   32231 WT2  1691 TIP3 H1   HT     0.417000        1.0080           0
   32232 WT2  1691 TIP3 H2   HT     0.417000        1.0080           0
   32233 WT2  1692 TIP3 OH2  OT    -0.834000       15.9994           0
   32234 WT2  1692 TIP3 H1   HT     0.417000        1.0080           0
   32235 WT2  1692 TIP3 H2   HT     0.417000        1.0080           0
   32236 WT2  1693 TIP3 OH2  OT    -0.834000       15.9994           0
   32237 WT2  1693 TIP3 H1   HT     0.417000        1.0080           0
   32238 WT2  1693 TIP3 H2   HT     0.417000        1.0080           0
   32239 WT2  1695 TIP3 OH2  OT    -0.834000       15.9994           0
   32240 WT2  1695 TIP3 H1   HT     0.417000        1.0080           0
   32241 WT2  1695 TIP3 H2   HT     0.417000        1.0080           0
   32242 WT2  1696 TIP3 OH2  OT    -0.834000       15.9994           0
   32243 WT2  1696 TIP3 H1   HT     0.417000        1.0080           0
   32244 WT2  1696 TIP3 H2   HT     0.417000        1.0080           0
   32245 WT2  1701 TIP3 OH2  OT    -0.834000       15.9994           0
   32246 WT2  1701 TIP3 H1   HT     0.417000        1.0080           0
   32247 WT2  1701 TIP3 H2   HT     0.417000        1.0080           0
   32248 WT2  1702 TIP3 OH2  OT    -0.834000       15.9994           0
   32249 WT2  1702 TIP3 H1   HT     0.417000        1.0080           0
   32250 WT2  1702 TIP3 H2   HT     0.417000        1.0080           0
   32251 WT2  1704 TIP3 OH2  OT    -0.834000       15.9994           0
   32252 WT2  1704 TIP3 H1   HT     0.417000        1.0080           0
   32253 WT2  1704 TIP3 H2   HT     0.417000        1.0080           0
   32254 WT2  1706 TIP3 OH2  OT    -0.834000       15.9994           0
   32255 WT2  1706 TIP3 H1   HT     0.417000        1.0080           0
   32256 WT2  1706 TIP3 H2   HT     0.417000        1.0080           0
   32257 WT2  1707 TIP3 OH2  OT    -0.834000       15.9994           0
   32258 WT2  1707 TIP3 H1   HT     0.417000        1.0080           0
   32259 WT2  1707 TIP3 H2   HT     0.417000        1.0080           0
   32260 WT2  1708 TIP3 OH2  OT    -0.834000       15.9994           0
   32261 WT2  1708 TIP3 H1   HT     0.417000        1.0080           0
   32262 WT2  1708 TIP3 H2   HT     0.417000        1.0080           0
   32263 WT2  1709 TIP3 OH2  OT    -0.834000       15.9994           0
   32264 WT2  1709 TIP3 H1   HT     0.417000        1.0080           0
   32265 WT2  1709 TIP3 H2   HT     0.417000        1.0080           0
   32266 WT2  1710 TIP3 OH2  OT    -0.834000       15.9994           0
   32267 WT2  1710 TIP3 H1   HT     0.417000        1.0080           0
   32268 WT2  1710 TIP3 H2   HT     0.417000        1.0080           0
   32269 WT2  1711 TIP3 OH2  OT    -0.834000       15.9994           0
   32270 WT2  1711 TIP3 H1   HT     0.417000        1.0080           0
   32271 WT2  1711 TIP3 H2   HT     0.417000        1.0080           0
   32272 WT2  1713 TIP3 OH2  OT    -0.834000       15.9994           0
   32273 WT2  1713 TIP3 H1   HT     0.417000        1.0080           0
   32274 WT2  1713 TIP3 H2   HT     0.417000        1.0080           0
   32275 WT2  1716 TIP3 OH2  OT    -0.834000       15.9994           0
   32276 WT2  1716 TIP3 H1   HT     0.417000        1.0080           0
   32277 WT2  1716 TIP3 H2   HT     0.417000        1.0080           0
   32278 WT2  1718 TIP3 OH2  OT    -0.834000       15.9994           0
   32279 WT2  1718 TIP3 H1   HT     0.417000        1.0080           0
   32280 WT2  1718 TIP3 H2   HT     0.417000        1.0080           0
   32281 WT2  1719 TIP3 OH2  OT    -0.834000       15.9994           0
   32282 WT2  1719 TIP3 H1   HT     0.417000        1.0080           0
   32283 WT2  1719 TIP3 H2   HT     0.417000        1.0080           0
   32284 WT2  1722 TIP3 OH2  OT    -0.834000       15.9994           0
   32285 WT2  1722 TIP3 H1   HT     0.417000        1.0080           0
   32286 WT2  1722 TIP3 H2   HT     0.417000        1.0080           0
   32287 WT2  1723 TIP3 OH2  OT    -0.834000       15.9994           0
   32288 WT2  1723 TIP3 H1   HT     0.417000        1.0080           0
   32289 WT2  1723 TIP3 H2   HT     0.417000        1.0080           0
   32290 WT2  1725 TIP3 OH2  OT    -0.834000       15.9994           0
   32291 WT2  1725 TIP3 H1   HT     0.417000        1.0080           0
   32292 WT2  1725 TIP3 H2   HT     0.417000        1.0080           0
   32293 WT2  1726 TIP3 OH2  OT    -0.834000       15.9994           0
   32294 WT2  1726 TIP3 H1   HT     0.417000        1.0080           0
   32295 WT2  1726 TIP3 H2   HT     0.417000        1.0080           0
   32296 WT2  1727 TIP3 OH2  OT    -0.834000       15.9994           0
   32297 WT2  1727 TIP3 H1   HT     0.417000        1.0080           0
   32298 WT2  1727 TIP3 H2   HT     0.417000        1.0080           0
   32299 WT2  1728 TIP3 OH2  OT    -0.834000       15.9994           0
   32300 WT2  1728 TIP3 H1   HT     0.417000        1.0080           0
   32301 WT2  1728 TIP3 H2   HT     0.417000        1.0080           0
   32302 WT2  1729 TIP3 OH2  OT    -0.834000       15.9994           0
   32303 WT2  1729 TIP3 H1   HT     0.417000        1.0080           0
   32304 WT2  1729 TIP3 H2   HT     0.417000        1.0080           0
   32305 WT2  1730 TIP3 OH2  OT    -0.834000       15.9994           0
   32306 WT2  1730 TIP3 H1   HT     0.417000        1.0080           0
   32307 WT2  1730 TIP3 H2   HT     0.417000        1.0080           0
   32308 WT2  1731 TIP3 OH2  OT    -0.834000       15.9994           0
   32309 WT2  1731 TIP3 H1   HT     0.417000        1.0080           0
   32310 WT2  1731 TIP3 H2   HT     0.417000        1.0080           0
   32311 WT2  1732 TIP3 OH2  OT    -0.834000       15.9994           0
   32312 WT2  1732 TIP3 H1   HT     0.417000        1.0080           0
   32313 WT2  1732 TIP3 H2   HT     0.417000        1.0080           0
   32314 WT2  1733 TIP3 OH2  OT    -0.834000       15.9994           0
   32315 WT2  1733 TIP3 H1   HT     0.417000        1.0080           0
   32316 WT2  1733 TIP3 H2   HT     0.417000        1.0080           0
   32317 WT2  1734 TIP3 OH2  OT    -0.834000       15.9994           0
   32318 WT2  1734 TIP3 H1   HT     0.417000        1.0080           0
   32319 WT2  1734 TIP3 H2   HT     0.417000        1.0080           0
   32320 WT2  1735 TIP3 OH2  OT    -0.834000       15.9994           0
   32321 WT2  1735 TIP3 H1   HT     0.417000        1.0080           0
   32322 WT2  1735 TIP3 H2   HT     0.417000        1.0080           0
   32323 WT2  1737 TIP3 OH2  OT    -0.834000       15.9994           0
   32324 WT2  1737 TIP3 H1   HT     0.417000        1.0080           0
   32325 WT2  1737 TIP3 H2   HT     0.417000        1.0080           0
   32326 WT2  1738 TIP3 OH2  OT    -0.834000       15.9994           0
   32327 WT2  1738 TIP3 H1   HT     0.417000        1.0080           0
   32328 WT2  1738 TIP3 H2   HT     0.417000        1.0080           0
   32329 WT2  1744 TIP3 OH2  OT    -0.834000       15.9994           0
   32330 WT2  1744 TIP3 H1   HT     0.417000        1.0080           0
   32331 WT2  1744 TIP3 H2   HT     0.417000        1.0080           0
   32332 WT2  1746 TIP3 OH2  OT    -0.834000       15.9994           0
   32333 WT2  1746 TIP3 H1   HT     0.417000        1.0080           0
   32334 WT2  1746 TIP3 H2   HT     0.417000        1.0080           0
   32335 WT2  1747 TIP3 OH2  OT    -0.834000       15.9994           0
   32336 WT2  1747 TIP3 H1   HT     0.417000        1.0080           0
   32337 WT2  1747 TIP3 H2   HT     0.417000        1.0080           0
   32338 WT2  1748 TIP3 OH2  OT    -0.834000       15.9994           0
   32339 WT2  1748 TIP3 H1   HT     0.417000        1.0080           0
   32340 WT2  1748 TIP3 H2   HT     0.417000        1.0080           0
   32341 WT2  1749 TIP3 OH2  OT    -0.834000       15.9994           0
   32342 WT2  1749 TIP3 H1   HT     0.417000        1.0080           0
   32343 WT2  1749 TIP3 H2   HT     0.417000        1.0080           0
   32344 WT2  1750 TIP3 OH2  OT    -0.834000       15.9994           0
   32345 WT2  1750 TIP3 H1   HT     0.417000        1.0080           0
   32346 WT2  1750 TIP3 H2   HT     0.417000        1.0080           0
   32347 WT2  1751 TIP3 OH2  OT    -0.834000       15.9994           0
   32348 WT2  1751 TIP3 H1   HT     0.417000        1.0080           0
   32349 WT2  1751 TIP3 H2   HT     0.417000        1.0080           0
   32350 WT2  1752 TIP3 OH2  OT    -0.834000       15.9994           0
   32351 WT2  1752 TIP3 H1   HT     0.417000        1.0080           0
   32352 WT2  1752 TIP3 H2   HT     0.417000        1.0080           0
   32353 WT2  1754 TIP3 OH2  OT    -0.834000       15.9994           0
   32354 WT2  1754 TIP3 H1   HT     0.417000        1.0080           0
   32355 WT2  1754 TIP3 H2   HT     0.417000        1.0080           0
   32356 WT2  1755 TIP3 OH2  OT    -0.834000       15.9994           0
   32357 WT2  1755 TIP3 H1   HT     0.417000        1.0080           0
   32358 WT2  1755 TIP3 H2   HT     0.417000        1.0080           0
   32359 WT2  1757 TIP3 OH2  OT    -0.834000       15.9994           0
   32360 WT2  1757 TIP3 H1   HT     0.417000        1.0080           0
   32361 WT2  1757 TIP3 H2   HT     0.417000        1.0080           0
   32362 WT2  1764 TIP3 OH2  OT    -0.834000       15.9994           0
   32363 WT2  1764 TIP3 H1   HT     0.417000        1.0080           0
   32364 WT2  1764 TIP3 H2   HT     0.417000        1.0080           0
   32365 WT2  1766 TIP3 OH2  OT    -0.834000       15.9994           0
   32366 WT2  1766 TIP3 H1   HT     0.417000        1.0080           0
   32367 WT2  1766 TIP3 H2   HT     0.417000        1.0080           0
   32368 WT2  1767 TIP3 OH2  OT    -0.834000       15.9994           0
   32369 WT2  1767 TIP3 H1   HT     0.417000        1.0080           0
   32370 WT2  1767 TIP3 H2   HT     0.417000        1.0080           0
   32371 WT2  1768 TIP3 OH2  OT    -0.834000       15.9994           0
   32372 WT2  1768 TIP3 H1   HT     0.417000        1.0080           0
   32373 WT2  1768 TIP3 H2   HT     0.417000        1.0080           0
   32374 WT2  1769 TIP3 OH2  OT    -0.834000       15.9994           0
   32375 WT2  1769 TIP3 H1   HT     0.417000        1.0080           0
   32376 WT2  1769 TIP3 H2   HT     0.417000        1.0080           0
   32377 WT2  1770 TIP3 OH2  OT    -0.834000       15.9994           0
   32378 WT2  1770 TIP3 H1   HT     0.417000        1.0080           0
   32379 WT2  1770 TIP3 H2   HT     0.417000        1.0080           0
   32380 WT2  1771 TIP3 OH2  OT    -0.834000       15.9994           0
   32381 WT2  1771 TIP3 H1   HT     0.417000        1.0080           0
   32382 WT2  1771 TIP3 H2   HT     0.417000        1.0080           0
   32383 WT2  1772 TIP3 OH2  OT    -0.834000       15.9994           0
   32384 WT2  1772 TIP3 H1   HT     0.417000        1.0080           0
   32385 WT2  1772 TIP3 H2   HT     0.417000        1.0080           0
   32386 WT2  1773 TIP3 OH2  OT    -0.834000       15.9994           0
   32387 WT2  1773 TIP3 H1   HT     0.417000        1.0080           0
   32388 WT2  1773 TIP3 H2   HT     0.417000        1.0080           0
   32389 WT2  1774 TIP3 OH2  OT    -0.834000       15.9994           0
   32390 WT2  1774 TIP3 H1   HT     0.417000        1.0080           0
   32391 WT2  1774 TIP3 H2   HT     0.417000        1.0080           0
   32392 WT2  1775 TIP3 OH2  OT    -0.834000       15.9994           0
   32393 WT2  1775 TIP3 H1   HT     0.417000        1.0080           0
   32394 WT2  1775 TIP3 H2   HT     0.417000        1.0080           0
   32395 WT2  1776 TIP3 OH2  OT    -0.834000       15.9994           0
   32396 WT2  1776 TIP3 H1   HT     0.417000        1.0080           0
   32397 WT2  1776 TIP3 H2   HT     0.417000        1.0080           0
   32398 WT2  1777 TIP3 OH2  OT    -0.834000       15.9994           0
   32399 WT2  1777 TIP3 H1   HT     0.417000        1.0080           0
   32400 WT2  1777 TIP3 H2   HT     0.417000        1.0080           0
   32401 WT2  1778 TIP3 OH2  OT    -0.834000       15.9994           0
   32402 WT2  1778 TIP3 H1   HT     0.417000        1.0080           0
   32403 WT2  1778 TIP3 H2   HT     0.417000        1.0080           0
   32404 WT2  1780 TIP3 OH2  OT    -0.834000       15.9994           0
   32405 WT2  1780 TIP3 H1   HT     0.417000        1.0080           0
   32406 WT2  1780 TIP3 H2   HT     0.417000        1.0080           0
   32407 WT2  1784 TIP3 OH2  OT    -0.834000       15.9994           0
   32408 WT2  1784 TIP3 H1   HT     0.417000        1.0080           0
   32409 WT2  1784 TIP3 H2   HT     0.417000        1.0080           0
   32410 WT2  1785 TIP3 OH2  OT    -0.834000       15.9994           0
   32411 WT2  1785 TIP3 H1   HT     0.417000        1.0080           0
   32412 WT2  1785 TIP3 H2   HT     0.417000        1.0080           0
   32413 WT2  1788 TIP3 OH2  OT    -0.834000       15.9994           0
   32414 WT2  1788 TIP3 H1   HT     0.417000        1.0080           0
   32415 WT2  1788 TIP3 H2   HT     0.417000        1.0080           0
   32416 WT2  1789 TIP3 OH2  OT    -0.834000       15.9994           0
   32417 WT2  1789 TIP3 H1   HT     0.417000        1.0080           0
   32418 WT2  1789 TIP3 H2   HT     0.417000        1.0080           0
   32419 WT2  1790 TIP3 OH2  OT    -0.834000       15.9994           0
   32420 WT2  1790 TIP3 H1   HT     0.417000        1.0080           0
   32421 WT2  1790 TIP3 H2   HT     0.417000        1.0080           0
   32422 WT2  1791 TIP3 OH2  OT    -0.834000       15.9994           0
   32423 WT2  1791 TIP3 H1   HT     0.417000        1.0080           0
   32424 WT2  1791 TIP3 H2   HT     0.417000        1.0080           0
   32425 WT2  1792 TIP3 OH2  OT    -0.834000       15.9994           0
   32426 WT2  1792 TIP3 H1   HT     0.417000        1.0080           0
   32427 WT2  1792 TIP3 H2   HT     0.417000        1.0080           0
   32428 WT2  1793 TIP3 OH2  OT    -0.834000       15.9994           0
   32429 WT2  1793 TIP3 H1   HT     0.417000        1.0080           0
   32430 WT2  1793 TIP3 H2   HT     0.417000        1.0080           0
   32431 WT2  1794 TIP3 OH2  OT    -0.834000       15.9994           0
   32432 WT2  1794 TIP3 H1   HT     0.417000        1.0080           0
   32433 WT2  1794 TIP3 H2   HT     0.417000        1.0080           0
   32434 WT2  1795 TIP3 OH2  OT    -0.834000       15.9994           0
   32435 WT2  1795 TIP3 H1   HT     0.417000        1.0080           0
   32436 WT2  1795 TIP3 H2   HT     0.417000        1.0080           0
   32437 WT2  1796 TIP3 OH2  OT    -0.834000       15.9994           0
   32438 WT2  1796 TIP3 H1   HT     0.417000        1.0080           0
   32439 WT2  1796 TIP3 H2   HT     0.417000        1.0080           0
   32440 WT2  1797 TIP3 OH2  OT    -0.834000       15.9994           0
   32441 WT2  1797 TIP3 H1   HT     0.417000        1.0080           0
   32442 WT2  1797 TIP3 H2   HT     0.417000        1.0080           0
   32443 WT2  1798 TIP3 OH2  OT    -0.834000       15.9994           0
   32444 WT2  1798 TIP3 H1   HT     0.417000        1.0080           0
   32445 WT2  1798 TIP3 H2   HT     0.417000        1.0080           0
   32446 WT2  1799 TIP3 OH2  OT    -0.834000       15.9994           0
   32447 WT2  1799 TIP3 H1   HT     0.417000        1.0080           0
   32448 WT2  1799 TIP3 H2   HT     0.417000        1.0080           0
   32449 WT2  1808 TIP3 OH2  OT    -0.834000       15.9994           0
   32450 WT2  1808 TIP3 H1   HT     0.417000        1.0080           0
   32451 WT2  1808 TIP3 H2   HT     0.417000        1.0080           0
   32452 WT2  1810 TIP3 OH2  OT    -0.834000       15.9994           0
   32453 WT2  1810 TIP3 H1   HT     0.417000        1.0080           0
   32454 WT2  1810 TIP3 H2   HT     0.417000        1.0080           0
   32455 WT2  1811 TIP3 OH2  OT    -0.834000       15.9994           0
   32456 WT2  1811 TIP3 H1   HT     0.417000        1.0080           0
   32457 WT2  1811 TIP3 H2   HT     0.417000        1.0080           0
   32458 WT2  1812 TIP3 OH2  OT    -0.834000       15.9994           0
   32459 WT2  1812 TIP3 H1   HT     0.417000        1.0080           0
   32460 WT2  1812 TIP3 H2   HT     0.417000        1.0080           0
   32461 WT2  1813 TIP3 OH2  OT    -0.834000       15.9994           0
   32462 WT2  1813 TIP3 H1   HT     0.417000        1.0080           0
   32463 WT2  1813 TIP3 H2   HT     0.417000        1.0080           0
   32464 WT2  1814 TIP3 OH2  OT    -0.834000       15.9994           0
   32465 WT2  1814 TIP3 H1   HT     0.417000        1.0080           0
   32466 WT2  1814 TIP3 H2   HT     0.417000        1.0080           0
   32467 WT2  1815 TIP3 OH2  OT    -0.834000       15.9994           0
   32468 WT2  1815 TIP3 H1   HT     0.417000        1.0080           0
   32469 WT2  1815 TIP3 H2   HT     0.417000        1.0080           0
   32470 WT2  1816 TIP3 OH2  OT    -0.834000       15.9994           0
   32471 WT2  1816 TIP3 H1   HT     0.417000        1.0080           0
   32472 WT2  1816 TIP3 H2   HT     0.417000        1.0080           0
   32473 WT2  1817 TIP3 OH2  OT    -0.834000       15.9994           0
   32474 WT2  1817 TIP3 H1   HT     0.417000        1.0080           0
   32475 WT2  1817 TIP3 H2   HT     0.417000        1.0080           0
   32476 WT2  1818 TIP3 OH2  OT    -0.834000       15.9994           0
   32477 WT2  1818 TIP3 H1   HT     0.417000        1.0080           0
   32478 WT2  1818 TIP3 H2   HT     0.417000        1.0080           0
   32479 WT2  1820 TIP3 OH2  OT    -0.834000       15.9994           0
   32480 WT2  1820 TIP3 H1   HT     0.417000        1.0080           0
   32481 WT2  1820 TIP3 H2   HT     0.417000        1.0080           0
   32482 WT2  1821 TIP3 OH2  OT    -0.834000       15.9994           0
   32483 WT2  1821 TIP3 H1   HT     0.417000        1.0080           0
   32484 WT2  1821 TIP3 H2   HT     0.417000        1.0080           0
   32485 WT2  1824 TIP3 OH2  OT    -0.834000       15.9994           0
   32486 WT2  1824 TIP3 H1   HT     0.417000        1.0080           0
   32487 WT2  1824 TIP3 H2   HT     0.417000        1.0080           0
   32488 WT2  1826 TIP3 OH2  OT    -0.834000       15.9994           0
   32489 WT2  1826 TIP3 H1   HT     0.417000        1.0080           0
   32490 WT2  1826 TIP3 H2   HT     0.417000        1.0080           0
   32491 WT2  1829 TIP3 OH2  OT    -0.834000       15.9994           0
   32492 WT2  1829 TIP3 H1   HT     0.417000        1.0080           0
   32493 WT2  1829 TIP3 H2   HT     0.417000        1.0080           0
   32494 WT2  1830 TIP3 OH2  OT    -0.834000       15.9994           0
   32495 WT2  1830 TIP3 H1   HT     0.417000        1.0080           0
   32496 WT2  1830 TIP3 H2   HT     0.417000        1.0080           0
   32497 WT2  1831 TIP3 OH2  OT    -0.834000       15.9994           0
   32498 WT2  1831 TIP3 H1   HT     0.417000        1.0080           0
   32499 WT2  1831 TIP3 H2   HT     0.417000        1.0080           0
   32500 WT2  1832 TIP3 OH2  OT    -0.834000       15.9994           0
   32501 WT2  1832 TIP3 H1   HT     0.417000        1.0080           0
   32502 WT2  1832 TIP3 H2   HT     0.417000        1.0080           0
   32503 WT2  1833 TIP3 OH2  OT    -0.834000       15.9994           0
   32504 WT2  1833 TIP3 H1   HT     0.417000        1.0080           0
   32505 WT2  1833 TIP3 H2   HT     0.417000        1.0080           0
   32506 WT2  1835 TIP3 OH2  OT    -0.834000       15.9994           0
   32507 WT2  1835 TIP3 H1   HT     0.417000        1.0080           0
   32508 WT2  1835 TIP3 H2   HT     0.417000        1.0080           0
   32509 WT2  1836 TIP3 OH2  OT    -0.834000       15.9994           0
   32510 WT2  1836 TIP3 H1   HT     0.417000        1.0080           0
   32511 WT2  1836 TIP3 H2   HT     0.417000        1.0080           0
   32512 WT2  1837 TIP3 OH2  OT    -0.834000       15.9994           0
   32513 WT2  1837 TIP3 H1   HT     0.417000        1.0080           0
   32514 WT2  1837 TIP3 H2   HT     0.417000        1.0080           0
   32515 WT2  1838 TIP3 OH2  OT    -0.834000       15.9994           0
   32516 WT2  1838 TIP3 H1   HT     0.417000        1.0080           0
   32517 WT2  1838 TIP3 H2   HT     0.417000        1.0080           0
   32518 WT2  1839 TIP3 OH2  OT    -0.834000       15.9994           0
   32519 WT2  1839 TIP3 H1   HT     0.417000        1.0080           0
   32520 WT2  1839 TIP3 H2   HT     0.417000        1.0080           0
   32521 WT2  1840 TIP3 OH2  OT    -0.834000       15.9994           0
   32522 WT2  1840 TIP3 H1   HT     0.417000        1.0080           0
   32523 WT2  1840 TIP3 H2   HT     0.417000        1.0080           0
   32524 WT2  1841 TIP3 OH2  OT    -0.834000       15.9994           0
   32525 WT2  1841 TIP3 H1   HT     0.417000        1.0080           0
   32526 WT2  1841 TIP3 H2   HT     0.417000        1.0080           0
   32527 WT2  1844 TIP3 OH2  OT    -0.834000       15.9994           0
   32528 WT2  1844 TIP3 H1   HT     0.417000        1.0080           0
   32529 WT2  1844 TIP3 H2   HT     0.417000        1.0080           0
   32530 WT2  1847 TIP3 OH2  OT    -0.834000       15.9994           0
   32531 WT2  1847 TIP3 H1   HT     0.417000        1.0080           0
   32532 WT2  1847 TIP3 H2   HT     0.417000        1.0080           0
   32533 WT2  1850 TIP3 OH2  OT    -0.834000       15.9994           0
   32534 WT2  1850 TIP3 H1   HT     0.417000        1.0080           0
   32535 WT2  1850 TIP3 H2   HT     0.417000        1.0080           0
   32536 WT2  1851 TIP3 OH2  OT    -0.834000       15.9994           0
   32537 WT2  1851 TIP3 H1   HT     0.417000        1.0080           0
   32538 WT2  1851 TIP3 H2   HT     0.417000        1.0080           0
   32539 WT2  1852 TIP3 OH2  OT    -0.834000       15.9994           0
   32540 WT2  1852 TIP3 H1   HT     0.417000        1.0080           0
   32541 WT2  1852 TIP3 H2   HT     0.417000        1.0080           0
   32542 WT2  1853 TIP3 OH2  OT    -0.834000       15.9994           0
   32543 WT2  1853 TIP3 H1   HT     0.417000        1.0080           0
   32544 WT2  1853 TIP3 H2   HT     0.417000        1.0080           0
   32545 WT2  1854 TIP3 OH2  OT    -0.834000       15.9994           0
   32546 WT2  1854 TIP3 H1   HT     0.417000        1.0080           0
   32547 WT2  1854 TIP3 H2   HT     0.417000        1.0080           0
   32548 WT2  1855 TIP3 OH2  OT    -0.834000       15.9994           0
   32549 WT2  1855 TIP3 H1   HT     0.417000        1.0080           0
   32550 WT2  1855 TIP3 H2   HT     0.417000        1.0080           0
   32551 WT2  1856 TIP3 OH2  OT    -0.834000       15.9994           0
   32552 WT2  1856 TIP3 H1   HT     0.417000        1.0080           0
   32553 WT2  1856 TIP3 H2   HT     0.417000        1.0080           0
   32554 WT2  1857 TIP3 OH2  OT    -0.834000       15.9994           0
   32555 WT2  1857 TIP3 H1   HT     0.417000        1.0080           0
   32556 WT2  1857 TIP3 H2   HT     0.417000        1.0080           0
   32557 WT2  1859 TIP3 OH2  OT    -0.834000       15.9994           0
   32558 WT2  1859 TIP3 H1   HT     0.417000        1.0080           0
   32559 WT2  1859 TIP3 H2   HT     0.417000        1.0080           0
   32560 WT2  1860 TIP3 OH2  OT    -0.834000       15.9994           0
   32561 WT2  1860 TIP3 H1   HT     0.417000        1.0080           0
   32562 WT2  1860 TIP3 H2   HT     0.417000        1.0080           0
   32563 WT2  1861 TIP3 OH2  OT    -0.834000       15.9994           0
   32564 WT2  1861 TIP3 H1   HT     0.417000        1.0080           0
   32565 WT2  1861 TIP3 H2   HT     0.417000        1.0080           0
   32566 WT2  1864 TIP3 OH2  OT    -0.834000       15.9994           0
   32567 WT2  1864 TIP3 H1   HT     0.417000        1.0080           0
   32568 WT2  1864 TIP3 H2   HT     0.417000        1.0080           0
   32569 WT2  1866 TIP3 OH2  OT    -0.834000       15.9994           0
   32570 WT2  1866 TIP3 H1   HT     0.417000        1.0080           0
   32571 WT2  1866 TIP3 H2   HT     0.417000        1.0080           0
   32572 WT2  1870 TIP3 OH2  OT    -0.834000       15.9994           0
   32573 WT2  1870 TIP3 H1   HT     0.417000        1.0080           0
   32574 WT2  1870 TIP3 H2   HT     0.417000        1.0080           0
   32575 WT2  1871 TIP3 OH2  OT    -0.834000       15.9994           0
   32576 WT2  1871 TIP3 H1   HT     0.417000        1.0080           0
   32577 WT2  1871 TIP3 H2   HT     0.417000        1.0080           0
   32578 WT2  1872 TIP3 OH2  OT    -0.834000       15.9994           0
   32579 WT2  1872 TIP3 H1   HT     0.417000        1.0080           0
   32580 WT2  1872 TIP3 H2   HT     0.417000        1.0080           0
   32581 WT2  1873 TIP3 OH2  OT    -0.834000       15.9994           0
   32582 WT2  1873 TIP3 H1   HT     0.417000        1.0080           0
   32583 WT2  1873 TIP3 H2   HT     0.417000        1.0080           0
   32584 WT2  1874 TIP3 OH2  OT    -0.834000       15.9994           0
   32585 WT2  1874 TIP3 H1   HT     0.417000        1.0080           0
   32586 WT2  1874 TIP3 H2   HT     0.417000        1.0080           0
   32587 WT2  1875 TIP3 OH2  OT    -0.834000       15.9994           0
   32588 WT2  1875 TIP3 H1   HT     0.417000        1.0080           0
   32589 WT2  1875 TIP3 H2   HT     0.417000        1.0080           0
   32590 WT2  1876 TIP3 OH2  OT    -0.834000       15.9994           0
   32591 WT2  1876 TIP3 H1   HT     0.417000        1.0080           0
   32592 WT2  1876 TIP3 H2   HT     0.417000        1.0080           0
   32593 WT2  1877 TIP3 OH2  OT    -0.834000       15.9994           0
   32594 WT2  1877 TIP3 H1   HT     0.417000        1.0080           0
   32595 WT2  1877 TIP3 H2   HT     0.417000        1.0080           0
   32596 WT2  1878 TIP3 OH2  OT    -0.834000       15.9994           0
   32597 WT2  1878 TIP3 H1   HT     0.417000        1.0080           0
   32598 WT2  1878 TIP3 H2   HT     0.417000        1.0080           0
   32599 WT2  1879 TIP3 OH2  OT    -0.834000       15.9994           0
   32600 WT2  1879 TIP3 H1   HT     0.417000        1.0080           0
   32601 WT2  1879 TIP3 H2   HT     0.417000        1.0080           0
   32602 WT2  1880 TIP3 OH2  OT    -0.834000       15.9994           0
   32603 WT2  1880 TIP3 H1   HT     0.417000        1.0080           0
   32604 WT2  1880 TIP3 H2   HT     0.417000        1.0080           0
   32605 WT2  1881 TIP3 OH2  OT    -0.834000       15.9994           0
   32606 WT2  1881 TIP3 H1   HT     0.417000        1.0080           0
   32607 WT2  1881 TIP3 H2   HT     0.417000        1.0080           0
   32608 WT2  1883 TIP3 OH2  OT    -0.834000       15.9994           0
   32609 WT2  1883 TIP3 H1   HT     0.417000        1.0080           0
   32610 WT2  1883 TIP3 H2   HT     0.417000        1.0080           0
   32611 WT2  1885 TIP3 OH2  OT    -0.834000       15.9994           0
   32612 WT2  1885 TIP3 H1   HT     0.417000        1.0080           0
   32613 WT2  1885 TIP3 H2   HT     0.417000        1.0080           0
   32614 WT2  1891 TIP3 OH2  OT    -0.834000       15.9994           0
   32615 WT2  1891 TIP3 H1   HT     0.417000        1.0080           0
   32616 WT2  1891 TIP3 H2   HT     0.417000        1.0080           0
   32617 WT2  1892 TIP3 OH2  OT    -0.834000       15.9994           0
   32618 WT2  1892 TIP3 H1   HT     0.417000        1.0080           0
   32619 WT2  1892 TIP3 H2   HT     0.417000        1.0080           0
   32620 WT2  1894 TIP3 OH2  OT    -0.834000       15.9994           0
   32621 WT2  1894 TIP3 H1   HT     0.417000        1.0080           0
   32622 WT2  1894 TIP3 H2   HT     0.417000        1.0080           0
   32623 WT2  1895 TIP3 OH2  OT    -0.834000       15.9994           0
   32624 WT2  1895 TIP3 H1   HT     0.417000        1.0080           0
   32625 WT2  1895 TIP3 H2   HT     0.417000        1.0080           0
   32626 WT2  1896 TIP3 OH2  OT    -0.834000       15.9994           0
   32627 WT2  1896 TIP3 H1   HT     0.417000        1.0080           0
   32628 WT2  1896 TIP3 H2   HT     0.417000        1.0080           0
   32629 WT2  1897 TIP3 OH2  OT    -0.834000       15.9994           0
   32630 WT2  1897 TIP3 H1   HT     0.417000        1.0080           0
   32631 WT2  1897 TIP3 H2   HT     0.417000        1.0080           0
   32632 WT2  1898 TIP3 OH2  OT    -0.834000       15.9994           0
   32633 WT2  1898 TIP3 H1   HT     0.417000        1.0080           0
   32634 WT2  1898 TIP3 H2   HT     0.417000        1.0080           0
   32635 WT2  1900 TIP3 OH2  OT    -0.834000       15.9994           0
   32636 WT2  1900 TIP3 H1   HT     0.417000        1.0080           0
   32637 WT2  1900 TIP3 H2   HT     0.417000        1.0080           0
   32638 WT2  1901 TIP3 OH2  OT    -0.834000       15.9994           0
   32639 WT2  1901 TIP3 H1   HT     0.417000        1.0080           0
   32640 WT2  1901 TIP3 H2   HT     0.417000        1.0080           0
   32641 WT2  1902 TIP3 OH2  OT    -0.834000       15.9994           0
   32642 WT2  1902 TIP3 H1   HT     0.417000        1.0080           0
   32643 WT2  1902 TIP3 H2   HT     0.417000        1.0080           0
   32644 WT2  1906 TIP3 OH2  OT    -0.834000       15.9994           0
   32645 WT2  1906 TIP3 H1   HT     0.417000        1.0080           0
   32646 WT2  1906 TIP3 H2   HT     0.417000        1.0080           0
   32647 WT2  1907 TIP3 OH2  OT    -0.834000       15.9994           0
   32648 WT2  1907 TIP3 H1   HT     0.417000        1.0080           0
   32649 WT2  1907 TIP3 H2   HT     0.417000        1.0080           0
   32650 WT2  1911 TIP3 OH2  OT    -0.834000       15.9994           0
   32651 WT2  1911 TIP3 H1   HT     0.417000        1.0080           0
   32652 WT2  1911 TIP3 H2   HT     0.417000        1.0080           0
   32653 WT2  1912 TIP3 OH2  OT    -0.834000       15.9994           0
   32654 WT2  1912 TIP3 H1   HT     0.417000        1.0080           0
   32655 WT2  1912 TIP3 H2   HT     0.417000        1.0080           0
   32656 WT2  1913 TIP3 OH2  OT    -0.834000       15.9994           0
   32657 WT2  1913 TIP3 H1   HT     0.417000        1.0080           0
   32658 WT2  1913 TIP3 H2   HT     0.417000        1.0080           0
   32659 WT2  1914 TIP3 OH2  OT    -0.834000       15.9994           0
   32660 WT2  1914 TIP3 H1   HT     0.417000        1.0080           0
   32661 WT2  1914 TIP3 H2   HT     0.417000        1.0080           0
   32662 WT2  1915 TIP3 OH2  OT    -0.834000       15.9994           0
   32663 WT2  1915 TIP3 H1   HT     0.417000        1.0080           0
   32664 WT2  1915 TIP3 H2   HT     0.417000        1.0080           0
   32665 WT2  1916 TIP3 OH2  OT    -0.834000       15.9994           0
   32666 WT2  1916 TIP3 H1   HT     0.417000        1.0080           0
   32667 WT2  1916 TIP3 H2   HT     0.417000        1.0080           0
   32668 WT2  1917 TIP3 OH2  OT    -0.834000       15.9994           0
   32669 WT2  1917 TIP3 H1   HT     0.417000        1.0080           0
   32670 WT2  1917 TIP3 H2   HT     0.417000        1.0080           0
   32671 WT2  1918 TIP3 OH2  OT    -0.834000       15.9994           0
   32672 WT2  1918 TIP3 H1   HT     0.417000        1.0080           0
   32673 WT2  1918 TIP3 H2   HT     0.417000        1.0080           0
   32674 WT2  1919 TIP3 OH2  OT    -0.834000       15.9994           0
   32675 WT2  1919 TIP3 H1   HT     0.417000        1.0080           0
   32676 WT2  1919 TIP3 H2   HT     0.417000        1.0080           0
   32677 WT2  1920 TIP3 OH2  OT    -0.834000       15.9994           0
   32678 WT2  1920 TIP3 H1   HT     0.417000        1.0080           0
   32679 WT2  1920 TIP3 H2   HT     0.417000        1.0080           0
   32680 WT2  1921 TIP3 OH2  OT    -0.834000       15.9994           0
   32681 WT2  1921 TIP3 H1   HT     0.417000        1.0080           0
   32682 WT2  1921 TIP3 H2   HT     0.417000        1.0080           0
   32683 WT2  1922 TIP3 OH2  OT    -0.834000       15.9994           0
   32684 WT2  1922 TIP3 H1   HT     0.417000        1.0080           0
   32685 WT2  1922 TIP3 H2   HT     0.417000        1.0080           0
   32686 WT2  1923 TIP3 OH2  OT    -0.834000       15.9994           0
   32687 WT2  1923 TIP3 H1   HT     0.417000        1.0080           0
   32688 WT2  1923 TIP3 H2   HT     0.417000        1.0080           0
   32689 WT2  1924 TIP3 OH2  OT    -0.834000       15.9994           0
   32690 WT2  1924 TIP3 H1   HT     0.417000        1.0080           0
   32691 WT2  1924 TIP3 H2   HT     0.417000        1.0080           0
   32692 WT2  1925 TIP3 OH2  OT    -0.834000       15.9994           0
   32693 WT2  1925 TIP3 H1   HT     0.417000        1.0080           0
   32694 WT2  1925 TIP3 H2   HT     0.417000        1.0080           0
   32695 WT2  1926 TIP3 OH2  OT    -0.834000       15.9994           0
   32696 WT2  1926 TIP3 H1   HT     0.417000        1.0080           0
   32697 WT2  1926 TIP3 H2   HT     0.417000        1.0080           0
   32698 WT2  1931 TIP3 OH2  OT    -0.834000       15.9994           0
   32699 WT2  1931 TIP3 H1   HT     0.417000        1.0080           0
   32700 WT2  1931 TIP3 H2   HT     0.417000        1.0080           0
   32701 WT2  1934 TIP3 OH2  OT    -0.834000       15.9994           0
   32702 WT2  1934 TIP3 H1   HT     0.417000        1.0080           0
   32703 WT2  1934 TIP3 H2   HT     0.417000        1.0080           0
   32704 WT2  1935 TIP3 OH2  OT    -0.834000       15.9994           0
   32705 WT2  1935 TIP3 H1   HT     0.417000        1.0080           0
   32706 WT2  1935 TIP3 H2   HT     0.417000        1.0080           0
   32707 WT2  1936 TIP3 OH2  OT    -0.834000       15.9994           0
   32708 WT2  1936 TIP3 H1   HT     0.417000        1.0080           0
   32709 WT2  1936 TIP3 H2   HT     0.417000        1.0080           0
   32710 WT2  1937 TIP3 OH2  OT    -0.834000       15.9994           0
   32711 WT2  1937 TIP3 H1   HT     0.417000        1.0080           0
   32712 WT2  1937 TIP3 H2   HT     0.417000        1.0080           0
   32713 WT2  1938 TIP3 OH2  OT    -0.834000       15.9994           0
   32714 WT2  1938 TIP3 H1   HT     0.417000        1.0080           0
   32715 WT2  1938 TIP3 H2   HT     0.417000        1.0080           0
   32716 WT2  1939 TIP3 OH2  OT    -0.834000       15.9994           0
   32717 WT2  1939 TIP3 H1   HT     0.417000        1.0080           0
   32718 WT2  1939 TIP3 H2   HT     0.417000        1.0080           0
   32719 WT2  1940 TIP3 OH2  OT    -0.834000       15.9994           0
   32720 WT2  1940 TIP3 H1   HT     0.417000        1.0080           0
   32721 WT2  1940 TIP3 H2   HT     0.417000        1.0080           0
   32722 WT2  1941 TIP3 OH2  OT    -0.834000       15.9994           0
   32723 WT2  1941 TIP3 H1   HT     0.417000        1.0080           0
   32724 WT2  1941 TIP3 H2   HT     0.417000        1.0080           0
   32725 WT2  1942 TIP3 OH2  OT    -0.834000       15.9994           0
   32726 WT2  1942 TIP3 H1   HT     0.417000        1.0080           0
   32727 WT2  1942 TIP3 H2   HT     0.417000        1.0080           0
   32728 WT2  1943 TIP3 OH2  OT    -0.834000       15.9994           0
   32729 WT2  1943 TIP3 H1   HT     0.417000        1.0080           0
   32730 WT2  1943 TIP3 H2   HT     0.417000        1.0080           0
   32731 WT2  1944 TIP3 OH2  OT    -0.834000       15.9994           0
   32732 WT2  1944 TIP3 H1   HT     0.417000        1.0080           0
   32733 WT2  1944 TIP3 H2   HT     0.417000        1.0080           0
   32734 WT2  1945 TIP3 OH2  OT    -0.834000       15.9994           0
   32735 WT2  1945 TIP3 H1   HT     0.417000        1.0080           0
   32736 WT2  1945 TIP3 H2   HT     0.417000        1.0080           0
   32737 WT2  1946 TIP3 OH2  OT    -0.834000       15.9994           0
   32738 WT2  1946 TIP3 H1   HT     0.417000        1.0080           0
   32739 WT2  1946 TIP3 H2   HT     0.417000        1.0080           0
   32740 WT2  1947 TIP3 OH2  OT    -0.834000       15.9994           0
   32741 WT2  1947 TIP3 H1   HT     0.417000        1.0080           0
   32742 WT2  1947 TIP3 H2   HT     0.417000        1.0080           0
   32743 WT2  1948 TIP3 OH2  OT    -0.834000       15.9994           0
   32744 WT2  1948 TIP3 H1   HT     0.417000        1.0080           0
   32745 WT2  1948 TIP3 H2   HT     0.417000        1.0080           0
   32746 WT2  1949 TIP3 OH2  OT    -0.834000       15.9994           0
   32747 WT2  1949 TIP3 H1   HT     0.417000        1.0080           0
   32748 WT2  1949 TIP3 H2   HT     0.417000        1.0080           0
   32749 WT2  1950 TIP3 OH2  OT    -0.834000       15.9994           0
   32750 WT2  1950 TIP3 H1   HT     0.417000        1.0080           0
   32751 WT2  1950 TIP3 H2   HT     0.417000        1.0080           0
   32752 WT2  1952 TIP3 OH2  OT    -0.834000       15.9994           0
   32753 WT2  1952 TIP3 H1   HT     0.417000        1.0080           0
   32754 WT2  1952 TIP3 H2   HT     0.417000        1.0080           0
   32755 WT2  1953 TIP3 OH2  OT    -0.834000       15.9994           0
   32756 WT2  1953 TIP3 H1   HT     0.417000        1.0080           0
   32757 WT2  1953 TIP3 H2   HT     0.417000        1.0080           0
   32758 WT2  1954 TIP3 OH2  OT    -0.834000       15.9994           0
   32759 WT2  1954 TIP3 H1   HT     0.417000        1.0080           0
   32760 WT2  1954 TIP3 H2   HT     0.417000        1.0080           0
   32761 WT2  1955 TIP3 OH2  OT    -0.834000       15.9994           0
   32762 WT2  1955 TIP3 H1   HT     0.417000        1.0080           0
   32763 WT2  1955 TIP3 H2   HT     0.417000        1.0080           0
   32764 WT2  1959 TIP3 OH2  OT    -0.834000       15.9994           0
   32765 WT2  1959 TIP3 H1   HT     0.417000        1.0080           0
   32766 WT2  1959 TIP3 H2   HT     0.417000        1.0080           0
   32767 WT2  1960 TIP3 OH2  OT    -0.834000       15.9994           0
   32768 WT2  1960 TIP3 H1   HT     0.417000        1.0080           0
   32769 WT2  1960 TIP3 H2   HT     0.417000        1.0080           0
   32770 WT2  1961 TIP3 OH2  OT    -0.834000       15.9994           0
   32771 WT2  1961 TIP3 H1   HT     0.417000        1.0080           0
   32772 WT2  1961 TIP3 H2   HT     0.417000        1.0080           0
   32773 WT2  1962 TIP3 OH2  OT    -0.834000       15.9994           0
   32774 WT2  1962 TIP3 H1   HT     0.417000        1.0080           0
   32775 WT2  1962 TIP3 H2   HT     0.417000        1.0080           0
   32776 WT2  1963 TIP3 OH2  OT    -0.834000       15.9994           0
   32777 WT2  1963 TIP3 H1   HT     0.417000        1.0080           0
   32778 WT2  1963 TIP3 H2   HT     0.417000        1.0080           0
   32779 WT2  1965 TIP3 OH2  OT    -0.834000       15.9994           0
   32780 WT2  1965 TIP3 H1   HT     0.417000        1.0080           0
   32781 WT2  1965 TIP3 H2   HT     0.417000        1.0080           0
   32782 WT2  1966 TIP3 OH2  OT    -0.834000       15.9994           0
   32783 WT2  1966 TIP3 H1   HT     0.417000        1.0080           0
   32784 WT2  1966 TIP3 H2   HT     0.417000        1.0080           0
   32785 WT2  1967 TIP3 OH2  OT    -0.834000       15.9994           0
   32786 WT2  1967 TIP3 H1   HT     0.417000        1.0080           0
   32787 WT2  1967 TIP3 H2   HT     0.417000        1.0080           0
   32788 WT2  1969 TIP3 OH2  OT    -0.834000       15.9994           0
   32789 WT2  1969 TIP3 H1   HT     0.417000        1.0080           0
   32790 WT2  1969 TIP3 H2   HT     0.417000        1.0080           0
   32791 WT2  1976 TIP3 OH2  OT    -0.834000       15.9994           0
   32792 WT2  1976 TIP3 H1   HT     0.417000        1.0080           0
   32793 WT2  1976 TIP3 H2   HT     0.417000        1.0080           0
   32794 WT2  1977 TIP3 OH2  OT    -0.834000       15.9994           0
   32795 WT2  1977 TIP3 H1   HT     0.417000        1.0080           0
   32796 WT2  1977 TIP3 H2   HT     0.417000        1.0080           0
   32797 WT2  1979 TIP3 OH2  OT    -0.834000       15.9994           0
   32798 WT2  1979 TIP3 H1   HT     0.417000        1.0080           0
   32799 WT2  1979 TIP3 H2   HT     0.417000        1.0080           0
   32800 WT2  1980 TIP3 OH2  OT    -0.834000       15.9994           0
   32801 WT2  1980 TIP3 H1   HT     0.417000        1.0080           0
   32802 WT2  1980 TIP3 H2   HT     0.417000        1.0080           0
   32803 WT2  1981 TIP3 OH2  OT    -0.834000       15.9994           0
   32804 WT2  1981 TIP3 H1   HT     0.417000        1.0080           0
   32805 WT2  1981 TIP3 H2   HT     0.417000        1.0080           0
   32806 WT2  1982 TIP3 OH2  OT    -0.834000       15.9994           0
   32807 WT2  1982 TIP3 H1   HT     0.417000        1.0080           0
   32808 WT2  1982 TIP3 H2   HT     0.417000        1.0080           0
   32809 WT2  1983 TIP3 OH2  OT    -0.834000       15.9994           0
   32810 WT2  1983 TIP3 H1   HT     0.417000        1.0080           0
   32811 WT2  1983 TIP3 H2   HT     0.417000        1.0080           0
   32812 WT2  1984 TIP3 OH2  OT    -0.834000       15.9994           0
   32813 WT2  1984 TIP3 H1   HT     0.417000        1.0080           0
   32814 WT2  1984 TIP3 H2   HT     0.417000        1.0080           0
   32815 WT2  1986 TIP3 OH2  OT    -0.834000       15.9994           0
   32816 WT2  1986 TIP3 H1   HT     0.417000        1.0080           0
   32817 WT2  1986 TIP3 H2   HT     0.417000        1.0080           0
   32818 WT2  1987 TIP3 OH2  OT    -0.834000       15.9994           0
   32819 WT2  1987 TIP3 H1   HT     0.417000        1.0080           0
   32820 WT2  1987 TIP3 H2   HT     0.417000        1.0080           0
   32821 WT2  1988 TIP3 OH2  OT    -0.834000       15.9994           0
   32822 WT2  1988 TIP3 H1   HT     0.417000        1.0080           0
   32823 WT2  1988 TIP3 H2   HT     0.417000        1.0080           0
   32824 WT2  1989 TIP3 OH2  OT    -0.834000       15.9994           0
   32825 WT2  1989 TIP3 H1   HT     0.417000        1.0080           0
   32826 WT2  1989 TIP3 H2   HT     0.417000        1.0080           0
   32827 WT2  1993 TIP3 OH2  OT    -0.834000       15.9994           0
   32828 WT2  1993 TIP3 H1   HT     0.417000        1.0080           0
   32829 WT2  1993 TIP3 H2   HT     0.417000        1.0080           0
   32830 WT2  1998 TIP3 OH2  OT    -0.834000       15.9994           0
   32831 WT2  1998 TIP3 H1   HT     0.417000        1.0080           0
   32832 WT2  1998 TIP3 H2   HT     0.417000        1.0080           0
   32833 WT2  1999 TIP3 OH2  OT    -0.834000       15.9994           0
   32834 WT2  1999 TIP3 H1   HT     0.417000        1.0080           0
   32835 WT2  1999 TIP3 H2   HT     0.417000        1.0080           0
   32836 WT2  2000 TIP3 OH2  OT    -0.834000       15.9994           0
   32837 WT2  2000 TIP3 H1   HT     0.417000        1.0080           0
   32838 WT2  2000 TIP3 H2   HT     0.417000        1.0080           0
   32839 WT2  2001 TIP3 OH2  OT    -0.834000       15.9994           0
   32840 WT2  2001 TIP3 H1   HT     0.417000        1.0080           0
   32841 WT2  2001 TIP3 H2   HT     0.417000        1.0080           0
   32842 WT2  2002 TIP3 OH2  OT    -0.834000       15.9994           0
   32843 WT2  2002 TIP3 H1   HT     0.417000        1.0080           0
   32844 WT2  2002 TIP3 H2   HT     0.417000        1.0080           0
   32845 WT2  2004 TIP3 OH2  OT    -0.834000       15.9994           0
   32846 WT2  2004 TIP3 H1   HT     0.417000        1.0080           0
   32847 WT2  2004 TIP3 H2   HT     0.417000        1.0080           0
   32848 WT2  2005 TIP3 OH2  OT    -0.834000       15.9994           0
   32849 WT2  2005 TIP3 H1   HT     0.417000        1.0080           0
   32850 WT2  2005 TIP3 H2   HT     0.417000        1.0080           0
   32851 WT2  2006 TIP3 OH2  OT    -0.834000       15.9994           0
   32852 WT2  2006 TIP3 H1   HT     0.417000        1.0080           0
   32853 WT2  2006 TIP3 H2   HT     0.417000        1.0080           0
   32854 WT2  2007 TIP3 OH2  OT    -0.834000       15.9994           0
   32855 WT2  2007 TIP3 H1   HT     0.417000        1.0080           0
   32856 WT2  2007 TIP3 H2   HT     0.417000        1.0080           0
   32857 WT2  2009 TIP3 OH2  OT    -0.834000       15.9994           0
   32858 WT2  2009 TIP3 H1   HT     0.417000        1.0080           0
   32859 WT2  2009 TIP3 H2   HT     0.417000        1.0080           0
   32860 WT2  2014 TIP3 OH2  OT    -0.834000       15.9994           0
   32861 WT2  2014 TIP3 H1   HT     0.417000        1.0080           0
   32862 WT2  2014 TIP3 H2   HT     0.417000        1.0080           0
   32863 WT2  2016 TIP3 OH2  OT    -0.834000       15.9994           0
   32864 WT2  2016 TIP3 H1   HT     0.417000        1.0080           0
   32865 WT2  2016 TIP3 H2   HT     0.417000        1.0080           0
   32866 WT2  2018 TIP3 OH2  OT    -0.834000       15.9994           0
   32867 WT2  2018 TIP3 H1   HT     0.417000        1.0080           0
   32868 WT2  2018 TIP3 H2   HT     0.417000        1.0080           0
   32869 WT2  2019 TIP3 OH2  OT    -0.834000       15.9994           0
   32870 WT2  2019 TIP3 H1   HT     0.417000        1.0080           0
   32871 WT2  2019 TIP3 H2   HT     0.417000        1.0080           0
   32872 WT2  2020 TIP3 OH2  OT    -0.834000       15.9994           0
   32873 WT2  2020 TIP3 H1   HT     0.417000        1.0080           0
   32874 WT2  2020 TIP3 H2   HT     0.417000        1.0080           0
   32875 WT2  2021 TIP3 OH2  OT    -0.834000       15.9994           0
   32876 WT2  2021 TIP3 H1   HT     0.417000        1.0080           0
   32877 WT2  2021 TIP3 H2   HT     0.417000        1.0080           0
   32878 WT2  2022 TIP3 OH2  OT    -0.834000       15.9994           0
   32879 WT2  2022 TIP3 H1   HT     0.417000        1.0080           0
   32880 WT2  2022 TIP3 H2   HT     0.417000        1.0080           0
   32881 WT2  2023 TIP3 OH2  OT    -0.834000       15.9994           0
   32882 WT2  2023 TIP3 H1   HT     0.417000        1.0080           0
   32883 WT2  2023 TIP3 H2   HT     0.417000        1.0080           0
   32884 WT2  2024 TIP3 OH2  OT    -0.834000       15.9994           0
   32885 WT2  2024 TIP3 H1   HT     0.417000        1.0080           0
   32886 WT2  2024 TIP3 H2   HT     0.417000        1.0080           0
   32887 WT2  2025 TIP3 OH2  OT    -0.834000       15.9994           0
   32888 WT2  2025 TIP3 H1   HT     0.417000        1.0080           0
   32889 WT2  2025 TIP3 H2   HT     0.417000        1.0080           0
   32890 WT2  2026 TIP3 OH2  OT    -0.834000       15.9994           0
   32891 WT2  2026 TIP3 H1   HT     0.417000        1.0080           0
   32892 WT2  2026 TIP3 H2   HT     0.417000        1.0080           0
   32893 WT2  2027 TIP3 OH2  OT    -0.834000       15.9994           0
   32894 WT2  2027 TIP3 H1   HT     0.417000        1.0080           0
   32895 WT2  2027 TIP3 H2   HT     0.417000        1.0080           0
   32896 WT2  2028 TIP3 OH2  OT    -0.834000       15.9994           0
   32897 WT2  2028 TIP3 H1   HT     0.417000        1.0080           0
   32898 WT2  2028 TIP3 H2   HT     0.417000        1.0080           0
   32899 WT2  2029 TIP3 OH2  OT    -0.834000       15.9994           0
   32900 WT2  2029 TIP3 H1   HT     0.417000        1.0080           0
   32901 WT2  2029 TIP3 H2   HT     0.417000        1.0080           0
   32902 WT2  2031 TIP3 OH2  OT    -0.834000       15.9994           0
   32903 WT2  2031 TIP3 H1   HT     0.417000        1.0080           0
   32904 WT2  2031 TIP3 H2   HT     0.417000        1.0080           0
   32905 WT2  2032 TIP3 OH2  OT    -0.834000       15.9994           0
   32906 WT2  2032 TIP3 H1   HT     0.417000        1.0080           0
   32907 WT2  2032 TIP3 H2   HT     0.417000        1.0080           0
   32908 WT2  2034 TIP3 OH2  OT    -0.834000       15.9994           0
   32909 WT2  2034 TIP3 H1   HT     0.417000        1.0080           0
   32910 WT2  2034 TIP3 H2   HT     0.417000        1.0080           0
   32911 WT2  2037 TIP3 OH2  OT    -0.834000       15.9994           0
   32912 WT2  2037 TIP3 H1   HT     0.417000        1.0080           0
   32913 WT2  2037 TIP3 H2   HT     0.417000        1.0080           0
   32914 WT2  2038 TIP3 OH2  OT    -0.834000       15.9994           0
   32915 WT2  2038 TIP3 H1   HT     0.417000        1.0080           0
   32916 WT2  2038 TIP3 H2   HT     0.417000        1.0080           0
   32917 WT2  2039 TIP3 OH2  OT    -0.834000       15.9994           0
   32918 WT2  2039 TIP3 H1   HT     0.417000        1.0080           0
   32919 WT2  2039 TIP3 H2   HT     0.417000        1.0080           0
   32920 WT2  2040 TIP3 OH2  OT    -0.834000       15.9994           0
   32921 WT2  2040 TIP3 H1   HT     0.417000        1.0080           0
   32922 WT2  2040 TIP3 H2   HT     0.417000        1.0080           0
   32923 WT2  2041 TIP3 OH2  OT    -0.834000       15.9994           0
   32924 WT2  2041 TIP3 H1   HT     0.417000        1.0080           0
   32925 WT2  2041 TIP3 H2   HT     0.417000        1.0080           0
   32926 WT2  2042 TIP3 OH2  OT    -0.834000       15.9994           0
   32927 WT2  2042 TIP3 H1   HT     0.417000        1.0080           0
   32928 WT2  2042 TIP3 H2   HT     0.417000        1.0080           0
   32929 WT2  2043 TIP3 OH2  OT    -0.834000       15.9994           0
   32930 WT2  2043 TIP3 H1   HT     0.417000        1.0080           0
   32931 WT2  2043 TIP3 H2   HT     0.417000        1.0080           0
   32932 WT2  2044 TIP3 OH2  OT    -0.834000       15.9994           0
   32933 WT2  2044 TIP3 H1   HT     0.417000        1.0080           0
   32934 WT2  2044 TIP3 H2   HT     0.417000        1.0080           0
   32935 WT2  2045 TIP3 OH2  OT    -0.834000       15.9994           0
   32936 WT2  2045 TIP3 H1   HT     0.417000        1.0080           0
   32937 WT2  2045 TIP3 H2   HT     0.417000        1.0080           0
   32938 WT2  2046 TIP3 OH2  OT    -0.834000       15.9994           0
   32939 WT2  2046 TIP3 H1   HT     0.417000        1.0080           0
   32940 WT2  2046 TIP3 H2   HT     0.417000        1.0080           0
   32941 WT2  2047 TIP3 OH2  OT    -0.834000       15.9994           0
   32942 WT2  2047 TIP3 H1   HT     0.417000        1.0080           0
   32943 WT2  2047 TIP3 H2   HT     0.417000        1.0080           0
   32944 WT2  2048 TIP3 OH2  OT    -0.834000       15.9994           0
   32945 WT2  2048 TIP3 H1   HT     0.417000        1.0080           0
   32946 WT2  2048 TIP3 H2   HT     0.417000        1.0080           0
   32947 WT2  2049 TIP3 OH2  OT    -0.834000       15.9994           0
   32948 WT2  2049 TIP3 H1   HT     0.417000        1.0080           0
   32949 WT2  2049 TIP3 H2   HT     0.417000        1.0080           0
   32950 WT2  2050 TIP3 OH2  OT    -0.834000       15.9994           0
   32951 WT2  2050 TIP3 H1   HT     0.417000        1.0080           0
   32952 WT2  2050 TIP3 H2   HT     0.417000        1.0080           0
   32953 WT2  2052 TIP3 OH2  OT    -0.834000       15.9994           0
   32954 WT2  2052 TIP3 H1   HT     0.417000        1.0080           0
   32955 WT2  2052 TIP3 H2   HT     0.417000        1.0080           0
   32956 WT2  2053 TIP3 OH2  OT    -0.834000       15.9994           0
   32957 WT2  2053 TIP3 H1   HT     0.417000        1.0080           0
   32958 WT2  2053 TIP3 H2   HT     0.417000        1.0080           0
   32959 WT2  2059 TIP3 OH2  OT    -0.834000       15.9994           0
   32960 WT2  2059 TIP3 H1   HT     0.417000        1.0080           0
   32961 WT2  2059 TIP3 H2   HT     0.417000        1.0080           0
   32962 WT2  2060 TIP3 OH2  OT    -0.834000       15.9994           0
   32963 WT2  2060 TIP3 H1   HT     0.417000        1.0080           0
   32964 WT2  2060 TIP3 H2   HT     0.417000        1.0080           0
   32965 WT2  2061 TIP3 OH2  OT    -0.834000       15.9994           0
   32966 WT2  2061 TIP3 H1   HT     0.417000        1.0080           0
   32967 WT2  2061 TIP3 H2   HT     0.417000        1.0080           0
   32968 WT2  2062 TIP3 OH2  OT    -0.834000       15.9994           0
   32969 WT2  2062 TIP3 H1   HT     0.417000        1.0080           0
   32970 WT2  2062 TIP3 H2   HT     0.417000        1.0080           0
   32971 WT2  2063 TIP3 OH2  OT    -0.834000       15.9994           0
   32972 WT2  2063 TIP3 H1   HT     0.417000        1.0080           0
   32973 WT2  2063 TIP3 H2   HT     0.417000        1.0080           0
   32974 WT2  2064 TIP3 OH2  OT    -0.834000       15.9994           0
   32975 WT2  2064 TIP3 H1   HT     0.417000        1.0080           0
   32976 WT2  2064 TIP3 H2   HT     0.417000        1.0080           0
   32977 WT2  2065 TIP3 OH2  OT    -0.834000       15.9994           0
   32978 WT2  2065 TIP3 H1   HT     0.417000        1.0080           0
   32979 WT2  2065 TIP3 H2   HT     0.417000        1.0080           0
   32980 WT2  2066 TIP3 OH2  OT    -0.834000       15.9994           0
   32981 WT2  2066 TIP3 H1   HT     0.417000        1.0080           0
   32982 WT2  2066 TIP3 H2   HT     0.417000        1.0080           0
   32983 WT2  2067 TIP3 OH2  OT    -0.834000       15.9994           0
   32984 WT2  2067 TIP3 H1   HT     0.417000        1.0080           0
   32985 WT2  2067 TIP3 H2   HT     0.417000        1.0080           0
   32986 WT2  2068 TIP3 OH2  OT    -0.834000       15.9994           0
   32987 WT2  2068 TIP3 H1   HT     0.417000        1.0080           0
   32988 WT2  2068 TIP3 H2   HT     0.417000        1.0080           0
   32989 WT2  2069 TIP3 OH2  OT    -0.834000       15.9994           0
   32990 WT2  2069 TIP3 H1   HT     0.417000        1.0080           0
   32991 WT2  2069 TIP3 H2   HT     0.417000        1.0080           0
   32992 WT2  2070 TIP3 OH2  OT    -0.834000       15.9994           0
   32993 WT2  2070 TIP3 H1   HT     0.417000        1.0080           0
   32994 WT2  2070 TIP3 H2   HT     0.417000        1.0080           0
   32995 WT2  2072 TIP3 OH2  OT    -0.834000       15.9994           0
   32996 WT2  2072 TIP3 H1   HT     0.417000        1.0080           0
   32997 WT2  2072 TIP3 H2   HT     0.417000        1.0080           0
   32998 WT2  2073 TIP3 OH2  OT    -0.834000       15.9994           0
   32999 WT2  2073 TIP3 H1   HT     0.417000        1.0080           0
   33000 WT2  2073 TIP3 H2   HT     0.417000        1.0080           0
   33001 WT2  2075 TIP3 OH2  OT    -0.834000       15.9994           0
   33002 WT2  2075 TIP3 H1   HT     0.417000        1.0080           0
   33003 WT2  2075 TIP3 H2   HT     0.417000        1.0080           0
   33004 WT2  2079 TIP3 OH2  OT    -0.834000       15.9994           0
   33005 WT2  2079 TIP3 H1   HT     0.417000        1.0080           0
   33006 WT2  2079 TIP3 H2   HT     0.417000        1.0080           0
   33007 WT2  2081 TIP3 OH2  OT    -0.834000       15.9994           0
   33008 WT2  2081 TIP3 H1   HT     0.417000        1.0080           0
   33009 WT2  2081 TIP3 H2   HT     0.417000        1.0080           0
   33010 WT2  2082 TIP3 OH2  OT    -0.834000       15.9994           0
   33011 WT2  2082 TIP3 H1   HT     0.417000        1.0080           0
   33012 WT2  2082 TIP3 H2   HT     0.417000        1.0080           0
   33013 WT2  2083 TIP3 OH2  OT    -0.834000       15.9994           0
   33014 WT2  2083 TIP3 H1   HT     0.417000        1.0080           0
   33015 WT2  2083 TIP3 H2   HT     0.417000        1.0080           0
   33016 WT2  2084 TIP3 OH2  OT    -0.834000       15.9994           0
   33017 WT2  2084 TIP3 H1   HT     0.417000        1.0080           0
   33018 WT2  2084 TIP3 H2   HT     0.417000        1.0080           0
   33019 WT2  2086 TIP3 OH2  OT    -0.834000       15.9994           0
   33020 WT2  2086 TIP3 H1   HT     0.417000        1.0080           0
   33021 WT2  2086 TIP3 H2   HT     0.417000        1.0080           0
   33022 WT2  2087 TIP3 OH2  OT    -0.834000       15.9994           0
   33023 WT2  2087 TIP3 H1   HT     0.417000        1.0080           0
   33024 WT2  2087 TIP3 H2   HT     0.417000        1.0080           0
   33025 WT2  2088 TIP3 OH2  OT    -0.834000       15.9994           0
   33026 WT2  2088 TIP3 H1   HT     0.417000        1.0080           0
   33027 WT2  2088 TIP3 H2   HT     0.417000        1.0080           0
   33028 WT2  2089 TIP3 OH2  OT    -0.834000       15.9994           0
   33029 WT2  2089 TIP3 H1   HT     0.417000        1.0080           0
   33030 WT2  2089 TIP3 H2   HT     0.417000        1.0080           0
   33031 WT2  2090 TIP3 OH2  OT    -0.834000       15.9994           0
   33032 WT2  2090 TIP3 H1   HT     0.417000        1.0080           0
   33033 WT2  2090 TIP3 H2   HT     0.417000        1.0080           0
   33034 WT2  2091 TIP3 OH2  OT    -0.834000       15.9994           0
   33035 WT2  2091 TIP3 H1   HT     0.417000        1.0080           0
   33036 WT2  2091 TIP3 H2   HT     0.417000        1.0080           0
   33037 WT2  2092 TIP3 OH2  OT    -0.834000       15.9994           0
   33038 WT2  2092 TIP3 H1   HT     0.417000        1.0080           0
   33039 WT2  2092 TIP3 H2   HT     0.417000        1.0080           0
   33040 WT2  2095 TIP3 OH2  OT    -0.834000       15.9994           0
   33041 WT2  2095 TIP3 H1   HT     0.417000        1.0080           0
   33042 WT2  2095 TIP3 H2   HT     0.417000        1.0080           0
   33043 WT2  2101 TIP3 OH2  OT    -0.834000       15.9994           0
   33044 WT2  2101 TIP3 H1   HT     0.417000        1.0080           0
   33045 WT2  2101 TIP3 H2   HT     0.417000        1.0080           0
   33046 WT2  2102 TIP3 OH2  OT    -0.834000       15.9994           0
   33047 WT2  2102 TIP3 H1   HT     0.417000        1.0080           0
   33048 WT2  2102 TIP3 H2   HT     0.417000        1.0080           0
   33049 WT2  2103 TIP3 OH2  OT    -0.834000       15.9994           0
   33050 WT2  2103 TIP3 H1   HT     0.417000        1.0080           0
   33051 WT2  2103 TIP3 H2   HT     0.417000        1.0080           0
   33052 WT2  2104 TIP3 OH2  OT    -0.834000       15.9994           0
   33053 WT2  2104 TIP3 H1   HT     0.417000        1.0080           0
   33054 WT2  2104 TIP3 H2   HT     0.417000        1.0080           0
   33055 WT2  2105 TIP3 OH2  OT    -0.834000       15.9994           0
   33056 WT2  2105 TIP3 H1   HT     0.417000        1.0080           0
   33057 WT2  2105 TIP3 H2   HT     0.417000        1.0080           0
   33058 WT2  2106 TIP3 OH2  OT    -0.834000       15.9994           0
   33059 WT2  2106 TIP3 H1   HT     0.417000        1.0080           0
   33060 WT2  2106 TIP3 H2   HT     0.417000        1.0080           0
   33061 WT2  2107 TIP3 OH2  OT    -0.834000       15.9994           0
   33062 WT2  2107 TIP3 H1   HT     0.417000        1.0080           0
   33063 WT2  2107 TIP3 H2   HT     0.417000        1.0080           0
   33064 WT2  2108 TIP3 OH2  OT    -0.834000       15.9994           0
   33065 WT2  2108 TIP3 H1   HT     0.417000        1.0080           0
   33066 WT2  2108 TIP3 H2   HT     0.417000        1.0080           0
   33067 WT2  2109 TIP3 OH2  OT    -0.834000       15.9994           0
   33068 WT2  2109 TIP3 H1   HT     0.417000        1.0080           0
   33069 WT2  2109 TIP3 H2   HT     0.417000        1.0080           0
   33070 WT2  2110 TIP3 OH2  OT    -0.834000       15.9994           0
   33071 WT2  2110 TIP3 H1   HT     0.417000        1.0080           0
   33072 WT2  2110 TIP3 H2   HT     0.417000        1.0080           0
   33073 WT2  2111 TIP3 OH2  OT    -0.834000       15.9994           0
   33074 WT2  2111 TIP3 H1   HT     0.417000        1.0080           0
   33075 WT2  2111 TIP3 H2   HT     0.417000        1.0080           0
   33076 WT2  2112 TIP3 OH2  OT    -0.834000       15.9994           0
   33077 WT2  2112 TIP3 H1   HT     0.417000        1.0080           0
   33078 WT2  2112 TIP3 H2   HT     0.417000        1.0080           0
   33079 WT2  2116 TIP3 OH2  OT    -0.834000       15.9994           0
   33080 WT2  2116 TIP3 H1   HT     0.417000        1.0080           0
   33081 WT2  2116 TIP3 H2   HT     0.417000        1.0080           0
   33082 WT2  2122 TIP3 OH2  OT    -0.834000       15.9994           0
   33083 WT2  2122 TIP3 H1   HT     0.417000        1.0080           0
   33084 WT2  2122 TIP3 H2   HT     0.417000        1.0080           0
   33085 WT2  2123 TIP3 OH2  OT    -0.834000       15.9994           0
   33086 WT2  2123 TIP3 H1   HT     0.417000        1.0080           0
   33087 WT2  2123 TIP3 H2   HT     0.417000        1.0080           0
   33088 WT2  2124 TIP3 OH2  OT    -0.834000       15.9994           0
   33089 WT2  2124 TIP3 H1   HT     0.417000        1.0080           0
   33090 WT2  2124 TIP3 H2   HT     0.417000        1.0080           0
   33091 WT2  2126 TIP3 OH2  OT    -0.834000       15.9994           0
   33092 WT2  2126 TIP3 H1   HT     0.417000        1.0080           0
   33093 WT2  2126 TIP3 H2   HT     0.417000        1.0080           0
   33094 WT2  2127 TIP3 OH2  OT    -0.834000       15.9994           0
   33095 WT2  2127 TIP3 H1   HT     0.417000        1.0080           0
   33096 WT2  2127 TIP3 H2   HT     0.417000        1.0080           0
   33097 WT2  2128 TIP3 OH2  OT    -0.834000       15.9994           0
   33098 WT2  2128 TIP3 H1   HT     0.417000        1.0080           0
   33099 WT2  2128 TIP3 H2   HT     0.417000        1.0080           0
   33100 WT2  2129 TIP3 OH2  OT    -0.834000       15.9994           0
   33101 WT2  2129 TIP3 H1   HT     0.417000        1.0080           0
   33102 WT2  2129 TIP3 H2   HT     0.417000        1.0080           0
   33103 WT2  2130 TIP3 OH2  OT    -0.834000       15.9994           0
   33104 WT2  2130 TIP3 H1   HT     0.417000        1.0080           0
   33105 WT2  2130 TIP3 H2   HT     0.417000        1.0080           0
   33106 WT2  2131 TIP3 OH2  OT    -0.834000       15.9994           0
   33107 WT2  2131 TIP3 H1   HT     0.417000        1.0080           0
   33108 WT2  2131 TIP3 H2   HT     0.417000        1.0080           0
   33109 WT2  2132 TIP3 OH2  OT    -0.834000       15.9994           0
   33110 WT2  2132 TIP3 H1   HT     0.417000        1.0080           0
   33111 WT2  2132 TIP3 H2   HT     0.417000        1.0080           0
   33112 WT2  2133 TIP3 OH2  OT    -0.834000       15.9994           0
   33113 WT2  2133 TIP3 H1   HT     0.417000        1.0080           0
   33114 WT2  2133 TIP3 H2   HT     0.417000        1.0080           0
   33115 WT2  2135 TIP3 OH2  OT    -0.834000       15.9994           0
   33116 WT2  2135 TIP3 H1   HT     0.417000        1.0080           0
   33117 WT2  2135 TIP3 H2   HT     0.417000        1.0080           0
   33118 WT2  2136 TIP3 OH2  OT    -0.834000       15.9994           0
   33119 WT2  2136 TIP3 H1   HT     0.417000        1.0080           0
   33120 WT2  2136 TIP3 H2   HT     0.417000        1.0080           0
   33121 WT2  2138 TIP3 OH2  OT    -0.834000       15.9994           0
   33122 WT2  2138 TIP3 H1   HT     0.417000        1.0080           0
   33123 WT2  2138 TIP3 H2   HT     0.417000        1.0080           0
   33124 WT2  2143 TIP3 OH2  OT    -0.834000       15.9994           0
   33125 WT2  2143 TIP3 H1   HT     0.417000        1.0080           0
   33126 WT2  2143 TIP3 H2   HT     0.417000        1.0080           0
   33127 WT2  2146 TIP3 OH2  OT    -0.834000       15.9994           0
   33128 WT2  2146 TIP3 H1   HT     0.417000        1.0080           0
   33129 WT2  2146 TIP3 H2   HT     0.417000        1.0080           0
   33130 WT2  2147 TIP3 OH2  OT    -0.834000       15.9994           0
   33131 WT2  2147 TIP3 H1   HT     0.417000        1.0080           0
   33132 WT2  2147 TIP3 H2   HT     0.417000        1.0080           0
   33133 WT2  2148 TIP3 OH2  OT    -0.834000       15.9994           0
   33134 WT2  2148 TIP3 H1   HT     0.417000        1.0080           0
   33135 WT2  2148 TIP3 H2   HT     0.417000        1.0080           0
   33136 WT2  2149 TIP3 OH2  OT    -0.834000       15.9994           0
   33137 WT2  2149 TIP3 H1   HT     0.417000        1.0080           0
   33138 WT2  2149 TIP3 H2   HT     0.417000        1.0080           0
   33139 WT2  2150 TIP3 OH2  OT    -0.834000       15.9994           0
   33140 WT2  2150 TIP3 H1   HT     0.417000        1.0080           0
   33141 WT2  2150 TIP3 H2   HT     0.417000        1.0080           0
   33142 WT2  2151 TIP3 OH2  OT    -0.834000       15.9994           0
   33143 WT2  2151 TIP3 H1   HT     0.417000        1.0080           0
   33144 WT2  2151 TIP3 H2   HT     0.417000        1.0080           0
   33145 WT2  2152 TIP3 OH2  OT    -0.834000       15.9994           0
   33146 WT2  2152 TIP3 H1   HT     0.417000        1.0080           0
   33147 WT2  2152 TIP3 H2   HT     0.417000        1.0080           0
   33148 WT2  2153 TIP3 OH2  OT    -0.834000       15.9994           0
   33149 WT2  2153 TIP3 H1   HT     0.417000        1.0080           0
   33150 WT2  2153 TIP3 H2   HT     0.417000        1.0080           0
   33151 WT2  2154 TIP3 OH2  OT    -0.834000       15.9994           0
   33152 WT2  2154 TIP3 H1   HT     0.417000        1.0080           0
   33153 WT2  2154 TIP3 H2   HT     0.417000        1.0080           0
   33154 WT2  2155 TIP3 OH2  OT    -0.834000       15.9994           0
   33155 WT2  2155 TIP3 H1   HT     0.417000        1.0080           0
   33156 WT2  2155 TIP3 H2   HT     0.417000        1.0080           0
   33157 WT2  2156 TIP3 OH2  OT    -0.834000       15.9994           0
   33158 WT2  2156 TIP3 H1   HT     0.417000        1.0080           0
   33159 WT2  2156 TIP3 H2   HT     0.417000        1.0080           0
   33160 WT2  2157 TIP3 OH2  OT    -0.834000       15.9994           0
   33161 WT2  2157 TIP3 H1   HT     0.417000        1.0080           0
   33162 WT2  2157 TIP3 H2   HT     0.417000        1.0080           0
   33163 WT2  2158 TIP3 OH2  OT    -0.834000       15.9994           0
   33164 WT2  2158 TIP3 H1   HT     0.417000        1.0080           0
   33165 WT2  2158 TIP3 H2   HT     0.417000        1.0080           0
   33166 WT2  2163 TIP3 OH2  OT    -0.834000       15.9994           0
   33167 WT2  2163 TIP3 H1   HT     0.417000        1.0080           0
   33168 WT2  2163 TIP3 H2   HT     0.417000        1.0080           0
   33169 WT2  2164 TIP3 OH2  OT    -0.834000       15.9994           0
   33170 WT2  2164 TIP3 H1   HT     0.417000        1.0080           0
   33171 WT2  2164 TIP3 H2   HT     0.417000        1.0080           0
   33172 WT2  2165 TIP3 OH2  OT    -0.834000       15.9994           0
   33173 WT2  2165 TIP3 H1   HT     0.417000        1.0080           0
   33174 WT2  2165 TIP3 H2   HT     0.417000        1.0080           0
   33175 WT2  2166 TIP3 OH2  OT    -0.834000       15.9994           0
   33176 WT2  2166 TIP3 H1   HT     0.417000        1.0080           0
   33177 WT2  2166 TIP3 H2   HT     0.417000        1.0080           0
   33178 WT2  2167 TIP3 OH2  OT    -0.834000       15.9994           0
   33179 WT2  2167 TIP3 H1   HT     0.417000        1.0080           0
   33180 WT2  2167 TIP3 H2   HT     0.417000        1.0080           0
   33181 WT2  2168 TIP3 OH2  OT    -0.834000       15.9994           0
   33182 WT2  2168 TIP3 H1   HT     0.417000        1.0080           0
   33183 WT2  2168 TIP3 H2   HT     0.417000        1.0080           0
   33184 WT2  2169 TIP3 OH2  OT    -0.834000       15.9994           0
   33185 WT2  2169 TIP3 H1   HT     0.417000        1.0080           0
   33186 WT2  2169 TIP3 H2   HT     0.417000        1.0080           0
   33187 WT2  2170 TIP3 OH2  OT    -0.834000       15.9994           0
   33188 WT2  2170 TIP3 H1   HT     0.417000        1.0080           0
   33189 WT2  2170 TIP3 H2   HT     0.417000        1.0080           0
   33190 WT2  2171 TIP3 OH2  OT    -0.834000       15.9994           0
   33191 WT2  2171 TIP3 H1   HT     0.417000        1.0080           0
   33192 WT2  2171 TIP3 H2   HT     0.417000        1.0080           0
   33193 WT2  2172 TIP3 OH2  OT    -0.834000       15.9994           0
   33194 WT2  2172 TIP3 H1   HT     0.417000        1.0080           0
   33195 WT2  2172 TIP3 H2   HT     0.417000        1.0080           0
   33196 WT2  2173 TIP3 OH2  OT    -0.834000       15.9994           0
   33197 WT2  2173 TIP3 H1   HT     0.417000        1.0080           0
   33198 WT2  2173 TIP3 H2   HT     0.417000        1.0080           0
   33199 WT2  2174 TIP3 OH2  OT    -0.834000       15.9994           0
   33200 WT2  2174 TIP3 H1   HT     0.417000        1.0080           0
   33201 WT2  2174 TIP3 H2   HT     0.417000        1.0080           0
   33202 WT2  2175 TIP3 OH2  OT    -0.834000       15.9994           0
   33203 WT2  2175 TIP3 H1   HT     0.417000        1.0080           0
   33204 WT2  2175 TIP3 H2   HT     0.417000        1.0080           0
   33205 WT2  2176 TIP3 OH2  OT    -0.834000       15.9994           0
   33206 WT2  2176 TIP3 H1   HT     0.417000        1.0080           0
   33207 WT2  2176 TIP3 H2   HT     0.417000        1.0080           0
   33208 WT2  2177 TIP3 OH2  OT    -0.834000       15.9994           0
   33209 WT2  2177 TIP3 H1   HT     0.417000        1.0080           0
   33210 WT2  2177 TIP3 H2   HT     0.417000        1.0080           0
   33211 WT2  2178 TIP3 OH2  OT    -0.834000       15.9994           0
   33212 WT2  2178 TIP3 H1   HT     0.417000        1.0080           0
   33213 WT2  2178 TIP3 H2   HT     0.417000        1.0080           0
   33214 WT2  2183 TIP3 OH2  OT    -0.834000       15.9994           0
   33215 WT2  2183 TIP3 H1   HT     0.417000        1.0080           0
   33216 WT2  2183 TIP3 H2   HT     0.417000        1.0080           0
   33217 WT2  2185 TIP3 OH2  OT    -0.834000       15.9994           0
   33218 WT2  2185 TIP3 H1   HT     0.417000        1.0080           0
   33219 WT2  2185 TIP3 H2   HT     0.417000        1.0080           0
   33220 WT2  2186 TIP3 OH2  OT    -0.834000       15.9994           0
   33221 WT2  2186 TIP3 H1   HT     0.417000        1.0080           0
   33222 WT2  2186 TIP3 H2   HT     0.417000        1.0080           0
   33223 WT2  2187 TIP3 OH2  OT    -0.834000       15.9994           0
   33224 WT2  2187 TIP3 H1   HT     0.417000        1.0080           0
   33225 WT2  2187 TIP3 H2   HT     0.417000        1.0080           0
   33226 WT2  2188 TIP3 OH2  OT    -0.834000       15.9994           0
   33227 WT2  2188 TIP3 H1   HT     0.417000        1.0080           0
   33228 WT2  2188 TIP3 H2   HT     0.417000        1.0080           0
   33229 WT2  2189 TIP3 OH2  OT    -0.834000       15.9994           0
   33230 WT2  2189 TIP3 H1   HT     0.417000        1.0080           0
   33231 WT2  2189 TIP3 H2   HT     0.417000        1.0080           0
   33232 WT2  2190 TIP3 OH2  OT    -0.834000       15.9994           0
   33233 WT2  2190 TIP3 H1   HT     0.417000        1.0080           0
   33234 WT2  2190 TIP3 H2   HT     0.417000        1.0080           0
   33235 WT2  2191 TIP3 OH2  OT    -0.834000       15.9994           0
   33236 WT2  2191 TIP3 H1   HT     0.417000        1.0080           0
   33237 WT2  2191 TIP3 H2   HT     0.417000        1.0080           0
   33238 WT2  2192 TIP3 OH2  OT    -0.834000       15.9994           0
   33239 WT2  2192 TIP3 H1   HT     0.417000        1.0080           0
   33240 WT2  2192 TIP3 H2   HT     0.417000        1.0080           0
   33241 WT2  2193 TIP3 OH2  OT    -0.834000       15.9994           0
   33242 WT2  2193 TIP3 H1   HT     0.417000        1.0080           0
   33243 WT2  2193 TIP3 H2   HT     0.417000        1.0080           0
   33244 WT2  2194 TIP3 OH2  OT    -0.834000       15.9994           0
   33245 WT2  2194 TIP3 H1   HT     0.417000        1.0080           0
   33246 WT2  2194 TIP3 H2   HT     0.417000        1.0080           0
   33247 WT2  2195 TIP3 OH2  OT    -0.834000       15.9994           0
   33248 WT2  2195 TIP3 H1   HT     0.417000        1.0080           0
   33249 WT2  2195 TIP3 H2   HT     0.417000        1.0080           0
   33250 WT2  2196 TIP3 OH2  OT    -0.834000       15.9994           0
   33251 WT2  2196 TIP3 H1   HT     0.417000        1.0080           0
   33252 WT2  2196 TIP3 H2   HT     0.417000        1.0080           0
   33253 WT2  2197 TIP3 OH2  OT    -0.834000       15.9994           0
   33254 WT2  2197 TIP3 H1   HT     0.417000        1.0080           0
   33255 WT2  2197 TIP3 H2   HT     0.417000        1.0080           0
   33256 WT2  2198 TIP3 OH2  OT    -0.834000       15.9994           0
   33257 WT2  2198 TIP3 H1   HT     0.417000        1.0080           0
   33258 WT2  2198 TIP3 H2   HT     0.417000        1.0080           0
   33259 WT2  2204 TIP3 OH2  OT    -0.834000       15.9994           0
   33260 WT2  2204 TIP3 H1   HT     0.417000        1.0080           0
   33261 WT2  2204 TIP3 H2   HT     0.417000        1.0080           0
   33262 WT2  2205 TIP3 OH2  OT    -0.834000       15.9994           0
   33263 WT2  2205 TIP3 H1   HT     0.417000        1.0080           0
   33264 WT2  2205 TIP3 H2   HT     0.417000        1.0080           0
   33265 WT2  2206 TIP3 OH2  OT    -0.834000       15.9994           0
   33266 WT2  2206 TIP3 H1   HT     0.417000        1.0080           0
   33267 WT2  2206 TIP3 H2   HT     0.417000        1.0080           0
   33268 WT2  2207 TIP3 OH2  OT    -0.834000       15.9994           0
   33269 WT2  2207 TIP3 H1   HT     0.417000        1.0080           0
   33270 WT2  2207 TIP3 H2   HT     0.417000        1.0080           0
   33271 WT2  2208 TIP3 OH2  OT    -0.834000       15.9994           0
   33272 WT2  2208 TIP3 H1   HT     0.417000        1.0080           0
   33273 WT2  2208 TIP3 H2   HT     0.417000        1.0080           0
   33274 WT2  2209 TIP3 OH2  OT    -0.834000       15.9994           0
   33275 WT2  2209 TIP3 H1   HT     0.417000        1.0080           0
   33276 WT2  2209 TIP3 H2   HT     0.417000        1.0080           0
   33277 WT2  2210 TIP3 OH2  OT    -0.834000       15.9994           0
   33278 WT2  2210 TIP3 H1   HT     0.417000        1.0080           0
   33279 WT2  2210 TIP3 H2   HT     0.417000        1.0080           0
   33280 WT2  2211 TIP3 OH2  OT    -0.834000       15.9994           0
   33281 WT2  2211 TIP3 H1   HT     0.417000        1.0080           0
   33282 WT2  2211 TIP3 H2   HT     0.417000        1.0080           0
   33283 WT2  2212 TIP3 OH2  OT    -0.834000       15.9994           0
   33284 WT2  2212 TIP3 H1   HT     0.417000        1.0080           0
   33285 WT2  2212 TIP3 H2   HT     0.417000        1.0080           0
   33286 WT2  2213 TIP3 OH2  OT    -0.834000       15.9994           0
   33287 WT2  2213 TIP3 H1   HT     0.417000        1.0080           0
   33288 WT2  2213 TIP3 H2   HT     0.417000        1.0080           0
   33289 WT2  2214 TIP3 OH2  OT    -0.834000       15.9994           0
   33290 WT2  2214 TIP3 H1   HT     0.417000        1.0080           0
   33291 WT2  2214 TIP3 H2   HT     0.417000        1.0080           0
   33292 WT2  2215 TIP3 OH2  OT    -0.834000       15.9994           0
   33293 WT2  2215 TIP3 H1   HT     0.417000        1.0080           0
   33294 WT2  2215 TIP3 H2   HT     0.417000        1.0080           0
   33295 WT2  2216 TIP3 OH2  OT    -0.834000       15.9994           0
   33296 WT2  2216 TIP3 H1   HT     0.417000        1.0080           0
   33297 WT2  2216 TIP3 H2   HT     0.417000        1.0080           0
   33298 WT2  2217 TIP3 OH2  OT    -0.834000       15.9994           0
   33299 WT2  2217 TIP3 H1   HT     0.417000        1.0080           0
   33300 WT2  2217 TIP3 H2   HT     0.417000        1.0080           0
   33301 WT2  2219 TIP3 OH2  OT    -0.834000       15.9994           0
   33302 WT2  2219 TIP3 H1   HT     0.417000        1.0080           0
   33303 WT2  2219 TIP3 H2   HT     0.417000        1.0080           0
   33304 WT2  2220 TIP3 OH2  OT    -0.834000       15.9994           0
   33305 WT2  2220 TIP3 H1   HT     0.417000        1.0080           0
   33306 WT2  2220 TIP3 H2   HT     0.417000        1.0080           0
   33307 WT2  2223 TIP3 OH2  OT    -0.834000       15.9994           0
   33308 WT2  2223 TIP3 H1   HT     0.417000        1.0080           0
   33309 WT2  2223 TIP3 H2   HT     0.417000        1.0080           0
   33310 WT2  2227 TIP3 OH2  OT    -0.834000       15.9994           0
   33311 WT2  2227 TIP3 H1   HT     0.417000        1.0080           0
   33312 WT2  2227 TIP3 H2   HT     0.417000        1.0080           0
   33313 WT2  2228 TIP3 OH2  OT    -0.834000       15.9994           0
   33314 WT2  2228 TIP3 H1   HT     0.417000        1.0080           0
   33315 WT2  2228 TIP3 H2   HT     0.417000        1.0080           0
   33316 WT2  2229 TIP3 OH2  OT    -0.834000       15.9994           0
   33317 WT2  2229 TIP3 H1   HT     0.417000        1.0080           0
   33318 WT2  2229 TIP3 H2   HT     0.417000        1.0080           0
   33319 WT2  2230 TIP3 OH2  OT    -0.834000       15.9994           0
   33320 WT2  2230 TIP3 H1   HT     0.417000        1.0080           0
   33321 WT2  2230 TIP3 H2   HT     0.417000        1.0080           0
   33322 WT2  2231 TIP3 OH2  OT    -0.834000       15.9994           0
   33323 WT2  2231 TIP3 H1   HT     0.417000        1.0080           0
   33324 WT2  2231 TIP3 H2   HT     0.417000        1.0080           0
   33325 WT2  2232 TIP3 OH2  OT    -0.834000       15.9994           0
   33326 WT2  2232 TIP3 H1   HT     0.417000        1.0080           0
   33327 WT2  2232 TIP3 H2   HT     0.417000        1.0080           0
   33328 WT2  2233 TIP3 OH2  OT    -0.834000       15.9994           0
   33329 WT2  2233 TIP3 H1   HT     0.417000        1.0080           0
   33330 WT2  2233 TIP3 H2   HT     0.417000        1.0080           0
   33331 WT2  2234 TIP3 OH2  OT    -0.834000       15.9994           0
   33332 WT2  2234 TIP3 H1   HT     0.417000        1.0080           0
   33333 WT2  2234 TIP3 H2   HT     0.417000        1.0080           0
   33334 WT2  2235 TIP3 OH2  OT    -0.834000       15.9994           0
   33335 WT2  2235 TIP3 H1   HT     0.417000        1.0080           0
   33336 WT2  2235 TIP3 H2   HT     0.417000        1.0080           0
   33337 WT2  2236 TIP3 OH2  OT    -0.834000       15.9994           0
   33338 WT2  2236 TIP3 H1   HT     0.417000        1.0080           0
   33339 WT2  2236 TIP3 H2   HT     0.417000        1.0080           0
   33340 WT2  2237 TIP3 OH2  OT    -0.834000       15.9994           0
   33341 WT2  2237 TIP3 H1   HT     0.417000        1.0080           0
   33342 WT2  2237 TIP3 H2   HT     0.417000        1.0080           0
   33343 WT2  2239 TIP3 OH2  OT    -0.834000       15.9994           0
   33344 WT2  2239 TIP3 H1   HT     0.417000        1.0080           0
   33345 WT2  2239 TIP3 H2   HT     0.417000        1.0080           0
   33346 WT2  2240 TIP3 OH2  OT    -0.834000       15.9994           0
   33347 WT2  2240 TIP3 H1   HT     0.417000        1.0080           0
   33348 WT2  2240 TIP3 H2   HT     0.417000        1.0080           0
   33349 WT2  2241 TIP3 OH2  OT    -0.834000       15.9994           0
   33350 WT2  2241 TIP3 H1   HT     0.417000        1.0080           0
   33351 WT2  2241 TIP3 H2   HT     0.417000        1.0080           0
   33352 WT2  2244 TIP3 OH2  OT    -0.834000       15.9994           0
   33353 WT2  2244 TIP3 H1   HT     0.417000        1.0080           0
   33354 WT2  2244 TIP3 H2   HT     0.417000        1.0080           0
   33355 WT2  2250 TIP3 OH2  OT    -0.834000       15.9994           0
   33356 WT2  2250 TIP3 H1   HT     0.417000        1.0080           0
   33357 WT2  2250 TIP3 H2   HT     0.417000        1.0080           0
   33358 WT2  2251 TIP3 OH2  OT    -0.834000       15.9994           0
   33359 WT2  2251 TIP3 H1   HT     0.417000        1.0080           0
   33360 WT2  2251 TIP3 H2   HT     0.417000        1.0080           0
   33361 WT2  2252 TIP3 OH2  OT    -0.834000       15.9994           0
   33362 WT2  2252 TIP3 H1   HT     0.417000        1.0080           0
   33363 WT2  2252 TIP3 H2   HT     0.417000        1.0080           0
   33364 WT2  2253 TIP3 OH2  OT    -0.834000       15.9994           0
   33365 WT2  2253 TIP3 H1   HT     0.417000        1.0080           0
   33366 WT2  2253 TIP3 H2   HT     0.417000        1.0080           0
   33367 WT2  2254 TIP3 OH2  OT    -0.834000       15.9994           0
   33368 WT2  2254 TIP3 H1   HT     0.417000        1.0080           0
   33369 WT2  2254 TIP3 H2   HT     0.417000        1.0080           0
   33370 WT2  2255 TIP3 OH2  OT    -0.834000       15.9994           0
   33371 WT2  2255 TIP3 H1   HT     0.417000        1.0080           0
   33372 WT2  2255 TIP3 H2   HT     0.417000        1.0080           0
   33373 WT2  2256 TIP3 OH2  OT    -0.834000       15.9994           0
   33374 WT2  2256 TIP3 H1   HT     0.417000        1.0080           0
   33375 WT2  2256 TIP3 H2   HT     0.417000        1.0080           0
   33376 WT2  2257 TIP3 OH2  OT    -0.834000       15.9994           0
   33377 WT2  2257 TIP3 H1   HT     0.417000        1.0080           0
   33378 WT2  2257 TIP3 H2   HT     0.417000        1.0080           0
   33379 WT2  2258 TIP3 OH2  OT    -0.834000       15.9994           0
   33380 WT2  2258 TIP3 H1   HT     0.417000        1.0080           0
   33381 WT2  2258 TIP3 H2   HT     0.417000        1.0080           0
   33382 WT2  2259 TIP3 OH2  OT    -0.834000       15.9994           0
   33383 WT2  2259 TIP3 H1   HT     0.417000        1.0080           0
   33384 WT2  2259 TIP3 H2   HT     0.417000        1.0080           0
   33385 WT2  2260 TIP3 OH2  OT    -0.834000       15.9994           0
   33386 WT2  2260 TIP3 H1   HT     0.417000        1.0080           0
   33387 WT2  2260 TIP3 H2   HT     0.417000        1.0080           0
   33388 WT2  2261 TIP3 OH2  OT    -0.834000       15.9994           0
   33389 WT2  2261 TIP3 H1   HT     0.417000        1.0080           0
   33390 WT2  2261 TIP3 H2   HT     0.417000        1.0080           0
   33391 WT2  2269 TIP3 OH2  OT    -0.834000       15.9994           0
   33392 WT2  2269 TIP3 H1   HT     0.417000        1.0080           0
   33393 WT2  2269 TIP3 H2   HT     0.417000        1.0080           0
   33394 WT2  2270 TIP3 OH2  OT    -0.834000       15.9994           0
   33395 WT2  2270 TIP3 H1   HT     0.417000        1.0080           0
   33396 WT2  2270 TIP3 H2   HT     0.417000        1.0080           0
   33397 WT2  2271 TIP3 OH2  OT    -0.834000       15.9994           0
   33398 WT2  2271 TIP3 H1   HT     0.417000        1.0080           0
   33399 WT2  2271 TIP3 H2   HT     0.417000        1.0080           0
   33400 WT2  2272 TIP3 OH2  OT    -0.834000       15.9994           0
   33401 WT2  2272 TIP3 H1   HT     0.417000        1.0080           0
   33402 WT2  2272 TIP3 H2   HT     0.417000        1.0080           0
   33403 WT2  2273 TIP3 OH2  OT    -0.834000       15.9994           0
   33404 WT2  2273 TIP3 H1   HT     0.417000        1.0080           0
   33405 WT2  2273 TIP3 H2   HT     0.417000        1.0080           0
   33406 WT2  2274 TIP3 OH2  OT    -0.834000       15.9994           0
   33407 WT2  2274 TIP3 H1   HT     0.417000        1.0080           0
   33408 WT2  2274 TIP3 H2   HT     0.417000        1.0080           0
   33409 WT2  2275 TIP3 OH2  OT    -0.834000       15.9994           0
   33410 WT2  2275 TIP3 H1   HT     0.417000        1.0080           0
   33411 WT2  2275 TIP3 H2   HT     0.417000        1.0080           0
   33412 WT2  2276 TIP3 OH2  OT    -0.834000       15.9994           0
   33413 WT2  2276 TIP3 H1   HT     0.417000        1.0080           0
   33414 WT2  2276 TIP3 H2   HT     0.417000        1.0080           0
   33415 WT2  2277 TIP3 OH2  OT    -0.834000       15.9994           0
   33416 WT2  2277 TIP3 H1   HT     0.417000        1.0080           0
   33417 WT2  2277 TIP3 H2   HT     0.417000        1.0080           0
   33418 WT2  2278 TIP3 OH2  OT    -0.834000       15.9994           0
   33419 WT2  2278 TIP3 H1   HT     0.417000        1.0080           0
   33420 WT2  2278 TIP3 H2   HT     0.417000        1.0080           0
   33421 WT2  2279 TIP3 OH2  OT    -0.834000       15.9994           0
   33422 WT2  2279 TIP3 H1   HT     0.417000        1.0080           0
   33423 WT2  2279 TIP3 H2   HT     0.417000        1.0080           0
   33424 WT2  2280 TIP3 OH2  OT    -0.834000       15.9994           0
   33425 WT2  2280 TIP3 H1   HT     0.417000        1.0080           0
   33426 WT2  2280 TIP3 H2   HT     0.417000        1.0080           0
   33427 WT2  2281 TIP3 OH2  OT    -0.834000       15.9994           0
   33428 WT2  2281 TIP3 H1   HT     0.417000        1.0080           0
   33429 WT2  2281 TIP3 H2   HT     0.417000        1.0080           0
   33430 WT2  2282 TIP3 OH2  OT    -0.834000       15.9994           0
   33431 WT2  2282 TIP3 H1   HT     0.417000        1.0080           0
   33432 WT2  2282 TIP3 H2   HT     0.417000        1.0080           0
   33433 WT2  2283 TIP3 OH2  OT    -0.834000       15.9994           0
   33434 WT2  2283 TIP3 H1   HT     0.417000        1.0080           0
   33435 WT2  2283 TIP3 H2   HT     0.417000        1.0080           0
   33436 WT2  2284 TIP3 OH2  OT    -0.834000       15.9994           0
   33437 WT2  2284 TIP3 H1   HT     0.417000        1.0080           0
   33438 WT2  2284 TIP3 H2   HT     0.417000        1.0080           0
   33439 WT2  2285 TIP3 OH2  OT    -0.834000       15.9994           0
   33440 WT2  2285 TIP3 H1   HT     0.417000        1.0080           0
   33441 WT2  2285 TIP3 H2   HT     0.417000        1.0080           0
   33442 WT2  2286 TIP3 OH2  OT    -0.834000       15.9994           0
   33443 WT2  2286 TIP3 H1   HT     0.417000        1.0080           0
   33444 WT2  2286 TIP3 H2   HT     0.417000        1.0080           0
   33445 WT2  2288 TIP3 OH2  OT    -0.834000       15.9994           0
   33446 WT2  2288 TIP3 H1   HT     0.417000        1.0080           0
   33447 WT2  2288 TIP3 H2   HT     0.417000        1.0080           0
   33448 WT2  2290 TIP3 OH2  OT    -0.834000       15.9994           0
   33449 WT2  2290 TIP3 H1   HT     0.417000        1.0080           0
   33450 WT2  2290 TIP3 H2   HT     0.417000        1.0080           0
   33451 WT2  2292 TIP3 OH2  OT    -0.834000       15.9994           0
   33452 WT2  2292 TIP3 H1   HT     0.417000        1.0080           0
   33453 WT2  2292 TIP3 H2   HT     0.417000        1.0080           0
   33454 WT2  2293 TIP3 OH2  OT    -0.834000       15.9994           0
   33455 WT2  2293 TIP3 H1   HT     0.417000        1.0080           0
   33456 WT2  2293 TIP3 H2   HT     0.417000        1.0080           0
   33457 WT2  2294 TIP3 OH2  OT    -0.834000       15.9994           0
   33458 WT2  2294 TIP3 H1   HT     0.417000        1.0080           0
   33459 WT2  2294 TIP3 H2   HT     0.417000        1.0080           0
   33460 WT2  2295 TIP3 OH2  OT    -0.834000       15.9994           0
   33461 WT2  2295 TIP3 H1   HT     0.417000        1.0080           0
   33462 WT2  2295 TIP3 H2   HT     0.417000        1.0080           0
   33463 WT2  2296 TIP3 OH2  OT    -0.834000       15.9994           0
   33464 WT2  2296 TIP3 H1   HT     0.417000        1.0080           0
   33465 WT2  2296 TIP3 H2   HT     0.417000        1.0080           0
   33466 WT2  2297 TIP3 OH2  OT    -0.834000       15.9994           0
   33467 WT2  2297 TIP3 H1   HT     0.417000        1.0080           0
   33468 WT2  2297 TIP3 H2   HT     0.417000        1.0080           0
   33469 WT2  2298 TIP3 OH2  OT    -0.834000       15.9994           0
   33470 WT2  2298 TIP3 H1   HT     0.417000        1.0080           0
   33471 WT2  2298 TIP3 H2   HT     0.417000        1.0080           0
   33472 WT2  2299 TIP3 OH2  OT    -0.834000       15.9994           0
   33473 WT2  2299 TIP3 H1   HT     0.417000        1.0080           0
   33474 WT2  2299 TIP3 H2   HT     0.417000        1.0080           0
   33475 WT2  2300 TIP3 OH2  OT    -0.834000       15.9994           0
   33476 WT2  2300 TIP3 H1   HT     0.417000        1.0080           0
   33477 WT2  2300 TIP3 H2   HT     0.417000        1.0080           0
   33478 WT2  2301 TIP3 OH2  OT    -0.834000       15.9994           0
   33479 WT2  2301 TIP3 H1   HT     0.417000        1.0080           0
   33480 WT2  2301 TIP3 H2   HT     0.417000        1.0080           0
   33481 WT2  2302 TIP3 OH2  OT    -0.834000       15.9994           0
   33482 WT2  2302 TIP3 H1   HT     0.417000        1.0080           0
   33483 WT2  2302 TIP3 H2   HT     0.417000        1.0080           0
   33484 WT2  2309 TIP3 OH2  OT    -0.834000       15.9994           0
   33485 WT2  2309 TIP3 H1   HT     0.417000        1.0080           0
   33486 WT2  2309 TIP3 H2   HT     0.417000        1.0080           0
   33487 WT2  2311 TIP3 OH2  OT    -0.834000       15.9994           0
   33488 WT2  2311 TIP3 H1   HT     0.417000        1.0080           0
   33489 WT2  2311 TIP3 H2   HT     0.417000        1.0080           0
   33490 WT2  2312 TIP3 OH2  OT    -0.834000       15.9994           0
   33491 WT2  2312 TIP3 H1   HT     0.417000        1.0080           0
   33492 WT2  2312 TIP3 H2   HT     0.417000        1.0080           0
   33493 WT2  2313 TIP3 OH2  OT    -0.834000       15.9994           0
   33494 WT2  2313 TIP3 H1   HT     0.417000        1.0080           0
   33495 WT2  2313 TIP3 H2   HT     0.417000        1.0080           0
   33496 WT2  2314 TIP3 OH2  OT    -0.834000       15.9994           0
   33497 WT2  2314 TIP3 H1   HT     0.417000        1.0080           0
   33498 WT2  2314 TIP3 H2   HT     0.417000        1.0080           0
   33499 WT2  2315 TIP3 OH2  OT    -0.834000       15.9994           0
   33500 WT2  2315 TIP3 H1   HT     0.417000        1.0080           0
   33501 WT2  2315 TIP3 H2   HT     0.417000        1.0080           0
   33502 WT2  2316 TIP3 OH2  OT    -0.834000       15.9994           0
   33503 WT2  2316 TIP3 H1   HT     0.417000        1.0080           0
   33504 WT2  2316 TIP3 H2   HT     0.417000        1.0080           0
   33505 WT2  2317 TIP3 OH2  OT    -0.834000       15.9994           0
   33506 WT2  2317 TIP3 H1   HT     0.417000        1.0080           0
   33507 WT2  2317 TIP3 H2   HT     0.417000        1.0080           0
   33508 WT2  2318 TIP3 OH2  OT    -0.834000       15.9994           0
   33509 WT2  2318 TIP3 H1   HT     0.417000        1.0080           0
   33510 WT2  2318 TIP3 H2   HT     0.417000        1.0080           0
   33511 WT2  2319 TIP3 OH2  OT    -0.834000       15.9994           0
   33512 WT2  2319 TIP3 H1   HT     0.417000        1.0080           0
   33513 WT2  2319 TIP3 H2   HT     0.417000        1.0080           0
   33514 WT2  2320 TIP3 OH2  OT    -0.834000       15.9994           0
   33515 WT2  2320 TIP3 H1   HT     0.417000        1.0080           0
   33516 WT2  2320 TIP3 H2   HT     0.417000        1.0080           0
   33517 WT2  2321 TIP3 OH2  OT    -0.834000       15.9994           0
   33518 WT2  2321 TIP3 H1   HT     0.417000        1.0080           0
   33519 WT2  2321 TIP3 H2   HT     0.417000        1.0080           0
   33520 WT2  2322 TIP3 OH2  OT    -0.834000       15.9994           0
   33521 WT2  2322 TIP3 H1   HT     0.417000        1.0080           0
   33522 WT2  2322 TIP3 H2   HT     0.417000        1.0080           0
   33523 WT2  2324 TIP3 OH2  OT    -0.834000       15.9994           0
   33524 WT2  2324 TIP3 H1   HT     0.417000        1.0080           0
   33525 WT2  2324 TIP3 H2   HT     0.417000        1.0080           0
   33526 WT2  2325 TIP3 OH2  OT    -0.834000       15.9994           0
   33527 WT2  2325 TIP3 H1   HT     0.417000        1.0080           0
   33528 WT2  2325 TIP3 H2   HT     0.417000        1.0080           0
   33529 WT2  2327 TIP3 OH2  OT    -0.834000       15.9994           0
   33530 WT2  2327 TIP3 H1   HT     0.417000        1.0080           0
   33531 WT2  2327 TIP3 H2   HT     0.417000        1.0080           0
   33532 WT2  2329 TIP3 OH2  OT    -0.834000       15.9994           0
   33533 WT2  2329 TIP3 H1   HT     0.417000        1.0080           0
   33534 WT2  2329 TIP3 H2   HT     0.417000        1.0080           0
   33535 WT2  2331 TIP3 OH2  OT    -0.834000       15.9994           0
   33536 WT2  2331 TIP3 H1   HT     0.417000        1.0080           0
   33537 WT2  2331 TIP3 H2   HT     0.417000        1.0080           0
   33538 WT2  2332 TIP3 OH2  OT    -0.834000       15.9994           0
   33539 WT2  2332 TIP3 H1   HT     0.417000        1.0080           0
   33540 WT2  2332 TIP3 H2   HT     0.417000        1.0080           0
   33541 WT2  2333 TIP3 OH2  OT    -0.834000       15.9994           0
   33542 WT2  2333 TIP3 H1   HT     0.417000        1.0080           0
   33543 WT2  2333 TIP3 H2   HT     0.417000        1.0080           0
   33544 WT2  2335 TIP3 OH2  OT    -0.834000       15.9994           0
   33545 WT2  2335 TIP3 H1   HT     0.417000        1.0080           0
   33546 WT2  2335 TIP3 H2   HT     0.417000        1.0080           0
   33547 WT2  2336 TIP3 OH2  OT    -0.834000       15.9994           0
   33548 WT2  2336 TIP3 H1   HT     0.417000        1.0080           0
   33549 WT2  2336 TIP3 H2   HT     0.417000        1.0080           0
   33550 WT2  2337 TIP3 OH2  OT    -0.834000       15.9994           0
   33551 WT2  2337 TIP3 H1   HT     0.417000        1.0080           0
   33552 WT2  2337 TIP3 H2   HT     0.417000        1.0080           0
   33553 WT2  2338 TIP3 OH2  OT    -0.834000       15.9994           0
   33554 WT2  2338 TIP3 H1   HT     0.417000        1.0080           0
   33555 WT2  2338 TIP3 H2   HT     0.417000        1.0080           0
   33556 WT2  2339 TIP3 OH2  OT    -0.834000       15.9994           0
   33557 WT2  2339 TIP3 H1   HT     0.417000        1.0080           0
   33558 WT2  2339 TIP3 H2   HT     0.417000        1.0080           0
   33559 WT2  2340 TIP3 OH2  OT    -0.834000       15.9994           0
   33560 WT2  2340 TIP3 H1   HT     0.417000        1.0080           0
   33561 WT2  2340 TIP3 H2   HT     0.417000        1.0080           0
   33562 WT2  2341 TIP3 OH2  OT    -0.834000       15.9994           0
   33563 WT2  2341 TIP3 H1   HT     0.417000        1.0080           0
   33564 WT2  2341 TIP3 H2   HT     0.417000        1.0080           0
   33565 WT2  2342 TIP3 OH2  OT    -0.834000       15.9994           0
   33566 WT2  2342 TIP3 H1   HT     0.417000        1.0080           0
   33567 WT2  2342 TIP3 H2   HT     0.417000        1.0080           0
   33568 WT2  2343 TIP3 OH2  OT    -0.834000       15.9994           0
   33569 WT2  2343 TIP3 H1   HT     0.417000        1.0080           0
   33570 WT2  2343 TIP3 H2   HT     0.417000        1.0080           0
   33571 WT2  2345 TIP3 OH2  OT    -0.834000       15.9994           0
   33572 WT2  2345 TIP3 H1   HT     0.417000        1.0080           0
   33573 WT2  2345 TIP3 H2   HT     0.417000        1.0080           0
   33574 WT2  2346 TIP3 OH2  OT    -0.834000       15.9994           0
   33575 WT2  2346 TIP3 H1   HT     0.417000        1.0080           0
   33576 WT2  2346 TIP3 H2   HT     0.417000        1.0080           0
   33577 WT2  2351 TIP3 OH2  OT    -0.834000       15.9994           0
   33578 WT2  2351 TIP3 H1   HT     0.417000        1.0080           0
   33579 WT2  2351 TIP3 H2   HT     0.417000        1.0080           0
   33580 WT2  2352 TIP3 OH2  OT    -0.834000       15.9994           0
   33581 WT2  2352 TIP3 H1   HT     0.417000        1.0080           0
   33582 WT2  2352 TIP3 H2   HT     0.417000        1.0080           0
   33583 WT2  2354 TIP3 OH2  OT    -0.834000       15.9994           0
   33584 WT2  2354 TIP3 H1   HT     0.417000        1.0080           0
   33585 WT2  2354 TIP3 H2   HT     0.417000        1.0080           0
   33586 WT2  2355 TIP3 OH2  OT    -0.834000       15.9994           0
   33587 WT2  2355 TIP3 H1   HT     0.417000        1.0080           0
   33588 WT2  2355 TIP3 H2   HT     0.417000        1.0080           0
   33589 WT2  2357 TIP3 OH2  OT    -0.834000       15.9994           0
   33590 WT2  2357 TIP3 H1   HT     0.417000        1.0080           0
   33591 WT2  2357 TIP3 H2   HT     0.417000        1.0080           0
   33592 WT2  2358 TIP3 OH2  OT    -0.834000       15.9994           0
   33593 WT2  2358 TIP3 H1   HT     0.417000        1.0080           0
   33594 WT2  2358 TIP3 H2   HT     0.417000        1.0080           0
   33595 WT2  2359 TIP3 OH2  OT    -0.834000       15.9994           0
   33596 WT2  2359 TIP3 H1   HT     0.417000        1.0080           0
   33597 WT2  2359 TIP3 H2   HT     0.417000        1.0080           0
   33598 WT2  2360 TIP3 OH2  OT    -0.834000       15.9994           0
   33599 WT2  2360 TIP3 H1   HT     0.417000        1.0080           0
   33600 WT2  2360 TIP3 H2   HT     0.417000        1.0080           0
   33601 WT2  2361 TIP3 OH2  OT    -0.834000       15.9994           0
   33602 WT2  2361 TIP3 H1   HT     0.417000        1.0080           0
   33603 WT2  2361 TIP3 H2   HT     0.417000        1.0080           0
   33604 WT2  2362 TIP3 OH2  OT    -0.834000       15.9994           0
   33605 WT2  2362 TIP3 H1   HT     0.417000        1.0080           0
   33606 WT2  2362 TIP3 H2   HT     0.417000        1.0080           0
   33607 WT2  2363 TIP3 OH2  OT    -0.834000       15.9994           0
   33608 WT2  2363 TIP3 H1   HT     0.417000        1.0080           0
   33609 WT2  2363 TIP3 H2   HT     0.417000        1.0080           0
   33610 WT2  2364 TIP3 OH2  OT    -0.834000       15.9994           0
   33611 WT2  2364 TIP3 H1   HT     0.417000        1.0080           0
   33612 WT2  2364 TIP3 H2   HT     0.417000        1.0080           0
   33613 WT2  2365 TIP3 OH2  OT    -0.834000       15.9994           0
   33614 WT2  2365 TIP3 H1   HT     0.417000        1.0080           0
   33615 WT2  2365 TIP3 H2   HT     0.417000        1.0080           0
   33616 WT2  2367 TIP3 OH2  OT    -0.834000       15.9994           0
   33617 WT2  2367 TIP3 H1   HT     0.417000        1.0080           0
   33618 WT2  2367 TIP3 H2   HT     0.417000        1.0080           0
   33619 WT2  2368 TIP3 OH2  OT    -0.834000       15.9994           0
   33620 WT2  2368 TIP3 H1   HT     0.417000        1.0080           0
   33621 WT2  2368 TIP3 H2   HT     0.417000        1.0080           0
   33622 WT2  2375 TIP3 OH2  OT    -0.834000       15.9994           0
   33623 WT2  2375 TIP3 H1   HT     0.417000        1.0080           0
   33624 WT2  2375 TIP3 H2   HT     0.417000        1.0080           0
   33625 WT2  2376 TIP3 OH2  OT    -0.834000       15.9994           0
   33626 WT2  2376 TIP3 H1   HT     0.417000        1.0080           0
   33627 WT2  2376 TIP3 H2   HT     0.417000        1.0080           0
   33628 WT2  2377 TIP3 OH2  OT    -0.834000       15.9994           0
   33629 WT2  2377 TIP3 H1   HT     0.417000        1.0080           0
   33630 WT2  2377 TIP3 H2   HT     0.417000        1.0080           0
   33631 WT2  2378 TIP3 OH2  OT    -0.834000       15.9994           0
   33632 WT2  2378 TIP3 H1   HT     0.417000        1.0080           0
   33633 WT2  2378 TIP3 H2   HT     0.417000        1.0080           0
   33634 WT2  2379 TIP3 OH2  OT    -0.834000       15.9994           0
   33635 WT2  2379 TIP3 H1   HT     0.417000        1.0080           0
   33636 WT2  2379 TIP3 H2   HT     0.417000        1.0080           0
   33637 WT2  2380 TIP3 OH2  OT    -0.834000       15.9994           0
   33638 WT2  2380 TIP3 H1   HT     0.417000        1.0080           0
   33639 WT2  2380 TIP3 H2   HT     0.417000        1.0080           0
   33640 WT2  2381 TIP3 OH2  OT    -0.834000       15.9994           0
   33641 WT2  2381 TIP3 H1   HT     0.417000        1.0080           0
   33642 WT2  2381 TIP3 H2   HT     0.417000        1.0080           0
   33643 WT2  2382 TIP3 OH2  OT    -0.834000       15.9994           0
   33644 WT2  2382 TIP3 H1   HT     0.417000        1.0080           0
   33645 WT2  2382 TIP3 H2   HT     0.417000        1.0080           0
   33646 WT2  2383 TIP3 OH2  OT    -0.834000       15.9994           0
   33647 WT2  2383 TIP3 H1   HT     0.417000        1.0080           0
   33648 WT2  2383 TIP3 H2   HT     0.417000        1.0080           0
   33649 WT2  2384 TIP3 OH2  OT    -0.834000       15.9994           0
   33650 WT2  2384 TIP3 H1   HT     0.417000        1.0080           0
   33651 WT2  2384 TIP3 H2   HT     0.417000        1.0080           0
   33652 WT2  2385 TIP3 OH2  OT    -0.834000       15.9994           0
   33653 WT2  2385 TIP3 H1   HT     0.417000        1.0080           0
   33654 WT2  2385 TIP3 H2   HT     0.417000        1.0080           0
   33655 WT2  2388 TIP3 OH2  OT    -0.834000       15.9994           0
   33656 WT2  2388 TIP3 H1   HT     0.417000        1.0080           0
   33657 WT2  2388 TIP3 H2   HT     0.417000        1.0080           0
   33658 WT2  2395 TIP3 OH2  OT    -0.834000       15.9994           0
   33659 WT2  2395 TIP3 H1   HT     0.417000        1.0080           0
   33660 WT2  2395 TIP3 H2   HT     0.417000        1.0080           0
   33661 WT2  2397 TIP3 OH2  OT    -0.834000       15.9994           0
   33662 WT2  2397 TIP3 H1   HT     0.417000        1.0080           0
   33663 WT2  2397 TIP3 H2   HT     0.417000        1.0080           0
   33664 WT2  2398 TIP3 OH2  OT    -0.834000       15.9994           0
   33665 WT2  2398 TIP3 H1   HT     0.417000        1.0080           0
   33666 WT2  2398 TIP3 H2   HT     0.417000        1.0080           0
   33667 WT2  2399 TIP3 OH2  OT    -0.834000       15.9994           0
   33668 WT2  2399 TIP3 H1   HT     0.417000        1.0080           0
   33669 WT2  2399 TIP3 H2   HT     0.417000        1.0080           0
   33670 WT2  2400 TIP3 OH2  OT    -0.834000       15.9994           0
   33671 WT2  2400 TIP3 H1   HT     0.417000        1.0080           0
   33672 WT2  2400 TIP3 H2   HT     0.417000        1.0080           0
   33673 WT2  2402 TIP3 OH2  OT    -0.834000       15.9994           0
   33674 WT2  2402 TIP3 H1   HT     0.417000        1.0080           0
   33675 WT2  2402 TIP3 H2   HT     0.417000        1.0080           0
   33676 WT2  2403 TIP3 OH2  OT    -0.834000       15.9994           0
   33677 WT2  2403 TIP3 H1   HT     0.417000        1.0080           0
   33678 WT2  2403 TIP3 H2   HT     0.417000        1.0080           0
   33679 WT2  2404 TIP3 OH2  OT    -0.834000       15.9994           0
   33680 WT2  2404 TIP3 H1   HT     0.417000        1.0080           0
   33681 WT2  2404 TIP3 H2   HT     0.417000        1.0080           0
   33682 WT2  2405 TIP3 OH2  OT    -0.834000       15.9994           0
   33683 WT2  2405 TIP3 H1   HT     0.417000        1.0080           0
   33684 WT2  2405 TIP3 H2   HT     0.417000        1.0080           0
   33685 WT2  2406 TIP3 OH2  OT    -0.834000       15.9994           0
   33686 WT2  2406 TIP3 H1   HT     0.417000        1.0080           0
   33687 WT2  2406 TIP3 H2   HT     0.417000        1.0080           0
   33688 WT2  2407 TIP3 OH2  OT    -0.834000       15.9994           0
   33689 WT2  2407 TIP3 H1   HT     0.417000        1.0080           0
   33690 WT2  2407 TIP3 H2   HT     0.417000        1.0080           0
   33691 WT2  2416 TIP3 OH2  OT    -0.834000       15.9994           0
   33692 WT2  2416 TIP3 H1   HT     0.417000        1.0080           0
   33693 WT2  2416 TIP3 H2   HT     0.417000        1.0080           0
   33694 WT2  2417 TIP3 OH2  OT    -0.834000       15.9994           0
   33695 WT2  2417 TIP3 H1   HT     0.417000        1.0080           0
   33696 WT2  2417 TIP3 H2   HT     0.417000        1.0080           0
   33697 WT2  2418 TIP3 OH2  OT    -0.834000       15.9994           0
   33698 WT2  2418 TIP3 H1   HT     0.417000        1.0080           0
   33699 WT2  2418 TIP3 H2   HT     0.417000        1.0080           0
   33700 WT2  2419 TIP3 OH2  OT    -0.834000       15.9994           0
   33701 WT2  2419 TIP3 H1   HT     0.417000        1.0080           0
   33702 WT2  2419 TIP3 H2   HT     0.417000        1.0080           0
   33703 WT2  2420 TIP3 OH2  OT    -0.834000       15.9994           0
   33704 WT2  2420 TIP3 H1   HT     0.417000        1.0080           0
   33705 WT2  2420 TIP3 H2   HT     0.417000        1.0080           0
   33706 WT2  2421 TIP3 OH2  OT    -0.834000       15.9994           0
   33707 WT2  2421 TIP3 H1   HT     0.417000        1.0080           0
   33708 WT2  2421 TIP3 H2   HT     0.417000        1.0080           0
   33709 WT2  2422 TIP3 OH2  OT    -0.834000       15.9994           0
   33710 WT2  2422 TIP3 H1   HT     0.417000        1.0080           0
   33711 WT2  2422 TIP3 H2   HT     0.417000        1.0080           0
   33712 WT2  2423 TIP3 OH2  OT    -0.834000       15.9994           0
   33713 WT2  2423 TIP3 H1   HT     0.417000        1.0080           0
   33714 WT2  2423 TIP3 H2   HT     0.417000        1.0080           0
   33715 WT2  2425 TIP3 OH2  OT    -0.834000       15.9994           0
   33716 WT2  2425 TIP3 H1   HT     0.417000        1.0080           0
   33717 WT2  2425 TIP3 H2   HT     0.417000        1.0080           0
   33718 WT2  2426 TIP3 OH2  OT    -0.834000       15.9994           0
   33719 WT2  2426 TIP3 H1   HT     0.417000        1.0080           0
   33720 WT2  2426 TIP3 H2   HT     0.417000        1.0080           0
   33721 WT2  2427 TIP3 OH2  OT    -0.834000       15.9994           0
   33722 WT2  2427 TIP3 H1   HT     0.417000        1.0080           0
   33723 WT2  2427 TIP3 H2   HT     0.417000        1.0080           0
   33724 WT2  2428 TIP3 OH2  OT    -0.834000       15.9994           0
   33725 WT2  2428 TIP3 H1   HT     0.417000        1.0080           0
   33726 WT2  2428 TIP3 H2   HT     0.417000        1.0080           0
   33727 WT2  2430 TIP3 OH2  OT    -0.834000       15.9994           0
   33728 WT2  2430 TIP3 H1   HT     0.417000        1.0080           0
   33729 WT2  2430 TIP3 H2   HT     0.417000        1.0080           0
   33730 WT2  2431 TIP3 OH2  OT    -0.834000       15.9994           0
   33731 WT2  2431 TIP3 H1   HT     0.417000        1.0080           0
   33732 WT2  2431 TIP3 H2   HT     0.417000        1.0080           0
   33733 WT2  2436 TIP3 OH2  OT    -0.834000       15.9994           0
   33734 WT2  2436 TIP3 H1   HT     0.417000        1.0080           0
   33735 WT2  2436 TIP3 H2   HT     0.417000        1.0080           0
   33736 WT2  2438 TIP3 OH2  OT    -0.834000       15.9994           0
   33737 WT2  2438 TIP3 H1   HT     0.417000        1.0080           0
   33738 WT2  2438 TIP3 H2   HT     0.417000        1.0080           0
   33739 WT2  2439 TIP3 OH2  OT    -0.834000       15.9994           0
   33740 WT2  2439 TIP3 H1   HT     0.417000        1.0080           0
   33741 WT2  2439 TIP3 H2   HT     0.417000        1.0080           0
   33742 WT2  2440 TIP3 OH2  OT    -0.834000       15.9994           0
   33743 WT2  2440 TIP3 H1   HT     0.417000        1.0080           0
   33744 WT2  2440 TIP3 H2   HT     0.417000        1.0080           0
   33745 WT2  2441 TIP3 OH2  OT    -0.834000       15.9994           0
   33746 WT2  2441 TIP3 H1   HT     0.417000        1.0080           0
   33747 WT2  2441 TIP3 H2   HT     0.417000        1.0080           0
   33748 WT2  2442 TIP3 OH2  OT    -0.834000       15.9994           0
   33749 WT2  2442 TIP3 H1   HT     0.417000        1.0080           0
   33750 WT2  2442 TIP3 H2   HT     0.417000        1.0080           0
   33751 WT2  2443 TIP3 OH2  OT    -0.834000       15.9994           0
   33752 WT2  2443 TIP3 H1   HT     0.417000        1.0080           0
   33753 WT2  2443 TIP3 H2   HT     0.417000        1.0080           0
   33754 WT2  2444 TIP3 OH2  OT    -0.834000       15.9994           0
   33755 WT2  2444 TIP3 H1   HT     0.417000        1.0080           0
   33756 WT2  2444 TIP3 H2   HT     0.417000        1.0080           0
   33757 WT2  2445 TIP3 OH2  OT    -0.834000       15.9994           0
   33758 WT2  2445 TIP3 H1   HT     0.417000        1.0080           0
   33759 WT2  2445 TIP3 H2   HT     0.417000        1.0080           0
   33760 WT2  2446 TIP3 OH2  OT    -0.834000       15.9994           0
   33761 WT2  2446 TIP3 H1   HT     0.417000        1.0080           0
   33762 WT2  2446 TIP3 H2   HT     0.417000        1.0080           0
   33763 WT2  2447 TIP3 OH2  OT    -0.834000       15.9994           0
   33764 WT2  2447 TIP3 H1   HT     0.417000        1.0080           0
   33765 WT2  2447 TIP3 H2   HT     0.417000        1.0080           0
   33766 WT2  2448 TIP3 OH2  OT    -0.834000       15.9994           0
   33767 WT2  2448 TIP3 H1   HT     0.417000        1.0080           0
   33768 WT2  2448 TIP3 H2   HT     0.417000        1.0080           0
   33769 WT2  2449 TIP3 OH2  OT    -0.834000       15.9994           0
   33770 WT2  2449 TIP3 H1   HT     0.417000        1.0080           0
   33771 WT2  2449 TIP3 H2   HT     0.417000        1.0080           0
   33772 WT2  2450 TIP3 OH2  OT    -0.834000       15.9994           0
   33773 WT2  2450 TIP3 H1   HT     0.417000        1.0080           0
   33774 WT2  2450 TIP3 H2   HT     0.417000        1.0080           0
   33775 WT2  2458 TIP3 OH2  OT    -0.834000       15.9994           0
   33776 WT2  2458 TIP3 H1   HT     0.417000        1.0080           0
   33777 WT2  2458 TIP3 H2   HT     0.417000        1.0080           0
   33778 WT2  2459 TIP3 OH2  OT    -0.834000       15.9994           0
   33779 WT2  2459 TIP3 H1   HT     0.417000        1.0080           0
   33780 WT2  2459 TIP3 H2   HT     0.417000        1.0080           0
   33781 WT2  2460 TIP3 OH2  OT    -0.834000       15.9994           0
   33782 WT2  2460 TIP3 H1   HT     0.417000        1.0080           0
   33783 WT2  2460 TIP3 H2   HT     0.417000        1.0080           0
   33784 WT2  2461 TIP3 OH2  OT    -0.834000       15.9994           0
   33785 WT2  2461 TIP3 H1   HT     0.417000        1.0080           0
   33786 WT2  2461 TIP3 H2   HT     0.417000        1.0080           0
   33787 WT2  2462 TIP3 OH2  OT    -0.834000       15.9994           0
   33788 WT2  2462 TIP3 H1   HT     0.417000        1.0080           0
   33789 WT2  2462 TIP3 H2   HT     0.417000        1.0080           0
   33790 WT2  2463 TIP3 OH2  OT    -0.834000       15.9994           0
   33791 WT2  2463 TIP3 H1   HT     0.417000        1.0080           0
   33792 WT2  2463 TIP3 H2   HT     0.417000        1.0080           0
   33793 WT2  2464 TIP3 OH2  OT    -0.834000       15.9994           0
   33794 WT2  2464 TIP3 H1   HT     0.417000        1.0080           0
   33795 WT2  2464 TIP3 H2   HT     0.417000        1.0080           0
   33796 WT2  2465 TIP3 OH2  OT    -0.834000       15.9994           0
   33797 WT2  2465 TIP3 H1   HT     0.417000        1.0080           0
   33798 WT2  2465 TIP3 H2   HT     0.417000        1.0080           0
   33799 WT2  2466 TIP3 OH2  OT    -0.834000       15.9994           0
   33800 WT2  2466 TIP3 H1   HT     0.417000        1.0080           0
   33801 WT2  2466 TIP3 H2   HT     0.417000        1.0080           0
   33802 WT2  2467 TIP3 OH2  OT    -0.834000       15.9994           0
   33803 WT2  2467 TIP3 H1   HT     0.417000        1.0080           0
   33804 WT2  2467 TIP3 H2   HT     0.417000        1.0080           0
   33805 WT2  2468 TIP3 OH2  OT    -0.834000       15.9994           0
   33806 WT2  2468 TIP3 H1   HT     0.417000        1.0080           0
   33807 WT2  2468 TIP3 H2   HT     0.417000        1.0080           0
   33808 WT2  2469 TIP3 OH2  OT    -0.834000       15.9994           0
   33809 WT2  2469 TIP3 H1   HT     0.417000        1.0080           0
   33810 WT2  2469 TIP3 H2   HT     0.417000        1.0080           0
   33811 WT2  2471 TIP3 OH2  OT    -0.834000       15.9994           0
   33812 WT2  2471 TIP3 H1   HT     0.417000        1.0080           0
   33813 WT2  2471 TIP3 H2   HT     0.417000        1.0080           0
   33814 WT2  2473 TIP3 OH2  OT    -0.834000       15.9994           0
   33815 WT2  2473 TIP3 H1   HT     0.417000        1.0080           0
   33816 WT2  2473 TIP3 H2   HT     0.417000        1.0080           0
   33817 WT2  2477 TIP3 OH2  OT    -0.834000       15.9994           0
   33818 WT2  2477 TIP3 H1   HT     0.417000        1.0080           0
   33819 WT2  2477 TIP3 H2   HT     0.417000        1.0080           0
   33820 WT2  2479 TIP3 OH2  OT    -0.834000       15.9994           0
   33821 WT2  2479 TIP3 H1   HT     0.417000        1.0080           0
   33822 WT2  2479 TIP3 H2   HT     0.417000        1.0080           0
   33823 WT2  2480 TIP3 OH2  OT    -0.834000       15.9994           0
   33824 WT2  2480 TIP3 H1   HT     0.417000        1.0080           0
   33825 WT2  2480 TIP3 H2   HT     0.417000        1.0080           0
   33826 WT2  2482 TIP3 OH2  OT    -0.834000       15.9994           0
   33827 WT2  2482 TIP3 H1   HT     0.417000        1.0080           0
   33828 WT2  2482 TIP3 H2   HT     0.417000        1.0080           0
   33829 WT2  2483 TIP3 OH2  OT    -0.834000       15.9994           0
   33830 WT2  2483 TIP3 H1   HT     0.417000        1.0080           0
   33831 WT2  2483 TIP3 H2   HT     0.417000        1.0080           0
   33832 WT2  2484 TIP3 OH2  OT    -0.834000       15.9994           0
   33833 WT2  2484 TIP3 H1   HT     0.417000        1.0080           0
   33834 WT2  2484 TIP3 H2   HT     0.417000        1.0080           0
   33835 WT2  2485 TIP3 OH2  OT    -0.834000       15.9994           0
   33836 WT2  2485 TIP3 H1   HT     0.417000        1.0080           0
   33837 WT2  2485 TIP3 H2   HT     0.417000        1.0080           0
   33838 WT2  2486 TIP3 OH2  OT    -0.834000       15.9994           0
   33839 WT2  2486 TIP3 H1   HT     0.417000        1.0080           0
   33840 WT2  2486 TIP3 H2   HT     0.417000        1.0080           0
   33841 WT2  2487 TIP3 OH2  OT    -0.834000       15.9994           0
   33842 WT2  2487 TIP3 H1   HT     0.417000        1.0080           0
   33843 WT2  2487 TIP3 H2   HT     0.417000        1.0080           0
   33844 WT2  2488 TIP3 OH2  OT    -0.834000       15.9994           0
   33845 WT2  2488 TIP3 H1   HT     0.417000        1.0080           0
   33846 WT2  2488 TIP3 H2   HT     0.417000        1.0080           0
   33847 WT2  2489 TIP3 OH2  OT    -0.834000       15.9994           0
   33848 WT2  2489 TIP3 H1   HT     0.417000        1.0080           0
   33849 WT2  2489 TIP3 H2   HT     0.417000        1.0080           0
   33850 WT2  2491 TIP3 OH2  OT    -0.834000       15.9994           0
   33851 WT2  2491 TIP3 H1   HT     0.417000        1.0080           0
   33852 WT2  2491 TIP3 H2   HT     0.417000        1.0080           0
   33853 WT2  2492 TIP3 OH2  OT    -0.834000       15.9994           0
   33854 WT2  2492 TIP3 H1   HT     0.417000        1.0080           0
   33855 WT2  2492 TIP3 H2   HT     0.417000        1.0080           0
   33856 WT2  2494 TIP3 OH2  OT    -0.834000       15.9994           0
   33857 WT2  2494 TIP3 H1   HT     0.417000        1.0080           0
   33858 WT2  2494 TIP3 H2   HT     0.417000        1.0080           0
   33859 WT2  2499 TIP3 OH2  OT    -0.834000       15.9994           0
   33860 WT2  2499 TIP3 H1   HT     0.417000        1.0080           0
   33861 WT2  2499 TIP3 H2   HT     0.417000        1.0080           0
   33862 WT2  2501 TIP3 OH2  OT    -0.834000       15.9994           0
   33863 WT2  2501 TIP3 H1   HT     0.417000        1.0080           0
   33864 WT2  2501 TIP3 H2   HT     0.417000        1.0080           0
   33865 WT2  2503 TIP3 OH2  OT    -0.834000       15.9994           0
   33866 WT2  2503 TIP3 H1   HT     0.417000        1.0080           0
   33867 WT2  2503 TIP3 H2   HT     0.417000        1.0080           0
   33868 WT2  2504 TIP3 OH2  OT    -0.834000       15.9994           0
   33869 WT2  2504 TIP3 H1   HT     0.417000        1.0080           0
   33870 WT2  2504 TIP3 H2   HT     0.417000        1.0080           0
   33871 WT2  2505 TIP3 OH2  OT    -0.834000       15.9994           0
   33872 WT2  2505 TIP3 H1   HT     0.417000        1.0080           0
   33873 WT2  2505 TIP3 H2   HT     0.417000        1.0080           0
   33874 WT2  2506 TIP3 OH2  OT    -0.834000       15.9994           0
   33875 WT2  2506 TIP3 H1   HT     0.417000        1.0080           0
   33876 WT2  2506 TIP3 H2   HT     0.417000        1.0080           0
   33877 WT2  2507 TIP3 OH2  OT    -0.834000       15.9994           0
   33878 WT2  2507 TIP3 H1   HT     0.417000        1.0080           0
   33879 WT2  2507 TIP3 H2   HT     0.417000        1.0080           0
   33880 WT2  2508 TIP3 OH2  OT    -0.834000       15.9994           0
   33881 WT2  2508 TIP3 H1   HT     0.417000        1.0080           0
   33882 WT2  2508 TIP3 H2   HT     0.417000        1.0080           0
   33883 WT2  2509 TIP3 OH2  OT    -0.834000       15.9994           0
   33884 WT2  2509 TIP3 H1   HT     0.417000        1.0080           0
   33885 WT2  2509 TIP3 H2   HT     0.417000        1.0080           0
   33886 WT2  2510 TIP3 OH2  OT    -0.834000       15.9994           0
   33887 WT2  2510 TIP3 H1   HT     0.417000        1.0080           0
   33888 WT2  2510 TIP3 H2   HT     0.417000        1.0080           0
   33889 WT2  2511 TIP3 OH2  OT    -0.834000       15.9994           0
   33890 WT2  2511 TIP3 H1   HT     0.417000        1.0080           0
   33891 WT2  2511 TIP3 H2   HT     0.417000        1.0080           0
   33892 WT2  2512 TIP3 OH2  OT    -0.834000       15.9994           0
   33893 WT2  2512 TIP3 H1   HT     0.417000        1.0080           0
   33894 WT2  2512 TIP3 H2   HT     0.417000        1.0080           0
   33895 WT2  2513 TIP3 OH2  OT    -0.834000       15.9994           0
   33896 WT2  2513 TIP3 H1   HT     0.417000        1.0080           0
   33897 WT2  2513 TIP3 H2   HT     0.417000        1.0080           0
   33898 WT2  2515 TIP3 OH2  OT    -0.834000       15.9994           0
   33899 WT2  2515 TIP3 H1   HT     0.417000        1.0080           0
   33900 WT2  2515 TIP3 H2   HT     0.417000        1.0080           0
   33901 WT2  2519 TIP3 OH2  OT    -0.834000       15.9994           0
   33902 WT2  2519 TIP3 H1   HT     0.417000        1.0080           0
   33903 WT2  2519 TIP3 H2   HT     0.417000        1.0080           0
   33904 WT2  2521 TIP3 OH2  OT    -0.834000       15.9994           0
   33905 WT2  2521 TIP3 H1   HT     0.417000        1.0080           0
   33906 WT2  2521 TIP3 H2   HT     0.417000        1.0080           0
   33907 WT2  2522 TIP3 OH2  OT    -0.834000       15.9994           0
   33908 WT2  2522 TIP3 H1   HT     0.417000        1.0080           0
   33909 WT2  2522 TIP3 H2   HT     0.417000        1.0080           0
   33910 WT2  2523 TIP3 OH2  OT    -0.834000       15.9994           0
   33911 WT2  2523 TIP3 H1   HT     0.417000        1.0080           0
   33912 WT2  2523 TIP3 H2   HT     0.417000        1.0080           0
   33913 WT2  2525 TIP3 OH2  OT    -0.834000       15.9994           0
   33914 WT2  2525 TIP3 H1   HT     0.417000        1.0080           0
   33915 WT2  2525 TIP3 H2   HT     0.417000        1.0080           0
   33916 WT2  2526 TIP3 OH2  OT    -0.834000       15.9994           0
   33917 WT2  2526 TIP3 H1   HT     0.417000        1.0080           0
   33918 WT2  2526 TIP3 H2   HT     0.417000        1.0080           0
   33919 WT2  2527 TIP3 OH2  OT    -0.834000       15.9994           0
   33920 WT2  2527 TIP3 H1   HT     0.417000        1.0080           0
   33921 WT2  2527 TIP3 H2   HT     0.417000        1.0080           0
   33922 WT2  2528 TIP3 OH2  OT    -0.834000       15.9994           0
   33923 WT2  2528 TIP3 H1   HT     0.417000        1.0080           0
   33924 WT2  2528 TIP3 H2   HT     0.417000        1.0080           0
   33925 WT2  2529 TIP3 OH2  OT    -0.834000       15.9994           0
   33926 WT2  2529 TIP3 H1   HT     0.417000        1.0080           0
   33927 WT2  2529 TIP3 H2   HT     0.417000        1.0080           0
   33928 WT2  2530 TIP3 OH2  OT    -0.834000       15.9994           0
   33929 WT2  2530 TIP3 H1   HT     0.417000        1.0080           0
   33930 WT2  2530 TIP3 H2   HT     0.417000        1.0080           0
   33931 WT2  2531 TIP3 OH2  OT    -0.834000       15.9994           0
   33932 WT2  2531 TIP3 H1   HT     0.417000        1.0080           0
   33933 WT2  2531 TIP3 H2   HT     0.417000        1.0080           0
   33934 WT2  2533 TIP3 OH2  OT    -0.834000       15.9994           0
   33935 WT2  2533 TIP3 H1   HT     0.417000        1.0080           0
   33936 WT2  2533 TIP3 H2   HT     0.417000        1.0080           0
   33937 WT2  2539 TIP3 OH2  OT    -0.834000       15.9994           0
   33938 WT2  2539 TIP3 H1   HT     0.417000        1.0080           0
   33939 WT2  2539 TIP3 H2   HT     0.417000        1.0080           0
   33940 WT2  2540 TIP3 OH2  OT    -0.834000       15.9994           0
   33941 WT2  2540 TIP3 H1   HT     0.417000        1.0080           0
   33942 WT2  2540 TIP3 H2   HT     0.417000        1.0080           0
   33943 WT2  2541 TIP3 OH2  OT    -0.834000       15.9994           0
   33944 WT2  2541 TIP3 H1   HT     0.417000        1.0080           0
   33945 WT2  2541 TIP3 H2   HT     0.417000        1.0080           0
   33946 WT2  2544 TIP3 OH2  OT    -0.834000       15.9994           0
   33947 WT2  2544 TIP3 H1   HT     0.417000        1.0080           0
   33948 WT2  2544 TIP3 H2   HT     0.417000        1.0080           0
   33949 WT2  2545 TIP3 OH2  OT    -0.834000       15.9994           0
   33950 WT2  2545 TIP3 H1   HT     0.417000        1.0080           0
   33951 WT2  2545 TIP3 H2   HT     0.417000        1.0080           0
   33952 WT2  2547 TIP3 OH2  OT    -0.834000       15.9994           0
   33953 WT2  2547 TIP3 H1   HT     0.417000        1.0080           0
   33954 WT2  2547 TIP3 H2   HT     0.417000        1.0080           0
   33955 WT2  2548 TIP3 OH2  OT    -0.834000       15.9994           0
   33956 WT2  2548 TIP3 H1   HT     0.417000        1.0080           0
   33957 WT2  2548 TIP3 H2   HT     0.417000        1.0080           0
   33958 WT2  2549 TIP3 OH2  OT    -0.834000       15.9994           0
   33959 WT2  2549 TIP3 H1   HT     0.417000        1.0080           0
   33960 WT2  2549 TIP3 H2   HT     0.417000        1.0080           0
   33961 WT2  2550 TIP3 OH2  OT    -0.834000       15.9994           0
   33962 WT2  2550 TIP3 H1   HT     0.417000        1.0080           0
   33963 WT2  2550 TIP3 H2   HT     0.417000        1.0080           0
   33964 WT2  2551 TIP3 OH2  OT    -0.834000       15.9994           0
   33965 WT2  2551 TIP3 H1   HT     0.417000        1.0080           0
   33966 WT2  2551 TIP3 H2   HT     0.417000        1.0080           0
   33967 WT2  2552 TIP3 OH2  OT    -0.834000       15.9994           0
   33968 WT2  2552 TIP3 H1   HT     0.417000        1.0080           0
   33969 WT2  2552 TIP3 H2   HT     0.417000        1.0080           0
   33970 WT2  2553 TIP3 OH2  OT    -0.834000       15.9994           0
   33971 WT2  2553 TIP3 H1   HT     0.417000        1.0080           0
   33972 WT2  2553 TIP3 H2   HT     0.417000        1.0080           0
   33973 WT2  2554 TIP3 OH2  OT    -0.834000       15.9994           0
   33974 WT2  2554 TIP3 H1   HT     0.417000        1.0080           0
   33975 WT2  2554 TIP3 H2   HT     0.417000        1.0080           0
   33976 WT2  2562 TIP3 OH2  OT    -0.834000       15.9994           0
   33977 WT2  2562 TIP3 H1   HT     0.417000        1.0080           0
   33978 WT2  2562 TIP3 H2   HT     0.417000        1.0080           0
   33979 WT2  2563 TIP3 OH2  OT    -0.834000       15.9994           0
   33980 WT2  2563 TIP3 H1   HT     0.417000        1.0080           0
   33981 WT2  2563 TIP3 H2   HT     0.417000        1.0080           0
   33982 WT2  2564 TIP3 OH2  OT    -0.834000       15.9994           0
   33983 WT2  2564 TIP3 H1   HT     0.417000        1.0080           0
   33984 WT2  2564 TIP3 H2   HT     0.417000        1.0080           0
   33985 WT2  2565 TIP3 OH2  OT    -0.834000       15.9994           0
   33986 WT2  2565 TIP3 H1   HT     0.417000        1.0080           0
   33987 WT2  2565 TIP3 H2   HT     0.417000        1.0080           0
   33988 WT2  2566 TIP3 OH2  OT    -0.834000       15.9994           0
   33989 WT2  2566 TIP3 H1   HT     0.417000        1.0080           0
   33990 WT2  2566 TIP3 H2   HT     0.417000        1.0080           0
   33991 WT2  2567 TIP3 OH2  OT    -0.834000       15.9994           0
   33992 WT2  2567 TIP3 H1   HT     0.417000        1.0080           0
   33993 WT2  2567 TIP3 H2   HT     0.417000        1.0080           0
   33994 WT2  2568 TIP3 OH2  OT    -0.834000       15.9994           0
   33995 WT2  2568 TIP3 H1   HT     0.417000        1.0080           0
   33996 WT2  2568 TIP3 H2   HT     0.417000        1.0080           0
   33997 WT2  2569 TIP3 OH2  OT    -0.834000       15.9994           0
   33998 WT2  2569 TIP3 H1   HT     0.417000        1.0080           0
   33999 WT2  2569 TIP3 H2   HT     0.417000        1.0080           0
   34000 WT2  2570 TIP3 OH2  OT    -0.834000       15.9994           0
   34001 WT2  2570 TIP3 H1   HT     0.417000        1.0080           0
   34002 WT2  2570 TIP3 H2   HT     0.417000        1.0080           0
   34003 WT2  2571 TIP3 OH2  OT    -0.834000       15.9994           0
   34004 WT2  2571 TIP3 H1   HT     0.417000        1.0080           0
   34005 WT2  2571 TIP3 H2   HT     0.417000        1.0080           0
   34006 WT2  2572 TIP3 OH2  OT    -0.834000       15.9994           0
   34007 WT2  2572 TIP3 H1   HT     0.417000        1.0080           0
   34008 WT2  2572 TIP3 H2   HT     0.417000        1.0080           0
   34009 WT2  2573 TIP3 OH2  OT    -0.834000       15.9994           0
   34010 WT2  2573 TIP3 H1   HT     0.417000        1.0080           0
   34011 WT2  2573 TIP3 H2   HT     0.417000        1.0080           0
   34012 WT2  2574 TIP3 OH2  OT    -0.834000       15.9994           0
   34013 WT2  2574 TIP3 H1   HT     0.417000        1.0080           0
   34014 WT2  2574 TIP3 H2   HT     0.417000        1.0080           0
   34015 WT2  2575 TIP3 OH2  OT    -0.834000       15.9994           0
   34016 WT2  2575 TIP3 H1   HT     0.417000        1.0080           0
   34017 WT2  2575 TIP3 H2   HT     0.417000        1.0080           0
   34018 WT2  2580 TIP3 OH2  OT    -0.834000       15.9994           0
   34019 WT2  2580 TIP3 H1   HT     0.417000        1.0080           0
   34020 WT2  2580 TIP3 H2   HT     0.417000        1.0080           0
   34021 WT2  2582 TIP3 OH2  OT    -0.834000       15.9994           0
   34022 WT2  2582 TIP3 H1   HT     0.417000        1.0080           0
   34023 WT2  2582 TIP3 H2   HT     0.417000        1.0080           0
   34024 WT2  2584 TIP3 OH2  OT    -0.834000       15.9994           0
   34025 WT2  2584 TIP3 H1   HT     0.417000        1.0080           0
   34026 WT2  2584 TIP3 H2   HT     0.417000        1.0080           0
   34027 WT2  2587 TIP3 OH2  OT    -0.834000       15.9994           0
   34028 WT2  2587 TIP3 H1   HT     0.417000        1.0080           0
   34029 WT2  2587 TIP3 H2   HT     0.417000        1.0080           0
   34030 WT2  2588 TIP3 OH2  OT    -0.834000       15.9994           0
   34031 WT2  2588 TIP3 H1   HT     0.417000        1.0080           0
   34032 WT2  2588 TIP3 H2   HT     0.417000        1.0080           0
   34033 WT2  2589 TIP3 OH2  OT    -0.834000       15.9994           0
   34034 WT2  2589 TIP3 H1   HT     0.417000        1.0080           0
   34035 WT2  2589 TIP3 H2   HT     0.417000        1.0080           0
   34036 WT2  2591 TIP3 OH2  OT    -0.834000       15.9994           0
   34037 WT2  2591 TIP3 H1   HT     0.417000        1.0080           0
   34038 WT2  2591 TIP3 H2   HT     0.417000        1.0080           0
   34039 WT2  2592 TIP3 OH2  OT    -0.834000       15.9994           0
   34040 WT2  2592 TIP3 H1   HT     0.417000        1.0080           0
   34041 WT2  2592 TIP3 H2   HT     0.417000        1.0080           0
   34042 WT2  2593 TIP3 OH2  OT    -0.834000       15.9994           0
   34043 WT2  2593 TIP3 H1   HT     0.417000        1.0080           0
   34044 WT2  2593 TIP3 H2   HT     0.417000        1.0080           0
   34045 WT2  2594 TIP3 OH2  OT    -0.834000       15.9994           0
   34046 WT2  2594 TIP3 H1   HT     0.417000        1.0080           0
   34047 WT2  2594 TIP3 H2   HT     0.417000        1.0080           0
   34048 WT2  2595 TIP3 OH2  OT    -0.834000       15.9994           0
   34049 WT2  2595 TIP3 H1   HT     0.417000        1.0080           0
   34050 WT2  2595 TIP3 H2   HT     0.417000        1.0080           0
   34051 WT2  2596 TIP3 OH2  OT    -0.834000       15.9994           0
   34052 WT2  2596 TIP3 H1   HT     0.417000        1.0080           0
   34053 WT2  2596 TIP3 H2   HT     0.417000        1.0080           0
   34054 WT2  2597 TIP3 OH2  OT    -0.834000       15.9994           0
   34055 WT2  2597 TIP3 H1   HT     0.417000        1.0080           0
   34056 WT2  2597 TIP3 H2   HT     0.417000        1.0080           0
   34057 WT2  2598 TIP3 OH2  OT    -0.834000       15.9994           0
   34058 WT2  2598 TIP3 H1   HT     0.417000        1.0080           0
   34059 WT2  2598 TIP3 H2   HT     0.417000        1.0080           0
   34060 WT2  2606 TIP3 OH2  OT    -0.834000       15.9994           0
   34061 WT2  2606 TIP3 H1   HT     0.417000        1.0080           0
   34062 WT2  2606 TIP3 H2   HT     0.417000        1.0080           0
   34063 WT2  2607 TIP3 OH2  OT    -0.834000       15.9994           0
   34064 WT2  2607 TIP3 H1   HT     0.417000        1.0080           0
   34065 WT2  2607 TIP3 H2   HT     0.417000        1.0080           0
   34066 WT2  2608 TIP3 OH2  OT    -0.834000       15.9994           0
   34067 WT2  2608 TIP3 H1   HT     0.417000        1.0080           0
   34068 WT2  2608 TIP3 H2   HT     0.417000        1.0080           0
   34069 WT2  2609 TIP3 OH2  OT    -0.834000       15.9994           0
   34070 WT2  2609 TIP3 H1   HT     0.417000        1.0080           0
   34071 WT2  2609 TIP3 H2   HT     0.417000        1.0080           0
   34072 WT2  2610 TIP3 OH2  OT    -0.834000       15.9994           0
   34073 WT2  2610 TIP3 H1   HT     0.417000        1.0080           0
   34074 WT2  2610 TIP3 H2   HT     0.417000        1.0080           0
   34075 WT2  2611 TIP3 OH2  OT    -0.834000       15.9994           0
   34076 WT2  2611 TIP3 H1   HT     0.417000        1.0080           0
   34077 WT2  2611 TIP3 H2   HT     0.417000        1.0080           0
   34078 WT2  2612 TIP3 OH2  OT    -0.834000       15.9994           0
   34079 WT2  2612 TIP3 H1   HT     0.417000        1.0080           0
   34080 WT2  2612 TIP3 H2   HT     0.417000        1.0080           0
   34081 WT2  2613 TIP3 OH2  OT    -0.834000       15.9994           0
   34082 WT2  2613 TIP3 H1   HT     0.417000        1.0080           0
   34083 WT2  2613 TIP3 H2   HT     0.417000        1.0080           0
   34084 WT2  2614 TIP3 OH2  OT    -0.834000       15.9994           0
   34085 WT2  2614 TIP3 H1   HT     0.417000        1.0080           0
   34086 WT2  2614 TIP3 H2   HT     0.417000        1.0080           0
   34087 WT2  2615 TIP3 OH2  OT    -0.834000       15.9994           0
   34088 WT2  2615 TIP3 H1   HT     0.417000        1.0080           0
   34089 WT2  2615 TIP3 H2   HT     0.417000        1.0080           0
   34090 WT2  2616 TIP3 OH2  OT    -0.834000       15.9994           0
   34091 WT2  2616 TIP3 H1   HT     0.417000        1.0080           0
   34092 WT2  2616 TIP3 H2   HT     0.417000        1.0080           0
   34093 WT2  2617 TIP3 OH2  OT    -0.834000       15.9994           0
   34094 WT2  2617 TIP3 H1   HT     0.417000        1.0080           0
   34095 WT2  2617 TIP3 H2   HT     0.417000        1.0080           0
   34096 WT2  2619 TIP3 OH2  OT    -0.834000       15.9994           0
   34097 WT2  2619 TIP3 H1   HT     0.417000        1.0080           0
   34098 WT2  2619 TIP3 H2   HT     0.417000        1.0080           0
   34099 WT2  2628 TIP3 OH2  OT    -0.834000       15.9994           0
   34100 WT2  2628 TIP3 H1   HT     0.417000        1.0080           0
   34101 WT2  2628 TIP3 H2   HT     0.417000        1.0080           0
   34102 WT2  2631 TIP3 OH2  OT    -0.834000       15.9994           0
   34103 WT2  2631 TIP3 H1   HT     0.417000        1.0080           0
   34104 WT2  2631 TIP3 H2   HT     0.417000        1.0080           0
   34105 WT2  2632 TIP3 OH2  OT    -0.834000       15.9994           0
   34106 WT2  2632 TIP3 H1   HT     0.417000        1.0080           0
   34107 WT2  2632 TIP3 H2   HT     0.417000        1.0080           0
   34108 WT2  2633 TIP3 OH2  OT    -0.834000       15.9994           0
   34109 WT2  2633 TIP3 H1   HT     0.417000        1.0080           0
   34110 WT2  2633 TIP3 H2   HT     0.417000        1.0080           0
   34111 WT2  2634 TIP3 OH2  OT    -0.834000       15.9994           0
   34112 WT2  2634 TIP3 H1   HT     0.417000        1.0080           0
   34113 WT2  2634 TIP3 H2   HT     0.417000        1.0080           0
   34114 WT2  2635 TIP3 OH2  OT    -0.834000       15.9994           0
   34115 WT2  2635 TIP3 H1   HT     0.417000        1.0080           0
   34116 WT2  2635 TIP3 H2   HT     0.417000        1.0080           0
   34117 WT2  2637 TIP3 OH2  OT    -0.834000       15.9994           0
   34118 WT2  2637 TIP3 H1   HT     0.417000        1.0080           0
   34119 WT2  2637 TIP3 H2   HT     0.417000        1.0080           0
   34120 WT2  2640 TIP3 OH2  OT    -0.834000       15.9994           0
   34121 WT2  2640 TIP3 H1   HT     0.417000        1.0080           0
   34122 WT2  2640 TIP3 H2   HT     0.417000        1.0080           0
   34123 WT2  2643 TIP3 OH2  OT    -0.834000       15.9994           0
   34124 WT2  2643 TIP3 H1   HT     0.417000        1.0080           0
   34125 WT2  2643 TIP3 H2   HT     0.417000        1.0080           0
   34126 WT2  2644 TIP3 OH2  OT    -0.834000       15.9994           0
   34127 WT2  2644 TIP3 H1   HT     0.417000        1.0080           0
   34128 WT2  2644 TIP3 H2   HT     0.417000        1.0080           0
   34129 WT2  2648 TIP3 OH2  OT    -0.834000       15.9994           0
   34130 WT2  2648 TIP3 H1   HT     0.417000        1.0080           0
   34131 WT2  2648 TIP3 H2   HT     0.417000        1.0080           0
   34132 WT2  2649 TIP3 OH2  OT    -0.834000       15.9994           0
   34133 WT2  2649 TIP3 H1   HT     0.417000        1.0080           0
   34134 WT2  2649 TIP3 H2   HT     0.417000        1.0080           0
   34135 WT2  2650 TIP3 OH2  OT    -0.834000       15.9994           0
   34136 WT2  2650 TIP3 H1   HT     0.417000        1.0080           0
   34137 WT2  2650 TIP3 H2   HT     0.417000        1.0080           0
   34138 WT2  2651 TIP3 OH2  OT    -0.834000       15.9994           0
   34139 WT2  2651 TIP3 H1   HT     0.417000        1.0080           0
   34140 WT2  2651 TIP3 H2   HT     0.417000        1.0080           0
   34141 WT2  2653 TIP3 OH2  OT    -0.834000       15.9994           0
   34142 WT2  2653 TIP3 H1   HT     0.417000        1.0080           0
   34143 WT2  2653 TIP3 H2   HT     0.417000        1.0080           0
   34144 WT2  2654 TIP3 OH2  OT    -0.834000       15.9994           0
   34145 WT2  2654 TIP3 H1   HT     0.417000        1.0080           0
   34146 WT2  2654 TIP3 H2   HT     0.417000        1.0080           0
   34147 WT2  2655 TIP3 OH2  OT    -0.834000       15.9994           0
   34148 WT2  2655 TIP3 H1   HT     0.417000        1.0080           0
   34149 WT2  2655 TIP3 H2   HT     0.417000        1.0080           0
   34150 WT2  2656 TIP3 OH2  OT    -0.834000       15.9994           0
   34151 WT2  2656 TIP3 H1   HT     0.417000        1.0080           0
   34152 WT2  2656 TIP3 H2   HT     0.417000        1.0080           0
   34153 WT2  2657 TIP3 OH2  OT    -0.834000       15.9994           0
   34154 WT2  2657 TIP3 H1   HT     0.417000        1.0080           0
   34155 WT2  2657 TIP3 H2   HT     0.417000        1.0080           0
   34156 WT2  2658 TIP3 OH2  OT    -0.834000       15.9994           0
   34157 WT2  2658 TIP3 H1   HT     0.417000        1.0080           0
   34158 WT2  2658 TIP3 H2   HT     0.417000        1.0080           0
   34159 WT2  2659 TIP3 OH2  OT    -0.834000       15.9994           0
   34160 WT2  2659 TIP3 H1   HT     0.417000        1.0080           0
   34161 WT2  2659 TIP3 H2   HT     0.417000        1.0080           0
   34162 WT2  2662 TIP3 OH2  OT    -0.834000       15.9994           0
   34163 WT2  2662 TIP3 H1   HT     0.417000        1.0080           0
   34164 WT2  2662 TIP3 H2   HT     0.417000        1.0080           0
   34165 WT2  2667 TIP3 OH2  OT    -0.834000       15.9994           0
   34166 WT2  2667 TIP3 H1   HT     0.417000        1.0080           0
   34167 WT2  2667 TIP3 H2   HT     0.417000        1.0080           0
   34168 WT2  2668 TIP3 OH2  OT    -0.834000       15.9994           0
   34169 WT2  2668 TIP3 H1   HT     0.417000        1.0080           0
   34170 WT2  2668 TIP3 H2   HT     0.417000        1.0080           0
   34171 WT2  2669 TIP3 OH2  OT    -0.834000       15.9994           0
   34172 WT2  2669 TIP3 H1   HT     0.417000        1.0080           0
   34173 WT2  2669 TIP3 H2   HT     0.417000        1.0080           0
   34174 WT2  2670 TIP3 OH2  OT    -0.834000       15.9994           0
   34175 WT2  2670 TIP3 H1   HT     0.417000        1.0080           0
   34176 WT2  2670 TIP3 H2   HT     0.417000        1.0080           0
   34177 WT2  2672 TIP3 OH2  OT    -0.834000       15.9994           0
   34178 WT2  2672 TIP3 H1   HT     0.417000        1.0080           0
   34179 WT2  2672 TIP3 H2   HT     0.417000        1.0080           0
   34180 WT2  2673 TIP3 OH2  OT    -0.834000       15.9994           0
   34181 WT2  2673 TIP3 H1   HT     0.417000        1.0080           0
   34182 WT2  2673 TIP3 H2   HT     0.417000        1.0080           0
   34183 WT2  2674 TIP3 OH2  OT    -0.834000       15.9994           0
   34184 WT2  2674 TIP3 H1   HT     0.417000        1.0080           0
   34185 WT2  2674 TIP3 H2   HT     0.417000        1.0080           0
   34186 WT2  2675 TIP3 OH2  OT    -0.834000       15.9994           0
   34187 WT2  2675 TIP3 H1   HT     0.417000        1.0080           0
   34188 WT2  2675 TIP3 H2   HT     0.417000        1.0080           0
   34189 WT2  2676 TIP3 OH2  OT    -0.834000       15.9994           0
   34190 WT2  2676 TIP3 H1   HT     0.417000        1.0080           0
   34191 WT2  2676 TIP3 H2   HT     0.417000        1.0080           0
   34192 WT2  2677 TIP3 OH2  OT    -0.834000       15.9994           0
   34193 WT2  2677 TIP3 H1   HT     0.417000        1.0080           0
   34194 WT2  2677 TIP3 H2   HT     0.417000        1.0080           0
   34195 WT2  2678 TIP3 OH2  OT    -0.834000       15.9994           0
   34196 WT2  2678 TIP3 H1   HT     0.417000        1.0080           0
   34197 WT2  2678 TIP3 H2   HT     0.417000        1.0080           0
   34198 WT2  2679 TIP3 OH2  OT    -0.834000       15.9994           0
   34199 WT2  2679 TIP3 H1   HT     0.417000        1.0080           0
   34200 WT2  2679 TIP3 H2   HT     0.417000        1.0080           0
   34201 WT2  2680 TIP3 OH2  OT    -0.834000       15.9994           0
   34202 WT2  2680 TIP3 H1   HT     0.417000        1.0080           0
   34203 WT2  2680 TIP3 H2   HT     0.417000        1.0080           0
   34204 WT2  2681 TIP3 OH2  OT    -0.834000       15.9994           0
   34205 WT2  2681 TIP3 H1   HT     0.417000        1.0080           0
   34206 WT2  2681 TIP3 H2   HT     0.417000        1.0080           0
   34207 WT2  2682 TIP3 OH2  OT    -0.834000       15.9994           0
   34208 WT2  2682 TIP3 H1   HT     0.417000        1.0080           0
   34209 WT2  2682 TIP3 H2   HT     0.417000        1.0080           0
   34210 WT2  2683 TIP3 OH2  OT    -0.834000       15.9994           0
   34211 WT2  2683 TIP3 H1   HT     0.417000        1.0080           0
   34212 WT2  2683 TIP3 H2   HT     0.417000        1.0080           0
   34213 WT2  2684 TIP3 OH2  OT    -0.834000       15.9994           0
   34214 WT2  2684 TIP3 H1   HT     0.417000        1.0080           0
   34215 WT2  2684 TIP3 H2   HT     0.417000        1.0080           0
   34216 WT2  2689 TIP3 OH2  OT    -0.834000       15.9994           0
   34217 WT2  2689 TIP3 H1   HT     0.417000        1.0080           0
   34218 WT2  2689 TIP3 H2   HT     0.417000        1.0080           0
   34219 WT2  2690 TIP3 OH2  OT    -0.834000       15.9994           0
   34220 WT2  2690 TIP3 H1   HT     0.417000        1.0080           0
   34221 WT2  2690 TIP3 H2   HT     0.417000        1.0080           0
   34222 WT2  2691 TIP3 OH2  OT    -0.834000       15.9994           0
   34223 WT2  2691 TIP3 H1   HT     0.417000        1.0080           0
   34224 WT2  2691 TIP3 H2   HT     0.417000        1.0080           0
   34225 WT2  2692 TIP3 OH2  OT    -0.834000       15.9994           0
   34226 WT2  2692 TIP3 H1   HT     0.417000        1.0080           0
   34227 WT2  2692 TIP3 H2   HT     0.417000        1.0080           0
   34228 WT2  2693 TIP3 OH2  OT    -0.834000       15.9994           0
   34229 WT2  2693 TIP3 H1   HT     0.417000        1.0080           0
   34230 WT2  2693 TIP3 H2   HT     0.417000        1.0080           0
   34231 WT2  2694 TIP3 OH2  OT    -0.834000       15.9994           0
   34232 WT2  2694 TIP3 H1   HT     0.417000        1.0080           0
   34233 WT2  2694 TIP3 H2   HT     0.417000        1.0080           0
   34234 WT2  2695 TIP3 OH2  OT    -0.834000       15.9994           0
   34235 WT2  2695 TIP3 H1   HT     0.417000        1.0080           0
   34236 WT2  2695 TIP3 H2   HT     0.417000        1.0080           0
   34237 WT2  2696 TIP3 OH2  OT    -0.834000       15.9994           0
   34238 WT2  2696 TIP3 H1   HT     0.417000        1.0080           0
   34239 WT2  2696 TIP3 H2   HT     0.417000        1.0080           0
   34240 WT2  2697 TIP3 OH2  OT    -0.834000       15.9994           0
   34241 WT2  2697 TIP3 H1   HT     0.417000        1.0080           0
   34242 WT2  2697 TIP3 H2   HT     0.417000        1.0080           0
   34243 WT2  2698 TIP3 OH2  OT    -0.834000       15.9994           0
   34244 WT2  2698 TIP3 H1   HT     0.417000        1.0080           0
   34245 WT2  2698 TIP3 H2   HT     0.417000        1.0080           0
   34246 WT2  2699 TIP3 OH2  OT    -0.834000       15.9994           0
   34247 WT2  2699 TIP3 H1   HT     0.417000        1.0080           0
   34248 WT2  2699 TIP3 H2   HT     0.417000        1.0080           0
   34249 WT2  2701 TIP3 OH2  OT    -0.834000       15.9994           0
   34250 WT2  2701 TIP3 H1   HT     0.417000        1.0080           0
   34251 WT2  2701 TIP3 H2   HT     0.417000        1.0080           0
   34252 WT2  2703 TIP3 OH2  OT    -0.834000       15.9994           0
   34253 WT2  2703 TIP3 H1   HT     0.417000        1.0080           0
   34254 WT2  2703 TIP3 H2   HT     0.417000        1.0080           0
   34255 WT2  2704 TIP3 OH2  OT    -0.834000       15.9994           0
   34256 WT2  2704 TIP3 H1   HT     0.417000        1.0080           0
   34257 WT2  2704 TIP3 H2   HT     0.417000        1.0080           0
   34258 WT2  2709 TIP3 OH2  OT    -0.834000       15.9994           0
   34259 WT2  2709 TIP3 H1   HT     0.417000        1.0080           0
   34260 WT2  2709 TIP3 H2   HT     0.417000        1.0080           0
   34261 WT2  2712 TIP3 OH2  OT    -0.834000       15.9994           0
   34262 WT2  2712 TIP3 H1   HT     0.417000        1.0080           0
   34263 WT2  2712 TIP3 H2   HT     0.417000        1.0080           0
   34264 WT2  2713 TIP3 OH2  OT    -0.834000       15.9994           0
   34265 WT2  2713 TIP3 H1   HT     0.417000        1.0080           0
   34266 WT2  2713 TIP3 H2   HT     0.417000        1.0080           0
   34267 WT2  2714 TIP3 OH2  OT    -0.834000       15.9994           0
   34268 WT2  2714 TIP3 H1   HT     0.417000        1.0080           0
   34269 WT2  2714 TIP3 H2   HT     0.417000        1.0080           0
   34270 WT2  2715 TIP3 OH2  OT    -0.834000       15.9994           0
   34271 WT2  2715 TIP3 H1   HT     0.417000        1.0080           0
   34272 WT2  2715 TIP3 H2   HT     0.417000        1.0080           0
   34273 WT2  2716 TIP3 OH2  OT    -0.834000       15.9994           0
   34274 WT2  2716 TIP3 H1   HT     0.417000        1.0080           0
   34275 WT2  2716 TIP3 H2   HT     0.417000        1.0080           0
   34276 WT2  2717 TIP3 OH2  OT    -0.834000       15.9994           0
   34277 WT2  2717 TIP3 H1   HT     0.417000        1.0080           0
   34278 WT2  2717 TIP3 H2   HT     0.417000        1.0080           0
   34279 WT2  2718 TIP3 OH2  OT    -0.834000       15.9994           0
   34280 WT2  2718 TIP3 H1   HT     0.417000        1.0080           0
   34281 WT2  2718 TIP3 H2   HT     0.417000        1.0080           0
   34282 WT2  2719 TIP3 OH2  OT    -0.834000       15.9994           0
   34283 WT2  2719 TIP3 H1   HT     0.417000        1.0080           0
   34284 WT2  2719 TIP3 H2   HT     0.417000        1.0080           0
   34285 WT2  2720 TIP3 OH2  OT    -0.834000       15.9994           0
   34286 WT2  2720 TIP3 H1   HT     0.417000        1.0080           0
   34287 WT2  2720 TIP3 H2   HT     0.417000        1.0080           0
   34288 WT2  2721 TIP3 OH2  OT    -0.834000       15.9994           0
   34289 WT2  2721 TIP3 H1   HT     0.417000        1.0080           0
   34290 WT2  2721 TIP3 H2   HT     0.417000        1.0080           0
   34291 WT2  2722 TIP3 OH2  OT    -0.834000       15.9994           0
   34292 WT2  2722 TIP3 H1   HT     0.417000        1.0080           0
   34293 WT2  2722 TIP3 H2   HT     0.417000        1.0080           0
   34294 WT2  2723 TIP3 OH2  OT    -0.834000       15.9994           0
   34295 WT2  2723 TIP3 H1   HT     0.417000        1.0080           0
   34296 WT2  2723 TIP3 H2   HT     0.417000        1.0080           0
   34297 WT2  2724 TIP3 OH2  OT    -0.834000       15.9994           0
   34298 WT2  2724 TIP3 H1   HT     0.417000        1.0080           0
   34299 WT2  2724 TIP3 H2   HT     0.417000        1.0080           0
   34300 WT2  2732 TIP3 OH2  OT    -0.834000       15.9994           0
   34301 WT2  2732 TIP3 H1   HT     0.417000        1.0080           0
   34302 WT2  2732 TIP3 H2   HT     0.417000        1.0080           0
   34303 WT2  2734 TIP3 OH2  OT    -0.834000       15.9994           0
   34304 WT2  2734 TIP3 H1   HT     0.417000        1.0080           0
   34305 WT2  2734 TIP3 H2   HT     0.417000        1.0080           0
   34306 WT2  2735 TIP3 OH2  OT    -0.834000       15.9994           0
   34307 WT2  2735 TIP3 H1   HT     0.417000        1.0080           0
   34308 WT2  2735 TIP3 H2   HT     0.417000        1.0080           0
   34309 WT2  2736 TIP3 OH2  OT    -0.834000       15.9994           0
   34310 WT2  2736 TIP3 H1   HT     0.417000        1.0080           0
   34311 WT2  2736 TIP3 H2   HT     0.417000        1.0080           0
   34312 WT2  2737 TIP3 OH2  OT    -0.834000       15.9994           0
   34313 WT2  2737 TIP3 H1   HT     0.417000        1.0080           0
   34314 WT2  2737 TIP3 H2   HT     0.417000        1.0080           0
   34315 WT2  2738 TIP3 OH2  OT    -0.834000       15.9994           0
   34316 WT2  2738 TIP3 H1   HT     0.417000        1.0080           0
   34317 WT2  2738 TIP3 H2   HT     0.417000        1.0080           0
   34318 WT2  2739 TIP3 OH2  OT    -0.834000       15.9994           0
   34319 WT2  2739 TIP3 H1   HT     0.417000        1.0080           0
   34320 WT2  2739 TIP3 H2   HT     0.417000        1.0080           0
   34321 WT2  2740 TIP3 OH2  OT    -0.834000       15.9994           0
   34322 WT2  2740 TIP3 H1   HT     0.417000        1.0080           0
   34323 WT2  2740 TIP3 H2   HT     0.417000        1.0080           0
   34324 WT2  2741 TIP3 OH2  OT    -0.834000       15.9994           0
   34325 WT2  2741 TIP3 H1   HT     0.417000        1.0080           0
   34326 WT2  2741 TIP3 H2   HT     0.417000        1.0080           0
   34327 WT2  2743 TIP3 OH2  OT    -0.834000       15.9994           0
   34328 WT2  2743 TIP3 H1   HT     0.417000        1.0080           0
   34329 WT2  2743 TIP3 H2   HT     0.417000        1.0080           0
   34330 WT2  2744 TIP3 OH2  OT    -0.834000       15.9994           0
   34331 WT2  2744 TIP3 H1   HT     0.417000        1.0080           0
   34332 WT2  2744 TIP3 H2   HT     0.417000        1.0080           0
   34333 WT2  2746 TIP3 OH2  OT    -0.834000       15.9994           0
   34334 WT2  2746 TIP3 H1   HT     0.417000        1.0080           0
   34335 WT2  2746 TIP3 H2   HT     0.417000        1.0080           0
   34336 WT2  2753 TIP3 OH2  OT    -0.834000       15.9994           0
   34337 WT2  2753 TIP3 H1   HT     0.417000        1.0080           0
   34338 WT2  2753 TIP3 H2   HT     0.417000        1.0080           0
   34339 WT2  2754 TIP3 OH2  OT    -0.834000       15.9994           0
   34340 WT2  2754 TIP3 H1   HT     0.417000        1.0080           0
   34341 WT2  2754 TIP3 H2   HT     0.417000        1.0080           0
   34342 WT2  2755 TIP3 OH2  OT    -0.834000       15.9994           0
   34343 WT2  2755 TIP3 H1   HT     0.417000        1.0080           0
   34344 WT2  2755 TIP3 H2   HT     0.417000        1.0080           0
   34345 WT2  2756 TIP3 OH2  OT    -0.834000       15.9994           0
   34346 WT2  2756 TIP3 H1   HT     0.417000        1.0080           0
   34347 WT2  2756 TIP3 H2   HT     0.417000        1.0080           0
   34348 WT2  2757 TIP3 OH2  OT    -0.834000       15.9994           0
   34349 WT2  2757 TIP3 H1   HT     0.417000        1.0080           0
   34350 WT2  2757 TIP3 H2   HT     0.417000        1.0080           0
   34351 WT2  2758 TIP3 OH2  OT    -0.834000       15.9994           0
   34352 WT2  2758 TIP3 H1   HT     0.417000        1.0080           0
   34353 WT2  2758 TIP3 H2   HT     0.417000        1.0080           0
   34354 WT2  2760 TIP3 OH2  OT    -0.834000       15.9994           0
   34355 WT2  2760 TIP3 H1   HT     0.417000        1.0080           0
   34356 WT2  2760 TIP3 H2   HT     0.417000        1.0080           0
   34357 WT2  2761 TIP3 OH2  OT    -0.834000       15.9994           0
   34358 WT2  2761 TIP3 H1   HT     0.417000        1.0080           0
   34359 WT2  2761 TIP3 H2   HT     0.417000        1.0080           0
   34360 WT2  2762 TIP3 OH2  OT    -0.834000       15.9994           0
   34361 WT2  2762 TIP3 H1   HT     0.417000        1.0080           0
   34362 WT2  2762 TIP3 H2   HT     0.417000        1.0080           0
   34363 WT2  2767 TIP3 OH2  OT    -0.834000       15.9994           0
   34364 WT2  2767 TIP3 H1   HT     0.417000        1.0080           0
   34365 WT2  2767 TIP3 H2   HT     0.417000        1.0080           0
   34366 WT2  2771 TIP3 OH2  OT    -0.834000       15.9994           0
   34367 WT2  2771 TIP3 H1   HT     0.417000        1.0080           0
   34368 WT2  2771 TIP3 H2   HT     0.417000        1.0080           0
   34369 WT2  2773 TIP3 OH2  OT    -0.834000       15.9994           0
   34370 WT2  2773 TIP3 H1   HT     0.417000        1.0080           0
   34371 WT2  2773 TIP3 H2   HT     0.417000        1.0080           0
   34372 WT2  2774 TIP3 OH2  OT    -0.834000       15.9994           0
   34373 WT2  2774 TIP3 H1   HT     0.417000        1.0080           0
   34374 WT2  2774 TIP3 H2   HT     0.417000        1.0080           0
   34375 WT2  2775 TIP3 OH2  OT    -0.834000       15.9994           0
   34376 WT2  2775 TIP3 H1   HT     0.417000        1.0080           0
   34377 WT2  2775 TIP3 H2   HT     0.417000        1.0080           0
   34378 WT2  2776 TIP3 OH2  OT    -0.834000       15.9994           0
   34379 WT2  2776 TIP3 H1   HT     0.417000        1.0080           0
   34380 WT2  2776 TIP3 H2   HT     0.417000        1.0080           0
   34381 WT2  2777 TIP3 OH2  OT    -0.834000       15.9994           0
   34382 WT2  2777 TIP3 H1   HT     0.417000        1.0080           0
   34383 WT2  2777 TIP3 H2   HT     0.417000        1.0080           0
   34384 WT2  2778 TIP3 OH2  OT    -0.834000       15.9994           0
   34385 WT2  2778 TIP3 H1   HT     0.417000        1.0080           0
   34386 WT2  2778 TIP3 H2   HT     0.417000        1.0080           0
   34387 WT2  2779 TIP3 OH2  OT    -0.834000       15.9994           0
   34388 WT2  2779 TIP3 H1   HT     0.417000        1.0080           0
   34389 WT2  2779 TIP3 H2   HT     0.417000        1.0080           0
   34390 WT2  2780 TIP3 OH2  OT    -0.834000       15.9994           0
   34391 WT2  2780 TIP3 H1   HT     0.417000        1.0080           0
   34392 WT2  2780 TIP3 H2   HT     0.417000        1.0080           0
   34393 WT2  2781 TIP3 OH2  OT    -0.834000       15.9994           0
   34394 WT2  2781 TIP3 H1   HT     0.417000        1.0080           0
   34395 WT2  2781 TIP3 H2   HT     0.417000        1.0080           0
   34396 WT2  2782 TIP3 OH2  OT    -0.834000       15.9994           0
   34397 WT2  2782 TIP3 H1   HT     0.417000        1.0080           0
   34398 WT2  2782 TIP3 H2   HT     0.417000        1.0080           0
   34399 WT2  2783 TIP3 OH2  OT    -0.834000       15.9994           0
   34400 WT2  2783 TIP3 H1   HT     0.417000        1.0080           0
   34401 WT2  2783 TIP3 H2   HT     0.417000        1.0080           0
   34402 WT2  2784 TIP3 OH2  OT    -0.834000       15.9994           0
   34403 WT2  2784 TIP3 H1   HT     0.417000        1.0080           0
   34404 WT2  2784 TIP3 H2   HT     0.417000        1.0080           0
   34405 WT2  2785 TIP3 OH2  OT    -0.834000       15.9994           0
   34406 WT2  2785 TIP3 H1   HT     0.417000        1.0080           0
   34407 WT2  2785 TIP3 H2   HT     0.417000        1.0080           0
   34408 WT2  2790 TIP3 OH2  OT    -0.834000       15.9994           0
   34409 WT2  2790 TIP3 H1   HT     0.417000        1.0080           0
   34410 WT2  2790 TIP3 H2   HT     0.417000        1.0080           0
   34411 WT2  2793 TIP3 OH2  OT    -0.834000       15.9994           0
   34412 WT2  2793 TIP3 H1   HT     0.417000        1.0080           0
   34413 WT2  2793 TIP3 H2   HT     0.417000        1.0080           0
   34414 WT2  2794 TIP3 OH2  OT    -0.834000       15.9994           0
   34415 WT2  2794 TIP3 H1   HT     0.417000        1.0080           0
   34416 WT2  2794 TIP3 H2   HT     0.417000        1.0080           0
   34417 WT2  2795 TIP3 OH2  OT    -0.834000       15.9994           0
   34418 WT2  2795 TIP3 H1   HT     0.417000        1.0080           0
   34419 WT2  2795 TIP3 H2   HT     0.417000        1.0080           0
   34420 WT2  2796 TIP3 OH2  OT    -0.834000       15.9994           0
   34421 WT2  2796 TIP3 H1   HT     0.417000        1.0080           0
   34422 WT2  2796 TIP3 H2   HT     0.417000        1.0080           0
   34423 WT2  2797 TIP3 OH2  OT    -0.834000       15.9994           0
   34424 WT2  2797 TIP3 H1   HT     0.417000        1.0080           0
   34425 WT2  2797 TIP3 H2   HT     0.417000        1.0080           0
   34426 WT2  2798 TIP3 OH2  OT    -0.834000       15.9994           0
   34427 WT2  2798 TIP3 H1   HT     0.417000        1.0080           0
   34428 WT2  2798 TIP3 H2   HT     0.417000        1.0080           0
   34429 WT2  2799 TIP3 OH2  OT    -0.834000       15.9994           0
   34430 WT2  2799 TIP3 H1   HT     0.417000        1.0080           0
   34431 WT2  2799 TIP3 H2   HT     0.417000        1.0080           0
   34432 WT2  2800 TIP3 OH2  OT    -0.834000       15.9994           0
   34433 WT2  2800 TIP3 H1   HT     0.417000        1.0080           0
   34434 WT2  2800 TIP3 H2   HT     0.417000        1.0080           0
   34435 WT2  2801 TIP3 OH2  OT    -0.834000       15.9994           0
   34436 WT2  2801 TIP3 H1   HT     0.417000        1.0080           0
   34437 WT2  2801 TIP3 H2   HT     0.417000        1.0080           0
   34438 WT2  2802 TIP3 OH2  OT    -0.834000       15.9994           0
   34439 WT2  2802 TIP3 H1   HT     0.417000        1.0080           0
   34440 WT2  2802 TIP3 H2   HT     0.417000        1.0080           0
   34441 WT2  2803 TIP3 OH2  OT    -0.834000       15.9994           0
   34442 WT2  2803 TIP3 H1   HT     0.417000        1.0080           0
   34443 WT2  2803 TIP3 H2   HT     0.417000        1.0080           0
   34444 WT2  2806 TIP3 OH2  OT    -0.834000       15.9994           0
   34445 WT2  2806 TIP3 H1   HT     0.417000        1.0080           0
   34446 WT2  2806 TIP3 H2   HT     0.417000        1.0080           0
   34447 WT2  2814 TIP3 OH2  OT    -0.834000       15.9994           0
   34448 WT2  2814 TIP3 H1   HT     0.417000        1.0080           0
   34449 WT2  2814 TIP3 H2   HT     0.417000        1.0080           0
   34450 WT2  2815 TIP3 OH2  OT    -0.834000       15.9994           0
   34451 WT2  2815 TIP3 H1   HT     0.417000        1.0080           0
   34452 WT2  2815 TIP3 H2   HT     0.417000        1.0080           0
   34453 WT2  2817 TIP3 OH2  OT    -0.834000       15.9994           0
   34454 WT2  2817 TIP3 H1   HT     0.417000        1.0080           0
   34455 WT2  2817 TIP3 H2   HT     0.417000        1.0080           0
   34456 WT2  2818 TIP3 OH2  OT    -0.834000       15.9994           0
   34457 WT2  2818 TIP3 H1   HT     0.417000        1.0080           0
   34458 WT2  2818 TIP3 H2   HT     0.417000        1.0080           0
   34459 WT2  2819 TIP3 OH2  OT    -0.834000       15.9994           0
   34460 WT2  2819 TIP3 H1   HT     0.417000        1.0080           0
   34461 WT2  2819 TIP3 H2   HT     0.417000        1.0080           0
   34462 WT2  2820 TIP3 OH2  OT    -0.834000       15.9994           0
   34463 WT2  2820 TIP3 H1   HT     0.417000        1.0080           0
   34464 WT2  2820 TIP3 H2   HT     0.417000        1.0080           0
   34465 WT2  2821 TIP3 OH2  OT    -0.834000       15.9994           0
   34466 WT2  2821 TIP3 H1   HT     0.417000        1.0080           0
   34467 WT2  2821 TIP3 H2   HT     0.417000        1.0080           0
   34468 WT2  2822 TIP3 OH2  OT    -0.834000       15.9994           0
   34469 WT2  2822 TIP3 H1   HT     0.417000        1.0080           0
   34470 WT2  2822 TIP3 H2   HT     0.417000        1.0080           0
   34471 WT2  2823 TIP3 OH2  OT    -0.834000       15.9994           0
   34472 WT2  2823 TIP3 H1   HT     0.417000        1.0080           0
   34473 WT2  2823 TIP3 H2   HT     0.417000        1.0080           0
   34474 WT2  2824 TIP3 OH2  OT    -0.834000       15.9994           0
   34475 WT2  2824 TIP3 H1   HT     0.417000        1.0080           0
   34476 WT2  2824 TIP3 H2   HT     0.417000        1.0080           0
   34477 WT2  2825 TIP3 OH2  OT    -0.834000       15.9994           0
   34478 WT2  2825 TIP3 H1   HT     0.417000        1.0080           0
   34479 WT2  2825 TIP3 H2   HT     0.417000        1.0080           0
   34480 WT2  2826 TIP3 OH2  OT    -0.834000       15.9994           0
   34481 WT2  2826 TIP3 H1   HT     0.417000        1.0080           0
   34482 WT2  2826 TIP3 H2   HT     0.417000        1.0080           0
   34483 WT2  2827 TIP3 OH2  OT    -0.834000       15.9994           0
   34484 WT2  2827 TIP3 H1   HT     0.417000        1.0080           0
   34485 WT2  2827 TIP3 H2   HT     0.417000        1.0080           0
   34486 WT2  2829 TIP3 OH2  OT    -0.834000       15.9994           0
   34487 WT2  2829 TIP3 H1   HT     0.417000        1.0080           0
   34488 WT2  2829 TIP3 H2   HT     0.417000        1.0080           0
   34489 WT2  2830 TIP3 OH2  OT    -0.834000       15.9994           0
   34490 WT2  2830 TIP3 H1   HT     0.417000        1.0080           0
   34491 WT2  2830 TIP3 H2   HT     0.417000        1.0080           0
   34492 WT2  2831 TIP3 OH2  OT    -0.834000       15.9994           0
   34493 WT2  2831 TIP3 H1   HT     0.417000        1.0080           0
   34494 WT2  2831 TIP3 H2   HT     0.417000        1.0080           0
   34495 WT2  2832 TIP3 OH2  OT    -0.834000       15.9994           0
   34496 WT2  2832 TIP3 H1   HT     0.417000        1.0080           0
   34497 WT2  2832 TIP3 H2   HT     0.417000        1.0080           0
   34498 WT2  2838 TIP3 OH2  OT    -0.834000       15.9994           0
   34499 WT2  2838 TIP3 H1   HT     0.417000        1.0080           0
   34500 WT2  2838 TIP3 H2   HT     0.417000        1.0080           0
   34501 WT2  2839 TIP3 OH2  OT    -0.834000       15.9994           0
   34502 WT2  2839 TIP3 H1   HT     0.417000        1.0080           0
   34503 WT2  2839 TIP3 H2   HT     0.417000        1.0080           0
   34504 WT2  2840 TIP3 OH2  OT    -0.834000       15.9994           0
   34505 WT2  2840 TIP3 H1   HT     0.417000        1.0080           0
   34506 WT2  2840 TIP3 H2   HT     0.417000        1.0080           0
   34507 WT2  2841 TIP3 OH2  OT    -0.834000       15.9994           0
   34508 WT2  2841 TIP3 H1   HT     0.417000        1.0080           0
   34509 WT2  2841 TIP3 H2   HT     0.417000        1.0080           0
   34510 WT2  2842 TIP3 OH2  OT    -0.834000       15.9994           0
   34511 WT2  2842 TIP3 H1   HT     0.417000        1.0080           0
   34512 WT2  2842 TIP3 H2   HT     0.417000        1.0080           0
   34513 WT2  2843 TIP3 OH2  OT    -0.834000       15.9994           0
   34514 WT2  2843 TIP3 H1   HT     0.417000        1.0080           0
   34515 WT2  2843 TIP3 H2   HT     0.417000        1.0080           0
   34516 WT2  2844 TIP3 OH2  OT    -0.834000       15.9994           0
   34517 WT2  2844 TIP3 H1   HT     0.417000        1.0080           0
   34518 WT2  2844 TIP3 H2   HT     0.417000        1.0080           0
   34519 WT2  2845 TIP3 OH2  OT    -0.834000       15.9994           0
   34520 WT2  2845 TIP3 H1   HT     0.417000        1.0080           0
   34521 WT2  2845 TIP3 H2   HT     0.417000        1.0080           0
   34522 WT2  2846 TIP3 OH2  OT    -0.834000       15.9994           0
   34523 WT2  2846 TIP3 H1   HT     0.417000        1.0080           0
   34524 WT2  2846 TIP3 H2   HT     0.417000        1.0080           0
   34525 WT2  2847 TIP3 OH2  OT    -0.834000       15.9994           0
   34526 WT2  2847 TIP3 H1   HT     0.417000        1.0080           0
   34527 WT2  2847 TIP3 H2   HT     0.417000        1.0080           0
   34528 WT2  2848 TIP3 OH2  OT    -0.834000       15.9994           0
   34529 WT2  2848 TIP3 H1   HT     0.417000        1.0080           0
   34530 WT2  2848 TIP3 H2   HT     0.417000        1.0080           0
   34531 WT2  2853 TIP3 OH2  OT    -0.834000       15.9994           0
   34532 WT2  2853 TIP3 H1   HT     0.417000        1.0080           0
   34533 WT2  2853 TIP3 H2   HT     0.417000        1.0080           0
   34534 WT2  2857 TIP3 OH2  OT    -0.834000       15.9994           0
   34535 WT2  2857 TIP3 H1   HT     0.417000        1.0080           0
   34536 WT2  2857 TIP3 H2   HT     0.417000        1.0080           0
   34537 WT2  2858 TIP3 OH2  OT    -0.834000       15.9994           0
   34538 WT2  2858 TIP3 H1   HT     0.417000        1.0080           0
   34539 WT2  2858 TIP3 H2   HT     0.417000        1.0080           0
   34540 WT2  2859 TIP3 OH2  OT    -0.834000       15.9994           0
   34541 WT2  2859 TIP3 H1   HT     0.417000        1.0080           0
   34542 WT2  2859 TIP3 H2   HT     0.417000        1.0080           0
   34543 WT2  2860 TIP3 OH2  OT    -0.834000       15.9994           0
   34544 WT2  2860 TIP3 H1   HT     0.417000        1.0080           0
   34545 WT2  2860 TIP3 H2   HT     0.417000        1.0080           0
   34546 WT2  2861 TIP3 OH2  OT    -0.834000       15.9994           0
   34547 WT2  2861 TIP3 H1   HT     0.417000        1.0080           0
   34548 WT2  2861 TIP3 H2   HT     0.417000        1.0080           0
   34549 WT2  2862 TIP3 OH2  OT    -0.834000       15.9994           0
   34550 WT2  2862 TIP3 H1   HT     0.417000        1.0080           0
   34551 WT2  2862 TIP3 H2   HT     0.417000        1.0080           0
   34552 WT2  2863 TIP3 OH2  OT    -0.834000       15.9994           0
   34553 WT2  2863 TIP3 H1   HT     0.417000        1.0080           0
   34554 WT2  2863 TIP3 H2   HT     0.417000        1.0080           0
   34555 WT2  2864 TIP3 OH2  OT    -0.834000       15.9994           0
   34556 WT2  2864 TIP3 H1   HT     0.417000        1.0080           0
   34557 WT2  2864 TIP3 H2   HT     0.417000        1.0080           0
   34558 WT2  2865 TIP3 OH2  OT    -0.834000       15.9994           0
   34559 WT2  2865 TIP3 H1   HT     0.417000        1.0080           0
   34560 WT2  2865 TIP3 H2   HT     0.417000        1.0080           0
   34561 WT2  2866 TIP3 OH2  OT    -0.834000       15.9994           0
   34562 WT2  2866 TIP3 H1   HT     0.417000        1.0080           0
   34563 WT2  2866 TIP3 H2   HT     0.417000        1.0080           0
   34564 WT2  2867 TIP3 OH2  OT    -0.834000       15.9994           0
   34565 WT2  2867 TIP3 H1   HT     0.417000        1.0080           0
   34566 WT2  2867 TIP3 H2   HT     0.417000        1.0080           0
   34567 WT2  2877 TIP3 OH2  OT    -0.834000       15.9994           0
   34568 WT2  2877 TIP3 H1   HT     0.417000        1.0080           0
   34569 WT2  2877 TIP3 H2   HT     0.417000        1.0080           0
   34570 WT2  2878 TIP3 OH2  OT    -0.834000       15.9994           0
   34571 WT2  2878 TIP3 H1   HT     0.417000        1.0080           0
   34572 WT2  2878 TIP3 H2   HT     0.417000        1.0080           0
   34573 WT2  2880 TIP3 OH2  OT    -0.834000       15.9994           0
   34574 WT2  2880 TIP3 H1   HT     0.417000        1.0080           0
   34575 WT2  2880 TIP3 H2   HT     0.417000        1.0080           0
   34576 WT2  2882 TIP3 OH2  OT    -0.834000       15.9994           0
   34577 WT2  2882 TIP3 H1   HT     0.417000        1.0080           0
   34578 WT2  2882 TIP3 H2   HT     0.417000        1.0080           0
   34579 WT2  2883 TIP3 OH2  OT    -0.834000       15.9994           0
   34580 WT2  2883 TIP3 H1   HT     0.417000        1.0080           0
   34581 WT2  2883 TIP3 H2   HT     0.417000        1.0080           0
   34582 WT2  2884 TIP3 OH2  OT    -0.834000       15.9994           0
   34583 WT2  2884 TIP3 H1   HT     0.417000        1.0080           0
   34584 WT2  2884 TIP3 H2   HT     0.417000        1.0080           0
   34585 WT2  2885 TIP3 OH2  OT    -0.834000       15.9994           0
   34586 WT2  2885 TIP3 H1   HT     0.417000        1.0080           0
   34587 WT2  2885 TIP3 H2   HT     0.417000        1.0080           0
   34588 WT2  2886 TIP3 OH2  OT    -0.834000       15.9994           0
   34589 WT2  2886 TIP3 H1   HT     0.417000        1.0080           0
   34590 WT2  2886 TIP3 H2   HT     0.417000        1.0080           0
   34591 WT2  2887 TIP3 OH2  OT    -0.834000       15.9994           0
   34592 WT2  2887 TIP3 H1   HT     0.417000        1.0080           0
   34593 WT2  2887 TIP3 H2   HT     0.417000        1.0080           0
   34594 WT2  2888 TIP3 OH2  OT    -0.834000       15.9994           0
   34595 WT2  2888 TIP3 H1   HT     0.417000        1.0080           0
   34596 WT2  2888 TIP3 H2   HT     0.417000        1.0080           0
   34597 WT2  2890 TIP3 OH2  OT    -0.834000       15.9994           0
   34598 WT2  2890 TIP3 H1   HT     0.417000        1.0080           0
   34599 WT2  2890 TIP3 H2   HT     0.417000        1.0080           0
   34600 WT2  2891 TIP3 OH2  OT    -0.834000       15.9994           0
   34601 WT2  2891 TIP3 H1   HT     0.417000        1.0080           0
   34602 WT2  2891 TIP3 H2   HT     0.417000        1.0080           0
   34603 WT2  2893 TIP3 OH2  OT    -0.834000       15.9994           0
   34604 WT2  2893 TIP3 H1   HT     0.417000        1.0080           0
   34605 WT2  2893 TIP3 H2   HT     0.417000        1.0080           0
   34606 WT2  2899 TIP3 OH2  OT    -0.834000       15.9994           0
   34607 WT2  2899 TIP3 H1   HT     0.417000        1.0080           0
   34608 WT2  2899 TIP3 H2   HT     0.417000        1.0080           0
   34609 WT2  2900 TIP3 OH2  OT    -0.834000       15.9994           0
   34610 WT2  2900 TIP3 H1   HT     0.417000        1.0080           0
   34611 WT2  2900 TIP3 H2   HT     0.417000        1.0080           0
   34612 WT2  2901 TIP3 OH2  OT    -0.834000       15.9994           0
   34613 WT2  2901 TIP3 H1   HT     0.417000        1.0080           0
   34614 WT2  2901 TIP3 H2   HT     0.417000        1.0080           0
   34615 WT2  2903 TIP3 OH2  OT    -0.834000       15.9994           0
   34616 WT2  2903 TIP3 H1   HT     0.417000        1.0080           0
   34617 WT2  2903 TIP3 H2   HT     0.417000        1.0080           0
   34618 WT2  2904 TIP3 OH2  OT    -0.834000       15.9994           0
   34619 WT2  2904 TIP3 H1   HT     0.417000        1.0080           0
   34620 WT2  2904 TIP3 H2   HT     0.417000        1.0080           0
   34621 WT2  2905 TIP3 OH2  OT    -0.834000       15.9994           0
   34622 WT2  2905 TIP3 H1   HT     0.417000        1.0080           0
   34623 WT2  2905 TIP3 H2   HT     0.417000        1.0080           0
   34624 WT2  2906 TIP3 OH2  OT    -0.834000       15.9994           0
   34625 WT2  2906 TIP3 H1   HT     0.417000        1.0080           0
   34626 WT2  2906 TIP3 H2   HT     0.417000        1.0080           0
   34627 WT2  2907 TIP3 OH2  OT    -0.834000       15.9994           0
   34628 WT2  2907 TIP3 H1   HT     0.417000        1.0080           0
   34629 WT2  2907 TIP3 H2   HT     0.417000        1.0080           0
   34630 WT2  2908 TIP3 OH2  OT    -0.834000       15.9994           0
   34631 WT2  2908 TIP3 H1   HT     0.417000        1.0080           0
   34632 WT2  2908 TIP3 H2   HT     0.417000        1.0080           0
   34633 WT2  2909 TIP3 OH2  OT    -0.834000       15.9994           0
   34634 WT2  2909 TIP3 H1   HT     0.417000        1.0080           0
   34635 WT2  2909 TIP3 H2   HT     0.417000        1.0080           0
   34636 WT2  2911 TIP3 OH2  OT    -0.834000       15.9994           0
   34637 WT2  2911 TIP3 H1   HT     0.417000        1.0080           0
   34638 WT2  2911 TIP3 H2   HT     0.417000        1.0080           0
   34639 WT2  2913 TIP3 OH2  OT    -0.834000       15.9994           0
   34640 WT2  2913 TIP3 H1   HT     0.417000        1.0080           0
   34641 WT2  2913 TIP3 H2   HT     0.417000        1.0080           0
   34642 WT2  2915 TIP3 OH2  OT    -0.834000       15.9994           0
   34643 WT2  2915 TIP3 H1   HT     0.417000        1.0080           0
   34644 WT2  2915 TIP3 H2   HT     0.417000        1.0080           0
   34645 WT2  2918 TIP3 OH2  OT    -0.834000       15.9994           0
   34646 WT2  2918 TIP3 H1   HT     0.417000        1.0080           0
   34647 WT2  2918 TIP3 H2   HT     0.417000        1.0080           0
   34648 WT2  2919 TIP3 OH2  OT    -0.834000       15.9994           0
   34649 WT2  2919 TIP3 H1   HT     0.417000        1.0080           0
   34650 WT2  2919 TIP3 H2   HT     0.417000        1.0080           0
   34651 WT2  2920 TIP3 OH2  OT    -0.834000       15.9994           0
   34652 WT2  2920 TIP3 H1   HT     0.417000        1.0080           0
   34653 WT2  2920 TIP3 H2   HT     0.417000        1.0080           0
   34654 WT2  2922 TIP3 OH2  OT    -0.834000       15.9994           0
   34655 WT2  2922 TIP3 H1   HT     0.417000        1.0080           0
   34656 WT2  2922 TIP3 H2   HT     0.417000        1.0080           0
   34657 WT2  2923 TIP3 OH2  OT    -0.834000       15.9994           0
   34658 WT2  2923 TIP3 H1   HT     0.417000        1.0080           0
   34659 WT2  2923 TIP3 H2   HT     0.417000        1.0080           0
   34660 WT2  2924 TIP3 OH2  OT    -0.834000       15.9994           0
   34661 WT2  2924 TIP3 H1   HT     0.417000        1.0080           0
   34662 WT2  2924 TIP3 H2   HT     0.417000        1.0080           0
   34663 WT2  2925 TIP3 OH2  OT    -0.834000       15.9994           0
   34664 WT2  2925 TIP3 H1   HT     0.417000        1.0080           0
   34665 WT2  2925 TIP3 H2   HT     0.417000        1.0080           0
   34666 WT2  2926 TIP3 OH2  OT    -0.834000       15.9994           0
   34667 WT2  2926 TIP3 H1   HT     0.417000        1.0080           0
   34668 WT2  2926 TIP3 H2   HT     0.417000        1.0080           0
   34669 WT2  2927 TIP3 OH2  OT    -0.834000       15.9994           0
   34670 WT2  2927 TIP3 H1   HT     0.417000        1.0080           0
   34671 WT2  2927 TIP3 H2   HT     0.417000        1.0080           0
   34672 WT2  2928 TIP3 OH2  OT    -0.834000       15.9994           0
   34673 WT2  2928 TIP3 H1   HT     0.417000        1.0080           0
   34674 WT2  2928 TIP3 H2   HT     0.417000        1.0080           0
   34675 WT2  2929 TIP3 OH2  OT    -0.834000       15.9994           0
   34676 WT2  2929 TIP3 H1   HT     0.417000        1.0080           0
   34677 WT2  2929 TIP3 H2   HT     0.417000        1.0080           0
   34678 WT2  2930 TIP3 OH2  OT    -0.834000       15.9994           0
   34679 WT2  2930 TIP3 H1   HT     0.417000        1.0080           0
   34680 WT2  2930 TIP3 H2   HT     0.417000        1.0080           0
   34681 WT2  2931 TIP3 OH2  OT    -0.834000       15.9994           0
   34682 WT2  2931 TIP3 H1   HT     0.417000        1.0080           0
   34683 WT2  2931 TIP3 H2   HT     0.417000        1.0080           0
   34684 WT2  2932 TIP3 OH2  OT    -0.834000       15.9994           0
   34685 WT2  2932 TIP3 H1   HT     0.417000        1.0080           0
   34686 WT2  2932 TIP3 H2   HT     0.417000        1.0080           0
   34687 WT2  2934 TIP3 OH2  OT    -0.834000       15.9994           0
   34688 WT2  2934 TIP3 H1   HT     0.417000        1.0080           0
   34689 WT2  2934 TIP3 H2   HT     0.417000        1.0080           0
   34690 WT2  2938 TIP3 OH2  OT    -0.834000       15.9994           0
   34691 WT2  2938 TIP3 H1   HT     0.417000        1.0080           0
   34692 WT2  2938 TIP3 H2   HT     0.417000        1.0080           0
   34693 WT2  2941 TIP3 OH2  OT    -0.834000       15.9994           0
   34694 WT2  2941 TIP3 H1   HT     0.417000        1.0080           0
   34695 WT2  2941 TIP3 H2   HT     0.417000        1.0080           0
   34696 WT2  2942 TIP3 OH2  OT    -0.834000       15.9994           0
   34697 WT2  2942 TIP3 H1   HT     0.417000        1.0080           0
   34698 WT2  2942 TIP3 H2   HT     0.417000        1.0080           0
   34699 WT2  2943 TIP3 OH2  OT    -0.834000       15.9994           0
   34700 WT2  2943 TIP3 H1   HT     0.417000        1.0080           0
   34701 WT2  2943 TIP3 H2   HT     0.417000        1.0080           0
   34702 WT2  2944 TIP3 OH2  OT    -0.834000       15.9994           0
   34703 WT2  2944 TIP3 H1   HT     0.417000        1.0080           0
   34704 WT2  2944 TIP3 H2   HT     0.417000        1.0080           0
   34705 WT2  2945 TIP3 OH2  OT    -0.834000       15.9994           0
   34706 WT2  2945 TIP3 H1   HT     0.417000        1.0080           0
   34707 WT2  2945 TIP3 H2   HT     0.417000        1.0080           0
   34708 WT2  2946 TIP3 OH2  OT    -0.834000       15.9994           0
   34709 WT2  2946 TIP3 H1   HT     0.417000        1.0080           0
   34710 WT2  2946 TIP3 H2   HT     0.417000        1.0080           0
   34711 WT2  2947 TIP3 OH2  OT    -0.834000       15.9994           0
   34712 WT2  2947 TIP3 H1   HT     0.417000        1.0080           0
   34713 WT2  2947 TIP3 H2   HT     0.417000        1.0080           0
   34714 WT2  2948 TIP3 OH2  OT    -0.834000       15.9994           0
   34715 WT2  2948 TIP3 H1   HT     0.417000        1.0080           0
   34716 WT2  2948 TIP3 H2   HT     0.417000        1.0080           0
   34717 WT2  2949 TIP3 OH2  OT    -0.834000       15.9994           0
   34718 WT2  2949 TIP3 H1   HT     0.417000        1.0080           0
   34719 WT2  2949 TIP3 H2   HT     0.417000        1.0080           0
   34720 WT2  2952 TIP3 OH2  OT    -0.834000       15.9994           0
   34721 WT2  2952 TIP3 H1   HT     0.417000        1.0080           0
   34722 WT2  2952 TIP3 H2   HT     0.417000        1.0080           0
   34723 WT2  2953 TIP3 OH2  OT    -0.834000       15.9994           0
   34724 WT2  2953 TIP3 H1   HT     0.417000        1.0080           0
   34725 WT2  2953 TIP3 H2   HT     0.417000        1.0080           0
   34726 WT2  2955 TIP3 OH2  OT    -0.834000       15.9994           0
   34727 WT2  2955 TIP3 H1   HT     0.417000        1.0080           0
   34728 WT2  2955 TIP3 H2   HT     0.417000        1.0080           0
   34729 WT2  2960 TIP3 OH2  OT    -0.834000       15.9994           0
   34730 WT2  2960 TIP3 H1   HT     0.417000        1.0080           0
   34731 WT2  2960 TIP3 H2   HT     0.417000        1.0080           0
   34732 WT2  2961 TIP3 OH2  OT    -0.834000       15.9994           0
   34733 WT2  2961 TIP3 H1   HT     0.417000        1.0080           0
   34734 WT2  2961 TIP3 H2   HT     0.417000        1.0080           0
   34735 WT2  2963 TIP3 OH2  OT    -0.834000       15.9994           0
   34736 WT2  2963 TIP3 H1   HT     0.417000        1.0080           0
   34737 WT2  2963 TIP3 H2   HT     0.417000        1.0080           0
   34738 WT2  2964 TIP3 OH2  OT    -0.834000       15.9994           0
   34739 WT2  2964 TIP3 H1   HT     0.417000        1.0080           0
   34740 WT2  2964 TIP3 H2   HT     0.417000        1.0080           0
   34741 WT2  2965 TIP3 OH2  OT    -0.834000       15.9994           0
   34742 WT2  2965 TIP3 H1   HT     0.417000        1.0080           0
   34743 WT2  2965 TIP3 H2   HT     0.417000        1.0080           0
   34744 WT2  2966 TIP3 OH2  OT    -0.834000       15.9994           0
   34745 WT2  2966 TIP3 H1   HT     0.417000        1.0080           0
   34746 WT2  2966 TIP3 H2   HT     0.417000        1.0080           0
   34747 WT2  2967 TIP3 OH2  OT    -0.834000       15.9994           0
   34748 WT2  2967 TIP3 H1   HT     0.417000        1.0080           0
   34749 WT2  2967 TIP3 H2   HT     0.417000        1.0080           0
   34750 WT2  2968 TIP3 OH2  OT    -0.834000       15.9994           0
   34751 WT2  2968 TIP3 H1   HT     0.417000        1.0080           0
   34752 WT2  2968 TIP3 H2   HT     0.417000        1.0080           0
   34753 WT2  2969 TIP3 OH2  OT    -0.834000       15.9994           0
   34754 WT2  2969 TIP3 H1   HT     0.417000        1.0080           0
   34755 WT2  2969 TIP3 H2   HT     0.417000        1.0080           0
   34756 WT2  2970 TIP3 OH2  OT    -0.834000       15.9994           0
   34757 WT2  2970 TIP3 H1   HT     0.417000        1.0080           0
   34758 WT2  2970 TIP3 H2   HT     0.417000        1.0080           0
   34759 WT2  2972 TIP3 OH2  OT    -0.834000       15.9994           0
   34760 WT2  2972 TIP3 H1   HT     0.417000        1.0080           0
   34761 WT2  2972 TIP3 H2   HT     0.417000        1.0080           0
   34762 WT2  2975 TIP3 OH2  OT    -0.834000       15.9994           0
   34763 WT2  2975 TIP3 H1   HT     0.417000        1.0080           0
   34764 WT2  2975 TIP3 H2   HT     0.417000        1.0080           0
   34765 WT2  2978 TIP3 OH2  OT    -0.834000       15.9994           0
   34766 WT2  2978 TIP3 H1   HT     0.417000        1.0080           0
   34767 WT2  2978 TIP3 H2   HT     0.417000        1.0080           0
   34768 WT2  2979 TIP3 OH2  OT    -0.834000       15.9994           0
   34769 WT2  2979 TIP3 H1   HT     0.417000        1.0080           0
   34770 WT2  2979 TIP3 H2   HT     0.417000        1.0080           0
   34771 WT2  2981 TIP3 OH2  OT    -0.834000       15.9994           0
   34772 WT2  2981 TIP3 H1   HT     0.417000        1.0080           0
   34773 WT2  2981 TIP3 H2   HT     0.417000        1.0080           0
   34774 WT2  2983 TIP3 OH2  OT    -0.834000       15.9994           0
   34775 WT2  2983 TIP3 H1   HT     0.417000        1.0080           0
   34776 WT2  2983 TIP3 H2   HT     0.417000        1.0080           0
   34777 WT2  2984 TIP3 OH2  OT    -0.834000       15.9994           0
   34778 WT2  2984 TIP3 H1   HT     0.417000        1.0080           0
   34779 WT2  2984 TIP3 H2   HT     0.417000        1.0080           0
   34780 WT2  2986 TIP3 OH2  OT    -0.834000       15.9994           0
   34781 WT2  2986 TIP3 H1   HT     0.417000        1.0080           0
   34782 WT2  2986 TIP3 H2   HT     0.417000        1.0080           0
   34783 WT2  2987 TIP3 OH2  OT    -0.834000       15.9994           0
   34784 WT2  2987 TIP3 H1   HT     0.417000        1.0080           0
   34785 WT2  2987 TIP3 H2   HT     0.417000        1.0080           0
   34786 WT2  2988 TIP3 OH2  OT    -0.834000       15.9994           0
   34787 WT2  2988 TIP3 H1   HT     0.417000        1.0080           0
   34788 WT2  2988 TIP3 H2   HT     0.417000        1.0080           0
   34789 WT2  2989 TIP3 OH2  OT    -0.834000       15.9994           0
   34790 WT2  2989 TIP3 H1   HT     0.417000        1.0080           0
   34791 WT2  2989 TIP3 H2   HT     0.417000        1.0080           0
   34792 WT2  2990 TIP3 OH2  OT    -0.834000       15.9994           0
   34793 WT2  2990 TIP3 H1   HT     0.417000        1.0080           0
   34794 WT2  2990 TIP3 H2   HT     0.417000        1.0080           0
   34795 WT2  2991 TIP3 OH2  OT    -0.834000       15.9994           0
   34796 WT2  2991 TIP3 H1   HT     0.417000        1.0080           0
   34797 WT2  2991 TIP3 H2   HT     0.417000        1.0080           0
   34798 WT2  2992 TIP3 OH2  OT    -0.834000       15.9994           0
   34799 WT2  2992 TIP3 H1   HT     0.417000        1.0080           0
   34800 WT2  2992 TIP3 H2   HT     0.417000        1.0080           0
   34801 WT2  2993 TIP3 OH2  OT    -0.834000       15.9994           0
   34802 WT2  2993 TIP3 H1   HT     0.417000        1.0080           0
   34803 WT2  2993 TIP3 H2   HT     0.417000        1.0080           0
   34804 WT2  2994 TIP3 OH2  OT    -0.834000       15.9994           0
   34805 WT2  2994 TIP3 H1   HT     0.417000        1.0080           0
   34806 WT2  2994 TIP3 H2   HT     0.417000        1.0080           0
   34807 WT2  2996 TIP3 OH2  OT    -0.834000       15.9994           0
   34808 WT2  2996 TIP3 H1   HT     0.417000        1.0080           0
   34809 WT2  2996 TIP3 H2   HT     0.417000        1.0080           0
   34810 WT2  3002 TIP3 OH2  OT    -0.834000       15.9994           0
   34811 WT2  3002 TIP3 H1   HT     0.417000        1.0080           0
   34812 WT2  3002 TIP3 H2   HT     0.417000        1.0080           0
   34813 WT2  3006 TIP3 OH2  OT    -0.834000       15.9994           0
   34814 WT2  3006 TIP3 H1   HT     0.417000        1.0080           0
   34815 WT2  3006 TIP3 H2   HT     0.417000        1.0080           0
   34816 WT2  3007 TIP3 OH2  OT    -0.834000       15.9994           0
   34817 WT2  3007 TIP3 H1   HT     0.417000        1.0080           0
   34818 WT2  3007 TIP3 H2   HT     0.417000        1.0080           0
   34819 WT2  3008 TIP3 OH2  OT    -0.834000       15.9994           0
   34820 WT2  3008 TIP3 H1   HT     0.417000        1.0080           0
   34821 WT2  3008 TIP3 H2   HT     0.417000        1.0080           0
   34822 WT2  3009 TIP3 OH2  OT    -0.834000       15.9994           0
   34823 WT2  3009 TIP3 H1   HT     0.417000        1.0080           0
   34824 WT2  3009 TIP3 H2   HT     0.417000        1.0080           0
   34825 WT2  3010 TIP3 OH2  OT    -0.834000       15.9994           0
   34826 WT2  3010 TIP3 H1   HT     0.417000        1.0080           0
   34827 WT2  3010 TIP3 H2   HT     0.417000        1.0080           0
   34828 WT2  3011 TIP3 OH2  OT    -0.834000       15.9994           0
   34829 WT2  3011 TIP3 H1   HT     0.417000        1.0080           0
   34830 WT2  3011 TIP3 H2   HT     0.417000        1.0080           0
   34831 WT2  3012 TIP3 OH2  OT    -0.834000       15.9994           0
   34832 WT2  3012 TIP3 H1   HT     0.417000        1.0080           0
   34833 WT2  3012 TIP3 H2   HT     0.417000        1.0080           0
   34834 WT2  3013 TIP3 OH2  OT    -0.834000       15.9994           0
   34835 WT2  3013 TIP3 H1   HT     0.417000        1.0080           0
   34836 WT2  3013 TIP3 H2   HT     0.417000        1.0080           0
   34837 WT2  3015 TIP3 OH2  OT    -0.834000       15.9994           0
   34838 WT2  3015 TIP3 H1   HT     0.417000        1.0080           0
   34839 WT2  3015 TIP3 H2   HT     0.417000        1.0080           0
   34840 WT2  3016 TIP3 OH2  OT    -0.834000       15.9994           0
   34841 WT2  3016 TIP3 H1   HT     0.417000        1.0080           0
   34842 WT2  3016 TIP3 H2   HT     0.417000        1.0080           0
   34843 WT2  3017 TIP3 OH2  OT    -0.834000       15.9994           0
   34844 WT2  3017 TIP3 H1   HT     0.417000        1.0080           0
   34845 WT2  3017 TIP3 H2   HT     0.417000        1.0080           0
   34846 WT2  3018 TIP3 OH2  OT    -0.834000       15.9994           0
   34847 WT2  3018 TIP3 H1   HT     0.417000        1.0080           0
   34848 WT2  3018 TIP3 H2   HT     0.417000        1.0080           0
   34849 WT2  3019 TIP3 OH2  OT    -0.834000       15.9994           0
   34850 WT2  3019 TIP3 H1   HT     0.417000        1.0080           0
   34851 WT2  3019 TIP3 H2   HT     0.417000        1.0080           0
   34852 WT2  3022 TIP3 OH2  OT    -0.834000       15.9994           0
   34853 WT2  3022 TIP3 H1   HT     0.417000        1.0080           0
   34854 WT2  3022 TIP3 H2   HT     0.417000        1.0080           0
   34855 WT2  3027 TIP3 OH2  OT    -0.834000       15.9994           0
   34856 WT2  3027 TIP3 H1   HT     0.417000        1.0080           0
   34857 WT2  3027 TIP3 H2   HT     0.417000        1.0080           0
   34858 WT2  3028 TIP3 OH2  OT    -0.834000       15.9994           0
   34859 WT2  3028 TIP3 H1   HT     0.417000        1.0080           0
   34860 WT2  3028 TIP3 H2   HT     0.417000        1.0080           0
   34861 WT2  3029 TIP3 OH2  OT    -0.834000       15.9994           0
   34862 WT2  3029 TIP3 H1   HT     0.417000        1.0080           0
   34863 WT2  3029 TIP3 H2   HT     0.417000        1.0080           0
   34864 WT2  3030 TIP3 OH2  OT    -0.834000       15.9994           0
   34865 WT2  3030 TIP3 H1   HT     0.417000        1.0080           0
   34866 WT2  3030 TIP3 H2   HT     0.417000        1.0080           0
   34867 WT2  3031 TIP3 OH2  OT    -0.834000       15.9994           0
   34868 WT2  3031 TIP3 H1   HT     0.417000        1.0080           0
   34869 WT2  3031 TIP3 H2   HT     0.417000        1.0080           0
   34870 WT2  3032 TIP3 OH2  OT    -0.834000       15.9994           0
   34871 WT2  3032 TIP3 H1   HT     0.417000        1.0080           0
   34872 WT2  3032 TIP3 H2   HT     0.417000        1.0080           0
   34873 WT2  3033 TIP3 OH2  OT    -0.834000       15.9994           0
   34874 WT2  3033 TIP3 H1   HT     0.417000        1.0080           0
   34875 WT2  3033 TIP3 H2   HT     0.417000        1.0080           0
   34876 WT2  3034 TIP3 OH2  OT    -0.834000       15.9994           0
   34877 WT2  3034 TIP3 H1   HT     0.417000        1.0080           0
   34878 WT2  3034 TIP3 H2   HT     0.417000        1.0080           0
   34879 WT2  3035 TIP3 OH2  OT    -0.834000       15.9994           0
   34880 WT2  3035 TIP3 H1   HT     0.417000        1.0080           0
   34881 WT2  3035 TIP3 H2   HT     0.417000        1.0080           0
   34882 WT2  3037 TIP3 OH2  OT    -0.834000       15.9994           0
   34883 WT2  3037 TIP3 H1   HT     0.417000        1.0080           0
   34884 WT2  3037 TIP3 H2   HT     0.417000        1.0080           0
   34885 WT2  3039 TIP3 OH2  OT    -0.834000       15.9994           0
   34886 WT2  3039 TIP3 H1   HT     0.417000        1.0080           0
   34887 WT2  3039 TIP3 H2   HT     0.417000        1.0080           0
   34888 WT2  3040 TIP3 OH2  OT    -0.834000       15.9994           0
   34889 WT2  3040 TIP3 H1   HT     0.417000        1.0080           0
   34890 WT2  3040 TIP3 H2   HT     0.417000        1.0080           0
   34891 WT2  3046 TIP3 OH2  OT    -0.834000       15.9994           0
   34892 WT2  3046 TIP3 H1   HT     0.417000        1.0080           0
   34893 WT2  3046 TIP3 H2   HT     0.417000        1.0080           0
   34894 WT2  3048 TIP3 OH2  OT    -0.834000       15.9994           0
   34895 WT2  3048 TIP3 H1   HT     0.417000        1.0080           0
   34896 WT2  3048 TIP3 H2   HT     0.417000        1.0080           0
   34897 WT2  3049 TIP3 OH2  OT    -0.834000       15.9994           0
   34898 WT2  3049 TIP3 H1   HT     0.417000        1.0080           0
   34899 WT2  3049 TIP3 H2   HT     0.417000        1.0080           0
   34900 WT2  3050 TIP3 OH2  OT    -0.834000       15.9994           0
   34901 WT2  3050 TIP3 H1   HT     0.417000        1.0080           0
   34902 WT2  3050 TIP3 H2   HT     0.417000        1.0080           0
   34903 WT2  3051 TIP3 OH2  OT    -0.834000       15.9994           0
   34904 WT2  3051 TIP3 H1   HT     0.417000        1.0080           0
   34905 WT2  3051 TIP3 H2   HT     0.417000        1.0080           0
   34906 WT2  3052 TIP3 OH2  OT    -0.834000       15.9994           0
   34907 WT2  3052 TIP3 H1   HT     0.417000        1.0080           0
   34908 WT2  3052 TIP3 H2   HT     0.417000        1.0080           0
   34909 WT2  3053 TIP3 OH2  OT    -0.834000       15.9994           0
   34910 WT2  3053 TIP3 H1   HT     0.417000        1.0080           0
   34911 WT2  3053 TIP3 H2   HT     0.417000        1.0080           0
   34912 WT2  3054 TIP3 OH2  OT    -0.834000       15.9994           0
   34913 WT2  3054 TIP3 H1   HT     0.417000        1.0080           0
   34914 WT2  3054 TIP3 H2   HT     0.417000        1.0080           0
   34915 WT2  3055 TIP3 OH2  OT    -0.834000       15.9994           0
   34916 WT2  3055 TIP3 H1   HT     0.417000        1.0080           0
   34917 WT2  3055 TIP3 H2   HT     0.417000        1.0080           0
   34918 WT2  3056 TIP3 OH2  OT    -0.834000       15.9994           0
   34919 WT2  3056 TIP3 H1   HT     0.417000        1.0080           0
   34920 WT2  3056 TIP3 H2   HT     0.417000        1.0080           0
   34921 WT2  3057 TIP3 OH2  OT    -0.834000       15.9994           0
   34922 WT2  3057 TIP3 H1   HT     0.417000        1.0080           0
   34923 WT2  3057 TIP3 H2   HT     0.417000        1.0080           0
   34924 WT2  3067 TIP3 OH2  OT    -0.834000       15.9994           0
   34925 WT2  3067 TIP3 H1   HT     0.417000        1.0080           0
   34926 WT2  3067 TIP3 H2   HT     0.417000        1.0080           0
   34927 WT2  3069 TIP3 OH2  OT    -0.834000       15.9994           0
   34928 WT2  3069 TIP3 H1   HT     0.417000        1.0080           0
   34929 WT2  3069 TIP3 H2   HT     0.417000        1.0080           0
   34930 WT2  3070 TIP3 OH2  OT    -0.834000       15.9994           0
   34931 WT2  3070 TIP3 H1   HT     0.417000        1.0080           0
   34932 WT2  3070 TIP3 H2   HT     0.417000        1.0080           0
   34933 WT2  3071 TIP3 OH2  OT    -0.834000       15.9994           0
   34934 WT2  3071 TIP3 H1   HT     0.417000        1.0080           0
   34935 WT2  3071 TIP3 H2   HT     0.417000        1.0080           0
   34936 WT2  3072 TIP3 OH2  OT    -0.834000       15.9994           0
   34937 WT2  3072 TIP3 H1   HT     0.417000        1.0080           0
   34938 WT2  3072 TIP3 H2   HT     0.417000        1.0080           0
   34939 WT2  3073 TIP3 OH2  OT    -0.834000       15.9994           0
   34940 WT2  3073 TIP3 H1   HT     0.417000        1.0080           0
   34941 WT2  3073 TIP3 H2   HT     0.417000        1.0080           0
   34942 WT2  3074 TIP3 OH2  OT    -0.834000       15.9994           0
   34943 WT2  3074 TIP3 H1   HT     0.417000        1.0080           0
   34944 WT2  3074 TIP3 H2   HT     0.417000        1.0080           0
   34945 WT2  3075 TIP3 OH2  OT    -0.834000       15.9994           0
   34946 WT2  3075 TIP3 H1   HT     0.417000        1.0080           0
   34947 WT2  3075 TIP3 H2   HT     0.417000        1.0080           0
   34948 WT2  3076 TIP3 OH2  OT    -0.834000       15.9994           0
   34949 WT2  3076 TIP3 H1   HT     0.417000        1.0080           0
   34950 WT2  3076 TIP3 H2   HT     0.417000        1.0080           0
   34951 WT2  3077 TIP3 OH2  OT    -0.834000       15.9994           0
   34952 WT2  3077 TIP3 H1   HT     0.417000        1.0080           0
   34953 WT2  3077 TIP3 H2   HT     0.417000        1.0080           0
   34954 WT2  3078 TIP3 OH2  OT    -0.834000       15.9994           0
   34955 WT2  3078 TIP3 H1   HT     0.417000        1.0080           0
   34956 WT2  3078 TIP3 H2   HT     0.417000        1.0080           0
   34957 WT2  3079 TIP3 OH2  OT    -0.834000       15.9994           0
   34958 WT2  3079 TIP3 H1   HT     0.417000        1.0080           0
   34959 WT2  3079 TIP3 H2   HT     0.417000        1.0080           0
   34960 WT2  3080 TIP3 OH2  OT    -0.834000       15.9994           0
   34961 WT2  3080 TIP3 H1   HT     0.417000        1.0080           0
   34962 WT2  3080 TIP3 H2   HT     0.417000        1.0080           0
   34963 WT2  3081 TIP3 OH2  OT    -0.834000       15.9994           0
   34964 WT2  3081 TIP3 H1   HT     0.417000        1.0080           0
   34965 WT2  3081 TIP3 H2   HT     0.417000        1.0080           0
   34966 WT2  3085 TIP3 OH2  OT    -0.834000       15.9994           0
   34967 WT2  3085 TIP3 H1   HT     0.417000        1.0080           0
   34968 WT2  3085 TIP3 H2   HT     0.417000        1.0080           0
   34969 WT2  3086 TIP3 OH2  OT    -0.834000       15.9994           0
   34970 WT2  3086 TIP3 H1   HT     0.417000        1.0080           0
   34971 WT2  3086 TIP3 H2   HT     0.417000        1.0080           0
   34972 WT2  3087 TIP3 OH2  OT    -0.834000       15.9994           0
   34973 WT2  3087 TIP3 H1   HT     0.417000        1.0080           0
   34974 WT2  3087 TIP3 H2   HT     0.417000        1.0080           0
   34975 WT2  3088 TIP3 OH2  OT    -0.834000       15.9994           0
   34976 WT2  3088 TIP3 H1   HT     0.417000        1.0080           0
   34977 WT2  3088 TIP3 H2   HT     0.417000        1.0080           0
   34978 WT2  3091 TIP3 OH2  OT    -0.834000       15.9994           0
   34979 WT2  3091 TIP3 H1   HT     0.417000        1.0080           0
   34980 WT2  3091 TIP3 H2   HT     0.417000        1.0080           0
   34981 WT2  3092 TIP3 OH2  OT    -0.834000       15.9994           0
   34982 WT2  3092 TIP3 H1   HT     0.417000        1.0080           0
   34983 WT2  3092 TIP3 H2   HT     0.417000        1.0080           0
   34984 WT2  3093 TIP3 OH2  OT    -0.834000       15.9994           0
   34985 WT2  3093 TIP3 H1   HT     0.417000        1.0080           0
   34986 WT2  3093 TIP3 H2   HT     0.417000        1.0080           0
   34987 WT2  3094 TIP3 OH2  OT    -0.834000       15.9994           0
   34988 WT2  3094 TIP3 H1   HT     0.417000        1.0080           0
   34989 WT2  3094 TIP3 H2   HT     0.417000        1.0080           0
   34990 WT2  3095 TIP3 OH2  OT    -0.834000       15.9994           0
   34991 WT2  3095 TIP3 H1   HT     0.417000        1.0080           0
   34992 WT2  3095 TIP3 H2   HT     0.417000        1.0080           0
   34993 WT2  3096 TIP3 OH2  OT    -0.834000       15.9994           0
   34994 WT2  3096 TIP3 H1   HT     0.417000        1.0080           0
   34995 WT2  3096 TIP3 H2   HT     0.417000        1.0080           0
   34996 WT2  3097 TIP3 OH2  OT    -0.834000       15.9994           0
   34997 WT2  3097 TIP3 H1   HT     0.417000        1.0080           0
   34998 WT2  3097 TIP3 H2   HT     0.417000        1.0080           0
   34999 WT2  3098 TIP3 OH2  OT    -0.834000       15.9994           0
   35000 WT2  3098 TIP3 H1   HT     0.417000        1.0080           0
   35001 WT2  3098 TIP3 H2   HT     0.417000        1.0080           0
   35002 WT2  3100 TIP3 OH2  OT    -0.834000       15.9994           0
   35003 WT2  3100 TIP3 H1   HT     0.417000        1.0080           0
   35004 WT2  3100 TIP3 H2   HT     0.417000        1.0080           0
   35005 WT2  3102 TIP3 OH2  OT    -0.834000       15.9994           0
   35006 WT2  3102 TIP3 H1   HT     0.417000        1.0080           0
   35007 WT2  3102 TIP3 H2   HT     0.417000        1.0080           0
   35008 WT2  3104 TIP3 OH2  OT    -0.834000       15.9994           0
   35009 WT2  3104 TIP3 H1   HT     0.417000        1.0080           0
   35010 WT2  3104 TIP3 H2   HT     0.417000        1.0080           0
   35011 WT2  3108 TIP3 OH2  OT    -0.834000       15.9994           0
   35012 WT2  3108 TIP3 H1   HT     0.417000        1.0080           0
   35013 WT2  3108 TIP3 H2   HT     0.417000        1.0080           0
   35014 WT2  3109 TIP3 OH2  OT    -0.834000       15.9994           0
   35015 WT2  3109 TIP3 H1   HT     0.417000        1.0080           0
   35016 WT2  3109 TIP3 H2   HT     0.417000        1.0080           0
   35017 WT2  3110 TIP3 OH2  OT    -0.834000       15.9994           0
   35018 WT2  3110 TIP3 H1   HT     0.417000        1.0080           0
   35019 WT2  3110 TIP3 H2   HT     0.417000        1.0080           0
   35020 WT2  3111 TIP3 OH2  OT    -0.834000       15.9994           0
   35021 WT2  3111 TIP3 H1   HT     0.417000        1.0080           0
   35022 WT2  3111 TIP3 H2   HT     0.417000        1.0080           0
   35023 WT2  3112 TIP3 OH2  OT    -0.834000       15.9994           0
   35024 WT2  3112 TIP3 H1   HT     0.417000        1.0080           0
   35025 WT2  3112 TIP3 H2   HT     0.417000        1.0080           0
   35026 WT2  3113 TIP3 OH2  OT    -0.834000       15.9994           0
   35027 WT2  3113 TIP3 H1   HT     0.417000        1.0080           0
   35028 WT2  3113 TIP3 H2   HT     0.417000        1.0080           0
   35029 WT2  3114 TIP3 OH2  OT    -0.834000       15.9994           0
   35030 WT2  3114 TIP3 H1   HT     0.417000        1.0080           0
   35031 WT2  3114 TIP3 H2   HT     0.417000        1.0080           0
   35032 WT2  3115 TIP3 OH2  OT    -0.834000       15.9994           0
   35033 WT2  3115 TIP3 H1   HT     0.417000        1.0080           0
   35034 WT2  3115 TIP3 H2   HT     0.417000        1.0080           0
   35035 WT2  3116 TIP3 OH2  OT    -0.834000       15.9994           0
   35036 WT2  3116 TIP3 H1   HT     0.417000        1.0080           0
   35037 WT2  3116 TIP3 H2   HT     0.417000        1.0080           0
   35038 WT2  3118 TIP3 OH2  OT    -0.834000       15.9994           0
   35039 WT2  3118 TIP3 H1   HT     0.417000        1.0080           0
   35040 WT2  3118 TIP3 H2   HT     0.417000        1.0080           0
   35041 WT2  3119 TIP3 OH2  OT    -0.834000       15.9994           0
   35042 WT2  3119 TIP3 H1   HT     0.417000        1.0080           0
   35043 WT2  3119 TIP3 H2   HT     0.417000        1.0080           0
   35044 WT2  3120 TIP3 OH2  OT    -0.834000       15.9994           0
   35045 WT2  3120 TIP3 H1   HT     0.417000        1.0080           0
   35046 WT2  3120 TIP3 H2   HT     0.417000        1.0080           0
   35047 WT2  3121 TIP3 OH2  OT    -0.834000       15.9994           0
   35048 WT2  3121 TIP3 H1   HT     0.417000        1.0080           0
   35049 WT2  3121 TIP3 H2   HT     0.417000        1.0080           0
   35050 WT2  3122 TIP3 OH2  OT    -0.834000       15.9994           0
   35051 WT2  3122 TIP3 H1   HT     0.417000        1.0080           0
   35052 WT2  3122 TIP3 H2   HT     0.417000        1.0080           0
   35053 WT2  3128 TIP3 OH2  OT    -0.834000       15.9994           0
   35054 WT2  3128 TIP3 H1   HT     0.417000        1.0080           0
   35055 WT2  3128 TIP3 H2   HT     0.417000        1.0080           0
   35056 WT2  3129 TIP3 OH2  OT    -0.834000       15.9994           0
   35057 WT2  3129 TIP3 H1   HT     0.417000        1.0080           0
   35058 WT2  3129 TIP3 H2   HT     0.417000        1.0080           0
   35059 WT2  3131 TIP3 OH2  OT    -0.834000       15.9994           0
   35060 WT2  3131 TIP3 H1   HT     0.417000        1.0080           0
   35061 WT2  3131 TIP3 H2   HT     0.417000        1.0080           0
   35062 WT2  3134 TIP3 OH2  OT    -0.834000       15.9994           0
   35063 WT2  3134 TIP3 H1   HT     0.417000        1.0080           0
   35064 WT2  3134 TIP3 H2   HT     0.417000        1.0080           0
   35065 WT2  3136 TIP3 OH2  OT    -0.834000       15.9994           0
   35066 WT2  3136 TIP3 H1   HT     0.417000        1.0080           0
   35067 WT2  3136 TIP3 H2   HT     0.417000        1.0080           0
   35068 WT2  3137 TIP3 OH2  OT    -0.834000       15.9994           0
   35069 WT2  3137 TIP3 H1   HT     0.417000        1.0080           0
   35070 WT2  3137 TIP3 H2   HT     0.417000        1.0080           0
   35071 WT2  3138 TIP3 OH2  OT    -0.834000       15.9994           0
   35072 WT2  3138 TIP3 H1   HT     0.417000        1.0080           0
   35073 WT2  3138 TIP3 H2   HT     0.417000        1.0080           0
   35074 WT2  3139 TIP3 OH2  OT    -0.834000       15.9994           0
   35075 WT2  3139 TIP3 H1   HT     0.417000        1.0080           0
   35076 WT2  3139 TIP3 H2   HT     0.417000        1.0080           0
   35077 WT2  3140 TIP3 OH2  OT    -0.834000       15.9994           0
   35078 WT2  3140 TIP3 H1   HT     0.417000        1.0080           0
   35079 WT2  3140 TIP3 H2   HT     0.417000        1.0080           0
   35080 WT2  3142 TIP3 OH2  OT    -0.834000       15.9994           0
   35081 WT2  3142 TIP3 H1   HT     0.417000        1.0080           0
   35082 WT2  3142 TIP3 H2   HT     0.417000        1.0080           0
   35083 WT2  3143 TIP3 OH2  OT    -0.834000       15.9994           0
   35084 WT2  3143 TIP3 H1   HT     0.417000        1.0080           0
   35085 WT2  3143 TIP3 H2   HT     0.417000        1.0080           0
   35086 WT2  3145 TIP3 OH2  OT    -0.834000       15.9994           0
   35087 WT2  3145 TIP3 H1   HT     0.417000        1.0080           0
   35088 WT2  3145 TIP3 H2   HT     0.417000        1.0080           0
   35089 WT2  3150 TIP3 OH2  OT    -0.834000       15.9994           0
   35090 WT2  3150 TIP3 H1   HT     0.417000        1.0080           0
   35091 WT2  3150 TIP3 H2   HT     0.417000        1.0080           0
   35092 WT2  3151 TIP3 OH2  OT    -0.834000       15.9994           0
   35093 WT2  3151 TIP3 H1   HT     0.417000        1.0080           0
   35094 WT2  3151 TIP3 H2   HT     0.417000        1.0080           0
   35095 WT2  3152 TIP3 OH2  OT    -0.834000       15.9994           0
   35096 WT2  3152 TIP3 H1   HT     0.417000        1.0080           0
   35097 WT2  3152 TIP3 H2   HT     0.417000        1.0080           0
   35098 WT2  3153 TIP3 OH2  OT    -0.834000       15.9994           0
   35099 WT2  3153 TIP3 H1   HT     0.417000        1.0080           0
   35100 WT2  3153 TIP3 H2   HT     0.417000        1.0080           0
   35101 WT2  3154 TIP3 OH2  OT    -0.834000       15.9994           0
   35102 WT2  3154 TIP3 H1   HT     0.417000        1.0080           0
   35103 WT2  3154 TIP3 H2   HT     0.417000        1.0080           0
   35104 WT2  3155 TIP3 OH2  OT    -0.834000       15.9994           0
   35105 WT2  3155 TIP3 H1   HT     0.417000        1.0080           0
   35106 WT2  3155 TIP3 H2   HT     0.417000        1.0080           0
   35107 WT2  3156 TIP3 OH2  OT    -0.834000       15.9994           0
   35108 WT2  3156 TIP3 H1   HT     0.417000        1.0080           0
   35109 WT2  3156 TIP3 H2   HT     0.417000        1.0080           0
   35110 WT2  3157 TIP3 OH2  OT    -0.834000       15.9994           0
   35111 WT2  3157 TIP3 H1   HT     0.417000        1.0080           0
   35112 WT2  3157 TIP3 H2   HT     0.417000        1.0080           0
   35113 WT2  3158 TIP3 OH2  OT    -0.834000       15.9994           0
   35114 WT2  3158 TIP3 H1   HT     0.417000        1.0080           0
   35115 WT2  3158 TIP3 H2   HT     0.417000        1.0080           0
   35116 WT2  3159 TIP3 OH2  OT    -0.834000       15.9994           0
   35117 WT2  3159 TIP3 H1   HT     0.417000        1.0080           0
   35118 WT2  3159 TIP3 H2   HT     0.417000        1.0080           0
   35119 WT2  3160 TIP3 OH2  OT    -0.834000       15.9994           0
   35120 WT2  3160 TIP3 H1   HT     0.417000        1.0080           0
   35121 WT2  3160 TIP3 H2   HT     0.417000        1.0080           0
   35122 WT2  3161 TIP3 OH2  OT    -0.834000       15.9994           0
   35123 WT2  3161 TIP3 H1   HT     0.417000        1.0080           0
   35124 WT2  3161 TIP3 H2   HT     0.417000        1.0080           0
   35125 WT2  3165 TIP3 OH2  OT    -0.834000       15.9994           0
   35126 WT2  3165 TIP3 H1   HT     0.417000        1.0080           0
   35127 WT2  3165 TIP3 H2   HT     0.417000        1.0080           0
   35128 WT2  3166 TIP3 OH2  OT    -0.834000       15.9994           0
   35129 WT2  3166 TIP3 H1   HT     0.417000        1.0080           0
   35130 WT2  3166 TIP3 H2   HT     0.417000        1.0080           0
   35131 WT2  3173 TIP3 OH2  OT    -0.834000       15.9994           0
   35132 WT2  3173 TIP3 H1   HT     0.417000        1.0080           0
   35133 WT2  3173 TIP3 H2   HT     0.417000        1.0080           0
   35134 WT2  3174 TIP3 OH2  OT    -0.834000       15.9994           0
   35135 WT2  3174 TIP3 H1   HT     0.417000        1.0080           0
   35136 WT2  3174 TIP3 H2   HT     0.417000        1.0080           0
   35137 WT2  3175 TIP3 OH2  OT    -0.834000       15.9994           0
   35138 WT2  3175 TIP3 H1   HT     0.417000        1.0080           0
   35139 WT2  3175 TIP3 H2   HT     0.417000        1.0080           0
   35140 WT2  3176 TIP3 OH2  OT    -0.834000       15.9994           0
   35141 WT2  3176 TIP3 H1   HT     0.417000        1.0080           0
   35142 WT2  3176 TIP3 H2   HT     0.417000        1.0080           0
   35143 WT2  3177 TIP3 OH2  OT    -0.834000       15.9994           0
   35144 WT2  3177 TIP3 H1   HT     0.417000        1.0080           0
   35145 WT2  3177 TIP3 H2   HT     0.417000        1.0080           0
   35146 WT2  3178 TIP3 OH2  OT    -0.834000       15.9994           0
   35147 WT2  3178 TIP3 H1   HT     0.417000        1.0080           0
   35148 WT2  3178 TIP3 H2   HT     0.417000        1.0080           0
   35149 WT2  3179 TIP3 OH2  OT    -0.834000       15.9994           0
   35150 WT2  3179 TIP3 H1   HT     0.417000        1.0080           0
   35151 WT2  3179 TIP3 H2   HT     0.417000        1.0080           0
   35152 WT2  3181 TIP3 OH2  OT    -0.834000       15.9994           0
   35153 WT2  3181 TIP3 H1   HT     0.417000        1.0080           0
   35154 WT2  3181 TIP3 H2   HT     0.417000        1.0080           0
   35155 WT2  3182 TIP3 OH2  OT    -0.834000       15.9994           0
   35156 WT2  3182 TIP3 H1   HT     0.417000        1.0080           0
   35157 WT2  3182 TIP3 H2   HT     0.417000        1.0080           0
   35158 WT2  3183 TIP3 OH2  OT    -0.834000       15.9994           0
   35159 WT2  3183 TIP3 H1   HT     0.417000        1.0080           0
   35160 WT2  3183 TIP3 H2   HT     0.417000        1.0080           0
   35161 WT2  3184 TIP3 OH2  OT    -0.834000       15.9994           0
   35162 WT2  3184 TIP3 H1   HT     0.417000        1.0080           0
   35163 WT2  3184 TIP3 H2   HT     0.417000        1.0080           0
   35164 WT2  3187 TIP3 OH2  OT    -0.834000       15.9994           0
   35165 WT2  3187 TIP3 H1   HT     0.417000        1.0080           0
   35166 WT2  3187 TIP3 H2   HT     0.417000        1.0080           0
   35167 WT2  3189 TIP3 OH2  OT    -0.834000       15.9994           0
   35168 WT2  3189 TIP3 H1   HT     0.417000        1.0080           0
   35169 WT2  3189 TIP3 H2   HT     0.417000        1.0080           0
   35170 WT2  3192 TIP3 OH2  OT    -0.834000       15.9994           0
   35171 WT2  3192 TIP3 H1   HT     0.417000        1.0080           0
   35172 WT2  3192 TIP3 H2   HT     0.417000        1.0080           0
   35173 WT2  3193 TIP3 OH2  OT    -0.834000       15.9994           0
   35174 WT2  3193 TIP3 H1   HT     0.417000        1.0080           0
   35175 WT2  3193 TIP3 H2   HT     0.417000        1.0080           0
   35176 WT2  3195 TIP3 OH2  OT    -0.834000       15.9994           0
   35177 WT2  3195 TIP3 H1   HT     0.417000        1.0080           0
   35178 WT2  3195 TIP3 H2   HT     0.417000        1.0080           0
   35179 WT2  3196 TIP3 OH2  OT    -0.834000       15.9994           0
   35180 WT2  3196 TIP3 H1   HT     0.417000        1.0080           0
   35181 WT2  3196 TIP3 H2   HT     0.417000        1.0080           0
   35182 WT2  3197 TIP3 OH2  OT    -0.834000       15.9994           0
   35183 WT2  3197 TIP3 H1   HT     0.417000        1.0080           0
   35184 WT2  3197 TIP3 H2   HT     0.417000        1.0080           0
   35185 WT2  3198 TIP3 OH2  OT    -0.834000       15.9994           0
   35186 WT2  3198 TIP3 H1   HT     0.417000        1.0080           0
   35187 WT2  3198 TIP3 H2   HT     0.417000        1.0080           0
   35188 WT2  3199 TIP3 OH2  OT    -0.834000       15.9994           0
   35189 WT2  3199 TIP3 H1   HT     0.417000        1.0080           0
   35190 WT2  3199 TIP3 H2   HT     0.417000        1.0080           0
   35191 WT2  3200 TIP3 OH2  OT    -0.834000       15.9994           0
   35192 WT2  3200 TIP3 H1   HT     0.417000        1.0080           0
   35193 WT2  3200 TIP3 H2   HT     0.417000        1.0080           0
   35194 WT2  3201 TIP3 OH2  OT    -0.834000       15.9994           0
   35195 WT2  3201 TIP3 H1   HT     0.417000        1.0080           0
   35196 WT2  3201 TIP3 H2   HT     0.417000        1.0080           0
   35197 WT2  3202 TIP3 OH2  OT    -0.834000       15.9994           0
   35198 WT2  3202 TIP3 H1   HT     0.417000        1.0080           0
   35199 WT2  3202 TIP3 H2   HT     0.417000        1.0080           0
   35200 WT2  3203 TIP3 OH2  OT    -0.834000       15.9994           0
   35201 WT2  3203 TIP3 H1   HT     0.417000        1.0080           0
   35202 WT2  3203 TIP3 H2   HT     0.417000        1.0080           0
   35203 WT2  3204 TIP3 OH2  OT    -0.834000       15.9994           0
   35204 WT2  3204 TIP3 H1   HT     0.417000        1.0080           0
   35205 WT2  3204 TIP3 H2   HT     0.417000        1.0080           0
   35206 WT2  3205 TIP3 OH2  OT    -0.834000       15.9994           0
   35207 WT2  3205 TIP3 H1   HT     0.417000        1.0080           0
   35208 WT2  3205 TIP3 H2   HT     0.417000        1.0080           0
   35209 WT2  3210 TIP3 OH2  OT    -0.834000       15.9994           0
   35210 WT2  3210 TIP3 H1   HT     0.417000        1.0080           0
   35211 WT2  3210 TIP3 H2   HT     0.417000        1.0080           0
   35212 WT2  3214 TIP3 OH2  OT    -0.834000       15.9994           0
   35213 WT2  3214 TIP3 H1   HT     0.417000        1.0080           0
   35214 WT2  3214 TIP3 H2   HT     0.417000        1.0080           0
   35215 WT2  3215 TIP3 OH2  OT    -0.834000       15.9994           0
   35216 WT2  3215 TIP3 H1   HT     0.417000        1.0080           0
   35217 WT2  3215 TIP3 H2   HT     0.417000        1.0080           0
   35218 WT2  3216 TIP3 OH2  OT    -0.834000       15.9994           0
   35219 WT2  3216 TIP3 H1   HT     0.417000        1.0080           0
   35220 WT2  3216 TIP3 H2   HT     0.417000        1.0080           0
   35221 WT2  3218 TIP3 OH2  OT    -0.834000       15.9994           0
   35222 WT2  3218 TIP3 H1   HT     0.417000        1.0080           0
   35223 WT2  3218 TIP3 H2   HT     0.417000        1.0080           0
   35224 WT2  3219 TIP3 OH2  OT    -0.834000       15.9994           0
   35225 WT2  3219 TIP3 H1   HT     0.417000        1.0080           0
   35226 WT2  3219 TIP3 H2   HT     0.417000        1.0080           0
   35227 WT2  3220 TIP3 OH2  OT    -0.834000       15.9994           0
   35228 WT2  3220 TIP3 H1   HT     0.417000        1.0080           0
   35229 WT2  3220 TIP3 H2   HT     0.417000        1.0080           0
   35230 WT2  3221 TIP3 OH2  OT    -0.834000       15.9994           0
   35231 WT2  3221 TIP3 H1   HT     0.417000        1.0080           0
   35232 WT2  3221 TIP3 H2   HT     0.417000        1.0080           0
   35233 WT2  3222 TIP3 OH2  OT    -0.834000       15.9994           0
   35234 WT2  3222 TIP3 H1   HT     0.417000        1.0080           0
   35235 WT2  3222 TIP3 H2   HT     0.417000        1.0080           0
   35236 WT2  3223 TIP3 OH2  OT    -0.834000       15.9994           0
   35237 WT2  3223 TIP3 H1   HT     0.417000        1.0080           0
   35238 WT2  3223 TIP3 H2   HT     0.417000        1.0080           0
   35239 WT2  3224 TIP3 OH2  OT    -0.834000       15.9994           0
   35240 WT2  3224 TIP3 H1   HT     0.417000        1.0080           0
   35241 WT2  3224 TIP3 H2   HT     0.417000        1.0080           0
   35242 WT2  3225 TIP3 OH2  OT    -0.834000       15.9994           0
   35243 WT2  3225 TIP3 H1   HT     0.417000        1.0080           0
   35244 WT2  3225 TIP3 H2   HT     0.417000        1.0080           0
   35245 WT2  3226 TIP3 OH2  OT    -0.834000       15.9994           0
   35246 WT2  3226 TIP3 H1   HT     0.417000        1.0080           0
   35247 WT2  3226 TIP3 H2   HT     0.417000        1.0080           0
   35248 WT2  3227 TIP3 OH2  OT    -0.834000       15.9994           0
   35249 WT2  3227 TIP3 H1   HT     0.417000        1.0080           0
   35250 WT2  3227 TIP3 H2   HT     0.417000        1.0080           0
   35251 WT2  3228 TIP3 OH2  OT    -0.834000       15.9994           0
   35252 WT2  3228 TIP3 H1   HT     0.417000        1.0080           0
   35253 WT2  3228 TIP3 H2   HT     0.417000        1.0080           0
   35254 WT2  3229 TIP3 OH2  OT    -0.834000       15.9994           0
   35255 WT2  3229 TIP3 H1   HT     0.417000        1.0080           0
   35256 WT2  3229 TIP3 H2   HT     0.417000        1.0080           0
   35257 WT2  3233 TIP3 OH2  OT    -0.834000       15.9994           0
   35258 WT2  3233 TIP3 H1   HT     0.417000        1.0080           0
   35259 WT2  3233 TIP3 H2   HT     0.417000        1.0080           0
   35260 WT2  3234 TIP3 OH2  OT    -0.834000       15.9994           0
   35261 WT2  3234 TIP3 H1   HT     0.417000        1.0080           0
   35262 WT2  3234 TIP3 H2   HT     0.417000        1.0080           0
   35263 WT2  3236 TIP3 OH2  OT    -0.834000       15.9994           0
   35264 WT2  3236 TIP3 H1   HT     0.417000        1.0080           0
   35265 WT2  3236 TIP3 H2   HT     0.417000        1.0080           0
   35266 WT2  3237 TIP3 OH2  OT    -0.834000       15.9994           0
   35267 WT2  3237 TIP3 H1   HT     0.417000        1.0080           0
   35268 WT2  3237 TIP3 H2   HT     0.417000        1.0080           0
   35269 WT2  3238 TIP3 OH2  OT    -0.834000       15.9994           0
   35270 WT2  3238 TIP3 H1   HT     0.417000        1.0080           0
   35271 WT2  3238 TIP3 H2   HT     0.417000        1.0080           0
   35272 WT2  3239 TIP3 OH2  OT    -0.834000       15.9994           0
   35273 WT2  3239 TIP3 H1   HT     0.417000        1.0080           0
   35274 WT2  3239 TIP3 H2   HT     0.417000        1.0080           0
   35275 WT2  3240 TIP3 OH2  OT    -0.834000       15.9994           0
   35276 WT2  3240 TIP3 H1   HT     0.417000        1.0080           0
   35277 WT2  3240 TIP3 H2   HT     0.417000        1.0080           0
   35278 WT2  3241 TIP3 OH2  OT    -0.834000       15.9994           0
   35279 WT2  3241 TIP3 H1   HT     0.417000        1.0080           0
   35280 WT2  3241 TIP3 H2   HT     0.417000        1.0080           0
   35281 WT2  3242 TIP3 OH2  OT    -0.834000       15.9994           0
   35282 WT2  3242 TIP3 H1   HT     0.417000        1.0080           0
   35283 WT2  3242 TIP3 H2   HT     0.417000        1.0080           0
   35284 WT2  3243 TIP3 OH2  OT    -0.834000       15.9994           0
   35285 WT2  3243 TIP3 H1   HT     0.417000        1.0080           0
   35286 WT2  3243 TIP3 H2   HT     0.417000        1.0080           0
   35287 WT2  3244 TIP3 OH2  OT    -0.834000       15.9994           0
   35288 WT2  3244 TIP3 H1   HT     0.417000        1.0080           0
   35289 WT2  3244 TIP3 H2   HT     0.417000        1.0080           0
   35290 WT2  3245 TIP3 OH2  OT    -0.834000       15.9994           0
   35291 WT2  3245 TIP3 H1   HT     0.417000        1.0080           0
   35292 WT2  3245 TIP3 H2   HT     0.417000        1.0080           0
   35293 WT2  3246 TIP3 OH2  OT    -0.834000       15.9994           0
   35294 WT2  3246 TIP3 H1   HT     0.417000        1.0080           0
   35295 WT2  3246 TIP3 H2   HT     0.417000        1.0080           0
   35296 WT2  3247 TIP3 OH2  OT    -0.834000       15.9994           0
   35297 WT2  3247 TIP3 H1   HT     0.417000        1.0080           0
   35298 WT2  3247 TIP3 H2   HT     0.417000        1.0080           0
   35299 WT2  3249 TIP3 OH2  OT    -0.834000       15.9994           0
   35300 WT2  3249 TIP3 H1   HT     0.417000        1.0080           0
   35301 WT2  3249 TIP3 H2   HT     0.417000        1.0080           0
   35302 WT2  3257 TIP3 OH2  OT    -0.834000       15.9994           0
   35303 WT2  3257 TIP3 H1   HT     0.417000        1.0080           0
   35304 WT2  3257 TIP3 H2   HT     0.417000        1.0080           0
   35305 WT2  3258 TIP3 OH2  OT    -0.834000       15.9994           0
   35306 WT2  3258 TIP3 H1   HT     0.417000        1.0080           0
   35307 WT2  3258 TIP3 H2   HT     0.417000        1.0080           0
   35308 WT2  3261 TIP3 OH2  OT    -0.834000       15.9994           0
   35309 WT2  3261 TIP3 H1   HT     0.417000        1.0080           0
   35310 WT2  3261 TIP3 H2   HT     0.417000        1.0080           0
   35311 WT2  3262 TIP3 OH2  OT    -0.834000       15.9994           0
   35312 WT2  3262 TIP3 H1   HT     0.417000        1.0080           0
   35313 WT2  3262 TIP3 H2   HT     0.417000        1.0080           0
   35314 WT2  3263 TIP3 OH2  OT    -0.834000       15.9994           0
   35315 WT2  3263 TIP3 H1   HT     0.417000        1.0080           0
   35316 WT2  3263 TIP3 H2   HT     0.417000        1.0080           0
   35317 WT2  3264 TIP3 OH2  OT    -0.834000       15.9994           0
   35318 WT2  3264 TIP3 H1   HT     0.417000        1.0080           0
   35319 WT2  3264 TIP3 H2   HT     0.417000        1.0080           0
   35320 WT2  3265 TIP3 OH2  OT    -0.834000       15.9994           0
   35321 WT2  3265 TIP3 H1   HT     0.417000        1.0080           0
   35322 WT2  3265 TIP3 H2   HT     0.417000        1.0080           0
   35323 WT2  3266 TIP3 OH2  OT    -0.834000       15.9994           0
   35324 WT2  3266 TIP3 H1   HT     0.417000        1.0080           0
   35325 WT2  3266 TIP3 H2   HT     0.417000        1.0080           0
   35326 WT2  3267 TIP3 OH2  OT    -0.834000       15.9994           0
   35327 WT2  3267 TIP3 H1   HT     0.417000        1.0080           0
   35328 WT2  3267 TIP3 H2   HT     0.417000        1.0080           0
   35329 WT2  3269 TIP3 OH2  OT    -0.834000       15.9994           0
   35330 WT2  3269 TIP3 H1   HT     0.417000        1.0080           0
   35331 WT2  3269 TIP3 H2   HT     0.417000        1.0080           0
   35332 WT2  3270 TIP3 OH2  OT    -0.834000       15.9994           0
   35333 WT2  3270 TIP3 H1   HT     0.417000        1.0080           0
   35334 WT2  3270 TIP3 H2   HT     0.417000        1.0080           0
   35335 WT2  3272 TIP3 OH2  OT    -0.834000       15.9994           0
   35336 WT2  3272 TIP3 H1   HT     0.417000        1.0080           0
   35337 WT2  3272 TIP3 H2   HT     0.417000        1.0080           0
   35338 WT2  3274 TIP3 OH2  OT    -0.834000       15.9994           0
   35339 WT2  3274 TIP3 H1   HT     0.417000        1.0080           0
   35340 WT2  3274 TIP3 H2   HT     0.417000        1.0080           0
   35341 WT2  3275 TIP3 OH2  OT    -0.834000       15.9994           0
   35342 WT2  3275 TIP3 H1   HT     0.417000        1.0080           0
   35343 WT2  3275 TIP3 H2   HT     0.417000        1.0080           0
   35344 WT2  3276 TIP3 OH2  OT    -0.834000       15.9994           0
   35345 WT2  3276 TIP3 H1   HT     0.417000        1.0080           0
   35346 WT2  3276 TIP3 H2   HT     0.417000        1.0080           0
   35347 WT2  3277 TIP3 OH2  OT    -0.834000       15.9994           0
   35348 WT2  3277 TIP3 H1   HT     0.417000        1.0080           0
   35349 WT2  3277 TIP3 H2   HT     0.417000        1.0080           0
   35350 WT2  3278 TIP3 OH2  OT    -0.834000       15.9994           0
   35351 WT2  3278 TIP3 H1   HT     0.417000        1.0080           0
   35352 WT2  3278 TIP3 H2   HT     0.417000        1.0080           0
   35353 WT2  3279 TIP3 OH2  OT    -0.834000       15.9994           0
   35354 WT2  3279 TIP3 H1   HT     0.417000        1.0080           0
   35355 WT2  3279 TIP3 H2   HT     0.417000        1.0080           0
   35356 WT2  3280 TIP3 OH2  OT    -0.834000       15.9994           0
   35357 WT2  3280 TIP3 H1   HT     0.417000        1.0080           0
   35358 WT2  3280 TIP3 H2   HT     0.417000        1.0080           0
   35359 WT2  3282 TIP3 OH2  OT    -0.834000       15.9994           0
   35360 WT2  3282 TIP3 H1   HT     0.417000        1.0080           0
   35361 WT2  3282 TIP3 H2   HT     0.417000        1.0080           0
   35362 WT2  3283 TIP3 OH2  OT    -0.834000       15.9994           0
   35363 WT2  3283 TIP3 H1   HT     0.417000        1.0080           0
   35364 WT2  3283 TIP3 H2   HT     0.417000        1.0080           0
   35365 WT2  3284 TIP3 OH2  OT    -0.834000       15.9994           0
   35366 WT2  3284 TIP3 H1   HT     0.417000        1.0080           0
   35367 WT2  3284 TIP3 H2   HT     0.417000        1.0080           0
   35368 WT2  3285 TIP3 OH2  OT    -0.834000       15.9994           0
   35369 WT2  3285 TIP3 H1   HT     0.417000        1.0080           0
   35370 WT2  3285 TIP3 H2   HT     0.417000        1.0080           0
   35371 WT2  3286 TIP3 OH2  OT    -0.834000       15.9994           0
   35372 WT2  3286 TIP3 H1   HT     0.417000        1.0080           0
   35373 WT2  3286 TIP3 H2   HT     0.417000        1.0080           0
   35374 WT2  3287 TIP3 OH2  OT    -0.834000       15.9994           0
   35375 WT2  3287 TIP3 H1   HT     0.417000        1.0080           0
   35376 WT2  3287 TIP3 H2   HT     0.417000        1.0080           0
   35377 WT2  3288 TIP3 OH2  OT    -0.834000       15.9994           0
   35378 WT2  3288 TIP3 H1   HT     0.417000        1.0080           0
   35379 WT2  3288 TIP3 H2   HT     0.417000        1.0080           0
   35380 WT2  3289 TIP3 OH2  OT    -0.834000       15.9994           0
   35381 WT2  3289 TIP3 H1   HT     0.417000        1.0080           0
   35382 WT2  3289 TIP3 H2   HT     0.417000        1.0080           0
   35383 WT2  3291 TIP3 OH2  OT    -0.834000       15.9994           0
   35384 WT2  3291 TIP3 H1   HT     0.417000        1.0080           0
   35385 WT2  3291 TIP3 H2   HT     0.417000        1.0080           0
   35386 WT2  3293 TIP3 OH2  OT    -0.834000       15.9994           0
   35387 WT2  3293 TIP3 H1   HT     0.417000        1.0080           0
   35388 WT2  3293 TIP3 H2   HT     0.417000        1.0080           0
   35389 WT2  3296 TIP3 OH2  OT    -0.834000       15.9994           0
   35390 WT2  3296 TIP3 H1   HT     0.417000        1.0080           0
   35391 WT2  3296 TIP3 H2   HT     0.417000        1.0080           0
   35392 WT2  3298 TIP3 OH2  OT    -0.834000       15.9994           0
   35393 WT2  3298 TIP3 H1   HT     0.417000        1.0080           0
   35394 WT2  3298 TIP3 H2   HT     0.417000        1.0080           0
   35395 WT2  3301 TIP3 OH2  OT    -0.834000       15.9994           0
   35396 WT2  3301 TIP3 H1   HT     0.417000        1.0080           0
   35397 WT2  3301 TIP3 H2   HT     0.417000        1.0080           0
   35398 WT2  3302 TIP3 OH2  OT    -0.834000       15.9994           0
   35399 WT2  3302 TIP3 H1   HT     0.417000        1.0080           0
   35400 WT2  3302 TIP3 H2   HT     0.417000        1.0080           0
   35401 WT2  3303 TIP3 OH2  OT    -0.834000       15.9994           0
   35402 WT2  3303 TIP3 H1   HT     0.417000        1.0080           0
   35403 WT2  3303 TIP3 H2   HT     0.417000        1.0080           0
   35404 WT2  3304 TIP3 OH2  OT    -0.834000       15.9994           0
   35405 WT2  3304 TIP3 H1   HT     0.417000        1.0080           0
   35406 WT2  3304 TIP3 H2   HT     0.417000        1.0080           0
   35407 WT2  3305 TIP3 OH2  OT    -0.834000       15.9994           0
   35408 WT2  3305 TIP3 H1   HT     0.417000        1.0080           0
   35409 WT2  3305 TIP3 H2   HT     0.417000        1.0080           0
   35410 WT2  3306 TIP3 OH2  OT    -0.834000       15.9994           0
   35411 WT2  3306 TIP3 H1   HT     0.417000        1.0080           0
   35412 WT2  3306 TIP3 H2   HT     0.417000        1.0080           0
   35413 WT2  3307 TIP3 OH2  OT    -0.834000       15.9994           0
   35414 WT2  3307 TIP3 H1   HT     0.417000        1.0080           0
   35415 WT2  3307 TIP3 H2   HT     0.417000        1.0080           0
   35416 WT2  3308 TIP3 OH2  OT    -0.834000       15.9994           0
   35417 WT2  3308 TIP3 H1   HT     0.417000        1.0080           0
   35418 WT2  3308 TIP3 H2   HT     0.417000        1.0080           0
   35419 WT2  3310 TIP3 OH2  OT    -0.834000       15.9994           0
   35420 WT2  3310 TIP3 H1   HT     0.417000        1.0080           0
   35421 WT2  3310 TIP3 H2   HT     0.417000        1.0080           0
   35422 WT2  3311 TIP3 OH2  OT    -0.834000       15.9994           0
   35423 WT2  3311 TIP3 H1   HT     0.417000        1.0080           0
   35424 WT2  3311 TIP3 H2   HT     0.417000        1.0080           0
   35425 WT2  3312 TIP3 OH2  OT    -0.834000       15.9994           0
   35426 WT2  3312 TIP3 H1   HT     0.417000        1.0080           0
   35427 WT2  3312 TIP3 H2   HT     0.417000        1.0080           0
   35428 WT2  3317 TIP3 OH2  OT    -0.834000       15.9994           0
   35429 WT2  3317 TIP3 H1   HT     0.417000        1.0080           0
   35430 WT2  3317 TIP3 H2   HT     0.417000        1.0080           0
   35431 WT2  3319 TIP3 OH2  OT    -0.834000       15.9994           0
   35432 WT2  3319 TIP3 H1   HT     0.417000        1.0080           0
   35433 WT2  3319 TIP3 H2   HT     0.417000        1.0080           0
   35434 WT2  3320 TIP3 OH2  OT    -0.834000       15.9994           0
   35435 WT2  3320 TIP3 H1   HT     0.417000        1.0080           0
   35436 WT2  3320 TIP3 H2   HT     0.417000        1.0080           0
   35437 WT2  3321 TIP3 OH2  OT    -0.834000       15.9994           0
   35438 WT2  3321 TIP3 H1   HT     0.417000        1.0080           0
   35439 WT2  3321 TIP3 H2   HT     0.417000        1.0080           0
   35440 WT2  3322 TIP3 OH2  OT    -0.834000       15.9994           0
   35441 WT2  3322 TIP3 H1   HT     0.417000        1.0080           0
   35442 WT2  3322 TIP3 H2   HT     0.417000        1.0080           0
   35443 WT2  3323 TIP3 OH2  OT    -0.834000       15.9994           0
   35444 WT2  3323 TIP3 H1   HT     0.417000        1.0080           0
   35445 WT2  3323 TIP3 H2   HT     0.417000        1.0080           0
   35446 WT2  3325 TIP3 OH2  OT    -0.834000       15.9994           0
   35447 WT2  3325 TIP3 H1   HT     0.417000        1.0080           0
   35448 WT2  3325 TIP3 H2   HT     0.417000        1.0080           0
   35449 WT2  3326 TIP3 OH2  OT    -0.834000       15.9994           0
   35450 WT2  3326 TIP3 H1   HT     0.417000        1.0080           0
   35451 WT2  3326 TIP3 H2   HT     0.417000        1.0080           0
   35452 WT2  3327 TIP3 OH2  OT    -0.834000       15.9994           0
   35453 WT2  3327 TIP3 H1   HT     0.417000        1.0080           0
   35454 WT2  3327 TIP3 H2   HT     0.417000        1.0080           0
   35455 WT2  3328 TIP3 OH2  OT    -0.834000       15.9994           0
   35456 WT2  3328 TIP3 H1   HT     0.417000        1.0080           0
   35457 WT2  3328 TIP3 H2   HT     0.417000        1.0080           0
   35458 WT2  3329 TIP3 OH2  OT    -0.834000       15.9994           0
   35459 WT2  3329 TIP3 H1   HT     0.417000        1.0080           0
   35460 WT2  3329 TIP3 H2   HT     0.417000        1.0080           0
   35461 WT2  3331 TIP3 OH2  OT    -0.834000       15.9994           0
   35462 WT2  3331 TIP3 H1   HT     0.417000        1.0080           0
   35463 WT2  3331 TIP3 H2   HT     0.417000        1.0080           0
   35464 WT2  3332 TIP3 OH2  OT    -0.834000       15.9994           0
   35465 WT2  3332 TIP3 H1   HT     0.417000        1.0080           0
   35466 WT2  3332 TIP3 H2   HT     0.417000        1.0080           0
   35467 WT2  3337 TIP3 OH2  OT    -0.834000       15.9994           0
   35468 WT2  3337 TIP3 H1   HT     0.417000        1.0080           0
   35469 WT2  3337 TIP3 H2   HT     0.417000        1.0080           0
   35470 WT2  3341 TIP3 OH2  OT    -0.834000       15.9994           0
   35471 WT2  3341 TIP3 H1   HT     0.417000        1.0080           0
   35472 WT2  3341 TIP3 H2   HT     0.417000        1.0080           0
   35473 WT2  3342 TIP3 OH2  OT    -0.834000       15.9994           0
   35474 WT2  3342 TIP3 H1   HT     0.417000        1.0080           0
   35475 WT2  3342 TIP3 H2   HT     0.417000        1.0080           0
   35476 WT2  3344 TIP3 OH2  OT    -0.834000       15.9994           0
   35477 WT2  3344 TIP3 H1   HT     0.417000        1.0080           0
   35478 WT2  3344 TIP3 H2   HT     0.417000        1.0080           0
   35479 WT2  3345 TIP3 OH2  OT    -0.834000       15.9994           0
   35480 WT2  3345 TIP3 H1   HT     0.417000        1.0080           0
   35481 WT2  3345 TIP3 H2   HT     0.417000        1.0080           0
   35482 WT2  3346 TIP3 OH2  OT    -0.834000       15.9994           0
   35483 WT2  3346 TIP3 H1   HT     0.417000        1.0080           0
   35484 WT2  3346 TIP3 H2   HT     0.417000        1.0080           0
   35485 WT2  3347 TIP3 OH2  OT    -0.834000       15.9994           0
   35486 WT2  3347 TIP3 H1   HT     0.417000        1.0080           0
   35487 WT2  3347 TIP3 H2   HT     0.417000        1.0080           0
   35488 WT2  3348 TIP3 OH2  OT    -0.834000       15.9994           0
   35489 WT2  3348 TIP3 H1   HT     0.417000        1.0080           0
   35490 WT2  3348 TIP3 H2   HT     0.417000        1.0080           0
   35491 WT2  3349 TIP3 OH2  OT    -0.834000       15.9994           0
   35492 WT2  3349 TIP3 H1   HT     0.417000        1.0080           0
   35493 WT2  3349 TIP3 H2   HT     0.417000        1.0080           0
   35494 WT2  3351 TIP3 OH2  OT    -0.834000       15.9994           0
   35495 WT2  3351 TIP3 H1   HT     0.417000        1.0080           0
   35496 WT2  3351 TIP3 H2   HT     0.417000        1.0080           0
   35497 WT2  3353 TIP3 OH2  OT    -0.834000       15.9994           0
   35498 WT2  3353 TIP3 H1   HT     0.417000        1.0080           0
   35499 WT2  3353 TIP3 H2   HT     0.417000        1.0080           0
   35500 WT2  3354 TIP3 OH2  OT    -0.834000       15.9994           0
   35501 WT2  3354 TIP3 H1   HT     0.417000        1.0080           0
   35502 WT2  3354 TIP3 H2   HT     0.417000        1.0080           0
   35503 WT2  3355 TIP3 OH2  OT    -0.834000       15.9994           0
   35504 WT2  3355 TIP3 H1   HT     0.417000        1.0080           0
   35505 WT2  3355 TIP3 H2   HT     0.417000        1.0080           0
   35506 WT2  3360 TIP3 OH2  OT    -0.834000       15.9994           0
   35507 WT2  3360 TIP3 H1   HT     0.417000        1.0080           0
   35508 WT2  3360 TIP3 H2   HT     0.417000        1.0080           0
   35509 WT2  3361 TIP3 OH2  OT    -0.834000       15.9994           0
   35510 WT2  3361 TIP3 H1   HT     0.417000        1.0080           0
   35511 WT2  3361 TIP3 H2   HT     0.417000        1.0080           0
   35512 WT2  3362 TIP3 OH2  OT    -0.834000       15.9994           0
   35513 WT2  3362 TIP3 H1   HT     0.417000        1.0080           0
   35514 WT2  3362 TIP3 H2   HT     0.417000        1.0080           0
   35515 WT2  3363 TIP3 OH2  OT    -0.834000       15.9994           0
   35516 WT2  3363 TIP3 H1   HT     0.417000        1.0080           0
   35517 WT2  3363 TIP3 H2   HT     0.417000        1.0080           0
   35518 WT2  3364 TIP3 OH2  OT    -0.834000       15.9994           0
   35519 WT2  3364 TIP3 H1   HT     0.417000        1.0080           0
   35520 WT2  3364 TIP3 H2   HT     0.417000        1.0080           0
   35521 WT2  3365 TIP3 OH2  OT    -0.834000       15.9994           0
   35522 WT2  3365 TIP3 H1   HT     0.417000        1.0080           0
   35523 WT2  3365 TIP3 H2   HT     0.417000        1.0080           0
   35524 WT2  3366 TIP3 OH2  OT    -0.834000       15.9994           0
   35525 WT2  3366 TIP3 H1   HT     0.417000        1.0080           0
   35526 WT2  3366 TIP3 H2   HT     0.417000        1.0080           0
   35527 WT2  3367 TIP3 OH2  OT    -0.834000       15.9994           0
   35528 WT2  3367 TIP3 H1   HT     0.417000        1.0080           0
   35529 WT2  3367 TIP3 H2   HT     0.417000        1.0080           0
   35530 WT2  3368 TIP3 OH2  OT    -0.834000       15.9994           0
   35531 WT2  3368 TIP3 H1   HT     0.417000        1.0080           0
   35532 WT2  3368 TIP3 H2   HT     0.417000        1.0080           0
   35533 WT2  3369 TIP3 OH2  OT    -0.834000       15.9994           0
   35534 WT2  3369 TIP3 H1   HT     0.417000        1.0080           0
   35535 WT2  3369 TIP3 H2   HT     0.417000        1.0080           0
   35536 WT2  3370 TIP3 OH2  OT    -0.834000       15.9994           0
   35537 WT2  3370 TIP3 H1   HT     0.417000        1.0080           0
   35538 WT2  3370 TIP3 H2   HT     0.417000        1.0080           0
   35539 WT2  3371 TIP3 OH2  OT    -0.834000       15.9994           0
   35540 WT2  3371 TIP3 H1   HT     0.417000        1.0080           0
   35541 WT2  3371 TIP3 H2   HT     0.417000        1.0080           0
   35542 WT2  3372 TIP3 OH2  OT    -0.834000       15.9994           0
   35543 WT2  3372 TIP3 H1   HT     0.417000        1.0080           0
   35544 WT2  3372 TIP3 H2   HT     0.417000        1.0080           0
   35545 WT2  3375 TIP3 OH2  OT    -0.834000       15.9994           0
   35546 WT2  3375 TIP3 H1   HT     0.417000        1.0080           0
   35547 WT2  3375 TIP3 H2   HT     0.417000        1.0080           0
   35548 WT2  3377 TIP3 OH2  OT    -0.834000       15.9994           0
   35549 WT2  3377 TIP3 H1   HT     0.417000        1.0080           0
   35550 WT2  3377 TIP3 H2   HT     0.417000        1.0080           0
   35551 WT2  3381 TIP3 OH2  OT    -0.834000       15.9994           0
   35552 WT2  3381 TIP3 H1   HT     0.417000        1.0080           0
   35553 WT2  3381 TIP3 H2   HT     0.417000        1.0080           0
   35554 WT2  3382 TIP3 OH2  OT    -0.834000       15.9994           0
   35555 WT2  3382 TIP3 H1   HT     0.417000        1.0080           0
   35556 WT2  3382 TIP3 H2   HT     0.417000        1.0080           0
   35557 WT2  3383 TIP3 OH2  OT    -0.834000       15.9994           0
   35558 WT2  3383 TIP3 H1   HT     0.417000        1.0080           0
   35559 WT2  3383 TIP3 H2   HT     0.417000        1.0080           0
   35560 WT2  3384 TIP3 OH2  OT    -0.834000       15.9994           0
   35561 WT2  3384 TIP3 H1   HT     0.417000        1.0080           0
   35562 WT2  3384 TIP3 H2   HT     0.417000        1.0080           0
   35563 WT2  3386 TIP3 OH2  OT    -0.834000       15.9994           0
   35564 WT2  3386 TIP3 H1   HT     0.417000        1.0080           0
   35565 WT2  3386 TIP3 H2   HT     0.417000        1.0080           0
   35566 WT2  3387 TIP3 OH2  OT    -0.834000       15.9994           0
   35567 WT2  3387 TIP3 H1   HT     0.417000        1.0080           0
   35568 WT2  3387 TIP3 H2   HT     0.417000        1.0080           0
   35569 WT2  3388 TIP3 OH2  OT    -0.834000       15.9994           0
   35570 WT2  3388 TIP3 H1   HT     0.417000        1.0080           0
   35571 WT2  3388 TIP3 H2   HT     0.417000        1.0080           0
   35572 WT2  3389 TIP3 OH2  OT    -0.834000       15.9994           0
   35573 WT2  3389 TIP3 H1   HT     0.417000        1.0080           0
   35574 WT2  3389 TIP3 H2   HT     0.417000        1.0080           0
   35575 WT2  3390 TIP3 OH2  OT    -0.834000       15.9994           0
   35576 WT2  3390 TIP3 H1   HT     0.417000        1.0080           0
   35577 WT2  3390 TIP3 H2   HT     0.417000        1.0080           0
   35578 WT2  3391 TIP3 OH2  OT    -0.834000       15.9994           0
   35579 WT2  3391 TIP3 H1   HT     0.417000        1.0080           0
   35580 WT2  3391 TIP3 H2   HT     0.417000        1.0080           0
   35581 WT2  3392 TIP3 OH2  OT    -0.834000       15.9994           0
   35582 WT2  3392 TIP3 H1   HT     0.417000        1.0080           0
   35583 WT2  3392 TIP3 H2   HT     0.417000        1.0080           0
   35584 WT2  3396 TIP3 OH2  OT    -0.834000       15.9994           0
   35585 WT2  3396 TIP3 H1   HT     0.417000        1.0080           0
   35586 WT2  3396 TIP3 H2   HT     0.417000        1.0080           0
   35587 WT2  3397 TIP3 OH2  OT    -0.834000       15.9994           0
   35588 WT2  3397 TIP3 H1   HT     0.417000        1.0080           0
   35589 WT2  3397 TIP3 H2   HT     0.417000        1.0080           0
   35590 WT2  3401 TIP3 OH2  OT    -0.834000       15.9994           0
   35591 WT2  3401 TIP3 H1   HT     0.417000        1.0080           0
   35592 WT2  3401 TIP3 H2   HT     0.417000        1.0080           0
   35593 WT2  3402 TIP3 OH2  OT    -0.834000       15.9994           0
   35594 WT2  3402 TIP3 H1   HT     0.417000        1.0080           0
   35595 WT2  3402 TIP3 H2   HT     0.417000        1.0080           0
   35596 WT2  3404 TIP3 OH2  OT    -0.834000       15.9994           0
   35597 WT2  3404 TIP3 H1   HT     0.417000        1.0080           0
   35598 WT2  3404 TIP3 H2   HT     0.417000        1.0080           0
   35599 WT2  3405 TIP3 OH2  OT    -0.834000       15.9994           0
   35600 WT2  3405 TIP3 H1   HT     0.417000        1.0080           0
   35601 WT2  3405 TIP3 H2   HT     0.417000        1.0080           0
   35602 WT2  3406 TIP3 OH2  OT    -0.834000       15.9994           0
   35603 WT2  3406 TIP3 H1   HT     0.417000        1.0080           0
   35604 WT2  3406 TIP3 H2   HT     0.417000        1.0080           0
   35605 WT2  3407 TIP3 OH2  OT    -0.834000       15.9994           0
   35606 WT2  3407 TIP3 H1   HT     0.417000        1.0080           0
   35607 WT2  3407 TIP3 H2   HT     0.417000        1.0080           0
   35608 WT2  3408 TIP3 OH2  OT    -0.834000       15.9994           0
   35609 WT2  3408 TIP3 H1   HT     0.417000        1.0080           0
   35610 WT2  3408 TIP3 H2   HT     0.417000        1.0080           0
   35611 WT2  3409 TIP3 OH2  OT    -0.834000       15.9994           0
   35612 WT2  3409 TIP3 H1   HT     0.417000        1.0080           0
   35613 WT2  3409 TIP3 H2   HT     0.417000        1.0080           0
   35614 WT2  3410 TIP3 OH2  OT    -0.834000       15.9994           0
   35615 WT2  3410 TIP3 H1   HT     0.417000        1.0080           0
   35616 WT2  3410 TIP3 H2   HT     0.417000        1.0080           0
   35617 WT2  3411 TIP3 OH2  OT    -0.834000       15.9994           0
   35618 WT2  3411 TIP3 H1   HT     0.417000        1.0080           0
   35619 WT2  3411 TIP3 H2   HT     0.417000        1.0080           0
   35620 WT2  3412 TIP3 OH2  OT    -0.834000       15.9994           0
   35621 WT2  3412 TIP3 H1   HT     0.417000        1.0080           0
   35622 WT2  3412 TIP3 H2   HT     0.417000        1.0080           0
   35623 WT2  3414 TIP3 OH2  OT    -0.834000       15.9994           0
   35624 WT2  3414 TIP3 H1   HT     0.417000        1.0080           0
   35625 WT2  3414 TIP3 H2   HT     0.417000        1.0080           0
   35626 WT2  3415 TIP3 OH2  OT    -0.834000       15.9994           0
   35627 WT2  3415 TIP3 H1   HT     0.417000        1.0080           0
   35628 WT2  3415 TIP3 H2   HT     0.417000        1.0080           0
   35629 WT2  3417 TIP3 OH2  OT    -0.834000       15.9994           0
   35630 WT2  3417 TIP3 H1   HT     0.417000        1.0080           0
   35631 WT2  3417 TIP3 H2   HT     0.417000        1.0080           0
   35632 WT2  3422 TIP3 OH2  OT    -0.834000       15.9994           0
   35633 WT2  3422 TIP3 H1   HT     0.417000        1.0080           0
   35634 WT2  3422 TIP3 H2   HT     0.417000        1.0080           0
   35635 WT2  3424 TIP3 OH2  OT    -0.834000       15.9994           0
   35636 WT2  3424 TIP3 H1   HT     0.417000        1.0080           0
   35637 WT2  3424 TIP3 H2   HT     0.417000        1.0080           0
   35638 WT2  3426 TIP3 OH2  OT    -0.834000       15.9994           0
   35639 WT2  3426 TIP3 H1   HT     0.417000        1.0080           0
   35640 WT2  3426 TIP3 H2   HT     0.417000        1.0080           0
   35641 WT2  3427 TIP3 OH2  OT    -0.834000       15.9994           0
   35642 WT2  3427 TIP3 H1   HT     0.417000        1.0080           0
   35643 WT2  3427 TIP3 H2   HT     0.417000        1.0080           0
   35644 WT2  3428 TIP3 OH2  OT    -0.834000       15.9994           0
   35645 WT2  3428 TIP3 H1   HT     0.417000        1.0080           0
   35646 WT2  3428 TIP3 H2   HT     0.417000        1.0080           0
   35647 WT2  3429 TIP3 OH2  OT    -0.834000       15.9994           0
   35648 WT2  3429 TIP3 H1   HT     0.417000        1.0080           0
   35649 WT2  3429 TIP3 H2   HT     0.417000        1.0080           0
   35650 WT2  3430 TIP3 OH2  OT    -0.834000       15.9994           0
   35651 WT2  3430 TIP3 H1   HT     0.417000        1.0080           0
   35652 WT2  3430 TIP3 H2   HT     0.417000        1.0080           0
   35653 WT2  3431 TIP3 OH2  OT    -0.834000       15.9994           0
   35654 WT2  3431 TIP3 H1   HT     0.417000        1.0080           0
   35655 WT2  3431 TIP3 H2   HT     0.417000        1.0080           0
   35656 WT2  3432 TIP3 OH2  OT    -0.834000       15.9994           0
   35657 WT2  3432 TIP3 H1   HT     0.417000        1.0080           0
   35658 WT2  3432 TIP3 H2   HT     0.417000        1.0080           0
   35659 WT2  3433 TIP3 OH2  OT    -0.834000       15.9994           0
   35660 WT2  3433 TIP3 H1   HT     0.417000        1.0080           0
   35661 WT2  3433 TIP3 H2   HT     0.417000        1.0080           0
   35662 WT2  3434 TIP3 OH2  OT    -0.834000       15.9994           0
   35663 WT2  3434 TIP3 H1   HT     0.417000        1.0080           0
   35664 WT2  3434 TIP3 H2   HT     0.417000        1.0080           0
   35665 WT2  3435 TIP3 OH2  OT    -0.834000       15.9994           0
   35666 WT2  3435 TIP3 H1   HT     0.417000        1.0080           0
   35667 WT2  3435 TIP3 H2   HT     0.417000        1.0080           0
   35668 WT2  3437 TIP3 OH2  OT    -0.834000       15.9994           0
   35669 WT2  3437 TIP3 H1   HT     0.417000        1.0080           0
   35670 WT2  3437 TIP3 H2   HT     0.417000        1.0080           0
   35671 WT2  3442 TIP3 OH2  OT    -0.834000       15.9994           0
   35672 WT2  3442 TIP3 H1   HT     0.417000        1.0080           0
   35673 WT2  3442 TIP3 H2   HT     0.417000        1.0080           0
   35674 WT2  3443 TIP3 OH2  OT    -0.834000       15.9994           0
   35675 WT2  3443 TIP3 H1   HT     0.417000        1.0080           0
   35676 WT2  3443 TIP3 H2   HT     0.417000        1.0080           0
   35677 WT2  3444 TIP3 OH2  OT    -0.834000       15.9994           0
   35678 WT2  3444 TIP3 H1   HT     0.417000        1.0080           0
   35679 WT2  3444 TIP3 H2   HT     0.417000        1.0080           0
   35680 WT2  3445 TIP3 OH2  OT    -0.834000       15.9994           0
   35681 WT2  3445 TIP3 H1   HT     0.417000        1.0080           0
   35682 WT2  3445 TIP3 H2   HT     0.417000        1.0080           0
   35683 WT2  3446 TIP3 OH2  OT    -0.834000       15.9994           0
   35684 WT2  3446 TIP3 H1   HT     0.417000        1.0080           0
   35685 WT2  3446 TIP3 H2   HT     0.417000        1.0080           0
   35686 WT2  3447 TIP3 OH2  OT    -0.834000       15.9994           0
   35687 WT2  3447 TIP3 H1   HT     0.417000        1.0080           0
   35688 WT2  3447 TIP3 H2   HT     0.417000        1.0080           0
   35689 WT2  3448 TIP3 OH2  OT    -0.834000       15.9994           0
   35690 WT2  3448 TIP3 H1   HT     0.417000        1.0080           0
   35691 WT2  3448 TIP3 H2   HT     0.417000        1.0080           0
   35692 WT2  3449 TIP3 OH2  OT    -0.834000       15.9994           0
   35693 WT2  3449 TIP3 H1   HT     0.417000        1.0080           0
   35694 WT2  3449 TIP3 H2   HT     0.417000        1.0080           0
   35695 WT2  3450 TIP3 OH2  OT    -0.834000       15.9994           0
   35696 WT2  3450 TIP3 H1   HT     0.417000        1.0080           0
   35697 WT2  3450 TIP3 H2   HT     0.417000        1.0080           0
   35698 WT2  3451 TIP3 OH2  OT    -0.834000       15.9994           0
   35699 WT2  3451 TIP3 H1   HT     0.417000        1.0080           0
   35700 WT2  3451 TIP3 H2   HT     0.417000        1.0080           0
   35701 WT2  3452 TIP3 OH2  OT    -0.834000       15.9994           0
   35702 WT2  3452 TIP3 H1   HT     0.417000        1.0080           0
   35703 WT2  3452 TIP3 H2   HT     0.417000        1.0080           0
   35704 WT2  3453 TIP3 OH2  OT    -0.834000       15.9994           0
   35705 WT2  3453 TIP3 H1   HT     0.417000        1.0080           0
   35706 WT2  3453 TIP3 H2   HT     0.417000        1.0080           0
   35707 WT2  3454 TIP3 OH2  OT    -0.834000       15.9994           0
   35708 WT2  3454 TIP3 H1   HT     0.417000        1.0080           0
   35709 WT2  3454 TIP3 H2   HT     0.417000        1.0080           0
   35710 WT2  3455 TIP3 OH2  OT    -0.834000       15.9994           0
   35711 WT2  3455 TIP3 H1   HT     0.417000        1.0080           0
   35712 WT2  3455 TIP3 H2   HT     0.417000        1.0080           0
   35713 WT2  3456 TIP3 OH2  OT    -0.834000       15.9994           0
   35714 WT2  3456 TIP3 H1   HT     0.417000        1.0080           0
   35715 WT2  3456 TIP3 H2   HT     0.417000        1.0080           0
   35716 WT2  3460 TIP3 OH2  OT    -0.834000       15.9994           0
   35717 WT2  3460 TIP3 H1   HT     0.417000        1.0080           0
   35718 WT2  3460 TIP3 H2   HT     0.417000        1.0080           0
   35719 WT2  3461 TIP3 OH2  OT    -0.834000       15.9994           0
   35720 WT2  3461 TIP3 H1   HT     0.417000        1.0080           0
   35721 WT2  3461 TIP3 H2   HT     0.417000        1.0080           0
   35722 WT2  3462 TIP3 OH2  OT    -0.834000       15.9994           0
   35723 WT2  3462 TIP3 H1   HT     0.417000        1.0080           0
   35724 WT2  3462 TIP3 H2   HT     0.417000        1.0080           0
   35725 WT2  3465 TIP3 OH2  OT    -0.834000       15.9994           0
   35726 WT2  3465 TIP3 H1   HT     0.417000        1.0080           0
   35727 WT2  3465 TIP3 H2   HT     0.417000        1.0080           0
   35728 WT2  3466 TIP3 OH2  OT    -0.834000       15.9994           0
   35729 WT2  3466 TIP3 H1   HT     0.417000        1.0080           0
   35730 WT2  3466 TIP3 H2   HT     0.417000        1.0080           0
   35731 WT2  3467 TIP3 OH2  OT    -0.834000       15.9994           0
   35732 WT2  3467 TIP3 H1   HT     0.417000        1.0080           0
   35733 WT2  3467 TIP3 H2   HT     0.417000        1.0080           0
   35734 WT2  3469 TIP3 OH2  OT    -0.834000       15.9994           0
   35735 WT2  3469 TIP3 H1   HT     0.417000        1.0080           0
   35736 WT2  3469 TIP3 H2   HT     0.417000        1.0080           0
   35737 WT2  3470 TIP3 OH2  OT    -0.834000       15.9994           0
   35738 WT2  3470 TIP3 H1   HT     0.417000        1.0080           0
   35739 WT2  3470 TIP3 H2   HT     0.417000        1.0080           0
   35740 WT2  3471 TIP3 OH2  OT    -0.834000       15.9994           0
   35741 WT2  3471 TIP3 H1   HT     0.417000        1.0080           0
   35742 WT2  3471 TIP3 H2   HT     0.417000        1.0080           0
   35743 WT2  3472 TIP3 OH2  OT    -0.834000       15.9994           0
   35744 WT2  3472 TIP3 H1   HT     0.417000        1.0080           0
   35745 WT2  3472 TIP3 H2   HT     0.417000        1.0080           0
   35746 WT2  3473 TIP3 OH2  OT    -0.834000       15.9994           0
   35747 WT2  3473 TIP3 H1   HT     0.417000        1.0080           0
   35748 WT2  3473 TIP3 H2   HT     0.417000        1.0080           0
   35749 WT2  3474 TIP3 OH2  OT    -0.834000       15.9994           0
   35750 WT2  3474 TIP3 H1   HT     0.417000        1.0080           0
   35751 WT2  3474 TIP3 H2   HT     0.417000        1.0080           0
   35752 WT2  3475 TIP3 OH2  OT    -0.834000       15.9994           0
   35753 WT2  3475 TIP3 H1   HT     0.417000        1.0080           0
   35754 WT2  3475 TIP3 H2   HT     0.417000        1.0080           0
   35755 WT2  3476 TIP3 OH2  OT    -0.834000       15.9994           0
   35756 WT2  3476 TIP3 H1   HT     0.417000        1.0080           0
   35757 WT2  3476 TIP3 H2   HT     0.417000        1.0080           0
   35758 WT2  3478 TIP3 OH2  OT    -0.834000       15.9994           0
   35759 WT2  3478 TIP3 H1   HT     0.417000        1.0080           0
   35760 WT2  3478 TIP3 H2   HT     0.417000        1.0080           0
   35761 WT2  3479 TIP3 OH2  OT    -0.834000       15.9994           0
   35762 WT2  3479 TIP3 H1   HT     0.417000        1.0080           0
   35763 WT2  3479 TIP3 H2   HT     0.417000        1.0080           0
   35764 WT2  3484 TIP3 OH2  OT    -0.834000       15.9994           0
   35765 WT2  3484 TIP3 H1   HT     0.417000        1.0080           0
   35766 WT2  3484 TIP3 H2   HT     0.417000        1.0080           0
   35767 WT2  3486 TIP3 OH2  OT    -0.834000       15.9994           0
   35768 WT2  3486 TIP3 H1   HT     0.417000        1.0080           0
   35769 WT2  3486 TIP3 H2   HT     0.417000        1.0080           0
   35770 WT2  3488 TIP3 OH2  OT    -0.834000       15.9994           0
   35771 WT2  3488 TIP3 H1   HT     0.417000        1.0080           0
   35772 WT2  3488 TIP3 H2   HT     0.417000        1.0080           0
   35773 WT2  3489 TIP3 OH2  OT    -0.834000       15.9994           0
   35774 WT2  3489 TIP3 H1   HT     0.417000        1.0080           0
   35775 WT2  3489 TIP3 H2   HT     0.417000        1.0080           0
   35776 WT2  3490 TIP3 OH2  OT    -0.834000       15.9994           0
   35777 WT2  3490 TIP3 H1   HT     0.417000        1.0080           0
   35778 WT2  3490 TIP3 H2   HT     0.417000        1.0080           0
   35779 WT2  3491 TIP3 OH2  OT    -0.834000       15.9994           0
   35780 WT2  3491 TIP3 H1   HT     0.417000        1.0080           0
   35781 WT2  3491 TIP3 H2   HT     0.417000        1.0080           0
   35782 WT2  3492 TIP3 OH2  OT    -0.834000       15.9994           0
   35783 WT2  3492 TIP3 H1   HT     0.417000        1.0080           0
   35784 WT2  3492 TIP3 H2   HT     0.417000        1.0080           0
   35785 WT2  3493 TIP3 OH2  OT    -0.834000       15.9994           0
   35786 WT2  3493 TIP3 H1   HT     0.417000        1.0080           0
   35787 WT2  3493 TIP3 H2   HT     0.417000        1.0080           0
   35788 WT2  3494 TIP3 OH2  OT    -0.834000       15.9994           0
   35789 WT2  3494 TIP3 H1   HT     0.417000        1.0080           0
   35790 WT2  3494 TIP3 H2   HT     0.417000        1.0080           0
   35791 WT2  3495 TIP3 OH2  OT    -0.834000       15.9994           0
   35792 WT2  3495 TIP3 H1   HT     0.417000        1.0080           0
   35793 WT2  3495 TIP3 H2   HT     0.417000        1.0080           0
   35794 WT2  3496 TIP3 OH2  OT    -0.834000       15.9994           0
   35795 WT2  3496 TIP3 H1   HT     0.417000        1.0080           0
   35796 WT2  3496 TIP3 H2   HT     0.417000        1.0080           0
   35797 WT2  3498 TIP3 OH2  OT    -0.834000       15.9994           0
   35798 WT2  3498 TIP3 H1   HT     0.417000        1.0080           0
   35799 WT2  3498 TIP3 H2   HT     0.417000        1.0080           0
   35800 WT2  3499 TIP3 OH2  OT    -0.834000       15.9994           0
   35801 WT2  3499 TIP3 H1   HT     0.417000        1.0080           0
   35802 WT2  3499 TIP3 H2   HT     0.417000        1.0080           0
   35803 WT2  3500 TIP3 OH2  OT    -0.834000       15.9994           0
   35804 WT2  3500 TIP3 H1   HT     0.417000        1.0080           0
   35805 WT2  3500 TIP3 H2   HT     0.417000        1.0080           0
   35806 WT2  3502 TIP3 OH2  OT    -0.834000       15.9994           0
   35807 WT2  3502 TIP3 H1   HT     0.417000        1.0080           0
   35808 WT2  3502 TIP3 H2   HT     0.417000        1.0080           0
   35809 WT2  3503 TIP3 OH2  OT    -0.834000       15.9994           0
   35810 WT2  3503 TIP3 H1   HT     0.417000        1.0080           0
   35811 WT2  3503 TIP3 H2   HT     0.417000        1.0080           0
   35812 WT2  3504 TIP3 OH2  OT    -0.834000       15.9994           0
   35813 WT2  3504 TIP3 H1   HT     0.417000        1.0080           0
   35814 WT2  3504 TIP3 H2   HT     0.417000        1.0080           0
   35815 WT2  3508 TIP3 OH2  OT    -0.834000       15.9994           0
   35816 WT2  3508 TIP3 H1   HT     0.417000        1.0080           0
   35817 WT2  3508 TIP3 H2   HT     0.417000        1.0080           0
   35818 WT2  3510 TIP3 OH2  OT    -0.834000       15.9994           0
   35819 WT2  3510 TIP3 H1   HT     0.417000        1.0080           0
   35820 WT2  3510 TIP3 H2   HT     0.417000        1.0080           0
   35821 WT2  3511 TIP3 OH2  OT    -0.834000       15.9994           0
   35822 WT2  3511 TIP3 H1   HT     0.417000        1.0080           0
   35823 WT2  3511 TIP3 H2   HT     0.417000        1.0080           0
   35824 WT2  3512 TIP3 OH2  OT    -0.834000       15.9994           0
   35825 WT2  3512 TIP3 H1   HT     0.417000        1.0080           0
   35826 WT2  3512 TIP3 H2   HT     0.417000        1.0080           0
   35827 WT2  3513 TIP3 OH2  OT    -0.834000       15.9994           0
   35828 WT2  3513 TIP3 H1   HT     0.417000        1.0080           0
   35829 WT2  3513 TIP3 H2   HT     0.417000        1.0080           0
   35830 WT2  3514 TIP3 OH2  OT    -0.834000       15.9994           0
   35831 WT2  3514 TIP3 H1   HT     0.417000        1.0080           0
   35832 WT2  3514 TIP3 H2   HT     0.417000        1.0080           0
   35833 WT2  3515 TIP3 OH2  OT    -0.834000       15.9994           0
   35834 WT2  3515 TIP3 H1   HT     0.417000        1.0080           0
   35835 WT2  3515 TIP3 H2   HT     0.417000        1.0080           0
   35836 WT2  3516 TIP3 OH2  OT    -0.834000       15.9994           0
   35837 WT2  3516 TIP3 H1   HT     0.417000        1.0080           0
   35838 WT2  3516 TIP3 H2   HT     0.417000        1.0080           0
   35839 WT2  3517 TIP3 OH2  OT    -0.834000       15.9994           0
   35840 WT2  3517 TIP3 H1   HT     0.417000        1.0080           0
   35841 WT2  3517 TIP3 H2   HT     0.417000        1.0080           0
   35842 WT2  3518 TIP3 OH2  OT    -0.834000       15.9994           0
   35843 WT2  3518 TIP3 H1   HT     0.417000        1.0080           0
   35844 WT2  3518 TIP3 H2   HT     0.417000        1.0080           0
   35845 WT2  3519 TIP3 OH2  OT    -0.834000       15.9994           0
   35846 WT2  3519 TIP3 H1   HT     0.417000        1.0080           0
   35847 WT2  3519 TIP3 H2   HT     0.417000        1.0080           0
   35848 WT2  3520 TIP3 OH2  OT    -0.834000       15.9994           0
   35849 WT2  3520 TIP3 H1   HT     0.417000        1.0080           0
   35850 WT2  3520 TIP3 H2   HT     0.417000        1.0080           0
   35851 WT2  3526 TIP3 OH2  OT    -0.834000       15.9994           0
   35852 WT2  3526 TIP3 H1   HT     0.417000        1.0080           0
   35853 WT2  3526 TIP3 H2   HT     0.417000        1.0080           0
   35854 WT2  3527 TIP3 OH2  OT    -0.834000       15.9994           0
   35855 WT2  3527 TIP3 H1   HT     0.417000        1.0080           0
   35856 WT2  3527 TIP3 H2   HT     0.417000        1.0080           0
   35857 WT2  3530 TIP3 OH2  OT    -0.834000       15.9994           0
   35858 WT2  3530 TIP3 H1   HT     0.417000        1.0080           0
   35859 WT2  3530 TIP3 H2   HT     0.417000        1.0080           0
   35860 WT2  3531 TIP3 OH2  OT    -0.834000       15.9994           0
   35861 WT2  3531 TIP3 H1   HT     0.417000        1.0080           0
   35862 WT2  3531 TIP3 H2   HT     0.417000        1.0080           0
   35863 WT2  3532 TIP3 OH2  OT    -0.834000       15.9994           0
   35864 WT2  3532 TIP3 H1   HT     0.417000        1.0080           0
   35865 WT2  3532 TIP3 H2   HT     0.417000        1.0080           0
   35866 WT2  3533 TIP3 OH2  OT    -0.834000       15.9994           0
   35867 WT2  3533 TIP3 H1   HT     0.417000        1.0080           0
   35868 WT2  3533 TIP3 H2   HT     0.417000        1.0080           0
   35869 WT2  3534 TIP3 OH2  OT    -0.834000       15.9994           0
   35870 WT2  3534 TIP3 H1   HT     0.417000        1.0080           0
   35871 WT2  3534 TIP3 H2   HT     0.417000        1.0080           0
   35872 WT2  3535 TIP3 OH2  OT    -0.834000       15.9994           0
   35873 WT2  3535 TIP3 H1   HT     0.417000        1.0080           0
   35874 WT2  3535 TIP3 H2   HT     0.417000        1.0080           0
   35875 WT2  3536 TIP3 OH2  OT    -0.834000       15.9994           0
   35876 WT2  3536 TIP3 H1   HT     0.417000        1.0080           0
   35877 WT2  3536 TIP3 H2   HT     0.417000        1.0080           0
   35878 WT2  3537 TIP3 OH2  OT    -0.834000       15.9994           0
   35879 WT2  3537 TIP3 H1   HT     0.417000        1.0080           0
   35880 WT2  3537 TIP3 H2   HT     0.417000        1.0080           0
   35881 WT2  3538 TIP3 OH2  OT    -0.834000       15.9994           0
   35882 WT2  3538 TIP3 H1   HT     0.417000        1.0080           0
   35883 WT2  3538 TIP3 H2   HT     0.417000        1.0080           0
   35884 WT2  3539 TIP3 OH2  OT    -0.834000       15.9994           0
   35885 WT2  3539 TIP3 H1   HT     0.417000        1.0080           0
   35886 WT2  3539 TIP3 H2   HT     0.417000        1.0080           0
   35887 WT2  3540 TIP3 OH2  OT    -0.834000       15.9994           0
   35888 WT2  3540 TIP3 H1   HT     0.417000        1.0080           0
   35889 WT2  3540 TIP3 H2   HT     0.417000        1.0080           0
   35890 WT2  3541 TIP3 OH2  OT    -0.834000       15.9994           0
   35891 WT2  3541 TIP3 H1   HT     0.417000        1.0080           0
   35892 WT2  3541 TIP3 H2   HT     0.417000        1.0080           0
   35893 WT2  3542 TIP3 OH2  OT    -0.834000       15.9994           0
   35894 WT2  3542 TIP3 H1   HT     0.417000        1.0080           0
   35895 WT2  3542 TIP3 H2   HT     0.417000        1.0080           0
   35896 WT2  3545 TIP3 OH2  OT    -0.834000       15.9994           0
   35897 WT2  3545 TIP3 H1   HT     0.417000        1.0080           0
   35898 WT2  3545 TIP3 H2   HT     0.417000        1.0080           0
   35899 WT2  3548 TIP3 OH2  OT    -0.834000       15.9994           0
   35900 WT2  3548 TIP3 H1   HT     0.417000        1.0080           0
   35901 WT2  3548 TIP3 H2   HT     0.417000        1.0080           0
   35902 WT2  3549 TIP3 OH2  OT    -0.834000       15.9994           0
   35903 WT2  3549 TIP3 H1   HT     0.417000        1.0080           0
   35904 WT2  3549 TIP3 H2   HT     0.417000        1.0080           0
   35905 WT2  3550 TIP3 OH2  OT    -0.834000       15.9994           0
   35906 WT2  3550 TIP3 H1   HT     0.417000        1.0080           0
   35907 WT2  3550 TIP3 H2   HT     0.417000        1.0080           0
   35908 WT2  3551 TIP3 OH2  OT    -0.834000       15.9994           0
   35909 WT2  3551 TIP3 H1   HT     0.417000        1.0080           0
   35910 WT2  3551 TIP3 H2   HT     0.417000        1.0080           0
   35911 WT2  3554 TIP3 OH2  OT    -0.834000       15.9994           0
   35912 WT2  3554 TIP3 H1   HT     0.417000        1.0080           0
   35913 WT2  3554 TIP3 H2   HT     0.417000        1.0080           0
   35914 WT2  3555 TIP3 OH2  OT    -0.834000       15.9994           0
   35915 WT2  3555 TIP3 H1   HT     0.417000        1.0080           0
   35916 WT2  3555 TIP3 H2   HT     0.417000        1.0080           0
   35917 WT2  3556 TIP3 OH2  OT    -0.834000       15.9994           0
   35918 WT2  3556 TIP3 H1   HT     0.417000        1.0080           0
   35919 WT2  3556 TIP3 H2   HT     0.417000        1.0080           0
   35920 WT2  3557 TIP3 OH2  OT    -0.834000       15.9994           0
   35921 WT2  3557 TIP3 H1   HT     0.417000        1.0080           0
   35922 WT2  3557 TIP3 H2   HT     0.417000        1.0080           0
   35923 WT2  3558 TIP3 OH2  OT    -0.834000       15.9994           0
   35924 WT2  3558 TIP3 H1   HT     0.417000        1.0080           0
   35925 WT2  3558 TIP3 H2   HT     0.417000        1.0080           0
   35926 WT2  3559 TIP3 OH2  OT    -0.834000       15.9994           0
   35927 WT2  3559 TIP3 H1   HT     0.417000        1.0080           0
   35928 WT2  3559 TIP3 H2   HT     0.417000        1.0080           0
   35929 WT2  3560 TIP3 OH2  OT    -0.834000       15.9994           0
   35930 WT2  3560 TIP3 H1   HT     0.417000        1.0080           0
   35931 WT2  3560 TIP3 H2   HT     0.417000        1.0080           0
   35932 WT2  3561 TIP3 OH2  OT    -0.834000       15.9994           0
   35933 WT2  3561 TIP3 H1   HT     0.417000        1.0080           0
   35934 WT2  3561 TIP3 H2   HT     0.417000        1.0080           0
   35935 WT2  3562 TIP3 OH2  OT    -0.834000       15.9994           0
   35936 WT2  3562 TIP3 H1   HT     0.417000        1.0080           0
   35937 WT2  3562 TIP3 H2   HT     0.417000        1.0080           0
   35938 WT2  3563 TIP3 OH2  OT    -0.834000       15.9994           0
   35939 WT2  3563 TIP3 H1   HT     0.417000        1.0080           0
   35940 WT2  3563 TIP3 H2   HT     0.417000        1.0080           0
   35941 WT2  3565 TIP3 OH2  OT    -0.834000       15.9994           0
   35942 WT2  3565 TIP3 H1   HT     0.417000        1.0080           0
   35943 WT2  3565 TIP3 H2   HT     0.417000        1.0080           0
   35944 WT2  3569 TIP3 OH2  OT    -0.834000       15.9994           0
   35945 WT2  3569 TIP3 H1   HT     0.417000        1.0080           0
   35946 WT2  3569 TIP3 H2   HT     0.417000        1.0080           0
   35947 WT2  3570 TIP3 OH2  OT    -0.834000       15.9994           0
   35948 WT2  3570 TIP3 H1   HT     0.417000        1.0080           0
   35949 WT2  3570 TIP3 H2   HT     0.417000        1.0080           0
   35950 WT2  3572 TIP3 OH2  OT    -0.834000       15.9994           0
   35951 WT2  3572 TIP3 H1   HT     0.417000        1.0080           0
   35952 WT2  3572 TIP3 H2   HT     0.417000        1.0080           0
   35953 WT2  3573 TIP3 OH2  OT    -0.834000       15.9994           0
   35954 WT2  3573 TIP3 H1   HT     0.417000        1.0080           0
   35955 WT2  3573 TIP3 H2   HT     0.417000        1.0080           0
   35956 WT2  3574 TIP3 OH2  OT    -0.834000       15.9994           0
   35957 WT2  3574 TIP3 H1   HT     0.417000        1.0080           0
   35958 WT2  3574 TIP3 H2   HT     0.417000        1.0080           0
   35959 WT2  3575 TIP3 OH2  OT    -0.834000       15.9994           0
   35960 WT2  3575 TIP3 H1   HT     0.417000        1.0080           0
   35961 WT2  3575 TIP3 H2   HT     0.417000        1.0080           0
   35962 WT2  3576 TIP3 OH2  OT    -0.834000       15.9994           0
   35963 WT2  3576 TIP3 H1   HT     0.417000        1.0080           0
   35964 WT2  3576 TIP3 H2   HT     0.417000        1.0080           0
   35965 WT2  3577 TIP3 OH2  OT    -0.834000       15.9994           0
   35966 WT2  3577 TIP3 H1   HT     0.417000        1.0080           0
   35967 WT2  3577 TIP3 H2   HT     0.417000        1.0080           0
   35968 WT2  3578 TIP3 OH2  OT    -0.834000       15.9994           0
   35969 WT2  3578 TIP3 H1   HT     0.417000        1.0080           0
   35970 WT2  3578 TIP3 H2   HT     0.417000        1.0080           0
   35971 WT2  3579 TIP3 OH2  OT    -0.834000       15.9994           0
   35972 WT2  3579 TIP3 H1   HT     0.417000        1.0080           0
   35973 WT2  3579 TIP3 H2   HT     0.417000        1.0080           0
   35974 WT2  3580 TIP3 OH2  OT    -0.834000       15.9994           0
   35975 WT2  3580 TIP3 H1   HT     0.417000        1.0080           0
   35976 WT2  3580 TIP3 H2   HT     0.417000        1.0080           0
   35977 WT2  3581 TIP3 OH2  OT    -0.834000       15.9994           0
   35978 WT2  3581 TIP3 H1   HT     0.417000        1.0080           0
   35979 WT2  3581 TIP3 H2   HT     0.417000        1.0080           0
   35980 WT2  3582 TIP3 OH2  OT    -0.834000       15.9994           0
   35981 WT2  3582 TIP3 H1   HT     0.417000        1.0080           0
   35982 WT2  3582 TIP3 H2   HT     0.417000        1.0080           0
   35983 WT2  3583 TIP3 OH2  OT    -0.834000       15.9994           0
   35984 WT2  3583 TIP3 H1   HT     0.417000        1.0080           0
   35985 WT2  3583 TIP3 H2   HT     0.417000        1.0080           0
   35986 WT2  3586 TIP3 OH2  OT    -0.834000       15.9994           0
   35987 WT2  3586 TIP3 H1   HT     0.417000        1.0080           0
   35988 WT2  3586 TIP3 H2   HT     0.417000        1.0080           0
   35989 WT2  3591 TIP3 OH2  OT    -0.834000       15.9994           0
   35990 WT2  3591 TIP3 H1   HT     0.417000        1.0080           0
   35991 WT2  3591 TIP3 H2   HT     0.417000        1.0080           0
   35992 WT2  3592 TIP3 OH2  OT    -0.834000       15.9994           0
   35993 WT2  3592 TIP3 H1   HT     0.417000        1.0080           0
   35994 WT2  3592 TIP3 H2   HT     0.417000        1.0080           0
   35995 WT2  3593 TIP3 OH2  OT    -0.834000       15.9994           0
   35996 WT2  3593 TIP3 H1   HT     0.417000        1.0080           0
   35997 WT2  3593 TIP3 H2   HT     0.417000        1.0080           0
   35998 WT2  3594 TIP3 OH2  OT    -0.834000       15.9994           0
   35999 WT2  3594 TIP3 H1   HT     0.417000        1.0080           0
   36000 WT2  3594 TIP3 H2   HT     0.417000        1.0080           0
   36001 WT2  3595 TIP3 OH2  OT    -0.834000       15.9994           0
   36002 WT2  3595 TIP3 H1   HT     0.417000        1.0080           0
   36003 WT2  3595 TIP3 H2   HT     0.417000        1.0080           0
   36004 WT2  3596 TIP3 OH2  OT    -0.834000       15.9994           0
   36005 WT2  3596 TIP3 H1   HT     0.417000        1.0080           0
   36006 WT2  3596 TIP3 H2   HT     0.417000        1.0080           0
   36007 WT2  3597 TIP3 OH2  OT    -0.834000       15.9994           0
   36008 WT2  3597 TIP3 H1   HT     0.417000        1.0080           0
   36009 WT2  3597 TIP3 H2   HT     0.417000        1.0080           0
   36010 WT2  3598 TIP3 OH2  OT    -0.834000       15.9994           0
   36011 WT2  3598 TIP3 H1   HT     0.417000        1.0080           0
   36012 WT2  3598 TIP3 H2   HT     0.417000        1.0080           0
   36013 WT2  3599 TIP3 OH2  OT    -0.834000       15.9994           0
   36014 WT2  3599 TIP3 H1   HT     0.417000        1.0080           0
   36015 WT2  3599 TIP3 H2   HT     0.417000        1.0080           0
   36016 WT2  3600 TIP3 OH2  OT    -0.834000       15.9994           0
   36017 WT2  3600 TIP3 H1   HT     0.417000        1.0080           0
   36018 WT2  3600 TIP3 H2   HT     0.417000        1.0080           0
   36019 WT2  3601 TIP3 OH2  OT    -0.834000       15.9994           0
   36020 WT2  3601 TIP3 H1   HT     0.417000        1.0080           0
   36021 WT2  3601 TIP3 H2   HT     0.417000        1.0080           0
   36022 WT2  3602 TIP3 OH2  OT    -0.834000       15.9994           0
   36023 WT2  3602 TIP3 H1   HT     0.417000        1.0080           0
   36024 WT2  3602 TIP3 H2   HT     0.417000        1.0080           0
   36025 WT2  3603 TIP3 OH2  OT    -0.834000       15.9994           0
   36026 WT2  3603 TIP3 H1   HT     0.417000        1.0080           0
   36027 WT2  3603 TIP3 H2   HT     0.417000        1.0080           0
   36028 WT2  3604 TIP3 OH2  OT    -0.834000       15.9994           0
   36029 WT2  3604 TIP3 H1   HT     0.417000        1.0080           0
   36030 WT2  3604 TIP3 H2   HT     0.417000        1.0080           0
   36031 WT2  3612 TIP3 OH2  OT    -0.834000       15.9994           0
   36032 WT2  3612 TIP3 H1   HT     0.417000        1.0080           0
   36033 WT2  3612 TIP3 H2   HT     0.417000        1.0080           0
   36034 WT2  3614 TIP3 OH2  OT    -0.834000       15.9994           0
   36035 WT2  3614 TIP3 H1   HT     0.417000        1.0080           0
   36036 WT2  3614 TIP3 H2   HT     0.417000        1.0080           0
   36037 WT2  3615 TIP3 OH2  OT    -0.834000       15.9994           0
   36038 WT2  3615 TIP3 H1   HT     0.417000        1.0080           0
   36039 WT2  3615 TIP3 H2   HT     0.417000        1.0080           0
   36040 WT2  3616 TIP3 OH2  OT    -0.834000       15.9994           0
   36041 WT2  3616 TIP3 H1   HT     0.417000        1.0080           0
   36042 WT2  3616 TIP3 H2   HT     0.417000        1.0080           0
   36043 WT2  3617 TIP3 OH2  OT    -0.834000       15.9994           0
   36044 WT2  3617 TIP3 H1   HT     0.417000        1.0080           0
   36045 WT2  3617 TIP3 H2   HT     0.417000        1.0080           0
   36046 WT2  3618 TIP3 OH2  OT    -0.834000       15.9994           0
   36047 WT2  3618 TIP3 H1   HT     0.417000        1.0080           0
   36048 WT2  3618 TIP3 H2   HT     0.417000        1.0080           0
   36049 WT2  3619 TIP3 OH2  OT    -0.834000       15.9994           0
   36050 WT2  3619 TIP3 H1   HT     0.417000        1.0080           0
   36051 WT2  3619 TIP3 H2   HT     0.417000        1.0080           0
   36052 WT2  3620 TIP3 OH2  OT    -0.834000       15.9994           0
   36053 WT2  3620 TIP3 H1   HT     0.417000        1.0080           0
   36054 WT2  3620 TIP3 H2   HT     0.417000        1.0080           0
   36055 WT2  3621 TIP3 OH2  OT    -0.834000       15.9994           0
   36056 WT2  3621 TIP3 H1   HT     0.417000        1.0080           0
   36057 WT2  3621 TIP3 H2   HT     0.417000        1.0080           0
   36058 WT2  3622 TIP3 OH2  OT    -0.834000       15.9994           0
   36059 WT2  3622 TIP3 H1   HT     0.417000        1.0080           0
   36060 WT2  3622 TIP3 H2   HT     0.417000        1.0080           0
   36061 WT2  3623 TIP3 OH2  OT    -0.834000       15.9994           0
   36062 WT2  3623 TIP3 H1   HT     0.417000        1.0080           0
   36063 WT2  3623 TIP3 H2   HT     0.417000        1.0080           0
   36064 WT2  3625 TIP3 OH2  OT    -0.834000       15.9994           0
   36065 WT2  3625 TIP3 H1   HT     0.417000        1.0080           0
   36066 WT2  3625 TIP3 H2   HT     0.417000        1.0080           0
   36067 WT2  3626 TIP3 OH2  OT    -0.834000       15.9994           0
   36068 WT2  3626 TIP3 H1   HT     0.417000        1.0080           0
   36069 WT2  3626 TIP3 H2   HT     0.417000        1.0080           0
   36070 WT2  3627 TIP3 OH2  OT    -0.834000       15.9994           0
   36071 WT2  3627 TIP3 H1   HT     0.417000        1.0080           0
   36072 WT2  3627 TIP3 H2   HT     0.417000        1.0080           0
   36073 WT2  3628 TIP3 OH2  OT    -0.834000       15.9994           0
   36074 WT2  3628 TIP3 H1   HT     0.417000        1.0080           0
   36075 WT2  3628 TIP3 H2   HT     0.417000        1.0080           0
   36076 WT2  3633 TIP3 OH2  OT    -0.834000       15.9994           0
   36077 WT2  3633 TIP3 H1   HT     0.417000        1.0080           0
   36078 WT2  3633 TIP3 H2   HT     0.417000        1.0080           0
   36079 WT2  3634 TIP3 OH2  OT    -0.834000       15.9994           0
   36080 WT2  3634 TIP3 H1   HT     0.417000        1.0080           0
   36081 WT2  3634 TIP3 H2   HT     0.417000        1.0080           0
   36082 WT2  3636 TIP3 OH2  OT    -0.834000       15.9994           0
   36083 WT2  3636 TIP3 H1   HT     0.417000        1.0080           0
   36084 WT2  3636 TIP3 H2   HT     0.417000        1.0080           0
   36085 WT2  3638 TIP3 OH2  OT    -0.834000       15.9994           0
   36086 WT2  3638 TIP3 H1   HT     0.417000        1.0080           0
   36087 WT2  3638 TIP3 H2   HT     0.417000        1.0080           0
   36088 WT2  3639 TIP3 OH2  OT    -0.834000       15.9994           0
   36089 WT2  3639 TIP3 H1   HT     0.417000        1.0080           0
   36090 WT2  3639 TIP3 H2   HT     0.417000        1.0080           0
   36091 WT2  3640 TIP3 OH2  OT    -0.834000       15.9994           0
   36092 WT2  3640 TIP3 H1   HT     0.417000        1.0080           0
   36093 WT2  3640 TIP3 H2   HT     0.417000        1.0080           0
   36094 WT2  3641 TIP3 OH2  OT    -0.834000       15.9994           0
   36095 WT2  3641 TIP3 H1   HT     0.417000        1.0080           0
   36096 WT2  3641 TIP3 H2   HT     0.417000        1.0080           0
   36097 WT2  3642 TIP3 OH2  OT    -0.834000       15.9994           0
   36098 WT2  3642 TIP3 H1   HT     0.417000        1.0080           0
   36099 WT2  3642 TIP3 H2   HT     0.417000        1.0080           0
   36100 WT2  3643 TIP3 OH2  OT    -0.834000       15.9994           0
   36101 WT2  3643 TIP3 H1   HT     0.417000        1.0080           0
   36102 WT2  3643 TIP3 H2   HT     0.417000        1.0080           0
   36103 WT2  3645 TIP3 OH2  OT    -0.834000       15.9994           0
   36104 WT2  3645 TIP3 H1   HT     0.417000        1.0080           0
   36105 WT2  3645 TIP3 H2   HT     0.417000        1.0080           0
   36106 WT2  3646 TIP3 OH2  OT    -0.834000       15.9994           0
   36107 WT2  3646 TIP3 H1   HT     0.417000        1.0080           0
   36108 WT2  3646 TIP3 H2   HT     0.417000        1.0080           0
   36109 WT2  3650 TIP3 OH2  OT    -0.834000       15.9994           0
   36110 WT2  3650 TIP3 H1   HT     0.417000        1.0080           0
   36111 WT2  3650 TIP3 H2   HT     0.417000        1.0080           0
   36112 WT2  3651 TIP3 OH2  OT    -0.834000       15.9994           0
   36113 WT2  3651 TIP3 H1   HT     0.417000        1.0080           0
   36114 WT2  3651 TIP3 H2   HT     0.417000        1.0080           0
   36115 WT2  3653 TIP3 OH2  OT    -0.834000       15.9994           0
   36116 WT2  3653 TIP3 H1   HT     0.417000        1.0080           0
   36117 WT2  3653 TIP3 H2   HT     0.417000        1.0080           0
   36118 WT2  3657 TIP3 OH2  OT    -0.834000       15.9994           0
   36119 WT2  3657 TIP3 H1   HT     0.417000        1.0080           0
   36120 WT2  3657 TIP3 H2   HT     0.417000        1.0080           0
   36121 WT2  3658 TIP3 OH2  OT    -0.834000       15.9994           0
   36122 WT2  3658 TIP3 H1   HT     0.417000        1.0080           0
   36123 WT2  3658 TIP3 H2   HT     0.417000        1.0080           0
   36124 WT2  3659 TIP3 OH2  OT    -0.834000       15.9994           0
   36125 WT2  3659 TIP3 H1   HT     0.417000        1.0080           0
   36126 WT2  3659 TIP3 H2   HT     0.417000        1.0080           0
   36127 WT2  3660 TIP3 OH2  OT    -0.834000       15.9994           0
   36128 WT2  3660 TIP3 H1   HT     0.417000        1.0080           0
   36129 WT2  3660 TIP3 H2   HT     0.417000        1.0080           0
   36130 WT2  3661 TIP3 OH2  OT    -0.834000       15.9994           0
   36131 WT2  3661 TIP3 H1   HT     0.417000        1.0080           0
   36132 WT2  3661 TIP3 H2   HT     0.417000        1.0080           0
   36133 WT2  3662 TIP3 OH2  OT    -0.834000       15.9994           0
   36134 WT2  3662 TIP3 H1   HT     0.417000        1.0080           0
   36135 WT2  3662 TIP3 H2   HT     0.417000        1.0080           0
   36136 WT2  3663 TIP3 OH2  OT    -0.834000       15.9994           0
   36137 WT2  3663 TIP3 H1   HT     0.417000        1.0080           0
   36138 WT2  3663 TIP3 H2   HT     0.417000        1.0080           0
   36139 WT2  3664 TIP3 OH2  OT    -0.834000       15.9994           0
   36140 WT2  3664 TIP3 H1   HT     0.417000        1.0080           0
   36141 WT2  3664 TIP3 H2   HT     0.417000        1.0080           0
   36142 WT2  3665 TIP3 OH2  OT    -0.834000       15.9994           0
   36143 WT2  3665 TIP3 H1   HT     0.417000        1.0080           0
   36144 WT2  3665 TIP3 H2   HT     0.417000        1.0080           0
   36145 WT2  3666 TIP3 OH2  OT    -0.834000       15.9994           0
   36146 WT2  3666 TIP3 H1   HT     0.417000        1.0080           0
   36147 WT2  3666 TIP3 H2   HT     0.417000        1.0080           0
   36148 WT2  3667 TIP3 OH2  OT    -0.834000       15.9994           0
   36149 WT2  3667 TIP3 H1   HT     0.417000        1.0080           0
   36150 WT2  3667 TIP3 H2   HT     0.417000        1.0080           0
   36151 WT2  3674 TIP3 OH2  OT    -0.834000       15.9994           0
   36152 WT2  3674 TIP3 H1   HT     0.417000        1.0080           0
   36153 WT2  3674 TIP3 H2   HT     0.417000        1.0080           0
   36154 WT2  3675 TIP3 OH2  OT    -0.834000       15.9994           0
   36155 WT2  3675 TIP3 H1   HT     0.417000        1.0080           0
   36156 WT2  3675 TIP3 H2   HT     0.417000        1.0080           0
   36157 WT2  3677 TIP3 OH2  OT    -0.834000       15.9994           0
   36158 WT2  3677 TIP3 H1   HT     0.417000        1.0080           0
   36159 WT2  3677 TIP3 H2   HT     0.417000        1.0080           0
   36160 WT2  3678 TIP3 OH2  OT    -0.834000       15.9994           0
   36161 WT2  3678 TIP3 H1   HT     0.417000        1.0080           0
   36162 WT2  3678 TIP3 H2   HT     0.417000        1.0080           0
   36163 WT2  3680 TIP3 OH2  OT    -0.834000       15.9994           0
   36164 WT2  3680 TIP3 H1   HT     0.417000        1.0080           0
   36165 WT2  3680 TIP3 H2   HT     0.417000        1.0080           0
   36166 WT2  3681 TIP3 OH2  OT    -0.834000       15.9994           0
   36167 WT2  3681 TIP3 H1   HT     0.417000        1.0080           0
   36168 WT2  3681 TIP3 H2   HT     0.417000        1.0080           0
   36169 WT2  3682 TIP3 OH2  OT    -0.834000       15.9994           0
   36170 WT2  3682 TIP3 H1   HT     0.417000        1.0080           0
   36171 WT2  3682 TIP3 H2   HT     0.417000        1.0080           0
   36172 WT2  3683 TIP3 OH2  OT    -0.834000       15.9994           0
   36173 WT2  3683 TIP3 H1   HT     0.417000        1.0080           0
   36174 WT2  3683 TIP3 H2   HT     0.417000        1.0080           0
   36175 WT2  3684 TIP3 OH2  OT    -0.834000       15.9994           0
   36176 WT2  3684 TIP3 H1   HT     0.417000        1.0080           0
   36177 WT2  3684 TIP3 H2   HT     0.417000        1.0080           0
   36178 WT2  3685 TIP3 OH2  OT    -0.834000       15.9994           0
   36179 WT2  3685 TIP3 H1   HT     0.417000        1.0080           0
   36180 WT2  3685 TIP3 H2   HT     0.417000        1.0080           0
   36181 WT2  3686 TIP3 OH2  OT    -0.834000       15.9994           0
   36182 WT2  3686 TIP3 H1   HT     0.417000        1.0080           0
   36183 WT2  3686 TIP3 H2   HT     0.417000        1.0080           0
   36184 WT2  3687 TIP3 OH2  OT    -0.834000       15.9994           0
   36185 WT2  3687 TIP3 H1   HT     0.417000        1.0080           0
   36186 WT2  3687 TIP3 H2   HT     0.417000        1.0080           0
   36187 WT2  3688 TIP3 OH2  OT    -0.834000       15.9994           0
   36188 WT2  3688 TIP3 H1   HT     0.417000        1.0080           0
   36189 WT2  3688 TIP3 H2   HT     0.417000        1.0080           0
   36190 WT2  3693 TIP3 OH2  OT    -0.834000       15.9994           0
   36191 WT2  3693 TIP3 H1   HT     0.417000        1.0080           0
   36192 WT2  3693 TIP3 H2   HT     0.417000        1.0080           0
   36193 WT2  3697 TIP3 OH2  OT    -0.834000       15.9994           0
   36194 WT2  3697 TIP3 H1   HT     0.417000        1.0080           0
   36195 WT2  3697 TIP3 H2   HT     0.417000        1.0080           0
   36196 WT2  3698 TIP3 OH2  OT    -0.834000       15.9994           0
   36197 WT2  3698 TIP3 H1   HT     0.417000        1.0080           0
   36198 WT2  3698 TIP3 H2   HT     0.417000        1.0080           0
   36199 WT2  3700 TIP3 OH2  OT    -0.834000       15.9994           0
   36200 WT2  3700 TIP3 H1   HT     0.417000        1.0080           0
   36201 WT2  3700 TIP3 H2   HT     0.417000        1.0080           0
   36202 WT2  3701 TIP3 OH2  OT    -0.834000       15.9994           0
   36203 WT2  3701 TIP3 H1   HT     0.417000        1.0080           0
   36204 WT2  3701 TIP3 H2   HT     0.417000        1.0080           0
   36205 WT2  3702 TIP3 OH2  OT    -0.834000       15.9994           0
   36206 WT2  3702 TIP3 H1   HT     0.417000        1.0080           0
   36207 WT2  3702 TIP3 H2   HT     0.417000        1.0080           0
   36208 WT2  3703 TIP3 OH2  OT    -0.834000       15.9994           0
   36209 WT2  3703 TIP3 H1   HT     0.417000        1.0080           0
   36210 WT2  3703 TIP3 H2   HT     0.417000        1.0080           0
   36211 WT2  3704 TIP3 OH2  OT    -0.834000       15.9994           0
   36212 WT2  3704 TIP3 H1   HT     0.417000        1.0080           0
   36213 WT2  3704 TIP3 H2   HT     0.417000        1.0080           0
   36214 WT2  3705 TIP3 OH2  OT    -0.834000       15.9994           0
   36215 WT2  3705 TIP3 H1   HT     0.417000        1.0080           0
   36216 WT2  3705 TIP3 H2   HT     0.417000        1.0080           0
   36217 WT2  3706 TIP3 OH2  OT    -0.834000       15.9994           0
   36218 WT2  3706 TIP3 H1   HT     0.417000        1.0080           0
   36219 WT2  3706 TIP3 H2   HT     0.417000        1.0080           0
   36220 WT2  3707 TIP3 OH2  OT    -0.834000       15.9994           0
   36221 WT2  3707 TIP3 H1   HT     0.417000        1.0080           0
   36222 WT2  3707 TIP3 H2   HT     0.417000        1.0080           0
   36223 WT2  3708 TIP3 OH2  OT    -0.834000       15.9994           0
   36224 WT2  3708 TIP3 H1   HT     0.417000        1.0080           0
   36225 WT2  3708 TIP3 H2   HT     0.417000        1.0080           0
   36226 WT2  3709 TIP3 OH2  OT    -0.834000       15.9994           0
   36227 WT2  3709 TIP3 H1   HT     0.417000        1.0080           0
   36228 WT2  3709 TIP3 H2   HT     0.417000        1.0080           0
   36229 WT2  3710 TIP3 OH2  OT    -0.834000       15.9994           0
   36230 WT2  3710 TIP3 H1   HT     0.417000        1.0080           0
   36231 WT2  3710 TIP3 H2   HT     0.417000        1.0080           0
   36232 WT2  3718 TIP3 OH2  OT    -0.834000       15.9994           0
   36233 WT2  3718 TIP3 H1   HT     0.417000        1.0080           0
   36234 WT2  3718 TIP3 H2   HT     0.417000        1.0080           0
   36235 WT2  3719 TIP3 OH2  OT    -0.834000       15.9994           0
   36236 WT2  3719 TIP3 H1   HT     0.417000        1.0080           0
   36237 WT2  3719 TIP3 H2   HT     0.417000        1.0080           0
   36238 WT2  3720 TIP3 OH2  OT    -0.834000       15.9994           0
   36239 WT2  3720 TIP3 H1   HT     0.417000        1.0080           0
   36240 WT2  3720 TIP3 H2   HT     0.417000        1.0080           0
   36241 WT2  3721 TIP3 OH2  OT    -0.834000       15.9994           0
   36242 WT2  3721 TIP3 H1   HT     0.417000        1.0080           0
   36243 WT2  3721 TIP3 H2   HT     0.417000        1.0080           0
   36244 WT2  3722 TIP3 OH2  OT    -0.834000       15.9994           0
   36245 WT2  3722 TIP3 H1   HT     0.417000        1.0080           0
   36246 WT2  3722 TIP3 H2   HT     0.417000        1.0080           0
   36247 WT2  3723 TIP3 OH2  OT    -0.834000       15.9994           0
   36248 WT2  3723 TIP3 H1   HT     0.417000        1.0080           0
   36249 WT2  3723 TIP3 H2   HT     0.417000        1.0080           0
   36250 WT2  3724 TIP3 OH2  OT    -0.834000       15.9994           0
   36251 WT2  3724 TIP3 H1   HT     0.417000        1.0080           0
   36252 WT2  3724 TIP3 H2   HT     0.417000        1.0080           0
   36253 WT2  3725 TIP3 OH2  OT    -0.834000       15.9994           0
   36254 WT2  3725 TIP3 H1   HT     0.417000        1.0080           0
   36255 WT2  3725 TIP3 H2   HT     0.417000        1.0080           0
   36256 WT2  3726 TIP3 OH2  OT    -0.834000       15.9994           0
   36257 WT2  3726 TIP3 H1   HT     0.417000        1.0080           0
   36258 WT2  3726 TIP3 H2   HT     0.417000        1.0080           0
   36259 WT2  3727 TIP3 OH2  OT    -0.834000       15.9994           0
   36260 WT2  3727 TIP3 H1   HT     0.417000        1.0080           0
   36261 WT2  3727 TIP3 H2   HT     0.417000        1.0080           0
   36262 WT2  3728 TIP3 OH2  OT    -0.834000       15.9994           0
   36263 WT2  3728 TIP3 H1   HT     0.417000        1.0080           0
   36264 WT2  3728 TIP3 H2   HT     0.417000        1.0080           0
   36265 WT2  3729 TIP3 OH2  OT    -0.834000       15.9994           0
   36266 WT2  3729 TIP3 H1   HT     0.417000        1.0080           0
   36267 WT2  3729 TIP3 H2   HT     0.417000        1.0080           0
   36268 WT2  3730 TIP3 OH2  OT    -0.834000       15.9994           0
   36269 WT2  3730 TIP3 H1   HT     0.417000        1.0080           0
   36270 WT2  3730 TIP3 H2   HT     0.417000        1.0080           0
   36271 WT2  3731 TIP3 OH2  OT    -0.834000       15.9994           0
   36272 WT2  3731 TIP3 H1   HT     0.417000        1.0080           0
   36273 WT2  3731 TIP3 H2   HT     0.417000        1.0080           0
   36274 WT2  3732 TIP3 OH2  OT    -0.834000       15.9994           0
   36275 WT2  3732 TIP3 H1   HT     0.417000        1.0080           0
   36276 WT2  3732 TIP3 H2   HT     0.417000        1.0080           0
   36277 WT2  3736 TIP3 OH2  OT    -0.834000       15.9994           0
   36278 WT2  3736 TIP3 H1   HT     0.417000        1.0080           0
   36279 WT2  3736 TIP3 H2   HT     0.417000        1.0080           0
   36280 WT2  3737 TIP3 OH2  OT    -0.834000       15.9994           0
   36281 WT2  3737 TIP3 H1   HT     0.417000        1.0080           0
   36282 WT2  3737 TIP3 H2   HT     0.417000        1.0080           0
   36283 WT2  3740 TIP3 OH2  OT    -0.834000       15.9994           0
   36284 WT2  3740 TIP3 H1   HT     0.417000        1.0080           0
   36285 WT2  3740 TIP3 H2   HT     0.417000        1.0080           0
   36286 WT2  3743 TIP3 OH2  OT    -0.834000       15.9994           0
   36287 WT2  3743 TIP3 H1   HT     0.417000        1.0080           0
   36288 WT2  3743 TIP3 H2   HT     0.417000        1.0080           0
   36289 WT2  3744 TIP3 OH2  OT    -0.834000       15.9994           0
   36290 WT2  3744 TIP3 H1   HT     0.417000        1.0080           0
   36291 WT2  3744 TIP3 H2   HT     0.417000        1.0080           0
   36292 WT2  3745 TIP3 OH2  OT    -0.834000       15.9994           0
   36293 WT2  3745 TIP3 H1   HT     0.417000        1.0080           0
   36294 WT2  3745 TIP3 H2   HT     0.417000        1.0080           0
   36295 WT2  3746 TIP3 OH2  OT    -0.834000       15.9994           0
   36296 WT2  3746 TIP3 H1   HT     0.417000        1.0080           0
   36297 WT2  3746 TIP3 H2   HT     0.417000        1.0080           0
   36298 WT2  3747 TIP3 OH2  OT    -0.834000       15.9994           0
   36299 WT2  3747 TIP3 H1   HT     0.417000        1.0080           0
   36300 WT2  3747 TIP3 H2   HT     0.417000        1.0080           0
   36301 WT2  3748 TIP3 OH2  OT    -0.834000       15.9994           0
   36302 WT2  3748 TIP3 H1   HT     0.417000        1.0080           0
   36303 WT2  3748 TIP3 H2   HT     0.417000        1.0080           0
   36304 WT2  3749 TIP3 OH2  OT    -0.834000       15.9994           0
   36305 WT2  3749 TIP3 H1   HT     0.417000        1.0080           0
   36306 WT2  3749 TIP3 H2   HT     0.417000        1.0080           0
   36307 WT2  3751 TIP3 OH2  OT    -0.834000       15.9994           0
   36308 WT2  3751 TIP3 H1   HT     0.417000        1.0080           0
   36309 WT2  3751 TIP3 H2   HT     0.417000        1.0080           0
   36310 WT2  3752 TIP3 OH2  OT    -0.834000       15.9994           0
   36311 WT2  3752 TIP3 H1   HT     0.417000        1.0080           0
   36312 WT2  3752 TIP3 H2   HT     0.417000        1.0080           0
   36313 WT2  3753 TIP3 OH2  OT    -0.834000       15.9994           0
   36314 WT2  3753 TIP3 H1   HT     0.417000        1.0080           0
   36315 WT2  3753 TIP3 H2   HT     0.417000        1.0080           0
   36316 WT2  3757 TIP3 OH2  OT    -0.834000       15.9994           0
   36317 WT2  3757 TIP3 H1   HT     0.417000        1.0080           0
   36318 WT2  3757 TIP3 H2   HT     0.417000        1.0080           0
   36319 WT2  3758 TIP3 OH2  OT    -0.834000       15.9994           0
   36320 WT2  3758 TIP3 H1   HT     0.417000        1.0080           0
   36321 WT2  3758 TIP3 H2   HT     0.417000        1.0080           0
   36322 WT2  3761 TIP3 OH2  OT    -0.834000       15.9994           0
   36323 WT2  3761 TIP3 H1   HT     0.417000        1.0080           0
   36324 WT2  3761 TIP3 H2   HT     0.417000        1.0080           0
   36325 WT2  3762 TIP3 OH2  OT    -0.834000       15.9994           0
   36326 WT2  3762 TIP3 H1   HT     0.417000        1.0080           0
   36327 WT2  3762 TIP3 H2   HT     0.417000        1.0080           0
   36328 WT2  3763 TIP3 OH2  OT    -0.834000       15.9994           0
   36329 WT2  3763 TIP3 H1   HT     0.417000        1.0080           0
   36330 WT2  3763 TIP3 H2   HT     0.417000        1.0080           0
   36331 WT2  3764 TIP3 OH2  OT    -0.834000       15.9994           0
   36332 WT2  3764 TIP3 H1   HT     0.417000        1.0080           0
   36333 WT2  3764 TIP3 H2   HT     0.417000        1.0080           0
   36334 WT2  3765 TIP3 OH2  OT    -0.834000       15.9994           0
   36335 WT2  3765 TIP3 H1   HT     0.417000        1.0080           0
   36336 WT2  3765 TIP3 H2   HT     0.417000        1.0080           0
   36337 WT2  3766 TIP3 OH2  OT    -0.834000       15.9994           0
   36338 WT2  3766 TIP3 H1   HT     0.417000        1.0080           0
   36339 WT2  3766 TIP3 H2   HT     0.417000        1.0080           0
   36340 WT2  3767 TIP3 OH2  OT    -0.834000       15.9994           0
   36341 WT2  3767 TIP3 H1   HT     0.417000        1.0080           0
   36342 WT2  3767 TIP3 H2   HT     0.417000        1.0080           0
   36343 WT2  3768 TIP3 OH2  OT    -0.834000       15.9994           0
   36344 WT2  3768 TIP3 H1   HT     0.417000        1.0080           0
   36345 WT2  3768 TIP3 H2   HT     0.417000        1.0080           0
   36346 WT2  3769 TIP3 OH2  OT    -0.834000       15.9994           0
   36347 WT2  3769 TIP3 H1   HT     0.417000        1.0080           0
   36348 WT2  3769 TIP3 H2   HT     0.417000        1.0080           0
   36349 WT2  3770 TIP3 OH2  OT    -0.834000       15.9994           0
   36350 WT2  3770 TIP3 H1   HT     0.417000        1.0080           0
   36351 WT2  3770 TIP3 H2   HT     0.417000        1.0080           0
   36352 WT2  3771 TIP3 OH2  OT    -0.834000       15.9994           0
   36353 WT2  3771 TIP3 H1   HT     0.417000        1.0080           0
   36354 WT2  3771 TIP3 H2   HT     0.417000        1.0080           0
   36355 WT2  3776 TIP3 OH2  OT    -0.834000       15.9994           0
   36356 WT2  3776 TIP3 H1   HT     0.417000        1.0080           0
   36357 WT2  3776 TIP3 H2   HT     0.417000        1.0080           0
   36358 WT2  3779 TIP3 OH2  OT    -0.834000       15.9994           0
   36359 WT2  3779 TIP3 H1   HT     0.417000        1.0080           0
   36360 WT2  3779 TIP3 H2   HT     0.417000        1.0080           0
   36361 WT2  3782 TIP3 OH2  OT    -0.834000       15.9994           0
   36362 WT2  3782 TIP3 H1   HT     0.417000        1.0080           0
   36363 WT2  3782 TIP3 H2   HT     0.417000        1.0080           0
   36364 WT2  3783 TIP3 OH2  OT    -0.834000       15.9994           0
   36365 WT2  3783 TIP3 H1   HT     0.417000        1.0080           0
   36366 WT2  3783 TIP3 H2   HT     0.417000        1.0080           0
   36367 WT2  3784 TIP3 OH2  OT    -0.834000       15.9994           0
   36368 WT2  3784 TIP3 H1   HT     0.417000        1.0080           0
   36369 WT2  3784 TIP3 H2   HT     0.417000        1.0080           0
   36370 WT2  3785 TIP3 OH2  OT    -0.834000       15.9994           0
   36371 WT2  3785 TIP3 H1   HT     0.417000        1.0080           0
   36372 WT2  3785 TIP3 H2   HT     0.417000        1.0080           0
   36373 WT2  3786 TIP3 OH2  OT    -0.834000       15.9994           0
   36374 WT2  3786 TIP3 H1   HT     0.417000        1.0080           0
   36375 WT2  3786 TIP3 H2   HT     0.417000        1.0080           0
   36376 WT2  3787 TIP3 OH2  OT    -0.834000       15.9994           0
   36377 WT2  3787 TIP3 H1   HT     0.417000        1.0080           0
   36378 WT2  3787 TIP3 H2   HT     0.417000        1.0080           0
   36379 WT2  3788 TIP3 OH2  OT    -0.834000       15.9994           0
   36380 WT2  3788 TIP3 H1   HT     0.417000        1.0080           0
   36381 WT2  3788 TIP3 H2   HT     0.417000        1.0080           0
   36382 WT2  3789 TIP3 OH2  OT    -0.834000       15.9994           0
   36383 WT2  3789 TIP3 H1   HT     0.417000        1.0080           0
   36384 WT2  3789 TIP3 H2   HT     0.417000        1.0080           0
   36385 WT2  3790 TIP3 OH2  OT    -0.834000       15.9994           0
   36386 WT2  3790 TIP3 H1   HT     0.417000        1.0080           0
   36387 WT2  3790 TIP3 H2   HT     0.417000        1.0080           0
   36388 WT2  3791 TIP3 OH2  OT    -0.834000       15.9994           0
   36389 WT2  3791 TIP3 H1   HT     0.417000        1.0080           0
   36390 WT2  3791 TIP3 H2   HT     0.417000        1.0080           0
   36391 WT2  3792 TIP3 OH2  OT    -0.834000       15.9994           0
   36392 WT2  3792 TIP3 H1   HT     0.417000        1.0080           0
   36393 WT2  3792 TIP3 H2   HT     0.417000        1.0080           0
   36394 WT2  3793 TIP3 OH2  OT    -0.834000       15.9994           0
   36395 WT2  3793 TIP3 H1   HT     0.417000        1.0080           0
   36396 WT2  3793 TIP3 H2   HT     0.417000        1.0080           0
   36397 WT2  3794 TIP3 OH2  OT    -0.834000       15.9994           0
   36398 WT2  3794 TIP3 H1   HT     0.417000        1.0080           0
   36399 WT2  3794 TIP3 H2   HT     0.417000        1.0080           0
   36400 WT2  3796 TIP3 OH2  OT    -0.834000       15.9994           0
   36401 WT2  3796 TIP3 H1   HT     0.417000        1.0080           0
   36402 WT2  3796 TIP3 H2   HT     0.417000        1.0080           0
   36403 WT2  3798 TIP3 OH2  OT    -0.834000       15.9994           0
   36404 WT2  3798 TIP3 H1   HT     0.417000        1.0080           0
   36405 WT2  3798 TIP3 H2   HT     0.417000        1.0080           0
   36406 WT2  3800 TIP3 OH2  OT    -0.834000       15.9994           0
   36407 WT2  3800 TIP3 H1   HT     0.417000        1.0080           0
   36408 WT2  3800 TIP3 H2   HT     0.417000        1.0080           0
   36409 WT2  3801 TIP3 OH2  OT    -0.834000       15.9994           0
   36410 WT2  3801 TIP3 H1   HT     0.417000        1.0080           0
   36411 WT2  3801 TIP3 H2   HT     0.417000        1.0080           0
   36412 WT2  3802 TIP3 OH2  OT    -0.834000       15.9994           0
   36413 WT2  3802 TIP3 H1   HT     0.417000        1.0080           0
   36414 WT2  3802 TIP3 H2   HT     0.417000        1.0080           0
   36415 WT2  3804 TIP3 OH2  OT    -0.834000       15.9994           0
   36416 WT2  3804 TIP3 H1   HT     0.417000        1.0080           0
   36417 WT2  3804 TIP3 H2   HT     0.417000        1.0080           0
   36418 WT2  3805 TIP3 OH2  OT    -0.834000       15.9994           0
   36419 WT2  3805 TIP3 H1   HT     0.417000        1.0080           0
   36420 WT2  3805 TIP3 H2   HT     0.417000        1.0080           0
   36421 WT2  3806 TIP3 OH2  OT    -0.834000       15.9994           0
   36422 WT2  3806 TIP3 H1   HT     0.417000        1.0080           0
   36423 WT2  3806 TIP3 H2   HT     0.417000        1.0080           0
   36424 WT2  3807 TIP3 OH2  OT    -0.834000       15.9994           0
   36425 WT2  3807 TIP3 H1   HT     0.417000        1.0080           0
   36426 WT2  3807 TIP3 H2   HT     0.417000        1.0080           0
   36427 WT2  3808 TIP3 OH2  OT    -0.834000       15.9994           0
   36428 WT2  3808 TIP3 H1   HT     0.417000        1.0080           0
   36429 WT2  3808 TIP3 H2   HT     0.417000        1.0080           0
   36430 WT2  3809 TIP3 OH2  OT    -0.834000       15.9994           0
   36431 WT2  3809 TIP3 H1   HT     0.417000        1.0080           0
   36432 WT2  3809 TIP3 H2   HT     0.417000        1.0080           0
   36433 WT2  3810 TIP3 OH2  OT    -0.834000       15.9994           0
   36434 WT2  3810 TIP3 H1   HT     0.417000        1.0080           0
   36435 WT2  3810 TIP3 H2   HT     0.417000        1.0080           0
   36436 WT2  3811 TIP3 OH2  OT    -0.834000       15.9994           0
   36437 WT2  3811 TIP3 H1   HT     0.417000        1.0080           0
   36438 WT2  3811 TIP3 H2   HT     0.417000        1.0080           0
   36439 WT2  3812 TIP3 OH2  OT    -0.834000       15.9994           0
   36440 WT2  3812 TIP3 H1   HT     0.417000        1.0080           0
   36441 WT2  3812 TIP3 H2   HT     0.417000        1.0080           0
   36442 WT2  3813 TIP3 OH2  OT    -0.834000       15.9994           0
   36443 WT2  3813 TIP3 H1   HT     0.417000        1.0080           0
   36444 WT2  3813 TIP3 H2   HT     0.417000        1.0080           0
   36445 WT2  3814 TIP3 OH2  OT    -0.834000       15.9994           0
   36446 WT2  3814 TIP3 H1   HT     0.417000        1.0080           0
   36447 WT2  3814 TIP3 H2   HT     0.417000        1.0080           0
   36448 WT2  3815 TIP3 OH2  OT    -0.834000       15.9994           0
   36449 WT2  3815 TIP3 H1   HT     0.417000        1.0080           0
   36450 WT2  3815 TIP3 H2   HT     0.417000        1.0080           0
   36451 WT2  3821 TIP3 OH2  OT    -0.834000       15.9994           0
   36452 WT2  3821 TIP3 H1   HT     0.417000        1.0080           0
   36453 WT2  3821 TIP3 H2   HT     0.417000        1.0080           0
   36454 WT2  3823 TIP3 OH2  OT    -0.834000       15.9994           0
   36455 WT2  3823 TIP3 H1   HT     0.417000        1.0080           0
   36456 WT2  3823 TIP3 H2   HT     0.417000        1.0080           0
   36457 WT2  3826 TIP3 OH2  OT    -0.834000       15.9994           0
   36458 WT2  3826 TIP3 H1   HT     0.417000        1.0080           0
   36459 WT2  3826 TIP3 H2   HT     0.417000        1.0080           0
   36460 WT2  3827 TIP3 OH2  OT    -0.834000       15.9994           0
   36461 WT2  3827 TIP3 H1   HT     0.417000        1.0080           0
   36462 WT2  3827 TIP3 H2   HT     0.417000        1.0080           0
   36463 WT2  3828 TIP3 OH2  OT    -0.834000       15.9994           0
   36464 WT2  3828 TIP3 H1   HT     0.417000        1.0080           0
   36465 WT2  3828 TIP3 H2   HT     0.417000        1.0080           0
   36466 WT2  3829 TIP3 OH2  OT    -0.834000       15.9994           0
   36467 WT2  3829 TIP3 H1   HT     0.417000        1.0080           0
   36468 WT2  3829 TIP3 H2   HT     0.417000        1.0080           0
   36469 WT2  3830 TIP3 OH2  OT    -0.834000       15.9994           0
   36470 WT2  3830 TIP3 H1   HT     0.417000        1.0080           0
   36471 WT2  3830 TIP3 H2   HT     0.417000        1.0080           0
   36472 WT2  3831 TIP3 OH2  OT    -0.834000       15.9994           0
   36473 WT2  3831 TIP3 H1   HT     0.417000        1.0080           0
   36474 WT2  3831 TIP3 H2   HT     0.417000        1.0080           0
   36475 WT2  3832 TIP3 OH2  OT    -0.834000       15.9994           0
   36476 WT2  3832 TIP3 H1   HT     0.417000        1.0080           0
   36477 WT2  3832 TIP3 H2   HT     0.417000        1.0080           0
   36478 WT2  3833 TIP3 OH2  OT    -0.834000       15.9994           0
   36479 WT2  3833 TIP3 H1   HT     0.417000        1.0080           0
   36480 WT2  3833 TIP3 H2   HT     0.417000        1.0080           0
   36481 WT2  3834 TIP3 OH2  OT    -0.834000       15.9994           0
   36482 WT2  3834 TIP3 H1   HT     0.417000        1.0080           0
   36483 WT2  3834 TIP3 H2   HT     0.417000        1.0080           0
   36484 WT2  3835 TIP3 OH2  OT    -0.834000       15.9994           0
   36485 WT2  3835 TIP3 H1   HT     0.417000        1.0080           0
   36486 WT2  3835 TIP3 H2   HT     0.417000        1.0080           0
   36487 WT2  3838 TIP3 OH2  OT    -0.834000       15.9994           0
   36488 WT2  3838 TIP3 H1   HT     0.417000        1.0080           0
   36489 WT2  3838 TIP3 H2   HT     0.417000        1.0080           0
   36490 WT2  3842 TIP3 OH2  OT    -0.834000       15.9994           0
   36491 WT2  3842 TIP3 H1   HT     0.417000        1.0080           0
   36492 WT2  3842 TIP3 H2   HT     0.417000        1.0080           0
   36493 WT2  3845 TIP3 OH2  OT    -0.834000       15.9994           0
   36494 WT2  3845 TIP3 H1   HT     0.417000        1.0080           0
   36495 WT2  3845 TIP3 H2   HT     0.417000        1.0080           0
   36496 WT2  3846 TIP3 OH2  OT    -0.834000       15.9994           0
   36497 WT2  3846 TIP3 H1   HT     0.417000        1.0080           0
   36498 WT2  3846 TIP3 H2   HT     0.417000        1.0080           0
   36499 WT2  3847 TIP3 OH2  OT    -0.834000       15.9994           0
   36500 WT2  3847 TIP3 H1   HT     0.417000        1.0080           0
   36501 WT2  3847 TIP3 H2   HT     0.417000        1.0080           0
   36502 WT2  3848 TIP3 OH2  OT    -0.834000       15.9994           0
   36503 WT2  3848 TIP3 H1   HT     0.417000        1.0080           0
   36504 WT2  3848 TIP3 H2   HT     0.417000        1.0080           0
   36505 WT2  3849 TIP3 OH2  OT    -0.834000       15.9994           0
   36506 WT2  3849 TIP3 H1   HT     0.417000        1.0080           0
   36507 WT2  3849 TIP3 H2   HT     0.417000        1.0080           0
   36508 WT2  3850 TIP3 OH2  OT    -0.834000       15.9994           0
   36509 WT2  3850 TIP3 H1   HT     0.417000        1.0080           0
   36510 WT2  3850 TIP3 H2   HT     0.417000        1.0080           0
   36511 WT2  3851 TIP3 OH2  OT    -0.834000       15.9994           0
   36512 WT2  3851 TIP3 H1   HT     0.417000        1.0080           0
   36513 WT2  3851 TIP3 H2   HT     0.417000        1.0080           0
   36514 WT2  3852 TIP3 OH2  OT    -0.834000       15.9994           0
   36515 WT2  3852 TIP3 H1   HT     0.417000        1.0080           0
   36516 WT2  3852 TIP3 H2   HT     0.417000        1.0080           0
   36517 WT2  3853 TIP3 OH2  OT    -0.834000       15.9994           0
   36518 WT2  3853 TIP3 H1   HT     0.417000        1.0080           0
   36519 WT2  3853 TIP3 H2   HT     0.417000        1.0080           0
   36520 WT2  3854 TIP3 OH2  OT    -0.834000       15.9994           0
   36521 WT2  3854 TIP3 H1   HT     0.417000        1.0080           0
   36522 WT2  3854 TIP3 H2   HT     0.417000        1.0080           0
   36523 WT2  3855 TIP3 OH2  OT    -0.834000       15.9994           0
   36524 WT2  3855 TIP3 H1   HT     0.417000        1.0080           0
   36525 WT2  3855 TIP3 H2   HT     0.417000        1.0080           0
   36526 WT2  3857 TIP3 OH2  OT    -0.834000       15.9994           0
   36527 WT2  3857 TIP3 H1   HT     0.417000        1.0080           0
   36528 WT2  3857 TIP3 H2   HT     0.417000        1.0080           0
   36529 WT2  3859 TIP3 OH2  OT    -0.834000       15.9994           0
   36530 WT2  3859 TIP3 H1   HT     0.417000        1.0080           0
   36531 WT2  3859 TIP3 H2   HT     0.417000        1.0080           0
   36532 WT2  3861 TIP3 OH2  OT    -0.834000       15.9994           0
   36533 WT2  3861 TIP3 H1   HT     0.417000        1.0080           0
   36534 WT2  3861 TIP3 H2   HT     0.417000        1.0080           0
   36535 WT2  3863 TIP3 OH2  OT    -0.834000       15.9994           0
   36536 WT2  3863 TIP3 H1   HT     0.417000        1.0080           0
   36537 WT2  3863 TIP3 H2   HT     0.417000        1.0080           0
   36538 WT2  3865 TIP3 OH2  OT    -0.834000       15.9994           0
   36539 WT2  3865 TIP3 H1   HT     0.417000        1.0080           0
   36540 WT2  3865 TIP3 H2   HT     0.417000        1.0080           0
   36541 WT2  3867 TIP3 OH2  OT    -0.834000       15.9994           0
   36542 WT2  3867 TIP3 H1   HT     0.417000        1.0080           0
   36543 WT2  3867 TIP3 H2   HT     0.417000        1.0080           0
   36544 WT2  3868 TIP3 OH2  OT    -0.834000       15.9994           0
   36545 WT2  3868 TIP3 H1   HT     0.417000        1.0080           0
   36546 WT2  3868 TIP3 H2   HT     0.417000        1.0080           0
   36547 WT2  3869 TIP3 OH2  OT    -0.834000       15.9994           0
   36548 WT2  3869 TIP3 H1   HT     0.417000        1.0080           0
   36549 WT2  3869 TIP3 H2   HT     0.417000        1.0080           0
   36550 WT2  3870 TIP3 OH2  OT    -0.834000       15.9994           0
   36551 WT2  3870 TIP3 H1   HT     0.417000        1.0080           0
   36552 WT2  3870 TIP3 H2   HT     0.417000        1.0080           0
   36553 WT2  3871 TIP3 OH2  OT    -0.834000       15.9994           0
   36554 WT2  3871 TIP3 H1   HT     0.417000        1.0080           0
   36555 WT2  3871 TIP3 H2   HT     0.417000        1.0080           0
   36556 WT2  3872 TIP3 OH2  OT    -0.834000       15.9994           0
   36557 WT2  3872 TIP3 H1   HT     0.417000        1.0080           0
   36558 WT2  3872 TIP3 H2   HT     0.417000        1.0080           0
   36559 WT2  3873 TIP3 OH2  OT    -0.834000       15.9994           0
   36560 WT2  3873 TIP3 H1   HT     0.417000        1.0080           0
   36561 WT2  3873 TIP3 H2   HT     0.417000        1.0080           0
   36562 WT2  3874 TIP3 OH2  OT    -0.834000       15.9994           0
   36563 WT2  3874 TIP3 H1   HT     0.417000        1.0080           0
   36564 WT2  3874 TIP3 H2   HT     0.417000        1.0080           0
   36565 WT2  3875 TIP3 OH2  OT    -0.834000       15.9994           0
   36566 WT2  3875 TIP3 H1   HT     0.417000        1.0080           0
   36567 WT2  3875 TIP3 H2   HT     0.417000        1.0080           0
   36568 WT2  3876 TIP3 OH2  OT    -0.834000       15.9994           0
   36569 WT2  3876 TIP3 H1   HT     0.417000        1.0080           0
   36570 WT2  3876 TIP3 H2   HT     0.417000        1.0080           0
   36571 WT2  3878 TIP3 OH2  OT    -0.834000       15.9994           0
   36572 WT2  3878 TIP3 H1   HT     0.417000        1.0080           0
   36573 WT2  3878 TIP3 H2   HT     0.417000        1.0080           0
   36574 WT2  3882 TIP3 OH2  OT    -0.834000       15.9994           0
   36575 WT2  3882 TIP3 H1   HT     0.417000        1.0080           0
   36576 WT2  3882 TIP3 H2   HT     0.417000        1.0080           0
   36577 WT2  3885 TIP3 OH2  OT    -0.834000       15.9994           0
   36578 WT2  3885 TIP3 H1   HT     0.417000        1.0080           0
   36579 WT2  3885 TIP3 H2   HT     0.417000        1.0080           0
   36580 WT2  3886 TIP3 OH2  OT    -0.834000       15.9994           0
   36581 WT2  3886 TIP3 H1   HT     0.417000        1.0080           0
   36582 WT2  3886 TIP3 H2   HT     0.417000        1.0080           0
   36583 WT2  3888 TIP3 OH2  OT    -0.834000       15.9994           0
   36584 WT2  3888 TIP3 H1   HT     0.417000        1.0080           0
   36585 WT2  3888 TIP3 H2   HT     0.417000        1.0080           0
   36586 WT2  3889 TIP3 OH2  OT    -0.834000       15.9994           0
   36587 WT2  3889 TIP3 H1   HT     0.417000        1.0080           0
   36588 WT2  3889 TIP3 H2   HT     0.417000        1.0080           0
   36589 WT2  3890 TIP3 OH2  OT    -0.834000       15.9994           0
   36590 WT2  3890 TIP3 H1   HT     0.417000        1.0080           0
   36591 WT2  3890 TIP3 H2   HT     0.417000        1.0080           0
   36592 WT2  3891 TIP3 OH2  OT    -0.834000       15.9994           0
   36593 WT2  3891 TIP3 H1   HT     0.417000        1.0080           0
   36594 WT2  3891 TIP3 H2   HT     0.417000        1.0080           0
   36595 WT2  3892 TIP3 OH2  OT    -0.834000       15.9994           0
   36596 WT2  3892 TIP3 H1   HT     0.417000        1.0080           0
   36597 WT2  3892 TIP3 H2   HT     0.417000        1.0080           0
   36598 WT2  3893 TIP3 OH2  OT    -0.834000       15.9994           0
   36599 WT2  3893 TIP3 H1   HT     0.417000        1.0080           0
   36600 WT2  3893 TIP3 H2   HT     0.417000        1.0080           0
   36601 WT2  3894 TIP3 OH2  OT    -0.834000       15.9994           0
   36602 WT2  3894 TIP3 H1   HT     0.417000        1.0080           0
   36603 WT2  3894 TIP3 H2   HT     0.417000        1.0080           0
   36604 WT2  3895 TIP3 OH2  OT    -0.834000       15.9994           0
   36605 WT2  3895 TIP3 H1   HT     0.417000        1.0080           0
   36606 WT2  3895 TIP3 H2   HT     0.417000        1.0080           0
   36607 WT2  3896 TIP3 OH2  OT    -0.834000       15.9994           0
   36608 WT2  3896 TIP3 H1   HT     0.417000        1.0080           0
   36609 WT2  3896 TIP3 H2   HT     0.417000        1.0080           0
   36610 WT2  3898 TIP3 OH2  OT    -0.834000       15.9994           0
   36611 WT2  3898 TIP3 H1   HT     0.417000        1.0080           0
   36612 WT2  3898 TIP3 H2   HT     0.417000        1.0080           0
   36613 WT2  3899 TIP3 OH2  OT    -0.834000       15.9994           0
   36614 WT2  3899 TIP3 H1   HT     0.417000        1.0080           0
   36615 WT2  3899 TIP3 H2   HT     0.417000        1.0080           0
   36616 WT2  3900 TIP3 OH2  OT    -0.834000       15.9994           0
   36617 WT2  3900 TIP3 H1   HT     0.417000        1.0080           0
   36618 WT2  3900 TIP3 H2   HT     0.417000        1.0080           0
   36619 WT2  3901 TIP3 OH2  OT    -0.834000       15.9994           0
   36620 WT2  3901 TIP3 H1   HT     0.417000        1.0080           0
   36621 WT2  3901 TIP3 H2   HT     0.417000        1.0080           0
   36622 WT2  3903 TIP3 OH2  OT    -0.834000       15.9994           0
   36623 WT2  3903 TIP3 H1   HT     0.417000        1.0080           0
   36624 WT2  3903 TIP3 H2   HT     0.417000        1.0080           0
   36625 WT2  3907 TIP3 OH2  OT    -0.834000       15.9994           0
   36626 WT2  3907 TIP3 H1   HT     0.417000        1.0080           0
   36627 WT2  3907 TIP3 H2   HT     0.417000        1.0080           0
   36628 WT2  3909 TIP3 OH2  OT    -0.834000       15.9994           0
   36629 WT2  3909 TIP3 H1   HT     0.417000        1.0080           0
   36630 WT2  3909 TIP3 H2   HT     0.417000        1.0080           0
   36631 WT2  3911 TIP3 OH2  OT    -0.834000       15.9994           0
   36632 WT2  3911 TIP3 H1   HT     0.417000        1.0080           0
   36633 WT2  3911 TIP3 H2   HT     0.417000        1.0080           0
   36634 WT2  3912 TIP3 OH2  OT    -0.834000       15.9994           0
   36635 WT2  3912 TIP3 H1   HT     0.417000        1.0080           0
   36636 WT2  3912 TIP3 H2   HT     0.417000        1.0080           0
   36637 WT2  3913 TIP3 OH2  OT    -0.834000       15.9994           0
   36638 WT2  3913 TIP3 H1   HT     0.417000        1.0080           0
   36639 WT2  3913 TIP3 H2   HT     0.417000        1.0080           0
   36640 WT2  3914 TIP3 OH2  OT    -0.834000       15.9994           0
   36641 WT2  3914 TIP3 H1   HT     0.417000        1.0080           0
   36642 WT2  3914 TIP3 H2   HT     0.417000        1.0080           0
   36643 WT2  3915 TIP3 OH2  OT    -0.834000       15.9994           0
   36644 WT2  3915 TIP3 H1   HT     0.417000        1.0080           0
   36645 WT2  3915 TIP3 H2   HT     0.417000        1.0080           0
   36646 WT2  3916 TIP3 OH2  OT    -0.834000       15.9994           0
   36647 WT2  3916 TIP3 H1   HT     0.417000        1.0080           0
   36648 WT2  3916 TIP3 H2   HT     0.417000        1.0080           0
   36649 WT2  3917 TIP3 OH2  OT    -0.834000       15.9994           0
   36650 WT2  3917 TIP3 H1   HT     0.417000        1.0080           0
   36651 WT2  3917 TIP3 H2   HT     0.417000        1.0080           0
   36652 WT2  3919 TIP3 OH2  OT    -0.834000       15.9994           0
   36653 WT2  3919 TIP3 H1   HT     0.417000        1.0080           0
   36654 WT2  3919 TIP3 H2   HT     0.417000        1.0080           0
   36655 WT2  3920 TIP3 OH2  OT    -0.834000       15.9994           0
   36656 WT2  3920 TIP3 H1   HT     0.417000        1.0080           0
   36657 WT2  3920 TIP3 H2   HT     0.417000        1.0080           0
   36658 WT2  3922 TIP3 OH2  OT    -0.834000       15.9994           0
   36659 WT2  3922 TIP3 H1   HT     0.417000        1.0080           0
   36660 WT2  3922 TIP3 H2   HT     0.417000        1.0080           0
   36661 WT2  3924 TIP3 OH2  OT    -0.834000       15.9994           0
   36662 WT2  3924 TIP3 H1   HT     0.417000        1.0080           0
   36663 WT2  3924 TIP3 H2   HT     0.417000        1.0080           0
   36664 WT2  3925 TIP3 OH2  OT    -0.834000       15.9994           0
   36665 WT2  3925 TIP3 H1   HT     0.417000        1.0080           0
   36666 WT2  3925 TIP3 H2   HT     0.417000        1.0080           0
   36667 WT2  3927 TIP3 OH2  OT    -0.834000       15.9994           0
   36668 WT2  3927 TIP3 H1   HT     0.417000        1.0080           0
   36669 WT2  3927 TIP3 H2   HT     0.417000        1.0080           0
   36670 WT2  3928 TIP3 OH2  OT    -0.834000       15.9994           0
   36671 WT2  3928 TIP3 H1   HT     0.417000        1.0080           0
   36672 WT2  3928 TIP3 H2   HT     0.417000        1.0080           0
   36673 WT2  3929 TIP3 OH2  OT    -0.834000       15.9994           0
   36674 WT2  3929 TIP3 H1   HT     0.417000        1.0080           0
   36675 WT2  3929 TIP3 H2   HT     0.417000        1.0080           0
   36676 WT2  3930 TIP3 OH2  OT    -0.834000       15.9994           0
   36677 WT2  3930 TIP3 H1   HT     0.417000        1.0080           0
   36678 WT2  3930 TIP3 H2   HT     0.417000        1.0080           0
   36679 WT2  3931 TIP3 OH2  OT    -0.834000       15.9994           0
   36680 WT2  3931 TIP3 H1   HT     0.417000        1.0080           0
   36681 WT2  3931 TIP3 H2   HT     0.417000        1.0080           0
   36682 WT2  3932 TIP3 OH2  OT    -0.834000       15.9994           0
   36683 WT2  3932 TIP3 H1   HT     0.417000        1.0080           0
   36684 WT2  3932 TIP3 H2   HT     0.417000        1.0080           0
   36685 WT2  3933 TIP3 OH2  OT    -0.834000       15.9994           0
   36686 WT2  3933 TIP3 H1   HT     0.417000        1.0080           0
   36687 WT2  3933 TIP3 H2   HT     0.417000        1.0080           0
   36688 WT2  3934 TIP3 OH2  OT    -0.834000       15.9994           0
   36689 WT2  3934 TIP3 H1   HT     0.417000        1.0080           0
   36690 WT2  3934 TIP3 H2   HT     0.417000        1.0080           0
   36691 WT2  3935 TIP3 OH2  OT    -0.834000       15.9994           0
   36692 WT2  3935 TIP3 H1   HT     0.417000        1.0080           0
   36693 WT2  3935 TIP3 H2   HT     0.417000        1.0080           0
   36694 WT2  3936 TIP3 OH2  OT    -0.834000       15.9994           0
   36695 WT2  3936 TIP3 H1   HT     0.417000        1.0080           0
   36696 WT2  3936 TIP3 H2   HT     0.417000        1.0080           0
   36697 WT2  3937 TIP3 OH2  OT    -0.834000       15.9994           0
   36698 WT2  3937 TIP3 H1   HT     0.417000        1.0080           0
   36699 WT2  3937 TIP3 H2   HT     0.417000        1.0080           0
   36700 WT2  3938 TIP3 OH2  OT    -0.834000       15.9994           0
   36701 WT2  3938 TIP3 H1   HT     0.417000        1.0080           0
   36702 WT2  3938 TIP3 H2   HT     0.417000        1.0080           0
   36703 WT2  3939 TIP3 OH2  OT    -0.834000       15.9994           0
   36704 WT2  3939 TIP3 H1   HT     0.417000        1.0080           0
   36705 WT2  3939 TIP3 H2   HT     0.417000        1.0080           0
   36706 WT2  3946 TIP3 OH2  OT    -0.834000       15.9994           0
   36707 WT2  3946 TIP3 H1   HT     0.417000        1.0080           0
   36708 WT2  3946 TIP3 H2   HT     0.417000        1.0080           0
   36709 WT2  3949 TIP3 OH2  OT    -0.834000       15.9994           0
   36710 WT2  3949 TIP3 H1   HT     0.417000        1.0080           0
   36711 WT2  3949 TIP3 H2   HT     0.417000        1.0080           0
   36712 WT2  3951 TIP3 OH2  OT    -0.834000       15.9994           0
   36713 WT2  3951 TIP3 H1   HT     0.417000        1.0080           0
   36714 WT2  3951 TIP3 H2   HT     0.417000        1.0080           0
   36715 WT2  3954 TIP3 OH2  OT    -0.834000       15.9994           0
   36716 WT2  3954 TIP3 H1   HT     0.417000        1.0080           0
   36717 WT2  3954 TIP3 H2   HT     0.417000        1.0080           0
   36718 WT2  3955 TIP3 OH2  OT    -0.834000       15.9994           0
   36719 WT2  3955 TIP3 H1   HT     0.417000        1.0080           0
   36720 WT2  3955 TIP3 H2   HT     0.417000        1.0080           0
   36721 WT2  3956 TIP3 OH2  OT    -0.834000       15.9994           0
   36722 WT2  3956 TIP3 H1   HT     0.417000        1.0080           0
   36723 WT2  3956 TIP3 H2   HT     0.417000        1.0080           0
   36724 WT2  3957 TIP3 OH2  OT    -0.834000       15.9994           0
   36725 WT2  3957 TIP3 H1   HT     0.417000        1.0080           0
   36726 WT2  3957 TIP3 H2   HT     0.417000        1.0080           0
   36727 WT2  3958 TIP3 OH2  OT    -0.834000       15.9994           0
   36728 WT2  3958 TIP3 H1   HT     0.417000        1.0080           0
   36729 WT2  3958 TIP3 H2   HT     0.417000        1.0080           0
   36730 WT2  3959 TIP3 OH2  OT    -0.834000       15.9994           0
   36731 WT2  3959 TIP3 H1   HT     0.417000        1.0080           0
   36732 WT2  3959 TIP3 H2   HT     0.417000        1.0080           0
   36733 WT2  3960 TIP3 OH2  OT    -0.834000       15.9994           0
   36734 WT2  3960 TIP3 H1   HT     0.417000        1.0080           0
   36735 WT2  3960 TIP3 H2   HT     0.417000        1.0080           0
   36736 WT2  3961 TIP3 OH2  OT    -0.834000       15.9994           0
   36737 WT2  3961 TIP3 H1   HT     0.417000        1.0080           0
   36738 WT2  3961 TIP3 H2   HT     0.417000        1.0080           0
   36739 WT2  3971 TIP3 OH2  OT    -0.834000       15.9994           0
   36740 WT2  3971 TIP3 H1   HT     0.417000        1.0080           0
   36741 WT2  3971 TIP3 H2   HT     0.417000        1.0080           0
   36742 WT2  3972 TIP3 OH2  OT    -0.834000       15.9994           0
   36743 WT2  3972 TIP3 H1   HT     0.417000        1.0080           0
   36744 WT2  3972 TIP3 H2   HT     0.417000        1.0080           0
   36745 WT2  3973 TIP3 OH2  OT    -0.834000       15.9994           0
   36746 WT2  3973 TIP3 H1   HT     0.417000        1.0080           0
   36747 WT2  3973 TIP3 H2   HT     0.417000        1.0080           0
   36748 WT2  3974 TIP3 OH2  OT    -0.834000       15.9994           0
   36749 WT2  3974 TIP3 H1   HT     0.417000        1.0080           0
   36750 WT2  3974 TIP3 H2   HT     0.417000        1.0080           0
   36751 WT2  3975 TIP3 OH2  OT    -0.834000       15.9994           0
   36752 WT2  3975 TIP3 H1   HT     0.417000        1.0080           0
   36753 WT2  3975 TIP3 H2   HT     0.417000        1.0080           0
   36754 WT2  3976 TIP3 OH2  OT    -0.834000       15.9994           0
   36755 WT2  3976 TIP3 H1   HT     0.417000        1.0080           0
   36756 WT2  3976 TIP3 H2   HT     0.417000        1.0080           0
   36757 WT2  3977 TIP3 OH2  OT    -0.834000       15.9994           0
   36758 WT2  3977 TIP3 H1   HT     0.417000        1.0080           0
   36759 WT2  3977 TIP3 H2   HT     0.417000        1.0080           0
   36760 WT2  3978 TIP3 OH2  OT    -0.834000       15.9994           0
   36761 WT2  3978 TIP3 H1   HT     0.417000        1.0080           0
   36762 WT2  3978 TIP3 H2   HT     0.417000        1.0080           0
   36763 WT2  3979 TIP3 OH2  OT    -0.834000       15.9994           0
   36764 WT2  3979 TIP3 H1   HT     0.417000        1.0080           0
   36765 WT2  3979 TIP3 H2   HT     0.417000        1.0080           0
   36766 WT2  3980 TIP3 OH2  OT    -0.834000       15.9994           0
   36767 WT2  3980 TIP3 H1   HT     0.417000        1.0080           0
   36768 WT2  3980 TIP3 H2   HT     0.417000        1.0080           0
   36769 WT2  3981 TIP3 OH2  OT    -0.834000       15.9994           0
   36770 WT2  3981 TIP3 H1   HT     0.417000        1.0080           0
   36771 WT2  3981 TIP3 H2   HT     0.417000        1.0080           0
   36772 WT2  3982 TIP3 OH2  OT    -0.834000       15.9994           0
   36773 WT2  3982 TIP3 H1   HT     0.417000        1.0080           0
   36774 WT2  3982 TIP3 H2   HT     0.417000        1.0080           0
   36775 WT2  3983 TIP3 OH2  OT    -0.834000       15.9994           0
   36776 WT2  3983 TIP3 H1   HT     0.417000        1.0080           0
   36777 WT2  3983 TIP3 H2   HT     0.417000        1.0080           0
   36778 WT2  3986 TIP3 OH2  OT    -0.834000       15.9994           0
   36779 WT2  3986 TIP3 H1   HT     0.417000        1.0080           0
   36780 WT2  3986 TIP3 H2   HT     0.417000        1.0080           0
   36781 WT2  3991 TIP3 OH2  OT    -0.834000       15.9994           0
   36782 WT2  3991 TIP3 H1   HT     0.417000        1.0080           0
   36783 WT2  3991 TIP3 H2   HT     0.417000        1.0080           0
   36784 WT2  3992 TIP3 OH2  OT    -0.834000       15.9994           0
   36785 WT2  3992 TIP3 H1   HT     0.417000        1.0080           0
   36786 WT2  3992 TIP3 H2   HT     0.417000        1.0080           0
   36787 WT2  3993 TIP3 OH2  OT    -0.834000       15.9994           0
   36788 WT2  3993 TIP3 H1   HT     0.417000        1.0080           0
   36789 WT2  3993 TIP3 H2   HT     0.417000        1.0080           0
   36790 WT2  3994 TIP3 OH2  OT    -0.834000       15.9994           0
   36791 WT2  3994 TIP3 H1   HT     0.417000        1.0080           0
   36792 WT2  3994 TIP3 H2   HT     0.417000        1.0080           0
   36793 WT2  3995 TIP3 OH2  OT    -0.834000       15.9994           0
   36794 WT2  3995 TIP3 H1   HT     0.417000        1.0080           0
   36795 WT2  3995 TIP3 H2   HT     0.417000        1.0080           0
   36796 WT2  3996 TIP3 OH2  OT    -0.834000       15.9994           0
   36797 WT2  3996 TIP3 H1   HT     0.417000        1.0080           0
   36798 WT2  3996 TIP3 H2   HT     0.417000        1.0080           0
   36799 WT2  3997 TIP3 OH2  OT    -0.834000       15.9994           0
   36800 WT2  3997 TIP3 H1   HT     0.417000        1.0080           0
   36801 WT2  3997 TIP3 H2   HT     0.417000        1.0080           0
   36802 WT2  3998 TIP3 OH2  OT    -0.834000       15.9994           0
   36803 WT2  3998 TIP3 H1   HT     0.417000        1.0080           0
   36804 WT2  3998 TIP3 H2   HT     0.417000        1.0080           0
   36805 WT2  3999 TIP3 OH2  OT    -0.834000       15.9994           0
   36806 WT2  3999 TIP3 H1   HT     0.417000        1.0080           0
   36807 WT2  3999 TIP3 H2   HT     0.417000        1.0080           0
   36808 WT2  4000 TIP3 OH2  OT    -0.834000       15.9994           0
   36809 WT2  4000 TIP3 H1   HT     0.417000        1.0080           0
   36810 WT2  4000 TIP3 H2   HT     0.417000        1.0080           0
   36811 WT2  4002 TIP3 OH2  OT    -0.834000       15.9994           0
   36812 WT2  4002 TIP3 H1   HT     0.417000        1.0080           0
   36813 WT2  4002 TIP3 H2   HT     0.417000        1.0080           0
   36814 WT2  4005 TIP3 OH2  OT    -0.834000       15.9994           0
   36815 WT2  4005 TIP3 H1   HT     0.417000        1.0080           0
   36816 WT2  4005 TIP3 H2   HT     0.417000        1.0080           0
   36817 WT2  4008 TIP3 OH2  OT    -0.834000       15.9994           0
   36818 WT2  4008 TIP3 H1   HT     0.417000        1.0080           0
   36819 WT2  4008 TIP3 H2   HT     0.417000        1.0080           0
   36820 WT2  4009 TIP3 OH2  OT    -0.834000       15.9994           0
   36821 WT2  4009 TIP3 H1   HT     0.417000        1.0080           0
   36822 WT2  4009 TIP3 H2   HT     0.417000        1.0080           0
   36823 WT2  4010 TIP3 OH2  OT    -0.834000       15.9994           0
   36824 WT2  4010 TIP3 H1   HT     0.417000        1.0080           0
   36825 WT2  4010 TIP3 H2   HT     0.417000        1.0080           0
   36826 WT2  4011 TIP3 OH2  OT    -0.834000       15.9994           0
   36827 WT2  4011 TIP3 H1   HT     0.417000        1.0080           0
   36828 WT2  4011 TIP3 H2   HT     0.417000        1.0080           0
   36829 WT2  4012 TIP3 OH2  OT    -0.834000       15.9994           0
   36830 WT2  4012 TIP3 H1   HT     0.417000        1.0080           0
   36831 WT2  4012 TIP3 H2   HT     0.417000        1.0080           0
   36832 WT2  4014 TIP3 OH2  OT    -0.834000       15.9994           0
   36833 WT2  4014 TIP3 H1   HT     0.417000        1.0080           0
   36834 WT2  4014 TIP3 H2   HT     0.417000        1.0080           0
   36835 WT2  4015 TIP3 OH2  OT    -0.834000       15.9994           0
   36836 WT2  4015 TIP3 H1   HT     0.417000        1.0080           0
   36837 WT2  4015 TIP3 H2   HT     0.417000        1.0080           0
   36838 WT2  4016 TIP3 OH2  OT    -0.834000       15.9994           0
   36839 WT2  4016 TIP3 H1   HT     0.417000        1.0080           0
   36840 WT2  4016 TIP3 H2   HT     0.417000        1.0080           0
   36841 WT2  4017 TIP3 OH2  OT    -0.834000       15.9994           0
   36842 WT2  4017 TIP3 H1   HT     0.417000        1.0080           0
   36843 WT2  4017 TIP3 H2   HT     0.417000        1.0080           0
   36844 WT2  4018 TIP3 OH2  OT    -0.834000       15.9994           0
   36845 WT2  4018 TIP3 H1   HT     0.417000        1.0080           0
   36846 WT2  4018 TIP3 H2   HT     0.417000        1.0080           0
   36847 WT2  4019 TIP3 OH2  OT    -0.834000       15.9994           0
   36848 WT2  4019 TIP3 H1   HT     0.417000        1.0080           0
   36849 WT2  4019 TIP3 H2   HT     0.417000        1.0080           0
   36850 WT2  4020 TIP3 OH2  OT    -0.834000       15.9994           0
   36851 WT2  4020 TIP3 H1   HT     0.417000        1.0080           0
   36852 WT2  4020 TIP3 H2   HT     0.417000        1.0080           0
   36853 WT2  4021 TIP3 OH2  OT    -0.834000       15.9994           0
   36854 WT2  4021 TIP3 H1   HT     0.417000        1.0080           0
   36855 WT2  4021 TIP3 H2   HT     0.417000        1.0080           0
   36856 WT2  4022 TIP3 OH2  OT    -0.834000       15.9994           0
   36857 WT2  4022 TIP3 H1   HT     0.417000        1.0080           0
   36858 WT2  4022 TIP3 H2   HT     0.417000        1.0080           0
   36859 WT2  4024 TIP3 OH2  OT    -0.834000       15.9994           0
   36860 WT2  4024 TIP3 H1   HT     0.417000        1.0080           0
   36861 WT2  4024 TIP3 H2   HT     0.417000        1.0080           0
   36862 WT2  4029 TIP3 OH2  OT    -0.834000       15.9994           0
   36863 WT2  4029 TIP3 H1   HT     0.417000        1.0080           0
   36864 WT2  4029 TIP3 H2   HT     0.417000        1.0080           0
   36865 WT2  4030 TIP3 OH2  OT    -0.834000       15.9994           0
   36866 WT2  4030 TIP3 H1   HT     0.417000        1.0080           0
   36867 WT2  4030 TIP3 H2   HT     0.417000        1.0080           0
   36868 WT2  4033 TIP3 OH2  OT    -0.834000       15.9994           0
   36869 WT2  4033 TIP3 H1   HT     0.417000        1.0080           0
   36870 WT2  4033 TIP3 H2   HT     0.417000        1.0080           0
   36871 WT2  4035 TIP3 OH2  OT    -0.834000       15.9994           0
   36872 WT2  4035 TIP3 H1   HT     0.417000        1.0080           0
   36873 WT2  4035 TIP3 H2   HT     0.417000        1.0080           0
   36874 WT2  4036 TIP3 OH2  OT    -0.834000       15.9994           0
   36875 WT2  4036 TIP3 H1   HT     0.417000        1.0080           0
   36876 WT2  4036 TIP3 H2   HT     0.417000        1.0080           0
   36877 WT2  4037 TIP3 OH2  OT    -0.834000       15.9994           0
   36878 WT2  4037 TIP3 H1   HT     0.417000        1.0080           0
   36879 WT2  4037 TIP3 H2   HT     0.417000        1.0080           0
   36880 WT2  4038 TIP3 OH2  OT    -0.834000       15.9994           0
   36881 WT2  4038 TIP3 H1   HT     0.417000        1.0080           0
   36882 WT2  4038 TIP3 H2   HT     0.417000        1.0080           0
   36883 WT2  4039 TIP3 OH2  OT    -0.834000       15.9994           0
   36884 WT2  4039 TIP3 H1   HT     0.417000        1.0080           0
   36885 WT2  4039 TIP3 H2   HT     0.417000        1.0080           0
   36886 WT2  4040 TIP3 OH2  OT    -0.834000       15.9994           0
   36887 WT2  4040 TIP3 H1   HT     0.417000        1.0080           0
   36888 WT2  4040 TIP3 H2   HT     0.417000        1.0080           0
   36889 WT2  4041 TIP3 OH2  OT    -0.834000       15.9994           0
   36890 WT2  4041 TIP3 H1   HT     0.417000        1.0080           0
   36891 WT2  4041 TIP3 H2   HT     0.417000        1.0080           0
   36892 WT2  4042 TIP3 OH2  OT    -0.834000       15.9994           0
   36893 WT2  4042 TIP3 H1   HT     0.417000        1.0080           0
   36894 WT2  4042 TIP3 H2   HT     0.417000        1.0080           0
   36895 WT2  4046 TIP3 OH2  OT    -0.834000       15.9994           0
   36896 WT2  4046 TIP3 H1   HT     0.417000        1.0080           0
   36897 WT2  4046 TIP3 H2   HT     0.417000        1.0080           0
   36898 WT2  4047 TIP3 OH2  OT    -0.834000       15.9994           0
   36899 WT2  4047 TIP3 H1   HT     0.417000        1.0080           0
   36900 WT2  4047 TIP3 H2   HT     0.417000        1.0080           0
   36901 WT2  4053 TIP3 OH2  OT    -0.834000       15.9994           0
   36902 WT2  4053 TIP3 H1   HT     0.417000        1.0080           0
   36903 WT2  4053 TIP3 H2   HT     0.417000        1.0080           0
   36904 WT2  4054 TIP3 OH2  OT    -0.834000       15.9994           0
   36905 WT2  4054 TIP3 H1   HT     0.417000        1.0080           0
   36906 WT2  4054 TIP3 H2   HT     0.417000        1.0080           0
   36907 WT2  4055 TIP3 OH2  OT    -0.834000       15.9994           0
   36908 WT2  4055 TIP3 H1   HT     0.417000        1.0080           0
   36909 WT2  4055 TIP3 H2   HT     0.417000        1.0080           0
   36910 WT2  4056 TIP3 OH2  OT    -0.834000       15.9994           0
   36911 WT2  4056 TIP3 H1   HT     0.417000        1.0080           0
   36912 WT2  4056 TIP3 H2   HT     0.417000        1.0080           0
   36913 WT2  4057 TIP3 OH2  OT    -0.834000       15.9994           0
   36914 WT2  4057 TIP3 H1   HT     0.417000        1.0080           0
   36915 WT2  4057 TIP3 H2   HT     0.417000        1.0080           0
   36916 WT2  4058 TIP3 OH2  OT    -0.834000       15.9994           0
   36917 WT2  4058 TIP3 H1   HT     0.417000        1.0080           0
   36918 WT2  4058 TIP3 H2   HT     0.417000        1.0080           0
   36919 WT2  4059 TIP3 OH2  OT    -0.834000       15.9994           0
   36920 WT2  4059 TIP3 H1   HT     0.417000        1.0080           0
   36921 WT2  4059 TIP3 H2   HT     0.417000        1.0080           0
   36922 WT2  4060 TIP3 OH2  OT    -0.834000       15.9994           0
   36923 WT2  4060 TIP3 H1   HT     0.417000        1.0080           0
   36924 WT2  4060 TIP3 H2   HT     0.417000        1.0080           0
   36925 WT2  4061 TIP3 OH2  OT    -0.834000       15.9994           0
   36926 WT2  4061 TIP3 H1   HT     0.417000        1.0080           0
   36927 WT2  4061 TIP3 H2   HT     0.417000        1.0080           0
   36928 WT2  4062 TIP3 OH2  OT    -0.834000       15.9994           0
   36929 WT2  4062 TIP3 H1   HT     0.417000        1.0080           0
   36930 WT2  4062 TIP3 H2   HT     0.417000        1.0080           0
   36931 WT2  4063 TIP3 OH2  OT    -0.834000       15.9994           0
   36932 WT2  4063 TIP3 H1   HT     0.417000        1.0080           0
   36933 WT2  4063 TIP3 H2   HT     0.417000        1.0080           0
   36934 WT2  4064 TIP3 OH2  OT    -0.834000       15.9994           0
   36935 WT2  4064 TIP3 H1   HT     0.417000        1.0080           0
   36936 WT2  4064 TIP3 H2   HT     0.417000        1.0080           0
   36937 WT2  4065 TIP3 OH2  OT    -0.834000       15.9994           0
   36938 WT2  4065 TIP3 H1   HT     0.417000        1.0080           0
   36939 WT2  4065 TIP3 H2   HT     0.417000        1.0080           0
   36940 WT2  4066 TIP3 OH2  OT    -0.834000       15.9994           0
   36941 WT2  4066 TIP3 H1   HT     0.417000        1.0080           0
   36942 WT2  4066 TIP3 H2   HT     0.417000        1.0080           0
   36943 WT2  4072 TIP3 OH2  OT    -0.834000       15.9994           0
   36944 WT2  4072 TIP3 H1   HT     0.417000        1.0080           0
   36945 WT2  4072 TIP3 H2   HT     0.417000        1.0080           0
   36946 WT2  4074 TIP3 OH2  OT    -0.834000       15.9994           0
   36947 WT2  4074 TIP3 H1   HT     0.417000        1.0080           0
   36948 WT2  4074 TIP3 H2   HT     0.417000        1.0080           0
   36949 WT2  4076 TIP3 OH2  OT    -0.834000       15.9994           0
   36950 WT2  4076 TIP3 H1   HT     0.417000        1.0080           0
   36951 WT2  4076 TIP3 H2   HT     0.417000        1.0080           0
   36952 WT2  4077 TIP3 OH2  OT    -0.834000       15.9994           0
   36953 WT2  4077 TIP3 H1   HT     0.417000        1.0080           0
   36954 WT2  4077 TIP3 H2   HT     0.417000        1.0080           0
   36955 WT2  4078 TIP3 OH2  OT    -0.834000       15.9994           0
   36956 WT2  4078 TIP3 H1   HT     0.417000        1.0080           0
   36957 WT2  4078 TIP3 H2   HT     0.417000        1.0080           0
   36958 WT2  4079 TIP3 OH2  OT    -0.834000       15.9994           0
   36959 WT2  4079 TIP3 H1   HT     0.417000        1.0080           0
   36960 WT2  4079 TIP3 H2   HT     0.417000        1.0080           0
   36961 WT2  4080 TIP3 OH2  OT    -0.834000       15.9994           0
   36962 WT2  4080 TIP3 H1   HT     0.417000        1.0080           0
   36963 WT2  4080 TIP3 H2   HT     0.417000        1.0080           0
   36964 WT2  4081 TIP3 OH2  OT    -0.834000       15.9994           0
   36965 WT2  4081 TIP3 H1   HT     0.417000        1.0080           0
   36966 WT2  4081 TIP3 H2   HT     0.417000        1.0080           0
   36967 WT2  4082 TIP3 OH2  OT    -0.834000       15.9994           0
   36968 WT2  4082 TIP3 H1   HT     0.417000        1.0080           0
   36969 WT2  4082 TIP3 H2   HT     0.417000        1.0080           0
   36970 WT2  4083 TIP3 OH2  OT    -0.834000       15.9994           0
   36971 WT2  4083 TIP3 H1   HT     0.417000        1.0080           0
   36972 WT2  4083 TIP3 H2   HT     0.417000        1.0080           0
   36973 WT2  4084 TIP3 OH2  OT    -0.834000       15.9994           0
   36974 WT2  4084 TIP3 H1   HT     0.417000        1.0080           0
   36975 WT2  4084 TIP3 H2   HT     0.417000        1.0080           0
   36976 WT2  4085 TIP3 OH2  OT    -0.834000       15.9994           0
   36977 WT2  4085 TIP3 H1   HT     0.417000        1.0080           0
   36978 WT2  4085 TIP3 H2   HT     0.417000        1.0080           0
   36979 WT2  4086 TIP3 OH2  OT    -0.834000       15.9994           0
   36980 WT2  4086 TIP3 H1   HT     0.417000        1.0080           0
   36981 WT2  4086 TIP3 H2   HT     0.417000        1.0080           0
   36982 WT2  4088 TIP3 OH2  OT    -0.834000       15.9994           0
   36983 WT2  4088 TIP3 H1   HT     0.417000        1.0080           0
   36984 WT2  4088 TIP3 H2   HT     0.417000        1.0080           0
   36985 WT2  4091 TIP3 OH2  OT    -0.834000       15.9994           0
   36986 WT2  4091 TIP3 H1   HT     0.417000        1.0080           0
   36987 WT2  4091 TIP3 H2   HT     0.417000        1.0080           0
   36988 WT2  4093 TIP3 OH2  OT    -0.834000       15.9994           0
   36989 WT2  4093 TIP3 H1   HT     0.417000        1.0080           0
   36990 WT2  4093 TIP3 H2   HT     0.417000        1.0080           0
   36991 WT2  4094 TIP3 OH2  OT    -0.834000       15.9994           0
   36992 WT2  4094 TIP3 H1   HT     0.417000        1.0080           0
   36993 WT2  4094 TIP3 H2   HT     0.417000        1.0080           0
   36994 WT2  4096 TIP3 OH2  OT    -0.834000       15.9994           0
   36995 WT2  4096 TIP3 H1   HT     0.417000        1.0080           0
   36996 WT2  4096 TIP3 H2   HT     0.417000        1.0080           0
   36997 WT2  4097 TIP3 OH2  OT    -0.834000       15.9994           0
   36998 WT2  4097 TIP3 H1   HT     0.417000        1.0080           0
   36999 WT2  4097 TIP3 H2   HT     0.417000        1.0080           0
   37000 WT2  4098 TIP3 OH2  OT    -0.834000       15.9994           0
   37001 WT2  4098 TIP3 H1   HT     0.417000        1.0080           0
   37002 WT2  4098 TIP3 H2   HT     0.417000        1.0080           0
   37003 WT2  4099 TIP3 OH2  OT    -0.834000       15.9994           0
   37004 WT2  4099 TIP3 H1   HT     0.417000        1.0080           0
   37005 WT2  4099 TIP3 H2   HT     0.417000        1.0080           0
   37006 WT2  4100 TIP3 OH2  OT    -0.834000       15.9994           0
   37007 WT2  4100 TIP3 H1   HT     0.417000        1.0080           0
   37008 WT2  4100 TIP3 H2   HT     0.417000        1.0080           0
   37009 WT2  4101 TIP3 OH2  OT    -0.834000       15.9994           0
   37010 WT2  4101 TIP3 H1   HT     0.417000        1.0080           0
   37011 WT2  4101 TIP3 H2   HT     0.417000        1.0080           0
   37012 WT2  4102 TIP3 OH2  OT    -0.834000       15.9994           0
   37013 WT2  4102 TIP3 H1   HT     0.417000        1.0080           0
   37014 WT2  4102 TIP3 H2   HT     0.417000        1.0080           0
   37015 WT2  4103 TIP3 OH2  OT    -0.834000       15.9994           0
   37016 WT2  4103 TIP3 H1   HT     0.417000        1.0080           0
   37017 WT2  4103 TIP3 H2   HT     0.417000        1.0080           0
   37018 WT2  4104 TIP3 OH2  OT    -0.834000       15.9994           0
   37019 WT2  4104 TIP3 H1   HT     0.417000        1.0080           0
   37020 WT2  4104 TIP3 H2   HT     0.417000        1.0080           0
   37021 WT2  4105 TIP3 OH2  OT    -0.834000       15.9994           0
   37022 WT2  4105 TIP3 H1   HT     0.417000        1.0080           0
   37023 WT2  4105 TIP3 H2   HT     0.417000        1.0080           0
   37024 WT2  4106 TIP3 OH2  OT    -0.834000       15.9994           0
   37025 WT2  4106 TIP3 H1   HT     0.417000        1.0080           0
   37026 WT2  4106 TIP3 H2   HT     0.417000        1.0080           0
   37027 WT2  4107 TIP3 OH2  OT    -0.834000       15.9994           0
   37028 WT2  4107 TIP3 H1   HT     0.417000        1.0080           0
   37029 WT2  4107 TIP3 H2   HT     0.417000        1.0080           0
   37030 WT2  4109 TIP3 OH2  OT    -0.834000       15.9994           0
   37031 WT2  4109 TIP3 H1   HT     0.417000        1.0080           0
   37032 WT2  4109 TIP3 H2   HT     0.417000        1.0080           0
   37033 WT2  4110 TIP3 OH2  OT    -0.834000       15.9994           0
   37034 WT2  4110 TIP3 H1   HT     0.417000        1.0080           0
   37035 WT2  4110 TIP3 H2   HT     0.417000        1.0080           0
   37036 WT2  4111 TIP3 OH2  OT    -0.834000       15.9994           0
   37037 WT2  4111 TIP3 H1   HT     0.417000        1.0080           0
   37038 WT2  4111 TIP3 H2   HT     0.417000        1.0080           0
   37039 WT2  4116 TIP3 OH2  OT    -0.834000       15.9994           0
   37040 WT2  4116 TIP3 H1   HT     0.417000        1.0080           0
   37041 WT2  4116 TIP3 H2   HT     0.417000        1.0080           0
   37042 WT2  4119 TIP3 OH2  OT    -0.834000       15.9994           0
   37043 WT2  4119 TIP3 H1   HT     0.417000        1.0080           0
   37044 WT2  4119 TIP3 H2   HT     0.417000        1.0080           0
   37045 WT2  4120 TIP3 OH2  OT    -0.834000       15.9994           0
   37046 WT2  4120 TIP3 H1   HT     0.417000        1.0080           0
   37047 WT2  4120 TIP3 H2   HT     0.417000        1.0080           0
   37048 WT2  4121 TIP3 OH2  OT    -0.834000       15.9994           0
   37049 WT2  4121 TIP3 H1   HT     0.417000        1.0080           0
   37050 WT2  4121 TIP3 H2   HT     0.417000        1.0080           0
   37051 WT2  4122 TIP3 OH2  OT    -0.834000       15.9994           0
   37052 WT2  4122 TIP3 H1   HT     0.417000        1.0080           0
   37053 WT2  4122 TIP3 H2   HT     0.417000        1.0080           0
   37054 WT2  4123 TIP3 OH2  OT    -0.834000       15.9994           0
   37055 WT2  4123 TIP3 H1   HT     0.417000        1.0080           0
   37056 WT2  4123 TIP3 H2   HT     0.417000        1.0080           0
   37057 WT2  4124 TIP3 OH2  OT    -0.834000       15.9994           0
   37058 WT2  4124 TIP3 H1   HT     0.417000        1.0080           0
   37059 WT2  4124 TIP3 H2   HT     0.417000        1.0080           0
   37060 WT2  4125 TIP3 OH2  OT    -0.834000       15.9994           0
   37061 WT2  4125 TIP3 H1   HT     0.417000        1.0080           0
   37062 WT2  4125 TIP3 H2   HT     0.417000        1.0080           0
   37063 WT2  4126 TIP3 OH2  OT    -0.834000       15.9994           0
   37064 WT2  4126 TIP3 H1   HT     0.417000        1.0080           0
   37065 WT2  4126 TIP3 H2   HT     0.417000        1.0080           0
   37066 WT2  4127 TIP3 OH2  OT    -0.834000       15.9994           0
   37067 WT2  4127 TIP3 H1   HT     0.417000        1.0080           0
   37068 WT2  4127 TIP3 H2   HT     0.417000        1.0080           0
   37069 WT2  4131 TIP3 OH2  OT    -0.834000       15.9994           0
   37070 WT2  4131 TIP3 H1   HT     0.417000        1.0080           0
   37071 WT2  4131 TIP3 H2   HT     0.417000        1.0080           0
   37072 WT2  4138 TIP3 OH2  OT    -0.834000       15.9994           0
   37073 WT2  4138 TIP3 H1   HT     0.417000        1.0080           0
   37074 WT2  4138 TIP3 H2   HT     0.417000        1.0080           0
   37075 WT2  4139 TIP3 OH2  OT    -0.834000       15.9994           0
   37076 WT2  4139 TIP3 H1   HT     0.417000        1.0080           0
   37077 WT2  4139 TIP3 H2   HT     0.417000        1.0080           0
   37078 WT2  4140 TIP3 OH2  OT    -0.834000       15.9994           0
   37079 WT2  4140 TIP3 H1   HT     0.417000        1.0080           0
   37080 WT2  4140 TIP3 H2   HT     0.417000        1.0080           0
   37081 WT2  4141 TIP3 OH2  OT    -0.834000       15.9994           0
   37082 WT2  4141 TIP3 H1   HT     0.417000        1.0080           0
   37083 WT2  4141 TIP3 H2   HT     0.417000        1.0080           0
   37084 WT2  4142 TIP3 OH2  OT    -0.834000       15.9994           0
   37085 WT2  4142 TIP3 H1   HT     0.417000        1.0080           0
   37086 WT2  4142 TIP3 H2   HT     0.417000        1.0080           0
   37087 WT2  4143 TIP3 OH2  OT    -0.834000       15.9994           0
   37088 WT2  4143 TIP3 H1   HT     0.417000        1.0080           0
   37089 WT2  4143 TIP3 H2   HT     0.417000        1.0080           0
   37090 WT2  4144 TIP3 OH2  OT    -0.834000       15.9994           0
   37091 WT2  4144 TIP3 H1   HT     0.417000        1.0080           0
   37092 WT2  4144 TIP3 H2   HT     0.417000        1.0080           0
   37093 WT2  4145 TIP3 OH2  OT    -0.834000       15.9994           0
   37094 WT2  4145 TIP3 H1   HT     0.417000        1.0080           0
   37095 WT2  4145 TIP3 H2   HT     0.417000        1.0080           0
   37096 WT2  4146 TIP3 OH2  OT    -0.834000       15.9994           0
   37097 WT2  4146 TIP3 H1   HT     0.417000        1.0080           0
   37098 WT2  4146 TIP3 H2   HT     0.417000        1.0080           0
   37099 WT2  4147 TIP3 OH2  OT    -0.834000       15.9994           0
   37100 WT2  4147 TIP3 H1   HT     0.417000        1.0080           0
   37101 WT2  4147 TIP3 H2   HT     0.417000        1.0080           0
   37102 WT2  4148 TIP3 OH2  OT    -0.834000       15.9994           0
   37103 WT2  4148 TIP3 H1   HT     0.417000        1.0080           0
   37104 WT2  4148 TIP3 H2   HT     0.417000        1.0080           0
   37105 WT2  4150 TIP3 OH2  OT    -0.834000       15.9994           0
   37106 WT2  4150 TIP3 H1   HT     0.417000        1.0080           0
   37107 WT2  4150 TIP3 H2   HT     0.417000        1.0080           0
   37108 WT2  4151 TIP3 OH2  OT    -0.834000       15.9994           0
   37109 WT2  4151 TIP3 H1   HT     0.417000        1.0080           0
   37110 WT2  4151 TIP3 H2   HT     0.417000        1.0080           0
   37111 WT2  4152 TIP3 OH2  OT    -0.834000       15.9994           0
   37112 WT2  4152 TIP3 H1   HT     0.417000        1.0080           0
   37113 WT2  4152 TIP3 H2   HT     0.417000        1.0080           0
   37114 WT2  4157 TIP3 OH2  OT    -0.834000       15.9994           0
   37115 WT2  4157 TIP3 H1   HT     0.417000        1.0080           0
   37116 WT2  4157 TIP3 H2   HT     0.417000        1.0080           0
   37117 WT2  4158 TIP3 OH2  OT    -0.834000       15.9994           0
   37118 WT2  4158 TIP3 H1   HT     0.417000        1.0080           0
   37119 WT2  4158 TIP3 H2   HT     0.417000        1.0080           0
   37120 WT2  4159 TIP3 OH2  OT    -0.834000       15.9994           0
   37121 WT2  4159 TIP3 H1   HT     0.417000        1.0080           0
   37122 WT2  4159 TIP3 H2   HT     0.417000        1.0080           0
   37123 WT2  4161 TIP3 OH2  OT    -0.834000       15.9994           0
   37124 WT2  4161 TIP3 H1   HT     0.417000        1.0080           0
   37125 WT2  4161 TIP3 H2   HT     0.417000        1.0080           0
   37126 WT2  4162 TIP3 OH2  OT    -0.834000       15.9994           0
   37127 WT2  4162 TIP3 H1   HT     0.417000        1.0080           0
   37128 WT2  4162 TIP3 H2   HT     0.417000        1.0080           0
   37129 WT2  4163 TIP3 OH2  OT    -0.834000       15.9994           0
   37130 WT2  4163 TIP3 H1   HT     0.417000        1.0080           0
   37131 WT2  4163 TIP3 H2   HT     0.417000        1.0080           0
   37132 WT2  4164 TIP3 OH2  OT    -0.834000       15.9994           0
   37133 WT2  4164 TIP3 H1   HT     0.417000        1.0080           0
   37134 WT2  4164 TIP3 H2   HT     0.417000        1.0080           0
   37135 WT2  4165 TIP3 OH2  OT    -0.834000       15.9994           0
   37136 WT2  4165 TIP3 H1   HT     0.417000        1.0080           0
   37137 WT2  4165 TIP3 H2   HT     0.417000        1.0080           0
   37138 WT2  4166 TIP3 OH2  OT    -0.834000       15.9994           0
   37139 WT2  4166 TIP3 H1   HT     0.417000        1.0080           0
   37140 WT2  4166 TIP3 H2   HT     0.417000        1.0080           0
   37141 WT2  4167 TIP3 OH2  OT    -0.834000       15.9994           0
   37142 WT2  4167 TIP3 H1   HT     0.417000        1.0080           0
   37143 WT2  4167 TIP3 H2   HT     0.417000        1.0080           0
   37144 WT2  4168 TIP3 OH2  OT    -0.834000       15.9994           0
   37145 WT2  4168 TIP3 H1   HT     0.417000        1.0080           0
   37146 WT2  4168 TIP3 H2   HT     0.417000        1.0080           0
   37147 WT2  4170 TIP3 OH2  OT    -0.834000       15.9994           0
   37148 WT2  4170 TIP3 H1   HT     0.417000        1.0080           0
   37149 WT2  4170 TIP3 H2   HT     0.417000        1.0080           0
   37150 WT2  4171 TIP3 OH2  OT    -0.834000       15.9994           0
   37151 WT2  4171 TIP3 H1   HT     0.417000        1.0080           0
   37152 WT2  4171 TIP3 H2   HT     0.417000        1.0080           0
   37153 WT2  4179 TIP3 OH2  OT    -0.834000       15.9994           0
   37154 WT2  4179 TIP3 H1   HT     0.417000        1.0080           0
   37155 WT2  4179 TIP3 H2   HT     0.417000        1.0080           0
   37156 WT2  4181 TIP3 OH2  OT    -0.834000       15.9994           0
   37157 WT2  4181 TIP3 H1   HT     0.417000        1.0080           0
   37158 WT2  4181 TIP3 H2   HT     0.417000        1.0080           0
   37159 WT2  4182 TIP3 OH2  OT    -0.834000       15.9994           0
   37160 WT2  4182 TIP3 H1   HT     0.417000        1.0080           0
   37161 WT2  4182 TIP3 H2   HT     0.417000        1.0080           0
   37162 WT2  4183 TIP3 OH2  OT    -0.834000       15.9994           0
   37163 WT2  4183 TIP3 H1   HT     0.417000        1.0080           0
   37164 WT2  4183 TIP3 H2   HT     0.417000        1.0080           0
   37165 WT2  4184 TIP3 OH2  OT    -0.834000       15.9994           0
   37166 WT2  4184 TIP3 H1   HT     0.417000        1.0080           0
   37167 WT2  4184 TIP3 H2   HT     0.417000        1.0080           0
   37168 WT2  4185 TIP3 OH2  OT    -0.834000       15.9994           0
   37169 WT2  4185 TIP3 H1   HT     0.417000        1.0080           0
   37170 WT2  4185 TIP3 H2   HT     0.417000        1.0080           0
   37171 WT2  4186 TIP3 OH2  OT    -0.834000       15.9994           0
   37172 WT2  4186 TIP3 H1   HT     0.417000        1.0080           0
   37173 WT2  4186 TIP3 H2   HT     0.417000        1.0080           0
   37174 WT2  4187 TIP3 OH2  OT    -0.834000       15.9994           0
   37175 WT2  4187 TIP3 H1   HT     0.417000        1.0080           0
   37176 WT2  4187 TIP3 H2   HT     0.417000        1.0080           0
   37177 WT2  4188 TIP3 OH2  OT    -0.834000       15.9994           0
   37178 WT2  4188 TIP3 H1   HT     0.417000        1.0080           0
   37179 WT2  4188 TIP3 H2   HT     0.417000        1.0080           0
   37180 WT2  4189 TIP3 OH2  OT    -0.834000       15.9994           0
   37181 WT2  4189 TIP3 H1   HT     0.417000        1.0080           0
   37182 WT2  4189 TIP3 H2   HT     0.417000        1.0080           0
   37183 WT2  4190 TIP3 OH2  OT    -0.834000       15.9994           0
   37184 WT2  4190 TIP3 H1   HT     0.417000        1.0080           0
   37185 WT2  4190 TIP3 H2   HT     0.417000        1.0080           0
   37186 WT2  4191 TIP3 OH2  OT    -0.834000       15.9994           0
   37187 WT2  4191 TIP3 H1   HT     0.417000        1.0080           0
   37188 WT2  4191 TIP3 H2   HT     0.417000        1.0080           0
   37189 WT2  4194 TIP3 OH2  OT    -0.834000       15.9994           0
   37190 WT2  4194 TIP3 H1   HT     0.417000        1.0080           0
   37191 WT2  4194 TIP3 H2   HT     0.417000        1.0080           0
   37192 WT2  4198 TIP3 OH2  OT    -0.834000       15.9994           0
   37193 WT2  4198 TIP3 H1   HT     0.417000        1.0080           0
   37194 WT2  4198 TIP3 H2   HT     0.417000        1.0080           0
   37195 WT2  4200 TIP3 OH2  OT    -0.834000       15.9994           0
   37196 WT2  4200 TIP3 H1   HT     0.417000        1.0080           0
   37197 WT2  4200 TIP3 H2   HT     0.417000        1.0080           0
   37198 WT2  4201 TIP3 OH2  OT    -0.834000       15.9994           0
   37199 WT2  4201 TIP3 H1   HT     0.417000        1.0080           0
   37200 WT2  4201 TIP3 H2   HT     0.417000        1.0080           0
   37201 WT2  4202 TIP3 OH2  OT    -0.834000       15.9994           0
   37202 WT2  4202 TIP3 H1   HT     0.417000        1.0080           0
   37203 WT2  4202 TIP3 H2   HT     0.417000        1.0080           0
   37204 WT2  4205 TIP3 OH2  OT    -0.834000       15.9994           0
   37205 WT2  4205 TIP3 H1   HT     0.417000        1.0080           0
   37206 WT2  4205 TIP3 H2   HT     0.417000        1.0080           0
   37207 WT2  4206 TIP3 OH2  OT    -0.834000       15.9994           0
   37208 WT2  4206 TIP3 H1   HT     0.417000        1.0080           0
   37209 WT2  4206 TIP3 H2   HT     0.417000        1.0080           0
   37210 WT2  4207 TIP3 OH2  OT    -0.834000       15.9994           0
   37211 WT2  4207 TIP3 H1   HT     0.417000        1.0080           0
   37212 WT2  4207 TIP3 H2   HT     0.417000        1.0080           0
   37213 WT2  4208 TIP3 OH2  OT    -0.834000       15.9994           0
   37214 WT2  4208 TIP3 H1   HT     0.417000        1.0080           0
   37215 WT2  4208 TIP3 H2   HT     0.417000        1.0080           0
   37216 WT2  4209 TIP3 OH2  OT    -0.834000       15.9994           0
   37217 WT2  4209 TIP3 H1   HT     0.417000        1.0080           0
   37218 WT2  4209 TIP3 H2   HT     0.417000        1.0080           0
   37219 WT2  4210 TIP3 OH2  OT    -0.834000       15.9994           0
   37220 WT2  4210 TIP3 H1   HT     0.417000        1.0080           0
   37221 WT2  4210 TIP3 H2   HT     0.417000        1.0080           0
   37222 WT2  4211 TIP3 OH2  OT    -0.834000       15.9994           0
   37223 WT2  4211 TIP3 H1   HT     0.417000        1.0080           0
   37224 WT2  4211 TIP3 H2   HT     0.417000        1.0080           0
   37225 WT2  4213 TIP3 OH2  OT    -0.834000       15.9994           0
   37226 WT2  4213 TIP3 H1   HT     0.417000        1.0080           0
   37227 WT2  4213 TIP3 H2   HT     0.417000        1.0080           0
   37228 WT2  4215 TIP3 OH2  OT    -0.834000       15.9994           0
   37229 WT2  4215 TIP3 H1   HT     0.417000        1.0080           0
   37230 WT2  4215 TIP3 H2   HT     0.417000        1.0080           0
   37231 WT2  4218 TIP3 OH2  OT    -0.834000       15.9994           0
   37232 WT2  4218 TIP3 H1   HT     0.417000        1.0080           0
   37233 WT2  4218 TIP3 H2   HT     0.417000        1.0080           0
   37234 WT2  4219 TIP3 OH2  OT    -0.834000       15.9994           0
   37235 WT2  4219 TIP3 H1   HT     0.417000        1.0080           0
   37236 WT2  4219 TIP3 H2   HT     0.417000        1.0080           0
   37237 WT2  4224 TIP3 OH2  OT    -0.834000       15.9994           0
   37238 WT2  4224 TIP3 H1   HT     0.417000        1.0080           0
   37239 WT2  4224 TIP3 H2   HT     0.417000        1.0080           0
   37240 WT2  4225 TIP3 OH2  OT    -0.834000       15.9994           0
   37241 WT2  4225 TIP3 H1   HT     0.417000        1.0080           0
   37242 WT2  4225 TIP3 H2   HT     0.417000        1.0080           0
   37243 WT2  4226 TIP3 OH2  OT    -0.834000       15.9994           0
   37244 WT2  4226 TIP3 H1   HT     0.417000        1.0080           0
   37245 WT2  4226 TIP3 H2   HT     0.417000        1.0080           0
   37246 WT2  4227 TIP3 OH2  OT    -0.834000       15.9994           0
   37247 WT2  4227 TIP3 H1   HT     0.417000        1.0080           0
   37248 WT2  4227 TIP3 H2   HT     0.417000        1.0080           0
   37249 WT2  4228 TIP3 OH2  OT    -0.834000       15.9994           0
   37250 WT2  4228 TIP3 H1   HT     0.417000        1.0080           0
   37251 WT2  4228 TIP3 H2   HT     0.417000        1.0080           0
   37252 WT2  4229 TIP3 OH2  OT    -0.834000       15.9994           0
   37253 WT2  4229 TIP3 H1   HT     0.417000        1.0080           0
   37254 WT2  4229 TIP3 H2   HT     0.417000        1.0080           0
   37255 WT2  4230 TIP3 OH2  OT    -0.834000       15.9994           0
   37256 WT2  4230 TIP3 H1   HT     0.417000        1.0080           0
   37257 WT2  4230 TIP3 H2   HT     0.417000        1.0080           0
   37258 WT2  4231 TIP3 OH2  OT    -0.834000       15.9994           0
   37259 WT2  4231 TIP3 H1   HT     0.417000        1.0080           0
   37260 WT2  4231 TIP3 H2   HT     0.417000        1.0080           0
   37261 WT2  4232 TIP3 OH2  OT    -0.834000       15.9994           0
   37262 WT2  4232 TIP3 H1   HT     0.417000        1.0080           0
   37263 WT2  4232 TIP3 H2   HT     0.417000        1.0080           0
   37264 WT2  4233 TIP3 OH2  OT    -0.834000       15.9994           0
   37265 WT2  4233 TIP3 H1   HT     0.417000        1.0080           0
   37266 WT2  4233 TIP3 H2   HT     0.417000        1.0080           0
   37267 WT2  4234 TIP3 OH2  OT    -0.834000       15.9994           0
   37268 WT2  4234 TIP3 H1   HT     0.417000        1.0080           0
   37269 WT2  4234 TIP3 H2   HT     0.417000        1.0080           0
   37270 WT2  4235 TIP3 OH2  OT    -0.834000       15.9994           0
   37271 WT2  4235 TIP3 H1   HT     0.417000        1.0080           0
   37272 WT2  4235 TIP3 H2   HT     0.417000        1.0080           0
   37273 WT2  4236 TIP3 OH2  OT    -0.834000       15.9994           0
   37274 WT2  4236 TIP3 H1   HT     0.417000        1.0080           0
   37275 WT2  4236 TIP3 H2   HT     0.417000        1.0080           0
   37276 WT2  4243 TIP3 OH2  OT    -0.834000       15.9994           0
   37277 WT2  4243 TIP3 H1   HT     0.417000        1.0080           0
   37278 WT2  4243 TIP3 H2   HT     0.417000        1.0080           0
   37279 WT2  4244 TIP3 OH2  OT    -0.834000       15.9994           0
   37280 WT2  4244 TIP3 H1   HT     0.417000        1.0080           0
   37281 WT2  4244 TIP3 H2   HT     0.417000        1.0080           0
   37282 WT2  4245 TIP3 OH2  OT    -0.834000       15.9994           0
   37283 WT2  4245 TIP3 H1   HT     0.417000        1.0080           0
   37284 WT2  4245 TIP3 H2   HT     0.417000        1.0080           0
   37285 WT2  4246 TIP3 OH2  OT    -0.834000       15.9994           0
   37286 WT2  4246 TIP3 H1   HT     0.417000        1.0080           0
   37287 WT2  4246 TIP3 H2   HT     0.417000        1.0080           0
   37288 WT2  4247 TIP3 OH2  OT    -0.834000       15.9994           0
   37289 WT2  4247 TIP3 H1   HT     0.417000        1.0080           0
   37290 WT2  4247 TIP3 H2   HT     0.417000        1.0080           0
   37291 WT2  4248 TIP3 OH2  OT    -0.834000       15.9994           0
   37292 WT2  4248 TIP3 H1   HT     0.417000        1.0080           0
   37293 WT2  4248 TIP3 H2   HT     0.417000        1.0080           0
   37294 WT2  4249 TIP3 OH2  OT    -0.834000       15.9994           0
   37295 WT2  4249 TIP3 H1   HT     0.417000        1.0080           0
   37296 WT2  4249 TIP3 H2   HT     0.417000        1.0080           0
   37297 WT2  4250 TIP3 OH2  OT    -0.834000       15.9994           0
   37298 WT2  4250 TIP3 H1   HT     0.417000        1.0080           0
   37299 WT2  4250 TIP3 H2   HT     0.417000        1.0080           0
   37300 WT2  4251 TIP3 OH2  OT    -0.834000       15.9994           0
   37301 WT2  4251 TIP3 H1   HT     0.417000        1.0080           0
   37302 WT2  4251 TIP3 H2   HT     0.417000        1.0080           0
   37303 WT2  4252 TIP3 OH2  OT    -0.834000       15.9994           0
   37304 WT2  4252 TIP3 H1   HT     0.417000        1.0080           0
   37305 WT2  4252 TIP3 H2   HT     0.417000        1.0080           0
   37306 WT2  4254 TIP3 OH2  OT    -0.834000       15.9994           0
   37307 WT2  4254 TIP3 H1   HT     0.417000        1.0080           0
   37308 WT2  4254 TIP3 H2   HT     0.417000        1.0080           0
   37309 WT2  4255 TIP3 OH2  OT    -0.834000       15.9994           0
   37310 WT2  4255 TIP3 H1   HT     0.417000        1.0080           0
   37311 WT2  4255 TIP3 H2   HT     0.417000        1.0080           0
   37312 WT2  4262 TIP3 OH2  OT    -0.834000       15.9994           0
   37313 WT2  4262 TIP3 H1   HT     0.417000        1.0080           0
   37314 WT2  4262 TIP3 H2   HT     0.417000        1.0080           0
   37315 WT2  4264 TIP3 OH2  OT    -0.834000       15.9994           0
   37316 WT2  4264 TIP3 H1   HT     0.417000        1.0080           0
   37317 WT2  4264 TIP3 H2   HT     0.417000        1.0080           0
   37318 WT2  4266 TIP3 OH2  OT    -0.834000       15.9994           0
   37319 WT2  4266 TIP3 H1   HT     0.417000        1.0080           0
   37320 WT2  4266 TIP3 H2   HT     0.417000        1.0080           0
   37321 WT2  4267 TIP3 OH2  OT    -0.834000       15.9994           0
   37322 WT2  4267 TIP3 H1   HT     0.417000        1.0080           0
   37323 WT2  4267 TIP3 H2   HT     0.417000        1.0080           0
   37324 WT2  4268 TIP3 OH2  OT    -0.834000       15.9994           0
   37325 WT2  4268 TIP3 H1   HT     0.417000        1.0080           0
   37326 WT2  4268 TIP3 H2   HT     0.417000        1.0080           0
   37327 WT2  4269 TIP3 OH2  OT    -0.834000       15.9994           0
   37328 WT2  4269 TIP3 H1   HT     0.417000        1.0080           0
   37329 WT2  4269 TIP3 H2   HT     0.417000        1.0080           0
   37330 WT2  4270 TIP3 OH2  OT    -0.834000       15.9994           0
   37331 WT2  4270 TIP3 H1   HT     0.417000        1.0080           0
   37332 WT2  4270 TIP3 H2   HT     0.417000        1.0080           0
   37333 WT2  4271 TIP3 OH2  OT    -0.834000       15.9994           0
   37334 WT2  4271 TIP3 H1   HT     0.417000        1.0080           0
   37335 WT2  4271 TIP3 H2   HT     0.417000        1.0080           0
   37336 WT2  4272 TIP3 OH2  OT    -0.834000       15.9994           0
   37337 WT2  4272 TIP3 H1   HT     0.417000        1.0080           0
   37338 WT2  4272 TIP3 H2   HT     0.417000        1.0080           0
   37339 WT2  4273 TIP3 OH2  OT    -0.834000       15.9994           0
   37340 WT2  4273 TIP3 H1   HT     0.417000        1.0080           0
   37341 WT2  4273 TIP3 H2   HT     0.417000        1.0080           0
   37342 WT2  4274 TIP3 OH2  OT    -0.834000       15.9994           0
   37343 WT2  4274 TIP3 H1   HT     0.417000        1.0080           0
   37344 WT2  4274 TIP3 H2   HT     0.417000        1.0080           0
   37345 WT2  4275 TIP3 OH2  OT    -0.834000       15.9994           0
   37346 WT2  4275 TIP3 H1   HT     0.417000        1.0080           0
   37347 WT2  4275 TIP3 H2   HT     0.417000        1.0080           0
   37348 WT2  4277 TIP3 OH2  OT    -0.834000       15.9994           0
   37349 WT2  4277 TIP3 H1   HT     0.417000        1.0080           0
   37350 WT2  4277 TIP3 H2   HT     0.417000        1.0080           0
   37351 WT2  4278 TIP3 OH2  OT    -0.834000       15.9994           0
   37352 WT2  4278 TIP3 H1   HT     0.417000        1.0080           0
   37353 WT2  4278 TIP3 H2   HT     0.417000        1.0080           0
   37354 WT2  4282 TIP3 OH2  OT    -0.834000       15.9994           0
   37355 WT2  4282 TIP3 H1   HT     0.417000        1.0080           0
   37356 WT2  4282 TIP3 H2   HT     0.417000        1.0080           0
   37357 WT2  4283 TIP3 OH2  OT    -0.834000       15.9994           0
   37358 WT2  4283 TIP3 H1   HT     0.417000        1.0080           0
   37359 WT2  4283 TIP3 H2   HT     0.417000        1.0080           0
   37360 WT2  4287 TIP3 OH2  OT    -0.834000       15.9994           0
   37361 WT2  4287 TIP3 H1   HT     0.417000        1.0080           0
   37362 WT2  4287 TIP3 H2   HT     0.417000        1.0080           0
   37363 WT2  4288 TIP3 OH2  OT    -0.834000       15.9994           0
   37364 WT2  4288 TIP3 H1   HT     0.417000        1.0080           0
   37365 WT2  4288 TIP3 H2   HT     0.417000        1.0080           0
   37366 WT2  4289 TIP3 OH2  OT    -0.834000       15.9994           0
   37367 WT2  4289 TIP3 H1   HT     0.417000        1.0080           0
   37368 WT2  4289 TIP3 H2   HT     0.417000        1.0080           0
   37369 WT2  4290 TIP3 OH2  OT    -0.834000       15.9994           0
   37370 WT2  4290 TIP3 H1   HT     0.417000        1.0080           0
   37371 WT2  4290 TIP3 H2   HT     0.417000        1.0080           0
   37372 WT2  4291 TIP3 OH2  OT    -0.834000       15.9994           0
   37373 WT2  4291 TIP3 H1   HT     0.417000        1.0080           0
   37374 WT2  4291 TIP3 H2   HT     0.417000        1.0080           0
   37375 WT2  4292 TIP3 OH2  OT    -0.834000       15.9994           0
   37376 WT2  4292 TIP3 H1   HT     0.417000        1.0080           0
   37377 WT2  4292 TIP3 H2   HT     0.417000        1.0080           0
   37378 WT2  4293 TIP3 OH2  OT    -0.834000       15.9994           0
   37379 WT2  4293 TIP3 H1   HT     0.417000        1.0080           0
   37380 WT2  4293 TIP3 H2   HT     0.417000        1.0080           0
   37381 WT2  4294 TIP3 OH2  OT    -0.834000       15.9994           0
   37382 WT2  4294 TIP3 H1   HT     0.417000        1.0080           0
   37383 WT2  4294 TIP3 H2   HT     0.417000        1.0080           0
   37384 WT2  4295 TIP3 OH2  OT    -0.834000       15.9994           0
   37385 WT2  4295 TIP3 H1   HT     0.417000        1.0080           0
   37386 WT2  4295 TIP3 H2   HT     0.417000        1.0080           0
   37387 WT2  4296 TIP3 OH2  OT    -0.834000       15.9994           0
   37388 WT2  4296 TIP3 H1   HT     0.417000        1.0080           0
   37389 WT2  4296 TIP3 H2   HT     0.417000        1.0080           0
   37390 WT2  4297 TIP3 OH2  OT    -0.834000       15.9994           0
   37391 WT2  4297 TIP3 H1   HT     0.417000        1.0080           0
   37392 WT2  4297 TIP3 H2   HT     0.417000        1.0080           0
   37393 WT2  4298 TIP3 OH2  OT    -0.834000       15.9994           0
   37394 WT2  4298 TIP3 H1   HT     0.417000        1.0080           0
   37395 WT2  4298 TIP3 H2   HT     0.417000        1.0080           0
   37396 WT2  4304 TIP3 OH2  OT    -0.834000       15.9994           0
   37397 WT2  4304 TIP3 H1   HT     0.417000        1.0080           0
   37398 WT2  4304 TIP3 H2   HT     0.417000        1.0080           0
   37399 WT2  4306 TIP3 OH2  OT    -0.834000       15.9994           0
   37400 WT2  4306 TIP3 H1   HT     0.417000        1.0080           0
   37401 WT2  4306 TIP3 H2   HT     0.417000        1.0080           0
   37402 WT2  4307 TIP3 OH2  OT    -0.834000       15.9994           0
   37403 WT2  4307 TIP3 H1   HT     0.417000        1.0080           0
   37404 WT2  4307 TIP3 H2   HT     0.417000        1.0080           0
   37405 WT2  4308 TIP3 OH2  OT    -0.834000       15.9994           0
   37406 WT2  4308 TIP3 H1   HT     0.417000        1.0080           0
   37407 WT2  4308 TIP3 H2   HT     0.417000        1.0080           0
   37408 WT2  4309 TIP3 OH2  OT    -0.834000       15.9994           0
   37409 WT2  4309 TIP3 H1   HT     0.417000        1.0080           0
   37410 WT2  4309 TIP3 H2   HT     0.417000        1.0080           0
   37411 WT2  4310 TIP3 OH2  OT    -0.834000       15.9994           0
   37412 WT2  4310 TIP3 H1   HT     0.417000        1.0080           0
   37413 WT2  4310 TIP3 H2   HT     0.417000        1.0080           0
   37414 WT2  4311 TIP3 OH2  OT    -0.834000       15.9994           0
   37415 WT2  4311 TIP3 H1   HT     0.417000        1.0080           0
   37416 WT2  4311 TIP3 H2   HT     0.417000        1.0080           0
   37417 WT2  4312 TIP3 OH2  OT    -0.834000       15.9994           0
   37418 WT2  4312 TIP3 H1   HT     0.417000        1.0080           0
   37419 WT2  4312 TIP3 H2   HT     0.417000        1.0080           0
   37420 WT2  4313 TIP3 OH2  OT    -0.834000       15.9994           0
   37421 WT2  4313 TIP3 H1   HT     0.417000        1.0080           0
   37422 WT2  4313 TIP3 H2   HT     0.417000        1.0080           0
   37423 WT2  4314 TIP3 OH2  OT    -0.834000       15.9994           0
   37424 WT2  4314 TIP3 H1   HT     0.417000        1.0080           0
   37425 WT2  4314 TIP3 H2   HT     0.417000        1.0080           0
   37426 WT2  4315 TIP3 OH2  OT    -0.834000       15.9994           0
   37427 WT2  4315 TIP3 H1   HT     0.417000        1.0080           0
   37428 WT2  4315 TIP3 H2   HT     0.417000        1.0080           0
   37429 WT2  4316 TIP3 OH2  OT    -0.834000       15.9994           0
   37430 WT2  4316 TIP3 H1   HT     0.417000        1.0080           0
   37431 WT2  4316 TIP3 H2   HT     0.417000        1.0080           0
   37432 WT2  4317 TIP3 OH2  OT    -0.834000       15.9994           0
   37433 WT2  4317 TIP3 H1   HT     0.417000        1.0080           0
   37434 WT2  4317 TIP3 H2   HT     0.417000        1.0080           0
   37435 WT2  4318 TIP3 OH2  OT    -0.834000       15.9994           0
   37436 WT2  4318 TIP3 H1   HT     0.417000        1.0080           0
   37437 WT2  4318 TIP3 H2   HT     0.417000        1.0080           0
   37438 WT2  4320 TIP3 OH2  OT    -0.834000       15.9994           0
   37439 WT2  4320 TIP3 H1   HT     0.417000        1.0080           0
   37440 WT2  4320 TIP3 H2   HT     0.417000        1.0080           0
   37441 WT2  4321 TIP3 OH2  OT    -0.834000       15.9994           0
   37442 WT2  4321 TIP3 H1   HT     0.417000        1.0080           0
   37443 WT2  4321 TIP3 H2   HT     0.417000        1.0080           0
   37444 WT2  4328 TIP3 OH2  OT    -0.834000       15.9994           0
   37445 WT2  4328 TIP3 H1   HT     0.417000        1.0080           0
   37446 WT2  4328 TIP3 H2   HT     0.417000        1.0080           0
   37447 WT2  4329 TIP3 OH2  OT    -0.834000       15.9994           0
   37448 WT2  4329 TIP3 H1   HT     0.417000        1.0080           0
   37449 WT2  4329 TIP3 H2   HT     0.417000        1.0080           0
   37450 WT2  4330 TIP3 OH2  OT    -0.834000       15.9994           0
   37451 WT2  4330 TIP3 H1   HT     0.417000        1.0080           0
   37452 WT2  4330 TIP3 H2   HT     0.417000        1.0080           0
   37453 WT2  4331 TIP3 OH2  OT    -0.834000       15.9994           0
   37454 WT2  4331 TIP3 H1   HT     0.417000        1.0080           0
   37455 WT2  4331 TIP3 H2   HT     0.417000        1.0080           0
   37456 WT2  4332 TIP3 OH2  OT    -0.834000       15.9994           0
   37457 WT2  4332 TIP3 H1   HT     0.417000        1.0080           0
   37458 WT2  4332 TIP3 H2   HT     0.417000        1.0080           0
   37459 WT2  4333 TIP3 OH2  OT    -0.834000       15.9994           0
   37460 WT2  4333 TIP3 H1   HT     0.417000        1.0080           0
   37461 WT2  4333 TIP3 H2   HT     0.417000        1.0080           0
   37462 WT2  4334 TIP3 OH2  OT    -0.834000       15.9994           0
   37463 WT2  4334 TIP3 H1   HT     0.417000        1.0080           0
   37464 WT2  4334 TIP3 H2   HT     0.417000        1.0080           0
   37465 WT2  4335 TIP3 OH2  OT    -0.834000       15.9994           0
   37466 WT2  4335 TIP3 H1   HT     0.417000        1.0080           0
   37467 WT2  4335 TIP3 H2   HT     0.417000        1.0080           0
   37468 WT2  4336 TIP3 OH2  OT    -0.834000       15.9994           0
   37469 WT2  4336 TIP3 H1   HT     0.417000        1.0080           0
   37470 WT2  4336 TIP3 H2   HT     0.417000        1.0080           0
   37471 WT2  4337 TIP3 OH2  OT    -0.834000       15.9994           0
   37472 WT2  4337 TIP3 H1   HT     0.417000        1.0080           0
   37473 WT2  4337 TIP3 H2   HT     0.417000        1.0080           0
   37474 WT2  4338 TIP3 OH2  OT    -0.834000       15.9994           0
   37475 WT2  4338 TIP3 H1   HT     0.417000        1.0080           0
   37476 WT2  4338 TIP3 H2   HT     0.417000        1.0080           0
   37477 WT2  4339 TIP3 OH2  OT    -0.834000       15.9994           0
   37478 WT2  4339 TIP3 H1   HT     0.417000        1.0080           0
   37479 WT2  4339 TIP3 H2   HT     0.417000        1.0080           0
   37480 WT2  4349 TIP3 OH2  OT    -0.834000       15.9994           0
   37481 WT2  4349 TIP3 H1   HT     0.417000        1.0080           0
   37482 WT2  4349 TIP3 H2   HT     0.417000        1.0080           0
   37483 WT2  4350 TIP3 OH2  OT    -0.834000       15.9994           0
   37484 WT2  4350 TIP3 H1   HT     0.417000        1.0080           0
   37485 WT2  4350 TIP3 H2   HT     0.417000        1.0080           0
   37486 WT2  4351 TIP3 OH2  OT    -0.834000       15.9994           0
   37487 WT2  4351 TIP3 H1   HT     0.417000        1.0080           0
   37488 WT2  4351 TIP3 H2   HT     0.417000        1.0080           0
   37489 WT2  4352 TIP3 OH2  OT    -0.834000       15.9994           0
   37490 WT2  4352 TIP3 H1   HT     0.417000        1.0080           0
   37491 WT2  4352 TIP3 H2   HT     0.417000        1.0080           0
   37492 WT2  4353 TIP3 OH2  OT    -0.834000       15.9994           0
   37493 WT2  4353 TIP3 H1   HT     0.417000        1.0080           0
   37494 WT2  4353 TIP3 H2   HT     0.417000        1.0080           0
   37495 WT2  4354 TIP3 OH2  OT    -0.834000       15.9994           0
   37496 WT2  4354 TIP3 H1   HT     0.417000        1.0080           0
   37497 WT2  4354 TIP3 H2   HT     0.417000        1.0080           0
   37498 WT2  4355 TIP3 OH2  OT    -0.834000       15.9994           0
   37499 WT2  4355 TIP3 H1   HT     0.417000        1.0080           0
   37500 WT2  4355 TIP3 H2   HT     0.417000        1.0080           0
   37501 WT2  4356 TIP3 OH2  OT    -0.834000       15.9994           0
   37502 WT2  4356 TIP3 H1   HT     0.417000        1.0080           0
   37503 WT2  4356 TIP3 H2   HT     0.417000        1.0080           0
   37504 WT2  4357 TIP3 OH2  OT    -0.834000       15.9994           0
   37505 WT2  4357 TIP3 H1   HT     0.417000        1.0080           0
   37506 WT2  4357 TIP3 H2   HT     0.417000        1.0080           0
   37507 WT2  4358 TIP3 OH2  OT    -0.834000       15.9994           0
   37508 WT2  4358 TIP3 H1   HT     0.417000        1.0080           0
   37509 WT2  4358 TIP3 H2   HT     0.417000        1.0080           0
   37510 WT2  4359 TIP3 OH2  OT    -0.834000       15.9994           0
   37511 WT2  4359 TIP3 H1   HT     0.417000        1.0080           0
   37512 WT2  4359 TIP3 H2   HT     0.417000        1.0080           0
   37513 WT2  4361 TIP3 OH2  OT    -0.834000       15.9994           0
   37514 WT2  4361 TIP3 H1   HT     0.417000        1.0080           0
   37515 WT2  4361 TIP3 H2   HT     0.417000        1.0080           0
   37516 WT2  4362 TIP3 OH2  OT    -0.834000       15.9994           0
   37517 WT2  4362 TIP3 H1   HT     0.417000        1.0080           0
   37518 WT2  4362 TIP3 H2   HT     0.417000        1.0080           0
   37519 WT2  4363 TIP3 OH2  OT    -0.834000       15.9994           0
   37520 WT2  4363 TIP3 H1   HT     0.417000        1.0080           0
   37521 WT2  4363 TIP3 H2   HT     0.417000        1.0080           0
   37522 WT2  4371 TIP3 OH2  OT    -0.834000       15.9994           0
   37523 WT2  4371 TIP3 H1   HT     0.417000        1.0080           0
   37524 WT2  4371 TIP3 H2   HT     0.417000        1.0080           0
   37525 WT2  4372 TIP3 OH2  OT    -0.834000       15.9994           0
   37526 WT2  4372 TIP3 H1   HT     0.417000        1.0080           0
   37527 WT2  4372 TIP3 H2   HT     0.417000        1.0080           0
   37528 WT2  4373 TIP3 OH2  OT    -0.834000       15.9994           0
   37529 WT2  4373 TIP3 H1   HT     0.417000        1.0080           0
   37530 WT2  4373 TIP3 H2   HT     0.417000        1.0080           0
   37531 WT2  4374 TIP3 OH2  OT    -0.834000       15.9994           0
   37532 WT2  4374 TIP3 H1   HT     0.417000        1.0080           0
   37533 WT2  4374 TIP3 H2   HT     0.417000        1.0080           0
   37534 WT2  4375 TIP3 OH2  OT    -0.834000       15.9994           0
   37535 WT2  4375 TIP3 H1   HT     0.417000        1.0080           0
   37536 WT2  4375 TIP3 H2   HT     0.417000        1.0080           0
   37537 WT2  4376 TIP3 OH2  OT    -0.834000       15.9994           0
   37538 WT2  4376 TIP3 H1   HT     0.417000        1.0080           0
   37539 WT2  4376 TIP3 H2   HT     0.417000        1.0080           0
   37540 WT2  4377 TIP3 OH2  OT    -0.834000       15.9994           0
   37541 WT2  4377 TIP3 H1   HT     0.417000        1.0080           0
   37542 WT2  4377 TIP3 H2   HT     0.417000        1.0080           0
   37543 WT2  4379 TIP3 OH2  OT    -0.834000       15.9994           0
   37544 WT2  4379 TIP3 H1   HT     0.417000        1.0080           0
   37545 WT2  4379 TIP3 H2   HT     0.417000        1.0080           0
   37546 WT2  4380 TIP3 OH2  OT    -0.834000       15.9994           0
   37547 WT2  4380 TIP3 H1   HT     0.417000        1.0080           0
   37548 WT2  4380 TIP3 H2   HT     0.417000        1.0080           0
   37549 WT2  4382 TIP3 OH2  OT    -0.834000       15.9994           0
   37550 WT2  4382 TIP3 H1   HT     0.417000        1.0080           0
   37551 WT2  4382 TIP3 H2   HT     0.417000        1.0080           0
   37552 WT2  4383 TIP3 OH2  OT    -0.834000       15.9994           0
   37553 WT2  4383 TIP3 H1   HT     0.417000        1.0080           0
   37554 WT2  4383 TIP3 H2   HT     0.417000        1.0080           0
   37555 WT2  4387 TIP3 OH2  OT    -0.834000       15.9994           0
   37556 WT2  4387 TIP3 H1   HT     0.417000        1.0080           0
   37557 WT2  4387 TIP3 H2   HT     0.417000        1.0080           0
   37558 WT2  4391 TIP3 OH2  OT    -0.834000       15.9994           0
   37559 WT2  4391 TIP3 H1   HT     0.417000        1.0080           0
   37560 WT2  4391 TIP3 H2   HT     0.417000        1.0080           0
   37561 WT2  4392 TIP3 OH2  OT    -0.834000       15.9994           0
   37562 WT2  4392 TIP3 H1   HT     0.417000        1.0080           0
   37563 WT2  4392 TIP3 H2   HT     0.417000        1.0080           0
   37564 WT2  4393 TIP3 OH2  OT    -0.834000       15.9994           0
   37565 WT2  4393 TIP3 H1   HT     0.417000        1.0080           0
   37566 WT2  4393 TIP3 H2   HT     0.417000        1.0080           0
   37567 WT2  4394 TIP3 OH2  OT    -0.834000       15.9994           0
   37568 WT2  4394 TIP3 H1   HT     0.417000        1.0080           0
   37569 WT2  4394 TIP3 H2   HT     0.417000        1.0080           0
   37570 WT2  4395 TIP3 OH2  OT    -0.834000       15.9994           0
   37571 WT2  4395 TIP3 H1   HT     0.417000        1.0080           0
   37572 WT2  4395 TIP3 H2   HT     0.417000        1.0080           0
   37573 WT2  4396 TIP3 OH2  OT    -0.834000       15.9994           0
   37574 WT2  4396 TIP3 H1   HT     0.417000        1.0080           0
   37575 WT2  4396 TIP3 H2   HT     0.417000        1.0080           0
   37576 WT2  4397 TIP3 OH2  OT    -0.834000       15.9994           0
   37577 WT2  4397 TIP3 H1   HT     0.417000        1.0080           0
   37578 WT2  4397 TIP3 H2   HT     0.417000        1.0080           0
   37579 WT2  4398 TIP3 OH2  OT    -0.834000       15.9994           0
   37580 WT2  4398 TIP3 H1   HT     0.417000        1.0080           0
   37581 WT2  4398 TIP3 H2   HT     0.417000        1.0080           0
   37582 WT2  4399 TIP3 OH2  OT    -0.834000       15.9994           0
   37583 WT2  4399 TIP3 H1   HT     0.417000        1.0080           0
   37584 WT2  4399 TIP3 H2   HT     0.417000        1.0080           0
   37585 WT2  4400 TIP3 OH2  OT    -0.834000       15.9994           0
   37586 WT2  4400 TIP3 H1   HT     0.417000        1.0080           0
   37587 WT2  4400 TIP3 H2   HT     0.417000        1.0080           0
   37588 WT2  4401 TIP3 OH2  OT    -0.834000       15.9994           0
   37589 WT2  4401 TIP3 H1   HT     0.417000        1.0080           0
   37590 WT2  4401 TIP3 H2   HT     0.417000        1.0080           0
   37591 WT2  4402 TIP3 OH2  OT    -0.834000       15.9994           0
   37592 WT2  4402 TIP3 H1   HT     0.417000        1.0080           0
   37593 WT2  4402 TIP3 H2   HT     0.417000        1.0080           0
   37594 WT2  4406 TIP3 OH2  OT    -0.834000       15.9994           0
   37595 WT2  4406 TIP3 H1   HT     0.417000        1.0080           0
   37596 WT2  4406 TIP3 H2   HT     0.417000        1.0080           0
   37597 WT2  4411 TIP3 OH2  OT    -0.834000       15.9994           0
   37598 WT2  4411 TIP3 H1   HT     0.417000        1.0080           0
   37599 WT2  4411 TIP3 H2   HT     0.417000        1.0080           0
   37600 WT2  4413 TIP3 OH2  OT    -0.834000       15.9994           0
   37601 WT2  4413 TIP3 H1   HT     0.417000        1.0080           0
   37602 WT2  4413 TIP3 H2   HT     0.417000        1.0080           0
   37603 WT2  4414 TIP3 OH2  OT    -0.834000       15.9994           0
   37604 WT2  4414 TIP3 H1   HT     0.417000        1.0080           0
   37605 WT2  4414 TIP3 H2   HT     0.417000        1.0080           0
   37606 WT2  4415 TIP3 OH2  OT    -0.834000       15.9994           0
   37607 WT2  4415 TIP3 H1   HT     0.417000        1.0080           0
   37608 WT2  4415 TIP3 H2   HT     0.417000        1.0080           0
   37609 WT2  4416 TIP3 OH2  OT    -0.834000       15.9994           0
   37610 WT2  4416 TIP3 H1   HT     0.417000        1.0080           0
   37611 WT2  4416 TIP3 H2   HT     0.417000        1.0080           0
   37612 WT2  4417 TIP3 OH2  OT    -0.834000       15.9994           0
   37613 WT2  4417 TIP3 H1   HT     0.417000        1.0080           0
   37614 WT2  4417 TIP3 H2   HT     0.417000        1.0080           0
   37615 WT2  4418 TIP3 OH2  OT    -0.834000       15.9994           0
   37616 WT2  4418 TIP3 H1   HT     0.417000        1.0080           0
   37617 WT2  4418 TIP3 H2   HT     0.417000        1.0080           0
   37618 WT2  4419 TIP3 OH2  OT    -0.834000       15.9994           0
   37619 WT2  4419 TIP3 H1   HT     0.417000        1.0080           0
   37620 WT2  4419 TIP3 H2   HT     0.417000        1.0080           0
   37621 WT2  4421 TIP3 OH2  OT    -0.834000       15.9994           0
   37622 WT2  4421 TIP3 H1   HT     0.417000        1.0080           0
   37623 WT2  4421 TIP3 H2   HT     0.417000        1.0080           0
   37624 WT2  4422 TIP3 OH2  OT    -0.834000       15.9994           0
   37625 WT2  4422 TIP3 H1   HT     0.417000        1.0080           0
   37626 WT2  4422 TIP3 H2   HT     0.417000        1.0080           0
   37627 WT2  4423 TIP3 OH2  OT    -0.834000       15.9994           0
   37628 WT2  4423 TIP3 H1   HT     0.417000        1.0080           0
   37629 WT2  4423 TIP3 H2   HT     0.417000        1.0080           0
   37630 WT2  4424 TIP3 OH2  OT    -0.834000       15.9994           0
   37631 WT2  4424 TIP3 H1   HT     0.417000        1.0080           0
   37632 WT2  4424 TIP3 H2   HT     0.417000        1.0080           0
   37633 WT2  4425 TIP3 OH2  OT    -0.834000       15.9994           0
   37634 WT2  4425 TIP3 H1   HT     0.417000        1.0080           0
   37635 WT2  4425 TIP3 H2   HT     0.417000        1.0080           0
   37636 WT2  4432 TIP3 OH2  OT    -0.834000       15.9994           0
   37637 WT2  4432 TIP3 H1   HT     0.417000        1.0080           0
   37638 WT2  4432 TIP3 H2   HT     0.417000        1.0080           0
   37639 WT2  4434 TIP3 OH2  OT    -0.834000       15.9994           0
   37640 WT2  4434 TIP3 H1   HT     0.417000        1.0080           0
   37641 WT2  4434 TIP3 H2   HT     0.417000        1.0080           0
   37642 WT2  4435 TIP3 OH2  OT    -0.834000       15.9994           0
   37643 WT2  4435 TIP3 H1   HT     0.417000        1.0080           0
   37644 WT2  4435 TIP3 H2   HT     0.417000        1.0080           0
   37645 WT2  4437 TIP3 OH2  OT    -0.834000       15.9994           0
   37646 WT2  4437 TIP3 H1   HT     0.417000        1.0080           0
   37647 WT2  4437 TIP3 H2   HT     0.417000        1.0080           0
   37648 WT2  4438 TIP3 OH2  OT    -0.834000       15.9994           0
   37649 WT2  4438 TIP3 H1   HT     0.417000        1.0080           0
   37650 WT2  4438 TIP3 H2   HT     0.417000        1.0080           0
   37651 WT2  4439 TIP3 OH2  OT    -0.834000       15.9994           0
   37652 WT2  4439 TIP3 H1   HT     0.417000        1.0080           0
   37653 WT2  4439 TIP3 H2   HT     0.417000        1.0080           0
   37654 WT2  4440 TIP3 OH2  OT    -0.834000       15.9994           0
   37655 WT2  4440 TIP3 H1   HT     0.417000        1.0080           0
   37656 WT2  4440 TIP3 H2   HT     0.417000        1.0080           0
   37657 WT2  4441 TIP3 OH2  OT    -0.834000       15.9994           0
   37658 WT2  4441 TIP3 H1   HT     0.417000        1.0080           0
   37659 WT2  4441 TIP3 H2   HT     0.417000        1.0080           0
   37660 WT2  4442 TIP3 OH2  OT    -0.834000       15.9994           0
   37661 WT2  4442 TIP3 H1   HT     0.417000        1.0080           0
   37662 WT2  4442 TIP3 H2   HT     0.417000        1.0080           0
   37663 WT2  4443 TIP3 OH2  OT    -0.834000       15.9994           0
   37664 WT2  4443 TIP3 H1   HT     0.417000        1.0080           0
   37665 WT2  4443 TIP3 H2   HT     0.417000        1.0080           0
   37666 WT2  4444 TIP3 OH2  OT    -0.834000       15.9994           0
   37667 WT2  4444 TIP3 H1   HT     0.417000        1.0080           0
   37668 WT2  4444 TIP3 H2   HT     0.417000        1.0080           0
   37669 WT2  4446 TIP3 OH2  OT    -0.834000       15.9994           0
   37670 WT2  4446 TIP3 H1   HT     0.417000        1.0080           0
   37671 WT2  4446 TIP3 H2   HT     0.417000        1.0080           0
   37672 WT2  4452 TIP3 OH2  OT    -0.834000       15.9994           0
   37673 WT2  4452 TIP3 H1   HT     0.417000        1.0080           0
   37674 WT2  4452 TIP3 H2   HT     0.417000        1.0080           0
   37675 WT2  4453 TIP3 OH2  OT    -0.834000       15.9994           0
   37676 WT2  4453 TIP3 H1   HT     0.417000        1.0080           0
   37677 WT2  4453 TIP3 H2   HT     0.417000        1.0080           0
   37678 WT2  4454 TIP3 OH2  OT    -0.834000       15.9994           0
   37679 WT2  4454 TIP3 H1   HT     0.417000        1.0080           0
   37680 WT2  4454 TIP3 H2   HT     0.417000        1.0080           0
   37681 WT2  4455 TIP3 OH2  OT    -0.834000       15.9994           0
   37682 WT2  4455 TIP3 H1   HT     0.417000        1.0080           0
   37683 WT2  4455 TIP3 H2   HT     0.417000        1.0080           0
   37684 WT2  4456 TIP3 OH2  OT    -0.834000       15.9994           0
   37685 WT2  4456 TIP3 H1   HT     0.417000        1.0080           0
   37686 WT2  4456 TIP3 H2   HT     0.417000        1.0080           0
   37687 WT2  4457 TIP3 OH2  OT    -0.834000       15.9994           0
   37688 WT2  4457 TIP3 H1   HT     0.417000        1.0080           0
   37689 WT2  4457 TIP3 H2   HT     0.417000        1.0080           0
   37690 WT2  4459 TIP3 OH2  OT    -0.834000       15.9994           0
   37691 WT2  4459 TIP3 H1   HT     0.417000        1.0080           0
   37692 WT2  4459 TIP3 H2   HT     0.417000        1.0080           0
   37693 WT2  4460 TIP3 OH2  OT    -0.834000       15.9994           0
   37694 WT2  4460 TIP3 H1   HT     0.417000        1.0080           0
   37695 WT2  4460 TIP3 H2   HT     0.417000        1.0080           0
   37696 WT2  4461 TIP3 OH2  OT    -0.834000       15.9994           0
   37697 WT2  4461 TIP3 H1   HT     0.417000        1.0080           0
   37698 WT2  4461 TIP3 H2   HT     0.417000        1.0080           0
   37699 WT2  4462 TIP3 OH2  OT    -0.834000       15.9994           0
   37700 WT2  4462 TIP3 H1   HT     0.417000        1.0080           0
   37701 WT2  4462 TIP3 H2   HT     0.417000        1.0080           0
   37702 WT2  4463 TIP3 OH2  OT    -0.834000       15.9994           0
   37703 WT2  4463 TIP3 H1   HT     0.417000        1.0080           0
   37704 WT2  4463 TIP3 H2   HT     0.417000        1.0080           0
   37705 WT2  4465 TIP3 OH2  OT    -0.834000       15.9994           0
   37706 WT2  4465 TIP3 H1   HT     0.417000        1.0080           0
   37707 WT2  4465 TIP3 H2   HT     0.417000        1.0080           0
   37708 WT2  4466 TIP3 OH2  OT    -0.834000       15.9994           0
   37709 WT2  4466 TIP3 H1   HT     0.417000        1.0080           0
   37710 WT2  4466 TIP3 H2   HT     0.417000        1.0080           0
   37711 WT2  4473 TIP3 OH2  OT    -0.834000       15.9994           0
   37712 WT2  4473 TIP3 H1   HT     0.417000        1.0080           0
   37713 WT2  4473 TIP3 H2   HT     0.417000        1.0080           0
   37714 WT2  4474 TIP3 OH2  OT    -0.834000       15.9994           0
   37715 WT2  4474 TIP3 H1   HT     0.417000        1.0080           0
   37716 WT2  4474 TIP3 H2   HT     0.417000        1.0080           0
   37717 WT2  4477 TIP3 OH2  OT    -0.834000       15.9994           0
   37718 WT2  4477 TIP3 H1   HT     0.417000        1.0080           0
   37719 WT2  4477 TIP3 H2   HT     0.417000        1.0080           0
   37720 WT2  4478 TIP3 OH2  OT    -0.834000       15.9994           0
   37721 WT2  4478 TIP3 H1   HT     0.417000        1.0080           0
   37722 WT2  4478 TIP3 H2   HT     0.417000        1.0080           0
   37723 WT2  4479 TIP3 OH2  OT    -0.834000       15.9994           0
   37724 WT2  4479 TIP3 H1   HT     0.417000        1.0080           0
   37725 WT2  4479 TIP3 H2   HT     0.417000        1.0080           0
   37726 WT2  4480 TIP3 OH2  OT    -0.834000       15.9994           0
   37727 WT2  4480 TIP3 H1   HT     0.417000        1.0080           0
   37728 WT2  4480 TIP3 H2   HT     0.417000        1.0080           0
   37729 WT2  4481 TIP3 OH2  OT    -0.834000       15.9994           0
   37730 WT2  4481 TIP3 H1   HT     0.417000        1.0080           0
   37731 WT2  4481 TIP3 H2   HT     0.417000        1.0080           0
   37732 WT2  4482 TIP3 OH2  OT    -0.834000       15.9994           0
   37733 WT2  4482 TIP3 H1   HT     0.417000        1.0080           0
   37734 WT2  4482 TIP3 H2   HT     0.417000        1.0080           0
   37735 WT2  4483 TIP3 OH2  OT    -0.834000       15.9994           0
   37736 WT2  4483 TIP3 H1   HT     0.417000        1.0080           0
   37737 WT2  4483 TIP3 H2   HT     0.417000        1.0080           0
   37738 WT2  4484 TIP3 OH2  OT    -0.834000       15.9994           0
   37739 WT2  4484 TIP3 H1   HT     0.417000        1.0080           0
   37740 WT2  4484 TIP3 H2   HT     0.417000        1.0080           0
   37741 WT2  4485 TIP3 OH2  OT    -0.834000       15.9994           0
   37742 WT2  4485 TIP3 H1   HT     0.417000        1.0080           0
   37743 WT2  4485 TIP3 H2   HT     0.417000        1.0080           0
   37744 WT2  4488 TIP3 OH2  OT    -0.834000       15.9994           0
   37745 WT2  4488 TIP3 H1   HT     0.417000        1.0080           0
   37746 WT2  4488 TIP3 H2   HT     0.417000        1.0080           0
   37747 WT2  4491 TIP3 OH2  OT    -0.834000       15.9994           0
   37748 WT2  4491 TIP3 H1   HT     0.417000        1.0080           0
   37749 WT2  4491 TIP3 H2   HT     0.417000        1.0080           0
   37750 WT2  4492 TIP3 OH2  OT    -0.834000       15.9994           0
   37751 WT2  4492 TIP3 H1   HT     0.417000        1.0080           0
   37752 WT2  4492 TIP3 H2   HT     0.417000        1.0080           0
   37753 WT2  4496 TIP3 OH2  OT    -0.834000       15.9994           0
   37754 WT2  4496 TIP3 H1   HT     0.417000        1.0080           0
   37755 WT2  4496 TIP3 H2   HT     0.417000        1.0080           0
   37756 WT2  4497 TIP3 OH2  OT    -0.834000       15.9994           0
   37757 WT2  4497 TIP3 H1   HT     0.417000        1.0080           0
   37758 WT2  4497 TIP3 H2   HT     0.417000        1.0080           0
   37759 WT2  4498 TIP3 OH2  OT    -0.834000       15.9994           0
   37760 WT2  4498 TIP3 H1   HT     0.417000        1.0080           0
   37761 WT2  4498 TIP3 H2   HT     0.417000        1.0080           0
   37762 WT2  4499 TIP3 OH2  OT    -0.834000       15.9994           0
   37763 WT2  4499 TIP3 H1   HT     0.417000        1.0080           0
   37764 WT2  4499 TIP3 H2   HT     0.417000        1.0080           0
   37765 WT2  4500 TIP3 OH2  OT    -0.834000       15.9994           0
   37766 WT2  4500 TIP3 H1   HT     0.417000        1.0080           0
   37767 WT2  4500 TIP3 H2   HT     0.417000        1.0080           0
   37768 WT2  4501 TIP3 OH2  OT    -0.834000       15.9994           0
   37769 WT2  4501 TIP3 H1   HT     0.417000        1.0080           0
   37770 WT2  4501 TIP3 H2   HT     0.417000        1.0080           0
   37771 WT2  4502 TIP3 OH2  OT    -0.834000       15.9994           0
   37772 WT2  4502 TIP3 H1   HT     0.417000        1.0080           0
   37773 WT2  4502 TIP3 H2   HT     0.417000        1.0080           0
   37774 WT2  4503 TIP3 OH2  OT    -0.834000       15.9994           0
   37775 WT2  4503 TIP3 H1   HT     0.417000        1.0080           0
   37776 WT2  4503 TIP3 H2   HT     0.417000        1.0080           0
   37777 WT2  4504 TIP3 OH2  OT    -0.834000       15.9994           0
   37778 WT2  4504 TIP3 H1   HT     0.417000        1.0080           0
   37779 WT2  4504 TIP3 H2   HT     0.417000        1.0080           0
   37780 WT2  4506 TIP3 OH2  OT    -0.834000       15.9994           0
   37781 WT2  4506 TIP3 H1   HT     0.417000        1.0080           0
   37782 WT2  4506 TIP3 H2   HT     0.417000        1.0080           0
   37783 WT2  4507 TIP3 OH2  OT    -0.834000       15.9994           0
   37784 WT2  4507 TIP3 H1   HT     0.417000        1.0080           0
   37785 WT2  4507 TIP3 H2   HT     0.417000        1.0080           0
   37786 WT2  4509 TIP3 OH2  OT    -0.834000       15.9994           0
   37787 WT2  4509 TIP3 H1   HT     0.417000        1.0080           0
   37788 WT2  4509 TIP3 H2   HT     0.417000        1.0080           0
   37789 WT2  4513 TIP3 OH2  OT    -0.834000       15.9994           0
   37790 WT2  4513 TIP3 H1   HT     0.417000        1.0080           0
   37791 WT2  4513 TIP3 H2   HT     0.417000        1.0080           0
   37792 WT2  4515 TIP3 OH2  OT    -0.834000       15.9994           0
   37793 WT2  4515 TIP3 H1   HT     0.417000        1.0080           0
   37794 WT2  4515 TIP3 H2   HT     0.417000        1.0080           0
   37795 WT2  4516 TIP3 OH2  OT    -0.834000       15.9994           0
   37796 WT2  4516 TIP3 H1   HT     0.417000        1.0080           0
   37797 WT2  4516 TIP3 H2   HT     0.417000        1.0080           0
   37798 WT2  4517 TIP3 OH2  OT    -0.834000       15.9994           0
   37799 WT2  4517 TIP3 H1   HT     0.417000        1.0080           0
   37800 WT2  4517 TIP3 H2   HT     0.417000        1.0080           0
   37801 WT2  4518 TIP3 OH2  OT    -0.834000       15.9994           0
   37802 WT2  4518 TIP3 H1   HT     0.417000        1.0080           0
   37803 WT2  4518 TIP3 H2   HT     0.417000        1.0080           0
   37804 WT2  4519 TIP3 OH2  OT    -0.834000       15.9994           0
   37805 WT2  4519 TIP3 H1   HT     0.417000        1.0080           0
   37806 WT2  4519 TIP3 H2   HT     0.417000        1.0080           0
   37807 WT2  4520 TIP3 OH2  OT    -0.834000       15.9994           0
   37808 WT2  4520 TIP3 H1   HT     0.417000        1.0080           0
   37809 WT2  4520 TIP3 H2   HT     0.417000        1.0080           0
   37810 WT2  4521 TIP3 OH2  OT    -0.834000       15.9994           0
   37811 WT2  4521 TIP3 H1   HT     0.417000        1.0080           0
   37812 WT2  4521 TIP3 H2   HT     0.417000        1.0080           0
   37813 WT2  4522 TIP3 OH2  OT    -0.834000       15.9994           0
   37814 WT2  4522 TIP3 H1   HT     0.417000        1.0080           0
   37815 WT2  4522 TIP3 H2   HT     0.417000        1.0080           0
   37816 WT2  4523 TIP3 OH2  OT    -0.834000       15.9994           0
   37817 WT2  4523 TIP3 H1   HT     0.417000        1.0080           0
   37818 WT2  4523 TIP3 H2   HT     0.417000        1.0080           0
   37819 WT2  4524 TIP3 OH2  OT    -0.834000       15.9994           0
   37820 WT2  4524 TIP3 H1   HT     0.417000        1.0080           0
   37821 WT2  4524 TIP3 H2   HT     0.417000        1.0080           0
   37822 WT2  4525 TIP3 OH2  OT    -0.834000       15.9994           0
   37823 WT2  4525 TIP3 H1   HT     0.417000        1.0080           0
   37824 WT2  4525 TIP3 H2   HT     0.417000        1.0080           0
   37825 WT2  4526 TIP3 OH2  OT    -0.834000       15.9994           0
   37826 WT2  4526 TIP3 H1   HT     0.417000        1.0080           0
   37827 WT2  4526 TIP3 H2   HT     0.417000        1.0080           0
   37828 WT2  4527 TIP3 OH2  OT    -0.834000       15.9994           0
   37829 WT2  4527 TIP3 H1   HT     0.417000        1.0080           0
   37830 WT2  4527 TIP3 H2   HT     0.417000        1.0080           0
   37831 WT2  4531 TIP3 OH2  OT    -0.834000       15.9994           0
   37832 WT2  4531 TIP3 H1   HT     0.417000        1.0080           0
   37833 WT2  4531 TIP3 H2   HT     0.417000        1.0080           0
   37834 WT2  4536 TIP3 OH2  OT    -0.834000       15.9994           0
   37835 WT2  4536 TIP3 H1   HT     0.417000        1.0080           0
   37836 WT2  4536 TIP3 H2   HT     0.417000        1.0080           0
   37837 WT2  4537 TIP3 OH2  OT    -0.834000       15.9994           0
   37838 WT2  4537 TIP3 H1   HT     0.417000        1.0080           0
   37839 WT2  4537 TIP3 H2   HT     0.417000        1.0080           0
   37840 WT2  4538 TIP3 OH2  OT    -0.834000       15.9994           0
   37841 WT2  4538 TIP3 H1   HT     0.417000        1.0080           0
   37842 WT2  4538 TIP3 H2   HT     0.417000        1.0080           0
   37843 WT2  4539 TIP3 OH2  OT    -0.834000       15.9994           0
   37844 WT2  4539 TIP3 H1   HT     0.417000        1.0080           0
   37845 WT2  4539 TIP3 H2   HT     0.417000        1.0080           0
   37846 WT2  4540 TIP3 OH2  OT    -0.834000       15.9994           0
   37847 WT2  4540 TIP3 H1   HT     0.417000        1.0080           0
   37848 WT2  4540 TIP3 H2   HT     0.417000        1.0080           0
   37849 WT2  4541 TIP3 OH2  OT    -0.834000       15.9994           0
   37850 WT2  4541 TIP3 H1   HT     0.417000        1.0080           0
   37851 WT2  4541 TIP3 H2   HT     0.417000        1.0080           0
   37852 WT2  4542 TIP3 OH2  OT    -0.834000       15.9994           0
   37853 WT2  4542 TIP3 H1   HT     0.417000        1.0080           0
   37854 WT2  4542 TIP3 H2   HT     0.417000        1.0080           0
   37855 WT2  4543 TIP3 OH2  OT    -0.834000       15.9994           0
   37856 WT2  4543 TIP3 H1   HT     0.417000        1.0080           0
   37857 WT2  4543 TIP3 H2   HT     0.417000        1.0080           0
   37858 WT2  4544 TIP3 OH2  OT    -0.834000       15.9994           0
   37859 WT2  4544 TIP3 H1   HT     0.417000        1.0080           0
   37860 WT2  4544 TIP3 H2   HT     0.417000        1.0080           0
   37861 WT2  4545 TIP3 OH2  OT    -0.834000       15.9994           0
   37862 WT2  4545 TIP3 H1   HT     0.417000        1.0080           0
   37863 WT2  4545 TIP3 H2   HT     0.417000        1.0080           0
   37864 WT2  4546 TIP3 OH2  OT    -0.834000       15.9994           0
   37865 WT2  4546 TIP3 H1   HT     0.417000        1.0080           0
   37866 WT2  4546 TIP3 H2   HT     0.417000        1.0080           0
   37867 WT2  4547 TIP3 OH2  OT    -0.834000       15.9994           0
   37868 WT2  4547 TIP3 H1   HT     0.417000        1.0080           0
   37869 WT2  4547 TIP3 H2   HT     0.417000        1.0080           0
   37870 WT2  4548 TIP3 OH2  OT    -0.834000       15.9994           0
   37871 WT2  4548 TIP3 H1   HT     0.417000        1.0080           0
   37872 WT2  4548 TIP3 H2   HT     0.417000        1.0080           0
   37873 WT2  4549 TIP3 OH2  OT    -0.834000       15.9994           0
   37874 WT2  4549 TIP3 H1   HT     0.417000        1.0080           0
   37875 WT2  4549 TIP3 H2   HT     0.417000        1.0080           0
   37876 WT2  4551 TIP3 OH2  OT    -0.834000       15.9994           0
   37877 WT2  4551 TIP3 H1   HT     0.417000        1.0080           0
   37878 WT2  4551 TIP3 H2   HT     0.417000        1.0080           0
   37879 WT2  4553 TIP3 OH2  OT    -0.834000       15.9994           0
   37880 WT2  4553 TIP3 H1   HT     0.417000        1.0080           0
   37881 WT2  4553 TIP3 H2   HT     0.417000        1.0080           0
   37882 WT2  4558 TIP3 OH2  OT    -0.834000       15.9994           0
   37883 WT2  4558 TIP3 H1   HT     0.417000        1.0080           0
   37884 WT2  4558 TIP3 H2   HT     0.417000        1.0080           0
   37885 WT2  4559 TIP3 OH2  OT    -0.834000       15.9994           0
   37886 WT2  4559 TIP3 H1   HT     0.417000        1.0080           0
   37887 WT2  4559 TIP3 H2   HT     0.417000        1.0080           0
   37888 WT2  4560 TIP3 OH2  OT    -0.834000       15.9994           0
   37889 WT2  4560 TIP3 H1   HT     0.417000        1.0080           0
   37890 WT2  4560 TIP3 H2   HT     0.417000        1.0080           0
   37891 WT2  4561 TIP3 OH2  OT    -0.834000       15.9994           0
   37892 WT2  4561 TIP3 H1   HT     0.417000        1.0080           0
   37893 WT2  4561 TIP3 H2   HT     0.417000        1.0080           0
   37894 WT2  4562 TIP3 OH2  OT    -0.834000       15.9994           0
   37895 WT2  4562 TIP3 H1   HT     0.417000        1.0080           0
   37896 WT2  4562 TIP3 H2   HT     0.417000        1.0080           0
   37897 WT2  4563 TIP3 OH2  OT    -0.834000       15.9994           0
   37898 WT2  4563 TIP3 H1   HT     0.417000        1.0080           0
   37899 WT2  4563 TIP3 H2   HT     0.417000        1.0080           0
   37900 WT2  4564 TIP3 OH2  OT    -0.834000       15.9994           0
   37901 WT2  4564 TIP3 H1   HT     0.417000        1.0080           0
   37902 WT2  4564 TIP3 H2   HT     0.417000        1.0080           0
   37903 WT2  4565 TIP3 OH2  OT    -0.834000       15.9994           0
   37904 WT2  4565 TIP3 H1   HT     0.417000        1.0080           0
   37905 WT2  4565 TIP3 H2   HT     0.417000        1.0080           0
   37906 WT2  4566 TIP3 OH2  OT    -0.834000       15.9994           0
   37907 WT2  4566 TIP3 H1   HT     0.417000        1.0080           0
   37908 WT2  4566 TIP3 H2   HT     0.417000        1.0080           0
   37909 WT2  4567 TIP3 OH2  OT    -0.834000       15.9994           0
   37910 WT2  4567 TIP3 H1   HT     0.417000        1.0080           0
   37911 WT2  4567 TIP3 H2   HT     0.417000        1.0080           0
   37912 WT2  4568 TIP3 OH2  OT    -0.834000       15.9994           0
   37913 WT2  4568 TIP3 H1   HT     0.417000        1.0080           0
   37914 WT2  4568 TIP3 H2   HT     0.417000        1.0080           0
   37915 WT2  4569 TIP3 OH2  OT    -0.834000       15.9994           0
   37916 WT2  4569 TIP3 H1   HT     0.417000        1.0080           0
   37917 WT2  4569 TIP3 H2   HT     0.417000        1.0080           0
   37918 WT2  4574 TIP3 OH2  OT    -0.834000       15.9994           0
   37919 WT2  4574 TIP3 H1   HT     0.417000        1.0080           0
   37920 WT2  4574 TIP3 H2   HT     0.417000        1.0080           0
   37921 WT2  4578 TIP3 OH2  OT    -0.834000       15.9994           0
   37922 WT2  4578 TIP3 H1   HT     0.417000        1.0080           0
   37923 WT2  4578 TIP3 H2   HT     0.417000        1.0080           0
   37924 WT2  4581 TIP3 OH2  OT    -0.834000       15.9994           0
   37925 WT2  4581 TIP3 H1   HT     0.417000        1.0080           0
   37926 WT2  4581 TIP3 H2   HT     0.417000        1.0080           0
   37927 WT2  4582 TIP3 OH2  OT    -0.834000       15.9994           0
   37928 WT2  4582 TIP3 H1   HT     0.417000        1.0080           0
   37929 WT2  4582 TIP3 H2   HT     0.417000        1.0080           0
   37930 WT2  4583 TIP3 OH2  OT    -0.834000       15.9994           0
   37931 WT2  4583 TIP3 H1   HT     0.417000        1.0080           0
   37932 WT2  4583 TIP3 H2   HT     0.417000        1.0080           0
   37933 WT2  4584 TIP3 OH2  OT    -0.834000       15.9994           0
   37934 WT2  4584 TIP3 H1   HT     0.417000        1.0080           0
   37935 WT2  4584 TIP3 H2   HT     0.417000        1.0080           0
   37936 WT2  4585 TIP3 OH2  OT    -0.834000       15.9994           0
   37937 WT2  4585 TIP3 H1   HT     0.417000        1.0080           0
   37938 WT2  4585 TIP3 H2   HT     0.417000        1.0080           0
   37939 WT2  4586 TIP3 OH2  OT    -0.834000       15.9994           0
   37940 WT2  4586 TIP3 H1   HT     0.417000        1.0080           0
   37941 WT2  4586 TIP3 H2   HT     0.417000        1.0080           0
   37942 WT2  4587 TIP3 OH2  OT    -0.834000       15.9994           0
   37943 WT2  4587 TIP3 H1   HT     0.417000        1.0080           0
   37944 WT2  4587 TIP3 H2   HT     0.417000        1.0080           0
   37945 WT2  4588 TIP3 OH2  OT    -0.834000       15.9994           0
   37946 WT2  4588 TIP3 H1   HT     0.417000        1.0080           0
   37947 WT2  4588 TIP3 H2   HT     0.417000        1.0080           0
   37948 WT2  4589 TIP3 OH2  OT    -0.834000       15.9994           0
   37949 WT2  4589 TIP3 H1   HT     0.417000        1.0080           0
   37950 WT2  4589 TIP3 H2   HT     0.417000        1.0080           0
   37951 WT2  4592 TIP3 OH2  OT    -0.834000       15.9994           0
   37952 WT2  4592 TIP3 H1   HT     0.417000        1.0080           0
   37953 WT2  4592 TIP3 H2   HT     0.417000        1.0080           0
   37954 WT2  4593 TIP3 OH2  OT    -0.834000       15.9994           0
   37955 WT2  4593 TIP3 H1   HT     0.417000        1.0080           0
   37956 WT2  4593 TIP3 H2   HT     0.417000        1.0080           0
   37957 WT2  4599 TIP3 OH2  OT    -0.834000       15.9994           0
   37958 WT2  4599 TIP3 H1   HT     0.417000        1.0080           0
   37959 WT2  4599 TIP3 H2   HT     0.417000        1.0080           0
   37960 WT2  4600 TIP3 OH2  OT    -0.834000       15.9994           0
   37961 WT2  4600 TIP3 H1   HT     0.417000        1.0080           0
   37962 WT2  4600 TIP3 H2   HT     0.417000        1.0080           0
   37963 WT2  4602 TIP3 OH2  OT    -0.834000       15.9994           0
   37964 WT2  4602 TIP3 H1   HT     0.417000        1.0080           0
   37965 WT2  4602 TIP3 H2   HT     0.417000        1.0080           0
   37966 WT2  4603 TIP3 OH2  OT    -0.834000       15.9994           0
   37967 WT2  4603 TIP3 H1   HT     0.417000        1.0080           0
   37968 WT2  4603 TIP3 H2   HT     0.417000        1.0080           0
   37969 WT2  4604 TIP3 OH2  OT    -0.834000       15.9994           0
   37970 WT2  4604 TIP3 H1   HT     0.417000        1.0080           0
   37971 WT2  4604 TIP3 H2   HT     0.417000        1.0080           0
   37972 WT2  4605 TIP3 OH2  OT    -0.834000       15.9994           0
   37973 WT2  4605 TIP3 H1   HT     0.417000        1.0080           0
   37974 WT2  4605 TIP3 H2   HT     0.417000        1.0080           0
   37975 WT2  4606 TIP3 OH2  OT    -0.834000       15.9994           0
   37976 WT2  4606 TIP3 H1   HT     0.417000        1.0080           0
   37977 WT2  4606 TIP3 H2   HT     0.417000        1.0080           0
   37978 WT2  4607 TIP3 OH2  OT    -0.834000       15.9994           0
   37979 WT2  4607 TIP3 H1   HT     0.417000        1.0080           0
   37980 WT2  4607 TIP3 H2   HT     0.417000        1.0080           0
   37981 WT2  4608 TIP3 OH2  OT    -0.834000       15.9994           0
   37982 WT2  4608 TIP3 H1   HT     0.417000        1.0080           0
   37983 WT2  4608 TIP3 H2   HT     0.417000        1.0080           0
   37984 WT2  4609 TIP3 OH2  OT    -0.834000       15.9994           0
   37985 WT2  4609 TIP3 H1   HT     0.417000        1.0080           0
   37986 WT2  4609 TIP3 H2   HT     0.417000        1.0080           0
   37987 WT2  4610 TIP3 OH2  OT    -0.834000       15.9994           0
   37988 WT2  4610 TIP3 H1   HT     0.417000        1.0080           0
   37989 WT2  4610 TIP3 H2   HT     0.417000        1.0080           0
   37990 WT2  4611 TIP3 OH2  OT    -0.834000       15.9994           0
   37991 WT2  4611 TIP3 H1   HT     0.417000        1.0080           0
   37992 WT2  4611 TIP3 H2   HT     0.417000        1.0080           0
   37993 WT2  4619 TIP3 OH2  OT    -0.834000       15.9994           0
   37994 WT2  4619 TIP3 H1   HT     0.417000        1.0080           0
   37995 WT2  4619 TIP3 H2   HT     0.417000        1.0080           0
   37996 WT2  4622 TIP3 OH2  OT    -0.834000       15.9994           0
   37997 WT2  4622 TIP3 H1   HT     0.417000        1.0080           0
   37998 WT2  4622 TIP3 H2   HT     0.417000        1.0080           0
   37999 WT2  4623 TIP3 OH2  OT    -0.834000       15.9994           0
   38000 WT2  4623 TIP3 H1   HT     0.417000        1.0080           0
   38001 WT2  4623 TIP3 H2   HT     0.417000        1.0080           0
   38002 WT2  4624 TIP3 OH2  OT    -0.834000       15.9994           0
   38003 WT2  4624 TIP3 H1   HT     0.417000        1.0080           0
   38004 WT2  4624 TIP3 H2   HT     0.417000        1.0080           0
   38005 WT2  4625 TIP3 OH2  OT    -0.834000       15.9994           0
   38006 WT2  4625 TIP3 H1   HT     0.417000        1.0080           0
   38007 WT2  4625 TIP3 H2   HT     0.417000        1.0080           0
   38008 WT2  4626 TIP3 OH2  OT    -0.834000       15.9994           0
   38009 WT2  4626 TIP3 H1   HT     0.417000        1.0080           0
   38010 WT2  4626 TIP3 H2   HT     0.417000        1.0080           0
   38011 WT2  4627 TIP3 OH2  OT    -0.834000       15.9994           0
   38012 WT2  4627 TIP3 H1   HT     0.417000        1.0080           0
   38013 WT2  4627 TIP3 H2   HT     0.417000        1.0080           0
   38014 WT2  4628 TIP3 OH2  OT    -0.834000       15.9994           0
   38015 WT2  4628 TIP3 H1   HT     0.417000        1.0080           0
   38016 WT2  4628 TIP3 H2   HT     0.417000        1.0080           0
   38017 WT2  4629 TIP3 OH2  OT    -0.834000       15.9994           0
   38018 WT2  4629 TIP3 H1   HT     0.417000        1.0080           0
   38019 WT2  4629 TIP3 H2   HT     0.417000        1.0080           0
   38020 WT2  4630 TIP3 OH2  OT    -0.834000       15.9994           0
   38021 WT2  4630 TIP3 H1   HT     0.417000        1.0080           0
   38022 WT2  4630 TIP3 H2   HT     0.417000        1.0080           0
   38023 WT2  4631 TIP3 OH2  OT    -0.834000       15.9994           0
   38024 WT2  4631 TIP3 H1   HT     0.417000        1.0080           0
   38025 WT2  4631 TIP3 H2   HT     0.417000        1.0080           0
   38026 WT2  4632 TIP3 OH2  OT    -0.834000       15.9994           0
   38027 WT2  4632 TIP3 H1   HT     0.417000        1.0080           0
   38028 WT2  4632 TIP3 H2   HT     0.417000        1.0080           0
   38029 WT2  4633 TIP3 OH2  OT    -0.834000       15.9994           0
   38030 WT2  4633 TIP3 H1   HT     0.417000        1.0080           0
   38031 WT2  4633 TIP3 H2   HT     0.417000        1.0080           0
   38032 WT2  4634 TIP3 OH2  OT    -0.834000       15.9994           0
   38033 WT2  4634 TIP3 H1   HT     0.417000        1.0080           0
   38034 WT2  4634 TIP3 H2   HT     0.417000        1.0080           0
   38035 WT2  4635 TIP3 OH2  OT    -0.834000       15.9994           0
   38036 WT2  4635 TIP3 H1   HT     0.417000        1.0080           0
   38037 WT2  4635 TIP3 H2   HT     0.417000        1.0080           0
   38038 WT2  4641 TIP3 OH2  OT    -0.834000       15.9994           0
   38039 WT2  4641 TIP3 H1   HT     0.417000        1.0080           0
   38040 WT2  4641 TIP3 H2   HT     0.417000        1.0080           0
   38041 WT2  4643 TIP3 OH2  OT    -0.834000       15.9994           0
   38042 WT2  4643 TIP3 H1   HT     0.417000        1.0080           0
   38043 WT2  4643 TIP3 H2   HT     0.417000        1.0080           0
   38044 WT2  4644 TIP3 OH2  OT    -0.834000       15.9994           0
   38045 WT2  4644 TIP3 H1   HT     0.417000        1.0080           0
   38046 WT2  4644 TIP3 H2   HT     0.417000        1.0080           0
   38047 WT2  4645 TIP3 OH2  OT    -0.834000       15.9994           0
   38048 WT2  4645 TIP3 H1   HT     0.417000        1.0080           0
   38049 WT2  4645 TIP3 H2   HT     0.417000        1.0080           0
   38050 WT2  4647 TIP3 OH2  OT    -0.834000       15.9994           0
   38051 WT2  4647 TIP3 H1   HT     0.417000        1.0080           0
   38052 WT2  4647 TIP3 H2   HT     0.417000        1.0080           0
   38053 WT2  4648 TIP3 OH2  OT    -0.834000       15.9994           0
   38054 WT2  4648 TIP3 H1   HT     0.417000        1.0080           0
   38055 WT2  4648 TIP3 H2   HT     0.417000        1.0080           0
   38056 WT2  4649 TIP3 OH2  OT    -0.834000       15.9994           0
   38057 WT2  4649 TIP3 H1   HT     0.417000        1.0080           0
   38058 WT2  4649 TIP3 H2   HT     0.417000        1.0080           0
   38059 WT2  4650 TIP3 OH2  OT    -0.834000       15.9994           0
   38060 WT2  4650 TIP3 H1   HT     0.417000        1.0080           0
   38061 WT2  4650 TIP3 H2   HT     0.417000        1.0080           0
   38062 WT2  4651 TIP3 OH2  OT    -0.834000       15.9994           0
   38063 WT2  4651 TIP3 H1   HT     0.417000        1.0080           0
   38064 WT2  4651 TIP3 H2   HT     0.417000        1.0080           0
   38065 WT2  4652 TIP3 OH2  OT    -0.834000       15.9994           0
   38066 WT2  4652 TIP3 H1   HT     0.417000        1.0080           0
   38067 WT2  4652 TIP3 H2   HT     0.417000        1.0080           0
   38068 WT2  4653 TIP3 OH2  OT    -0.834000       15.9994           0
   38069 WT2  4653 TIP3 H1   HT     0.417000        1.0080           0
   38070 WT2  4653 TIP3 H2   HT     0.417000        1.0080           0
   38071 WT2  4654 TIP3 OH2  OT    -0.834000       15.9994           0
   38072 WT2  4654 TIP3 H1   HT     0.417000        1.0080           0
   38073 WT2  4654 TIP3 H2   HT     0.417000        1.0080           0
   38074 WT2  4655 TIP3 OH2  OT    -0.834000       15.9994           0
   38075 WT2  4655 TIP3 H1   HT     0.417000        1.0080           0
   38076 WT2  4655 TIP3 H2   HT     0.417000        1.0080           0
   38077 WT2  4661 TIP3 OH2  OT    -0.834000       15.9994           0
   38078 WT2  4661 TIP3 H1   HT     0.417000        1.0080           0
   38079 WT2  4661 TIP3 H2   HT     0.417000        1.0080           0
   38080 WT2  4663 TIP3 OH2  OT    -0.834000       15.9994           0
   38081 WT2  4663 TIP3 H1   HT     0.417000        1.0080           0
   38082 WT2  4663 TIP3 H2   HT     0.417000        1.0080           0
   38083 WT2  4664 TIP3 OH2  OT    -0.834000       15.9994           0
   38084 WT2  4664 TIP3 H1   HT     0.417000        1.0080           0
   38085 WT2  4664 TIP3 H2   HT     0.417000        1.0080           0
   38086 WT2  4665 TIP3 OH2  OT    -0.834000       15.9994           0
   38087 WT2  4665 TIP3 H1   HT     0.417000        1.0080           0
   38088 WT2  4665 TIP3 H2   HT     0.417000        1.0080           0
   38089 WT2  4666 TIP3 OH2  OT    -0.834000       15.9994           0
   38090 WT2  4666 TIP3 H1   HT     0.417000        1.0080           0
   38091 WT2  4666 TIP3 H2   HT     0.417000        1.0080           0
   38092 WT2  4667 TIP3 OH2  OT    -0.834000       15.9994           0
   38093 WT2  4667 TIP3 H1   HT     0.417000        1.0080           0
   38094 WT2  4667 TIP3 H2   HT     0.417000        1.0080           0
   38095 WT2  4668 TIP3 OH2  OT    -0.834000       15.9994           0
   38096 WT2  4668 TIP3 H1   HT     0.417000        1.0080           0
   38097 WT2  4668 TIP3 H2   HT     0.417000        1.0080           0
   38098 WT2  4669 TIP3 OH2  OT    -0.834000       15.9994           0
   38099 WT2  4669 TIP3 H1   HT     0.417000        1.0080           0
   38100 WT2  4669 TIP3 H2   HT     0.417000        1.0080           0
   38101 WT2  4670 TIP3 OH2  OT    -0.834000       15.9994           0
   38102 WT2  4670 TIP3 H1   HT     0.417000        1.0080           0
   38103 WT2  4670 TIP3 H2   HT     0.417000        1.0080           0
   38104 WT2  4671 TIP3 OH2  OT    -0.834000       15.9994           0
   38105 WT2  4671 TIP3 H1   HT     0.417000        1.0080           0
   38106 WT2  4671 TIP3 H2   HT     0.417000        1.0080           0
   38107 WT2  4672 TIP3 OH2  OT    -0.834000       15.9994           0
   38108 WT2  4672 TIP3 H1   HT     0.417000        1.0080           0
   38109 WT2  4672 TIP3 H2   HT     0.417000        1.0080           0
   38110 WT2  4673 TIP3 OH2  OT    -0.834000       15.9994           0
   38111 WT2  4673 TIP3 H1   HT     0.417000        1.0080           0
   38112 WT2  4673 TIP3 H2   HT     0.417000        1.0080           0
   38113 WT2  4674 TIP3 OH2  OT    -0.834000       15.9994           0
   38114 WT2  4674 TIP3 H1   HT     0.417000        1.0080           0
   38115 WT2  4674 TIP3 H2   HT     0.417000        1.0080           0
   38116 WT2  4675 TIP3 OH2  OT    -0.834000       15.9994           0
   38117 WT2  4675 TIP3 H1   HT     0.417000        1.0080           0
   38118 WT2  4675 TIP3 H2   HT     0.417000        1.0080           0
   38119 WT2  4676 TIP3 OH2  OT    -0.834000       15.9994           0
   38120 WT2  4676 TIP3 H1   HT     0.417000        1.0080           0
   38121 WT2  4676 TIP3 H2   HT     0.417000        1.0080           0
   38122 WT2  4677 TIP3 OH2  OT    -0.834000       15.9994           0
   38123 WT2  4677 TIP3 H1   HT     0.417000        1.0080           0
   38124 WT2  4677 TIP3 H2   HT     0.417000        1.0080           0
   38125 WT2  4678 TIP3 OH2  OT    -0.834000       15.9994           0
   38126 WT2  4678 TIP3 H1   HT     0.417000        1.0080           0
   38127 WT2  4678 TIP3 H2   HT     0.417000        1.0080           0
   38128 WT2  4685 TIP3 OH2  OT    -0.834000       15.9994           0
   38129 WT2  4685 TIP3 H1   HT     0.417000        1.0080           0
   38130 WT2  4685 TIP3 H2   HT     0.417000        1.0080           0
   38131 WT2  4686 TIP3 OH2  OT    -0.834000       15.9994           0
   38132 WT2  4686 TIP3 H1   HT     0.417000        1.0080           0
   38133 WT2  4686 TIP3 H2   HT     0.417000        1.0080           0
   38134 WT2  4687 TIP3 OH2  OT    -0.834000       15.9994           0
   38135 WT2  4687 TIP3 H1   HT     0.417000        1.0080           0
   38136 WT2  4687 TIP3 H2   HT     0.417000        1.0080           0
   38137 WT2  4688 TIP3 OH2  OT    -0.834000       15.9994           0
   38138 WT2  4688 TIP3 H1   HT     0.417000        1.0080           0
   38139 WT2  4688 TIP3 H2   HT     0.417000        1.0080           0
   38140 WT2  4689 TIP3 OH2  OT    -0.834000       15.9994           0
   38141 WT2  4689 TIP3 H1   HT     0.417000        1.0080           0
   38142 WT2  4689 TIP3 H2   HT     0.417000        1.0080           0
   38143 WT2  4690 TIP3 OH2  OT    -0.834000       15.9994           0
   38144 WT2  4690 TIP3 H1   HT     0.417000        1.0080           0
   38145 WT2  4690 TIP3 H2   HT     0.417000        1.0080           0
   38146 WT2  4691 TIP3 OH2  OT    -0.834000       15.9994           0
   38147 WT2  4691 TIP3 H1   HT     0.417000        1.0080           0
   38148 WT2  4691 TIP3 H2   HT     0.417000        1.0080           0
   38149 WT2  4692 TIP3 OH2  OT    -0.834000       15.9994           0
   38150 WT2  4692 TIP3 H1   HT     0.417000        1.0080           0
   38151 WT2  4692 TIP3 H2   HT     0.417000        1.0080           0
   38152 WT2  4693 TIP3 OH2  OT    -0.834000       15.9994           0
   38153 WT2  4693 TIP3 H1   HT     0.417000        1.0080           0
   38154 WT2  4693 TIP3 H2   HT     0.417000        1.0080           0
   38155 WT2  4694 TIP3 OH2  OT    -0.834000       15.9994           0
   38156 WT2  4694 TIP3 H1   HT     0.417000        1.0080           0
   38157 WT2  4694 TIP3 H2   HT     0.417000        1.0080           0
   38158 WT2  4695 TIP3 OH2  OT    -0.834000       15.9994           0
   38159 WT2  4695 TIP3 H1   HT     0.417000        1.0080           0
   38160 WT2  4695 TIP3 H2   HT     0.417000        1.0080           0
   38161 WT2  4696 TIP3 OH2  OT    -0.834000       15.9994           0
   38162 WT2  4696 TIP3 H1   HT     0.417000        1.0080           0
   38163 WT2  4696 TIP3 H2   HT     0.417000        1.0080           0
   38164 WT2  4697 TIP3 OH2  OT    -0.834000       15.9994           0
   38165 WT2  4697 TIP3 H1   HT     0.417000        1.0080           0
   38166 WT2  4697 TIP3 H2   HT     0.417000        1.0080           0
   38167 WT2  4700 TIP3 OH2  OT    -0.834000       15.9994           0
   38168 WT2  4700 TIP3 H1   HT     0.417000        1.0080           0
   38169 WT2  4700 TIP3 H2   HT     0.417000        1.0080           0
   38170 WT2  4704 TIP3 OH2  OT    -0.834000       15.9994           0
   38171 WT2  4704 TIP3 H1   HT     0.417000        1.0080           0
   38172 WT2  4704 TIP3 H2   HT     0.417000        1.0080           0
   38173 WT2  4705 TIP3 OH2  OT    -0.834000       15.9994           0
   38174 WT2  4705 TIP3 H1   HT     0.417000        1.0080           0
   38175 WT2  4705 TIP3 H2   HT     0.417000        1.0080           0
   38176 WT2  4706 TIP3 OH2  OT    -0.834000       15.9994           0
   38177 WT2  4706 TIP3 H1   HT     0.417000        1.0080           0
   38178 WT2  4706 TIP3 H2   HT     0.417000        1.0080           0
   38179 WT2  4707 TIP3 OH2  OT    -0.834000       15.9994           0
   38180 WT2  4707 TIP3 H1   HT     0.417000        1.0080           0
   38181 WT2  4707 TIP3 H2   HT     0.417000        1.0080           0
   38182 WT2  4708 TIP3 OH2  OT    -0.834000       15.9994           0
   38183 WT2  4708 TIP3 H1   HT     0.417000        1.0080           0
   38184 WT2  4708 TIP3 H2   HT     0.417000        1.0080           0
   38185 WT2  4710 TIP3 OH2  OT    -0.834000       15.9994           0
   38186 WT2  4710 TIP3 H1   HT     0.417000        1.0080           0
   38187 WT2  4710 TIP3 H2   HT     0.417000        1.0080           0
   38188 WT2  4711 TIP3 OH2  OT    -0.834000       15.9994           0
   38189 WT2  4711 TIP3 H1   HT     0.417000        1.0080           0
   38190 WT2  4711 TIP3 H2   HT     0.417000        1.0080           0
   38191 WT2  4712 TIP3 OH2  OT    -0.834000       15.9994           0
   38192 WT2  4712 TIP3 H1   HT     0.417000        1.0080           0
   38193 WT2  4712 TIP3 H2   HT     0.417000        1.0080           0
   38194 WT2  4713 TIP3 OH2  OT    -0.834000       15.9994           0
   38195 WT2  4713 TIP3 H1   HT     0.417000        1.0080           0
   38196 WT2  4713 TIP3 H2   HT     0.417000        1.0080           0
   38197 WT2  4714 TIP3 OH2  OT    -0.834000       15.9994           0
   38198 WT2  4714 TIP3 H1   HT     0.417000        1.0080           0
   38199 WT2  4714 TIP3 H2   HT     0.417000        1.0080           0
   38200 WT2  4715 TIP3 OH2  OT    -0.834000       15.9994           0
   38201 WT2  4715 TIP3 H1   HT     0.417000        1.0080           0
   38202 WT2  4715 TIP3 H2   HT     0.417000        1.0080           0
   38203 WT2  4717 TIP3 OH2  OT    -0.834000       15.9994           0
   38204 WT2  4717 TIP3 H1   HT     0.417000        1.0080           0
   38205 WT2  4717 TIP3 H2   HT     0.417000        1.0080           0
   38206 WT2  4725 TIP3 OH2  OT    -0.834000       15.9994           0
   38207 WT2  4725 TIP3 H1   HT     0.417000        1.0080           0
   38208 WT2  4725 TIP3 H2   HT     0.417000        1.0080           0
   38209 WT2  4727 TIP3 OH2  OT    -0.834000       15.9994           0
   38210 WT2  4727 TIP3 H1   HT     0.417000        1.0080           0
   38211 WT2  4727 TIP3 H2   HT     0.417000        1.0080           0
   38212 WT2  4729 TIP3 OH2  OT    -0.834000       15.9994           0
   38213 WT2  4729 TIP3 H1   HT     0.417000        1.0080           0
   38214 WT2  4729 TIP3 H2   HT     0.417000        1.0080           0
   38215 WT2  4730 TIP3 OH2  OT    -0.834000       15.9994           0
   38216 WT2  4730 TIP3 H1   HT     0.417000        1.0080           0
   38217 WT2  4730 TIP3 H2   HT     0.417000        1.0080           0
   38218 WT2  4731 TIP3 OH2  OT    -0.834000       15.9994           0
   38219 WT2  4731 TIP3 H1   HT     0.417000        1.0080           0
   38220 WT2  4731 TIP3 H2   HT     0.417000        1.0080           0
   38221 WT2  4732 TIP3 OH2  OT    -0.834000       15.9994           0
   38222 WT2  4732 TIP3 H1   HT     0.417000        1.0080           0
   38223 WT2  4732 TIP3 H2   HT     0.417000        1.0080           0
   38224 WT2  4734 TIP3 OH2  OT    -0.834000       15.9994           0
   38225 WT2  4734 TIP3 H1   HT     0.417000        1.0080           0
   38226 WT2  4734 TIP3 H2   HT     0.417000        1.0080           0
   38227 WT2  4735 TIP3 OH2  OT    -0.834000       15.9994           0
   38228 WT2  4735 TIP3 H1   HT     0.417000        1.0080           0
   38229 WT2  4735 TIP3 H2   HT     0.417000        1.0080           0
   38230 WT2  4736 TIP3 OH2  OT    -0.834000       15.9994           0
   38231 WT2  4736 TIP3 H1   HT     0.417000        1.0080           0
   38232 WT2  4736 TIP3 H2   HT     0.417000        1.0080           0
   38233 WT2  4737 TIP3 OH2  OT    -0.834000       15.9994           0
   38234 WT2  4737 TIP3 H1   HT     0.417000        1.0080           0
   38235 WT2  4737 TIP3 H2   HT     0.417000        1.0080           0
   38236 WT2  4738 TIP3 OH2  OT    -0.834000       15.9994           0
   38237 WT2  4738 TIP3 H1   HT     0.417000        1.0080           0
   38238 WT2  4738 TIP3 H2   HT     0.417000        1.0080           0
   38239 WT2  4740 TIP3 OH2  OT    -0.834000       15.9994           0
   38240 WT2  4740 TIP3 H1   HT     0.417000        1.0080           0
   38241 WT2  4740 TIP3 H2   HT     0.417000        1.0080           0
   38242 WT2  4748 TIP3 OH2  OT    -0.834000       15.9994           0
   38243 WT2  4748 TIP3 H1   HT     0.417000        1.0080           0
   38244 WT2  4748 TIP3 H2   HT     0.417000        1.0080           0
   38245 WT2  4750 TIP3 OH2  OT    -0.834000       15.9994           0
   38246 WT2  4750 TIP3 H1   HT     0.417000        1.0080           0
   38247 WT2  4750 TIP3 H2   HT     0.417000        1.0080           0
   38248 WT2  4751 TIP3 OH2  OT    -0.834000       15.9994           0
   38249 WT2  4751 TIP3 H1   HT     0.417000        1.0080           0
   38250 WT2  4751 TIP3 H2   HT     0.417000        1.0080           0
   38251 WT2  4752 TIP3 OH2  OT    -0.834000       15.9994           0
   38252 WT2  4752 TIP3 H1   HT     0.417000        1.0080           0
   38253 WT2  4752 TIP3 H2   HT     0.417000        1.0080           0
   38254 WT2  4753 TIP3 OH2  OT    -0.834000       15.9994           0
   38255 WT2  4753 TIP3 H1   HT     0.417000        1.0080           0
   38256 WT2  4753 TIP3 H2   HT     0.417000        1.0080           0
   38257 WT2  4754 TIP3 OH2  OT    -0.834000       15.9994           0
   38258 WT2  4754 TIP3 H1   HT     0.417000        1.0080           0
   38259 WT2  4754 TIP3 H2   HT     0.417000        1.0080           0
   38260 WT2  4755 TIP3 OH2  OT    -0.834000       15.9994           0
   38261 WT2  4755 TIP3 H1   HT     0.417000        1.0080           0
   38262 WT2  4755 TIP3 H2   HT     0.417000        1.0080           0
   38263 WT2  4756 TIP3 OH2  OT    -0.834000       15.9994           0
   38264 WT2  4756 TIP3 H1   HT     0.417000        1.0080           0
   38265 WT2  4756 TIP3 H2   HT     0.417000        1.0080           0
   38266 WT2  4758 TIP3 OH2  OT    -0.834000       15.9994           0
   38267 WT2  4758 TIP3 H1   HT     0.417000        1.0080           0
   38268 WT2  4758 TIP3 H2   HT     0.417000        1.0080           0
   38269 WT2  4759 TIP3 OH2  OT    -0.834000       15.9994           0
   38270 WT2  4759 TIP3 H1   HT     0.417000        1.0080           0
   38271 WT2  4759 TIP3 H2   HT     0.417000        1.0080           0
   38272 WT2  4760 TIP3 OH2  OT    -0.834000       15.9994           0
   38273 WT2  4760 TIP3 H1   HT     0.417000        1.0080           0
   38274 WT2  4760 TIP3 H2   HT     0.417000        1.0080           0
   38275 WT2  4761 TIP3 OH2  OT    -0.834000       15.9994           0
   38276 WT2  4761 TIP3 H1   HT     0.417000        1.0080           0
   38277 WT2  4761 TIP3 H2   HT     0.417000        1.0080           0
   38278 WT2  4767 TIP3 OH2  OT    -0.834000       15.9994           0
   38279 WT2  4767 TIP3 H1   HT     0.417000        1.0080           0
   38280 WT2  4767 TIP3 H2   HT     0.417000        1.0080           0
   38281 WT2  4768 TIP3 OH2  OT    -0.834000       15.9994           0
   38282 WT2  4768 TIP3 H1   HT     0.417000        1.0080           0
   38283 WT2  4768 TIP3 H2   HT     0.417000        1.0080           0
   38284 WT2  4770 TIP3 OH2  OT    -0.834000       15.9994           0
   38285 WT2  4770 TIP3 H1   HT     0.417000        1.0080           0
   38286 WT2  4770 TIP3 H2   HT     0.417000        1.0080           0
   38287 WT2  4773 TIP3 OH2  OT    -0.834000       15.9994           0
   38288 WT2  4773 TIP3 H1   HT     0.417000        1.0080           0
   38289 WT2  4773 TIP3 H2   HT     0.417000        1.0080           0
   38290 WT2  4774 TIP3 OH2  OT    -0.834000       15.9994           0
   38291 WT2  4774 TIP3 H1   HT     0.417000        1.0080           0
   38292 WT2  4774 TIP3 H2   HT     0.417000        1.0080           0
   38293 WT2  4775 TIP3 OH2  OT    -0.834000       15.9994           0
   38294 WT2  4775 TIP3 H1   HT     0.417000        1.0080           0
   38295 WT2  4775 TIP3 H2   HT     0.417000        1.0080           0
   38296 WT2  4776 TIP3 OH2  OT    -0.834000       15.9994           0
   38297 WT2  4776 TIP3 H1   HT     0.417000        1.0080           0
   38298 WT2  4776 TIP3 H2   HT     0.417000        1.0080           0
   38299 WT2  4777 TIP3 OH2  OT    -0.834000       15.9994           0
   38300 WT2  4777 TIP3 H1   HT     0.417000        1.0080           0
   38301 WT2  4777 TIP3 H2   HT     0.417000        1.0080           0
   38302 WT2  4778 TIP3 OH2  OT    -0.834000       15.9994           0
   38303 WT2  4778 TIP3 H1   HT     0.417000        1.0080           0
   38304 WT2  4778 TIP3 H2   HT     0.417000        1.0080           0
   38305 WT2  4779 TIP3 OH2  OT    -0.834000       15.9994           0
   38306 WT2  4779 TIP3 H1   HT     0.417000        1.0080           0
   38307 WT2  4779 TIP3 H2   HT     0.417000        1.0080           0
   38308 WT2  4780 TIP3 OH2  OT    -0.834000       15.9994           0
   38309 WT2  4780 TIP3 H1   HT     0.417000        1.0080           0
   38310 WT2  4780 TIP3 H2   HT     0.417000        1.0080           0
   38311 WT2  4785 TIP3 OH2  OT    -0.834000       15.9994           0
   38312 WT2  4785 TIP3 H1   HT     0.417000        1.0080           0
   38313 WT2  4785 TIP3 H2   HT     0.417000        1.0080           0
   38314 WT2  4787 TIP3 OH2  OT    -0.834000       15.9994           0
   38315 WT2  4787 TIP3 H1   HT     0.417000        1.0080           0
   38316 WT2  4787 TIP3 H2   HT     0.417000        1.0080           0
   38317 WT2  4788 TIP3 OH2  OT    -0.834000       15.9994           0
   38318 WT2  4788 TIP3 H1   HT     0.417000        1.0080           0
   38319 WT2  4788 TIP3 H2   HT     0.417000        1.0080           0
   38320 WT2  4790 TIP3 OH2  OT    -0.834000       15.9994           0
   38321 WT2  4790 TIP3 H1   HT     0.417000        1.0080           0
   38322 WT2  4790 TIP3 H2   HT     0.417000        1.0080           0
   38323 WT2  4791 TIP3 OH2  OT    -0.834000       15.9994           0
   38324 WT2  4791 TIP3 H1   HT     0.417000        1.0080           0
   38325 WT2  4791 TIP3 H2   HT     0.417000        1.0080           0
   38326 WT2  4792 TIP3 OH2  OT    -0.834000       15.9994           0
   38327 WT2  4792 TIP3 H1   HT     0.417000        1.0080           0
   38328 WT2  4792 TIP3 H2   HT     0.417000        1.0080           0
   38329 WT2  4793 TIP3 OH2  OT    -0.834000       15.9994           0
   38330 WT2  4793 TIP3 H1   HT     0.417000        1.0080           0
   38331 WT2  4793 TIP3 H2   HT     0.417000        1.0080           0
   38332 WT2  4794 TIP3 OH2  OT    -0.834000       15.9994           0
   38333 WT2  4794 TIP3 H1   HT     0.417000        1.0080           0
   38334 WT2  4794 TIP3 H2   HT     0.417000        1.0080           0
   38335 WT2  4795 TIP3 OH2  OT    -0.834000       15.9994           0
   38336 WT2  4795 TIP3 H1   HT     0.417000        1.0080           0
   38337 WT2  4795 TIP3 H2   HT     0.417000        1.0080           0
   38338 WT2  4796 TIP3 OH2  OT    -0.834000       15.9994           0
   38339 WT2  4796 TIP3 H1   HT     0.417000        1.0080           0
   38340 WT2  4796 TIP3 H2   HT     0.417000        1.0080           0
   38341 WT2  4797 TIP3 OH2  OT    -0.834000       15.9994           0
   38342 WT2  4797 TIP3 H1   HT     0.417000        1.0080           0
   38343 WT2  4797 TIP3 H2   HT     0.417000        1.0080           0
   38344 WT2  4798 TIP3 OH2  OT    -0.834000       15.9994           0
   38345 WT2  4798 TIP3 H1   HT     0.417000        1.0080           0
   38346 WT2  4798 TIP3 H2   HT     0.417000        1.0080           0
   38347 WT2  4799 TIP3 OH2  OT    -0.834000       15.9994           0
   38348 WT2  4799 TIP3 H1   HT     0.417000        1.0080           0
   38349 WT2  4799 TIP3 H2   HT     0.417000        1.0080           0
   38350 WT2  4800 TIP3 OH2  OT    -0.834000       15.9994           0
   38351 WT2  4800 TIP3 H1   HT     0.417000        1.0080           0
   38352 WT2  4800 TIP3 H2   HT     0.417000        1.0080           0
   38353 WT2  4801 TIP3 OH2  OT    -0.834000       15.9994           0
   38354 WT2  4801 TIP3 H1   HT     0.417000        1.0080           0
   38355 WT2  4801 TIP3 H2   HT     0.417000        1.0080           0
   38356 WT2  4804 TIP3 OH2  OT    -0.834000       15.9994           0
   38357 WT2  4804 TIP3 H1   HT     0.417000        1.0080           0
   38358 WT2  4804 TIP3 H2   HT     0.417000        1.0080           0
   38359 WT2  4806 TIP3 OH2  OT    -0.834000       15.9994           0
   38360 WT2  4806 TIP3 H1   HT     0.417000        1.0080           0
   38361 WT2  4806 TIP3 H2   HT     0.417000        1.0080           0
   38362 WT2  4808 TIP3 OH2  OT    -0.834000       15.9994           0
   38363 WT2  4808 TIP3 H1   HT     0.417000        1.0080           0
   38364 WT2  4808 TIP3 H2   HT     0.417000        1.0080           0
   38365 WT2  4809 TIP3 OH2  OT    -0.834000       15.9994           0
   38366 WT2  4809 TIP3 H1   HT     0.417000        1.0080           0
   38367 WT2  4809 TIP3 H2   HT     0.417000        1.0080           0
   38368 WT2  4811 TIP3 OH2  OT    -0.834000       15.9994           0
   38369 WT2  4811 TIP3 H1   HT     0.417000        1.0080           0
   38370 WT2  4811 TIP3 H2   HT     0.417000        1.0080           0
   38371 WT2  4812 TIP3 OH2  OT    -0.834000       15.9994           0
   38372 WT2  4812 TIP3 H1   HT     0.417000        1.0080           0
   38373 WT2  4812 TIP3 H2   HT     0.417000        1.0080           0
   38374 WT2  4813 TIP3 OH2  OT    -0.834000       15.9994           0
   38375 WT2  4813 TIP3 H1   HT     0.417000        1.0080           0
   38376 WT2  4813 TIP3 H2   HT     0.417000        1.0080           0
   38377 WT2  4814 TIP3 OH2  OT    -0.834000       15.9994           0
   38378 WT2  4814 TIP3 H1   HT     0.417000        1.0080           0
   38379 WT2  4814 TIP3 H2   HT     0.417000        1.0080           0
   38380 WT2  4815 TIP3 OH2  OT    -0.834000       15.9994           0
   38381 WT2  4815 TIP3 H1   HT     0.417000        1.0080           0
   38382 WT2  4815 TIP3 H2   HT     0.417000        1.0080           0
   38383 WT2  4816 TIP3 OH2  OT    -0.834000       15.9994           0
   38384 WT2  4816 TIP3 H1   HT     0.417000        1.0080           0
   38385 WT2  4816 TIP3 H2   HT     0.417000        1.0080           0
   38386 WT2  4817 TIP3 OH2  OT    -0.834000       15.9994           0
   38387 WT2  4817 TIP3 H1   HT     0.417000        1.0080           0
   38388 WT2  4817 TIP3 H2   HT     0.417000        1.0080           0
   38389 WT2  4818 TIP3 OH2  OT    -0.834000       15.9994           0
   38390 WT2  4818 TIP3 H1   HT     0.417000        1.0080           0
   38391 WT2  4818 TIP3 H2   HT     0.417000        1.0080           0
   38392 WT2  4819 TIP3 OH2  OT    -0.834000       15.9994           0
   38393 WT2  4819 TIP3 H1   HT     0.417000        1.0080           0
   38394 WT2  4819 TIP3 H2   HT     0.417000        1.0080           0
   38395 WT2  4820 TIP3 OH2  OT    -0.834000       15.9994           0
   38396 WT2  4820 TIP3 H1   HT     0.417000        1.0080           0
   38397 WT2  4820 TIP3 H2   HT     0.417000        1.0080           0
   38398 WT2  4821 TIP3 OH2  OT    -0.834000       15.9994           0
   38399 WT2  4821 TIP3 H1   HT     0.417000        1.0080           0
   38400 WT2  4821 TIP3 H2   HT     0.417000        1.0080           0
   38401 WT2  4822 TIP3 OH2  OT    -0.834000       15.9994           0
   38402 WT2  4822 TIP3 H1   HT     0.417000        1.0080           0
   38403 WT2  4822 TIP3 H2   HT     0.417000        1.0080           0
   38404 WT2  4824 TIP3 OH2  OT    -0.834000       15.9994           0
   38405 WT2  4824 TIP3 H1   HT     0.417000        1.0080           0
   38406 WT2  4824 TIP3 H2   HT     0.417000        1.0080           0
   38407 WT2  4825 TIP3 OH2  OT    -0.834000       15.9994           0
   38408 WT2  4825 TIP3 H1   HT     0.417000        1.0080           0
   38409 WT2  4825 TIP3 H2   HT     0.417000        1.0080           0
   38410 WT2  4832 TIP3 OH2  OT    -0.834000       15.9994           0
   38411 WT2  4832 TIP3 H1   HT     0.417000        1.0080           0
   38412 WT2  4832 TIP3 H2   HT     0.417000        1.0080           0
   38413 WT2  4833 TIP3 OH2  OT    -0.834000       15.9994           0
   38414 WT2  4833 TIP3 H1   HT     0.417000        1.0080           0
   38415 WT2  4833 TIP3 H2   HT     0.417000        1.0080           0
   38416 WT2  4834 TIP3 OH2  OT    -0.834000       15.9994           0
   38417 WT2  4834 TIP3 H1   HT     0.417000        1.0080           0
   38418 WT2  4834 TIP3 H2   HT     0.417000        1.0080           0
   38419 WT2  4835 TIP3 OH2  OT    -0.834000       15.9994           0
   38420 WT2  4835 TIP3 H1   HT     0.417000        1.0080           0
   38421 WT2  4835 TIP3 H2   HT     0.417000        1.0080           0
   38422 WT2  4836 TIP3 OH2  OT    -0.834000       15.9994           0
   38423 WT2  4836 TIP3 H1   HT     0.417000        1.0080           0
   38424 WT2  4836 TIP3 H2   HT     0.417000        1.0080           0
   38425 WT2  4837 TIP3 OH2  OT    -0.834000       15.9994           0
   38426 WT2  4837 TIP3 H1   HT     0.417000        1.0080           0
   38427 WT2  4837 TIP3 H2   HT     0.417000        1.0080           0
   38428 WT2  4838 TIP3 OH2  OT    -0.834000       15.9994           0
   38429 WT2  4838 TIP3 H1   HT     0.417000        1.0080           0
   38430 WT2  4838 TIP3 H2   HT     0.417000        1.0080           0
   38431 WT2  4839 TIP3 OH2  OT    -0.834000       15.9994           0
   38432 WT2  4839 TIP3 H1   HT     0.417000        1.0080           0
   38433 WT2  4839 TIP3 H2   HT     0.417000        1.0080           0
   38434 WT2  4840 TIP3 OH2  OT    -0.834000       15.9994           0
   38435 WT2  4840 TIP3 H1   HT     0.417000        1.0080           0
   38436 WT2  4840 TIP3 H2   HT     0.417000        1.0080           0
   38437 WT2  4841 TIP3 OH2  OT    -0.834000       15.9994           0
   38438 WT2  4841 TIP3 H1   HT     0.417000        1.0080           0
   38439 WT2  4841 TIP3 H2   HT     0.417000        1.0080           0
   38440 WT2  4842 TIP3 OH2  OT    -0.834000       15.9994           0
   38441 WT2  4842 TIP3 H1   HT     0.417000        1.0080           0
   38442 WT2  4842 TIP3 H2   HT     0.417000        1.0080           0
   38443 WT2  4843 TIP3 OH2  OT    -0.834000       15.9994           0
   38444 WT2  4843 TIP3 H1   HT     0.417000        1.0080           0
   38445 WT2  4843 TIP3 H2   HT     0.417000        1.0080           0
   38446 WT2  4844 TIP3 OH2  OT    -0.834000       15.9994           0
   38447 WT2  4844 TIP3 H1   HT     0.417000        1.0080           0
   38448 WT2  4844 TIP3 H2   HT     0.417000        1.0080           0
   38449 WT2  4849 TIP3 OH2  OT    -0.834000       15.9994           0
   38450 WT2  4849 TIP3 H1   HT     0.417000        1.0080           0
   38451 WT2  4849 TIP3 H2   HT     0.417000        1.0080           0
   38452 WT2  4851 TIP3 OH2  OT    -0.834000       15.9994           0
   38453 WT2  4851 TIP3 H1   HT     0.417000        1.0080           0
   38454 WT2  4851 TIP3 H2   HT     0.417000        1.0080           0
   38455 WT2  4852 TIP3 OH2  OT    -0.834000       15.9994           0
   38456 WT2  4852 TIP3 H1   HT     0.417000        1.0080           0
   38457 WT2  4852 TIP3 H2   HT     0.417000        1.0080           0
   38458 WT2  4853 TIP3 OH2  OT    -0.834000       15.9994           0
   38459 WT2  4853 TIP3 H1   HT     0.417000        1.0080           0
   38460 WT2  4853 TIP3 H2   HT     0.417000        1.0080           0
   38461 WT2  4854 TIP3 OH2  OT    -0.834000       15.9994           0
   38462 WT2  4854 TIP3 H1   HT     0.417000        1.0080           0
   38463 WT2  4854 TIP3 H2   HT     0.417000        1.0080           0
   38464 WT2  4855 TIP3 OH2  OT    -0.834000       15.9994           0
   38465 WT2  4855 TIP3 H1   HT     0.417000        1.0080           0
   38466 WT2  4855 TIP3 H2   HT     0.417000        1.0080           0
   38467 WT2  4856 TIP3 OH2  OT    -0.834000       15.9994           0
   38468 WT2  4856 TIP3 H1   HT     0.417000        1.0080           0
   38469 WT2  4856 TIP3 H2   HT     0.417000        1.0080           0
   38470 WT2  4857 TIP3 OH2  OT    -0.834000       15.9994           0
   38471 WT2  4857 TIP3 H1   HT     0.417000        1.0080           0
   38472 WT2  4857 TIP3 H2   HT     0.417000        1.0080           0
   38473 WT2  4858 TIP3 OH2  OT    -0.834000       15.9994           0
   38474 WT2  4858 TIP3 H1   HT     0.417000        1.0080           0
   38475 WT2  4858 TIP3 H2   HT     0.417000        1.0080           0
   38476 WT2  4859 TIP3 OH2  OT    -0.834000       15.9994           0
   38477 WT2  4859 TIP3 H1   HT     0.417000        1.0080           0
   38478 WT2  4859 TIP3 H2   HT     0.417000        1.0080           0
   38479 WT2  4860 TIP3 OH2  OT    -0.834000       15.9994           0
   38480 WT2  4860 TIP3 H1   HT     0.417000        1.0080           0
   38481 WT2  4860 TIP3 H2   HT     0.417000        1.0080           0
   38482 WT2  4861 TIP3 OH2  OT    -0.834000       15.9994           0
   38483 WT2  4861 TIP3 H1   HT     0.417000        1.0080           0
   38484 WT2  4861 TIP3 H2   HT     0.417000        1.0080           0
   38485 WT2  4862 TIP3 OH2  OT    -0.834000       15.9994           0
   38486 WT2  4862 TIP3 H1   HT     0.417000        1.0080           0
   38487 WT2  4862 TIP3 H2   HT     0.417000        1.0080           0
   38488 WT2  4863 TIP3 OH2  OT    -0.834000       15.9994           0
   38489 WT2  4863 TIP3 H1   HT     0.417000        1.0080           0
   38490 WT2  4863 TIP3 H2   HT     0.417000        1.0080           0
   38491 WT2  4864 TIP3 OH2  OT    -0.834000       15.9994           0
   38492 WT2  4864 TIP3 H1   HT     0.417000        1.0080           0
   38493 WT2  4864 TIP3 H2   HT     0.417000        1.0080           0
   38494 WT2  4865 TIP3 OH2  OT    -0.834000       15.9994           0
   38495 WT2  4865 TIP3 H1   HT     0.417000        1.0080           0
   38496 WT2  4865 TIP3 H2   HT     0.417000        1.0080           0
   38497 WT2  4866 TIP3 OH2  OT    -0.834000       15.9994           0
   38498 WT2  4866 TIP3 H1   HT     0.417000        1.0080           0
   38499 WT2  4866 TIP3 H2   HT     0.417000        1.0080           0
   38500 WT2  4867 TIP3 OH2  OT    -0.834000       15.9994           0
   38501 WT2  4867 TIP3 H1   HT     0.417000        1.0080           0
   38502 WT2  4867 TIP3 H2   HT     0.417000        1.0080           0
   38503 WT2  4872 TIP3 OH2  OT    -0.834000       15.9994           0
   38504 WT2  4872 TIP3 H1   HT     0.417000        1.0080           0
   38505 WT2  4872 TIP3 H2   HT     0.417000        1.0080           0
   38506 WT2  4875 TIP3 OH2  OT    -0.834000       15.9994           0
   38507 WT2  4875 TIP3 H1   HT     0.417000        1.0080           0
   38508 WT2  4875 TIP3 H2   HT     0.417000        1.0080           0
   38509 WT2  4876 TIP3 OH2  OT    -0.834000       15.9994           0
   38510 WT2  4876 TIP3 H1   HT     0.417000        1.0080           0
   38511 WT2  4876 TIP3 H2   HT     0.417000        1.0080           0
   38512 WT2  4877 TIP3 OH2  OT    -0.834000       15.9994           0
   38513 WT2  4877 TIP3 H1   HT     0.417000        1.0080           0
   38514 WT2  4877 TIP3 H2   HT     0.417000        1.0080           0
   38515 WT2  4878 TIP3 OH2  OT    -0.834000       15.9994           0
   38516 WT2  4878 TIP3 H1   HT     0.417000        1.0080           0
   38517 WT2  4878 TIP3 H2   HT     0.417000        1.0080           0
   38518 WT2  4879 TIP3 OH2  OT    -0.834000       15.9994           0
   38519 WT2  4879 TIP3 H1   HT     0.417000        1.0080           0
   38520 WT2  4879 TIP3 H2   HT     0.417000        1.0080           0
   38521 WT2  4880 TIP3 OH2  OT    -0.834000       15.9994           0
   38522 WT2  4880 TIP3 H1   HT     0.417000        1.0080           0
   38523 WT2  4880 TIP3 H2   HT     0.417000        1.0080           0
   38524 WT2  4881 TIP3 OH2  OT    -0.834000       15.9994           0
   38525 WT2  4881 TIP3 H1   HT     0.417000        1.0080           0
   38526 WT2  4881 TIP3 H2   HT     0.417000        1.0080           0
   38527 WT2  4882 TIP3 OH2  OT    -0.834000       15.9994           0
   38528 WT2  4882 TIP3 H1   HT     0.417000        1.0080           0
   38529 WT2  4882 TIP3 H2   HT     0.417000        1.0080           0
   38530 WT2  4883 TIP3 OH2  OT    -0.834000       15.9994           0
   38531 WT2  4883 TIP3 H1   HT     0.417000        1.0080           0
   38532 WT2  4883 TIP3 H2   HT     0.417000        1.0080           0
   38533 WT2  4884 TIP3 OH2  OT    -0.834000       15.9994           0
   38534 WT2  4884 TIP3 H1   HT     0.417000        1.0080           0
   38535 WT2  4884 TIP3 H2   HT     0.417000        1.0080           0
   38536 WT2  4885 TIP3 OH2  OT    -0.834000       15.9994           0
   38537 WT2  4885 TIP3 H1   HT     0.417000        1.0080           0
   38538 WT2  4885 TIP3 H2   HT     0.417000        1.0080           0
   38539 WT2  4887 TIP3 OH2  OT    -0.834000       15.9994           0
   38540 WT2  4887 TIP3 H1   HT     0.417000        1.0080           0
   38541 WT2  4887 TIP3 H2   HT     0.417000        1.0080           0
   38542 WT2  4890 TIP3 OH2  OT    -0.834000       15.9994           0
   38543 WT2  4890 TIP3 H1   HT     0.417000        1.0080           0
   38544 WT2  4890 TIP3 H2   HT     0.417000        1.0080           0
   38545 WT2  4893 TIP3 OH2  OT    -0.834000       15.9994           0
   38546 WT2  4893 TIP3 H1   HT     0.417000        1.0080           0
   38547 WT2  4893 TIP3 H2   HT     0.417000        1.0080           0
   38548 WT2  4896 TIP3 OH2  OT    -0.834000       15.9994           0
   38549 WT2  4896 TIP3 H1   HT     0.417000        1.0080           0
   38550 WT2  4896 TIP3 H2   HT     0.417000        1.0080           0
   38551 WT2  4897 TIP3 OH2  OT    -0.834000       15.9994           0
   38552 WT2  4897 TIP3 H1   HT     0.417000        1.0080           0
   38553 WT2  4897 TIP3 H2   HT     0.417000        1.0080           0
   38554 WT2  4898 TIP3 OH2  OT    -0.834000       15.9994           0
   38555 WT2  4898 TIP3 H1   HT     0.417000        1.0080           0
   38556 WT2  4898 TIP3 H2   HT     0.417000        1.0080           0
   38557 WT2  4899 TIP3 OH2  OT    -0.834000       15.9994           0
   38558 WT2  4899 TIP3 H1   HT     0.417000        1.0080           0
   38559 WT2  4899 TIP3 H2   HT     0.417000        1.0080           0
   38560 WT2  4900 TIP3 OH2  OT    -0.834000       15.9994           0
   38561 WT2  4900 TIP3 H1   HT     0.417000        1.0080           0
   38562 WT2  4900 TIP3 H2   HT     0.417000        1.0080           0
   38563 WT2  4901 TIP3 OH2  OT    -0.834000       15.9994           0
   38564 WT2  4901 TIP3 H1   HT     0.417000        1.0080           0
   38565 WT2  4901 TIP3 H2   HT     0.417000        1.0080           0
   38566 WT2  4902 TIP3 OH2  OT    -0.834000       15.9994           0
   38567 WT2  4902 TIP3 H1   HT     0.417000        1.0080           0
   38568 WT2  4902 TIP3 H2   HT     0.417000        1.0080           0
   38569 WT2  4903 TIP3 OH2  OT    -0.834000       15.9994           0
   38570 WT2  4903 TIP3 H1   HT     0.417000        1.0080           0
   38571 WT2  4903 TIP3 H2   HT     0.417000        1.0080           0
   38572 WT2  4904 TIP3 OH2  OT    -0.834000       15.9994           0
   38573 WT2  4904 TIP3 H1   HT     0.417000        1.0080           0
   38574 WT2  4904 TIP3 H2   HT     0.417000        1.0080           0
   38575 WT2  4905 TIP3 OH2  OT    -0.834000       15.9994           0
   38576 WT2  4905 TIP3 H1   HT     0.417000        1.0080           0
   38577 WT2  4905 TIP3 H2   HT     0.417000        1.0080           0
   38578 WT2  4906 TIP3 OH2  OT    -0.834000       15.9994           0
   38579 WT2  4906 TIP3 H1   HT     0.417000        1.0080           0
   38580 WT2  4906 TIP3 H2   HT     0.417000        1.0080           0
   38581 WT2  4908 TIP3 OH2  OT    -0.834000       15.9994           0
   38582 WT2  4908 TIP3 H1   HT     0.417000        1.0080           0
   38583 WT2  4908 TIP3 H2   HT     0.417000        1.0080           0
   38584 WT2  4911 TIP3 OH2  OT    -0.834000       15.9994           0
   38585 WT2  4911 TIP3 H1   HT     0.417000        1.0080           0
   38586 WT2  4911 TIP3 H2   HT     0.417000        1.0080           0
   38587 WT2  4914 TIP3 OH2  OT    -0.834000       15.9994           0
   38588 WT2  4914 TIP3 H1   HT     0.417000        1.0080           0
   38589 WT2  4914 TIP3 H2   HT     0.417000        1.0080           0
   38590 WT2  4915 TIP3 OH2  OT    -0.834000       15.9994           0
   38591 WT2  4915 TIP3 H1   HT     0.417000        1.0080           0
   38592 WT2  4915 TIP3 H2   HT     0.417000        1.0080           0
   38593 WT2  4916 TIP3 OH2  OT    -0.834000       15.9994           0
   38594 WT2  4916 TIP3 H1   HT     0.417000        1.0080           0
   38595 WT2  4916 TIP3 H2   HT     0.417000        1.0080           0
   38596 WT2  4918 TIP3 OH2  OT    -0.834000       15.9994           0
   38597 WT2  4918 TIP3 H1   HT     0.417000        1.0080           0
   38598 WT2  4918 TIP3 H2   HT     0.417000        1.0080           0
   38599 WT2  4919 TIP3 OH2  OT    -0.834000       15.9994           0
   38600 WT2  4919 TIP3 H1   HT     0.417000        1.0080           0
   38601 WT2  4919 TIP3 H2   HT     0.417000        1.0080           0
   38602 WT2  4920 TIP3 OH2  OT    -0.834000       15.9994           0
   38603 WT2  4920 TIP3 H1   HT     0.417000        1.0080           0
   38604 WT2  4920 TIP3 H2   HT     0.417000        1.0080           0
   38605 WT2  4921 TIP3 OH2  OT    -0.834000       15.9994           0
   38606 WT2  4921 TIP3 H1   HT     0.417000        1.0080           0
   38607 WT2  4921 TIP3 H2   HT     0.417000        1.0080           0
   38608 WT2  4922 TIP3 OH2  OT    -0.834000       15.9994           0
   38609 WT2  4922 TIP3 H1   HT     0.417000        1.0080           0
   38610 WT2  4922 TIP3 H2   HT     0.417000        1.0080           0
   38611 WT2  4923 TIP3 OH2  OT    -0.834000       15.9994           0
   38612 WT2  4923 TIP3 H1   HT     0.417000        1.0080           0
   38613 WT2  4923 TIP3 H2   HT     0.417000        1.0080           0
   38614 WT2  4924 TIP3 OH2  OT    -0.834000       15.9994           0
   38615 WT2  4924 TIP3 H1   HT     0.417000        1.0080           0
   38616 WT2  4924 TIP3 H2   HT     0.417000        1.0080           0
   38617 WT2  4925 TIP3 OH2  OT    -0.834000       15.9994           0
   38618 WT2  4925 TIP3 H1   HT     0.417000        1.0080           0
   38619 WT2  4925 TIP3 H2   HT     0.417000        1.0080           0
   38620 WT2  4927 TIP3 OH2  OT    -0.834000       15.9994           0
   38621 WT2  4927 TIP3 H1   HT     0.417000        1.0080           0
   38622 WT2  4927 TIP3 H2   HT     0.417000        1.0080           0
   38623 WT2  4930 TIP3 OH2  OT    -0.834000       15.9994           0
   38624 WT2  4930 TIP3 H1   HT     0.417000        1.0080           0
   38625 WT2  4930 TIP3 H2   HT     0.417000        1.0080           0
   38626 WT2  4933 TIP3 OH2  OT    -0.834000       15.9994           0
   38627 WT2  4933 TIP3 H1   HT     0.417000        1.0080           0
   38628 WT2  4933 TIP3 H2   HT     0.417000        1.0080           0
   38629 WT2  4934 TIP3 OH2  OT    -0.834000       15.9994           0
   38630 WT2  4934 TIP3 H1   HT     0.417000        1.0080           0
   38631 WT2  4934 TIP3 H2   HT     0.417000        1.0080           0
   38632 WT2  4935 TIP3 OH2  OT    -0.834000       15.9994           0
   38633 WT2  4935 TIP3 H1   HT     0.417000        1.0080           0
   38634 WT2  4935 TIP3 H2   HT     0.417000        1.0080           0
   38635 WT2  4936 TIP3 OH2  OT    -0.834000       15.9994           0
   38636 WT2  4936 TIP3 H1   HT     0.417000        1.0080           0
   38637 WT2  4936 TIP3 H2   HT     0.417000        1.0080           0
   38638 WT2  4937 TIP3 OH2  OT    -0.834000       15.9994           0
   38639 WT2  4937 TIP3 H1   HT     0.417000        1.0080           0
   38640 WT2  4937 TIP3 H2   HT     0.417000        1.0080           0
   38641 WT2  4939 TIP3 OH2  OT    -0.834000       15.9994           0
   38642 WT2  4939 TIP3 H1   HT     0.417000        1.0080           0
   38643 WT2  4939 TIP3 H2   HT     0.417000        1.0080           0
   38644 WT2  4940 TIP3 OH2  OT    -0.834000       15.9994           0
   38645 WT2  4940 TIP3 H1   HT     0.417000        1.0080           0
   38646 WT2  4940 TIP3 H2   HT     0.417000        1.0080           0
   38647 WT2  4941 TIP3 OH2  OT    -0.834000       15.9994           0
   38648 WT2  4941 TIP3 H1   HT     0.417000        1.0080           0
   38649 WT2  4941 TIP3 H2   HT     0.417000        1.0080           0
   38650 WT2  4942 TIP3 OH2  OT    -0.834000       15.9994           0
   38651 WT2  4942 TIP3 H1   HT     0.417000        1.0080           0
   38652 WT2  4942 TIP3 H2   HT     0.417000        1.0080           0
   38653 WT2  4944 TIP3 OH2  OT    -0.834000       15.9994           0
   38654 WT2  4944 TIP3 H1   HT     0.417000        1.0080           0
   38655 WT2  4944 TIP3 H2   HT     0.417000        1.0080           0
   38656 WT2  4945 TIP3 OH2  OT    -0.834000       15.9994           0
   38657 WT2  4945 TIP3 H1   HT     0.417000        1.0080           0
   38658 WT2  4945 TIP3 H2   HT     0.417000        1.0080           0
   38659 WT2  4946 TIP3 OH2  OT    -0.834000       15.9994           0
   38660 WT2  4946 TIP3 H1   HT     0.417000        1.0080           0
   38661 WT2  4946 TIP3 H2   HT     0.417000        1.0080           0
   38662 WT2  4947 TIP3 OH2  OT    -0.834000       15.9994           0
   38663 WT2  4947 TIP3 H1   HT     0.417000        1.0080           0
   38664 WT2  4947 TIP3 H2   HT     0.417000        1.0080           0
   38665 WT2  4956 TIP3 OH2  OT    -0.834000       15.9994           0
   38666 WT2  4956 TIP3 H1   HT     0.417000        1.0080           0
   38667 WT2  4956 TIP3 H2   HT     0.417000        1.0080           0
   38668 WT2  4957 TIP3 OH2  OT    -0.834000       15.9994           0
   38669 WT2  4957 TIP3 H1   HT     0.417000        1.0080           0
   38670 WT2  4957 TIP3 H2   HT     0.417000        1.0080           0
   38671 WT2  4961 TIP3 OH2  OT    -0.834000       15.9994           0
   38672 WT2  4961 TIP3 H1   HT     0.417000        1.0080           0
   38673 WT2  4961 TIP3 H2   HT     0.417000        1.0080           0
   38674 WT2  4962 TIP3 OH2  OT    -0.834000       15.9994           0
   38675 WT2  4962 TIP3 H1   HT     0.417000        1.0080           0
   38676 WT2  4962 TIP3 H2   HT     0.417000        1.0080           0
   38677 WT2  4963 TIP3 OH2  OT    -0.834000       15.9994           0
   38678 WT2  4963 TIP3 H1   HT     0.417000        1.0080           0
   38679 WT2  4963 TIP3 H2   HT     0.417000        1.0080           0
   38680 WT2  4964 TIP3 OH2  OT    -0.834000       15.9994           0
   38681 WT2  4964 TIP3 H1   HT     0.417000        1.0080           0
   38682 WT2  4964 TIP3 H2   HT     0.417000        1.0080           0
   38683 WT2  4965 TIP3 OH2  OT    -0.834000       15.9994           0
   38684 WT2  4965 TIP3 H1   HT     0.417000        1.0080           0
   38685 WT2  4965 TIP3 H2   HT     0.417000        1.0080           0
   38686 WT2  4966 TIP3 OH2  OT    -0.834000       15.9994           0
   38687 WT2  4966 TIP3 H1   HT     0.417000        1.0080           0
   38688 WT2  4966 TIP3 H2   HT     0.417000        1.0080           0
   38689 WT2  4967 TIP3 OH2  OT    -0.834000       15.9994           0
   38690 WT2  4967 TIP3 H1   HT     0.417000        1.0080           0
   38691 WT2  4967 TIP3 H2   HT     0.417000        1.0080           0
   38692 WT2  4968 TIP3 OH2  OT    -0.834000       15.9994           0
   38693 WT2  4968 TIP3 H1   HT     0.417000        1.0080           0
   38694 WT2  4968 TIP3 H2   HT     0.417000        1.0080           0
   38695 WT2  4971 TIP3 OH2  OT    -0.834000       15.9994           0
   38696 WT2  4971 TIP3 H1   HT     0.417000        1.0080           0
   38697 WT2  4971 TIP3 H2   HT     0.417000        1.0080           0
   38698 WT2  4978 TIP3 OH2  OT    -0.834000       15.9994           0
   38699 WT2  4978 TIP3 H1   HT     0.417000        1.0080           0
   38700 WT2  4978 TIP3 H2   HT     0.417000        1.0080           0
   38701 WT2  4979 TIP3 OH2  OT    -0.834000       15.9994           0
   38702 WT2  4979 TIP3 H1   HT     0.417000        1.0080           0
   38703 WT2  4979 TIP3 H2   HT     0.417000        1.0080           0
   38704 WT2  4980 TIP3 OH2  OT    -0.834000       15.9994           0
   38705 WT2  4980 TIP3 H1   HT     0.417000        1.0080           0
   38706 WT2  4980 TIP3 H2   HT     0.417000        1.0080           0
   38707 WT2  4981 TIP3 OH2  OT    -0.834000       15.9994           0
   38708 WT2  4981 TIP3 H1   HT     0.417000        1.0080           0
   38709 WT2  4981 TIP3 H2   HT     0.417000        1.0080           0
   38710 WT2  4982 TIP3 OH2  OT    -0.834000       15.9994           0
   38711 WT2  4982 TIP3 H1   HT     0.417000        1.0080           0
   38712 WT2  4982 TIP3 H2   HT     0.417000        1.0080           0
   38713 WT2  4983 TIP3 OH2  OT    -0.834000       15.9994           0
   38714 WT2  4983 TIP3 H1   HT     0.417000        1.0080           0
   38715 WT2  4983 TIP3 H2   HT     0.417000        1.0080           0
   38716 WT2  4984 TIP3 OH2  OT    -0.834000       15.9994           0
   38717 WT2  4984 TIP3 H1   HT     0.417000        1.0080           0
   38718 WT2  4984 TIP3 H2   HT     0.417000        1.0080           0
   38719 WT2  4985 TIP3 OH2  OT    -0.834000       15.9994           0
   38720 WT2  4985 TIP3 H1   HT     0.417000        1.0080           0
   38721 WT2  4985 TIP3 H2   HT     0.417000        1.0080           0
   38722 WT2  4986 TIP3 OH2  OT    -0.834000       15.9994           0
   38723 WT2  4986 TIP3 H1   HT     0.417000        1.0080           0
   38724 WT2  4986 TIP3 H2   HT     0.417000        1.0080           0
   38725 WT2  4987 TIP3 OH2  OT    -0.834000       15.9994           0
   38726 WT2  4987 TIP3 H1   HT     0.417000        1.0080           0
   38727 WT2  4987 TIP3 H2   HT     0.417000        1.0080           0
   38728 WT2  4988 TIP3 OH2  OT    -0.834000       15.9994           0
   38729 WT2  4988 TIP3 H1   HT     0.417000        1.0080           0
   38730 WT2  4988 TIP3 H2   HT     0.417000        1.0080           0
   38731 WT2  4993 TIP3 OH2  OT    -0.834000       15.9994           0
   38732 WT2  4993 TIP3 H1   HT     0.417000        1.0080           0
   38733 WT2  4993 TIP3 H2   HT     0.417000        1.0080           0
   38734 WT2  4996 TIP3 OH2  OT    -0.834000       15.9994           0
   38735 WT2  4996 TIP3 H1   HT     0.417000        1.0080           0
   38736 WT2  4996 TIP3 H2   HT     0.417000        1.0080           0
   38737 WT2  4998 TIP3 OH2  OT    -0.834000       15.9994           0
   38738 WT2  4998 TIP3 H1   HT     0.417000        1.0080           0
   38739 WT2  4998 TIP3 H2   HT     0.417000        1.0080           0
   38740 WT2  4999 TIP3 OH2  OT    -0.834000       15.9994           0
   38741 WT2  4999 TIP3 H1   HT     0.417000        1.0080           0
   38742 WT2  4999 TIP3 H2   HT     0.417000        1.0080           0
   38743 WT2  5000 TIP3 OH2  OT    -0.834000       15.9994           0
   38744 WT2  5000 TIP3 H1   HT     0.417000        1.0080           0
   38745 WT2  5000 TIP3 H2   HT     0.417000        1.0080           0
   38746 WT2  5001 TIP3 OH2  OT    -0.834000       15.9994           0
   38747 WT2  5001 TIP3 H1   HT     0.417000        1.0080           0
   38748 WT2  5001 TIP3 H2   HT     0.417000        1.0080           0
   38749 WT2  5002 TIP3 OH2  OT    -0.834000       15.9994           0
   38750 WT2  5002 TIP3 H1   HT     0.417000        1.0080           0
   38751 WT2  5002 TIP3 H2   HT     0.417000        1.0080           0
   38752 WT2  5003 TIP3 OH2  OT    -0.834000       15.9994           0
   38753 WT2  5003 TIP3 H1   HT     0.417000        1.0080           0
   38754 WT2  5003 TIP3 H2   HT     0.417000        1.0080           0
   38755 WT2  5004 TIP3 OH2  OT    -0.834000       15.9994           0
   38756 WT2  5004 TIP3 H1   HT     0.417000        1.0080           0
   38757 WT2  5004 TIP3 H2   HT     0.417000        1.0080           0
   38758 WT2  5005 TIP3 OH2  OT    -0.834000       15.9994           0
   38759 WT2  5005 TIP3 H1   HT     0.417000        1.0080           0
   38760 WT2  5005 TIP3 H2   HT     0.417000        1.0080           0
   38761 WT2  5006 TIP3 OH2  OT    -0.834000       15.9994           0
   38762 WT2  5006 TIP3 H1   HT     0.417000        1.0080           0
   38763 WT2  5006 TIP3 H2   HT     0.417000        1.0080           0
   38764 WT2  5007 TIP3 OH2  OT    -0.834000       15.9994           0
   38765 WT2  5007 TIP3 H1   HT     0.417000        1.0080           0
   38766 WT2  5007 TIP3 H2   HT     0.417000        1.0080           0
   38767 WT2  5008 TIP3 OH2  OT    -0.834000       15.9994           0
   38768 WT2  5008 TIP3 H1   HT     0.417000        1.0080           0
   38769 WT2  5008 TIP3 H2   HT     0.417000        1.0080           0
   38770 WT2  5009 TIP3 OH2  OT    -0.834000       15.9994           0
   38771 WT2  5009 TIP3 H1   HT     0.417000        1.0080           0
   38772 WT2  5009 TIP3 H2   HT     0.417000        1.0080           0
   38773 WT2  5010 TIP3 OH2  OT    -0.834000       15.9994           0
   38774 WT2  5010 TIP3 H1   HT     0.417000        1.0080           0
   38775 WT2  5010 TIP3 H2   HT     0.417000        1.0080           0
   38776 WT2  5012 TIP3 OH2  OT    -0.834000       15.9994           0
   38777 WT2  5012 TIP3 H1   HT     0.417000        1.0080           0
   38778 WT2  5012 TIP3 H2   HT     0.417000        1.0080           0
   38779 WT2  5013 TIP3 OH2  OT    -0.834000       15.9994           0
   38780 WT2  5013 TIP3 H1   HT     0.417000        1.0080           0
   38781 WT2  5013 TIP3 H2   HT     0.417000        1.0080           0
   38782 WT2  5019 TIP3 OH2  OT    -0.834000       15.9994           0
   38783 WT2  5019 TIP3 H1   HT     0.417000        1.0080           0
   38784 WT2  5019 TIP3 H2   HT     0.417000        1.0080           0
   38785 WT2  5021 TIP3 OH2  OT    -0.834000       15.9994           0
   38786 WT2  5021 TIP3 H1   HT     0.417000        1.0080           0
   38787 WT2  5021 TIP3 H2   HT     0.417000        1.0080           0
   38788 WT2  5023 TIP3 OH2  OT    -0.834000       15.9994           0
   38789 WT2  5023 TIP3 H1   HT     0.417000        1.0080           0
   38790 WT2  5023 TIP3 H2   HT     0.417000        1.0080           0
   38791 WT2  5024 TIP3 OH2  OT    -0.834000       15.9994           0
   38792 WT2  5024 TIP3 H1   HT     0.417000        1.0080           0
   38793 WT2  5024 TIP3 H2   HT     0.417000        1.0080           0
   38794 WT2  5025 TIP3 OH2  OT    -0.834000       15.9994           0
   38795 WT2  5025 TIP3 H1   HT     0.417000        1.0080           0
   38796 WT2  5025 TIP3 H2   HT     0.417000        1.0080           0
   38797 WT2  5026 TIP3 OH2  OT    -0.834000       15.9994           0
   38798 WT2  5026 TIP3 H1   HT     0.417000        1.0080           0
   38799 WT2  5026 TIP3 H2   HT     0.417000        1.0080           0
   38800 WT2  5027 TIP3 OH2  OT    -0.834000       15.9994           0
   38801 WT2  5027 TIP3 H1   HT     0.417000        1.0080           0
   38802 WT2  5027 TIP3 H2   HT     0.417000        1.0080           0
   38803 WT2  5028 TIP3 OH2  OT    -0.834000       15.9994           0
   38804 WT2  5028 TIP3 H1   HT     0.417000        1.0080           0
   38805 WT2  5028 TIP3 H2   HT     0.417000        1.0080           0
   38806 WT2  5029 TIP3 OH2  OT    -0.834000       15.9994           0
   38807 WT2  5029 TIP3 H1   HT     0.417000        1.0080           0
   38808 WT2  5029 TIP3 H2   HT     0.417000        1.0080           0
   38809 WT2  5030 TIP3 OH2  OT    -0.834000       15.9994           0
   38810 WT2  5030 TIP3 H1   HT     0.417000        1.0080           0
   38811 WT2  5030 TIP3 H2   HT     0.417000        1.0080           0
   38812 WT2  5040 TIP3 OH2  OT    -0.834000       15.9994           0
   38813 WT2  5040 TIP3 H1   HT     0.417000        1.0080           0
   38814 WT2  5040 TIP3 H2   HT     0.417000        1.0080           0
   38815 WT2  5042 TIP3 OH2  OT    -0.834000       15.9994           0
   38816 WT2  5042 TIP3 H1   HT     0.417000        1.0080           0
   38817 WT2  5042 TIP3 H2   HT     0.417000        1.0080           0
   38818 WT2  5043 TIP3 OH2  OT    -0.834000       15.9994           0
   38819 WT2  5043 TIP3 H1   HT     0.417000        1.0080           0
   38820 WT2  5043 TIP3 H2   HT     0.417000        1.0080           0
   38821 WT2  5044 TIP3 OH2  OT    -0.834000       15.9994           0
   38822 WT2  5044 TIP3 H1   HT     0.417000        1.0080           0
   38823 WT2  5044 TIP3 H2   HT     0.417000        1.0080           0
   38824 WT2  5045 TIP3 OH2  OT    -0.834000       15.9994           0
   38825 WT2  5045 TIP3 H1   HT     0.417000        1.0080           0
   38826 WT2  5045 TIP3 H2   HT     0.417000        1.0080           0
   38827 WT2  5046 TIP3 OH2  OT    -0.834000       15.9994           0
   38828 WT2  5046 TIP3 H1   HT     0.417000        1.0080           0
   38829 WT2  5046 TIP3 H2   HT     0.417000        1.0080           0
   38830 WT2  5047 TIP3 OH2  OT    -0.834000       15.9994           0
   38831 WT2  5047 TIP3 H1   HT     0.417000        1.0080           0
   38832 WT2  5047 TIP3 H2   HT     0.417000        1.0080           0
   38833 WT2  5048 TIP3 OH2  OT    -0.834000       15.9994           0
   38834 WT2  5048 TIP3 H1   HT     0.417000        1.0080           0
   38835 WT2  5048 TIP3 H2   HT     0.417000        1.0080           0
   38836 WT2  5049 TIP3 OH2  OT    -0.834000       15.9994           0
   38837 WT2  5049 TIP3 H1   HT     0.417000        1.0080           0
   38838 WT2  5049 TIP3 H2   HT     0.417000        1.0080           0
   38839 WT2  5050 TIP3 OH2  OT    -0.834000       15.9994           0
   38840 WT2  5050 TIP3 H1   HT     0.417000        1.0080           0
   38841 WT2  5050 TIP3 H2   HT     0.417000        1.0080           0
   38842 WT2  5051 TIP3 OH2  OT    -0.834000       15.9994           0
   38843 WT2  5051 TIP3 H1   HT     0.417000        1.0080           0
   38844 WT2  5051 TIP3 H2   HT     0.417000        1.0080           0
   38845 WT2  5053 TIP3 OH2  OT    -0.834000       15.9994           0
   38846 WT2  5053 TIP3 H1   HT     0.417000        1.0080           0
   38847 WT2  5053 TIP3 H2   HT     0.417000        1.0080           0
   38848 WT2  5055 TIP3 OH2  OT    -0.834000       15.9994           0
   38849 WT2  5055 TIP3 H1   HT     0.417000        1.0080           0
   38850 WT2  5055 TIP3 H2   HT     0.417000        1.0080           0
   38851 WT2  5056 TIP3 OH2  OT    -0.834000       15.9994           0
   38852 WT2  5056 TIP3 H1   HT     0.417000        1.0080           0
   38853 WT2  5056 TIP3 H2   HT     0.417000        1.0080           0
   38854 WT2  5060 TIP3 OH2  OT    -0.834000       15.9994           0
   38855 WT2  5060 TIP3 H1   HT     0.417000        1.0080           0
   38856 WT2  5060 TIP3 H2   HT     0.417000        1.0080           0
   38857 WT2  5061 TIP3 OH2  OT    -0.834000       15.9994           0
   38858 WT2  5061 TIP3 H1   HT     0.417000        1.0080           0
   38859 WT2  5061 TIP3 H2   HT     0.417000        1.0080           0
   38860 WT2  5062 TIP3 OH2  OT    -0.834000       15.9994           0
   38861 WT2  5062 TIP3 H1   HT     0.417000        1.0080           0
   38862 WT2  5062 TIP3 H2   HT     0.417000        1.0080           0
   38863 WT2  5063 TIP3 OH2  OT    -0.834000       15.9994           0
   38864 WT2  5063 TIP3 H1   HT     0.417000        1.0080           0
   38865 WT2  5063 TIP3 H2   HT     0.417000        1.0080           0
   38866 WT2  5064 TIP3 OH2  OT    -0.834000       15.9994           0
   38867 WT2  5064 TIP3 H1   HT     0.417000        1.0080           0
   38868 WT2  5064 TIP3 H2   HT     0.417000        1.0080           0
   38869 WT2  5065 TIP3 OH2  OT    -0.834000       15.9994           0
   38870 WT2  5065 TIP3 H1   HT     0.417000        1.0080           0
   38871 WT2  5065 TIP3 H2   HT     0.417000        1.0080           0
   38872 WT2  5066 TIP3 OH2  OT    -0.834000       15.9994           0
   38873 WT2  5066 TIP3 H1   HT     0.417000        1.0080           0
   38874 WT2  5066 TIP3 H2   HT     0.417000        1.0080           0
   38875 WT2  5067 TIP3 OH2  OT    -0.834000       15.9994           0
   38876 WT2  5067 TIP3 H1   HT     0.417000        1.0080           0
   38877 WT2  5067 TIP3 H2   HT     0.417000        1.0080           0
   38878 WT2  5068 TIP3 OH2  OT    -0.834000       15.9994           0
   38879 WT2  5068 TIP3 H1   HT     0.417000        1.0080           0
   38880 WT2  5068 TIP3 H2   HT     0.417000        1.0080           0
   38881 WT2  5069 TIP3 OH2  OT    -0.834000       15.9994           0
   38882 WT2  5069 TIP3 H1   HT     0.417000        1.0080           0
   38883 WT2  5069 TIP3 H2   HT     0.417000        1.0080           0
   38884 WT2  5070 TIP3 OH2  OT    -0.834000       15.9994           0
   38885 WT2  5070 TIP3 H1   HT     0.417000        1.0080           0
   38886 WT2  5070 TIP3 H2   HT     0.417000        1.0080           0
   38887 WT2  5071 TIP3 OH2  OT    -0.834000       15.9994           0
   38888 WT2  5071 TIP3 H1   HT     0.417000        1.0080           0
   38889 WT2  5071 TIP3 H2   HT     0.417000        1.0080           0
   38890 WT2  5075 TIP3 OH2  OT    -0.834000       15.9994           0
   38891 WT2  5075 TIP3 H1   HT     0.417000        1.0080           0
   38892 WT2  5075 TIP3 H2   HT     0.417000        1.0080           0
   38893 WT2  5076 TIP3 OH2  OT    -0.834000       15.9994           0
   38894 WT2  5076 TIP3 H1   HT     0.417000        1.0080           0
   38895 WT2  5076 TIP3 H2   HT     0.417000        1.0080           0
   38896 WT2  5085 TIP3 OH2  OT    -0.834000       15.9994           0
   38897 WT2  5085 TIP3 H1   HT     0.417000        1.0080           0
   38898 WT2  5085 TIP3 H2   HT     0.417000        1.0080           0
   38899 WT2  5086 TIP3 OH2  OT    -0.834000       15.9994           0
   38900 WT2  5086 TIP3 H1   HT     0.417000        1.0080           0
   38901 WT2  5086 TIP3 H2   HT     0.417000        1.0080           0
   38902 WT2  5087 TIP3 OH2  OT    -0.834000       15.9994           0
   38903 WT2  5087 TIP3 H1   HT     0.417000        1.0080           0
   38904 WT2  5087 TIP3 H2   HT     0.417000        1.0080           0
   38905 WT2  5088 TIP3 OH2  OT    -0.834000       15.9994           0
   38906 WT2  5088 TIP3 H1   HT     0.417000        1.0080           0
   38907 WT2  5088 TIP3 H2   HT     0.417000        1.0080           0
   38908 WT2  5089 TIP3 OH2  OT    -0.834000       15.9994           0
   38909 WT2  5089 TIP3 H1   HT     0.417000        1.0080           0
   38910 WT2  5089 TIP3 H2   HT     0.417000        1.0080           0
   38911 WT2  5090 TIP3 OH2  OT    -0.834000       15.9994           0
   38912 WT2  5090 TIP3 H1   HT     0.417000        1.0080           0
   38913 WT2  5090 TIP3 H2   HT     0.417000        1.0080           0
   38914 WT2  5091 TIP3 OH2  OT    -0.834000       15.9994           0
   38915 WT2  5091 TIP3 H1   HT     0.417000        1.0080           0
   38916 WT2  5091 TIP3 H2   HT     0.417000        1.0080           0
   38917 WT2  5092 TIP3 OH2  OT    -0.834000       15.9994           0
   38918 WT2  5092 TIP3 H1   HT     0.417000        1.0080           0
   38919 WT2  5092 TIP3 H2   HT     0.417000        1.0080           0
   38920 WT2  5093 TIP3 OH2  OT    -0.834000       15.9994           0
   38921 WT2  5093 TIP3 H1   HT     0.417000        1.0080           0
   38922 WT2  5093 TIP3 H2   HT     0.417000        1.0080           0
   38923 WT2  5095 TIP3 OH2  OT    -0.834000       15.9994           0
   38924 WT2  5095 TIP3 H1   HT     0.417000        1.0080           0
   38925 WT2  5095 TIP3 H2   HT     0.417000        1.0080           0
   38926 WT2  5097 TIP3 OH2  OT    -0.834000       15.9994           0
   38927 WT2  5097 TIP3 H1   HT     0.417000        1.0080           0
   38928 WT2  5097 TIP3 H2   HT     0.417000        1.0080           0
   38929 WT2  5098 TIP3 OH2  OT    -0.834000       15.9994           0
   38930 WT2  5098 TIP3 H1   HT     0.417000        1.0080           0
   38931 WT2  5098 TIP3 H2   HT     0.417000        1.0080           0
   38932 WT2  5104 TIP3 OH2  OT    -0.834000       15.9994           0
   38933 WT2  5104 TIP3 H1   HT     0.417000        1.0080           0
   38934 WT2  5104 TIP3 H2   HT     0.417000        1.0080           0
   38935 WT2  5106 TIP3 OH2  OT    -0.834000       15.9994           0
   38936 WT2  5106 TIP3 H1   HT     0.417000        1.0080           0
   38937 WT2  5106 TIP3 H2   HT     0.417000        1.0080           0
   38938 WT2  5108 TIP3 OH2  OT    -0.834000       15.9994           0
   38939 WT2  5108 TIP3 H1   HT     0.417000        1.0080           0
   38940 WT2  5108 TIP3 H2   HT     0.417000        1.0080           0
   38941 WT2  5109 TIP3 OH2  OT    -0.834000       15.9994           0
   38942 WT2  5109 TIP3 H1   HT     0.417000        1.0080           0
   38943 WT2  5109 TIP3 H2   HT     0.417000        1.0080           0
   38944 WT2  5110 TIP3 OH2  OT    -0.834000       15.9994           0
   38945 WT2  5110 TIP3 H1   HT     0.417000        1.0080           0
   38946 WT2  5110 TIP3 H2   HT     0.417000        1.0080           0
   38947 WT2  5111 TIP3 OH2  OT    -0.834000       15.9994           0
   38948 WT2  5111 TIP3 H1   HT     0.417000        1.0080           0
   38949 WT2  5111 TIP3 H2   HT     0.417000        1.0080           0
   38950 WT2  5112 TIP3 OH2  OT    -0.834000       15.9994           0
   38951 WT2  5112 TIP3 H1   HT     0.417000        1.0080           0
   38952 WT2  5112 TIP3 H2   HT     0.417000        1.0080           0
   38953 WT2  5113 TIP3 OH2  OT    -0.834000       15.9994           0
   38954 WT2  5113 TIP3 H1   HT     0.417000        1.0080           0
   38955 WT2  5113 TIP3 H2   HT     0.417000        1.0080           0
   38956 WT2  5114 TIP3 OH2  OT    -0.834000       15.9994           0
   38957 WT2  5114 TIP3 H1   HT     0.417000        1.0080           0
   38958 WT2  5114 TIP3 H2   HT     0.417000        1.0080           0
   38959 WT2  5117 TIP3 OH2  OT    -0.834000       15.9994           0
   38960 WT2  5117 TIP3 H1   HT     0.417000        1.0080           0
   38961 WT2  5117 TIP3 H2   HT     0.417000        1.0080           0
   38962 WT2  5118 TIP3 OH2  OT    -0.834000       15.9994           0
   38963 WT2  5118 TIP3 H1   HT     0.417000        1.0080           0
   38964 WT2  5118 TIP3 H2   HT     0.417000        1.0080           0
   38965 WT2  5125 TIP3 OH2  OT    -0.834000       15.9994           0
   38966 WT2  5125 TIP3 H1   HT     0.417000        1.0080           0
   38967 WT2  5125 TIP3 H2   HT     0.417000        1.0080           0
   38968 WT2  5126 TIP3 OH2  OT    -0.834000       15.9994           0
   38969 WT2  5126 TIP3 H1   HT     0.417000        1.0080           0
   38970 WT2  5126 TIP3 H2   HT     0.417000        1.0080           0
   38971 WT2  5127 TIP3 OH2  OT    -0.834000       15.9994           0
   38972 WT2  5127 TIP3 H1   HT     0.417000        1.0080           0
   38973 WT2  5127 TIP3 H2   HT     0.417000        1.0080           0
   38974 WT2  5128 TIP3 OH2  OT    -0.834000       15.9994           0
   38975 WT2  5128 TIP3 H1   HT     0.417000        1.0080           0
   38976 WT2  5128 TIP3 H2   HT     0.417000        1.0080           0
   38977 WT2  5129 TIP3 OH2  OT    -0.834000       15.9994           0
   38978 WT2  5129 TIP3 H1   HT     0.417000        1.0080           0
   38979 WT2  5129 TIP3 H2   HT     0.417000        1.0080           0
   38980 WT2  5130 TIP3 OH2  OT    -0.834000       15.9994           0
   38981 WT2  5130 TIP3 H1   HT     0.417000        1.0080           0
   38982 WT2  5130 TIP3 H2   HT     0.417000        1.0080           0
   38983 WT2  5131 TIP3 OH2  OT    -0.834000       15.9994           0
   38984 WT2  5131 TIP3 H1   HT     0.417000        1.0080           0
   38985 WT2  5131 TIP3 H2   HT     0.417000        1.0080           0
   38986 WT2  5132 TIP3 OH2  OT    -0.834000       15.9994           0
   38987 WT2  5132 TIP3 H1   HT     0.417000        1.0080           0
   38988 WT2  5132 TIP3 H2   HT     0.417000        1.0080           0
   38989 WT2  5133 TIP3 OH2  OT    -0.834000       15.9994           0
   38990 WT2  5133 TIP3 H1   HT     0.417000        1.0080           0
   38991 WT2  5133 TIP3 H2   HT     0.417000        1.0080           0
   38992 WT2  5134 TIP3 OH2  OT    -0.834000       15.9994           0
   38993 WT2  5134 TIP3 H1   HT     0.417000        1.0080           0
   38994 WT2  5134 TIP3 H2   HT     0.417000        1.0080           0
   38995 WT2  5135 TIP3 OH2  OT    -0.834000       15.9994           0
   38996 WT2  5135 TIP3 H1   HT     0.417000        1.0080           0
   38997 WT2  5135 TIP3 H2   HT     0.417000        1.0080           0
   38998 WT2  5137 TIP3 OH2  OT    -0.834000       15.9994           0
   38999 WT2  5137 TIP3 H1   HT     0.417000        1.0080           0
   39000 WT2  5137 TIP3 H2   HT     0.417000        1.0080           0
   39001 WT2  5138 TIP3 OH2  OT    -0.834000       15.9994           0
   39002 WT2  5138 TIP3 H1   HT     0.417000        1.0080           0
   39003 WT2  5138 TIP3 H2   HT     0.417000        1.0080           0
   39004 WT2  5140 TIP3 OH2  OT    -0.834000       15.9994           0
   39005 WT2  5140 TIP3 H1   HT     0.417000        1.0080           0
   39006 WT2  5140 TIP3 H2   HT     0.417000        1.0080           0
   39007 WT2  5146 TIP3 OH2  OT    -0.834000       15.9994           0
   39008 WT2  5146 TIP3 H1   HT     0.417000        1.0080           0
   39009 WT2  5146 TIP3 H2   HT     0.417000        1.0080           0
   39010 WT2  5147 TIP3 OH2  OT    -0.834000       15.9994           0
   39011 WT2  5147 TIP3 H1   HT     0.417000        1.0080           0
   39012 WT2  5147 TIP3 H2   HT     0.417000        1.0080           0
   39013 WT2  5148 TIP3 OH2  OT    -0.834000       15.9994           0
   39014 WT2  5148 TIP3 H1   HT     0.417000        1.0080           0
   39015 WT2  5148 TIP3 H2   HT     0.417000        1.0080           0
   39016 WT2  5149 TIP3 OH2  OT    -0.834000       15.9994           0
   39017 WT2  5149 TIP3 H1   HT     0.417000        1.0080           0
   39018 WT2  5149 TIP3 H2   HT     0.417000        1.0080           0
   39019 WT2  5150 TIP3 OH2  OT    -0.834000       15.9994           0
   39020 WT2  5150 TIP3 H1   HT     0.417000        1.0080           0
   39021 WT2  5150 TIP3 H2   HT     0.417000        1.0080           0
   39022 WT2  5151 TIP3 OH2  OT    -0.834000       15.9994           0
   39023 WT2  5151 TIP3 H1   HT     0.417000        1.0080           0
   39024 WT2  5151 TIP3 H2   HT     0.417000        1.0080           0
   39025 WT2  5152 TIP3 OH2  OT    -0.834000       15.9994           0
   39026 WT2  5152 TIP3 H1   HT     0.417000        1.0080           0
   39027 WT2  5152 TIP3 H2   HT     0.417000        1.0080           0
   39028 WT2  5153 TIP3 OH2  OT    -0.834000       15.9994           0
   39029 WT2  5153 TIP3 H1   HT     0.417000        1.0080           0
   39030 WT2  5153 TIP3 H2   HT     0.417000        1.0080           0
   39031 WT2  5154 TIP3 OH2  OT    -0.834000       15.9994           0
   39032 WT2  5154 TIP3 H1   HT     0.417000        1.0080           0
   39033 WT2  5154 TIP3 H2   HT     0.417000        1.0080           0
   39034 WT2  5155 TIP3 OH2  OT    -0.834000       15.9994           0
   39035 WT2  5155 TIP3 H1   HT     0.417000        1.0080           0
   39036 WT2  5155 TIP3 H2   HT     0.417000        1.0080           0
   39037 WT2  5156 TIP3 OH2  OT    -0.834000       15.9994           0
   39038 WT2  5156 TIP3 H1   HT     0.417000        1.0080           0
   39039 WT2  5156 TIP3 H2   HT     0.417000        1.0080           0
   39040 WT2  5157 TIP3 OH2  OT    -0.834000       15.9994           0
   39041 WT2  5157 TIP3 H1   HT     0.417000        1.0080           0
   39042 WT2  5157 TIP3 H2   HT     0.417000        1.0080           0
   39043 WT2  5158 TIP3 OH2  OT    -0.834000       15.9994           0
   39044 WT2  5158 TIP3 H1   HT     0.417000        1.0080           0
   39045 WT2  5158 TIP3 H2   HT     0.417000        1.0080           0
   39046 WT2  5161 TIP3 OH2  OT    -0.834000       15.9994           0
   39047 WT2  5161 TIP3 H1   HT     0.417000        1.0080           0
   39048 WT2  5161 TIP3 H2   HT     0.417000        1.0080           0
   39049 WT2  5162 TIP3 OH2  OT    -0.834000       15.9994           0
   39050 WT2  5162 TIP3 H1   HT     0.417000        1.0080           0
   39051 WT2  5162 TIP3 H2   HT     0.417000        1.0080           0
   39052 WT2  5164 TIP3 OH2  OT    -0.834000       15.9994           0
   39053 WT2  5164 TIP3 H1   HT     0.417000        1.0080           0
   39054 WT2  5164 TIP3 H2   HT     0.417000        1.0080           0
   39055 WT2  5165 TIP3 OH2  OT    -0.834000       15.9994           0
   39056 WT2  5165 TIP3 H1   HT     0.417000        1.0080           0
   39057 WT2  5165 TIP3 H2   HT     0.417000        1.0080           0
   39058 WT2  5166 TIP3 OH2  OT    -0.834000       15.9994           0
   39059 WT2  5166 TIP3 H1   HT     0.417000        1.0080           0
   39060 WT2  5166 TIP3 H2   HT     0.417000        1.0080           0
   39061 WT2  5168 TIP3 OH2  OT    -0.834000       15.9994           0
   39062 WT2  5168 TIP3 H1   HT     0.417000        1.0080           0
   39063 WT2  5168 TIP3 H2   HT     0.417000        1.0080           0
   39064 WT2  5171 TIP3 OH2  OT    -0.834000       15.9994           0
   39065 WT2  5171 TIP3 H1   HT     0.417000        1.0080           0
   39066 WT2  5171 TIP3 H2   HT     0.417000        1.0080           0
   39067 WT2  5172 TIP3 OH2  OT    -0.834000       15.9994           0
   39068 WT2  5172 TIP3 H1   HT     0.417000        1.0080           0
   39069 WT2  5172 TIP3 H2   HT     0.417000        1.0080           0
   39070 WT2  5173 TIP3 OH2  OT    -0.834000       15.9994           0
   39071 WT2  5173 TIP3 H1   HT     0.417000        1.0080           0
   39072 WT2  5173 TIP3 H2   HT     0.417000        1.0080           0
   39073 WT2  5174 TIP3 OH2  OT    -0.834000       15.9994           0
   39074 WT2  5174 TIP3 H1   HT     0.417000        1.0080           0
   39075 WT2  5174 TIP3 H2   HT     0.417000        1.0080           0
   39076 WT2  5175 TIP3 OH2  OT    -0.834000       15.9994           0
   39077 WT2  5175 TIP3 H1   HT     0.417000        1.0080           0
   39078 WT2  5175 TIP3 H2   HT     0.417000        1.0080           0
   39079 WT2  5176 TIP3 OH2  OT    -0.834000       15.9994           0
   39080 WT2  5176 TIP3 H1   HT     0.417000        1.0080           0
   39081 WT2  5176 TIP3 H2   HT     0.417000        1.0080           0
   39082 WT2  5177 TIP3 OH2  OT    -0.834000       15.9994           0
   39083 WT2  5177 TIP3 H1   HT     0.417000        1.0080           0
   39084 WT2  5177 TIP3 H2   HT     0.417000        1.0080           0
   39085 WT2  5178 TIP3 OH2  OT    -0.834000       15.9994           0
   39086 WT2  5178 TIP3 H1   HT     0.417000        1.0080           0
   39087 WT2  5178 TIP3 H2   HT     0.417000        1.0080           0
   39088 WT2  5179 TIP3 OH2  OT    -0.834000       15.9994           0
   39089 WT2  5179 TIP3 H1   HT     0.417000        1.0080           0
   39090 WT2  5179 TIP3 H2   HT     0.417000        1.0080           0
   39091 WT2  5180 TIP3 OH2  OT    -0.834000       15.9994           0
   39092 WT2  5180 TIP3 H1   HT     0.417000        1.0080           0
   39093 WT2  5180 TIP3 H2   HT     0.417000        1.0080           0
   39094 WT2  5182 TIP3 OH2  OT    -0.834000       15.9994           0
   39095 WT2  5182 TIP3 H1   HT     0.417000        1.0080           0
   39096 WT2  5182 TIP3 H2   HT     0.417000        1.0080           0
   39097 WT2  5186 TIP3 OH2  OT    -0.834000       15.9994           0
   39098 WT2  5186 TIP3 H1   HT     0.417000        1.0080           0
   39099 WT2  5186 TIP3 H2   HT     0.417000        1.0080           0
   39100 WT2  5188 TIP3 OH2  OT    -0.834000       15.9994           0
   39101 WT2  5188 TIP3 H1   HT     0.417000        1.0080           0
   39102 WT2  5188 TIP3 H2   HT     0.417000        1.0080           0
   39103 WT2  5189 TIP3 OH2  OT    -0.834000       15.9994           0
   39104 WT2  5189 TIP3 H1   HT     0.417000        1.0080           0
   39105 WT2  5189 TIP3 H2   HT     0.417000        1.0080           0
   39106 WT2  5190 TIP3 OH2  OT    -0.834000       15.9994           0
   39107 WT2  5190 TIP3 H1   HT     0.417000        1.0080           0
   39108 WT2  5190 TIP3 H2   HT     0.417000        1.0080           0
   39109 WT2  5191 TIP3 OH2  OT    -0.834000       15.9994           0
   39110 WT2  5191 TIP3 H1   HT     0.417000        1.0080           0
   39111 WT2  5191 TIP3 H2   HT     0.417000        1.0080           0
   39112 WT2  5192 TIP3 OH2  OT    -0.834000       15.9994           0
   39113 WT2  5192 TIP3 H1   HT     0.417000        1.0080           0
   39114 WT2  5192 TIP3 H2   HT     0.417000        1.0080           0
   39115 WT2  5193 TIP3 OH2  OT    -0.834000       15.9994           0
   39116 WT2  5193 TIP3 H1   HT     0.417000        1.0080           0
   39117 WT2  5193 TIP3 H2   HT     0.417000        1.0080           0
   39118 WT2  5194 TIP3 OH2  OT    -0.834000       15.9994           0
   39119 WT2  5194 TIP3 H1   HT     0.417000        1.0080           0
   39120 WT2  5194 TIP3 H2   HT     0.417000        1.0080           0
   39121 WT2  5195 TIP3 OH2  OT    -0.834000       15.9994           0
   39122 WT2  5195 TIP3 H1   HT     0.417000        1.0080           0
   39123 WT2  5195 TIP3 H2   HT     0.417000        1.0080           0
   39124 WT2  5196 TIP3 OH2  OT    -0.834000       15.9994           0
   39125 WT2  5196 TIP3 H1   HT     0.417000        1.0080           0
   39126 WT2  5196 TIP3 H2   HT     0.417000        1.0080           0
   39127 WT2  5197 TIP3 OH2  OT    -0.834000       15.9994           0
   39128 WT2  5197 TIP3 H1   HT     0.417000        1.0080           0
   39129 WT2  5197 TIP3 H2   HT     0.417000        1.0080           0
   39130 WT2  5198 TIP3 OH2  OT    -0.834000       15.9994           0
   39131 WT2  5198 TIP3 H1   HT     0.417000        1.0080           0
   39132 WT2  5198 TIP3 H2   HT     0.417000        1.0080           0
   39133 WT2  5199 TIP3 OH2  OT    -0.834000       15.9994           0
   39134 WT2  5199 TIP3 H1   HT     0.417000        1.0080           0
   39135 WT2  5199 TIP3 H2   HT     0.417000        1.0080           0
   39136 WT2  5200 TIP3 OH2  OT    -0.834000       15.9994           0
   39137 WT2  5200 TIP3 H1   HT     0.417000        1.0080           0
   39138 WT2  5200 TIP3 H2   HT     0.417000        1.0080           0
   39139 WT2  5201 TIP3 OH2  OT    -0.834000       15.9994           0
   39140 WT2  5201 TIP3 H1   HT     0.417000        1.0080           0
   39141 WT2  5201 TIP3 H2   HT     0.417000        1.0080           0
   39142 WT2  5205 TIP3 OH2  OT    -0.834000       15.9994           0
   39143 WT2  5205 TIP3 H1   HT     0.417000        1.0080           0
   39144 WT2  5205 TIP3 H2   HT     0.417000        1.0080           0
   39145 WT2  5206 TIP3 OH2  OT    -0.834000       15.9994           0
   39146 WT2  5206 TIP3 H1   HT     0.417000        1.0080           0
   39147 WT2  5206 TIP3 H2   HT     0.417000        1.0080           0
   39148 WT2  5211 TIP3 OH2  OT    -0.834000       15.9994           0
   39149 WT2  5211 TIP3 H1   HT     0.417000        1.0080           0
   39150 WT2  5211 TIP3 H2   HT     0.417000        1.0080           0
   39151 WT2  5212 TIP3 OH2  OT    -0.834000       15.9994           0
   39152 WT2  5212 TIP3 H1   HT     0.417000        1.0080           0
   39153 WT2  5212 TIP3 H2   HT     0.417000        1.0080           0
   39154 WT2  5214 TIP3 OH2  OT    -0.834000       15.9994           0
   39155 WT2  5214 TIP3 H1   HT     0.417000        1.0080           0
   39156 WT2  5214 TIP3 H2   HT     0.417000        1.0080           0
   39157 WT2  5215 TIP3 OH2  OT    -0.834000       15.9994           0
   39158 WT2  5215 TIP3 H1   HT     0.417000        1.0080           0
   39159 WT2  5215 TIP3 H2   HT     0.417000        1.0080           0
   39160 WT2  5216 TIP3 OH2  OT    -0.834000       15.9994           0
   39161 WT2  5216 TIP3 H1   HT     0.417000        1.0080           0
   39162 WT2  5216 TIP3 H2   HT     0.417000        1.0080           0
   39163 WT2  5217 TIP3 OH2  OT    -0.834000       15.9994           0
   39164 WT2  5217 TIP3 H1   HT     0.417000        1.0080           0
   39165 WT2  5217 TIP3 H2   HT     0.417000        1.0080           0
   39166 WT2  5218 TIP3 OH2  OT    -0.834000       15.9994           0
   39167 WT2  5218 TIP3 H1   HT     0.417000        1.0080           0
   39168 WT2  5218 TIP3 H2   HT     0.417000        1.0080           0
   39169 WT2  5219 TIP3 OH2  OT    -0.834000       15.9994           0
   39170 WT2  5219 TIP3 H1   HT     0.417000        1.0080           0
   39171 WT2  5219 TIP3 H2   HT     0.417000        1.0080           0
   39172 WT2  5220 TIP3 OH2  OT    -0.834000       15.9994           0
   39173 WT2  5220 TIP3 H1   HT     0.417000        1.0080           0
   39174 WT2  5220 TIP3 H2   HT     0.417000        1.0080           0
   39175 WT2  5221 TIP3 OH2  OT    -0.834000       15.9994           0
   39176 WT2  5221 TIP3 H1   HT     0.417000        1.0080           0
   39177 WT2  5221 TIP3 H2   HT     0.417000        1.0080           0
   39178 WT2  5223 TIP3 OH2  OT    -0.834000       15.9994           0
   39179 WT2  5223 TIP3 H1   HT     0.417000        1.0080           0
   39180 WT2  5223 TIP3 H2   HT     0.417000        1.0080           0
   39181 WT2  5224 TIP3 OH2  OT    -0.834000       15.9994           0
   39182 WT2  5224 TIP3 H1   HT     0.417000        1.0080           0
   39183 WT2  5224 TIP3 H2   HT     0.417000        1.0080           0
   39184 WT2  5230 TIP3 OH2  OT    -0.834000       15.9994           0
   39185 WT2  5230 TIP3 H1   HT     0.417000        1.0080           0
   39186 WT2  5230 TIP3 H2   HT     0.417000        1.0080           0
   39187 WT2  5231 TIP3 OH2  OT    -0.834000       15.9994           0
   39188 WT2  5231 TIP3 H1   HT     0.417000        1.0080           0
   39189 WT2  5231 TIP3 H2   HT     0.417000        1.0080           0
   39190 WT2  5232 TIP3 OH2  OT    -0.834000       15.9994           0
   39191 WT2  5232 TIP3 H1   HT     0.417000        1.0080           0
   39192 WT2  5232 TIP3 H2   HT     0.417000        1.0080           0
   39193 WT2  5233 TIP3 OH2  OT    -0.834000       15.9994           0
   39194 WT2  5233 TIP3 H1   HT     0.417000        1.0080           0
   39195 WT2  5233 TIP3 H2   HT     0.417000        1.0080           0
   39196 WT2  5234 TIP3 OH2  OT    -0.834000       15.9994           0
   39197 WT2  5234 TIP3 H1   HT     0.417000        1.0080           0
   39198 WT2  5234 TIP3 H2   HT     0.417000        1.0080           0
   39199 WT2  5235 TIP3 OH2  OT    -0.834000       15.9994           0
   39200 WT2  5235 TIP3 H1   HT     0.417000        1.0080           0
   39201 WT2  5235 TIP3 H2   HT     0.417000        1.0080           0
   39202 WT2  5236 TIP3 OH2  OT    -0.834000       15.9994           0
   39203 WT2  5236 TIP3 H1   HT     0.417000        1.0080           0
   39204 WT2  5236 TIP3 H2   HT     0.417000        1.0080           0
   39205 WT2  5237 TIP3 OH2  OT    -0.834000       15.9994           0
   39206 WT2  5237 TIP3 H1   HT     0.417000        1.0080           0
   39207 WT2  5237 TIP3 H2   HT     0.417000        1.0080           0
   39208 WT2  5238 TIP3 OH2  OT    -0.834000       15.9994           0
   39209 WT2  5238 TIP3 H1   HT     0.417000        1.0080           0
   39210 WT2  5238 TIP3 H2   HT     0.417000        1.0080           0
   39211 WT2  5239 TIP3 OH2  OT    -0.834000       15.9994           0
   39212 WT2  5239 TIP3 H1   HT     0.417000        1.0080           0
   39213 WT2  5239 TIP3 H2   HT     0.417000        1.0080           0
   39214 WT2  5240 TIP3 OH2  OT    -0.834000       15.9994           0
   39215 WT2  5240 TIP3 H1   HT     0.417000        1.0080           0
   39216 WT2  5240 TIP3 H2   HT     0.417000        1.0080           0
   39217 WT2  5241 TIP3 OH2  OT    -0.834000       15.9994           0
   39218 WT2  5241 TIP3 H1   HT     0.417000        1.0080           0
   39219 WT2  5241 TIP3 H2   HT     0.417000        1.0080           0
   39220 WT2  5242 TIP3 OH2  OT    -0.834000       15.9994           0
   39221 WT2  5242 TIP3 H1   HT     0.417000        1.0080           0
   39222 WT2  5242 TIP3 H2   HT     0.417000        1.0080           0
   39223 WT2  5244 TIP3 OH2  OT    -0.834000       15.9994           0
   39224 WT2  5244 TIP3 H1   HT     0.417000        1.0080           0
   39225 WT2  5244 TIP3 H2   HT     0.417000        1.0080           0
   39226 WT2  5251 TIP3 OH2  OT    -0.834000       15.9994           0
   39227 WT2  5251 TIP3 H1   HT     0.417000        1.0080           0
   39228 WT2  5251 TIP3 H2   HT     0.417000        1.0080           0
   39229 WT2  5253 TIP3 OH2  OT    -0.834000       15.9994           0
   39230 WT2  5253 TIP3 H1   HT     0.417000        1.0080           0
   39231 WT2  5253 TIP3 H2   HT     0.417000        1.0080           0
   39232 WT2  5255 TIP3 OH2  OT    -0.834000       15.9994           0
   39233 WT2  5255 TIP3 H1   HT     0.417000        1.0080           0
   39234 WT2  5255 TIP3 H2   HT     0.417000        1.0080           0
   39235 WT2  5256 TIP3 OH2  OT    -0.834000       15.9994           0
   39236 WT2  5256 TIP3 H1   HT     0.417000        1.0080           0
   39237 WT2  5256 TIP3 H2   HT     0.417000        1.0080           0
   39238 WT2  5257 TIP3 OH2  OT    -0.834000       15.9994           0
   39239 WT2  5257 TIP3 H1   HT     0.417000        1.0080           0
   39240 WT2  5257 TIP3 H2   HT     0.417000        1.0080           0
   39241 WT2  5258 TIP3 OH2  OT    -0.834000       15.9994           0
   39242 WT2  5258 TIP3 H1   HT     0.417000        1.0080           0
   39243 WT2  5258 TIP3 H2   HT     0.417000        1.0080           0
   39244 WT2  5259 TIP3 OH2  OT    -0.834000       15.9994           0
   39245 WT2  5259 TIP3 H1   HT     0.417000        1.0080           0
   39246 WT2  5259 TIP3 H2   HT     0.417000        1.0080           0
   39247 WT2  5260 TIP3 OH2  OT    -0.834000       15.9994           0
   39248 WT2  5260 TIP3 H1   HT     0.417000        1.0080           0
   39249 WT2  5260 TIP3 H2   HT     0.417000        1.0080           0
   39250 WT2  5261 TIP3 OH2  OT    -0.834000       15.9994           0
   39251 WT2  5261 TIP3 H1   HT     0.417000        1.0080           0
   39252 WT2  5261 TIP3 H2   HT     0.417000        1.0080           0
   39253 WT2  5262 TIP3 OH2  OT    -0.834000       15.9994           0
   39254 WT2  5262 TIP3 H1   HT     0.417000        1.0080           0
   39255 WT2  5262 TIP3 H2   HT     0.417000        1.0080           0
   39256 WT2  5263 TIP3 OH2  OT    -0.834000       15.9994           0
   39257 WT2  5263 TIP3 H1   HT     0.417000        1.0080           0
   39258 WT2  5263 TIP3 H2   HT     0.417000        1.0080           0
   39259 WT2  5267 TIP3 OH2  OT    -0.834000       15.9994           0
   39260 WT2  5267 TIP3 H1   HT     0.417000        1.0080           0
   39261 WT2  5267 TIP3 H2   HT     0.417000        1.0080           0
   39262 WT2  5270 TIP3 OH2  OT    -0.834000       15.9994           0
   39263 WT2  5270 TIP3 H1   HT     0.417000        1.0080           0
   39264 WT2  5270 TIP3 H2   HT     0.417000        1.0080           0
   39265 WT2  5271 TIP3 OH2  OT    -0.834000       15.9994           0
   39266 WT2  5271 TIP3 H1   HT     0.417000        1.0080           0
   39267 WT2  5271 TIP3 H2   HT     0.417000        1.0080           0
   39268 WT2  5272 TIP3 OH2  OT    -0.834000       15.9994           0
   39269 WT2  5272 TIP3 H1   HT     0.417000        1.0080           0
   39270 WT2  5272 TIP3 H2   HT     0.417000        1.0080           0
   39271 WT2  5274 TIP3 OH2  OT    -0.834000       15.9994           0
   39272 WT2  5274 TIP3 H1   HT     0.417000        1.0080           0
   39273 WT2  5274 TIP3 H2   HT     0.417000        1.0080           0
   39274 WT2  5276 TIP3 OH2  OT    -0.834000       15.9994           0
   39275 WT2  5276 TIP3 H1   HT     0.417000        1.0080           0
   39276 WT2  5276 TIP3 H2   HT     0.417000        1.0080           0
   39277 WT2  5277 TIP3 OH2  OT    -0.834000       15.9994           0
   39278 WT2  5277 TIP3 H1   HT     0.417000        1.0080           0
   39279 WT2  5277 TIP3 H2   HT     0.417000        1.0080           0
   39280 WT2  5278 TIP3 OH2  OT    -0.834000       15.9994           0
   39281 WT2  5278 TIP3 H1   HT     0.417000        1.0080           0
   39282 WT2  5278 TIP3 H2   HT     0.417000        1.0080           0
   39283 WT2  5279 TIP3 OH2  OT    -0.834000       15.9994           0
   39284 WT2  5279 TIP3 H1   HT     0.417000        1.0080           0
   39285 WT2  5279 TIP3 H2   HT     0.417000        1.0080           0
   39286 WT2  5280 TIP3 OH2  OT    -0.834000       15.9994           0
   39287 WT2  5280 TIP3 H1   HT     0.417000        1.0080           0
   39288 WT2  5280 TIP3 H2   HT     0.417000        1.0080           0
   39289 WT2  5281 TIP3 OH2  OT    -0.834000       15.9994           0
   39290 WT2  5281 TIP3 H1   HT     0.417000        1.0080           0
   39291 WT2  5281 TIP3 H2   HT     0.417000        1.0080           0
   39292 WT2  5282 TIP3 OH2  OT    -0.834000       15.9994           0
   39293 WT2  5282 TIP3 H1   HT     0.417000        1.0080           0
   39294 WT2  5282 TIP3 H2   HT     0.417000        1.0080           0
   39295 WT2  5287 TIP3 OH2  OT    -0.834000       15.9994           0
   39296 WT2  5287 TIP3 H1   HT     0.417000        1.0080           0
   39297 WT2  5287 TIP3 H2   HT     0.417000        1.0080           0
   39298 WT2  5292 TIP3 OH2  OT    -0.834000       15.9994           0
   39299 WT2  5292 TIP3 H1   HT     0.417000        1.0080           0
   39300 WT2  5292 TIP3 H2   HT     0.417000        1.0080           0
   39301 WT2  5293 TIP3 OH2  OT    -0.834000       15.9994           0
   39302 WT2  5293 TIP3 H1   HT     0.417000        1.0080           0
   39303 WT2  5293 TIP3 H2   HT     0.417000        1.0080           0
   39304 WT2  5294 TIP3 OH2  OT    -0.834000       15.9994           0
   39305 WT2  5294 TIP3 H1   HT     0.417000        1.0080           0
   39306 WT2  5294 TIP3 H2   HT     0.417000        1.0080           0
   39307 WT2  5295 TIP3 OH2  OT    -0.834000       15.9994           0
   39308 WT2  5295 TIP3 H1   HT     0.417000        1.0080           0
   39309 WT2  5295 TIP3 H2   HT     0.417000        1.0080           0
   39310 WT2  5296 TIP3 OH2  OT    -0.834000       15.9994           0
   39311 WT2  5296 TIP3 H1   HT     0.417000        1.0080           0
   39312 WT2  5296 TIP3 H2   HT     0.417000        1.0080           0
   39313 WT2  5297 TIP3 OH2  OT    -0.834000       15.9994           0
   39314 WT2  5297 TIP3 H1   HT     0.417000        1.0080           0
   39315 WT2  5297 TIP3 H2   HT     0.417000        1.0080           0
   39316 WT2  5298 TIP3 OH2  OT    -0.834000       15.9994           0
   39317 WT2  5298 TIP3 H1   HT     0.417000        1.0080           0
   39318 WT2  5298 TIP3 H2   HT     0.417000        1.0080           0
   39319 WT2  5299 TIP3 OH2  OT    -0.834000       15.9994           0
   39320 WT2  5299 TIP3 H1   HT     0.417000        1.0080           0
   39321 WT2  5299 TIP3 H2   HT     0.417000        1.0080           0
   39322 WT2  5300 TIP3 OH2  OT    -0.834000       15.9994           0
   39323 WT2  5300 TIP3 H1   HT     0.417000        1.0080           0
   39324 WT2  5300 TIP3 H2   HT     0.417000        1.0080           0
   39325 WT2  5301 TIP3 OH2  OT    -0.834000       15.9994           0
   39326 WT2  5301 TIP3 H1   HT     0.417000        1.0080           0
   39327 WT2  5301 TIP3 H2   HT     0.417000        1.0080           0
   39328 WT2  5302 TIP3 OH2  OT    -0.834000       15.9994           0
   39329 WT2  5302 TIP3 H1   HT     0.417000        1.0080           0
   39330 WT2  5302 TIP3 H2   HT     0.417000        1.0080           0
   39331 WT2  5303 TIP3 OH2  OT    -0.834000       15.9994           0
   39332 WT2  5303 TIP3 H1   HT     0.417000        1.0080           0
   39333 WT2  5303 TIP3 H2   HT     0.417000        1.0080           0
   39334 WT2  5304 TIP3 OH2  OT    -0.834000       15.9994           0
   39335 WT2  5304 TIP3 H1   HT     0.417000        1.0080           0
   39336 WT2  5304 TIP3 H2   HT     0.417000        1.0080           0
   39337 WT2  5305 TIP3 OH2  OT    -0.834000       15.9994           0
   39338 WT2  5305 TIP3 H1   HT     0.417000        1.0080           0
   39339 WT2  5305 TIP3 H2   HT     0.417000        1.0080           0
   39340 WT2  5306 TIP3 OH2  OT    -0.834000       15.9994           0
   39341 WT2  5306 TIP3 H1   HT     0.417000        1.0080           0
   39342 WT2  5306 TIP3 H2   HT     0.417000        1.0080           0
   39343 WT2  5307 TIP3 OH2  OT    -0.834000       15.9994           0
   39344 WT2  5307 TIP3 H1   HT     0.417000        1.0080           0
   39345 WT2  5307 TIP3 H2   HT     0.417000        1.0080           0
   39346 WT2  5315 TIP3 OH2  OT    -0.834000       15.9994           0
   39347 WT2  5315 TIP3 H1   HT     0.417000        1.0080           0
   39348 WT2  5315 TIP3 H2   HT     0.417000        1.0080           0
   39349 WT2  5317 TIP3 OH2  OT    -0.834000       15.9994           0
   39350 WT2  5317 TIP3 H1   HT     0.417000        1.0080           0
   39351 WT2  5317 TIP3 H2   HT     0.417000        1.0080           0
   39352 WT2  5318 TIP3 OH2  OT    -0.834000       15.9994           0
   39353 WT2  5318 TIP3 H1   HT     0.417000        1.0080           0
   39354 WT2  5318 TIP3 H2   HT     0.417000        1.0080           0
   39355 WT2  5319 TIP3 OH2  OT    -0.834000       15.9994           0
   39356 WT2  5319 TIP3 H1   HT     0.417000        1.0080           0
   39357 WT2  5319 TIP3 H2   HT     0.417000        1.0080           0
   39358 WT2  5320 TIP3 OH2  OT    -0.834000       15.9994           0
   39359 WT2  5320 TIP3 H1   HT     0.417000        1.0080           0
   39360 WT2  5320 TIP3 H2   HT     0.417000        1.0080           0
   39361 WT2  5321 TIP3 OH2  OT    -0.834000       15.9994           0
   39362 WT2  5321 TIP3 H1   HT     0.417000        1.0080           0
   39363 WT2  5321 TIP3 H2   HT     0.417000        1.0080           0
   39364 WT2  5322 TIP3 OH2  OT    -0.834000       15.9994           0
   39365 WT2  5322 TIP3 H1   HT     0.417000        1.0080           0
   39366 WT2  5322 TIP3 H2   HT     0.417000        1.0080           0
   39367 WT2  5323 TIP3 OH2  OT    -0.834000       15.9994           0
   39368 WT2  5323 TIP3 H1   HT     0.417000        1.0080           0
   39369 WT2  5323 TIP3 H2   HT     0.417000        1.0080           0
   39370 WT2  5325 TIP3 OH2  OT    -0.834000       15.9994           0
   39371 WT2  5325 TIP3 H1   HT     0.417000        1.0080           0
   39372 WT2  5325 TIP3 H2   HT     0.417000        1.0080           0
   39373 WT2  5326 TIP3 OH2  OT    -0.834000       15.9994           0
   39374 WT2  5326 TIP3 H1   HT     0.417000        1.0080           0
   39375 WT2  5326 TIP3 H2   HT     0.417000        1.0080           0
   39376 WT2  5327 TIP3 OH2  OT    -0.834000       15.9994           0
   39377 WT2  5327 TIP3 H1   HT     0.417000        1.0080           0
   39378 WT2  5327 TIP3 H2   HT     0.417000        1.0080           0
   39379 WT2  5329 TIP3 OH2  OT    -0.834000       15.9994           0
   39380 WT2  5329 TIP3 H1   HT     0.417000        1.0080           0
   39381 WT2  5329 TIP3 H2   HT     0.417000        1.0080           0
   39382 WT2  5330 TIP3 OH2  OT    -0.834000       15.9994           0
   39383 WT2  5330 TIP3 H1   HT     0.417000        1.0080           0
   39384 WT2  5330 TIP3 H2   HT     0.417000        1.0080           0
   39385 WT2  5335 TIP3 OH2  OT    -0.834000       15.9994           0
   39386 WT2  5335 TIP3 H1   HT     0.417000        1.0080           0
   39387 WT2  5335 TIP3 H2   HT     0.417000        1.0080           0
   39388 WT2  5336 TIP3 OH2  OT    -0.834000       15.9994           0
   39389 WT2  5336 TIP3 H1   HT     0.417000        1.0080           0
   39390 WT2  5336 TIP3 H2   HT     0.417000        1.0080           0
   39391 WT2  5337 TIP3 OH2  OT    -0.834000       15.9994           0
   39392 WT2  5337 TIP3 H1   HT     0.417000        1.0080           0
   39393 WT2  5337 TIP3 H2   HT     0.417000        1.0080           0
   39394 WT2  5339 TIP3 OH2  OT    -0.834000       15.9994           0
   39395 WT2  5339 TIP3 H1   HT     0.417000        1.0080           0
   39396 WT2  5339 TIP3 H2   HT     0.417000        1.0080           0
   39397 WT2  5340 TIP3 OH2  OT    -0.834000       15.9994           0
   39398 WT2  5340 TIP3 H1   HT     0.417000        1.0080           0
   39399 WT2  5340 TIP3 H2   HT     0.417000        1.0080           0
   39400 WT2  5341 TIP3 OH2  OT    -0.834000       15.9994           0
   39401 WT2  5341 TIP3 H1   HT     0.417000        1.0080           0
   39402 WT2  5341 TIP3 H2   HT     0.417000        1.0080           0
   39403 WT2  5342 TIP3 OH2  OT    -0.834000       15.9994           0
   39404 WT2  5342 TIP3 H1   HT     0.417000        1.0080           0
   39405 WT2  5342 TIP3 H2   HT     0.417000        1.0080           0
   39406 WT2  5343 TIP3 OH2  OT    -0.834000       15.9994           0
   39407 WT2  5343 TIP3 H1   HT     0.417000        1.0080           0
   39408 WT2  5343 TIP3 H2   HT     0.417000        1.0080           0
   39409 WT2  5344 TIP3 OH2  OT    -0.834000       15.9994           0
   39410 WT2  5344 TIP3 H1   HT     0.417000        1.0080           0
   39411 WT2  5344 TIP3 H2   HT     0.417000        1.0080           0
   39412 WT2  5345 TIP3 OH2  OT    -0.834000       15.9994           0
   39413 WT2  5345 TIP3 H1   HT     0.417000        1.0080           0
   39414 WT2  5345 TIP3 H2   HT     0.417000        1.0080           0
   39415 WT2  5346 TIP3 OH2  OT    -0.834000       15.9994           0
   39416 WT2  5346 TIP3 H1   HT     0.417000        1.0080           0
   39417 WT2  5346 TIP3 H2   HT     0.417000        1.0080           0
   39418 WT2  5347 TIP3 OH2  OT    -0.834000       15.9994           0
   39419 WT2  5347 TIP3 H1   HT     0.417000        1.0080           0
   39420 WT2  5347 TIP3 H2   HT     0.417000        1.0080           0
   39421 WT2  5348 TIP3 OH2  OT    -0.834000       15.9994           0
   39422 WT2  5348 TIP3 H1   HT     0.417000        1.0080           0
   39423 WT2  5348 TIP3 H2   HT     0.417000        1.0080           0
   39424 WT2  5349 TIP3 OH2  OT    -0.834000       15.9994           0
   39425 WT2  5349 TIP3 H1   HT     0.417000        1.0080           0
   39426 WT2  5349 TIP3 H2   HT     0.417000        1.0080           0
   39427 WT2  5355 TIP3 OH2  OT    -0.834000       15.9994           0
   39428 WT2  5355 TIP3 H1   HT     0.417000        1.0080           0
   39429 WT2  5355 TIP3 H2   HT     0.417000        1.0080           0
   39430 WT2  5356 TIP3 OH2  OT    -0.834000       15.9994           0
   39431 WT2  5356 TIP3 H1   HT     0.417000        1.0080           0
   39432 WT2  5356 TIP3 H2   HT     0.417000        1.0080           0
   39433 WT2  5357 TIP3 OH2  OT    -0.834000       15.9994           0
   39434 WT2  5357 TIP3 H1   HT     0.417000        1.0080           0
   39435 WT2  5357 TIP3 H2   HT     0.417000        1.0080           0
   39436 WT2  5358 TIP3 OH2  OT    -0.834000       15.9994           0
   39437 WT2  5358 TIP3 H1   HT     0.417000        1.0080           0
   39438 WT2  5358 TIP3 H2   HT     0.417000        1.0080           0
   39439 WT2  5359 TIP3 OH2  OT    -0.834000       15.9994           0
   39440 WT2  5359 TIP3 H1   HT     0.417000        1.0080           0
   39441 WT2  5359 TIP3 H2   HT     0.417000        1.0080           0
   39442 WT2  5360 TIP3 OH2  OT    -0.834000       15.9994           0
   39443 WT2  5360 TIP3 H1   HT     0.417000        1.0080           0
   39444 WT2  5360 TIP3 H2   HT     0.417000        1.0080           0
   39445 WT2  5361 TIP3 OH2  OT    -0.834000       15.9994           0
   39446 WT2  5361 TIP3 H1   HT     0.417000        1.0080           0
   39447 WT2  5361 TIP3 H2   HT     0.417000        1.0080           0
   39448 WT2  5362 TIP3 OH2  OT    -0.834000       15.9994           0
   39449 WT2  5362 TIP3 H1   HT     0.417000        1.0080           0
   39450 WT2  5362 TIP3 H2   HT     0.417000        1.0080           0
   39451 WT2  5364 TIP3 OH2  OT    -0.834000       15.9994           0
   39452 WT2  5364 TIP3 H1   HT     0.417000        1.0080           0
   39453 WT2  5364 TIP3 H2   HT     0.417000        1.0080           0
   39454 WT2  5365 TIP3 OH2  OT    -0.834000       15.9994           0
   39455 WT2  5365 TIP3 H1   HT     0.417000        1.0080           0
   39456 WT2  5365 TIP3 H2   HT     0.417000        1.0080           0
   39457 WT2  5366 TIP3 OH2  OT    -0.834000       15.9994           0
   39458 WT2  5366 TIP3 H1   HT     0.417000        1.0080           0
   39459 WT2  5366 TIP3 H2   HT     0.417000        1.0080           0
   39460 WT2  5367 TIP3 OH2  OT    -0.834000       15.9994           0
   39461 WT2  5367 TIP3 H1   HT     0.417000        1.0080           0
   39462 WT2  5367 TIP3 H2   HT     0.417000        1.0080           0
   39463 WT2  5368 TIP3 OH2  OT    -0.834000       15.9994           0
   39464 WT2  5368 TIP3 H1   HT     0.417000        1.0080           0
   39465 WT2  5368 TIP3 H2   HT     0.417000        1.0080           0
   39466 WT2  5369 TIP3 OH2  OT    -0.834000       15.9994           0
   39467 WT2  5369 TIP3 H1   HT     0.417000        1.0080           0
   39468 WT2  5369 TIP3 H2   HT     0.417000        1.0080           0
   39469 WT2  5370 TIP3 OH2  OT    -0.834000       15.9994           0
   39470 WT2  5370 TIP3 H1   HT     0.417000        1.0080           0
   39471 WT2  5370 TIP3 H2   HT     0.417000        1.0080           0
   39472 WT2  5371 TIP3 OH2  OT    -0.834000       15.9994           0
   39473 WT2  5371 TIP3 H1   HT     0.417000        1.0080           0
   39474 WT2  5371 TIP3 H2   HT     0.417000        1.0080           0
   39475 WT2  5375 TIP3 OH2  OT    -0.834000       15.9994           0
   39476 WT2  5375 TIP3 H1   HT     0.417000        1.0080           0
   39477 WT2  5375 TIP3 H2   HT     0.417000        1.0080           0
   39478 WT2  5377 TIP3 OH2  OT    -0.834000       15.9994           0
   39479 WT2  5377 TIP3 H1   HT     0.417000        1.0080           0
   39480 WT2  5377 TIP3 H2   HT     0.417000        1.0080           0
   39481 WT2  5378 TIP3 OH2  OT    -0.834000       15.9994           0
   39482 WT2  5378 TIP3 H1   HT     0.417000        1.0080           0
   39483 WT2  5378 TIP3 H2   HT     0.417000        1.0080           0
   39484 WT2  5379 TIP3 OH2  OT    -0.834000       15.9994           0
   39485 WT2  5379 TIP3 H1   HT     0.417000        1.0080           0
   39486 WT2  5379 TIP3 H2   HT     0.417000        1.0080           0
   39487 WT2  5380 TIP3 OH2  OT    -0.834000       15.9994           0
   39488 WT2  5380 TIP3 H1   HT     0.417000        1.0080           0
   39489 WT2  5380 TIP3 H2   HT     0.417000        1.0080           0
   39490 WT2  5381 TIP3 OH2  OT    -0.834000       15.9994           0
   39491 WT2  5381 TIP3 H1   HT     0.417000        1.0080           0
   39492 WT2  5381 TIP3 H2   HT     0.417000        1.0080           0
   39493 WT2  5382 TIP3 OH2  OT    -0.834000       15.9994           0
   39494 WT2  5382 TIP3 H1   HT     0.417000        1.0080           0
   39495 WT2  5382 TIP3 H2   HT     0.417000        1.0080           0
   39496 WT2  5383 TIP3 OH2  OT    -0.834000       15.9994           0
   39497 WT2  5383 TIP3 H1   HT     0.417000        1.0080           0
   39498 WT2  5383 TIP3 H2   HT     0.417000        1.0080           0
   39499 WT2  5384 TIP3 OH2  OT    -0.834000       15.9994           0
   39500 WT2  5384 TIP3 H1   HT     0.417000        1.0080           0
   39501 WT2  5384 TIP3 H2   HT     0.417000        1.0080           0
   39502 WT2  5385 TIP3 OH2  OT    -0.834000       15.9994           0
   39503 WT2  5385 TIP3 H1   HT     0.417000        1.0080           0
   39504 WT2  5385 TIP3 H2   HT     0.417000        1.0080           0
   39505 WT2  5386 TIP3 OH2  OT    -0.834000       15.9994           0
   39506 WT2  5386 TIP3 H1   HT     0.417000        1.0080           0
   39507 WT2  5386 TIP3 H2   HT     0.417000        1.0080           0
   39508 WT2  5387 TIP3 OH2  OT    -0.834000       15.9994           0
   39509 WT2  5387 TIP3 H1   HT     0.417000        1.0080           0
   39510 WT2  5387 TIP3 H2   HT     0.417000        1.0080           0
   39511 WT2  5389 TIP3 OH2  OT    -0.834000       15.9994           0
   39512 WT2  5389 TIP3 H1   HT     0.417000        1.0080           0
   39513 WT2  5389 TIP3 H2   HT     0.417000        1.0080           0
   39514 WT2  5390 TIP3 OH2  OT    -0.834000       15.9994           0
   39515 WT2  5390 TIP3 H1   HT     0.417000        1.0080           0
   39516 WT2  5390 TIP3 H2   HT     0.417000        1.0080           0
   39517 WT2  5392 TIP3 OH2  OT    -0.834000       15.9994           0
   39518 WT2  5392 TIP3 H1   HT     0.417000        1.0080           0
   39519 WT2  5392 TIP3 H2   HT     0.417000        1.0080           0
   39520 WT2  5393 TIP3 OH2  OT    -0.834000       15.9994           0
   39521 WT2  5393 TIP3 H1   HT     0.417000        1.0080           0
   39522 WT2  5393 TIP3 H2   HT     0.417000        1.0080           0
   39523 WT2  5396 TIP3 OH2  OT    -0.834000       15.9994           0
   39524 WT2  5396 TIP3 H1   HT     0.417000        1.0080           0
   39525 WT2  5396 TIP3 H2   HT     0.417000        1.0080           0
   39526 WT2  5399 TIP3 OH2  OT    -0.834000       15.9994           0
   39527 WT2  5399 TIP3 H1   HT     0.417000        1.0080           0
   39528 WT2  5399 TIP3 H2   HT     0.417000        1.0080           0
   39529 WT2  5400 TIP3 OH2  OT    -0.834000       15.9994           0
   39530 WT2  5400 TIP3 H1   HT     0.417000        1.0080           0
   39531 WT2  5400 TIP3 H2   HT     0.417000        1.0080           0
   39532 WT2  5401 TIP3 OH2  OT    -0.834000       15.9994           0
   39533 WT2  5401 TIP3 H1   HT     0.417000        1.0080           0
   39534 WT2  5401 TIP3 H2   HT     0.417000        1.0080           0
   39535 WT2  5402 TIP3 OH2  OT    -0.834000       15.9994           0
   39536 WT2  5402 TIP3 H1   HT     0.417000        1.0080           0
   39537 WT2  5402 TIP3 H2   HT     0.417000        1.0080           0
   39538 WT2  5403 TIP3 OH2  OT    -0.834000       15.9994           0
   39539 WT2  5403 TIP3 H1   HT     0.417000        1.0080           0
   39540 WT2  5403 TIP3 H2   HT     0.417000        1.0080           0
   39541 WT2  5404 TIP3 OH2  OT    -0.834000       15.9994           0
   39542 WT2  5404 TIP3 H1   HT     0.417000        1.0080           0
   39543 WT2  5404 TIP3 H2   HT     0.417000        1.0080           0
   39544 WT2  5405 TIP3 OH2  OT    -0.834000       15.9994           0
   39545 WT2  5405 TIP3 H1   HT     0.417000        1.0080           0
   39546 WT2  5405 TIP3 H2   HT     0.417000        1.0080           0
   39547 WT2  5406 TIP3 OH2  OT    -0.834000       15.9994           0
   39548 WT2  5406 TIP3 H1   HT     0.417000        1.0080           0
   39549 WT2  5406 TIP3 H2   HT     0.417000        1.0080           0
   39550 WT2  5407 TIP3 OH2  OT    -0.834000       15.9994           0
   39551 WT2  5407 TIP3 H1   HT     0.417000        1.0080           0
   39552 WT2  5407 TIP3 H2   HT     0.417000        1.0080           0
   39553 WT2  5408 TIP3 OH2  OT    -0.834000       15.9994           0
   39554 WT2  5408 TIP3 H1   HT     0.417000        1.0080           0
   39555 WT2  5408 TIP3 H2   HT     0.417000        1.0080           0
   39556 WT2  5409 TIP3 OH2  OT    -0.834000       15.9994           0
   39557 WT2  5409 TIP3 H1   HT     0.417000        1.0080           0
   39558 WT2  5409 TIP3 H2   HT     0.417000        1.0080           0
   39559 WT2  5410 TIP3 OH2  OT    -0.834000       15.9994           0
   39560 WT2  5410 TIP3 H1   HT     0.417000        1.0080           0
   39561 WT2  5410 TIP3 H2   HT     0.417000        1.0080           0
   39562 WT2  5411 TIP3 OH2  OT    -0.834000       15.9994           0
   39563 WT2  5411 TIP3 H1   HT     0.417000        1.0080           0
   39564 WT2  5411 TIP3 H2   HT     0.417000        1.0080           0
   39565 WT2  5412 TIP3 OH2  OT    -0.834000       15.9994           0
   39566 WT2  5412 TIP3 H1   HT     0.417000        1.0080           0
   39567 WT2  5412 TIP3 H2   HT     0.417000        1.0080           0
   39568 WT2  5418 TIP3 OH2  OT    -0.834000       15.9994           0
   39569 WT2  5418 TIP3 H1   HT     0.417000        1.0080           0
   39570 WT2  5418 TIP3 H2   HT     0.417000        1.0080           0
   39571 WT2  5419 TIP3 OH2  OT    -0.834000       15.9994           0
   39572 WT2  5419 TIP3 H1   HT     0.417000        1.0080           0
   39573 WT2  5419 TIP3 H2   HT     0.417000        1.0080           0
   39574 WT2  5420 TIP3 OH2  OT    -0.834000       15.9994           0
   39575 WT2  5420 TIP3 H1   HT     0.417000        1.0080           0
   39576 WT2  5420 TIP3 H2   HT     0.417000        1.0080           0
   39577 WT2  5421 TIP3 OH2  OT    -0.834000       15.9994           0
   39578 WT2  5421 TIP3 H1   HT     0.417000        1.0080           0
   39579 WT2  5421 TIP3 H2   HT     0.417000        1.0080           0
   39580 WT2  5422 TIP3 OH2  OT    -0.834000       15.9994           0
   39581 WT2  5422 TIP3 H1   HT     0.417000        1.0080           0
   39582 WT2  5422 TIP3 H2   HT     0.417000        1.0080           0
   39583 WT2  5423 TIP3 OH2  OT    -0.834000       15.9994           0
   39584 WT2  5423 TIP3 H1   HT     0.417000        1.0080           0
   39585 WT2  5423 TIP3 H2   HT     0.417000        1.0080           0
   39586 WT2  5424 TIP3 OH2  OT    -0.834000       15.9994           0
   39587 WT2  5424 TIP3 H1   HT     0.417000        1.0080           0
   39588 WT2  5424 TIP3 H2   HT     0.417000        1.0080           0
   39589 WT2  5425 TIP3 OH2  OT    -0.834000       15.9994           0
   39590 WT2  5425 TIP3 H1   HT     0.417000        1.0080           0
   39591 WT2  5425 TIP3 H2   HT     0.417000        1.0080           0
   39592 WT2  5426 TIP3 OH2  OT    -0.834000       15.9994           0
   39593 WT2  5426 TIP3 H1   HT     0.417000        1.0080           0
   39594 WT2  5426 TIP3 H2   HT     0.417000        1.0080           0
   39595 WT2  5427 TIP3 OH2  OT    -0.834000       15.9994           0
   39596 WT2  5427 TIP3 H1   HT     0.417000        1.0080           0
   39597 WT2  5427 TIP3 H2   HT     0.417000        1.0080           0
   39598 WT2  5428 TIP3 OH2  OT    -0.834000       15.9994           0
   39599 WT2  5428 TIP3 H1   HT     0.417000        1.0080           0
   39600 WT2  5428 TIP3 H2   HT     0.417000        1.0080           0
   39601 WT2  5429 TIP3 OH2  OT    -0.834000       15.9994           0
   39602 WT2  5429 TIP3 H1   HT     0.417000        1.0080           0
   39603 WT2  5429 TIP3 H2   HT     0.417000        1.0080           0
   39604 WT2  5430 TIP3 OH2  OT    -0.834000       15.9994           0
   39605 WT2  5430 TIP3 H1   HT     0.417000        1.0080           0
   39606 WT2  5430 TIP3 H2   HT     0.417000        1.0080           0
   39607 WT2  5431 TIP3 OH2  OT    -0.834000       15.9994           0
   39608 WT2  5431 TIP3 H1   HT     0.417000        1.0080           0
   39609 WT2  5431 TIP3 H2   HT     0.417000        1.0080           0
   39610 WT2  5433 TIP3 OH2  OT    -0.834000       15.9994           0
   39611 WT2  5433 TIP3 H1   HT     0.417000        1.0080           0
   39612 WT2  5433 TIP3 H2   HT     0.417000        1.0080           0
   39613 WT2  5434 TIP3 OH2  OT    -0.834000       15.9994           0
   39614 WT2  5434 TIP3 H1   HT     0.417000        1.0080           0
   39615 WT2  5434 TIP3 H2   HT     0.417000        1.0080           0
   39616 WT2  5440 TIP3 OH2  OT    -0.834000       15.9994           0
   39617 WT2  5440 TIP3 H1   HT     0.417000        1.0080           0
   39618 WT2  5440 TIP3 H2   HT     0.417000        1.0080           0
   39619 WT2  5442 TIP3 OH2  OT    -0.834000       15.9994           0
   39620 WT2  5442 TIP3 H1   HT     0.417000        1.0080           0
   39621 WT2  5442 TIP3 H2   HT     0.417000        1.0080           0
   39622 WT2  5443 TIP3 OH2  OT    -0.834000       15.9994           0
   39623 WT2  5443 TIP3 H1   HT     0.417000        1.0080           0
   39624 WT2  5443 TIP3 H2   HT     0.417000        1.0080           0
   39625 WT2  5444 TIP3 OH2  OT    -0.834000       15.9994           0
   39626 WT2  5444 TIP3 H1   HT     0.417000        1.0080           0
   39627 WT2  5444 TIP3 H2   HT     0.417000        1.0080           0
   39628 WT2  5445 TIP3 OH2  OT    -0.834000       15.9994           0
   39629 WT2  5445 TIP3 H1   HT     0.417000        1.0080           0
   39630 WT2  5445 TIP3 H2   HT     0.417000        1.0080           0
   39631 WT2  5446 TIP3 OH2  OT    -0.834000       15.9994           0
   39632 WT2  5446 TIP3 H1   HT     0.417000        1.0080           0
   39633 WT2  5446 TIP3 H2   HT     0.417000        1.0080           0
   39634 WT2  5447 TIP3 OH2  OT    -0.834000       15.9994           0
   39635 WT2  5447 TIP3 H1   HT     0.417000        1.0080           0
   39636 WT2  5447 TIP3 H2   HT     0.417000        1.0080           0
   39637 WT2  5448 TIP3 OH2  OT    -0.834000       15.9994           0
   39638 WT2  5448 TIP3 H1   HT     0.417000        1.0080           0
   39639 WT2  5448 TIP3 H2   HT     0.417000        1.0080           0
   39640 WT2  5449 TIP3 OH2  OT    -0.834000       15.9994           0
   39641 WT2  5449 TIP3 H1   HT     0.417000        1.0080           0
   39642 WT2  5449 TIP3 H2   HT     0.417000        1.0080           0
   39643 WT2  5450 TIP3 OH2  OT    -0.834000       15.9994           0
   39644 WT2  5450 TIP3 H1   HT     0.417000        1.0080           0
   39645 WT2  5450 TIP3 H2   HT     0.417000        1.0080           0
   39646 WT2  5451 TIP3 OH2  OT    -0.834000       15.9994           0
   39647 WT2  5451 TIP3 H1   HT     0.417000        1.0080           0
   39648 WT2  5451 TIP3 H2   HT     0.417000        1.0080           0
   39649 WT2  5452 TIP3 OH2  OT    -0.834000       15.9994           0
   39650 WT2  5452 TIP3 H1   HT     0.417000        1.0080           0
   39651 WT2  5452 TIP3 H2   HT     0.417000        1.0080           0
   39652 WT2  5454 TIP3 OH2  OT    -0.834000       15.9994           0
   39653 WT2  5454 TIP3 H1   HT     0.417000        1.0080           0
   39654 WT2  5454 TIP3 H2   HT     0.417000        1.0080           0
   39655 WT2  5455 TIP3 OH2  OT    -0.834000       15.9994           0
   39656 WT2  5455 TIP3 H1   HT     0.417000        1.0080           0
   39657 WT2  5455 TIP3 H2   HT     0.417000        1.0080           0
   39658 WT2  5456 TIP3 OH2  OT    -0.834000       15.9994           0
   39659 WT2  5456 TIP3 H1   HT     0.417000        1.0080           0
   39660 WT2  5456 TIP3 H2   HT     0.417000        1.0080           0
   39661 WT2  5460 TIP3 OH2  OT    -0.834000       15.9994           0
   39662 WT2  5460 TIP3 H1   HT     0.417000        1.0080           0
   39663 WT2  5460 TIP3 H2   HT     0.417000        1.0080           0
   39664 WT2  5461 TIP3 OH2  OT    -0.834000       15.9994           0
   39665 WT2  5461 TIP3 H1   HT     0.417000        1.0080           0
   39666 WT2  5461 TIP3 H2   HT     0.417000        1.0080           0
   39667 WT2  5462 TIP3 OH2  OT    -0.834000       15.9994           0
   39668 WT2  5462 TIP3 H1   HT     0.417000        1.0080           0
   39669 WT2  5462 TIP3 H2   HT     0.417000        1.0080           0
   39670 WT2  5463 TIP3 OH2  OT    -0.834000       15.9994           0
   39671 WT2  5463 TIP3 H1   HT     0.417000        1.0080           0
   39672 WT2  5463 TIP3 H2   HT     0.417000        1.0080           0
   39673 WT2  5464 TIP3 OH2  OT    -0.834000       15.9994           0
   39674 WT2  5464 TIP3 H1   HT     0.417000        1.0080           0
   39675 WT2  5464 TIP3 H2   HT     0.417000        1.0080           0
   39676 WT2  5465 TIP3 OH2  OT    -0.834000       15.9994           0
   39677 WT2  5465 TIP3 H1   HT     0.417000        1.0080           0
   39678 WT2  5465 TIP3 H2   HT     0.417000        1.0080           0
   39679 WT2  5466 TIP3 OH2  OT    -0.834000       15.9994           0
   39680 WT2  5466 TIP3 H1   HT     0.417000        1.0080           0
   39681 WT2  5466 TIP3 H2   HT     0.417000        1.0080           0
   39682 WT2  5467 TIP3 OH2  OT    -0.834000       15.9994           0
   39683 WT2  5467 TIP3 H1   HT     0.417000        1.0080           0
   39684 WT2  5467 TIP3 H2   HT     0.417000        1.0080           0
   39685 WT2  5468 TIP3 OH2  OT    -0.834000       15.9994           0
   39686 WT2  5468 TIP3 H1   HT     0.417000        1.0080           0
   39687 WT2  5468 TIP3 H2   HT     0.417000        1.0080           0
   39688 WT2  5469 TIP3 OH2  OT    -0.834000       15.9994           0
   39689 WT2  5469 TIP3 H1   HT     0.417000        1.0080           0
   39690 WT2  5469 TIP3 H2   HT     0.417000        1.0080           0
   39691 WT2  5470 TIP3 OH2  OT    -0.834000       15.9994           0
   39692 WT2  5470 TIP3 H1   HT     0.417000        1.0080           0
   39693 WT2  5470 TIP3 H2   HT     0.417000        1.0080           0
   39694 WT2  5471 TIP3 OH2  OT    -0.834000       15.9994           0
   39695 WT2  5471 TIP3 H1   HT     0.417000        1.0080           0
   39696 WT2  5471 TIP3 H2   HT     0.417000        1.0080           0
   39697 WT2  5472 TIP3 OH2  OT    -0.834000       15.9994           0
   39698 WT2  5472 TIP3 H1   HT     0.417000        1.0080           0
   39699 WT2  5472 TIP3 H2   HT     0.417000        1.0080           0
   39700 WT2  5473 TIP3 OH2  OT    -0.834000       15.9994           0
   39701 WT2  5473 TIP3 H1   HT     0.417000        1.0080           0
   39702 WT2  5473 TIP3 H2   HT     0.417000        1.0080           0
   39703 WT2  5476 TIP3 OH2  OT    -0.834000       15.9994           0
   39704 WT2  5476 TIP3 H1   HT     0.417000        1.0080           0
   39705 WT2  5476 TIP3 H2   HT     0.417000        1.0080           0
   39706 WT2  5481 TIP3 OH2  OT    -0.834000       15.9994           0
   39707 WT2  5481 TIP3 H1   HT     0.417000        1.0080           0
   39708 WT2  5481 TIP3 H2   HT     0.417000        1.0080           0
   39709 WT2  5482 TIP3 OH2  OT    -0.834000       15.9994           0
   39710 WT2  5482 TIP3 H1   HT     0.417000        1.0080           0
   39711 WT2  5482 TIP3 H2   HT     0.417000        1.0080           0
   39712 WT2  5483 TIP3 OH2  OT    -0.834000       15.9994           0
   39713 WT2  5483 TIP3 H1   HT     0.417000        1.0080           0
   39714 WT2  5483 TIP3 H2   HT     0.417000        1.0080           0
   39715 WT2  5484 TIP3 OH2  OT    -0.834000       15.9994           0
   39716 WT2  5484 TIP3 H1   HT     0.417000        1.0080           0
   39717 WT2  5484 TIP3 H2   HT     0.417000        1.0080           0
   39718 WT2  5485 TIP3 OH2  OT    -0.834000       15.9994           0
   39719 WT2  5485 TIP3 H1   HT     0.417000        1.0080           0
   39720 WT2  5485 TIP3 H2   HT     0.417000        1.0080           0
   39721 WT2  5486 TIP3 OH2  OT    -0.834000       15.9994           0
   39722 WT2  5486 TIP3 H1   HT     0.417000        1.0080           0
   39723 WT2  5486 TIP3 H2   HT     0.417000        1.0080           0
   39724 WT2  5487 TIP3 OH2  OT    -0.834000       15.9994           0
   39725 WT2  5487 TIP3 H1   HT     0.417000        1.0080           0
   39726 WT2  5487 TIP3 H2   HT     0.417000        1.0080           0
   39727 WT2  5488 TIP3 OH2  OT    -0.834000       15.9994           0
   39728 WT2  5488 TIP3 H1   HT     0.417000        1.0080           0
   39729 WT2  5488 TIP3 H2   HT     0.417000        1.0080           0
   39730 WT2  5489 TIP3 OH2  OT    -0.834000       15.9994           0
   39731 WT2  5489 TIP3 H1   HT     0.417000        1.0080           0
   39732 WT2  5489 TIP3 H2   HT     0.417000        1.0080           0
   39733 WT2  5490 TIP3 OH2  OT    -0.834000       15.9994           0
   39734 WT2  5490 TIP3 H1   HT     0.417000        1.0080           0
   39735 WT2  5490 TIP3 H2   HT     0.417000        1.0080           0
   39736 WT2  5491 TIP3 OH2  OT    -0.834000       15.9994           0
   39737 WT2  5491 TIP3 H1   HT     0.417000        1.0080           0
   39738 WT2  5491 TIP3 H2   HT     0.417000        1.0080           0
   39739 WT2  5492 TIP3 OH2  OT    -0.834000       15.9994           0
   39740 WT2  5492 TIP3 H1   HT     0.417000        1.0080           0
   39741 WT2  5492 TIP3 H2   HT     0.417000        1.0080           0
   39742 WT2  5493 TIP3 OH2  OT    -0.834000       15.9994           0
   39743 WT2  5493 TIP3 H1   HT     0.417000        1.0080           0
   39744 WT2  5493 TIP3 H2   HT     0.417000        1.0080           0
   39745 WT2  5497 TIP3 OH2  OT    -0.834000       15.9994           0
   39746 WT2  5497 TIP3 H1   HT     0.417000        1.0080           0
   39747 WT2  5497 TIP3 H2   HT     0.417000        1.0080           0
   39748 WT2  5501 TIP3 OH2  OT    -0.834000       15.9994           0
   39749 WT2  5501 TIP3 H1   HT     0.417000        1.0080           0
   39750 WT2  5501 TIP3 H2   HT     0.417000        1.0080           0
   39751 WT2  5504 TIP3 OH2  OT    -0.834000       15.9994           0
   39752 WT2  5504 TIP3 H1   HT     0.417000        1.0080           0
   39753 WT2  5504 TIP3 H2   HT     0.417000        1.0080           0
   39754 WT2  5505 TIP3 OH2  OT    -0.834000       15.9994           0
   39755 WT2  5505 TIP3 H1   HT     0.417000        1.0080           0
   39756 WT2  5505 TIP3 H2   HT     0.417000        1.0080           0
   39757 WT2  5506 TIP3 OH2  OT    -0.834000       15.9994           0
   39758 WT2  5506 TIP3 H1   HT     0.417000        1.0080           0
   39759 WT2  5506 TIP3 H2   HT     0.417000        1.0080           0
   39760 WT2  5507 TIP3 OH2  OT    -0.834000       15.9994           0
   39761 WT2  5507 TIP3 H1   HT     0.417000        1.0080           0
   39762 WT2  5507 TIP3 H2   HT     0.417000        1.0080           0
   39763 WT2  5508 TIP3 OH2  OT    -0.834000       15.9994           0
   39764 WT2  5508 TIP3 H1   HT     0.417000        1.0080           0
   39765 WT2  5508 TIP3 H2   HT     0.417000        1.0080           0
   39766 WT2  5509 TIP3 OH2  OT    -0.834000       15.9994           0
   39767 WT2  5509 TIP3 H1   HT     0.417000        1.0080           0
   39768 WT2  5509 TIP3 H2   HT     0.417000        1.0080           0
   39769 WT2  5510 TIP3 OH2  OT    -0.834000       15.9994           0
   39770 WT2  5510 TIP3 H1   HT     0.417000        1.0080           0
   39771 WT2  5510 TIP3 H2   HT     0.417000        1.0080           0
   39772 WT2  5511 TIP3 OH2  OT    -0.834000       15.9994           0
   39773 WT2  5511 TIP3 H1   HT     0.417000        1.0080           0
   39774 WT2  5511 TIP3 H2   HT     0.417000        1.0080           0
   39775 WT2  5512 TIP3 OH2  OT    -0.834000       15.9994           0
   39776 WT2  5512 TIP3 H1   HT     0.417000        1.0080           0
   39777 WT2  5512 TIP3 H2   HT     0.417000        1.0080           0
   39778 WT2  5513 TIP3 OH2  OT    -0.834000       15.9994           0
   39779 WT2  5513 TIP3 H1   HT     0.417000        1.0080           0
   39780 WT2  5513 TIP3 H2   HT     0.417000        1.0080           0
   39781 WT2  5514 TIP3 OH2  OT    -0.834000       15.9994           0
   39782 WT2  5514 TIP3 H1   HT     0.417000        1.0080           0
   39783 WT2  5514 TIP3 H2   HT     0.417000        1.0080           0
   39784 WT2  5520 TIP3 OH2  OT    -0.834000       15.9994           0
   39785 WT2  5520 TIP3 H1   HT     0.417000        1.0080           0
   39786 WT2  5520 TIP3 H2   HT     0.417000        1.0080           0
   39787 WT2  5522 TIP3 OH2  OT    -0.834000       15.9994           0
   39788 WT2  5522 TIP3 H1   HT     0.417000        1.0080           0
   39789 WT2  5522 TIP3 H2   HT     0.417000        1.0080           0
   39790 WT2  5526 TIP3 OH2  OT    -0.834000       15.9994           0
   39791 WT2  5526 TIP3 H1   HT     0.417000        1.0080           0
   39792 WT2  5526 TIP3 H2   HT     0.417000        1.0080           0
   39793 WT2  5527 TIP3 OH2  OT    -0.834000       15.9994           0
   39794 WT2  5527 TIP3 H1   HT     0.417000        1.0080           0
   39795 WT2  5527 TIP3 H2   HT     0.417000        1.0080           0
   39796 WT2  5528 TIP3 OH2  OT    -0.834000       15.9994           0
   39797 WT2  5528 TIP3 H1   HT     0.417000        1.0080           0
   39798 WT2  5528 TIP3 H2   HT     0.417000        1.0080           0
   39799 WT2  5529 TIP3 OH2  OT    -0.834000       15.9994           0
   39800 WT2  5529 TIP3 H1   HT     0.417000        1.0080           0
   39801 WT2  5529 TIP3 H2   HT     0.417000        1.0080           0
   39802 WT2  5530 TIP3 OH2  OT    -0.834000       15.9994           0
   39803 WT2  5530 TIP3 H1   HT     0.417000        1.0080           0
   39804 WT2  5530 TIP3 H2   HT     0.417000        1.0080           0
   39805 WT2  5531 TIP3 OH2  OT    -0.834000       15.9994           0
   39806 WT2  5531 TIP3 H1   HT     0.417000        1.0080           0
   39807 WT2  5531 TIP3 H2   HT     0.417000        1.0080           0
   39808 WT2  5532 TIP3 OH2  OT    -0.834000       15.9994           0
   39809 WT2  5532 TIP3 H1   HT     0.417000        1.0080           0
   39810 WT2  5532 TIP3 H2   HT     0.417000        1.0080           0
   39811 WT2  5533 TIP3 OH2  OT    -0.834000       15.9994           0
   39812 WT2  5533 TIP3 H1   HT     0.417000        1.0080           0
   39813 WT2  5533 TIP3 H2   HT     0.417000        1.0080           0
   39814 WT2  5535 TIP3 OH2  OT    -0.834000       15.9994           0
   39815 WT2  5535 TIP3 H1   HT     0.417000        1.0080           0
   39816 WT2  5535 TIP3 H2   HT     0.417000        1.0080           0
   39817 WT2  5536 TIP3 OH2  OT    -0.834000       15.9994           0
   39818 WT2  5536 TIP3 H1   HT     0.417000        1.0080           0
   39819 WT2  5536 TIP3 H2   HT     0.417000        1.0080           0
   39820 WT2  5537 TIP3 OH2  OT    -0.834000       15.9994           0
   39821 WT2  5537 TIP3 H1   HT     0.417000        1.0080           0
   39822 WT2  5537 TIP3 H2   HT     0.417000        1.0080           0
   39823 WT2  5543 TIP3 OH2  OT    -0.834000       15.9994           0
   39824 WT2  5543 TIP3 H1   HT     0.417000        1.0080           0
   39825 WT2  5543 TIP3 H2   HT     0.417000        1.0080           0
   39826 WT2  5545 TIP3 OH2  OT    -0.834000       15.9994           0
   39827 WT2  5545 TIP3 H1   HT     0.417000        1.0080           0
   39828 WT2  5545 TIP3 H2   HT     0.417000        1.0080           0
   39829 WT2  5547 TIP3 OH2  OT    -0.834000       15.9994           0
   39830 WT2  5547 TIP3 H1   HT     0.417000        1.0080           0
   39831 WT2  5547 TIP3 H2   HT     0.417000        1.0080           0
   39832 WT2  5548 TIP3 OH2  OT    -0.834000       15.9994           0
   39833 WT2  5548 TIP3 H1   HT     0.417000        1.0080           0
   39834 WT2  5548 TIP3 H2   HT     0.417000        1.0080           0
   39835 WT2  5549 TIP3 OH2  OT    -0.834000       15.9994           0
   39836 WT2  5549 TIP3 H1   HT     0.417000        1.0080           0
   39837 WT2  5549 TIP3 H2   HT     0.417000        1.0080           0
   39838 WT2  5550 TIP3 OH2  OT    -0.834000       15.9994           0
   39839 WT2  5550 TIP3 H1   HT     0.417000        1.0080           0
   39840 WT2  5550 TIP3 H2   HT     0.417000        1.0080           0
   39841 WT2  5551 TIP3 OH2  OT    -0.834000       15.9994           0
   39842 WT2  5551 TIP3 H1   HT     0.417000        1.0080           0
   39843 WT2  5551 TIP3 H2   HT     0.417000        1.0080           0
   39844 WT2  5552 TIP3 OH2  OT    -0.834000       15.9994           0
   39845 WT2  5552 TIP3 H1   HT     0.417000        1.0080           0
   39846 WT2  5552 TIP3 H2   HT     0.417000        1.0080           0
   39847 WT2  5553 TIP3 OH2  OT    -0.834000       15.9994           0
   39848 WT2  5553 TIP3 H1   HT     0.417000        1.0080           0
   39849 WT2  5553 TIP3 H2   HT     0.417000        1.0080           0
   39850 WT2  5554 TIP3 OH2  OT    -0.834000       15.9994           0
   39851 WT2  5554 TIP3 H1   HT     0.417000        1.0080           0
   39852 WT2  5554 TIP3 H2   HT     0.417000        1.0080           0
   39853 WT2  5555 TIP3 OH2  OT    -0.834000       15.9994           0
   39854 WT2  5555 TIP3 H1   HT     0.417000        1.0080           0
   39855 WT2  5555 TIP3 H2   HT     0.417000        1.0080           0
   39856 WT2  5556 TIP3 OH2  OT    -0.834000       15.9994           0
   39857 WT2  5556 TIP3 H1   HT     0.417000        1.0080           0
   39858 WT2  5556 TIP3 H2   HT     0.417000        1.0080           0
   39859 WT2  5557 TIP3 OH2  OT    -0.834000       15.9994           0
   39860 WT2  5557 TIP3 H1   HT     0.417000        1.0080           0
   39861 WT2  5557 TIP3 H2   HT     0.417000        1.0080           0
   39862 WT2  5558 TIP3 OH2  OT    -0.834000       15.9994           0
   39863 WT2  5558 TIP3 H1   HT     0.417000        1.0080           0
   39864 WT2  5558 TIP3 H2   HT     0.417000        1.0080           0
   39865 WT2  5559 TIP3 OH2  OT    -0.834000       15.9994           0
   39866 WT2  5559 TIP3 H1   HT     0.417000        1.0080           0
   39867 WT2  5559 TIP3 H2   HT     0.417000        1.0080           0
   39868 WT2  5560 TIP3 OH2  OT    -0.834000       15.9994           0
   39869 WT2  5560 TIP3 H1   HT     0.417000        1.0080           0
   39870 WT2  5560 TIP3 H2   HT     0.417000        1.0080           0
   39871 WT2  5564 TIP3 OH2  OT    -0.834000       15.9994           0
   39872 WT2  5564 TIP3 H1   HT     0.417000        1.0080           0
   39873 WT2  5564 TIP3 H2   HT     0.417000        1.0080           0
   39874 WT2  5566 TIP3 OH2  OT    -0.834000       15.9994           0
   39875 WT2  5566 TIP3 H1   HT     0.417000        1.0080           0
   39876 WT2  5566 TIP3 H2   HT     0.417000        1.0080           0
   39877 WT2  5567 TIP3 OH2  OT    -0.834000       15.9994           0
   39878 WT2  5567 TIP3 H1   HT     0.417000        1.0080           0
   39879 WT2  5567 TIP3 H2   HT     0.417000        1.0080           0
   39880 WT2  5568 TIP3 OH2  OT    -0.834000       15.9994           0
   39881 WT2  5568 TIP3 H1   HT     0.417000        1.0080           0
   39882 WT2  5568 TIP3 H2   HT     0.417000        1.0080           0
   39883 WT2  5569 TIP3 OH2  OT    -0.834000       15.9994           0
   39884 WT2  5569 TIP3 H1   HT     0.417000        1.0080           0
   39885 WT2  5569 TIP3 H2   HT     0.417000        1.0080           0
   39886 WT2  5570 TIP3 OH2  OT    -0.834000       15.9994           0
   39887 WT2  5570 TIP3 H1   HT     0.417000        1.0080           0
   39888 WT2  5570 TIP3 H2   HT     0.417000        1.0080           0
   39889 WT2  5571 TIP3 OH2  OT    -0.834000       15.9994           0
   39890 WT2  5571 TIP3 H1   HT     0.417000        1.0080           0
   39891 WT2  5571 TIP3 H2   HT     0.417000        1.0080           0
   39892 WT2  5572 TIP3 OH2  OT    -0.834000       15.9994           0
   39893 WT2  5572 TIP3 H1   HT     0.417000        1.0080           0
   39894 WT2  5572 TIP3 H2   HT     0.417000        1.0080           0
   39895 WT2  5573 TIP3 OH2  OT    -0.834000       15.9994           0
   39896 WT2  5573 TIP3 H1   HT     0.417000        1.0080           0
   39897 WT2  5573 TIP3 H2   HT     0.417000        1.0080           0
   39898 WT2  5574 TIP3 OH2  OT    -0.834000       15.9994           0
   39899 WT2  5574 TIP3 H1   HT     0.417000        1.0080           0
   39900 WT2  5574 TIP3 H2   HT     0.417000        1.0080           0
   39901 WT2  5575 TIP3 OH2  OT    -0.834000       15.9994           0
   39902 WT2  5575 TIP3 H1   HT     0.417000        1.0080           0
   39903 WT2  5575 TIP3 H2   HT     0.417000        1.0080           0
   39904 WT2  5577 TIP3 OH2  OT    -0.834000       15.9994           0
   39905 WT2  5577 TIP3 H1   HT     0.417000        1.0080           0
   39906 WT2  5577 TIP3 H2   HT     0.417000        1.0080           0
   39907 WT2  5579 TIP3 OH2  OT    -0.834000       15.9994           0
   39908 WT2  5579 TIP3 H1   HT     0.417000        1.0080           0
   39909 WT2  5579 TIP3 H2   HT     0.417000        1.0080           0
   39910 WT2  5585 TIP3 OH2  OT    -0.834000       15.9994           0
   39911 WT2  5585 TIP3 H1   HT     0.417000        1.0080           0
   39912 WT2  5585 TIP3 H2   HT     0.417000        1.0080           0
   39913 WT2  5590 TIP3 OH2  OT    -0.834000       15.9994           0
   39914 WT2  5590 TIP3 H1   HT     0.417000        1.0080           0
   39915 WT2  5590 TIP3 H2   HT     0.417000        1.0080           0
   39916 WT2  5591 TIP3 OH2  OT    -0.834000       15.9994           0
   39917 WT2  5591 TIP3 H1   HT     0.417000        1.0080           0
   39918 WT2  5591 TIP3 H2   HT     0.417000        1.0080           0
   39919 WT2  5592 TIP3 OH2  OT    -0.834000       15.9994           0
   39920 WT2  5592 TIP3 H1   HT     0.417000        1.0080           0
   39921 WT2  5592 TIP3 H2   HT     0.417000        1.0080           0
   39922 WT2  5593 TIP3 OH2  OT    -0.834000       15.9994           0
   39923 WT2  5593 TIP3 H1   HT     0.417000        1.0080           0
   39924 WT2  5593 TIP3 H2   HT     0.417000        1.0080           0
   39925 WT2  5594 TIP3 OH2  OT    -0.834000       15.9994           0
   39926 WT2  5594 TIP3 H1   HT     0.417000        1.0080           0
   39927 WT2  5594 TIP3 H2   HT     0.417000        1.0080           0
   39928 WT2  5596 TIP3 OH2  OT    -0.834000       15.9994           0
   39929 WT2  5596 TIP3 H1   HT     0.417000        1.0080           0
   39930 WT2  5596 TIP3 H2   HT     0.417000        1.0080           0
   39931 WT2  5597 TIP3 OH2  OT    -0.834000       15.9994           0
   39932 WT2  5597 TIP3 H1   HT     0.417000        1.0080           0
   39933 WT2  5597 TIP3 H2   HT     0.417000        1.0080           0
   39934 WT2  5600 TIP3 OH2  OT    -0.834000       15.9994           0
   39935 WT2  5600 TIP3 H1   HT     0.417000        1.0080           0
   39936 WT2  5600 TIP3 H2   HT     0.417000        1.0080           0
   39937 WT2  5604 TIP3 OH2  OT    -0.834000       15.9994           0
   39938 WT2  5604 TIP3 H1   HT     0.417000        1.0080           0
   39939 WT2  5604 TIP3 H2   HT     0.417000        1.0080           0
   39940 WT2  5606 TIP3 OH2  OT    -0.834000       15.9994           0
   39941 WT2  5606 TIP3 H1   HT     0.417000        1.0080           0
   39942 WT2  5606 TIP3 H2   HT     0.417000        1.0080           0
   39943 WT2  5607 TIP3 OH2  OT    -0.834000       15.9994           0
   39944 WT2  5607 TIP3 H1   HT     0.417000        1.0080           0
   39945 WT2  5607 TIP3 H2   HT     0.417000        1.0080           0
   39946 WT2  5608 TIP3 OH2  OT    -0.834000       15.9994           0
   39947 WT2  5608 TIP3 H1   HT     0.417000        1.0080           0
   39948 WT2  5608 TIP3 H2   HT     0.417000        1.0080           0
   39949 WT2  5609 TIP3 OH2  OT    -0.834000       15.9994           0
   39950 WT2  5609 TIP3 H1   HT     0.417000        1.0080           0
   39951 WT2  5609 TIP3 H2   HT     0.417000        1.0080           0
   39952 WT2  5610 TIP3 OH2  OT    -0.834000       15.9994           0
   39953 WT2  5610 TIP3 H1   HT     0.417000        1.0080           0
   39954 WT2  5610 TIP3 H2   HT     0.417000        1.0080           0
   39955 WT2  5611 TIP3 OH2  OT    -0.834000       15.9994           0
   39956 WT2  5611 TIP3 H1   HT     0.417000        1.0080           0
   39957 WT2  5611 TIP3 H2   HT     0.417000        1.0080           0
   39958 WT2  5612 TIP3 OH2  OT    -0.834000       15.9994           0
   39959 WT2  5612 TIP3 H1   HT     0.417000        1.0080           0
   39960 WT2  5612 TIP3 H2   HT     0.417000        1.0080           0
   39961 WT2  5613 TIP3 OH2  OT    -0.834000       15.9994           0
   39962 WT2  5613 TIP3 H1   HT     0.417000        1.0080           0
   39963 WT2  5613 TIP3 H2   HT     0.417000        1.0080           0
   39964 WT2  5614 TIP3 OH2  OT    -0.834000       15.9994           0
   39965 WT2  5614 TIP3 H1   HT     0.417000        1.0080           0
   39966 WT2  5614 TIP3 H2   HT     0.417000        1.0080           0
   39967 WT2  5615 TIP3 OH2  OT    -0.834000       15.9994           0
   39968 WT2  5615 TIP3 H1   HT     0.417000        1.0080           0
   39969 WT2  5615 TIP3 H2   HT     0.417000        1.0080           0
   39970 WT2  5616 TIP3 OH2  OT    -0.834000       15.9994           0
   39971 WT2  5616 TIP3 H1   HT     0.417000        1.0080           0
   39972 WT2  5616 TIP3 H2   HT     0.417000        1.0080           0
   39973 WT2  5617 TIP3 OH2  OT    -0.834000       15.9994           0
   39974 WT2  5617 TIP3 H1   HT     0.417000        1.0080           0
   39975 WT2  5617 TIP3 H2   HT     0.417000        1.0080           0
   39976 WT2  5618 TIP3 OH2  OT    -0.834000       15.9994           0
   39977 WT2  5618 TIP3 H1   HT     0.417000        1.0080           0
   39978 WT2  5618 TIP3 H2   HT     0.417000        1.0080           0
   39979 WT2  5619 TIP3 OH2  OT    -0.834000       15.9994           0
   39980 WT2  5619 TIP3 H1   HT     0.417000        1.0080           0
   39981 WT2  5619 TIP3 H2   HT     0.417000        1.0080           0
   39982 WT2  5620 TIP3 OH2  OT    -0.834000       15.9994           0
   39983 WT2  5620 TIP3 H1   HT     0.417000        1.0080           0
   39984 WT2  5620 TIP3 H2   HT     0.417000        1.0080           0
   39985 WT2  5621 TIP3 OH2  OT    -0.834000       15.9994           0
   39986 WT2  5621 TIP3 H1   HT     0.417000        1.0080           0
   39987 WT2  5621 TIP3 H2   HT     0.417000        1.0080           0
   39988 WT2  5623 TIP3 OH2  OT    -0.834000       15.9994           0
   39989 WT2  5623 TIP3 H1   HT     0.417000        1.0080           0
   39990 WT2  5623 TIP3 H2   HT     0.417000        1.0080           0
   39991 WT2  5626 TIP3 OH2  OT    -0.834000       15.9994           0
   39992 WT2  5626 TIP3 H1   HT     0.417000        1.0080           0
   39993 WT2  5626 TIP3 H2   HT     0.417000        1.0080           0
   39994 WT2  5628 TIP3 OH2  OT    -0.834000       15.9994           0
   39995 WT2  5628 TIP3 H1   HT     0.417000        1.0080           0
   39996 WT2  5628 TIP3 H2   HT     0.417000        1.0080           0
   39997 WT2  5630 TIP3 OH2  OT    -0.834000       15.9994           0
   39998 WT2  5630 TIP3 H1   HT     0.417000        1.0080           0
   39999 WT2  5630 TIP3 H2   HT     0.417000        1.0080           0
   40000 WT2  5631 TIP3 OH2  OT    -0.834000       15.9994           0
   40001 WT2  5631 TIP3 H1   HT     0.417000        1.0080           0
   40002 WT2  5631 TIP3 H2   HT     0.417000        1.0080           0
   40003 WT2  5632 TIP3 OH2  OT    -0.834000       15.9994           0
   40004 WT2  5632 TIP3 H1   HT     0.417000        1.0080           0
   40005 WT2  5632 TIP3 H2   HT     0.417000        1.0080           0
   40006 WT2  5633 TIP3 OH2  OT    -0.834000       15.9994           0
   40007 WT2  5633 TIP3 H1   HT     0.417000        1.0080           0
   40008 WT2  5633 TIP3 H2   HT     0.417000        1.0080           0
   40009 WT2  5634 TIP3 OH2  OT    -0.834000       15.9994           0
   40010 WT2  5634 TIP3 H1   HT     0.417000        1.0080           0
   40011 WT2  5634 TIP3 H2   HT     0.417000        1.0080           0
   40012 WT2  5635 TIP3 OH2  OT    -0.834000       15.9994           0
   40013 WT2  5635 TIP3 H1   HT     0.417000        1.0080           0
   40014 WT2  5635 TIP3 H2   HT     0.417000        1.0080           0
   40015 WT2  5636 TIP3 OH2  OT    -0.834000       15.9994           0
   40016 WT2  5636 TIP3 H1   HT     0.417000        1.0080           0
   40017 WT2  5636 TIP3 H2   HT     0.417000        1.0080           0
   40018 WT2  5637 TIP3 OH2  OT    -0.834000       15.9994           0
   40019 WT2  5637 TIP3 H1   HT     0.417000        1.0080           0
   40020 WT2  5637 TIP3 H2   HT     0.417000        1.0080           0
   40021 WT2  5638 TIP3 OH2  OT    -0.834000       15.9994           0
   40022 WT2  5638 TIP3 H1   HT     0.417000        1.0080           0
   40023 WT2  5638 TIP3 H2   HT     0.417000        1.0080           0
   40024 WT2  5639 TIP3 OH2  OT    -0.834000       15.9994           0
   40025 WT2  5639 TIP3 H1   HT     0.417000        1.0080           0
   40026 WT2  5639 TIP3 H2   HT     0.417000        1.0080           0
   40027 WT2  5641 TIP3 OH2  OT    -0.834000       15.9994           0
   40028 WT2  5641 TIP3 H1   HT     0.417000        1.0080           0
   40029 WT2  5641 TIP3 H2   HT     0.417000        1.0080           0
   40030 WT2  5643 TIP3 OH2  OT    -0.834000       15.9994           0
   40031 WT2  5643 TIP3 H1   HT     0.417000        1.0080           0
   40032 WT2  5643 TIP3 H2   HT     0.417000        1.0080           0
   40033 WT2  5647 TIP3 OH2  OT    -0.834000       15.9994           0
   40034 WT2  5647 TIP3 H1   HT     0.417000        1.0080           0
   40035 WT2  5647 TIP3 H2   HT     0.417000        1.0080           0
   40036 WT2  5648 TIP3 OH2  OT    -0.834000       15.9994           0
   40037 WT2  5648 TIP3 H1   HT     0.417000        1.0080           0
   40038 WT2  5648 TIP3 H2   HT     0.417000        1.0080           0
   40039 WT2  5650 TIP3 OH2  OT    -0.834000       15.9994           0
   40040 WT2  5650 TIP3 H1   HT     0.417000        1.0080           0
   40041 WT2  5650 TIP3 H2   HT     0.417000        1.0080           0
   40042 WT2  5651 TIP3 OH2  OT    -0.834000       15.9994           0
   40043 WT2  5651 TIP3 H1   HT     0.417000        1.0080           0
   40044 WT2  5651 TIP3 H2   HT     0.417000        1.0080           0
   40045 WT2  5653 TIP3 OH2  OT    -0.834000       15.9994           0
   40046 WT2  5653 TIP3 H1   HT     0.417000        1.0080           0
   40047 WT2  5653 TIP3 H2   HT     0.417000        1.0080           0
   40048 WT2  5654 TIP3 OH2  OT    -0.834000       15.9994           0
   40049 WT2  5654 TIP3 H1   HT     0.417000        1.0080           0
   40050 WT2  5654 TIP3 H2   HT     0.417000        1.0080           0
   40051 WT2  5655 TIP3 OH2  OT    -0.834000       15.9994           0
   40052 WT2  5655 TIP3 H1   HT     0.417000        1.0080           0
   40053 WT2  5655 TIP3 H2   HT     0.417000        1.0080           0
   40054 WT2  5656 TIP3 OH2  OT    -0.834000       15.9994           0
   40055 WT2  5656 TIP3 H1   HT     0.417000        1.0080           0
   40056 WT2  5656 TIP3 H2   HT     0.417000        1.0080           0
   40057 WT2  5657 TIP3 OH2  OT    -0.834000       15.9994           0
   40058 WT2  5657 TIP3 H1   HT     0.417000        1.0080           0
   40059 WT2  5657 TIP3 H2   HT     0.417000        1.0080           0
   40060 WT2  5658 TIP3 OH2  OT    -0.834000       15.9994           0
   40061 WT2  5658 TIP3 H1   HT     0.417000        1.0080           0
   40062 WT2  5658 TIP3 H2   HT     0.417000        1.0080           0
   40063 WT2  5659 TIP3 OH2  OT    -0.834000       15.9994           0
   40064 WT2  5659 TIP3 H1   HT     0.417000        1.0080           0
   40065 WT2  5659 TIP3 H2   HT     0.417000        1.0080           0
   40066 WT2  5660 TIP3 OH2  OT    -0.834000       15.9994           0
   40067 WT2  5660 TIP3 H1   HT     0.417000        1.0080           0
   40068 WT2  5660 TIP3 H2   HT     0.417000        1.0080           0
   40069 WT2  5661 TIP3 OH2  OT    -0.834000       15.9994           0
   40070 WT2  5661 TIP3 H1   HT     0.417000        1.0080           0
   40071 WT2  5661 TIP3 H2   HT     0.417000        1.0080           0
   40072 WT2  5662 TIP3 OH2  OT    -0.834000       15.9994           0
   40073 WT2  5662 TIP3 H1   HT     0.417000        1.0080           0
   40074 WT2  5662 TIP3 H2   HT     0.417000        1.0080           0
   40075 WT2  5663 TIP3 OH2  OT    -0.834000       15.9994           0
   40076 WT2  5663 TIP3 H1   HT     0.417000        1.0080           0
   40077 WT2  5663 TIP3 H2   HT     0.417000        1.0080           0
   40078 WT2  5665 TIP3 OH2  OT    -0.834000       15.9994           0
   40079 WT2  5665 TIP3 H1   HT     0.417000        1.0080           0
   40080 WT2  5665 TIP3 H2   HT     0.417000        1.0080           0
   40081 WT2  5667 TIP3 OH2  OT    -0.834000       15.9994           0
   40082 WT2  5667 TIP3 H1   HT     0.417000        1.0080           0
   40083 WT2  5667 TIP3 H2   HT     0.417000        1.0080           0
   40084 WT2  5669 TIP3 OH2  OT    -0.834000       15.9994           0
   40085 WT2  5669 TIP3 H1   HT     0.417000        1.0080           0
   40086 WT2  5669 TIP3 H2   HT     0.417000        1.0080           0
   40087 WT2  5672 TIP3 OH2  OT    -0.834000       15.9994           0
   40088 WT2  5672 TIP3 H1   HT     0.417000        1.0080           0
   40089 WT2  5672 TIP3 H2   HT     0.417000        1.0080           0
   40090 WT2  5673 TIP3 OH2  OT    -0.834000       15.9994           0
   40091 WT2  5673 TIP3 H1   HT     0.417000        1.0080           0
   40092 WT2  5673 TIP3 H2   HT     0.417000        1.0080           0
   40093 WT2  5674 TIP3 OH2  OT    -0.834000       15.9994           0
   40094 WT2  5674 TIP3 H1   HT     0.417000        1.0080           0
   40095 WT2  5674 TIP3 H2   HT     0.417000        1.0080           0
   40096 WT2  5675 TIP3 OH2  OT    -0.834000       15.9994           0
   40097 WT2  5675 TIP3 H1   HT     0.417000        1.0080           0
   40098 WT2  5675 TIP3 H2   HT     0.417000        1.0080           0
   40099 WT2  5676 TIP3 OH2  OT    -0.834000       15.9994           0
   40100 WT2  5676 TIP3 H1   HT     0.417000        1.0080           0
   40101 WT2  5676 TIP3 H2   HT     0.417000        1.0080           0
   40102 WT2  5677 TIP3 OH2  OT    -0.834000       15.9994           0
   40103 WT2  5677 TIP3 H1   HT     0.417000        1.0080           0
   40104 WT2  5677 TIP3 H2   HT     0.417000        1.0080           0
   40105 WT2  5678 TIP3 OH2  OT    -0.834000       15.9994           0
   40106 WT2  5678 TIP3 H1   HT     0.417000        1.0080           0
   40107 WT2  5678 TIP3 H2   HT     0.417000        1.0080           0
   40108 WT2  5679 TIP3 OH2  OT    -0.834000       15.9994           0
   40109 WT2  5679 TIP3 H1   HT     0.417000        1.0080           0
   40110 WT2  5679 TIP3 H2   HT     0.417000        1.0080           0
   40111 WT2  5680 TIP3 OH2  OT    -0.834000       15.9994           0
   40112 WT2  5680 TIP3 H1   HT     0.417000        1.0080           0
   40113 WT2  5680 TIP3 H2   HT     0.417000        1.0080           0
   40114 WT2  5681 TIP3 OH2  OT    -0.834000       15.9994           0
   40115 WT2  5681 TIP3 H1   HT     0.417000        1.0080           0
   40116 WT2  5681 TIP3 H2   HT     0.417000        1.0080           0
   40117 WT2  5682 TIP3 OH2  OT    -0.834000       15.9994           0
   40118 WT2  5682 TIP3 H1   HT     0.417000        1.0080           0
   40119 WT2  5682 TIP3 H2   HT     0.417000        1.0080           0
   40120 WT2  5683 TIP3 OH2  OT    -0.834000       15.9994           0
   40121 WT2  5683 TIP3 H1   HT     0.417000        1.0080           0
   40122 WT2  5683 TIP3 H2   HT     0.417000        1.0080           0
   40123 WT2  5684 TIP3 OH2  OT    -0.834000       15.9994           0
   40124 WT2  5684 TIP3 H1   HT     0.417000        1.0080           0
   40125 WT2  5684 TIP3 H2   HT     0.417000        1.0080           0
   40126 WT2  5685 TIP3 OH2  OT    -0.834000       15.9994           0
   40127 WT2  5685 TIP3 H1   HT     0.417000        1.0080           0
   40128 WT2  5685 TIP3 H2   HT     0.417000        1.0080           0
   40129 WT2  5686 TIP3 OH2  OT    -0.834000       15.9994           0
   40130 WT2  5686 TIP3 H1   HT     0.417000        1.0080           0
   40131 WT2  5686 TIP3 H2   HT     0.417000        1.0080           0
   40132 WT2  5687 TIP3 OH2  OT    -0.834000       15.9994           0
   40133 WT2  5687 TIP3 H1   HT     0.417000        1.0080           0
   40134 WT2  5687 TIP3 H2   HT     0.417000        1.0080           0
   40135 WT2  5690 TIP3 OH2  OT    -0.834000       15.9994           0
   40136 WT2  5690 TIP3 H1   HT     0.417000        1.0080           0
   40137 WT2  5690 TIP3 H2   HT     0.417000        1.0080           0
   40138 WT2  5692 TIP3 OH2  OT    -0.834000       15.9994           0
   40139 WT2  5692 TIP3 H1   HT     0.417000        1.0080           0
   40140 WT2  5692 TIP3 H2   HT     0.417000        1.0080           0
   40141 WT2  5693 TIP3 OH2  OT    -0.834000       15.9994           0
   40142 WT2  5693 TIP3 H1   HT     0.417000        1.0080           0
   40143 WT2  5693 TIP3 H2   HT     0.417000        1.0080           0
   40144 WT2  5694 TIP3 OH2  OT    -0.834000       15.9994           0
   40145 WT2  5694 TIP3 H1   HT     0.417000        1.0080           0
   40146 WT2  5694 TIP3 H2   HT     0.417000        1.0080           0
   40147 WT2  5695 TIP3 OH2  OT    -0.834000       15.9994           0
   40148 WT2  5695 TIP3 H1   HT     0.417000        1.0080           0
   40149 WT2  5695 TIP3 H2   HT     0.417000        1.0080           0
   40150 WT2  5696 TIP3 OH2  OT    -0.834000       15.9994           0
   40151 WT2  5696 TIP3 H1   HT     0.417000        1.0080           0
   40152 WT2  5696 TIP3 H2   HT     0.417000        1.0080           0
   40153 WT2  5697 TIP3 OH2  OT    -0.834000       15.9994           0
   40154 WT2  5697 TIP3 H1   HT     0.417000        1.0080           0
   40155 WT2  5697 TIP3 H2   HT     0.417000        1.0080           0
   40156 WT2  5698 TIP3 OH2  OT    -0.834000       15.9994           0
   40157 WT2  5698 TIP3 H1   HT     0.417000        1.0080           0
   40158 WT2  5698 TIP3 H2   HT     0.417000        1.0080           0
   40159 WT2  5699 TIP3 OH2  OT    -0.834000       15.9994           0
   40160 WT2  5699 TIP3 H1   HT     0.417000        1.0080           0
   40161 WT2  5699 TIP3 H2   HT     0.417000        1.0080           0
   40162 WT2  5700 TIP3 OH2  OT    -0.834000       15.9994           0
   40163 WT2  5700 TIP3 H1   HT     0.417000        1.0080           0
   40164 WT2  5700 TIP3 H2   HT     0.417000        1.0080           0
   40165 WT2  5701 TIP3 OH2  OT    -0.834000       15.9994           0
   40166 WT2  5701 TIP3 H1   HT     0.417000        1.0080           0
   40167 WT2  5701 TIP3 H2   HT     0.417000        1.0080           0
   40168 WT2  5702 TIP3 OH2  OT    -0.834000       15.9994           0
   40169 WT2  5702 TIP3 H1   HT     0.417000        1.0080           0
   40170 WT2  5702 TIP3 H2   HT     0.417000        1.0080           0
   40171 WT2  5703 TIP3 OH2  OT    -0.834000       15.9994           0
   40172 WT2  5703 TIP3 H1   HT     0.417000        1.0080           0
   40173 WT2  5703 TIP3 H2   HT     0.417000        1.0080           0
   40174 WT2  5704 TIP3 OH2  OT    -0.834000       15.9994           0
   40175 WT2  5704 TIP3 H1   HT     0.417000        1.0080           0
   40176 WT2  5704 TIP3 H2   HT     0.417000        1.0080           0
   40177 WT2  5705 TIP3 OH2  OT    -0.834000       15.9994           0
   40178 WT2  5705 TIP3 H1   HT     0.417000        1.0080           0
   40179 WT2  5705 TIP3 H2   HT     0.417000        1.0080           0
   40180 WT2  5706 TIP3 OH2  OT    -0.834000       15.9994           0
   40181 WT2  5706 TIP3 H1   HT     0.417000        1.0080           0
   40182 WT2  5706 TIP3 H2   HT     0.417000        1.0080           0
   40183 WT2  5707 TIP3 OH2  OT    -0.834000       15.9994           0
   40184 WT2  5707 TIP3 H1   HT     0.417000        1.0080           0
   40185 WT2  5707 TIP3 H2   HT     0.417000        1.0080           0
   40186 WT2  5710 TIP3 OH2  OT    -0.834000       15.9994           0
   40187 WT2  5710 TIP3 H1   HT     0.417000        1.0080           0
   40188 WT2  5710 TIP3 H2   HT     0.417000        1.0080           0
   40189 WT2  5711 TIP3 OH2  OT    -0.834000       15.9994           0
   40190 WT2  5711 TIP3 H1   HT     0.417000        1.0080           0
   40191 WT2  5711 TIP3 H2   HT     0.417000        1.0080           0
   40192 WT2  5713 TIP3 OH2  OT    -0.834000       15.9994           0
   40193 WT2  5713 TIP3 H1   HT     0.417000        1.0080           0
   40194 WT2  5713 TIP3 H2   HT     0.417000        1.0080           0
   40195 WT2  5714 TIP3 OH2  OT    -0.834000       15.9994           0
   40196 WT2  5714 TIP3 H1   HT     0.417000        1.0080           0
   40197 WT2  5714 TIP3 H2   HT     0.417000        1.0080           0
   40198 WT2  5716 TIP3 OH2  OT    -0.834000       15.9994           0
   40199 WT2  5716 TIP3 H1   HT     0.417000        1.0080           0
   40200 WT2  5716 TIP3 H2   HT     0.417000        1.0080           0
   40201 WT2  5717 TIP3 OH2  OT    -0.834000       15.9994           0
   40202 WT2  5717 TIP3 H1   HT     0.417000        1.0080           0
   40203 WT2  5717 TIP3 H2   HT     0.417000        1.0080           0
   40204 WT2  5718 TIP3 OH2  OT    -0.834000       15.9994           0
   40205 WT2  5718 TIP3 H1   HT     0.417000        1.0080           0
   40206 WT2  5718 TIP3 H2   HT     0.417000        1.0080           0
   40207 WT2  5719 TIP3 OH2  OT    -0.834000       15.9994           0
   40208 WT2  5719 TIP3 H1   HT     0.417000        1.0080           0
   40209 WT2  5719 TIP3 H2   HT     0.417000        1.0080           0
   40210 WT2  5720 TIP3 OH2  OT    -0.834000       15.9994           0
   40211 WT2  5720 TIP3 H1   HT     0.417000        1.0080           0
   40212 WT2  5720 TIP3 H2   HT     0.417000        1.0080           0
   40213 WT2  5721 TIP3 OH2  OT    -0.834000       15.9994           0
   40214 WT2  5721 TIP3 H1   HT     0.417000        1.0080           0
   40215 WT2  5721 TIP3 H2   HT     0.417000        1.0080           0
   40216 WT2  5722 TIP3 OH2  OT    -0.834000       15.9994           0
   40217 WT2  5722 TIP3 H1   HT     0.417000        1.0080           0
   40218 WT2  5722 TIP3 H2   HT     0.417000        1.0080           0
   40219 WT2  5723 TIP3 OH2  OT    -0.834000       15.9994           0
   40220 WT2  5723 TIP3 H1   HT     0.417000        1.0080           0
   40221 WT2  5723 TIP3 H2   HT     0.417000        1.0080           0
   40222 WT2  5724 TIP3 OH2  OT    -0.834000       15.9994           0
   40223 WT2  5724 TIP3 H1   HT     0.417000        1.0080           0
   40224 WT2  5724 TIP3 H2   HT     0.417000        1.0080           0
   40225 WT2  5725 TIP3 OH2  OT    -0.834000       15.9994           0
   40226 WT2  5725 TIP3 H1   HT     0.417000        1.0080           0
   40227 WT2  5725 TIP3 H2   HT     0.417000        1.0080           0
   40228 WT2  5727 TIP3 OH2  OT    -0.834000       15.9994           0
   40229 WT2  5727 TIP3 H1   HT     0.417000        1.0080           0
   40230 WT2  5727 TIP3 H2   HT     0.417000        1.0080           0
   40231 WT2  5729 TIP3 OH2  OT    -0.834000       15.9994           0
   40232 WT2  5729 TIP3 H1   HT     0.417000        1.0080           0
   40233 WT2  5729 TIP3 H2   HT     0.417000        1.0080           0
   40234 WT2  5730 TIP3 OH2  OT    -0.834000       15.9994           0
   40235 WT2  5730 TIP3 H1   HT     0.417000        1.0080           0
   40236 WT2  5730 TIP3 H2   HT     0.417000        1.0080           0
   40237 WT2  5734 TIP3 OH2  OT    -0.834000       15.9994           0
   40238 WT2  5734 TIP3 H1   HT     0.417000        1.0080           0
   40239 WT2  5734 TIP3 H2   HT     0.417000        1.0080           0
   40240 WT2  5735 TIP3 OH2  OT    -0.834000       15.9994           0
   40241 WT2  5735 TIP3 H1   HT     0.417000        1.0080           0
   40242 WT2  5735 TIP3 H2   HT     0.417000        1.0080           0
   40243 WT2  5736 TIP3 OH2  OT    -0.834000       15.9994           0
   40244 WT2  5736 TIP3 H1   HT     0.417000        1.0080           0
   40245 WT2  5736 TIP3 H2   HT     0.417000        1.0080           0
   40246 WT2  5738 TIP3 OH2  OT    -0.834000       15.9994           0
   40247 WT2  5738 TIP3 H1   HT     0.417000        1.0080           0
   40248 WT2  5738 TIP3 H2   HT     0.417000        1.0080           0
   40249 WT2  5740 TIP3 OH2  OT    -0.834000       15.9994           0
   40250 WT2  5740 TIP3 H1   HT     0.417000        1.0080           0
   40251 WT2  5740 TIP3 H2   HT     0.417000        1.0080           0
   40252 WT2  5741 TIP3 OH2  OT    -0.834000       15.9994           0
   40253 WT2  5741 TIP3 H1   HT     0.417000        1.0080           0
   40254 WT2  5741 TIP3 H2   HT     0.417000        1.0080           0
   40255 WT2  5742 TIP3 OH2  OT    -0.834000       15.9994           0
   40256 WT2  5742 TIP3 H1   HT     0.417000        1.0080           0
   40257 WT2  5742 TIP3 H2   HT     0.417000        1.0080           0
   40258 WT2  5743 TIP3 OH2  OT    -0.834000       15.9994           0
   40259 WT2  5743 TIP3 H1   HT     0.417000        1.0080           0
   40260 WT2  5743 TIP3 H2   HT     0.417000        1.0080           0
   40261 WT2  5744 TIP3 OH2  OT    -0.834000       15.9994           0
   40262 WT2  5744 TIP3 H1   HT     0.417000        1.0080           0
   40263 WT2  5744 TIP3 H2   HT     0.417000        1.0080           0
   40264 WT2  5745 TIP3 OH2  OT    -0.834000       15.9994           0
   40265 WT2  5745 TIP3 H1   HT     0.417000        1.0080           0
   40266 WT2  5745 TIP3 H2   HT     0.417000        1.0080           0
   40267 WT2  5748 TIP3 OH2  OT    -0.834000       15.9994           0
   40268 WT2  5748 TIP3 H1   HT     0.417000        1.0080           0
   40269 WT2  5748 TIP3 H2   HT     0.417000        1.0080           0
   40270 WT2  5755 TIP3 OH2  OT    -0.834000       15.9994           0
   40271 WT2  5755 TIP3 H1   HT     0.417000        1.0080           0
   40272 WT2  5755 TIP3 H2   HT     0.417000        1.0080           0
   40273 WT2  5756 TIP3 OH2  OT    -0.834000       15.9994           0
   40274 WT2  5756 TIP3 H1   HT     0.417000        1.0080           0
   40275 WT2  5756 TIP3 H2   HT     0.417000        1.0080           0
   40276 WT2  5758 TIP3 OH2  OT    -0.834000       15.9994           0
   40277 WT2  5758 TIP3 H1   HT     0.417000        1.0080           0
   40278 WT2  5758 TIP3 H2   HT     0.417000        1.0080           0
   40279 WT2  5759 TIP3 OH2  OT    -0.834000       15.9994           0
   40280 WT2  5759 TIP3 H1   HT     0.417000        1.0080           0
   40281 WT2  5759 TIP3 H2   HT     0.417000        1.0080           0
   40282 WT2  5760 TIP3 OH2  OT    -0.834000       15.9994           0
   40283 WT2  5760 TIP3 H1   HT     0.417000        1.0080           0
   40284 WT2  5760 TIP3 H2   HT     0.417000        1.0080           0
   40285 WT2  5761 TIP3 OH2  OT    -0.834000       15.9994           0
   40286 WT2  5761 TIP3 H1   HT     0.417000        1.0080           0
   40287 WT2  5761 TIP3 H2   HT     0.417000        1.0080           0
   40288 WT2  5762 TIP3 OH2  OT    -0.834000       15.9994           0
   40289 WT2  5762 TIP3 H1   HT     0.417000        1.0080           0
   40290 WT2  5762 TIP3 H2   HT     0.417000        1.0080           0
   40291 WT2  5763 TIP3 OH2  OT    -0.834000       15.9994           0
   40292 WT2  5763 TIP3 H1   HT     0.417000        1.0080           0
   40293 WT2  5763 TIP3 H2   HT     0.417000        1.0080           0
   40294 WT2  5764 TIP3 OH2  OT    -0.834000       15.9994           0
   40295 WT2  5764 TIP3 H1   HT     0.417000        1.0080           0
   40296 WT2  5764 TIP3 H2   HT     0.417000        1.0080           0
   40297 WT2  5765 TIP3 OH2  OT    -0.834000       15.9994           0
   40298 WT2  5765 TIP3 H1   HT     0.417000        1.0080           0
   40299 WT2  5765 TIP3 H2   HT     0.417000        1.0080           0
   40300 WT2  5766 TIP3 OH2  OT    -0.834000       15.9994           0
   40301 WT2  5766 TIP3 H1   HT     0.417000        1.0080           0
   40302 WT2  5766 TIP3 H2   HT     0.417000        1.0080           0
   40303 WT2  5767 TIP3 OH2  OT    -0.834000       15.9994           0
   40304 WT2  5767 TIP3 H1   HT     0.417000        1.0080           0
   40305 WT2  5767 TIP3 H2   HT     0.417000        1.0080           0
   40306 WT2  5768 TIP3 OH2  OT    -0.834000       15.9994           0
   40307 WT2  5768 TIP3 H1   HT     0.417000        1.0080           0
   40308 WT2  5768 TIP3 H2   HT     0.417000        1.0080           0
   40309 WT2  5770 TIP3 OH2  OT    -0.834000       15.9994           0
   40310 WT2  5770 TIP3 H1   HT     0.417000        1.0080           0
   40311 WT2  5770 TIP3 H2   HT     0.417000        1.0080           0
   40312 WT2  5775 TIP3 OH2  OT    -0.834000       15.9994           0
   40313 WT2  5775 TIP3 H1   HT     0.417000        1.0080           0
   40314 WT2  5775 TIP3 H2   HT     0.417000        1.0080           0
   40315 WT2  5777 TIP3 OH2  OT    -0.834000       15.9994           0
   40316 WT2  5777 TIP3 H1   HT     0.417000        1.0080           0
   40317 WT2  5777 TIP3 H2   HT     0.417000        1.0080           0
   40318 WT2  5778 TIP3 OH2  OT    -0.834000       15.9994           0
   40319 WT2  5778 TIP3 H1   HT     0.417000        1.0080           0
   40320 WT2  5778 TIP3 H2   HT     0.417000        1.0080           0
   40321 WT2  5779 TIP3 OH2  OT    -0.834000       15.9994           0
   40322 WT2  5779 TIP3 H1   HT     0.417000        1.0080           0
   40323 WT2  5779 TIP3 H2   HT     0.417000        1.0080           0
   40324 WT2  5780 TIP3 OH2  OT    -0.834000       15.9994           0
   40325 WT2  5780 TIP3 H1   HT     0.417000        1.0080           0
   40326 WT2  5780 TIP3 H2   HT     0.417000        1.0080           0
   40327 WT2  5781 TIP3 OH2  OT    -0.834000       15.9994           0
   40328 WT2  5781 TIP3 H1   HT     0.417000        1.0080           0
   40329 WT2  5781 TIP3 H2   HT     0.417000        1.0080           0
   40330 WT2  5782 TIP3 OH2  OT    -0.834000       15.9994           0
   40331 WT2  5782 TIP3 H1   HT     0.417000        1.0080           0
   40332 WT2  5782 TIP3 H2   HT     0.417000        1.0080           0
   40333 WT2  5783 TIP3 OH2  OT    -0.834000       15.9994           0
   40334 WT2  5783 TIP3 H1   HT     0.417000        1.0080           0
   40335 WT2  5783 TIP3 H2   HT     0.417000        1.0080           0
   40336 WT2  5784 TIP3 OH2  OT    -0.834000       15.9994           0
   40337 WT2  5784 TIP3 H1   HT     0.417000        1.0080           0
   40338 WT2  5784 TIP3 H2   HT     0.417000        1.0080           0
   40339 WT2  5785 TIP3 OH2  OT    -0.834000       15.9994           0
   40340 WT2  5785 TIP3 H1   HT     0.417000        1.0080           0
   40341 WT2  5785 TIP3 H2   HT     0.417000        1.0080           0
   40342 WT2  5786 TIP3 OH2  OT    -0.834000       15.9994           0
   40343 WT2  5786 TIP3 H1   HT     0.417000        1.0080           0
   40344 WT2  5786 TIP3 H2   HT     0.417000        1.0080           0
   40345 WT2  5787 TIP3 OH2  OT    -0.834000       15.9994           0
   40346 WT2  5787 TIP3 H1   HT     0.417000        1.0080           0
   40347 WT2  5787 TIP3 H2   HT     0.417000        1.0080           0
   40348 WT2  5788 TIP3 OH2  OT    -0.834000       15.9994           0
   40349 WT2  5788 TIP3 H1   HT     0.417000        1.0080           0
   40350 WT2  5788 TIP3 H2   HT     0.417000        1.0080           0
   40351 WT2  5789 TIP3 OH2  OT    -0.834000       15.9994           0
   40352 WT2  5789 TIP3 H1   HT     0.417000        1.0080           0
   40353 WT2  5789 TIP3 H2   HT     0.417000        1.0080           0
   40354 WT2  5791 TIP3 OH2  OT    -0.834000       15.9994           0
   40355 WT2  5791 TIP3 H1   HT     0.417000        1.0080           0
   40356 WT2  5791 TIP3 H2   HT     0.417000        1.0080           0
   40357 WT2  5795 TIP3 OH2  OT    -0.834000       15.9994           0
   40358 WT2  5795 TIP3 H1   HT     0.417000        1.0080           0
   40359 WT2  5795 TIP3 H2   HT     0.417000        1.0080           0
   40360 WT2  5797 TIP3 OH2  OT    -0.834000       15.9994           0
   40361 WT2  5797 TIP3 H1   HT     0.417000        1.0080           0
   40362 WT2  5797 TIP3 H2   HT     0.417000        1.0080           0
   40363 WT2  5798 TIP3 OH2  OT    -0.834000       15.9994           0
   40364 WT2  5798 TIP3 H1   HT     0.417000        1.0080           0
   40365 WT2  5798 TIP3 H2   HT     0.417000        1.0080           0
   40366 WT2  5799 TIP3 OH2  OT    -0.834000       15.9994           0
   40367 WT2  5799 TIP3 H1   HT     0.417000        1.0080           0
   40368 WT2  5799 TIP3 H2   HT     0.417000        1.0080           0
   40369 WT2  5800 TIP3 OH2  OT    -0.834000       15.9994           0
   40370 WT2  5800 TIP3 H1   HT     0.417000        1.0080           0
   40371 WT2  5800 TIP3 H2   HT     0.417000        1.0080           0
   40372 WT2  5801 TIP3 OH2  OT    -0.834000       15.9994           0
   40373 WT2  5801 TIP3 H1   HT     0.417000        1.0080           0
   40374 WT2  5801 TIP3 H2   HT     0.417000        1.0080           0
   40375 WT2  5802 TIP3 OH2  OT    -0.834000       15.9994           0
   40376 WT2  5802 TIP3 H1   HT     0.417000        1.0080           0
   40377 WT2  5802 TIP3 H2   HT     0.417000        1.0080           0
   40378 WT2  5803 TIP3 OH2  OT    -0.834000       15.9994           0
   40379 WT2  5803 TIP3 H1   HT     0.417000        1.0080           0
   40380 WT2  5803 TIP3 H2   HT     0.417000        1.0080           0
   40381 WT2  5804 TIP3 OH2  OT    -0.834000       15.9994           0
   40382 WT2  5804 TIP3 H1   HT     0.417000        1.0080           0
   40383 WT2  5804 TIP3 H2   HT     0.417000        1.0080           0
   40384 WT2  5805 TIP3 OH2  OT    -0.834000       15.9994           0
   40385 WT2  5805 TIP3 H1   HT     0.417000        1.0080           0
   40386 WT2  5805 TIP3 H2   HT     0.417000        1.0080           0
   40387 WT2  5806 TIP3 OH2  OT    -0.834000       15.9994           0
   40388 WT2  5806 TIP3 H1   HT     0.417000        1.0080           0
   40389 WT2  5806 TIP3 H2   HT     0.417000        1.0080           0
   40390 WT2  5807 TIP3 OH2  OT    -0.834000       15.9994           0
   40391 WT2  5807 TIP3 H1   HT     0.417000        1.0080           0
   40392 WT2  5807 TIP3 H2   HT     0.417000        1.0080           0
   40393 WT2  5808 TIP3 OH2  OT    -0.834000       15.9994           0
   40394 WT2  5808 TIP3 H1   HT     0.417000        1.0080           0
   40395 WT2  5808 TIP3 H2   HT     0.417000        1.0080           0
   40396 WT2  5812 TIP3 OH2  OT    -0.834000       15.9994           0
   40397 WT2  5812 TIP3 H1   HT     0.417000        1.0080           0
   40398 WT2  5812 TIP3 H2   HT     0.417000        1.0080           0
   40399 WT2  5818 TIP3 OH2  OT    -0.834000       15.9994           0
   40400 WT2  5818 TIP3 H1   HT     0.417000        1.0080           0
   40401 WT2  5818 TIP3 H2   HT     0.417000        1.0080           0
   40402 WT2  5819 TIP3 OH2  OT    -0.834000       15.9994           0
   40403 WT2  5819 TIP3 H1   HT     0.417000        1.0080           0
   40404 WT2  5819 TIP3 H2   HT     0.417000        1.0080           0
   40405 WT2  5820 TIP3 OH2  OT    -0.834000       15.9994           0
   40406 WT2  5820 TIP3 H1   HT     0.417000        1.0080           0
   40407 WT2  5820 TIP3 H2   HT     0.417000        1.0080           0
   40408 WT2  5821 TIP3 OH2  OT    -0.834000       15.9994           0
   40409 WT2  5821 TIP3 H1   HT     0.417000        1.0080           0
   40410 WT2  5821 TIP3 H2   HT     0.417000        1.0080           0
   40411 WT2  5822 TIP3 OH2  OT    -0.834000       15.9994           0
   40412 WT2  5822 TIP3 H1   HT     0.417000        1.0080           0
   40413 WT2  5822 TIP3 H2   HT     0.417000        1.0080           0
   40414 WT2  5823 TIP3 OH2  OT    -0.834000       15.9994           0
   40415 WT2  5823 TIP3 H1   HT     0.417000        1.0080           0
   40416 WT2  5823 TIP3 H2   HT     0.417000        1.0080           0
   40417 WT2  5824 TIP3 OH2  OT    -0.834000       15.9994           0
   40418 WT2  5824 TIP3 H1   HT     0.417000        1.0080           0
   40419 WT2  5824 TIP3 H2   HT     0.417000        1.0080           0
   40420 WT2  5825 TIP3 OH2  OT    -0.834000       15.9994           0
   40421 WT2  5825 TIP3 H1   HT     0.417000        1.0080           0
   40422 WT2  5825 TIP3 H2   HT     0.417000        1.0080           0
   40423 WT2  5826 TIP3 OH2  OT    -0.834000       15.9994           0
   40424 WT2  5826 TIP3 H1   HT     0.417000        1.0080           0
   40425 WT2  5826 TIP3 H2   HT     0.417000        1.0080           0
   40426 WT2  5827 TIP3 OH2  OT    -0.834000       15.9994           0
   40427 WT2  5827 TIP3 H1   HT     0.417000        1.0080           0
   40428 WT2  5827 TIP3 H2   HT     0.417000        1.0080           0
   40429 WT2  5828 TIP3 OH2  OT    -0.834000       15.9994           0
   40430 WT2  5828 TIP3 H1   HT     0.417000        1.0080           0
   40431 WT2  5828 TIP3 H2   HT     0.417000        1.0080           0
   40432 WT2  5829 TIP3 OH2  OT    -0.834000       15.9994           0
   40433 WT2  5829 TIP3 H1   HT     0.417000        1.0080           0
   40434 WT2  5829 TIP3 H2   HT     0.417000        1.0080           0
   40435 WT2  5831 TIP3 OH2  OT    -0.834000       15.9994           0
   40436 WT2  5831 TIP3 H1   HT     0.417000        1.0080           0
   40437 WT2  5831 TIP3 H2   HT     0.417000        1.0080           0
   40438 WT2  5832 TIP3 OH2  OT    -0.834000       15.9994           0
   40439 WT2  5832 TIP3 H1   HT     0.417000        1.0080           0
   40440 WT2  5832 TIP3 H2   HT     0.417000        1.0080           0
   40441 WT2  5834 TIP3 OH2  OT    -0.834000       15.9994           0
   40442 WT2  5834 TIP3 H1   HT     0.417000        1.0080           0
   40443 WT2  5834 TIP3 H2   HT     0.417000        1.0080           0
   40444 WT2  5836 TIP3 OH2  OT    -0.834000       15.9994           0
   40445 WT2  5836 TIP3 H1   HT     0.417000        1.0080           0
   40446 WT2  5836 TIP3 H2   HT     0.417000        1.0080           0
   40447 WT2  5837 TIP3 OH2  OT    -0.834000       15.9994           0
   40448 WT2  5837 TIP3 H1   HT     0.417000        1.0080           0
   40449 WT2  5837 TIP3 H2   HT     0.417000        1.0080           0
   40450 WT2  5839 TIP3 OH2  OT    -0.834000       15.9994           0
   40451 WT2  5839 TIP3 H1   HT     0.417000        1.0080           0
   40452 WT2  5839 TIP3 H2   HT     0.417000        1.0080           0
   40453 WT2  5840 TIP3 OH2  OT    -0.834000       15.9994           0
   40454 WT2  5840 TIP3 H1   HT     0.417000        1.0080           0
   40455 WT2  5840 TIP3 H2   HT     0.417000        1.0080           0
   40456 WT2  5841 TIP3 OH2  OT    -0.834000       15.9994           0
   40457 WT2  5841 TIP3 H1   HT     0.417000        1.0080           0
   40458 WT2  5841 TIP3 H2   HT     0.417000        1.0080           0
   40459 WT2  5842 TIP3 OH2  OT    -0.834000       15.9994           0
   40460 WT2  5842 TIP3 H1   HT     0.417000        1.0080           0
   40461 WT2  5842 TIP3 H2   HT     0.417000        1.0080           0
   40462 WT2  5843 TIP3 OH2  OT    -0.834000       15.9994           0
   40463 WT2  5843 TIP3 H1   HT     0.417000        1.0080           0
   40464 WT2  5843 TIP3 H2   HT     0.417000        1.0080           0
   40465 WT2  5844 TIP3 OH2  OT    -0.834000       15.9994           0
   40466 WT2  5844 TIP3 H1   HT     0.417000        1.0080           0
   40467 WT2  5844 TIP3 H2   HT     0.417000        1.0080           0
   40468 WT2  5845 TIP3 OH2  OT    -0.834000       15.9994           0
   40469 WT2  5845 TIP3 H1   HT     0.417000        1.0080           0
   40470 WT2  5845 TIP3 H2   HT     0.417000        1.0080           0
   40471 WT2  5846 TIP3 OH2  OT    -0.834000       15.9994           0
   40472 WT2  5846 TIP3 H1   HT     0.417000        1.0080           0
   40473 WT2  5846 TIP3 H2   HT     0.417000        1.0080           0
   40474 WT2  5847 TIP3 OH2  OT    -0.834000       15.9994           0
   40475 WT2  5847 TIP3 H1   HT     0.417000        1.0080           0
   40476 WT2  5847 TIP3 H2   HT     0.417000        1.0080           0
   40477 WT2  5848 TIP3 OH2  OT    -0.834000       15.9994           0
   40478 WT2  5848 TIP3 H1   HT     0.417000        1.0080           0
   40479 WT2  5848 TIP3 H2   HT     0.417000        1.0080           0
   40480 WT2  5849 TIP3 OH2  OT    -0.834000       15.9994           0
   40481 WT2  5849 TIP3 H1   HT     0.417000        1.0080           0
   40482 WT2  5849 TIP3 H2   HT     0.417000        1.0080           0
   40483 WT2  5859 TIP3 OH2  OT    -0.834000       15.9994           0
   40484 WT2  5859 TIP3 H1   HT     0.417000        1.0080           0
   40485 WT2  5859 TIP3 H2   HT     0.417000        1.0080           0
   40486 WT2  5860 TIP3 OH2  OT    -0.834000       15.9994           0
   40487 WT2  5860 TIP3 H1   HT     0.417000        1.0080           0
   40488 WT2  5860 TIP3 H2   HT     0.417000        1.0080           0
   40489 WT2  5861 TIP3 OH2  OT    -0.834000       15.9994           0
   40490 WT2  5861 TIP3 H1   HT     0.417000        1.0080           0
   40491 WT2  5861 TIP3 H2   HT     0.417000        1.0080           0
   40492 WT2  5862 TIP3 OH2  OT    -0.834000       15.9994           0
   40493 WT2  5862 TIP3 H1   HT     0.417000        1.0080           0
   40494 WT2  5862 TIP3 H2   HT     0.417000        1.0080           0
   40495 WT2  5863 TIP3 OH2  OT    -0.834000       15.9994           0
   40496 WT2  5863 TIP3 H1   HT     0.417000        1.0080           0
   40497 WT2  5863 TIP3 H2   HT     0.417000        1.0080           0
   40498 WT2  5864 TIP3 OH2  OT    -0.834000       15.9994           0
   40499 WT2  5864 TIP3 H1   HT     0.417000        1.0080           0
   40500 WT2  5864 TIP3 H2   HT     0.417000        1.0080           0
   40501 WT2  5865 TIP3 OH2  OT    -0.834000       15.9994           0
   40502 WT2  5865 TIP3 H1   HT     0.417000        1.0080           0
   40503 WT2  5865 TIP3 H2   HT     0.417000        1.0080           0
   40504 WT2  5866 TIP3 OH2  OT    -0.834000       15.9994           0
   40505 WT2  5866 TIP3 H1   HT     0.417000        1.0080           0
   40506 WT2  5866 TIP3 H2   HT     0.417000        1.0080           0
   40507 WT2  5867 TIP3 OH2  OT    -0.834000       15.9994           0
   40508 WT2  5867 TIP3 H1   HT     0.417000        1.0080           0
   40509 WT2  5867 TIP3 H2   HT     0.417000        1.0080           0
   40510 WT2  5868 TIP3 OH2  OT    -0.834000       15.9994           0
   40511 WT2  5868 TIP3 H1   HT     0.417000        1.0080           0
   40512 WT2  5868 TIP3 H2   HT     0.417000        1.0080           0
   40513 WT2  5869 TIP3 OH2  OT    -0.834000       15.9994           0
   40514 WT2  5869 TIP3 H1   HT     0.417000        1.0080           0
   40515 WT2  5869 TIP3 H2   HT     0.417000        1.0080           0
   40516 WT2  5870 TIP3 OH2  OT    -0.834000       15.9994           0
   40517 WT2  5870 TIP3 H1   HT     0.417000        1.0080           0
   40518 WT2  5870 TIP3 H2   HT     0.417000        1.0080           0
   40519 WT2  5871 TIP3 OH2  OT    -0.834000       15.9994           0
   40520 WT2  5871 TIP3 H1   HT     0.417000        1.0080           0
   40521 WT2  5871 TIP3 H2   HT     0.417000        1.0080           0
   40522 WT2  5872 TIP3 OH2  OT    -0.834000       15.9994           0
   40523 WT2  5872 TIP3 H1   HT     0.417000        1.0080           0
   40524 WT2  5872 TIP3 H2   HT     0.417000        1.0080           0
   40525 WT2  5873 TIP3 OH2  OT    -0.834000       15.9994           0
   40526 WT2  5873 TIP3 H1   HT     0.417000        1.0080           0
   40527 WT2  5873 TIP3 H2   HT     0.417000        1.0080           0
   40528 WT2  5881 TIP3 OH2  OT    -0.834000       15.9994           0
   40529 WT2  5881 TIP3 H1   HT     0.417000        1.0080           0
   40530 WT2  5881 TIP3 H2   HT     0.417000        1.0080           0
   40531 WT2  5883 TIP3 OH2  OT    -0.834000       15.9994           0
   40532 WT2  5883 TIP3 H1   HT     0.417000        1.0080           0
   40533 WT2  5883 TIP3 H2   HT     0.417000        1.0080           0
   40534 WT2  5884 TIP3 OH2  OT    -0.834000       15.9994           0
   40535 WT2  5884 TIP3 H1   HT     0.417000        1.0080           0
   40536 WT2  5884 TIP3 H2   HT     0.417000        1.0080           0
   40537 WT2  5885 TIP3 OH2  OT    -0.834000       15.9994           0
   40538 WT2  5885 TIP3 H1   HT     0.417000        1.0080           0
   40539 WT2  5885 TIP3 H2   HT     0.417000        1.0080           0
   40540 WT2  5886 TIP3 OH2  OT    -0.834000       15.9994           0
   40541 WT2  5886 TIP3 H1   HT     0.417000        1.0080           0
   40542 WT2  5886 TIP3 H2   HT     0.417000        1.0080           0
   40543 WT2  5887 TIP3 OH2  OT    -0.834000       15.9994           0
   40544 WT2  5887 TIP3 H1   HT     0.417000        1.0080           0
   40545 WT2  5887 TIP3 H2   HT     0.417000        1.0080           0
   40546 WT2  5888 TIP3 OH2  OT    -0.834000       15.9994           0
   40547 WT2  5888 TIP3 H1   HT     0.417000        1.0080           0
   40548 WT2  5888 TIP3 H2   HT     0.417000        1.0080           0
   40549 WT2  5889 TIP3 OH2  OT    -0.834000       15.9994           0
   40550 WT2  5889 TIP3 H1   HT     0.417000        1.0080           0
   40551 WT2  5889 TIP3 H2   HT     0.417000        1.0080           0
   40552 WT2  5890 TIP3 OH2  OT    -0.834000       15.9994           0
   40553 WT2  5890 TIP3 H1   HT     0.417000        1.0080           0
   40554 WT2  5890 TIP3 H2   HT     0.417000        1.0080           0
   40555 WT2  5891 TIP3 OH2  OT    -0.834000       15.9994           0
   40556 WT2  5891 TIP3 H1   HT     0.417000        1.0080           0
   40557 WT2  5891 TIP3 H2   HT     0.417000        1.0080           0
   40558 WT2  5893 TIP3 OH2  OT    -0.834000       15.9994           0
   40559 WT2  5893 TIP3 H1   HT     0.417000        1.0080           0
   40560 WT2  5893 TIP3 H2   HT     0.417000        1.0080           0
   40561 WT2  5897 TIP3 OH2  OT    -0.834000       15.9994           0
   40562 WT2  5897 TIP3 H1   HT     0.417000        1.0080           0
   40563 WT2  5897 TIP3 H2   HT     0.417000        1.0080           0
   40564 WT2  5899 TIP3 OH2  OT    -0.834000       15.9994           0
   40565 WT2  5899 TIP3 H1   HT     0.417000        1.0080           0
   40566 WT2  5899 TIP3 H2   HT     0.417000        1.0080           0
   40567 WT2  5901 TIP3 OH2  OT    -0.834000       15.9994           0
   40568 WT2  5901 TIP3 H1   HT     0.417000        1.0080           0
   40569 WT2  5901 TIP3 H2   HT     0.417000        1.0080           0
   40570 WT2  5903 TIP3 OH2  OT    -0.834000       15.9994           0
   40571 WT2  5903 TIP3 H1   HT     0.417000        1.0080           0
   40572 WT2  5903 TIP3 H2   HT     0.417000        1.0080           0
   40573 WT2  5904 TIP3 OH2  OT    -0.834000       15.9994           0
   40574 WT2  5904 TIP3 H1   HT     0.417000        1.0080           0
   40575 WT2  5904 TIP3 H2   HT     0.417000        1.0080           0
   40576 WT2  5905 TIP3 OH2  OT    -0.834000       15.9994           0
   40577 WT2  5905 TIP3 H1   HT     0.417000        1.0080           0
   40578 WT2  5905 TIP3 H2   HT     0.417000        1.0080           0
   40579 WT2  5906 TIP3 OH2  OT    -0.834000       15.9994           0
   40580 WT2  5906 TIP3 H1   HT     0.417000        1.0080           0
   40581 WT2  5906 TIP3 H2   HT     0.417000        1.0080           0
   40582 WT2  5907 TIP3 OH2  OT    -0.834000       15.9994           0
   40583 WT2  5907 TIP3 H1   HT     0.417000        1.0080           0
   40584 WT2  5907 TIP3 H2   HT     0.417000        1.0080           0
   40585 WT2  5908 TIP3 OH2  OT    -0.834000       15.9994           0
   40586 WT2  5908 TIP3 H1   HT     0.417000        1.0080           0
   40587 WT2  5908 TIP3 H2   HT     0.417000        1.0080           0
   40588 WT2  5909 TIP3 OH2  OT    -0.834000       15.9994           0
   40589 WT2  5909 TIP3 H1   HT     0.417000        1.0080           0
   40590 WT2  5909 TIP3 H2   HT     0.417000        1.0080           0
   40591 WT2  5910 TIP3 OH2  OT    -0.834000       15.9994           0
   40592 WT2  5910 TIP3 H1   HT     0.417000        1.0080           0
   40593 WT2  5910 TIP3 H2   HT     0.417000        1.0080           0
   40594 WT2  5911 TIP3 OH2  OT    -0.834000       15.9994           0
   40595 WT2  5911 TIP3 H1   HT     0.417000        1.0080           0
   40596 WT2  5911 TIP3 H2   HT     0.417000        1.0080           0
   40597 WT2  5912 TIP3 OH2  OT    -0.834000       15.9994           0
   40598 WT2  5912 TIP3 H1   HT     0.417000        1.0080           0
   40599 WT2  5912 TIP3 H2   HT     0.417000        1.0080           0
   40600 WT2  5913 TIP3 OH2  OT    -0.834000       15.9994           0
   40601 WT2  5913 TIP3 H1   HT     0.417000        1.0080           0
   40602 WT2  5913 TIP3 H2   HT     0.417000        1.0080           0
   40603 WT2  5914 TIP3 OH2  OT    -0.834000       15.9994           0
   40604 WT2  5914 TIP3 H1   HT     0.417000        1.0080           0
   40605 WT2  5914 TIP3 H2   HT     0.417000        1.0080           0
   40606 WT2  5916 TIP3 OH2  OT    -0.834000       15.9994           0
   40607 WT2  5916 TIP3 H1   HT     0.417000        1.0080           0
   40608 WT2  5916 TIP3 H2   HT     0.417000        1.0080           0
   40609 WT2  5920 TIP3 OH2  OT    -0.834000       15.9994           0
   40610 WT2  5920 TIP3 H1   HT     0.417000        1.0080           0
   40611 WT2  5920 TIP3 H2   HT     0.417000        1.0080           0
   40612 WT2  5924 TIP3 OH2  OT    -0.834000       15.9994           0
   40613 WT2  5924 TIP3 H1   HT     0.417000        1.0080           0
   40614 WT2  5924 TIP3 H2   HT     0.417000        1.0080           0
   40615 WT2  5925 TIP3 OH2  OT    -0.834000       15.9994           0
   40616 WT2  5925 TIP3 H1   HT     0.417000        1.0080           0
   40617 WT2  5925 TIP3 H2   HT     0.417000        1.0080           0
   40618 WT2  5926 TIP3 OH2  OT    -0.834000       15.9994           0
   40619 WT2  5926 TIP3 H1   HT     0.417000        1.0080           0
   40620 WT2  5926 TIP3 H2   HT     0.417000        1.0080           0
   40621 WT2  5927 TIP3 OH2  OT    -0.834000       15.9994           0
   40622 WT2  5927 TIP3 H1   HT     0.417000        1.0080           0
   40623 WT2  5927 TIP3 H2   HT     0.417000        1.0080           0
   40624 WT2  5928 TIP3 OH2  OT    -0.834000       15.9994           0
   40625 WT2  5928 TIP3 H1   HT     0.417000        1.0080           0
   40626 WT2  5928 TIP3 H2   HT     0.417000        1.0080           0
   40627 WT2  5929 TIP3 OH2  OT    -0.834000       15.9994           0
   40628 WT2  5929 TIP3 H1   HT     0.417000        1.0080           0
   40629 WT2  5929 TIP3 H2   HT     0.417000        1.0080           0
   40630 WT2  5930 TIP3 OH2  OT    -0.834000       15.9994           0
   40631 WT2  5930 TIP3 H1   HT     0.417000        1.0080           0
   40632 WT2  5930 TIP3 H2   HT     0.417000        1.0080           0
   40633 WT2  5931 TIP3 OH2  OT    -0.834000       15.9994           0
   40634 WT2  5931 TIP3 H1   HT     0.417000        1.0080           0
   40635 WT2  5931 TIP3 H2   HT     0.417000        1.0080           0
   40636 WT2  5932 TIP3 OH2  OT    -0.834000       15.9994           0
   40637 WT2  5932 TIP3 H1   HT     0.417000        1.0080           0
   40638 WT2  5932 TIP3 H2   HT     0.417000        1.0080           0
   40639 WT2  5933 TIP3 OH2  OT    -0.834000       15.9994           0
   40640 WT2  5933 TIP3 H1   HT     0.417000        1.0080           0
   40641 WT2  5933 TIP3 H2   HT     0.417000        1.0080           0
   40642 WT2  5934 TIP3 OH2  OT    -0.834000       15.9994           0
   40643 WT2  5934 TIP3 H1   HT     0.417000        1.0080           0
   40644 WT2  5934 TIP3 H2   HT     0.417000        1.0080           0
   40645 WT2  5935 TIP3 OH2  OT    -0.834000       15.9994           0
   40646 WT2  5935 TIP3 H1   HT     0.417000        1.0080           0
   40647 WT2  5935 TIP3 H2   HT     0.417000        1.0080           0
   40648 WT2  5937 TIP3 OH2  OT    -0.834000       15.9994           0
   40649 WT2  5937 TIP3 H1   HT     0.417000        1.0080           0
   40650 WT2  5937 TIP3 H2   HT     0.417000        1.0080           0
   40651 WT2  5941 TIP3 OH2  OT    -0.834000       15.9994           0
   40652 WT2  5941 TIP3 H1   HT     0.417000        1.0080           0
   40653 WT2  5941 TIP3 H2   HT     0.417000        1.0080           0
   40654 WT2  5945 TIP3 OH2  OT    -0.834000       15.9994           0
   40655 WT2  5945 TIP3 H1   HT     0.417000        1.0080           0
   40656 WT2  5945 TIP3 H2   HT     0.417000        1.0080           0
   40657 WT2  5946 TIP3 OH2  OT    -0.834000       15.9994           0
   40658 WT2  5946 TIP3 H1   HT     0.417000        1.0080           0
   40659 WT2  5946 TIP3 H2   HT     0.417000        1.0080           0
   40660 WT2  5947 TIP3 OH2  OT    -0.834000       15.9994           0
   40661 WT2  5947 TIP3 H1   HT     0.417000        1.0080           0
   40662 WT2  5947 TIP3 H2   HT     0.417000        1.0080           0
   40663 WT2  5948 TIP3 OH2  OT    -0.834000       15.9994           0
   40664 WT2  5948 TIP3 H1   HT     0.417000        1.0080           0
   40665 WT2  5948 TIP3 H2   HT     0.417000        1.0080           0
   40666 WT2  5949 TIP3 OH2  OT    -0.834000       15.9994           0
   40667 WT2  5949 TIP3 H1   HT     0.417000        1.0080           0
   40668 WT2  5949 TIP3 H2   HT     0.417000        1.0080           0
   40669 WT2  5950 TIP3 OH2  OT    -0.834000       15.9994           0
   40670 WT2  5950 TIP3 H1   HT     0.417000        1.0080           0
   40671 WT2  5950 TIP3 H2   HT     0.417000        1.0080           0
   40672 WT2  5951 TIP3 OH2  OT    -0.834000       15.9994           0
   40673 WT2  5951 TIP3 H1   HT     0.417000        1.0080           0
   40674 WT2  5951 TIP3 H2   HT     0.417000        1.0080           0
   40675 WT2  5952 TIP3 OH2  OT    -0.834000       15.9994           0
   40676 WT2  5952 TIP3 H1   HT     0.417000        1.0080           0
   40677 WT2  5952 TIP3 H2   HT     0.417000        1.0080           0
   40678 WT2  5953 TIP3 OH2  OT    -0.834000       15.9994           0
   40679 WT2  5953 TIP3 H1   HT     0.417000        1.0080           0
   40680 WT2  5953 TIP3 H2   HT     0.417000        1.0080           0
   40681 WT2  5954 TIP3 OH2  OT    -0.834000       15.9994           0
   40682 WT2  5954 TIP3 H1   HT     0.417000        1.0080           0
   40683 WT2  5954 TIP3 H2   HT     0.417000        1.0080           0
   40684 WT2  5955 TIP3 OH2  OT    -0.834000       15.9994           0
   40685 WT2  5955 TIP3 H1   HT     0.417000        1.0080           0
   40686 WT2  5955 TIP3 H2   HT     0.417000        1.0080           0
   40687 WT2  5956 TIP3 OH2  OT    -0.834000       15.9994           0
   40688 WT2  5956 TIP3 H1   HT     0.417000        1.0080           0
   40689 WT2  5956 TIP3 H2   HT     0.417000        1.0080           0
   40690 WT2  5959 TIP3 OH2  OT    -0.834000       15.9994           0
   40691 WT2  5959 TIP3 H1   HT     0.417000        1.0080           0
   40692 WT2  5959 TIP3 H2   HT     0.417000        1.0080           0
   40693 WT2  5962 TIP3 OH2  OT    -0.834000       15.9994           0
   40694 WT2  5962 TIP3 H1   HT     0.417000        1.0080           0
   40695 WT2  5962 TIP3 H2   HT     0.417000        1.0080           0
   40696 WT2  5964 TIP3 OH2  OT    -0.834000       15.9994           0
   40697 WT2  5964 TIP3 H1   HT     0.417000        1.0080           0
   40698 WT2  5964 TIP3 H2   HT     0.417000        1.0080           0
   40699 WT2  5965 TIP3 OH2  OT    -0.834000       15.9994           0
   40700 WT2  5965 TIP3 H1   HT     0.417000        1.0080           0
   40701 WT2  5965 TIP3 H2   HT     0.417000        1.0080           0
   40702 WT2  5966 TIP3 OH2  OT    -0.834000       15.9994           0
   40703 WT2  5966 TIP3 H1   HT     0.417000        1.0080           0
   40704 WT2  5966 TIP3 H2   HT     0.417000        1.0080           0
   40705 WT2  5967 TIP3 OH2  OT    -0.834000       15.9994           0
   40706 WT2  5967 TIP3 H1   HT     0.417000        1.0080           0
   40707 WT2  5967 TIP3 H2   HT     0.417000        1.0080           0
   40708 WT2  5968 TIP3 OH2  OT    -0.834000       15.9994           0
   40709 WT2  5968 TIP3 H1   HT     0.417000        1.0080           0
   40710 WT2  5968 TIP3 H2   HT     0.417000        1.0080           0
   40711 WT2  5969 TIP3 OH2  OT    -0.834000       15.9994           0
   40712 WT2  5969 TIP3 H1   HT     0.417000        1.0080           0
   40713 WT2  5969 TIP3 H2   HT     0.417000        1.0080           0
   40714 WT2  5970 TIP3 OH2  OT    -0.834000       15.9994           0
   40715 WT2  5970 TIP3 H1   HT     0.417000        1.0080           0
   40716 WT2  5970 TIP3 H2   HT     0.417000        1.0080           0
   40717 WT2  5971 TIP3 OH2  OT    -0.834000       15.9994           0
   40718 WT2  5971 TIP3 H1   HT     0.417000        1.0080           0
   40719 WT2  5971 TIP3 H2   HT     0.417000        1.0080           0
   40720 WT2  5972 TIP3 OH2  OT    -0.834000       15.9994           0
   40721 WT2  5972 TIP3 H1   HT     0.417000        1.0080           0
   40722 WT2  5972 TIP3 H2   HT     0.417000        1.0080           0
   40723 WT2  5973 TIP3 OH2  OT    -0.834000       15.9994           0
   40724 WT2  5973 TIP3 H1   HT     0.417000        1.0080           0
   40725 WT2  5973 TIP3 H2   HT     0.417000        1.0080           0
   40726 WT2  5974 TIP3 OH2  OT    -0.834000       15.9994           0
   40727 WT2  5974 TIP3 H1   HT     0.417000        1.0080           0
   40728 WT2  5974 TIP3 H2   HT     0.417000        1.0080           0
   40729 WT2  5975 TIP3 OH2  OT    -0.834000       15.9994           0
   40730 WT2  5975 TIP3 H1   HT     0.417000        1.0080           0
   40731 WT2  5975 TIP3 H2   HT     0.417000        1.0080           0
   40732 WT2  5976 TIP3 OH2  OT    -0.834000       15.9994           0
   40733 WT2  5976 TIP3 H1   HT     0.417000        1.0080           0
   40734 WT2  5976 TIP3 H2   HT     0.417000        1.0080           0
   40735 WT2  5977 TIP3 OH2  OT    -0.834000       15.9994           0
   40736 WT2  5977 TIP3 H1   HT     0.417000        1.0080           0
   40737 WT2  5977 TIP3 H2   HT     0.417000        1.0080           0
   40738 WT2  5978 TIP3 OH2  OT    -0.834000       15.9994           0
   40739 WT2  5978 TIP3 H1   HT     0.417000        1.0080           0
   40740 WT2  5978 TIP3 H2   HT     0.417000        1.0080           0
   40741 WT2  5981 TIP3 OH2  OT    -0.834000       15.9994           0
   40742 WT2  5981 TIP3 H1   HT     0.417000        1.0080           0
   40743 WT2  5981 TIP3 H2   HT     0.417000        1.0080           0
   40744 WT2  5984 TIP3 OH2  OT    -0.834000       15.9994           0
   40745 WT2  5984 TIP3 H1   HT     0.417000        1.0080           0
   40746 WT2  5984 TIP3 H2   HT     0.417000        1.0080           0
   40747 WT2  5986 TIP3 OH2  OT    -0.834000       15.9994           0
   40748 WT2  5986 TIP3 H1   HT     0.417000        1.0080           0
   40749 WT2  5986 TIP3 H2   HT     0.417000        1.0080           0
   40750 WT2  5987 TIP3 OH2  OT    -0.834000       15.9994           0
   40751 WT2  5987 TIP3 H1   HT     0.417000        1.0080           0
   40752 WT2  5987 TIP3 H2   HT     0.417000        1.0080           0
   40753 WT2  5988 TIP3 OH2  OT    -0.834000       15.9994           0
   40754 WT2  5988 TIP3 H1   HT     0.417000        1.0080           0
   40755 WT2  5988 TIP3 H2   HT     0.417000        1.0080           0
   40756 WT2  5989 TIP3 OH2  OT    -0.834000       15.9994           0
   40757 WT2  5989 TIP3 H1   HT     0.417000        1.0080           0
   40758 WT2  5989 TIP3 H2   HT     0.417000        1.0080           0
   40759 WT2  5990 TIP3 OH2  OT    -0.834000       15.9994           0
   40760 WT2  5990 TIP3 H1   HT     0.417000        1.0080           0
   40761 WT2  5990 TIP3 H2   HT     0.417000        1.0080           0
   40762 WT2  5991 TIP3 OH2  OT    -0.834000       15.9994           0
   40763 WT2  5991 TIP3 H1   HT     0.417000        1.0080           0
   40764 WT2  5991 TIP3 H2   HT     0.417000        1.0080           0
   40765 WT2  5992 TIP3 OH2  OT    -0.834000       15.9994           0
   40766 WT2  5992 TIP3 H1   HT     0.417000        1.0080           0
   40767 WT2  5992 TIP3 H2   HT     0.417000        1.0080           0
   40768 WT2  5993 TIP3 OH2  OT    -0.834000       15.9994           0
   40769 WT2  5993 TIP3 H1   HT     0.417000        1.0080           0
   40770 WT2  5993 TIP3 H2   HT     0.417000        1.0080           0
   40771 WT2  5994 TIP3 OH2  OT    -0.834000       15.9994           0
   40772 WT2  5994 TIP3 H1   HT     0.417000        1.0080           0
   40773 WT2  5994 TIP3 H2   HT     0.417000        1.0080           0
   40774 WT2  5995 TIP3 OH2  OT    -0.834000       15.9994           0
   40775 WT2  5995 TIP3 H1   HT     0.417000        1.0080           0
   40776 WT2  5995 TIP3 H2   HT     0.417000        1.0080           0
   40777 WT2  5996 TIP3 OH2  OT    -0.834000       15.9994           0
   40778 WT2  5996 TIP3 H1   HT     0.417000        1.0080           0
   40779 WT2  5996 TIP3 H2   HT     0.417000        1.0080           0
   40780 WT2  5997 TIP3 OH2  OT    -0.834000       15.9994           0
   40781 WT2  5997 TIP3 H1   HT     0.417000        1.0080           0
   40782 WT2  5997 TIP3 H2   HT     0.417000        1.0080           0
   40783 WT2  6000 TIP3 OH2  OT    -0.834000       15.9994           0
   40784 WT2  6000 TIP3 H1   HT     0.417000        1.0080           0
   40785 WT2  6000 TIP3 H2   HT     0.417000        1.0080           0
   40786 WT2  6004 TIP3 OH2  OT    -0.834000       15.9994           0
   40787 WT2  6004 TIP3 H1   HT     0.417000        1.0080           0
   40788 WT2  6004 TIP3 H2   HT     0.417000        1.0080           0
   40789 WT2  6006 TIP3 OH2  OT    -0.834000       15.9994           0
   40790 WT2  6006 TIP3 H1   HT     0.417000        1.0080           0
   40791 WT2  6006 TIP3 H2   HT     0.417000        1.0080           0
   40792 WT2  6008 TIP3 OH2  OT    -0.834000       15.9994           0
   40793 WT2  6008 TIP3 H1   HT     0.417000        1.0080           0
   40794 WT2  6008 TIP3 H2   HT     0.417000        1.0080           0
   40795 WT2  6009 TIP3 OH2  OT    -0.834000       15.9994           0
   40796 WT2  6009 TIP3 H1   HT     0.417000        1.0080           0
   40797 WT2  6009 TIP3 H2   HT     0.417000        1.0080           0
   40798 WT2  6011 TIP3 OH2  OT    -0.834000       15.9994           0
   40799 WT2  6011 TIP3 H1   HT     0.417000        1.0080           0
   40800 WT2  6011 TIP3 H2   HT     0.417000        1.0080           0
   40801 WT2  6012 TIP3 OH2  OT    -0.834000       15.9994           0
   40802 WT2  6012 TIP3 H1   HT     0.417000        1.0080           0
   40803 WT2  6012 TIP3 H2   HT     0.417000        1.0080           0
   40804 WT2  6013 TIP3 OH2  OT    -0.834000       15.9994           0
   40805 WT2  6013 TIP3 H1   HT     0.417000        1.0080           0
   40806 WT2  6013 TIP3 H2   HT     0.417000        1.0080           0
   40807 WT2  6014 TIP3 OH2  OT    -0.834000       15.9994           0
   40808 WT2  6014 TIP3 H1   HT     0.417000        1.0080           0
   40809 WT2  6014 TIP3 H2   HT     0.417000        1.0080           0
   40810 WT2  6015 TIP3 OH2  OT    -0.834000       15.9994           0
   40811 WT2  6015 TIP3 H1   HT     0.417000        1.0080           0
   40812 WT2  6015 TIP3 H2   HT     0.417000        1.0080           0
   40813 WT2  6016 TIP3 OH2  OT    -0.834000       15.9994           0
   40814 WT2  6016 TIP3 H1   HT     0.417000        1.0080           0
   40815 WT2  6016 TIP3 H2   HT     0.417000        1.0080           0
   40816 WT2  6017 TIP3 OH2  OT    -0.834000       15.9994           0
   40817 WT2  6017 TIP3 H1   HT     0.417000        1.0080           0
   40818 WT2  6017 TIP3 H2   HT     0.417000        1.0080           0
   40819 WT2  6018 TIP3 OH2  OT    -0.834000       15.9994           0
   40820 WT2  6018 TIP3 H1   HT     0.417000        1.0080           0
   40821 WT2  6018 TIP3 H2   HT     0.417000        1.0080           0
   40822 WT2  6019 TIP3 OH2  OT    -0.834000       15.9994           0
   40823 WT2  6019 TIP3 H1   HT     0.417000        1.0080           0
   40824 WT2  6019 TIP3 H2   HT     0.417000        1.0080           0
   40825 WT2  6020 TIP3 OH2  OT    -0.834000       15.9994           0
   40826 WT2  6020 TIP3 H1   HT     0.417000        1.0080           0
   40827 WT2  6020 TIP3 H2   HT     0.417000        1.0080           0
   40828 WT2  6021 TIP3 OH2  OT    -0.834000       15.9994           0
   40829 WT2  6021 TIP3 H1   HT     0.417000        1.0080           0
   40830 WT2  6021 TIP3 H2   HT     0.417000        1.0080           0
   40831 WT2  6024 TIP3 OH2  OT    -0.834000       15.9994           0
   40832 WT2  6024 TIP3 H1   HT     0.417000        1.0080           0
   40833 WT2  6024 TIP3 H2   HT     0.417000        1.0080           0
   40834 WT2  6026 TIP3 OH2  OT    -0.834000       15.9994           0
   40835 WT2  6026 TIP3 H1   HT     0.417000        1.0080           0
   40836 WT2  6026 TIP3 H2   HT     0.417000        1.0080           0
   40837 WT2  6027 TIP3 OH2  OT    -0.834000       15.9994           0
   40838 WT2  6027 TIP3 H1   HT     0.417000        1.0080           0
   40839 WT2  6027 TIP3 H2   HT     0.417000        1.0080           0
   40840 WT2  6028 TIP3 OH2  OT    -0.834000       15.9994           0
   40841 WT2  6028 TIP3 H1   HT     0.417000        1.0080           0
   40842 WT2  6028 TIP3 H2   HT     0.417000        1.0080           0
   40843 WT2  6029 TIP3 OH2  OT    -0.834000       15.9994           0
   40844 WT2  6029 TIP3 H1   HT     0.417000        1.0080           0
   40845 WT2  6029 TIP3 H2   HT     0.417000        1.0080           0
   40846 WT2  6030 TIP3 OH2  OT    -0.834000       15.9994           0
   40847 WT2  6030 TIP3 H1   HT     0.417000        1.0080           0
   40848 WT2  6030 TIP3 H2   HT     0.417000        1.0080           0
   40849 WT2  6031 TIP3 OH2  OT    -0.834000       15.9994           0
   40850 WT2  6031 TIP3 H1   HT     0.417000        1.0080           0
   40851 WT2  6031 TIP3 H2   HT     0.417000        1.0080           0
   40852 WT2  6033 TIP3 OH2  OT    -0.834000       15.9994           0
   40853 WT2  6033 TIP3 H1   HT     0.417000        1.0080           0
   40854 WT2  6033 TIP3 H2   HT     0.417000        1.0080           0
   40855 WT2  6034 TIP3 OH2  OT    -0.834000       15.9994           0
   40856 WT2  6034 TIP3 H1   HT     0.417000        1.0080           0
   40857 WT2  6034 TIP3 H2   HT     0.417000        1.0080           0
   40858 WT2  6035 TIP3 OH2  OT    -0.834000       15.9994           0
   40859 WT2  6035 TIP3 H1   HT     0.417000        1.0080           0
   40860 WT2  6035 TIP3 H2   HT     0.417000        1.0080           0
   40861 WT2  6036 TIP3 OH2  OT    -0.834000       15.9994           0
   40862 WT2  6036 TIP3 H1   HT     0.417000        1.0080           0
   40863 WT2  6036 TIP3 H2   HT     0.417000        1.0080           0
   40864 WT2  6037 TIP3 OH2  OT    -0.834000       15.9994           0
   40865 WT2  6037 TIP3 H1   HT     0.417000        1.0080           0
   40866 WT2  6037 TIP3 H2   HT     0.417000        1.0080           0
   40867 WT2  6038 TIP3 OH2  OT    -0.834000       15.9994           0
   40868 WT2  6038 TIP3 H1   HT     0.417000        1.0080           0
   40869 WT2  6038 TIP3 H2   HT     0.417000        1.0080           0
   40870 WT2  6039 TIP3 OH2  OT    -0.834000       15.9994           0
   40871 WT2  6039 TIP3 H1   HT     0.417000        1.0080           0
   40872 WT2  6039 TIP3 H2   HT     0.417000        1.0080           0
   40873 WT2  6041 TIP3 OH2  OT    -0.834000       15.9994           0
   40874 WT2  6041 TIP3 H1   HT     0.417000        1.0080           0
   40875 WT2  6041 TIP3 H2   HT     0.417000        1.0080           0
   40876 WT2  6042 TIP3 OH2  OT    -0.834000       15.9994           0
   40877 WT2  6042 TIP3 H1   HT     0.417000        1.0080           0
   40878 WT2  6042 TIP3 H2   HT     0.417000        1.0080           0
   40879 WT2  6046 TIP3 OH2  OT    -0.834000       15.9994           0
   40880 WT2  6046 TIP3 H1   HT     0.417000        1.0080           0
   40881 WT2  6046 TIP3 H2   HT     0.417000        1.0080           0
   40882 WT2  6047 TIP3 OH2  OT    -0.834000       15.9994           0
   40883 WT2  6047 TIP3 H1   HT     0.417000        1.0080           0
   40884 WT2  6047 TIP3 H2   HT     0.417000        1.0080           0
   40885 WT2  6048 TIP3 OH2  OT    -0.834000       15.9994           0
   40886 WT2  6048 TIP3 H1   HT     0.417000        1.0080           0
   40887 WT2  6048 TIP3 H2   HT     0.417000        1.0080           0
   40888 WT2  6049 TIP3 OH2  OT    -0.834000       15.9994           0
   40889 WT2  6049 TIP3 H1   HT     0.417000        1.0080           0
   40890 WT2  6049 TIP3 H2   HT     0.417000        1.0080           0
   40891 WT2  6050 TIP3 OH2  OT    -0.834000       15.9994           0
   40892 WT2  6050 TIP3 H1   HT     0.417000        1.0080           0
   40893 WT2  6050 TIP3 H2   HT     0.417000        1.0080           0
   40894 WT2  6051 TIP3 OH2  OT    -0.834000       15.9994           0
   40895 WT2  6051 TIP3 H1   HT     0.417000        1.0080           0
   40896 WT2  6051 TIP3 H2   HT     0.417000        1.0080           0
   40897 WT2  6052 TIP3 OH2  OT    -0.834000       15.9994           0
   40898 WT2  6052 TIP3 H1   HT     0.417000        1.0080           0
   40899 WT2  6052 TIP3 H2   HT     0.417000        1.0080           0
   40900 WT2  6054 TIP3 OH2  OT    -0.834000       15.9994           0
   40901 WT2  6054 TIP3 H1   HT     0.417000        1.0080           0
   40902 WT2  6054 TIP3 H2   HT     0.417000        1.0080           0
   40903 WT2  6055 TIP3 OH2  OT    -0.834000       15.9994           0
   40904 WT2  6055 TIP3 H1   HT     0.417000        1.0080           0
   40905 WT2  6055 TIP3 H2   HT     0.417000        1.0080           0
   40906 WT2  6056 TIP3 OH2  OT    -0.834000       15.9994           0
   40907 WT2  6056 TIP3 H1   HT     0.417000        1.0080           0
   40908 WT2  6056 TIP3 H2   HT     0.417000        1.0080           0
   40909 WT2  6057 TIP3 OH2  OT    -0.834000       15.9994           0
   40910 WT2  6057 TIP3 H1   HT     0.417000        1.0080           0
   40911 WT2  6057 TIP3 H2   HT     0.417000        1.0080           0
   40912 WT2  6058 TIP3 OH2  OT    -0.834000       15.9994           0
   40913 WT2  6058 TIP3 H1   HT     0.417000        1.0080           0
   40914 WT2  6058 TIP3 H2   HT     0.417000        1.0080           0
   40915 WT2  6059 TIP3 OH2  OT    -0.834000       15.9994           0
   40916 WT2  6059 TIP3 H1   HT     0.417000        1.0080           0
   40917 WT2  6059 TIP3 H2   HT     0.417000        1.0080           0
   40918 WT2  6060 TIP3 OH2  OT    -0.834000       15.9994           0
   40919 WT2  6060 TIP3 H1   HT     0.417000        1.0080           0
   40920 WT2  6060 TIP3 H2   HT     0.417000        1.0080           0
   40921 WT2  6068 TIP3 OH2  OT    -0.834000       15.9994           0
   40922 WT2  6068 TIP3 H1   HT     0.417000        1.0080           0
   40923 WT2  6068 TIP3 H2   HT     0.417000        1.0080           0
   40924 WT2  6070 TIP3 OH2  OT    -0.834000       15.9994           0
   40925 WT2  6070 TIP3 H1   HT     0.417000        1.0080           0
   40926 WT2  6070 TIP3 H2   HT     0.417000        1.0080           0
   40927 WT2  6071 TIP3 OH2  OT    -0.834000       15.9994           0
   40928 WT2  6071 TIP3 H1   HT     0.417000        1.0080           0
   40929 WT2  6071 TIP3 H2   HT     0.417000        1.0080           0
   40930 WT2  6072 TIP3 OH2  OT    -0.834000       15.9994           0
   40931 WT2  6072 TIP3 H1   HT     0.417000        1.0080           0
   40932 WT2  6072 TIP3 H2   HT     0.417000        1.0080           0
   40933 WT2  6073 TIP3 OH2  OT    -0.834000       15.9994           0
   40934 WT2  6073 TIP3 H1   HT     0.417000        1.0080           0
   40935 WT2  6073 TIP3 H2   HT     0.417000        1.0080           0
   40936 WT2  6074 TIP3 OH2  OT    -0.834000       15.9994           0
   40937 WT2  6074 TIP3 H1   HT     0.417000        1.0080           0
   40938 WT2  6074 TIP3 H2   HT     0.417000        1.0080           0
   40939 WT2  6075 TIP3 OH2  OT    -0.834000       15.9994           0
   40940 WT2  6075 TIP3 H1   HT     0.417000        1.0080           0
   40941 WT2  6075 TIP3 H2   HT     0.417000        1.0080           0
   40942 WT2  6076 TIP3 OH2  OT    -0.834000       15.9994           0
   40943 WT2  6076 TIP3 H1   HT     0.417000        1.0080           0
   40944 WT2  6076 TIP3 H2   HT     0.417000        1.0080           0
   40945 WT2  6077 TIP3 OH2  OT    -0.834000       15.9994           0
   40946 WT2  6077 TIP3 H1   HT     0.417000        1.0080           0
   40947 WT2  6077 TIP3 H2   HT     0.417000        1.0080           0
   40948 WT2  6078 TIP3 OH2  OT    -0.834000       15.9994           0
   40949 WT2  6078 TIP3 H1   HT     0.417000        1.0080           0
   40950 WT2  6078 TIP3 H2   HT     0.417000        1.0080           0
   40951 WT2  6079 TIP3 OH2  OT    -0.834000       15.9994           0
   40952 WT2  6079 TIP3 H1   HT     0.417000        1.0080           0
   40953 WT2  6079 TIP3 H2   HT     0.417000        1.0080           0
   40954 WT2  6080 TIP3 OH2  OT    -0.834000       15.9994           0
   40955 WT2  6080 TIP3 H1   HT     0.417000        1.0080           0
   40956 WT2  6080 TIP3 H2   HT     0.417000        1.0080           0
   40957 WT2  6081 TIP3 OH2  OT    -0.834000       15.9994           0
   40958 WT2  6081 TIP3 H1   HT     0.417000        1.0080           0
   40959 WT2  6081 TIP3 H2   HT     0.417000        1.0080           0
   40960 WT2  6082 TIP3 OH2  OT    -0.834000       15.9994           0
   40961 WT2  6082 TIP3 H1   HT     0.417000        1.0080           0
   40962 WT2  6082 TIP3 H2   HT     0.417000        1.0080           0
   40963 WT2  6083 TIP3 OH2  OT    -0.834000       15.9994           0
   40964 WT2  6083 TIP3 H1   HT     0.417000        1.0080           0
   40965 WT2  6083 TIP3 H2   HT     0.417000        1.0080           0
   40966 WT2  6084 TIP3 OH2  OT    -0.834000       15.9994           0
   40967 WT2  6084 TIP3 H1   HT     0.417000        1.0080           0
   40968 WT2  6084 TIP3 H2   HT     0.417000        1.0080           0
   40969 WT2  6085 TIP3 OH2  OT    -0.834000       15.9994           0
   40970 WT2  6085 TIP3 H1   HT     0.417000        1.0080           0
   40971 WT2  6085 TIP3 H2   HT     0.417000        1.0080           0
   40972 WT2  6086 TIP3 OH2  OT    -0.834000       15.9994           0
   40973 WT2  6086 TIP3 H1   HT     0.417000        1.0080           0
   40974 WT2  6086 TIP3 H2   HT     0.417000        1.0080           0
   40975 WT2  6089 TIP3 OH2  OT    -0.834000       15.9994           0
   40976 WT2  6089 TIP3 H1   HT     0.417000        1.0080           0
   40977 WT2  6089 TIP3 H2   HT     0.417000        1.0080           0
   40978 WT2  6090 TIP3 OH2  OT    -0.834000       15.9994           0
   40979 WT2  6090 TIP3 H1   HT     0.417000        1.0080           0
   40980 WT2  6090 TIP3 H2   HT     0.417000        1.0080           0
   40981 WT2  6091 TIP3 OH2  OT    -0.834000       15.9994           0
   40982 WT2  6091 TIP3 H1   HT     0.417000        1.0080           0
   40983 WT2  6091 TIP3 H2   HT     0.417000        1.0080           0
   40984 WT2  6092 TIP3 OH2  OT    -0.834000       15.9994           0
   40985 WT2  6092 TIP3 H1   HT     0.417000        1.0080           0
   40986 WT2  6092 TIP3 H2   HT     0.417000        1.0080           0
   40987 WT2  6093 TIP3 OH2  OT    -0.834000       15.9994           0
   40988 WT2  6093 TIP3 H1   HT     0.417000        1.0080           0
   40989 WT2  6093 TIP3 H2   HT     0.417000        1.0080           0
   40990 WT2  6095 TIP3 OH2  OT    -0.834000       15.9994           0
   40991 WT2  6095 TIP3 H1   HT     0.417000        1.0080           0
   40992 WT2  6095 TIP3 H2   HT     0.417000        1.0080           0
   40993 WT2  6096 TIP3 OH2  OT    -0.834000       15.9994           0
   40994 WT2  6096 TIP3 H1   HT     0.417000        1.0080           0
   40995 WT2  6096 TIP3 H2   HT     0.417000        1.0080           0
   40996 WT2  6097 TIP3 OH2  OT    -0.834000       15.9994           0
   40997 WT2  6097 TIP3 H1   HT     0.417000        1.0080           0
   40998 WT2  6097 TIP3 H2   HT     0.417000        1.0080           0
   40999 WT2  6098 TIP3 OH2  OT    -0.834000       15.9994           0
   41000 WT2  6098 TIP3 H1   HT     0.417000        1.0080           0
   41001 WT2  6098 TIP3 H2   HT     0.417000        1.0080           0
   41002 WT2  6099 TIP3 OH2  OT    -0.834000       15.9994           0
   41003 WT2  6099 TIP3 H1   HT     0.417000        1.0080           0
   41004 WT2  6099 TIP3 H2   HT     0.417000        1.0080           0
   41005 WT2  6100 TIP3 OH2  OT    -0.834000       15.9994           0
   41006 WT2  6100 TIP3 H1   HT     0.417000        1.0080           0
   41007 WT2  6100 TIP3 H2   HT     0.417000        1.0080           0
   41008 WT2  6101 TIP3 OH2  OT    -0.834000       15.9994           0
   41009 WT2  6101 TIP3 H1   HT     0.417000        1.0080           0
   41010 WT2  6101 TIP3 H2   HT     0.417000        1.0080           0
   41011 WT2  6102 TIP3 OH2  OT    -0.834000       15.9994           0
   41012 WT2  6102 TIP3 H1   HT     0.417000        1.0080           0
   41013 WT2  6102 TIP3 H2   HT     0.417000        1.0080           0
   41014 WT2  6103 TIP3 OH2  OT    -0.834000       15.9994           0
   41015 WT2  6103 TIP3 H1   HT     0.417000        1.0080           0
   41016 WT2  6103 TIP3 H2   HT     0.417000        1.0080           0
   41017 WT2  6104 TIP3 OH2  OT    -0.834000       15.9994           0
   41018 WT2  6104 TIP3 H1   HT     0.417000        1.0080           0
   41019 WT2  6104 TIP3 H2   HT     0.417000        1.0080           0
   41020 WT2  6108 TIP3 OH2  OT    -0.834000       15.9994           0
   41021 WT2  6108 TIP3 H1   HT     0.417000        1.0080           0
   41022 WT2  6108 TIP3 H2   HT     0.417000        1.0080           0
   41023 WT2  6110 TIP3 OH2  OT    -0.834000       15.9994           0
   41024 WT2  6110 TIP3 H1   HT     0.417000        1.0080           0
   41025 WT2  6110 TIP3 H2   HT     0.417000        1.0080           0
   41026 WT2  6112 TIP3 OH2  OT    -0.834000       15.9994           0
   41027 WT2  6112 TIP3 H1   HT     0.417000        1.0080           0
   41028 WT2  6112 TIP3 H2   HT     0.417000        1.0080           0
   41029 WT2  6113 TIP3 OH2  OT    -0.834000       15.9994           0
   41030 WT2  6113 TIP3 H1   HT     0.417000        1.0080           0
   41031 WT2  6113 TIP3 H2   HT     0.417000        1.0080           0
   41032 WT2  6114 TIP3 OH2  OT    -0.834000       15.9994           0
   41033 WT2  6114 TIP3 H1   HT     0.417000        1.0080           0
   41034 WT2  6114 TIP3 H2   HT     0.417000        1.0080           0
   41035 WT2  6115 TIP3 OH2  OT    -0.834000       15.9994           0
   41036 WT2  6115 TIP3 H1   HT     0.417000        1.0080           0
   41037 WT2  6115 TIP3 H2   HT     0.417000        1.0080           0
   41038 WT2  6116 TIP3 OH2  OT    -0.834000       15.9994           0
   41039 WT2  6116 TIP3 H1   HT     0.417000        1.0080           0
   41040 WT2  6116 TIP3 H2   HT     0.417000        1.0080           0
   41041 WT2  6117 TIP3 OH2  OT    -0.834000       15.9994           0
   41042 WT2  6117 TIP3 H1   HT     0.417000        1.0080           0
   41043 WT2  6117 TIP3 H2   HT     0.417000        1.0080           0
   41044 WT2  6118 TIP3 OH2  OT    -0.834000       15.9994           0
   41045 WT2  6118 TIP3 H1   HT     0.417000        1.0080           0
   41046 WT2  6118 TIP3 H2   HT     0.417000        1.0080           0
   41047 WT2  6119 TIP3 OH2  OT    -0.834000       15.9994           0
   41048 WT2  6119 TIP3 H1   HT     0.417000        1.0080           0
   41049 WT2  6119 TIP3 H2   HT     0.417000        1.0080           0
   41050 WT2  6120 TIP3 OH2  OT    -0.834000       15.9994           0
   41051 WT2  6120 TIP3 H1   HT     0.417000        1.0080           0
   41052 WT2  6120 TIP3 H2   HT     0.417000        1.0080           0
   41053 WT2  6121 TIP3 OH2  OT    -0.834000       15.9994           0
   41054 WT2  6121 TIP3 H1   HT     0.417000        1.0080           0
   41055 WT2  6121 TIP3 H2   HT     0.417000        1.0080           0
   41056 WT2  6122 TIP3 OH2  OT    -0.834000       15.9994           0
   41057 WT2  6122 TIP3 H1   HT     0.417000        1.0080           0
   41058 WT2  6122 TIP3 H2   HT     0.417000        1.0080           0
   41059 WT2  6123 TIP3 OH2  OT    -0.834000       15.9994           0
   41060 WT2  6123 TIP3 H1   HT     0.417000        1.0080           0
   41061 WT2  6123 TIP3 H2   HT     0.417000        1.0080           0
   41062 WT2  6124 TIP3 OH2  OT    -0.834000       15.9994           0
   41063 WT2  6124 TIP3 H1   HT     0.417000        1.0080           0
   41064 WT2  6124 TIP3 H2   HT     0.417000        1.0080           0
   41065 WT2  6128 TIP3 OH2  OT    -0.834000       15.9994           0
   41066 WT2  6128 TIP3 H1   HT     0.417000        1.0080           0
   41067 WT2  6128 TIP3 H2   HT     0.417000        1.0080           0
   41068 WT2  6132 TIP3 OH2  OT    -0.834000       15.9994           0
   41069 WT2  6132 TIP3 H1   HT     0.417000        1.0080           0
   41070 WT2  6132 TIP3 H2   HT     0.417000        1.0080           0
   41071 WT2  6133 TIP3 OH2  OT    -0.834000       15.9994           0
   41072 WT2  6133 TIP3 H1   HT     0.417000        1.0080           0
   41073 WT2  6133 TIP3 H2   HT     0.417000        1.0080           0
   41074 WT2  6134 TIP3 OH2  OT    -0.834000       15.9994           0
   41075 WT2  6134 TIP3 H1   HT     0.417000        1.0080           0
   41076 WT2  6134 TIP3 H2   HT     0.417000        1.0080           0
   41077 WT2  6135 TIP3 OH2  OT    -0.834000       15.9994           0
   41078 WT2  6135 TIP3 H1   HT     0.417000        1.0080           0
   41079 WT2  6135 TIP3 H2   HT     0.417000        1.0080           0
   41080 WT2  6136 TIP3 OH2  OT    -0.834000       15.9994           0
   41081 WT2  6136 TIP3 H1   HT     0.417000        1.0080           0
   41082 WT2  6136 TIP3 H2   HT     0.417000        1.0080           0
   41083 WT2  6137 TIP3 OH2  OT    -0.834000       15.9994           0
   41084 WT2  6137 TIP3 H1   HT     0.417000        1.0080           0
   41085 WT2  6137 TIP3 H2   HT     0.417000        1.0080           0
   41086 WT2  6138 TIP3 OH2  OT    -0.834000       15.9994           0
   41087 WT2  6138 TIP3 H1   HT     0.417000        1.0080           0
   41088 WT2  6138 TIP3 H2   HT     0.417000        1.0080           0
   41089 WT2  6139 TIP3 OH2  OT    -0.834000       15.9994           0
   41090 WT2  6139 TIP3 H1   HT     0.417000        1.0080           0
   41091 WT2  6139 TIP3 H2   HT     0.417000        1.0080           0
   41092 WT2  6140 TIP3 OH2  OT    -0.834000       15.9994           0
   41093 WT2  6140 TIP3 H1   HT     0.417000        1.0080           0
   41094 WT2  6140 TIP3 H2   HT     0.417000        1.0080           0
   41095 WT2  6141 TIP3 OH2  OT    -0.834000       15.9994           0
   41096 WT2  6141 TIP3 H1   HT     0.417000        1.0080           0
   41097 WT2  6141 TIP3 H2   HT     0.417000        1.0080           0
   41098 WT2  6142 TIP3 OH2  OT    -0.834000       15.9994           0
   41099 WT2  6142 TIP3 H1   HT     0.417000        1.0080           0
   41100 WT2  6142 TIP3 H2   HT     0.417000        1.0080           0
   41101 WT2  6143 TIP3 OH2  OT    -0.834000       15.9994           0
   41102 WT2  6143 TIP3 H1   HT     0.417000        1.0080           0
   41103 WT2  6143 TIP3 H2   HT     0.417000        1.0080           0
   41104 WT2  6144 TIP3 OH2  OT    -0.834000       15.9994           0
   41105 WT2  6144 TIP3 H1   HT     0.417000        1.0080           0
   41106 WT2  6144 TIP3 H2   HT     0.417000        1.0080           0
   41107 WT2  6145 TIP3 OH2  OT    -0.834000       15.9994           0
   41108 WT2  6145 TIP3 H1   HT     0.417000        1.0080           0
   41109 WT2  6145 TIP3 H2   HT     0.417000        1.0080           0
   41110 WT2  6155 TIP3 OH2  OT    -0.834000       15.9994           0
   41111 WT2  6155 TIP3 H1   HT     0.417000        1.0080           0
   41112 WT2  6155 TIP3 H2   HT     0.417000        1.0080           0
   41113 WT2  6157 TIP3 OH2  OT    -0.834000       15.9994           0
   41114 WT2  6157 TIP3 H1   HT     0.417000        1.0080           0
   41115 WT2  6157 TIP3 H2   HT     0.417000        1.0080           0
   41116 WT2  6158 TIP3 OH2  OT    -0.834000       15.9994           0
   41117 WT2  6158 TIP3 H1   HT     0.417000        1.0080           0
   41118 WT2  6158 TIP3 H2   HT     0.417000        1.0080           0
   41119 WT2  6159 TIP3 OH2  OT    -0.834000       15.9994           0
   41120 WT2  6159 TIP3 H1   HT     0.417000        1.0080           0
   41121 WT2  6159 TIP3 H2   HT     0.417000        1.0080           0
   41122 WT2  6160 TIP3 OH2  OT    -0.834000       15.9994           0
   41123 WT2  6160 TIP3 H1   HT     0.417000        1.0080           0
   41124 WT2  6160 TIP3 H2   HT     0.417000        1.0080           0
   41125 WT2  6161 TIP3 OH2  OT    -0.834000       15.9994           0
   41126 WT2  6161 TIP3 H1   HT     0.417000        1.0080           0
   41127 WT2  6161 TIP3 H2   HT     0.417000        1.0080           0
   41128 WT2  6162 TIP3 OH2  OT    -0.834000       15.9994           0
   41129 WT2  6162 TIP3 H1   HT     0.417000        1.0080           0
   41130 WT2  6162 TIP3 H2   HT     0.417000        1.0080           0
   41131 WT2  6163 TIP3 OH2  OT    -0.834000       15.9994           0
   41132 WT2  6163 TIP3 H1   HT     0.417000        1.0080           0
   41133 WT2  6163 TIP3 H2   HT     0.417000        1.0080           0
   41134 WT2  6165 TIP3 OH2  OT    -0.834000       15.9994           0
   41135 WT2  6165 TIP3 H1   HT     0.417000        1.0080           0
   41136 WT2  6165 TIP3 H2   HT     0.417000        1.0080           0
   41137 WT2  6166 TIP3 OH2  OT    -0.834000       15.9994           0
   41138 WT2  6166 TIP3 H1   HT     0.417000        1.0080           0
   41139 WT2  6166 TIP3 H2   HT     0.417000        1.0080           0
   41140 WT2  6168 TIP3 OH2  OT    -0.834000       15.9994           0
   41141 WT2  6168 TIP3 H1   HT     0.417000        1.0080           0
   41142 WT2  6168 TIP3 H2   HT     0.417000        1.0080           0
   41143 WT2  6169 TIP3 OH2  OT    -0.834000       15.9994           0
   41144 WT2  6169 TIP3 H1   HT     0.417000        1.0080           0
   41145 WT2  6169 TIP3 H2   HT     0.417000        1.0080           0
   41146 WT2  6176 TIP3 OH2  OT    -0.834000       15.9994           0
   41147 WT2  6176 TIP3 H1   HT     0.417000        1.0080           0
   41148 WT2  6176 TIP3 H2   HT     0.417000        1.0080           0
   41149 WT2  6177 TIP3 OH2  OT    -0.834000       15.9994           0
   41150 WT2  6177 TIP3 H1   HT     0.417000        1.0080           0
   41151 WT2  6177 TIP3 H2   HT     0.417000        1.0080           0
   41152 WT2  6178 TIP3 OH2  OT    -0.834000       15.9994           0
   41153 WT2  6178 TIP3 H1   HT     0.417000        1.0080           0
   41154 WT2  6178 TIP3 H2   HT     0.417000        1.0080           0
   41155 WT2  6180 TIP3 OH2  OT    -0.834000       15.9994           0
   41156 WT2  6180 TIP3 H1   HT     0.417000        1.0080           0
   41157 WT2  6180 TIP3 H2   HT     0.417000        1.0080           0
   41158 WT2  6181 TIP3 OH2  OT    -0.834000       15.9994           0
   41159 WT2  6181 TIP3 H1   HT     0.417000        1.0080           0
   41160 WT2  6181 TIP3 H2   HT     0.417000        1.0080           0
   41161 WT2  6182 TIP3 OH2  OT    -0.834000       15.9994           0
   41162 WT2  6182 TIP3 H1   HT     0.417000        1.0080           0
   41163 WT2  6182 TIP3 H2   HT     0.417000        1.0080           0
   41164 WT2  6183 TIP3 OH2  OT    -0.834000       15.9994           0
   41165 WT2  6183 TIP3 H1   HT     0.417000        1.0080           0
   41166 WT2  6183 TIP3 H2   HT     0.417000        1.0080           0
   41167 WT2  6184 TIP3 OH2  OT    -0.834000       15.9994           0
   41168 WT2  6184 TIP3 H1   HT     0.417000        1.0080           0
   41169 WT2  6184 TIP3 H2   HT     0.417000        1.0080           0
   41170 WT2  6185 TIP3 OH2  OT    -0.834000       15.9994           0
   41171 WT2  6185 TIP3 H1   HT     0.417000        1.0080           0
   41172 WT2  6185 TIP3 H2   HT     0.417000        1.0080           0
   41173 WT2  6186 TIP3 OH2  OT    -0.834000       15.9994           0
   41174 WT2  6186 TIP3 H1   HT     0.417000        1.0080           0
   41175 WT2  6186 TIP3 H2   HT     0.417000        1.0080           0
   41176 WT2  6187 TIP3 OH2  OT    -0.834000       15.9994           0
   41177 WT2  6187 TIP3 H1   HT     0.417000        1.0080           0
   41178 WT2  6187 TIP3 H2   HT     0.417000        1.0080           0
   41179 WT2  6188 TIP3 OH2  OT    -0.834000       15.9994           0
   41180 WT2  6188 TIP3 H1   HT     0.417000        1.0080           0
   41181 WT2  6188 TIP3 H2   HT     0.417000        1.0080           0
   41182 WT2  6190 TIP3 OH2  OT    -0.834000       15.9994           0
   41183 WT2  6190 TIP3 H1   HT     0.417000        1.0080           0
   41184 WT2  6190 TIP3 H2   HT     0.417000        1.0080           0
   41185 WT2  6192 TIP3 OH2  OT    -0.834000       15.9994           0
   41186 WT2  6192 TIP3 H1   HT     0.417000        1.0080           0
   41187 WT2  6192 TIP3 H2   HT     0.417000        1.0080           0
   41188 WT2  6193 TIP3 OH2  OT    -0.834000       15.9994           0
   41189 WT2  6193 TIP3 H1   HT     0.417000        1.0080           0
   41190 WT2  6193 TIP3 H2   HT     0.417000        1.0080           0
   41191 WT2  6195 TIP3 OH2  OT    -0.834000       15.9994           0
   41192 WT2  6195 TIP3 H1   HT     0.417000        1.0080           0
   41193 WT2  6195 TIP3 H2   HT     0.417000        1.0080           0
   41194 WT2  6197 TIP3 OH2  OT    -0.834000       15.9994           0
   41195 WT2  6197 TIP3 H1   HT     0.417000        1.0080           0
   41196 WT2  6197 TIP3 H2   HT     0.417000        1.0080           0
   41197 WT2  6198 TIP3 OH2  OT    -0.834000       15.9994           0
   41198 WT2  6198 TIP3 H1   HT     0.417000        1.0080           0
   41199 WT2  6198 TIP3 H2   HT     0.417000        1.0080           0
   41200 WT2  6200 TIP3 OH2  OT    -0.834000       15.9994           0
   41201 WT2  6200 TIP3 H1   HT     0.417000        1.0080           0
   41202 WT2  6200 TIP3 H2   HT     0.417000        1.0080           0
   41203 WT2  6201 TIP3 OH2  OT    -0.834000       15.9994           0
   41204 WT2  6201 TIP3 H1   HT     0.417000        1.0080           0
   41205 WT2  6201 TIP3 H2   HT     0.417000        1.0080           0
   41206 WT2  6202 TIP3 OH2  OT    -0.834000       15.9994           0
   41207 WT2  6202 TIP3 H1   HT     0.417000        1.0080           0
   41208 WT2  6202 TIP3 H2   HT     0.417000        1.0080           0
   41209 WT2  6203 TIP3 OH2  OT    -0.834000       15.9994           0
   41210 WT2  6203 TIP3 H1   HT     0.417000        1.0080           0
   41211 WT2  6203 TIP3 H2   HT     0.417000        1.0080           0
   41212 WT2  6204 TIP3 OH2  OT    -0.834000       15.9994           0
   41213 WT2  6204 TIP3 H1   HT     0.417000        1.0080           0
   41214 WT2  6204 TIP3 H2   HT     0.417000        1.0080           0
   41215 WT2  6205 TIP3 OH2  OT    -0.834000       15.9994           0
   41216 WT2  6205 TIP3 H1   HT     0.417000        1.0080           0
   41217 WT2  6205 TIP3 H2   HT     0.417000        1.0080           0
   41218 WT2  6206 TIP3 OH2  OT    -0.834000       15.9994           0
   41219 WT2  6206 TIP3 H1   HT     0.417000        1.0080           0
   41220 WT2  6206 TIP3 H2   HT     0.417000        1.0080           0
   41221 WT2  6207 TIP3 OH2  OT    -0.834000       15.9994           0
   41222 WT2  6207 TIP3 H1   HT     0.417000        1.0080           0
   41223 WT2  6207 TIP3 H2   HT     0.417000        1.0080           0
   41224 WT2  6208 TIP3 OH2  OT    -0.834000       15.9994           0
   41225 WT2  6208 TIP3 H1   HT     0.417000        1.0080           0
   41226 WT2  6208 TIP3 H2   HT     0.417000        1.0080           0
   41227 WT2  6209 TIP3 OH2  OT    -0.834000       15.9994           0
   41228 WT2  6209 TIP3 H1   HT     0.417000        1.0080           0
   41229 WT2  6209 TIP3 H2   HT     0.417000        1.0080           0
   41230 WT2  6212 TIP3 OH2  OT    -0.834000       15.9994           0
   41231 WT2  6212 TIP3 H1   HT     0.417000        1.0080           0
   41232 WT2  6212 TIP3 H2   HT     0.417000        1.0080           0
   41233 WT2  6215 TIP3 OH2  OT    -0.834000       15.9994           0
   41234 WT2  6215 TIP3 H1   HT     0.417000        1.0080           0
   41235 WT2  6215 TIP3 H2   HT     0.417000        1.0080           0
   41236 WT2  6216 TIP3 OH2  OT    -0.834000       15.9994           0
   41237 WT2  6216 TIP3 H1   HT     0.417000        1.0080           0
   41238 WT2  6216 TIP3 H2   HT     0.417000        1.0080           0
   41239 WT2  6218 TIP3 OH2  OT    -0.834000       15.9994           0
   41240 WT2  6218 TIP3 H1   HT     0.417000        1.0080           0
   41241 WT2  6218 TIP3 H2   HT     0.417000        1.0080           0
   41242 WT2  6219 TIP3 OH2  OT    -0.834000       15.9994           0
   41243 WT2  6219 TIP3 H1   HT     0.417000        1.0080           0
   41244 WT2  6219 TIP3 H2   HT     0.417000        1.0080           0
   41245 WT2  6220 TIP3 OH2  OT    -0.834000       15.9994           0
   41246 WT2  6220 TIP3 H1   HT     0.417000        1.0080           0
   41247 WT2  6220 TIP3 H2   HT     0.417000        1.0080           0
   41248 WT2  6221 TIP3 OH2  OT    -0.834000       15.9994           0
   41249 WT2  6221 TIP3 H1   HT     0.417000        1.0080           0
   41250 WT2  6221 TIP3 H2   HT     0.417000        1.0080           0
   41251 WT2  6222 TIP3 OH2  OT    -0.834000       15.9994           0
   41252 WT2  6222 TIP3 H1   HT     0.417000        1.0080           0
   41253 WT2  6222 TIP3 H2   HT     0.417000        1.0080           0
   41254 WT2  6224 TIP3 OH2  OT    -0.834000       15.9994           0
   41255 WT2  6224 TIP3 H1   HT     0.417000        1.0080           0
   41256 WT2  6224 TIP3 H2   HT     0.417000        1.0080           0
   41257 WT2  6225 TIP3 OH2  OT    -0.834000       15.9994           0
   41258 WT2  6225 TIP3 H1   HT     0.417000        1.0080           0
   41259 WT2  6225 TIP3 H2   HT     0.417000        1.0080           0
   41260 WT2  6226 TIP3 OH2  OT    -0.834000       15.9994           0
   41261 WT2  6226 TIP3 H1   HT     0.417000        1.0080           0
   41262 WT2  6226 TIP3 H2   HT     0.417000        1.0080           0
   41263 WT2  6227 TIP3 OH2  OT    -0.834000       15.9994           0
   41264 WT2  6227 TIP3 H1   HT     0.417000        1.0080           0
   41265 WT2  6227 TIP3 H2   HT     0.417000        1.0080           0
   41266 WT2  6228 TIP3 OH2  OT    -0.834000       15.9994           0
   41267 WT2  6228 TIP3 H1   HT     0.417000        1.0080           0
   41268 WT2  6228 TIP3 H2   HT     0.417000        1.0080           0
   41269 WT2  6229 TIP3 OH2  OT    -0.834000       15.9994           0
   41270 WT2  6229 TIP3 H1   HT     0.417000        1.0080           0
   41271 WT2  6229 TIP3 H2   HT     0.417000        1.0080           0
   41272 WT2  6230 TIP3 OH2  OT    -0.834000       15.9994           0
   41273 WT2  6230 TIP3 H1   HT     0.417000        1.0080           0
   41274 WT2  6230 TIP3 H2   HT     0.417000        1.0080           0
   41275 WT2  6231 TIP3 OH2  OT    -0.834000       15.9994           0
   41276 WT2  6231 TIP3 H1   HT     0.417000        1.0080           0
   41277 WT2  6231 TIP3 H2   HT     0.417000        1.0080           0
   41278 WT2  6233 TIP3 OH2  OT    -0.834000       15.9994           0
   41279 WT2  6233 TIP3 H1   HT     0.417000        1.0080           0
   41280 WT2  6233 TIP3 H2   HT     0.417000        1.0080           0
   41281 WT2  6238 TIP3 OH2  OT    -0.834000       15.9994           0
   41282 WT2  6238 TIP3 H1   HT     0.417000        1.0080           0
   41283 WT2  6238 TIP3 H2   HT     0.417000        1.0080           0
   41284 WT2  6239 TIP3 OH2  OT    -0.834000       15.9994           0
   41285 WT2  6239 TIP3 H1   HT     0.417000        1.0080           0
   41286 WT2  6239 TIP3 H2   HT     0.417000        1.0080           0
   41287 WT2  6240 TIP3 OH2  OT    -0.834000       15.9994           0
   41288 WT2  6240 TIP3 H1   HT     0.417000        1.0080           0
   41289 WT2  6240 TIP3 H2   HT     0.417000        1.0080           0
   41290 WT2  6241 TIP3 OH2  OT    -0.834000       15.9994           0
   41291 WT2  6241 TIP3 H1   HT     0.417000        1.0080           0
   41292 WT2  6241 TIP3 H2   HT     0.417000        1.0080           0
   41293 WT2  6242 TIP3 OH2  OT    -0.834000       15.9994           0
   41294 WT2  6242 TIP3 H1   HT     0.417000        1.0080           0
   41295 WT2  6242 TIP3 H2   HT     0.417000        1.0080           0
   41296 WT2  6243 TIP3 OH2  OT    -0.834000       15.9994           0
   41297 WT2  6243 TIP3 H1   HT     0.417000        1.0080           0
   41298 WT2  6243 TIP3 H2   HT     0.417000        1.0080           0
   41299 WT2  6244 TIP3 OH2  OT    -0.834000       15.9994           0
   41300 WT2  6244 TIP3 H1   HT     0.417000        1.0080           0
   41301 WT2  6244 TIP3 H2   HT     0.417000        1.0080           0
   41302 WT2  6245 TIP3 OH2  OT    -0.834000       15.9994           0
   41303 WT2  6245 TIP3 H1   HT     0.417000        1.0080           0
   41304 WT2  6245 TIP3 H2   HT     0.417000        1.0080           0
   41305 WT2  6246 TIP3 OH2  OT    -0.834000       15.9994           0
   41306 WT2  6246 TIP3 H1   HT     0.417000        1.0080           0
   41307 WT2  6246 TIP3 H2   HT     0.417000        1.0080           0
   41308 WT2  6247 TIP3 OH2  OT    -0.834000       15.9994           0
   41309 WT2  6247 TIP3 H1   HT     0.417000        1.0080           0
   41310 WT2  6247 TIP3 H2   HT     0.417000        1.0080           0
   41311 WT2  6248 TIP3 OH2  OT    -0.834000       15.9994           0
   41312 WT2  6248 TIP3 H1   HT     0.417000        1.0080           0
   41313 WT2  6248 TIP3 H2   HT     0.417000        1.0080           0
   41314 WT2  6249 TIP3 OH2  OT    -0.834000       15.9994           0
   41315 WT2  6249 TIP3 H1   HT     0.417000        1.0080           0
   41316 WT2  6249 TIP3 H2   HT     0.417000        1.0080           0
   41317 WT2  6250 TIP3 OH2  OT    -0.834000       15.9994           0
   41318 WT2  6250 TIP3 H1   HT     0.417000        1.0080           0
   41319 WT2  6250 TIP3 H2   HT     0.417000        1.0080           0
   41320 WT2  6252 TIP3 OH2  OT    -0.834000       15.9994           0
   41321 WT2  6252 TIP3 H1   HT     0.417000        1.0080           0
   41322 WT2  6252 TIP3 H2   HT     0.417000        1.0080           0
   41323 WT2  6256 TIP3 OH2  OT    -0.834000       15.9994           0
   41324 WT2  6256 TIP3 H1   HT     0.417000        1.0080           0
   41325 WT2  6256 TIP3 H2   HT     0.417000        1.0080           0
   41326 WT2  6258 TIP3 OH2  OT    -0.834000       15.9994           0
   41327 WT2  6258 TIP3 H1   HT     0.417000        1.0080           0
   41328 WT2  6258 TIP3 H2   HT     0.417000        1.0080           0
   41329 WT2  6259 TIP3 OH2  OT    -0.834000       15.9994           0
   41330 WT2  6259 TIP3 H1   HT     0.417000        1.0080           0
   41331 WT2  6259 TIP3 H2   HT     0.417000        1.0080           0
   41332 WT2  6261 TIP3 OH2  OT    -0.834000       15.9994           0
   41333 WT2  6261 TIP3 H1   HT     0.417000        1.0080           0
   41334 WT2  6261 TIP3 H2   HT     0.417000        1.0080           0
   41335 WT2  6262 TIP3 OH2  OT    -0.834000       15.9994           0
   41336 WT2  6262 TIP3 H1   HT     0.417000        1.0080           0
   41337 WT2  6262 TIP3 H2   HT     0.417000        1.0080           0
   41338 WT2  6263 TIP3 OH2  OT    -0.834000       15.9994           0
   41339 WT2  6263 TIP3 H1   HT     0.417000        1.0080           0
   41340 WT2  6263 TIP3 H2   HT     0.417000        1.0080           0
   41341 WT2  6264 TIP3 OH2  OT    -0.834000       15.9994           0
   41342 WT2  6264 TIP3 H1   HT     0.417000        1.0080           0
   41343 WT2  6264 TIP3 H2   HT     0.417000        1.0080           0
   41344 WT2  6265 TIP3 OH2  OT    -0.834000       15.9994           0
   41345 WT2  6265 TIP3 H1   HT     0.417000        1.0080           0
   41346 WT2  6265 TIP3 H2   HT     0.417000        1.0080           0
   41347 WT2  6266 TIP3 OH2  OT    -0.834000       15.9994           0
   41348 WT2  6266 TIP3 H1   HT     0.417000        1.0080           0
   41349 WT2  6266 TIP3 H2   HT     0.417000        1.0080           0
   41350 WT2  6267 TIP3 OH2  OT    -0.834000       15.9994           0
   41351 WT2  6267 TIP3 H1   HT     0.417000        1.0080           0
   41352 WT2  6267 TIP3 H2   HT     0.417000        1.0080           0
   41353 WT2  6268 TIP3 OH2  OT    -0.834000       15.9994           0
   41354 WT2  6268 TIP3 H1   HT     0.417000        1.0080           0
   41355 WT2  6268 TIP3 H2   HT     0.417000        1.0080           0
   41356 WT2  6269 TIP3 OH2  OT    -0.834000       15.9994           0
   41357 WT2  6269 TIP3 H1   HT     0.417000        1.0080           0
   41358 WT2  6269 TIP3 H2   HT     0.417000        1.0080           0
   41359 WT2  6270 TIP3 OH2  OT    -0.834000       15.9994           0
   41360 WT2  6270 TIP3 H1   HT     0.417000        1.0080           0
   41361 WT2  6270 TIP3 H2   HT     0.417000        1.0080           0
   41362 WT2  6271 TIP3 OH2  OT    -0.834000       15.9994           0
   41363 WT2  6271 TIP3 H1   HT     0.417000        1.0080           0
   41364 WT2  6271 TIP3 H2   HT     0.417000        1.0080           0
   41365 WT2  6273 TIP3 OH2  OT    -0.834000       15.9994           0
   41366 WT2  6273 TIP3 H1   HT     0.417000        1.0080           0
   41367 WT2  6273 TIP3 H2   HT     0.417000        1.0080           0
   41368 WT2  6274 TIP3 OH2  OT    -0.834000       15.9994           0
   41369 WT2  6274 TIP3 H1   HT     0.417000        1.0080           0
   41370 WT2  6274 TIP3 H2   HT     0.417000        1.0080           0
   41371 WT2  6281 TIP3 OH2  OT    -0.834000       15.9994           0
   41372 WT2  6281 TIP3 H1   HT     0.417000        1.0080           0
   41373 WT2  6281 TIP3 H2   HT     0.417000        1.0080           0
   41374 WT2  6283 TIP3 OH2  OT    -0.834000       15.9994           0
   41375 WT2  6283 TIP3 H1   HT     0.417000        1.0080           0
   41376 WT2  6283 TIP3 H2   HT     0.417000        1.0080           0
   41377 WT2  6284 TIP3 OH2  OT    -0.834000       15.9994           0
   41378 WT2  6284 TIP3 H1   HT     0.417000        1.0080           0
   41379 WT2  6284 TIP3 H2   HT     0.417000        1.0080           0
   41380 WT2  6285 TIP3 OH2  OT    -0.834000       15.9994           0
   41381 WT2  6285 TIP3 H1   HT     0.417000        1.0080           0
   41382 WT2  6285 TIP3 H2   HT     0.417000        1.0080           0
   41383 WT2  6286 TIP3 OH2  OT    -0.834000       15.9994           0
   41384 WT2  6286 TIP3 H1   HT     0.417000        1.0080           0
   41385 WT2  6286 TIP3 H2   HT     0.417000        1.0080           0
   41386 WT2  6287 TIP3 OH2  OT    -0.834000       15.9994           0
   41387 WT2  6287 TIP3 H1   HT     0.417000        1.0080           0
   41388 WT2  6287 TIP3 H2   HT     0.417000        1.0080           0
   41389 WT2  6288 TIP3 OH2  OT    -0.834000       15.9994           0
   41390 WT2  6288 TIP3 H1   HT     0.417000        1.0080           0
   41391 WT2  6288 TIP3 H2   HT     0.417000        1.0080           0
   41392 WT2  6289 TIP3 OH2  OT    -0.834000       15.9994           0
   41393 WT2  6289 TIP3 H1   HT     0.417000        1.0080           0
   41394 WT2  6289 TIP3 H2   HT     0.417000        1.0080           0
   41395 WT2  6290 TIP3 OH2  OT    -0.834000       15.9994           0
   41396 WT2  6290 TIP3 H1   HT     0.417000        1.0080           0
   41397 WT2  6290 TIP3 H2   HT     0.417000        1.0080           0
   41398 WT2  6291 TIP3 OH2  OT    -0.834000       15.9994           0
   41399 WT2  6291 TIP3 H1   HT     0.417000        1.0080           0
   41400 WT2  6291 TIP3 H2   HT     0.417000        1.0080           0
   41401 WT2  6293 TIP3 OH2  OT    -0.834000       15.9994           0
   41402 WT2  6293 TIP3 H1   HT     0.417000        1.0080           0
   41403 WT2  6293 TIP3 H2   HT     0.417000        1.0080           0
   41404 WT2  6297 TIP3 OH2  OT    -0.834000       15.9994           0
   41405 WT2  6297 TIP3 H1   HT     0.417000        1.0080           0
   41406 WT2  6297 TIP3 H2   HT     0.417000        1.0080           0
   41407 WT2  6300 TIP3 OH2  OT    -0.834000       15.9994           0
   41408 WT2  6300 TIP3 H1   HT     0.417000        1.0080           0
   41409 WT2  6300 TIP3 H2   HT     0.417000        1.0080           0
   41410 WT2  6302 TIP3 OH2  OT    -0.834000       15.9994           0
   41411 WT2  6302 TIP3 H1   HT     0.417000        1.0080           0
   41412 WT2  6302 TIP3 H2   HT     0.417000        1.0080           0
   41413 WT2  6303 TIP3 OH2  OT    -0.834000       15.9994           0
   41414 WT2  6303 TIP3 H1   HT     0.417000        1.0080           0
   41415 WT2  6303 TIP3 H2   HT     0.417000        1.0080           0
   41416 WT2  6304 TIP3 OH2  OT    -0.834000       15.9994           0
   41417 WT2  6304 TIP3 H1   HT     0.417000        1.0080           0
   41418 WT2  6304 TIP3 H2   HT     0.417000        1.0080           0
   41419 WT2  6305 TIP3 OH2  OT    -0.834000       15.9994           0
   41420 WT2  6305 TIP3 H1   HT     0.417000        1.0080           0
   41421 WT2  6305 TIP3 H2   HT     0.417000        1.0080           0
   41422 WT2  6306 TIP3 OH2  OT    -0.834000       15.9994           0
   41423 WT2  6306 TIP3 H1   HT     0.417000        1.0080           0
   41424 WT2  6306 TIP3 H2   HT     0.417000        1.0080           0
   41425 WT2  6307 TIP3 OH2  OT    -0.834000       15.9994           0
   41426 WT2  6307 TIP3 H1   HT     0.417000        1.0080           0
   41427 WT2  6307 TIP3 H2   HT     0.417000        1.0080           0
   41428 WT2  6308 TIP3 OH2  OT    -0.834000       15.9994           0
   41429 WT2  6308 TIP3 H1   HT     0.417000        1.0080           0
   41430 WT2  6308 TIP3 H2   HT     0.417000        1.0080           0
   41431 WT2  6310 TIP3 OH2  OT    -0.834000       15.9994           0
   41432 WT2  6310 TIP3 H1   HT     0.417000        1.0080           0
   41433 WT2  6310 TIP3 H2   HT     0.417000        1.0080           0
   41434 WT2  6311 TIP3 OH2  OT    -0.834000       15.9994           0
   41435 WT2  6311 TIP3 H1   HT     0.417000        1.0080           0
   41436 WT2  6311 TIP3 H2   HT     0.417000        1.0080           0
   41437 WT2  6313 TIP3 OH2  OT    -0.834000       15.9994           0
   41438 WT2  6313 TIP3 H1   HT     0.417000        1.0080           0
   41439 WT2  6313 TIP3 H2   HT     0.417000        1.0080           0
   41440 WT2  6314 TIP3 OH2  OT    -0.834000       15.9994           0
   41441 WT2  6314 TIP3 H1   HT     0.417000        1.0080           0
   41442 WT2  6314 TIP3 H2   HT     0.417000        1.0080           0
   41443 WT2  6315 TIP3 OH2  OT    -0.834000       15.9994           0
   41444 WT2  6315 TIP3 H1   HT     0.417000        1.0080           0
   41445 WT2  6315 TIP3 H2   HT     0.417000        1.0080           0
   41446 WT2  6319 TIP3 OH2  OT    -0.834000       15.9994           0
   41447 WT2  6319 TIP3 H1   HT     0.417000        1.0080           0
   41448 WT2  6319 TIP3 H2   HT     0.417000        1.0080           0
   41449 WT2  6321 TIP3 OH2  OT    -0.834000       15.9994           0
   41450 WT2  6321 TIP3 H1   HT     0.417000        1.0080           0
   41451 WT2  6321 TIP3 H2   HT     0.417000        1.0080           0
   41452 WT2  6322 TIP3 OH2  OT    -0.834000       15.9994           0
   41453 WT2  6322 TIP3 H1   HT     0.417000        1.0080           0
   41454 WT2  6322 TIP3 H2   HT     0.417000        1.0080           0
   41455 WT2  6323 TIP3 OH2  OT    -0.834000       15.9994           0
   41456 WT2  6323 TIP3 H1   HT     0.417000        1.0080           0
   41457 WT2  6323 TIP3 H2   HT     0.417000        1.0080           0
   41458 WT2  6324 TIP3 OH2  OT    -0.834000       15.9994           0
   41459 WT2  6324 TIP3 H1   HT     0.417000        1.0080           0
   41460 WT2  6324 TIP3 H2   HT     0.417000        1.0080           0
   41461 WT2  6325 TIP3 OH2  OT    -0.834000       15.9994           0
   41462 WT2  6325 TIP3 H1   HT     0.417000        1.0080           0
   41463 WT2  6325 TIP3 H2   HT     0.417000        1.0080           0
   41464 WT2  6326 TIP3 OH2  OT    -0.834000       15.9994           0
   41465 WT2  6326 TIP3 H1   HT     0.417000        1.0080           0
   41466 WT2  6326 TIP3 H2   HT     0.417000        1.0080           0
   41467 WT2  6327 TIP3 OH2  OT    -0.834000       15.9994           0
   41468 WT2  6327 TIP3 H1   HT     0.417000        1.0080           0
   41469 WT2  6327 TIP3 H2   HT     0.417000        1.0080           0
   41470 WT2  6328 TIP3 OH2  OT    -0.834000       15.9994           0
   41471 WT2  6328 TIP3 H1   HT     0.417000        1.0080           0
   41472 WT2  6328 TIP3 H2   HT     0.417000        1.0080           0
   41473 WT2  6329 TIP3 OH2  OT    -0.834000       15.9994           0
   41474 WT2  6329 TIP3 H1   HT     0.417000        1.0080           0
   41475 WT2  6329 TIP3 H2   HT     0.417000        1.0080           0
   41476 WT2  6330 TIP3 OH2  OT    -0.834000       15.9994           0
   41477 WT2  6330 TIP3 H1   HT     0.417000        1.0080           0
   41478 WT2  6330 TIP3 H2   HT     0.417000        1.0080           0
   41479 WT2  6331 TIP3 OH2  OT    -0.834000       15.9994           0
   41480 WT2  6331 TIP3 H1   HT     0.417000        1.0080           0
   41481 WT2  6331 TIP3 H2   HT     0.417000        1.0080           0
   41482 WT2  6332 TIP3 OH2  OT    -0.834000       15.9994           0
   41483 WT2  6332 TIP3 H1   HT     0.417000        1.0080           0
   41484 WT2  6332 TIP3 H2   HT     0.417000        1.0080           0
   41485 WT2  6333 TIP3 OH2  OT    -0.834000       15.9994           0
   41486 WT2  6333 TIP3 H1   HT     0.417000        1.0080           0
   41487 WT2  6333 TIP3 H2   HT     0.417000        1.0080           0
   41488 WT2  6334 TIP3 OH2  OT    -0.834000       15.9994           0
   41489 WT2  6334 TIP3 H1   HT     0.417000        1.0080           0
   41490 WT2  6334 TIP3 H2   HT     0.417000        1.0080           0
   41491 WT2  6339 TIP3 OH2  OT    -0.834000       15.9994           0
   41492 WT2  6339 TIP3 H1   HT     0.417000        1.0080           0
   41493 WT2  6339 TIP3 H2   HT     0.417000        1.0080           0
   41494 WT2  6341 TIP3 OH2  OT    -0.834000       15.9994           0
   41495 WT2  6341 TIP3 H1   HT     0.417000        1.0080           0
   41496 WT2  6341 TIP3 H2   HT     0.417000        1.0080           0
   41497 WT2  6345 TIP3 OH2  OT    -0.834000       15.9994           0
   41498 WT2  6345 TIP3 H1   HT     0.417000        1.0080           0
   41499 WT2  6345 TIP3 H2   HT     0.417000        1.0080           0
   41500 WT2  6347 TIP3 OH2  OT    -0.834000       15.9994           0
   41501 WT2  6347 TIP3 H1   HT     0.417000        1.0080           0
   41502 WT2  6347 TIP3 H2   HT     0.417000        1.0080           0
   41503 WT2  6348 TIP3 OH2  OT    -0.834000       15.9994           0
   41504 WT2  6348 TIP3 H1   HT     0.417000        1.0080           0
   41505 WT2  6348 TIP3 H2   HT     0.417000        1.0080           0
   41506 WT2  6349 TIP3 OH2  OT    -0.834000       15.9994           0
   41507 WT2  6349 TIP3 H1   HT     0.417000        1.0080           0
   41508 WT2  6349 TIP3 H2   HT     0.417000        1.0080           0
   41509 WT2  6351 TIP3 OH2  OT    -0.834000       15.9994           0
   41510 WT2  6351 TIP3 H1   HT     0.417000        1.0080           0
   41511 WT2  6351 TIP3 H2   HT     0.417000        1.0080           0
   41512 WT2  6352 TIP3 OH2  OT    -0.834000       15.9994           0
   41513 WT2  6352 TIP3 H1   HT     0.417000        1.0080           0
   41514 WT2  6352 TIP3 H2   HT     0.417000        1.0080           0
   41515 WT2  6353 TIP3 OH2  OT    -0.834000       15.9994           0
   41516 WT2  6353 TIP3 H1   HT     0.417000        1.0080           0
   41517 WT2  6353 TIP3 H2   HT     0.417000        1.0080           0
   41518 WT2  6354 TIP3 OH2  OT    -0.834000       15.9994           0
   41519 WT2  6354 TIP3 H1   HT     0.417000        1.0080           0
   41520 WT2  6354 TIP3 H2   HT     0.417000        1.0080           0
   41521 WT2  6356 TIP3 OH2  OT    -0.834000       15.9994           0
   41522 WT2  6356 TIP3 H1   HT     0.417000        1.0080           0
   41523 WT2  6356 TIP3 H2   HT     0.417000        1.0080           0
   41524 WT2  6357 TIP3 OH2  OT    -0.834000       15.9994           0
   41525 WT2  6357 TIP3 H1   HT     0.417000        1.0080           0
   41526 WT2  6357 TIP3 H2   HT     0.417000        1.0080           0
   41527 WT2  6359 TIP3 OH2  OT    -0.834000       15.9994           0
   41528 WT2  6359 TIP3 H1   HT     0.417000        1.0080           0
   41529 WT2  6359 TIP3 H2   HT     0.417000        1.0080           0
   41530 WT2  6364 TIP3 OH2  OT    -0.834000       15.9994           0
   41531 WT2  6364 TIP3 H1   HT     0.417000        1.0080           0
   41532 WT2  6364 TIP3 H2   HT     0.417000        1.0080           0
   41533 WT2  6366 TIP3 OH2  OT    -0.834000       15.9994           0
   41534 WT2  6366 TIP3 H1   HT     0.417000        1.0080           0
   41535 WT2  6366 TIP3 H2   HT     0.417000        1.0080           0
   41536 WT2  6367 TIP3 OH2  OT    -0.834000       15.9994           0
   41537 WT2  6367 TIP3 H1   HT     0.417000        1.0080           0
   41538 WT2  6367 TIP3 H2   HT     0.417000        1.0080           0
   41539 WT2  6368 TIP3 OH2  OT    -0.834000       15.9994           0
   41540 WT2  6368 TIP3 H1   HT     0.417000        1.0080           0
   41541 WT2  6368 TIP3 H2   HT     0.417000        1.0080           0
   41542 WT2  6369 TIP3 OH2  OT    -0.834000       15.9994           0
   41543 WT2  6369 TIP3 H1   HT     0.417000        1.0080           0
   41544 WT2  6369 TIP3 H2   HT     0.417000        1.0080           0
   41545 WT2  6370 TIP3 OH2  OT    -0.834000       15.9994           0
   41546 WT2  6370 TIP3 H1   HT     0.417000        1.0080           0
   41547 WT2  6370 TIP3 H2   HT     0.417000        1.0080           0
   41548 WT2  6371 TIP3 OH2  OT    -0.834000       15.9994           0
   41549 WT2  6371 TIP3 H1   HT     0.417000        1.0080           0
   41550 WT2  6371 TIP3 H2   HT     0.417000        1.0080           0
   41551 WT2  6372 TIP3 OH2  OT    -0.834000       15.9994           0
   41552 WT2  6372 TIP3 H1   HT     0.417000        1.0080           0
   41553 WT2  6372 TIP3 H2   HT     0.417000        1.0080           0
   41554 WT2  6373 TIP3 OH2  OT    -0.834000       15.9994           0
   41555 WT2  6373 TIP3 H1   HT     0.417000        1.0080           0
   41556 WT2  6373 TIP3 H2   HT     0.417000        1.0080           0
   41557 WT2  6374 TIP3 OH2  OT    -0.834000       15.9994           0
   41558 WT2  6374 TIP3 H1   HT     0.417000        1.0080           0
   41559 WT2  6374 TIP3 H2   HT     0.417000        1.0080           0
   41560 WT2  6375 TIP3 OH2  OT    -0.834000       15.9994           0
   41561 WT2  6375 TIP3 H1   HT     0.417000        1.0080           0
   41562 WT2  6375 TIP3 H2   HT     0.417000        1.0080           0
   41563 WT2  6381 TIP3 OH2  OT    -0.834000       15.9994           0
   41564 WT2  6381 TIP3 H1   HT     0.417000        1.0080           0
   41565 WT2  6381 TIP3 H2   HT     0.417000        1.0080           0
   41566 WT2  6385 TIP3 OH2  OT    -0.834000       15.9994           0
   41567 WT2  6385 TIP3 H1   HT     0.417000        1.0080           0
   41568 WT2  6385 TIP3 H2   HT     0.417000        1.0080           0
   41569 WT2  6388 TIP3 OH2  OT    -0.834000       15.9994           0
   41570 WT2  6388 TIP3 H1   HT     0.417000        1.0080           0
   41571 WT2  6388 TIP3 H2   HT     0.417000        1.0080           0
   41572 WT2  6389 TIP3 OH2  OT    -0.834000       15.9994           0
   41573 WT2  6389 TIP3 H1   HT     0.417000        1.0080           0
   41574 WT2  6389 TIP3 H2   HT     0.417000        1.0080           0
   41575 WT2  6390 TIP3 OH2  OT    -0.834000       15.9994           0
   41576 WT2  6390 TIP3 H1   HT     0.417000        1.0080           0
   41577 WT2  6390 TIP3 H2   HT     0.417000        1.0080           0
   41578 WT2  6391 TIP3 OH2  OT    -0.834000       15.9994           0
   41579 WT2  6391 TIP3 H1   HT     0.417000        1.0080           0
   41580 WT2  6391 TIP3 H2   HT     0.417000        1.0080           0
   41581 WT2  6392 TIP3 OH2  OT    -0.834000       15.9994           0
   41582 WT2  6392 TIP3 H1   HT     0.417000        1.0080           0
   41583 WT2  6392 TIP3 H2   HT     0.417000        1.0080           0
   41584 WT2  6393 TIP3 OH2  OT    -0.834000       15.9994           0
   41585 WT2  6393 TIP3 H1   HT     0.417000        1.0080           0
   41586 WT2  6393 TIP3 H2   HT     0.417000        1.0080           0
   41587 WT2  6394 TIP3 OH2  OT    -0.834000       15.9994           0
   41588 WT2  6394 TIP3 H1   HT     0.417000        1.0080           0
   41589 WT2  6394 TIP3 H2   HT     0.417000        1.0080           0
   41590 WT2  6395 TIP3 OH2  OT    -0.834000       15.9994           0
   41591 WT2  6395 TIP3 H1   HT     0.417000        1.0080           0
   41592 WT2  6395 TIP3 H2   HT     0.417000        1.0080           0
   41593 WT2  6396 TIP3 OH2  OT    -0.834000       15.9994           0
   41594 WT2  6396 TIP3 H1   HT     0.417000        1.0080           0
   41595 WT2  6396 TIP3 H2   HT     0.417000        1.0080           0
   41596 WT2  6397 TIP3 OH2  OT    -0.834000       15.9994           0
   41597 WT2  6397 TIP3 H1   HT     0.417000        1.0080           0
   41598 WT2  6397 TIP3 H2   HT     0.417000        1.0080           0
   41599 WT2  6398 TIP3 OH2  OT    -0.834000       15.9994           0
   41600 WT2  6398 TIP3 H1   HT     0.417000        1.0080           0
   41601 WT2  6398 TIP3 H2   HT     0.417000        1.0080           0
   41602 WT2  6399 TIP3 OH2  OT    -0.834000       15.9994           0
   41603 WT2  6399 TIP3 H1   HT     0.417000        1.0080           0
   41604 WT2  6399 TIP3 H2   HT     0.417000        1.0080           0
   41605 WT2  6402 TIP3 OH2  OT    -0.834000       15.9994           0
   41606 WT2  6402 TIP3 H1   HT     0.417000        1.0080           0
   41607 WT2  6402 TIP3 H2   HT     0.417000        1.0080           0
   41608 WT2  6403 TIP3 OH2  OT    -0.834000       15.9994           0
   41609 WT2  6403 TIP3 H1   HT     0.417000        1.0080           0
   41610 WT2  6403 TIP3 H2   HT     0.417000        1.0080           0
   41611 WT2  6404 TIP3 OH2  OT    -0.834000       15.9994           0
   41612 WT2  6404 TIP3 H1   HT     0.417000        1.0080           0
   41613 WT2  6404 TIP3 H2   HT     0.417000        1.0080           0
   41614 WT2  6407 TIP3 OH2  OT    -0.834000       15.9994           0
   41615 WT2  6407 TIP3 H1   HT     0.417000        1.0080           0
   41616 WT2  6407 TIP3 H2   HT     0.417000        1.0080           0
   41617 WT2  6408 TIP3 OH2  OT    -0.834000       15.9994           0
   41618 WT2  6408 TIP3 H1   HT     0.417000        1.0080           0
   41619 WT2  6408 TIP3 H2   HT     0.417000        1.0080           0
   41620 WT2  6409 TIP3 OH2  OT    -0.834000       15.9994           0
   41621 WT2  6409 TIP3 H1   HT     0.417000        1.0080           0
   41622 WT2  6409 TIP3 H2   HT     0.417000        1.0080           0
   41623 WT2  6410 TIP3 OH2  OT    -0.834000       15.9994           0
   41624 WT2  6410 TIP3 H1   HT     0.417000        1.0080           0
   41625 WT2  6410 TIP3 H2   HT     0.417000        1.0080           0
   41626 WT2  6411 TIP3 OH2  OT    -0.834000       15.9994           0
   41627 WT2  6411 TIP3 H1   HT     0.417000        1.0080           0
   41628 WT2  6411 TIP3 H2   HT     0.417000        1.0080           0
   41629 WT2  6412 TIP3 OH2  OT    -0.834000       15.9994           0
   41630 WT2  6412 TIP3 H1   HT     0.417000        1.0080           0
   41631 WT2  6412 TIP3 H2   HT     0.417000        1.0080           0
   41632 WT2  6413 TIP3 OH2  OT    -0.834000       15.9994           0
   41633 WT2  6413 TIP3 H1   HT     0.417000        1.0080           0
   41634 WT2  6413 TIP3 H2   HT     0.417000        1.0080           0
   41635 WT2  6414 TIP3 OH2  OT    -0.834000       15.9994           0
   41636 WT2  6414 TIP3 H1   HT     0.417000        1.0080           0
   41637 WT2  6414 TIP3 H2   HT     0.417000        1.0080           0
   41638 WT2  6415 TIP3 OH2  OT    -0.834000       15.9994           0
   41639 WT2  6415 TIP3 H1   HT     0.417000        1.0080           0
   41640 WT2  6415 TIP3 H2   HT     0.417000        1.0080           0
   41641 WT2  6416 TIP3 OH2  OT    -0.834000       15.9994           0
   41642 WT2  6416 TIP3 H1   HT     0.417000        1.0080           0
   41643 WT2  6416 TIP3 H2   HT     0.417000        1.0080           0
   41644 WT2  6417 TIP3 OH2  OT    -0.834000       15.9994           0
   41645 WT2  6417 TIP3 H1   HT     0.417000        1.0080           0
   41646 WT2  6417 TIP3 H2   HT     0.417000        1.0080           0
   41647 WT2  6419 TIP3 OH2  OT    -0.834000       15.9994           0
   41648 WT2  6419 TIP3 H1   HT     0.417000        1.0080           0
   41649 WT2  6419 TIP3 H2   HT     0.417000        1.0080           0
   41650 WT2  6425 TIP3 OH2  OT    -0.834000       15.9994           0
   41651 WT2  6425 TIP3 H1   HT     0.417000        1.0080           0
   41652 WT2  6425 TIP3 H2   HT     0.417000        1.0080           0
   41653 WT2  6428 TIP3 OH2  OT    -0.834000       15.9994           0
   41654 WT2  6428 TIP3 H1   HT     0.417000        1.0080           0
   41655 WT2  6428 TIP3 H2   HT     0.417000        1.0080           0
   41656 WT2  6429 TIP3 OH2  OT    -0.834000       15.9994           0
   41657 WT2  6429 TIP3 H1   HT     0.417000        1.0080           0
   41658 WT2  6429 TIP3 H2   HT     0.417000        1.0080           0
   41659 WT2  6430 TIP3 OH2  OT    -0.834000       15.9994           0
   41660 WT2  6430 TIP3 H1   HT     0.417000        1.0080           0
   41661 WT2  6430 TIP3 H2   HT     0.417000        1.0080           0
   41662 WT2  6431 TIP3 OH2  OT    -0.834000       15.9994           0
   41663 WT2  6431 TIP3 H1   HT     0.417000        1.0080           0
   41664 WT2  6431 TIP3 H2   HT     0.417000        1.0080           0
   41665 WT2  6432 TIP3 OH2  OT    -0.834000       15.9994           0
   41666 WT2  6432 TIP3 H1   HT     0.417000        1.0080           0
   41667 WT2  6432 TIP3 H2   HT     0.417000        1.0080           0
   41668 WT2  6433 TIP3 OH2  OT    -0.834000       15.9994           0
   41669 WT2  6433 TIP3 H1   HT     0.417000        1.0080           0
   41670 WT2  6433 TIP3 H2   HT     0.417000        1.0080           0
   41671 WT2  6434 TIP3 OH2  OT    -0.834000       15.9994           0
   41672 WT2  6434 TIP3 H1   HT     0.417000        1.0080           0
   41673 WT2  6434 TIP3 H2   HT     0.417000        1.0080           0
   41674 WT2  6435 TIP3 OH2  OT    -0.834000       15.9994           0
   41675 WT2  6435 TIP3 H1   HT     0.417000        1.0080           0
   41676 WT2  6435 TIP3 H2   HT     0.417000        1.0080           0
   41677 WT2  6436 TIP3 OH2  OT    -0.834000       15.9994           0
   41678 WT2  6436 TIP3 H1   HT     0.417000        1.0080           0
   41679 WT2  6436 TIP3 H2   HT     0.417000        1.0080           0
   41680 WT2  6437 TIP3 OH2  OT    -0.834000       15.9994           0
   41681 WT2  6437 TIP3 H1   HT     0.417000        1.0080           0
   41682 WT2  6437 TIP3 H2   HT     0.417000        1.0080           0
   41683 WT2  6438 TIP3 OH2  OT    -0.834000       15.9994           0
   41684 WT2  6438 TIP3 H1   HT     0.417000        1.0080           0
   41685 WT2  6438 TIP3 H2   HT     0.417000        1.0080           0
   41686 WT2  6439 TIP3 OH2  OT    -0.834000       15.9994           0
   41687 WT2  6439 TIP3 H1   HT     0.417000        1.0080           0
   41688 WT2  6439 TIP3 H2   HT     0.417000        1.0080           0
   41689 WT2  6440 TIP3 OH2  OT    -0.834000       15.9994           0
   41690 WT2  6440 TIP3 H1   HT     0.417000        1.0080           0
   41691 WT2  6440 TIP3 H2   HT     0.417000        1.0080           0
   41692 WT2  6444 TIP3 OH2  OT    -0.834000       15.9994           0
   41693 WT2  6444 TIP3 H1   HT     0.417000        1.0080           0
   41694 WT2  6444 TIP3 H2   HT     0.417000        1.0080           0
   41695 WT2  6445 TIP3 OH2  OT    -0.834000       15.9994           0
   41696 WT2  6445 TIP3 H1   HT     0.417000        1.0080           0
   41697 WT2  6445 TIP3 H2   HT     0.417000        1.0080           0
   41698 WT2  6446 TIP3 OH2  OT    -0.834000       15.9994           0
   41699 WT2  6446 TIP3 H1   HT     0.417000        1.0080           0
   41700 WT2  6446 TIP3 H2   HT     0.417000        1.0080           0
   41701 WT2  6448 TIP3 OH2  OT    -0.834000       15.9994           0
   41702 WT2  6448 TIP3 H1   HT     0.417000        1.0080           0
   41703 WT2  6448 TIP3 H2   HT     0.417000        1.0080           0
   41704 WT2  6449 TIP3 OH2  OT    -0.834000       15.9994           0
   41705 WT2  6449 TIP3 H1   HT     0.417000        1.0080           0
   41706 WT2  6449 TIP3 H2   HT     0.417000        1.0080           0
   41707 WT2  6450 TIP3 OH2  OT    -0.834000       15.9994           0
   41708 WT2  6450 TIP3 H1   HT     0.417000        1.0080           0
   41709 WT2  6450 TIP3 H2   HT     0.417000        1.0080           0
   41710 WT2  6451 TIP3 OH2  OT    -0.834000       15.9994           0
   41711 WT2  6451 TIP3 H1   HT     0.417000        1.0080           0
   41712 WT2  6451 TIP3 H2   HT     0.417000        1.0080           0
   41713 WT2  6452 TIP3 OH2  OT    -0.834000       15.9994           0
   41714 WT2  6452 TIP3 H1   HT     0.417000        1.0080           0
   41715 WT2  6452 TIP3 H2   HT     0.417000        1.0080           0
   41716 WT2  6453 TIP3 OH2  OT    -0.834000       15.9994           0
   41717 WT2  6453 TIP3 H1   HT     0.417000        1.0080           0
   41718 WT2  6453 TIP3 H2   HT     0.417000        1.0080           0
   41719 WT2  6454 TIP3 OH2  OT    -0.834000       15.9994           0
   41720 WT2  6454 TIP3 H1   HT     0.417000        1.0080           0
   41721 WT2  6454 TIP3 H2   HT     0.417000        1.0080           0
   41722 WT2  6455 TIP3 OH2  OT    -0.834000       15.9994           0
   41723 WT2  6455 TIP3 H1   HT     0.417000        1.0080           0
   41724 WT2  6455 TIP3 H2   HT     0.417000        1.0080           0
   41725 WT2  6456 TIP3 OH2  OT    -0.834000       15.9994           0
   41726 WT2  6456 TIP3 H1   HT     0.417000        1.0080           0
   41727 WT2  6456 TIP3 H2   HT     0.417000        1.0080           0
   41728 WT2  6457 TIP3 OH2  OT    -0.834000       15.9994           0
   41729 WT2  6457 TIP3 H1   HT     0.417000        1.0080           0
   41730 WT2  6457 TIP3 H2   HT     0.417000        1.0080           0
   41731 WT2  6458 TIP3 OH2  OT    -0.834000       15.9994           0
   41732 WT2  6458 TIP3 H1   HT     0.417000        1.0080           0
   41733 WT2  6458 TIP3 H2   HT     0.417000        1.0080           0
   41734 WT2  6459 TIP3 OH2  OT    -0.834000       15.9994           0
   41735 WT2  6459 TIP3 H1   HT     0.417000        1.0080           0
   41736 WT2  6459 TIP3 H2   HT     0.417000        1.0080           0
   41737 WT2  6460 TIP3 OH2  OT    -0.834000       15.9994           0
   41738 WT2  6460 TIP3 H1   HT     0.417000        1.0080           0
   41739 WT2  6460 TIP3 H2   HT     0.417000        1.0080           0
   41740 WT2  6461 TIP3 OH2  OT    -0.834000       15.9994           0
   41741 WT2  6461 TIP3 H1   HT     0.417000        1.0080           0
   41742 WT2  6461 TIP3 H2   HT     0.417000        1.0080           0
   41743 WT2  6462 TIP3 OH2  OT    -0.834000       15.9994           0
   41744 WT2  6462 TIP3 H1   HT     0.417000        1.0080           0
   41745 WT2  6462 TIP3 H2   HT     0.417000        1.0080           0
   41746 WT2  6464 TIP3 OH2  OT    -0.834000       15.9994           0
   41747 WT2  6464 TIP3 H1   HT     0.417000        1.0080           0
   41748 WT2  6464 TIP3 H2   HT     0.417000        1.0080           0
   41749 WT2  6469 TIP3 OH2  OT    -0.834000       15.9994           0
   41750 WT2  6469 TIP3 H1   HT     0.417000        1.0080           0
   41751 WT2  6469 TIP3 H2   HT     0.417000        1.0080           0
   41752 WT2  6470 TIP3 OH2  OT    -0.834000       15.9994           0
   41753 WT2  6470 TIP3 H1   HT     0.417000        1.0080           0
   41754 WT2  6470 TIP3 H2   HT     0.417000        1.0080           0
   41755 WT2  6471 TIP3 OH2  OT    -0.834000       15.9994           0
   41756 WT2  6471 TIP3 H1   HT     0.417000        1.0080           0
   41757 WT2  6471 TIP3 H2   HT     0.417000        1.0080           0
   41758 WT2  6472 TIP3 OH2  OT    -0.834000       15.9994           0
   41759 WT2  6472 TIP3 H1   HT     0.417000        1.0080           0
   41760 WT2  6472 TIP3 H2   HT     0.417000        1.0080           0
   41761 WT2  6473 TIP3 OH2  OT    -0.834000       15.9994           0
   41762 WT2  6473 TIP3 H1   HT     0.417000        1.0080           0
   41763 WT2  6473 TIP3 H2   HT     0.417000        1.0080           0
   41764 WT2  6474 TIP3 OH2  OT    -0.834000       15.9994           0
   41765 WT2  6474 TIP3 H1   HT     0.417000        1.0080           0
   41766 WT2  6474 TIP3 H2   HT     0.417000        1.0080           0
   41767 WT2  6475 TIP3 OH2  OT    -0.834000       15.9994           0
   41768 WT2  6475 TIP3 H1   HT     0.417000        1.0080           0
   41769 WT2  6475 TIP3 H2   HT     0.417000        1.0080           0
   41770 WT2  6476 TIP3 OH2  OT    -0.834000       15.9994           0
   41771 WT2  6476 TIP3 H1   HT     0.417000        1.0080           0
   41772 WT2  6476 TIP3 H2   HT     0.417000        1.0080           0
   41773 WT2  6477 TIP3 OH2  OT    -0.834000       15.9994           0
   41774 WT2  6477 TIP3 H1   HT     0.417000        1.0080           0
   41775 WT2  6477 TIP3 H2   HT     0.417000        1.0080           0
   41776 WT2  6478 TIP3 OH2  OT    -0.834000       15.9994           0
   41777 WT2  6478 TIP3 H1   HT     0.417000        1.0080           0
   41778 WT2  6478 TIP3 H2   HT     0.417000        1.0080           0
   41779 WT2  6479 TIP3 OH2  OT    -0.834000       15.9994           0
   41780 WT2  6479 TIP3 H1   HT     0.417000        1.0080           0
   41781 WT2  6479 TIP3 H2   HT     0.417000        1.0080           0
   41782 WT2  6480 TIP3 OH2  OT    -0.834000       15.9994           0
   41783 WT2  6480 TIP3 H1   HT     0.417000        1.0080           0
   41784 WT2  6480 TIP3 H2   HT     0.417000        1.0080           0
   41785 WT2  6481 TIP3 OH2  OT    -0.834000       15.9994           0
   41786 WT2  6481 TIP3 H1   HT     0.417000        1.0080           0
   41787 WT2  6481 TIP3 H2   HT     0.417000        1.0080           0
   41788 WT2  6483 TIP3 OH2  OT    -0.834000       15.9994           0
   41789 WT2  6483 TIP3 H1   HT     0.417000        1.0080           0
   41790 WT2  6483 TIP3 H2   HT     0.417000        1.0080           0
   41791 WT2  6490 TIP3 OH2  OT    -0.834000       15.9994           0
   41792 WT2  6490 TIP3 H1   HT     0.417000        1.0080           0
   41793 WT2  6490 TIP3 H2   HT     0.417000        1.0080           0
   41794 WT2  6491 TIP3 OH2  OT    -0.834000       15.9994           0
   41795 WT2  6491 TIP3 H1   HT     0.417000        1.0080           0
   41796 WT2  6491 TIP3 H2   HT     0.417000        1.0080           0
   41797 WT2  6492 TIP3 OH2  OT    -0.834000       15.9994           0
   41798 WT2  6492 TIP3 H1   HT     0.417000        1.0080           0
   41799 WT2  6492 TIP3 H2   HT     0.417000        1.0080           0
   41800 WT2  6493 TIP3 OH2  OT    -0.834000       15.9994           0
   41801 WT2  6493 TIP3 H1   HT     0.417000        1.0080           0
   41802 WT2  6493 TIP3 H2   HT     0.417000        1.0080           0
   41803 WT2  6495 TIP3 OH2  OT    -0.834000       15.9994           0
   41804 WT2  6495 TIP3 H1   HT     0.417000        1.0080           0
   41805 WT2  6495 TIP3 H2   HT     0.417000        1.0080           0
   41806 WT2  6496 TIP3 OH2  OT    -0.834000       15.9994           0
   41807 WT2  6496 TIP3 H1   HT     0.417000        1.0080           0
   41808 WT2  6496 TIP3 H2   HT     0.417000        1.0080           0
   41809 WT2  6497 TIP3 OH2  OT    -0.834000       15.9994           0
   41810 WT2  6497 TIP3 H1   HT     0.417000        1.0080           0
   41811 WT2  6497 TIP3 H2   HT     0.417000        1.0080           0
   41812 WT2  6499 TIP3 OH2  OT    -0.834000       15.9994           0
   41813 WT2  6499 TIP3 H1   HT     0.417000        1.0080           0
   41814 WT2  6499 TIP3 H2   HT     0.417000        1.0080           0
   41815 WT2  6500 TIP3 OH2  OT    -0.834000       15.9994           0
   41816 WT2  6500 TIP3 H1   HT     0.417000        1.0080           0
   41817 WT2  6500 TIP3 H2   HT     0.417000        1.0080           0
   41818 WT2  6501 TIP3 OH2  OT    -0.834000       15.9994           0
   41819 WT2  6501 TIP3 H1   HT     0.417000        1.0080           0
   41820 WT2  6501 TIP3 H2   HT     0.417000        1.0080           0
   41821 WT2  6502 TIP3 OH2  OT    -0.834000       15.9994           0
   41822 WT2  6502 TIP3 H1   HT     0.417000        1.0080           0
   41823 WT2  6502 TIP3 H2   HT     0.417000        1.0080           0
   41824 WT2  6503 TIP3 OH2  OT    -0.834000       15.9994           0
   41825 WT2  6503 TIP3 H1   HT     0.417000        1.0080           0
   41826 WT2  6503 TIP3 H2   HT     0.417000        1.0080           0
   41827 WT2  6504 TIP3 OH2  OT    -0.834000       15.9994           0
   41828 WT2  6504 TIP3 H1   HT     0.417000        1.0080           0
   41829 WT2  6504 TIP3 H2   HT     0.417000        1.0080           0
   41830 WT2  6505 TIP3 OH2  OT    -0.834000       15.9994           0
   41831 WT2  6505 TIP3 H1   HT     0.417000        1.0080           0
   41832 WT2  6505 TIP3 H2   HT     0.417000        1.0080           0
   41833 WT2  6509 TIP3 OH2  OT    -0.834000       15.9994           0
   41834 WT2  6509 TIP3 H1   HT     0.417000        1.0080           0
   41835 WT2  6509 TIP3 H2   HT     0.417000        1.0080           0
   41836 WT2  6511 TIP3 OH2  OT    -0.834000       15.9994           0
   41837 WT2  6511 TIP3 H1   HT     0.417000        1.0080           0
   41838 WT2  6511 TIP3 H2   HT     0.417000        1.0080           0
   41839 WT2  6512 TIP3 OH2  OT    -0.834000       15.9994           0
   41840 WT2  6512 TIP3 H1   HT     0.417000        1.0080           0
   41841 WT2  6512 TIP3 H2   HT     0.417000        1.0080           0
   41842 WT2  6513 TIP3 OH2  OT    -0.834000       15.9994           0
   41843 WT2  6513 TIP3 H1   HT     0.417000        1.0080           0
   41844 WT2  6513 TIP3 H2   HT     0.417000        1.0080           0
   41845 WT2  6514 TIP3 OH2  OT    -0.834000       15.9994           0
   41846 WT2  6514 TIP3 H1   HT     0.417000        1.0080           0
   41847 WT2  6514 TIP3 H2   HT     0.417000        1.0080           0
   41848 WT2  6515 TIP3 OH2  OT    -0.834000       15.9994           0
   41849 WT2  6515 TIP3 H1   HT     0.417000        1.0080           0
   41850 WT2  6515 TIP3 H2   HT     0.417000        1.0080           0
   41851 WT2  6516 TIP3 OH2  OT    -0.834000       15.9994           0
   41852 WT2  6516 TIP3 H1   HT     0.417000        1.0080           0
   41853 WT2  6516 TIP3 H2   HT     0.417000        1.0080           0
   41854 WT2  6517 TIP3 OH2  OT    -0.834000       15.9994           0
   41855 WT2  6517 TIP3 H1   HT     0.417000        1.0080           0
   41856 WT2  6517 TIP3 H2   HT     0.417000        1.0080           0
   41857 WT2  6518 TIP3 OH2  OT    -0.834000       15.9994           0
   41858 WT2  6518 TIP3 H1   HT     0.417000        1.0080           0
   41859 WT2  6518 TIP3 H2   HT     0.417000        1.0080           0
   41860 WT2  6519 TIP3 OH2  OT    -0.834000       15.9994           0
   41861 WT2  6519 TIP3 H1   HT     0.417000        1.0080           0
   41862 WT2  6519 TIP3 H2   HT     0.417000        1.0080           0
   41863 WT2  6520 TIP3 OH2  OT    -0.834000       15.9994           0
   41864 WT2  6520 TIP3 H1   HT     0.417000        1.0080           0
   41865 WT2  6520 TIP3 H2   HT     0.417000        1.0080           0
   41866 WT2  6521 TIP3 OH2  OT    -0.834000       15.9994           0
   41867 WT2  6521 TIP3 H1   HT     0.417000        1.0080           0
   41868 WT2  6521 TIP3 H2   HT     0.417000        1.0080           0
   41869 WT2  6522 TIP3 OH2  OT    -0.834000       15.9994           0
   41870 WT2  6522 TIP3 H1   HT     0.417000        1.0080           0
   41871 WT2  6522 TIP3 H2   HT     0.417000        1.0080           0
   41872 WT2  6523 TIP3 OH2  OT    -0.834000       15.9994           0
   41873 WT2  6523 TIP3 H1   HT     0.417000        1.0080           0
   41874 WT2  6523 TIP3 H2   HT     0.417000        1.0080           0
   41875 WT2  6524 TIP3 OH2  OT    -0.834000       15.9994           0
   41876 WT2  6524 TIP3 H1   HT     0.417000        1.0080           0
   41877 WT2  6524 TIP3 H2   HT     0.417000        1.0080           0
   41878 WT2  6525 TIP3 OH2  OT    -0.834000       15.9994           0
   41879 WT2  6525 TIP3 H1   HT     0.417000        1.0080           0
   41880 WT2  6525 TIP3 H2   HT     0.417000        1.0080           0
   41881 WT2  6526 TIP3 OH2  OT    -0.834000       15.9994           0
   41882 WT2  6526 TIP3 H1   HT     0.417000        1.0080           0
   41883 WT2  6526 TIP3 H2   HT     0.417000        1.0080           0
   41884 WT2  6528 TIP3 OH2  OT    -0.834000       15.9994           0
   41885 WT2  6528 TIP3 H1   HT     0.417000        1.0080           0
   41886 WT2  6528 TIP3 H2   HT     0.417000        1.0080           0
   41887 WT2  6532 TIP3 OH2  OT    -0.834000       15.9994           0
   41888 WT2  6532 TIP3 H1   HT     0.417000        1.0080           0
   41889 WT2  6532 TIP3 H2   HT     0.417000        1.0080           0
   41890 WT2  6533 TIP3 OH2  OT    -0.834000       15.9994           0
   41891 WT2  6533 TIP3 H1   HT     0.417000        1.0080           0
   41892 WT2  6533 TIP3 H2   HT     0.417000        1.0080           0
   41893 WT2  6534 TIP3 OH2  OT    -0.834000       15.9994           0
   41894 WT2  6534 TIP3 H1   HT     0.417000        1.0080           0
   41895 WT2  6534 TIP3 H2   HT     0.417000        1.0080           0
   41896 WT2  6535 TIP3 OH2  OT    -0.834000       15.9994           0
   41897 WT2  6535 TIP3 H1   HT     0.417000        1.0080           0
   41898 WT2  6535 TIP3 H2   HT     0.417000        1.0080           0
   41899 WT2  6536 TIP3 OH2  OT    -0.834000       15.9994           0
   41900 WT2  6536 TIP3 H1   HT     0.417000        1.0080           0
   41901 WT2  6536 TIP3 H2   HT     0.417000        1.0080           0
   41902 WT2  6537 TIP3 OH2  OT    -0.834000       15.9994           0
   41903 WT2  6537 TIP3 H1   HT     0.417000        1.0080           0
   41904 WT2  6537 TIP3 H2   HT     0.417000        1.0080           0
   41905 WT2  6538 TIP3 OH2  OT    -0.834000       15.9994           0
   41906 WT2  6538 TIP3 H1   HT     0.417000        1.0080           0
   41907 WT2  6538 TIP3 H2   HT     0.417000        1.0080           0
   41908 WT2  6539 TIP3 OH2  OT    -0.834000       15.9994           0
   41909 WT2  6539 TIP3 H1   HT     0.417000        1.0080           0
   41910 WT2  6539 TIP3 H2   HT     0.417000        1.0080           0
   41911 WT2  6540 TIP3 OH2  OT    -0.834000       15.9994           0
   41912 WT2  6540 TIP3 H1   HT     0.417000        1.0080           0
   41913 WT2  6540 TIP3 H2   HT     0.417000        1.0080           0
   41914 WT2  6541 TIP3 OH2  OT    -0.834000       15.9994           0
   41915 WT2  6541 TIP3 H1   HT     0.417000        1.0080           0
   41916 WT2  6541 TIP3 H2   HT     0.417000        1.0080           0
   41917 WT2  6542 TIP3 OH2  OT    -0.834000       15.9994           0
   41918 WT2  6542 TIP3 H1   HT     0.417000        1.0080           0
   41919 WT2  6542 TIP3 H2   HT     0.417000        1.0080           0
   41920 WT2  6543 TIP3 OH2  OT    -0.834000       15.9994           0
   41921 WT2  6543 TIP3 H1   HT     0.417000        1.0080           0
   41922 WT2  6543 TIP3 H2   HT     0.417000        1.0080           0
   41923 WT2  6544 TIP3 OH2  OT    -0.834000       15.9994           0
   41924 WT2  6544 TIP3 H1   HT     0.417000        1.0080           0
   41925 WT2  6544 TIP3 H2   HT     0.417000        1.0080           0
   41926 WT2  6545 TIP3 OH2  OT    -0.834000       15.9994           0
   41927 WT2  6545 TIP3 H1   HT     0.417000        1.0080           0
   41928 WT2  6545 TIP3 H2   HT     0.417000        1.0080           0
   41929 WT2  6547 TIP3 OH2  OT    -0.834000       15.9994           0
   41930 WT2  6547 TIP3 H1   HT     0.417000        1.0080           0
   41931 WT2  6547 TIP3 H2   HT     0.417000        1.0080           0
   41932 WT2  6549 TIP3 OH2  OT    -0.834000       15.9994           0
   41933 WT2  6549 TIP3 H1   HT     0.417000        1.0080           0
   41934 WT2  6549 TIP3 H2   HT     0.417000        1.0080           0
   41935 WT2  6551 TIP3 OH2  OT    -0.834000       15.9994           0
   41936 WT2  6551 TIP3 H1   HT     0.417000        1.0080           0
   41937 WT2  6551 TIP3 H2   HT     0.417000        1.0080           0
   41938 WT2  6552 TIP3 OH2  OT    -0.834000       15.9994           0
   41939 WT2  6552 TIP3 H1   HT     0.417000        1.0080           0
   41940 WT2  6552 TIP3 H2   HT     0.417000        1.0080           0
   41941 WT2  6553 TIP3 OH2  OT    -0.834000       15.9994           0
   41942 WT2  6553 TIP3 H1   HT     0.417000        1.0080           0
   41943 WT2  6553 TIP3 H2   HT     0.417000        1.0080           0
   41944 WT2  6554 TIP3 OH2  OT    -0.834000       15.9994           0
   41945 WT2  6554 TIP3 H1   HT     0.417000        1.0080           0
   41946 WT2  6554 TIP3 H2   HT     0.417000        1.0080           0
   41947 WT2  6555 TIP3 OH2  OT    -0.834000       15.9994           0
   41948 WT2  6555 TIP3 H1   HT     0.417000        1.0080           0
   41949 WT2  6555 TIP3 H2   HT     0.417000        1.0080           0
   41950 WT2  6556 TIP3 OH2  OT    -0.834000       15.9994           0
   41951 WT2  6556 TIP3 H1   HT     0.417000        1.0080           0
   41952 WT2  6556 TIP3 H2   HT     0.417000        1.0080           0
   41953 WT2  6557 TIP3 OH2  OT    -0.834000       15.9994           0
   41954 WT2  6557 TIP3 H1   HT     0.417000        1.0080           0
   41955 WT2  6557 TIP3 H2   HT     0.417000        1.0080           0
   41956 WT2  6558 TIP3 OH2  OT    -0.834000       15.9994           0
   41957 WT2  6558 TIP3 H1   HT     0.417000        1.0080           0
   41958 WT2  6558 TIP3 H2   HT     0.417000        1.0080           0
   41959 WT2  6559 TIP3 OH2  OT    -0.834000       15.9994           0
   41960 WT2  6559 TIP3 H1   HT     0.417000        1.0080           0
   41961 WT2  6559 TIP3 H2   HT     0.417000        1.0080           0
   41962 WT2  6560 TIP3 OH2  OT    -0.834000       15.9994           0
   41963 WT2  6560 TIP3 H1   HT     0.417000        1.0080           0
   41964 WT2  6560 TIP3 H2   HT     0.417000        1.0080           0
   41965 WT2  6561 TIP3 OH2  OT    -0.834000       15.9994           0
   41966 WT2  6561 TIP3 H1   HT     0.417000        1.0080           0
   41967 WT2  6561 TIP3 H2   HT     0.417000        1.0080           0
   41968 WT2  6562 TIP3 OH2  OT    -0.834000       15.9994           0
   41969 WT2  6562 TIP3 H1   HT     0.417000        1.0080           0
   41970 WT2  6562 TIP3 H2   HT     0.417000        1.0080           0
   41971 WT2  6563 TIP3 OH2  OT    -0.834000       15.9994           0
   41972 WT2  6563 TIP3 H1   HT     0.417000        1.0080           0
   41973 WT2  6563 TIP3 H2   HT     0.417000        1.0080           0
   41974 WT2  6564 TIP3 OH2  OT    -0.834000       15.9994           0
   41975 WT2  6564 TIP3 H1   HT     0.417000        1.0080           0
   41976 WT2  6564 TIP3 H2   HT     0.417000        1.0080           0
   41977 WT2  6565 TIP3 OH2  OT    -0.834000       15.9994           0
   41978 WT2  6565 TIP3 H1   HT     0.417000        1.0080           0
   41979 WT2  6565 TIP3 H2   HT     0.417000        1.0080           0
   41980 WT2  6566 TIP3 OH2  OT    -0.834000       15.9994           0
   41981 WT2  6566 TIP3 H1   HT     0.417000        1.0080           0
   41982 WT2  6566 TIP3 H2   HT     0.417000        1.0080           0
   41983 WT2  6568 TIP3 OH2  OT    -0.834000       15.9994           0
   41984 WT2  6568 TIP3 H1   HT     0.417000        1.0080           0
   41985 WT2  6568 TIP3 H2   HT     0.417000        1.0080           0
   41986 WT2  6575 TIP3 OH2  OT    -0.834000       15.9994           0
   41987 WT2  6575 TIP3 H1   HT     0.417000        1.0080           0
   41988 WT2  6575 TIP3 H2   HT     0.417000        1.0080           0
   41989 WT2  6576 TIP3 OH2  OT    -0.834000       15.9994           0
   41990 WT2  6576 TIP3 H1   HT     0.417000        1.0080           0
   41991 WT2  6576 TIP3 H2   HT     0.417000        1.0080           0
   41992 WT2  6577 TIP3 OH2  OT    -0.834000       15.9994           0
   41993 WT2  6577 TIP3 H1   HT     0.417000        1.0080           0
   41994 WT2  6577 TIP3 H2   HT     0.417000        1.0080           0
   41995 WT2  6578 TIP3 OH2  OT    -0.834000       15.9994           0
   41996 WT2  6578 TIP3 H1   HT     0.417000        1.0080           0
   41997 WT2  6578 TIP3 H2   HT     0.417000        1.0080           0
   41998 WT2  6579 TIP3 OH2  OT    -0.834000       15.9994           0
   41999 WT2  6579 TIP3 H1   HT     0.417000        1.0080           0
   42000 WT2  6579 TIP3 H2   HT     0.417000        1.0080           0
   42001 WT2  6580 TIP3 OH2  OT    -0.834000       15.9994           0
   42002 WT2  6580 TIP3 H1   HT     0.417000        1.0080           0
   42003 WT2  6580 TIP3 H2   HT     0.417000        1.0080           0
   42004 WT2  6581 TIP3 OH2  OT    -0.834000       15.9994           0
   42005 WT2  6581 TIP3 H1   HT     0.417000        1.0080           0
   42006 WT2  6581 TIP3 H2   HT     0.417000        1.0080           0
   42007 WT2  6582 TIP3 OH2  OT    -0.834000       15.9994           0
   42008 WT2  6582 TIP3 H1   HT     0.417000        1.0080           0
   42009 WT2  6582 TIP3 H2   HT     0.417000        1.0080           0
   42010 WT2  6583 TIP3 OH2  OT    -0.834000       15.9994           0
   42011 WT2  6583 TIP3 H1   HT     0.417000        1.0080           0
   42012 WT2  6583 TIP3 H2   HT     0.417000        1.0080           0
   42013 WT2  6584 TIP3 OH2  OT    -0.834000       15.9994           0
   42014 WT2  6584 TIP3 H1   HT     0.417000        1.0080           0
   42015 WT2  6584 TIP3 H2   HT     0.417000        1.0080           0
   42016 WT2  6586 TIP3 OH2  OT    -0.834000       15.9994           0
   42017 WT2  6586 TIP3 H1   HT     0.417000        1.0080           0
   42018 WT2  6586 TIP3 H2   HT     0.417000        1.0080           0
   42019 WT2  6595 TIP3 OH2  OT    -0.834000       15.9994           0
   42020 WT2  6595 TIP3 H1   HT     0.417000        1.0080           0
   42021 WT2  6595 TIP3 H2   HT     0.417000        1.0080           0
   42022 WT2  6597 TIP3 OH2  OT    -0.834000       15.9994           0
   42023 WT2  6597 TIP3 H1   HT     0.417000        1.0080           0
   42024 WT2  6597 TIP3 H2   HT     0.417000        1.0080           0
   42025 WT2  6598 TIP3 OH2  OT    -0.834000       15.9994           0
   42026 WT2  6598 TIP3 H1   HT     0.417000        1.0080           0
   42027 WT2  6598 TIP3 H2   HT     0.417000        1.0080           0
   42028 WT2  6599 TIP3 OH2  OT    -0.834000       15.9994           0
   42029 WT2  6599 TIP3 H1   HT     0.417000        1.0080           0
   42030 WT2  6599 TIP3 H2   HT     0.417000        1.0080           0
   42031 WT2  6600 TIP3 OH2  OT    -0.834000       15.9994           0
   42032 WT2  6600 TIP3 H1   HT     0.417000        1.0080           0
   42033 WT2  6600 TIP3 H2   HT     0.417000        1.0080           0
   42034 WT2  6601 TIP3 OH2  OT    -0.834000       15.9994           0
   42035 WT2  6601 TIP3 H1   HT     0.417000        1.0080           0
   42036 WT2  6601 TIP3 H2   HT     0.417000        1.0080           0
   42037 WT2  6602 TIP3 OH2  OT    -0.834000       15.9994           0
   42038 WT2  6602 TIP3 H1   HT     0.417000        1.0080           0
   42039 WT2  6602 TIP3 H2   HT     0.417000        1.0080           0
   42040 WT2  6603 TIP3 OH2  OT    -0.834000       15.9994           0
   42041 WT2  6603 TIP3 H1   HT     0.417000        1.0080           0
   42042 WT2  6603 TIP3 H2   HT     0.417000        1.0080           0
   42043 WT2  6604 TIP3 OH2  OT    -0.834000       15.9994           0
   42044 WT2  6604 TIP3 H1   HT     0.417000        1.0080           0
   42045 WT2  6604 TIP3 H2   HT     0.417000        1.0080           0
   42046 WT2  6605 TIP3 OH2  OT    -0.834000       15.9994           0
   42047 WT2  6605 TIP3 H1   HT     0.417000        1.0080           0
   42048 WT2  6605 TIP3 H2   HT     0.417000        1.0080           0
   42049 WT2  6606 TIP3 OH2  OT    -0.834000       15.9994           0
   42050 WT2  6606 TIP3 H1   HT     0.417000        1.0080           0
   42051 WT2  6606 TIP3 H2   HT     0.417000        1.0080           0
   42052 WT2  6607 TIP3 OH2  OT    -0.834000       15.9994           0
   42053 WT2  6607 TIP3 H1   HT     0.417000        1.0080           0
   42054 WT2  6607 TIP3 H2   HT     0.417000        1.0080           0
   42055 WT2  6608 TIP3 OH2  OT    -0.834000       15.9994           0
   42056 WT2  6608 TIP3 H1   HT     0.417000        1.0080           0
   42057 WT2  6608 TIP3 H2   HT     0.417000        1.0080           0
   42058 WT2  6609 TIP3 OH2  OT    -0.834000       15.9994           0
   42059 WT2  6609 TIP3 H1   HT     0.417000        1.0080           0
   42060 WT2  6609 TIP3 H2   HT     0.417000        1.0080           0
   42061 WT2  6612 TIP3 OH2  OT    -0.834000       15.9994           0
   42062 WT2  6612 TIP3 H1   HT     0.417000        1.0080           0
   42063 WT2  6612 TIP3 H2   HT     0.417000        1.0080           0
   42064 WT2  6615 TIP3 OH2  OT    -0.834000       15.9994           0
   42065 WT2  6615 TIP3 H1   HT     0.417000        1.0080           0
   42066 WT2  6615 TIP3 H2   HT     0.417000        1.0080           0
   42067 WT2  6616 TIP3 OH2  OT    -0.834000       15.9994           0
   42068 WT2  6616 TIP3 H1   HT     0.417000        1.0080           0
   42069 WT2  6616 TIP3 H2   HT     0.417000        1.0080           0
   42070 WT2  6618 TIP3 OH2  OT    -0.834000       15.9994           0
   42071 WT2  6618 TIP3 H1   HT     0.417000        1.0080           0
   42072 WT2  6618 TIP3 H2   HT     0.417000        1.0080           0
   42073 WT2  6619 TIP3 OH2  OT    -0.834000       15.9994           0
   42074 WT2  6619 TIP3 H1   HT     0.417000        1.0080           0
   42075 WT2  6619 TIP3 H2   HT     0.417000        1.0080           0
   42076 WT2  6620 TIP3 OH2  OT    -0.834000       15.9994           0
   42077 WT2  6620 TIP3 H1   HT     0.417000        1.0080           0
   42078 WT2  6620 TIP3 H2   HT     0.417000        1.0080           0
   42079 WT2  6621 TIP3 OH2  OT    -0.834000       15.9994           0
   42080 WT2  6621 TIP3 H1   HT     0.417000        1.0080           0
   42081 WT2  6621 TIP3 H2   HT     0.417000        1.0080           0
   42082 WT2  6622 TIP3 OH2  OT    -0.834000       15.9994           0
   42083 WT2  6622 TIP3 H1   HT     0.417000        1.0080           0
   42084 WT2  6622 TIP3 H2   HT     0.417000        1.0080           0
   42085 WT2  6623 TIP3 OH2  OT    -0.834000       15.9994           0
   42086 WT2  6623 TIP3 H1   HT     0.417000        1.0080           0
   42087 WT2  6623 TIP3 H2   HT     0.417000        1.0080           0
   42088 WT2  6624 TIP3 OH2  OT    -0.834000       15.9994           0
   42089 WT2  6624 TIP3 H1   HT     0.417000        1.0080           0
   42090 WT2  6624 TIP3 H2   HT     0.417000        1.0080           0
   42091 WT2  6625 TIP3 OH2  OT    -0.834000       15.9994           0
   42092 WT2  6625 TIP3 H1   HT     0.417000        1.0080           0
   42093 WT2  6625 TIP3 H2   HT     0.417000        1.0080           0
   42094 WT2  6627 TIP3 OH2  OT    -0.834000       15.9994           0
   42095 WT2  6627 TIP3 H1   HT     0.417000        1.0080           0
   42096 WT2  6627 TIP3 H2   HT     0.417000        1.0080           0
   42097 WT2  6628 TIP3 OH2  OT    -0.834000       15.9994           0
   42098 WT2  6628 TIP3 H1   HT     0.417000        1.0080           0
   42099 WT2  6628 TIP3 H2   HT     0.417000        1.0080           0
   42100 WT2  6629 TIP3 OH2  OT    -0.834000       15.9994           0
   42101 WT2  6629 TIP3 H1   HT     0.417000        1.0080           0
   42102 WT2  6629 TIP3 H2   HT     0.417000        1.0080           0
   42103 WT2  6630 TIP3 OH2  OT    -0.834000       15.9994           0
   42104 WT2  6630 TIP3 H1   HT     0.417000        1.0080           0
   42105 WT2  6630 TIP3 H2   HT     0.417000        1.0080           0
   42106 WT2  6633 TIP3 OH2  OT    -0.834000       15.9994           0
   42107 WT2  6633 TIP3 H1   HT     0.417000        1.0080           0
   42108 WT2  6633 TIP3 H2   HT     0.417000        1.0080           0
   42109 WT2  6636 TIP3 OH2  OT    -0.834000       15.9994           0
   42110 WT2  6636 TIP3 H1   HT     0.417000        1.0080           0
   42111 WT2  6636 TIP3 H2   HT     0.417000        1.0080           0
   42112 WT2  6637 TIP3 OH2  OT    -0.834000       15.9994           0
   42113 WT2  6637 TIP3 H1   HT     0.417000        1.0080           0
   42114 WT2  6637 TIP3 H2   HT     0.417000        1.0080           0
   42115 WT2  6638 TIP3 OH2  OT    -0.834000       15.9994           0
   42116 WT2  6638 TIP3 H1   HT     0.417000        1.0080           0
   42117 WT2  6638 TIP3 H2   HT     0.417000        1.0080           0
   42118 WT2  6639 TIP3 OH2  OT    -0.834000       15.9994           0
   42119 WT2  6639 TIP3 H1   HT     0.417000        1.0080           0
   42120 WT2  6639 TIP3 H2   HT     0.417000        1.0080           0
   42121 WT2  6640 TIP3 OH2  OT    -0.834000       15.9994           0
   42122 WT2  6640 TIP3 H1   HT     0.417000        1.0080           0
   42123 WT2  6640 TIP3 H2   HT     0.417000        1.0080           0
   42124 WT2  6641 TIP3 OH2  OT    -0.834000       15.9994           0
   42125 WT2  6641 TIP3 H1   HT     0.417000        1.0080           0
   42126 WT2  6641 TIP3 H2   HT     0.417000        1.0080           0
   42127 WT2  6642 TIP3 OH2  OT    -0.834000       15.9994           0
   42128 WT2  6642 TIP3 H1   HT     0.417000        1.0080           0
   42129 WT2  6642 TIP3 H2   HT     0.417000        1.0080           0
   42130 WT2  6643 TIP3 OH2  OT    -0.834000       15.9994           0
   42131 WT2  6643 TIP3 H1   HT     0.417000        1.0080           0
   42132 WT2  6643 TIP3 H2   HT     0.417000        1.0080           0
   42133 WT2  6644 TIP3 OH2  OT    -0.834000       15.9994           0
   42134 WT2  6644 TIP3 H1   HT     0.417000        1.0080           0
   42135 WT2  6644 TIP3 H2   HT     0.417000        1.0080           0
   42136 WT2  6645 TIP3 OH2  OT    -0.834000       15.9994           0
   42137 WT2  6645 TIP3 H1   HT     0.417000        1.0080           0
   42138 WT2  6645 TIP3 H2   HT     0.417000        1.0080           0
   42139 WT2  6646 TIP3 OH2  OT    -0.834000       15.9994           0
   42140 WT2  6646 TIP3 H1   HT     0.417000        1.0080           0
   42141 WT2  6646 TIP3 H2   HT     0.417000        1.0080           0
   42142 WT2  6647 TIP3 OH2  OT    -0.834000       15.9994           0
   42143 WT2  6647 TIP3 H1   HT     0.417000        1.0080           0
   42144 WT2  6647 TIP3 H2   HT     0.417000        1.0080           0
   42145 WT2  6656 TIP3 OH2  OT    -0.834000       15.9994           0
   42146 WT2  6656 TIP3 H1   HT     0.417000        1.0080           0
   42147 WT2  6656 TIP3 H2   HT     0.417000        1.0080           0
   42148 WT2  6657 TIP3 OH2  OT    -0.834000       15.9994           0
   42149 WT2  6657 TIP3 H1   HT     0.417000        1.0080           0
   42150 WT2  6657 TIP3 H2   HT     0.417000        1.0080           0
   42151 WT2  6659 TIP3 OH2  OT    -0.834000       15.9994           0
   42152 WT2  6659 TIP3 H1   HT     0.417000        1.0080           0
   42153 WT2  6659 TIP3 H2   HT     0.417000        1.0080           0
   42154 WT2  6660 TIP3 OH2  OT    -0.834000       15.9994           0
   42155 WT2  6660 TIP3 H1   HT     0.417000        1.0080           0
   42156 WT2  6660 TIP3 H2   HT     0.417000        1.0080           0
   42157 WT2  6661 TIP3 OH2  OT    -0.834000       15.9994           0
   42158 WT2  6661 TIP3 H1   HT     0.417000        1.0080           0
   42159 WT2  6661 TIP3 H2   HT     0.417000        1.0080           0
   42160 WT2  6662 TIP3 OH2  OT    -0.834000       15.9994           0
   42161 WT2  6662 TIP3 H1   HT     0.417000        1.0080           0
   42162 WT2  6662 TIP3 H2   HT     0.417000        1.0080           0
   42163 WT2  6663 TIP3 OH2  OT    -0.834000       15.9994           0
   42164 WT2  6663 TIP3 H1   HT     0.417000        1.0080           0
   42165 WT2  6663 TIP3 H2   HT     0.417000        1.0080           0
   42166 WT2  6664 TIP3 OH2  OT    -0.834000       15.9994           0
   42167 WT2  6664 TIP3 H1   HT     0.417000        1.0080           0
   42168 WT2  6664 TIP3 H2   HT     0.417000        1.0080           0
   42169 WT2  6665 TIP3 OH2  OT    -0.834000       15.9994           0
   42170 WT2  6665 TIP3 H1   HT     0.417000        1.0080           0
   42171 WT2  6665 TIP3 H2   HT     0.417000        1.0080           0
   42172 WT2  6666 TIP3 OH2  OT    -0.834000       15.9994           0
   42173 WT2  6666 TIP3 H1   HT     0.417000        1.0080           0
   42174 WT2  6666 TIP3 H2   HT     0.417000        1.0080           0
   42175 WT2  6667 TIP3 OH2  OT    -0.834000       15.9994           0
   42176 WT2  6667 TIP3 H1   HT     0.417000        1.0080           0
   42177 WT2  6667 TIP3 H2   HT     0.417000        1.0080           0
   42178 WT2  6668 TIP3 OH2  OT    -0.834000       15.9994           0
   42179 WT2  6668 TIP3 H1   HT     0.417000        1.0080           0
   42180 WT2  6668 TIP3 H2   HT     0.417000        1.0080           0
   42181 WT2  6669 TIP3 OH2  OT    -0.834000       15.9994           0
   42182 WT2  6669 TIP3 H1   HT     0.417000        1.0080           0
   42183 WT2  6669 TIP3 H2   HT     0.417000        1.0080           0
   42184 WT2  6670 TIP3 OH2  OT    -0.834000       15.9994           0
   42185 WT2  6670 TIP3 H1   HT     0.417000        1.0080           0
   42186 WT2  6670 TIP3 H2   HT     0.417000        1.0080           0
   42187 WT2  6671 TIP3 OH2  OT    -0.834000       15.9994           0
   42188 WT2  6671 TIP3 H1   HT     0.417000        1.0080           0
   42189 WT2  6671 TIP3 H2   HT     0.417000        1.0080           0
   42190 WT2  6672 TIP3 OH2  OT    -0.834000       15.9994           0
   42191 WT2  6672 TIP3 H1   HT     0.417000        1.0080           0
   42192 WT2  6672 TIP3 H2   HT     0.417000        1.0080           0
   42193 WT2  6673 TIP3 OH2  OT    -0.834000       15.9994           0
   42194 WT2  6673 TIP3 H1   HT     0.417000        1.0080           0
   42195 WT2  6673 TIP3 H2   HT     0.417000        1.0080           0
   42196 WT2  6679 TIP3 OH2  OT    -0.834000       15.9994           0
   42197 WT2  6679 TIP3 H1   HT     0.417000        1.0080           0
   42198 WT2  6679 TIP3 H2   HT     0.417000        1.0080           0
   42199 WT2  6681 TIP3 OH2  OT    -0.834000       15.9994           0
   42200 WT2  6681 TIP3 H1   HT     0.417000        1.0080           0
   42201 WT2  6681 TIP3 H2   HT     0.417000        1.0080           0
   42202 WT2  6683 TIP3 OH2  OT    -0.834000       15.9994           0
   42203 WT2  6683 TIP3 H1   HT     0.417000        1.0080           0
   42204 WT2  6683 TIP3 H2   HT     0.417000        1.0080           0
   42205 WT2  6684 TIP3 OH2  OT    -0.834000       15.9994           0
   42206 WT2  6684 TIP3 H1   HT     0.417000        1.0080           0
   42207 WT2  6684 TIP3 H2   HT     0.417000        1.0080           0
   42208 WT2  6685 TIP3 OH2  OT    -0.834000       15.9994           0
   42209 WT2  6685 TIP3 H1   HT     0.417000        1.0080           0
   42210 WT2  6685 TIP3 H2   HT     0.417000        1.0080           0
   42211 WT2  6686 TIP3 OH2  OT    -0.834000       15.9994           0
   42212 WT2  6686 TIP3 H1   HT     0.417000        1.0080           0
   42213 WT2  6686 TIP3 H2   HT     0.417000        1.0080           0
   42214 WT2  6687 TIP3 OH2  OT    -0.834000       15.9994           0
   42215 WT2  6687 TIP3 H1   HT     0.417000        1.0080           0
   42216 WT2  6687 TIP3 H2   HT     0.417000        1.0080           0
   42217 WT2  6688 TIP3 OH2  OT    -0.834000       15.9994           0
   42218 WT2  6688 TIP3 H1   HT     0.417000        1.0080           0
   42219 WT2  6688 TIP3 H2   HT     0.417000        1.0080           0
   42220 WT2  6690 TIP3 OH2  OT    -0.834000       15.9994           0
   42221 WT2  6690 TIP3 H1   HT     0.417000        1.0080           0
   42222 WT2  6690 TIP3 H2   HT     0.417000        1.0080           0
   42223 WT2  6692 TIP3 OH2  OT    -0.834000       15.9994           0
   42224 WT2  6692 TIP3 H1   HT     0.417000        1.0080           0
   42225 WT2  6692 TIP3 H2   HT     0.417000        1.0080           0
   42226 WT2  6693 TIP3 OH2  OT    -0.834000       15.9994           0
   42227 WT2  6693 TIP3 H1   HT     0.417000        1.0080           0
   42228 WT2  6693 TIP3 H2   HT     0.417000        1.0080           0
   42229 WT2  6698 TIP3 OH2  OT    -0.834000       15.9994           0
   42230 WT2  6698 TIP3 H1   HT     0.417000        1.0080           0
   42231 WT2  6698 TIP3 H2   HT     0.417000        1.0080           0
   42232 WT2  6700 TIP3 OH2  OT    -0.834000       15.9994           0
   42233 WT2  6700 TIP3 H1   HT     0.417000        1.0080           0
   42234 WT2  6700 TIP3 H2   HT     0.417000        1.0080           0
   42235 WT2  6701 TIP3 OH2  OT    -0.834000       15.9994           0
   42236 WT2  6701 TIP3 H1   HT     0.417000        1.0080           0
   42237 WT2  6701 TIP3 H2   HT     0.417000        1.0080           0
   42238 WT2  6703 TIP3 OH2  OT    -0.834000       15.9994           0
   42239 WT2  6703 TIP3 H1   HT     0.417000        1.0080           0
   42240 WT2  6703 TIP3 H2   HT     0.417000        1.0080           0
   42241 WT2  6704 TIP3 OH2  OT    -0.834000       15.9994           0
   42242 WT2  6704 TIP3 H1   HT     0.417000        1.0080           0
   42243 WT2  6704 TIP3 H2   HT     0.417000        1.0080           0
   42244 WT2  6705 TIP3 OH2  OT    -0.834000       15.9994           0
   42245 WT2  6705 TIP3 H1   HT     0.417000        1.0080           0
   42246 WT2  6705 TIP3 H2   HT     0.417000        1.0080           0
   42247 WT2  6706 TIP3 OH2  OT    -0.834000       15.9994           0
   42248 WT2  6706 TIP3 H1   HT     0.417000        1.0080           0
   42249 WT2  6706 TIP3 H2   HT     0.417000        1.0080           0
   42250 WT2  6707 TIP3 OH2  OT    -0.834000       15.9994           0
   42251 WT2  6707 TIP3 H1   HT     0.417000        1.0080           0
   42252 WT2  6707 TIP3 H2   HT     0.417000        1.0080           0
   42253 WT2  6708 TIP3 OH2  OT    -0.834000       15.9994           0
   42254 WT2  6708 TIP3 H1   HT     0.417000        1.0080           0
   42255 WT2  6708 TIP3 H2   HT     0.417000        1.0080           0
   42256 WT2  6709 TIP3 OH2  OT    -0.834000       15.9994           0
   42257 WT2  6709 TIP3 H1   HT     0.417000        1.0080           0
   42258 WT2  6709 TIP3 H2   HT     0.417000        1.0080           0
   42259 WT2  6710 TIP3 OH2  OT    -0.834000       15.9994           0
   42260 WT2  6710 TIP3 H1   HT     0.417000        1.0080           0
   42261 WT2  6710 TIP3 H2   HT     0.417000        1.0080           0
   42262 WT2  6714 TIP3 OH2  OT    -0.834000       15.9994           0
   42263 WT2  6714 TIP3 H1   HT     0.417000        1.0080           0
   42264 WT2  6714 TIP3 H2   HT     0.417000        1.0080           0
   42265 WT2  6721 TIP3 OH2  OT    -0.834000       15.9994           0
   42266 WT2  6721 TIP3 H1   HT     0.417000        1.0080           0
   42267 WT2  6721 TIP3 H2   HT     0.417000        1.0080           0
   42268 WT2  6722 TIP3 OH2  OT    -0.834000       15.9994           0
   42269 WT2  6722 TIP3 H1   HT     0.417000        1.0080           0
   42270 WT2  6722 TIP3 H2   HT     0.417000        1.0080           0
   42271 WT2  6725 TIP3 OH2  OT    -0.834000       15.9994           0
   42272 WT2  6725 TIP3 H1   HT     0.417000        1.0080           0
   42273 WT2  6725 TIP3 H2   HT     0.417000        1.0080           0
   42274 WT2  6726 TIP3 OH2  OT    -0.834000       15.9994           0
   42275 WT2  6726 TIP3 H1   HT     0.417000        1.0080           0
   42276 WT2  6726 TIP3 H2   HT     0.417000        1.0080           0
   42277 WT2  6727 TIP3 OH2  OT    -0.834000       15.9994           0
   42278 WT2  6727 TIP3 H1   HT     0.417000        1.0080           0
   42279 WT2  6727 TIP3 H2   HT     0.417000        1.0080           0
   42280 WT2  6728 TIP3 OH2  OT    -0.834000       15.9994           0
   42281 WT2  6728 TIP3 H1   HT     0.417000        1.0080           0
   42282 WT2  6728 TIP3 H2   HT     0.417000        1.0080           0
   42283 WT2  6729 TIP3 OH2  OT    -0.834000       15.9994           0
   42284 WT2  6729 TIP3 H1   HT     0.417000        1.0080           0
   42285 WT2  6729 TIP3 H2   HT     0.417000        1.0080           0
   42286 WT2  6730 TIP3 OH2  OT    -0.834000       15.9994           0
   42287 WT2  6730 TIP3 H1   HT     0.417000        1.0080           0
   42288 WT2  6730 TIP3 H2   HT     0.417000        1.0080           0
   42289 WT2  6731 TIP3 OH2  OT    -0.834000       15.9994           0
   42290 WT2  6731 TIP3 H1   HT     0.417000        1.0080           0
   42291 WT2  6731 TIP3 H2   HT     0.417000        1.0080           0
   42292 WT2  6732 TIP3 OH2  OT    -0.834000       15.9994           0
   42293 WT2  6732 TIP3 H1   HT     0.417000        1.0080           0
   42294 WT2  6732 TIP3 H2   HT     0.417000        1.0080           0
   42295 WT2  6733 TIP3 OH2  OT    -0.834000       15.9994           0
   42296 WT2  6733 TIP3 H1   HT     0.417000        1.0080           0
   42297 WT2  6733 TIP3 H2   HT     0.417000        1.0080           0
   42298 WT2  6734 TIP3 OH2  OT    -0.834000       15.9994           0
   42299 WT2  6734 TIP3 H1   HT     0.417000        1.0080           0
   42300 WT2  6734 TIP3 H2   HT     0.417000        1.0080           0
   42301 WT2  6736 TIP3 OH2  OT    -0.834000       15.9994           0
   42302 WT2  6736 TIP3 H1   HT     0.417000        1.0080           0
   42303 WT2  6736 TIP3 H2   HT     0.417000        1.0080           0
   42304 WT2  6740 TIP3 OH2  OT    -0.834000       15.9994           0
   42305 WT2  6740 TIP3 H1   HT     0.417000        1.0080           0
   42306 WT2  6740 TIP3 H2   HT     0.417000        1.0080           0
   42307 WT2  6742 TIP3 OH2  OT    -0.834000       15.9994           0
   42308 WT2  6742 TIP3 H1   HT     0.417000        1.0080           0
   42309 WT2  6742 TIP3 H2   HT     0.417000        1.0080           0
   42310 WT2  6743 TIP3 OH2  OT    -0.834000       15.9994           0
   42311 WT2  6743 TIP3 H1   HT     0.417000        1.0080           0
   42312 WT2  6743 TIP3 H2   HT     0.417000        1.0080           0
   42313 WT2  6745 TIP3 OH2  OT    -0.834000       15.9994           0
   42314 WT2  6745 TIP3 H1   HT     0.417000        1.0080           0
   42315 WT2  6745 TIP3 H2   HT     0.417000        1.0080           0
   42316 WT2  6748 TIP3 OH2  OT    -0.834000       15.9994           0
   42317 WT2  6748 TIP3 H1   HT     0.417000        1.0080           0
   42318 WT2  6748 TIP3 H2   HT     0.417000        1.0080           0
   42319 WT2  6749 TIP3 OH2  OT    -0.834000       15.9994           0
   42320 WT2  6749 TIP3 H1   HT     0.417000        1.0080           0
   42321 WT2  6749 TIP3 H2   HT     0.417000        1.0080           0
   42322 WT2  6750 TIP3 OH2  OT    -0.834000       15.9994           0
   42323 WT2  6750 TIP3 H1   HT     0.417000        1.0080           0
   42324 WT2  6750 TIP3 H2   HT     0.417000        1.0080           0
   42325 WT2  6751 TIP3 OH2  OT    -0.834000       15.9994           0
   42326 WT2  6751 TIP3 H1   HT     0.417000        1.0080           0
   42327 WT2  6751 TIP3 H2   HT     0.417000        1.0080           0
   42328 WT2  6762 TIP3 OH2  OT    -0.834000       15.9994           0
   42329 WT2  6762 TIP3 H1   HT     0.417000        1.0080           0
   42330 WT2  6762 TIP3 H2   HT     0.417000        1.0080           0
   42331 WT2  6763 TIP3 OH2  OT    -0.834000       15.9994           0
   42332 WT2  6763 TIP3 H1   HT     0.417000        1.0080           0
   42333 WT2  6763 TIP3 H2   HT     0.417000        1.0080           0
   42334 WT2  6765 TIP3 OH2  OT    -0.834000       15.9994           0
   42335 WT2  6765 TIP3 H1   HT     0.417000        1.0080           0
   42336 WT2  6765 TIP3 H2   HT     0.417000        1.0080           0
   42337 WT2  6767 TIP3 OH2  OT    -0.834000       15.9994           0
   42338 WT2  6767 TIP3 H1   HT     0.417000        1.0080           0
   42339 WT2  6767 TIP3 H2   HT     0.417000        1.0080           0
   42340 WT2  6768 TIP3 OH2  OT    -0.834000       15.9994           0
   42341 WT2  6768 TIP3 H1   HT     0.417000        1.0080           0
   42342 WT2  6768 TIP3 H2   HT     0.417000        1.0080           0
   42343 WT2  6769 TIP3 OH2  OT    -0.834000       15.9994           0
   42344 WT2  6769 TIP3 H1   HT     0.417000        1.0080           0
   42345 WT2  6769 TIP3 H2   HT     0.417000        1.0080           0
   42346 WT2  6770 TIP3 OH2  OT    -0.834000       15.9994           0
   42347 WT2  6770 TIP3 H1   HT     0.417000        1.0080           0
   42348 WT2  6770 TIP3 H2   HT     0.417000        1.0080           0
   42349 WT2  6771 TIP3 OH2  OT    -0.834000       15.9994           0
   42350 WT2  6771 TIP3 H1   HT     0.417000        1.0080           0
   42351 WT2  6771 TIP3 H2   HT     0.417000        1.0080           0
   42352 WT2  6772 TIP3 OH2  OT    -0.834000       15.9994           0
   42353 WT2  6772 TIP3 H1   HT     0.417000        1.0080           0
   42354 WT2  6772 TIP3 H2   HT     0.417000        1.0080           0
   42355 WT2  6773 TIP3 OH2  OT    -0.834000       15.9994           0
   42356 WT2  6773 TIP3 H1   HT     0.417000        1.0080           0
   42357 WT2  6773 TIP3 H2   HT     0.417000        1.0080           0
   42358 WT2  6774 TIP3 OH2  OT    -0.834000       15.9994           0
   42359 WT2  6774 TIP3 H1   HT     0.417000        1.0080           0
   42360 WT2  6774 TIP3 H2   HT     0.417000        1.0080           0
   42361 WT2  6775 TIP3 OH2  OT    -0.834000       15.9994           0
   42362 WT2  6775 TIP3 H1   HT     0.417000        1.0080           0
   42363 WT2  6775 TIP3 H2   HT     0.417000        1.0080           0
   42364 WT2  6777 TIP3 OH2  OT    -0.834000       15.9994           0
   42365 WT2  6777 TIP3 H1   HT     0.417000        1.0080           0
   42366 WT2  6777 TIP3 H2   HT     0.417000        1.0080           0
   42367 WT2  6786 TIP3 OH2  OT    -0.834000       15.9994           0
   42368 WT2  6786 TIP3 H1   HT     0.417000        1.0080           0
   42369 WT2  6786 TIP3 H2   HT     0.417000        1.0080           0
   42370 WT2  6788 TIP3 OH2  OT    -0.834000       15.9994           0
   42371 WT2  6788 TIP3 H1   HT     0.417000        1.0080           0
   42372 WT2  6788 TIP3 H2   HT     0.417000        1.0080           0
   42373 WT2  6789 TIP3 OH2  OT    -0.834000       15.9994           0
   42374 WT2  6789 TIP3 H1   HT     0.417000        1.0080           0
   42375 WT2  6789 TIP3 H2   HT     0.417000        1.0080           0
   42376 WT2  6790 TIP3 OH2  OT    -0.834000       15.9994           0
   42377 WT2  6790 TIP3 H1   HT     0.417000        1.0080           0
   42378 WT2  6790 TIP3 H2   HT     0.417000        1.0080           0
   42379 WT2  6791 TIP3 OH2  OT    -0.834000       15.9994           0
   42380 WT2  6791 TIP3 H1   HT     0.417000        1.0080           0
   42381 WT2  6791 TIP3 H2   HT     0.417000        1.0080           0
   42382 WT2  6792 TIP3 OH2  OT    -0.834000       15.9994           0
   42383 WT2  6792 TIP3 H1   HT     0.417000        1.0080           0
   42384 WT2  6792 TIP3 H2   HT     0.417000        1.0080           0
   42385 WT2  6793 TIP3 OH2  OT    -0.834000       15.9994           0
   42386 WT2  6793 TIP3 H1   HT     0.417000        1.0080           0
   42387 WT2  6793 TIP3 H2   HT     0.417000        1.0080           0
   42388 WT2  6794 TIP3 OH2  OT    -0.834000       15.9994           0
   42389 WT2  6794 TIP3 H1   HT     0.417000        1.0080           0
   42390 WT2  6794 TIP3 H2   HT     0.417000        1.0080           0
   42391 WT2  6798 TIP3 OH2  OT    -0.834000       15.9994           0
   42392 WT2  6798 TIP3 H1   HT     0.417000        1.0080           0
   42393 WT2  6798 TIP3 H2   HT     0.417000        1.0080           0
   42394 WT2  6801 TIP3 OH2  OT    -0.834000       15.9994           0
   42395 WT2  6801 TIP3 H1   HT     0.417000        1.0080           0
   42396 WT2  6801 TIP3 H2   HT     0.417000        1.0080           0
   42397 WT2  6802 TIP3 OH2  OT    -0.834000       15.9994           0
   42398 WT2  6802 TIP3 H1   HT     0.417000        1.0080           0
   42399 WT2  6802 TIP3 H2   HT     0.417000        1.0080           0
   42400 WT2  6803 TIP3 OH2  OT    -0.834000       15.9994           0
   42401 WT2  6803 TIP3 H1   HT     0.417000        1.0080           0
   42402 WT2  6803 TIP3 H2   HT     0.417000        1.0080           0
   42403 WT2  6807 TIP3 OH2  OT    -0.834000       15.9994           0
   42404 WT2  6807 TIP3 H1   HT     0.417000        1.0080           0
   42405 WT2  6807 TIP3 H2   HT     0.417000        1.0080           0
   42406 WT2  6808 TIP3 OH2  OT    -0.834000       15.9994           0
   42407 WT2  6808 TIP3 H1   HT     0.417000        1.0080           0
   42408 WT2  6808 TIP3 H2   HT     0.417000        1.0080           0
   42409 WT2  6809 TIP3 OH2  OT    -0.834000       15.9994           0
   42410 WT2  6809 TIP3 H1   HT     0.417000        1.0080           0
   42411 WT2  6809 TIP3 H2   HT     0.417000        1.0080           0
   42412 WT2  6810 TIP3 OH2  OT    -0.834000       15.9994           0
   42413 WT2  6810 TIP3 H1   HT     0.417000        1.0080           0
   42414 WT2  6810 TIP3 H2   HT     0.417000        1.0080           0
   42415 WT2  6811 TIP3 OH2  OT    -0.834000       15.9994           0
   42416 WT2  6811 TIP3 H1   HT     0.417000        1.0080           0
   42417 WT2  6811 TIP3 H2   HT     0.417000        1.0080           0
   42418 WT2  6812 TIP3 OH2  OT    -0.834000       15.9994           0
   42419 WT2  6812 TIP3 H1   HT     0.417000        1.0080           0
   42420 WT2  6812 TIP3 H2   HT     0.417000        1.0080           0
   42421 WT2  6813 TIP3 OH2  OT    -0.834000       15.9994           0
   42422 WT2  6813 TIP3 H1   HT     0.417000        1.0080           0
   42423 WT2  6813 TIP3 H2   HT     0.417000        1.0080           0
   42424 WT2  6815 TIP3 OH2  OT    -0.834000       15.9994           0
   42425 WT2  6815 TIP3 H1   HT     0.417000        1.0080           0
   42426 WT2  6815 TIP3 H2   HT     0.417000        1.0080           0
   42427 WT2  6816 TIP3 OH2  OT    -0.834000       15.9994           0
   42428 WT2  6816 TIP3 H1   HT     0.417000        1.0080           0
   42429 WT2  6816 TIP3 H2   HT     0.417000        1.0080           0
   42430 WT2  6817 TIP3 OH2  OT    -0.834000       15.9994           0
   42431 WT2  6817 TIP3 H1   HT     0.417000        1.0080           0
   42432 WT2  6817 TIP3 H2   HT     0.417000        1.0080           0
   42433 WT2  6819 TIP3 OH2  OT    -0.834000       15.9994           0
   42434 WT2  6819 TIP3 H1   HT     0.417000        1.0080           0
   42435 WT2  6819 TIP3 H2   HT     0.417000        1.0080           0
   42436 WT2  6820 TIP3 OH2  OT    -0.834000       15.9994           0
   42437 WT2  6820 TIP3 H1   HT     0.417000        1.0080           0
   42438 WT2  6820 TIP3 H2   HT     0.417000        1.0080           0
   42439 WT2  6823 TIP3 OH2  OT    -0.834000       15.9994           0
   42440 WT2  6823 TIP3 H1   HT     0.417000        1.0080           0
   42441 WT2  6823 TIP3 H2   HT     0.417000        1.0080           0
   42442 WT2  6825 TIP3 OH2  OT    -0.834000       15.9994           0
   42443 WT2  6825 TIP3 H1   HT     0.417000        1.0080           0
   42444 WT2  6825 TIP3 H2   HT     0.417000        1.0080           0
   42445 WT2  6826 TIP3 OH2  OT    -0.834000       15.9994           0
   42446 WT2  6826 TIP3 H1   HT     0.417000        1.0080           0
   42447 WT2  6826 TIP3 H2   HT     0.417000        1.0080           0
   42448 WT2  6827 TIP3 OH2  OT    -0.834000       15.9994           0
   42449 WT2  6827 TIP3 H1   HT     0.417000        1.0080           0
   42450 WT2  6827 TIP3 H2   HT     0.417000        1.0080           0
   42451 WT2  6828 TIP3 OH2  OT    -0.834000       15.9994           0
   42452 WT2  6828 TIP3 H1   HT     0.417000        1.0080           0
   42453 WT2  6828 TIP3 H2   HT     0.417000        1.0080           0
   42454 WT2  6829 TIP3 OH2  OT    -0.834000       15.9994           0
   42455 WT2  6829 TIP3 H1   HT     0.417000        1.0080           0
   42456 WT2  6829 TIP3 H2   HT     0.417000        1.0080           0
   42457 WT2  6830 TIP3 OH2  OT    -0.834000       15.9994           0
   42458 WT2  6830 TIP3 H1   HT     0.417000        1.0080           0
   42459 WT2  6830 TIP3 H2   HT     0.417000        1.0080           0
   42460 WT2  6831 TIP3 OH2  OT    -0.834000       15.9994           0
   42461 WT2  6831 TIP3 H1   HT     0.417000        1.0080           0
   42462 WT2  6831 TIP3 H2   HT     0.417000        1.0080           0
   42463 WT2  6832 TIP3 OH2  OT    -0.834000       15.9994           0
   42464 WT2  6832 TIP3 H1   HT     0.417000        1.0080           0
   42465 WT2  6832 TIP3 H2   HT     0.417000        1.0080           0
   42466 WT2  6833 TIP3 OH2  OT    -0.834000       15.9994           0
   42467 WT2  6833 TIP3 H1   HT     0.417000        1.0080           0
   42468 WT2  6833 TIP3 H2   HT     0.417000        1.0080           0
   42469 WT2  6834 TIP3 OH2  OT    -0.834000       15.9994           0
   42470 WT2  6834 TIP3 H1   HT     0.417000        1.0080           0
   42471 WT2  6834 TIP3 H2   HT     0.417000        1.0080           0
   42472 WT2  6835 TIP3 OH2  OT    -0.834000       15.9994           0
   42473 WT2  6835 TIP3 H1   HT     0.417000        1.0080           0
   42474 WT2  6835 TIP3 H2   HT     0.417000        1.0080           0
   42475 WT2  6836 TIP3 OH2  OT    -0.834000       15.9994           0
   42476 WT2  6836 TIP3 H1   HT     0.417000        1.0080           0
   42477 WT2  6836 TIP3 H2   HT     0.417000        1.0080           0
   42478 WT2  6837 TIP3 OH2  OT    -0.834000       15.9994           0
   42479 WT2  6837 TIP3 H1   HT     0.417000        1.0080           0
   42480 WT2  6837 TIP3 H2   HT     0.417000        1.0080           0
   42481 WT2  6846 TIP3 OH2  OT    -0.834000       15.9994           0
   42482 WT2  6846 TIP3 H1   HT     0.417000        1.0080           0
   42483 WT2  6846 TIP3 H2   HT     0.417000        1.0080           0
   42484 WT2  6848 TIP3 OH2  OT    -0.834000       15.9994           0
   42485 WT2  6848 TIP3 H1   HT     0.417000        1.0080           0
   42486 WT2  6848 TIP3 H2   HT     0.417000        1.0080           0
   42487 WT2  6849 TIP3 OH2  OT    -0.834000       15.9994           0
   42488 WT2  6849 TIP3 H1   HT     0.417000        1.0080           0
   42489 WT2  6849 TIP3 H2   HT     0.417000        1.0080           0
   42490 WT2  6850 TIP3 OH2  OT    -0.834000       15.9994           0
   42491 WT2  6850 TIP3 H1   HT     0.417000        1.0080           0
   42492 WT2  6850 TIP3 H2   HT     0.417000        1.0080           0
   42493 WT2  6851 TIP3 OH2  OT    -0.834000       15.9994           0
   42494 WT2  6851 TIP3 H1   HT     0.417000        1.0080           0
   42495 WT2  6851 TIP3 H2   HT     0.417000        1.0080           0
   42496 WT2  6852 TIP3 OH2  OT    -0.834000       15.9994           0
   42497 WT2  6852 TIP3 H1   HT     0.417000        1.0080           0
   42498 WT2  6852 TIP3 H2   HT     0.417000        1.0080           0
   42499 WT2  6853 TIP3 OH2  OT    -0.834000       15.9994           0
   42500 WT2  6853 TIP3 H1   HT     0.417000        1.0080           0
   42501 WT2  6853 TIP3 H2   HT     0.417000        1.0080           0
   42502 WT2  6854 TIP3 OH2  OT    -0.834000       15.9994           0
   42503 WT2  6854 TIP3 H1   HT     0.417000        1.0080           0
   42504 WT2  6854 TIP3 H2   HT     0.417000        1.0080           0
   42505 WT2  6855 TIP3 OH2  OT    -0.834000       15.9994           0
   42506 WT2  6855 TIP3 H1   HT     0.417000        1.0080           0
   42507 WT2  6855 TIP3 H2   HT     0.417000        1.0080           0
   42508 WT2  6856 TIP3 OH2  OT    -0.834000       15.9994           0
   42509 WT2  6856 TIP3 H1   HT     0.417000        1.0080           0
   42510 WT2  6856 TIP3 H2   HT     0.417000        1.0080           0
   42511 WT2  6857 TIP3 OH2  OT    -0.834000       15.9994           0
   42512 WT2  6857 TIP3 H1   HT     0.417000        1.0080           0
   42513 WT2  6857 TIP3 H2   HT     0.417000        1.0080           0
   42514 WT2  6858 TIP3 OH2  OT    -0.834000       15.9994           0
   42515 WT2  6858 TIP3 H1   HT     0.417000        1.0080           0
   42516 WT2  6858 TIP3 H2   HT     0.417000        1.0080           0
   42517 WT2  6859 TIP3 OH2  OT    -0.834000       15.9994           0
   42518 WT2  6859 TIP3 H1   HT     0.417000        1.0080           0
   42519 WT2  6859 TIP3 H2   HT     0.417000        1.0080           0
   42520 WT2  6863 TIP3 OH2  OT    -0.834000       15.9994           0
   42521 WT2  6863 TIP3 H1   HT     0.417000        1.0080           0
   42522 WT2  6863 TIP3 H2   HT     0.417000        1.0080           0
   42523 WT2  6866 TIP3 OH2  OT    -0.834000       15.9994           0
   42524 WT2  6866 TIP3 H1   HT     0.417000        1.0080           0
   42525 WT2  6866 TIP3 H2   HT     0.417000        1.0080           0
   42526 WT2  6867 TIP3 OH2  OT    -0.834000       15.9994           0
   42527 WT2  6867 TIP3 H1   HT     0.417000        1.0080           0
   42528 WT2  6867 TIP3 H2   HT     0.417000        1.0080           0
   42529 WT2  6869 TIP3 OH2  OT    -0.834000       15.9994           0
   42530 WT2  6869 TIP3 H1   HT     0.417000        1.0080           0
   42531 WT2  6869 TIP3 H2   HT     0.417000        1.0080           0
   42532 WT2  6870 TIP3 OH2  OT    -0.834000       15.9994           0
   42533 WT2  6870 TIP3 H1   HT     0.417000        1.0080           0
   42534 WT2  6870 TIP3 H2   HT     0.417000        1.0080           0
   42535 WT2  6872 TIP3 OH2  OT    -0.834000       15.9994           0
   42536 WT2  6872 TIP3 H1   HT     0.417000        1.0080           0
   42537 WT2  6872 TIP3 H2   HT     0.417000        1.0080           0
   42538 WT2  6873 TIP3 OH2  OT    -0.834000       15.9994           0
   42539 WT2  6873 TIP3 H1   HT     0.417000        1.0080           0
   42540 WT2  6873 TIP3 H2   HT     0.417000        1.0080           0
   42541 WT2  6874 TIP3 OH2  OT    -0.834000       15.9994           0
   42542 WT2  6874 TIP3 H1   HT     0.417000        1.0080           0
   42543 WT2  6874 TIP3 H2   HT     0.417000        1.0080           0
   42544 WT2  6875 TIP3 OH2  OT    -0.834000       15.9994           0
   42545 WT2  6875 TIP3 H1   HT     0.417000        1.0080           0
   42546 WT2  6875 TIP3 H2   HT     0.417000        1.0080           0
   42547 WT2  6876 TIP3 OH2  OT    -0.834000       15.9994           0
   42548 WT2  6876 TIP3 H1   HT     0.417000        1.0080           0
   42549 WT2  6876 TIP3 H2   HT     0.417000        1.0080           0
   42550 WT2  6877 TIP3 OH2  OT    -0.834000       15.9994           0
   42551 WT2  6877 TIP3 H1   HT     0.417000        1.0080           0
   42552 WT2  6877 TIP3 H2   HT     0.417000        1.0080           0
   42553 WT2  6878 TIP3 OH2  OT    -0.834000       15.9994           0
   42554 WT2  6878 TIP3 H1   HT     0.417000        1.0080           0
   42555 WT2  6878 TIP3 H2   HT     0.417000        1.0080           0
   42556 WT2  6879 TIP3 OH2  OT    -0.834000       15.9994           0
   42557 WT2  6879 TIP3 H1   HT     0.417000        1.0080           0
   42558 WT2  6879 TIP3 H2   HT     0.417000        1.0080           0
   42559 WT2  6880 TIP3 OH2  OT    -0.834000       15.9994           0
   42560 WT2  6880 TIP3 H1   HT     0.417000        1.0080           0
   42561 WT2  6880 TIP3 H2   HT     0.417000        1.0080           0
   42562 WT2  6882 TIP3 OH2  OT    -0.834000       15.9994           0
   42563 WT2  6882 TIP3 H1   HT     0.417000        1.0080           0
   42564 WT2  6882 TIP3 H2   HT     0.417000        1.0080           0
   42565 WT2  6884 TIP3 OH2  OT    -0.834000       15.9994           0
   42566 WT2  6884 TIP3 H1   HT     0.417000        1.0080           0
   42567 WT2  6884 TIP3 H2   HT     0.417000        1.0080           0
   42568 WT2  6886 TIP3 OH2  OT    -0.834000       15.9994           0
   42569 WT2  6886 TIP3 H1   HT     0.417000        1.0080           0
   42570 WT2  6886 TIP3 H2   HT     0.417000        1.0080           0
   42571 WT2  6887 TIP3 OH2  OT    -0.834000       15.9994           0
   42572 WT2  6887 TIP3 H1   HT     0.417000        1.0080           0
   42573 WT2  6887 TIP3 H2   HT     0.417000        1.0080           0
   42574 WT2  6889 TIP3 OH2  OT    -0.834000       15.9994           0
   42575 WT2  6889 TIP3 H1   HT     0.417000        1.0080           0
   42576 WT2  6889 TIP3 H2   HT     0.417000        1.0080           0
   42577 WT2  6890 TIP3 OH2  OT    -0.834000       15.9994           0
   42578 WT2  6890 TIP3 H1   HT     0.417000        1.0080           0
   42579 WT2  6890 TIP3 H2   HT     0.417000        1.0080           0
   42580 WT2  6892 TIP3 OH2  OT    -0.834000       15.9994           0
   42581 WT2  6892 TIP3 H1   HT     0.417000        1.0080           0
   42582 WT2  6892 TIP3 H2   HT     0.417000        1.0080           0
   42583 WT2  6893 TIP3 OH2  OT    -0.834000       15.9994           0
   42584 WT2  6893 TIP3 H1   HT     0.417000        1.0080           0
   42585 WT2  6893 TIP3 H2   HT     0.417000        1.0080           0
   42586 WT2  6894 TIP3 OH2  OT    -0.834000       15.9994           0
   42587 WT2  6894 TIP3 H1   HT     0.417000        1.0080           0
   42588 WT2  6894 TIP3 H2   HT     0.417000        1.0080           0
   42589 WT2  6895 TIP3 OH2  OT    -0.834000       15.9994           0
   42590 WT2  6895 TIP3 H1   HT     0.417000        1.0080           0
   42591 WT2  6895 TIP3 H2   HT     0.417000        1.0080           0
   42592 WT2  6896 TIP3 OH2  OT    -0.834000       15.9994           0
   42593 WT2  6896 TIP3 H1   HT     0.417000        1.0080           0
   42594 WT2  6896 TIP3 H2   HT     0.417000        1.0080           0
   42595 WT2  6897 TIP3 OH2  OT    -0.834000       15.9994           0
   42596 WT2  6897 TIP3 H1   HT     0.417000        1.0080           0
   42597 WT2  6897 TIP3 H2   HT     0.417000        1.0080           0
   42598 WT2  6898 TIP3 OH2  OT    -0.834000       15.9994           0
   42599 WT2  6898 TIP3 H1   HT     0.417000        1.0080           0
   42600 WT2  6898 TIP3 H2   HT     0.417000        1.0080           0
   42601 WT2  6899 TIP3 OH2  OT    -0.834000       15.9994           0
   42602 WT2  6899 TIP3 H1   HT     0.417000        1.0080           0
   42603 WT2  6899 TIP3 H2   HT     0.417000        1.0080           0
   42604 WT2  6901 TIP3 OH2  OT    -0.834000       15.9994           0
   42605 WT2  6901 TIP3 H1   HT     0.417000        1.0080           0
   42606 WT2  6901 TIP3 H2   HT     0.417000        1.0080           0
   42607 WT2  6902 TIP3 OH2  OT    -0.834000       15.9994           0
   42608 WT2  6902 TIP3 H1   HT     0.417000        1.0080           0
   42609 WT2  6902 TIP3 H2   HT     0.417000        1.0080           0
   42610 WT2  6903 TIP3 OH2  OT    -0.834000       15.9994           0
   42611 WT2  6903 TIP3 H1   HT     0.417000        1.0080           0
   42612 WT2  6903 TIP3 H2   HT     0.417000        1.0080           0
   42613 WT2  6905 TIP3 OH2  OT    -0.834000       15.9994           0
   42614 WT2  6905 TIP3 H1   HT     0.417000        1.0080           0
   42615 WT2  6905 TIP3 H2   HT     0.417000        1.0080           0
   42616 WT2  6910 TIP3 OH2  OT    -0.834000       15.9994           0
   42617 WT2  6910 TIP3 H1   HT     0.417000        1.0080           0
   42618 WT2  6910 TIP3 H2   HT     0.417000        1.0080           0
   42619 WT2  6911 TIP3 OH2  OT    -0.834000       15.9994           0
   42620 WT2  6911 TIP3 H1   HT     0.417000        1.0080           0
   42621 WT2  6911 TIP3 H2   HT     0.417000        1.0080           0
   42622 WT2  6913 TIP3 OH2  OT    -0.834000       15.9994           0
   42623 WT2  6913 TIP3 H1   HT     0.417000        1.0080           0
   42624 WT2  6913 TIP3 H2   HT     0.417000        1.0080           0
   42625 WT2  6914 TIP3 OH2  OT    -0.834000       15.9994           0
   42626 WT2  6914 TIP3 H1   HT     0.417000        1.0080           0
   42627 WT2  6914 TIP3 H2   HT     0.417000        1.0080           0
   42628 WT2  6915 TIP3 OH2  OT    -0.834000       15.9994           0
   42629 WT2  6915 TIP3 H1   HT     0.417000        1.0080           0
   42630 WT2  6915 TIP3 H2   HT     0.417000        1.0080           0
   42631 WT2  6916 TIP3 OH2  OT    -0.834000       15.9994           0
   42632 WT2  6916 TIP3 H1   HT     0.417000        1.0080           0
   42633 WT2  6916 TIP3 H2   HT     0.417000        1.0080           0
   42634 WT2  6917 TIP3 OH2  OT    -0.834000       15.9994           0
   42635 WT2  6917 TIP3 H1   HT     0.417000        1.0080           0
   42636 WT2  6917 TIP3 H2   HT     0.417000        1.0080           0
   42637 WT2  6918 TIP3 OH2  OT    -0.834000       15.9994           0
   42638 WT2  6918 TIP3 H1   HT     0.417000        1.0080           0
   42639 WT2  6918 TIP3 H2   HT     0.417000        1.0080           0
   42640 WT2  6919 TIP3 OH2  OT    -0.834000       15.9994           0
   42641 WT2  6919 TIP3 H1   HT     0.417000        1.0080           0
   42642 WT2  6919 TIP3 H2   HT     0.417000        1.0080           0
   42643 WT2  6920 TIP3 OH2  OT    -0.834000       15.9994           0
   42644 WT2  6920 TIP3 H1   HT     0.417000        1.0080           0
   42645 WT2  6920 TIP3 H2   HT     0.417000        1.0080           0
   42646 WT2  6921 TIP3 OH2  OT    -0.834000       15.9994           0
   42647 WT2  6921 TIP3 H1   HT     0.417000        1.0080           0
   42648 WT2  6921 TIP3 H2   HT     0.417000        1.0080           0
   42649 WT2  6922 TIP3 OH2  OT    -0.834000       15.9994           0
   42650 WT2  6922 TIP3 H1   HT     0.417000        1.0080           0
   42651 WT2  6922 TIP3 H2   HT     0.417000        1.0080           0
   42652 WT2  6923 TIP3 OH2  OT    -0.834000       15.9994           0
   42653 WT2  6923 TIP3 H1   HT     0.417000        1.0080           0
   42654 WT2  6923 TIP3 H2   HT     0.417000        1.0080           0
   42655 WT2  6925 TIP3 OH2  OT    -0.834000       15.9994           0
   42656 WT2  6925 TIP3 H1   HT     0.417000        1.0080           0
   42657 WT2  6925 TIP3 H2   HT     0.417000        1.0080           0
   42658 WT2  6926 TIP3 OH2  OT    -0.834000       15.9994           0
   42659 WT2  6926 TIP3 H1   HT     0.417000        1.0080           0
   42660 WT2  6926 TIP3 H2   HT     0.417000        1.0080           0
   42661 WT2  6928 TIP3 OH2  OT    -0.834000       15.9994           0
   42662 WT2  6928 TIP3 H1   HT     0.417000        1.0080           0
   42663 WT2  6928 TIP3 H2   HT     0.417000        1.0080           0
   42664 WT2  6930 TIP3 OH2  OT    -0.834000       15.9994           0
   42665 WT2  6930 TIP3 H1   HT     0.417000        1.0080           0
   42666 WT2  6930 TIP3 H2   HT     0.417000        1.0080           0
   42667 WT2  6931 TIP3 OH2  OT    -0.834000       15.9994           0
   42668 WT2  6931 TIP3 H1   HT     0.417000        1.0080           0
   42669 WT2  6931 TIP3 H2   HT     0.417000        1.0080           0
   42670 WT2  6932 TIP3 OH2  OT    -0.834000       15.9994           0
   42671 WT2  6932 TIP3 H1   HT     0.417000        1.0080           0
   42672 WT2  6932 TIP3 H2   HT     0.417000        1.0080           0
   42673 WT2  6933 TIP3 OH2  OT    -0.834000       15.9994           0
   42674 WT2  6933 TIP3 H1   HT     0.417000        1.0080           0
   42675 WT2  6933 TIP3 H2   HT     0.417000        1.0080           0
   42676 WT2  6934 TIP3 OH2  OT    -0.834000       15.9994           0
   42677 WT2  6934 TIP3 H1   HT     0.417000        1.0080           0
   42678 WT2  6934 TIP3 H2   HT     0.417000        1.0080           0
   42679 WT2  6935 TIP3 OH2  OT    -0.834000       15.9994           0
   42680 WT2  6935 TIP3 H1   HT     0.417000        1.0080           0
   42681 WT2  6935 TIP3 H2   HT     0.417000        1.0080           0
   42682 WT2  6936 TIP3 OH2  OT    -0.834000       15.9994           0
   42683 WT2  6936 TIP3 H1   HT     0.417000        1.0080           0
   42684 WT2  6936 TIP3 H2   HT     0.417000        1.0080           0
   42685 WT2  6937 TIP3 OH2  OT    -0.834000       15.9994           0
   42686 WT2  6937 TIP3 H1   HT     0.417000        1.0080           0
   42687 WT2  6937 TIP3 H2   HT     0.417000        1.0080           0
   42688 WT2  6938 TIP3 OH2  OT    -0.834000       15.9994           0
   42689 WT2  6938 TIP3 H1   HT     0.417000        1.0080           0
   42690 WT2  6938 TIP3 H2   HT     0.417000        1.0080           0
   42691 WT2  6939 TIP3 OH2  OT    -0.834000       15.9994           0
   42692 WT2  6939 TIP3 H1   HT     0.417000        1.0080           0
   42693 WT2  6939 TIP3 H2   HT     0.417000        1.0080           0
   42694 WT2  6940 TIP3 OH2  OT    -0.834000       15.9994           0
   42695 WT2  6940 TIP3 H1   HT     0.417000        1.0080           0
   42696 WT2  6940 TIP3 H2   HT     0.417000        1.0080           0
   42697 WT2  6941 TIP3 OH2  OT    -0.834000       15.9994           0
   42698 WT2  6941 TIP3 H1   HT     0.417000        1.0080           0
   42699 WT2  6941 TIP3 H2   HT     0.417000        1.0080           0
   42700 WT2  6942 TIP3 OH2  OT    -0.834000       15.9994           0
   42701 WT2  6942 TIP3 H1   HT     0.417000        1.0080           0
   42702 WT2  6942 TIP3 H2   HT     0.417000        1.0080           0
   42703 WT2  6944 TIP3 OH2  OT    -0.834000       15.9994           0
   42704 WT2  6944 TIP3 H1   HT     0.417000        1.0080           0
   42705 WT2  6944 TIP3 H2   HT     0.417000        1.0080           0
   42706 WT2  6947 TIP3 OH2  OT    -0.834000       15.9994           0
   42707 WT2  6947 TIP3 H1   HT     0.417000        1.0080           0
   42708 WT2  6947 TIP3 H2   HT     0.417000        1.0080           0
   42709 WT2  6952 TIP3 OH2  OT    -0.834000       15.9994           0
   42710 WT2  6952 TIP3 H1   HT     0.417000        1.0080           0
   42711 WT2  6952 TIP3 H2   HT     0.417000        1.0080           0
   42712 WT2  6953 TIP3 OH2  OT    -0.834000       15.9994           0
   42713 WT2  6953 TIP3 H1   HT     0.417000        1.0080           0
   42714 WT2  6953 TIP3 H2   HT     0.417000        1.0080           0
   42715 WT2  6954 TIP3 OH2  OT    -0.834000       15.9994           0
   42716 WT2  6954 TIP3 H1   HT     0.417000        1.0080           0
   42717 WT2  6954 TIP3 H2   HT     0.417000        1.0080           0
   42718 WT2  6955 TIP3 OH2  OT    -0.834000       15.9994           0
   42719 WT2  6955 TIP3 H1   HT     0.417000        1.0080           0
   42720 WT2  6955 TIP3 H2   HT     0.417000        1.0080           0
   42721 WT2  6956 TIP3 OH2  OT    -0.834000       15.9994           0
   42722 WT2  6956 TIP3 H1   HT     0.417000        1.0080           0
   42723 WT2  6956 TIP3 H2   HT     0.417000        1.0080           0
   42724 WT2  6958 TIP3 OH2  OT    -0.834000       15.9994           0
   42725 WT2  6958 TIP3 H1   HT     0.417000        1.0080           0
   42726 WT2  6958 TIP3 H2   HT     0.417000        1.0080           0
   42727 WT2  6959 TIP3 OH2  OT    -0.834000       15.9994           0
   42728 WT2  6959 TIP3 H1   HT     0.417000        1.0080           0
   42729 WT2  6959 TIP3 H2   HT     0.417000        1.0080           0
   42730 WT2  6960 TIP3 OH2  OT    -0.834000       15.9994           0
   42731 WT2  6960 TIP3 H1   HT     0.417000        1.0080           0
   42732 WT2  6960 TIP3 H2   HT     0.417000        1.0080           0
   42733 WT2  6961 TIP3 OH2  OT    -0.834000       15.9994           0
   42734 WT2  6961 TIP3 H1   HT     0.417000        1.0080           0
   42735 WT2  6961 TIP3 H2   HT     0.417000        1.0080           0
   42736 WT2  6962 TIP3 OH2  OT    -0.834000       15.9994           0
   42737 WT2  6962 TIP3 H1   HT     0.417000        1.0080           0
   42738 WT2  6962 TIP3 H2   HT     0.417000        1.0080           0
   42739 WT2  6963 TIP3 OH2  OT    -0.834000       15.9994           0
   42740 WT2  6963 TIP3 H1   HT     0.417000        1.0080           0
   42741 WT2  6963 TIP3 H2   HT     0.417000        1.0080           0
   42742 WT2  6970 TIP3 OH2  OT    -0.834000       15.9994           0
   42743 WT2  6970 TIP3 H1   HT     0.417000        1.0080           0
   42744 WT2  6970 TIP3 H2   HT     0.417000        1.0080           0
   42745 WT2  6973 TIP3 OH2  OT    -0.834000       15.9994           0
   42746 WT2  6973 TIP3 H1   HT     0.417000        1.0080           0
   42747 WT2  6973 TIP3 H2   HT     0.417000        1.0080           0
   42748 WT2  6975 TIP3 OH2  OT    -0.834000       15.9994           0
   42749 WT2  6975 TIP3 H1   HT     0.417000        1.0080           0
   42750 WT2  6975 TIP3 H2   HT     0.417000        1.0080           0
   42751 WT2  6977 TIP3 OH2  OT    -0.834000       15.9994           0
   42752 WT2  6977 TIP3 H1   HT     0.417000        1.0080           0
   42753 WT2  6977 TIP3 H2   HT     0.417000        1.0080           0
   42754 WT2  6978 TIP3 OH2  OT    -0.834000       15.9994           0
   42755 WT2  6978 TIP3 H1   HT     0.417000        1.0080           0
   42756 WT2  6978 TIP3 H2   HT     0.417000        1.0080           0
   42757 WT2  6979 TIP3 OH2  OT    -0.834000       15.9994           0
   42758 WT2  6979 TIP3 H1   HT     0.417000        1.0080           0
   42759 WT2  6979 TIP3 H2   HT     0.417000        1.0080           0
   42760 WT2  6980 TIP3 OH2  OT    -0.834000       15.9994           0
   42761 WT2  6980 TIP3 H1   HT     0.417000        1.0080           0
   42762 WT2  6980 TIP3 H2   HT     0.417000        1.0080           0
   42763 WT2  6981 TIP3 OH2  OT    -0.834000       15.9994           0
   42764 WT2  6981 TIP3 H1   HT     0.417000        1.0080           0
   42765 WT2  6981 TIP3 H2   HT     0.417000        1.0080           0
   42766 WT2  6982 TIP3 OH2  OT    -0.834000       15.9994           0
   42767 WT2  6982 TIP3 H1   HT     0.417000        1.0080           0
   42768 WT2  6982 TIP3 H2   HT     0.417000        1.0080           0
   42769 WT2  6983 TIP3 OH2  OT    -0.834000       15.9994           0
   42770 WT2  6983 TIP3 H1   HT     0.417000        1.0080           0
   42771 WT2  6983 TIP3 H2   HT     0.417000        1.0080           0
   42772 WT2  6984 TIP3 OH2  OT    -0.834000       15.9994           0
   42773 WT2  6984 TIP3 H1   HT     0.417000        1.0080           0
   42774 WT2  6984 TIP3 H2   HT     0.417000        1.0080           0
   42775 WT2  6985 TIP3 OH2  OT    -0.834000       15.9994           0
   42776 WT2  6985 TIP3 H1   HT     0.417000        1.0080           0
   42777 WT2  6985 TIP3 H2   HT     0.417000        1.0080           0
   42778 WT2  6986 TIP3 OH2  OT    -0.834000       15.9994           0
   42779 WT2  6986 TIP3 H1   HT     0.417000        1.0080           0
   42780 WT2  6986 TIP3 H2   HT     0.417000        1.0080           0
   42781 WT2  6993 TIP3 OH2  OT    -0.834000       15.9994           0
   42782 WT2  6993 TIP3 H1   HT     0.417000        1.0080           0
   42783 WT2  6993 TIP3 H2   HT     0.417000        1.0080           0
   42784 WT2  6995 TIP3 OH2  OT    -0.834000       15.9994           0
   42785 WT2  6995 TIP3 H1   HT     0.417000        1.0080           0
   42786 WT2  6995 TIP3 H2   HT     0.417000        1.0080           0
   42787 WT2  6996 TIP3 OH2  OT    -0.834000       15.9994           0
   42788 WT2  6996 TIP3 H1   HT     0.417000        1.0080           0
   42789 WT2  6996 TIP3 H2   HT     0.417000        1.0080           0
   42790 WT2  6997 TIP3 OH2  OT    -0.834000       15.9994           0
   42791 WT2  6997 TIP3 H1   HT     0.417000        1.0080           0
   42792 WT2  6997 TIP3 H2   HT     0.417000        1.0080           0
   42793 WT2  6998 TIP3 OH2  OT    -0.834000       15.9994           0
   42794 WT2  6998 TIP3 H1   HT     0.417000        1.0080           0
   42795 WT2  6998 TIP3 H2   HT     0.417000        1.0080           0
   42796 WT2  6999 TIP3 OH2  OT    -0.834000       15.9994           0
   42797 WT2  6999 TIP3 H1   HT     0.417000        1.0080           0
   42798 WT2  6999 TIP3 H2   HT     0.417000        1.0080           0
   42799 WT2  7000 TIP3 OH2  OT    -0.834000       15.9994           0
   42800 WT2  7000 TIP3 H1   HT     0.417000        1.0080           0
   42801 WT2  7000 TIP3 H2   HT     0.417000        1.0080           0
   42802 WT2  7001 TIP3 OH2  OT    -0.834000       15.9994           0
   42803 WT2  7001 TIP3 H1   HT     0.417000        1.0080           0
   42804 WT2  7001 TIP3 H2   HT     0.417000        1.0080           0
   42805 WT2  7002 TIP3 OH2  OT    -0.834000       15.9994           0
   42806 WT2  7002 TIP3 H1   HT     0.417000        1.0080           0
   42807 WT2  7002 TIP3 H2   HT     0.417000        1.0080           0
   42808 WT2  7004 TIP3 OH2  OT    -0.834000       15.9994           0
   42809 WT2  7004 TIP3 H1   HT     0.417000        1.0080           0
   42810 WT2  7004 TIP3 H2   HT     0.417000        1.0080           0
   42811 WT2  7005 TIP3 OH2  OT    -0.834000       15.9994           0
   42812 WT2  7005 TIP3 H1   HT     0.417000        1.0080           0
   42813 WT2  7005 TIP3 H2   HT     0.417000        1.0080           0
   42814 WT2  7006 TIP3 OH2  OT    -0.834000       15.9994           0
   42815 WT2  7006 TIP3 H1   HT     0.417000        1.0080           0
   42816 WT2  7006 TIP3 H2   HT     0.417000        1.0080           0
   42817 WT2  7007 TIP3 OH2  OT    -0.834000       15.9994           0
   42818 WT2  7007 TIP3 H1   HT     0.417000        1.0080           0
   42819 WT2  7007 TIP3 H2   HT     0.417000        1.0080           0
   42820 WT2  7009 TIP3 OH2  OT    -0.834000       15.9994           0
   42821 WT2  7009 TIP3 H1   HT     0.417000        1.0080           0
   42822 WT2  7009 TIP3 H2   HT     0.417000        1.0080           0
   42823 WT2  7011 TIP3 OH2  OT    -0.834000       15.9994           0
   42824 WT2  7011 TIP3 H1   HT     0.417000        1.0080           0
   42825 WT2  7011 TIP3 H2   HT     0.417000        1.0080           0
   42826 WT2  7014 TIP3 OH2  OT    -0.834000       15.9994           0
   42827 WT2  7014 TIP3 H1   HT     0.417000        1.0080           0
   42828 WT2  7014 TIP3 H2   HT     0.417000        1.0080           0
   42829 WT2  7015 TIP3 OH2  OT    -0.834000       15.9994           0
   42830 WT2  7015 TIP3 H1   HT     0.417000        1.0080           0
   42831 WT2  7015 TIP3 H2   HT     0.417000        1.0080           0
   42832 WT2  7017 TIP3 OH2  OT    -0.834000       15.9994           0
   42833 WT2  7017 TIP3 H1   HT     0.417000        1.0080           0
   42834 WT2  7017 TIP3 H2   HT     0.417000        1.0080           0
   42835 WT2  7018 TIP3 OH2  OT    -0.834000       15.9994           0
   42836 WT2  7018 TIP3 H1   HT     0.417000        1.0080           0
   42837 WT2  7018 TIP3 H2   HT     0.417000        1.0080           0
   42838 WT2  7019 TIP3 OH2  OT    -0.834000       15.9994           0
   42839 WT2  7019 TIP3 H1   HT     0.417000        1.0080           0
   42840 WT2  7019 TIP3 H2   HT     0.417000        1.0080           0
   42841 WT2  7020 TIP3 OH2  OT    -0.834000       15.9994           0
   42842 WT2  7020 TIP3 H1   HT     0.417000        1.0080           0
   42843 WT2  7020 TIP3 H2   HT     0.417000        1.0080           0
   42844 WT2  7021 TIP3 OH2  OT    -0.834000       15.9994           0
   42845 WT2  7021 TIP3 H1   HT     0.417000        1.0080           0
   42846 WT2  7021 TIP3 H2   HT     0.417000        1.0080           0
   42847 WT2  7022 TIP3 OH2  OT    -0.834000       15.9994           0
   42848 WT2  7022 TIP3 H1   HT     0.417000        1.0080           0
   42849 WT2  7022 TIP3 H2   HT     0.417000        1.0080           0
   42850 WT2  7023 TIP3 OH2  OT    -0.834000       15.9994           0
   42851 WT2  7023 TIP3 H1   HT     0.417000        1.0080           0
   42852 WT2  7023 TIP3 H2   HT     0.417000        1.0080           0
   42853 WT2  7024 TIP3 OH2  OT    -0.834000       15.9994           0
   42854 WT2  7024 TIP3 H1   HT     0.417000        1.0080           0
   42855 WT2  7024 TIP3 H2   HT     0.417000        1.0080           0
   42856 WT2  7025 TIP3 OH2  OT    -0.834000       15.9994           0
   42857 WT2  7025 TIP3 H1   HT     0.417000        1.0080           0
   42858 WT2  7025 TIP3 H2   HT     0.417000        1.0080           0
   42859 WT2  7026 TIP3 OH2  OT    -0.834000       15.9994           0
   42860 WT2  7026 TIP3 H1   HT     0.417000        1.0080           0
   42861 WT2  7026 TIP3 H2   HT     0.417000        1.0080           0
   42862 WT2  7027 TIP3 OH2  OT    -0.834000       15.9994           0
   42863 WT2  7027 TIP3 H1   HT     0.417000        1.0080           0
   42864 WT2  7027 TIP3 H2   HT     0.417000        1.0080           0
   42865 WT2  7028 TIP3 OH2  OT    -0.834000       15.9994           0
   42866 WT2  7028 TIP3 H1   HT     0.417000        1.0080           0
   42867 WT2  7028 TIP3 H2   HT     0.417000        1.0080           0
   42868 WT2  7029 TIP3 OH2  OT    -0.834000       15.9994           0
   42869 WT2  7029 TIP3 H1   HT     0.417000        1.0080           0
   42870 WT2  7029 TIP3 H2   HT     0.417000        1.0080           0
   42871 WT2  7035 TIP3 OH2  OT    -0.834000       15.9994           0
   42872 WT2  7035 TIP3 H1   HT     0.417000        1.0080           0
   42873 WT2  7035 TIP3 H2   HT     0.417000        1.0080           0
   42874 WT2  7038 TIP3 OH2  OT    -0.834000       15.9994           0
   42875 WT2  7038 TIP3 H1   HT     0.417000        1.0080           0
   42876 WT2  7038 TIP3 H2   HT     0.417000        1.0080           0
   42877 WT2  7039 TIP3 OH2  OT    -0.834000       15.9994           0
   42878 WT2  7039 TIP3 H1   HT     0.417000        1.0080           0
   42879 WT2  7039 TIP3 H2   HT     0.417000        1.0080           0
   42880 WT2  7040 TIP3 OH2  OT    -0.834000       15.9994           0
   42881 WT2  7040 TIP3 H1   HT     0.417000        1.0080           0
   42882 WT2  7040 TIP3 H2   HT     0.417000        1.0080           0
   42883 WT2  7041 TIP3 OH2  OT    -0.834000       15.9994           0
   42884 WT2  7041 TIP3 H1   HT     0.417000        1.0080           0
   42885 WT2  7041 TIP3 H2   HT     0.417000        1.0080           0
   42886 WT2  7042 TIP3 OH2  OT    -0.834000       15.9994           0
   42887 WT2  7042 TIP3 H1   HT     0.417000        1.0080           0
   42888 WT2  7042 TIP3 H2   HT     0.417000        1.0080           0
   42889 WT2  7043 TIP3 OH2  OT    -0.834000       15.9994           0
   42890 WT2  7043 TIP3 H1   HT     0.417000        1.0080           0
   42891 WT2  7043 TIP3 H2   HT     0.417000        1.0080           0
   42892 WT2  7044 TIP3 OH2  OT    -0.834000       15.9994           0
   42893 WT2  7044 TIP3 H1   HT     0.417000        1.0080           0
   42894 WT2  7044 TIP3 H2   HT     0.417000        1.0080           0
   42895 WT2  7045 TIP3 OH2  OT    -0.834000       15.9994           0
   42896 WT2  7045 TIP3 H1   HT     0.417000        1.0080           0
   42897 WT2  7045 TIP3 H2   HT     0.417000        1.0080           0
   42898 WT2  7047 TIP3 OH2  OT    -0.834000       15.9994           0
   42899 WT2  7047 TIP3 H1   HT     0.417000        1.0080           0
   42900 WT2  7047 TIP3 H2   HT     0.417000        1.0080           0
   42901 WT2  7050 TIP3 OH2  OT    -0.834000       15.9994           0
   42902 WT2  7050 TIP3 H1   HT     0.417000        1.0080           0
   42903 WT2  7050 TIP3 H2   HT     0.417000        1.0080           0
   42904 WT2  7052 TIP3 OH2  OT    -0.834000       15.9994           0
   42905 WT2  7052 TIP3 H1   HT     0.417000        1.0080           0
   42906 WT2  7052 TIP3 H2   HT     0.417000        1.0080           0
   42907 WT2  7058 TIP3 OH2  OT    -0.834000       15.9994           0
   42908 WT2  7058 TIP3 H1   HT     0.417000        1.0080           0
   42909 WT2  7058 TIP3 H2   HT     0.417000        1.0080           0
   42910 WT2  7059 TIP3 OH2  OT    -0.834000       15.9994           0
   42911 WT2  7059 TIP3 H1   HT     0.417000        1.0080           0
   42912 WT2  7059 TIP3 H2   HT     0.417000        1.0080           0
   42913 WT2  7061 TIP3 OH2  OT    -0.834000       15.9994           0
   42914 WT2  7061 TIP3 H1   HT     0.417000        1.0080           0
   42915 WT2  7061 TIP3 H2   HT     0.417000        1.0080           0
   42916 WT2  7062 TIP3 OH2  OT    -0.834000       15.9994           0
   42917 WT2  7062 TIP3 H1   HT     0.417000        1.0080           0
   42918 WT2  7062 TIP3 H2   HT     0.417000        1.0080           0
   42919 WT2  7063 TIP3 OH2  OT    -0.834000       15.9994           0
   42920 WT2  7063 TIP3 H1   HT     0.417000        1.0080           0
   42921 WT2  7063 TIP3 H2   HT     0.417000        1.0080           0
   42922 WT2  7064 TIP3 OH2  OT    -0.834000       15.9994           0
   42923 WT2  7064 TIP3 H1   HT     0.417000        1.0080           0
   42924 WT2  7064 TIP3 H2   HT     0.417000        1.0080           0
   42925 WT2  7065 TIP3 OH2  OT    -0.834000       15.9994           0
   42926 WT2  7065 TIP3 H1   HT     0.417000        1.0080           0
   42927 WT2  7065 TIP3 H2   HT     0.417000        1.0080           0
   42928 WT2  7066 TIP3 OH2  OT    -0.834000       15.9994           0
   42929 WT2  7066 TIP3 H1   HT     0.417000        1.0080           0
   42930 WT2  7066 TIP3 H2   HT     0.417000        1.0080           0
   42931 WT2  7067 TIP3 OH2  OT    -0.834000       15.9994           0
   42932 WT2  7067 TIP3 H1   HT     0.417000        1.0080           0
   42933 WT2  7067 TIP3 H2   HT     0.417000        1.0080           0
   42934 WT2  7068 TIP3 OH2  OT    -0.834000       15.9994           0
   42935 WT2  7068 TIP3 H1   HT     0.417000        1.0080           0
   42936 WT2  7068 TIP3 H2   HT     0.417000        1.0080           0
   42937 WT2  7073 TIP3 OH2  OT    -0.834000       15.9994           0
   42938 WT2  7073 TIP3 H1   HT     0.417000        1.0080           0
   42939 WT2  7073 TIP3 H2   HT     0.417000        1.0080           0
   42940 WT2  7076 TIP3 OH2  OT    -0.834000       15.9994           0
   42941 WT2  7076 TIP3 H1   HT     0.417000        1.0080           0
   42942 WT2  7076 TIP3 H2   HT     0.417000        1.0080           0
   42943 WT2  7078 TIP3 OH2  OT    -0.834000       15.9994           0
   42944 WT2  7078 TIP3 H1   HT     0.417000        1.0080           0
   42945 WT2  7078 TIP3 H2   HT     0.417000        1.0080           0
   42946 WT2  7081 TIP3 OH2  OT    -0.834000       15.9994           0
   42947 WT2  7081 TIP3 H1   HT     0.417000        1.0080           0
   42948 WT2  7081 TIP3 H2   HT     0.417000        1.0080           0
   42949 WT2  7083 TIP3 OH2  OT    -0.834000       15.9994           0
   42950 WT2  7083 TIP3 H1   HT     0.417000        1.0080           0
   42951 WT2  7083 TIP3 H2   HT     0.417000        1.0080           0
   42952 WT2  7084 TIP3 OH2  OT    -0.834000       15.9994           0
   42953 WT2  7084 TIP3 H1   HT     0.417000        1.0080           0
   42954 WT2  7084 TIP3 H2   HT     0.417000        1.0080           0
   42955 WT2  7085 TIP3 OH2  OT    -0.834000       15.9994           0
   42956 WT2  7085 TIP3 H1   HT     0.417000        1.0080           0
   42957 WT2  7085 TIP3 H2   HT     0.417000        1.0080           0
   42958 WT2  7086 TIP3 OH2  OT    -0.834000       15.9994           0
   42959 WT2  7086 TIP3 H1   HT     0.417000        1.0080           0
   42960 WT2  7086 TIP3 H2   HT     0.417000        1.0080           0
   42961 WT2  7087 TIP3 OH2  OT    -0.834000       15.9994           0
   42962 WT2  7087 TIP3 H1   HT     0.417000        1.0080           0
   42963 WT2  7087 TIP3 H2   HT     0.417000        1.0080           0
   42964 WT2  7089 TIP3 OH2  OT    -0.834000       15.9994           0
   42965 WT2  7089 TIP3 H1   HT     0.417000        1.0080           0
   42966 WT2  7089 TIP3 H2   HT     0.417000        1.0080           0
   42967 WT2  7093 TIP3 OH2  OT    -0.834000       15.9994           0
   42968 WT2  7093 TIP3 H1   HT     0.417000        1.0080           0
   42969 WT2  7093 TIP3 H2   HT     0.417000        1.0080           0
   42970 WT2  7099 TIP3 OH2  OT    -0.834000       15.9994           0
   42971 WT2  7099 TIP3 H1   HT     0.417000        1.0080           0
   42972 WT2  7099 TIP3 H2   HT     0.417000        1.0080           0
   42973 WT2  7100 TIP3 OH2  OT    -0.834000       15.9994           0
   42974 WT2  7100 TIP3 H1   HT     0.417000        1.0080           0
   42975 WT2  7100 TIP3 H2   HT     0.417000        1.0080           0
   42976 WT2  7101 TIP3 OH2  OT    -0.834000       15.9994           0
   42977 WT2  7101 TIP3 H1   HT     0.417000        1.0080           0
   42978 WT2  7101 TIP3 H2   HT     0.417000        1.0080           0
   42979 WT2  7102 TIP3 OH2  OT    -0.834000       15.9994           0
   42980 WT2  7102 TIP3 H1   HT     0.417000        1.0080           0
   42981 WT2  7102 TIP3 H2   HT     0.417000        1.0080           0
   42982 WT2  7103 TIP3 OH2  OT    -0.834000       15.9994           0
   42983 WT2  7103 TIP3 H1   HT     0.417000        1.0080           0
   42984 WT2  7103 TIP3 H2   HT     0.417000        1.0080           0
   42985 WT2  7104 TIP3 OH2  OT    -0.834000       15.9994           0
   42986 WT2  7104 TIP3 H1   HT     0.417000        1.0080           0
   42987 WT2  7104 TIP3 H2   HT     0.417000        1.0080           0
   42988 WT2  7105 TIP3 OH2  OT    -0.834000       15.9994           0
   42989 WT2  7105 TIP3 H1   HT     0.417000        1.0080           0
   42990 WT2  7105 TIP3 H2   HT     0.417000        1.0080           0
   42991 WT2  7106 TIP3 OH2  OT    -0.834000       15.9994           0
   42992 WT2  7106 TIP3 H1   HT     0.417000        1.0080           0
   42993 WT2  7106 TIP3 H2   HT     0.417000        1.0080           0
   42994 WT2  7107 TIP3 OH2  OT    -0.834000       15.9994           0
   42995 WT2  7107 TIP3 H1   HT     0.417000        1.0080           0
   42996 WT2  7107 TIP3 H2   HT     0.417000        1.0080           0
   42997 WT2  7108 TIP3 OH2  OT    -0.834000       15.9994           0
   42998 WT2  7108 TIP3 H1   HT     0.417000        1.0080           0
   42999 WT2  7108 TIP3 H2   HT     0.417000        1.0080           0
   43000 WT2  7109 TIP3 OH2  OT    -0.834000       15.9994           0
   43001 WT2  7109 TIP3 H1   HT     0.417000        1.0080           0
   43002 WT2  7109 TIP3 H2   HT     0.417000        1.0080           0
   43003 WT2  7110 TIP3 OH2  OT    -0.834000       15.9994           0
   43004 WT2  7110 TIP3 H1   HT     0.417000        1.0080           0
   43005 WT2  7110 TIP3 H2   HT     0.417000        1.0080           0
   43006 WT2  7111 TIP3 OH2  OT    -0.834000       15.9994           0
   43007 WT2  7111 TIP3 H1   HT     0.417000        1.0080           0
   43008 WT2  7111 TIP3 H2   HT     0.417000        1.0080           0
   43009 WT2  7120 TIP3 OH2  OT    -0.834000       15.9994           0
   43010 WT2  7120 TIP3 H1   HT     0.417000        1.0080           0
   43011 WT2  7120 TIP3 H2   HT     0.417000        1.0080           0
   43012 WT2  7121 TIP3 OH2  OT    -0.834000       15.9994           0
   43013 WT2  7121 TIP3 H1   HT     0.417000        1.0080           0
   43014 WT2  7121 TIP3 H2   HT     0.417000        1.0080           0
   43015 WT2  7122 TIP3 OH2  OT    -0.834000       15.9994           0
   43016 WT2  7122 TIP3 H1   HT     0.417000        1.0080           0
   43017 WT2  7122 TIP3 H2   HT     0.417000        1.0080           0
   43018 WT2  7123 TIP3 OH2  OT    -0.834000       15.9994           0
   43019 WT2  7123 TIP3 H1   HT     0.417000        1.0080           0
   43020 WT2  7123 TIP3 H2   HT     0.417000        1.0080           0
   43021 WT2  7124 TIP3 OH2  OT    -0.834000       15.9994           0
   43022 WT2  7124 TIP3 H1   HT     0.417000        1.0080           0
   43023 WT2  7124 TIP3 H2   HT     0.417000        1.0080           0
   43024 WT2  7125 TIP3 OH2  OT    -0.834000       15.9994           0
   43025 WT2  7125 TIP3 H1   HT     0.417000        1.0080           0
   43026 WT2  7125 TIP3 H2   HT     0.417000        1.0080           0
   43027 WT2  7126 TIP3 OH2  OT    -0.834000       15.9994           0
   43028 WT2  7126 TIP3 H1   HT     0.417000        1.0080           0
   43029 WT2  7126 TIP3 H2   HT     0.417000        1.0080           0
   43030 WT2  7127 TIP3 OH2  OT    -0.834000       15.9994           0
   43031 WT2  7127 TIP3 H1   HT     0.417000        1.0080           0
   43032 WT2  7127 TIP3 H2   HT     0.417000        1.0080           0
   43033 WT2  7128 TIP3 OH2  OT    -0.834000       15.9994           0
   43034 WT2  7128 TIP3 H1   HT     0.417000        1.0080           0
   43035 WT2  7128 TIP3 H2   HT     0.417000        1.0080           0
   43036 WT2  7130 TIP3 OH2  OT    -0.834000       15.9994           0
   43037 WT2  7130 TIP3 H1   HT     0.417000        1.0080           0
   43038 WT2  7130 TIP3 H2   HT     0.417000        1.0080           0
   43039 WT2  7132 TIP3 OH2  OT    -0.834000       15.9994           0
   43040 WT2  7132 TIP3 H1   HT     0.417000        1.0080           0
   43041 WT2  7132 TIP3 H2   HT     0.417000        1.0080           0
   43042 WT2  7133 TIP3 OH2  OT    -0.834000       15.9994           0
   43043 WT2  7133 TIP3 H1   HT     0.417000        1.0080           0
   43044 WT2  7133 TIP3 H2   HT     0.417000        1.0080           0
   43045 WT2  7141 TIP3 OH2  OT    -0.834000       15.9994           0
   43046 WT2  7141 TIP3 H1   HT     0.417000        1.0080           0
   43047 WT2  7141 TIP3 H2   HT     0.417000        1.0080           0
   43048 WT2  7142 TIP3 OH2  OT    -0.834000       15.9994           0
   43049 WT2  7142 TIP3 H1   HT     0.417000        1.0080           0
   43050 WT2  7142 TIP3 H2   HT     0.417000        1.0080           0
   43051 WT2  7143 TIP3 OH2  OT    -0.834000       15.9994           0
   43052 WT2  7143 TIP3 H1   HT     0.417000        1.0080           0
   43053 WT2  7143 TIP3 H2   HT     0.417000        1.0080           0
   43054 WT2  7144 TIP3 OH2  OT    -0.834000       15.9994           0
   43055 WT2  7144 TIP3 H1   HT     0.417000        1.0080           0
   43056 WT2  7144 TIP3 H2   HT     0.417000        1.0080           0
   43057 WT2  7145 TIP3 OH2  OT    -0.834000       15.9994           0
   43058 WT2  7145 TIP3 H1   HT     0.417000        1.0080           0
   43059 WT2  7145 TIP3 H2   HT     0.417000        1.0080           0
   43060 WT2  7146 TIP3 OH2  OT    -0.834000       15.9994           0
   43061 WT2  7146 TIP3 H1   HT     0.417000        1.0080           0
   43062 WT2  7146 TIP3 H2   HT     0.417000        1.0080           0
   43063 WT2  7147 TIP3 OH2  OT    -0.834000       15.9994           0
   43064 WT2  7147 TIP3 H1   HT     0.417000        1.0080           0
   43065 WT2  7147 TIP3 H2   HT     0.417000        1.0080           0
   43066 WT2  7148 TIP3 OH2  OT    -0.834000       15.9994           0
   43067 WT2  7148 TIP3 H1   HT     0.417000        1.0080           0
   43068 WT2  7148 TIP3 H2   HT     0.417000        1.0080           0
   43069 WT2  7149 TIP3 OH2  OT    -0.834000       15.9994           0
   43070 WT2  7149 TIP3 H1   HT     0.417000        1.0080           0
   43071 WT2  7149 TIP3 H2   HT     0.417000        1.0080           0
   43072 WT2  7150 TIP3 OH2  OT    -0.834000       15.9994           0
   43073 WT2  7150 TIP3 H1   HT     0.417000        1.0080           0
   43074 WT2  7150 TIP3 H2   HT     0.417000        1.0080           0
   43075 WT2  7151 TIP3 OH2  OT    -0.834000       15.9994           0
   43076 WT2  7151 TIP3 H1   HT     0.417000        1.0080           0
   43077 WT2  7151 TIP3 H2   HT     0.417000        1.0080           0
   43078 WT2  7152 TIP3 OH2  OT    -0.834000       15.9994           0
   43079 WT2  7152 TIP3 H1   HT     0.417000        1.0080           0
   43080 WT2  7152 TIP3 H2   HT     0.417000        1.0080           0
   43081 WT2  7153 TIP3 OH2  OT    -0.834000       15.9994           0
   43082 WT2  7153 TIP3 H1   HT     0.417000        1.0080           0
   43083 WT2  7153 TIP3 H2   HT     0.417000        1.0080           0
   43084 WT2  7154 TIP3 OH2  OT    -0.834000       15.9994           0
   43085 WT2  7154 TIP3 H1   HT     0.417000        1.0080           0
   43086 WT2  7154 TIP3 H2   HT     0.417000        1.0080           0
   43087 WT2  7161 TIP3 OH2  OT    -0.834000       15.9994           0
   43088 WT2  7161 TIP3 H1   HT     0.417000        1.0080           0
   43089 WT2  7161 TIP3 H2   HT     0.417000        1.0080           0
   43090 WT2  7166 TIP3 OH2  OT    -0.834000       15.9994           0
   43091 WT2  7166 TIP3 H1   HT     0.417000        1.0080           0
   43092 WT2  7166 TIP3 H2   HT     0.417000        1.0080           0
   43093 WT2  7167 TIP3 OH2  OT    -0.834000       15.9994           0
   43094 WT2  7167 TIP3 H1   HT     0.417000        1.0080           0
   43095 WT2  7167 TIP3 H2   HT     0.417000        1.0080           0
   43096 WT2  7168 TIP3 OH2  OT    -0.834000       15.9994           0
   43097 WT2  7168 TIP3 H1   HT     0.417000        1.0080           0
   43098 WT2  7168 TIP3 H2   HT     0.417000        1.0080           0
   43099 WT2  7169 TIP3 OH2  OT    -0.834000       15.9994           0
   43100 WT2  7169 TIP3 H1   HT     0.417000        1.0080           0
   43101 WT2  7169 TIP3 H2   HT     0.417000        1.0080           0
   43102 WT2  7170 TIP3 OH2  OT    -0.834000       15.9994           0
   43103 WT2  7170 TIP3 H1   HT     0.417000        1.0080           0
   43104 WT2  7170 TIP3 H2   HT     0.417000        1.0080           0
   43105 WT2  7171 TIP3 OH2  OT    -0.834000       15.9994           0
   43106 WT2  7171 TIP3 H1   HT     0.417000        1.0080           0
   43107 WT2  7171 TIP3 H2   HT     0.417000        1.0080           0
   43108 WT2  7172 TIP3 OH2  OT    -0.834000       15.9994           0
   43109 WT2  7172 TIP3 H1   HT     0.417000        1.0080           0
   43110 WT2  7172 TIP3 H2   HT     0.417000        1.0080           0
   43111 WT2  7173 TIP3 OH2  OT    -0.834000       15.9994           0
   43112 WT2  7173 TIP3 H1   HT     0.417000        1.0080           0
   43113 WT2  7173 TIP3 H2   HT     0.417000        1.0080           0
   43114 WT2  7174 TIP3 OH2  OT    -0.834000       15.9994           0
   43115 WT2  7174 TIP3 H1   HT     0.417000        1.0080           0
   43116 WT2  7174 TIP3 H2   HT     0.417000        1.0080           0
   43117 WT2  7175 TIP3 OH2  OT    -0.834000       15.9994           0
   43118 WT2  7175 TIP3 H1   HT     0.417000        1.0080           0
   43119 WT2  7175 TIP3 H2   HT     0.417000        1.0080           0
   43120 WT2  7176 TIP3 OH2  OT    -0.834000       15.9994           0
   43121 WT2  7176 TIP3 H1   HT     0.417000        1.0080           0
   43122 WT2  7176 TIP3 H2   HT     0.417000        1.0080           0
   43123 WT2  7178 TIP3 OH2  OT    -0.834000       15.9994           0
   43124 WT2  7178 TIP3 H1   HT     0.417000        1.0080           0
   43125 WT2  7178 TIP3 H2   HT     0.417000        1.0080           0
   43126 WT2  7179 TIP3 OH2  OT    -0.834000       15.9994           0
   43127 WT2  7179 TIP3 H1   HT     0.417000        1.0080           0
   43128 WT2  7179 TIP3 H2   HT     0.417000        1.0080           0
   43129 WT2  7181 TIP3 OH2  OT    -0.834000       15.9994           0
   43130 WT2  7181 TIP3 H1   HT     0.417000        1.0080           0
   43131 WT2  7181 TIP3 H2   HT     0.417000        1.0080           0
   43132 WT2  7182 TIP3 OH2  OT    -0.834000       15.9994           0
   43133 WT2  7182 TIP3 H1   HT     0.417000        1.0080           0
   43134 WT2  7182 TIP3 H2   HT     0.417000        1.0080           0
   43135 WT2  7183 TIP3 OH2  OT    -0.834000       15.9994           0
   43136 WT2  7183 TIP3 H1   HT     0.417000        1.0080           0
   43137 WT2  7183 TIP3 H2   HT     0.417000        1.0080           0
   43138 WT2  7184 TIP3 OH2  OT    -0.834000       15.9994           0
   43139 WT2  7184 TIP3 H1   HT     0.417000        1.0080           0
   43140 WT2  7184 TIP3 H2   HT     0.417000        1.0080           0
   43141 WT2  7185 TIP3 OH2  OT    -0.834000       15.9994           0
   43142 WT2  7185 TIP3 H1   HT     0.417000        1.0080           0
   43143 WT2  7185 TIP3 H2   HT     0.417000        1.0080           0
   43144 WT2  7186 TIP3 OH2  OT    -0.834000       15.9994           0
   43145 WT2  7186 TIP3 H1   HT     0.417000        1.0080           0
   43146 WT2  7186 TIP3 H2   HT     0.417000        1.0080           0
   43147 WT2  7188 TIP3 OH2  OT    -0.834000       15.9994           0
   43148 WT2  7188 TIP3 H1   HT     0.417000        1.0080           0
   43149 WT2  7188 TIP3 H2   HT     0.417000        1.0080           0
   43150 WT2  7189 TIP3 OH2  OT    -0.834000       15.9994           0
   43151 WT2  7189 TIP3 H1   HT     0.417000        1.0080           0
   43152 WT2  7189 TIP3 H2   HT     0.417000        1.0080           0
   43153 WT2  7190 TIP3 OH2  OT    -0.834000       15.9994           0
   43154 WT2  7190 TIP3 H1   HT     0.417000        1.0080           0
   43155 WT2  7190 TIP3 H2   HT     0.417000        1.0080           0
   43156 WT2  7191 TIP3 OH2  OT    -0.834000       15.9994           0
   43157 WT2  7191 TIP3 H1   HT     0.417000        1.0080           0
   43158 WT2  7191 TIP3 H2   HT     0.417000        1.0080           0
   43159 WT2  7192 TIP3 OH2  OT    -0.834000       15.9994           0
   43160 WT2  7192 TIP3 H1   HT     0.417000        1.0080           0
   43161 WT2  7192 TIP3 H2   HT     0.417000        1.0080           0
   43162 WT2  7193 TIP3 OH2  OT    -0.834000       15.9994           0
   43163 WT2  7193 TIP3 H1   HT     0.417000        1.0080           0
   43164 WT2  7193 TIP3 H2   HT     0.417000        1.0080           0
   43165 WT2  7194 TIP3 OH2  OT    -0.834000       15.9994           0
   43166 WT2  7194 TIP3 H1   HT     0.417000        1.0080           0
   43167 WT2  7194 TIP3 H2   HT     0.417000        1.0080           0
   43168 WT2  7195 TIP3 OH2  OT    -0.834000       15.9994           0
   43169 WT2  7195 TIP3 H1   HT     0.417000        1.0080           0
   43170 WT2  7195 TIP3 H2   HT     0.417000        1.0080           0
   43171 WT2  7196 TIP3 OH2  OT    -0.834000       15.9994           0
   43172 WT2  7196 TIP3 H1   HT     0.417000        1.0080           0
   43173 WT2  7196 TIP3 H2   HT     0.417000        1.0080           0
   43174 WT2  7197 TIP3 OH2  OT    -0.834000       15.9994           0
   43175 WT2  7197 TIP3 H1   HT     0.417000        1.0080           0
   43176 WT2  7197 TIP3 H2   HT     0.417000        1.0080           0
   43177 WT2  7198 TIP3 OH2  OT    -0.834000       15.9994           0
   43178 WT2  7198 TIP3 H1   HT     0.417000        1.0080           0
   43179 WT2  7198 TIP3 H2   HT     0.417000        1.0080           0
   43180 WT2  7200 TIP3 OH2  OT    -0.834000       15.9994           0
   43181 WT2  7200 TIP3 H1   HT     0.417000        1.0080           0
   43182 WT2  7200 TIP3 H2   HT     0.417000        1.0080           0
   43183 WT2  7201 TIP3 OH2  OT    -0.834000       15.9994           0
   43184 WT2  7201 TIP3 H1   HT     0.417000        1.0080           0
   43185 WT2  7201 TIP3 H2   HT     0.417000        1.0080           0
   43186 WT2  7203 TIP3 OH2  OT    -0.834000       15.9994           0
   43187 WT2  7203 TIP3 H1   HT     0.417000        1.0080           0
   43188 WT2  7203 TIP3 H2   HT     0.417000        1.0080           0
   43189 WT2  7204 TIP3 OH2  OT    -0.834000       15.9994           0
   43190 WT2  7204 TIP3 H1   HT     0.417000        1.0080           0
   43191 WT2  7204 TIP3 H2   HT     0.417000        1.0080           0
   43192 WT2  7206 TIP3 OH2  OT    -0.834000       15.9994           0
   43193 WT2  7206 TIP3 H1   HT     0.417000        1.0080           0
   43194 WT2  7206 TIP3 H2   HT     0.417000        1.0080           0
   43195 WT2  7207 TIP3 OH2  OT    -0.834000       15.9994           0
   43196 WT2  7207 TIP3 H1   HT     0.417000        1.0080           0
   43197 WT2  7207 TIP3 H2   HT     0.417000        1.0080           0
   43198 WT2  7208 TIP3 OH2  OT    -0.834000       15.9994           0
   43199 WT2  7208 TIP3 H1   HT     0.417000        1.0080           0
   43200 WT2  7208 TIP3 H2   HT     0.417000        1.0080           0
   43201 WT2  7209 TIP3 OH2  OT    -0.834000       15.9994           0
   43202 WT2  7209 TIP3 H1   HT     0.417000        1.0080           0
   43203 WT2  7209 TIP3 H2   HT     0.417000        1.0080           0
   43204 WT2  7210 TIP3 OH2  OT    -0.834000       15.9994           0
   43205 WT2  7210 TIP3 H1   HT     0.417000        1.0080           0
   43206 WT2  7210 TIP3 H2   HT     0.417000        1.0080           0
   43207 WT2  7211 TIP3 OH2  OT    -0.834000       15.9994           0
   43208 WT2  7211 TIP3 H1   HT     0.417000        1.0080           0
   43209 WT2  7211 TIP3 H2   HT     0.417000        1.0080           0
   43210 WT2  7212 TIP3 OH2  OT    -0.834000       15.9994           0
   43211 WT2  7212 TIP3 H1   HT     0.417000        1.0080           0
   43212 WT2  7212 TIP3 H2   HT     0.417000        1.0080           0
   43213 WT2  7213 TIP3 OH2  OT    -0.834000       15.9994           0
   43214 WT2  7213 TIP3 H1   HT     0.417000        1.0080           0
   43215 WT2  7213 TIP3 H2   HT     0.417000        1.0080           0
   43216 WT2  7215 TIP3 OH2  OT    -0.834000       15.9994           0
   43217 WT2  7215 TIP3 H1   HT     0.417000        1.0080           0
   43218 WT2  7215 TIP3 H2   HT     0.417000        1.0080           0
   43219 WT2  7216 TIP3 OH2  OT    -0.834000       15.9994           0
   43220 WT2  7216 TIP3 H1   HT     0.417000        1.0080           0
   43221 WT2  7216 TIP3 H2   HT     0.417000        1.0080           0
   43222 WT2  7218 TIP3 OH2  OT    -0.834000       15.9994           0
   43223 WT2  7218 TIP3 H1   HT     0.417000        1.0080           0
   43224 WT2  7218 TIP3 H2   HT     0.417000        1.0080           0
   43225 WT2  7222 TIP3 OH2  OT    -0.834000       15.9994           0
   43226 WT2  7222 TIP3 H1   HT     0.417000        1.0080           0
   43227 WT2  7222 TIP3 H2   HT     0.417000        1.0080           0
   43228 WT2  7226 TIP3 OH2  OT    -0.834000       15.9994           0
   43229 WT2  7226 TIP3 H1   HT     0.417000        1.0080           0
   43230 WT2  7226 TIP3 H2   HT     0.417000        1.0080           0
   43231 WT2  7227 TIP3 OH2  OT    -0.834000       15.9994           0
   43232 WT2  7227 TIP3 H1   HT     0.417000        1.0080           0
   43233 WT2  7227 TIP3 H2   HT     0.417000        1.0080           0
   43234 WT2  7228 TIP3 OH2  OT    -0.834000       15.9994           0
   43235 WT2  7228 TIP3 H1   HT     0.417000        1.0080           0
   43236 WT2  7228 TIP3 H2   HT     0.417000        1.0080           0
   43237 WT2  7229 TIP3 OH2  OT    -0.834000       15.9994           0
   43238 WT2  7229 TIP3 H1   HT     0.417000        1.0080           0
   43239 WT2  7229 TIP3 H2   HT     0.417000        1.0080           0
   43240 WT2  7231 TIP3 OH2  OT    -0.834000       15.9994           0
   43241 WT2  7231 TIP3 H1   HT     0.417000        1.0080           0
   43242 WT2  7231 TIP3 H2   HT     0.417000        1.0080           0
   43243 WT2  7232 TIP3 OH2  OT    -0.834000       15.9994           0
   43244 WT2  7232 TIP3 H1   HT     0.417000        1.0080           0
   43245 WT2  7232 TIP3 H2   HT     0.417000        1.0080           0
   43246 WT2  7233 TIP3 OH2  OT    -0.834000       15.9994           0
   43247 WT2  7233 TIP3 H1   HT     0.417000        1.0080           0
   43248 WT2  7233 TIP3 H2   HT     0.417000        1.0080           0
   43249 WT2  7234 TIP3 OH2  OT    -0.834000       15.9994           0
   43250 WT2  7234 TIP3 H1   HT     0.417000        1.0080           0
   43251 WT2  7234 TIP3 H2   HT     0.417000        1.0080           0
   43252 WT2  7235 TIP3 OH2  OT    -0.834000       15.9994           0
   43253 WT2  7235 TIP3 H1   HT     0.417000        1.0080           0
   43254 WT2  7235 TIP3 H2   HT     0.417000        1.0080           0
   43255 WT2  7236 TIP3 OH2  OT    -0.834000       15.9994           0
   43256 WT2  7236 TIP3 H1   HT     0.417000        1.0080           0
   43257 WT2  7236 TIP3 H2   HT     0.417000        1.0080           0
   43258 WT2  7237 TIP3 OH2  OT    -0.834000       15.9994           0
   43259 WT2  7237 TIP3 H1   HT     0.417000        1.0080           0
   43260 WT2  7237 TIP3 H2   HT     0.417000        1.0080           0
   43261 WT2  7238 TIP3 OH2  OT    -0.834000       15.9994           0
   43262 WT2  7238 TIP3 H1   HT     0.417000        1.0080           0
   43263 WT2  7238 TIP3 H2   HT     0.417000        1.0080           0
   43264 WT2  7239 TIP3 OH2  OT    -0.834000       15.9994           0
   43265 WT2  7239 TIP3 H1   HT     0.417000        1.0080           0
   43266 WT2  7239 TIP3 H2   HT     0.417000        1.0080           0
   43267 WT2  7246 TIP3 OH2  OT    -0.834000       15.9994           0
   43268 WT2  7246 TIP3 H1   HT     0.417000        1.0080           0
   43269 WT2  7246 TIP3 H2   HT     0.417000        1.0080           0
   43270 WT2  7247 TIP3 OH2  OT    -0.834000       15.9994           0
   43271 WT2  7247 TIP3 H1   HT     0.417000        1.0080           0
   43272 WT2  7247 TIP3 H2   HT     0.417000        1.0080           0
   43273 WT2  7248 TIP3 OH2  OT    -0.834000       15.9994           0
   43274 WT2  7248 TIP3 H1   HT     0.417000        1.0080           0
   43275 WT2  7248 TIP3 H2   HT     0.417000        1.0080           0
   43276 WT2  7249 TIP3 OH2  OT    -0.834000       15.9994           0
   43277 WT2  7249 TIP3 H1   HT     0.417000        1.0080           0
   43278 WT2  7249 TIP3 H2   HT     0.417000        1.0080           0
   43279 WT2  7250 TIP3 OH2  OT    -0.834000       15.9994           0
   43280 WT2  7250 TIP3 H1   HT     0.417000        1.0080           0
   43281 WT2  7250 TIP3 H2   HT     0.417000        1.0080           0
   43282 WT2  7251 TIP3 OH2  OT    -0.834000       15.9994           0
   43283 WT2  7251 TIP3 H1   HT     0.417000        1.0080           0
   43284 WT2  7251 TIP3 H2   HT     0.417000        1.0080           0
   43285 WT2  7252 TIP3 OH2  OT    -0.834000       15.9994           0
   43286 WT2  7252 TIP3 H1   HT     0.417000        1.0080           0
   43287 WT2  7252 TIP3 H2   HT     0.417000        1.0080           0
   43288 WT2  7253 TIP3 OH2  OT    -0.834000       15.9994           0
   43289 WT2  7253 TIP3 H1   HT     0.417000        1.0080           0
   43290 WT2  7253 TIP3 H2   HT     0.417000        1.0080           0
   43291 WT2  7254 TIP3 OH2  OT    -0.834000       15.9994           0
   43292 WT2  7254 TIP3 H1   HT     0.417000        1.0080           0
   43293 WT2  7254 TIP3 H2   HT     0.417000        1.0080           0
   43294 WT2  7255 TIP3 OH2  OT    -0.834000       15.9994           0
   43295 WT2  7255 TIP3 H1   HT     0.417000        1.0080           0
   43296 WT2  7255 TIP3 H2   HT     0.417000        1.0080           0
   43297 WT2  7257 TIP3 OH2  OT    -0.834000       15.9994           0
   43298 WT2  7257 TIP3 H1   HT     0.417000        1.0080           0
   43299 WT2  7257 TIP3 H2   HT     0.417000        1.0080           0
   43300 WT2  7259 TIP3 OH2  OT    -0.834000       15.9994           0
   43301 WT2  7259 TIP3 H1   HT     0.417000        1.0080           0
   43302 WT2  7259 TIP3 H2   HT     0.417000        1.0080           0
   43303 WT2  7260 TIP3 OH2  OT    -0.834000       15.9994           0
   43304 WT2  7260 TIP3 H1   HT     0.417000        1.0080           0
   43305 WT2  7260 TIP3 H2   HT     0.417000        1.0080           0
   43306 WT2  7262 TIP3 OH2  OT    -0.834000       15.9994           0
   43307 WT2  7262 TIP3 H1   HT     0.417000        1.0080           0
   43308 WT2  7262 TIP3 H2   HT     0.417000        1.0080           0
   43309 WT2  7264 TIP3 OH2  OT    -0.834000       15.9994           0
   43310 WT2  7264 TIP3 H1   HT     0.417000        1.0080           0
   43311 WT2  7264 TIP3 H2   HT     0.417000        1.0080           0
   43312 WT2  7265 TIP3 OH2  OT    -0.834000       15.9994           0
   43313 WT2  7265 TIP3 H1   HT     0.417000        1.0080           0
   43314 WT2  7265 TIP3 H2   HT     0.417000        1.0080           0
   43315 WT2  7267 TIP3 OH2  OT    -0.834000       15.9994           0
   43316 WT2  7267 TIP3 H1   HT     0.417000        1.0080           0
   43317 WT2  7267 TIP3 H2   HT     0.417000        1.0080           0
   43318 WT2  7268 TIP3 OH2  OT    -0.834000       15.9994           0
   43319 WT2  7268 TIP3 H1   HT     0.417000        1.0080           0
   43320 WT2  7268 TIP3 H2   HT     0.417000        1.0080           0
   43321 WT2  7269 TIP3 OH2  OT    -0.834000       15.9994           0
   43322 WT2  7269 TIP3 H1   HT     0.417000        1.0080           0
   43323 WT2  7269 TIP3 H2   HT     0.417000        1.0080           0
   43324 WT2  7270 TIP3 OH2  OT    -0.834000       15.9994           0
   43325 WT2  7270 TIP3 H1   HT     0.417000        1.0080           0
   43326 WT2  7270 TIP3 H2   HT     0.417000        1.0080           0
   43327 WT2  7271 TIP3 OH2  OT    -0.834000       15.9994           0
   43328 WT2  7271 TIP3 H1   HT     0.417000        1.0080           0
   43329 WT2  7271 TIP3 H2   HT     0.417000        1.0080           0
   43330 WT2  7272 TIP3 OH2  OT    -0.834000       15.9994           0
   43331 WT2  7272 TIP3 H1   HT     0.417000        1.0080           0
   43332 WT2  7272 TIP3 H2   HT     0.417000        1.0080           0
   43333 WT2  7273 TIP3 OH2  OT    -0.834000       15.9994           0
   43334 WT2  7273 TIP3 H1   HT     0.417000        1.0080           0
   43335 WT2  7273 TIP3 H2   HT     0.417000        1.0080           0
   43336 WT2  7274 TIP3 OH2  OT    -0.834000       15.9994           0
   43337 WT2  7274 TIP3 H1   HT     0.417000        1.0080           0
   43338 WT2  7274 TIP3 H2   HT     0.417000        1.0080           0
   43339 WT2  7275 TIP3 OH2  OT    -0.834000       15.9994           0
   43340 WT2  7275 TIP3 H1   HT     0.417000        1.0080           0
   43341 WT2  7275 TIP3 H2   HT     0.417000        1.0080           0
   43342 WT2  7276 TIP3 OH2  OT    -0.834000       15.9994           0
   43343 WT2  7276 TIP3 H1   HT     0.417000        1.0080           0
   43344 WT2  7276 TIP3 H2   HT     0.417000        1.0080           0
   43345 WT2  7277 TIP3 OH2  OT    -0.834000       15.9994           0
   43346 WT2  7277 TIP3 H1   HT     0.417000        1.0080           0
   43347 WT2  7277 TIP3 H2   HT     0.417000        1.0080           0
   43348 WT2  7279 TIP3 OH2  OT    -0.834000       15.9994           0
   43349 WT2  7279 TIP3 H1   HT     0.417000        1.0080           0
   43350 WT2  7279 TIP3 H2   HT     0.417000        1.0080           0
   43351 WT2  7280 TIP3 OH2  OT    -0.834000       15.9994           0
   43352 WT2  7280 TIP3 H1   HT     0.417000        1.0080           0
   43353 WT2  7280 TIP3 H2   HT     0.417000        1.0080           0
   43354 WT2  7282 TIP3 OH2  OT    -0.834000       15.9994           0
   43355 WT2  7282 TIP3 H1   HT     0.417000        1.0080           0
   43356 WT2  7282 TIP3 H2   HT     0.417000        1.0080           0
   43357 WT2  7287 TIP3 OH2  OT    -0.834000       15.9994           0
   43358 WT2  7287 TIP3 H1   HT     0.417000        1.0080           0
   43359 WT2  7287 TIP3 H2   HT     0.417000        1.0080           0
   43360 WT2  7291 TIP3 OH2  OT    -0.834000       15.9994           0
   43361 WT2  7291 TIP3 H1   HT     0.417000        1.0080           0
   43362 WT2  7291 TIP3 H2   HT     0.417000        1.0080           0
   43363 WT2  7293 TIP3 OH2  OT    -0.834000       15.9994           0
   43364 WT2  7293 TIP3 H1   HT     0.417000        1.0080           0
   43365 WT2  7293 TIP3 H2   HT     0.417000        1.0080           0
   43366 WT2  7294 TIP3 OH2  OT    -0.834000       15.9994           0
   43367 WT2  7294 TIP3 H1   HT     0.417000        1.0080           0
   43368 WT2  7294 TIP3 H2   HT     0.417000        1.0080           0
   43369 WT2  7295 TIP3 OH2  OT    -0.834000       15.9994           0
   43370 WT2  7295 TIP3 H1   HT     0.417000        1.0080           0
   43371 WT2  7295 TIP3 H2   HT     0.417000        1.0080           0
   43372 WT2  7296 TIP3 OH2  OT    -0.834000       15.9994           0
   43373 WT2  7296 TIP3 H1   HT     0.417000        1.0080           0
   43374 WT2  7296 TIP3 H2   HT     0.417000        1.0080           0
   43375 WT2  7297 TIP3 OH2  OT    -0.834000       15.9994           0
   43376 WT2  7297 TIP3 H1   HT     0.417000        1.0080           0
   43377 WT2  7297 TIP3 H2   HT     0.417000        1.0080           0
   43378 WT2  7298 TIP3 OH2  OT    -0.834000       15.9994           0
   43379 WT2  7298 TIP3 H1   HT     0.417000        1.0080           0
   43380 WT2  7298 TIP3 H2   HT     0.417000        1.0080           0
   43381 WT2  7299 TIP3 OH2  OT    -0.834000       15.9994           0
   43382 WT2  7299 TIP3 H1   HT     0.417000        1.0080           0
   43383 WT2  7299 TIP3 H2   HT     0.417000        1.0080           0
   43384 WT2  7300 TIP3 OH2  OT    -0.834000       15.9994           0
   43385 WT2  7300 TIP3 H1   HT     0.417000        1.0080           0
   43386 WT2  7300 TIP3 H2   HT     0.417000        1.0080           0
   43387 WT2  7301 TIP3 OH2  OT    -0.834000       15.9994           0
   43388 WT2  7301 TIP3 H1   HT     0.417000        1.0080           0
   43389 WT2  7301 TIP3 H2   HT     0.417000        1.0080           0
   43390 WT2  7302 TIP3 OH2  OT    -0.834000       15.9994           0
   43391 WT2  7302 TIP3 H1   HT     0.417000        1.0080           0
   43392 WT2  7302 TIP3 H2   HT     0.417000        1.0080           0
   43393 WT2  7303 TIP3 OH2  OT    -0.834000       15.9994           0
   43394 WT2  7303 TIP3 H1   HT     0.417000        1.0080           0
   43395 WT2  7303 TIP3 H2   HT     0.417000        1.0080           0
   43396 WT2  7305 TIP3 OH2  OT    -0.834000       15.9994           0
   43397 WT2  7305 TIP3 H1   HT     0.417000        1.0080           0
   43398 WT2  7305 TIP3 H2   HT     0.417000        1.0080           0
   43399 WT2  7307 TIP3 OH2  OT    -0.834000       15.9994           0
   43400 WT2  7307 TIP3 H1   HT     0.417000        1.0080           0
   43401 WT2  7307 TIP3 H2   HT     0.417000        1.0080           0
   43402 WT2  7310 TIP3 OH2  OT    -0.834000       15.9994           0
   43403 WT2  7310 TIP3 H1   HT     0.417000        1.0080           0
   43404 WT2  7310 TIP3 H2   HT     0.417000        1.0080           0
   43405 WT2  7311 TIP3 OH2  OT    -0.834000       15.9994           0
   43406 WT2  7311 TIP3 H1   HT     0.417000        1.0080           0
   43407 WT2  7311 TIP3 H2   HT     0.417000        1.0080           0
   43408 WT2  7312 TIP3 OH2  OT    -0.834000       15.9994           0
   43409 WT2  7312 TIP3 H1   HT     0.417000        1.0080           0
   43410 WT2  7312 TIP3 H2   HT     0.417000        1.0080           0
   43411 WT2  7313 TIP3 OH2  OT    -0.834000       15.9994           0
   43412 WT2  7313 TIP3 H1   HT     0.417000        1.0080           0
   43413 WT2  7313 TIP3 H2   HT     0.417000        1.0080           0
   43414 WT2  7314 TIP3 OH2  OT    -0.834000       15.9994           0
   43415 WT2  7314 TIP3 H1   HT     0.417000        1.0080           0
   43416 WT2  7314 TIP3 H2   HT     0.417000        1.0080           0
   43417 WT2  7315 TIP3 OH2  OT    -0.834000       15.9994           0
   43418 WT2  7315 TIP3 H1   HT     0.417000        1.0080           0
   43419 WT2  7315 TIP3 H2   HT     0.417000        1.0080           0
   43420 WT2  7316 TIP3 OH2  OT    -0.834000       15.9994           0
   43421 WT2  7316 TIP3 H1   HT     0.417000        1.0080           0
   43422 WT2  7316 TIP3 H2   HT     0.417000        1.0080           0
   43423 WT2  7317 TIP3 OH2  OT    -0.834000       15.9994           0
   43424 WT2  7317 TIP3 H1   HT     0.417000        1.0080           0
   43425 WT2  7317 TIP3 H2   HT     0.417000        1.0080           0
   43426 WT2  7318 TIP3 OH2  OT    -0.834000       15.9994           0
   43427 WT2  7318 TIP3 H1   HT     0.417000        1.0080           0
   43428 WT2  7318 TIP3 H2   HT     0.417000        1.0080           0
   43429 WT2  7319 TIP3 OH2  OT    -0.834000       15.9994           0
   43430 WT2  7319 TIP3 H1   HT     0.417000        1.0080           0
   43431 WT2  7319 TIP3 H2   HT     0.417000        1.0080           0
   43432 WT2  7321 TIP3 OH2  OT    -0.834000       15.9994           0
   43433 WT2  7321 TIP3 H1   HT     0.417000        1.0080           0
   43434 WT2  7321 TIP3 H2   HT     0.417000        1.0080           0
   43435 WT2  7323 TIP3 OH2  OT    -0.834000       15.9994           0
   43436 WT2  7323 TIP3 H1   HT     0.417000        1.0080           0
   43437 WT2  7323 TIP3 H2   HT     0.417000        1.0080           0
   43438 WT2  7324 TIP3 OH2  OT    -0.834000       15.9994           0
   43439 WT2  7324 TIP3 H1   HT     0.417000        1.0080           0
   43440 WT2  7324 TIP3 H2   HT     0.417000        1.0080           0
   43441 WT2  7325 TIP3 OH2  OT    -0.834000       15.9994           0
   43442 WT2  7325 TIP3 H1   HT     0.417000        1.0080           0
   43443 WT2  7325 TIP3 H2   HT     0.417000        1.0080           0
   43444 WT2  7326 TIP3 OH2  OT    -0.834000       15.9994           0
   43445 WT2  7326 TIP3 H1   HT     0.417000        1.0080           0
   43446 WT2  7326 TIP3 H2   HT     0.417000        1.0080           0
   43447 WT2  7328 TIP3 OH2  OT    -0.834000       15.9994           0
   43448 WT2  7328 TIP3 H1   HT     0.417000        1.0080           0
   43449 WT2  7328 TIP3 H2   HT     0.417000        1.0080           0
   43450 WT2  7331 TIP3 OH2  OT    -0.834000       15.9994           0
   43451 WT2  7331 TIP3 H1   HT     0.417000        1.0080           0
   43452 WT2  7331 TIP3 H2   HT     0.417000        1.0080           0
   43453 WT2  7333 TIP3 OH2  OT    -0.834000       15.9994           0
   43454 WT2  7333 TIP3 H1   HT     0.417000        1.0080           0
   43455 WT2  7333 TIP3 H2   HT     0.417000        1.0080           0
   43456 WT2  7334 TIP3 OH2  OT    -0.834000       15.9994           0
   43457 WT2  7334 TIP3 H1   HT     0.417000        1.0080           0
   43458 WT2  7334 TIP3 H2   HT     0.417000        1.0080           0
   43459 WT2  7335 TIP3 OH2  OT    -0.834000       15.9994           0
   43460 WT2  7335 TIP3 H1   HT     0.417000        1.0080           0
   43461 WT2  7335 TIP3 H2   HT     0.417000        1.0080           0
   43462 WT2  7336 TIP3 OH2  OT    -0.834000       15.9994           0
   43463 WT2  7336 TIP3 H1   HT     0.417000        1.0080           0
   43464 WT2  7336 TIP3 H2   HT     0.417000        1.0080           0
   43465 WT2  7337 TIP3 OH2  OT    -0.834000       15.9994           0
   43466 WT2  7337 TIP3 H1   HT     0.417000        1.0080           0
   43467 WT2  7337 TIP3 H2   HT     0.417000        1.0080           0
   43468 WT2  7338 TIP3 OH2  OT    -0.834000       15.9994           0
   43469 WT2  7338 TIP3 H1   HT     0.417000        1.0080           0
   43470 WT2  7338 TIP3 H2   HT     0.417000        1.0080           0
   43471 WT2  7339 TIP3 OH2  OT    -0.834000       15.9994           0
   43472 WT2  7339 TIP3 H1   HT     0.417000        1.0080           0
   43473 WT2  7339 TIP3 H2   HT     0.417000        1.0080           0
   43474 WT2  7340 TIP3 OH2  OT    -0.834000       15.9994           0
   43475 WT2  7340 TIP3 H1   HT     0.417000        1.0080           0
   43476 WT2  7340 TIP3 H2   HT     0.417000        1.0080           0
   43477 WT2  7343 TIP3 OH2  OT    -0.834000       15.9994           0
   43478 WT2  7343 TIP3 H1   HT     0.417000        1.0080           0
   43479 WT2  7343 TIP3 H2   HT     0.417000        1.0080           0
   43480 WT2  7351 TIP3 OH2  OT    -0.834000       15.9994           0
   43481 WT2  7351 TIP3 H1   HT     0.417000        1.0080           0
   43482 WT2  7351 TIP3 H2   HT     0.417000        1.0080           0
   43483 WT2  7352 TIP3 OH2  OT    -0.834000       15.9994           0
   43484 WT2  7352 TIP3 H1   HT     0.417000        1.0080           0
   43485 WT2  7352 TIP3 H2   HT     0.417000        1.0080           0
   43486 WT2  7353 TIP3 OH2  OT    -0.834000       15.9994           0
   43487 WT2  7353 TIP3 H1   HT     0.417000        1.0080           0
   43488 WT2  7353 TIP3 H2   HT     0.417000        1.0080           0
   43489 WT2  7354 TIP3 OH2  OT    -0.834000       15.9994           0
   43490 WT2  7354 TIP3 H1   HT     0.417000        1.0080           0
   43491 WT2  7354 TIP3 H2   HT     0.417000        1.0080           0
   43492 WT2  7355 TIP3 OH2  OT    -0.834000       15.9994           0
   43493 WT2  7355 TIP3 H1   HT     0.417000        1.0080           0
   43494 WT2  7355 TIP3 H2   HT     0.417000        1.0080           0
   43495 WT2  7356 TIP3 OH2  OT    -0.834000       15.9994           0
   43496 WT2  7356 TIP3 H1   HT     0.417000        1.0080           0
   43497 WT2  7356 TIP3 H2   HT     0.417000        1.0080           0
   43498 WT2  7357 TIP3 OH2  OT    -0.834000       15.9994           0
   43499 WT2  7357 TIP3 H1   HT     0.417000        1.0080           0
   43500 WT2  7357 TIP3 H2   HT     0.417000        1.0080           0
   43501 WT2  7358 TIP3 OH2  OT    -0.834000       15.9994           0
   43502 WT2  7358 TIP3 H1   HT     0.417000        1.0080           0
   43503 WT2  7358 TIP3 H2   HT     0.417000        1.0080           0
   43504 WT2  7359 TIP3 OH2  OT    -0.834000       15.9994           0
   43505 WT2  7359 TIP3 H1   HT     0.417000        1.0080           0
   43506 WT2  7359 TIP3 H2   HT     0.417000        1.0080           0
   43507 WT2  7360 TIP3 OH2  OT    -0.834000       15.9994           0
   43508 WT2  7360 TIP3 H1   HT     0.417000        1.0080           0
   43509 WT2  7360 TIP3 H2   HT     0.417000        1.0080           0
   43510 WT2  7361 TIP3 OH2  OT    -0.834000       15.9994           0
   43511 WT2  7361 TIP3 H1   HT     0.417000        1.0080           0
   43512 WT2  7361 TIP3 H2   HT     0.417000        1.0080           0
   43513 WT2  7362 TIP3 OH2  OT    -0.834000       15.9994           0
   43514 WT2  7362 TIP3 H1   HT     0.417000        1.0080           0
   43515 WT2  7362 TIP3 H2   HT     0.417000        1.0080           0
   43516 WT2  7364 TIP3 OH2  OT    -0.834000       15.9994           0
   43517 WT2  7364 TIP3 H1   HT     0.417000        1.0080           0
   43518 WT2  7364 TIP3 H2   HT     0.417000        1.0080           0
   43519 WT2  7365 TIP3 OH2  OT    -0.834000       15.9994           0
   43520 WT2  7365 TIP3 H1   HT     0.417000        1.0080           0
   43521 WT2  7365 TIP3 H2   HT     0.417000        1.0080           0
   43522 WT2  7370 TIP3 OH2  OT    -0.834000       15.9994           0
   43523 WT2  7370 TIP3 H1   HT     0.417000        1.0080           0
   43524 WT2  7370 TIP3 H2   HT     0.417000        1.0080           0
   43525 WT2  7371 TIP3 OH2  OT    -0.834000       15.9994           0
   43526 WT2  7371 TIP3 H1   HT     0.417000        1.0080           0
   43527 WT2  7371 TIP3 H2   HT     0.417000        1.0080           0
   43528 WT2  7374 TIP3 OH2  OT    -0.834000       15.9994           0
   43529 WT2  7374 TIP3 H1   HT     0.417000        1.0080           0
   43530 WT2  7374 TIP3 H2   HT     0.417000        1.0080           0
   43531 WT2  7376 TIP3 OH2  OT    -0.834000       15.9994           0
   43532 WT2  7376 TIP3 H1   HT     0.417000        1.0080           0
   43533 WT2  7376 TIP3 H2   HT     0.417000        1.0080           0
   43534 WT2  7378 TIP3 OH2  OT    -0.834000       15.9994           0
   43535 WT2  7378 TIP3 H1   HT     0.417000        1.0080           0
   43536 WT2  7378 TIP3 H2   HT     0.417000        1.0080           0
   43537 WT2  7379 TIP3 OH2  OT    -0.834000       15.9994           0
   43538 WT2  7379 TIP3 H1   HT     0.417000        1.0080           0
   43539 WT2  7379 TIP3 H2   HT     0.417000        1.0080           0
   43540 WT2  7380 TIP3 OH2  OT    -0.834000       15.9994           0
   43541 WT2  7380 TIP3 H1   HT     0.417000        1.0080           0
   43542 WT2  7380 TIP3 H2   HT     0.417000        1.0080           0
   43543 WT2  7381 TIP3 OH2  OT    -0.834000       15.9994           0
   43544 WT2  7381 TIP3 H1   HT     0.417000        1.0080           0
   43545 WT2  7381 TIP3 H2   HT     0.417000        1.0080           0
   43546 WT2  7382 TIP3 OH2  OT    -0.834000       15.9994           0
   43547 WT2  7382 TIP3 H1   HT     0.417000        1.0080           0
   43548 WT2  7382 TIP3 H2   HT     0.417000        1.0080           0
   43549 WT2  7383 TIP3 OH2  OT    -0.834000       15.9994           0
   43550 WT2  7383 TIP3 H1   HT     0.417000        1.0080           0
   43551 WT2  7383 TIP3 H2   HT     0.417000        1.0080           0
   43552 WT2  7384 TIP3 OH2  OT    -0.834000       15.9994           0
   43553 WT2  7384 TIP3 H1   HT     0.417000        1.0080           0
   43554 WT2  7384 TIP3 H2   HT     0.417000        1.0080           0
   43555 WT2  7385 TIP3 OH2  OT    -0.834000       15.9994           0
   43556 WT2  7385 TIP3 H1   HT     0.417000        1.0080           0
   43557 WT2  7385 TIP3 H2   HT     0.417000        1.0080           0
   43558 WT2  7393 TIP3 OH2  OT    -0.834000       15.9994           0
   43559 WT2  7393 TIP3 H1   HT     0.417000        1.0080           0
   43560 WT2  7393 TIP3 H2   HT     0.417000        1.0080           0
   43561 WT2  7394 TIP3 OH2  OT    -0.834000       15.9994           0
   43562 WT2  7394 TIP3 H1   HT     0.417000        1.0080           0
   43563 WT2  7394 TIP3 H2   HT     0.417000        1.0080           0
   43564 WT2  7395 TIP3 OH2  OT    -0.834000       15.9994           0
   43565 WT2  7395 TIP3 H1   HT     0.417000        1.0080           0
   43566 WT2  7395 TIP3 H2   HT     0.417000        1.0080           0
   43567 WT2  7396 TIP3 OH2  OT    -0.834000       15.9994           0
   43568 WT2  7396 TIP3 H1   HT     0.417000        1.0080           0
   43569 WT2  7396 TIP3 H2   HT     0.417000        1.0080           0
   43570 WT2  7397 TIP3 OH2  OT    -0.834000       15.9994           0
   43571 WT2  7397 TIP3 H1   HT     0.417000        1.0080           0
   43572 WT2  7397 TIP3 H2   HT     0.417000        1.0080           0
   43573 WT2  7398 TIP3 OH2  OT    -0.834000       15.9994           0
   43574 WT2  7398 TIP3 H1   HT     0.417000        1.0080           0
   43575 WT2  7398 TIP3 H2   HT     0.417000        1.0080           0
   43576 WT2  7399 TIP3 OH2  OT    -0.834000       15.9994           0
   43577 WT2  7399 TIP3 H1   HT     0.417000        1.0080           0
   43578 WT2  7399 TIP3 H2   HT     0.417000        1.0080           0
   43579 WT2  7400 TIP3 OH2  OT    -0.834000       15.9994           0
   43580 WT2  7400 TIP3 H1   HT     0.417000        1.0080           0
   43581 WT2  7400 TIP3 H2   HT     0.417000        1.0080           0
   43582 WT2  7401 TIP3 OH2  OT    -0.834000       15.9994           0
   43583 WT2  7401 TIP3 H1   HT     0.417000        1.0080           0
   43584 WT2  7401 TIP3 H2   HT     0.417000        1.0080           0
   43585 WT2  7402 TIP3 OH2  OT    -0.834000       15.9994           0
   43586 WT2  7402 TIP3 H1   HT     0.417000        1.0080           0
   43587 WT2  7402 TIP3 H2   HT     0.417000        1.0080           0
   43588 WT2  7403 TIP3 OH2  OT    -0.834000       15.9994           0
   43589 WT2  7403 TIP3 H1   HT     0.417000        1.0080           0
   43590 WT2  7403 TIP3 H2   HT     0.417000        1.0080           0
   43591 WT2  7404 TIP3 OH2  OT    -0.834000       15.9994           0
   43592 WT2  7404 TIP3 H1   HT     0.417000        1.0080           0
   43593 WT2  7404 TIP3 H2   HT     0.417000        1.0080           0
   43594 WT2  7405 TIP3 OH2  OT    -0.834000       15.9994           0
   43595 WT2  7405 TIP3 H1   HT     0.417000        1.0080           0
   43596 WT2  7405 TIP3 H2   HT     0.417000        1.0080           0
   43597 WT2  7407 TIP3 OH2  OT    -0.834000       15.9994           0
   43598 WT2  7407 TIP3 H1   HT     0.417000        1.0080           0
   43599 WT2  7407 TIP3 H2   HT     0.417000        1.0080           0
   43600 WT2  7408 TIP3 OH2  OT    -0.834000       15.9994           0
   43601 WT2  7408 TIP3 H1   HT     0.417000        1.0080           0
   43602 WT2  7408 TIP3 H2   HT     0.417000        1.0080           0
   43603 WT2  7415 TIP3 OH2  OT    -0.834000       15.9994           0
   43604 WT2  7415 TIP3 H1   HT     0.417000        1.0080           0
   43605 WT2  7415 TIP3 H2   HT     0.417000        1.0080           0
   43606 WT2  7416 TIP3 OH2  OT    -0.834000       15.9994           0
   43607 WT2  7416 TIP3 H1   HT     0.417000        1.0080           0
   43608 WT2  7416 TIP3 H2   HT     0.417000        1.0080           0
   43609 WT2  7418 TIP3 OH2  OT    -0.834000       15.9994           0
   43610 WT2  7418 TIP3 H1   HT     0.417000        1.0080           0
   43611 WT2  7418 TIP3 H2   HT     0.417000        1.0080           0
   43612 WT2  7419 TIP3 OH2  OT    -0.834000       15.9994           0
   43613 WT2  7419 TIP3 H1   HT     0.417000        1.0080           0
   43614 WT2  7419 TIP3 H2   HT     0.417000        1.0080           0
   43615 WT2  7420 TIP3 OH2  OT    -0.834000       15.9994           0
   43616 WT2  7420 TIP3 H1   HT     0.417000        1.0080           0
   43617 WT2  7420 TIP3 H2   HT     0.417000        1.0080           0
   43618 WT2  7421 TIP3 OH2  OT    -0.834000       15.9994           0
   43619 WT2  7421 TIP3 H1   HT     0.417000        1.0080           0
   43620 WT2  7421 TIP3 H2   HT     0.417000        1.0080           0
   43621 WT2  7422 TIP3 OH2  OT    -0.834000       15.9994           0
   43622 WT2  7422 TIP3 H1   HT     0.417000        1.0080           0
   43623 WT2  7422 TIP3 H2   HT     0.417000        1.0080           0
   43624 WT2  7423 TIP3 OH2  OT    -0.834000       15.9994           0
   43625 WT2  7423 TIP3 H1   HT     0.417000        1.0080           0
   43626 WT2  7423 TIP3 H2   HT     0.417000        1.0080           0
   43627 WT2  7424 TIP3 OH2  OT    -0.834000       15.9994           0
   43628 WT2  7424 TIP3 H1   HT     0.417000        1.0080           0
   43629 WT2  7424 TIP3 H2   HT     0.417000        1.0080           0
   43630 WT2  7425 TIP3 OH2  OT    -0.834000       15.9994           0
   43631 WT2  7425 TIP3 H1   HT     0.417000        1.0080           0
   43632 WT2  7425 TIP3 H2   HT     0.417000        1.0080           0
   43633 WT2  7426 TIP3 OH2  OT    -0.834000       15.9994           0
   43634 WT2  7426 TIP3 H1   HT     0.417000        1.0080           0
   43635 WT2  7426 TIP3 H2   HT     0.417000        1.0080           0
   43636 WT2  7428 TIP3 OH2  OT    -0.834000       15.9994           0
   43637 WT2  7428 TIP3 H1   HT     0.417000        1.0080           0
   43638 WT2  7428 TIP3 H2   HT     0.417000        1.0080           0
   43639 WT2  7429 TIP3 OH2  OT    -0.834000       15.9994           0
   43640 WT2  7429 TIP3 H1   HT     0.417000        1.0080           0
   43641 WT2  7429 TIP3 H2   HT     0.417000        1.0080           0
   43642 WT2  7430 TIP3 OH2  OT    -0.834000       15.9994           0
   43643 WT2  7430 TIP3 H1   HT     0.417000        1.0080           0
   43644 WT2  7430 TIP3 H2   HT     0.417000        1.0080           0
   43645 WT2  7431 TIP3 OH2  OT    -0.834000       15.9994           0
   43646 WT2  7431 TIP3 H1   HT     0.417000        1.0080           0
   43647 WT2  7431 TIP3 H2   HT     0.417000        1.0080           0
   43648 WT2  7434 TIP3 OH2  OT    -0.834000       15.9994           0
   43649 WT2  7434 TIP3 H1   HT     0.417000        1.0080           0
   43650 WT2  7434 TIP3 H2   HT     0.417000        1.0080           0
   43651 WT2  7435 TIP3 OH2  OT    -0.834000       15.9994           0
   43652 WT2  7435 TIP3 H1   HT     0.417000        1.0080           0
   43653 WT2  7435 TIP3 H2   HT     0.417000        1.0080           0
   43654 WT2  7437 TIP3 OH2  OT    -0.834000       15.9994           0
   43655 WT2  7437 TIP3 H1   HT     0.417000        1.0080           0
   43656 WT2  7437 TIP3 H2   HT     0.417000        1.0080           0
   43657 WT2  7438 TIP3 OH2  OT    -0.834000       15.9994           0
   43658 WT2  7438 TIP3 H1   HT     0.417000        1.0080           0
   43659 WT2  7438 TIP3 H2   HT     0.417000        1.0080           0
   43660 WT2  7439 TIP3 OH2  OT    -0.834000       15.9994           0
   43661 WT2  7439 TIP3 H1   HT     0.417000        1.0080           0
   43662 WT2  7439 TIP3 H2   HT     0.417000        1.0080           0
   43663 WT2  7441 TIP3 OH2  OT    -0.834000       15.9994           0
   43664 WT2  7441 TIP3 H1   HT     0.417000        1.0080           0
   43665 WT2  7441 TIP3 H2   HT     0.417000        1.0080           0
   43666 WT2  7442 TIP3 OH2  OT    -0.834000       15.9994           0
   43667 WT2  7442 TIP3 H1   HT     0.417000        1.0080           0
   43668 WT2  7442 TIP3 H2   HT     0.417000        1.0080           0
   43669 WT2  7443 TIP3 OH2  OT    -0.834000       15.9994           0
   43670 WT2  7443 TIP3 H1   HT     0.417000        1.0080           0
   43671 WT2  7443 TIP3 H2   HT     0.417000        1.0080           0
   43672 WT2  7444 TIP3 OH2  OT    -0.834000       15.9994           0
   43673 WT2  7444 TIP3 H1   HT     0.417000        1.0080           0
   43674 WT2  7444 TIP3 H2   HT     0.417000        1.0080           0
   43675 WT2  7447 TIP3 OH2  OT    -0.834000       15.9994           0
   43676 WT2  7447 TIP3 H1   HT     0.417000        1.0080           0
   43677 WT2  7447 TIP3 H2   HT     0.417000        1.0080           0
   43678 WT2  7449 TIP3 OH2  OT    -0.834000       15.9994           0
   43679 WT2  7449 TIP3 H1   HT     0.417000        1.0080           0
   43680 WT2  7449 TIP3 H2   HT     0.417000        1.0080           0
   43681 WT2  7451 TIP3 OH2  OT    -0.834000       15.9994           0
   43682 WT2  7451 TIP3 H1   HT     0.417000        1.0080           0
   43683 WT2  7451 TIP3 H2   HT     0.417000        1.0080           0
   43684 WT2  7454 TIP3 OH2  OT    -0.834000       15.9994           0
   43685 WT2  7454 TIP3 H1   HT     0.417000        1.0080           0
   43686 WT2  7454 TIP3 H2   HT     0.417000        1.0080           0
   43687 WT2  7455 TIP3 OH2  OT    -0.834000       15.9994           0
   43688 WT2  7455 TIP3 H1   HT     0.417000        1.0080           0
   43689 WT2  7455 TIP3 H2   HT     0.417000        1.0080           0
   43690 WT2  7457 TIP3 OH2  OT    -0.834000       15.9994           0
   43691 WT2  7457 TIP3 H1   HT     0.417000        1.0080           0
   43692 WT2  7457 TIP3 H2   HT     0.417000        1.0080           0
   43693 WT2  7460 TIP3 OH2  OT    -0.834000       15.9994           0
   43694 WT2  7460 TIP3 H1   HT     0.417000        1.0080           0
   43695 WT2  7460 TIP3 H2   HT     0.417000        1.0080           0
   43696 WT2  7461 TIP3 OH2  OT    -0.834000       15.9994           0
   43697 WT2  7461 TIP3 H1   HT     0.417000        1.0080           0
   43698 WT2  7461 TIP3 H2   HT     0.417000        1.0080           0
   43699 WT2  7462 TIP3 OH2  OT    -0.834000       15.9994           0
   43700 WT2  7462 TIP3 H1   HT     0.417000        1.0080           0
   43701 WT2  7462 TIP3 H2   HT     0.417000        1.0080           0
   43702 WT2  7463 TIP3 OH2  OT    -0.834000       15.9994           0
   43703 WT2  7463 TIP3 H1   HT     0.417000        1.0080           0
   43704 WT2  7463 TIP3 H2   HT     0.417000        1.0080           0
   43705 WT2  7464 TIP3 OH2  OT    -0.834000       15.9994           0
   43706 WT2  7464 TIP3 H1   HT     0.417000        1.0080           0
   43707 WT2  7464 TIP3 H2   HT     0.417000        1.0080           0
   43708 WT2  7465 TIP3 OH2  OT    -0.834000       15.9994           0
   43709 WT2  7465 TIP3 H1   HT     0.417000        1.0080           0
   43710 WT2  7465 TIP3 H2   HT     0.417000        1.0080           0
   43711 WT2  7466 TIP3 OH2  OT    -0.834000       15.9994           0
   43712 WT2  7466 TIP3 H1   HT     0.417000        1.0080           0
   43713 WT2  7466 TIP3 H2   HT     0.417000        1.0080           0
   43714 WT2  7471 TIP3 OH2  OT    -0.834000       15.9994           0
   43715 WT2  7471 TIP3 H1   HT     0.417000        1.0080           0
   43716 WT2  7471 TIP3 H2   HT     0.417000        1.0080           0
   43717 WT2  7475 TIP3 OH2  OT    -0.834000       15.9994           0
   43718 WT2  7475 TIP3 H1   HT     0.417000        1.0080           0
   43719 WT2  7475 TIP3 H2   HT     0.417000        1.0080           0
   43720 WT2  7477 TIP3 OH2  OT    -0.834000       15.9994           0
   43721 WT2  7477 TIP3 H1   HT     0.417000        1.0080           0
   43722 WT2  7477 TIP3 H2   HT     0.417000        1.0080           0
   43723 WT2  7479 TIP3 OH2  OT    -0.834000       15.9994           0
   43724 WT2  7479 TIP3 H1   HT     0.417000        1.0080           0
   43725 WT2  7479 TIP3 H2   HT     0.417000        1.0080           0
   43726 WT2  7480 TIP3 OH2  OT    -0.834000       15.9994           0
   43727 WT2  7480 TIP3 H1   HT     0.417000        1.0080           0
   43728 WT2  7480 TIP3 H2   HT     0.417000        1.0080           0
   43729 WT2  7481 TIP3 OH2  OT    -0.834000       15.9994           0
   43730 WT2  7481 TIP3 H1   HT     0.417000        1.0080           0
   43731 WT2  7481 TIP3 H2   HT     0.417000        1.0080           0
   43732 WT2  7482 TIP3 OH2  OT    -0.834000       15.9994           0
   43733 WT2  7482 TIP3 H1   HT     0.417000        1.0080           0
   43734 WT2  7482 TIP3 H2   HT     0.417000        1.0080           0
   43735 WT2  7483 TIP3 OH2  OT    -0.834000       15.9994           0
   43736 WT2  7483 TIP3 H1   HT     0.417000        1.0080           0
   43737 WT2  7483 TIP3 H2   HT     0.417000        1.0080           0
   43738 WT2  7484 TIP3 OH2  OT    -0.834000       15.9994           0
   43739 WT2  7484 TIP3 H1   HT     0.417000        1.0080           0
   43740 WT2  7484 TIP3 H2   HT     0.417000        1.0080           0
   43741 WT2  7485 TIP3 OH2  OT    -0.834000       15.9994           0
   43742 WT2  7485 TIP3 H1   HT     0.417000        1.0080           0
   43743 WT2  7485 TIP3 H2   HT     0.417000        1.0080           0
   43744 WT2  7486 TIP3 OH2  OT    -0.834000       15.9994           0
   43745 WT2  7486 TIP3 H1   HT     0.417000        1.0080           0
   43746 WT2  7486 TIP3 H2   HT     0.417000        1.0080           0
   43747 WT2  7487 TIP3 OH2  OT    -0.834000       15.9994           0
   43748 WT2  7487 TIP3 H1   HT     0.417000        1.0080           0
   43749 WT2  7487 TIP3 H2   HT     0.417000        1.0080           0
   43750 WT2  7488 TIP3 OH2  OT    -0.834000       15.9994           0
   43751 WT2  7488 TIP3 H1   HT     0.417000        1.0080           0
   43752 WT2  7488 TIP3 H2   HT     0.417000        1.0080           0
   43753 WT2  7489 TIP3 OH2  OT    -0.834000       15.9994           0
   43754 WT2  7489 TIP3 H1   HT     0.417000        1.0080           0
   43755 WT2  7489 TIP3 H2   HT     0.417000        1.0080           0
   43756 WT2  7490 TIP3 OH2  OT    -0.834000       15.9994           0
   43757 WT2  7490 TIP3 H1   HT     0.417000        1.0080           0
   43758 WT2  7490 TIP3 H2   HT     0.417000        1.0080           0
   43759 WT2  7491 TIP3 OH2  OT    -0.834000       15.9994           0
   43760 WT2  7491 TIP3 H1   HT     0.417000        1.0080           0
   43761 WT2  7491 TIP3 H2   HT     0.417000        1.0080           0
   43762 WT2  7493 TIP3 OH2  OT    -0.834000       15.9994           0
   43763 WT2  7493 TIP3 H1   HT     0.417000        1.0080           0
   43764 WT2  7493 TIP3 H2   HT     0.417000        1.0080           0
   43765 WT2  7496 TIP3 OH2  OT    -0.834000       15.9994           0
   43766 WT2  7496 TIP3 H1   HT     0.417000        1.0080           0
   43767 WT2  7496 TIP3 H2   HT     0.417000        1.0080           0
   43768 WT2  7498 TIP3 OH2  OT    -0.834000       15.9994           0
   43769 WT2  7498 TIP3 H1   HT     0.417000        1.0080           0
   43770 WT2  7498 TIP3 H2   HT     0.417000        1.0080           0
   43771 WT2  7499 TIP3 OH2  OT    -0.834000       15.9994           0
   43772 WT2  7499 TIP3 H1   HT     0.417000        1.0080           0
   43773 WT2  7499 TIP3 H2   HT     0.417000        1.0080           0
   43774 WT2  7500 TIP3 OH2  OT    -0.834000       15.9994           0
   43775 WT2  7500 TIP3 H1   HT     0.417000        1.0080           0
   43776 WT2  7500 TIP3 H2   HT     0.417000        1.0080           0
   43777 WT2  7501 TIP3 OH2  OT    -0.834000       15.9994           0
   43778 WT2  7501 TIP3 H1   HT     0.417000        1.0080           0
   43779 WT2  7501 TIP3 H2   HT     0.417000        1.0080           0
   43780 WT2  7502 TIP3 OH2  OT    -0.834000       15.9994           0
   43781 WT2  7502 TIP3 H1   HT     0.417000        1.0080           0
   43782 WT2  7502 TIP3 H2   HT     0.417000        1.0080           0
   43783 WT2  7503 TIP3 OH2  OT    -0.834000       15.9994           0
   43784 WT2  7503 TIP3 H1   HT     0.417000        1.0080           0
   43785 WT2  7503 TIP3 H2   HT     0.417000        1.0080           0
   43786 WT2  7504 TIP3 OH2  OT    -0.834000       15.9994           0
   43787 WT2  7504 TIP3 H1   HT     0.417000        1.0080           0
   43788 WT2  7504 TIP3 H2   HT     0.417000        1.0080           0
   43789 WT2  7505 TIP3 OH2  OT    -0.834000       15.9994           0
   43790 WT2  7505 TIP3 H1   HT     0.417000        1.0080           0
   43791 WT2  7505 TIP3 H2   HT     0.417000        1.0080           0
   43792 WT2  7506 TIP3 OH2  OT    -0.834000       15.9994           0
   43793 WT2  7506 TIP3 H1   HT     0.417000        1.0080           0
   43794 WT2  7506 TIP3 H2   HT     0.417000        1.0080           0
   43795 WT2  7507 TIP3 OH2  OT    -0.834000       15.9994           0
   43796 WT2  7507 TIP3 H1   HT     0.417000        1.0080           0
   43797 WT2  7507 TIP3 H2   HT     0.417000        1.0080           0
   43798 WT2  7509 TIP3 OH2  OT    -0.834000       15.9994           0
   43799 WT2  7509 TIP3 H1   HT     0.417000        1.0080           0
   43800 WT2  7509 TIP3 H2   HT     0.417000        1.0080           0
   43801 WT2  7510 TIP3 OH2  OT    -0.834000       15.9994           0
   43802 WT2  7510 TIP3 H1   HT     0.417000        1.0080           0
   43803 WT2  7510 TIP3 H2   HT     0.417000        1.0080           0
   43804 WT2  7512 TIP3 OH2  OT    -0.834000       15.9994           0
   43805 WT2  7512 TIP3 H1   HT     0.417000        1.0080           0
   43806 WT2  7512 TIP3 H2   HT     0.417000        1.0080           0
   43807 WT2  7514 TIP3 OH2  OT    -0.834000       15.9994           0
   43808 WT2  7514 TIP3 H1   HT     0.417000        1.0080           0
   43809 WT2  7514 TIP3 H2   HT     0.417000        1.0080           0
   43810 WT2  7515 TIP3 OH2  OT    -0.834000       15.9994           0
   43811 WT2  7515 TIP3 H1   HT     0.417000        1.0080           0
   43812 WT2  7515 TIP3 H2   HT     0.417000        1.0080           0
   43813 WT2  7518 TIP3 OH2  OT    -0.834000       15.9994           0
   43814 WT2  7518 TIP3 H1   HT     0.417000        1.0080           0
   43815 WT2  7518 TIP3 H2   HT     0.417000        1.0080           0
   43816 WT2  7519 TIP3 OH2  OT    -0.834000       15.9994           0
   43817 WT2  7519 TIP3 H1   HT     0.417000        1.0080           0
   43818 WT2  7519 TIP3 H2   HT     0.417000        1.0080           0
   43819 WT2  7521 TIP3 OH2  OT    -0.834000       15.9994           0
   43820 WT2  7521 TIP3 H1   HT     0.417000        1.0080           0
   43821 WT2  7521 TIP3 H2   HT     0.417000        1.0080           0
   43822 WT2  7522 TIP3 OH2  OT    -0.834000       15.9994           0
   43823 WT2  7522 TIP3 H1   HT     0.417000        1.0080           0
   43824 WT2  7522 TIP3 H2   HT     0.417000        1.0080           0
   43825 WT2  7523 TIP3 OH2  OT    -0.834000       15.9994           0
   43826 WT2  7523 TIP3 H1   HT     0.417000        1.0080           0
   43827 WT2  7523 TIP3 H2   HT     0.417000        1.0080           0
   43828 WT2  7524 TIP3 OH2  OT    -0.834000       15.9994           0
   43829 WT2  7524 TIP3 H1   HT     0.417000        1.0080           0
   43830 WT2  7524 TIP3 H2   HT     0.417000        1.0080           0
   43831 WT2  7525 TIP3 OH2  OT    -0.834000       15.9994           0
   43832 WT2  7525 TIP3 H1   HT     0.417000        1.0080           0
   43833 WT2  7525 TIP3 H2   HT     0.417000        1.0080           0
   43834 WT2  7526 TIP3 OH2  OT    -0.834000       15.9994           0
   43835 WT2  7526 TIP3 H1   HT     0.417000        1.0080           0
   43836 WT2  7526 TIP3 H2   HT     0.417000        1.0080           0
   43837 WT2  7527 TIP3 OH2  OT    -0.834000       15.9994           0
   43838 WT2  7527 TIP3 H1   HT     0.417000        1.0080           0
   43839 WT2  7527 TIP3 H2   HT     0.417000        1.0080           0
   43840 WT2  7529 TIP3 OH2  OT    -0.834000       15.9994           0
   43841 WT2  7529 TIP3 H1   HT     0.417000        1.0080           0
   43842 WT2  7529 TIP3 H2   HT     0.417000        1.0080           0
   43843 WT2  7531 TIP3 OH2  OT    -0.834000       15.9994           0
   43844 WT2  7531 TIP3 H1   HT     0.417000        1.0080           0
   43845 WT2  7531 TIP3 H2   HT     0.417000        1.0080           0
   43846 WT2  7532 TIP3 OH2  OT    -0.834000       15.9994           0
   43847 WT2  7532 TIP3 H1   HT     0.417000        1.0080           0
   43848 WT2  7532 TIP3 H2   HT     0.417000        1.0080           0
   43849 WT2  7541 TIP3 OH2  OT    -0.834000       15.9994           0
   43850 WT2  7541 TIP3 H1   HT     0.417000        1.0080           0
   43851 WT2  7541 TIP3 H2   HT     0.417000        1.0080           0
   43852 WT2  7543 TIP3 OH2  OT    -0.834000       15.9994           0
   43853 WT2  7543 TIP3 H1   HT     0.417000        1.0080           0
   43854 WT2  7543 TIP3 H2   HT     0.417000        1.0080           0
   43855 WT2  7545 TIP3 OH2  OT    -0.834000       15.9994           0
   43856 WT2  7545 TIP3 H1   HT     0.417000        1.0080           0
   43857 WT2  7545 TIP3 H2   HT     0.417000        1.0080           0
   43858 WT2  7546 TIP3 OH2  OT    -0.834000       15.9994           0
   43859 WT2  7546 TIP3 H1   HT     0.417000        1.0080           0
   43860 WT2  7546 TIP3 H2   HT     0.417000        1.0080           0
   43861 WT2  7547 TIP3 OH2  OT    -0.834000       15.9994           0
   43862 WT2  7547 TIP3 H1   HT     0.417000        1.0080           0
   43863 WT2  7547 TIP3 H2   HT     0.417000        1.0080           0
   43864 WT2  7548 TIP3 OH2  OT    -0.834000       15.9994           0
   43865 WT2  7548 TIP3 H1   HT     0.417000        1.0080           0
   43866 WT2  7548 TIP3 H2   HT     0.417000        1.0080           0
   43867 WT2  7549 TIP3 OH2  OT    -0.834000       15.9994           0
   43868 WT2  7549 TIP3 H1   HT     0.417000        1.0080           0
   43869 WT2  7549 TIP3 H2   HT     0.417000        1.0080           0
   43870 WT2  7551 TIP3 OH2  OT    -0.834000       15.9994           0
   43871 WT2  7551 TIP3 H1   HT     0.417000        1.0080           0
   43872 WT2  7551 TIP3 H2   HT     0.417000        1.0080           0
   43873 WT2  7552 TIP3 OH2  OT    -0.834000       15.9994           0
   43874 WT2  7552 TIP3 H1   HT     0.417000        1.0080           0
   43875 WT2  7552 TIP3 H2   HT     0.417000        1.0080           0
   43876 WT2  7553 TIP3 OH2  OT    -0.834000       15.9994           0
   43877 WT2  7553 TIP3 H1   HT     0.417000        1.0080           0
   43878 WT2  7553 TIP3 H2   HT     0.417000        1.0080           0
   43879 WT2  7557 TIP3 OH2  OT    -0.834000       15.9994           0
   43880 WT2  7557 TIP3 H1   HT     0.417000        1.0080           0
   43881 WT2  7557 TIP3 H2   HT     0.417000        1.0080           0
   43882 WT2  7559 TIP3 OH2  OT    -0.834000       15.9994           0
   43883 WT2  7559 TIP3 H1   HT     0.417000        1.0080           0
   43884 WT2  7559 TIP3 H2   HT     0.417000        1.0080           0
   43885 WT2  7561 TIP3 OH2  OT    -0.834000       15.9994           0
   43886 WT2  7561 TIP3 H1   HT     0.417000        1.0080           0
   43887 WT2  7561 TIP3 H2   HT     0.417000        1.0080           0
   43888 WT2  7563 TIP3 OH2  OT    -0.834000       15.9994           0
   43889 WT2  7563 TIP3 H1   HT     0.417000        1.0080           0
   43890 WT2  7563 TIP3 H2   HT     0.417000        1.0080           0
   43891 WT2  7564 TIP3 OH2  OT    -0.834000       15.9994           0
   43892 WT2  7564 TIP3 H1   HT     0.417000        1.0080           0
   43893 WT2  7564 TIP3 H2   HT     0.417000        1.0080           0
   43894 WT2  7565 TIP3 OH2  OT    -0.834000       15.9994           0
   43895 WT2  7565 TIP3 H1   HT     0.417000        1.0080           0
   43896 WT2  7565 TIP3 H2   HT     0.417000        1.0080           0
   43897 WT2  7566 TIP3 OH2  OT    -0.834000       15.9994           0
   43898 WT2  7566 TIP3 H1   HT     0.417000        1.0080           0
   43899 WT2  7566 TIP3 H2   HT     0.417000        1.0080           0
   43900 WT2  7567 TIP3 OH2  OT    -0.834000       15.9994           0
   43901 WT2  7567 TIP3 H1   HT     0.417000        1.0080           0
   43902 WT2  7567 TIP3 H2   HT     0.417000        1.0080           0
   43903 WT2  7568 TIP3 OH2  OT    -0.834000       15.9994           0
   43904 WT2  7568 TIP3 H1   HT     0.417000        1.0080           0
   43905 WT2  7568 TIP3 H2   HT     0.417000        1.0080           0
   43906 WT2  7569 TIP3 OH2  OT    -0.834000       15.9994           0
   43907 WT2  7569 TIP3 H1   HT     0.417000        1.0080           0
   43908 WT2  7569 TIP3 H2   HT     0.417000        1.0080           0
   43909 WT2  7570 TIP3 OH2  OT    -0.834000       15.9994           0
   43910 WT2  7570 TIP3 H1   HT     0.417000        1.0080           0
   43911 WT2  7570 TIP3 H2   HT     0.417000        1.0080           0
   43912 WT2  7571 TIP3 OH2  OT    -0.834000       15.9994           0
   43913 WT2  7571 TIP3 H1   HT     0.417000        1.0080           0
   43914 WT2  7571 TIP3 H2   HT     0.417000        1.0080           0
   43915 WT2  7572 TIP3 OH2  OT    -0.834000       15.9994           0
   43916 WT2  7572 TIP3 H1   HT     0.417000        1.0080           0
   43917 WT2  7572 TIP3 H2   HT     0.417000        1.0080           0
   43918 WT2  7573 TIP3 OH2  OT    -0.834000       15.9994           0
   43919 WT2  7573 TIP3 H1   HT     0.417000        1.0080           0
   43920 WT2  7573 TIP3 H2   HT     0.417000        1.0080           0
   43921 WT2  7574 TIP3 OH2  OT    -0.834000       15.9994           0
   43922 WT2  7574 TIP3 H1   HT     0.417000        1.0080           0
   43923 WT2  7574 TIP3 H2   HT     0.417000        1.0080           0
   43924 WT2  7582 TIP3 OH2  OT    -0.834000       15.9994           0
   43925 WT2  7582 TIP3 H1   HT     0.417000        1.0080           0
   43926 WT2  7582 TIP3 H2   HT     0.417000        1.0080           0
   43927 WT2  7584 TIP3 OH2  OT    -0.834000       15.9994           0
   43928 WT2  7584 TIP3 H1   HT     0.417000        1.0080           0
   43929 WT2  7584 TIP3 H2   HT     0.417000        1.0080           0
   43930 WT2  7586 TIP3 OH2  OT    -0.834000       15.9994           0
   43931 WT2  7586 TIP3 H1   HT     0.417000        1.0080           0
   43932 WT2  7586 TIP3 H2   HT     0.417000        1.0080           0
   43933 WT2  7587 TIP3 OH2  OT    -0.834000       15.9994           0
   43934 WT2  7587 TIP3 H1   HT     0.417000        1.0080           0
   43935 WT2  7587 TIP3 H2   HT     0.417000        1.0080           0
   43936 WT2  7589 TIP3 OH2  OT    -0.834000       15.9994           0
   43937 WT2  7589 TIP3 H1   HT     0.417000        1.0080           0
   43938 WT2  7589 TIP3 H2   HT     0.417000        1.0080           0
   43939 WT2  7590 TIP3 OH2  OT    -0.834000       15.9994           0
   43940 WT2  7590 TIP3 H1   HT     0.417000        1.0080           0
   43941 WT2  7590 TIP3 H2   HT     0.417000        1.0080           0
   43942 WT2  7591 TIP3 OH2  OT    -0.834000       15.9994           0
   43943 WT2  7591 TIP3 H1   HT     0.417000        1.0080           0
   43944 WT2  7591 TIP3 H2   HT     0.417000        1.0080           0
   43945 WT2  7592 TIP3 OH2  OT    -0.834000       15.9994           0
   43946 WT2  7592 TIP3 H1   HT     0.417000        1.0080           0
   43947 WT2  7592 TIP3 H2   HT     0.417000        1.0080           0
   43948 WT2  7593 TIP3 OH2  OT    -0.834000       15.9994           0
   43949 WT2  7593 TIP3 H1   HT     0.417000        1.0080           0
   43950 WT2  7593 TIP3 H2   HT     0.417000        1.0080           0
   43951 WT2  7594 TIP3 OH2  OT    -0.834000       15.9994           0
   43952 WT2  7594 TIP3 H1   HT     0.417000        1.0080           0
   43953 WT2  7594 TIP3 H2   HT     0.417000        1.0080           0
   43954 WT2  7597 TIP3 OH2  OT    -0.834000       15.9994           0
   43955 WT2  7597 TIP3 H1   HT     0.417000        1.0080           0
   43956 WT2  7597 TIP3 H2   HT     0.417000        1.0080           0
   43957 WT2  7602 TIP3 OH2  OT    -0.834000       15.9994           0
   43958 WT2  7602 TIP3 H1   HT     0.417000        1.0080           0
   43959 WT2  7602 TIP3 H2   HT     0.417000        1.0080           0
   43960 WT2  7603 TIP3 OH2  OT    -0.834000       15.9994           0
   43961 WT2  7603 TIP3 H1   HT     0.417000        1.0080           0
   43962 WT2  7603 TIP3 H2   HT     0.417000        1.0080           0
   43963 WT2  7605 TIP3 OH2  OT    -0.834000       15.9994           0
   43964 WT2  7605 TIP3 H1   HT     0.417000        1.0080           0
   43965 WT2  7605 TIP3 H2   HT     0.417000        1.0080           0
   43966 WT2  7606 TIP3 OH2  OT    -0.834000       15.9994           0
   43967 WT2  7606 TIP3 H1   HT     0.417000        1.0080           0
   43968 WT2  7606 TIP3 H2   HT     0.417000        1.0080           0
   43969 WT2  7608 TIP3 OH2  OT    -0.834000       15.9994           0
   43970 WT2  7608 TIP3 H1   HT     0.417000        1.0080           0
   43971 WT2  7608 TIP3 H2   HT     0.417000        1.0080           0
   43972 WT2  7609 TIP3 OH2  OT    -0.834000       15.9994           0
   43973 WT2  7609 TIP3 H1   HT     0.417000        1.0080           0
   43974 WT2  7609 TIP3 H2   HT     0.417000        1.0080           0
   43975 WT2  7610 TIP3 OH2  OT    -0.834000       15.9994           0
   43976 WT2  7610 TIP3 H1   HT     0.417000        1.0080           0
   43977 WT2  7610 TIP3 H2   HT     0.417000        1.0080           0
   43978 WT2  7611 TIP3 OH2  OT    -0.834000       15.9994           0
   43979 WT2  7611 TIP3 H1   HT     0.417000        1.0080           0
   43980 WT2  7611 TIP3 H2   HT     0.417000        1.0080           0
   43981 WT2  7612 TIP3 OH2  OT    -0.834000       15.9994           0
   43982 WT2  7612 TIP3 H1   HT     0.417000        1.0080           0
   43983 WT2  7612 TIP3 H2   HT     0.417000        1.0080           0
   43984 WT2  7613 TIP3 OH2  OT    -0.834000       15.9994           0
   43985 WT2  7613 TIP3 H1   HT     0.417000        1.0080           0
   43986 WT2  7613 TIP3 H2   HT     0.417000        1.0080           0
   43987 WT2  7615 TIP3 OH2  OT    -0.834000       15.9994           0
   43988 WT2  7615 TIP3 H1   HT     0.417000        1.0080           0
   43989 WT2  7615 TIP3 H2   HT     0.417000        1.0080           0
   43990 WT2  7616 TIP3 OH2  OT    -0.834000       15.9994           0
   43991 WT2  7616 TIP3 H1   HT     0.417000        1.0080           0
   43992 WT2  7616 TIP3 H2   HT     0.417000        1.0080           0
   43993 WT2  7617 TIP3 OH2  OT    -0.834000       15.9994           0
   43994 WT2  7617 TIP3 H1   HT     0.417000        1.0080           0
   43995 WT2  7617 TIP3 H2   HT     0.417000        1.0080           0
   43996 WT2  7625 TIP3 OH2  OT    -0.834000       15.9994           0
   43997 WT2  7625 TIP3 H1   HT     0.417000        1.0080           0
   43998 WT2  7625 TIP3 H2   HT     0.417000        1.0080           0
   43999 WT2  7626 TIP3 OH2  OT    -0.834000       15.9994           0
   44000 WT2  7626 TIP3 H1   HT     0.417000        1.0080           0
   44001 WT2  7626 TIP3 H2   HT     0.417000        1.0080           0
   44002 WT2  7627 TIP3 OH2  OT    -0.834000       15.9994           0
   44003 WT2  7627 TIP3 H1   HT     0.417000        1.0080           0
   44004 WT2  7627 TIP3 H2   HT     0.417000        1.0080           0
   44005 WT2  7628 TIP3 OH2  OT    -0.834000       15.9994           0
   44006 WT2  7628 TIP3 H1   HT     0.417000        1.0080           0
   44007 WT2  7628 TIP3 H2   HT     0.417000        1.0080           0
   44008 WT2  7630 TIP3 OH2  OT    -0.834000       15.9994           0
   44009 WT2  7630 TIP3 H1   HT     0.417000        1.0080           0
   44010 WT2  7630 TIP3 H2   HT     0.417000        1.0080           0
   44011 WT2  7631 TIP3 OH2  OT    -0.834000       15.9994           0
   44012 WT2  7631 TIP3 H1   HT     0.417000        1.0080           0
   44013 WT2  7631 TIP3 H2   HT     0.417000        1.0080           0
   44014 WT2  7632 TIP3 OH2  OT    -0.834000       15.9994           0
   44015 WT2  7632 TIP3 H1   HT     0.417000        1.0080           0
   44016 WT2  7632 TIP3 H2   HT     0.417000        1.0080           0
   44017 WT2  7633 TIP3 OH2  OT    -0.834000       15.9994           0
   44018 WT2  7633 TIP3 H1   HT     0.417000        1.0080           0
   44019 WT2  7633 TIP3 H2   HT     0.417000        1.0080           0
   44020 WT2  7634 TIP3 OH2  OT    -0.834000       15.9994           0
   44021 WT2  7634 TIP3 H1   HT     0.417000        1.0080           0
   44022 WT2  7634 TIP3 H2   HT     0.417000        1.0080           0
   44023 WT2  7635 TIP3 OH2  OT    -0.834000       15.9994           0
   44024 WT2  7635 TIP3 H1   HT     0.417000        1.0080           0
   44025 WT2  7635 TIP3 H2   HT     0.417000        1.0080           0
   44026 WT2  7637 TIP3 OH2  OT    -0.834000       15.9994           0
   44027 WT2  7637 TIP3 H1   HT     0.417000        1.0080           0
   44028 WT2  7637 TIP3 H2   HT     0.417000        1.0080           0
   44029 WT2  7638 TIP3 OH2  OT    -0.834000       15.9994           0
   44030 WT2  7638 TIP3 H1   HT     0.417000        1.0080           0
   44031 WT2  7638 TIP3 H2   HT     0.417000        1.0080           0
   44032 WT2  7643 TIP3 OH2  OT    -0.834000       15.9994           0
   44033 WT2  7643 TIP3 H1   HT     0.417000        1.0080           0
   44034 WT2  7643 TIP3 H2   HT     0.417000        1.0080           0
   44035 WT2  7644 TIP3 OH2  OT    -0.834000       15.9994           0
   44036 WT2  7644 TIP3 H1   HT     0.417000        1.0080           0
   44037 WT2  7644 TIP3 H2   HT     0.417000        1.0080           0
   44038 WT2  7645 TIP3 OH2  OT    -0.834000       15.9994           0
   44039 WT2  7645 TIP3 H1   HT     0.417000        1.0080           0
   44040 WT2  7645 TIP3 H2   HT     0.417000        1.0080           0
   44041 WT2  7646 TIP3 OH2  OT    -0.834000       15.9994           0
   44042 WT2  7646 TIP3 H1   HT     0.417000        1.0080           0
   44043 WT2  7646 TIP3 H2   HT     0.417000        1.0080           0
   44044 WT2  7647 TIP3 OH2  OT    -0.834000       15.9994           0
   44045 WT2  7647 TIP3 H1   HT     0.417000        1.0080           0
   44046 WT2  7647 TIP3 H2   HT     0.417000        1.0080           0
   44047 WT2  7648 TIP3 OH2  OT    -0.834000       15.9994           0
   44048 WT2  7648 TIP3 H1   HT     0.417000        1.0080           0
   44049 WT2  7648 TIP3 H2   HT     0.417000        1.0080           0
   44050 WT2  7649 TIP3 OH2  OT    -0.834000       15.9994           0
   44051 WT2  7649 TIP3 H1   HT     0.417000        1.0080           0
   44052 WT2  7649 TIP3 H2   HT     0.417000        1.0080           0
   44053 WT2  7650 TIP3 OH2  OT    -0.834000       15.9994           0
   44054 WT2  7650 TIP3 H1   HT     0.417000        1.0080           0
   44055 WT2  7650 TIP3 H2   HT     0.417000        1.0080           0
   44056 WT2  7651 TIP3 OH2  OT    -0.834000       15.9994           0
   44057 WT2  7651 TIP3 H1   HT     0.417000        1.0080           0
   44058 WT2  7651 TIP3 H2   HT     0.417000        1.0080           0
   44059 WT2  7652 TIP3 OH2  OT    -0.834000       15.9994           0
   44060 WT2  7652 TIP3 H1   HT     0.417000        1.0080           0
   44061 WT2  7652 TIP3 H2   HT     0.417000        1.0080           0
   44062 WT2  7653 TIP3 OH2  OT    -0.834000       15.9994           0
   44063 WT2  7653 TIP3 H1   HT     0.417000        1.0080           0
   44064 WT2  7653 TIP3 H2   HT     0.417000        1.0080           0
   44065 WT2  7655 TIP3 OH2  OT    -0.834000       15.9994           0
   44066 WT2  7655 TIP3 H1   HT     0.417000        1.0080           0
   44067 WT2  7655 TIP3 H2   HT     0.417000        1.0080           0
   44068 WT2  7656 TIP3 OH2  OT    -0.834000       15.9994           0
   44069 WT2  7656 TIP3 H1   HT     0.417000        1.0080           0
   44070 WT2  7656 TIP3 H2   HT     0.417000        1.0080           0
   44071 WT2  7657 TIP3 OH2  OT    -0.834000       15.9994           0
   44072 WT2  7657 TIP3 H1   HT     0.417000        1.0080           0
   44073 WT2  7657 TIP3 H2   HT     0.417000        1.0080           0
   44074 WT2  7661 TIP3 OH2  OT    -0.834000       15.9994           0
   44075 WT2  7661 TIP3 H1   HT     0.417000        1.0080           0
   44076 WT2  7661 TIP3 H2   HT     0.417000        1.0080           0
   44077 WT2  7662 TIP3 OH2  OT    -0.834000       15.9994           0
   44078 WT2  7662 TIP3 H1   HT     0.417000        1.0080           0
   44079 WT2  7662 TIP3 H2   HT     0.417000        1.0080           0
   44080 WT2  7663 TIP3 OH2  OT    -0.834000       15.9994           0
   44081 WT2  7663 TIP3 H1   HT     0.417000        1.0080           0
   44082 WT2  7663 TIP3 H2   HT     0.417000        1.0080           0
   44083 WT2  7668 TIP3 OH2  OT    -0.834000       15.9994           0
   44084 WT2  7668 TIP3 H1   HT     0.417000        1.0080           0
   44085 WT2  7668 TIP3 H2   HT     0.417000        1.0080           0
   44086 WT2  7669 TIP3 OH2  OT    -0.834000       15.9994           0
   44087 WT2  7669 TIP3 H1   HT     0.417000        1.0080           0
   44088 WT2  7669 TIP3 H2   HT     0.417000        1.0080           0
   44089 WT2  7670 TIP3 OH2  OT    -0.834000       15.9994           0
   44090 WT2  7670 TIP3 H1   HT     0.417000        1.0080           0
   44091 WT2  7670 TIP3 H2   HT     0.417000        1.0080           0
   44092 WT2  7671 TIP3 OH2  OT    -0.834000       15.9994           0
   44093 WT2  7671 TIP3 H1   HT     0.417000        1.0080           0
   44094 WT2  7671 TIP3 H2   HT     0.417000        1.0080           0
   44095 WT2  7672 TIP3 OH2  OT    -0.834000       15.9994           0
   44096 WT2  7672 TIP3 H1   HT     0.417000        1.0080           0
   44097 WT2  7672 TIP3 H2   HT     0.417000        1.0080           0
   44098 WT2  7673 TIP3 OH2  OT    -0.834000       15.9994           0
   44099 WT2  7673 TIP3 H1   HT     0.417000        1.0080           0
   44100 WT2  7673 TIP3 H2   HT     0.417000        1.0080           0
   44101 WT2  7674 TIP3 OH2  OT    -0.834000       15.9994           0
   44102 WT2  7674 TIP3 H1   HT     0.417000        1.0080           0
   44103 WT2  7674 TIP3 H2   HT     0.417000        1.0080           0
   44104 WT2  7675 TIP3 OH2  OT    -0.834000       15.9994           0
   44105 WT2  7675 TIP3 H1   HT     0.417000        1.0080           0
   44106 WT2  7675 TIP3 H2   HT     0.417000        1.0080           0
   44107 WT2  7676 TIP3 OH2  OT    -0.834000       15.9994           0
   44108 WT2  7676 TIP3 H1   HT     0.417000        1.0080           0
   44109 WT2  7676 TIP3 H2   HT     0.417000        1.0080           0
   44110 WT2  7678 TIP3 OH2  OT    -0.834000       15.9994           0
   44111 WT2  7678 TIP3 H1   HT     0.417000        1.0080           0
   44112 WT2  7678 TIP3 H2   HT     0.417000        1.0080           0
   44113 WT2  7679 TIP3 OH2  OT    -0.834000       15.9994           0
   44114 WT2  7679 TIP3 H1   HT     0.417000        1.0080           0
   44115 WT2  7679 TIP3 H2   HT     0.417000        1.0080           0
   44116 WT2  7680 TIP3 OH2  OT    -0.834000       15.9994           0
   44117 WT2  7680 TIP3 H1   HT     0.417000        1.0080           0
   44118 WT2  7680 TIP3 H2   HT     0.417000        1.0080           0
   44119 WT2  7681 TIP3 OH2  OT    -0.834000       15.9994           0
   44120 WT2  7681 TIP3 H1   HT     0.417000        1.0080           0
   44121 WT2  7681 TIP3 H2   HT     0.417000        1.0080           0
   44122 WT2  7682 TIP3 OH2  OT    -0.834000       15.9994           0
   44123 WT2  7682 TIP3 H1   HT     0.417000        1.0080           0
   44124 WT2  7682 TIP3 H2   HT     0.417000        1.0080           0
   44125 WT2  7686 TIP3 OH2  OT    -0.834000       15.9994           0
   44126 WT2  7686 TIP3 H1   HT     0.417000        1.0080           0
   44127 WT2  7686 TIP3 H2   HT     0.417000        1.0080           0
   44128 WT2  7688 TIP3 OH2  OT    -0.834000       15.9994           0
   44129 WT2  7688 TIP3 H1   HT     0.417000        1.0080           0
   44130 WT2  7688 TIP3 H2   HT     0.417000        1.0080           0
   44131 WT2  7689 TIP3 OH2  OT    -0.834000       15.9994           0
   44132 WT2  7689 TIP3 H1   HT     0.417000        1.0080           0
   44133 WT2  7689 TIP3 H2   HT     0.417000        1.0080           0
   44134 WT2  7690 TIP3 OH2  OT    -0.834000       15.9994           0
   44135 WT2  7690 TIP3 H1   HT     0.417000        1.0080           0
   44136 WT2  7690 TIP3 H2   HT     0.417000        1.0080           0
   44137 WT2  7691 TIP3 OH2  OT    -0.834000       15.9994           0
   44138 WT2  7691 TIP3 H1   HT     0.417000        1.0080           0
   44139 WT2  7691 TIP3 H2   HT     0.417000        1.0080           0
   44140 WT2  7692 TIP3 OH2  OT    -0.834000       15.9994           0
   44141 WT2  7692 TIP3 H1   HT     0.417000        1.0080           0
   44142 WT2  7692 TIP3 H2   HT     0.417000        1.0080           0
   44143 WT2  7693 TIP3 OH2  OT    -0.834000       15.9994           0
   44144 WT2  7693 TIP3 H1   HT     0.417000        1.0080           0
   44145 WT2  7693 TIP3 H2   HT     0.417000        1.0080           0
   44146 WT2  7694 TIP3 OH2  OT    -0.834000       15.9994           0
   44147 WT2  7694 TIP3 H1   HT     0.417000        1.0080           0
   44148 WT2  7694 TIP3 H2   HT     0.417000        1.0080           0
   44149 WT2  7695 TIP3 OH2  OT    -0.834000       15.9994           0
   44150 WT2  7695 TIP3 H1   HT     0.417000        1.0080           0
   44151 WT2  7695 TIP3 H2   HT     0.417000        1.0080           0
   44152 WT2  7696 TIP3 OH2  OT    -0.834000       15.9994           0
   44153 WT2  7696 TIP3 H1   HT     0.417000        1.0080           0
   44154 WT2  7696 TIP3 H2   HT     0.417000        1.0080           0
   44155 WT2  7697 TIP3 OH2  OT    -0.834000       15.9994           0
   44156 WT2  7697 TIP3 H1   HT     0.417000        1.0080           0
   44157 WT2  7697 TIP3 H2   HT     0.417000        1.0080           0
   44158 WT2  7698 TIP3 OH2  OT    -0.834000       15.9994           0
   44159 WT2  7698 TIP3 H1   HT     0.417000        1.0080           0
   44160 WT2  7698 TIP3 H2   HT     0.417000        1.0080           0
   44161 WT2  7699 TIP3 OH2  OT    -0.834000       15.9994           0
   44162 WT2  7699 TIP3 H1   HT     0.417000        1.0080           0
   44163 WT2  7699 TIP3 H2   HT     0.417000        1.0080           0
   44164 WT2  7700 TIP3 OH2  OT    -0.834000       15.9994           0
   44165 WT2  7700 TIP3 H1   HT     0.417000        1.0080           0
   44166 WT2  7700 TIP3 H2   HT     0.417000        1.0080           0
   44167 WT2  7701 TIP3 OH2  OT    -0.834000       15.9994           0
   44168 WT2  7701 TIP3 H1   HT     0.417000        1.0080           0
   44169 WT2  7701 TIP3 H2   HT     0.417000        1.0080           0
   44170 WT2  7702 TIP3 OH2  OT    -0.834000       15.9994           0
   44171 WT2  7702 TIP3 H1   HT     0.417000        1.0080           0
   44172 WT2  7702 TIP3 H2   HT     0.417000        1.0080           0
   44173 WT2  7705 TIP3 OH2  OT    -0.834000       15.9994           0
   44174 WT2  7705 TIP3 H1   HT     0.417000        1.0080           0
   44175 WT2  7705 TIP3 H2   HT     0.417000        1.0080           0
   44176 WT2  7707 TIP3 OH2  OT    -0.834000       15.9994           0
   44177 WT2  7707 TIP3 H1   HT     0.417000        1.0080           0
   44178 WT2  7707 TIP3 H2   HT     0.417000        1.0080           0
   44179 WT2  7708 TIP3 OH2  OT    -0.834000       15.9994           0
   44180 WT2  7708 TIP3 H1   HT     0.417000        1.0080           0
   44181 WT2  7708 TIP3 H2   HT     0.417000        1.0080           0
   44182 WT2  7710 TIP3 OH2  OT    -0.834000       15.9994           0
   44183 WT2  7710 TIP3 H1   HT     0.417000        1.0080           0
   44184 WT2  7710 TIP3 H2   HT     0.417000        1.0080           0
   44185 WT2  7711 TIP3 OH2  OT    -0.834000       15.9994           0
   44186 WT2  7711 TIP3 H1   HT     0.417000        1.0080           0
   44187 WT2  7711 TIP3 H2   HT     0.417000        1.0080           0
   44188 WT2  7712 TIP3 OH2  OT    -0.834000       15.9994           0
   44189 WT2  7712 TIP3 H1   HT     0.417000        1.0080           0
   44190 WT2  7712 TIP3 H2   HT     0.417000        1.0080           0
   44191 WT2  7713 TIP3 OH2  OT    -0.834000       15.9994           0
   44192 WT2  7713 TIP3 H1   HT     0.417000        1.0080           0
   44193 WT2  7713 TIP3 H2   HT     0.417000        1.0080           0
   44194 WT2  7714 TIP3 OH2  OT    -0.834000       15.9994           0
   44195 WT2  7714 TIP3 H1   HT     0.417000        1.0080           0
   44196 WT2  7714 TIP3 H2   HT     0.417000        1.0080           0
   44197 WT2  7715 TIP3 OH2  OT    -0.834000       15.9994           0
   44198 WT2  7715 TIP3 H1   HT     0.417000        1.0080           0
   44199 WT2  7715 TIP3 H2   HT     0.417000        1.0080           0
   44200 WT2  7716 TIP3 OH2  OT    -0.834000       15.9994           0
   44201 WT2  7716 TIP3 H1   HT     0.417000        1.0080           0
   44202 WT2  7716 TIP3 H2   HT     0.417000        1.0080           0
   44203 WT2  7717 TIP3 OH2  OT    -0.834000       15.9994           0
   44204 WT2  7717 TIP3 H1   HT     0.417000        1.0080           0
   44205 WT2  7717 TIP3 H2   HT     0.417000        1.0080           0
   44206 WT2  7718 TIP3 OH2  OT    -0.834000       15.9994           0
   44207 WT2  7718 TIP3 H1   HT     0.417000        1.0080           0
   44208 WT2  7718 TIP3 H2   HT     0.417000        1.0080           0
   44209 WT2  7720 TIP3 OH2  OT    -0.834000       15.9994           0
   44210 WT2  7720 TIP3 H1   HT     0.417000        1.0080           0
   44211 WT2  7720 TIP3 H2   HT     0.417000        1.0080           0
   44212 WT2  7730 TIP3 OH2  OT    -0.834000       15.9994           0
   44213 WT2  7730 TIP3 H1   HT     0.417000        1.0080           0
   44214 WT2  7730 TIP3 H2   HT     0.417000        1.0080           0
   44215 WT2  7731 TIP3 OH2  OT    -0.834000       15.9994           0
   44216 WT2  7731 TIP3 H1   HT     0.417000        1.0080           0
   44217 WT2  7731 TIP3 H2   HT     0.417000        1.0080           0
   44218 WT2  7732 TIP3 OH2  OT    -0.834000       15.9994           0
   44219 WT2  7732 TIP3 H1   HT     0.417000        1.0080           0
   44220 WT2  7732 TIP3 H2   HT     0.417000        1.0080           0
   44221 WT2  7733 TIP3 OH2  OT    -0.834000       15.9994           0
   44222 WT2  7733 TIP3 H1   HT     0.417000        1.0080           0
   44223 WT2  7733 TIP3 H2   HT     0.417000        1.0080           0
   44224 WT2  7734 TIP3 OH2  OT    -0.834000       15.9994           0
   44225 WT2  7734 TIP3 H1   HT     0.417000        1.0080           0
   44226 WT2  7734 TIP3 H2   HT     0.417000        1.0080           0
   44227 WT2  7735 TIP3 OH2  OT    -0.834000       15.9994           0
   44228 WT2  7735 TIP3 H1   HT     0.417000        1.0080           0
   44229 WT2  7735 TIP3 H2   HT     0.417000        1.0080           0
   44230 WT2  7736 TIP3 OH2  OT    -0.834000       15.9994           0
   44231 WT2  7736 TIP3 H1   HT     0.417000        1.0080           0
   44232 WT2  7736 TIP3 H2   HT     0.417000        1.0080           0
   44233 WT2  7737 TIP3 OH2  OT    -0.834000       15.9994           0
   44234 WT2  7737 TIP3 H1   HT     0.417000        1.0080           0
   44235 WT2  7737 TIP3 H2   HT     0.417000        1.0080           0
   44236 WT2  7740 TIP3 OH2  OT    -0.834000       15.9994           0
   44237 WT2  7740 TIP3 H1   HT     0.417000        1.0080           0
   44238 WT2  7740 TIP3 H2   HT     0.417000        1.0080           0
   44239 WT2  7741 TIP3 OH2  OT    -0.834000       15.9994           0
   44240 WT2  7741 TIP3 H1   HT     0.417000        1.0080           0
   44241 WT2  7741 TIP3 H2   HT     0.417000        1.0080           0
   44242 WT2  7742 TIP3 OH2  OT    -0.834000       15.9994           0
   44243 WT2  7742 TIP3 H1   HT     0.417000        1.0080           0
   44244 WT2  7742 TIP3 H2   HT     0.417000        1.0080           0
   44245 WT2  7744 TIP3 OH2  OT    -0.834000       15.9994           0
   44246 WT2  7744 TIP3 H1   HT     0.417000        1.0080           0
   44247 WT2  7744 TIP3 H2   HT     0.417000        1.0080           0
   44248 WT2  7748 TIP3 OH2  OT    -0.834000       15.9994           0
   44249 WT2  7748 TIP3 H1   HT     0.417000        1.0080           0
   44250 WT2  7748 TIP3 H2   HT     0.417000        1.0080           0
   44251 WT2  7750 TIP3 OH2  OT    -0.834000       15.9994           0
   44252 WT2  7750 TIP3 H1   HT     0.417000        1.0080           0
   44253 WT2  7750 TIP3 H2   HT     0.417000        1.0080           0
   44254 WT2  7751 TIP3 OH2  OT    -0.834000       15.9994           0
   44255 WT2  7751 TIP3 H1   HT     0.417000        1.0080           0
   44256 WT2  7751 TIP3 H2   HT     0.417000        1.0080           0
   44257 WT2  7752 TIP3 OH2  OT    -0.834000       15.9994           0
   44258 WT2  7752 TIP3 H1   HT     0.417000        1.0080           0
   44259 WT2  7752 TIP3 H2   HT     0.417000        1.0080           0
   44260 WT2  7753 TIP3 OH2  OT    -0.834000       15.9994           0
   44261 WT2  7753 TIP3 H1   HT     0.417000        1.0080           0
   44262 WT2  7753 TIP3 H2   HT     0.417000        1.0080           0
   44263 WT2  7754 TIP3 OH2  OT    -0.834000       15.9994           0
   44264 WT2  7754 TIP3 H1   HT     0.417000        1.0080           0
   44265 WT2  7754 TIP3 H2   HT     0.417000        1.0080           0
   44266 WT2  7755 TIP3 OH2  OT    -0.834000       15.9994           0
   44267 WT2  7755 TIP3 H1   HT     0.417000        1.0080           0
   44268 WT2  7755 TIP3 H2   HT     0.417000        1.0080           0
   44269 WT2  7756 TIP3 OH2  OT    -0.834000       15.9994           0
   44270 WT2  7756 TIP3 H1   HT     0.417000        1.0080           0
   44271 WT2  7756 TIP3 H2   HT     0.417000        1.0080           0
   44272 WT2  7757 TIP3 OH2  OT    -0.834000       15.9994           0
   44273 WT2  7757 TIP3 H1   HT     0.417000        1.0080           0
   44274 WT2  7757 TIP3 H2   HT     0.417000        1.0080           0
   44275 WT2  7758 TIP3 OH2  OT    -0.834000       15.9994           0
   44276 WT2  7758 TIP3 H1   HT     0.417000        1.0080           0
   44277 WT2  7758 TIP3 H2   HT     0.417000        1.0080           0
   44278 WT2  7759 TIP3 OH2  OT    -0.834000       15.9994           0
   44279 WT2  7759 TIP3 H1   HT     0.417000        1.0080           0
   44280 WT2  7759 TIP3 H2   HT     0.417000        1.0080           0
   44281 WT2  7760 TIP3 OH2  OT    -0.834000       15.9994           0
   44282 WT2  7760 TIP3 H1   HT     0.417000        1.0080           0
   44283 WT2  7760 TIP3 H2   HT     0.417000        1.0080           0
   44284 WT2  7762 TIP3 OH2  OT    -0.834000       15.9994           0
   44285 WT2  7762 TIP3 H1   HT     0.417000        1.0080           0
   44286 WT2  7762 TIP3 H2   HT     0.417000        1.0080           0
   44287 WT2  7763 TIP3 OH2  OT    -0.834000       15.9994           0
   44288 WT2  7763 TIP3 H1   HT     0.417000        1.0080           0
   44289 WT2  7763 TIP3 H2   HT     0.417000        1.0080           0
   44290 WT2  7764 TIP3 OH2  OT    -0.834000       15.9994           0
   44291 WT2  7764 TIP3 H1   HT     0.417000        1.0080           0
   44292 WT2  7764 TIP3 H2   HT     0.417000        1.0080           0
   44293 WT2  7771 TIP3 OH2  OT    -0.834000       15.9994           0
   44294 WT2  7771 TIP3 H1   HT     0.417000        1.0080           0
   44295 WT2  7771 TIP3 H2   HT     0.417000        1.0080           0
   44296 WT2  7772 TIP3 OH2  OT    -0.834000       15.9994           0
   44297 WT2  7772 TIP3 H1   HT     0.417000        1.0080           0
   44298 WT2  7772 TIP3 H2   HT     0.417000        1.0080           0
   44299 WT2  7773 TIP3 OH2  OT    -0.834000       15.9994           0
   44300 WT2  7773 TIP3 H1   HT     0.417000        1.0080           0
   44301 WT2  7773 TIP3 H2   HT     0.417000        1.0080           0
   44302 WT2  7774 TIP3 OH2  OT    -0.834000       15.9994           0
   44303 WT2  7774 TIP3 H1   HT     0.417000        1.0080           0
   44304 WT2  7774 TIP3 H2   HT     0.417000        1.0080           0
   44305 WT2  7775 TIP3 OH2  OT    -0.834000       15.9994           0
   44306 WT2  7775 TIP3 H1   HT     0.417000        1.0080           0
   44307 WT2  7775 TIP3 H2   HT     0.417000        1.0080           0
   44308 WT2  7776 TIP3 OH2  OT    -0.834000       15.9994           0
   44309 WT2  7776 TIP3 H1   HT     0.417000        1.0080           0
   44310 WT2  7776 TIP3 H2   HT     0.417000        1.0080           0
   44311 WT2  7777 TIP3 OH2  OT    -0.834000       15.9994           0
   44312 WT2  7777 TIP3 H1   HT     0.417000        1.0080           0
   44313 WT2  7777 TIP3 H2   HT     0.417000        1.0080           0
   44314 WT2  7778 TIP3 OH2  OT    -0.834000       15.9994           0
   44315 WT2  7778 TIP3 H1   HT     0.417000        1.0080           0
   44316 WT2  7778 TIP3 H2   HT     0.417000        1.0080           0
   44317 WT2  7779 TIP3 OH2  OT    -0.834000       15.9994           0
   44318 WT2  7779 TIP3 H1   HT     0.417000        1.0080           0
   44319 WT2  7779 TIP3 H2   HT     0.417000        1.0080           0
   44320 WT2  7780 TIP3 OH2  OT    -0.834000       15.9994           0
   44321 WT2  7780 TIP3 H1   HT     0.417000        1.0080           0
   44322 WT2  7780 TIP3 H2   HT     0.417000        1.0080           0
   44323 WT2  7781 TIP3 OH2  OT    -0.834000       15.9994           0
   44324 WT2  7781 TIP3 H1   HT     0.417000        1.0080           0
   44325 WT2  7781 TIP3 H2   HT     0.417000        1.0080           0
   44326 WT2  7782 TIP3 OH2  OT    -0.834000       15.9994           0
   44327 WT2  7782 TIP3 H1   HT     0.417000        1.0080           0
   44328 WT2  7782 TIP3 H2   HT     0.417000        1.0080           0
   44329 WT2  7783 TIP3 OH2  OT    -0.834000       15.9994           0
   44330 WT2  7783 TIP3 H1   HT     0.417000        1.0080           0
   44331 WT2  7783 TIP3 H2   HT     0.417000        1.0080           0
   44332 WT2  7791 TIP3 OH2  OT    -0.834000       15.9994           0
   44333 WT2  7791 TIP3 H1   HT     0.417000        1.0080           0
   44334 WT2  7791 TIP3 H2   HT     0.417000        1.0080           0
   44335 WT2  7793 TIP3 OH2  OT    -0.834000       15.9994           0
   44336 WT2  7793 TIP3 H1   HT     0.417000        1.0080           0
   44337 WT2  7793 TIP3 H2   HT     0.417000        1.0080           0
   44338 WT2  7795 TIP3 OH2  OT    -0.834000       15.9994           0
   44339 WT2  7795 TIP3 H1   HT     0.417000        1.0080           0
   44340 WT2  7795 TIP3 H2   HT     0.417000        1.0080           0
   44341 WT2  7796 TIP3 OH2  OT    -0.834000       15.9994           0
   44342 WT2  7796 TIP3 H1   HT     0.417000        1.0080           0
   44343 WT2  7796 TIP3 H2   HT     0.417000        1.0080           0
   44344 WT2  7797 TIP3 OH2  OT    -0.834000       15.9994           0
   44345 WT2  7797 TIP3 H1   HT     0.417000        1.0080           0
   44346 WT2  7797 TIP3 H2   HT     0.417000        1.0080           0
   44347 WT2  7798 TIP3 OH2  OT    -0.834000       15.9994           0
   44348 WT2  7798 TIP3 H1   HT     0.417000        1.0080           0
   44349 WT2  7798 TIP3 H2   HT     0.417000        1.0080           0
   44350 WT2  7799 TIP3 OH2  OT    -0.834000       15.9994           0
   44351 WT2  7799 TIP3 H1   HT     0.417000        1.0080           0
   44352 WT2  7799 TIP3 H2   HT     0.417000        1.0080           0
   44353 WT2  7800 TIP3 OH2  OT    -0.834000       15.9994           0
   44354 WT2  7800 TIP3 H1   HT     0.417000        1.0080           0
   44355 WT2  7800 TIP3 H2   HT     0.417000        1.0080           0
   44356 WT2  7801 TIP3 OH2  OT    -0.834000       15.9994           0
   44357 WT2  7801 TIP3 H1   HT     0.417000        1.0080           0
   44358 WT2  7801 TIP3 H2   HT     0.417000        1.0080           0
   44359 WT2  7802 TIP3 OH2  OT    -0.834000       15.9994           0
   44360 WT2  7802 TIP3 H1   HT     0.417000        1.0080           0
   44361 WT2  7802 TIP3 H2   HT     0.417000        1.0080           0
   44362 WT2  7803 TIP3 OH2  OT    -0.834000       15.9994           0
   44363 WT2  7803 TIP3 H1   HT     0.417000        1.0080           0
   44364 WT2  7803 TIP3 H2   HT     0.417000        1.0080           0
   44365 WT2  7804 TIP3 OH2  OT    -0.834000       15.9994           0
   44366 WT2  7804 TIP3 H1   HT     0.417000        1.0080           0
   44367 WT2  7804 TIP3 H2   HT     0.417000        1.0080           0
   44368 WT2  7806 TIP3 OH2  OT    -0.834000       15.9994           0
   44369 WT2  7806 TIP3 H1   HT     0.417000        1.0080           0
   44370 WT2  7806 TIP3 H2   HT     0.417000        1.0080           0
   44371 WT2  7810 TIP3 OH2  OT    -0.834000       15.9994           0
   44372 WT2  7810 TIP3 H1   HT     0.417000        1.0080           0
   44373 WT2  7810 TIP3 H2   HT     0.417000        1.0080           0
   44374 WT2  7811 TIP3 OH2  OT    -0.834000       15.9994           0
   44375 WT2  7811 TIP3 H1   HT     0.417000        1.0080           0
   44376 WT2  7811 TIP3 H2   HT     0.417000        1.0080           0
   44377 WT2  7813 TIP3 OH2  OT    -0.834000       15.9994           0
   44378 WT2  7813 TIP3 H1   HT     0.417000        1.0080           0
   44379 WT2  7813 TIP3 H2   HT     0.417000        1.0080           0
   44380 WT2  7815 TIP3 OH2  OT    -0.834000       15.9994           0
   44381 WT2  7815 TIP3 H1   HT     0.417000        1.0080           0
   44382 WT2  7815 TIP3 H2   HT     0.417000        1.0080           0
   44383 WT2  7816 TIP3 OH2  OT    -0.834000       15.9994           0
   44384 WT2  7816 TIP3 H1   HT     0.417000        1.0080           0
   44385 WT2  7816 TIP3 H2   HT     0.417000        1.0080           0
   44386 WT2  7817 TIP3 OH2  OT    -0.834000       15.9994           0
   44387 WT2  7817 TIP3 H1   HT     0.417000        1.0080           0
   44388 WT2  7817 TIP3 H2   HT     0.417000        1.0080           0
   44389 WT2  7818 TIP3 OH2  OT    -0.834000       15.9994           0
   44390 WT2  7818 TIP3 H1   HT     0.417000        1.0080           0
   44391 WT2  7818 TIP3 H2   HT     0.417000        1.0080           0
   44392 WT2  7819 TIP3 OH2  OT    -0.834000       15.9994           0
   44393 WT2  7819 TIP3 H1   HT     0.417000        1.0080           0
   44394 WT2  7819 TIP3 H2   HT     0.417000        1.0080           0
   44395 WT2  7820 TIP3 OH2  OT    -0.834000       15.9994           0
   44396 WT2  7820 TIP3 H1   HT     0.417000        1.0080           0
   44397 WT2  7820 TIP3 H2   HT     0.417000        1.0080           0
   44398 WT2  7821 TIP3 OH2  OT    -0.834000       15.9994           0
   44399 WT2  7821 TIP3 H1   HT     0.417000        1.0080           0
   44400 WT2  7821 TIP3 H2   HT     0.417000        1.0080           0
   44401 WT2  7822 TIP3 OH2  OT    -0.834000       15.9994           0
   44402 WT2  7822 TIP3 H1   HT     0.417000        1.0080           0
   44403 WT2  7822 TIP3 H2   HT     0.417000        1.0080           0
   44404 WT2  7823 TIP3 OH2  OT    -0.834000       15.9994           0
   44405 WT2  7823 TIP3 H1   HT     0.417000        1.0080           0
   44406 WT2  7823 TIP3 H2   HT     0.417000        1.0080           0
   44407 WT2  7824 TIP3 OH2  OT    -0.834000       15.9994           0
   44408 WT2  7824 TIP3 H1   HT     0.417000        1.0080           0
   44409 WT2  7824 TIP3 H2   HT     0.417000        1.0080           0
   44410 WT2  7825 TIP3 OH2  OT    -0.834000       15.9994           0
   44411 WT2  7825 TIP3 H1   HT     0.417000        1.0080           0
   44412 WT2  7825 TIP3 H2   HT     0.417000        1.0080           0
   44413 WT2  7828 TIP3 OH2  OT    -0.834000       15.9994           0
   44414 WT2  7828 TIP3 H1   HT     0.417000        1.0080           0
   44415 WT2  7828 TIP3 H2   HT     0.417000        1.0080           0
   44416 WT2  7832 TIP3 OH2  OT    -0.834000       15.9994           0
   44417 WT2  7832 TIP3 H1   HT     0.417000        1.0080           0
   44418 WT2  7832 TIP3 H2   HT     0.417000        1.0080           0
   44419 WT2  7833 TIP3 OH2  OT    -0.834000       15.9994           0
   44420 WT2  7833 TIP3 H1   HT     0.417000        1.0080           0
   44421 WT2  7833 TIP3 H2   HT     0.417000        1.0080           0
   44422 WT2  7835 TIP3 OH2  OT    -0.834000       15.9994           0
   44423 WT2  7835 TIP3 H1   HT     0.417000        1.0080           0
   44424 WT2  7835 TIP3 H2   HT     0.417000        1.0080           0
   44425 WT2  7836 TIP3 OH2  OT    -0.834000       15.9994           0
   44426 WT2  7836 TIP3 H1   HT     0.417000        1.0080           0
   44427 WT2  7836 TIP3 H2   HT     0.417000        1.0080           0
   44428 WT2  7837 TIP3 OH2  OT    -0.834000       15.9994           0
   44429 WT2  7837 TIP3 H1   HT     0.417000        1.0080           0
   44430 WT2  7837 TIP3 H2   HT     0.417000        1.0080           0
   44431 WT2  7838 TIP3 OH2  OT    -0.834000       15.9994           0
   44432 WT2  7838 TIP3 H1   HT     0.417000        1.0080           0
   44433 WT2  7838 TIP3 H2   HT     0.417000        1.0080           0
   44434 WT2  7839 TIP3 OH2  OT    -0.834000       15.9994           0
   44435 WT2  7839 TIP3 H1   HT     0.417000        1.0080           0
   44436 WT2  7839 TIP3 H2   HT     0.417000        1.0080           0
   44437 WT2  7840 TIP3 OH2  OT    -0.834000       15.9994           0
   44438 WT2  7840 TIP3 H1   HT     0.417000        1.0080           0
   44439 WT2  7840 TIP3 H2   HT     0.417000        1.0080           0
   44440 WT2  7841 TIP3 OH2  OT    -0.834000       15.9994           0
   44441 WT2  7841 TIP3 H1   HT     0.417000        1.0080           0
   44442 WT2  7841 TIP3 H2   HT     0.417000        1.0080           0
   44443 WT2  7842 TIP3 OH2  OT    -0.834000       15.9994           0
   44444 WT2  7842 TIP3 H1   HT     0.417000        1.0080           0
   44445 WT2  7842 TIP3 H2   HT     0.417000        1.0080           0
   44446 WT2  7843 TIP3 OH2  OT    -0.834000       15.9994           0
   44447 WT2  7843 TIP3 H1   HT     0.417000        1.0080           0
   44448 WT2  7843 TIP3 H2   HT     0.417000        1.0080           0
   44449 WT2  7844 TIP3 OH2  OT    -0.834000       15.9994           0
   44450 WT2  7844 TIP3 H1   HT     0.417000        1.0080           0
   44451 WT2  7844 TIP3 H2   HT     0.417000        1.0080           0
   44452 WT2  7845 TIP3 OH2  OT    -0.834000       15.9994           0
   44453 WT2  7845 TIP3 H1   HT     0.417000        1.0080           0
   44454 WT2  7845 TIP3 H2   HT     0.417000        1.0080           0
   44455 WT2  7846 TIP3 OH2  OT    -0.834000       15.9994           0
   44456 WT2  7846 TIP3 H1   HT     0.417000        1.0080           0
   44457 WT2  7846 TIP3 H2   HT     0.417000        1.0080           0
   44458 WT2  7848 TIP3 OH2  OT    -0.834000       15.9994           0
   44459 WT2  7848 TIP3 H1   HT     0.417000        1.0080           0
   44460 WT2  7848 TIP3 H2   HT     0.417000        1.0080           0
   44461 WT2  7849 TIP3 OH2  OT    -0.834000       15.9994           0
   44462 WT2  7849 TIP3 H1   HT     0.417000        1.0080           0
   44463 WT2  7849 TIP3 H2   HT     0.417000        1.0080           0
   44464 WT2  7853 TIP3 OH2  OT    -0.834000       15.9994           0
   44465 WT2  7853 TIP3 H1   HT     0.417000        1.0080           0
   44466 WT2  7853 TIP3 H2   HT     0.417000        1.0080           0
   44467 WT2  7854 TIP3 OH2  OT    -0.834000       15.9994           0
   44468 WT2  7854 TIP3 H1   HT     0.417000        1.0080           0
   44469 WT2  7854 TIP3 H2   HT     0.417000        1.0080           0
   44470 WT2  7856 TIP3 OH2  OT    -0.834000       15.9994           0
   44471 WT2  7856 TIP3 H1   HT     0.417000        1.0080           0
   44472 WT2  7856 TIP3 H2   HT     0.417000        1.0080           0
   44473 WT2  7857 TIP3 OH2  OT    -0.834000       15.9994           0
   44474 WT2  7857 TIP3 H1   HT     0.417000        1.0080           0
   44475 WT2  7857 TIP3 H2   HT     0.417000        1.0080           0
   44476 WT2  7858 TIP3 OH2  OT    -0.834000       15.9994           0
   44477 WT2  7858 TIP3 H1   HT     0.417000        1.0080           0
   44478 WT2  7858 TIP3 H2   HT     0.417000        1.0080           0
   44479 WT2  7859 TIP3 OH2  OT    -0.834000       15.9994           0
   44480 WT2  7859 TIP3 H1   HT     0.417000        1.0080           0
   44481 WT2  7859 TIP3 H2   HT     0.417000        1.0080           0
   44482 WT2  7860 TIP3 OH2  OT    -0.834000       15.9994           0
   44483 WT2  7860 TIP3 H1   HT     0.417000        1.0080           0
   44484 WT2  7860 TIP3 H2   HT     0.417000        1.0080           0
   44485 WT2  7861 TIP3 OH2  OT    -0.834000       15.9994           0
   44486 WT2  7861 TIP3 H1   HT     0.417000        1.0080           0
   44487 WT2  7861 TIP3 H2   HT     0.417000        1.0080           0
   44488 WT2  7862 TIP3 OH2  OT    -0.834000       15.9994           0
   44489 WT2  7862 TIP3 H1   HT     0.417000        1.0080           0
   44490 WT2  7862 TIP3 H2   HT     0.417000        1.0080           0
   44491 WT2  7863 TIP3 OH2  OT    -0.834000       15.9994           0
   44492 WT2  7863 TIP3 H1   HT     0.417000        1.0080           0
   44493 WT2  7863 TIP3 H2   HT     0.417000        1.0080           0
   44494 WT2  7864 TIP3 OH2  OT    -0.834000       15.9994           0
   44495 WT2  7864 TIP3 H1   HT     0.417000        1.0080           0
   44496 WT2  7864 TIP3 H2   HT     0.417000        1.0080           0
   44497 WT2  7865 TIP3 OH2  OT    -0.834000       15.9994           0
   44498 WT2  7865 TIP3 H1   HT     0.417000        1.0080           0
   44499 WT2  7865 TIP3 H2   HT     0.417000        1.0080           0
   44500 WT2  7866 TIP3 OH2  OT    -0.834000       15.9994           0
   44501 WT2  7866 TIP3 H1   HT     0.417000        1.0080           0
   44502 WT2  7866 TIP3 H2   HT     0.417000        1.0080           0
   44503 WT2  7868 TIP3 OH2  OT    -0.834000       15.9994           0
   44504 WT2  7868 TIP3 H1   HT     0.417000        1.0080           0
   44505 WT2  7868 TIP3 H2   HT     0.417000        1.0080           0
   44506 WT2  7869 TIP3 OH2  OT    -0.834000       15.9994           0
   44507 WT2  7869 TIP3 H1   HT     0.417000        1.0080           0
   44508 WT2  7869 TIP3 H2   HT     0.417000        1.0080           0
   44509 WT2  7872 TIP3 OH2  OT    -0.834000       15.9994           0
   44510 WT2  7872 TIP3 H1   HT     0.417000        1.0080           0
   44511 WT2  7872 TIP3 H2   HT     0.417000        1.0080           0
   44512 WT2  7873 TIP3 OH2  OT    -0.834000       15.9994           0
   44513 WT2  7873 TIP3 H1   HT     0.417000        1.0080           0
   44514 WT2  7873 TIP3 H2   HT     0.417000        1.0080           0
   44515 WT2  7875 TIP3 OH2  OT    -0.834000       15.9994           0
   44516 WT2  7875 TIP3 H1   HT     0.417000        1.0080           0
   44517 WT2  7875 TIP3 H2   HT     0.417000        1.0080           0
   44518 WT2  7878 TIP3 OH2  OT    -0.834000       15.9994           0
   44519 WT2  7878 TIP3 H1   HT     0.417000        1.0080           0
   44520 WT2  7878 TIP3 H2   HT     0.417000        1.0080           0
   44521 WT2  7879 TIP3 OH2  OT    -0.834000       15.9994           0
   44522 WT2  7879 TIP3 H1   HT     0.417000        1.0080           0
   44523 WT2  7879 TIP3 H2   HT     0.417000        1.0080           0
   44524 WT2  7880 TIP3 OH2  OT    -0.834000       15.9994           0
   44525 WT2  7880 TIP3 H1   HT     0.417000        1.0080           0
   44526 WT2  7880 TIP3 H2   HT     0.417000        1.0080           0
   44527 WT2  7881 TIP3 OH2  OT    -0.834000       15.9994           0
   44528 WT2  7881 TIP3 H1   HT     0.417000        1.0080           0
   44529 WT2  7881 TIP3 H2   HT     0.417000        1.0080           0
   44530 WT2  7882 TIP3 OH2  OT    -0.834000       15.9994           0
   44531 WT2  7882 TIP3 H1   HT     0.417000        1.0080           0
   44532 WT2  7882 TIP3 H2   HT     0.417000        1.0080           0
   44533 WT2  7883 TIP3 OH2  OT    -0.834000       15.9994           0
   44534 WT2  7883 TIP3 H1   HT     0.417000        1.0080           0
   44535 WT2  7883 TIP3 H2   HT     0.417000        1.0080           0
   44536 WT2  7884 TIP3 OH2  OT    -0.834000       15.9994           0
   44537 WT2  7884 TIP3 H1   HT     0.417000        1.0080           0
   44538 WT2  7884 TIP3 H2   HT     0.417000        1.0080           0
   44539 WT2  7885 TIP3 OH2  OT    -0.834000       15.9994           0
   44540 WT2  7885 TIP3 H1   HT     0.417000        1.0080           0
   44541 WT2  7885 TIP3 H2   HT     0.417000        1.0080           0
   44542 WT2  7886 TIP3 OH2  OT    -0.834000       15.9994           0
   44543 WT2  7886 TIP3 H1   HT     0.417000        1.0080           0
   44544 WT2  7886 TIP3 H2   HT     0.417000        1.0080           0
   44545 WT2  7888 TIP3 OH2  OT    -0.834000       15.9994           0
   44546 WT2  7888 TIP3 H1   HT     0.417000        1.0080           0
   44547 WT2  7888 TIP3 H2   HT     0.417000        1.0080           0
   44548 WT2  7889 TIP3 OH2  OT    -0.834000       15.9994           0
   44549 WT2  7889 TIP3 H1   HT     0.417000        1.0080           0
   44550 WT2  7889 TIP3 H2   HT     0.417000        1.0080           0
   44551 WT2  7890 TIP3 OH2  OT    -0.834000       15.9994           0
   44552 WT2  7890 TIP3 H1   HT     0.417000        1.0080           0
   44553 WT2  7890 TIP3 H2   HT     0.417000        1.0080           0
   44554 WT2  7895 TIP3 OH2  OT    -0.834000       15.9994           0
   44555 WT2  7895 TIP3 H1   HT     0.417000        1.0080           0
   44556 WT2  7895 TIP3 H2   HT     0.417000        1.0080           0
   44557 WT2  7896 TIP3 OH2  OT    -0.834000       15.9994           0
   44558 WT2  7896 TIP3 H1   HT     0.417000        1.0080           0
   44559 WT2  7896 TIP3 H2   HT     0.417000        1.0080           0
   44560 WT2  7899 TIP3 OH2  OT    -0.834000       15.9994           0
   44561 WT2  7899 TIP3 H1   HT     0.417000        1.0080           0
   44562 WT2  7899 TIP3 H2   HT     0.417000        1.0080           0
   44563 WT2  7900 TIP3 OH2  OT    -0.834000       15.9994           0
   44564 WT2  7900 TIP3 H1   HT     0.417000        1.0080           0
   44565 WT2  7900 TIP3 H2   HT     0.417000        1.0080           0
   44566 WT2  7902 TIP3 OH2  OT    -0.834000       15.9994           0
   44567 WT2  7902 TIP3 H1   HT     0.417000        1.0080           0
   44568 WT2  7902 TIP3 H2   HT     0.417000        1.0080           0
   44569 WT2  7903 TIP3 OH2  OT    -0.834000       15.9994           0
   44570 WT2  7903 TIP3 H1   HT     0.417000        1.0080           0
   44571 WT2  7903 TIP3 H2   HT     0.417000        1.0080           0
   44572 WT2  7904 TIP3 OH2  OT    -0.834000       15.9994           0
   44573 WT2  7904 TIP3 H1   HT     0.417000        1.0080           0
   44574 WT2  7904 TIP3 H2   HT     0.417000        1.0080           0
   44575 WT2  7905 TIP3 OH2  OT    -0.834000       15.9994           0
   44576 WT2  7905 TIP3 H1   HT     0.417000        1.0080           0
   44577 WT2  7905 TIP3 H2   HT     0.417000        1.0080           0
   44578 WT2  7906 TIP3 OH2  OT    -0.834000       15.9994           0
   44579 WT2  7906 TIP3 H1   HT     0.417000        1.0080           0
   44580 WT2  7906 TIP3 H2   HT     0.417000        1.0080           0
   44581 WT2  7907 TIP3 OH2  OT    -0.834000       15.9994           0
   44582 WT2  7907 TIP3 H1   HT     0.417000        1.0080           0
   44583 WT2  7907 TIP3 H2   HT     0.417000        1.0080           0
   44584 WT2  7908 TIP3 OH2  OT    -0.834000       15.9994           0
   44585 WT2  7908 TIP3 H1   HT     0.417000        1.0080           0
   44586 WT2  7908 TIP3 H2   HT     0.417000        1.0080           0
   44587 WT2  7909 TIP3 OH2  OT    -0.834000       15.9994           0
   44588 WT2  7909 TIP3 H1   HT     0.417000        1.0080           0
   44589 WT2  7909 TIP3 H2   HT     0.417000        1.0080           0
   44590 WT2  7910 TIP3 OH2  OT    -0.834000       15.9994           0
   44591 WT2  7910 TIP3 H1   HT     0.417000        1.0080           0
   44592 WT2  7910 TIP3 H2   HT     0.417000        1.0080           0
   44593 WT2  7911 TIP3 OH2  OT    -0.834000       15.9994           0
   44594 WT2  7911 TIP3 H1   HT     0.417000        1.0080           0
   44595 WT2  7911 TIP3 H2   HT     0.417000        1.0080           0
   44596 WT2  7919 TIP3 OH2  OT    -0.834000       15.9994           0
   44597 WT2  7919 TIP3 H1   HT     0.417000        1.0080           0
   44598 WT2  7919 TIP3 H2   HT     0.417000        1.0080           0
   44599 WT2  7920 TIP3 OH2  OT    -0.834000       15.9994           0
   44600 WT2  7920 TIP3 H1   HT     0.417000        1.0080           0
   44601 WT2  7920 TIP3 H2   HT     0.417000        1.0080           0
   44602 WT2  7921 TIP3 OH2  OT    -0.834000       15.9994           0
   44603 WT2  7921 TIP3 H1   HT     0.417000        1.0080           0
   44604 WT2  7921 TIP3 H2   HT     0.417000        1.0080           0
   44605 WT2  7922 TIP3 OH2  OT    -0.834000       15.9994           0
   44606 WT2  7922 TIP3 H1   HT     0.417000        1.0080           0
   44607 WT2  7922 TIP3 H2   HT     0.417000        1.0080           0
   44608 WT2  7923 TIP3 OH2  OT    -0.834000       15.9994           0
   44609 WT2  7923 TIP3 H1   HT     0.417000        1.0080           0
   44610 WT2  7923 TIP3 H2   HT     0.417000        1.0080           0
   44611 WT2  7924 TIP3 OH2  OT    -0.834000       15.9994           0
   44612 WT2  7924 TIP3 H1   HT     0.417000        1.0080           0
   44613 WT2  7924 TIP3 H2   HT     0.417000        1.0080           0
   44614 WT2  7925 TIP3 OH2  OT    -0.834000       15.9994           0
   44615 WT2  7925 TIP3 H1   HT     0.417000        1.0080           0
   44616 WT2  7925 TIP3 H2   HT     0.417000        1.0080           0
   44617 WT2  7926 TIP3 OH2  OT    -0.834000       15.9994           0
   44618 WT2  7926 TIP3 H1   HT     0.417000        1.0080           0
   44619 WT2  7926 TIP3 H2   HT     0.417000        1.0080           0
   44620 WT2  7927 TIP3 OH2  OT    -0.834000       15.9994           0
   44621 WT2  7927 TIP3 H1   HT     0.417000        1.0080           0
   44622 WT2  7927 TIP3 H2   HT     0.417000        1.0080           0
   44623 WT2  7928 TIP3 OH2  OT    -0.834000       15.9994           0
   44624 WT2  7928 TIP3 H1   HT     0.417000        1.0080           0
   44625 WT2  7928 TIP3 H2   HT     0.417000        1.0080           0
   44626 WT2  7929 TIP3 OH2  OT    -0.834000       15.9994           0
   44627 WT2  7929 TIP3 H1   HT     0.417000        1.0080           0
   44628 WT2  7929 TIP3 H2   HT     0.417000        1.0080           0
   44629 WT2  7930 TIP3 OH2  OT    -0.834000       15.9994           0
   44630 WT2  7930 TIP3 H1   HT     0.417000        1.0080           0
   44631 WT2  7930 TIP3 H2   HT     0.417000        1.0080           0
   44632 WT2  7931 TIP3 OH2  OT    -0.834000       15.9994           0
   44633 WT2  7931 TIP3 H1   HT     0.417000        1.0080           0
   44634 WT2  7931 TIP3 H2   HT     0.417000        1.0080           0
   44635 WT2  7933 TIP3 OH2  OT    -0.834000       15.9994           0
   44636 WT2  7933 TIP3 H1   HT     0.417000        1.0080           0
   44637 WT2  7933 TIP3 H2   HT     0.417000        1.0080           0
   44638 WT2  7938 TIP3 OH2  OT    -0.834000       15.9994           0
   44639 WT2  7938 TIP3 H1   HT     0.417000        1.0080           0
   44640 WT2  7938 TIP3 H2   HT     0.417000        1.0080           0
   44641 WT2  7939 TIP3 OH2  OT    -0.834000       15.9994           0
   44642 WT2  7939 TIP3 H1   HT     0.417000        1.0080           0
   44643 WT2  7939 TIP3 H2   HT     0.417000        1.0080           0
   44644 WT2  7940 TIP3 OH2  OT    -0.834000       15.9994           0
   44645 WT2  7940 TIP3 H1   HT     0.417000        1.0080           0
   44646 WT2  7940 TIP3 H2   HT     0.417000        1.0080           0
   44647 WT2  7941 TIP3 OH2  OT    -0.834000       15.9994           0
   44648 WT2  7941 TIP3 H1   HT     0.417000        1.0080           0
   44649 WT2  7941 TIP3 H2   HT     0.417000        1.0080           0
   44650 WT2  7942 TIP3 OH2  OT    -0.834000       15.9994           0
   44651 WT2  7942 TIP3 H1   HT     0.417000        1.0080           0
   44652 WT2  7942 TIP3 H2   HT     0.417000        1.0080           0
   44653 WT2  7943 TIP3 OH2  OT    -0.834000       15.9994           0
   44654 WT2  7943 TIP3 H1   HT     0.417000        1.0080           0
   44655 WT2  7943 TIP3 H2   HT     0.417000        1.0080           0
   44656 WT2  7944 TIP3 OH2  OT    -0.834000       15.9994           0
   44657 WT2  7944 TIP3 H1   HT     0.417000        1.0080           0
   44658 WT2  7944 TIP3 H2   HT     0.417000        1.0080           0
   44659 WT2  7945 TIP3 OH2  OT    -0.834000       15.9994           0
   44660 WT2  7945 TIP3 H1   HT     0.417000        1.0080           0
   44661 WT2  7945 TIP3 H2   HT     0.417000        1.0080           0
   44662 WT2  7946 TIP3 OH2  OT    -0.834000       15.9994           0
   44663 WT2  7946 TIP3 H1   HT     0.417000        1.0080           0
   44664 WT2  7946 TIP3 H2   HT     0.417000        1.0080           0
   44665 WT2  7947 TIP3 OH2  OT    -0.834000       15.9994           0
   44666 WT2  7947 TIP3 H1   HT     0.417000        1.0080           0
   44667 WT2  7947 TIP3 H2   HT     0.417000        1.0080           0
   44668 WT2  7948 TIP3 OH2  OT    -0.834000       15.9994           0
   44669 WT2  7948 TIP3 H1   HT     0.417000        1.0080           0
   44670 WT2  7948 TIP3 H2   HT     0.417000        1.0080           0
   44671 WT2  7949 TIP3 OH2  OT    -0.834000       15.9994           0
   44672 WT2  7949 TIP3 H1   HT     0.417000        1.0080           0
   44673 WT2  7949 TIP3 H2   HT     0.417000        1.0080           0
   44674 WT2  7950 TIP3 OH2  OT    -0.834000       15.9994           0
   44675 WT2  7950 TIP3 H1   HT     0.417000        1.0080           0
   44676 WT2  7950 TIP3 H2   HT     0.417000        1.0080           0
   44677 WT2  7951 TIP3 OH2  OT    -0.834000       15.9994           0
   44678 WT2  7951 TIP3 H1   HT     0.417000        1.0080           0
   44679 WT2  7951 TIP3 H2   HT     0.417000        1.0080           0
   44680 WT2  7952 TIP3 OH2  OT    -0.834000       15.9994           0
   44681 WT2  7952 TIP3 H1   HT     0.417000        1.0080           0
   44682 WT2  7952 TIP3 H2   HT     0.417000        1.0080           0
   44683 WT2  7956 TIP3 OH2  OT    -0.834000       15.9994           0
   44684 WT2  7956 TIP3 H1   HT     0.417000        1.0080           0
   44685 WT2  7956 TIP3 H2   HT     0.417000        1.0080           0
   44686 WT2  7959 TIP3 OH2  OT    -0.834000       15.9994           0
   44687 WT2  7959 TIP3 H1   HT     0.417000        1.0080           0
   44688 WT2  7959 TIP3 H2   HT     0.417000        1.0080           0
   44689 WT2  7962 TIP3 OH2  OT    -0.834000       15.9994           0
   44690 WT2  7962 TIP3 H1   HT     0.417000        1.0080           0
   44691 WT2  7962 TIP3 H2   HT     0.417000        1.0080           0
   44692 WT2  7963 TIP3 OH2  OT    -0.834000       15.9994           0
   44693 WT2  7963 TIP3 H1   HT     0.417000        1.0080           0
   44694 WT2  7963 TIP3 H2   HT     0.417000        1.0080           0
   44695 WT2  7964 TIP3 OH2  OT    -0.834000       15.9994           0
   44696 WT2  7964 TIP3 H1   HT     0.417000        1.0080           0
   44697 WT2  7964 TIP3 H2   HT     0.417000        1.0080           0
   44698 WT2  7965 TIP3 OH2  OT    -0.834000       15.9994           0
   44699 WT2  7965 TIP3 H1   HT     0.417000        1.0080           0
   44700 WT2  7965 TIP3 H2   HT     0.417000        1.0080           0
   44701 WT2  7966 TIP3 OH2  OT    -0.834000       15.9994           0
   44702 WT2  7966 TIP3 H1   HT     0.417000        1.0080           0
   44703 WT2  7966 TIP3 H2   HT     0.417000        1.0080           0
   44704 WT2  7967 TIP3 OH2  OT    -0.834000       15.9994           0
   44705 WT2  7967 TIP3 H1   HT     0.417000        1.0080           0
   44706 WT2  7967 TIP3 H2   HT     0.417000        1.0080           0
   44707 WT2  7968 TIP3 OH2  OT    -0.834000       15.9994           0
   44708 WT2  7968 TIP3 H1   HT     0.417000        1.0080           0
   44709 WT2  7968 TIP3 H2   HT     0.417000        1.0080           0
   44710 WT2  7969 TIP3 OH2  OT    -0.834000       15.9994           0
   44711 WT2  7969 TIP3 H1   HT     0.417000        1.0080           0
   44712 WT2  7969 TIP3 H2   HT     0.417000        1.0080           0
   44713 WT2  7970 TIP3 OH2  OT    -0.834000       15.9994           0
   44714 WT2  7970 TIP3 H1   HT     0.417000        1.0080           0
   44715 WT2  7970 TIP3 H2   HT     0.417000        1.0080           0
   44716 WT2  7971 TIP3 OH2  OT    -0.834000       15.9994           0
   44717 WT2  7971 TIP3 H1   HT     0.417000        1.0080           0
   44718 WT2  7971 TIP3 H2   HT     0.417000        1.0080           0
   44719 WT2  7972 TIP3 OH2  OT    -0.834000       15.9994           0
   44720 WT2  7972 TIP3 H1   HT     0.417000        1.0080           0
   44721 WT2  7972 TIP3 H2   HT     0.417000        1.0080           0
   44722 WT2  7973 TIP3 OH2  OT    -0.834000       15.9994           0
   44723 WT2  7973 TIP3 H1   HT     0.417000        1.0080           0
   44724 WT2  7973 TIP3 H2   HT     0.417000        1.0080           0
   44725 WT2  7974 TIP3 OH2  OT    -0.834000       15.9994           0
   44726 WT2  7974 TIP3 H1   HT     0.417000        1.0080           0
   44727 WT2  7974 TIP3 H2   HT     0.417000        1.0080           0
   44728 WT2  7975 TIP3 OH2  OT    -0.834000       15.9994           0
   44729 WT2  7975 TIP3 H1   HT     0.417000        1.0080           0
   44730 WT2  7975 TIP3 H2   HT     0.417000        1.0080           0
   44731 WT2  7979 TIP3 OH2  OT    -0.834000       15.9994           0
   44732 WT2  7979 TIP3 H1   HT     0.417000        1.0080           0
   44733 WT2  7979 TIP3 H2   HT     0.417000        1.0080           0
   44734 WT2  7981 TIP3 OH2  OT    -0.834000       15.9994           0
   44735 WT2  7981 TIP3 H1   HT     0.417000        1.0080           0
   44736 WT2  7981 TIP3 H2   HT     0.417000        1.0080           0
   44737 WT2  7982 TIP3 OH2  OT    -0.834000       15.9994           0
   44738 WT2  7982 TIP3 H1   HT     0.417000        1.0080           0
   44739 WT2  7982 TIP3 H2   HT     0.417000        1.0080           0
   44740 WT2  7983 TIP3 OH2  OT    -0.834000       15.9994           0
   44741 WT2  7983 TIP3 H1   HT     0.417000        1.0080           0
   44742 WT2  7983 TIP3 H2   HT     0.417000        1.0080           0
   44743 WT2  7984 TIP3 OH2  OT    -0.834000       15.9994           0
   44744 WT2  7984 TIP3 H1   HT     0.417000        1.0080           0
   44745 WT2  7984 TIP3 H2   HT     0.417000        1.0080           0
   44746 WT2  7985 TIP3 OH2  OT    -0.834000       15.9994           0
   44747 WT2  7985 TIP3 H1   HT     0.417000        1.0080           0
   44748 WT2  7985 TIP3 H2   HT     0.417000        1.0080           0
   44749 WT2  7986 TIP3 OH2  OT    -0.834000       15.9994           0
   44750 WT2  7986 TIP3 H1   HT     0.417000        1.0080           0
   44751 WT2  7986 TIP3 H2   HT     0.417000        1.0080           0
   44752 WT2  7987 TIP3 OH2  OT    -0.834000       15.9994           0
   44753 WT2  7987 TIP3 H1   HT     0.417000        1.0080           0
   44754 WT2  7987 TIP3 H2   HT     0.417000        1.0080           0
   44755 WT2  7988 TIP3 OH2  OT    -0.834000       15.9994           0
   44756 WT2  7988 TIP3 H1   HT     0.417000        1.0080           0
   44757 WT2  7988 TIP3 H2   HT     0.417000        1.0080           0
   44758 WT2  7989 TIP3 OH2  OT    -0.834000       15.9994           0
   44759 WT2  7989 TIP3 H1   HT     0.417000        1.0080           0
   44760 WT2  7989 TIP3 H2   HT     0.417000        1.0080           0
   44761 WT2  7990 TIP3 OH2  OT    -0.834000       15.9994           0
   44762 WT2  7990 TIP3 H1   HT     0.417000        1.0080           0
   44763 WT2  7990 TIP3 H2   HT     0.417000        1.0080           0
   44764 WT2  7991 TIP3 OH2  OT    -0.834000       15.9994           0
   44765 WT2  7991 TIP3 H1   HT     0.417000        1.0080           0
   44766 WT2  7991 TIP3 H2   HT     0.417000        1.0080           0
   44767 WT2  7992 TIP3 OH2  OT    -0.834000       15.9994           0
   44768 WT2  7992 TIP3 H1   HT     0.417000        1.0080           0
   44769 WT2  7992 TIP3 H2   HT     0.417000        1.0080           0
   44770 WT2  7993 TIP3 OH2  OT    -0.834000       15.9994           0
   44771 WT2  7993 TIP3 H1   HT     0.417000        1.0080           0
   44772 WT2  7993 TIP3 H2   HT     0.417000        1.0080           0
   44773 WT2  7996 TIP3 OH2  OT    -0.834000       15.9994           0
   44774 WT2  7996 TIP3 H1   HT     0.417000        1.0080           0
   44775 WT2  7996 TIP3 H2   HT     0.417000        1.0080           0
   44776 WT2  8003 TIP3 OH2  OT    -0.834000       15.9994           0
   44777 WT2  8003 TIP3 H1   HT     0.417000        1.0080           0
   44778 WT2  8003 TIP3 H2   HT     0.417000        1.0080           0
   44779 WT2  8004 TIP3 OH2  OT    -0.834000       15.9994           0
   44780 WT2  8004 TIP3 H1   HT     0.417000        1.0080           0
   44781 WT2  8004 TIP3 H2   HT     0.417000        1.0080           0
   44782 WT2  8005 TIP3 OH2  OT    -0.834000       15.9994           0
   44783 WT2  8005 TIP3 H1   HT     0.417000        1.0080           0
   44784 WT2  8005 TIP3 H2   HT     0.417000        1.0080           0
   44785 WT2  8006 TIP3 OH2  OT    -0.834000       15.9994           0
   44786 WT2  8006 TIP3 H1   HT     0.417000        1.0080           0
   44787 WT2  8006 TIP3 H2   HT     0.417000        1.0080           0
   44788 WT2  8007 TIP3 OH2  OT    -0.834000       15.9994           0
   44789 WT2  8007 TIP3 H1   HT     0.417000        1.0080           0
   44790 WT2  8007 TIP3 H2   HT     0.417000        1.0080           0
   44791 WT2  8008 TIP3 OH2  OT    -0.834000       15.9994           0
   44792 WT2  8008 TIP3 H1   HT     0.417000        1.0080           0
   44793 WT2  8008 TIP3 H2   HT     0.417000        1.0080           0
   44794 WT2  8010 TIP3 OH2  OT    -0.834000       15.9994           0
   44795 WT2  8010 TIP3 H1   HT     0.417000        1.0080           0
   44796 WT2  8010 TIP3 H2   HT     0.417000        1.0080           0
   44797 WT2  8011 TIP3 OH2  OT    -0.834000       15.9994           0
   44798 WT2  8011 TIP3 H1   HT     0.417000        1.0080           0
   44799 WT2  8011 TIP3 H2   HT     0.417000        1.0080           0
   44800 WT2  8012 TIP3 OH2  OT    -0.834000       15.9994           0
   44801 WT2  8012 TIP3 H1   HT     0.417000        1.0080           0
   44802 WT2  8012 TIP3 H2   HT     0.417000        1.0080           0
   44803 WT2  8013 TIP3 OH2  OT    -0.834000       15.9994           0
   44804 WT2  8013 TIP3 H1   HT     0.417000        1.0080           0
   44805 WT2  8013 TIP3 H2   HT     0.417000        1.0080           0
   44806 WT2  8014 TIP3 OH2  OT    -0.834000       15.9994           0
   44807 WT2  8014 TIP3 H1   HT     0.417000        1.0080           0
   44808 WT2  8014 TIP3 H2   HT     0.417000        1.0080           0
   44809 WT2  8015 TIP3 OH2  OT    -0.834000       15.9994           0
   44810 WT2  8015 TIP3 H1   HT     0.417000        1.0080           0
   44811 WT2  8015 TIP3 H2   HT     0.417000        1.0080           0
   44812 WT2  8016 TIP3 OH2  OT    -0.834000       15.9994           0
   44813 WT2  8016 TIP3 H1   HT     0.417000        1.0080           0
   44814 WT2  8016 TIP3 H2   HT     0.417000        1.0080           0
   44815 WT2  8019 TIP3 OH2  OT    -0.834000       15.9994           0
   44816 WT2  8019 TIP3 H1   HT     0.417000        1.0080           0
   44817 WT2  8019 TIP3 H2   HT     0.417000        1.0080           0
   44818 WT2  8020 TIP3 OH2  OT    -0.834000       15.9994           0
   44819 WT2  8020 TIP3 H1   HT     0.417000        1.0080           0
   44820 WT2  8020 TIP3 H2   HT     0.417000        1.0080           0
   44821 WT2  8022 TIP3 OH2  OT    -0.834000       15.9994           0
   44822 WT2  8022 TIP3 H1   HT     0.417000        1.0080           0
   44823 WT2  8022 TIP3 H2   HT     0.417000        1.0080           0
   44824 WT2  8023 TIP3 OH2  OT    -0.834000       15.9994           0
   44825 WT2  8023 TIP3 H1   HT     0.417000        1.0080           0
   44826 WT2  8023 TIP3 H2   HT     0.417000        1.0080           0
   44827 WT2  8024 TIP3 OH2  OT    -0.834000       15.9994           0
   44828 WT2  8024 TIP3 H1   HT     0.417000        1.0080           0
   44829 WT2  8024 TIP3 H2   HT     0.417000        1.0080           0
   44830 WT2  8026 TIP3 OH2  OT    -0.834000       15.9994           0
   44831 WT2  8026 TIP3 H1   HT     0.417000        1.0080           0
   44832 WT2  8026 TIP3 H2   HT     0.417000        1.0080           0
   44833 WT2  8027 TIP3 OH2  OT    -0.834000       15.9994           0
   44834 WT2  8027 TIP3 H1   HT     0.417000        1.0080           0
   44835 WT2  8027 TIP3 H2   HT     0.417000        1.0080           0
   44836 WT2  8028 TIP3 OH2  OT    -0.834000       15.9994           0
   44837 WT2  8028 TIP3 H1   HT     0.417000        1.0080           0
   44838 WT2  8028 TIP3 H2   HT     0.417000        1.0080           0
   44839 WT2  8029 TIP3 OH2  OT    -0.834000       15.9994           0
   44840 WT2  8029 TIP3 H1   HT     0.417000        1.0080           0
   44841 WT2  8029 TIP3 H2   HT     0.417000        1.0080           0
   44842 WT2  8030 TIP3 OH2  OT    -0.834000       15.9994           0
   44843 WT2  8030 TIP3 H1   HT     0.417000        1.0080           0
   44844 WT2  8030 TIP3 H2   HT     0.417000        1.0080           0
   44845 WT2  8032 TIP3 OH2  OT    -0.834000       15.9994           0
   44846 WT2  8032 TIP3 H1   HT     0.417000        1.0080           0
   44847 WT2  8032 TIP3 H2   HT     0.417000        1.0080           0
   44848 WT2  8033 TIP3 OH2  OT    -0.834000       15.9994           0
   44849 WT2  8033 TIP3 H1   HT     0.417000        1.0080           0
   44850 WT2  8033 TIP3 H2   HT     0.417000        1.0080           0
   44851 WT2  8035 TIP3 OH2  OT    -0.834000       15.9994           0
   44852 WT2  8035 TIP3 H1   HT     0.417000        1.0080           0
   44853 WT2  8035 TIP3 H2   HT     0.417000        1.0080           0
   44854 WT2  8036 TIP3 OH2  OT    -0.834000       15.9994           0
   44855 WT2  8036 TIP3 H1   HT     0.417000        1.0080           0
   44856 WT2  8036 TIP3 H2   HT     0.417000        1.0080           0
   44857 WT2  8037 TIP3 OH2  OT    -0.834000       15.9994           0
   44858 WT2  8037 TIP3 H1   HT     0.417000        1.0080           0
   44859 WT2  8037 TIP3 H2   HT     0.417000        1.0080           0
   44860 WT2  8040 TIP3 OH2  OT    -0.834000       15.9994           0
   44861 WT2  8040 TIP3 H1   HT     0.417000        1.0080           0
   44862 WT2  8040 TIP3 H2   HT     0.417000        1.0080           0
   44863 WT2  8041 TIP3 OH2  OT    -0.834000       15.9994           0
   44864 WT2  8041 TIP3 H1   HT     0.417000        1.0080           0
   44865 WT2  8041 TIP3 H2   HT     0.417000        1.0080           0
   44866 WT2  8045 TIP3 OH2  OT    -0.834000       15.9994           0
   44867 WT2  8045 TIP3 H1   HT     0.417000        1.0080           0
   44868 WT2  8045 TIP3 H2   HT     0.417000        1.0080           0
   44869 WT2  8046 TIP3 OH2  OT    -0.834000       15.9994           0
   44870 WT2  8046 TIP3 H1   HT     0.417000        1.0080           0
   44871 WT2  8046 TIP3 H2   HT     0.417000        1.0080           0
   44872 WT2  8047 TIP3 OH2  OT    -0.834000       15.9994           0
   44873 WT2  8047 TIP3 H1   HT     0.417000        1.0080           0
   44874 WT2  8047 TIP3 H2   HT     0.417000        1.0080           0
   44875 WT2  8048 TIP3 OH2  OT    -0.834000       15.9994           0
   44876 WT2  8048 TIP3 H1   HT     0.417000        1.0080           0
   44877 WT2  8048 TIP3 H2   HT     0.417000        1.0080           0
   44878 WT2  8049 TIP3 OH2  OT    -0.834000       15.9994           0
   44879 WT2  8049 TIP3 H1   HT     0.417000        1.0080           0
   44880 WT2  8049 TIP3 H2   HT     0.417000        1.0080           0
   44881 WT2  8050 TIP3 OH2  OT    -0.834000       15.9994           0
   44882 WT2  8050 TIP3 H1   HT     0.417000        1.0080           0
   44883 WT2  8050 TIP3 H2   HT     0.417000        1.0080           0
   44884 WT2  8051 TIP3 OH2  OT    -0.834000       15.9994           0
   44885 WT2  8051 TIP3 H1   HT     0.417000        1.0080           0
   44886 WT2  8051 TIP3 H2   HT     0.417000        1.0080           0
   44887 WT2  8052 TIP3 OH2  OT    -0.834000       15.9994           0
   44888 WT2  8052 TIP3 H1   HT     0.417000        1.0080           0
   44889 WT2  8052 TIP3 H2   HT     0.417000        1.0080           0
   44890 WT2  8053 TIP3 OH2  OT    -0.834000       15.9994           0
   44891 WT2  8053 TIP3 H1   HT     0.417000        1.0080           0
   44892 WT2  8053 TIP3 H2   HT     0.417000        1.0080           0
   44893 WT2  8054 TIP3 OH2  OT    -0.834000       15.9994           0
   44894 WT2  8054 TIP3 H1   HT     0.417000        1.0080           0
   44895 WT2  8054 TIP3 H2   HT     0.417000        1.0080           0
   44896 WT2  8056 TIP3 OH2  OT    -0.834000       15.9994           0
   44897 WT2  8056 TIP3 H1   HT     0.417000        1.0080           0
   44898 WT2  8056 TIP3 H2   HT     0.417000        1.0080           0
   44899 WT2  8057 TIP3 OH2  OT    -0.834000       15.9994           0
   44900 WT2  8057 TIP3 H1   HT     0.417000        1.0080           0
   44901 WT2  8057 TIP3 H2   HT     0.417000        1.0080           0
   44902 WT2  8058 TIP3 OH2  OT    -0.834000       15.9994           0
   44903 WT2  8058 TIP3 H1   HT     0.417000        1.0080           0
   44904 WT2  8058 TIP3 H2   HT     0.417000        1.0080           0
   44905 WT2  8061 TIP3 OH2  OT    -0.834000       15.9994           0
   44906 WT2  8061 TIP3 H1   HT     0.417000        1.0080           0
   44907 WT2  8061 TIP3 H2   HT     0.417000        1.0080           0
   44908 WT2  8063 TIP3 OH2  OT    -0.834000       15.9994           0
   44909 WT2  8063 TIP3 H1   HT     0.417000        1.0080           0
   44910 WT2  8063 TIP3 H2   HT     0.417000        1.0080           0
   44911 WT2  8064 TIP3 OH2  OT    -0.834000       15.9994           0
   44912 WT2  8064 TIP3 H1   HT     0.417000        1.0080           0
   44913 WT2  8064 TIP3 H2   HT     0.417000        1.0080           0
   44914 WT2  8067 TIP3 OH2  OT    -0.834000       15.9994           0
   44915 WT2  8067 TIP3 H1   HT     0.417000        1.0080           0
   44916 WT2  8067 TIP3 H2   HT     0.417000        1.0080           0
   44917 WT2  8068 TIP3 OH2  OT    -0.834000       15.9994           0
   44918 WT2  8068 TIP3 H1   HT     0.417000        1.0080           0
   44919 WT2  8068 TIP3 H2   HT     0.417000        1.0080           0
   44920 WT2  8069 TIP3 OH2  OT    -0.834000       15.9994           0
   44921 WT2  8069 TIP3 H1   HT     0.417000        1.0080           0
   44922 WT2  8069 TIP3 H2   HT     0.417000        1.0080           0
   44923 WT2  8070 TIP3 OH2  OT    -0.834000       15.9994           0
   44924 WT2  8070 TIP3 H1   HT     0.417000        1.0080           0
   44925 WT2  8070 TIP3 H2   HT     0.417000        1.0080           0
   44926 WT2  8071 TIP3 OH2  OT    -0.834000       15.9994           0
   44927 WT2  8071 TIP3 H1   HT     0.417000        1.0080           0
   44928 WT2  8071 TIP3 H2   HT     0.417000        1.0080           0
   44929 WT2  8072 TIP3 OH2  OT    -0.834000       15.9994           0
   44930 WT2  8072 TIP3 H1   HT     0.417000        1.0080           0
   44931 WT2  8072 TIP3 H2   HT     0.417000        1.0080           0
   44932 WT2  8073 TIP3 OH2  OT    -0.834000       15.9994           0
   44933 WT2  8073 TIP3 H1   HT     0.417000        1.0080           0
   44934 WT2  8073 TIP3 H2   HT     0.417000        1.0080           0
   44935 WT2  8074 TIP3 OH2  OT    -0.834000       15.9994           0
   44936 WT2  8074 TIP3 H1   HT     0.417000        1.0080           0
   44937 WT2  8074 TIP3 H2   HT     0.417000        1.0080           0
   44938 WT2  8075 TIP3 OH2  OT    -0.834000       15.9994           0
   44939 WT2  8075 TIP3 H1   HT     0.417000        1.0080           0
   44940 WT2  8075 TIP3 H2   HT     0.417000        1.0080           0
   44941 WT2  8076 TIP3 OH2  OT    -0.834000       15.9994           0
   44942 WT2  8076 TIP3 H1   HT     0.417000        1.0080           0
   44943 WT2  8076 TIP3 H2   HT     0.417000        1.0080           0
   44944 WT2  8078 TIP3 OH2  OT    -0.834000       15.9994           0
   44945 WT2  8078 TIP3 H1   HT     0.417000        1.0080           0
   44946 WT2  8078 TIP3 H2   HT     0.417000        1.0080           0
   44947 WT2  8084 TIP3 OH2  OT    -0.834000       15.9994           0
   44948 WT2  8084 TIP3 H1   HT     0.417000        1.0080           0
   44949 WT2  8084 TIP3 H2   HT     0.417000        1.0080           0
   44950 WT2  8085 TIP3 OH2  OT    -0.834000       15.9994           0
   44951 WT2  8085 TIP3 H1   HT     0.417000        1.0080           0
   44952 WT2  8085 TIP3 H2   HT     0.417000        1.0080           0
   44953 WT2  8087 TIP3 OH2  OT    -0.834000       15.9994           0
   44954 WT2  8087 TIP3 H1   HT     0.417000        1.0080           0
   44955 WT2  8087 TIP3 H2   HT     0.417000        1.0080           0
   44956 WT2  8088 TIP3 OH2  OT    -0.834000       15.9994           0
   44957 WT2  8088 TIP3 H1   HT     0.417000        1.0080           0
   44958 WT2  8088 TIP3 H2   HT     0.417000        1.0080           0
   44959 WT2  8089 TIP3 OH2  OT    -0.834000       15.9994           0
   44960 WT2  8089 TIP3 H1   HT     0.417000        1.0080           0
   44961 WT2  8089 TIP3 H2   HT     0.417000        1.0080           0
   44962 WT2  8090 TIP3 OH2  OT    -0.834000       15.9994           0
   44963 WT2  8090 TIP3 H1   HT     0.417000        1.0080           0
   44964 WT2  8090 TIP3 H2   HT     0.417000        1.0080           0
   44965 WT2  8091 TIP3 OH2  OT    -0.834000       15.9994           0
   44966 WT2  8091 TIP3 H1   HT     0.417000        1.0080           0
   44967 WT2  8091 TIP3 H2   HT     0.417000        1.0080           0
   44968 WT2  8092 TIP3 OH2  OT    -0.834000       15.9994           0
   44969 WT2  8092 TIP3 H1   HT     0.417000        1.0080           0
   44970 WT2  8092 TIP3 H2   HT     0.417000        1.0080           0
   44971 WT2  8093 TIP3 OH2  OT    -0.834000       15.9994           0
   44972 WT2  8093 TIP3 H1   HT     0.417000        1.0080           0
   44973 WT2  8093 TIP3 H2   HT     0.417000        1.0080           0
   44974 WT2  8094 TIP3 OH2  OT    -0.834000       15.9994           0
   44975 WT2  8094 TIP3 H1   HT     0.417000        1.0080           0
   44976 WT2  8094 TIP3 H2   HT     0.417000        1.0080           0
   44977 WT2  8095 TIP3 OH2  OT    -0.834000       15.9994           0
   44978 WT2  8095 TIP3 H1   HT     0.417000        1.0080           0
   44979 WT2  8095 TIP3 H2   HT     0.417000        1.0080           0
   44980 WT2  8096 TIP3 OH2  OT    -0.834000       15.9994           0
   44981 WT2  8096 TIP3 H1   HT     0.417000        1.0080           0
   44982 WT2  8096 TIP3 H2   HT     0.417000        1.0080           0
   44983 WT2  8097 TIP3 OH2  OT    -0.834000       15.9994           0
   44984 WT2  8097 TIP3 H1   HT     0.417000        1.0080           0
   44985 WT2  8097 TIP3 H2   HT     0.417000        1.0080           0
   44986 WT2  8098 TIP3 OH2  OT    -0.834000       15.9994           0
   44987 WT2  8098 TIP3 H1   HT     0.417000        1.0080           0
   44988 WT2  8098 TIP3 H2   HT     0.417000        1.0080           0
   44989 WT2  8099 TIP3 OH2  OT    -0.834000       15.9994           0
   44990 WT2  8099 TIP3 H1   HT     0.417000        1.0080           0
   44991 WT2  8099 TIP3 H2   HT     0.417000        1.0080           0
   44992 WT2  8101 TIP3 OH2  OT    -0.834000       15.9994           0
   44993 WT2  8101 TIP3 H1   HT     0.417000        1.0080           0
   44994 WT2  8101 TIP3 H2   HT     0.417000        1.0080           0
   44995 WT2  8104 TIP3 OH2  OT    -0.834000       15.9994           0
   44996 WT2  8104 TIP3 H1   HT     0.417000        1.0080           0
   44997 WT2  8104 TIP3 H2   HT     0.417000        1.0080           0
   44998 WT2  8106 TIP3 OH2  OT    -0.834000       15.9994           0
   44999 WT2  8106 TIP3 H1   HT     0.417000        1.0080           0
   45000 WT2  8106 TIP3 H2   HT     0.417000        1.0080           0
   45001 WT2  8107 TIP3 OH2  OT    -0.834000       15.9994           0
   45002 WT2  8107 TIP3 H1   HT     0.417000        1.0080           0
   45003 WT2  8107 TIP3 H2   HT     0.417000        1.0080           0
   45004 WT2  8109 TIP3 OH2  OT    -0.834000       15.9994           0
   45005 WT2  8109 TIP3 H1   HT     0.417000        1.0080           0
   45006 WT2  8109 TIP3 H2   HT     0.417000        1.0080           0
   45007 WT2  8110 TIP3 OH2  OT    -0.834000       15.9994           0
   45008 WT2  8110 TIP3 H1   HT     0.417000        1.0080           0
   45009 WT2  8110 TIP3 H2   HT     0.417000        1.0080           0
   45010 WT2  8111 TIP3 OH2  OT    -0.834000       15.9994           0
   45011 WT2  8111 TIP3 H1   HT     0.417000        1.0080           0
   45012 WT2  8111 TIP3 H2   HT     0.417000        1.0080           0
   45013 WT2  8112 TIP3 OH2  OT    -0.834000       15.9994           0
   45014 WT2  8112 TIP3 H1   HT     0.417000        1.0080           0
   45015 WT2  8112 TIP3 H2   HT     0.417000        1.0080           0
   45016 WT2  8113 TIP3 OH2  OT    -0.834000       15.9994           0
   45017 WT2  8113 TIP3 H1   HT     0.417000        1.0080           0
   45018 WT2  8113 TIP3 H2   HT     0.417000        1.0080           0
   45019 WT2  8114 TIP3 OH2  OT    -0.834000       15.9994           0
   45020 WT2  8114 TIP3 H1   HT     0.417000        1.0080           0
   45021 WT2  8114 TIP3 H2   HT     0.417000        1.0080           0
   45022 WT2  8115 TIP3 OH2  OT    -0.834000       15.9994           0
   45023 WT2  8115 TIP3 H1   HT     0.417000        1.0080           0
   45024 WT2  8115 TIP3 H2   HT     0.417000        1.0080           0
   45025 WT2  8116 TIP3 OH2  OT    -0.834000       15.9994           0
   45026 WT2  8116 TIP3 H1   HT     0.417000        1.0080           0
   45027 WT2  8116 TIP3 H2   HT     0.417000        1.0080           0
   45028 WT2  8117 TIP3 OH2  OT    -0.834000       15.9994           0
   45029 WT2  8117 TIP3 H1   HT     0.417000        1.0080           0
   45030 WT2  8117 TIP3 H2   HT     0.417000        1.0080           0
   45031 WT2  8118 TIP3 OH2  OT    -0.834000       15.9994           0
   45032 WT2  8118 TIP3 H1   HT     0.417000        1.0080           0
   45033 WT2  8118 TIP3 H2   HT     0.417000        1.0080           0
   45034 WT2  8119 TIP3 OH2  OT    -0.834000       15.9994           0
   45035 WT2  8119 TIP3 H1   HT     0.417000        1.0080           0
   45036 WT2  8119 TIP3 H2   HT     0.417000        1.0080           0
   45037 WT2  8126 TIP3 OH2  OT    -0.834000       15.9994           0
   45038 WT2  8126 TIP3 H1   HT     0.417000        1.0080           0
   45039 WT2  8126 TIP3 H2   HT     0.417000        1.0080           0
   45040 WT2  8129 TIP3 OH2  OT    -0.834000       15.9994           0
   45041 WT2  8129 TIP3 H1   HT     0.417000        1.0080           0
   45042 WT2  8129 TIP3 H2   HT     0.417000        1.0080           0
   45043 WT2  8131 TIP3 OH2  OT    -0.834000       15.9994           0
   45044 WT2  8131 TIP3 H1   HT     0.417000        1.0080           0
   45045 WT2  8131 TIP3 H2   HT     0.417000        1.0080           0
   45046 WT2  8132 TIP3 OH2  OT    -0.834000       15.9994           0
   45047 WT2  8132 TIP3 H1   HT     0.417000        1.0080           0
   45048 WT2  8132 TIP3 H2   HT     0.417000        1.0080           0
   45049 WT2  8133 TIP3 OH2  OT    -0.834000       15.9994           0
   45050 WT2  8133 TIP3 H1   HT     0.417000        1.0080           0
   45051 WT2  8133 TIP3 H2   HT     0.417000        1.0080           0
   45052 WT2  8134 TIP3 OH2  OT    -0.834000       15.9994           0
   45053 WT2  8134 TIP3 H1   HT     0.417000        1.0080           0
   45054 WT2  8134 TIP3 H2   HT     0.417000        1.0080           0
   45055 WT2  8135 TIP3 OH2  OT    -0.834000       15.9994           0
   45056 WT2  8135 TIP3 H1   HT     0.417000        1.0080           0
   45057 WT2  8135 TIP3 H2   HT     0.417000        1.0080           0
   45058 WT2  8136 TIP3 OH2  OT    -0.834000       15.9994           0
   45059 WT2  8136 TIP3 H1   HT     0.417000        1.0080           0
   45060 WT2  8136 TIP3 H2   HT     0.417000        1.0080           0
   45061 WT2  8137 TIP3 OH2  OT    -0.834000       15.9994           0
   45062 WT2  8137 TIP3 H1   HT     0.417000        1.0080           0
   45063 WT2  8137 TIP3 H2   HT     0.417000        1.0080           0
   45064 WT2  8138 TIP3 OH2  OT    -0.834000       15.9994           0
   45065 WT2  8138 TIP3 H1   HT     0.417000        1.0080           0
   45066 WT2  8138 TIP3 H2   HT     0.417000        1.0080           0
   45067 WT2  8140 TIP3 OH2  OT    -0.834000       15.9994           0
   45068 WT2  8140 TIP3 H1   HT     0.417000        1.0080           0
   45069 WT2  8140 TIP3 H2   HT     0.417000        1.0080           0
   45070 WT2  8147 TIP3 OH2  OT    -0.834000       15.9994           0
   45071 WT2  8147 TIP3 H1   HT     0.417000        1.0080           0
   45072 WT2  8147 TIP3 H2   HT     0.417000        1.0080           0
   45073 WT2  8150 TIP3 OH2  OT    -0.834000       15.9994           0
   45074 WT2  8150 TIP3 H1   HT     0.417000        1.0080           0
   45075 WT2  8150 TIP3 H2   HT     0.417000        1.0080           0
   45076 WT2  8152 TIP3 OH2  OT    -0.834000       15.9994           0
   45077 WT2  8152 TIP3 H1   HT     0.417000        1.0080           0
   45078 WT2  8152 TIP3 H2   HT     0.417000        1.0080           0
   45079 WT2  8153 TIP3 OH2  OT    -0.834000       15.9994           0
   45080 WT2  8153 TIP3 H1   HT     0.417000        1.0080           0
   45081 WT2  8153 TIP3 H2   HT     0.417000        1.0080           0
   45082 WT2  8154 TIP3 OH2  OT    -0.834000       15.9994           0
   45083 WT2  8154 TIP3 H1   HT     0.417000        1.0080           0
   45084 WT2  8154 TIP3 H2   HT     0.417000        1.0080           0
   45085 WT2  8155 TIP3 OH2  OT    -0.834000       15.9994           0
   45086 WT2  8155 TIP3 H1   HT     0.417000        1.0080           0
   45087 WT2  8155 TIP3 H2   HT     0.417000        1.0080           0
   45088 WT2  8156 TIP3 OH2  OT    -0.834000       15.9994           0
   45089 WT2  8156 TIP3 H1   HT     0.417000        1.0080           0
   45090 WT2  8156 TIP3 H2   HT     0.417000        1.0080           0
   45091 WT2  8157 TIP3 OH2  OT    -0.834000       15.9994           0
   45092 WT2  8157 TIP3 H1   HT     0.417000        1.0080           0
   45093 WT2  8157 TIP3 H2   HT     0.417000        1.0080           0
   45094 WT2  8158 TIP3 OH2  OT    -0.834000       15.9994           0
   45095 WT2  8158 TIP3 H1   HT     0.417000        1.0080           0
   45096 WT2  8158 TIP3 H2   HT     0.417000        1.0080           0
   45097 WT2  8159 TIP3 OH2  OT    -0.834000       15.9994           0
   45098 WT2  8159 TIP3 H1   HT     0.417000        1.0080           0
   45099 WT2  8159 TIP3 H2   HT     0.417000        1.0080           0
   45100 WT2  8163 TIP3 OH2  OT    -0.834000       15.9994           0
   45101 WT2  8163 TIP3 H1   HT     0.417000        1.0080           0
   45102 WT2  8163 TIP3 H2   HT     0.417000        1.0080           0
   45103 WT2  8165 TIP3 OH2  OT    -0.834000       15.9994           0
   45104 WT2  8165 TIP3 H1   HT     0.417000        1.0080           0
   45105 WT2  8165 TIP3 H2   HT     0.417000        1.0080           0
   45106 WT2  8169 TIP3 OH2  OT    -0.834000       15.9994           0
   45107 WT2  8169 TIP3 H1   HT     0.417000        1.0080           0
   45108 WT2  8169 TIP3 H2   HT     0.417000        1.0080           0
   45109 WT2  8171 TIP3 OH2  OT    -0.834000       15.9994           0
   45110 WT2  8171 TIP3 H1   HT     0.417000        1.0080           0
   45111 WT2  8171 TIP3 H2   HT     0.417000        1.0080           0
   45112 WT2  8172 TIP3 OH2  OT    -0.834000       15.9994           0
   45113 WT2  8172 TIP3 H1   HT     0.417000        1.0080           0
   45114 WT2  8172 TIP3 H2   HT     0.417000        1.0080           0
   45115 WT2  8173 TIP3 OH2  OT    -0.834000       15.9994           0
   45116 WT2  8173 TIP3 H1   HT     0.417000        1.0080           0
   45117 WT2  8173 TIP3 H2   HT     0.417000        1.0080           0
   45118 WT2  8174 TIP3 OH2  OT    -0.834000       15.9994           0
   45119 WT2  8174 TIP3 H1   HT     0.417000        1.0080           0
   45120 WT2  8174 TIP3 H2   HT     0.417000        1.0080           0
   45121 WT2  8175 TIP3 OH2  OT    -0.834000       15.9994           0
   45122 WT2  8175 TIP3 H1   HT     0.417000        1.0080           0
   45123 WT2  8175 TIP3 H2   HT     0.417000        1.0080           0
   45124 WT2  8176 TIP3 OH2  OT    -0.834000       15.9994           0
   45125 WT2  8176 TIP3 H1   HT     0.417000        1.0080           0
   45126 WT2  8176 TIP3 H2   HT     0.417000        1.0080           0
   45127 WT2  8177 TIP3 OH2  OT    -0.834000       15.9994           0
   45128 WT2  8177 TIP3 H1   HT     0.417000        1.0080           0
   45129 WT2  8177 TIP3 H2   HT     0.417000        1.0080           0
   45130 WT2  8178 TIP3 OH2  OT    -0.834000       15.9994           0
   45131 WT2  8178 TIP3 H1   HT     0.417000        1.0080           0
   45132 WT2  8178 TIP3 H2   HT     0.417000        1.0080           0
   45133 WT2  8179 TIP3 OH2  OT    -0.834000       15.9994           0
   45134 WT2  8179 TIP3 H1   HT     0.417000        1.0080           0
   45135 WT2  8179 TIP3 H2   HT     0.417000        1.0080           0
   45136 WT2  8180 TIP3 OH2  OT    -0.834000       15.9994           0
   45137 WT2  8180 TIP3 H1   HT     0.417000        1.0080           0
   45138 WT2  8180 TIP3 H2   HT     0.417000        1.0080           0
   45139 WT2  8181 TIP3 OH2  OT    -0.834000       15.9994           0
   45140 WT2  8181 TIP3 H1   HT     0.417000        1.0080           0
   45141 WT2  8181 TIP3 H2   HT     0.417000        1.0080           0
   45142 WT2  8182 TIP3 OH2  OT    -0.834000       15.9994           0
   45143 WT2  8182 TIP3 H1   HT     0.417000        1.0080           0
   45144 WT2  8182 TIP3 H2   HT     0.417000        1.0080           0
   45145 WT2  8184 TIP3 OH2  OT    -0.834000       15.9994           0
   45146 WT2  8184 TIP3 H1   HT     0.417000        1.0080           0
   45147 WT2  8184 TIP3 H2   HT     0.417000        1.0080           0
   45148 WT2  8185 TIP3 OH2  OT    -0.834000       15.9994           0
   45149 WT2  8185 TIP3 H1   HT     0.417000        1.0080           0
   45150 WT2  8185 TIP3 H2   HT     0.417000        1.0080           0
   45151 WT2  8186 TIP3 OH2  OT    -0.834000       15.9994           0
   45152 WT2  8186 TIP3 H1   HT     0.417000        1.0080           0
   45153 WT2  8186 TIP3 H2   HT     0.417000        1.0080           0
   45154 WT2  8189 TIP3 OH2  OT    -0.834000       15.9994           0
   45155 WT2  8189 TIP3 H1   HT     0.417000        1.0080           0
   45156 WT2  8189 TIP3 H2   HT     0.417000        1.0080           0
   45157 WT2  8192 TIP3 OH2  OT    -0.834000       15.9994           0
   45158 WT2  8192 TIP3 H1   HT     0.417000        1.0080           0
   45159 WT2  8192 TIP3 H2   HT     0.417000        1.0080           0
   45160 WT2  8193 TIP3 OH2  OT    -0.834000       15.9994           0
   45161 WT2  8193 TIP3 H1   HT     0.417000        1.0080           0
   45162 WT2  8193 TIP3 H2   HT     0.417000        1.0080           0
   45163 WT2  8196 TIP3 OH2  OT    -0.834000       15.9994           0
   45164 WT2  8196 TIP3 H1   HT     0.417000        1.0080           0
   45165 WT2  8196 TIP3 H2   HT     0.417000        1.0080           0
   45166 WT2  8197 TIP3 OH2  OT    -0.834000       15.9994           0
   45167 WT2  8197 TIP3 H1   HT     0.417000        1.0080           0
   45168 WT2  8197 TIP3 H2   HT     0.417000        1.0080           0
   45169 WT2  8198 TIP3 OH2  OT    -0.834000       15.9994           0
   45170 WT2  8198 TIP3 H1   HT     0.417000        1.0080           0
   45171 WT2  8198 TIP3 H2   HT     0.417000        1.0080           0
   45172 WT2  8199 TIP3 OH2  OT    -0.834000       15.9994           0
   45173 WT2  8199 TIP3 H1   HT     0.417000        1.0080           0
   45174 WT2  8199 TIP3 H2   HT     0.417000        1.0080           0
   45175 WT2  8200 TIP3 OH2  OT    -0.834000       15.9994           0
   45176 WT2  8200 TIP3 H1   HT     0.417000        1.0080           0
   45177 WT2  8200 TIP3 H2   HT     0.417000        1.0080           0
   45178 WT2  8201 TIP3 OH2  OT    -0.834000       15.9994           0
   45179 WT2  8201 TIP3 H1   HT     0.417000        1.0080           0
   45180 WT2  8201 TIP3 H2   HT     0.417000        1.0080           0
   45181 WT2  8203 TIP3 OH2  OT    -0.834000       15.9994           0
   45182 WT2  8203 TIP3 H1   HT     0.417000        1.0080           0
   45183 WT2  8203 TIP3 H2   HT     0.417000        1.0080           0
   45184 WT2  8204 TIP3 OH2  OT    -0.834000       15.9994           0
   45185 WT2  8204 TIP3 H1   HT     0.417000        1.0080           0
   45186 WT2  8204 TIP3 H2   HT     0.417000        1.0080           0
   45187 WT2  8205 TIP3 OH2  OT    -0.834000       15.9994           0
   45188 WT2  8205 TIP3 H1   HT     0.417000        1.0080           0
   45189 WT2  8205 TIP3 H2   HT     0.417000        1.0080           0
   45190 WT2  8206 TIP3 OH2  OT    -0.834000       15.9994           0
   45191 WT2  8206 TIP3 H1   HT     0.417000        1.0080           0
   45192 WT2  8206 TIP3 H2   HT     0.417000        1.0080           0
   45193 WT2  8207 TIP3 OH2  OT    -0.834000       15.9994           0
   45194 WT2  8207 TIP3 H1   HT     0.417000        1.0080           0
   45195 WT2  8207 TIP3 H2   HT     0.417000        1.0080           0
   45196 WT2  8210 TIP3 OH2  OT    -0.834000       15.9994           0
   45197 WT2  8210 TIP3 H1   HT     0.417000        1.0080           0
   45198 WT2  8210 TIP3 H2   HT     0.417000        1.0080           0
   45199 WT2  8211 TIP3 OH2  OT    -0.834000       15.9994           0
   45200 WT2  8211 TIP3 H1   HT     0.417000        1.0080           0
   45201 WT2  8211 TIP3 H2   HT     0.417000        1.0080           0
   45202 WT2  8212 TIP3 OH2  OT    -0.834000       15.9994           0
   45203 WT2  8212 TIP3 H1   HT     0.417000        1.0080           0
   45204 WT2  8212 TIP3 H2   HT     0.417000        1.0080           0
   45205 WT2  8215 TIP3 OH2  OT    -0.834000       15.9994           0
   45206 WT2  8215 TIP3 H1   HT     0.417000        1.0080           0
   45207 WT2  8215 TIP3 H2   HT     0.417000        1.0080           0
   45208 WT2  8216 TIP3 OH2  OT    -0.834000       15.9994           0
   45209 WT2  8216 TIP3 H1   HT     0.417000        1.0080           0
   45210 WT2  8216 TIP3 H2   HT     0.417000        1.0080           0
   45211 WT2  8217 TIP3 OH2  OT    -0.834000       15.9994           0
   45212 WT2  8217 TIP3 H1   HT     0.417000        1.0080           0
   45213 WT2  8217 TIP3 H2   HT     0.417000        1.0080           0
   45214 WT2  8218 TIP3 OH2  OT    -0.834000       15.9994           0
   45215 WT2  8218 TIP3 H1   HT     0.417000        1.0080           0
   45216 WT2  8218 TIP3 H2   HT     0.417000        1.0080           0
   45217 WT2  8219 TIP3 OH2  OT    -0.834000       15.9994           0
   45218 WT2  8219 TIP3 H1   HT     0.417000        1.0080           0
   45219 WT2  8219 TIP3 H2   HT     0.417000        1.0080           0
   45220 WT2  8220 TIP3 OH2  OT    -0.834000       15.9994           0
   45221 WT2  8220 TIP3 H1   HT     0.417000        1.0080           0
   45222 WT2  8220 TIP3 H2   HT     0.417000        1.0080           0
   45223 WT2  8221 TIP3 OH2  OT    -0.834000       15.9994           0
   45224 WT2  8221 TIP3 H1   HT     0.417000        1.0080           0
   45225 WT2  8221 TIP3 H2   HT     0.417000        1.0080           0
   45226 WT2  8222 TIP3 OH2  OT    -0.834000       15.9994           0
   45227 WT2  8222 TIP3 H1   HT     0.417000        1.0080           0
   45228 WT2  8222 TIP3 H2   HT     0.417000        1.0080           0
   45229 WT2  8223 TIP3 OH2  OT    -0.834000       15.9994           0
   45230 WT2  8223 TIP3 H1   HT     0.417000        1.0080           0
   45231 WT2  8223 TIP3 H2   HT     0.417000        1.0080           0
   45232 WT2  8224 TIP3 OH2  OT    -0.834000       15.9994           0
   45233 WT2  8224 TIP3 H1   HT     0.417000        1.0080           0
   45234 WT2  8224 TIP3 H2   HT     0.417000        1.0080           0
   45235 WT2  8225 TIP3 OH2  OT    -0.834000       15.9994           0
   45236 WT2  8225 TIP3 H1   HT     0.417000        1.0080           0
   45237 WT2  8225 TIP3 H2   HT     0.417000        1.0080           0
   45238 WT2  8226 TIP3 OH2  OT    -0.834000       15.9994           0
   45239 WT2  8226 TIP3 H1   HT     0.417000        1.0080           0
   45240 WT2  8226 TIP3 H2   HT     0.417000        1.0080           0
   45241 WT2  8227 TIP3 OH2  OT    -0.834000       15.9994           0
   45242 WT2  8227 TIP3 H1   HT     0.417000        1.0080           0
   45243 WT2  8227 TIP3 H2   HT     0.417000        1.0080           0
   45244 WT2  8229 TIP3 OH2  OT    -0.834000       15.9994           0
   45245 WT2  8229 TIP3 H1   HT     0.417000        1.0080           0
   45246 WT2  8229 TIP3 H2   HT     0.417000        1.0080           0
   45247 WT2  8231 TIP3 OH2  OT    -0.834000       15.9994           0
   45248 WT2  8231 TIP3 H1   HT     0.417000        1.0080           0
   45249 WT2  8231 TIP3 H2   HT     0.417000        1.0080           0
   45250 WT2  8233 TIP3 OH2  OT    -0.834000       15.9994           0
   45251 WT2  8233 TIP3 H1   HT     0.417000        1.0080           0
   45252 WT2  8233 TIP3 H2   HT     0.417000        1.0080           0
   45253 WT2  8234 TIP3 OH2  OT    -0.834000       15.9994           0
   45254 WT2  8234 TIP3 H1   HT     0.417000        1.0080           0
   45255 WT2  8234 TIP3 H2   HT     0.417000        1.0080           0
   45256 WT2  8235 TIP3 OH2  OT    -0.834000       15.9994           0
   45257 WT2  8235 TIP3 H1   HT     0.417000        1.0080           0
   45258 WT2  8235 TIP3 H2   HT     0.417000        1.0080           0
   45259 WT2  8237 TIP3 OH2  OT    -0.834000       15.9994           0
   45260 WT2  8237 TIP3 H1   HT     0.417000        1.0080           0
   45261 WT2  8237 TIP3 H2   HT     0.417000        1.0080           0
   45262 WT2  8238 TIP3 OH2  OT    -0.834000       15.9994           0
   45263 WT2  8238 TIP3 H1   HT     0.417000        1.0080           0
   45264 WT2  8238 TIP3 H2   HT     0.417000        1.0080           0
   45265 WT2  8239 TIP3 OH2  OT    -0.834000       15.9994           0
   45266 WT2  8239 TIP3 H1   HT     0.417000        1.0080           0
   45267 WT2  8239 TIP3 H2   HT     0.417000        1.0080           0
   45268 WT2  8240 TIP3 OH2  OT    -0.834000       15.9994           0
   45269 WT2  8240 TIP3 H1   HT     0.417000        1.0080           0
   45270 WT2  8240 TIP3 H2   HT     0.417000        1.0080           0
   45271 WT2  8241 TIP3 OH2  OT    -0.834000       15.9994           0
   45272 WT2  8241 TIP3 H1   HT     0.417000        1.0080           0
   45273 WT2  8241 TIP3 H2   HT     0.417000        1.0080           0
   45274 WT2  8242 TIP3 OH2  OT    -0.834000       15.9994           0
   45275 WT2  8242 TIP3 H1   HT     0.417000        1.0080           0
   45276 WT2  8242 TIP3 H2   HT     0.417000        1.0080           0
   45277 WT2  8243 TIP3 OH2  OT    -0.834000       15.9994           0
   45278 WT2  8243 TIP3 H1   HT     0.417000        1.0080           0
   45279 WT2  8243 TIP3 H2   HT     0.417000        1.0080           0
   45280 WT2  8244 TIP3 OH2  OT    -0.834000       15.9994           0
   45281 WT2  8244 TIP3 H1   HT     0.417000        1.0080           0
   45282 WT2  8244 TIP3 H2   HT     0.417000        1.0080           0
   45283 WT2  8246 TIP3 OH2  OT    -0.834000       15.9994           0
   45284 WT2  8246 TIP3 H1   HT     0.417000        1.0080           0
   45285 WT2  8246 TIP3 H2   HT     0.417000        1.0080           0
   45286 WT2  8247 TIP3 OH2  OT    -0.834000       15.9994           0
   45287 WT2  8247 TIP3 H1   HT     0.417000        1.0080           0
   45288 WT2  8247 TIP3 H2   HT     0.417000        1.0080           0
   45289 WT2  8254 TIP3 OH2  OT    -0.834000       15.9994           0
   45290 WT2  8254 TIP3 H1   HT     0.417000        1.0080           0
   45291 WT2  8254 TIP3 H2   HT     0.417000        1.0080           0
   45292 WT2  8256 TIP3 OH2  OT    -0.834000       15.9994           0
   45293 WT2  8256 TIP3 H1   HT     0.417000        1.0080           0
   45294 WT2  8256 TIP3 H2   HT     0.417000        1.0080           0
   45295 WT2  8257 TIP3 OH2  OT    -0.834000       15.9994           0
   45296 WT2  8257 TIP3 H1   HT     0.417000        1.0080           0
   45297 WT2  8257 TIP3 H2   HT     0.417000        1.0080           0
   45298 WT2  8258 TIP3 OH2  OT    -0.834000       15.9994           0
   45299 WT2  8258 TIP3 H1   HT     0.417000        1.0080           0
   45300 WT2  8258 TIP3 H2   HT     0.417000        1.0080           0
   45301 WT2  8259 TIP3 OH2  OT    -0.834000       15.9994           0
   45302 WT2  8259 TIP3 H1   HT     0.417000        1.0080           0
   45303 WT2  8259 TIP3 H2   HT     0.417000        1.0080           0
   45304 WT2  8260 TIP3 OH2  OT    -0.834000       15.9994           0
   45305 WT2  8260 TIP3 H1   HT     0.417000        1.0080           0
   45306 WT2  8260 TIP3 H2   HT     0.417000        1.0080           0
   45307 WT2  8261 TIP3 OH2  OT    -0.834000       15.9994           0
   45308 WT2  8261 TIP3 H1   HT     0.417000        1.0080           0
   45309 WT2  8261 TIP3 H2   HT     0.417000        1.0080           0
   45310 WT2  8262 TIP3 OH2  OT    -0.834000       15.9994           0
   45311 WT2  8262 TIP3 H1   HT     0.417000        1.0080           0
   45312 WT2  8262 TIP3 H2   HT     0.417000        1.0080           0
   45313 WT2  8263 TIP3 OH2  OT    -0.834000       15.9994           0
   45314 WT2  8263 TIP3 H1   HT     0.417000        1.0080           0
   45315 WT2  8263 TIP3 H2   HT     0.417000        1.0080           0
   45316 WT2  8264 TIP3 OH2  OT    -0.834000       15.9994           0
   45317 WT2  8264 TIP3 H1   HT     0.417000        1.0080           0
   45318 WT2  8264 TIP3 H2   HT     0.417000        1.0080           0
   45319 WT2  8265 TIP3 OH2  OT    -0.834000       15.9994           0
   45320 WT2  8265 TIP3 H1   HT     0.417000        1.0080           0
   45321 WT2  8265 TIP3 H2   HT     0.417000        1.0080           0
   45322 WT2  8266 TIP3 OH2  OT    -0.834000       15.9994           0
   45323 WT2  8266 TIP3 H1   HT     0.417000        1.0080           0
   45324 WT2  8266 TIP3 H2   HT     0.417000        1.0080           0
   45325 WT2  8267 TIP3 OH2  OT    -0.834000       15.9994           0
   45326 WT2  8267 TIP3 H1   HT     0.417000        1.0080           0
   45327 WT2  8267 TIP3 H2   HT     0.417000        1.0080           0
   45328 WT2  8276 TIP3 OH2  OT    -0.834000       15.9994           0
   45329 WT2  8276 TIP3 H1   HT     0.417000        1.0080           0
   45330 WT2  8276 TIP3 H2   HT     0.417000        1.0080           0
   45331 WT2  8277 TIP3 OH2  OT    -0.834000       15.9994           0
   45332 WT2  8277 TIP3 H1   HT     0.417000        1.0080           0
   45333 WT2  8277 TIP3 H2   HT     0.417000        1.0080           0
   45334 WT2  8278 TIP3 OH2  OT    -0.834000       15.9994           0
   45335 WT2  8278 TIP3 H1   HT     0.417000        1.0080           0
   45336 WT2  8278 TIP3 H2   HT     0.417000        1.0080           0
   45337 WT2  8279 TIP3 OH2  OT    -0.834000       15.9994           0
   45338 WT2  8279 TIP3 H1   HT     0.417000        1.0080           0
   45339 WT2  8279 TIP3 H2   HT     0.417000        1.0080           0
   45340 WT2  8280 TIP3 OH2  OT    -0.834000       15.9994           0
   45341 WT2  8280 TIP3 H1   HT     0.417000        1.0080           0
   45342 WT2  8280 TIP3 H2   HT     0.417000        1.0080           0
   45343 WT2  8281 TIP3 OH2  OT    -0.834000       15.9994           0
   45344 WT2  8281 TIP3 H1   HT     0.417000        1.0080           0
   45345 WT2  8281 TIP3 H2   HT     0.417000        1.0080           0
   45346 WT2  8282 TIP3 OH2  OT    -0.834000       15.9994           0
   45347 WT2  8282 TIP3 H1   HT     0.417000        1.0080           0
   45348 WT2  8282 TIP3 H2   HT     0.417000        1.0080           0
   45349 WT2  8283 TIP3 OH2  OT    -0.834000       15.9994           0
   45350 WT2  8283 TIP3 H1   HT     0.417000        1.0080           0
   45351 WT2  8283 TIP3 H2   HT     0.417000        1.0080           0
   45352 WT2  8284 TIP3 OH2  OT    -0.834000       15.9994           0
   45353 WT2  8284 TIP3 H1   HT     0.417000        1.0080           0
   45354 WT2  8284 TIP3 H2   HT     0.417000        1.0080           0
   45355 WT2  8285 TIP3 OH2  OT    -0.834000       15.9994           0
   45356 WT2  8285 TIP3 H1   HT     0.417000        1.0080           0
   45357 WT2  8285 TIP3 H2   HT     0.417000        1.0080           0
   45358 WT2  8286 TIP3 OH2  OT    -0.834000       15.9994           0
   45359 WT2  8286 TIP3 H1   HT     0.417000        1.0080           0
   45360 WT2  8286 TIP3 H2   HT     0.417000        1.0080           0
   45361 WT2  8288 TIP3 OH2  OT    -0.834000       15.9994           0
   45362 WT2  8288 TIP3 H1   HT     0.417000        1.0080           0
   45363 WT2  8288 TIP3 H2   HT     0.417000        1.0080           0
   45364 WT2  8289 TIP3 OH2  OT    -0.834000       15.9994           0
   45365 WT2  8289 TIP3 H1   HT     0.417000        1.0080           0
   45366 WT2  8289 TIP3 H2   HT     0.417000        1.0080           0
   45367 WT2  8290 TIP3 OH2  OT    -0.834000       15.9994           0
   45368 WT2  8290 TIP3 H1   HT     0.417000        1.0080           0
   45369 WT2  8290 TIP3 H2   HT     0.417000        1.0080           0
   45370 WT2  8296 TIP3 OH2  OT    -0.834000       15.9994           0
   45371 WT2  8296 TIP3 H1   HT     0.417000        1.0080           0
   45372 WT2  8296 TIP3 H2   HT     0.417000        1.0080           0
   45373 WT2  8297 TIP3 OH2  OT    -0.834000       15.9994           0
   45374 WT2  8297 TIP3 H1   HT     0.417000        1.0080           0
   45375 WT2  8297 TIP3 H2   HT     0.417000        1.0080           0
   45376 WT2  8299 TIP3 OH2  OT    -0.834000       15.9994           0
   45377 WT2  8299 TIP3 H1   HT     0.417000        1.0080           0
   45378 WT2  8299 TIP3 H2   HT     0.417000        1.0080           0
   45379 WT2  8300 TIP3 OH2  OT    -0.834000       15.9994           0
   45380 WT2  8300 TIP3 H1   HT     0.417000        1.0080           0
   45381 WT2  8300 TIP3 H2   HT     0.417000        1.0080           0
   45382 WT2  8301 TIP3 OH2  OT    -0.834000       15.9994           0
   45383 WT2  8301 TIP3 H1   HT     0.417000        1.0080           0
   45384 WT2  8301 TIP3 H2   HT     0.417000        1.0080           0
   45385 WT2  8302 TIP3 OH2  OT    -0.834000       15.9994           0
   45386 WT2  8302 TIP3 H1   HT     0.417000        1.0080           0
   45387 WT2  8302 TIP3 H2   HT     0.417000        1.0080           0
   45388 WT2  8303 TIP3 OH2  OT    -0.834000       15.9994           0
   45389 WT2  8303 TIP3 H1   HT     0.417000        1.0080           0
   45390 WT2  8303 TIP3 H2   HT     0.417000        1.0080           0
   45391 WT2  8305 TIP3 OH2  OT    -0.834000       15.9994           0
   45392 WT2  8305 TIP3 H1   HT     0.417000        1.0080           0
   45393 WT2  8305 TIP3 H2   HT     0.417000        1.0080           0
   45394 WT2  8306 TIP3 OH2  OT    -0.834000       15.9994           0
   45395 WT2  8306 TIP3 H1   HT     0.417000        1.0080           0
   45396 WT2  8306 TIP3 H2   HT     0.417000        1.0080           0
   45397 WT2  8307 TIP3 OH2  OT    -0.834000       15.9994           0
   45398 WT2  8307 TIP3 H1   HT     0.417000        1.0080           0
   45399 WT2  8307 TIP3 H2   HT     0.417000        1.0080           0
   45400 WT2  8308 TIP3 OH2  OT    -0.834000       15.9994           0
   45401 WT2  8308 TIP3 H1   HT     0.417000        1.0080           0
   45402 WT2  8308 TIP3 H2   HT     0.417000        1.0080           0
   45403 WT2  8309 TIP3 OH2  OT    -0.834000       15.9994           0
   45404 WT2  8309 TIP3 H1   HT     0.417000        1.0080           0
   45405 WT2  8309 TIP3 H2   HT     0.417000        1.0080           0
   45406 WT2  8310 TIP3 OH2  OT    -0.834000       15.9994           0
   45407 WT2  8310 TIP3 H1   HT     0.417000        1.0080           0
   45408 WT2  8310 TIP3 H2   HT     0.417000        1.0080           0
   45409 WT2  8313 TIP3 OH2  OT    -0.834000       15.9994           0
   45410 WT2  8313 TIP3 H1   HT     0.417000        1.0080           0
   45411 WT2  8313 TIP3 H2   HT     0.417000        1.0080           0
   45412 WT2  8315 TIP3 OH2  OT    -0.834000       15.9994           0
   45413 WT2  8315 TIP3 H1   HT     0.417000        1.0080           0
   45414 WT2  8315 TIP3 H2   HT     0.417000        1.0080           0
   45415 WT2  8317 TIP3 OH2  OT    -0.834000       15.9994           0
   45416 WT2  8317 TIP3 H1   HT     0.417000        1.0080           0
   45417 WT2  8317 TIP3 H2   HT     0.417000        1.0080           0
   45418 WT2  8318 TIP3 OH2  OT    -0.834000       15.9994           0
   45419 WT2  8318 TIP3 H1   HT     0.417000        1.0080           0
   45420 WT2  8318 TIP3 H2   HT     0.417000        1.0080           0
   45421 WT2  8319 TIP3 OH2  OT    -0.834000       15.9994           0
   45422 WT2  8319 TIP3 H1   HT     0.417000        1.0080           0
   45423 WT2  8319 TIP3 H2   HT     0.417000        1.0080           0
   45424 WT2  8322 TIP3 OH2  OT    -0.834000       15.9994           0
   45425 WT2  8322 TIP3 H1   HT     0.417000        1.0080           0
   45426 WT2  8322 TIP3 H2   HT     0.417000        1.0080           0
   45427 WT2  8323 TIP3 OH2  OT    -0.834000       15.9994           0
   45428 WT2  8323 TIP3 H1   HT     0.417000        1.0080           0
   45429 WT2  8323 TIP3 H2   HT     0.417000        1.0080           0
   45430 WT2  8324 TIP3 OH2  OT    -0.834000       15.9994           0
   45431 WT2  8324 TIP3 H1   HT     0.417000        1.0080           0
   45432 WT2  8324 TIP3 H2   HT     0.417000        1.0080           0
   45433 WT2  8325 TIP3 OH2  OT    -0.834000       15.9994           0
   45434 WT2  8325 TIP3 H1   HT     0.417000        1.0080           0
   45435 WT2  8325 TIP3 H2   HT     0.417000        1.0080           0
   45436 WT2  8326 TIP3 OH2  OT    -0.834000       15.9994           0
   45437 WT2  8326 TIP3 H1   HT     0.417000        1.0080           0
   45438 WT2  8326 TIP3 H2   HT     0.417000        1.0080           0
   45439 WT2  8327 TIP3 OH2  OT    -0.834000       15.9994           0
   45440 WT2  8327 TIP3 H1   HT     0.417000        1.0080           0
   45441 WT2  8327 TIP3 H2   HT     0.417000        1.0080           0
   45442 WT2  8332 TIP3 OH2  OT    -0.834000       15.9994           0
   45443 WT2  8332 TIP3 H1   HT     0.417000        1.0080           0
   45444 WT2  8332 TIP3 H2   HT     0.417000        1.0080           0
   45445 WT2  8333 TIP3 OH2  OT    -0.834000       15.9994           0
   45446 WT2  8333 TIP3 H1   HT     0.417000        1.0080           0
   45447 WT2  8333 TIP3 H2   HT     0.417000        1.0080           0
   45448 WT2  8336 TIP3 OH2  OT    -0.834000       15.9994           0
   45449 WT2  8336 TIP3 H1   HT     0.417000        1.0080           0
   45450 WT2  8336 TIP3 H2   HT     0.417000        1.0080           0
   45451 WT2  8338 TIP3 OH2  OT    -0.834000       15.9994           0
   45452 WT2  8338 TIP3 H1   HT     0.417000        1.0080           0
   45453 WT2  8338 TIP3 H2   HT     0.417000        1.0080           0
   45454 WT2  8339 TIP3 OH2  OT    -0.834000       15.9994           0
   45455 WT2  8339 TIP3 H1   HT     0.417000        1.0080           0
   45456 WT2  8339 TIP3 H2   HT     0.417000        1.0080           0
   45457 WT2  8341 TIP3 OH2  OT    -0.834000       15.9994           0
   45458 WT2  8341 TIP3 H1   HT     0.417000        1.0080           0
   45459 WT2  8341 TIP3 H2   HT     0.417000        1.0080           0
   45460 WT2  8342 TIP3 OH2  OT    -0.834000       15.9994           0
   45461 WT2  8342 TIP3 H1   HT     0.417000        1.0080           0
   45462 WT2  8342 TIP3 H2   HT     0.417000        1.0080           0
   45463 WT2  8343 TIP3 OH2  OT    -0.834000       15.9994           0
   45464 WT2  8343 TIP3 H1   HT     0.417000        1.0080           0
   45465 WT2  8343 TIP3 H2   HT     0.417000        1.0080           0
   45466 WT2  8344 TIP3 OH2  OT    -0.834000       15.9994           0
   45467 WT2  8344 TIP3 H1   HT     0.417000        1.0080           0
   45468 WT2  8344 TIP3 H2   HT     0.417000        1.0080           0
   45469 WT2  8345 TIP3 OH2  OT    -0.834000       15.9994           0
   45470 WT2  8345 TIP3 H1   HT     0.417000        1.0080           0
   45471 WT2  8345 TIP3 H2   HT     0.417000        1.0080           0
   45472 WT2  8346 TIP3 OH2  OT    -0.834000       15.9994           0
   45473 WT2  8346 TIP3 H1   HT     0.417000        1.0080           0
   45474 WT2  8346 TIP3 H2   HT     0.417000        1.0080           0
   45475 WT2  8347 TIP3 OH2  OT    -0.834000       15.9994           0
   45476 WT2  8347 TIP3 H1   HT     0.417000        1.0080           0
   45477 WT2  8347 TIP3 H2   HT     0.417000        1.0080           0
   45478 WT2  8348 TIP3 OH2  OT    -0.834000       15.9994           0
   45479 WT2  8348 TIP3 H1   HT     0.417000        1.0080           0
   45480 WT2  8348 TIP3 H2   HT     0.417000        1.0080           0
   45481 WT2  8349 TIP3 OH2  OT    -0.834000       15.9994           0
   45482 WT2  8349 TIP3 H1   HT     0.417000        1.0080           0
   45483 WT2  8349 TIP3 H2   HT     0.417000        1.0080           0
   45484 WT2  8350 TIP3 OH2  OT    -0.834000       15.9994           0
   45485 WT2  8350 TIP3 H1   HT     0.417000        1.0080           0
   45486 WT2  8350 TIP3 H2   HT     0.417000        1.0080           0
   45487 WT2  8351 TIP3 OH2  OT    -0.834000       15.9994           0
   45488 WT2  8351 TIP3 H1   HT     0.417000        1.0080           0
   45489 WT2  8351 TIP3 H2   HT     0.417000        1.0080           0
   45490 WT2  8352 TIP3 OH2  OT    -0.834000       15.9994           0
   45491 WT2  8352 TIP3 H1   HT     0.417000        1.0080           0
   45492 WT2  8352 TIP3 H2   HT     0.417000        1.0080           0
   45493 WT2  8354 TIP3 OH2  OT    -0.834000       15.9994           0
   45494 WT2  8354 TIP3 H1   HT     0.417000        1.0080           0
   45495 WT2  8354 TIP3 H2   HT     0.417000        1.0080           0
   45496 WT2  8362 TIP3 OH2  OT    -0.834000       15.9994           0
   45497 WT2  8362 TIP3 H1   HT     0.417000        1.0080           0
   45498 WT2  8362 TIP3 H2   HT     0.417000        1.0080           0
   45499 WT2  8363 TIP3 OH2  OT    -0.834000       15.9994           0
   45500 WT2  8363 TIP3 H1   HT     0.417000        1.0080           0
   45501 WT2  8363 TIP3 H2   HT     0.417000        1.0080           0
   45502 WT2  8364 TIP3 OH2  OT    -0.834000       15.9994           0
   45503 WT2  8364 TIP3 H1   HT     0.417000        1.0080           0
   45504 WT2  8364 TIP3 H2   HT     0.417000        1.0080           0
   45505 WT2  8365 TIP3 OH2  OT    -0.834000       15.9994           0
   45506 WT2  8365 TIP3 H1   HT     0.417000        1.0080           0
   45507 WT2  8365 TIP3 H2   HT     0.417000        1.0080           0
   45508 WT2  8366 TIP3 OH2  OT    -0.834000       15.9994           0
   45509 WT2  8366 TIP3 H1   HT     0.417000        1.0080           0
   45510 WT2  8366 TIP3 H2   HT     0.417000        1.0080           0
   45511 WT2  8367 TIP3 OH2  OT    -0.834000       15.9994           0
   45512 WT2  8367 TIP3 H1   HT     0.417000        1.0080           0
   45513 WT2  8367 TIP3 H2   HT     0.417000        1.0080           0
   45514 WT2  8368 TIP3 OH2  OT    -0.834000       15.9994           0
   45515 WT2  8368 TIP3 H1   HT     0.417000        1.0080           0
   45516 WT2  8368 TIP3 H2   HT     0.417000        1.0080           0
   45517 WT2  8369 TIP3 OH2  OT    -0.834000       15.9994           0
   45518 WT2  8369 TIP3 H1   HT     0.417000        1.0080           0
   45519 WT2  8369 TIP3 H2   HT     0.417000        1.0080           0
   45520 WT2  8370 TIP3 OH2  OT    -0.834000       15.9994           0
   45521 WT2  8370 TIP3 H1   HT     0.417000        1.0080           0
   45522 WT2  8370 TIP3 H2   HT     0.417000        1.0080           0
   45523 WT2  8371 TIP3 OH2  OT    -0.834000       15.9994           0
   45524 WT2  8371 TIP3 H1   HT     0.417000        1.0080           0
   45525 WT2  8371 TIP3 H2   HT     0.417000        1.0080           0
   45526 WT2  8373 TIP3 OH2  OT    -0.834000       15.9994           0
   45527 WT2  8373 TIP3 H1   HT     0.417000        1.0080           0
   45528 WT2  8373 TIP3 H2   HT     0.417000        1.0080           0
   45529 WT2  8377 TIP3 OH2  OT    -0.834000       15.9994           0
   45530 WT2  8377 TIP3 H1   HT     0.417000        1.0080           0
   45531 WT2  8377 TIP3 H2   HT     0.417000        1.0080           0
   45532 WT2  8378 TIP3 OH2  OT    -0.834000       15.9994           0
   45533 WT2  8378 TIP3 H1   HT     0.417000        1.0080           0
   45534 WT2  8378 TIP3 H2   HT     0.417000        1.0080           0
   45535 WT2  8379 TIP3 OH2  OT    -0.834000       15.9994           0
   45536 WT2  8379 TIP3 H1   HT     0.417000        1.0080           0
   45537 WT2  8379 TIP3 H2   HT     0.417000        1.0080           0
   45538 WT2  8380 TIP3 OH2  OT    -0.834000       15.9994           0
   45539 WT2  8380 TIP3 H1   HT     0.417000        1.0080           0
   45540 WT2  8380 TIP3 H2   HT     0.417000        1.0080           0
   45541 WT2  8381 TIP3 OH2  OT    -0.834000       15.9994           0
   45542 WT2  8381 TIP3 H1   HT     0.417000        1.0080           0
   45543 WT2  8381 TIP3 H2   HT     0.417000        1.0080           0
   45544 WT2  8382 TIP3 OH2  OT    -0.834000       15.9994           0
   45545 WT2  8382 TIP3 H1   HT     0.417000        1.0080           0
   45546 WT2  8382 TIP3 H2   HT     0.417000        1.0080           0
   45547 WT2  8383 TIP3 OH2  OT    -0.834000       15.9994           0
   45548 WT2  8383 TIP3 H1   HT     0.417000        1.0080           0
   45549 WT2  8383 TIP3 H2   HT     0.417000        1.0080           0
   45550 WT2  8384 TIP3 OH2  OT    -0.834000       15.9994           0
   45551 WT2  8384 TIP3 H1   HT     0.417000        1.0080           0
   45552 WT2  8384 TIP3 H2   HT     0.417000        1.0080           0
   45553 WT2  8385 TIP3 OH2  OT    -0.834000       15.9994           0
   45554 WT2  8385 TIP3 H1   HT     0.417000        1.0080           0
   45555 WT2  8385 TIP3 H2   HT     0.417000        1.0080           0
   45556 WT2  8386 TIP3 OH2  OT    -0.834000       15.9994           0
   45557 WT2  8386 TIP3 H1   HT     0.417000        1.0080           0
   45558 WT2  8386 TIP3 H2   HT     0.417000        1.0080           0
   45559 WT2  8387 TIP3 OH2  OT    -0.834000       15.9994           0
   45560 WT2  8387 TIP3 H1   HT     0.417000        1.0080           0
   45561 WT2  8387 TIP3 H2   HT     0.417000        1.0080           0
   45562 WT2  8388 TIP3 OH2  OT    -0.834000       15.9994           0
   45563 WT2  8388 TIP3 H1   HT     0.417000        1.0080           0
   45564 WT2  8388 TIP3 H2   HT     0.417000        1.0080           0
   45565 WT2  8389 TIP3 OH2  OT    -0.834000       15.9994           0
   45566 WT2  8389 TIP3 H1   HT     0.417000        1.0080           0
   45567 WT2  8389 TIP3 H2   HT     0.417000        1.0080           0
   45568 WT2  8390 TIP3 OH2  OT    -0.834000       15.9994           0
   45569 WT2  8390 TIP3 H1   HT     0.417000        1.0080           0
   45570 WT2  8390 TIP3 H2   HT     0.417000        1.0080           0
   45571 WT2  8392 TIP3 OH2  OT    -0.834000       15.9994           0
   45572 WT2  8392 TIP3 H1   HT     0.417000        1.0080           0
   45573 WT2  8392 TIP3 H2   HT     0.417000        1.0080           0
   45574 WT2  8394 TIP3 OH2  OT    -0.834000       15.9994           0
   45575 WT2  8394 TIP3 H1   HT     0.417000        1.0080           0
   45576 WT2  8394 TIP3 H2   HT     0.417000        1.0080           0
   45577 WT2  8403 TIP3 OH2  OT    -0.834000       15.9994           0
   45578 WT2  8403 TIP3 H1   HT     0.417000        1.0080           0
   45579 WT2  8403 TIP3 H2   HT     0.417000        1.0080           0
   45580 WT2  8404 TIP3 OH2  OT    -0.834000       15.9994           0
   45581 WT2  8404 TIP3 H1   HT     0.417000        1.0080           0
   45582 WT2  8404 TIP3 H2   HT     0.417000        1.0080           0
   45583 WT2  8405 TIP3 OH2  OT    -0.834000       15.9994           0
   45584 WT2  8405 TIP3 H1   HT     0.417000        1.0080           0
   45585 WT2  8405 TIP3 H2   HT     0.417000        1.0080           0
   45586 WT2  8406 TIP3 OH2  OT    -0.834000       15.9994           0
   45587 WT2  8406 TIP3 H1   HT     0.417000        1.0080           0
   45588 WT2  8406 TIP3 H2   HT     0.417000        1.0080           0
   45589 WT2  8407 TIP3 OH2  OT    -0.834000       15.9994           0
   45590 WT2  8407 TIP3 H1   HT     0.417000        1.0080           0
   45591 WT2  8407 TIP3 H2   HT     0.417000        1.0080           0
   45592 WT2  8408 TIP3 OH2  OT    -0.834000       15.9994           0
   45593 WT2  8408 TIP3 H1   HT     0.417000        1.0080           0
   45594 WT2  8408 TIP3 H2   HT     0.417000        1.0080           0
   45595 WT2  8409 TIP3 OH2  OT    -0.834000       15.9994           0
   45596 WT2  8409 TIP3 H1   HT     0.417000        1.0080           0
   45597 WT2  8409 TIP3 H2   HT     0.417000        1.0080           0
   45598 WT2  8410 TIP3 OH2  OT    -0.834000       15.9994           0
   45599 WT2  8410 TIP3 H1   HT     0.417000        1.0080           0
   45600 WT2  8410 TIP3 H2   HT     0.417000        1.0080           0
   45601 WT2  8411 TIP3 OH2  OT    -0.834000       15.9994           0
   45602 WT2  8411 TIP3 H1   HT     0.417000        1.0080           0
   45603 WT2  8411 TIP3 H2   HT     0.417000        1.0080           0
   45604 WT2  8412 TIP3 OH2  OT    -0.834000       15.9994           0
   45605 WT2  8412 TIP3 H1   HT     0.417000        1.0080           0
   45606 WT2  8412 TIP3 H2   HT     0.417000        1.0080           0
   45607 WT2  8413 TIP3 OH2  OT    -0.834000       15.9994           0
   45608 WT2  8413 TIP3 H1   HT     0.417000        1.0080           0
   45609 WT2  8413 TIP3 H2   HT     0.417000        1.0080           0
   45610 WT2  8415 TIP3 OH2  OT    -0.834000       15.9994           0
   45611 WT2  8415 TIP3 H1   HT     0.417000        1.0080           0
   45612 WT2  8415 TIP3 H2   HT     0.417000        1.0080           0
   45613 WT2  8418 TIP3 OH2  OT    -0.834000       15.9994           0
   45614 WT2  8418 TIP3 H1   HT     0.417000        1.0080           0
   45615 WT2  8418 TIP3 H2   HT     0.417000        1.0080           0
   45616 WT2  8425 TIP3 OH2  OT    -0.834000       15.9994           0
   45617 WT2  8425 TIP3 H1   HT     0.417000        1.0080           0
   45618 WT2  8425 TIP3 H2   HT     0.417000        1.0080           0
   45619 WT2  8426 TIP3 OH2  OT    -0.834000       15.9994           0
   45620 WT2  8426 TIP3 H1   HT     0.417000        1.0080           0
   45621 WT2  8426 TIP3 H2   HT     0.417000        1.0080           0
   45622 WT2  8427 TIP3 OH2  OT    -0.834000       15.9994           0
   45623 WT2  8427 TIP3 H1   HT     0.417000        1.0080           0
   45624 WT2  8427 TIP3 H2   HT     0.417000        1.0080           0
   45625 WT2  8428 TIP3 OH2  OT    -0.834000       15.9994           0
   45626 WT2  8428 TIP3 H1   HT     0.417000        1.0080           0
   45627 WT2  8428 TIP3 H2   HT     0.417000        1.0080           0
   45628 WT2  8429 TIP3 OH2  OT    -0.834000       15.9994           0
   45629 WT2  8429 TIP3 H1   HT     0.417000        1.0080           0
   45630 WT2  8429 TIP3 H2   HT     0.417000        1.0080           0
   45631 WT2  8430 TIP3 OH2  OT    -0.834000       15.9994           0
   45632 WT2  8430 TIP3 H1   HT     0.417000        1.0080           0
   45633 WT2  8430 TIP3 H2   HT     0.417000        1.0080           0
   45634 WT2  8431 TIP3 OH2  OT    -0.834000       15.9994           0
   45635 WT2  8431 TIP3 H1   HT     0.417000        1.0080           0
   45636 WT2  8431 TIP3 H2   HT     0.417000        1.0080           0
   45637 WT2  8432 TIP3 OH2  OT    -0.834000       15.9994           0
   45638 WT2  8432 TIP3 H1   HT     0.417000        1.0080           0
   45639 WT2  8432 TIP3 H2   HT     0.417000        1.0080           0
   45640 WT2  8433 TIP3 OH2  OT    -0.834000       15.9994           0
   45641 WT2  8433 TIP3 H1   HT     0.417000        1.0080           0
   45642 WT2  8433 TIP3 H2   HT     0.417000        1.0080           0
   45643 WT2  8435 TIP3 OH2  OT    -0.834000       15.9994           0
   45644 WT2  8435 TIP3 H1   HT     0.417000        1.0080           0
   45645 WT2  8435 TIP3 H2   HT     0.417000        1.0080           0
   45646 WT2  8436 TIP3 OH2  OT    -0.834000       15.9994           0
   45647 WT2  8436 TIP3 H1   HT     0.417000        1.0080           0
   45648 WT2  8436 TIP3 H2   HT     0.417000        1.0080           0
   45649 WT2  8441 TIP3 OH2  OT    -0.834000       15.9994           0
   45650 WT2  8441 TIP3 H1   HT     0.417000        1.0080           0
   45651 WT2  8441 TIP3 H2   HT     0.417000        1.0080           0
   45652 WT2  8442 TIP3 OH2  OT    -0.834000       15.9994           0
   45653 WT2  8442 TIP3 H1   HT     0.417000        1.0080           0
   45654 WT2  8442 TIP3 H2   HT     0.417000        1.0080           0
   45655 WT2  8444 TIP3 OH2  OT    -0.834000       15.9994           0
   45656 WT2  8444 TIP3 H1   HT     0.417000        1.0080           0
   45657 WT2  8444 TIP3 H2   HT     0.417000        1.0080           0
   45658 WT2  8445 TIP3 OH2  OT    -0.834000       15.9994           0
   45659 WT2  8445 TIP3 H1   HT     0.417000        1.0080           0
   45660 WT2  8445 TIP3 H2   HT     0.417000        1.0080           0
   45661 WT2  8446 TIP3 OH2  OT    -0.834000       15.9994           0
   45662 WT2  8446 TIP3 H1   HT     0.417000        1.0080           0
   45663 WT2  8446 TIP3 H2   HT     0.417000        1.0080           0
   45664 WT2  8448 TIP3 OH2  OT    -0.834000       15.9994           0
   45665 WT2  8448 TIP3 H1   HT     0.417000        1.0080           0
   45666 WT2  8448 TIP3 H2   HT     0.417000        1.0080           0
   45667 WT2  8449 TIP3 OH2  OT    -0.834000       15.9994           0
   45668 WT2  8449 TIP3 H1   HT     0.417000        1.0080           0
   45669 WT2  8449 TIP3 H2   HT     0.417000        1.0080           0
   45670 WT2  8450 TIP3 OH2  OT    -0.834000       15.9994           0
   45671 WT2  8450 TIP3 H1   HT     0.417000        1.0080           0
   45672 WT2  8450 TIP3 H2   HT     0.417000        1.0080           0
   45673 WT2  8451 TIP3 OH2  OT    -0.834000       15.9994           0
   45674 WT2  8451 TIP3 H1   HT     0.417000        1.0080           0
   45675 WT2  8451 TIP3 H2   HT     0.417000        1.0080           0
   45676 WT2  8453 TIP3 OH2  OT    -0.834000       15.9994           0
   45677 WT2  8453 TIP3 H1   HT     0.417000        1.0080           0
   45678 WT2  8453 TIP3 H2   HT     0.417000        1.0080           0
   45679 WT2  8454 TIP3 OH2  OT    -0.834000       15.9994           0
   45680 WT2  8454 TIP3 H1   HT     0.417000        1.0080           0
   45681 WT2  8454 TIP3 H2   HT     0.417000        1.0080           0
   45682 WT2  8455 TIP3 OH2  OT    -0.834000       15.9994           0
   45683 WT2  8455 TIP3 H1   HT     0.417000        1.0080           0
   45684 WT2  8455 TIP3 H2   HT     0.417000        1.0080           0
   45685 WT2  8456 TIP3 OH2  OT    -0.834000       15.9994           0
   45686 WT2  8456 TIP3 H1   HT     0.417000        1.0080           0
   45687 WT2  8456 TIP3 H2   HT     0.417000        1.0080           0
   45688 WT2  8457 TIP3 OH2  OT    -0.834000       15.9994           0
   45689 WT2  8457 TIP3 H1   HT     0.417000        1.0080           0
   45690 WT2  8457 TIP3 H2   HT     0.417000        1.0080           0
   45691 WT2  8462 TIP3 OH2  OT    -0.834000       15.9994           0
   45692 WT2  8462 TIP3 H1   HT     0.417000        1.0080           0
   45693 WT2  8462 TIP3 H2   HT     0.417000        1.0080           0
   45694 WT2  8463 TIP3 OH2  OT    -0.834000       15.9994           0
   45695 WT2  8463 TIP3 H1   HT     0.417000        1.0080           0
   45696 WT2  8463 TIP3 H2   HT     0.417000        1.0080           0
   45697 WT2  8465 TIP3 OH2  OT    -0.834000       15.9994           0
   45698 WT2  8465 TIP3 H1   HT     0.417000        1.0080           0
   45699 WT2  8465 TIP3 H2   HT     0.417000        1.0080           0
   45700 WT2  8466 TIP3 OH2  OT    -0.834000       15.9994           0
   45701 WT2  8466 TIP3 H1   HT     0.417000        1.0080           0
   45702 WT2  8466 TIP3 H2   HT     0.417000        1.0080           0
   45703 WT2  8468 TIP3 OH2  OT    -0.834000       15.9994           0
   45704 WT2  8468 TIP3 H1   HT     0.417000        1.0080           0
   45705 WT2  8468 TIP3 H2   HT     0.417000        1.0080           0
   45706 WT2  8469 TIP3 OH2  OT    -0.834000       15.9994           0
   45707 WT2  8469 TIP3 H1   HT     0.417000        1.0080           0
   45708 WT2  8469 TIP3 H2   HT     0.417000        1.0080           0
   45709 WT2  8470 TIP3 OH2  OT    -0.834000       15.9994           0
   45710 WT2  8470 TIP3 H1   HT     0.417000        1.0080           0
   45711 WT2  8470 TIP3 H2   HT     0.417000        1.0080           0
   45712 WT2  8471 TIP3 OH2  OT    -0.834000       15.9994           0
   45713 WT2  8471 TIP3 H1   HT     0.417000        1.0080           0
   45714 WT2  8471 TIP3 H2   HT     0.417000        1.0080           0
   45715 WT2  8472 TIP3 OH2  OT    -0.834000       15.9994           0
   45716 WT2  8472 TIP3 H1   HT     0.417000        1.0080           0
   45717 WT2  8472 TIP3 H2   HT     0.417000        1.0080           0
   45718 WT2  8473 TIP3 OH2  OT    -0.834000       15.9994           0
   45719 WT2  8473 TIP3 H1   HT     0.417000        1.0080           0
   45720 WT2  8473 TIP3 H2   HT     0.417000        1.0080           0
   45721 WT2  8474 TIP3 OH2  OT    -0.834000       15.9994           0
   45722 WT2  8474 TIP3 H1   HT     0.417000        1.0080           0
   45723 WT2  8474 TIP3 H2   HT     0.417000        1.0080           0
   45724 WT2  8475 TIP3 OH2  OT    -0.834000       15.9994           0
   45725 WT2  8475 TIP3 H1   HT     0.417000        1.0080           0
   45726 WT2  8475 TIP3 H2   HT     0.417000        1.0080           0
   45727 WT2  8476 TIP3 OH2  OT    -0.834000       15.9994           0
   45728 WT2  8476 TIP3 H1   HT     0.417000        1.0080           0
   45729 WT2  8476 TIP3 H2   HT     0.417000        1.0080           0
   45730 WT2  8477 TIP3 OH2  OT    -0.834000       15.9994           0
   45731 WT2  8477 TIP3 H1   HT     0.417000        1.0080           0
   45732 WT2  8477 TIP3 H2   HT     0.417000        1.0080           0
   45733 WT2  8480 TIP3 OH2  OT    -0.834000       15.9994           0
   45734 WT2  8480 TIP3 H1   HT     0.417000        1.0080           0
   45735 WT2  8480 TIP3 H2   HT     0.417000        1.0080           0
   45736 WT2  8486 TIP3 OH2  OT    -0.834000       15.9994           0
   45737 WT2  8486 TIP3 H1   HT     0.417000        1.0080           0
   45738 WT2  8486 TIP3 H2   HT     0.417000        1.0080           0
   45739 WT2  8487 TIP3 OH2  OT    -0.834000       15.9994           0
   45740 WT2  8487 TIP3 H1   HT     0.417000        1.0080           0
   45741 WT2  8487 TIP3 H2   HT     0.417000        1.0080           0
   45742 WT2  8488 TIP3 OH2  OT    -0.834000       15.9994           0
   45743 WT2  8488 TIP3 H1   HT     0.417000        1.0080           0
   45744 WT2  8488 TIP3 H2   HT     0.417000        1.0080           0
   45745 WT2  8489 TIP3 OH2  OT    -0.834000       15.9994           0
   45746 WT2  8489 TIP3 H1   HT     0.417000        1.0080           0
   45747 WT2  8489 TIP3 H2   HT     0.417000        1.0080           0
   45748 WT2  8490 TIP3 OH2  OT    -0.834000       15.9994           0
   45749 WT2  8490 TIP3 H1   HT     0.417000        1.0080           0
   45750 WT2  8490 TIP3 H2   HT     0.417000        1.0080           0
   45751 WT2  8491 TIP3 OH2  OT    -0.834000       15.9994           0
   45752 WT2  8491 TIP3 H1   HT     0.417000        1.0080           0
   45753 WT2  8491 TIP3 H2   HT     0.417000        1.0080           0
   45754 WT2  8492 TIP3 OH2  OT    -0.834000       15.9994           0
   45755 WT2  8492 TIP3 H1   HT     0.417000        1.0080           0
   45756 WT2  8492 TIP3 H2   HT     0.417000        1.0080           0
   45757 WT2  8493 TIP3 OH2  OT    -0.834000       15.9994           0
   45758 WT2  8493 TIP3 H1   HT     0.417000        1.0080           0
   45759 WT2  8493 TIP3 H2   HT     0.417000        1.0080           0
   45760 WT2  8494 TIP3 OH2  OT    -0.834000       15.9994           0
   45761 WT2  8494 TIP3 H1   HT     0.417000        1.0080           0
   45762 WT2  8494 TIP3 H2   HT     0.417000        1.0080           0
   45763 WT2  8495 TIP3 OH2  OT    -0.834000       15.9994           0
   45764 WT2  8495 TIP3 H1   HT     0.417000        1.0080           0
   45765 WT2  8495 TIP3 H2   HT     0.417000        1.0080           0
   45766 WT2  8499 TIP3 OH2  OT    -0.834000       15.9994           0
   45767 WT2  8499 TIP3 H1   HT     0.417000        1.0080           0
   45768 WT2  8499 TIP3 H2   HT     0.417000        1.0080           0
   45769 WT2  8504 TIP3 OH2  OT    -0.834000       15.9994           0
   45770 WT2  8504 TIP3 H1   HT     0.417000        1.0080           0
   45771 WT2  8504 TIP3 H2   HT     0.417000        1.0080           0
   45772 WT2  8505 TIP3 OH2  OT    -0.834000       15.9994           0
   45773 WT2  8505 TIP3 H1   HT     0.417000        1.0080           0
   45774 WT2  8505 TIP3 H2   HT     0.417000        1.0080           0
   45775 WT2  8506 TIP3 OH2  OT    -0.834000       15.9994           0
   45776 WT2  8506 TIP3 H1   HT     0.417000        1.0080           0
   45777 WT2  8506 TIP3 H2   HT     0.417000        1.0080           0
   45778 WT2  8507 TIP3 OH2  OT    -0.834000       15.9994           0
   45779 WT2  8507 TIP3 H1   HT     0.417000        1.0080           0
   45780 WT2  8507 TIP3 H2   HT     0.417000        1.0080           0
   45781 WT2  8508 TIP3 OH2  OT    -0.834000       15.9994           0
   45782 WT2  8508 TIP3 H1   HT     0.417000        1.0080           0
   45783 WT2  8508 TIP3 H2   HT     0.417000        1.0080           0
   45784 WT2  8509 TIP3 OH2  OT    -0.834000       15.9994           0
   45785 WT2  8509 TIP3 H1   HT     0.417000        1.0080           0
   45786 WT2  8509 TIP3 H2   HT     0.417000        1.0080           0
   45787 WT2  8511 TIP3 OH2  OT    -0.834000       15.9994           0
   45788 WT2  8511 TIP3 H1   HT     0.417000        1.0080           0
   45789 WT2  8511 TIP3 H2   HT     0.417000        1.0080           0
   45790 WT2  8512 TIP3 OH2  OT    -0.834000       15.9994           0
   45791 WT2  8512 TIP3 H1   HT     0.417000        1.0080           0
   45792 WT2  8512 TIP3 H2   HT     0.417000        1.0080           0
   45793 WT2  8513 TIP3 OH2  OT    -0.834000       15.9994           0
   45794 WT2  8513 TIP3 H1   HT     0.417000        1.0080           0
   45795 WT2  8513 TIP3 H2   HT     0.417000        1.0080           0
   45796 WT2  8514 TIP3 OH2  OT    -0.834000       15.9994           0
   45797 WT2  8514 TIP3 H1   HT     0.417000        1.0080           0
   45798 WT2  8514 TIP3 H2   HT     0.417000        1.0080           0
   45799 WT2  8515 TIP3 OH2  OT    -0.834000       15.9994           0
   45800 WT2  8515 TIP3 H1   HT     0.417000        1.0080           0
   45801 WT2  8515 TIP3 H2   HT     0.417000        1.0080           0
   45802 WT2  8516 TIP3 OH2  OT    -0.834000       15.9994           0
   45803 WT2  8516 TIP3 H1   HT     0.417000        1.0080           0
   45804 WT2  8516 TIP3 H2   HT     0.417000        1.0080           0
   45805 WT2  8517 TIP3 OH2  OT    -0.834000       15.9994           0
   45806 WT2  8517 TIP3 H1   HT     0.417000        1.0080           0
   45807 WT2  8517 TIP3 H2   HT     0.417000        1.0080           0
   45808 WT2  8519 TIP3 OH2  OT    -0.834000       15.9994           0
   45809 WT2  8519 TIP3 H1   HT     0.417000        1.0080           0
   45810 WT2  8519 TIP3 H2   HT     0.417000        1.0080           0
   45811 WT2  8520 TIP3 OH2  OT    -0.834000       15.9994           0
   45812 WT2  8520 TIP3 H1   HT     0.417000        1.0080           0
   45813 WT2  8520 TIP3 H2   HT     0.417000        1.0080           0
   45814 WT2  8529 TIP3 OH2  OT    -0.834000       15.9994           0
   45815 WT2  8529 TIP3 H1   HT     0.417000        1.0080           0
   45816 WT2  8529 TIP3 H2   HT     0.417000        1.0080           0
   45817 WT2  8530 TIP3 OH2  OT    -0.834000       15.9994           0
   45818 WT2  8530 TIP3 H1   HT     0.417000        1.0080           0
   45819 WT2  8530 TIP3 H2   HT     0.417000        1.0080           0
   45820 WT2  8531 TIP3 OH2  OT    -0.834000       15.9994           0
   45821 WT2  8531 TIP3 H1   HT     0.417000        1.0080           0
   45822 WT2  8531 TIP3 H2   HT     0.417000        1.0080           0
   45823 WT2  8532 TIP3 OH2  OT    -0.834000       15.9994           0
   45824 WT2  8532 TIP3 H1   HT     0.417000        1.0080           0
   45825 WT2  8532 TIP3 H2   HT     0.417000        1.0080           0
   45826 WT2  8533 TIP3 OH2  OT    -0.834000       15.9994           0
   45827 WT2  8533 TIP3 H1   HT     0.417000        1.0080           0
   45828 WT2  8533 TIP3 H2   HT     0.417000        1.0080           0
   45829 WT2  8534 TIP3 OH2  OT    -0.834000       15.9994           0
   45830 WT2  8534 TIP3 H1   HT     0.417000        1.0080           0
   45831 WT2  8534 TIP3 H2   HT     0.417000        1.0080           0
   45832 WT2  8535 TIP3 OH2  OT    -0.834000       15.9994           0
   45833 WT2  8535 TIP3 H1   HT     0.417000        1.0080           0
   45834 WT2  8535 TIP3 H2   HT     0.417000        1.0080           0
   45835 WT2  8536 TIP3 OH2  OT    -0.834000       15.9994           0
   45836 WT2  8536 TIP3 H1   HT     0.417000        1.0080           0
   45837 WT2  8536 TIP3 H2   HT     0.417000        1.0080           0
   45838 WT2  8538 TIP3 OH2  OT    -0.834000       15.9994           0
   45839 WT2  8538 TIP3 H1   HT     0.417000        1.0080           0
   45840 WT2  8538 TIP3 H2   HT     0.417000        1.0080           0
   45841 WT2  8539 TIP3 OH2  OT    -0.834000       15.9994           0
   45842 WT2  8539 TIP3 H1   HT     0.417000        1.0080           0
   45843 WT2  8539 TIP3 H2   HT     0.417000        1.0080           0
   45844 WT2  8541 TIP3 OH2  OT    -0.834000       15.9994           0
   45845 WT2  8541 TIP3 H1   HT     0.417000        1.0080           0
   45846 WT2  8541 TIP3 H2   HT     0.417000        1.0080           0
   45847 WT2  8543 TIP3 OH2  OT    -0.834000       15.9994           0
   45848 WT2  8543 TIP3 H1   HT     0.417000        1.0080           0
   45849 WT2  8543 TIP3 H2   HT     0.417000        1.0080           0
   45850 WT2  8544 TIP3 OH2  OT    -0.834000       15.9994           0
   45851 WT2  8544 TIP3 H1   HT     0.417000        1.0080           0
   45852 WT2  8544 TIP3 H2   HT     0.417000        1.0080           0
   45853 WT2  8545 TIP3 OH2  OT    -0.834000       15.9994           0
   45854 WT2  8545 TIP3 H1   HT     0.417000        1.0080           0
   45855 WT2  8545 TIP3 H2   HT     0.417000        1.0080           0
   45856 WT2  8548 TIP3 OH2  OT    -0.834000       15.9994           0
   45857 WT2  8548 TIP3 H1   HT     0.417000        1.0080           0
   45858 WT2  8548 TIP3 H2   HT     0.417000        1.0080           0
   45859 WT2  8549 TIP3 OH2  OT    -0.834000       15.9994           0
   45860 WT2  8549 TIP3 H1   HT     0.417000        1.0080           0
   45861 WT2  8549 TIP3 H2   HT     0.417000        1.0080           0
   45862 WT2  8550 TIP3 OH2  OT    -0.834000       15.9994           0
   45863 WT2  8550 TIP3 H1   HT     0.417000        1.0080           0
   45864 WT2  8550 TIP3 H2   HT     0.417000        1.0080           0
   45865 WT2  8551 TIP3 OH2  OT    -0.834000       15.9994           0
   45866 WT2  8551 TIP3 H1   HT     0.417000        1.0080           0
   45867 WT2  8551 TIP3 H2   HT     0.417000        1.0080           0
   45868 WT2  8553 TIP3 OH2  OT    -0.834000       15.9994           0
   45869 WT2  8553 TIP3 H1   HT     0.417000        1.0080           0
   45870 WT2  8553 TIP3 H2   HT     0.417000        1.0080           0
   45871 WT2  8554 TIP3 OH2  OT    -0.834000       15.9994           0
   45872 WT2  8554 TIP3 H1   HT     0.417000        1.0080           0
   45873 WT2  8554 TIP3 H2   HT     0.417000        1.0080           0
   45874 WT2  8555 TIP3 OH2  OT    -0.834000       15.9994           0
   45875 WT2  8555 TIP3 H1   HT     0.417000        1.0080           0
   45876 WT2  8555 TIP3 H2   HT     0.417000        1.0080           0
   45877 WT2  8556 TIP3 OH2  OT    -0.834000       15.9994           0
   45878 WT2  8556 TIP3 H1   HT     0.417000        1.0080           0
   45879 WT2  8556 TIP3 H2   HT     0.417000        1.0080           0
   45880 WT2  8557 TIP3 OH2  OT    -0.834000       15.9994           0
   45881 WT2  8557 TIP3 H1   HT     0.417000        1.0080           0
   45882 WT2  8557 TIP3 H2   HT     0.417000        1.0080           0
   45883 WT2  8558 TIP3 OH2  OT    -0.834000       15.9994           0
   45884 WT2  8558 TIP3 H1   HT     0.417000        1.0080           0
   45885 WT2  8558 TIP3 H2   HT     0.417000        1.0080           0
   45886 WT2  8559 TIP3 OH2  OT    -0.834000       15.9994           0
   45887 WT2  8559 TIP3 H1   HT     0.417000        1.0080           0
   45888 WT2  8559 TIP3 H2   HT     0.417000        1.0080           0
   45889 WT2  8562 TIP3 OH2  OT    -0.834000       15.9994           0
   45890 WT2  8562 TIP3 H1   HT     0.417000        1.0080           0
   45891 WT2  8562 TIP3 H2   HT     0.417000        1.0080           0
   45892 WT2  8564 TIP3 OH2  OT    -0.834000       15.9994           0
   45893 WT2  8564 TIP3 H1   HT     0.417000        1.0080           0
   45894 WT2  8564 TIP3 H2   HT     0.417000        1.0080           0
   45895 WT2  8566 TIP3 OH2  OT    -0.834000       15.9994           0
   45896 WT2  8566 TIP3 H1   HT     0.417000        1.0080           0
   45897 WT2  8566 TIP3 H2   HT     0.417000        1.0080           0
   45898 WT2  8571 TIP3 OH2  OT    -0.834000       15.9994           0
   45899 WT2  8571 TIP3 H1   HT     0.417000        1.0080           0
   45900 WT2  8571 TIP3 H2   HT     0.417000        1.0080           0
   45901 WT2  8572 TIP3 OH2  OT    -0.834000       15.9994           0
   45902 WT2  8572 TIP3 H1   HT     0.417000        1.0080           0
   45903 WT2  8572 TIP3 H2   HT     0.417000        1.0080           0
   45904 WT2  8573 TIP3 OH2  OT    -0.834000       15.9994           0
   45905 WT2  8573 TIP3 H1   HT     0.417000        1.0080           0
   45906 WT2  8573 TIP3 H2   HT     0.417000        1.0080           0
   45907 WT2  8574 TIP3 OH2  OT    -0.834000       15.9994           0
   45908 WT2  8574 TIP3 H1   HT     0.417000        1.0080           0
   45909 WT2  8574 TIP3 H2   HT     0.417000        1.0080           0
   45910 WT2  8575 TIP3 OH2  OT    -0.834000       15.9994           0
   45911 WT2  8575 TIP3 H1   HT     0.417000        1.0080           0
   45912 WT2  8575 TIP3 H2   HT     0.417000        1.0080           0
   45913 WT2  8576 TIP3 OH2  OT    -0.834000       15.9994           0
   45914 WT2  8576 TIP3 H1   HT     0.417000        1.0080           0
   45915 WT2  8576 TIP3 H2   HT     0.417000        1.0080           0
   45916 WT2  8577 TIP3 OH2  OT    -0.834000       15.9994           0
   45917 WT2  8577 TIP3 H1   HT     0.417000        1.0080           0
   45918 WT2  8577 TIP3 H2   HT     0.417000        1.0080           0
   45919 WT2  8578 TIP3 OH2  OT    -0.834000       15.9994           0
   45920 WT2  8578 TIP3 H1   HT     0.417000        1.0080           0
   45921 WT2  8578 TIP3 H2   HT     0.417000        1.0080           0
   45922 WT2  8579 TIP3 OH2  OT    -0.834000       15.9994           0
   45923 WT2  8579 TIP3 H1   HT     0.417000        1.0080           0
   45924 WT2  8579 TIP3 H2   HT     0.417000        1.0080           0
   45925 WT2  8582 TIP3 OH2  OT    -0.834000       15.9994           0
   45926 WT2  8582 TIP3 H1   HT     0.417000        1.0080           0
   45927 WT2  8582 TIP3 H2   HT     0.417000        1.0080           0
   45928 WT2  8583 TIP3 OH2  OT    -0.834000       15.9994           0
   45929 WT2  8583 TIP3 H1   HT     0.417000        1.0080           0
   45930 WT2  8583 TIP3 H2   HT     0.417000        1.0080           0
   45931 WT2  8588 TIP3 OH2  OT    -0.834000       15.9994           0
   45932 WT2  8588 TIP3 H1   HT     0.417000        1.0080           0
   45933 WT2  8588 TIP3 H2   HT     0.417000        1.0080           0
   45934 WT2  8589 TIP3 OH2  OT    -0.834000       15.9994           0
   45935 WT2  8589 TIP3 H1   HT     0.417000        1.0080           0
   45936 WT2  8589 TIP3 H2   HT     0.417000        1.0080           0
   45937 WT2  8590 TIP3 OH2  OT    -0.834000       15.9994           0
   45938 WT2  8590 TIP3 H1   HT     0.417000        1.0080           0
   45939 WT2  8590 TIP3 H2   HT     0.417000        1.0080           0
   45940 WT2  8591 TIP3 OH2  OT    -0.834000       15.9994           0
   45941 WT2  8591 TIP3 H1   HT     0.417000        1.0080           0
   45942 WT2  8591 TIP3 H2   HT     0.417000        1.0080           0
   45943 WT2  8593 TIP3 OH2  OT    -0.834000       15.9994           0
   45944 WT2  8593 TIP3 H1   HT     0.417000        1.0080           0
   45945 WT2  8593 TIP3 H2   HT     0.417000        1.0080           0
   45946 WT2  8594 TIP3 OH2  OT    -0.834000       15.9994           0
   45947 WT2  8594 TIP3 H1   HT     0.417000        1.0080           0
   45948 WT2  8594 TIP3 H2   HT     0.417000        1.0080           0
   45949 WT2  8595 TIP3 OH2  OT    -0.834000       15.9994           0
   45950 WT2  8595 TIP3 H1   HT     0.417000        1.0080           0
   45951 WT2  8595 TIP3 H2   HT     0.417000        1.0080           0
   45952 WT2  8596 TIP3 OH2  OT    -0.834000       15.9994           0
   45953 WT2  8596 TIP3 H1   HT     0.417000        1.0080           0
   45954 WT2  8596 TIP3 H2   HT     0.417000        1.0080           0
   45955 WT2  8597 TIP3 OH2  OT    -0.834000       15.9994           0
   45956 WT2  8597 TIP3 H1   HT     0.417000        1.0080           0
   45957 WT2  8597 TIP3 H2   HT     0.417000        1.0080           0
   45958 WT2  8598 TIP3 OH2  OT    -0.834000       15.9994           0
   45959 WT2  8598 TIP3 H1   HT     0.417000        1.0080           0
   45960 WT2  8598 TIP3 H2   HT     0.417000        1.0080           0
   45961 WT2  8599 TIP3 OH2  OT    -0.834000       15.9994           0
   45962 WT2  8599 TIP3 H1   HT     0.417000        1.0080           0
   45963 WT2  8599 TIP3 H2   HT     0.417000        1.0080           0
   45964 WT2  8600 TIP3 OH2  OT    -0.834000       15.9994           0
   45965 WT2  8600 TIP3 H1   HT     0.417000        1.0080           0
   45966 WT2  8600 TIP3 H2   HT     0.417000        1.0080           0
   45967 WT2  8601 TIP3 OH2  OT    -0.834000       15.9994           0
   45968 WT2  8601 TIP3 H1   HT     0.417000        1.0080           0
   45969 WT2  8601 TIP3 H2   HT     0.417000        1.0080           0
   45970 WT2  8602 TIP3 OH2  OT    -0.834000       15.9994           0
   45971 WT2  8602 TIP3 H1   HT     0.417000        1.0080           0
   45972 WT2  8602 TIP3 H2   HT     0.417000        1.0080           0
   45973 WT2  8611 TIP3 OH2  OT    -0.834000       15.9994           0
   45974 WT2  8611 TIP3 H1   HT     0.417000        1.0080           0
   45975 WT2  8611 TIP3 H2   HT     0.417000        1.0080           0
   45976 WT2  8613 TIP3 OH2  OT    -0.834000       15.9994           0
   45977 WT2  8613 TIP3 H1   HT     0.417000        1.0080           0
   45978 WT2  8613 TIP3 H2   HT     0.417000        1.0080           0
   45979 WT2  8614 TIP3 OH2  OT    -0.834000       15.9994           0
   45980 WT2  8614 TIP3 H1   HT     0.417000        1.0080           0
   45981 WT2  8614 TIP3 H2   HT     0.417000        1.0080           0
   45982 WT2  8615 TIP3 OH2  OT    -0.834000       15.9994           0
   45983 WT2  8615 TIP3 H1   HT     0.417000        1.0080           0
   45984 WT2  8615 TIP3 H2   HT     0.417000        1.0080           0
   45985 WT2  8616 TIP3 OH2  OT    -0.834000       15.9994           0
   45986 WT2  8616 TIP3 H1   HT     0.417000        1.0080           0
   45987 WT2  8616 TIP3 H2   HT     0.417000        1.0080           0
   45988 WT2  8617 TIP3 OH2  OT    -0.834000       15.9994           0
   45989 WT2  8617 TIP3 H1   HT     0.417000        1.0080           0
   45990 WT2  8617 TIP3 H2   HT     0.417000        1.0080           0
   45991 WT2  8618 TIP3 OH2  OT    -0.834000       15.9994           0
   45992 WT2  8618 TIP3 H1   HT     0.417000        1.0080           0
   45993 WT2  8618 TIP3 H2   HT     0.417000        1.0080           0
   45994 WT2  8619 TIP3 OH2  OT    -0.834000       15.9994           0
   45995 WT2  8619 TIP3 H1   HT     0.417000        1.0080           0
   45996 WT2  8619 TIP3 H2   HT     0.417000        1.0080           0
   45997 WT2  8620 TIP3 OH2  OT    -0.834000       15.9994           0
   45998 WT2  8620 TIP3 H1   HT     0.417000        1.0080           0
   45999 WT2  8620 TIP3 H2   HT     0.417000        1.0080           0
   46000 WT2  8621 TIP3 OH2  OT    -0.834000       15.9994           0
   46001 WT2  8621 TIP3 H1   HT     0.417000        1.0080           0
   46002 WT2  8621 TIP3 H2   HT     0.417000        1.0080           0
   46003 WT2  8622 TIP3 OH2  OT    -0.834000       15.9994           0
   46004 WT2  8622 TIP3 H1   HT     0.417000        1.0080           0
   46005 WT2  8622 TIP3 H2   HT     0.417000        1.0080           0
   46006 WT2  8624 TIP3 OH2  OT    -0.834000       15.9994           0
   46007 WT2  8624 TIP3 H1   HT     0.417000        1.0080           0
   46008 WT2  8624 TIP3 H2   HT     0.417000        1.0080           0
   46009 WT2  8631 TIP3 OH2  OT    -0.834000       15.9994           0
   46010 WT2  8631 TIP3 H1   HT     0.417000        1.0080           0
   46011 WT2  8631 TIP3 H2   HT     0.417000        1.0080           0
   46012 WT2  8632 TIP3 OH2  OT    -0.834000       15.9994           0
   46013 WT2  8632 TIP3 H1   HT     0.417000        1.0080           0
   46014 WT2  8632 TIP3 H2   HT     0.417000        1.0080           0
   46015 WT2  8633 TIP3 OH2  OT    -0.834000       15.9994           0
   46016 WT2  8633 TIP3 H1   HT     0.417000        1.0080           0
   46017 WT2  8633 TIP3 H2   HT     0.417000        1.0080           0
   46018 WT2  8634 TIP3 OH2  OT    -0.834000       15.9994           0
   46019 WT2  8634 TIP3 H1   HT     0.417000        1.0080           0
   46020 WT2  8634 TIP3 H2   HT     0.417000        1.0080           0
   46021 WT2  8636 TIP3 OH2  OT    -0.834000       15.9994           0
   46022 WT2  8636 TIP3 H1   HT     0.417000        1.0080           0
   46023 WT2  8636 TIP3 H2   HT     0.417000        1.0080           0
   46024 WT2  8637 TIP3 OH2  OT    -0.834000       15.9994           0
   46025 WT2  8637 TIP3 H1   HT     0.417000        1.0080           0
   46026 WT2  8637 TIP3 H2   HT     0.417000        1.0080           0
   46027 WT2  8638 TIP3 OH2  OT    -0.834000       15.9994           0
   46028 WT2  8638 TIP3 H1   HT     0.417000        1.0080           0
   46029 WT2  8638 TIP3 H2   HT     0.417000        1.0080           0
   46030 WT2  8639 TIP3 OH2  OT    -0.834000       15.9994           0
   46031 WT2  8639 TIP3 H1   HT     0.417000        1.0080           0
   46032 WT2  8639 TIP3 H2   HT     0.417000        1.0080           0
   46033 WT2  8640 TIP3 OH2  OT    -0.834000       15.9994           0
   46034 WT2  8640 TIP3 H1   HT     0.417000        1.0080           0
   46035 WT2  8640 TIP3 H2   HT     0.417000        1.0080           0
   46036 WT2  8642 TIP3 OH2  OT    -0.834000       15.9994           0
   46037 WT2  8642 TIP3 H1   HT     0.417000        1.0080           0
   46038 WT2  8642 TIP3 H2   HT     0.417000        1.0080           0
   46039 WT2  8643 TIP3 OH2  OT    -0.834000       15.9994           0
   46040 WT2  8643 TIP3 H1   HT     0.417000        1.0080           0
   46041 WT2  8643 TIP3 H2   HT     0.417000        1.0080           0
   46042 WT2  8644 TIP3 OH2  OT    -0.834000       15.9994           0
   46043 WT2  8644 TIP3 H1   HT     0.417000        1.0080           0
   46044 WT2  8644 TIP3 H2   HT     0.417000        1.0080           0
   46045 WT2  8645 TIP3 OH2  OT    -0.834000       15.9994           0
   46046 WT2  8645 TIP3 H1   HT     0.417000        1.0080           0
   46047 WT2  8645 TIP3 H2   HT     0.417000        1.0080           0
   46048 WT2  8646 TIP3 OH2  OT    -0.834000       15.9994           0
   46049 WT2  8646 TIP3 H1   HT     0.417000        1.0080           0
   46050 WT2  8646 TIP3 H2   HT     0.417000        1.0080           0
   46051 WT2  8647 TIP3 OH2  OT    -0.834000       15.9994           0
   46052 WT2  8647 TIP3 H1   HT     0.417000        1.0080           0
   46053 WT2  8647 TIP3 H2   HT     0.417000        1.0080           0
   46054 WT2  8653 TIP3 OH2  OT    -0.834000       15.9994           0
   46055 WT2  8653 TIP3 H1   HT     0.417000        1.0080           0
   46056 WT2  8653 TIP3 H2   HT     0.417000        1.0080           0
   46057 WT2  8655 TIP3 OH2  OT    -0.834000       15.9994           0
   46058 WT2  8655 TIP3 H1   HT     0.417000        1.0080           0
   46059 WT2  8655 TIP3 H2   HT     0.417000        1.0080           0
   46060 WT2  8656 TIP3 OH2  OT    -0.834000       15.9994           0
   46061 WT2  8656 TIP3 H1   HT     0.417000        1.0080           0
   46062 WT2  8656 TIP3 H2   HT     0.417000        1.0080           0
   46063 WT2  8657 TIP3 OH2  OT    -0.834000       15.9994           0
   46064 WT2  8657 TIP3 H1   HT     0.417000        1.0080           0
   46065 WT2  8657 TIP3 H2   HT     0.417000        1.0080           0
   46066 WT2  8658 TIP3 OH2  OT    -0.834000       15.9994           0
   46067 WT2  8658 TIP3 H1   HT     0.417000        1.0080           0
   46068 WT2  8658 TIP3 H2   HT     0.417000        1.0080           0
   46069 WT2  8659 TIP3 OH2  OT    -0.834000       15.9994           0
   46070 WT2  8659 TIP3 H1   HT     0.417000        1.0080           0
   46071 WT2  8659 TIP3 H2   HT     0.417000        1.0080           0
   46072 WT2  8660 TIP3 OH2  OT    -0.834000       15.9994           0
   46073 WT2  8660 TIP3 H1   HT     0.417000        1.0080           0
   46074 WT2  8660 TIP3 H2   HT     0.417000        1.0080           0
   46075 WT2  8662 TIP3 OH2  OT    -0.834000       15.9994           0
   46076 WT2  8662 TIP3 H1   HT     0.417000        1.0080           0
   46077 WT2  8662 TIP3 H2   HT     0.417000        1.0080           0
   46078 WT2  8663 TIP3 OH2  OT    -0.834000       15.9994           0
   46079 WT2  8663 TIP3 H1   HT     0.417000        1.0080           0
   46080 WT2  8663 TIP3 H2   HT     0.417000        1.0080           0
   46081 WT2  8664 TIP3 OH2  OT    -0.834000       15.9994           0
   46082 WT2  8664 TIP3 H1   HT     0.417000        1.0080           0
   46083 WT2  8664 TIP3 H2   HT     0.417000        1.0080           0
   46084 WT2  8665 TIP3 OH2  OT    -0.834000       15.9994           0
   46085 WT2  8665 TIP3 H1   HT     0.417000        1.0080           0
   46086 WT2  8665 TIP3 H2   HT     0.417000        1.0080           0
   46087 WT2  8667 TIP3 OH2  OT    -0.834000       15.9994           0
   46088 WT2  8667 TIP3 H1   HT     0.417000        1.0080           0
   46089 WT2  8667 TIP3 H2   HT     0.417000        1.0080           0
   46090 WT2  8668 TIP3 OH2  OT    -0.834000       15.9994           0
   46091 WT2  8668 TIP3 H1   HT     0.417000        1.0080           0
   46092 WT2  8668 TIP3 H2   HT     0.417000        1.0080           0
   46093 WT2  8670 TIP3 OH2  OT    -0.834000       15.9994           0
   46094 WT2  8670 TIP3 H1   HT     0.417000        1.0080           0
   46095 WT2  8670 TIP3 H2   HT     0.417000        1.0080           0
   46096 WT2  8675 TIP3 OH2  OT    -0.834000       15.9994           0
   46097 WT2  8675 TIP3 H1   HT     0.417000        1.0080           0
   46098 WT2  8675 TIP3 H2   HT     0.417000        1.0080           0
   46099 WT2  8676 TIP3 OH2  OT    -0.834000       15.9994           0
   46100 WT2  8676 TIP3 H1   HT     0.417000        1.0080           0
   46101 WT2  8676 TIP3 H2   HT     0.417000        1.0080           0
   46102 WT2  8677 TIP3 OH2  OT    -0.834000       15.9994           0
   46103 WT2  8677 TIP3 H1   HT     0.417000        1.0080           0
   46104 WT2  8677 TIP3 H2   HT     0.417000        1.0080           0
   46105 WT2  8678 TIP3 OH2  OT    -0.834000       15.9994           0
   46106 WT2  8678 TIP3 H1   HT     0.417000        1.0080           0
   46107 WT2  8678 TIP3 H2   HT     0.417000        1.0080           0
   46108 WT2  8679 TIP3 OH2  OT    -0.834000       15.9994           0
   46109 WT2  8679 TIP3 H1   HT     0.417000        1.0080           0
   46110 WT2  8679 TIP3 H2   HT     0.417000        1.0080           0
   46111 WT2  8680 TIP3 OH2  OT    -0.834000       15.9994           0
   46112 WT2  8680 TIP3 H1   HT     0.417000        1.0080           0
   46113 WT2  8680 TIP3 H2   HT     0.417000        1.0080           0
   46114 WT2  8681 TIP3 OH2  OT    -0.834000       15.9994           0
   46115 WT2  8681 TIP3 H1   HT     0.417000        1.0080           0
   46116 WT2  8681 TIP3 H2   HT     0.417000        1.0080           0
   46117 WT2  8682 TIP3 OH2  OT    -0.834000       15.9994           0
   46118 WT2  8682 TIP3 H1   HT     0.417000        1.0080           0
   46119 WT2  8682 TIP3 H2   HT     0.417000        1.0080           0
   46120 WT2  8683 TIP3 OH2  OT    -0.834000       15.9994           0
   46121 WT2  8683 TIP3 H1   HT     0.417000        1.0080           0
   46122 WT2  8683 TIP3 H2   HT     0.417000        1.0080           0
   46123 WT2  8684 TIP3 OH2  OT    -0.834000       15.9994           0
   46124 WT2  8684 TIP3 H1   HT     0.417000        1.0080           0
   46125 WT2  8684 TIP3 H2   HT     0.417000        1.0080           0
   46126 WT2  8685 TIP3 OH2  OT    -0.834000       15.9994           0
   46127 WT2  8685 TIP3 H1   HT     0.417000        1.0080           0
   46128 WT2  8685 TIP3 H2   HT     0.417000        1.0080           0
   46129 WT2  8687 TIP3 OH2  OT    -0.834000       15.9994           0
   46130 WT2  8687 TIP3 H1   HT     0.417000        1.0080           0
   46131 WT2  8687 TIP3 H2   HT     0.417000        1.0080           0
   46132 WT2  8689 TIP3 OH2  OT    -0.834000       15.9994           0
   46133 WT2  8689 TIP3 H1   HT     0.417000        1.0080           0
   46134 WT2  8689 TIP3 H2   HT     0.417000        1.0080           0
   46135 WT2  8690 TIP3 OH2  OT    -0.834000       15.9994           0
   46136 WT2  8690 TIP3 H1   HT     0.417000        1.0080           0
   46137 WT2  8690 TIP3 H2   HT     0.417000        1.0080           0
   46138 WT2  8691 TIP3 OH2  OT    -0.834000       15.9994           0
   46139 WT2  8691 TIP3 H1   HT     0.417000        1.0080           0
   46140 WT2  8691 TIP3 H2   HT     0.417000        1.0080           0
   46141 WT2  8694 TIP3 OH2  OT    -0.834000       15.9994           0
   46142 WT2  8694 TIP3 H1   HT     0.417000        1.0080           0
   46143 WT2  8694 TIP3 H2   HT     0.417000        1.0080           0
   46144 WT2  8695 TIP3 OH2  OT    -0.834000       15.9994           0
   46145 WT2  8695 TIP3 H1   HT     0.417000        1.0080           0
   46146 WT2  8695 TIP3 H2   HT     0.417000        1.0080           0
   46147 WT2  8696 TIP3 OH2  OT    -0.834000       15.9994           0
   46148 WT2  8696 TIP3 H1   HT     0.417000        1.0080           0
   46149 WT2  8696 TIP3 H2   HT     0.417000        1.0080           0
   46150 WT2  8697 TIP3 OH2  OT    -0.834000       15.9994           0
   46151 WT2  8697 TIP3 H1   HT     0.417000        1.0080           0
   46152 WT2  8697 TIP3 H2   HT     0.417000        1.0080           0
   46153 WT2  8699 TIP3 OH2  OT    -0.834000       15.9994           0
   46154 WT2  8699 TIP3 H1   HT     0.417000        1.0080           0
   46155 WT2  8699 TIP3 H2   HT     0.417000        1.0080           0
   46156 WT2  8700 TIP3 OH2  OT    -0.834000       15.9994           0
   46157 WT2  8700 TIP3 H1   HT     0.417000        1.0080           0
   46158 WT2  8700 TIP3 H2   HT     0.417000        1.0080           0
   46159 WT2  8702 TIP3 OH2  OT    -0.834000       15.9994           0
   46160 WT2  8702 TIP3 H1   HT     0.417000        1.0080           0
   46161 WT2  8702 TIP3 H2   HT     0.417000        1.0080           0
   46162 WT2  8703 TIP3 OH2  OT    -0.834000       15.9994           0
   46163 WT2  8703 TIP3 H1   HT     0.417000        1.0080           0
   46164 WT2  8703 TIP3 H2   HT     0.417000        1.0080           0
   46165 WT2  8704 TIP3 OH2  OT    -0.834000       15.9994           0
   46166 WT2  8704 TIP3 H1   HT     0.417000        1.0080           0
   46167 WT2  8704 TIP3 H2   HT     0.417000        1.0080           0
   46168 WT2  8705 TIP3 OH2  OT    -0.834000       15.9994           0
   46169 WT2  8705 TIP3 H1   HT     0.417000        1.0080           0
   46170 WT2  8705 TIP3 H2   HT     0.417000        1.0080           0
   46171 WT2  8706 TIP3 OH2  OT    -0.834000       15.9994           0
   46172 WT2  8706 TIP3 H1   HT     0.417000        1.0080           0
   46173 WT2  8706 TIP3 H2   HT     0.417000        1.0080           0
   46174 WT2  8707 TIP3 OH2  OT    -0.834000       15.9994           0
   46175 WT2  8707 TIP3 H1   HT     0.417000        1.0080           0
   46176 WT2  8707 TIP3 H2   HT     0.417000        1.0080           0
   46177 WT2  8708 TIP3 OH2  OT    -0.834000       15.9994           0
   46178 WT2  8708 TIP3 H1   HT     0.417000        1.0080           0
   46179 WT2  8708 TIP3 H2   HT     0.417000        1.0080           0
   46180 WT2  8715 TIP3 OH2  OT    -0.834000       15.9994           0
   46181 WT2  8715 TIP3 H1   HT     0.417000        1.0080           0
   46182 WT2  8715 TIP3 H2   HT     0.417000        1.0080           0
   46183 WT2  8716 TIP3 OH2  OT    -0.834000       15.9994           0
   46184 WT2  8716 TIP3 H1   HT     0.417000        1.0080           0
   46185 WT2  8716 TIP3 H2   HT     0.417000        1.0080           0
   46186 WT2  8717 TIP3 OH2  OT    -0.834000       15.9994           0
   46187 WT2  8717 TIP3 H1   HT     0.417000        1.0080           0
   46188 WT2  8717 TIP3 H2   HT     0.417000        1.0080           0
   46189 WT2  8718 TIP3 OH2  OT    -0.834000       15.9994           0
   46190 WT2  8718 TIP3 H1   HT     0.417000        1.0080           0
   46191 WT2  8718 TIP3 H2   HT     0.417000        1.0080           0
   46192 WT2  8719 TIP3 OH2  OT    -0.834000       15.9994           0
   46193 WT2  8719 TIP3 H1   HT     0.417000        1.0080           0
   46194 WT2  8719 TIP3 H2   HT     0.417000        1.0080           0
   46195 WT2  8720 TIP3 OH2  OT    -0.834000       15.9994           0
   46196 WT2  8720 TIP3 H1   HT     0.417000        1.0080           0
   46197 WT2  8720 TIP3 H2   HT     0.417000        1.0080           0
   46198 WT2  8721 TIP3 OH2  OT    -0.834000       15.9994           0
   46199 WT2  8721 TIP3 H1   HT     0.417000        1.0080           0
   46200 WT2  8721 TIP3 H2   HT     0.417000        1.0080           0
   46201 WT2  8722 TIP3 OH2  OT    -0.834000       15.9994           0
   46202 WT2  8722 TIP3 H1   HT     0.417000        1.0080           0
   46203 WT2  8722 TIP3 H2   HT     0.417000        1.0080           0
   46204 WT2  8723 TIP3 OH2  OT    -0.834000       15.9994           0
   46205 WT2  8723 TIP3 H1   HT     0.417000        1.0080           0
   46206 WT2  8723 TIP3 H2   HT     0.417000        1.0080           0
   46207 WT2  8724 TIP3 OH2  OT    -0.834000       15.9994           0
   46208 WT2  8724 TIP3 H1   HT     0.417000        1.0080           0
   46209 WT2  8724 TIP3 H2   HT     0.417000        1.0080           0
   46210 WT2  8725 TIP3 OH2  OT    -0.834000       15.9994           0
   46211 WT2  8725 TIP3 H1   HT     0.417000        1.0080           0
   46212 WT2  8725 TIP3 H2   HT     0.417000        1.0080           0
   46213 WT2  8726 TIP3 OH2  OT    -0.834000       15.9994           0
   46214 WT2  8726 TIP3 H1   HT     0.417000        1.0080           0
   46215 WT2  8726 TIP3 H2   HT     0.417000        1.0080           0
   46216 WT2  8727 TIP3 OH2  OT    -0.834000       15.9994           0
   46217 WT2  8727 TIP3 H1   HT     0.417000        1.0080           0
   46218 WT2  8727 TIP3 H2   HT     0.417000        1.0080           0
   46219 WT2  8729 TIP3 OH2  OT    -0.834000       15.9994           0
   46220 WT2  8729 TIP3 H1   HT     0.417000        1.0080           0
   46221 WT2  8729 TIP3 H2   HT     0.417000        1.0080           0
   46222 WT2  8730 TIP3 OH2  OT    -0.834000       15.9994           0
   46223 WT2  8730 TIP3 H1   HT     0.417000        1.0080           0
   46224 WT2  8730 TIP3 H2   HT     0.417000        1.0080           0
   46225 WT2  8731 TIP3 OH2  OT    -0.834000       15.9994           0
   46226 WT2  8731 TIP3 H1   HT     0.417000        1.0080           0
   46227 WT2  8731 TIP3 H2   HT     0.417000        1.0080           0
   46228 WT2  8732 TIP3 OH2  OT    -0.834000       15.9994           0
   46229 WT2  8732 TIP3 H1   HT     0.417000        1.0080           0
   46230 WT2  8732 TIP3 H2   HT     0.417000        1.0080           0
   46231 WT2  8737 TIP3 OH2  OT    -0.834000       15.9994           0
   46232 WT2  8737 TIP3 H1   HT     0.417000        1.0080           0
   46233 WT2  8737 TIP3 H2   HT     0.417000        1.0080           0
   46234 WT2  8738 TIP3 OH2  OT    -0.834000       15.9994           0
   46235 WT2  8738 TIP3 H1   HT     0.417000        1.0080           0
   46236 WT2  8738 TIP3 H2   HT     0.417000        1.0080           0
   46237 WT2  8739 TIP3 OH2  OT    -0.834000       15.9994           0
   46238 WT2  8739 TIP3 H1   HT     0.417000        1.0080           0
   46239 WT2  8739 TIP3 H2   HT     0.417000        1.0080           0
   46240 WT2  8740 TIP3 OH2  OT    -0.834000       15.9994           0
   46241 WT2  8740 TIP3 H1   HT     0.417000        1.0080           0
   46242 WT2  8740 TIP3 H2   HT     0.417000        1.0080           0
   46243 WT2  8741 TIP3 OH2  OT    -0.834000       15.9994           0
   46244 WT2  8741 TIP3 H1   HT     0.417000        1.0080           0
   46245 WT2  8741 TIP3 H2   HT     0.417000        1.0080           0
   46246 WT2  8742 TIP3 OH2  OT    -0.834000       15.9994           0
   46247 WT2  8742 TIP3 H1   HT     0.417000        1.0080           0
   46248 WT2  8742 TIP3 H2   HT     0.417000        1.0080           0
   46249 WT2  8743 TIP3 OH2  OT    -0.834000       15.9994           0
   46250 WT2  8743 TIP3 H1   HT     0.417000        1.0080           0
   46251 WT2  8743 TIP3 H2   HT     0.417000        1.0080           0
   46252 WT2  8744 TIP3 OH2  OT    -0.834000       15.9994           0
   46253 WT2  8744 TIP3 H1   HT     0.417000        1.0080           0
   46254 WT2  8744 TIP3 H2   HT     0.417000        1.0080           0
   46255 WT2  8745 TIP3 OH2  OT    -0.834000       15.9994           0
   46256 WT2  8745 TIP3 H1   HT     0.417000        1.0080           0
   46257 WT2  8745 TIP3 H2   HT     0.417000        1.0080           0
   46258 WT2  8746 TIP3 OH2  OT    -0.834000       15.9994           0
   46259 WT2  8746 TIP3 H1   HT     0.417000        1.0080           0
   46260 WT2  8746 TIP3 H2   HT     0.417000        1.0080           0
   46261 WT2  8747 TIP3 OH2  OT    -0.834000       15.9994           0
   46262 WT2  8747 TIP3 H1   HT     0.417000        1.0080           0
   46263 WT2  8747 TIP3 H2   HT     0.417000        1.0080           0
   46264 WT2  8748 TIP3 OH2  OT    -0.834000       15.9994           0
   46265 WT2  8748 TIP3 H1   HT     0.417000        1.0080           0
   46266 WT2  8748 TIP3 H2   HT     0.417000        1.0080           0
   46267 WT2  8749 TIP3 OH2  OT    -0.834000       15.9994           0
   46268 WT2  8749 TIP3 H1   HT     0.417000        1.0080           0
   46269 WT2  8749 TIP3 H2   HT     0.417000        1.0080           0
   46270 WT2  8750 TIP3 OH2  OT    -0.834000       15.9994           0
   46271 WT2  8750 TIP3 H1   HT     0.417000        1.0080           0
   46272 WT2  8750 TIP3 H2   HT     0.417000        1.0080           0
   46273 WT2  8751 TIP3 OH2  OT    -0.834000       15.9994           0
   46274 WT2  8751 TIP3 H1   HT     0.417000        1.0080           0
   46275 WT2  8751 TIP3 H2   HT     0.417000        1.0080           0
   46276 WT2  8754 TIP3 OH2  OT    -0.834000       15.9994           0
   46277 WT2  8754 TIP3 H1   HT     0.417000        1.0080           0
   46278 WT2  8754 TIP3 H2   HT     0.417000        1.0080           0
   46279 WT2  8757 TIP3 OH2  OT    -0.834000       15.9994           0
   46280 WT2  8757 TIP3 H1   HT     0.417000        1.0080           0
   46281 WT2  8757 TIP3 H2   HT     0.417000        1.0080           0
   46282 WT2  8759 TIP3 OH2  OT    -0.834000       15.9994           0
   46283 WT2  8759 TIP3 H1   HT     0.417000        1.0080           0
   46284 WT2  8759 TIP3 H2   HT     0.417000        1.0080           0
   46285 WT2  8760 TIP3 OH2  OT    -0.834000       15.9994           0
   46286 WT2  8760 TIP3 H1   HT     0.417000        1.0080           0
   46287 WT2  8760 TIP3 H2   HT     0.417000        1.0080           0
   46288 WT2  8761 TIP3 OH2  OT    -0.834000       15.9994           0
   46289 WT2  8761 TIP3 H1   HT     0.417000        1.0080           0
   46290 WT2  8761 TIP3 H2   HT     0.417000        1.0080           0
   46291 WT2  8763 TIP3 OH2  OT    -0.834000       15.9994           0
   46292 WT2  8763 TIP3 H1   HT     0.417000        1.0080           0
   46293 WT2  8763 TIP3 H2   HT     0.417000        1.0080           0
   46294 WT2  8764 TIP3 OH2  OT    -0.834000       15.9994           0
   46295 WT2  8764 TIP3 H1   HT     0.417000        1.0080           0
   46296 WT2  8764 TIP3 H2   HT     0.417000        1.0080           0
   46297 WT2  8765 TIP3 OH2  OT    -0.834000       15.9994           0
   46298 WT2  8765 TIP3 H1   HT     0.417000        1.0080           0
   46299 WT2  8765 TIP3 H2   HT     0.417000        1.0080           0
   46300 WT2  8766 TIP3 OH2  OT    -0.834000       15.9994           0
   46301 WT2  8766 TIP3 H1   HT     0.417000        1.0080           0
   46302 WT2  8766 TIP3 H2   HT     0.417000        1.0080           0
   46303 WT2  8767 TIP3 OH2  OT    -0.834000       15.9994           0
   46304 WT2  8767 TIP3 H1   HT     0.417000        1.0080           0
   46305 WT2  8767 TIP3 H2   HT     0.417000        1.0080           0
   46306 WT2  8768 TIP3 OH2  OT    -0.834000       15.9994           0
   46307 WT2  8768 TIP3 H1   HT     0.417000        1.0080           0
   46308 WT2  8768 TIP3 H2   HT     0.417000        1.0080           0
   46309 WT2  8769 TIP3 OH2  OT    -0.834000       15.9994           0
   46310 WT2  8769 TIP3 H1   HT     0.417000        1.0080           0
   46311 WT2  8769 TIP3 H2   HT     0.417000        1.0080           0
   46312 WT2  8770 TIP3 OH2  OT    -0.834000       15.9994           0
   46313 WT2  8770 TIP3 H1   HT     0.417000        1.0080           0
   46314 WT2  8770 TIP3 H2   HT     0.417000        1.0080           0
   46315 WT2  8773 TIP3 OH2  OT    -0.834000       15.9994           0
   46316 WT2  8773 TIP3 H1   HT     0.417000        1.0080           0
   46317 WT2  8773 TIP3 H2   HT     0.417000        1.0080           0
   46318 WT2  8774 TIP3 OH2  OT    -0.834000       15.9994           0
   46319 WT2  8774 TIP3 H1   HT     0.417000        1.0080           0
   46320 WT2  8774 TIP3 H2   HT     0.417000        1.0080           0
   46321 WT2  8777 TIP3 OH2  OT    -0.834000       15.9994           0
   46322 WT2  8777 TIP3 H1   HT     0.417000        1.0080           0
   46323 WT2  8777 TIP3 H2   HT     0.417000        1.0080           0
   46324 WT2  8778 TIP3 OH2  OT    -0.834000       15.9994           0
   46325 WT2  8778 TIP3 H1   HT     0.417000        1.0080           0
   46326 WT2  8778 TIP3 H2   HT     0.417000        1.0080           0
   46327 WT2  8779 TIP3 OH2  OT    -0.834000       15.9994           0
   46328 WT2  8779 TIP3 H1   HT     0.417000        1.0080           0
   46329 WT2  8779 TIP3 H2   HT     0.417000        1.0080           0
   46330 WT2  8780 TIP3 OH2  OT    -0.834000       15.9994           0
   46331 WT2  8780 TIP3 H1   HT     0.417000        1.0080           0
   46332 WT2  8780 TIP3 H2   HT     0.417000        1.0080           0
   46333 WT2  8783 TIP3 OH2  OT    -0.834000       15.9994           0
   46334 WT2  8783 TIP3 H1   HT     0.417000        1.0080           0
   46335 WT2  8783 TIP3 H2   HT     0.417000        1.0080           0
   46336 WT2  8784 TIP3 OH2  OT    -0.834000       15.9994           0
   46337 WT2  8784 TIP3 H1   HT     0.417000        1.0080           0
   46338 WT2  8784 TIP3 H2   HT     0.417000        1.0080           0
   46339 WT2  8785 TIP3 OH2  OT    -0.834000       15.9994           0
   46340 WT2  8785 TIP3 H1   HT     0.417000        1.0080           0
   46341 WT2  8785 TIP3 H2   HT     0.417000        1.0080           0
   46342 WT2  8786 TIP3 OH2  OT    -0.834000       15.9994           0
   46343 WT2  8786 TIP3 H1   HT     0.417000        1.0080           0
   46344 WT2  8786 TIP3 H2   HT     0.417000        1.0080           0
   46345 WT2  8787 TIP3 OH2  OT    -0.834000       15.9994           0
   46346 WT2  8787 TIP3 H1   HT     0.417000        1.0080           0
   46347 WT2  8787 TIP3 H2   HT     0.417000        1.0080           0
   46348 WT2  8788 TIP3 OH2  OT    -0.834000       15.9994           0
   46349 WT2  8788 TIP3 H1   HT     0.417000        1.0080           0
   46350 WT2  8788 TIP3 H2   HT     0.417000        1.0080           0
   46351 WT2  8789 TIP3 OH2  OT    -0.834000       15.9994           0
   46352 WT2  8789 TIP3 H1   HT     0.417000        1.0080           0
   46353 WT2  8789 TIP3 H2   HT     0.417000        1.0080           0
   46354 WT2  8790 TIP3 OH2  OT    -0.834000       15.9994           0
   46355 WT2  8790 TIP3 H1   HT     0.417000        1.0080           0
   46356 WT2  8790 TIP3 H2   HT     0.417000        1.0080           0
   46357 WT2  8791 TIP3 OH2  OT    -0.834000       15.9994           0
   46358 WT2  8791 TIP3 H1   HT     0.417000        1.0080           0
   46359 WT2  8791 TIP3 H2   HT     0.417000        1.0080           0
   46360 WT2  8793 TIP3 OH2  OT    -0.834000       15.9994           0
   46361 WT2  8793 TIP3 H1   HT     0.417000        1.0080           0
   46362 WT2  8793 TIP3 H2   HT     0.417000        1.0080           0
   46363 WT2  8794 TIP3 OH2  OT    -0.834000       15.9994           0
   46364 WT2  8794 TIP3 H1   HT     0.417000        1.0080           0
   46365 WT2  8794 TIP3 H2   HT     0.417000        1.0080           0
   46366 WT2  8796 TIP3 OH2  OT    -0.834000       15.9994           0
   46367 WT2  8796 TIP3 H1   HT     0.417000        1.0080           0
   46368 WT2  8796 TIP3 H2   HT     0.417000        1.0080           0
   46369 WT2  8797 TIP3 OH2  OT    -0.834000       15.9994           0
   46370 WT2  8797 TIP3 H1   HT     0.417000        1.0080           0
   46371 WT2  8797 TIP3 H2   HT     0.417000        1.0080           0
   46372 WT2  8800 TIP3 OH2  OT    -0.834000       15.9994           0
   46373 WT2  8800 TIP3 H1   HT     0.417000        1.0080           0
   46374 WT2  8800 TIP3 H2   HT     0.417000        1.0080           0
   46375 WT2  8801 TIP3 OH2  OT    -0.834000       15.9994           0
   46376 WT2  8801 TIP3 H1   HT     0.417000        1.0080           0
   46377 WT2  8801 TIP3 H2   HT     0.417000        1.0080           0
   46378 WT2  8802 TIP3 OH2  OT    -0.834000       15.9994           0
   46379 WT2  8802 TIP3 H1   HT     0.417000        1.0080           0
   46380 WT2  8802 TIP3 H2   HT     0.417000        1.0080           0
   46381 WT2  8803 TIP3 OH2  OT    -0.834000       15.9994           0
   46382 WT2  8803 TIP3 H1   HT     0.417000        1.0080           0
   46383 WT2  8803 TIP3 H2   HT     0.417000        1.0080           0
   46384 WT2  8804 TIP3 OH2  OT    -0.834000       15.9994           0
   46385 WT2  8804 TIP3 H1   HT     0.417000        1.0080           0
   46386 WT2  8804 TIP3 H2   HT     0.417000        1.0080           0
   46387 WT2  8805 TIP3 OH2  OT    -0.834000       15.9994           0
   46388 WT2  8805 TIP3 H1   HT     0.417000        1.0080           0
   46389 WT2  8805 TIP3 H2   HT     0.417000        1.0080           0
   46390 WT2  8806 TIP3 OH2  OT    -0.834000       15.9994           0
   46391 WT2  8806 TIP3 H1   HT     0.417000        1.0080           0
   46392 WT2  8806 TIP3 H2   HT     0.417000        1.0080           0
   46393 WT2  8808 TIP3 OH2  OT    -0.834000       15.9994           0
   46394 WT2  8808 TIP3 H1   HT     0.417000        1.0080           0
   46395 WT2  8808 TIP3 H2   HT     0.417000        1.0080           0
   46396 WT2  8809 TIP3 OH2  OT    -0.834000       15.9994           0
   46397 WT2  8809 TIP3 H1   HT     0.417000        1.0080           0
   46398 WT2  8809 TIP3 H2   HT     0.417000        1.0080           0
   46399 WT2  8810 TIP3 OH2  OT    -0.834000       15.9994           0
   46400 WT2  8810 TIP3 H1   HT     0.417000        1.0080           0
   46401 WT2  8810 TIP3 H2   HT     0.417000        1.0080           0
   46402 WT2  8811 TIP3 OH2  OT    -0.834000       15.9994           0
   46403 WT2  8811 TIP3 H1   HT     0.417000        1.0080           0
   46404 WT2  8811 TIP3 H2   HT     0.417000        1.0080           0
   46405 WT2  8812 TIP3 OH2  OT    -0.834000       15.9994           0
   46406 WT2  8812 TIP3 H1   HT     0.417000        1.0080           0
   46407 WT2  8812 TIP3 H2   HT     0.417000        1.0080           0
   46408 WT2  8813 TIP3 OH2  OT    -0.834000       15.9994           0
   46409 WT2  8813 TIP3 H1   HT     0.417000        1.0080           0
   46410 WT2  8813 TIP3 H2   HT     0.417000        1.0080           0
   46411 WT2  8814 TIP3 OH2  OT    -0.834000       15.9994           0
   46412 WT2  8814 TIP3 H1   HT     0.417000        1.0080           0
   46413 WT2  8814 TIP3 H2   HT     0.417000        1.0080           0
   46414 WT2  8817 TIP3 OH2  OT    -0.834000       15.9994           0
   46415 WT2  8817 TIP3 H1   HT     0.417000        1.0080           0
   46416 WT2  8817 TIP3 H2   HT     0.417000        1.0080           0
   46417 WT2  8819 TIP3 OH2  OT    -0.834000       15.9994           0
   46418 WT2  8819 TIP3 H1   HT     0.417000        1.0080           0
   46419 WT2  8819 TIP3 H2   HT     0.417000        1.0080           0
   46420 WT2  8820 TIP3 OH2  OT    -0.834000       15.9994           0
   46421 WT2  8820 TIP3 H1   HT     0.417000        1.0080           0
   46422 WT2  8820 TIP3 H2   HT     0.417000        1.0080           0
   46423 WT2  8822 TIP3 OH2  OT    -0.834000       15.9994           0
   46424 WT2  8822 TIP3 H1   HT     0.417000        1.0080           0
   46425 WT2  8822 TIP3 H2   HT     0.417000        1.0080           0
   46426 WT2  8823 TIP3 OH2  OT    -0.834000       15.9994           0
   46427 WT2  8823 TIP3 H1   HT     0.417000        1.0080           0
   46428 WT2  8823 TIP3 H2   HT     0.417000        1.0080           0
   46429 WT2  8826 TIP3 OH2  OT    -0.834000       15.9994           0
   46430 WT2  8826 TIP3 H1   HT     0.417000        1.0080           0
   46431 WT2  8826 TIP3 H2   HT     0.417000        1.0080           0
   46432 WT2  8827 TIP3 OH2  OT    -0.834000       15.9994           0
   46433 WT2  8827 TIP3 H1   HT     0.417000        1.0080           0
   46434 WT2  8827 TIP3 H2   HT     0.417000        1.0080           0
   46435 WT2  8828 TIP3 OH2  OT    -0.834000       15.9994           0
   46436 WT2  8828 TIP3 H1   HT     0.417000        1.0080           0
   46437 WT2  8828 TIP3 H2   HT     0.417000        1.0080           0
   46438 WT2  8829 TIP3 OH2  OT    -0.834000       15.9994           0
   46439 WT2  8829 TIP3 H1   HT     0.417000        1.0080           0
   46440 WT2  8829 TIP3 H2   HT     0.417000        1.0080           0
   46441 WT2  8830 TIP3 OH2  OT    -0.834000       15.9994           0
   46442 WT2  8830 TIP3 H1   HT     0.417000        1.0080           0
   46443 WT2  8830 TIP3 H2   HT     0.417000        1.0080           0
   46444 WT2  8832 TIP3 OH2  OT    -0.834000       15.9994           0
   46445 WT2  8832 TIP3 H1   HT     0.417000        1.0080           0
   46446 WT2  8832 TIP3 H2   HT     0.417000        1.0080           0
   46447 WT2  8833 TIP3 OH2  OT    -0.834000       15.9994           0
   46448 WT2  8833 TIP3 H1   HT     0.417000        1.0080           0
   46449 WT2  8833 TIP3 H2   HT     0.417000        1.0080           0
   46450 WT2  8834 TIP3 OH2  OT    -0.834000       15.9994           0
   46451 WT2  8834 TIP3 H1   HT     0.417000        1.0080           0
   46452 WT2  8834 TIP3 H2   HT     0.417000        1.0080           0
   46453 WT2  8836 TIP3 OH2  OT    -0.834000       15.9994           0
   46454 WT2  8836 TIP3 H1   HT     0.417000        1.0080           0
   46455 WT2  8836 TIP3 H2   HT     0.417000        1.0080           0
   46456 WT2  8842 TIP3 OH2  OT    -0.834000       15.9994           0
   46457 WT2  8842 TIP3 H1   HT     0.417000        1.0080           0
   46458 WT2  8842 TIP3 H2   HT     0.417000        1.0080           0
   46459 WT2  8843 TIP3 OH2  OT    -0.834000       15.9994           0
   46460 WT2  8843 TIP3 H1   HT     0.417000        1.0080           0
   46461 WT2  8843 TIP3 H2   HT     0.417000        1.0080           0
   46462 WT2  8844 TIP3 OH2  OT    -0.834000       15.9994           0
   46463 WT2  8844 TIP3 H1   HT     0.417000        1.0080           0
   46464 WT2  8844 TIP3 H2   HT     0.417000        1.0080           0
   46465 WT2  8845 TIP3 OH2  OT    -0.834000       15.9994           0
   46466 WT2  8845 TIP3 H1   HT     0.417000        1.0080           0
   46467 WT2  8845 TIP3 H2   HT     0.417000        1.0080           0
   46468 WT2  8846 TIP3 OH2  OT    -0.834000       15.9994           0
   46469 WT2  8846 TIP3 H1   HT     0.417000        1.0080           0
   46470 WT2  8846 TIP3 H2   HT     0.417000        1.0080           0
   46471 WT2  8847 TIP3 OH2  OT    -0.834000       15.9994           0
   46472 WT2  8847 TIP3 H1   HT     0.417000        1.0080           0
   46473 WT2  8847 TIP3 H2   HT     0.417000        1.0080           0
   46474 WT2  8848 TIP3 OH2  OT    -0.834000       15.9994           0
   46475 WT2  8848 TIP3 H1   HT     0.417000        1.0080           0
   46476 WT2  8848 TIP3 H2   HT     0.417000        1.0080           0
   46477 WT2  8849 TIP3 OH2  OT    -0.834000       15.9994           0
   46478 WT2  8849 TIP3 H1   HT     0.417000        1.0080           0
   46479 WT2  8849 TIP3 H2   HT     0.417000        1.0080           0
   46480 WT2  8850 TIP3 OH2  OT    -0.834000       15.9994           0
   46481 WT2  8850 TIP3 H1   HT     0.417000        1.0080           0
   46482 WT2  8850 TIP3 H2   HT     0.417000        1.0080           0
   46483 WT2  8851 TIP3 OH2  OT    -0.834000       15.9994           0
   46484 WT2  8851 TIP3 H1   HT     0.417000        1.0080           0
   46485 WT2  8851 TIP3 H2   HT     0.417000        1.0080           0
   46486 WT2  8852 TIP3 OH2  OT    -0.834000       15.9994           0
   46487 WT2  8852 TIP3 H1   HT     0.417000        1.0080           0
   46488 WT2  8852 TIP3 H2   HT     0.417000        1.0080           0
   46489 WT2  8853 TIP3 OH2  OT    -0.834000       15.9994           0
   46490 WT2  8853 TIP3 H1   HT     0.417000        1.0080           0
   46491 WT2  8853 TIP3 H2   HT     0.417000        1.0080           0
   46492 WT2  8856 TIP3 OH2  OT    -0.834000       15.9994           0
   46493 WT2  8856 TIP3 H1   HT     0.417000        1.0080           0
   46494 WT2  8856 TIP3 H2   HT     0.417000        1.0080           0
   46495 WT2  8858 TIP3 OH2  OT    -0.834000       15.9994           0
   46496 WT2  8858 TIP3 H1   HT     0.417000        1.0080           0
   46497 WT2  8858 TIP3 H2   HT     0.417000        1.0080           0
   46498 WT2  8863 TIP3 OH2  OT    -0.834000       15.9994           0
   46499 WT2  8863 TIP3 H1   HT     0.417000        1.0080           0
   46500 WT2  8863 TIP3 H2   HT     0.417000        1.0080           0
   46501 WT2  8865 TIP3 OH2  OT    -0.834000       15.9994           0
   46502 WT2  8865 TIP3 H1   HT     0.417000        1.0080           0
   46503 WT2  8865 TIP3 H2   HT     0.417000        1.0080           0
   46504 WT2  8866 TIP3 OH2  OT    -0.834000       15.9994           0
   46505 WT2  8866 TIP3 H1   HT     0.417000        1.0080           0
   46506 WT2  8866 TIP3 H2   HT     0.417000        1.0080           0
   46507 WT2  8867 TIP3 OH2  OT    -0.834000       15.9994           0
   46508 WT2  8867 TIP3 H1   HT     0.417000        1.0080           0
   46509 WT2  8867 TIP3 H2   HT     0.417000        1.0080           0
   46510 WT2  8868 TIP3 OH2  OT    -0.834000       15.9994           0
   46511 WT2  8868 TIP3 H1   HT     0.417000        1.0080           0
   46512 WT2  8868 TIP3 H2   HT     0.417000        1.0080           0
   46513 WT2  8869 TIP3 OH2  OT    -0.834000       15.9994           0
   46514 WT2  8869 TIP3 H1   HT     0.417000        1.0080           0
   46515 WT2  8869 TIP3 H2   HT     0.417000        1.0080           0
   46516 WT2  8870 TIP3 OH2  OT    -0.834000       15.9994           0
   46517 WT2  8870 TIP3 H1   HT     0.417000        1.0080           0
   46518 WT2  8870 TIP3 H2   HT     0.417000        1.0080           0
   46519 WT2  8871 TIP3 OH2  OT    -0.834000       15.9994           0
   46520 WT2  8871 TIP3 H1   HT     0.417000        1.0080           0
   46521 WT2  8871 TIP3 H2   HT     0.417000        1.0080           0
   46522 WT2  8872 TIP3 OH2  OT    -0.834000       15.9994           0
   46523 WT2  8872 TIP3 H1   HT     0.417000        1.0080           0
   46524 WT2  8872 TIP3 H2   HT     0.417000        1.0080           0
   46525 WT2  8873 TIP3 OH2  OT    -0.834000       15.9994           0
   46526 WT2  8873 TIP3 H1   HT     0.417000        1.0080           0
   46527 WT2  8873 TIP3 H2   HT     0.417000        1.0080           0
   46528 WT2  8874 TIP3 OH2  OT    -0.834000       15.9994           0
   46529 WT2  8874 TIP3 H1   HT     0.417000        1.0080           0
   46530 WT2  8874 TIP3 H2   HT     0.417000        1.0080           0
   46531 WT2  8875 TIP3 OH2  OT    -0.834000       15.9994           0
   46532 WT2  8875 TIP3 H1   HT     0.417000        1.0080           0
   46533 WT2  8875 TIP3 H2   HT     0.417000        1.0080           0
   46534 WT2  8877 TIP3 OH2  OT    -0.834000       15.9994           0
   46535 WT2  8877 TIP3 H1   HT     0.417000        1.0080           0
   46536 WT2  8877 TIP3 H2   HT     0.417000        1.0080           0
   46537 WT2  8878 TIP3 OH2  OT    -0.834000       15.9994           0
   46538 WT2  8878 TIP3 H1   HT     0.417000        1.0080           0
   46539 WT2  8878 TIP3 H2   HT     0.417000        1.0080           0
   46540 WT2  8883 TIP3 OH2  OT    -0.834000       15.9994           0
   46541 WT2  8883 TIP3 H1   HT     0.417000        1.0080           0
   46542 WT2  8883 TIP3 H2   HT     0.417000        1.0080           0
   46543 WT2  8884 TIP3 OH2  OT    -0.834000       15.9994           0
   46544 WT2  8884 TIP3 H1   HT     0.417000        1.0080           0
   46545 WT2  8884 TIP3 H2   HT     0.417000        1.0080           0
   46546 WT2  8885 TIP3 OH2  OT    -0.834000       15.9994           0
   46547 WT2  8885 TIP3 H1   HT     0.417000        1.0080           0
   46548 WT2  8885 TIP3 H2   HT     0.417000        1.0080           0
   46549 WT2  8886 TIP3 OH2  OT    -0.834000       15.9994           0
   46550 WT2  8886 TIP3 H1   HT     0.417000        1.0080           0
   46551 WT2  8886 TIP3 H2   HT     0.417000        1.0080           0
   46552 WT2  8887 TIP3 OH2  OT    -0.834000       15.9994           0
   46553 WT2  8887 TIP3 H1   HT     0.417000        1.0080           0
   46554 WT2  8887 TIP3 H2   HT     0.417000        1.0080           0
   46555 WT2  8888 TIP3 OH2  OT    -0.834000       15.9994           0
   46556 WT2  8888 TIP3 H1   HT     0.417000        1.0080           0
   46557 WT2  8888 TIP3 H2   HT     0.417000        1.0080           0
   46558 WT2  8889 TIP3 OH2  OT    -0.834000       15.9994           0
   46559 WT2  8889 TIP3 H1   HT     0.417000        1.0080           0
   46560 WT2  8889 TIP3 H2   HT     0.417000        1.0080           0
   46561 WT2  8890 TIP3 OH2  OT    -0.834000       15.9994           0
   46562 WT2  8890 TIP3 H1   HT     0.417000        1.0080           0
   46563 WT2  8890 TIP3 H2   HT     0.417000        1.0080           0
   46564 WT2  8891 TIP3 OH2  OT    -0.834000       15.9994           0
   46565 WT2  8891 TIP3 H1   HT     0.417000        1.0080           0
   46566 WT2  8891 TIP3 H2   HT     0.417000        1.0080           0
   46567 WT2  8893 TIP3 OH2  OT    -0.834000       15.9994           0
   46568 WT2  8893 TIP3 H1   HT     0.417000        1.0080           0
   46569 WT2  8893 TIP3 H2   HT     0.417000        1.0080           0
   46570 WT2  8894 TIP3 OH2  OT    -0.834000       15.9994           0
   46571 WT2  8894 TIP3 H1   HT     0.417000        1.0080           0
   46572 WT2  8894 TIP3 H2   HT     0.417000        1.0080           0
   46573 WT2  8895 TIP3 OH2  OT    -0.834000       15.9994           0
   46574 WT2  8895 TIP3 H1   HT     0.417000        1.0080           0
   46575 WT2  8895 TIP3 H2   HT     0.417000        1.0080           0
   46576 WT2  8896 TIP3 OH2  OT    -0.834000       15.9994           0
   46577 WT2  8896 TIP3 H1   HT     0.417000        1.0080           0
   46578 WT2  8896 TIP3 H2   HT     0.417000        1.0080           0
   46579 WT2  8897 TIP3 OH2  OT    -0.834000       15.9994           0
   46580 WT2  8897 TIP3 H1   HT     0.417000        1.0080           0
   46581 WT2  8897 TIP3 H2   HT     0.417000        1.0080           0
   46582 WT2  8898 TIP3 OH2  OT    -0.834000       15.9994           0
   46583 WT2  8898 TIP3 H1   HT     0.417000        1.0080           0
   46584 WT2  8898 TIP3 H2   HT     0.417000        1.0080           0
   46585 WT2  8901 TIP3 OH2  OT    -0.834000       15.9994           0
   46586 WT2  8901 TIP3 H1   HT     0.417000        1.0080           0
   46587 WT2  8901 TIP3 H2   HT     0.417000        1.0080           0
   46588 WT2  8903 TIP3 OH2  OT    -0.834000       15.9994           0
   46589 WT2  8903 TIP3 H1   HT     0.417000        1.0080           0
   46590 WT2  8903 TIP3 H2   HT     0.417000        1.0080           0
   46591 WT2  8905 TIP3 OH2  OT    -0.834000       15.9994           0
   46592 WT2  8905 TIP3 H1   HT     0.417000        1.0080           0
   46593 WT2  8905 TIP3 H2   HT     0.417000        1.0080           0
   46594 WT2  8906 TIP3 OH2  OT    -0.834000       15.9994           0
   46595 WT2  8906 TIP3 H1   HT     0.417000        1.0080           0
   46596 WT2  8906 TIP3 H2   HT     0.417000        1.0080           0
   46597 WT2  8907 TIP3 OH2  OT    -0.834000       15.9994           0
   46598 WT2  8907 TIP3 H1   HT     0.417000        1.0080           0
   46599 WT2  8907 TIP3 H2   HT     0.417000        1.0080           0
   46600 WT2  8908 TIP3 OH2  OT    -0.834000       15.9994           0
   46601 WT2  8908 TIP3 H1   HT     0.417000        1.0080           0
   46602 WT2  8908 TIP3 H2   HT     0.417000        1.0080           0
   46603 WT2  8909 TIP3 OH2  OT    -0.834000       15.9994           0
   46604 WT2  8909 TIP3 H1   HT     0.417000        1.0080           0
   46605 WT2  8909 TIP3 H2   HT     0.417000        1.0080           0
   46606 WT2  8910 TIP3 OH2  OT    -0.834000       15.9994           0
   46607 WT2  8910 TIP3 H1   HT     0.417000        1.0080           0
   46608 WT2  8910 TIP3 H2   HT     0.417000        1.0080           0
   46609 WT2  8911 TIP3 OH2  OT    -0.834000       15.9994           0
   46610 WT2  8911 TIP3 H1   HT     0.417000        1.0080           0
   46611 WT2  8911 TIP3 H2   HT     0.417000        1.0080           0
   46612 WT2  8912 TIP3 OH2  OT    -0.834000       15.9994           0
   46613 WT2  8912 TIP3 H1   HT     0.417000        1.0080           0
   46614 WT2  8912 TIP3 H2   HT     0.417000        1.0080           0
   46615 WT2  8913 TIP3 OH2  OT    -0.834000       15.9994           0
   46616 WT2  8913 TIP3 H1   HT     0.417000        1.0080           0
   46617 WT2  8913 TIP3 H2   HT     0.417000        1.0080           0
   46618 WT2  8914 TIP3 OH2  OT    -0.834000       15.9994           0
   46619 WT2  8914 TIP3 H1   HT     0.417000        1.0080           0
   46620 WT2  8914 TIP3 H2   HT     0.417000        1.0080           0
   46621 WT2  8915 TIP3 OH2  OT    -0.834000       15.9994           0
   46622 WT2  8915 TIP3 H1   HT     0.417000        1.0080           0
   46623 WT2  8915 TIP3 H2   HT     0.417000        1.0080           0
   46624 WT2  8916 TIP3 OH2  OT    -0.834000       15.9994           0
   46625 WT2  8916 TIP3 H1   HT     0.417000        1.0080           0
   46626 WT2  8916 TIP3 H2   HT     0.417000        1.0080           0
   46627 WT2  8917 TIP3 OH2  OT    -0.834000       15.9994           0
   46628 WT2  8917 TIP3 H1   HT     0.417000        1.0080           0
   46629 WT2  8917 TIP3 H2   HT     0.417000        1.0080           0
   46630 WT2  8918 TIP3 OH2  OT    -0.834000       15.9994           0
   46631 WT2  8918 TIP3 H1   HT     0.417000        1.0080           0
   46632 WT2  8918 TIP3 H2   HT     0.417000        1.0080           0
   46633 WT2  8925 TIP3 OH2  OT    -0.834000       15.9994           0
   46634 WT2  8925 TIP3 H1   HT     0.417000        1.0080           0
   46635 WT2  8925 TIP3 H2   HT     0.417000        1.0080           0
   46636 WT2  8926 TIP3 OH2  OT    -0.834000       15.9994           0
   46637 WT2  8926 TIP3 H1   HT     0.417000        1.0080           0
   46638 WT2  8926 TIP3 H2   HT     0.417000        1.0080           0
   46639 WT2  8927 TIP3 OH2  OT    -0.834000       15.9994           0
   46640 WT2  8927 TIP3 H1   HT     0.417000        1.0080           0
   46641 WT2  8927 TIP3 H2   HT     0.417000        1.0080           0
   46642 WT2  8928 TIP3 OH2  OT    -0.834000       15.9994           0
   46643 WT2  8928 TIP3 H1   HT     0.417000        1.0080           0
   46644 WT2  8928 TIP3 H2   HT     0.417000        1.0080           0
   46645 WT2  8929 TIP3 OH2  OT    -0.834000       15.9994           0
   46646 WT2  8929 TIP3 H1   HT     0.417000        1.0080           0
   46647 WT2  8929 TIP3 H2   HT     0.417000        1.0080           0
   46648 WT2  8930 TIP3 OH2  OT    -0.834000       15.9994           0
   46649 WT2  8930 TIP3 H1   HT     0.417000        1.0080           0
   46650 WT2  8930 TIP3 H2   HT     0.417000        1.0080           0
   46651 WT2  8931 TIP3 OH2  OT    -0.834000       15.9994           0
   46652 WT2  8931 TIP3 H1   HT     0.417000        1.0080           0
   46653 WT2  8931 TIP3 H2   HT     0.417000        1.0080           0
   46654 WT2  8932 TIP3 OH2  OT    -0.834000       15.9994           0
   46655 WT2  8932 TIP3 H1   HT     0.417000        1.0080           0
   46656 WT2  8932 TIP3 H2   HT     0.417000        1.0080           0
   46657 WT2  8933 TIP3 OH2  OT    -0.834000       15.9994           0
   46658 WT2  8933 TIP3 H1   HT     0.417000        1.0080           0
   46659 WT2  8933 TIP3 H2   HT     0.417000        1.0080           0
   46660 WT2  8934 TIP3 OH2  OT    -0.834000       15.9994           0
   46661 WT2  8934 TIP3 H1   HT     0.417000        1.0080           0
   46662 WT2  8934 TIP3 H2   HT     0.417000        1.0080           0
   46663 WT2  8935 TIP3 OH2  OT    -0.834000       15.9994           0
   46664 WT2  8935 TIP3 H1   HT     0.417000        1.0080           0
   46665 WT2  8935 TIP3 H2   HT     0.417000        1.0080           0
   46666 WT2  8937 TIP3 OH2  OT    -0.834000       15.9994           0
   46667 WT2  8937 TIP3 H1   HT     0.417000        1.0080           0
   46668 WT2  8937 TIP3 H2   HT     0.417000        1.0080           0
   46669 WT2  8939 TIP3 OH2  OT    -0.834000       15.9994           0
   46670 WT2  8939 TIP3 H1   HT     0.417000        1.0080           0
   46671 WT2  8939 TIP3 H2   HT     0.417000        1.0080           0
   46672 WT2  8940 TIP3 OH2  OT    -0.834000       15.9994           0
   46673 WT2  8940 TIP3 H1   HT     0.417000        1.0080           0
   46674 WT2  8940 TIP3 H2   HT     0.417000        1.0080           0
   46675 WT2  8941 TIP3 OH2  OT    -0.834000       15.9994           0
   46676 WT2  8941 TIP3 H1   HT     0.417000        1.0080           0
   46677 WT2  8941 TIP3 H2   HT     0.417000        1.0080           0
   46678 WT2  8944 TIP3 OH2  OT    -0.834000       15.9994           0
   46679 WT2  8944 TIP3 H1   HT     0.417000        1.0080           0
   46680 WT2  8944 TIP3 H2   HT     0.417000        1.0080           0
   46681 WT2  8949 TIP3 OH2  OT    -0.834000       15.9994           0
   46682 WT2  8949 TIP3 H1   HT     0.417000        1.0080           0
   46683 WT2  8949 TIP3 H2   HT     0.417000        1.0080           0
   46684 WT2  8950 TIP3 OH2  OT    -0.834000       15.9994           0
   46685 WT2  8950 TIP3 H1   HT     0.417000        1.0080           0
   46686 WT2  8950 TIP3 H2   HT     0.417000        1.0080           0
   46687 WT2  8951 TIP3 OH2  OT    -0.834000       15.9994           0
   46688 WT2  8951 TIP3 H1   HT     0.417000        1.0080           0
   46689 WT2  8951 TIP3 H2   HT     0.417000        1.0080           0
   46690 WT2  8952 TIP3 OH2  OT    -0.834000       15.9994           0
   46691 WT2  8952 TIP3 H1   HT     0.417000        1.0080           0
   46692 WT2  8952 TIP3 H2   HT     0.417000        1.0080           0
   46693 WT2  8953 TIP3 OH2  OT    -0.834000       15.9994           0
   46694 WT2  8953 TIP3 H1   HT     0.417000        1.0080           0
   46695 WT2  8953 TIP3 H2   HT     0.417000        1.0080           0
   46696 WT2  8954 TIP3 OH2  OT    -0.834000       15.9994           0
   46697 WT2  8954 TIP3 H1   HT     0.417000        1.0080           0
   46698 WT2  8954 TIP3 H2   HT     0.417000        1.0080           0
   46699 WT2  8955 TIP3 OH2  OT    -0.834000       15.9994           0
   46700 WT2  8955 TIP3 H1   HT     0.417000        1.0080           0
   46701 WT2  8955 TIP3 H2   HT     0.417000        1.0080           0
   46702 WT2  8956 TIP3 OH2  OT    -0.834000       15.9994           0
   46703 WT2  8956 TIP3 H1   HT     0.417000        1.0080           0
   46704 WT2  8956 TIP3 H2   HT     0.417000        1.0080           0
   46705 WT2  8957 TIP3 OH2  OT    -0.834000       15.9994           0
   46706 WT2  8957 TIP3 H1   HT     0.417000        1.0080           0
   46707 WT2  8957 TIP3 H2   HT     0.417000        1.0080           0
   46708 WT2  8958 TIP3 OH2  OT    -0.834000       15.9994           0
   46709 WT2  8958 TIP3 H1   HT     0.417000        1.0080           0
   46710 WT2  8958 TIP3 H2   HT     0.417000        1.0080           0
   46711 WT2  8960 TIP3 OH2  OT    -0.834000       15.9994           0
   46712 WT2  8960 TIP3 H1   HT     0.417000        1.0080           0
   46713 WT2  8960 TIP3 H2   HT     0.417000        1.0080           0
   46714 WT2  8961 TIP3 OH2  OT    -0.834000       15.9994           0
   46715 WT2  8961 TIP3 H1   HT     0.417000        1.0080           0
   46716 WT2  8961 TIP3 H2   HT     0.417000        1.0080           0
   46717 WT2  8967 TIP3 OH2  OT    -0.834000       15.9994           0
   46718 WT2  8967 TIP3 H1   HT     0.417000        1.0080           0
   46719 WT2  8967 TIP3 H2   HT     0.417000        1.0080           0
   46720 WT2  8969 TIP3 OH2  OT    -0.834000       15.9994           0
   46721 WT2  8969 TIP3 H1   HT     0.417000        1.0080           0
   46722 WT2  8969 TIP3 H2   HT     0.417000        1.0080           0
   46723 WT2  8970 TIP3 OH2  OT    -0.834000       15.9994           0
   46724 WT2  8970 TIP3 H1   HT     0.417000        1.0080           0
   46725 WT2  8970 TIP3 H2   HT     0.417000        1.0080           0
   46726 WT2  8971 TIP3 OH2  OT    -0.834000       15.9994           0
   46727 WT2  8971 TIP3 H1   HT     0.417000        1.0080           0
   46728 WT2  8971 TIP3 H2   HT     0.417000        1.0080           0
   46729 WT2  8972 TIP3 OH2  OT    -0.834000       15.9994           0
   46730 WT2  8972 TIP3 H1   HT     0.417000        1.0080           0
   46731 WT2  8972 TIP3 H2   HT     0.417000        1.0080           0
   46732 WT2  8973 TIP3 OH2  OT    -0.834000       15.9994           0
   46733 WT2  8973 TIP3 H1   HT     0.417000        1.0080           0
   46734 WT2  8973 TIP3 H2   HT     0.417000        1.0080           0
   46735 WT2  8974 TIP3 OH2  OT    -0.834000       15.9994           0
   46736 WT2  8974 TIP3 H1   HT     0.417000        1.0080           0
   46737 WT2  8974 TIP3 H2   HT     0.417000        1.0080           0
   46738 WT2  8975 TIP3 OH2  OT    -0.834000       15.9994           0
   46739 WT2  8975 TIP3 H1   HT     0.417000        1.0080           0
   46740 WT2  8975 TIP3 H2   HT     0.417000        1.0080           0
   46741 WT2  8976 TIP3 OH2  OT    -0.834000       15.9994           0
   46742 WT2  8976 TIP3 H1   HT     0.417000        1.0080           0
   46743 WT2  8976 TIP3 H2   HT     0.417000        1.0080           0
   46744 WT2  8977 TIP3 OH2  OT    -0.834000       15.9994           0
   46745 WT2  8977 TIP3 H1   HT     0.417000        1.0080           0
   46746 WT2  8977 TIP3 H2   HT     0.417000        1.0080           0
   46747 WT2  8978 TIP3 OH2  OT    -0.834000       15.9994           0
   46748 WT2  8978 TIP3 H1   HT     0.417000        1.0080           0
   46749 WT2  8978 TIP3 H2   HT     0.417000        1.0080           0
   46750 WT2  8979 TIP3 OH2  OT    -0.834000       15.9994           0
   46751 WT2  8979 TIP3 H1   HT     0.417000        1.0080           0
   46752 WT2  8979 TIP3 H2   HT     0.417000        1.0080           0
   46753 WT2  8981 TIP3 OH2  OT    -0.834000       15.9994           0
   46754 WT2  8981 TIP3 H1   HT     0.417000        1.0080           0
   46755 WT2  8981 TIP3 H2   HT     0.417000        1.0080           0
   46756 WT2  8988 TIP3 OH2  OT    -0.834000       15.9994           0
   46757 WT2  8988 TIP3 H1   HT     0.417000        1.0080           0
   46758 WT2  8988 TIP3 H2   HT     0.417000        1.0080           0
   46759 WT2  8990 TIP3 OH2  OT    -0.834000       15.9994           0
   46760 WT2  8990 TIP3 H1   HT     0.417000        1.0080           0
   46761 WT2  8990 TIP3 H2   HT     0.417000        1.0080           0
   46762 WT2  8991 TIP3 OH2  OT    -0.834000       15.9994           0
   46763 WT2  8991 TIP3 H1   HT     0.417000        1.0080           0
   46764 WT2  8991 TIP3 H2   HT     0.417000        1.0080           0
   46765 WT2  8992 TIP3 OH2  OT    -0.834000       15.9994           0
   46766 WT2  8992 TIP3 H1   HT     0.417000        1.0080           0
   46767 WT2  8992 TIP3 H2   HT     0.417000        1.0080           0
   46768 WT2  8993 TIP3 OH2  OT    -0.834000       15.9994           0
   46769 WT2  8993 TIP3 H1   HT     0.417000        1.0080           0
   46770 WT2  8993 TIP3 H2   HT     0.417000        1.0080           0
   46771 WT2  8994 TIP3 OH2  OT    -0.834000       15.9994           0
   46772 WT2  8994 TIP3 H1   HT     0.417000        1.0080           0
   46773 WT2  8994 TIP3 H2   HT     0.417000        1.0080           0
   46774 WT2  8995 TIP3 OH2  OT    -0.834000       15.9994           0
   46775 WT2  8995 TIP3 H1   HT     0.417000        1.0080           0
   46776 WT2  8995 TIP3 H2   HT     0.417000        1.0080           0
   46777 WT2  8996 TIP3 OH2  OT    -0.834000       15.9994           0
   46778 WT2  8996 TIP3 H1   HT     0.417000        1.0080           0
   46779 WT2  8996 TIP3 H2   HT     0.417000        1.0080           0
   46780 WT2  8997 TIP3 OH2  OT    -0.834000       15.9994           0
   46781 WT2  8997 TIP3 H1   HT     0.417000        1.0080           0
   46782 WT2  8997 TIP3 H2   HT     0.417000        1.0080           0
   46783 WT2  8998 TIP3 OH2  OT    -0.834000       15.9994           0
   46784 WT2  8998 TIP3 H1   HT     0.417000        1.0080           0
   46785 WT2  8998 TIP3 H2   HT     0.417000        1.0080           0
   46786 WT2  8999 TIP3 OH2  OT    -0.834000       15.9994           0
   46787 WT2  8999 TIP3 H1   HT     0.417000        1.0080           0
   46788 WT2  8999 TIP3 H2   HT     0.417000        1.0080           0
   46789 WT2  9000 TIP3 OH2  OT    -0.834000       15.9994           0
   46790 WT2  9000 TIP3 H1   HT     0.417000        1.0080           0
   46791 WT2  9000 TIP3 H2   HT     0.417000        1.0080           0
   46792 WT2  9001 TIP3 OH2  OT    -0.834000       15.9994           0
   46793 WT2  9001 TIP3 H1   HT     0.417000        1.0080           0
   46794 WT2  9001 TIP3 H2   HT     0.417000        1.0080           0
   46795 WT2  9002 TIP3 OH2  OT    -0.834000       15.9994           0
   46796 WT2  9002 TIP3 H1   HT     0.417000        1.0080           0
   46797 WT2  9002 TIP3 H2   HT     0.417000        1.0080           0
   46798 WT2  9008 TIP3 OH2  OT    -0.834000       15.9994           0
   46799 WT2  9008 TIP3 H1   HT     0.417000        1.0080           0
   46800 WT2  9008 TIP3 H2   HT     0.417000        1.0080           0
   46801 WT2  9009 TIP3 OH2  OT    -0.834000       15.9994           0
   46802 WT2  9009 TIP3 H1   HT     0.417000        1.0080           0
   46803 WT2  9009 TIP3 H2   HT     0.417000        1.0080           0
   46804 WT2  9013 TIP3 OH2  OT    -0.834000       15.9994           0
   46805 WT2  9013 TIP3 H1   HT     0.417000        1.0080           0
   46806 WT2  9013 TIP3 H2   HT     0.417000        1.0080           0
   46807 WT2  9014 TIP3 OH2  OT    -0.834000       15.9994           0
   46808 WT2  9014 TIP3 H1   HT     0.417000        1.0080           0
   46809 WT2  9014 TIP3 H2   HT     0.417000        1.0080           0
   46810 WT2  9015 TIP3 OH2  OT    -0.834000       15.9994           0
   46811 WT2  9015 TIP3 H1   HT     0.417000        1.0080           0
   46812 WT2  9015 TIP3 H2   HT     0.417000        1.0080           0
   46813 WT2  9016 TIP3 OH2  OT    -0.834000       15.9994           0
   46814 WT2  9016 TIP3 H1   HT     0.417000        1.0080           0
   46815 WT2  9016 TIP3 H2   HT     0.417000        1.0080           0
   46816 WT2  9017 TIP3 OH2  OT    -0.834000       15.9994           0
   46817 WT2  9017 TIP3 H1   HT     0.417000        1.0080           0
   46818 WT2  9017 TIP3 H2   HT     0.417000        1.0080           0
   46819 WT2  9018 TIP3 OH2  OT    -0.834000       15.9994           0
   46820 WT2  9018 TIP3 H1   HT     0.417000        1.0080           0
   46821 WT2  9018 TIP3 H2   HT     0.417000        1.0080           0
   46822 WT2  9019 TIP3 OH2  OT    -0.834000       15.9994           0
   46823 WT2  9019 TIP3 H1   HT     0.417000        1.0080           0
   46824 WT2  9019 TIP3 H2   HT     0.417000        1.0080           0
   46825 WT2  9020 TIP3 OH2  OT    -0.834000       15.9994           0
   46826 WT2  9020 TIP3 H1   HT     0.417000        1.0080           0
   46827 WT2  9020 TIP3 H2   HT     0.417000        1.0080           0
   46828 WT2  9021 TIP3 OH2  OT    -0.834000       15.9994           0
   46829 WT2  9021 TIP3 H1   HT     0.417000        1.0080           0
   46830 WT2  9021 TIP3 H2   HT     0.417000        1.0080           0
   46831 WT2  9023 TIP3 OH2  OT    -0.834000       15.9994           0
   46832 WT2  9023 TIP3 H1   HT     0.417000        1.0080           0
   46833 WT2  9023 TIP3 H2   HT     0.417000        1.0080           0
   46834 WT2  9024 TIP3 OH2  OT    -0.834000       15.9994           0
   46835 WT2  9024 TIP3 H1   HT     0.417000        1.0080           0
   46836 WT2  9024 TIP3 H2   HT     0.417000        1.0080           0
   46837 WT2  9026 TIP3 OH2  OT    -0.834000       15.9994           0
   46838 WT2  9026 TIP3 H1   HT     0.417000        1.0080           0
   46839 WT2  9026 TIP3 H2   HT     0.417000        1.0080           0
   46840 WT2  9031 TIP3 OH2  OT    -0.834000       15.9994           0
   46841 WT2  9031 TIP3 H1   HT     0.417000        1.0080           0
   46842 WT2  9031 TIP3 H2   HT     0.417000        1.0080           0
   46843 WT2  9033 TIP3 OH2  OT    -0.834000       15.9994           0
   46844 WT2  9033 TIP3 H1   HT     0.417000        1.0080           0
   46845 WT2  9033 TIP3 H2   HT     0.417000        1.0080           0
   46846 WT2  9034 TIP3 OH2  OT    -0.834000       15.9994           0
   46847 WT2  9034 TIP3 H1   HT     0.417000        1.0080           0
   46848 WT2  9034 TIP3 H2   HT     0.417000        1.0080           0
   46849 WT2  9035 TIP3 OH2  OT    -0.834000       15.9994           0
   46850 WT2  9035 TIP3 H1   HT     0.417000        1.0080           0
   46851 WT2  9035 TIP3 H2   HT     0.417000        1.0080           0
   46852 WT2  9036 TIP3 OH2  OT    -0.834000       15.9994           0
   46853 WT2  9036 TIP3 H1   HT     0.417000        1.0080           0
   46854 WT2  9036 TIP3 H2   HT     0.417000        1.0080           0
   46855 WT2  9037 TIP3 OH2  OT    -0.834000       15.9994           0
   46856 WT2  9037 TIP3 H1   HT     0.417000        1.0080           0
   46857 WT2  9037 TIP3 H2   HT     0.417000        1.0080           0
   46858 WT2  9038 TIP3 OH2  OT    -0.834000       15.9994           0
   46859 WT2  9038 TIP3 H1   HT     0.417000        1.0080           0
   46860 WT2  9038 TIP3 H2   HT     0.417000        1.0080           0
   46861 WT2  9039 TIP3 OH2  OT    -0.834000       15.9994           0
   46862 WT2  9039 TIP3 H1   HT     0.417000        1.0080           0
   46863 WT2  9039 TIP3 H2   HT     0.417000        1.0080           0
   46864 WT2  9040 TIP3 OH2  OT    -0.834000       15.9994           0
   46865 WT2  9040 TIP3 H1   HT     0.417000        1.0080           0
   46866 WT2  9040 TIP3 H2   HT     0.417000        1.0080           0
   46867 WT2  9041 TIP3 OH2  OT    -0.834000       15.9994           0
   46868 WT2  9041 TIP3 H1   HT     0.417000        1.0080           0
   46869 WT2  9041 TIP3 H2   HT     0.417000        1.0080           0
   46870 WT2  9042 TIP3 OH2  OT    -0.834000       15.9994           0
   46871 WT2  9042 TIP3 H1   HT     0.417000        1.0080           0
   46872 WT2  9042 TIP3 H2   HT     0.417000        1.0080           0
   46873 WT2  9043 TIP3 OH2  OT    -0.834000       15.9994           0
   46874 WT2  9043 TIP3 H1   HT     0.417000        1.0080           0
   46875 WT2  9043 TIP3 H2   HT     0.417000        1.0080           0
   46876 WT2  9044 TIP3 OH2  OT    -0.834000       15.9994           0
   46877 WT2  9044 TIP3 H1   HT     0.417000        1.0080           0
   46878 WT2  9044 TIP3 H2   HT     0.417000        1.0080           0
   46879 WT2  9045 TIP3 OH2  OT    -0.834000       15.9994           0
   46880 WT2  9045 TIP3 H1   HT     0.417000        1.0080           0
   46881 WT2  9045 TIP3 H2   HT     0.417000        1.0080           0
   46882 WT2  9047 TIP3 OH2  OT    -0.834000       15.9994           0
   46883 WT2  9047 TIP3 H1   HT     0.417000        1.0080           0
   46884 WT2  9047 TIP3 H2   HT     0.417000        1.0080           0
   46885 WT2  9051 TIP3 OH2  OT    -0.834000       15.9994           0
   46886 WT2  9051 TIP3 H1   HT     0.417000        1.0080           0
   46887 WT2  9051 TIP3 H2   HT     0.417000        1.0080           0
   46888 WT2  9052 TIP3 OH2  OT    -0.834000       15.9994           0
   46889 WT2  9052 TIP3 H1   HT     0.417000        1.0080           0
   46890 WT2  9052 TIP3 H2   HT     0.417000        1.0080           0
   46891 WT2  9054 TIP3 OH2  OT    -0.834000       15.9994           0
   46892 WT2  9054 TIP3 H1   HT     0.417000        1.0080           0
   46893 WT2  9054 TIP3 H2   HT     0.417000        1.0080           0
   46894 WT2  9055 TIP3 OH2  OT    -0.834000       15.9994           0
   46895 WT2  9055 TIP3 H1   HT     0.417000        1.0080           0
   46896 WT2  9055 TIP3 H2   HT     0.417000        1.0080           0
   46897 WT2  9056 TIP3 OH2  OT    -0.834000       15.9994           0
   46898 WT2  9056 TIP3 H1   HT     0.417000        1.0080           0
   46899 WT2  9056 TIP3 H2   HT     0.417000        1.0080           0
   46900 WT2  9057 TIP3 OH2  OT    -0.834000       15.9994           0
   46901 WT2  9057 TIP3 H1   HT     0.417000        1.0080           0
   46902 WT2  9057 TIP3 H2   HT     0.417000        1.0080           0
   46903 WT2  9058 TIP3 OH2  OT    -0.834000       15.9994           0
   46904 WT2  9058 TIP3 H1   HT     0.417000        1.0080           0
   46905 WT2  9058 TIP3 H2   HT     0.417000        1.0080           0
   46906 WT2  9059 TIP3 OH2  OT    -0.834000       15.9994           0
   46907 WT2  9059 TIP3 H1   HT     0.417000        1.0080           0
   46908 WT2  9059 TIP3 H2   HT     0.417000        1.0080           0
   46909 WT2  9060 TIP3 OH2  OT    -0.834000       15.9994           0
   46910 WT2  9060 TIP3 H1   HT     0.417000        1.0080           0
   46911 WT2  9060 TIP3 H2   HT     0.417000        1.0080           0
   46912 WT2  9061 TIP3 OH2  OT    -0.834000       15.9994           0
   46913 WT2  9061 TIP3 H1   HT     0.417000        1.0080           0
   46914 WT2  9061 TIP3 H2   HT     0.417000        1.0080           0
   46915 WT2  9062 TIP3 OH2  OT    -0.834000       15.9994           0
   46916 WT2  9062 TIP3 H1   HT     0.417000        1.0080           0
   46917 WT2  9062 TIP3 H2   HT     0.417000        1.0080           0
   46918 WT2  9066 TIP3 OH2  OT    -0.834000       15.9994           0
   46919 WT2  9066 TIP3 H1   HT     0.417000        1.0080           0
   46920 WT2  9066 TIP3 H2   HT     0.417000        1.0080           0
   46921 WT2  9072 TIP3 OH2  OT    -0.834000       15.9994           0
   46922 WT2  9072 TIP3 H1   HT     0.417000        1.0080           0
   46923 WT2  9072 TIP3 H2   HT     0.417000        1.0080           0
   46924 WT2  9073 TIP3 OH2  OT    -0.834000       15.9994           0
   46925 WT2  9073 TIP3 H1   HT     0.417000        1.0080           0
   46926 WT2  9073 TIP3 H2   HT     0.417000        1.0080           0
   46927 WT2  9075 TIP3 OH2  OT    -0.834000       15.9994           0
   46928 WT2  9075 TIP3 H1   HT     0.417000        1.0080           0
   46929 WT2  9075 TIP3 H2   HT     0.417000        1.0080           0
   46930 WT2  9076 TIP3 OH2  OT    -0.834000       15.9994           0
   46931 WT2  9076 TIP3 H1   HT     0.417000        1.0080           0
   46932 WT2  9076 TIP3 H2   HT     0.417000        1.0080           0
   46933 WT2  9078 TIP3 OH2  OT    -0.834000       15.9994           0
   46934 WT2  9078 TIP3 H1   HT     0.417000        1.0080           0
   46935 WT2  9078 TIP3 H2   HT     0.417000        1.0080           0
   46936 WT2  9079 TIP3 OH2  OT    -0.834000       15.9994           0
   46937 WT2  9079 TIP3 H1   HT     0.417000        1.0080           0
   46938 WT2  9079 TIP3 H2   HT     0.417000        1.0080           0
   46939 WT2  9080 TIP3 OH2  OT    -0.834000       15.9994           0
   46940 WT2  9080 TIP3 H1   HT     0.417000        1.0080           0
   46941 WT2  9080 TIP3 H2   HT     0.417000        1.0080           0
   46942 WT2  9081 TIP3 OH2  OT    -0.834000       15.9994           0
   46943 WT2  9081 TIP3 H1   HT     0.417000        1.0080           0
   46944 WT2  9081 TIP3 H2   HT     0.417000        1.0080           0
   46945 WT2  9082 TIP3 OH2  OT    -0.834000       15.9994           0
   46946 WT2  9082 TIP3 H1   HT     0.417000        1.0080           0
   46947 WT2  9082 TIP3 H2   HT     0.417000        1.0080           0
   46948 WT2  9083 TIP3 OH2  OT    -0.834000       15.9994           0
   46949 WT2  9083 TIP3 H1   HT     0.417000        1.0080           0
   46950 WT2  9083 TIP3 H2   HT     0.417000        1.0080           0
   46951 WT2  9084 TIP3 OH2  OT    -0.834000       15.9994           0
   46952 WT2  9084 TIP3 H1   HT     0.417000        1.0080           0
   46953 WT2  9084 TIP3 H2   HT     0.417000        1.0080           0
   46954 WT2  9085 TIP3 OH2  OT    -0.834000       15.9994           0
   46955 WT2  9085 TIP3 H1   HT     0.417000        1.0080           0
   46956 WT2  9085 TIP3 H2   HT     0.417000        1.0080           0
   46957 WT2  9086 TIP3 OH2  OT    -0.834000       15.9994           0
   46958 WT2  9086 TIP3 H1   HT     0.417000        1.0080           0
   46959 WT2  9086 TIP3 H2   HT     0.417000        1.0080           0
   46960 WT2  9092 TIP3 OH2  OT    -0.834000       15.9994           0
   46961 WT2  9092 TIP3 H1   HT     0.417000        1.0080           0
   46962 WT2  9092 TIP3 H2   HT     0.417000        1.0080           0
   46963 WT2  9093 TIP3 OH2  OT    -0.834000       15.9994           0
   46964 WT2  9093 TIP3 H1   HT     0.417000        1.0080           0
   46965 WT2  9093 TIP3 H2   HT     0.417000        1.0080           0
   46966 WT2  9094 TIP3 OH2  OT    -0.834000       15.9994           0
   46967 WT2  9094 TIP3 H1   HT     0.417000        1.0080           0
   46968 WT2  9094 TIP3 H2   HT     0.417000        1.0080           0
   46969 WT2  9096 TIP3 OH2  OT    -0.834000       15.9994           0
   46970 WT2  9096 TIP3 H1   HT     0.417000        1.0080           0
   46971 WT2  9096 TIP3 H2   HT     0.417000        1.0080           0
   46972 WT2  9097 TIP3 OH2  OT    -0.834000       15.9994           0
   46973 WT2  9097 TIP3 H1   HT     0.417000        1.0080           0
   46974 WT2  9097 TIP3 H2   HT     0.417000        1.0080           0
   46975 WT2  9098 TIP3 OH2  OT    -0.834000       15.9994           0
   46976 WT2  9098 TIP3 H1   HT     0.417000        1.0080           0
   46977 WT2  9098 TIP3 H2   HT     0.417000        1.0080           0
   46978 WT2  9099 TIP3 OH2  OT    -0.834000       15.9994           0
   46979 WT2  9099 TIP3 H1   HT     0.417000        1.0080           0
   46980 WT2  9099 TIP3 H2   HT     0.417000        1.0080           0
   46981 WT2  9100 TIP3 OH2  OT    -0.834000       15.9994           0
   46982 WT2  9100 TIP3 H1   HT     0.417000        1.0080           0
   46983 WT2  9100 TIP3 H2   HT     0.417000        1.0080           0
   46984 WT2  9101 TIP3 OH2  OT    -0.834000       15.9994           0
   46985 WT2  9101 TIP3 H1   HT     0.417000        1.0080           0
   46986 WT2  9101 TIP3 H2   HT     0.417000        1.0080           0
   46987 WT2  9102 TIP3 OH2  OT    -0.834000       15.9994           0
   46988 WT2  9102 TIP3 H1   HT     0.417000        1.0080           0
   46989 WT2  9102 TIP3 H2   HT     0.417000        1.0080           0
   46990 WT2  9103 TIP3 OH2  OT    -0.834000       15.9994           0
   46991 WT2  9103 TIP3 H1   HT     0.417000        1.0080           0
   46992 WT2  9103 TIP3 H2   HT     0.417000        1.0080           0
   46993 WT2  9104 TIP3 OH2  OT    -0.834000       15.9994           0
   46994 WT2  9104 TIP3 H1   HT     0.417000        1.0080           0
   46995 WT2  9104 TIP3 H2   HT     0.417000        1.0080           0
   46996 WT2  9105 TIP3 OH2  OT    -0.834000       15.9994           0
   46997 WT2  9105 TIP3 H1   HT     0.417000        1.0080           0
   46998 WT2  9105 TIP3 H2   HT     0.417000        1.0080           0
   46999 WT2  9106 TIP3 OH2  OT    -0.834000       15.9994           0
   47000 WT2  9106 TIP3 H1   HT     0.417000        1.0080           0
   47001 WT2  9106 TIP3 H2   HT     0.417000        1.0080           0
   47002 WT2  9107 TIP3 OH2  OT    -0.834000       15.9994           0
   47003 WT2  9107 TIP3 H1   HT     0.417000        1.0080           0
   47004 WT2  9107 TIP3 H2   HT     0.417000        1.0080           0
   47005 WT2  9110 TIP3 OH2  OT    -0.834000       15.9994           0
   47006 WT2  9110 TIP3 H1   HT     0.417000        1.0080           0
   47007 WT2  9110 TIP3 H2   HT     0.417000        1.0080           0
   47008 WT2  9116 TIP3 OH2  OT    -0.834000       15.9994           0
   47009 WT2  9116 TIP3 H1   HT     0.417000        1.0080           0
   47010 WT2  9116 TIP3 H2   HT     0.417000        1.0080           0
   47011 WT2  9117 TIP3 OH2  OT    -0.834000       15.9994           0
   47012 WT2  9117 TIP3 H1   HT     0.417000        1.0080           0
   47013 WT2  9117 TIP3 H2   HT     0.417000        1.0080           0
   47014 WT2  9120 TIP3 OH2  OT    -0.834000       15.9994           0
   47015 WT2  9120 TIP3 H1   HT     0.417000        1.0080           0
   47016 WT2  9120 TIP3 H2   HT     0.417000        1.0080           0
   47017 WT2  9121 TIP3 OH2  OT    -0.834000       15.9994           0
   47018 WT2  9121 TIP3 H1   HT     0.417000        1.0080           0
   47019 WT2  9121 TIP3 H2   HT     0.417000        1.0080           0
   47020 WT2  9122 TIP3 OH2  OT    -0.834000       15.9994           0
   47021 WT2  9122 TIP3 H1   HT     0.417000        1.0080           0
   47022 WT2  9122 TIP3 H2   HT     0.417000        1.0080           0
   47023 WT2  9123 TIP3 OH2  OT    -0.834000       15.9994           0
   47024 WT2  9123 TIP3 H1   HT     0.417000        1.0080           0
   47025 WT2  9123 TIP3 H2   HT     0.417000        1.0080           0
   47026 WT2  9124 TIP3 OH2  OT    -0.834000       15.9994           0
   47027 WT2  9124 TIP3 H1   HT     0.417000        1.0080           0
   47028 WT2  9124 TIP3 H2   HT     0.417000        1.0080           0
   47029 WT2  9125 TIP3 OH2  OT    -0.834000       15.9994           0
   47030 WT2  9125 TIP3 H1   HT     0.417000        1.0080           0
   47031 WT2  9125 TIP3 H2   HT     0.417000        1.0080           0
   47032 WT2  9126 TIP3 OH2  OT    -0.834000       15.9994           0
   47033 WT2  9126 TIP3 H1   HT     0.417000        1.0080           0
   47034 WT2  9126 TIP3 H2   HT     0.417000        1.0080           0
   47035 WT2  9127 TIP3 OH2  OT    -0.834000       15.9994           0
   47036 WT2  9127 TIP3 H1   HT     0.417000        1.0080           0
   47037 WT2  9127 TIP3 H2   HT     0.417000        1.0080           0
   47038 WT2  9128 TIP3 OH2  OT    -0.834000       15.9994           0
   47039 WT2  9128 TIP3 H1   HT     0.417000        1.0080           0
   47040 WT2  9128 TIP3 H2   HT     0.417000        1.0080           0
   47041 WT2  9136 TIP3 OH2  OT    -0.834000       15.9994           0
   47042 WT2  9136 TIP3 H1   HT     0.417000        1.0080           0
   47043 WT2  9136 TIP3 H2   HT     0.417000        1.0080           0
   47044 WT2  9138 TIP3 OH2  OT    -0.834000       15.9994           0
   47045 WT2  9138 TIP3 H1   HT     0.417000        1.0080           0
   47046 WT2  9138 TIP3 H2   HT     0.417000        1.0080           0
   47047 WT2  9139 TIP3 OH2  OT    -0.834000       15.9994           0
   47048 WT2  9139 TIP3 H1   HT     0.417000        1.0080           0
   47049 WT2  9139 TIP3 H2   HT     0.417000        1.0080           0
   47050 WT2  9140 TIP3 OH2  OT    -0.834000       15.9994           0
   47051 WT2  9140 TIP3 H1   HT     0.417000        1.0080           0
   47052 WT2  9140 TIP3 H2   HT     0.417000        1.0080           0
   47053 WT2  9142 TIP3 OH2  OT    -0.834000       15.9994           0
   47054 WT2  9142 TIP3 H1   HT     0.417000        1.0080           0
   47055 WT2  9142 TIP3 H2   HT     0.417000        1.0080           0
   47056 WT2  9144 TIP3 OH2  OT    -0.834000       15.9994           0
   47057 WT2  9144 TIP3 H1   HT     0.417000        1.0080           0
   47058 WT2  9144 TIP3 H2   HT     0.417000        1.0080           0
   47059 WT2  9145 TIP3 OH2  OT    -0.834000       15.9994           0
   47060 WT2  9145 TIP3 H1   HT     0.417000        1.0080           0
   47061 WT2  9145 TIP3 H2   HT     0.417000        1.0080           0
   47062 WT2  9146 TIP3 OH2  OT    -0.834000       15.9994           0
   47063 WT2  9146 TIP3 H1   HT     0.417000        1.0080           0
   47064 WT2  9146 TIP3 H2   HT     0.417000        1.0080           0
   47065 WT2  9147 TIP3 OH2  OT    -0.834000       15.9994           0
   47066 WT2  9147 TIP3 H1   HT     0.417000        1.0080           0
   47067 WT2  9147 TIP3 H2   HT     0.417000        1.0080           0
   47068 WT2  9148 TIP3 OH2  OT    -0.834000       15.9994           0
   47069 WT2  9148 TIP3 H1   HT     0.417000        1.0080           0
   47070 WT2  9148 TIP3 H2   HT     0.417000        1.0080           0
   47071 WT2  9150 TIP3 OH2  OT    -0.834000       15.9994           0
   47072 WT2  9150 TIP3 H1   HT     0.417000        1.0080           0
   47073 WT2  9150 TIP3 H2   HT     0.417000        1.0080           0
   47074 WT2  9157 TIP3 OH2  OT    -0.834000       15.9994           0
   47075 WT2  9157 TIP3 H1   HT     0.417000        1.0080           0
   47076 WT2  9157 TIP3 H2   HT     0.417000        1.0080           0
   47077 WT2  9158 TIP3 OH2  OT    -0.834000       15.9994           0
   47078 WT2  9158 TIP3 H1   HT     0.417000        1.0080           0
   47079 WT2  9158 TIP3 H2   HT     0.417000        1.0080           0
   47080 WT2  9159 TIP3 OH2  OT    -0.834000       15.9994           0
   47081 WT2  9159 TIP3 H1   HT     0.417000        1.0080           0
   47082 WT2  9159 TIP3 H2   HT     0.417000        1.0080           0
   47083 WT2  9160 TIP3 OH2  OT    -0.834000       15.9994           0
   47084 WT2  9160 TIP3 H1   HT     0.417000        1.0080           0
   47085 WT2  9160 TIP3 H2   HT     0.417000        1.0080           0
   47086 WT2  9161 TIP3 OH2  OT    -0.834000       15.9994           0
   47087 WT2  9161 TIP3 H1   HT     0.417000        1.0080           0
   47088 WT2  9161 TIP3 H2   HT     0.417000        1.0080           0
   47089 WT2  9162 TIP3 OH2  OT    -0.834000       15.9994           0
   47090 WT2  9162 TIP3 H1   HT     0.417000        1.0080           0
   47091 WT2  9162 TIP3 H2   HT     0.417000        1.0080           0
   47092 WT2  9163 TIP3 OH2  OT    -0.834000       15.9994           0
   47093 WT2  9163 TIP3 H1   HT     0.417000        1.0080           0
   47094 WT2  9163 TIP3 H2   HT     0.417000        1.0080           0
   47095 WT2  9164 TIP3 OH2  OT    -0.834000       15.9994           0
   47096 WT2  9164 TIP3 H1   HT     0.417000        1.0080           0
   47097 WT2  9164 TIP3 H2   HT     0.417000        1.0080           0
   47098 WT2  9165 TIP3 OH2  OT    -0.834000       15.9994           0
   47099 WT2  9165 TIP3 H1   HT     0.417000        1.0080           0
   47100 WT2  9165 TIP3 H2   HT     0.417000        1.0080           0
   47101 WT2  9166 TIP3 OH2  OT    -0.834000       15.9994           0
   47102 WT2  9166 TIP3 H1   HT     0.417000        1.0080           0
   47103 WT2  9166 TIP3 H2   HT     0.417000        1.0080           0
   47104 WT2  9167 TIP3 OH2  OT    -0.834000       15.9994           0
   47105 WT2  9167 TIP3 H1   HT     0.417000        1.0080           0
   47106 WT2  9167 TIP3 H2   HT     0.417000        1.0080           0
   47107 WT2  9168 TIP3 OH2  OT    -0.834000       15.9994           0
   47108 WT2  9168 TIP3 H1   HT     0.417000        1.0080           0
   47109 WT2  9168 TIP3 H2   HT     0.417000        1.0080           0
   47110 WT2  9170 TIP3 OH2  OT    -0.834000       15.9994           0
   47111 WT2  9170 TIP3 H1   HT     0.417000        1.0080           0
   47112 WT2  9170 TIP3 H2   HT     0.417000        1.0080           0
   47113 WT2  9177 TIP3 OH2  OT    -0.834000       15.9994           0
   47114 WT2  9177 TIP3 H1   HT     0.417000        1.0080           0
   47115 WT2  9177 TIP3 H2   HT     0.417000        1.0080           0
   47116 WT2  9180 TIP3 OH2  OT    -0.834000       15.9994           0
   47117 WT2  9180 TIP3 H1   HT     0.417000        1.0080           0
   47118 WT2  9180 TIP3 H2   HT     0.417000        1.0080           0
   47119 WT2  9181 TIP3 OH2  OT    -0.834000       15.9994           0
   47120 WT2  9181 TIP3 H1   HT     0.417000        1.0080           0
   47121 WT2  9181 TIP3 H2   HT     0.417000        1.0080           0
   47122 WT2  9182 TIP3 OH2  OT    -0.834000       15.9994           0
   47123 WT2  9182 TIP3 H1   HT     0.417000        1.0080           0
   47124 WT2  9182 TIP3 H2   HT     0.417000        1.0080           0
   47125 WT2  9183 TIP3 OH2  OT    -0.834000       15.9994           0
   47126 WT2  9183 TIP3 H1   HT     0.417000        1.0080           0
   47127 WT2  9183 TIP3 H2   HT     0.417000        1.0080           0
   47128 WT2  9184 TIP3 OH2  OT    -0.834000       15.9994           0
   47129 WT2  9184 TIP3 H1   HT     0.417000        1.0080           0
   47130 WT2  9184 TIP3 H2   HT     0.417000        1.0080           0
   47131 WT2  9185 TIP3 OH2  OT    -0.834000       15.9994           0
   47132 WT2  9185 TIP3 H1   HT     0.417000        1.0080           0
   47133 WT2  9185 TIP3 H2   HT     0.417000        1.0080           0
   47134 WT2  9186 TIP3 OH2  OT    -0.834000       15.9994           0
   47135 WT2  9186 TIP3 H1   HT     0.417000        1.0080           0
   47136 WT2  9186 TIP3 H2   HT     0.417000        1.0080           0
   47137 WT2  9187 TIP3 OH2  OT    -0.834000       15.9994           0
   47138 WT2  9187 TIP3 H1   HT     0.417000        1.0080           0
   47139 WT2  9187 TIP3 H2   HT     0.417000        1.0080           0
   47140 WT2  9188 TIP3 OH2  OT    -0.834000       15.9994           0
   47141 WT2  9188 TIP3 H1   HT     0.417000        1.0080           0
   47142 WT2  9188 TIP3 H2   HT     0.417000        1.0080           0
   47143 WT2  9189 TIP3 OH2  OT    -0.834000       15.9994           0
   47144 WT2  9189 TIP3 H1   HT     0.417000        1.0080           0
   47145 WT2  9189 TIP3 H2   HT     0.417000        1.0080           0
   47146 WT2  9190 TIP3 OH2  OT    -0.834000       15.9994           0
   47147 WT2  9190 TIP3 H1   HT     0.417000        1.0080           0
   47148 WT2  9190 TIP3 H2   HT     0.417000        1.0080           0
   47149 WT2  9191 TIP3 OH2  OT    -0.834000       15.9994           0
   47150 WT2  9191 TIP3 H1   HT     0.417000        1.0080           0
   47151 WT2  9191 TIP3 H2   HT     0.417000        1.0080           0
   47152 WT2  9196 TIP3 OH2  OT    -0.834000       15.9994           0
   47153 WT2  9196 TIP3 H1   HT     0.417000        1.0080           0
   47154 WT2  9196 TIP3 H2   HT     0.417000        1.0080           0
   47155 WT2  9198 TIP3 OH2  OT    -0.834000       15.9994           0
   47156 WT2  9198 TIP3 H1   HT     0.417000        1.0080           0
   47157 WT2  9198 TIP3 H2   HT     0.417000        1.0080           0
   47158 WT2  9200 TIP3 OH2  OT    -0.834000       15.9994           0
   47159 WT2  9200 TIP3 H1   HT     0.417000        1.0080           0
   47160 WT2  9200 TIP3 H2   HT     0.417000        1.0080           0
   47161 WT2  9201 TIP3 OH2  OT    -0.834000       15.9994           0
   47162 WT2  9201 TIP3 H1   HT     0.417000        1.0080           0
   47163 WT2  9201 TIP3 H2   HT     0.417000        1.0080           0
   47164 WT2  9202 TIP3 OH2  OT    -0.834000       15.9994           0
   47165 WT2  9202 TIP3 H1   HT     0.417000        1.0080           0
   47166 WT2  9202 TIP3 H2   HT     0.417000        1.0080           0
   47167 WT2  9203 TIP3 OH2  OT    -0.834000       15.9994           0
   47168 WT2  9203 TIP3 H1   HT     0.417000        1.0080           0
   47169 WT2  9203 TIP3 H2   HT     0.417000        1.0080           0
   47170 WT2  9204 TIP3 OH2  OT    -0.834000       15.9994           0
   47171 WT2  9204 TIP3 H1   HT     0.417000        1.0080           0
   47172 WT2  9204 TIP3 H2   HT     0.417000        1.0080           0
   47173 WT2  9205 TIP3 OH2  OT    -0.834000       15.9994           0
   47174 WT2  9205 TIP3 H1   HT     0.417000        1.0080           0
   47175 WT2  9205 TIP3 H2   HT     0.417000        1.0080           0
   47176 WT2  9206 TIP3 OH2  OT    -0.834000       15.9994           0
   47177 WT2  9206 TIP3 H1   HT     0.417000        1.0080           0
   47178 WT2  9206 TIP3 H2   HT     0.417000        1.0080           0
   47179 WT2  9207 TIP3 OH2  OT    -0.834000       15.9994           0
   47180 WT2  9207 TIP3 H1   HT     0.417000        1.0080           0
   47181 WT2  9207 TIP3 H2   HT     0.417000        1.0080           0
   47182 WT2  9208 TIP3 OH2  OT    -0.834000       15.9994           0
   47183 WT2  9208 TIP3 H1   HT     0.417000        1.0080           0
   47184 WT2  9208 TIP3 H2   HT     0.417000        1.0080           0
   47185 WT2  9209 TIP3 OH2  OT    -0.834000       15.9994           0
   47186 WT2  9209 TIP3 H1   HT     0.417000        1.0080           0
   47187 WT2  9209 TIP3 H2   HT     0.417000        1.0080           0
   47188 WT2  9211 TIP3 OH2  OT    -0.834000       15.9994           0
   47189 WT2  9211 TIP3 H1   HT     0.417000        1.0080           0
   47190 WT2  9211 TIP3 H2   HT     0.417000        1.0080           0
   47191 WT2  9212 TIP3 OH2  OT    -0.834000       15.9994           0
   47192 WT2  9212 TIP3 H1   HT     0.417000        1.0080           0
   47193 WT2  9212 TIP3 H2   HT     0.417000        1.0080           0
   47194 WT2  9213 TIP3 OH2  OT    -0.834000       15.9994           0
   47195 WT2  9213 TIP3 H1   HT     0.417000        1.0080           0
   47196 WT2  9213 TIP3 H2   HT     0.417000        1.0080           0
   47197 WT2  9214 TIP3 OH2  OT    -0.834000       15.9994           0
   47198 WT2  9214 TIP3 H1   HT     0.417000        1.0080           0
   47199 WT2  9214 TIP3 H2   HT     0.417000        1.0080           0
   47200 WT2  9217 TIP3 OH2  OT    -0.834000       15.9994           0
   47201 WT2  9217 TIP3 H1   HT     0.417000        1.0080           0
   47202 WT2  9217 TIP3 H2   HT     0.417000        1.0080           0
   47203 WT2  9219 TIP3 OH2  OT    -0.834000       15.9994           0
   47204 WT2  9219 TIP3 H1   HT     0.417000        1.0080           0
   47205 WT2  9219 TIP3 H2   HT     0.417000        1.0080           0
   47206 WT2  9222 TIP3 OH2  OT    -0.834000       15.9994           0
   47207 WT2  9222 TIP3 H1   HT     0.417000        1.0080           0
   47208 WT2  9222 TIP3 H2   HT     0.417000        1.0080           0
   47209 WT2  9223 TIP3 OH2  OT    -0.834000       15.9994           0
   47210 WT2  9223 TIP3 H1   HT     0.417000        1.0080           0
   47211 WT2  9223 TIP3 H2   HT     0.417000        1.0080           0
   47212 WT2  9224 TIP3 OH2  OT    -0.834000       15.9994           0
   47213 WT2  9224 TIP3 H1   HT     0.417000        1.0080           0
   47214 WT2  9224 TIP3 H2   HT     0.417000        1.0080           0
   47215 WT2  9225 TIP3 OH2  OT    -0.834000       15.9994           0
   47216 WT2  9225 TIP3 H1   HT     0.417000        1.0080           0
   47217 WT2  9225 TIP3 H2   HT     0.417000        1.0080           0
   47218 WT2  9226 TIP3 OH2  OT    -0.834000       15.9994           0
   47219 WT2  9226 TIP3 H1   HT     0.417000        1.0080           0
   47220 WT2  9226 TIP3 H2   HT     0.417000        1.0080           0
   47221 WT2  9227 TIP3 OH2  OT    -0.834000       15.9994           0
   47222 WT2  9227 TIP3 H1   HT     0.417000        1.0080           0
   47223 WT2  9227 TIP3 H2   HT     0.417000        1.0080           0
   47224 WT2  9228 TIP3 OH2  OT    -0.834000       15.9994           0
   47225 WT2  9228 TIP3 H1   HT     0.417000        1.0080           0
   47226 WT2  9228 TIP3 H2   HT     0.417000        1.0080           0
   47227 WT2  9229 TIP3 OH2  OT    -0.834000       15.9994           0
   47228 WT2  9229 TIP3 H1   HT     0.417000        1.0080           0
   47229 WT2  9229 TIP3 H2   HT     0.417000        1.0080           0
   47230 WT2  9230 TIP3 OH2  OT    -0.834000       15.9994           0
   47231 WT2  9230 TIP3 H1   HT     0.417000        1.0080           0
   47232 WT2  9230 TIP3 H2   HT     0.417000        1.0080           0
   47233 WT2  9231 TIP3 OH2  OT    -0.834000       15.9994           0
   47234 WT2  9231 TIP3 H1   HT     0.417000        1.0080           0
   47235 WT2  9231 TIP3 H2   HT     0.417000        1.0080           0
   47236 WT2  9232 TIP3 OH2  OT    -0.834000       15.9994           0
   47237 WT2  9232 TIP3 H1   HT     0.417000        1.0080           0
   47238 WT2  9232 TIP3 H2   HT     0.417000        1.0080           0
   47239 WT2  9234 TIP3 OH2  OT    -0.834000       15.9994           0
   47240 WT2  9234 TIP3 H1   HT     0.417000        1.0080           0
   47241 WT2  9234 TIP3 H2   HT     0.417000        1.0080           0
   47242 WT2  9236 TIP3 OH2  OT    -0.834000       15.9994           0
   47243 WT2  9236 TIP3 H1   HT     0.417000        1.0080           0
   47244 WT2  9236 TIP3 H2   HT     0.417000        1.0080           0
   47245 WT2  9241 TIP3 OH2  OT    -0.834000       15.9994           0
   47246 WT2  9241 TIP3 H1   HT     0.417000        1.0080           0
   47247 WT2  9241 TIP3 H2   HT     0.417000        1.0080           0
   47248 WT2  9242 TIP3 OH2  OT    -0.834000       15.9994           0
   47249 WT2  9242 TIP3 H1   HT     0.417000        1.0080           0
   47250 WT2  9242 TIP3 H2   HT     0.417000        1.0080           0
   47251 WT2  9243 TIP3 OH2  OT    -0.834000       15.9994           0
   47252 WT2  9243 TIP3 H1   HT     0.417000        1.0080           0
   47253 WT2  9243 TIP3 H2   HT     0.417000        1.0080           0
   47254 WT2  9244 TIP3 OH2  OT    -0.834000       15.9994           0
   47255 WT2  9244 TIP3 H1   HT     0.417000        1.0080           0
   47256 WT2  9244 TIP3 H2   HT     0.417000        1.0080           0
   47257 WT2  9245 TIP3 OH2  OT    -0.834000       15.9994           0
   47258 WT2  9245 TIP3 H1   HT     0.417000        1.0080           0
   47259 WT2  9245 TIP3 H2   HT     0.417000        1.0080           0
   47260 WT2  9246 TIP3 OH2  OT    -0.834000       15.9994           0
   47261 WT2  9246 TIP3 H1   HT     0.417000        1.0080           0
   47262 WT2  9246 TIP3 H2   HT     0.417000        1.0080           0
   47263 WT2  9247 TIP3 OH2  OT    -0.834000       15.9994           0
   47264 WT2  9247 TIP3 H1   HT     0.417000        1.0080           0
   47265 WT2  9247 TIP3 H2   HT     0.417000        1.0080           0
   47266 WT2  9248 TIP3 OH2  OT    -0.834000       15.9994           0
   47267 WT2  9248 TIP3 H1   HT     0.417000        1.0080           0
   47268 WT2  9248 TIP3 H2   HT     0.417000        1.0080           0
   47269 WT2  9249 TIP3 OH2  OT    -0.834000       15.9994           0
   47270 WT2  9249 TIP3 H1   HT     0.417000        1.0080           0
   47271 WT2  9249 TIP3 H2   HT     0.417000        1.0080           0
   47272 WT2  9250 TIP3 OH2  OT    -0.834000       15.9994           0
   47273 WT2  9250 TIP3 H1   HT     0.417000        1.0080           0
   47274 WT2  9250 TIP3 H2   HT     0.417000        1.0080           0
   47275 WT2  9251 TIP3 OH2  OT    -0.834000       15.9994           0
   47276 WT2  9251 TIP3 H1   HT     0.417000        1.0080           0
   47277 WT2  9251 TIP3 H2   HT     0.417000        1.0080           0
   47278 WT2  9252 TIP3 OH2  OT    -0.834000       15.9994           0
   47279 WT2  9252 TIP3 H1   HT     0.417000        1.0080           0
   47280 WT2  9252 TIP3 H2   HT     0.417000        1.0080           0
   47281 WT2  9254 TIP3 OH2  OT    -0.834000       15.9994           0
   47282 WT2  9254 TIP3 H1   HT     0.417000        1.0080           0
   47283 WT2  9254 TIP3 H2   HT     0.417000        1.0080           0
   47284 WT2  9255 TIP3 OH2  OT    -0.834000       15.9994           0
   47285 WT2  9255 TIP3 H1   HT     0.417000        1.0080           0
   47286 WT2  9255 TIP3 H2   HT     0.417000        1.0080           0
   47287 WT2  9259 TIP3 OH2  OT    -0.834000       15.9994           0
   47288 WT2  9259 TIP3 H1   HT     0.417000        1.0080           0
   47289 WT2  9259 TIP3 H2   HT     0.417000        1.0080           0
   47290 WT2  9261 TIP3 OH2  OT    -0.834000       15.9994           0
   47291 WT2  9261 TIP3 H1   HT     0.417000        1.0080           0
   47292 WT2  9261 TIP3 H2   HT     0.417000        1.0080           0
   47293 WT3  4    TIP3 OH2  OT    -0.834000       15.9994           0
   47294 WT3  4    TIP3 H1   HT     0.417000        1.0080           0
   47295 WT3  4    TIP3 H2   HT     0.417000        1.0080           0
   47296 WT3  5    TIP3 OH2  OT    -0.834000       15.9994           0
   47297 WT3  5    TIP3 H1   HT     0.417000        1.0080           0
   47298 WT3  5    TIP3 H2   HT     0.417000        1.0080           0
   47299 WT3  7    TIP3 OH2  OT    -0.834000       15.9994           0
   47300 WT3  7    TIP3 H1   HT     0.417000        1.0080           0
   47301 WT3  7    TIP3 H2   HT     0.417000        1.0080           0
   47302 WT3  8    TIP3 OH2  OT    -0.834000       15.9994           0
   47303 WT3  8    TIP3 H1   HT     0.417000        1.0080           0
   47304 WT3  8    TIP3 H2   HT     0.417000        1.0080           0
   47305 WT3  10   TIP3 OH2  OT    -0.834000       15.9994           0
   47306 WT3  10   TIP3 H1   HT     0.417000        1.0080           0
   47307 WT3  10   TIP3 H2   HT     0.417000        1.0080           0
   47308 WT3  11   TIP3 OH2  OT    -0.834000       15.9994           0
   47309 WT3  11   TIP3 H1   HT     0.417000        1.0080           0
   47310 WT3  11   TIP3 H2   HT     0.417000        1.0080           0
   47311 WT3  12   TIP3 OH2  OT    -0.834000       15.9994           0
   47312 WT3  12   TIP3 H1   HT     0.417000        1.0080           0
   47313 WT3  12   TIP3 H2   HT     0.417000        1.0080           0
   47314 WT3  13   TIP3 OH2  OT    -0.834000       15.9994           0
   47315 WT3  13   TIP3 H1   HT     0.417000        1.0080           0
   47316 WT3  13   TIP3 H2   HT     0.417000        1.0080           0
   47317 WT3  15   TIP3 OH2  OT    -0.834000       15.9994           0
   47318 WT3  15   TIP3 H1   HT     0.417000        1.0080           0
   47319 WT3  15   TIP3 H2   HT     0.417000        1.0080           0
   47320 WT3  16   TIP3 OH2  OT    -0.834000       15.9994           0
   47321 WT3  16   TIP3 H1   HT     0.417000        1.0080           0
   47322 WT3  16   TIP3 H2   HT     0.417000        1.0080           0
   47323 WT3  17   TIP3 OH2  OT    -0.834000       15.9994           0
   47324 WT3  17   TIP3 H1   HT     0.417000        1.0080           0
   47325 WT3  17   TIP3 H2   HT     0.417000        1.0080           0
   47326 WT3  18   TIP3 OH2  OT    -0.834000       15.9994           0
   47327 WT3  18   TIP3 H1   HT     0.417000        1.0080           0
   47328 WT3  18   TIP3 H2   HT     0.417000        1.0080           0
   47329 WT3  19   TIP3 OH2  OT    -0.834000       15.9994           0
   47330 WT3  19   TIP3 H1   HT     0.417000        1.0080           0
   47331 WT3  19   TIP3 H2   HT     0.417000        1.0080           0
   47332 WT3  21   TIP3 OH2  OT    -0.834000       15.9994           0
   47333 WT3  21   TIP3 H1   HT     0.417000        1.0080           0
   47334 WT3  21   TIP3 H2   HT     0.417000        1.0080           0
   47335 WT3  22   TIP3 OH2  OT    -0.834000       15.9994           0
   47336 WT3  22   TIP3 H1   HT     0.417000        1.0080           0
   47337 WT3  22   TIP3 H2   HT     0.417000        1.0080           0
   47338 WT3  23   TIP3 OH2  OT    -0.834000       15.9994           0
   47339 WT3  23   TIP3 H1   HT     0.417000        1.0080           0
   47340 WT3  23   TIP3 H2   HT     0.417000        1.0080           0
   47341 WT3  24   TIP3 OH2  OT    -0.834000       15.9994           0
   47342 WT3  24   TIP3 H1   HT     0.417000        1.0080           0
   47343 WT3  24   TIP3 H2   HT     0.417000        1.0080           0
   47344 WT3  25   TIP3 OH2  OT    -0.834000       15.9994           0
   47345 WT3  25   TIP3 H1   HT     0.417000        1.0080           0
   47346 WT3  25   TIP3 H2   HT     0.417000        1.0080           0
   47347 WT3  26   TIP3 OH2  OT    -0.834000       15.9994           0
   47348 WT3  26   TIP3 H1   HT     0.417000        1.0080           0
   47349 WT3  26   TIP3 H2   HT     0.417000        1.0080           0
   47350 WT3  27   TIP3 OH2  OT    -0.834000       15.9994           0
   47351 WT3  27   TIP3 H1   HT     0.417000        1.0080           0
   47352 WT3  27   TIP3 H2   HT     0.417000        1.0080           0
   47353 WT3  29   TIP3 OH2  OT    -0.834000       15.9994           0
   47354 WT3  29   TIP3 H1   HT     0.417000        1.0080           0
   47355 WT3  29   TIP3 H2   HT     0.417000        1.0080           0
   47356 WT3  30   TIP3 OH2  OT    -0.834000       15.9994           0
   47357 WT3  30   TIP3 H1   HT     0.417000        1.0080           0
   47358 WT3  30   TIP3 H2   HT     0.417000        1.0080           0
   47359 WT3  31   TIP3 OH2  OT    -0.834000       15.9994           0
   47360 WT3  31   TIP3 H1   HT     0.417000        1.0080           0
   47361 WT3  31   TIP3 H2   HT     0.417000        1.0080           0
   47362 WT3  32   TIP3 OH2  OT    -0.834000       15.9994           0
   47363 WT3  32   TIP3 H1   HT     0.417000        1.0080           0
   47364 WT3  32   TIP3 H2   HT     0.417000        1.0080           0
   47365 WT3  33   TIP3 OH2  OT    -0.834000       15.9994           0
   47366 WT3  33   TIP3 H1   HT     0.417000        1.0080           0
   47367 WT3  33   TIP3 H2   HT     0.417000        1.0080           0
   47368 WT3  35   TIP3 OH2  OT    -0.834000       15.9994           0
   47369 WT3  35   TIP3 H1   HT     0.417000        1.0080           0
   47370 WT3  35   TIP3 H2   HT     0.417000        1.0080           0
   47371 WT3  37   TIP3 OH2  OT    -0.834000       15.9994           0
   47372 WT3  37   TIP3 H1   HT     0.417000        1.0080           0
   47373 WT3  37   TIP3 H2   HT     0.417000        1.0080           0
   47374 WT3  39   TIP3 OH2  OT    -0.834000       15.9994           0
   47375 WT3  39   TIP3 H1   HT     0.417000        1.0080           0
   47376 WT3  39   TIP3 H2   HT     0.417000        1.0080           0
   47377 WT3  41   TIP3 OH2  OT    -0.834000       15.9994           0
   47378 WT3  41   TIP3 H1   HT     0.417000        1.0080           0
   47379 WT3  41   TIP3 H2   HT     0.417000        1.0080           0
   47380 WT3  42   TIP3 OH2  OT    -0.834000       15.9994           0
   47381 WT3  42   TIP3 H1   HT     0.417000        1.0080           0
   47382 WT3  42   TIP3 H2   HT     0.417000        1.0080           0
   47383 WT3  43   TIP3 OH2  OT    -0.834000       15.9994           0
   47384 WT3  43   TIP3 H1   HT     0.417000        1.0080           0
   47385 WT3  43   TIP3 H2   HT     0.417000        1.0080           0
   47386 WT3  44   TIP3 OH2  OT    -0.834000       15.9994           0
   47387 WT3  44   TIP3 H1   HT     0.417000        1.0080           0
   47388 WT3  44   TIP3 H2   HT     0.417000        1.0080           0
   47389 WT3  45   TIP3 OH2  OT    -0.834000       15.9994           0
   47390 WT3  45   TIP3 H1   HT     0.417000        1.0080           0
   47391 WT3  45   TIP3 H2   HT     0.417000        1.0080           0
   47392 WT3  46   TIP3 OH2  OT    -0.834000       15.9994           0
   47393 WT3  46   TIP3 H1   HT     0.417000        1.0080           0
   47394 WT3  46   TIP3 H2   HT     0.417000        1.0080           0
   47395 WT3  47   TIP3 OH2  OT    -0.834000       15.9994           0
   47396 WT3  47   TIP3 H1   HT     0.417000        1.0080           0
   47397 WT3  47   TIP3 H2   HT     0.417000        1.0080           0
   47398 WT3  48   TIP3 OH2  OT    -0.834000       15.9994           0
   47399 WT3  48   TIP3 H1   HT     0.417000        1.0080           0
   47400 WT3  48   TIP3 H2   HT     0.417000        1.0080           0
   47401 WT3  50   TIP3 OH2  OT    -0.834000       15.9994           0
   47402 WT3  50   TIP3 H1   HT     0.417000        1.0080           0
   47403 WT3  50   TIP3 H2   HT     0.417000        1.0080           0
   47404 WT3  52   TIP3 OH2  OT    -0.834000       15.9994           0
   47405 WT3  52   TIP3 H1   HT     0.417000        1.0080           0
   47406 WT3  52   TIP3 H2   HT     0.417000        1.0080           0
   47407 WT3  53   TIP3 OH2  OT    -0.834000       15.9994           0
   47408 WT3  53   TIP3 H1   HT     0.417000        1.0080           0
   47409 WT3  53   TIP3 H2   HT     0.417000        1.0080           0
   47410 WT3  55   TIP3 OH2  OT    -0.834000       15.9994           0
   47411 WT3  55   TIP3 H1   HT     0.417000        1.0080           0
   47412 WT3  55   TIP3 H2   HT     0.417000        1.0080           0
   47413 WT3  56   TIP3 OH2  OT    -0.834000       15.9994           0
   47414 WT3  56   TIP3 H1   HT     0.417000        1.0080           0
   47415 WT3  56   TIP3 H2   HT     0.417000        1.0080           0
   47416 WT3  57   TIP3 OH2  OT    -0.834000       15.9994           0
   47417 WT3  57   TIP3 H1   HT     0.417000        1.0080           0
   47418 WT3  57   TIP3 H2   HT     0.417000        1.0080           0
   47419 WT3  58   TIP3 OH2  OT    -0.834000       15.9994           0
   47420 WT3  58   TIP3 H1   HT     0.417000        1.0080           0
   47421 WT3  58   TIP3 H2   HT     0.417000        1.0080           0
   47422 WT3  59   TIP3 OH2  OT    -0.834000       15.9994           0
   47423 WT3  59   TIP3 H1   HT     0.417000        1.0080           0
   47424 WT3  59   TIP3 H2   HT     0.417000        1.0080           0
   47425 WT3  60   TIP3 OH2  OT    -0.834000       15.9994           0
   47426 WT3  60   TIP3 H1   HT     0.417000        1.0080           0
   47427 WT3  60   TIP3 H2   HT     0.417000        1.0080           0
   47428 WT3  61   TIP3 OH2  OT    -0.834000       15.9994           0
   47429 WT3  61   TIP3 H1   HT     0.417000        1.0080           0
   47430 WT3  61   TIP3 H2   HT     0.417000        1.0080           0
   47431 WT3  62   TIP3 OH2  OT    -0.834000       15.9994           0
   47432 WT3  62   TIP3 H1   HT     0.417000        1.0080           0
   47433 WT3  62   TIP3 H2   HT     0.417000        1.0080           0
   47434 WT3  64   TIP3 OH2  OT    -0.834000       15.9994           0
   47435 WT3  64   TIP3 H1   HT     0.417000        1.0080           0
   47436 WT3  64   TIP3 H2   HT     0.417000        1.0080           0
   47437 WT3  66   TIP3 OH2  OT    -0.834000       15.9994           0
   47438 WT3  66   TIP3 H1   HT     0.417000        1.0080           0
   47439 WT3  66   TIP3 H2   HT     0.417000        1.0080           0
   47440 WT3  67   TIP3 OH2  OT    -0.834000       15.9994           0
   47441 WT3  67   TIP3 H1   HT     0.417000        1.0080           0
   47442 WT3  67   TIP3 H2   HT     0.417000        1.0080           0
   47443 WT3  68   TIP3 OH2  OT    -0.834000       15.9994           0
   47444 WT3  68   TIP3 H1   HT     0.417000        1.0080           0
   47445 WT3  68   TIP3 H2   HT     0.417000        1.0080           0
   47446 WT3  69   TIP3 OH2  OT    -0.834000       15.9994           0
   47447 WT3  69   TIP3 H1   HT     0.417000        1.0080           0
   47448 WT3  69   TIP3 H2   HT     0.417000        1.0080           0
   47449 WT3  70   TIP3 OH2  OT    -0.834000       15.9994           0
   47450 WT3  70   TIP3 H1   HT     0.417000        1.0080           0
   47451 WT3  70   TIP3 H2   HT     0.417000        1.0080           0
   47452 WT3  71   TIP3 OH2  OT    -0.834000       15.9994           0
   47453 WT3  71   TIP3 H1   HT     0.417000        1.0080           0
   47454 WT3  71   TIP3 H2   HT     0.417000        1.0080           0
   47455 WT3  72   TIP3 OH2  OT    -0.834000       15.9994           0
   47456 WT3  72   TIP3 H1   HT     0.417000        1.0080           0
   47457 WT3  72   TIP3 H2   HT     0.417000        1.0080           0
   47458 WT3  74   TIP3 OH2  OT    -0.834000       15.9994           0
   47459 WT3  74   TIP3 H1   HT     0.417000        1.0080           0
   47460 WT3  74   TIP3 H2   HT     0.417000        1.0080           0
   47461 WT3  75   TIP3 OH2  OT    -0.834000       15.9994           0
   47462 WT3  75   TIP3 H1   HT     0.417000        1.0080           0
   47463 WT3  75   TIP3 H2   HT     0.417000        1.0080           0
   47464 WT3  76   TIP3 OH2  OT    -0.834000       15.9994           0
   47465 WT3  76   TIP3 H1   HT     0.417000        1.0080           0
   47466 WT3  76   TIP3 H2   HT     0.417000        1.0080           0
   47467 WT3  79   TIP3 OH2  OT    -0.834000       15.9994           0
   47468 WT3  79   TIP3 H1   HT     0.417000        1.0080           0
   47469 WT3  79   TIP3 H2   HT     0.417000        1.0080           0
   47470 WT3  80   TIP3 OH2  OT    -0.834000       15.9994           0
   47471 WT3  80   TIP3 H1   HT     0.417000        1.0080           0
   47472 WT3  80   TIP3 H2   HT     0.417000        1.0080           0
   47473 WT3  81   TIP3 OH2  OT    -0.834000       15.9994           0
   47474 WT3  81   TIP3 H1   HT     0.417000        1.0080           0
   47475 WT3  81   TIP3 H2   HT     0.417000        1.0080           0
   47476 WT3  83   TIP3 OH2  OT    -0.834000       15.9994           0
   47477 WT3  83   TIP3 H1   HT     0.417000        1.0080           0
   47478 WT3  83   TIP3 H2   HT     0.417000        1.0080           0
   47479 WT3  84   TIP3 OH2  OT    -0.834000       15.9994           0
   47480 WT3  84   TIP3 H1   HT     0.417000        1.0080           0
   47481 WT3  84   TIP3 H2   HT     0.417000        1.0080           0
   47482 WT3  86   TIP3 OH2  OT    -0.834000       15.9994           0
   47483 WT3  86   TIP3 H1   HT     0.417000        1.0080           0
   47484 WT3  86   TIP3 H2   HT     0.417000        1.0080           0
   47485 WT3  87   TIP3 OH2  OT    -0.834000       15.9994           0
   47486 WT3  87   TIP3 H1   HT     0.417000        1.0080           0
   47487 WT3  87   TIP3 H2   HT     0.417000        1.0080           0
   47488 WT3  88   TIP3 OH2  OT    -0.834000       15.9994           0
   47489 WT3  88   TIP3 H1   HT     0.417000        1.0080           0
   47490 WT3  88   TIP3 H2   HT     0.417000        1.0080           0
   47491 WT3  90   TIP3 OH2  OT    -0.834000       15.9994           0
   47492 WT3  90   TIP3 H1   HT     0.417000        1.0080           0
   47493 WT3  90   TIP3 H2   HT     0.417000        1.0080           0
   47494 WT3  91   TIP3 OH2  OT    -0.834000       15.9994           0
   47495 WT3  91   TIP3 H1   HT     0.417000        1.0080           0
   47496 WT3  91   TIP3 H2   HT     0.417000        1.0080           0
   47497 WT3  92   TIP3 OH2  OT    -0.834000       15.9994           0
   47498 WT3  92   TIP3 H1   HT     0.417000        1.0080           0
   47499 WT3  92   TIP3 H2   HT     0.417000        1.0080           0
   47500 WT3  93   TIP3 OH2  OT    -0.834000       15.9994           0
   47501 WT3  93   TIP3 H1   HT     0.417000        1.0080           0
   47502 WT3  93   TIP3 H2   HT     0.417000        1.0080           0
   47503 WT3  94   TIP3 OH2  OT    -0.834000       15.9994           0
   47504 WT3  94   TIP3 H1   HT     0.417000        1.0080           0
   47505 WT3  94   TIP3 H2   HT     0.417000        1.0080           0
   47506 WT3  95   TIP3 OH2  OT    -0.834000       15.9994           0
   47507 WT3  95   TIP3 H1   HT     0.417000        1.0080           0
   47508 WT3  95   TIP3 H2   HT     0.417000        1.0080           0
   47509 WT3  97   TIP3 OH2  OT    -0.834000       15.9994           0
   47510 WT3  97   TIP3 H1   HT     0.417000        1.0080           0
   47511 WT3  97   TIP3 H2   HT     0.417000        1.0080           0
   47512 WT3  98   TIP3 OH2  OT    -0.834000       15.9994           0
   47513 WT3  98   TIP3 H1   HT     0.417000        1.0080           0
   47514 WT3  98   TIP3 H2   HT     0.417000        1.0080           0
   47515 WT3  99   TIP3 OH2  OT    -0.834000       15.9994           0
   47516 WT3  99   TIP3 H1   HT     0.417000        1.0080           0
   47517 WT3  99   TIP3 H2   HT     0.417000        1.0080           0
   47518 WT3  100  TIP3 OH2  OT    -0.834000       15.9994           0
   47519 WT3  100  TIP3 H1   HT     0.417000        1.0080           0
   47520 WT3  100  TIP3 H2   HT     0.417000        1.0080           0
   47521 WT3  101  TIP3 OH2  OT    -0.834000       15.9994           0
   47522 WT3  101  TIP3 H1   HT     0.417000        1.0080           0
   47523 WT3  101  TIP3 H2   HT     0.417000        1.0080           0
   47524 WT3  105  TIP3 OH2  OT    -0.834000       15.9994           0
   47525 WT3  105  TIP3 H1   HT     0.417000        1.0080           0
   47526 WT3  105  TIP3 H2   HT     0.417000        1.0080           0
   47527 WT3  108  TIP3 OH2  OT    -0.834000       15.9994           0
   47528 WT3  108  TIP3 H1   HT     0.417000        1.0080           0
   47529 WT3  108  TIP3 H2   HT     0.417000        1.0080           0
   47530 WT3  109  TIP3 OH2  OT    -0.834000       15.9994           0
   47531 WT3  109  TIP3 H1   HT     0.417000        1.0080           0
   47532 WT3  109  TIP3 H2   HT     0.417000        1.0080           0
   47533 WT3  110  TIP3 OH2  OT    -0.834000       15.9994           0
   47534 WT3  110  TIP3 H1   HT     0.417000        1.0080           0
   47535 WT3  110  TIP3 H2   HT     0.417000        1.0080           0
   47536 WT3  111  TIP3 OH2  OT    -0.834000       15.9994           0
   47537 WT3  111  TIP3 H1   HT     0.417000        1.0080           0
   47538 WT3  111  TIP3 H2   HT     0.417000        1.0080           0
   47539 WT3  112  TIP3 OH2  OT    -0.834000       15.9994           0
   47540 WT3  112  TIP3 H1   HT     0.417000        1.0080           0
   47541 WT3  112  TIP3 H2   HT     0.417000        1.0080           0
   47542 WT3  113  TIP3 OH2  OT    -0.834000       15.9994           0
   47543 WT3  113  TIP3 H1   HT     0.417000        1.0080           0
   47544 WT3  113  TIP3 H2   HT     0.417000        1.0080           0
   47545 WT3  114  TIP3 OH2  OT    -0.834000       15.9994           0
   47546 WT3  114  TIP3 H1   HT     0.417000        1.0080           0
   47547 WT3  114  TIP3 H2   HT     0.417000        1.0080           0
   47548 WT3  115  TIP3 OH2  OT    -0.834000       15.9994           0
   47549 WT3  115  TIP3 H1   HT     0.417000        1.0080           0
   47550 WT3  115  TIP3 H2   HT     0.417000        1.0080           0
   47551 WT3  116  TIP3 OH2  OT    -0.834000       15.9994           0
   47552 WT3  116  TIP3 H1   HT     0.417000        1.0080           0
   47553 WT3  116  TIP3 H2   HT     0.417000        1.0080           0
   47554 WT3  117  TIP3 OH2  OT    -0.834000       15.9994           0
   47555 WT3  117  TIP3 H1   HT     0.417000        1.0080           0
   47556 WT3  117  TIP3 H2   HT     0.417000        1.0080           0
   47557 WT3  118  TIP3 OH2  OT    -0.834000       15.9994           0
   47558 WT3  118  TIP3 H1   HT     0.417000        1.0080           0
   47559 WT3  118  TIP3 H2   HT     0.417000        1.0080           0
   47560 WT3  119  TIP3 OH2  OT    -0.834000       15.9994           0
   47561 WT3  119  TIP3 H1   HT     0.417000        1.0080           0
   47562 WT3  119  TIP3 H2   HT     0.417000        1.0080           0
   47563 WT3  120  TIP3 OH2  OT    -0.834000       15.9994           0
   47564 WT3  120  TIP3 H1   HT     0.417000        1.0080           0
   47565 WT3  120  TIP3 H2   HT     0.417000        1.0080           0
   47566 WT3  122  TIP3 OH2  OT    -0.834000       15.9994           0
   47567 WT3  122  TIP3 H1   HT     0.417000        1.0080           0
   47568 WT3  122  TIP3 H2   HT     0.417000        1.0080           0
   47569 WT3  123  TIP3 OH2  OT    -0.834000       15.9994           0
   47570 WT3  123  TIP3 H1   HT     0.417000        1.0080           0
   47571 WT3  123  TIP3 H2   HT     0.417000        1.0080           0
   47572 WT3  124  TIP3 OH2  OT    -0.834000       15.9994           0
   47573 WT3  124  TIP3 H1   HT     0.417000        1.0080           0
   47574 WT3  124  TIP3 H2   HT     0.417000        1.0080           0
   47575 WT3  125  TIP3 OH2  OT    -0.834000       15.9994           0
   47576 WT3  125  TIP3 H1   HT     0.417000        1.0080           0
   47577 WT3  125  TIP3 H2   HT     0.417000        1.0080           0
   47578 WT3  127  TIP3 OH2  OT    -0.834000       15.9994           0
   47579 WT3  127  TIP3 H1   HT     0.417000        1.0080           0
   47580 WT3  127  TIP3 H2   HT     0.417000        1.0080           0
   47581 WT3  128  TIP3 OH2  OT    -0.834000       15.9994           0
   47582 WT3  128  TIP3 H1   HT     0.417000        1.0080           0
   47583 WT3  128  TIP3 H2   HT     0.417000        1.0080           0
   47584 WT3  129  TIP3 OH2  OT    -0.834000       15.9994           0
   47585 WT3  129  TIP3 H1   HT     0.417000        1.0080           0
   47586 WT3  129  TIP3 H2   HT     0.417000        1.0080           0
   47587 WT3  130  TIP3 OH2  OT    -0.834000       15.9994           0
   47588 WT3  130  TIP3 H1   HT     0.417000        1.0080           0
   47589 WT3  130  TIP3 H2   HT     0.417000        1.0080           0
   47590 WT3  131  TIP3 OH2  OT    -0.834000       15.9994           0
   47591 WT3  131  TIP3 H1   HT     0.417000        1.0080           0
   47592 WT3  131  TIP3 H2   HT     0.417000        1.0080           0
   47593 WT3  132  TIP3 OH2  OT    -0.834000       15.9994           0
   47594 WT3  132  TIP3 H1   HT     0.417000        1.0080           0
   47595 WT3  132  TIP3 H2   HT     0.417000        1.0080           0
   47596 WT3  133  TIP3 OH2  OT    -0.834000       15.9994           0
   47597 WT3  133  TIP3 H1   HT     0.417000        1.0080           0
   47598 WT3  133  TIP3 H2   HT     0.417000        1.0080           0
   47599 WT3  134  TIP3 OH2  OT    -0.834000       15.9994           0
   47600 WT3  134  TIP3 H1   HT     0.417000        1.0080           0
   47601 WT3  134  TIP3 H2   HT     0.417000        1.0080           0
   47602 WT3  135  TIP3 OH2  OT    -0.834000       15.9994           0
   47603 WT3  135  TIP3 H1   HT     0.417000        1.0080           0
   47604 WT3  135  TIP3 H2   HT     0.417000        1.0080           0
   47605 WT3  136  TIP3 OH2  OT    -0.834000       15.9994           0
   47606 WT3  136  TIP3 H1   HT     0.417000        1.0080           0
   47607 WT3  136  TIP3 H2   HT     0.417000        1.0080           0
   47608 WT3  137  TIP3 OH2  OT    -0.834000       15.9994           0
   47609 WT3  137  TIP3 H1   HT     0.417000        1.0080           0
   47610 WT3  137  TIP3 H2   HT     0.417000        1.0080           0
   47611 WT3  138  TIP3 OH2  OT    -0.834000       15.9994           0
   47612 WT3  138  TIP3 H1   HT     0.417000        1.0080           0
   47613 WT3  138  TIP3 H2   HT     0.417000        1.0080           0
   47614 WT3  139  TIP3 OH2  OT    -0.834000       15.9994           0
   47615 WT3  139  TIP3 H1   HT     0.417000        1.0080           0
   47616 WT3  139  TIP3 H2   HT     0.417000        1.0080           0
   47617 WT3  140  TIP3 OH2  OT    -0.834000       15.9994           0
   47618 WT3  140  TIP3 H1   HT     0.417000        1.0080           0
   47619 WT3  140  TIP3 H2   HT     0.417000        1.0080           0
   47620 WT3  141  TIP3 OH2  OT    -0.834000       15.9994           0
   47621 WT3  141  TIP3 H1   HT     0.417000        1.0080           0
   47622 WT3  141  TIP3 H2   HT     0.417000        1.0080           0
   47623 WT3  142  TIP3 OH2  OT    -0.834000       15.9994           0
   47624 WT3  142  TIP3 H1   HT     0.417000        1.0080           0
   47625 WT3  142  TIP3 H2   HT     0.417000        1.0080           0
   47626 WT3  143  TIP3 OH2  OT    -0.834000       15.9994           0
   47627 WT3  143  TIP3 H1   HT     0.417000        1.0080           0
   47628 WT3  143  TIP3 H2   HT     0.417000        1.0080           0
   47629 WT3  144  TIP3 OH2  OT    -0.834000       15.9994           0
   47630 WT3  144  TIP3 H1   HT     0.417000        1.0080           0
   47631 WT3  144  TIP3 H2   HT     0.417000        1.0080           0
   47632 WT3  145  TIP3 OH2  OT    -0.834000       15.9994           0
   47633 WT3  145  TIP3 H1   HT     0.417000        1.0080           0
   47634 WT3  145  TIP3 H2   HT     0.417000        1.0080           0
   47635 WT3  146  TIP3 OH2  OT    -0.834000       15.9994           0
   47636 WT3  146  TIP3 H1   HT     0.417000        1.0080           0
   47637 WT3  146  TIP3 H2   HT     0.417000        1.0080           0
   47638 WT3  147  TIP3 OH2  OT    -0.834000       15.9994           0
   47639 WT3  147  TIP3 H1   HT     0.417000        1.0080           0
   47640 WT3  147  TIP3 H2   HT     0.417000        1.0080           0
   47641 WT3  149  TIP3 OH2  OT    -0.834000       15.9994           0
   47642 WT3  149  TIP3 H1   HT     0.417000        1.0080           0
   47643 WT3  149  TIP3 H2   HT     0.417000        1.0080           0
   47644 WT3  150  TIP3 OH2  OT    -0.834000       15.9994           0
   47645 WT3  150  TIP3 H1   HT     0.417000        1.0080           0
   47646 WT3  150  TIP3 H2   HT     0.417000        1.0080           0
   47647 WT3  151  TIP3 OH2  OT    -0.834000       15.9994           0
   47648 WT3  151  TIP3 H1   HT     0.417000        1.0080           0
   47649 WT3  151  TIP3 H2   HT     0.417000        1.0080           0
   47650 WT3  152  TIP3 OH2  OT    -0.834000       15.9994           0
   47651 WT3  152  TIP3 H1   HT     0.417000        1.0080           0
   47652 WT3  152  TIP3 H2   HT     0.417000        1.0080           0
   47653 WT3  153  TIP3 OH2  OT    -0.834000       15.9994           0
   47654 WT3  153  TIP3 H1   HT     0.417000        1.0080           0
   47655 WT3  153  TIP3 H2   HT     0.417000        1.0080           0
   47656 WT3  154  TIP3 OH2  OT    -0.834000       15.9994           0
   47657 WT3  154  TIP3 H1   HT     0.417000        1.0080           0
   47658 WT3  154  TIP3 H2   HT     0.417000        1.0080           0
   47659 WT3  155  TIP3 OH2  OT    -0.834000       15.9994           0
   47660 WT3  155  TIP3 H1   HT     0.417000        1.0080           0
   47661 WT3  155  TIP3 H2   HT     0.417000        1.0080           0
   47662 WT3  156  TIP3 OH2  OT    -0.834000       15.9994           0
   47663 WT3  156  TIP3 H1   HT     0.417000        1.0080           0
   47664 WT3  156  TIP3 H2   HT     0.417000        1.0080           0
   47665 WT3  157  TIP3 OH2  OT    -0.834000       15.9994           0
   47666 WT3  157  TIP3 H1   HT     0.417000        1.0080           0
   47667 WT3  157  TIP3 H2   HT     0.417000        1.0080           0
   47668 WT3  158  TIP3 OH2  OT    -0.834000       15.9994           0
   47669 WT3  158  TIP3 H1   HT     0.417000        1.0080           0
   47670 WT3  158  TIP3 H2   HT     0.417000        1.0080           0
   47671 WT3  159  TIP3 OH2  OT    -0.834000       15.9994           0
   47672 WT3  159  TIP3 H1   HT     0.417000        1.0080           0
   47673 WT3  159  TIP3 H2   HT     0.417000        1.0080           0
   47674 WT3  160  TIP3 OH2  OT    -0.834000       15.9994           0
   47675 WT3  160  TIP3 H1   HT     0.417000        1.0080           0
   47676 WT3  160  TIP3 H2   HT     0.417000        1.0080           0
   47677 WT3  161  TIP3 OH2  OT    -0.834000       15.9994           0
   47678 WT3  161  TIP3 H1   HT     0.417000        1.0080           0
   47679 WT3  161  TIP3 H2   HT     0.417000        1.0080           0
   47680 WT3  162  TIP3 OH2  OT    -0.834000       15.9994           0
   47681 WT3  162  TIP3 H1   HT     0.417000        1.0080           0
   47682 WT3  162  TIP3 H2   HT     0.417000        1.0080           0
   47683 WT3  163  TIP3 OH2  OT    -0.834000       15.9994           0
   47684 WT3  163  TIP3 H1   HT     0.417000        1.0080           0
   47685 WT3  163  TIP3 H2   HT     0.417000        1.0080           0
   47686 WT3  164  TIP3 OH2  OT    -0.834000       15.9994           0
   47687 WT3  164  TIP3 H1   HT     0.417000        1.0080           0
   47688 WT3  164  TIP3 H2   HT     0.417000        1.0080           0
   47689 WT3  167  TIP3 OH2  OT    -0.834000       15.9994           0
   47690 WT3  167  TIP3 H1   HT     0.417000        1.0080           0
   47691 WT3  167  TIP3 H2   HT     0.417000        1.0080           0
   47692 WT3  168  TIP3 OH2  OT    -0.834000       15.9994           0
   47693 WT3  168  TIP3 H1   HT     0.417000        1.0080           0
   47694 WT3  168  TIP3 H2   HT     0.417000        1.0080           0
   47695 WT3  169  TIP3 OH2  OT    -0.834000       15.9994           0
   47696 WT3  169  TIP3 H1   HT     0.417000        1.0080           0
   47697 WT3  169  TIP3 H2   HT     0.417000        1.0080           0
   47698 WT3  170  TIP3 OH2  OT    -0.834000       15.9994           0
   47699 WT3  170  TIP3 H1   HT     0.417000        1.0080           0
   47700 WT3  170  TIP3 H2   HT     0.417000        1.0080           0
   47701 WT3  171  TIP3 OH2  OT    -0.834000       15.9994           0
   47702 WT3  171  TIP3 H1   HT     0.417000        1.0080           0
   47703 WT3  171  TIP3 H2   HT     0.417000        1.0080           0
   47704 WT3  172  TIP3 OH2  OT    -0.834000       15.9994           0
   47705 WT3  172  TIP3 H1   HT     0.417000        1.0080           0
   47706 WT3  172  TIP3 H2   HT     0.417000        1.0080           0
   47707 WT3  173  TIP3 OH2  OT    -0.834000       15.9994           0
   47708 WT3  173  TIP3 H1   HT     0.417000        1.0080           0
   47709 WT3  173  TIP3 H2   HT     0.417000        1.0080           0
   47710 WT3  174  TIP3 OH2  OT    -0.834000       15.9994           0
   47711 WT3  174  TIP3 H1   HT     0.417000        1.0080           0
   47712 WT3  174  TIP3 H2   HT     0.417000        1.0080           0
   47713 WT3  176  TIP3 OH2  OT    -0.834000       15.9994           0
   47714 WT3  176  TIP3 H1   HT     0.417000        1.0080           0
   47715 WT3  176  TIP3 H2   HT     0.417000        1.0080           0
   47716 WT3  177  TIP3 OH2  OT    -0.834000       15.9994           0
   47717 WT3  177  TIP3 H1   HT     0.417000        1.0080           0
   47718 WT3  177  TIP3 H2   HT     0.417000        1.0080           0
   47719 WT3  178  TIP3 OH2  OT    -0.834000       15.9994           0
   47720 WT3  178  TIP3 H1   HT     0.417000        1.0080           0
   47721 WT3  178  TIP3 H2   HT     0.417000        1.0080           0
   47722 WT3  179  TIP3 OH2  OT    -0.834000       15.9994           0
   47723 WT3  179  TIP3 H1   HT     0.417000        1.0080           0
   47724 WT3  179  TIP3 H2   HT     0.417000        1.0080           0
   47725 WT3  180  TIP3 OH2  OT    -0.834000       15.9994           0
   47726 WT3  180  TIP3 H1   HT     0.417000        1.0080           0
   47727 WT3  180  TIP3 H2   HT     0.417000        1.0080           0
   47728 WT3  181  TIP3 OH2  OT    -0.834000       15.9994           0
   47729 WT3  181  TIP3 H1   HT     0.417000        1.0080           0
   47730 WT3  181  TIP3 H2   HT     0.417000        1.0080           0
   47731 WT3  182  TIP3 OH2  OT    -0.834000       15.9994           0
   47732 WT3  182  TIP3 H1   HT     0.417000        1.0080           0
   47733 WT3  182  TIP3 H2   HT     0.417000        1.0080           0
   47734 WT3  183  TIP3 OH2  OT    -0.834000       15.9994           0
   47735 WT3  183  TIP3 H1   HT     0.417000        1.0080           0
   47736 WT3  183  TIP3 H2   HT     0.417000        1.0080           0
   47737 WT3  184  TIP3 OH2  OT    -0.834000       15.9994           0
   47738 WT3  184  TIP3 H1   HT     0.417000        1.0080           0
   47739 WT3  184  TIP3 H2   HT     0.417000        1.0080           0
   47740 WT3  185  TIP3 OH2  OT    -0.834000       15.9994           0
   47741 WT3  185  TIP3 H1   HT     0.417000        1.0080           0
   47742 WT3  185  TIP3 H2   HT     0.417000        1.0080           0
   47743 WT3  187  TIP3 OH2  OT    -0.834000       15.9994           0
   47744 WT3  187  TIP3 H1   HT     0.417000        1.0080           0
   47745 WT3  187  TIP3 H2   HT     0.417000        1.0080           0
   47746 WT3  190  TIP3 OH2  OT    -0.834000       15.9994           0
   47747 WT3  190  TIP3 H1   HT     0.417000        1.0080           0
   47748 WT3  190  TIP3 H2   HT     0.417000        1.0080           0
   47749 WT3  191  TIP3 OH2  OT    -0.834000       15.9994           0
   47750 WT3  191  TIP3 H1   HT     0.417000        1.0080           0
   47751 WT3  191  TIP3 H2   HT     0.417000        1.0080           0
   47752 WT3  192  TIP3 OH2  OT    -0.834000       15.9994           0
   47753 WT3  192  TIP3 H1   HT     0.417000        1.0080           0
   47754 WT3  192  TIP3 H2   HT     0.417000        1.0080           0
   47755 WT3  193  TIP3 OH2  OT    -0.834000       15.9994           0
   47756 WT3  193  TIP3 H1   HT     0.417000        1.0080           0
   47757 WT3  193  TIP3 H2   HT     0.417000        1.0080           0
   47758 WT3  195  TIP3 OH2  OT    -0.834000       15.9994           0
   47759 WT3  195  TIP3 H1   HT     0.417000        1.0080           0
   47760 WT3  195  TIP3 H2   HT     0.417000        1.0080           0
   47761 WT3  196  TIP3 OH2  OT    -0.834000       15.9994           0
   47762 WT3  196  TIP3 H1   HT     0.417000        1.0080           0
   47763 WT3  196  TIP3 H2   HT     0.417000        1.0080           0
   47764 WT3  197  TIP3 OH2  OT    -0.834000       15.9994           0
   47765 WT3  197  TIP3 H1   HT     0.417000        1.0080           0
   47766 WT3  197  TIP3 H2   HT     0.417000        1.0080           0
   47767 WT3  198  TIP3 OH2  OT    -0.834000       15.9994           0
   47768 WT3  198  TIP3 H1   HT     0.417000        1.0080           0
   47769 WT3  198  TIP3 H2   HT     0.417000        1.0080           0
   47770 WT3  199  TIP3 OH2  OT    -0.834000       15.9994           0
   47771 WT3  199  TIP3 H1   HT     0.417000        1.0080           0
   47772 WT3  199  TIP3 H2   HT     0.417000        1.0080           0
   47773 WT3  200  TIP3 OH2  OT    -0.834000       15.9994           0
   47774 WT3  200  TIP3 H1   HT     0.417000        1.0080           0
   47775 WT3  200  TIP3 H2   HT     0.417000        1.0080           0
   47776 WT3  201  TIP3 OH2  OT    -0.834000       15.9994           0
   47777 WT3  201  TIP3 H1   HT     0.417000        1.0080           0
   47778 WT3  201  TIP3 H2   HT     0.417000        1.0080           0
   47779 WT3  202  TIP3 OH2  OT    -0.834000       15.9994           0
   47780 WT3  202  TIP3 H1   HT     0.417000        1.0080           0
   47781 WT3  202  TIP3 H2   HT     0.417000        1.0080           0
   47782 WT3  203  TIP3 OH2  OT    -0.834000       15.9994           0
   47783 WT3  203  TIP3 H1   HT     0.417000        1.0080           0
   47784 WT3  203  TIP3 H2   HT     0.417000        1.0080           0
   47785 WT3  204  TIP3 OH2  OT    -0.834000       15.9994           0
   47786 WT3  204  TIP3 H1   HT     0.417000        1.0080           0
   47787 WT3  204  TIP3 H2   HT     0.417000        1.0080           0
   47788 WT3  205  TIP3 OH2  OT    -0.834000       15.9994           0
   47789 WT3  205  TIP3 H1   HT     0.417000        1.0080           0
   47790 WT3  205  TIP3 H2   HT     0.417000        1.0080           0
   47791 WT3  206  TIP3 OH2  OT    -0.834000       15.9994           0
   47792 WT3  206  TIP3 H1   HT     0.417000        1.0080           0
   47793 WT3  206  TIP3 H2   HT     0.417000        1.0080           0
   47794 WT3  208  TIP3 OH2  OT    -0.834000       15.9994           0
   47795 WT3  208  TIP3 H1   HT     0.417000        1.0080           0
   47796 WT3  208  TIP3 H2   HT     0.417000        1.0080           0
   47797 WT3  210  TIP3 OH2  OT    -0.834000       15.9994           0
   47798 WT3  210  TIP3 H1   HT     0.417000        1.0080           0
   47799 WT3  210  TIP3 H2   HT     0.417000        1.0080           0
   47800 WT3  212  TIP3 OH2  OT    -0.834000       15.9994           0
   47801 WT3  212  TIP3 H1   HT     0.417000        1.0080           0
   47802 WT3  212  TIP3 H2   HT     0.417000        1.0080           0
   47803 WT3  213  TIP3 OH2  OT    -0.834000       15.9994           0
   47804 WT3  213  TIP3 H1   HT     0.417000        1.0080           0
   47805 WT3  213  TIP3 H2   HT     0.417000        1.0080           0
   47806 WT3  214  TIP3 OH2  OT    -0.834000       15.9994           0
   47807 WT3  214  TIP3 H1   HT     0.417000        1.0080           0
   47808 WT3  214  TIP3 H2   HT     0.417000        1.0080           0
   47809 WT3  215  TIP3 OH2  OT    -0.834000       15.9994           0
   47810 WT3  215  TIP3 H1   HT     0.417000        1.0080           0
   47811 WT3  215  TIP3 H2   HT     0.417000        1.0080           0
   47812 WT3  217  TIP3 OH2  OT    -0.834000       15.9994           0
   47813 WT3  217  TIP3 H1   HT     0.417000        1.0080           0
   47814 WT3  217  TIP3 H2   HT     0.417000        1.0080           0
   47815 WT3  218  TIP3 OH2  OT    -0.834000       15.9994           0
   47816 WT3  218  TIP3 H1   HT     0.417000        1.0080           0
   47817 WT3  218  TIP3 H2   HT     0.417000        1.0080           0
   47818 WT3  219  TIP3 OH2  OT    -0.834000       15.9994           0
   47819 WT3  219  TIP3 H1   HT     0.417000        1.0080           0
   47820 WT3  219  TIP3 H2   HT     0.417000        1.0080           0
   47821 WT3  220  TIP3 OH2  OT    -0.834000       15.9994           0
   47822 WT3  220  TIP3 H1   HT     0.417000        1.0080           0
   47823 WT3  220  TIP3 H2   HT     0.417000        1.0080           0
   47824 WT3  221  TIP3 OH2  OT    -0.834000       15.9994           0
   47825 WT3  221  TIP3 H1   HT     0.417000        1.0080           0
   47826 WT3  221  TIP3 H2   HT     0.417000        1.0080           0
   47827 WT3  222  TIP3 OH2  OT    -0.834000       15.9994           0
   47828 WT3  222  TIP3 H1   HT     0.417000        1.0080           0
   47829 WT3  222  TIP3 H2   HT     0.417000        1.0080           0
   47830 WT3  223  TIP3 OH2  OT    -0.834000       15.9994           0
   47831 WT3  223  TIP3 H1   HT     0.417000        1.0080           0
   47832 WT3  223  TIP3 H2   HT     0.417000        1.0080           0
   47833 WT3  225  TIP3 OH2  OT    -0.834000       15.9994           0
   47834 WT3  225  TIP3 H1   HT     0.417000        1.0080           0
   47835 WT3  225  TIP3 H2   HT     0.417000        1.0080           0
   47836 WT3  227  TIP3 OH2  OT    -0.834000       15.9994           0
   47837 WT3  227  TIP3 H1   HT     0.417000        1.0080           0
   47838 WT3  227  TIP3 H2   HT     0.417000        1.0080           0
   47839 WT3  231  TIP3 OH2  OT    -0.834000       15.9994           0
   47840 WT3  231  TIP3 H1   HT     0.417000        1.0080           0
   47841 WT3  231  TIP3 H2   HT     0.417000        1.0080           0
   47842 WT3  232  TIP3 OH2  OT    -0.834000       15.9994           0
   47843 WT3  232  TIP3 H1   HT     0.417000        1.0080           0
   47844 WT3  232  TIP3 H2   HT     0.417000        1.0080           0
   47845 WT3  233  TIP3 OH2  OT    -0.834000       15.9994           0
   47846 WT3  233  TIP3 H1   HT     0.417000        1.0080           0
   47847 WT3  233  TIP3 H2   HT     0.417000        1.0080           0
   47848 WT3  234  TIP3 OH2  OT    -0.834000       15.9994           0
   47849 WT3  234  TIP3 H1   HT     0.417000        1.0080           0
   47850 WT3  234  TIP3 H2   HT     0.417000        1.0080           0
   47851 WT3  235  TIP3 OH2  OT    -0.834000       15.9994           0
   47852 WT3  235  TIP3 H1   HT     0.417000        1.0080           0
   47853 WT3  235  TIP3 H2   HT     0.417000        1.0080           0
   47854 WT3  236  TIP3 OH2  OT    -0.834000       15.9994           0
   47855 WT3  236  TIP3 H1   HT     0.417000        1.0080           0
   47856 WT3  236  TIP3 H2   HT     0.417000        1.0080           0
   47857 WT3  237  TIP3 OH2  OT    -0.834000       15.9994           0
   47858 WT3  237  TIP3 H1   HT     0.417000        1.0080           0
   47859 WT3  237  TIP3 H2   HT     0.417000        1.0080           0
   47860 WT3  238  TIP3 OH2  OT    -0.834000       15.9994           0
   47861 WT3  238  TIP3 H1   HT     0.417000        1.0080           0
   47862 WT3  238  TIP3 H2   HT     0.417000        1.0080           0
   47863 WT3  239  TIP3 OH2  OT    -0.834000       15.9994           0
   47864 WT3  239  TIP3 H1   HT     0.417000        1.0080           0
   47865 WT3  239  TIP3 H2   HT     0.417000        1.0080           0
   47866 WT3  240  TIP3 OH2  OT    -0.834000       15.9994           0
   47867 WT3  240  TIP3 H1   HT     0.417000        1.0080           0
   47868 WT3  240  TIP3 H2   HT     0.417000        1.0080           0
   47869 WT3  241  TIP3 OH2  OT    -0.834000       15.9994           0
   47870 WT3  241  TIP3 H1   HT     0.417000        1.0080           0
   47871 WT3  241  TIP3 H2   HT     0.417000        1.0080           0
   47872 WT3  243  TIP3 OH2  OT    -0.834000       15.9994           0
   47873 WT3  243  TIP3 H1   HT     0.417000        1.0080           0
   47874 WT3  243  TIP3 H2   HT     0.417000        1.0080           0
   47875 WT3  245  TIP3 OH2  OT    -0.834000       15.9994           0
   47876 WT3  245  TIP3 H1   HT     0.417000        1.0080           0
   47877 WT3  245  TIP3 H2   HT     0.417000        1.0080           0
   47878 WT3  246  TIP3 OH2  OT    -0.834000       15.9994           0
   47879 WT3  246  TIP3 H1   HT     0.417000        1.0080           0
   47880 WT3  246  TIP3 H2   HT     0.417000        1.0080           0
   47881 WT3  252  TIP3 OH2  OT    -0.834000       15.9994           0
   47882 WT3  252  TIP3 H1   HT     0.417000        1.0080           0
   47883 WT3  252  TIP3 H2   HT     0.417000        1.0080           0
   47884 WT3  253  TIP3 OH2  OT    -0.834000       15.9994           0
   47885 WT3  253  TIP3 H1   HT     0.417000        1.0080           0
   47886 WT3  253  TIP3 H2   HT     0.417000        1.0080           0
   47887 WT3  254  TIP3 OH2  OT    -0.834000       15.9994           0
   47888 WT3  254  TIP3 H1   HT     0.417000        1.0080           0
   47889 WT3  254  TIP3 H2   HT     0.417000        1.0080           0
   47890 WT3  256  TIP3 OH2  OT    -0.834000       15.9994           0
   47891 WT3  256  TIP3 H1   HT     0.417000        1.0080           0
   47892 WT3  256  TIP3 H2   HT     0.417000        1.0080           0
   47893 WT3  257  TIP3 OH2  OT    -0.834000       15.9994           0
   47894 WT3  257  TIP3 H1   HT     0.417000        1.0080           0
   47895 WT3  257  TIP3 H2   HT     0.417000        1.0080           0
   47896 WT3  260  TIP3 OH2  OT    -0.834000       15.9994           0
   47897 WT3  260  TIP3 H1   HT     0.417000        1.0080           0
   47898 WT3  260  TIP3 H2   HT     0.417000        1.0080           0
   47899 WT3  261  TIP3 OH2  OT    -0.834000       15.9994           0
   47900 WT3  261  TIP3 H1   HT     0.417000        1.0080           0
   47901 WT3  261  TIP3 H2   HT     0.417000        1.0080           0
   47902 WT3  262  TIP3 OH2  OT    -0.834000       15.9994           0
   47903 WT3  262  TIP3 H1   HT     0.417000        1.0080           0
   47904 WT3  262  TIP3 H2   HT     0.417000        1.0080           0
   47905 WT3  263  TIP3 OH2  OT    -0.834000       15.9994           0
   47906 WT3  263  TIP3 H1   HT     0.417000        1.0080           0
   47907 WT3  263  TIP3 H2   HT     0.417000        1.0080           0
   47908 WT3  273  TIP3 OH2  OT    -0.834000       15.9994           0
   47909 WT3  273  TIP3 H1   HT     0.417000        1.0080           0
   47910 WT3  273  TIP3 H2   HT     0.417000        1.0080           0
   47911 WT3  275  TIP3 OH2  OT    -0.834000       15.9994           0
   47912 WT3  275  TIP3 H1   HT     0.417000        1.0080           0
   47913 WT3  275  TIP3 H2   HT     0.417000        1.0080           0
   47914 WT3  278  TIP3 OH2  OT    -0.834000       15.9994           0
   47915 WT3  278  TIP3 H1   HT     0.417000        1.0080           0
   47916 WT3  278  TIP3 H2   HT     0.417000        1.0080           0
   47917 WT3  279  TIP3 OH2  OT    -0.834000       15.9994           0
   47918 WT3  279  TIP3 H1   HT     0.417000        1.0080           0
   47919 WT3  279  TIP3 H2   HT     0.417000        1.0080           0
   47920 WT3  280  TIP3 OH2  OT    -0.834000       15.9994           0
   47921 WT3  280  TIP3 H1   HT     0.417000        1.0080           0
   47922 WT3  280  TIP3 H2   HT     0.417000        1.0080           0
   47923 WT3  281  TIP3 OH2  OT    -0.834000       15.9994           0
   47924 WT3  281  TIP3 H1   HT     0.417000        1.0080           0
   47925 WT3  281  TIP3 H2   HT     0.417000        1.0080           0
   47926 WT3  282  TIP3 OH2  OT    -0.834000       15.9994           0
   47927 WT3  282  TIP3 H1   HT     0.417000        1.0080           0
   47928 WT3  282  TIP3 H2   HT     0.417000        1.0080           0
   47929 WT3  284  TIP3 OH2  OT    -0.834000       15.9994           0
   47930 WT3  284  TIP3 H1   HT     0.417000        1.0080           0
   47931 WT3  284  TIP3 H2   HT     0.417000        1.0080           0
   47932 WT3  286  TIP3 OH2  OT    -0.834000       15.9994           0
   47933 WT3  286  TIP3 H1   HT     0.417000        1.0080           0
   47934 WT3  286  TIP3 H2   HT     0.417000        1.0080           0
   47935 WT3  287  TIP3 OH2  OT    -0.834000       15.9994           0
   47936 WT3  287  TIP3 H1   HT     0.417000        1.0080           0
   47937 WT3  287  TIP3 H2   HT     0.417000        1.0080           0
   47938 WT3  288  TIP3 OH2  OT    -0.834000       15.9994           0
   47939 WT3  288  TIP3 H1   HT     0.417000        1.0080           0
   47940 WT3  288  TIP3 H2   HT     0.417000        1.0080           0
   47941 WT3  290  TIP3 OH2  OT    -0.834000       15.9994           0
   47942 WT3  290  TIP3 H1   HT     0.417000        1.0080           0
   47943 WT3  290  TIP3 H2   HT     0.417000        1.0080           0
   47944 WT3  291  TIP3 OH2  OT    -0.834000       15.9994           0
   47945 WT3  291  TIP3 H1   HT     0.417000        1.0080           0
   47946 WT3  291  TIP3 H2   HT     0.417000        1.0080           0
   47947 WT3  295  TIP3 OH2  OT    -0.834000       15.9994           0
   47948 WT3  295  TIP3 H1   HT     0.417000        1.0080           0
   47949 WT3  295  TIP3 H2   HT     0.417000        1.0080           0
   47950 WT3  297  TIP3 OH2  OT    -0.834000       15.9994           0
   47951 WT3  297  TIP3 H1   HT     0.417000        1.0080           0
   47952 WT3  297  TIP3 H2   HT     0.417000        1.0080           0
   47953 WT3  298  TIP3 OH2  OT    -0.834000       15.9994           0
   47954 WT3  298  TIP3 H1   HT     0.417000        1.0080           0
   47955 WT3  298  TIP3 H2   HT     0.417000        1.0080           0
   47956 WT3  300  TIP3 OH2  OT    -0.834000       15.9994           0
   47957 WT3  300  TIP3 H1   HT     0.417000        1.0080           0
   47958 WT3  300  TIP3 H2   HT     0.417000        1.0080           0
   47959 WT3  304  TIP3 OH2  OT    -0.834000       15.9994           0
   47960 WT3  304  TIP3 H1   HT     0.417000        1.0080           0
   47961 WT3  304  TIP3 H2   HT     0.417000        1.0080           0
   47962 WT3  308  TIP3 OH2  OT    -0.834000       15.9994           0
   47963 WT3  308  TIP3 H1   HT     0.417000        1.0080           0
   47964 WT3  308  TIP3 H2   HT     0.417000        1.0080           0
   47965 WT3  313  TIP3 OH2  OT    -0.834000       15.9994           0
   47966 WT3  313  TIP3 H1   HT     0.417000        1.0080           0
   47967 WT3  313  TIP3 H2   HT     0.417000        1.0080           0
   47968 WT3  318  TIP3 OH2  OT    -0.834000       15.9994           0
   47969 WT3  318  TIP3 H1   HT     0.417000        1.0080           0
   47970 WT3  318  TIP3 H2   HT     0.417000        1.0080           0
   47971 WT3  320  TIP3 OH2  OT    -0.834000       15.9994           0
   47972 WT3  320  TIP3 H1   HT     0.417000        1.0080           0
   47973 WT3  320  TIP3 H2   HT     0.417000        1.0080           0
   47974 WT3  327  TIP3 OH2  OT    -0.834000       15.9994           0
   47975 WT3  327  TIP3 H1   HT     0.417000        1.0080           0
   47976 WT3  327  TIP3 H2   HT     0.417000        1.0080           0
   47977 WT3  328  TIP3 OH2  OT    -0.834000       15.9994           0
   47978 WT3  328  TIP3 H1   HT     0.417000        1.0080           0
   47979 WT3  328  TIP3 H2   HT     0.417000        1.0080           0
   47980 WT3  333  TIP3 OH2  OT    -0.834000       15.9994           0
   47981 WT3  333  TIP3 H1   HT     0.417000        1.0080           0
   47982 WT3  333  TIP3 H2   HT     0.417000        1.0080           0
   47983 WT3  336  TIP3 OH2  OT    -0.834000       15.9994           0
   47984 WT3  336  TIP3 H1   HT     0.417000        1.0080           0
   47985 WT3  336  TIP3 H2   HT     0.417000        1.0080           0
   47986 WT3  337  TIP3 OH2  OT    -0.834000       15.9994           0
   47987 WT3  337  TIP3 H1   HT     0.417000        1.0080           0
   47988 WT3  337  TIP3 H2   HT     0.417000        1.0080           0
   47989 WT3  339  TIP3 OH2  OT    -0.834000       15.9994           0
   47990 WT3  339  TIP3 H1   HT     0.417000        1.0080           0
   47991 WT3  339  TIP3 H2   HT     0.417000        1.0080           0
   47992 WT3  340  TIP3 OH2  OT    -0.834000       15.9994           0
   47993 WT3  340  TIP3 H1   HT     0.417000        1.0080           0
   47994 WT3  340  TIP3 H2   HT     0.417000        1.0080           0
   47995 WT3  360  TIP3 OH2  OT    -0.834000       15.9994           0
   47996 WT3  360  TIP3 H1   HT     0.417000        1.0080           0
   47997 WT3  360  TIP3 H2   HT     0.417000        1.0080           0
   47998 WT3  365  TIP3 OH2  OT    -0.834000       15.9994           0
   47999 WT3  365  TIP3 H1   HT     0.417000        1.0080           0
   48000 WT3  365  TIP3 H2   HT     0.417000        1.0080           0
   48001 WT3  367  TIP3 OH2  OT    -0.834000       15.9994           0
   48002 WT3  367  TIP3 H1   HT     0.417000        1.0080           0
   48003 WT3  367  TIP3 H2   HT     0.417000        1.0080           0
   48004 WT3  368  TIP3 OH2  OT    -0.834000       15.9994           0
   48005 WT3  368  TIP3 H1   HT     0.417000        1.0080           0
   48006 WT3  368  TIP3 H2   HT     0.417000        1.0080           0
   48007 WT3  370  TIP3 OH2  OT    -0.834000       15.9994           0
   48008 WT3  370  TIP3 H1   HT     0.417000        1.0080           0
   48009 WT3  370  TIP3 H2   HT     0.417000        1.0080           0
   48010 WT3  379  TIP3 OH2  OT    -0.834000       15.9994           0
   48011 WT3  379  TIP3 H1   HT     0.417000        1.0080           0
   48012 WT3  379  TIP3 H2   HT     0.417000        1.0080           0
   48013 WT3  402  TIP3 OH2  OT    -0.834000       15.9994           0
   48014 WT3  402  TIP3 H1   HT     0.417000        1.0080           0
   48015 WT3  402  TIP3 H2   HT     0.417000        1.0080           0
   48016 WT3  407  TIP3 OH2  OT    -0.834000       15.9994           0
   48017 WT3  407  TIP3 H1   HT     0.417000        1.0080           0
   48018 WT3  407  TIP3 H2   HT     0.417000        1.0080           0
   48019 WT3  408  TIP3 OH2  OT    -0.834000       15.9994           0
   48020 WT3  408  TIP3 H1   HT     0.417000        1.0080           0
   48021 WT3  408  TIP3 H2   HT     0.417000        1.0080           0
   48022 WT3  411  TIP3 OH2  OT    -0.834000       15.9994           0
   48023 WT3  411  TIP3 H1   HT     0.417000        1.0080           0
   48024 WT3  411  TIP3 H2   HT     0.417000        1.0080           0
   48025 WT3  412  TIP3 OH2  OT    -0.834000       15.9994           0
   48026 WT3  412  TIP3 H1   HT     0.417000        1.0080           0
   48027 WT3  412  TIP3 H2   HT     0.417000        1.0080           0
   48028 WT3  421  TIP3 OH2  OT    -0.834000       15.9994           0
   48029 WT3  421  TIP3 H1   HT     0.417000        1.0080           0
   48030 WT3  421  TIP3 H2   HT     0.417000        1.0080           0
   48031 WT3  424  TIP3 OH2  OT    -0.834000       15.9994           0
   48032 WT3  424  TIP3 H1   HT     0.417000        1.0080           0
   48033 WT3  424  TIP3 H2   HT     0.417000        1.0080           0
   48034 WT3  429  TIP3 OH2  OT    -0.834000       15.9994           0
   48035 WT3  429  TIP3 H1   HT     0.417000        1.0080           0
   48036 WT3  429  TIP3 H2   HT     0.417000        1.0080           0
   48037 WT3  430  TIP3 OH2  OT    -0.834000       15.9994           0
   48038 WT3  430  TIP3 H1   HT     0.417000        1.0080           0
   48039 WT3  430  TIP3 H2   HT     0.417000        1.0080           0
   48040 WT3  432  TIP3 OH2  OT    -0.834000       15.9994           0
   48041 WT3  432  TIP3 H1   HT     0.417000        1.0080           0
   48042 WT3  432  TIP3 H2   HT     0.417000        1.0080           0
   48043 WT3  434  TIP3 OH2  OT    -0.834000       15.9994           0
   48044 WT3  434  TIP3 H1   HT     0.417000        1.0080           0
   48045 WT3  434  TIP3 H2   HT     0.417000        1.0080           0
   48046 WT3  436  TIP3 OH2  OT    -0.834000       15.9994           0
   48047 WT3  436  TIP3 H1   HT     0.417000        1.0080           0
   48048 WT3  436  TIP3 H2   HT     0.417000        1.0080           0
   48049 WT3  437  TIP3 OH2  OT    -0.834000       15.9994           0
   48050 WT3  437  TIP3 H1   HT     0.417000        1.0080           0
   48051 WT3  437  TIP3 H2   HT     0.417000        1.0080           0
   48052 WT3  438  TIP3 OH2  OT    -0.834000       15.9994           0
   48053 WT3  438  TIP3 H1   HT     0.417000        1.0080           0
   48054 WT3  438  TIP3 H2   HT     0.417000        1.0080           0
   48055 WT3  441  TIP3 OH2  OT    -0.834000       15.9994           0
   48056 WT3  441  TIP3 H1   HT     0.417000        1.0080           0
   48057 WT3  441  TIP3 H2   HT     0.417000        1.0080           0
   48058 WT3  442  TIP3 OH2  OT    -0.834000       15.9994           0
   48059 WT3  442  TIP3 H1   HT     0.417000        1.0080           0
   48060 WT3  442  TIP3 H2   HT     0.417000        1.0080           0
   48061 WT3  443  TIP3 OH2  OT    -0.834000       15.9994           0
   48062 WT3  443  TIP3 H1   HT     0.417000        1.0080           0
   48063 WT3  443  TIP3 H2   HT     0.417000        1.0080           0
   48064 WT3  444  TIP3 OH2  OT    -0.834000       15.9994           0
   48065 WT3  444  TIP3 H1   HT     0.417000        1.0080           0
   48066 WT3  444  TIP3 H2   HT     0.417000        1.0080           0
   48067 WT3  447  TIP3 OH2  OT    -0.834000       15.9994           0
   48068 WT3  447  TIP3 H1   HT     0.417000        1.0080           0
   48069 WT3  447  TIP3 H2   HT     0.417000        1.0080           0
   48070 WT3  449  TIP3 OH2  OT    -0.834000       15.9994           0
   48071 WT3  449  TIP3 H1   HT     0.417000        1.0080           0
   48072 WT3  449  TIP3 H2   HT     0.417000        1.0080           0
   48073 WT3  450  TIP3 OH2  OT    -0.834000       15.9994           0
   48074 WT3  450  TIP3 H1   HT     0.417000        1.0080           0
   48075 WT3  450  TIP3 H2   HT     0.417000        1.0080           0
   48076 WT3  451  TIP3 OH2  OT    -0.834000       15.9994           0
   48077 WT3  451  TIP3 H1   HT     0.417000        1.0080           0
   48078 WT3  451  TIP3 H2   HT     0.417000        1.0080           0
   48079 WT3  452  TIP3 OH2  OT    -0.834000       15.9994           0
   48080 WT3  452  TIP3 H1   HT     0.417000        1.0080           0
   48081 WT3  452  TIP3 H2   HT     0.417000        1.0080           0
   48082 WT3  453  TIP3 OH2  OT    -0.834000       15.9994           0
   48083 WT3  453  TIP3 H1   HT     0.417000        1.0080           0
   48084 WT3  453  TIP3 H2   HT     0.417000        1.0080           0
   48085 WT3  455  TIP3 OH2  OT    -0.834000       15.9994           0
   48086 WT3  455  TIP3 H1   HT     0.417000        1.0080           0
   48087 WT3  455  TIP3 H2   HT     0.417000        1.0080           0
   48088 WT3  457  TIP3 OH2  OT    -0.834000       15.9994           0
   48089 WT3  457  TIP3 H1   HT     0.417000        1.0080           0
   48090 WT3  457  TIP3 H2   HT     0.417000        1.0080           0
   48091 WT3  458  TIP3 OH2  OT    -0.834000       15.9994           0
   48092 WT3  458  TIP3 H1   HT     0.417000        1.0080           0
   48093 WT3  458  TIP3 H2   HT     0.417000        1.0080           0
   48094 WT3  459  TIP3 OH2  OT    -0.834000       15.9994           0
   48095 WT3  459  TIP3 H1   HT     0.417000        1.0080           0
   48096 WT3  459  TIP3 H2   HT     0.417000        1.0080           0
   48097 WT3  461  TIP3 OH2  OT    -0.834000       15.9994           0
   48098 WT3  461  TIP3 H1   HT     0.417000        1.0080           0
   48099 WT3  461  TIP3 H2   HT     0.417000        1.0080           0
   48100 WT3  463  TIP3 OH2  OT    -0.834000       15.9994           0
   48101 WT3  463  TIP3 H1   HT     0.417000        1.0080           0
   48102 WT3  463  TIP3 H2   HT     0.417000        1.0080           0
   48103 WT3  465  TIP3 OH2  OT    -0.834000       15.9994           0
   48104 WT3  465  TIP3 H1   HT     0.417000        1.0080           0
   48105 WT3  465  TIP3 H2   HT     0.417000        1.0080           0
   48106 WT3  466  TIP3 OH2  OT    -0.834000       15.9994           0
   48107 WT3  466  TIP3 H1   HT     0.417000        1.0080           0
   48108 WT3  466  TIP3 H2   HT     0.417000        1.0080           0
   48109 WT3  467  TIP3 OH2  OT    -0.834000       15.9994           0
   48110 WT3  467  TIP3 H1   HT     0.417000        1.0080           0
   48111 WT3  467  TIP3 H2   HT     0.417000        1.0080           0
   48112 WT3  473  TIP3 OH2  OT    -0.834000       15.9994           0
   48113 WT3  473  TIP3 H1   HT     0.417000        1.0080           0
   48114 WT3  473  TIP3 H2   HT     0.417000        1.0080           0
   48115 WT3  474  TIP3 OH2  OT    -0.834000       15.9994           0
   48116 WT3  474  TIP3 H1   HT     0.417000        1.0080           0
   48117 WT3  474  TIP3 H2   HT     0.417000        1.0080           0
   48118 WT3  478  TIP3 OH2  OT    -0.834000       15.9994           0
   48119 WT3  478  TIP3 H1   HT     0.417000        1.0080           0
   48120 WT3  478  TIP3 H2   HT     0.417000        1.0080           0
   48121 WT3  479  TIP3 OH2  OT    -0.834000       15.9994           0
   48122 WT3  479  TIP3 H1   HT     0.417000        1.0080           0
   48123 WT3  479  TIP3 H2   HT     0.417000        1.0080           0
   48124 WT3  484  TIP3 OH2  OT    -0.834000       15.9994           0
   48125 WT3  484  TIP3 H1   HT     0.417000        1.0080           0
   48126 WT3  484  TIP3 H2   HT     0.417000        1.0080           0
   48127 WT3  485  TIP3 OH2  OT    -0.834000       15.9994           0
   48128 WT3  485  TIP3 H1   HT     0.417000        1.0080           0
   48129 WT3  485  TIP3 H2   HT     0.417000        1.0080           0
   48130 WT3  486  TIP3 OH2  OT    -0.834000       15.9994           0
   48131 WT3  486  TIP3 H1   HT     0.417000        1.0080           0
   48132 WT3  486  TIP3 H2   HT     0.417000        1.0080           0
   48133 WT3  487  TIP3 OH2  OT    -0.834000       15.9994           0
   48134 WT3  487  TIP3 H1   HT     0.417000        1.0080           0
   48135 WT3  487  TIP3 H2   HT     0.417000        1.0080           0
   48136 WT3  488  TIP3 OH2  OT    -0.834000       15.9994           0
   48137 WT3  488  TIP3 H1   HT     0.417000        1.0080           0
   48138 WT3  488  TIP3 H2   HT     0.417000        1.0080           0
   48139 WT3  489  TIP3 OH2  OT    -0.834000       15.9994           0
   48140 WT3  489  TIP3 H1   HT     0.417000        1.0080           0
   48141 WT3  489  TIP3 H2   HT     0.417000        1.0080           0
   48142 WT3  490  TIP3 OH2  OT    -0.834000       15.9994           0
   48143 WT3  490  TIP3 H1   HT     0.417000        1.0080           0
   48144 WT3  490  TIP3 H2   HT     0.417000        1.0080           0
   48145 WT3  491  TIP3 OH2  OT    -0.834000       15.9994           0
   48146 WT3  491  TIP3 H1   HT     0.417000        1.0080           0
   48147 WT3  491  TIP3 H2   HT     0.417000        1.0080           0
   48148 WT3  492  TIP3 OH2  OT    -0.834000       15.9994           0
   48149 WT3  492  TIP3 H1   HT     0.417000        1.0080           0
   48150 WT3  492  TIP3 H2   HT     0.417000        1.0080           0
   48151 WT3  493  TIP3 OH2  OT    -0.834000       15.9994           0
   48152 WT3  493  TIP3 H1   HT     0.417000        1.0080           0
   48153 WT3  493  TIP3 H2   HT     0.417000        1.0080           0
   48154 WT3  494  TIP3 OH2  OT    -0.834000       15.9994           0
   48155 WT3  494  TIP3 H1   HT     0.417000        1.0080           0
   48156 WT3  494  TIP3 H2   HT     0.417000        1.0080           0
   48157 WT3  495  TIP3 OH2  OT    -0.834000       15.9994           0
   48158 WT3  495  TIP3 H1   HT     0.417000        1.0080           0
   48159 WT3  495  TIP3 H2   HT     0.417000        1.0080           0
   48160 WT3  498  TIP3 OH2  OT    -0.834000       15.9994           0
   48161 WT3  498  TIP3 H1   HT     0.417000        1.0080           0
   48162 WT3  498  TIP3 H2   HT     0.417000        1.0080           0
   48163 WT3  499  TIP3 OH2  OT    -0.834000       15.9994           0
   48164 WT3  499  TIP3 H1   HT     0.417000        1.0080           0
   48165 WT3  499  TIP3 H2   HT     0.417000        1.0080           0
   48166 WT3  500  TIP3 OH2  OT    -0.834000       15.9994           0
   48167 WT3  500  TIP3 H1   HT     0.417000        1.0080           0
   48168 WT3  500  TIP3 H2   HT     0.417000        1.0080           0
   48169 WT3  502  TIP3 OH2  OT    -0.834000       15.9994           0
   48170 WT3  502  TIP3 H1   HT     0.417000        1.0080           0
   48171 WT3  502  TIP3 H2   HT     0.417000        1.0080           0
   48172 WT3  503  TIP3 OH2  OT    -0.834000       15.9994           0
   48173 WT3  503  TIP3 H1   HT     0.417000        1.0080           0
   48174 WT3  503  TIP3 H2   HT     0.417000        1.0080           0
   48175 WT3  504  TIP3 OH2  OT    -0.834000       15.9994           0
   48176 WT3  504  TIP3 H1   HT     0.417000        1.0080           0
   48177 WT3  504  TIP3 H2   HT     0.417000        1.0080           0
   48178 WT3  505  TIP3 OH2  OT    -0.834000       15.9994           0
   48179 WT3  505  TIP3 H1   HT     0.417000        1.0080           0
   48180 WT3  505  TIP3 H2   HT     0.417000        1.0080           0
   48181 WT3  506  TIP3 OH2  OT    -0.834000       15.9994           0
   48182 WT3  506  TIP3 H1   HT     0.417000        1.0080           0
   48183 WT3  506  TIP3 H2   HT     0.417000        1.0080           0
   48184 WT3  507  TIP3 OH2  OT    -0.834000       15.9994           0
   48185 WT3  507  TIP3 H1   HT     0.417000        1.0080           0
   48186 WT3  507  TIP3 H2   HT     0.417000        1.0080           0
   48187 WT3  508  TIP3 OH2  OT    -0.834000       15.9994           0
   48188 WT3  508  TIP3 H1   HT     0.417000        1.0080           0
   48189 WT3  508  TIP3 H2   HT     0.417000        1.0080           0
   48190 WT3  509  TIP3 OH2  OT    -0.834000       15.9994           0
   48191 WT3  509  TIP3 H1   HT     0.417000        1.0080           0
   48192 WT3  509  TIP3 H2   HT     0.417000        1.0080           0
   48193 WT3  510  TIP3 OH2  OT    -0.834000       15.9994           0
   48194 WT3  510  TIP3 H1   HT     0.417000        1.0080           0
   48195 WT3  510  TIP3 H2   HT     0.417000        1.0080           0
   48196 WT3  511  TIP3 OH2  OT    -0.834000       15.9994           0
   48197 WT3  511  TIP3 H1   HT     0.417000        1.0080           0
   48198 WT3  511  TIP3 H2   HT     0.417000        1.0080           0
   48199 WT3  512  TIP3 OH2  OT    -0.834000       15.9994           0
   48200 WT3  512  TIP3 H1   HT     0.417000        1.0080           0
   48201 WT3  512  TIP3 H2   HT     0.417000        1.0080           0
   48202 WT3  513  TIP3 OH2  OT    -0.834000       15.9994           0
   48203 WT3  513  TIP3 H1   HT     0.417000        1.0080           0
   48204 WT3  513  TIP3 H2   HT     0.417000        1.0080           0
   48205 WT3  514  TIP3 OH2  OT    -0.834000       15.9994           0
   48206 WT3  514  TIP3 H1   HT     0.417000        1.0080           0
   48207 WT3  514  TIP3 H2   HT     0.417000        1.0080           0
   48208 WT3  515  TIP3 OH2  OT    -0.834000       15.9994           0
   48209 WT3  515  TIP3 H1   HT     0.417000        1.0080           0
   48210 WT3  515  TIP3 H2   HT     0.417000        1.0080           0
   48211 WT3  516  TIP3 OH2  OT    -0.834000       15.9994           0
   48212 WT3  516  TIP3 H1   HT     0.417000        1.0080           0
   48213 WT3  516  TIP3 H2   HT     0.417000        1.0080           0
   48214 WT3  517  TIP3 OH2  OT    -0.834000       15.9994           0
   48215 WT3  517  TIP3 H1   HT     0.417000        1.0080           0
   48216 WT3  517  TIP3 H2   HT     0.417000        1.0080           0
   48217 WT3  519  TIP3 OH2  OT    -0.834000       15.9994           0
   48218 WT3  519  TIP3 H1   HT     0.417000        1.0080           0
   48219 WT3  519  TIP3 H2   HT     0.417000        1.0080           0
   48220 WT3  523  TIP3 OH2  OT    -0.834000       15.9994           0
   48221 WT3  523  TIP3 H1   HT     0.417000        1.0080           0
   48222 WT3  523  TIP3 H2   HT     0.417000        1.0080           0
   48223 WT3  524  TIP3 OH2  OT    -0.834000       15.9994           0
   48224 WT3  524  TIP3 H1   HT     0.417000        1.0080           0
   48225 WT3  524  TIP3 H2   HT     0.417000        1.0080           0
   48226 WT3  526  TIP3 OH2  OT    -0.834000       15.9994           0
   48227 WT3  526  TIP3 H1   HT     0.417000        1.0080           0
   48228 WT3  526  TIP3 H2   HT     0.417000        1.0080           0
   48229 WT3  527  TIP3 OH2  OT    -0.834000       15.9994           0
   48230 WT3  527  TIP3 H1   HT     0.417000        1.0080           0
   48231 WT3  527  TIP3 H2   HT     0.417000        1.0080           0
   48232 WT3  528  TIP3 OH2  OT    -0.834000       15.9994           0
   48233 WT3  528  TIP3 H1   HT     0.417000        1.0080           0
   48234 WT3  528  TIP3 H2   HT     0.417000        1.0080           0
   48235 WT3  529  TIP3 OH2  OT    -0.834000       15.9994           0
   48236 WT3  529  TIP3 H1   HT     0.417000        1.0080           0
   48237 WT3  529  TIP3 H2   HT     0.417000        1.0080           0
   48238 WT3  530  TIP3 OH2  OT    -0.834000       15.9994           0
   48239 WT3  530  TIP3 H1   HT     0.417000        1.0080           0
   48240 WT3  530  TIP3 H2   HT     0.417000        1.0080           0
   48241 WT3  531  TIP3 OH2  OT    -0.834000       15.9994           0
   48242 WT3  531  TIP3 H1   HT     0.417000        1.0080           0
   48243 WT3  531  TIP3 H2   HT     0.417000        1.0080           0
   48244 WT3  532  TIP3 OH2  OT    -0.834000       15.9994           0
   48245 WT3  532  TIP3 H1   HT     0.417000        1.0080           0
   48246 WT3  532  TIP3 H2   HT     0.417000        1.0080           0
   48247 WT3  533  TIP3 OH2  OT    -0.834000       15.9994           0
   48248 WT3  533  TIP3 H1   HT     0.417000        1.0080           0
   48249 WT3  533  TIP3 H2   HT     0.417000        1.0080           0
   48250 WT3  534  TIP3 OH2  OT    -0.834000       15.9994           0
   48251 WT3  534  TIP3 H1   HT     0.417000        1.0080           0
   48252 WT3  534  TIP3 H2   HT     0.417000        1.0080           0
   48253 WT3  535  TIP3 OH2  OT    -0.834000       15.9994           0
   48254 WT3  535  TIP3 H1   HT     0.417000        1.0080           0
   48255 WT3  535  TIP3 H2   HT     0.417000        1.0080           0
   48256 WT3  536  TIP3 OH2  OT    -0.834000       15.9994           0
   48257 WT3  536  TIP3 H1   HT     0.417000        1.0080           0
   48258 WT3  536  TIP3 H2   HT     0.417000        1.0080           0
   48259 WT3  538  TIP3 OH2  OT    -0.834000       15.9994           0
   48260 WT3  538  TIP3 H1   HT     0.417000        1.0080           0
   48261 WT3  538  TIP3 H2   HT     0.417000        1.0080           0
   48262 WT3  540  TIP3 OH2  OT    -0.834000       15.9994           0
   48263 WT3  540  TIP3 H1   HT     0.417000        1.0080           0
   48264 WT3  540  TIP3 H2   HT     0.417000        1.0080           0
   48265 WT3  541  TIP3 OH2  OT    -0.834000       15.9994           0
   48266 WT3  541  TIP3 H1   HT     0.417000        1.0080           0
   48267 WT3  541  TIP3 H2   HT     0.417000        1.0080           0
   48268 WT3  543  TIP3 OH2  OT    -0.834000       15.9994           0
   48269 WT3  543  TIP3 H1   HT     0.417000        1.0080           0
   48270 WT3  543  TIP3 H2   HT     0.417000        1.0080           0
   48271 WT3  547  TIP3 OH2  OT    -0.834000       15.9994           0
   48272 WT3  547  TIP3 H1   HT     0.417000        1.0080           0
   48273 WT3  547  TIP3 H2   HT     0.417000        1.0080           0
   48274 WT3  549  TIP3 OH2  OT    -0.834000       15.9994           0
   48275 WT3  549  TIP3 H1   HT     0.417000        1.0080           0
   48276 WT3  549  TIP3 H2   HT     0.417000        1.0080           0
   48277 WT3  550  TIP3 OH2  OT    -0.834000       15.9994           0
   48278 WT3  550  TIP3 H1   HT     0.417000        1.0080           0
   48279 WT3  550  TIP3 H2   HT     0.417000        1.0080           0
   48280 WT3  551  TIP3 OH2  OT    -0.834000       15.9994           0
   48281 WT3  551  TIP3 H1   HT     0.417000        1.0080           0
   48282 WT3  551  TIP3 H2   HT     0.417000        1.0080           0
   48283 WT3  552  TIP3 OH2  OT    -0.834000       15.9994           0
   48284 WT3  552  TIP3 H1   HT     0.417000        1.0080           0
   48285 WT3  552  TIP3 H2   HT     0.417000        1.0080           0
   48286 WT3  553  TIP3 OH2  OT    -0.834000       15.9994           0
   48287 WT3  553  TIP3 H1   HT     0.417000        1.0080           0
   48288 WT3  553  TIP3 H2   HT     0.417000        1.0080           0
   48289 WT3  554  TIP3 OH2  OT    -0.834000       15.9994           0
   48290 WT3  554  TIP3 H1   HT     0.417000        1.0080           0
   48291 WT3  554  TIP3 H2   HT     0.417000        1.0080           0
   48292 WT3  555  TIP3 OH2  OT    -0.834000       15.9994           0
   48293 WT3  555  TIP3 H1   HT     0.417000        1.0080           0
   48294 WT3  555  TIP3 H2   HT     0.417000        1.0080           0
   48295 WT3  556  TIP3 OH2  OT    -0.834000       15.9994           0
   48296 WT3  556  TIP3 H1   HT     0.417000        1.0080           0
   48297 WT3  556  TIP3 H2   HT     0.417000        1.0080           0
   48298 WT3  558  TIP3 OH2  OT    -0.834000       15.9994           0
   48299 WT3  558  TIP3 H1   HT     0.417000        1.0080           0
   48300 WT3  558  TIP3 H2   HT     0.417000        1.0080           0
   48301 WT3  559  TIP3 OH2  OT    -0.834000       15.9994           0
   48302 WT3  559  TIP3 H1   HT     0.417000        1.0080           0
   48303 WT3  559  TIP3 H2   HT     0.417000        1.0080           0
   48304 WT3  561  TIP3 OH2  OT    -0.834000       15.9994           0
   48305 WT3  561  TIP3 H1   HT     0.417000        1.0080           0
   48306 WT3  561  TIP3 H2   HT     0.417000        1.0080           0
   48307 WT3  562  TIP3 OH2  OT    -0.834000       15.9994           0
   48308 WT3  562  TIP3 H1   HT     0.417000        1.0080           0
   48309 WT3  562  TIP3 H2   HT     0.417000        1.0080           0
   48310 WT3  563  TIP3 OH2  OT    -0.834000       15.9994           0
   48311 WT3  563  TIP3 H1   HT     0.417000        1.0080           0
   48312 WT3  563  TIP3 H2   HT     0.417000        1.0080           0
   48313 WT3  565  TIP3 OH2  OT    -0.834000       15.9994           0
   48314 WT3  565  TIP3 H1   HT     0.417000        1.0080           0
   48315 WT3  565  TIP3 H2   HT     0.417000        1.0080           0
   48316 WT3  568  TIP3 OH2  OT    -0.834000       15.9994           0
   48317 WT3  568  TIP3 H1   HT     0.417000        1.0080           0
   48318 WT3  568  TIP3 H2   HT     0.417000        1.0080           0
   48319 WT3  570  TIP3 OH2  OT    -0.834000       15.9994           0
   48320 WT3  570  TIP3 H1   HT     0.417000        1.0080           0
   48321 WT3  570  TIP3 H2   HT     0.417000        1.0080           0
   48322 WT3  571  TIP3 OH2  OT    -0.834000       15.9994           0
   48323 WT3  571  TIP3 H1   HT     0.417000        1.0080           0
   48324 WT3  571  TIP3 H2   HT     0.417000        1.0080           0
   48325 WT3  572  TIP3 OH2  OT    -0.834000       15.9994           0
   48326 WT3  572  TIP3 H1   HT     0.417000        1.0080           0
   48327 WT3  572  TIP3 H2   HT     0.417000        1.0080           0
   48328 WT3  573  TIP3 OH2  OT    -0.834000       15.9994           0
   48329 WT3  573  TIP3 H1   HT     0.417000        1.0080           0
   48330 WT3  573  TIP3 H2   HT     0.417000        1.0080           0
   48331 WT3  574  TIP3 OH2  OT    -0.834000       15.9994           0
   48332 WT3  574  TIP3 H1   HT     0.417000        1.0080           0
   48333 WT3  574  TIP3 H2   HT     0.417000        1.0080           0
   48334 WT3  575  TIP3 OH2  OT    -0.834000       15.9994           0
   48335 WT3  575  TIP3 H1   HT     0.417000        1.0080           0
   48336 WT3  575  TIP3 H2   HT     0.417000        1.0080           0
   48337 WT3  576  TIP3 OH2  OT    -0.834000       15.9994           0
   48338 WT3  576  TIP3 H1   HT     0.417000        1.0080           0
   48339 WT3  576  TIP3 H2   HT     0.417000        1.0080           0
   48340 WT3  577  TIP3 OH2  OT    -0.834000       15.9994           0
   48341 WT3  577  TIP3 H1   HT     0.417000        1.0080           0
   48342 WT3  577  TIP3 H2   HT     0.417000        1.0080           0
   48343 WT3  578  TIP3 OH2  OT    -0.834000       15.9994           0
   48344 WT3  578  TIP3 H1   HT     0.417000        1.0080           0
   48345 WT3  578  TIP3 H2   HT     0.417000        1.0080           0
   48346 WT3  579  TIP3 OH2  OT    -0.834000       15.9994           0
   48347 WT3  579  TIP3 H1   HT     0.417000        1.0080           0
   48348 WT3  579  TIP3 H2   HT     0.417000        1.0080           0
   48349 WT3  580  TIP3 OH2  OT    -0.834000       15.9994           0
   48350 WT3  580  TIP3 H1   HT     0.417000        1.0080           0
   48351 WT3  580  TIP3 H2   HT     0.417000        1.0080           0
   48352 WT3  581  TIP3 OH2  OT    -0.834000       15.9994           0
   48353 WT3  581  TIP3 H1   HT     0.417000        1.0080           0
   48354 WT3  581  TIP3 H2   HT     0.417000        1.0080           0
   48355 WT3  582  TIP3 OH2  OT    -0.834000       15.9994           0
   48356 WT3  582  TIP3 H1   HT     0.417000        1.0080           0
   48357 WT3  582  TIP3 H2   HT     0.417000        1.0080           0
   48358 WT3  584  TIP3 OH2  OT    -0.834000       15.9994           0
   48359 WT3  584  TIP3 H1   HT     0.417000        1.0080           0
   48360 WT3  584  TIP3 H2   HT     0.417000        1.0080           0
   48361 WT3  585  TIP3 OH2  OT    -0.834000       15.9994           0
   48362 WT3  585  TIP3 H1   HT     0.417000        1.0080           0
   48363 WT3  585  TIP3 H2   HT     0.417000        1.0080           0
   48364 WT3  587  TIP3 OH2  OT    -0.834000       15.9994           0
   48365 WT3  587  TIP3 H1   HT     0.417000        1.0080           0
   48366 WT3  587  TIP3 H2   HT     0.417000        1.0080           0
   48367 WT3  588  TIP3 OH2  OT    -0.834000       15.9994           0
   48368 WT3  588  TIP3 H1   HT     0.417000        1.0080           0
   48369 WT3  588  TIP3 H2   HT     0.417000        1.0080           0
   48370 WT3  589  TIP3 OH2  OT    -0.834000       15.9994           0
   48371 WT3  589  TIP3 H1   HT     0.417000        1.0080           0
   48372 WT3  589  TIP3 H2   HT     0.417000        1.0080           0
   48373 WT3  590  TIP3 OH2  OT    -0.834000       15.9994           0
   48374 WT3  590  TIP3 H1   HT     0.417000        1.0080           0
   48375 WT3  590  TIP3 H2   HT     0.417000        1.0080           0
   48376 WT3  591  TIP3 OH2  OT    -0.834000       15.9994           0
   48377 WT3  591  TIP3 H1   HT     0.417000        1.0080           0
   48378 WT3  591  TIP3 H2   HT     0.417000        1.0080           0
   48379 WT3  592  TIP3 OH2  OT    -0.834000       15.9994           0
   48380 WT3  592  TIP3 H1   HT     0.417000        1.0080           0
   48381 WT3  592  TIP3 H2   HT     0.417000        1.0080           0
   48382 WT3  593  TIP3 OH2  OT    -0.834000       15.9994           0
   48383 WT3  593  TIP3 H1   HT     0.417000        1.0080           0
   48384 WT3  593  TIP3 H2   HT     0.417000        1.0080           0
   48385 WT3  594  TIP3 OH2  OT    -0.834000       15.9994           0
   48386 WT3  594  TIP3 H1   HT     0.417000        1.0080           0
   48387 WT3  594  TIP3 H2   HT     0.417000        1.0080           0
   48388 WT3  595  TIP3 OH2  OT    -0.834000       15.9994           0
   48389 WT3  595  TIP3 H1   HT     0.417000        1.0080           0
   48390 WT3  595  TIP3 H2   HT     0.417000        1.0080           0
   48391 WT3  596  TIP3 OH2  OT    -0.834000       15.9994           0
   48392 WT3  596  TIP3 H1   HT     0.417000        1.0080           0
   48393 WT3  596  TIP3 H2   HT     0.417000        1.0080           0
   48394 WT3  597  TIP3 OH2  OT    -0.834000       15.9994           0
   48395 WT3  597  TIP3 H1   HT     0.417000        1.0080           0
   48396 WT3  597  TIP3 H2   HT     0.417000        1.0080           0
   48397 WT3  598  TIP3 OH2  OT    -0.834000       15.9994           0
   48398 WT3  598  TIP3 H1   HT     0.417000        1.0080           0
   48399 WT3  598  TIP3 H2   HT     0.417000        1.0080           0
   48400 WT3  599  TIP3 OH2  OT    -0.834000       15.9994           0
   48401 WT3  599  TIP3 H1   HT     0.417000        1.0080           0
   48402 WT3  599  TIP3 H2   HT     0.417000        1.0080           0
   48403 WT3  600  TIP3 OH2  OT    -0.834000       15.9994           0
   48404 WT3  600  TIP3 H1   HT     0.417000        1.0080           0
   48405 WT3  600  TIP3 H2   HT     0.417000        1.0080           0
   48406 WT3  601  TIP3 OH2  OT    -0.834000       15.9994           0
   48407 WT3  601  TIP3 H1   HT     0.417000        1.0080           0
   48408 WT3  601  TIP3 H2   HT     0.417000        1.0080           0
   48409 WT3  602  TIP3 OH2  OT    -0.834000       15.9994           0
   48410 WT3  602  TIP3 H1   HT     0.417000        1.0080           0
   48411 WT3  602  TIP3 H2   HT     0.417000        1.0080           0
   48412 WT3  603  TIP3 OH2  OT    -0.834000       15.9994           0
   48413 WT3  603  TIP3 H1   HT     0.417000        1.0080           0
   48414 WT3  603  TIP3 H2   HT     0.417000        1.0080           0
   48415 WT3  604  TIP3 OH2  OT    -0.834000       15.9994           0
   48416 WT3  604  TIP3 H1   HT     0.417000        1.0080           0
   48417 WT3  604  TIP3 H2   HT     0.417000        1.0080           0
   48418 WT3  606  TIP3 OH2  OT    -0.834000       15.9994           0
   48419 WT3  606  TIP3 H1   HT     0.417000        1.0080           0
   48420 WT3  606  TIP3 H2   HT     0.417000        1.0080           0
   48421 WT3  607  TIP3 OH2  OT    -0.834000       15.9994           0
   48422 WT3  607  TIP3 H1   HT     0.417000        1.0080           0
   48423 WT3  607  TIP3 H2   HT     0.417000        1.0080           0
   48424 WT3  608  TIP3 OH2  OT    -0.834000       15.9994           0
   48425 WT3  608  TIP3 H1   HT     0.417000        1.0080           0
   48426 WT3  608  TIP3 H2   HT     0.417000        1.0080           0
   48427 WT3  609  TIP3 OH2  OT    -0.834000       15.9994           0
   48428 WT3  609  TIP3 H1   HT     0.417000        1.0080           0
   48429 WT3  609  TIP3 H2   HT     0.417000        1.0080           0
   48430 WT3  610  TIP3 OH2  OT    -0.834000       15.9994           0
   48431 WT3  610  TIP3 H1   HT     0.417000        1.0080           0
   48432 WT3  610  TIP3 H2   HT     0.417000        1.0080           0
   48433 WT3  611  TIP3 OH2  OT    -0.834000       15.9994           0
   48434 WT3  611  TIP3 H1   HT     0.417000        1.0080           0
   48435 WT3  611  TIP3 H2   HT     0.417000        1.0080           0
   48436 WT3  612  TIP3 OH2  OT    -0.834000       15.9994           0
   48437 WT3  612  TIP3 H1   HT     0.417000        1.0080           0
   48438 WT3  612  TIP3 H2   HT     0.417000        1.0080           0
   48439 WT3  613  TIP3 OH2  OT    -0.834000       15.9994           0
   48440 WT3  613  TIP3 H1   HT     0.417000        1.0080           0
   48441 WT3  613  TIP3 H2   HT     0.417000        1.0080           0
   48442 WT3  614  TIP3 OH2  OT    -0.834000       15.9994           0
   48443 WT3  614  TIP3 H1   HT     0.417000        1.0080           0
   48444 WT3  614  TIP3 H2   HT     0.417000        1.0080           0
   48445 WT3  615  TIP3 OH2  OT    -0.834000       15.9994           0
   48446 WT3  615  TIP3 H1   HT     0.417000        1.0080           0
   48447 WT3  615  TIP3 H2   HT     0.417000        1.0080           0
   48448 WT3  616  TIP3 OH2  OT    -0.834000       15.9994           0
   48449 WT3  616  TIP3 H1   HT     0.417000        1.0080           0
   48450 WT3  616  TIP3 H2   HT     0.417000        1.0080           0
   48451 WT3  617  TIP3 OH2  OT    -0.834000       15.9994           0
   48452 WT3  617  TIP3 H1   HT     0.417000        1.0080           0
   48453 WT3  617  TIP3 H2   HT     0.417000        1.0080           0
   48454 WT3  618  TIP3 OH2  OT    -0.834000       15.9994           0
   48455 WT3  618  TIP3 H1   HT     0.417000        1.0080           0
   48456 WT3  618  TIP3 H2   HT     0.417000        1.0080           0
   48457 WT3  619  TIP3 OH2  OT    -0.834000       15.9994           0
   48458 WT3  619  TIP3 H1   HT     0.417000        1.0080           0
   48459 WT3  619  TIP3 H2   HT     0.417000        1.0080           0
   48460 WT3  620  TIP3 OH2  OT    -0.834000       15.9994           0
   48461 WT3  620  TIP3 H1   HT     0.417000        1.0080           0
   48462 WT3  620  TIP3 H2   HT     0.417000        1.0080           0
   48463 WT3  621  TIP3 OH2  OT    -0.834000       15.9994           0
   48464 WT3  621  TIP3 H1   HT     0.417000        1.0080           0
   48465 WT3  621  TIP3 H2   HT     0.417000        1.0080           0
   48466 WT3  623  TIP3 OH2  OT    -0.834000       15.9994           0
   48467 WT3  623  TIP3 H1   HT     0.417000        1.0080           0
   48468 WT3  623  TIP3 H2   HT     0.417000        1.0080           0
   48469 WT3  624  TIP3 OH2  OT    -0.834000       15.9994           0
   48470 WT3  624  TIP3 H1   HT     0.417000        1.0080           0
   48471 WT3  624  TIP3 H2   HT     0.417000        1.0080           0
   48472 WT3  625  TIP3 OH2  OT    -0.834000       15.9994           0
   48473 WT3  625  TIP3 H1   HT     0.417000        1.0080           0
   48474 WT3  625  TIP3 H2   HT     0.417000        1.0080           0
   48475 WT3  626  TIP3 OH2  OT    -0.834000       15.9994           0
   48476 WT3  626  TIP3 H1   HT     0.417000        1.0080           0
   48477 WT3  626  TIP3 H2   HT     0.417000        1.0080           0
   48478 WT3  630  TIP3 OH2  OT    -0.834000       15.9994           0
   48479 WT3  630  TIP3 H1   HT     0.417000        1.0080           0
   48480 WT3  630  TIP3 H2   HT     0.417000        1.0080           0
   48481 WT3  631  TIP3 OH2  OT    -0.834000       15.9994           0
   48482 WT3  631  TIP3 H1   HT     0.417000        1.0080           0
   48483 WT3  631  TIP3 H2   HT     0.417000        1.0080           0
   48484 WT3  632  TIP3 OH2  OT    -0.834000       15.9994           0
   48485 WT3  632  TIP3 H1   HT     0.417000        1.0080           0
   48486 WT3  632  TIP3 H2   HT     0.417000        1.0080           0
   48487 WT3  633  TIP3 OH2  OT    -0.834000       15.9994           0
   48488 WT3  633  TIP3 H1   HT     0.417000        1.0080           0
   48489 WT3  633  TIP3 H2   HT     0.417000        1.0080           0
   48490 WT3  634  TIP3 OH2  OT    -0.834000       15.9994           0
   48491 WT3  634  TIP3 H1   HT     0.417000        1.0080           0
   48492 WT3  634  TIP3 H2   HT     0.417000        1.0080           0
   48493 WT3  635  TIP3 OH2  OT    -0.834000       15.9994           0
   48494 WT3  635  TIP3 H1   HT     0.417000        1.0080           0
   48495 WT3  635  TIP3 H2   HT     0.417000        1.0080           0
   48496 WT3  636  TIP3 OH2  OT    -0.834000       15.9994           0
   48497 WT3  636  TIP3 H1   HT     0.417000        1.0080           0
   48498 WT3  636  TIP3 H2   HT     0.417000        1.0080           0
   48499 WT3  637  TIP3 OH2  OT    -0.834000       15.9994           0
   48500 WT3  637  TIP3 H1   HT     0.417000        1.0080           0
   48501 WT3  637  TIP3 H2   HT     0.417000        1.0080           0
   48502 WT3  638  TIP3 OH2  OT    -0.834000       15.9994           0
   48503 WT3  638  TIP3 H1   HT     0.417000        1.0080           0
   48504 WT3  638  TIP3 H2   HT     0.417000        1.0080           0
   48505 WT3  639  TIP3 OH2  OT    -0.834000       15.9994           0
   48506 WT3  639  TIP3 H1   HT     0.417000        1.0080           0
   48507 WT3  639  TIP3 H2   HT     0.417000        1.0080           0
   48508 WT3  640  TIP3 OH2  OT    -0.834000       15.9994           0
   48509 WT3  640  TIP3 H1   HT     0.417000        1.0080           0
   48510 WT3  640  TIP3 H2   HT     0.417000        1.0080           0
   48511 WT3  641  TIP3 OH2  OT    -0.834000       15.9994           0
   48512 WT3  641  TIP3 H1   HT     0.417000        1.0080           0
   48513 WT3  641  TIP3 H2   HT     0.417000        1.0080           0
   48514 WT3  642  TIP3 OH2  OT    -0.834000       15.9994           0
   48515 WT3  642  TIP3 H1   HT     0.417000        1.0080           0
   48516 WT3  642  TIP3 H2   HT     0.417000        1.0080           0
   48517 WT3  643  TIP3 OH2  OT    -0.834000       15.9994           0
   48518 WT3  643  TIP3 H1   HT     0.417000        1.0080           0
   48519 WT3  643  TIP3 H2   HT     0.417000        1.0080           0
   48520 WT3  644  TIP3 OH2  OT    -0.834000       15.9994           0
   48521 WT3  644  TIP3 H1   HT     0.417000        1.0080           0
   48522 WT3  644  TIP3 H2   HT     0.417000        1.0080           0
   48523 WT3  645  TIP3 OH2  OT    -0.834000       15.9994           0
   48524 WT3  645  TIP3 H1   HT     0.417000        1.0080           0
   48525 WT3  645  TIP3 H2   HT     0.417000        1.0080           0
   48526 WT3  648  TIP3 OH2  OT    -0.834000       15.9994           0
   48527 WT3  648  TIP3 H1   HT     0.417000        1.0080           0
   48528 WT3  648  TIP3 H2   HT     0.417000        1.0080           0
   48529 WT3  649  TIP3 OH2  OT    -0.834000       15.9994           0
   48530 WT3  649  TIP3 H1   HT     0.417000        1.0080           0
   48531 WT3  649  TIP3 H2   HT     0.417000        1.0080           0
   48532 WT3  651  TIP3 OH2  OT    -0.834000       15.9994           0
   48533 WT3  651  TIP3 H1   HT     0.417000        1.0080           0
   48534 WT3  651  TIP3 H2   HT     0.417000        1.0080           0
   48535 WT3  653  TIP3 OH2  OT    -0.834000       15.9994           0
   48536 WT3  653  TIP3 H1   HT     0.417000        1.0080           0
   48537 WT3  653  TIP3 H2   HT     0.417000        1.0080           0
   48538 WT3  655  TIP3 OH2  OT    -0.834000       15.9994           0
   48539 WT3  655  TIP3 H1   HT     0.417000        1.0080           0
   48540 WT3  655  TIP3 H2   HT     0.417000        1.0080           0
   48541 WT3  656  TIP3 OH2  OT    -0.834000       15.9994           0
   48542 WT3  656  TIP3 H1   HT     0.417000        1.0080           0
   48543 WT3  656  TIP3 H2   HT     0.417000        1.0080           0
   48544 WT3  657  TIP3 OH2  OT    -0.834000       15.9994           0
   48545 WT3  657  TIP3 H1   HT     0.417000        1.0080           0
   48546 WT3  657  TIP3 H2   HT     0.417000        1.0080           0
   48547 WT3  658  TIP3 OH2  OT    -0.834000       15.9994           0
   48548 WT3  658  TIP3 H1   HT     0.417000        1.0080           0
   48549 WT3  658  TIP3 H2   HT     0.417000        1.0080           0
   48550 WT3  659  TIP3 OH2  OT    -0.834000       15.9994           0
   48551 WT3  659  TIP3 H1   HT     0.417000        1.0080           0
   48552 WT3  659  TIP3 H2   HT     0.417000        1.0080           0
   48553 WT3  660  TIP3 OH2  OT    -0.834000       15.9994           0
   48554 WT3  660  TIP3 H1   HT     0.417000        1.0080           0
   48555 WT3  660  TIP3 H2   HT     0.417000        1.0080           0
   48556 WT3  661  TIP3 OH2  OT    -0.834000       15.9994           0
   48557 WT3  661  TIP3 H1   HT     0.417000        1.0080           0
   48558 WT3  661  TIP3 H2   HT     0.417000        1.0080           0
   48559 WT3  662  TIP3 OH2  OT    -0.834000       15.9994           0
   48560 WT3  662  TIP3 H1   HT     0.417000        1.0080           0
   48561 WT3  662  TIP3 H2   HT     0.417000        1.0080           0
   48562 WT3  663  TIP3 OH2  OT    -0.834000       15.9994           0
   48563 WT3  663  TIP3 H1   HT     0.417000        1.0080           0
   48564 WT3  663  TIP3 H2   HT     0.417000        1.0080           0
   48565 WT3  664  TIP3 OH2  OT    -0.834000       15.9994           0
   48566 WT3  664  TIP3 H1   HT     0.417000        1.0080           0
   48567 WT3  664  TIP3 H2   HT     0.417000        1.0080           0
   48568 WT3  665  TIP3 OH2  OT    -0.834000       15.9994           0
   48569 WT3  665  TIP3 H1   HT     0.417000        1.0080           0
   48570 WT3  665  TIP3 H2   HT     0.417000        1.0080           0
   48571 WT3  666  TIP3 OH2  OT    -0.834000       15.9994           0
   48572 WT3  666  TIP3 H1   HT     0.417000        1.0080           0
   48573 WT3  666  TIP3 H2   HT     0.417000        1.0080           0
   48574 WT3  667  TIP3 OH2  OT    -0.834000       15.9994           0
   48575 WT3  667  TIP3 H1   HT     0.417000        1.0080           0
   48576 WT3  667  TIP3 H2   HT     0.417000        1.0080           0
   48577 WT3  669  TIP3 OH2  OT    -0.834000       15.9994           0
   48578 WT3  669  TIP3 H1   HT     0.417000        1.0080           0
   48579 WT3  669  TIP3 H2   HT     0.417000        1.0080           0
   48580 WT3  670  TIP3 OH2  OT    -0.834000       15.9994           0
   48581 WT3  670  TIP3 H1   HT     0.417000        1.0080           0
   48582 WT3  670  TIP3 H2   HT     0.417000        1.0080           0
   48583 WT3  672  TIP3 OH2  OT    -0.834000       15.9994           0
   48584 WT3  672  TIP3 H1   HT     0.417000        1.0080           0
   48585 WT3  672  TIP3 H2   HT     0.417000        1.0080           0
   48586 WT3  674  TIP3 OH2  OT    -0.834000       15.9994           0
   48587 WT3  674  TIP3 H1   HT     0.417000        1.0080           0
   48588 WT3  674  TIP3 H2   HT     0.417000        1.0080           0
   48589 WT3  675  TIP3 OH2  OT    -0.834000       15.9994           0
   48590 WT3  675  TIP3 H1   HT     0.417000        1.0080           0
   48591 WT3  675  TIP3 H2   HT     0.417000        1.0080           0
   48592 WT3  676  TIP3 OH2  OT    -0.834000       15.9994           0
   48593 WT3  676  TIP3 H1   HT     0.417000        1.0080           0
   48594 WT3  676  TIP3 H2   HT     0.417000        1.0080           0
   48595 WT3  679  TIP3 OH2  OT    -0.834000       15.9994           0
   48596 WT3  679  TIP3 H1   HT     0.417000        1.0080           0
   48597 WT3  679  TIP3 H2   HT     0.417000        1.0080           0
   48598 WT3  680  TIP3 OH2  OT    -0.834000       15.9994           0
   48599 WT3  680  TIP3 H1   HT     0.417000        1.0080           0
   48600 WT3  680  TIP3 H2   HT     0.417000        1.0080           0
   48601 WT3  681  TIP3 OH2  OT    -0.834000       15.9994           0
   48602 WT3  681  TIP3 H1   HT     0.417000        1.0080           0
   48603 WT3  681  TIP3 H2   HT     0.417000        1.0080           0
   48604 WT3  682  TIP3 OH2  OT    -0.834000       15.9994           0
   48605 WT3  682  TIP3 H1   HT     0.417000        1.0080           0
   48606 WT3  682  TIP3 H2   HT     0.417000        1.0080           0
   48607 WT3  683  TIP3 OH2  OT    -0.834000       15.9994           0
   48608 WT3  683  TIP3 H1   HT     0.417000        1.0080           0
   48609 WT3  683  TIP3 H2   HT     0.417000        1.0080           0
   48610 WT3  684  TIP3 OH2  OT    -0.834000       15.9994           0
   48611 WT3  684  TIP3 H1   HT     0.417000        1.0080           0
   48612 WT3  684  TIP3 H2   HT     0.417000        1.0080           0
   48613 WT3  686  TIP3 OH2  OT    -0.834000       15.9994           0
   48614 WT3  686  TIP3 H1   HT     0.417000        1.0080           0
   48615 WT3  686  TIP3 H2   HT     0.417000        1.0080           0
   48616 WT3  687  TIP3 OH2  OT    -0.834000       15.9994           0
   48617 WT3  687  TIP3 H1   HT     0.417000        1.0080           0
   48618 WT3  687  TIP3 H2   HT     0.417000        1.0080           0
   48619 WT3  690  TIP3 OH2  OT    -0.834000       15.9994           0
   48620 WT3  690  TIP3 H1   HT     0.417000        1.0080           0
   48621 WT3  690  TIP3 H2   HT     0.417000        1.0080           0
   48622 WT3  693  TIP3 OH2  OT    -0.834000       15.9994           0
   48623 WT3  693  TIP3 H1   HT     0.417000        1.0080           0
   48624 WT3  693  TIP3 H2   HT     0.417000        1.0080           0
   48625 WT3  695  TIP3 OH2  OT    -0.834000       15.9994           0
   48626 WT3  695  TIP3 H1   HT     0.417000        1.0080           0
   48627 WT3  695  TIP3 H2   HT     0.417000        1.0080           0
   48628 WT3  697  TIP3 OH2  OT    -0.834000       15.9994           0
   48629 WT3  697  TIP3 H1   HT     0.417000        1.0080           0
   48630 WT3  697  TIP3 H2   HT     0.417000        1.0080           0
   48631 WT3  698  TIP3 OH2  OT    -0.834000       15.9994           0
   48632 WT3  698  TIP3 H1   HT     0.417000        1.0080           0
   48633 WT3  698  TIP3 H2   HT     0.417000        1.0080           0
   48634 WT3  699  TIP3 OH2  OT    -0.834000       15.9994           0
   48635 WT3  699  TIP3 H1   HT     0.417000        1.0080           0
   48636 WT3  699  TIP3 H2   HT     0.417000        1.0080           0
   48637 WT3  700  TIP3 OH2  OT    -0.834000       15.9994           0
   48638 WT3  700  TIP3 H1   HT     0.417000        1.0080           0
   48639 WT3  700  TIP3 H2   HT     0.417000        1.0080           0
   48640 WT3  701  TIP3 OH2  OT    -0.834000       15.9994           0
   48641 WT3  701  TIP3 H1   HT     0.417000        1.0080           0
   48642 WT3  701  TIP3 H2   HT     0.417000        1.0080           0
   48643 WT3  702  TIP3 OH2  OT    -0.834000       15.9994           0
   48644 WT3  702  TIP3 H1   HT     0.417000        1.0080           0
   48645 WT3  702  TIP3 H2   HT     0.417000        1.0080           0
   48646 WT3  703  TIP3 OH2  OT    -0.834000       15.9994           0
   48647 WT3  703  TIP3 H1   HT     0.417000        1.0080           0
   48648 WT3  703  TIP3 H2   HT     0.417000        1.0080           0
   48649 WT3  704  TIP3 OH2  OT    -0.834000       15.9994           0
   48650 WT3  704  TIP3 H1   HT     0.417000        1.0080           0
   48651 WT3  704  TIP3 H2   HT     0.417000        1.0080           0
   48652 WT3  705  TIP3 OH2  OT    -0.834000       15.9994           0
   48653 WT3  705  TIP3 H1   HT     0.417000        1.0080           0
   48654 WT3  705  TIP3 H2   HT     0.417000        1.0080           0
   48655 WT3  707  TIP3 OH2  OT    -0.834000       15.9994           0
   48656 WT3  707  TIP3 H1   HT     0.417000        1.0080           0
   48657 WT3  707  TIP3 H2   HT     0.417000        1.0080           0
   48658 WT3  708  TIP3 OH2  OT    -0.834000       15.9994           0
   48659 WT3  708  TIP3 H1   HT     0.417000        1.0080           0
   48660 WT3  708  TIP3 H2   HT     0.417000        1.0080           0
   48661 WT3  709  TIP3 OH2  OT    -0.834000       15.9994           0
   48662 WT3  709  TIP3 H1   HT     0.417000        1.0080           0
   48663 WT3  709  TIP3 H2   HT     0.417000        1.0080           0
   48664 WT3  710  TIP3 OH2  OT    -0.834000       15.9994           0
   48665 WT3  710  TIP3 H1   HT     0.417000        1.0080           0
   48666 WT3  710  TIP3 H2   HT     0.417000        1.0080           0
   48667 WT3  711  TIP3 OH2  OT    -0.834000       15.9994           0
   48668 WT3  711  TIP3 H1   HT     0.417000        1.0080           0
   48669 WT3  711  TIP3 H2   HT     0.417000        1.0080           0
   48670 WT3  712  TIP3 OH2  OT    -0.834000       15.9994           0
   48671 WT3  712  TIP3 H1   HT     0.417000        1.0080           0
   48672 WT3  712  TIP3 H2   HT     0.417000        1.0080           0
   48673 WT3  713  TIP3 OH2  OT    -0.834000       15.9994           0
   48674 WT3  713  TIP3 H1   HT     0.417000        1.0080           0
   48675 WT3  713  TIP3 H2   HT     0.417000        1.0080           0
   48676 WT3  716  TIP3 OH2  OT    -0.834000       15.9994           0
   48677 WT3  716  TIP3 H1   HT     0.417000        1.0080           0
   48678 WT3  716  TIP3 H2   HT     0.417000        1.0080           0
   48679 WT3  718  TIP3 OH2  OT    -0.834000       15.9994           0
   48680 WT3  718  TIP3 H1   HT     0.417000        1.0080           0
   48681 WT3  718  TIP3 H2   HT     0.417000        1.0080           0
   48682 WT3  719  TIP3 OH2  OT    -0.834000       15.9994           0
   48683 WT3  719  TIP3 H1   HT     0.417000        1.0080           0
   48684 WT3  719  TIP3 H2   HT     0.417000        1.0080           0
   48685 WT3  720  TIP3 OH2  OT    -0.834000       15.9994           0
   48686 WT3  720  TIP3 H1   HT     0.417000        1.0080           0
   48687 WT3  720  TIP3 H2   HT     0.417000        1.0080           0
   48688 WT3  721  TIP3 OH2  OT    -0.834000       15.9994           0
   48689 WT3  721  TIP3 H1   HT     0.417000        1.0080           0
   48690 WT3  721  TIP3 H2   HT     0.417000        1.0080           0
   48691 WT3  722  TIP3 OH2  OT    -0.834000       15.9994           0
   48692 WT3  722  TIP3 H1   HT     0.417000        1.0080           0
   48693 WT3  722  TIP3 H2   HT     0.417000        1.0080           0
   48694 WT3  724  TIP3 OH2  OT    -0.834000       15.9994           0
   48695 WT3  724  TIP3 H1   HT     0.417000        1.0080           0
   48696 WT3  724  TIP3 H2   HT     0.417000        1.0080           0
   48697 WT3  725  TIP3 OH2  OT    -0.834000       15.9994           0
   48698 WT3  725  TIP3 H1   HT     0.417000        1.0080           0
   48699 WT3  725  TIP3 H2   HT     0.417000        1.0080           0
   48700 WT3  726  TIP3 OH2  OT    -0.834000       15.9994           0
   48701 WT3  726  TIP3 H1   HT     0.417000        1.0080           0
   48702 WT3  726  TIP3 H2   HT     0.417000        1.0080           0
   48703 WT3  733  TIP3 OH2  OT    -0.834000       15.9994           0
   48704 WT3  733  TIP3 H1   HT     0.417000        1.0080           0
   48705 WT3  733  TIP3 H2   HT     0.417000        1.0080           0
   48706 WT3  736  TIP3 OH2  OT    -0.834000       15.9994           0
   48707 WT3  736  TIP3 H1   HT     0.417000        1.0080           0
   48708 WT3  736  TIP3 H2   HT     0.417000        1.0080           0
   48709 WT3  737  TIP3 OH2  OT    -0.834000       15.9994           0
   48710 WT3  737  TIP3 H1   HT     0.417000        1.0080           0
   48711 WT3  737  TIP3 H2   HT     0.417000        1.0080           0
   48712 WT3  738  TIP3 OH2  OT    -0.834000       15.9994           0
   48713 WT3  738  TIP3 H1   HT     0.417000        1.0080           0
   48714 WT3  738  TIP3 H2   HT     0.417000        1.0080           0
   48715 WT3  739  TIP3 OH2  OT    -0.834000       15.9994           0
   48716 WT3  739  TIP3 H1   HT     0.417000        1.0080           0
   48717 WT3  739  TIP3 H2   HT     0.417000        1.0080           0
   48718 WT3  741  TIP3 OH2  OT    -0.834000       15.9994           0
   48719 WT3  741  TIP3 H1   HT     0.417000        1.0080           0
   48720 WT3  741  TIP3 H2   HT     0.417000        1.0080           0
   48721 WT3  742  TIP3 OH2  OT    -0.834000       15.9994           0
   48722 WT3  742  TIP3 H1   HT     0.417000        1.0080           0
   48723 WT3  742  TIP3 H2   HT     0.417000        1.0080           0
   48724 WT3  746  TIP3 OH2  OT    -0.834000       15.9994           0
   48725 WT3  746  TIP3 H1   HT     0.417000        1.0080           0
   48726 WT3  746  TIP3 H2   HT     0.417000        1.0080           0
   48727 WT3  747  TIP3 OH2  OT    -0.834000       15.9994           0
   48728 WT3  747  TIP3 H1   HT     0.417000        1.0080           0
   48729 WT3  747  TIP3 H2   HT     0.417000        1.0080           0
   48730 WT3  748  TIP3 OH2  OT    -0.834000       15.9994           0
   48731 WT3  748  TIP3 H1   HT     0.417000        1.0080           0
   48732 WT3  748  TIP3 H2   HT     0.417000        1.0080           0
   48733 WT3  758  TIP3 OH2  OT    -0.834000       15.9994           0
   48734 WT3  758  TIP3 H1   HT     0.417000        1.0080           0
   48735 WT3  758  TIP3 H2   HT     0.417000        1.0080           0
   48736 WT3  759  TIP3 OH2  OT    -0.834000       15.9994           0
   48737 WT3  759  TIP3 H1   HT     0.417000        1.0080           0
   48738 WT3  759  TIP3 H2   HT     0.417000        1.0080           0
   48739 WT3  762  TIP3 OH2  OT    -0.834000       15.9994           0
   48740 WT3  762  TIP3 H1   HT     0.417000        1.0080           0
   48741 WT3  762  TIP3 H2   HT     0.417000        1.0080           0
   48742 WT3  772  TIP3 OH2  OT    -0.834000       15.9994           0
   48743 WT3  772  TIP3 H1   HT     0.417000        1.0080           0
   48744 WT3  772  TIP3 H2   HT     0.417000        1.0080           0
   48745 WT3  778  TIP3 OH2  OT    -0.834000       15.9994           0
   48746 WT3  778  TIP3 H1   HT     0.417000        1.0080           0
   48747 WT3  778  TIP3 H2   HT     0.417000        1.0080           0
   48748 WT3  784  TIP3 OH2  OT    -0.834000       15.9994           0
   48749 WT3  784  TIP3 H1   HT     0.417000        1.0080           0
   48750 WT3  784  TIP3 H2   HT     0.417000        1.0080           0
   48751 WT3  785  TIP3 OH2  OT    -0.834000       15.9994           0
   48752 WT3  785  TIP3 H1   HT     0.417000        1.0080           0
   48753 WT3  785  TIP3 H2   HT     0.417000        1.0080           0
   48754 WT3  787  TIP3 OH2  OT    -0.834000       15.9994           0
   48755 WT3  787  TIP3 H1   HT     0.417000        1.0080           0
   48756 WT3  787  TIP3 H2   HT     0.417000        1.0080           0
   48757 WT3  789  TIP3 OH2  OT    -0.834000       15.9994           0
   48758 WT3  789  TIP3 H1   HT     0.417000        1.0080           0
   48759 WT3  789  TIP3 H2   HT     0.417000        1.0080           0
   48760 WT3  793  TIP3 OH2  OT    -0.834000       15.9994           0
   48761 WT3  793  TIP3 H1   HT     0.417000        1.0080           0
   48762 WT3  793  TIP3 H2   HT     0.417000        1.0080           0
   48763 WT3  796  TIP3 OH2  OT    -0.834000       15.9994           0
   48764 WT3  796  TIP3 H1   HT     0.417000        1.0080           0
   48765 WT3  796  TIP3 H2   HT     0.417000        1.0080           0
   48766 WT3  805  TIP3 OH2  OT    -0.834000       15.9994           0
   48767 WT3  805  TIP3 H1   HT     0.417000        1.0080           0
   48768 WT3  805  TIP3 H2   HT     0.417000        1.0080           0
   48769 WT3  806  TIP3 OH2  OT    -0.834000       15.9994           0
   48770 WT3  806  TIP3 H1   HT     0.417000        1.0080           0
   48771 WT3  806  TIP3 H2   HT     0.417000        1.0080           0
   48772 WT3  813  TIP3 OH2  OT    -0.834000       15.9994           0
   48773 WT3  813  TIP3 H1   HT     0.417000        1.0080           0
   48774 WT3  813  TIP3 H2   HT     0.417000        1.0080           0
   48775 WT3  821  TIP3 OH2  OT    -0.834000       15.9994           0
   48776 WT3  821  TIP3 H1   HT     0.417000        1.0080           0
   48777 WT3  821  TIP3 H2   HT     0.417000        1.0080           0
   48778 WT3  822  TIP3 OH2  OT    -0.834000       15.9994           0
   48779 WT3  822  TIP3 H1   HT     0.417000        1.0080           0
   48780 WT3  822  TIP3 H2   HT     0.417000        1.0080           0
   48781 WT3  825  TIP3 OH2  OT    -0.834000       15.9994           0
   48782 WT3  825  TIP3 H1   HT     0.417000        1.0080           0
   48783 WT3  825  TIP3 H2   HT     0.417000        1.0080           0
   48784 WT3  835  TIP3 OH2  OT    -0.834000       15.9994           0
   48785 WT3  835  TIP3 H1   HT     0.417000        1.0080           0
   48786 WT3  835  TIP3 H2   HT     0.417000        1.0080           0
   48787 WT3  836  TIP3 OH2  OT    -0.834000       15.9994           0
   48788 WT3  836  TIP3 H1   HT     0.417000        1.0080           0
   48789 WT3  836  TIP3 H2   HT     0.417000        1.0080           0
   48790 WT3  848  TIP3 OH2  OT    -0.834000       15.9994           0
   48791 WT3  848  TIP3 H1   HT     0.417000        1.0080           0
   48792 WT3  848  TIP3 H2   HT     0.417000        1.0080           0
   48793 WT3  849  TIP3 OH2  OT    -0.834000       15.9994           0
   48794 WT3  849  TIP3 H1   HT     0.417000        1.0080           0
   48795 WT3  849  TIP3 H2   HT     0.417000        1.0080           0
   48796 WT3  852  TIP3 OH2  OT    -0.834000       15.9994           0
   48797 WT3  852  TIP3 H1   HT     0.417000        1.0080           0
   48798 WT3  852  TIP3 H2   HT     0.417000        1.0080           0
   48799 WT3  854  TIP3 OH2  OT    -0.834000       15.9994           0
   48800 WT3  854  TIP3 H1   HT     0.417000        1.0080           0
   48801 WT3  854  TIP3 H2   HT     0.417000        1.0080           0
   48802 WT3  855  TIP3 OH2  OT    -0.834000       15.9994           0
   48803 WT3  855  TIP3 H1   HT     0.417000        1.0080           0
   48804 WT3  855  TIP3 H2   HT     0.417000        1.0080           0
   48805 WT3  858  TIP3 OH2  OT    -0.834000       15.9994           0
   48806 WT3  858  TIP3 H1   HT     0.417000        1.0080           0
   48807 WT3  858  TIP3 H2   HT     0.417000        1.0080           0
   48808 WT3  866  TIP3 OH2  OT    -0.834000       15.9994           0
   48809 WT3  866  TIP3 H1   HT     0.417000        1.0080           0
   48810 WT3  866  TIP3 H2   HT     0.417000        1.0080           0
   48811 WT3  867  TIP3 OH2  OT    -0.834000       15.9994           0
   48812 WT3  867  TIP3 H1   HT     0.417000        1.0080           0
   48813 WT3  867  TIP3 H2   HT     0.417000        1.0080           0
   48814 WT3  879  TIP3 OH2  OT    -0.834000       15.9994           0
   48815 WT3  879  TIP3 H1   HT     0.417000        1.0080           0
   48816 WT3  879  TIP3 H2   HT     0.417000        1.0080           0
   48817 WT3  886  TIP3 OH2  OT    -0.834000       15.9994           0
   48818 WT3  886  TIP3 H1   HT     0.417000        1.0080           0
   48819 WT3  886  TIP3 H2   HT     0.417000        1.0080           0
   48820 WT3  887  TIP3 OH2  OT    -0.834000       15.9994           0
   48821 WT3  887  TIP3 H1   HT     0.417000        1.0080           0
   48822 WT3  887  TIP3 H2   HT     0.417000        1.0080           0
   48823 WT3  889  TIP3 OH2  OT    -0.834000       15.9994           0
   48824 WT3  889  TIP3 H1   HT     0.417000        1.0080           0
   48825 WT3  889  TIP3 H2   HT     0.417000        1.0080           0
   48826 WT3  890  TIP3 OH2  OT    -0.834000       15.9994           0
   48827 WT3  890  TIP3 H1   HT     0.417000        1.0080           0
   48828 WT3  890  TIP3 H2   HT     0.417000        1.0080           0
   48829 WT3  891  TIP3 OH2  OT    -0.834000       15.9994           0
   48830 WT3  891  TIP3 H1   HT     0.417000        1.0080           0
   48831 WT3  891  TIP3 H2   HT     0.417000        1.0080           0
   48832 WT3  894  TIP3 OH2  OT    -0.834000       15.9994           0
   48833 WT3  894  TIP3 H1   HT     0.417000        1.0080           0
   48834 WT3  894  TIP3 H2   HT     0.417000        1.0080           0
   48835 WT3  895  TIP3 OH2  OT    -0.834000       15.9994           0
   48836 WT3  895  TIP3 H1   HT     0.417000        1.0080           0
   48837 WT3  895  TIP3 H2   HT     0.417000        1.0080           0
   48838 WT3  897  TIP3 OH2  OT    -0.834000       15.9994           0
   48839 WT3  897  TIP3 H1   HT     0.417000        1.0080           0
   48840 WT3  897  TIP3 H2   HT     0.417000        1.0080           0
   48841 WT3  899  TIP3 OH2  OT    -0.834000       15.9994           0
   48842 WT3  899  TIP3 H1   HT     0.417000        1.0080           0
   48843 WT3  899  TIP3 H2   HT     0.417000        1.0080           0
   48844 WT3  906  TIP3 OH2  OT    -0.834000       15.9994           0
   48845 WT3  906  TIP3 H1   HT     0.417000        1.0080           0
   48846 WT3  906  TIP3 H2   HT     0.417000        1.0080           0
   48847 WT3  907  TIP3 OH2  OT    -0.834000       15.9994           0
   48848 WT3  907  TIP3 H1   HT     0.417000        1.0080           0
   48849 WT3  907  TIP3 H2   HT     0.417000        1.0080           0
   48850 WT3  908  TIP3 OH2  OT    -0.834000       15.9994           0
   48851 WT3  908  TIP3 H1   HT     0.417000        1.0080           0
   48852 WT3  908  TIP3 H2   HT     0.417000        1.0080           0
   48853 WT3  911  TIP3 OH2  OT    -0.834000       15.9994           0
   48854 WT3  911  TIP3 H1   HT     0.417000        1.0080           0
   48855 WT3  911  TIP3 H2   HT     0.417000        1.0080           0
   48856 WT3  912  TIP3 OH2  OT    -0.834000       15.9994           0
   48857 WT3  912  TIP3 H1   HT     0.417000        1.0080           0
   48858 WT3  912  TIP3 H2   HT     0.417000        1.0080           0
   48859 WT3  916  TIP3 OH2  OT    -0.834000       15.9994           0
   48860 WT3  916  TIP3 H1   HT     0.417000        1.0080           0
   48861 WT3  916  TIP3 H2   HT     0.417000        1.0080           0
   48862 WT3  917  TIP3 OH2  OT    -0.834000       15.9994           0
   48863 WT3  917  TIP3 H1   HT     0.417000        1.0080           0
   48864 WT3  917  TIP3 H2   HT     0.417000        1.0080           0
   48865 WT3  918  TIP3 OH2  OT    -0.834000       15.9994           0
   48866 WT3  918  TIP3 H1   HT     0.417000        1.0080           0
   48867 WT3  918  TIP3 H2   HT     0.417000        1.0080           0
   48868 WT3  921  TIP3 OH2  OT    -0.834000       15.9994           0
   48869 WT3  921  TIP3 H1   HT     0.417000        1.0080           0
   48870 WT3  921  TIP3 H2   HT     0.417000        1.0080           0
   48871 WT3  924  TIP3 OH2  OT    -0.834000       15.9994           0
   48872 WT3  924  TIP3 H1   HT     0.417000        1.0080           0
   48873 WT3  924  TIP3 H2   HT     0.417000        1.0080           0
   48874 WT3  927  TIP3 OH2  OT    -0.834000       15.9994           0
   48875 WT3  927  TIP3 H1   HT     0.417000        1.0080           0
   48876 WT3  927  TIP3 H2   HT     0.417000        1.0080           0
   48877 WT3  928  TIP3 OH2  OT    -0.834000       15.9994           0
   48878 WT3  928  TIP3 H1   HT     0.417000        1.0080           0
   48879 WT3  928  TIP3 H2   HT     0.417000        1.0080           0
   48880 WT3  929  TIP3 OH2  OT    -0.834000       15.9994           0
   48881 WT3  929  TIP3 H1   HT     0.417000        1.0080           0
   48882 WT3  929  TIP3 H2   HT     0.417000        1.0080           0
   48883 WT3  930  TIP3 OH2  OT    -0.834000       15.9994           0
   48884 WT3  930  TIP3 H1   HT     0.417000        1.0080           0
   48885 WT3  930  TIP3 H2   HT     0.417000        1.0080           0
   48886 WT3  932  TIP3 OH2  OT    -0.834000       15.9994           0
   48887 WT3  932  TIP3 H1   HT     0.417000        1.0080           0
   48888 WT3  932  TIP3 H2   HT     0.417000        1.0080           0
   48889 WT3  933  TIP3 OH2  OT    -0.834000       15.9994           0
   48890 WT3  933  TIP3 H1   HT     0.417000        1.0080           0
   48891 WT3  933  TIP3 H2   HT     0.417000        1.0080           0
   48892 WT3  936  TIP3 OH2  OT    -0.834000       15.9994           0
   48893 WT3  936  TIP3 H1   HT     0.417000        1.0080           0
   48894 WT3  936  TIP3 H2   HT     0.417000        1.0080           0
   48895 WT3  937  TIP3 OH2  OT    -0.834000       15.9994           0
   48896 WT3  937  TIP3 H1   HT     0.417000        1.0080           0
   48897 WT3  937  TIP3 H2   HT     0.417000        1.0080           0
   48898 WT3  939  TIP3 OH2  OT    -0.834000       15.9994           0
   48899 WT3  939  TIP3 H1   HT     0.417000        1.0080           0
   48900 WT3  939  TIP3 H2   HT     0.417000        1.0080           0
   48901 WT3  940  TIP3 OH2  OT    -0.834000       15.9994           0
   48902 WT3  940  TIP3 H1   HT     0.417000        1.0080           0
   48903 WT3  940  TIP3 H2   HT     0.417000        1.0080           0
   48904 WT3  941  TIP3 OH2  OT    -0.834000       15.9994           0
   48905 WT3  941  TIP3 H1   HT     0.417000        1.0080           0
   48906 WT3  941  TIP3 H2   HT     0.417000        1.0080           0
   48907 WT3  942  TIP3 OH2  OT    -0.834000       15.9994           0
   48908 WT3  942  TIP3 H1   HT     0.417000        1.0080           0
   48909 WT3  942  TIP3 H2   HT     0.417000        1.0080           0
   48910 WT3  944  TIP3 OH2  OT    -0.834000       15.9994           0
   48911 WT3  944  TIP3 H1   HT     0.417000        1.0080           0
   48912 WT3  944  TIP3 H2   HT     0.417000        1.0080           0
   48913 WT3  946  TIP3 OH2  OT    -0.834000       15.9994           0
   48914 WT3  946  TIP3 H1   HT     0.417000        1.0080           0
   48915 WT3  946  TIP3 H2   HT     0.417000        1.0080           0
   48916 WT3  947  TIP3 OH2  OT    -0.834000       15.9994           0
   48917 WT3  947  TIP3 H1   HT     0.417000        1.0080           0
   48918 WT3  947  TIP3 H2   HT     0.417000        1.0080           0
   48919 WT3  948  TIP3 OH2  OT    -0.834000       15.9994           0
   48920 WT3  948  TIP3 H1   HT     0.417000        1.0080           0
   48921 WT3  948  TIP3 H2   HT     0.417000        1.0080           0
   48922 WT3  949  TIP3 OH2  OT    -0.834000       15.9994           0
   48923 WT3  949  TIP3 H1   HT     0.417000        1.0080           0
   48924 WT3  949  TIP3 H2   HT     0.417000        1.0080           0
   48925 WT3  950  TIP3 OH2  OT    -0.834000       15.9994           0
   48926 WT3  950  TIP3 H1   HT     0.417000        1.0080           0
   48927 WT3  950  TIP3 H2   HT     0.417000        1.0080           0
   48928 WT3  951  TIP3 OH2  OT    -0.834000       15.9994           0
   48929 WT3  951  TIP3 H1   HT     0.417000        1.0080           0
   48930 WT3  951  TIP3 H2   HT     0.417000        1.0080           0
   48931 WT3  952  TIP3 OH2  OT    -0.834000       15.9994           0
   48932 WT3  952  TIP3 H1   HT     0.417000        1.0080           0
   48933 WT3  952  TIP3 H2   HT     0.417000        1.0080           0
   48934 WT3  953  TIP3 OH2  OT    -0.834000       15.9994           0
   48935 WT3  953  TIP3 H1   HT     0.417000        1.0080           0
   48936 WT3  953  TIP3 H2   HT     0.417000        1.0080           0
   48937 WT3  954  TIP3 OH2  OT    -0.834000       15.9994           0
   48938 WT3  954  TIP3 H1   HT     0.417000        1.0080           0
   48939 WT3  954  TIP3 H2   HT     0.417000        1.0080           0
   48940 WT3  956  TIP3 OH2  OT    -0.834000       15.9994           0
   48941 WT3  956  TIP3 H1   HT     0.417000        1.0080           0
   48942 WT3  956  TIP3 H2   HT     0.417000        1.0080           0
   48943 WT3  957  TIP3 OH2  OT    -0.834000       15.9994           0
   48944 WT3  957  TIP3 H1   HT     0.417000        1.0080           0
   48945 WT3  957  TIP3 H2   HT     0.417000        1.0080           0
   48946 WT3  958  TIP3 OH2  OT    -0.834000       15.9994           0
   48947 WT3  958  TIP3 H1   HT     0.417000        1.0080           0
   48948 WT3  958  TIP3 H2   HT     0.417000        1.0080           0
   48949 WT3  961  TIP3 OH2  OT    -0.834000       15.9994           0
   48950 WT3  961  TIP3 H1   HT     0.417000        1.0080           0
   48951 WT3  961  TIP3 H2   HT     0.417000        1.0080           0
   48952 WT3  962  TIP3 OH2  OT    -0.834000       15.9994           0
   48953 WT3  962  TIP3 H1   HT     0.417000        1.0080           0
   48954 WT3  962  TIP3 H2   HT     0.417000        1.0080           0
   48955 WT3  964  TIP3 OH2  OT    -0.834000       15.9994           0
   48956 WT3  964  TIP3 H1   HT     0.417000        1.0080           0
   48957 WT3  964  TIP3 H2   HT     0.417000        1.0080           0
   48958 WT3  966  TIP3 OH2  OT    -0.834000       15.9994           0
   48959 WT3  966  TIP3 H1   HT     0.417000        1.0080           0
   48960 WT3  966  TIP3 H2   HT     0.417000        1.0080           0
   48961 WT3  967  TIP3 OH2  OT    -0.834000       15.9994           0
   48962 WT3  967  TIP3 H1   HT     0.417000        1.0080           0
   48963 WT3  967  TIP3 H2   HT     0.417000        1.0080           0
   48964 WT3  970  TIP3 OH2  OT    -0.834000       15.9994           0
   48965 WT3  970  TIP3 H1   HT     0.417000        1.0080           0
   48966 WT3  970  TIP3 H2   HT     0.417000        1.0080           0
   48967 WT3  971  TIP3 OH2  OT    -0.834000       15.9994           0
   48968 WT3  971  TIP3 H1   HT     0.417000        1.0080           0
   48969 WT3  971  TIP3 H2   HT     0.417000        1.0080           0
   48970 WT3  972  TIP3 OH2  OT    -0.834000       15.9994           0
   48971 WT3  972  TIP3 H1   HT     0.417000        1.0080           0
   48972 WT3  972  TIP3 H2   HT     0.417000        1.0080           0
   48973 WT3  973  TIP3 OH2  OT    -0.834000       15.9994           0
   48974 WT3  973  TIP3 H1   HT     0.417000        1.0080           0
   48975 WT3  973  TIP3 H2   HT     0.417000        1.0080           0
   48976 WT3  974  TIP3 OH2  OT    -0.834000       15.9994           0
   48977 WT3  974  TIP3 H1   HT     0.417000        1.0080           0
   48978 WT3  974  TIP3 H2   HT     0.417000        1.0080           0
   48979 WT3  975  TIP3 OH2  OT    -0.834000       15.9994           0
   48980 WT3  975  TIP3 H1   HT     0.417000        1.0080           0
   48981 WT3  975  TIP3 H2   HT     0.417000        1.0080           0
   48982 WT3  976  TIP3 OH2  OT    -0.834000       15.9994           0
   48983 WT3  976  TIP3 H1   HT     0.417000        1.0080           0
   48984 WT3  976  TIP3 H2   HT     0.417000        1.0080           0
   48985 WT3  977  TIP3 OH2  OT    -0.834000       15.9994           0
   48986 WT3  977  TIP3 H1   HT     0.417000        1.0080           0
   48987 WT3  977  TIP3 H2   HT     0.417000        1.0080           0
   48988 WT3  978  TIP3 OH2  OT    -0.834000       15.9994           0
   48989 WT3  978  TIP3 H1   HT     0.417000        1.0080           0
   48990 WT3  978  TIP3 H2   HT     0.417000        1.0080           0
   48991 WT3  979  TIP3 OH2  OT    -0.834000       15.9994           0
   48992 WT3  979  TIP3 H1   HT     0.417000        1.0080           0
   48993 WT3  979  TIP3 H2   HT     0.417000        1.0080           0
   48994 WT3  982  TIP3 OH2  OT    -0.834000       15.9994           0
   48995 WT3  982  TIP3 H1   HT     0.417000        1.0080           0
   48996 WT3  982  TIP3 H2   HT     0.417000        1.0080           0
   48997 WT3  983  TIP3 OH2  OT    -0.834000       15.9994           0
   48998 WT3  983  TIP3 H1   HT     0.417000        1.0080           0
   48999 WT3  983  TIP3 H2   HT     0.417000        1.0080           0
   49000 WT3  984  TIP3 OH2  OT    -0.834000       15.9994           0
   49001 WT3  984  TIP3 H1   HT     0.417000        1.0080           0
   49002 WT3  984  TIP3 H2   HT     0.417000        1.0080           0
   49003 WT3  985  TIP3 OH2  OT    -0.834000       15.9994           0
   49004 WT3  985  TIP3 H1   HT     0.417000        1.0080           0
   49005 WT3  985  TIP3 H2   HT     0.417000        1.0080           0
   49006 WT3  988  TIP3 OH2  OT    -0.834000       15.9994           0
   49007 WT3  988  TIP3 H1   HT     0.417000        1.0080           0
   49008 WT3  988  TIP3 H2   HT     0.417000        1.0080           0
   49009 WT3  989  TIP3 OH2  OT    -0.834000       15.9994           0
   49010 WT3  989  TIP3 H1   HT     0.417000        1.0080           0
   49011 WT3  989  TIP3 H2   HT     0.417000        1.0080           0
   49012 WT3  990  TIP3 OH2  OT    -0.834000       15.9994           0
   49013 WT3  990  TIP3 H1   HT     0.417000        1.0080           0
   49014 WT3  990  TIP3 H2   HT     0.417000        1.0080           0
   49015 WT3  991  TIP3 OH2  OT    -0.834000       15.9994           0
   49016 WT3  991  TIP3 H1   HT     0.417000        1.0080           0
   49017 WT3  991  TIP3 H2   HT     0.417000        1.0080           0
   49018 WT3  992  TIP3 OH2  OT    -0.834000       15.9994           0
   49019 WT3  992  TIP3 H1   HT     0.417000        1.0080           0
   49020 WT3  992  TIP3 H2   HT     0.417000        1.0080           0
   49021 WT3  993  TIP3 OH2  OT    -0.834000       15.9994           0
   49022 WT3  993  TIP3 H1   HT     0.417000        1.0080           0
   49023 WT3  993  TIP3 H2   HT     0.417000        1.0080           0
   49024 WT3  994  TIP3 OH2  OT    -0.834000       15.9994           0
   49025 WT3  994  TIP3 H1   HT     0.417000        1.0080           0
   49026 WT3  994  TIP3 H2   HT     0.417000        1.0080           0
   49027 WT3  995  TIP3 OH2  OT    -0.834000       15.9994           0
   49028 WT3  995  TIP3 H1   HT     0.417000        1.0080           0
   49029 WT3  995  TIP3 H2   HT     0.417000        1.0080           0
   49030 WT3  996  TIP3 OH2  OT    -0.834000       15.9994           0
   49031 WT3  996  TIP3 H1   HT     0.417000        1.0080           0
   49032 WT3  996  TIP3 H2   HT     0.417000        1.0080           0
   49033 WT3  997  TIP3 OH2  OT    -0.834000       15.9994           0
   49034 WT3  997  TIP3 H1   HT     0.417000        1.0080           0
   49035 WT3  997  TIP3 H2   HT     0.417000        1.0080           0
   49036 WT3  998  TIP3 OH2  OT    -0.834000       15.9994           0
   49037 WT3  998  TIP3 H1   HT     0.417000        1.0080           0
   49038 WT3  998  TIP3 H2   HT     0.417000        1.0080           0
   49039 WT3  999  TIP3 OH2  OT    -0.834000       15.9994           0
   49040 WT3  999  TIP3 H1   HT     0.417000        1.0080           0
   49041 WT3  999  TIP3 H2   HT     0.417000        1.0080           0
   49042 WT3  1000 TIP3 OH2  OT    -0.834000       15.9994           0
   49043 WT3  1000 TIP3 H1   HT     0.417000        1.0080           0
   49044 WT3  1000 TIP3 H2   HT     0.417000        1.0080           0
   49045 WT3  1001 TIP3 OH2  OT    -0.834000       15.9994           0
   49046 WT3  1001 TIP3 H1   HT     0.417000        1.0080           0
   49047 WT3  1001 TIP3 H2   HT     0.417000        1.0080           0
   49048 WT3  1002 TIP3 OH2  OT    -0.834000       15.9994           0
   49049 WT3  1002 TIP3 H1   HT     0.417000        1.0080           0
   49050 WT3  1002 TIP3 H2   HT     0.417000        1.0080           0
   49051 WT3  1003 TIP3 OH2  OT    -0.834000       15.9994           0
   49052 WT3  1003 TIP3 H1   HT     0.417000        1.0080           0
   49053 WT3  1003 TIP3 H2   HT     0.417000        1.0080           0
   49054 WT3  1004 TIP3 OH2  OT    -0.834000       15.9994           0
   49055 WT3  1004 TIP3 H1   HT     0.417000        1.0080           0
   49056 WT3  1004 TIP3 H2   HT     0.417000        1.0080           0
   49057 WT3  1005 TIP3 OH2  OT    -0.834000       15.9994           0
   49058 WT3  1005 TIP3 H1   HT     0.417000        1.0080           0
   49059 WT3  1005 TIP3 H2   HT     0.417000        1.0080           0
   49060 WT3  1006 TIP3 OH2  OT    -0.834000       15.9994           0
   49061 WT3  1006 TIP3 H1   HT     0.417000        1.0080           0
   49062 WT3  1006 TIP3 H2   HT     0.417000        1.0080           0
   49063 WT3  1007 TIP3 OH2  OT    -0.834000       15.9994           0
   49064 WT3  1007 TIP3 H1   HT     0.417000        1.0080           0
   49065 WT3  1007 TIP3 H2   HT     0.417000        1.0080           0
   49066 WT3  1008 TIP3 OH2  OT    -0.834000       15.9994           0
   49067 WT3  1008 TIP3 H1   HT     0.417000        1.0080           0
   49068 WT3  1008 TIP3 H2   HT     0.417000        1.0080           0
   49069 WT3  1009 TIP3 OH2  OT    -0.834000       15.9994           0
   49070 WT3  1009 TIP3 H1   HT     0.417000        1.0080           0
   49071 WT3  1009 TIP3 H2   HT     0.417000        1.0080           0
   49072 WT3  1010 TIP3 OH2  OT    -0.834000       15.9994           0
   49073 WT3  1010 TIP3 H1   HT     0.417000        1.0080           0
   49074 WT3  1010 TIP3 H2   HT     0.417000        1.0080           0
   49075 WT3  1011 TIP3 OH2  OT    -0.834000       15.9994           0
   49076 WT3  1011 TIP3 H1   HT     0.417000        1.0080           0
   49077 WT3  1011 TIP3 H2   HT     0.417000        1.0080           0
   49078 WT3  1012 TIP3 OH2  OT    -0.834000       15.9994           0
   49079 WT3  1012 TIP3 H1   HT     0.417000        1.0080           0
   49080 WT3  1012 TIP3 H2   HT     0.417000        1.0080           0
   49081 WT3  1013 TIP3 OH2  OT    -0.834000       15.9994           0
   49082 WT3  1013 TIP3 H1   HT     0.417000        1.0080           0
   49083 WT3  1013 TIP3 H2   HT     0.417000        1.0080           0
   49084 WT3  1014 TIP3 OH2  OT    -0.834000       15.9994           0
   49085 WT3  1014 TIP3 H1   HT     0.417000        1.0080           0
   49086 WT3  1014 TIP3 H2   HT     0.417000        1.0080           0
   49087 WT3  1015 TIP3 OH2  OT    -0.834000       15.9994           0
   49088 WT3  1015 TIP3 H1   HT     0.417000        1.0080           0
   49089 WT3  1015 TIP3 H2   HT     0.417000        1.0080           0
   49090 WT3  1017 TIP3 OH2  OT    -0.834000       15.9994           0
   49091 WT3  1017 TIP3 H1   HT     0.417000        1.0080           0
   49092 WT3  1017 TIP3 H2   HT     0.417000        1.0080           0
   49093 WT3  1018 TIP3 OH2  OT    -0.834000       15.9994           0
   49094 WT3  1018 TIP3 H1   HT     0.417000        1.0080           0
   49095 WT3  1018 TIP3 H2   HT     0.417000        1.0080           0
   49096 WT3  1020 TIP3 OH2  OT    -0.834000       15.9994           0
   49097 WT3  1020 TIP3 H1   HT     0.417000        1.0080           0
   49098 WT3  1020 TIP3 H2   HT     0.417000        1.0080           0
   49099 WT3  1021 TIP3 OH2  OT    -0.834000       15.9994           0
   49100 WT3  1021 TIP3 H1   HT     0.417000        1.0080           0
   49101 WT3  1021 TIP3 H2   HT     0.417000        1.0080           0
   49102 WT3  1023 TIP3 OH2  OT    -0.834000       15.9994           0
   49103 WT3  1023 TIP3 H1   HT     0.417000        1.0080           0
   49104 WT3  1023 TIP3 H2   HT     0.417000        1.0080           0
   49105 WT3  1027 TIP3 OH2  OT    -0.834000       15.9994           0
   49106 WT3  1027 TIP3 H1   HT     0.417000        1.0080           0
   49107 WT3  1027 TIP3 H2   HT     0.417000        1.0080           0
   49108 WT3  1029 TIP3 OH2  OT    -0.834000       15.9994           0
   49109 WT3  1029 TIP3 H1   HT     0.417000        1.0080           0
   49110 WT3  1029 TIP3 H2   HT     0.417000        1.0080           0
   49111 WT3  1030 TIP3 OH2  OT    -0.834000       15.9994           0
   49112 WT3  1030 TIP3 H1   HT     0.417000        1.0080           0
   49113 WT3  1030 TIP3 H2   HT     0.417000        1.0080           0
   49114 WT3  1032 TIP3 OH2  OT    -0.834000       15.9994           0
   49115 WT3  1032 TIP3 H1   HT     0.417000        1.0080           0
   49116 WT3  1032 TIP3 H2   HT     0.417000        1.0080           0
   49117 WT3  1033 TIP3 OH2  OT    -0.834000       15.9994           0
   49118 WT3  1033 TIP3 H1   HT     0.417000        1.0080           0
   49119 WT3  1033 TIP3 H2   HT     0.417000        1.0080           0
   49120 WT3  1034 TIP3 OH2  OT    -0.834000       15.9994           0
   49121 WT3  1034 TIP3 H1   HT     0.417000        1.0080           0
   49122 WT3  1034 TIP3 H2   HT     0.417000        1.0080           0
   49123 WT3  1035 TIP3 OH2  OT    -0.834000       15.9994           0
   49124 WT3  1035 TIP3 H1   HT     0.417000        1.0080           0
   49125 WT3  1035 TIP3 H2   HT     0.417000        1.0080           0
   49126 WT3  1036 TIP3 OH2  OT    -0.834000       15.9994           0
   49127 WT3  1036 TIP3 H1   HT     0.417000        1.0080           0
   49128 WT3  1036 TIP3 H2   HT     0.417000        1.0080           0
   49129 WT3  1037 TIP3 OH2  OT    -0.834000       15.9994           0
   49130 WT3  1037 TIP3 H1   HT     0.417000        1.0080           0
   49131 WT3  1037 TIP3 H2   HT     0.417000        1.0080           0
   49132 WT3  1038 TIP3 OH2  OT    -0.834000       15.9994           0
   49133 WT3  1038 TIP3 H1   HT     0.417000        1.0080           0
   49134 WT3  1038 TIP3 H2   HT     0.417000        1.0080           0
   49135 WT3  1039 TIP3 OH2  OT    -0.834000       15.9994           0
   49136 WT3  1039 TIP3 H1   HT     0.417000        1.0080           0
   49137 WT3  1039 TIP3 H2   HT     0.417000        1.0080           0
   49138 WT3  1040 TIP3 OH2  OT    -0.834000       15.9994           0
   49139 WT3  1040 TIP3 H1   HT     0.417000        1.0080           0
   49140 WT3  1040 TIP3 H2   HT     0.417000        1.0080           0
   49141 WT3  1041 TIP3 OH2  OT    -0.834000       15.9994           0
   49142 WT3  1041 TIP3 H1   HT     0.417000        1.0080           0
   49143 WT3  1041 TIP3 H2   HT     0.417000        1.0080           0
   49144 WT3  1042 TIP3 OH2  OT    -0.834000       15.9994           0
   49145 WT3  1042 TIP3 H1   HT     0.417000        1.0080           0
   49146 WT3  1042 TIP3 H2   HT     0.417000        1.0080           0
   49147 WT3  1043 TIP3 OH2  OT    -0.834000       15.9994           0
   49148 WT3  1043 TIP3 H1   HT     0.417000        1.0080           0
   49149 WT3  1043 TIP3 H2   HT     0.417000        1.0080           0
   49150 WT3  1044 TIP3 OH2  OT    -0.834000       15.9994           0
   49151 WT3  1044 TIP3 H1   HT     0.417000        1.0080           0
   49152 WT3  1044 TIP3 H2   HT     0.417000        1.0080           0
   49153 WT3  1045 TIP3 OH2  OT    -0.834000       15.9994           0
   49154 WT3  1045 TIP3 H1   HT     0.417000        1.0080           0
   49155 WT3  1045 TIP3 H2   HT     0.417000        1.0080           0
   49156 WT3  1047 TIP3 OH2  OT    -0.834000       15.9994           0
   49157 WT3  1047 TIP3 H1   HT     0.417000        1.0080           0
   49158 WT3  1047 TIP3 H2   HT     0.417000        1.0080           0
   49159 WT3  1048 TIP3 OH2  OT    -0.834000       15.9994           0
   49160 WT3  1048 TIP3 H1   HT     0.417000        1.0080           0
   49161 WT3  1048 TIP3 H2   HT     0.417000        1.0080           0
   49162 WT3  1050 TIP3 OH2  OT    -0.834000       15.9994           0
   49163 WT3  1050 TIP3 H1   HT     0.417000        1.0080           0
   49164 WT3  1050 TIP3 H2   HT     0.417000        1.0080           0
   49165 WT3  1051 TIP3 OH2  OT    -0.834000       15.9994           0
   49166 WT3  1051 TIP3 H1   HT     0.417000        1.0080           0
   49167 WT3  1051 TIP3 H2   HT     0.417000        1.0080           0
   49168 WT3  1052 TIP3 OH2  OT    -0.834000       15.9994           0
   49169 WT3  1052 TIP3 H1   HT     0.417000        1.0080           0
   49170 WT3  1052 TIP3 H2   HT     0.417000        1.0080           0
   49171 WT3  1053 TIP3 OH2  OT    -0.834000       15.9994           0
   49172 WT3  1053 TIP3 H1   HT     0.417000        1.0080           0
   49173 WT3  1053 TIP3 H2   HT     0.417000        1.0080           0
   49174 WT3  1054 TIP3 OH2  OT    -0.834000       15.9994           0
   49175 WT3  1054 TIP3 H1   HT     0.417000        1.0080           0
   49176 WT3  1054 TIP3 H2   HT     0.417000        1.0080           0
   49177 WT3  1055 TIP3 OH2  OT    -0.834000       15.9994           0
   49178 WT3  1055 TIP3 H1   HT     0.417000        1.0080           0
   49179 WT3  1055 TIP3 H2   HT     0.417000        1.0080           0
   49180 WT3  1056 TIP3 OH2  OT    -0.834000       15.9994           0
   49181 WT3  1056 TIP3 H1   HT     0.417000        1.0080           0
   49182 WT3  1056 TIP3 H2   HT     0.417000        1.0080           0
   49183 WT3  1057 TIP3 OH2  OT    -0.834000       15.9994           0
   49184 WT3  1057 TIP3 H1   HT     0.417000        1.0080           0
   49185 WT3  1057 TIP3 H2   HT     0.417000        1.0080           0
   49186 WT3  1058 TIP3 OH2  OT    -0.834000       15.9994           0
   49187 WT3  1058 TIP3 H1   HT     0.417000        1.0080           0
   49188 WT3  1058 TIP3 H2   HT     0.417000        1.0080           0
   49189 WT3  1059 TIP3 OH2  OT    -0.834000       15.9994           0
   49190 WT3  1059 TIP3 H1   HT     0.417000        1.0080           0
   49191 WT3  1059 TIP3 H2   HT     0.417000        1.0080           0
   49192 WT3  1060 TIP3 OH2  OT    -0.834000       15.9994           0
   49193 WT3  1060 TIP3 H1   HT     0.417000        1.0080           0
   49194 WT3  1060 TIP3 H2   HT     0.417000        1.0080           0
   49195 WT3  1061 TIP3 OH2  OT    -0.834000       15.9994           0
   49196 WT3  1061 TIP3 H1   HT     0.417000        1.0080           0
   49197 WT3  1061 TIP3 H2   HT     0.417000        1.0080           0
   49198 WT3  1062 TIP3 OH2  OT    -0.834000       15.9994           0
   49199 WT3  1062 TIP3 H1   HT     0.417000        1.0080           0
   49200 WT3  1062 TIP3 H2   HT     0.417000        1.0080           0
   49201 WT3  1063 TIP3 OH2  OT    -0.834000       15.9994           0
   49202 WT3  1063 TIP3 H1   HT     0.417000        1.0080           0
   49203 WT3  1063 TIP3 H2   HT     0.417000        1.0080           0
   49204 WT3  1064 TIP3 OH2  OT    -0.834000       15.9994           0
   49205 WT3  1064 TIP3 H1   HT     0.417000        1.0080           0
   49206 WT3  1064 TIP3 H2   HT     0.417000        1.0080           0
   49207 WT3  1065 TIP3 OH2  OT    -0.834000       15.9994           0
   49208 WT3  1065 TIP3 H1   HT     0.417000        1.0080           0
   49209 WT3  1065 TIP3 H2   HT     0.417000        1.0080           0
   49210 WT3  1066 TIP3 OH2  OT    -0.834000       15.9994           0
   49211 WT3  1066 TIP3 H1   HT     0.417000        1.0080           0
   49212 WT3  1066 TIP3 H2   HT     0.417000        1.0080           0
   49213 WT3  1068 TIP3 OH2  OT    -0.834000       15.9994           0
   49214 WT3  1068 TIP3 H1   HT     0.417000        1.0080           0
   49215 WT3  1068 TIP3 H2   HT     0.417000        1.0080           0
   49216 WT3  1069 TIP3 OH2  OT    -0.834000       15.9994           0
   49217 WT3  1069 TIP3 H1   HT     0.417000        1.0080           0
   49218 WT3  1069 TIP3 H2   HT     0.417000        1.0080           0
   49219 WT3  1071 TIP3 OH2  OT    -0.834000       15.9994           0
   49220 WT3  1071 TIP3 H1   HT     0.417000        1.0080           0
   49221 WT3  1071 TIP3 H2   HT     0.417000        1.0080           0
   49222 WT3  1073 TIP3 OH2  OT    -0.834000       15.9994           0
   49223 WT3  1073 TIP3 H1   HT     0.417000        1.0080           0
   49224 WT3  1073 TIP3 H2   HT     0.417000        1.0080           0
   49225 WT3  1074 TIP3 OH2  OT    -0.834000       15.9994           0
   49226 WT3  1074 TIP3 H1   HT     0.417000        1.0080           0
   49227 WT3  1074 TIP3 H2   HT     0.417000        1.0080           0
   49228 WT3  1076 TIP3 OH2  OT    -0.834000       15.9994           0
   49229 WT3  1076 TIP3 H1   HT     0.417000        1.0080           0
   49230 WT3  1076 TIP3 H2   HT     0.417000        1.0080           0
   49231 WT3  1077 TIP3 OH2  OT    -0.834000       15.9994           0
   49232 WT3  1077 TIP3 H1   HT     0.417000        1.0080           0
   49233 WT3  1077 TIP3 H2   HT     0.417000        1.0080           0
   49234 WT3  1079 TIP3 OH2  OT    -0.834000       15.9994           0
   49235 WT3  1079 TIP3 H1   HT     0.417000        1.0080           0
   49236 WT3  1079 TIP3 H2   HT     0.417000        1.0080           0
   49237 WT3  1080 TIP3 OH2  OT    -0.834000       15.9994           0
   49238 WT3  1080 TIP3 H1   HT     0.417000        1.0080           0
   49239 WT3  1080 TIP3 H2   HT     0.417000        1.0080           0
   49240 WT3  1081 TIP3 OH2  OT    -0.834000       15.9994           0
   49241 WT3  1081 TIP3 H1   HT     0.417000        1.0080           0
   49242 WT3  1081 TIP3 H2   HT     0.417000        1.0080           0
   49243 WT3  1082 TIP3 OH2  OT    -0.834000       15.9994           0
   49244 WT3  1082 TIP3 H1   HT     0.417000        1.0080           0
   49245 WT3  1082 TIP3 H2   HT     0.417000        1.0080           0
   49246 WT3  1083 TIP3 OH2  OT    -0.834000       15.9994           0
   49247 WT3  1083 TIP3 H1   HT     0.417000        1.0080           0
   49248 WT3  1083 TIP3 H2   HT     0.417000        1.0080           0
   49249 WT3  1084 TIP3 OH2  OT    -0.834000       15.9994           0
   49250 WT3  1084 TIP3 H1   HT     0.417000        1.0080           0
   49251 WT3  1084 TIP3 H2   HT     0.417000        1.0080           0
   49252 WT3  1085 TIP3 OH2  OT    -0.834000       15.9994           0
   49253 WT3  1085 TIP3 H1   HT     0.417000        1.0080           0
   49254 WT3  1085 TIP3 H2   HT     0.417000        1.0080           0
   49255 WT3  1086 TIP3 OH2  OT    -0.834000       15.9994           0
   49256 WT3  1086 TIP3 H1   HT     0.417000        1.0080           0
   49257 WT3  1086 TIP3 H2   HT     0.417000        1.0080           0
   49258 WT3  1087 TIP3 OH2  OT    -0.834000       15.9994           0
   49259 WT3  1087 TIP3 H1   HT     0.417000        1.0080           0
   49260 WT3  1087 TIP3 H2   HT     0.417000        1.0080           0
   49261 WT3  1088 TIP3 OH2  OT    -0.834000       15.9994           0
   49262 WT3  1088 TIP3 H1   HT     0.417000        1.0080           0
   49263 WT3  1088 TIP3 H2   HT     0.417000        1.0080           0
   49264 WT3  1090 TIP3 OH2  OT    -0.834000       15.9994           0
   49265 WT3  1090 TIP3 H1   HT     0.417000        1.0080           0
   49266 WT3  1090 TIP3 H2   HT     0.417000        1.0080           0
   49267 WT3  1092 TIP3 OH2  OT    -0.834000       15.9994           0
   49268 WT3  1092 TIP3 H1   HT     0.417000        1.0080           0
   49269 WT3  1092 TIP3 H2   HT     0.417000        1.0080           0
   49270 WT3  1094 TIP3 OH2  OT    -0.834000       15.9994           0
   49271 WT3  1094 TIP3 H1   HT     0.417000        1.0080           0
   49272 WT3  1094 TIP3 H2   HT     0.417000        1.0080           0
   49273 WT3  1095 TIP3 OH2  OT    -0.834000       15.9994           0
   49274 WT3  1095 TIP3 H1   HT     0.417000        1.0080           0
   49275 WT3  1095 TIP3 H2   HT     0.417000        1.0080           0
   49276 WT3  1096 TIP3 OH2  OT    -0.834000       15.9994           0
   49277 WT3  1096 TIP3 H1   HT     0.417000        1.0080           0
   49278 WT3  1096 TIP3 H2   HT     0.417000        1.0080           0
   49279 WT3  1097 TIP3 OH2  OT    -0.834000       15.9994           0
   49280 WT3  1097 TIP3 H1   HT     0.417000        1.0080           0
   49281 WT3  1097 TIP3 H2   HT     0.417000        1.0080           0
   49282 WT3  1098 TIP3 OH2  OT    -0.834000       15.9994           0
   49283 WT3  1098 TIP3 H1   HT     0.417000        1.0080           0
   49284 WT3  1098 TIP3 H2   HT     0.417000        1.0080           0
   49285 WT3  1099 TIP3 OH2  OT    -0.834000       15.9994           0
   49286 WT3  1099 TIP3 H1   HT     0.417000        1.0080           0
   49287 WT3  1099 TIP3 H2   HT     0.417000        1.0080           0
   49288 WT3  1100 TIP3 OH2  OT    -0.834000       15.9994           0
   49289 WT3  1100 TIP3 H1   HT     0.417000        1.0080           0
   49290 WT3  1100 TIP3 H2   HT     0.417000        1.0080           0
   49291 WT3  1101 TIP3 OH2  OT    -0.834000       15.9994           0
   49292 WT3  1101 TIP3 H1   HT     0.417000        1.0080           0
   49293 WT3  1101 TIP3 H2   HT     0.417000        1.0080           0
   49294 WT3  1102 TIP3 OH2  OT    -0.834000       15.9994           0
   49295 WT3  1102 TIP3 H1   HT     0.417000        1.0080           0
   49296 WT3  1102 TIP3 H2   HT     0.417000        1.0080           0
   49297 WT3  1103 TIP3 OH2  OT    -0.834000       15.9994           0
   49298 WT3  1103 TIP3 H1   HT     0.417000        1.0080           0
   49299 WT3  1103 TIP3 H2   HT     0.417000        1.0080           0
   49300 WT3  1104 TIP3 OH2  OT    -0.834000       15.9994           0
   49301 WT3  1104 TIP3 H1   HT     0.417000        1.0080           0
   49302 WT3  1104 TIP3 H2   HT     0.417000        1.0080           0
   49303 WT3  1105 TIP3 OH2  OT    -0.834000       15.9994           0
   49304 WT3  1105 TIP3 H1   HT     0.417000        1.0080           0
   49305 WT3  1105 TIP3 H2   HT     0.417000        1.0080           0
   49306 WT3  1106 TIP3 OH2  OT    -0.834000       15.9994           0
   49307 WT3  1106 TIP3 H1   HT     0.417000        1.0080           0
   49308 WT3  1106 TIP3 H2   HT     0.417000        1.0080           0
   49309 WT3  1107 TIP3 OH2  OT    -0.834000       15.9994           0
   49310 WT3  1107 TIP3 H1   HT     0.417000        1.0080           0
   49311 WT3  1107 TIP3 H2   HT     0.417000        1.0080           0
   49312 WT3  1108 TIP3 OH2  OT    -0.834000       15.9994           0
   49313 WT3  1108 TIP3 H1   HT     0.417000        1.0080           0
   49314 WT3  1108 TIP3 H2   HT     0.417000        1.0080           0
   49315 WT3  1112 TIP3 OH2  OT    -0.834000       15.9994           0
   49316 WT3  1112 TIP3 H1   HT     0.417000        1.0080           0
   49317 WT3  1112 TIP3 H2   HT     0.417000        1.0080           0
   49318 WT3  1115 TIP3 OH2  OT    -0.834000       15.9994           0
   49319 WT3  1115 TIP3 H1   HT     0.417000        1.0080           0
   49320 WT3  1115 TIP3 H2   HT     0.417000        1.0080           0
   49321 WT3  1116 TIP3 OH2  OT    -0.834000       15.9994           0
   49322 WT3  1116 TIP3 H1   HT     0.417000        1.0080           0
   49323 WT3  1116 TIP3 H2   HT     0.417000        1.0080           0
   49324 WT3  1117 TIP3 OH2  OT    -0.834000       15.9994           0
   49325 WT3  1117 TIP3 H1   HT     0.417000        1.0080           0
   49326 WT3  1117 TIP3 H2   HT     0.417000        1.0080           0
   49327 WT3  1118 TIP3 OH2  OT    -0.834000       15.9994           0
   49328 WT3  1118 TIP3 H1   HT     0.417000        1.0080           0
   49329 WT3  1118 TIP3 H2   HT     0.417000        1.0080           0
   49330 WT3  1119 TIP3 OH2  OT    -0.834000       15.9994           0
   49331 WT3  1119 TIP3 H1   HT     0.417000        1.0080           0
   49332 WT3  1119 TIP3 H2   HT     0.417000        1.0080           0
   49333 WT3  1120 TIP3 OH2  OT    -0.834000       15.9994           0
   49334 WT3  1120 TIP3 H1   HT     0.417000        1.0080           0
   49335 WT3  1120 TIP3 H2   HT     0.417000        1.0080           0
   49336 WT3  1121 TIP3 OH2  OT    -0.834000       15.9994           0
   49337 WT3  1121 TIP3 H1   HT     0.417000        1.0080           0
   49338 WT3  1121 TIP3 H2   HT     0.417000        1.0080           0
   49339 WT3  1122 TIP3 OH2  OT    -0.834000       15.9994           0
   49340 WT3  1122 TIP3 H1   HT     0.417000        1.0080           0
   49341 WT3  1122 TIP3 H2   HT     0.417000        1.0080           0
   49342 WT3  1123 TIP3 OH2  OT    -0.834000       15.9994           0
   49343 WT3  1123 TIP3 H1   HT     0.417000        1.0080           0
   49344 WT3  1123 TIP3 H2   HT     0.417000        1.0080           0
   49345 WT3  1124 TIP3 OH2  OT    -0.834000       15.9994           0
   49346 WT3  1124 TIP3 H1   HT     0.417000        1.0080           0
   49347 WT3  1124 TIP3 H2   HT     0.417000        1.0080           0
   49348 WT3  1126 TIP3 OH2  OT    -0.834000       15.9994           0
   49349 WT3  1126 TIP3 H1   HT     0.417000        1.0080           0
   49350 WT3  1126 TIP3 H2   HT     0.417000        1.0080           0
   49351 WT3  1127 TIP3 OH2  OT    -0.834000       15.9994           0
   49352 WT3  1127 TIP3 H1   HT     0.417000        1.0080           0
   49353 WT3  1127 TIP3 H2   HT     0.417000        1.0080           0
   49354 WT3  1128 TIP3 OH2  OT    -0.834000       15.9994           0
   49355 WT3  1128 TIP3 H1   HT     0.417000        1.0080           0
   49356 WT3  1128 TIP3 H2   HT     0.417000        1.0080           0
   49357 WT3  1129 TIP3 OH2  OT    -0.834000       15.9994           0
   49358 WT3  1129 TIP3 H1   HT     0.417000        1.0080           0
   49359 WT3  1129 TIP3 H2   HT     0.417000        1.0080           0
   49360 WT3  1132 TIP3 OH2  OT    -0.834000       15.9994           0
   49361 WT3  1132 TIP3 H1   HT     0.417000        1.0080           0
   49362 WT3  1132 TIP3 H2   HT     0.417000        1.0080           0
   49363 WT3  1133 TIP3 OH2  OT    -0.834000       15.9994           0
   49364 WT3  1133 TIP3 H1   HT     0.417000        1.0080           0
   49365 WT3  1133 TIP3 H2   HT     0.417000        1.0080           0
   49366 WT3  1134 TIP3 OH2  OT    -0.834000       15.9994           0
   49367 WT3  1134 TIP3 H1   HT     0.417000        1.0080           0
   49368 WT3  1134 TIP3 H2   HT     0.417000        1.0080           0
   49369 WT3  1137 TIP3 OH2  OT    -0.834000       15.9994           0
   49370 WT3  1137 TIP3 H1   HT     0.417000        1.0080           0
   49371 WT3  1137 TIP3 H2   HT     0.417000        1.0080           0
   49372 WT3  1140 TIP3 OH2  OT    -0.834000       15.9994           0
   49373 WT3  1140 TIP3 H1   HT     0.417000        1.0080           0
   49374 WT3  1140 TIP3 H2   HT     0.417000        1.0080           0
   49375 WT3  1141 TIP3 OH2  OT    -0.834000       15.9994           0
   49376 WT3  1141 TIP3 H1   HT     0.417000        1.0080           0
   49377 WT3  1141 TIP3 H2   HT     0.417000        1.0080           0
   49378 WT3  1142 TIP3 OH2  OT    -0.834000       15.9994           0
   49379 WT3  1142 TIP3 H1   HT     0.417000        1.0080           0
   49380 WT3  1142 TIP3 H2   HT     0.417000        1.0080           0
   49381 WT3  1143 TIP3 OH2  OT    -0.834000       15.9994           0
   49382 WT3  1143 TIP3 H1   HT     0.417000        1.0080           0
   49383 WT3  1143 TIP3 H2   HT     0.417000        1.0080           0
   49384 WT3  1144 TIP3 OH2  OT    -0.834000       15.9994           0
   49385 WT3  1144 TIP3 H1   HT     0.417000        1.0080           0
   49386 WT3  1144 TIP3 H2   HT     0.417000        1.0080           0
   49387 WT3  1145 TIP3 OH2  OT    -0.834000       15.9994           0
   49388 WT3  1145 TIP3 H1   HT     0.417000        1.0080           0
   49389 WT3  1145 TIP3 H2   HT     0.417000        1.0080           0
   49390 WT3  1146 TIP3 OH2  OT    -0.834000       15.9994           0
   49391 WT3  1146 TIP3 H1   HT     0.417000        1.0080           0
   49392 WT3  1146 TIP3 H2   HT     0.417000        1.0080           0
   49393 WT3  1147 TIP3 OH2  OT    -0.834000       15.9994           0
   49394 WT3  1147 TIP3 H1   HT     0.417000        1.0080           0
   49395 WT3  1147 TIP3 H2   HT     0.417000        1.0080           0
   49396 WT3  1148 TIP3 OH2  OT    -0.834000       15.9994           0
   49397 WT3  1148 TIP3 H1   HT     0.417000        1.0080           0
   49398 WT3  1148 TIP3 H2   HT     0.417000        1.0080           0
   49399 WT3  1149 TIP3 OH2  OT    -0.834000       15.9994           0
   49400 WT3  1149 TIP3 H1   HT     0.417000        1.0080           0
   49401 WT3  1149 TIP3 H2   HT     0.417000        1.0080           0
   49402 WT3  1150 TIP3 OH2  OT    -0.834000       15.9994           0
   49403 WT3  1150 TIP3 H1   HT     0.417000        1.0080           0
   49404 WT3  1150 TIP3 H2   HT     0.417000        1.0080           0
   49405 WT3  1151 TIP3 OH2  OT    -0.834000       15.9994           0
   49406 WT3  1151 TIP3 H1   HT     0.417000        1.0080           0
   49407 WT3  1151 TIP3 H2   HT     0.417000        1.0080           0
   49408 WT3  1153 TIP3 OH2  OT    -0.834000       15.9994           0
   49409 WT3  1153 TIP3 H1   HT     0.417000        1.0080           0
   49410 WT3  1153 TIP3 H2   HT     0.417000        1.0080           0
   49411 WT3  1156 TIP3 OH2  OT    -0.834000       15.9994           0
   49412 WT3  1156 TIP3 H1   HT     0.417000        1.0080           0
   49413 WT3  1156 TIP3 H2   HT     0.417000        1.0080           0
   49414 WT3  1158 TIP3 OH2  OT    -0.834000       15.9994           0
   49415 WT3  1158 TIP3 H1   HT     0.417000        1.0080           0
   49416 WT3  1158 TIP3 H2   HT     0.417000        1.0080           0
   49417 WT3  1164 TIP3 OH2  OT    -0.834000       15.9994           0
   49418 WT3  1164 TIP3 H1   HT     0.417000        1.0080           0
   49419 WT3  1164 TIP3 H2   HT     0.417000        1.0080           0
   49420 WT3  1165 TIP3 OH2  OT    -0.834000       15.9994           0
   49421 WT3  1165 TIP3 H1   HT     0.417000        1.0080           0
   49422 WT3  1165 TIP3 H2   HT     0.417000        1.0080           0
   49423 WT3  1167 TIP3 OH2  OT    -0.834000       15.9994           0
   49424 WT3  1167 TIP3 H1   HT     0.417000        1.0080           0
   49425 WT3  1167 TIP3 H2   HT     0.417000        1.0080           0
   49426 WT3  1168 TIP3 OH2  OT    -0.834000       15.9994           0
   49427 WT3  1168 TIP3 H1   HT     0.417000        1.0080           0
   49428 WT3  1168 TIP3 H2   HT     0.417000        1.0080           0
   49429 WT3  1172 TIP3 OH2  OT    -0.834000       15.9994           0
   49430 WT3  1172 TIP3 H1   HT     0.417000        1.0080           0
   49431 WT3  1172 TIP3 H2   HT     0.417000        1.0080           0
   49432 WT3  1175 TIP3 OH2  OT    -0.834000       15.9994           0
   49433 WT3  1175 TIP3 H1   HT     0.417000        1.0080           0
   49434 WT3  1175 TIP3 H2   HT     0.417000        1.0080           0
   49435 WT3  1176 TIP3 OH2  OT    -0.834000       15.9994           0
   49436 WT3  1176 TIP3 H1   HT     0.417000        1.0080           0
   49437 WT3  1176 TIP3 H2   HT     0.417000        1.0080           0
   49438 WT3  1178 TIP3 OH2  OT    -0.834000       15.9994           0
   49439 WT3  1178 TIP3 H1   HT     0.417000        1.0080           0
   49440 WT3  1178 TIP3 H2   HT     0.417000        1.0080           0
   49441 WT3  1179 TIP3 OH2  OT    -0.834000       15.9994           0
   49442 WT3  1179 TIP3 H1   HT     0.417000        1.0080           0
   49443 WT3  1179 TIP3 H2   HT     0.417000        1.0080           0
   49444 WT3  1182 TIP3 OH2  OT    -0.834000       15.9994           0
   49445 WT3  1182 TIP3 H1   HT     0.417000        1.0080           0
   49446 WT3  1182 TIP3 H2   HT     0.417000        1.0080           0
   49447 WT3  1183 TIP3 OH2  OT    -0.834000       15.9994           0
   49448 WT3  1183 TIP3 H1   HT     0.417000        1.0080           0
   49449 WT3  1183 TIP3 H2   HT     0.417000        1.0080           0
   49450 WT3  1186 TIP3 OH2  OT    -0.834000       15.9994           0
   49451 WT3  1186 TIP3 H1   HT     0.417000        1.0080           0
   49452 WT3  1186 TIP3 H2   HT     0.417000        1.0080           0
   49453 WT3  1187 TIP3 OH2  OT    -0.834000       15.9994           0
   49454 WT3  1187 TIP3 H1   HT     0.417000        1.0080           0
   49455 WT3  1187 TIP3 H2   HT     0.417000        1.0080           0
   49456 WT3  1188 TIP3 OH2  OT    -0.834000       15.9994           0
   49457 WT3  1188 TIP3 H1   HT     0.417000        1.0080           0
   49458 WT3  1188 TIP3 H2   HT     0.417000        1.0080           0
   49459 WT3  1189 TIP3 OH2  OT    -0.834000       15.9994           0
   49460 WT3  1189 TIP3 H1   HT     0.417000        1.0080           0
   49461 WT3  1189 TIP3 H2   HT     0.417000        1.0080           0
   49462 WT3  1192 TIP3 OH2  OT    -0.834000       15.9994           0
   49463 WT3  1192 TIP3 H1   HT     0.417000        1.0080           0
   49464 WT3  1192 TIP3 H2   HT     0.417000        1.0080           0
   49465 WT3  1193 TIP3 OH2  OT    -0.834000       15.9994           0
   49466 WT3  1193 TIP3 H1   HT     0.417000        1.0080           0
   49467 WT3  1193 TIP3 H2   HT     0.417000        1.0080           0
   49468 WT3  1194 TIP3 OH2  OT    -0.834000       15.9994           0
   49469 WT3  1194 TIP3 H1   HT     0.417000        1.0080           0
   49470 WT3  1194 TIP3 H2   HT     0.417000        1.0080           0
   49471 WT3  1197 TIP3 OH2  OT    -0.834000       15.9994           0
   49472 WT3  1197 TIP3 H1   HT     0.417000        1.0080           0
   49473 WT3  1197 TIP3 H2   HT     0.417000        1.0080           0
   49474 WT3  1198 TIP3 OH2  OT    -0.834000       15.9994           0
   49475 WT3  1198 TIP3 H1   HT     0.417000        1.0080           0
   49476 WT3  1198 TIP3 H2   HT     0.417000        1.0080           0
   49477 WT3  1200 TIP3 OH2  OT    -0.834000       15.9994           0
   49478 WT3  1200 TIP3 H1   HT     0.417000        1.0080           0
   49479 WT3  1200 TIP3 H2   HT     0.417000        1.0080           0
   49480 WT3  1201 TIP3 OH2  OT    -0.834000       15.9994           0
   49481 WT3  1201 TIP3 H1   HT     0.417000        1.0080           0
   49482 WT3  1201 TIP3 H2   HT     0.417000        1.0080           0
   49483 WT3  1202 TIP3 OH2  OT    -0.834000       15.9994           0
   49484 WT3  1202 TIP3 H1   HT     0.417000        1.0080           0
   49485 WT3  1202 TIP3 H2   HT     0.417000        1.0080           0
   49486 WT3  1203 TIP3 OH2  OT    -0.834000       15.9994           0
   49487 WT3  1203 TIP3 H1   HT     0.417000        1.0080           0
   49488 WT3  1203 TIP3 H2   HT     0.417000        1.0080           0
   49489 WT3  1204 TIP3 OH2  OT    -0.834000       15.9994           0
   49490 WT3  1204 TIP3 H1   HT     0.417000        1.0080           0
   49491 WT3  1204 TIP3 H2   HT     0.417000        1.0080           0
   49492 WT3  1205 TIP3 OH2  OT    -0.834000       15.9994           0
   49493 WT3  1205 TIP3 H1   HT     0.417000        1.0080           0
   49494 WT3  1205 TIP3 H2   HT     0.417000        1.0080           0
   49495 WT3  1206 TIP3 OH2  OT    -0.834000       15.9994           0
   49496 WT3  1206 TIP3 H1   HT     0.417000        1.0080           0
   49497 WT3  1206 TIP3 H2   HT     0.417000        1.0080           0
   49498 WT3  1209 TIP3 OH2  OT    -0.834000       15.9994           0
   49499 WT3  1209 TIP3 H1   HT     0.417000        1.0080           0
   49500 WT3  1209 TIP3 H2   HT     0.417000        1.0080           0
   49501 WT3  1211 TIP3 OH2  OT    -0.834000       15.9994           0
   49502 WT3  1211 TIP3 H1   HT     0.417000        1.0080           0
   49503 WT3  1211 TIP3 H2   HT     0.417000        1.0080           0
   49504 WT3  1215 TIP3 OH2  OT    -0.834000       15.9994           0
   49505 WT3  1215 TIP3 H1   HT     0.417000        1.0080           0
   49506 WT3  1215 TIP3 H2   HT     0.417000        1.0080           0
   49507 WT3  1217 TIP3 OH2  OT    -0.834000       15.9994           0
   49508 WT3  1217 TIP3 H1   HT     0.417000        1.0080           0
   49509 WT3  1217 TIP3 H2   HT     0.417000        1.0080           0
   49510 WT3  1227 TIP3 OH2  OT    -0.834000       15.9994           0
   49511 WT3  1227 TIP3 H1   HT     0.417000        1.0080           0
   49512 WT3  1227 TIP3 H2   HT     0.417000        1.0080           0
   49513 WT3  1234 TIP3 OH2  OT    -0.834000       15.9994           0
   49514 WT3  1234 TIP3 H1   HT     0.417000        1.0080           0
   49515 WT3  1234 TIP3 H2   HT     0.417000        1.0080           0
   49516 WT3  1237 TIP3 OH2  OT    -0.834000       15.9994           0
   49517 WT3  1237 TIP3 H1   HT     0.417000        1.0080           0
   49518 WT3  1237 TIP3 H2   HT     0.417000        1.0080           0
   49519 WT3  1238 TIP3 OH2  OT    -0.834000       15.9994           0
   49520 WT3  1238 TIP3 H1   HT     0.417000        1.0080           0
   49521 WT3  1238 TIP3 H2   HT     0.417000        1.0080           0
   49522 WT3  1257 TIP3 OH2  OT    -0.834000       15.9994           0
   49523 WT3  1257 TIP3 H1   HT     0.417000        1.0080           0
   49524 WT3  1257 TIP3 H2   HT     0.417000        1.0080           0
   49525 WT3  1268 TIP3 OH2  OT    -0.834000       15.9994           0
   49526 WT3  1268 TIP3 H1   HT     0.417000        1.0080           0
   49527 WT3  1268 TIP3 H2   HT     0.417000        1.0080           0
   49528 WT3  1271 TIP3 OH2  OT    -0.834000       15.9994           0
   49529 WT3  1271 TIP3 H1   HT     0.417000        1.0080           0
   49530 WT3  1271 TIP3 H2   HT     0.417000        1.0080           0
   49531 WT3  1274 TIP3 OH2  OT    -0.834000       15.9994           0
   49532 WT3  1274 TIP3 H1   HT     0.417000        1.0080           0
   49533 WT3  1274 TIP3 H2   HT     0.417000        1.0080           0
   49534 WT3  1297 TIP3 OH2  OT    -0.834000       15.9994           0
   49535 WT3  1297 TIP3 H1   HT     0.417000        1.0080           0
   49536 WT3  1297 TIP3 H2   HT     0.417000        1.0080           0
   49537 WT3  1298 TIP3 OH2  OT    -0.834000       15.9994           0
   49538 WT3  1298 TIP3 H1   HT     0.417000        1.0080           0
   49539 WT3  1298 TIP3 H2   HT     0.417000        1.0080           0
   49540 WT3  1301 TIP3 OH2  OT    -0.834000       15.9994           0
   49541 WT3  1301 TIP3 H1   HT     0.417000        1.0080           0
   49542 WT3  1301 TIP3 H2   HT     0.417000        1.0080           0
   49543 WT3  1302 TIP3 OH2  OT    -0.834000       15.9994           0
   49544 WT3  1302 TIP3 H1   HT     0.417000        1.0080           0
   49545 WT3  1302 TIP3 H2   HT     0.417000        1.0080           0
   49546 WT3  1305 TIP3 OH2  OT    -0.834000       15.9994           0
   49547 WT3  1305 TIP3 H1   HT     0.417000        1.0080           0
   49548 WT3  1305 TIP3 H2   HT     0.417000        1.0080           0
   49549 WT3  1307 TIP3 OH2  OT    -0.834000       15.9994           0
   49550 WT3  1307 TIP3 H1   HT     0.417000        1.0080           0
   49551 WT3  1307 TIP3 H2   HT     0.417000        1.0080           0
   49552 WT3  1308 TIP3 OH2  OT    -0.834000       15.9994           0
   49553 WT3  1308 TIP3 H1   HT     0.417000        1.0080           0
   49554 WT3  1308 TIP3 H2   HT     0.417000        1.0080           0
   49555 WT3  1309 TIP3 OH2  OT    -0.834000       15.9994           0
   49556 WT3  1309 TIP3 H1   HT     0.417000        1.0080           0
   49557 WT3  1309 TIP3 H2   HT     0.417000        1.0080           0
   49558 WT3  1310 TIP3 OH2  OT    -0.834000       15.9994           0
   49559 WT3  1310 TIP3 H1   HT     0.417000        1.0080           0
   49560 WT3  1310 TIP3 H2   HT     0.417000        1.0080           0
   49561 WT3  1311 TIP3 OH2  OT    -0.834000       15.9994           0
   49562 WT3  1311 TIP3 H1   HT     0.417000        1.0080           0
   49563 WT3  1311 TIP3 H2   HT     0.417000        1.0080           0
   49564 WT3  1313 TIP3 OH2  OT    -0.834000       15.9994           0
   49565 WT3  1313 TIP3 H1   HT     0.417000        1.0080           0
   49566 WT3  1313 TIP3 H2   HT     0.417000        1.0080           0
   49567 WT3  1317 TIP3 OH2  OT    -0.834000       15.9994           0
   49568 WT3  1317 TIP3 H1   HT     0.417000        1.0080           0
   49569 WT3  1317 TIP3 H2   HT     0.417000        1.0080           0
   49570 WT3  1322 TIP3 OH2  OT    -0.834000       15.9994           0
   49571 WT3  1322 TIP3 H1   HT     0.417000        1.0080           0
   49572 WT3  1322 TIP3 H2   HT     0.417000        1.0080           0
   49573 WT3  1326 TIP3 OH2  OT    -0.834000       15.9994           0
   49574 WT3  1326 TIP3 H1   HT     0.417000        1.0080           0
   49575 WT3  1326 TIP3 H2   HT     0.417000        1.0080           0
   49576 WT3  1327 TIP3 OH2  OT    -0.834000       15.9994           0
   49577 WT3  1327 TIP3 H1   HT     0.417000        1.0080           0
   49578 WT3  1327 TIP3 H2   HT     0.417000        1.0080           0
   49579 WT3  1328 TIP3 OH2  OT    -0.834000       15.9994           0
   49580 WT3  1328 TIP3 H1   HT     0.417000        1.0080           0
   49581 WT3  1328 TIP3 H2   HT     0.417000        1.0080           0
   49582 WT3  1329 TIP3 OH2  OT    -0.834000       15.9994           0
   49583 WT3  1329 TIP3 H1   HT     0.417000        1.0080           0
   49584 WT3  1329 TIP3 H2   HT     0.417000        1.0080           0
   49585 WT3  1330 TIP3 OH2  OT    -0.834000       15.9994           0
   49586 WT3  1330 TIP3 H1   HT     0.417000        1.0080           0
   49587 WT3  1330 TIP3 H2   HT     0.417000        1.0080           0
   49588 WT3  1331 TIP3 OH2  OT    -0.834000       15.9994           0
   49589 WT3  1331 TIP3 H1   HT     0.417000        1.0080           0
   49590 WT3  1331 TIP3 H2   HT     0.417000        1.0080           0
   49591 WT3  1332 TIP3 OH2  OT    -0.834000       15.9994           0
   49592 WT3  1332 TIP3 H1   HT     0.417000        1.0080           0
   49593 WT3  1332 TIP3 H2   HT     0.417000        1.0080           0
   49594 WT3  1333 TIP3 OH2  OT    -0.834000       15.9994           0
   49595 WT3  1333 TIP3 H1   HT     0.417000        1.0080           0
   49596 WT3  1333 TIP3 H2   HT     0.417000        1.0080           0
   49597 WT3  1334 TIP3 OH2  OT    -0.834000       15.9994           0
   49598 WT3  1334 TIP3 H1   HT     0.417000        1.0080           0
   49599 WT3  1334 TIP3 H2   HT     0.417000        1.0080           0
   49600 WT3  1337 TIP3 OH2  OT    -0.834000       15.9994           0
   49601 WT3  1337 TIP3 H1   HT     0.417000        1.0080           0
   49602 WT3  1337 TIP3 H2   HT     0.417000        1.0080           0
   49603 WT3  1339 TIP3 OH2  OT    -0.834000       15.9994           0
   49604 WT3  1339 TIP3 H1   HT     0.417000        1.0080           0
   49605 WT3  1339 TIP3 H2   HT     0.417000        1.0080           0
   49606 WT3  1340 TIP3 OH2  OT    -0.834000       15.9994           0
   49607 WT3  1340 TIP3 H1   HT     0.417000        1.0080           0
   49608 WT3  1340 TIP3 H2   HT     0.417000        1.0080           0
   49609 WT3  1341 TIP3 OH2  OT    -0.834000       15.9994           0
   49610 WT3  1341 TIP3 H1   HT     0.417000        1.0080           0
   49611 WT3  1341 TIP3 H2   HT     0.417000        1.0080           0
   49612 WT3  1344 TIP3 OH2  OT    -0.834000       15.9994           0
   49613 WT3  1344 TIP3 H1   HT     0.417000        1.0080           0
   49614 WT3  1344 TIP3 H2   HT     0.417000        1.0080           0
   49615 WT3  1346 TIP3 OH2  OT    -0.834000       15.9994           0
   49616 WT3  1346 TIP3 H1   HT     0.417000        1.0080           0
   49617 WT3  1346 TIP3 H2   HT     0.417000        1.0080           0
   49618 WT3  1347 TIP3 OH2  OT    -0.834000       15.9994           0
   49619 WT3  1347 TIP3 H1   HT     0.417000        1.0080           0
   49620 WT3  1347 TIP3 H2   HT     0.417000        1.0080           0
   49621 WT3  1348 TIP3 OH2  OT    -0.834000       15.9994           0
   49622 WT3  1348 TIP3 H1   HT     0.417000        1.0080           0
   49623 WT3  1348 TIP3 H2   HT     0.417000        1.0080           0
   49624 WT3  1349 TIP3 OH2  OT    -0.834000       15.9994           0
   49625 WT3  1349 TIP3 H1   HT     0.417000        1.0080           0
   49626 WT3  1349 TIP3 H2   HT     0.417000        1.0080           0
   49627 WT3  1350 TIP3 OH2  OT    -0.834000       15.9994           0
   49628 WT3  1350 TIP3 H1   HT     0.417000        1.0080           0
   49629 WT3  1350 TIP3 H2   HT     0.417000        1.0080           0
   49630 WT3  1351 TIP3 OH2  OT    -0.834000       15.9994           0
   49631 WT3  1351 TIP3 H1   HT     0.417000        1.0080           0
   49632 WT3  1351 TIP3 H2   HT     0.417000        1.0080           0
   49633 WT3  1352 TIP3 OH2  OT    -0.834000       15.9994           0
   49634 WT3  1352 TIP3 H1   HT     0.417000        1.0080           0
   49635 WT3  1352 TIP3 H2   HT     0.417000        1.0080           0
   49636 WT3  1354 TIP3 OH2  OT    -0.834000       15.9994           0
   49637 WT3  1354 TIP3 H1   HT     0.417000        1.0080           0
   49638 WT3  1354 TIP3 H2   HT     0.417000        1.0080           0
   49639 WT3  1355 TIP3 OH2  OT    -0.834000       15.9994           0
   49640 WT3  1355 TIP3 H1   HT     0.417000        1.0080           0
   49641 WT3  1355 TIP3 H2   HT     0.417000        1.0080           0
   49642 WT3  1356 TIP3 OH2  OT    -0.834000       15.9994           0
   49643 WT3  1356 TIP3 H1   HT     0.417000        1.0080           0
   49644 WT3  1356 TIP3 H2   HT     0.417000        1.0080           0
   49645 WT3  1357 TIP3 OH2  OT    -0.834000       15.9994           0
   49646 WT3  1357 TIP3 H1   HT     0.417000        1.0080           0
   49647 WT3  1357 TIP3 H2   HT     0.417000        1.0080           0
   49648 WT3  1360 TIP3 OH2  OT    -0.834000       15.9994           0
   49649 WT3  1360 TIP3 H1   HT     0.417000        1.0080           0
   49650 WT3  1360 TIP3 H2   HT     0.417000        1.0080           0
   49651 WT3  1361 TIP3 OH2  OT    -0.834000       15.9994           0
   49652 WT3  1361 TIP3 H1   HT     0.417000        1.0080           0
   49653 WT3  1361 TIP3 H2   HT     0.417000        1.0080           0
   49654 WT3  1362 TIP3 OH2  OT    -0.834000       15.9994           0
   49655 WT3  1362 TIP3 H1   HT     0.417000        1.0080           0
   49656 WT3  1362 TIP3 H2   HT     0.417000        1.0080           0
   49657 WT3  1365 TIP3 OH2  OT    -0.834000       15.9994           0
   49658 WT3  1365 TIP3 H1   HT     0.417000        1.0080           0
   49659 WT3  1365 TIP3 H2   HT     0.417000        1.0080           0
   49660 WT3  1367 TIP3 OH2  OT    -0.834000       15.9994           0
   49661 WT3  1367 TIP3 H1   HT     0.417000        1.0080           0
   49662 WT3  1367 TIP3 H2   HT     0.417000        1.0080           0
   49663 WT3  1368 TIP3 OH2  OT    -0.834000       15.9994           0
   49664 WT3  1368 TIP3 H1   HT     0.417000        1.0080           0
   49665 WT3  1368 TIP3 H2   HT     0.417000        1.0080           0
   49666 WT3  1369 TIP3 OH2  OT    -0.834000       15.9994           0
   49667 WT3  1369 TIP3 H1   HT     0.417000        1.0080           0
   49668 WT3  1369 TIP3 H2   HT     0.417000        1.0080           0
   49669 WT3  1370 TIP3 OH2  OT    -0.834000       15.9994           0
   49670 WT3  1370 TIP3 H1   HT     0.417000        1.0080           0
   49671 WT3  1370 TIP3 H2   HT     0.417000        1.0080           0
   49672 WT3  1371 TIP3 OH2  OT    -0.834000       15.9994           0
   49673 WT3  1371 TIP3 H1   HT     0.417000        1.0080           0
   49674 WT3  1371 TIP3 H2   HT     0.417000        1.0080           0
   49675 WT3  1372 TIP3 OH2  OT    -0.834000       15.9994           0
   49676 WT3  1372 TIP3 H1   HT     0.417000        1.0080           0
   49677 WT3  1372 TIP3 H2   HT     0.417000        1.0080           0
   49678 WT3  1374 TIP3 OH2  OT    -0.834000       15.9994           0
   49679 WT3  1374 TIP3 H1   HT     0.417000        1.0080           0
   49680 WT3  1374 TIP3 H2   HT     0.417000        1.0080           0
   49681 WT3  1375 TIP3 OH2  OT    -0.834000       15.9994           0
   49682 WT3  1375 TIP3 H1   HT     0.417000        1.0080           0
   49683 WT3  1375 TIP3 H2   HT     0.417000        1.0080           0
   49684 WT3  1376 TIP3 OH2  OT    -0.834000       15.9994           0
   49685 WT3  1376 TIP3 H1   HT     0.417000        1.0080           0
   49686 WT3  1376 TIP3 H2   HT     0.417000        1.0080           0
   49687 WT3  1379 TIP3 OH2  OT    -0.834000       15.9994           0
   49688 WT3  1379 TIP3 H1   HT     0.417000        1.0080           0
   49689 WT3  1379 TIP3 H2   HT     0.417000        1.0080           0
   49690 WT3  1380 TIP3 OH2  OT    -0.834000       15.9994           0
   49691 WT3  1380 TIP3 H1   HT     0.417000        1.0080           0
   49692 WT3  1380 TIP3 H2   HT     0.417000        1.0080           0
   49693 WT3  1381 TIP3 OH2  OT    -0.834000       15.9994           0
   49694 WT3  1381 TIP3 H1   HT     0.417000        1.0080           0
   49695 WT3  1381 TIP3 H2   HT     0.417000        1.0080           0
   49696 WT3  1384 TIP3 OH2  OT    -0.834000       15.9994           0
   49697 WT3  1384 TIP3 H1   HT     0.417000        1.0080           0
   49698 WT3  1384 TIP3 H2   HT     0.417000        1.0080           0
   49699 WT3  1387 TIP3 OH2  OT    -0.834000       15.9994           0
   49700 WT3  1387 TIP3 H1   HT     0.417000        1.0080           0
   49701 WT3  1387 TIP3 H2   HT     0.417000        1.0080           0
   49702 WT3  1388 TIP3 OH2  OT    -0.834000       15.9994           0
   49703 WT3  1388 TIP3 H1   HT     0.417000        1.0080           0
   49704 WT3  1388 TIP3 H2   HT     0.417000        1.0080           0
   49705 WT3  1389 TIP3 OH2  OT    -0.834000       15.9994           0
   49706 WT3  1389 TIP3 H1   HT     0.417000        1.0080           0
   49707 WT3  1389 TIP3 H2   HT     0.417000        1.0080           0
   49708 WT3  1390 TIP3 OH2  OT    -0.834000       15.9994           0
   49709 WT3  1390 TIP3 H1   HT     0.417000        1.0080           0
   49710 WT3  1390 TIP3 H2   HT     0.417000        1.0080           0
   49711 WT3  1392 TIP3 OH2  OT    -0.834000       15.9994           0
   49712 WT3  1392 TIP3 H1   HT     0.417000        1.0080           0
   49713 WT3  1392 TIP3 H2   HT     0.417000        1.0080           0
   49714 WT3  1393 TIP3 OH2  OT    -0.834000       15.9994           0
   49715 WT3  1393 TIP3 H1   HT     0.417000        1.0080           0
   49716 WT3  1393 TIP3 H2   HT     0.417000        1.0080           0
   49717 WT3  1394 TIP3 OH2  OT    -0.834000       15.9994           0
   49718 WT3  1394 TIP3 H1   HT     0.417000        1.0080           0
   49719 WT3  1394 TIP3 H2   HT     0.417000        1.0080           0
   49720 WT3  1395 TIP3 OH2  OT    -0.834000       15.9994           0
   49721 WT3  1395 TIP3 H1   HT     0.417000        1.0080           0
   49722 WT3  1395 TIP3 H2   HT     0.417000        1.0080           0
   49723 WT3  1396 TIP3 OH2  OT    -0.834000       15.9994           0
   49724 WT3  1396 TIP3 H1   HT     0.417000        1.0080           0
   49725 WT3  1396 TIP3 H2   HT     0.417000        1.0080           0
   49726 WT3  1397 TIP3 OH2  OT    -0.834000       15.9994           0
   49727 WT3  1397 TIP3 H1   HT     0.417000        1.0080           0
   49728 WT3  1397 TIP3 H2   HT     0.417000        1.0080           0
   49729 WT3  1398 TIP3 OH2  OT    -0.834000       15.9994           0
   49730 WT3  1398 TIP3 H1   HT     0.417000        1.0080           0
   49731 WT3  1398 TIP3 H2   HT     0.417000        1.0080           0
   49732 WT3  1400 TIP3 OH2  OT    -0.834000       15.9994           0
   49733 WT3  1400 TIP3 H1   HT     0.417000        1.0080           0
   49734 WT3  1400 TIP3 H2   HT     0.417000        1.0080           0
   49735 WT3  1401 TIP3 OH2  OT    -0.834000       15.9994           0
   49736 WT3  1401 TIP3 H1   HT     0.417000        1.0080           0
   49737 WT3  1401 TIP3 H2   HT     0.417000        1.0080           0
   49738 WT3  1402 TIP3 OH2  OT    -0.834000       15.9994           0
   49739 WT3  1402 TIP3 H1   HT     0.417000        1.0080           0
   49740 WT3  1402 TIP3 H2   HT     0.417000        1.0080           0
   49741 WT3  1404 TIP3 OH2  OT    -0.834000       15.9994           0
   49742 WT3  1404 TIP3 H1   HT     0.417000        1.0080           0
   49743 WT3  1404 TIP3 H2   HT     0.417000        1.0080           0
   49744 WT3  1407 TIP3 OH2  OT    -0.834000       15.9994           0
   49745 WT3  1407 TIP3 H1   HT     0.417000        1.0080           0
   49746 WT3  1407 TIP3 H2   HT     0.417000        1.0080           0
   49747 WT3  1408 TIP3 OH2  OT    -0.834000       15.9994           0
   49748 WT3  1408 TIP3 H1   HT     0.417000        1.0080           0
   49749 WT3  1408 TIP3 H2   HT     0.417000        1.0080           0
   49750 WT3  1410 TIP3 OH2  OT    -0.834000       15.9994           0
   49751 WT3  1410 TIP3 H1   HT     0.417000        1.0080           0
   49752 WT3  1410 TIP3 H2   HT     0.417000        1.0080           0
   49753 WT3  1411 TIP3 OH2  OT    -0.834000       15.9994           0
   49754 WT3  1411 TIP3 H1   HT     0.417000        1.0080           0
   49755 WT3  1411 TIP3 H2   HT     0.417000        1.0080           0
   49756 WT3  1412 TIP3 OH2  OT    -0.834000       15.9994           0
   49757 WT3  1412 TIP3 H1   HT     0.417000        1.0080           0
   49758 WT3  1412 TIP3 H2   HT     0.417000        1.0080           0
   49759 WT3  1413 TIP3 OH2  OT    -0.834000       15.9994           0
   49760 WT3  1413 TIP3 H1   HT     0.417000        1.0080           0
   49761 WT3  1413 TIP3 H2   HT     0.417000        1.0080           0
   49762 WT3  1414 TIP3 OH2  OT    -0.834000       15.9994           0
   49763 WT3  1414 TIP3 H1   HT     0.417000        1.0080           0
   49764 WT3  1414 TIP3 H2   HT     0.417000        1.0080           0
   49765 WT3  1415 TIP3 OH2  OT    -0.834000       15.9994           0
   49766 WT3  1415 TIP3 H1   HT     0.417000        1.0080           0
   49767 WT3  1415 TIP3 H2   HT     0.417000        1.0080           0
   49768 WT3  1416 TIP3 OH2  OT    -0.834000       15.9994           0
   49769 WT3  1416 TIP3 H1   HT     0.417000        1.0080           0
   49770 WT3  1416 TIP3 H2   HT     0.417000        1.0080           0
   49771 WT3  1417 TIP3 OH2  OT    -0.834000       15.9994           0
   49772 WT3  1417 TIP3 H1   HT     0.417000        1.0080           0
   49773 WT3  1417 TIP3 H2   HT     0.417000        1.0080           0
   49774 WT3  1418 TIP3 OH2  OT    -0.834000       15.9994           0
   49775 WT3  1418 TIP3 H1   HT     0.417000        1.0080           0
   49776 WT3  1418 TIP3 H2   HT     0.417000        1.0080           0
   49777 WT3  1419 TIP3 OH2  OT    -0.834000       15.9994           0
   49778 WT3  1419 TIP3 H1   HT     0.417000        1.0080           0
   49779 WT3  1419 TIP3 H2   HT     0.417000        1.0080           0
   49780 WT3  1420 TIP3 OH2  OT    -0.834000       15.9994           0
   49781 WT3  1420 TIP3 H1   HT     0.417000        1.0080           0
   49782 WT3  1420 TIP3 H2   HT     0.417000        1.0080           0
   49783 WT3  1421 TIP3 OH2  OT    -0.834000       15.9994           0
   49784 WT3  1421 TIP3 H1   HT     0.417000        1.0080           0
   49785 WT3  1421 TIP3 H2   HT     0.417000        1.0080           0
   49786 WT3  1422 TIP3 OH2  OT    -0.834000       15.9994           0
   49787 WT3  1422 TIP3 H1   HT     0.417000        1.0080           0
   49788 WT3  1422 TIP3 H2   HT     0.417000        1.0080           0
   49789 WT3  1423 TIP3 OH2  OT    -0.834000       15.9994           0
   49790 WT3  1423 TIP3 H1   HT     0.417000        1.0080           0
   49791 WT3  1423 TIP3 H2   HT     0.417000        1.0080           0
   49792 WT3  1424 TIP3 OH2  OT    -0.834000       15.9994           0
   49793 WT3  1424 TIP3 H1   HT     0.417000        1.0080           0
   49794 WT3  1424 TIP3 H2   HT     0.417000        1.0080           0
   49795 WT3  1428 TIP3 OH2  OT    -0.834000       15.9994           0
   49796 WT3  1428 TIP3 H1   HT     0.417000        1.0080           0
   49797 WT3  1428 TIP3 H2   HT     0.417000        1.0080           0
   49798 WT3  1429 TIP3 OH2  OT    -0.834000       15.9994           0
   49799 WT3  1429 TIP3 H1   HT     0.417000        1.0080           0
   49800 WT3  1429 TIP3 H2   HT     0.417000        1.0080           0
   49801 WT3  1430 TIP3 OH2  OT    -0.834000       15.9994           0
   49802 WT3  1430 TIP3 H1   HT     0.417000        1.0080           0
   49803 WT3  1430 TIP3 H2   HT     0.417000        1.0080           0
   49804 WT3  1431 TIP3 OH2  OT    -0.834000       15.9994           0
   49805 WT3  1431 TIP3 H1   HT     0.417000        1.0080           0
   49806 WT3  1431 TIP3 H2   HT     0.417000        1.0080           0
   49807 WT3  1433 TIP3 OH2  OT    -0.834000       15.9994           0
   49808 WT3  1433 TIP3 H1   HT     0.417000        1.0080           0
   49809 WT3  1433 TIP3 H2   HT     0.417000        1.0080           0
   49810 WT3  1434 TIP3 OH2  OT    -0.834000       15.9994           0
   49811 WT3  1434 TIP3 H1   HT     0.417000        1.0080           0
   49812 WT3  1434 TIP3 H2   HT     0.417000        1.0080           0
   49813 WT3  1435 TIP3 OH2  OT    -0.834000       15.9994           0
   49814 WT3  1435 TIP3 H1   HT     0.417000        1.0080           0
   49815 WT3  1435 TIP3 H2   HT     0.417000        1.0080           0
   49816 WT3  1436 TIP3 OH2  OT    -0.834000       15.9994           0
   49817 WT3  1436 TIP3 H1   HT     0.417000        1.0080           0
   49818 WT3  1436 TIP3 H2   HT     0.417000        1.0080           0
   49819 WT3  1437 TIP3 OH2  OT    -0.834000       15.9994           0
   49820 WT3  1437 TIP3 H1   HT     0.417000        1.0080           0
   49821 WT3  1437 TIP3 H2   HT     0.417000        1.0080           0
   49822 WT3  1438 TIP3 OH2  OT    -0.834000       15.9994           0
   49823 WT3  1438 TIP3 H1   HT     0.417000        1.0080           0
   49824 WT3  1438 TIP3 H2   HT     0.417000        1.0080           0
   49825 WT3  1439 TIP3 OH2  OT    -0.834000       15.9994           0
   49826 WT3  1439 TIP3 H1   HT     0.417000        1.0080           0
   49827 WT3  1439 TIP3 H2   HT     0.417000        1.0080           0
   49828 WT3  1440 TIP3 OH2  OT    -0.834000       15.9994           0
   49829 WT3  1440 TIP3 H1   HT     0.417000        1.0080           0
   49830 WT3  1440 TIP3 H2   HT     0.417000        1.0080           0
   49831 WT3  1441 TIP3 OH2  OT    -0.834000       15.9994           0
   49832 WT3  1441 TIP3 H1   HT     0.417000        1.0080           0
   49833 WT3  1441 TIP3 H2   HT     0.417000        1.0080           0
   49834 WT3  1442 TIP3 OH2  OT    -0.834000       15.9994           0
   49835 WT3  1442 TIP3 H1   HT     0.417000        1.0080           0
   49836 WT3  1442 TIP3 H2   HT     0.417000        1.0080           0
   49837 WT3  1443 TIP3 OH2  OT    -0.834000       15.9994           0
   49838 WT3  1443 TIP3 H1   HT     0.417000        1.0080           0
   49839 WT3  1443 TIP3 H2   HT     0.417000        1.0080           0
   49840 WT3  1444 TIP3 OH2  OT    -0.834000       15.9994           0
   49841 WT3  1444 TIP3 H1   HT     0.417000        1.0080           0
   49842 WT3  1444 TIP3 H2   HT     0.417000        1.0080           0
   49843 WT3  1445 TIP3 OH2  OT    -0.834000       15.9994           0
   49844 WT3  1445 TIP3 H1   HT     0.417000        1.0080           0
   49845 WT3  1445 TIP3 H2   HT     0.417000        1.0080           0
   49846 WT3  1447 TIP3 OH2  OT    -0.834000       15.9994           0
   49847 WT3  1447 TIP3 H1   HT     0.417000        1.0080           0
   49848 WT3  1447 TIP3 H2   HT     0.417000        1.0080           0
   49849 WT3  1450 TIP3 OH2  OT    -0.834000       15.9994           0
   49850 WT3  1450 TIP3 H1   HT     0.417000        1.0080           0
   49851 WT3  1450 TIP3 H2   HT     0.417000        1.0080           0
   49852 WT3  1451 TIP3 OH2  OT    -0.834000       15.9994           0
   49853 WT3  1451 TIP3 H1   HT     0.417000        1.0080           0
   49854 WT3  1451 TIP3 H2   HT     0.417000        1.0080           0
   49855 WT3  1453 TIP3 OH2  OT    -0.834000       15.9994           0
   49856 WT3  1453 TIP3 H1   HT     0.417000        1.0080           0
   49857 WT3  1453 TIP3 H2   HT     0.417000        1.0080           0
   49858 WT3  1454 TIP3 OH2  OT    -0.834000       15.9994           0
   49859 WT3  1454 TIP3 H1   HT     0.417000        1.0080           0
   49860 WT3  1454 TIP3 H2   HT     0.417000        1.0080           0
   49861 WT3  1455 TIP3 OH2  OT    -0.834000       15.9994           0
   49862 WT3  1455 TIP3 H1   HT     0.417000        1.0080           0
   49863 WT3  1455 TIP3 H2   HT     0.417000        1.0080           0
   49864 WT3  1456 TIP3 OH2  OT    -0.834000       15.9994           0
   49865 WT3  1456 TIP3 H1   HT     0.417000        1.0080           0
   49866 WT3  1456 TIP3 H2   HT     0.417000        1.0080           0
   49867 WT3  1457 TIP3 OH2  OT    -0.834000       15.9994           0
   49868 WT3  1457 TIP3 H1   HT     0.417000        1.0080           0
   49869 WT3  1457 TIP3 H2   HT     0.417000        1.0080           0
   49870 WT3  1458 TIP3 OH2  OT    -0.834000       15.9994           0
   49871 WT3  1458 TIP3 H1   HT     0.417000        1.0080           0
   49872 WT3  1458 TIP3 H2   HT     0.417000        1.0080           0
   49873 WT3  1459 TIP3 OH2  OT    -0.834000       15.9994           0
   49874 WT3  1459 TIP3 H1   HT     0.417000        1.0080           0
   49875 WT3  1459 TIP3 H2   HT     0.417000        1.0080           0
   49876 WT3  1460 TIP3 OH2  OT    -0.834000       15.9994           0
   49877 WT3  1460 TIP3 H1   HT     0.417000        1.0080           0
   49878 WT3  1460 TIP3 H2   HT     0.417000        1.0080           0
   49879 WT3  1461 TIP3 OH2  OT    -0.834000       15.9994           0
   49880 WT3  1461 TIP3 H1   HT     0.417000        1.0080           0
   49881 WT3  1461 TIP3 H2   HT     0.417000        1.0080           0
   49882 WT3  1463 TIP3 OH2  OT    -0.834000       15.9994           0
   49883 WT3  1463 TIP3 H1   HT     0.417000        1.0080           0
   49884 WT3  1463 TIP3 H2   HT     0.417000        1.0080           0
   49885 WT3  1464 TIP3 OH2  OT    -0.834000       15.9994           0
   49886 WT3  1464 TIP3 H1   HT     0.417000        1.0080           0
   49887 WT3  1464 TIP3 H2   HT     0.417000        1.0080           0
   49888 WT3  1465 TIP3 OH2  OT    -0.834000       15.9994           0
   49889 WT3  1465 TIP3 H1   HT     0.417000        1.0080           0
   49890 WT3  1465 TIP3 H2   HT     0.417000        1.0080           0
   49891 WT3  1466 TIP3 OH2  OT    -0.834000       15.9994           0
   49892 WT3  1466 TIP3 H1   HT     0.417000        1.0080           0
   49893 WT3  1466 TIP3 H2   HT     0.417000        1.0080           0
   49894 WT3  1468 TIP3 OH2  OT    -0.834000       15.9994           0
   49895 WT3  1468 TIP3 H1   HT     0.417000        1.0080           0
   49896 WT3  1468 TIP3 H2   HT     0.417000        1.0080           0
   49897 WT3  1469 TIP3 OH2  OT    -0.834000       15.9994           0
   49898 WT3  1469 TIP3 H1   HT     0.417000        1.0080           0
   49899 WT3  1469 TIP3 H2   HT     0.417000        1.0080           0
   49900 WT3  1472 TIP3 OH2  OT    -0.834000       15.9994           0
   49901 WT3  1472 TIP3 H1   HT     0.417000        1.0080           0
   49902 WT3  1472 TIP3 H2   HT     0.417000        1.0080           0
   49903 WT3  1473 TIP3 OH2  OT    -0.834000       15.9994           0
   49904 WT3  1473 TIP3 H1   HT     0.417000        1.0080           0
   49905 WT3  1473 TIP3 H2   HT     0.417000        1.0080           0
   49906 WT3  1474 TIP3 OH2  OT    -0.834000       15.9994           0
   49907 WT3  1474 TIP3 H1   HT     0.417000        1.0080           0
   49908 WT3  1474 TIP3 H2   HT     0.417000        1.0080           0
   49909 WT3  1475 TIP3 OH2  OT    -0.834000       15.9994           0
   49910 WT3  1475 TIP3 H1   HT     0.417000        1.0080           0
   49911 WT3  1475 TIP3 H2   HT     0.417000        1.0080           0
   49912 WT3  1476 TIP3 OH2  OT    -0.834000       15.9994           0
   49913 WT3  1476 TIP3 H1   HT     0.417000        1.0080           0
   49914 WT3  1476 TIP3 H2   HT     0.417000        1.0080           0
   49915 WT3  1477 TIP3 OH2  OT    -0.834000       15.9994           0
   49916 WT3  1477 TIP3 H1   HT     0.417000        1.0080           0
   49917 WT3  1477 TIP3 H2   HT     0.417000        1.0080           0
   49918 WT3  1478 TIP3 OH2  OT    -0.834000       15.9994           0
   49919 WT3  1478 TIP3 H1   HT     0.417000        1.0080           0
   49920 WT3  1478 TIP3 H2   HT     0.417000        1.0080           0
   49921 WT3  1479 TIP3 OH2  OT    -0.834000       15.9994           0
   49922 WT3  1479 TIP3 H1   HT     0.417000        1.0080           0
   49923 WT3  1479 TIP3 H2   HT     0.417000        1.0080           0
   49924 WT3  1480 TIP3 OH2  OT    -0.834000       15.9994           0
   49925 WT3  1480 TIP3 H1   HT     0.417000        1.0080           0
   49926 WT3  1480 TIP3 H2   HT     0.417000        1.0080           0
   49927 WT3  1481 TIP3 OH2  OT    -0.834000       15.9994           0
   49928 WT3  1481 TIP3 H1   HT     0.417000        1.0080           0
   49929 WT3  1481 TIP3 H2   HT     0.417000        1.0080           0
   49930 WT3  1482 TIP3 OH2  OT    -0.834000       15.9994           0
   49931 WT3  1482 TIP3 H1   HT     0.417000        1.0080           0
   49932 WT3  1482 TIP3 H2   HT     0.417000        1.0080           0
   49933 WT3  1483 TIP3 OH2  OT    -0.834000       15.9994           0
   49934 WT3  1483 TIP3 H1   HT     0.417000        1.0080           0
   49935 WT3  1483 TIP3 H2   HT     0.417000        1.0080           0
   49936 WT3  1485 TIP3 OH2  OT    -0.834000       15.9994           0
   49937 WT3  1485 TIP3 H1   HT     0.417000        1.0080           0
   49938 WT3  1485 TIP3 H2   HT     0.417000        1.0080           0
   49939 WT3  1486 TIP3 OH2  OT    -0.834000       15.9994           0
   49940 WT3  1486 TIP3 H1   HT     0.417000        1.0080           0
   49941 WT3  1486 TIP3 H2   HT     0.417000        1.0080           0
   49942 WT3  1488 TIP3 OH2  OT    -0.834000       15.9994           0
   49943 WT3  1488 TIP3 H1   HT     0.417000        1.0080           0
   49944 WT3  1488 TIP3 H2   HT     0.417000        1.0080           0
   49945 WT3  1489 TIP3 OH2  OT    -0.834000       15.9994           0
   49946 WT3  1489 TIP3 H1   HT     0.417000        1.0080           0
   49947 WT3  1489 TIP3 H2   HT     0.417000        1.0080           0
   49948 WT3  1491 TIP3 OH2  OT    -0.834000       15.9994           0
   49949 WT3  1491 TIP3 H1   HT     0.417000        1.0080           0
   49950 WT3  1491 TIP3 H2   HT     0.417000        1.0080           0
   49951 WT3  1492 TIP3 OH2  OT    -0.834000       15.9994           0
   49952 WT3  1492 TIP3 H1   HT     0.417000        1.0080           0
   49953 WT3  1492 TIP3 H2   HT     0.417000        1.0080           0
   49954 WT3  1493 TIP3 OH2  OT    -0.834000       15.9994           0
   49955 WT3  1493 TIP3 H1   HT     0.417000        1.0080           0
   49956 WT3  1493 TIP3 H2   HT     0.417000        1.0080           0
   49957 WT3  1494 TIP3 OH2  OT    -0.834000       15.9994           0
   49958 WT3  1494 TIP3 H1   HT     0.417000        1.0080           0
   49959 WT3  1494 TIP3 H2   HT     0.417000        1.0080           0
   49960 WT3  1496 TIP3 OH2  OT    -0.834000       15.9994           0
   49961 WT3  1496 TIP3 H1   HT     0.417000        1.0080           0
   49962 WT3  1496 TIP3 H2   HT     0.417000        1.0080           0
   49963 WT3  1497 TIP3 OH2  OT    -0.834000       15.9994           0
   49964 WT3  1497 TIP3 H1   HT     0.417000        1.0080           0
   49965 WT3  1497 TIP3 H2   HT     0.417000        1.0080           0
   49966 WT3  1499 TIP3 OH2  OT    -0.834000       15.9994           0
   49967 WT3  1499 TIP3 H1   HT     0.417000        1.0080           0
   49968 WT3  1499 TIP3 H2   HT     0.417000        1.0080           0
   49969 WT3  1500 TIP3 OH2  OT    -0.834000       15.9994           0
   49970 WT3  1500 TIP3 H1   HT     0.417000        1.0080           0
   49971 WT3  1500 TIP3 H2   HT     0.417000        1.0080           0
   49972 WT3  1501 TIP3 OH2  OT    -0.834000       15.9994           0
   49973 WT3  1501 TIP3 H1   HT     0.417000        1.0080           0
   49974 WT3  1501 TIP3 H2   HT     0.417000        1.0080           0
   49975 WT3  1502 TIP3 OH2  OT    -0.834000       15.9994           0
   49976 WT3  1502 TIP3 H1   HT     0.417000        1.0080           0
   49977 WT3  1502 TIP3 H2   HT     0.417000        1.0080           0
   49978 WT3  1503 TIP3 OH2  OT    -0.834000       15.9994           0
   49979 WT3  1503 TIP3 H1   HT     0.417000        1.0080           0
   49980 WT3  1503 TIP3 H2   HT     0.417000        1.0080           0
   49981 WT3  1504 TIP3 OH2  OT    -0.834000       15.9994           0
   49982 WT3  1504 TIP3 H1   HT     0.417000        1.0080           0
   49983 WT3  1504 TIP3 H2   HT     0.417000        1.0080           0
   49984 WT3  1505 TIP3 OH2  OT    -0.834000       15.9994           0
   49985 WT3  1505 TIP3 H1   HT     0.417000        1.0080           0
   49986 WT3  1505 TIP3 H2   HT     0.417000        1.0080           0
   49987 WT3  1506 TIP3 OH2  OT    -0.834000       15.9994           0
   49988 WT3  1506 TIP3 H1   HT     0.417000        1.0080           0
   49989 WT3  1506 TIP3 H2   HT     0.417000        1.0080           0
   49990 WT3  1508 TIP3 OH2  OT    -0.834000       15.9994           0
   49991 WT3  1508 TIP3 H1   HT     0.417000        1.0080           0
   49992 WT3  1508 TIP3 H2   HT     0.417000        1.0080           0
   49993 WT3  1509 TIP3 OH2  OT    -0.834000       15.9994           0
   49994 WT3  1509 TIP3 H1   HT     0.417000        1.0080           0
   49995 WT3  1509 TIP3 H2   HT     0.417000        1.0080           0
   49996 WT3  1511 TIP3 OH2  OT    -0.834000       15.9994           0
   49997 WT3  1511 TIP3 H1   HT     0.417000        1.0080           0
   49998 WT3  1511 TIP3 H2   HT     0.417000        1.0080           0
   49999 WT3  1512 TIP3 OH2  OT    -0.834000       15.9994           0
   50000 WT3  1512 TIP3 H1   HT     0.417000        1.0080           0
   50001 WT3  1512 TIP3 H2   HT     0.417000        1.0080           0
   50002 WT3  1514 TIP3 OH2  OT    -0.834000       15.9994           0
   50003 WT3  1514 TIP3 H1   HT     0.417000        1.0080           0
   50004 WT3  1514 TIP3 H2   HT     0.417000        1.0080           0
   50005 WT3  1515 TIP3 OH2  OT    -0.834000       15.9994           0
   50006 WT3  1515 TIP3 H1   HT     0.417000        1.0080           0
   50007 WT3  1515 TIP3 H2   HT     0.417000        1.0080           0
   50008 WT3  1516 TIP3 OH2  OT    -0.834000       15.9994           0
   50009 WT3  1516 TIP3 H1   HT     0.417000        1.0080           0
   50010 WT3  1516 TIP3 H2   HT     0.417000        1.0080           0
   50011 WT3  1517 TIP3 OH2  OT    -0.834000       15.9994           0
   50012 WT3  1517 TIP3 H1   HT     0.417000        1.0080           0
   50013 WT3  1517 TIP3 H2   HT     0.417000        1.0080           0
   50014 WT3  1518 TIP3 OH2  OT    -0.834000       15.9994           0
   50015 WT3  1518 TIP3 H1   HT     0.417000        1.0080           0
   50016 WT3  1518 TIP3 H2   HT     0.417000        1.0080           0
   50017 WT3  1519 TIP3 OH2  OT    -0.834000       15.9994           0
   50018 WT3  1519 TIP3 H1   HT     0.417000        1.0080           0
   50019 WT3  1519 TIP3 H2   HT     0.417000        1.0080           0
   50020 WT3  1520 TIP3 OH2  OT    -0.834000       15.9994           0
   50021 WT3  1520 TIP3 H1   HT     0.417000        1.0080           0
   50022 WT3  1520 TIP3 H2   HT     0.417000        1.0080           0
   50023 WT3  1521 TIP3 OH2  OT    -0.834000       15.9994           0
   50024 WT3  1521 TIP3 H1   HT     0.417000        1.0080           0
   50025 WT3  1521 TIP3 H2   HT     0.417000        1.0080           0
   50026 WT3  1522 TIP3 OH2  OT    -0.834000       15.9994           0
   50027 WT3  1522 TIP3 H1   HT     0.417000        1.0080           0
   50028 WT3  1522 TIP3 H2   HT     0.417000        1.0080           0
   50029 WT3  1523 TIP3 OH2  OT    -0.834000       15.9994           0
   50030 WT3  1523 TIP3 H1   HT     0.417000        1.0080           0
   50031 WT3  1523 TIP3 H2   HT     0.417000        1.0080           0
   50032 WT3  1524 TIP3 OH2  OT    -0.834000       15.9994           0
   50033 WT3  1524 TIP3 H1   HT     0.417000        1.0080           0
   50034 WT3  1524 TIP3 H2   HT     0.417000        1.0080           0
   50035 WT3  1525 TIP3 OH2  OT    -0.834000       15.9994           0
   50036 WT3  1525 TIP3 H1   HT     0.417000        1.0080           0
   50037 WT3  1525 TIP3 H2   HT     0.417000        1.0080           0
   50038 WT3  1526 TIP3 OH2  OT    -0.834000       15.9994           0
   50039 WT3  1526 TIP3 H1   HT     0.417000        1.0080           0
   50040 WT3  1526 TIP3 H2   HT     0.417000        1.0080           0
   50041 WT3  1527 TIP3 OH2  OT    -0.834000       15.9994           0
   50042 WT3  1527 TIP3 H1   HT     0.417000        1.0080           0
   50043 WT3  1527 TIP3 H2   HT     0.417000        1.0080           0
   50044 WT3  1529 TIP3 OH2  OT    -0.834000       15.9994           0
   50045 WT3  1529 TIP3 H1   HT     0.417000        1.0080           0
   50046 WT3  1529 TIP3 H2   HT     0.417000        1.0080           0
   50047 WT3  1531 TIP3 OH2  OT    -0.834000       15.9994           0
   50048 WT3  1531 TIP3 H1   HT     0.417000        1.0080           0
   50049 WT3  1531 TIP3 H2   HT     0.417000        1.0080           0
   50050 WT3  1532 TIP3 OH2  OT    -0.834000       15.9994           0
   50051 WT3  1532 TIP3 H1   HT     0.417000        1.0080           0
   50052 WT3  1532 TIP3 H2   HT     0.417000        1.0080           0
   50053 WT3  1534 TIP3 OH2  OT    -0.834000       15.9994           0
   50054 WT3  1534 TIP3 H1   HT     0.417000        1.0080           0
   50055 WT3  1534 TIP3 H2   HT     0.417000        1.0080           0
   50056 WT3  1537 TIP3 OH2  OT    -0.834000       15.9994           0
   50057 WT3  1537 TIP3 H1   HT     0.417000        1.0080           0
   50058 WT3  1537 TIP3 H2   HT     0.417000        1.0080           0
   50059 WT3  1538 TIP3 OH2  OT    -0.834000       15.9994           0
   50060 WT3  1538 TIP3 H1   HT     0.417000        1.0080           0
   50061 WT3  1538 TIP3 H2   HT     0.417000        1.0080           0
   50062 WT3  1539 TIP3 OH2  OT    -0.834000       15.9994           0
   50063 WT3  1539 TIP3 H1   HT     0.417000        1.0080           0
   50064 WT3  1539 TIP3 H2   HT     0.417000        1.0080           0
   50065 WT3  1540 TIP3 OH2  OT    -0.834000       15.9994           0
   50066 WT3  1540 TIP3 H1   HT     0.417000        1.0080           0
   50067 WT3  1540 TIP3 H2   HT     0.417000        1.0080           0
   50068 WT3  1541 TIP3 OH2  OT    -0.834000       15.9994           0
   50069 WT3  1541 TIP3 H1   HT     0.417000        1.0080           0
   50070 WT3  1541 TIP3 H2   HT     0.417000        1.0080           0
   50071 WT3  1542 TIP3 OH2  OT    -0.834000       15.9994           0
   50072 WT3  1542 TIP3 H1   HT     0.417000        1.0080           0
   50073 WT3  1542 TIP3 H2   HT     0.417000        1.0080           0
   50074 WT3  1543 TIP3 OH2  OT    -0.834000       15.9994           0
   50075 WT3  1543 TIP3 H1   HT     0.417000        1.0080           0
   50076 WT3  1543 TIP3 H2   HT     0.417000        1.0080           0
   50077 WT3  1544 TIP3 OH2  OT    -0.834000       15.9994           0
   50078 WT3  1544 TIP3 H1   HT     0.417000        1.0080           0
   50079 WT3  1544 TIP3 H2   HT     0.417000        1.0080           0
   50080 WT3  1545 TIP3 OH2  OT    -0.834000       15.9994           0
   50081 WT3  1545 TIP3 H1   HT     0.417000        1.0080           0
   50082 WT3  1545 TIP3 H2   HT     0.417000        1.0080           0
   50083 WT3  1546 TIP3 OH2  OT    -0.834000       15.9994           0
   50084 WT3  1546 TIP3 H1   HT     0.417000        1.0080           0
   50085 WT3  1546 TIP3 H2   HT     0.417000        1.0080           0
   50086 WT3  1547 TIP3 OH2  OT    -0.834000       15.9994           0
   50087 WT3  1547 TIP3 H1   HT     0.417000        1.0080           0
   50088 WT3  1547 TIP3 H2   HT     0.417000        1.0080           0
   50089 WT3  1548 TIP3 OH2  OT    -0.834000       15.9994           0
   50090 WT3  1548 TIP3 H1   HT     0.417000        1.0080           0
   50091 WT3  1548 TIP3 H2   HT     0.417000        1.0080           0
   50092 WT3  1549 TIP3 OH2  OT    -0.834000       15.9994           0
   50093 WT3  1549 TIP3 H1   HT     0.417000        1.0080           0
   50094 WT3  1549 TIP3 H2   HT     0.417000        1.0080           0
   50095 WT3  1551 TIP3 OH2  OT    -0.834000       15.9994           0
   50096 WT3  1551 TIP3 H1   HT     0.417000        1.0080           0
   50097 WT3  1551 TIP3 H2   HT     0.417000        1.0080           0
   50098 WT3  1552 TIP3 OH2  OT    -0.834000       15.9994           0
   50099 WT3  1552 TIP3 H1   HT     0.417000        1.0080           0
   50100 WT3  1552 TIP3 H2   HT     0.417000        1.0080           0
   50101 WT3  1554 TIP3 OH2  OT    -0.834000       15.9994           0
   50102 WT3  1554 TIP3 H1   HT     0.417000        1.0080           0
   50103 WT3  1554 TIP3 H2   HT     0.417000        1.0080           0
   50104 WT3  1555 TIP3 OH2  OT    -0.834000       15.9994           0
   50105 WT3  1555 TIP3 H1   HT     0.417000        1.0080           0
   50106 WT3  1555 TIP3 H2   HT     0.417000        1.0080           0
   50107 WT3  1557 TIP3 OH2  OT    -0.834000       15.9994           0
   50108 WT3  1557 TIP3 H1   HT     0.417000        1.0080           0
   50109 WT3  1557 TIP3 H2   HT     0.417000        1.0080           0
   50110 WT3  1558 TIP3 OH2  OT    -0.834000       15.9994           0
   50111 WT3  1558 TIP3 H1   HT     0.417000        1.0080           0
   50112 WT3  1558 TIP3 H2   HT     0.417000        1.0080           0
   50113 WT3  1559 TIP3 OH2  OT    -0.834000       15.9994           0
   50114 WT3  1559 TIP3 H1   HT     0.417000        1.0080           0
   50115 WT3  1559 TIP3 H2   HT     0.417000        1.0080           0
   50116 WT3  1560 TIP3 OH2  OT    -0.834000       15.9994           0
   50117 WT3  1560 TIP3 H1   HT     0.417000        1.0080           0
   50118 WT3  1560 TIP3 H2   HT     0.417000        1.0080           0
   50119 WT3  1561 TIP3 OH2  OT    -0.834000       15.9994           0
   50120 WT3  1561 TIP3 H1   HT     0.417000        1.0080           0
   50121 WT3  1561 TIP3 H2   HT     0.417000        1.0080           0
   50122 WT3  1564 TIP3 OH2  OT    -0.834000       15.9994           0
   50123 WT3  1564 TIP3 H1   HT     0.417000        1.0080           0
   50124 WT3  1564 TIP3 H2   HT     0.417000        1.0080           0
   50125 WT3  1565 TIP3 OH2  OT    -0.834000       15.9994           0
   50126 WT3  1565 TIP3 H1   HT     0.417000        1.0080           0
   50127 WT3  1565 TIP3 H2   HT     0.417000        1.0080           0
   50128 WT3  1566 TIP3 OH2  OT    -0.834000       15.9994           0
   50129 WT3  1566 TIP3 H1   HT     0.417000        1.0080           0
   50130 WT3  1566 TIP3 H2   HT     0.417000        1.0080           0
   50131 WT3  1572 TIP3 OH2  OT    -0.834000       15.9994           0
   50132 WT3  1572 TIP3 H1   HT     0.417000        1.0080           0
   50133 WT3  1572 TIP3 H2   HT     0.417000        1.0080           0
   50134 WT3  1574 TIP3 OH2  OT    -0.834000       15.9994           0
   50135 WT3  1574 TIP3 H1   HT     0.417000        1.0080           0
   50136 WT3  1574 TIP3 H2   HT     0.417000        1.0080           0
   50137 WT3  1575 TIP3 OH2  OT    -0.834000       15.9994           0
   50138 WT3  1575 TIP3 H1   HT     0.417000        1.0080           0
   50139 WT3  1575 TIP3 H2   HT     0.417000        1.0080           0
   50140 WT3  1576 TIP3 OH2  OT    -0.834000       15.9994           0
   50141 WT3  1576 TIP3 H1   HT     0.417000        1.0080           0
   50142 WT3  1576 TIP3 H2   HT     0.417000        1.0080           0
   50143 WT3  1577 TIP3 OH2  OT    -0.834000       15.9994           0
   50144 WT3  1577 TIP3 H1   HT     0.417000        1.0080           0
   50145 WT3  1577 TIP3 H2   HT     0.417000        1.0080           0
   50146 WT3  1581 TIP3 OH2  OT    -0.834000       15.9994           0
   50147 WT3  1581 TIP3 H1   HT     0.417000        1.0080           0
   50148 WT3  1581 TIP3 H2   HT     0.417000        1.0080           0
   50149 WT3  1582 TIP3 OH2  OT    -0.834000       15.9994           0
   50150 WT3  1582 TIP3 H1   HT     0.417000        1.0080           0
   50151 WT3  1582 TIP3 H2   HT     0.417000        1.0080           0
   50152 WT3  1583 TIP3 OH2  OT    -0.834000       15.9994           0
   50153 WT3  1583 TIP3 H1   HT     0.417000        1.0080           0
   50154 WT3  1583 TIP3 H2   HT     0.417000        1.0080           0
   50155 WT3  1584 TIP3 OH2  OT    -0.834000       15.9994           0
   50156 WT3  1584 TIP3 H1   HT     0.417000        1.0080           0
   50157 WT3  1584 TIP3 H2   HT     0.417000        1.0080           0
   50158 WT3  1585 TIP3 OH2  OT    -0.834000       15.9994           0
   50159 WT3  1585 TIP3 H1   HT     0.417000        1.0080           0
   50160 WT3  1585 TIP3 H2   HT     0.417000        1.0080           0
   50161 WT3  1586 TIP3 OH2  OT    -0.834000       15.9994           0
   50162 WT3  1586 TIP3 H1   HT     0.417000        1.0080           0
   50163 WT3  1586 TIP3 H2   HT     0.417000        1.0080           0
   50164 WT3  1587 TIP3 OH2  OT    -0.834000       15.9994           0
   50165 WT3  1587 TIP3 H1   HT     0.417000        1.0080           0
   50166 WT3  1587 TIP3 H2   HT     0.417000        1.0080           0
   50167 WT3  1588 TIP3 OH2  OT    -0.834000       15.9994           0
   50168 WT3  1588 TIP3 H1   HT     0.417000        1.0080           0
   50169 WT3  1588 TIP3 H2   HT     0.417000        1.0080           0
   50170 WT3  1589 TIP3 OH2  OT    -0.834000       15.9994           0
   50171 WT3  1589 TIP3 H1   HT     0.417000        1.0080           0
   50172 WT3  1589 TIP3 H2   HT     0.417000        1.0080           0
   50173 WT3  1590 TIP3 OH2  OT    -0.834000       15.9994           0
   50174 WT3  1590 TIP3 H1   HT     0.417000        1.0080           0
   50175 WT3  1590 TIP3 H2   HT     0.417000        1.0080           0
   50176 WT3  1591 TIP3 OH2  OT    -0.834000       15.9994           0
   50177 WT3  1591 TIP3 H1   HT     0.417000        1.0080           0
   50178 WT3  1591 TIP3 H2   HT     0.417000        1.0080           0
   50179 WT3  1592 TIP3 OH2  OT    -0.834000       15.9994           0
   50180 WT3  1592 TIP3 H1   HT     0.417000        1.0080           0
   50181 WT3  1592 TIP3 H2   HT     0.417000        1.0080           0
   50182 WT3  1593 TIP3 OH2  OT    -0.834000       15.9994           0
   50183 WT3  1593 TIP3 H1   HT     0.417000        1.0080           0
   50184 WT3  1593 TIP3 H2   HT     0.417000        1.0080           0
   50185 WT3  1597 TIP3 OH2  OT    -0.834000       15.9994           0
   50186 WT3  1597 TIP3 H1   HT     0.417000        1.0080           0
   50187 WT3  1597 TIP3 H2   HT     0.417000        1.0080           0
   50188 WT3  1598 TIP3 OH2  OT    -0.834000       15.9994           0
   50189 WT3  1598 TIP3 H1   HT     0.417000        1.0080           0
   50190 WT3  1598 TIP3 H2   HT     0.417000        1.0080           0
   50191 WT3  1600 TIP3 OH2  OT    -0.834000       15.9994           0
   50192 WT3  1600 TIP3 H1   HT     0.417000        1.0080           0
   50193 WT3  1600 TIP3 H2   HT     0.417000        1.0080           0
   50194 WT3  1601 TIP3 OH2  OT    -0.834000       15.9994           0
   50195 WT3  1601 TIP3 H1   HT     0.417000        1.0080           0
   50196 WT3  1601 TIP3 H2   HT     0.417000        1.0080           0
   50197 WT3  1603 TIP3 OH2  OT    -0.834000       15.9994           0
   50198 WT3  1603 TIP3 H1   HT     0.417000        1.0080           0
   50199 WT3  1603 TIP3 H2   HT     0.417000        1.0080           0
   50200 WT3  1608 TIP3 OH2  OT    -0.834000       15.9994           0
   50201 WT3  1608 TIP3 H1   HT     0.417000        1.0080           0
   50202 WT3  1608 TIP3 H2   HT     0.417000        1.0080           0
   50203 WT3  1609 TIP3 OH2  OT    -0.834000       15.9994           0
   50204 WT3  1609 TIP3 H1   HT     0.417000        1.0080           0
   50205 WT3  1609 TIP3 H2   HT     0.417000        1.0080           0
   50206 WT3  1610 TIP3 OH2  OT    -0.834000       15.9994           0
   50207 WT3  1610 TIP3 H1   HT     0.417000        1.0080           0
   50208 WT3  1610 TIP3 H2   HT     0.417000        1.0080           0
   50209 WT3  1611 TIP3 OH2  OT    -0.834000       15.9994           0
   50210 WT3  1611 TIP3 H1   HT     0.417000        1.0080           0
   50211 WT3  1611 TIP3 H2   HT     0.417000        1.0080           0
   50212 WT3  1612 TIP3 OH2  OT    -0.834000       15.9994           0
   50213 WT3  1612 TIP3 H1   HT     0.417000        1.0080           0
   50214 WT3  1612 TIP3 H2   HT     0.417000        1.0080           0
   50215 WT3  1616 TIP3 OH2  OT    -0.834000       15.9994           0
   50216 WT3  1616 TIP3 H1   HT     0.417000        1.0080           0
   50217 WT3  1616 TIP3 H2   HT     0.417000        1.0080           0
   50218 WT3  1618 TIP3 OH2  OT    -0.834000       15.9994           0
   50219 WT3  1618 TIP3 H1   HT     0.417000        1.0080           0
   50220 WT3  1618 TIP3 H2   HT     0.417000        1.0080           0
   50221 WT3  1621 TIP3 OH2  OT    -0.834000       15.9994           0
   50222 WT3  1621 TIP3 H1   HT     0.417000        1.0080           0
   50223 WT3  1621 TIP3 H2   HT     0.417000        1.0080           0
   50224 WT3  1624 TIP3 OH2  OT    -0.834000       15.9994           0
   50225 WT3  1624 TIP3 H1   HT     0.417000        1.0080           0
   50226 WT3  1624 TIP3 H2   HT     0.417000        1.0080           0
   50227 WT3  1625 TIP3 OH2  OT    -0.834000       15.9994           0
   50228 WT3  1625 TIP3 H1   HT     0.417000        1.0080           0
   50229 WT3  1625 TIP3 H2   HT     0.417000        1.0080           0
   50230 WT3  1626 TIP3 OH2  OT    -0.834000       15.9994           0
   50231 WT3  1626 TIP3 H1   HT     0.417000        1.0080           0
   50232 WT3  1626 TIP3 H2   HT     0.417000        1.0080           0
   50233 WT3  1629 TIP3 OH2  OT    -0.834000       15.9994           0
   50234 WT3  1629 TIP3 H1   HT     0.417000        1.0080           0
   50235 WT3  1629 TIP3 H2   HT     0.417000        1.0080           0
   50236 WT3  1630 TIP3 OH2  OT    -0.834000       15.9994           0
   50237 WT3  1630 TIP3 H1   HT     0.417000        1.0080           0
   50238 WT3  1630 TIP3 H2   HT     0.417000        1.0080           0
   50239 WT3  1634 TIP3 OH2  OT    -0.834000       15.9994           0
   50240 WT3  1634 TIP3 H1   HT     0.417000        1.0080           0
   50241 WT3  1634 TIP3 H2   HT     0.417000        1.0080           0
   50242 WT3  1638 TIP3 OH2  OT    -0.834000       15.9994           0
   50243 WT3  1638 TIP3 H1   HT     0.417000        1.0080           0
   50244 WT3  1638 TIP3 H2   HT     0.417000        1.0080           0
   50245 WT3  1640 TIP3 OH2  OT    -0.834000       15.9994           0
   50246 WT3  1640 TIP3 H1   HT     0.417000        1.0080           0
   50247 WT3  1640 TIP3 H2   HT     0.417000        1.0080           0
   50248 WT3  1642 TIP3 OH2  OT    -0.834000       15.9994           0
   50249 WT3  1642 TIP3 H1   HT     0.417000        1.0080           0
   50250 WT3  1642 TIP3 H2   HT     0.417000        1.0080           0
   50251 WT3  1643 TIP3 OH2  OT    -0.834000       15.9994           0
   50252 WT3  1643 TIP3 H1   HT     0.417000        1.0080           0
   50253 WT3  1643 TIP3 H2   HT     0.417000        1.0080           0
   50254 WT3  1650 TIP3 OH2  OT    -0.834000       15.9994           0
   50255 WT3  1650 TIP3 H1   HT     0.417000        1.0080           0
   50256 WT3  1650 TIP3 H2   HT     0.417000        1.0080           0
   50257 WT3  1655 TIP3 OH2  OT    -0.834000       15.9994           0
   50258 WT3  1655 TIP3 H1   HT     0.417000        1.0080           0
   50259 WT3  1655 TIP3 H2   HT     0.417000        1.0080           0
   50260 WT3  1658 TIP3 OH2  OT    -0.834000       15.9994           0
   50261 WT3  1658 TIP3 H1   HT     0.417000        1.0080           0
   50262 WT3  1658 TIP3 H2   HT     0.417000        1.0080           0
   50263 WT3  1665 TIP3 OH2  OT    -0.834000       15.9994           0
   50264 WT3  1665 TIP3 H1   HT     0.417000        1.0080           0
   50265 WT3  1665 TIP3 H2   HT     0.417000        1.0080           0
   50266 WT3  1666 TIP3 OH2  OT    -0.834000       15.9994           0
   50267 WT3  1666 TIP3 H1   HT     0.417000        1.0080           0
   50268 WT3  1666 TIP3 H2   HT     0.417000        1.0080           0
   50269 WT3  1670 TIP3 OH2  OT    -0.834000       15.9994           0
   50270 WT3  1670 TIP3 H1   HT     0.417000        1.0080           0
   50271 WT3  1670 TIP3 H2   HT     0.417000        1.0080           0
   50272 WT3  1675 TIP3 OH2  OT    -0.834000       15.9994           0
   50273 WT3  1675 TIP3 H1   HT     0.417000        1.0080           0
   50274 WT3  1675 TIP3 H2   HT     0.417000        1.0080           0
   50275 WT3  1680 TIP3 OH2  OT    -0.834000       15.9994           0
   50276 WT3  1680 TIP3 H1   HT     0.417000        1.0080           0
   50277 WT3  1680 TIP3 H2   HT     0.417000        1.0080           0
   50278 WT3  1692 TIP3 OH2  OT    -0.834000       15.9994           0
   50279 WT3  1692 TIP3 H1   HT     0.417000        1.0080           0
   50280 WT3  1692 TIP3 H2   HT     0.417000        1.0080           0
   50281 WT3  1698 TIP3 OH2  OT    -0.834000       15.9994           0
   50282 WT3  1698 TIP3 H1   HT     0.417000        1.0080           0
   50283 WT3  1698 TIP3 H2   HT     0.417000        1.0080           0
   50284 WT3  1707 TIP3 OH2  OT    -0.834000       15.9994           0
   50285 WT3  1707 TIP3 H1   HT     0.417000        1.0080           0
   50286 WT3  1707 TIP3 H2   HT     0.417000        1.0080           0
   50287 WT3  1711 TIP3 OH2  OT    -0.834000       15.9994           0
   50288 WT3  1711 TIP3 H1   HT     0.417000        1.0080           0
   50289 WT3  1711 TIP3 H2   HT     0.417000        1.0080           0
   50290 WT3  1712 TIP3 OH2  OT    -0.834000       15.9994           0
   50291 WT3  1712 TIP3 H1   HT     0.417000        1.0080           0
   50292 WT3  1712 TIP3 H2   HT     0.417000        1.0080           0
   50293 WT3  1714 TIP3 OH2  OT    -0.834000       15.9994           0
   50294 WT3  1714 TIP3 H1   HT     0.417000        1.0080           0
   50295 WT3  1714 TIP3 H2   HT     0.417000        1.0080           0
   50296 WT3  1715 TIP3 OH2  OT    -0.834000       15.9994           0
   50297 WT3  1715 TIP3 H1   HT     0.417000        1.0080           0
   50298 WT3  1715 TIP3 H2   HT     0.417000        1.0080           0
   50299 WT3  1716 TIP3 OH2  OT    -0.834000       15.9994           0
   50300 WT3  1716 TIP3 H1   HT     0.417000        1.0080           0
   50301 WT3  1716 TIP3 H2   HT     0.417000        1.0080           0
   50302 WT3  1718 TIP3 OH2  OT    -0.834000       15.9994           0
   50303 WT3  1718 TIP3 H1   HT     0.417000        1.0080           0
   50304 WT3  1718 TIP3 H2   HT     0.417000        1.0080           0
   50305 WT3  1722 TIP3 OH2  OT    -0.834000       15.9994           0
   50306 WT3  1722 TIP3 H1   HT     0.417000        1.0080           0
   50307 WT3  1722 TIP3 H2   HT     0.417000        1.0080           0
   50308 WT3  1723 TIP3 OH2  OT    -0.834000       15.9994           0
   50309 WT3  1723 TIP3 H1   HT     0.417000        1.0080           0
   50310 WT3  1723 TIP3 H2   HT     0.417000        1.0080           0
   50311 WT3  1725 TIP3 OH2  OT    -0.834000       15.9994           0
   50312 WT3  1725 TIP3 H1   HT     0.417000        1.0080           0
   50313 WT3  1725 TIP3 H2   HT     0.417000        1.0080           0
   50314 WT3  1727 TIP3 OH2  OT    -0.834000       15.9994           0
   50315 WT3  1727 TIP3 H1   HT     0.417000        1.0080           0
   50316 WT3  1727 TIP3 H2   HT     0.417000        1.0080           0
   50317 WT3  1729 TIP3 OH2  OT    -0.834000       15.9994           0
   50318 WT3  1729 TIP3 H1   HT     0.417000        1.0080           0
   50319 WT3  1729 TIP3 H2   HT     0.417000        1.0080           0
   50320 WT3  1730 TIP3 OH2  OT    -0.834000       15.9994           0
   50321 WT3  1730 TIP3 H1   HT     0.417000        1.0080           0
   50322 WT3  1730 TIP3 H2   HT     0.417000        1.0080           0
   50323 WT3  1733 TIP3 OH2  OT    -0.834000       15.9994           0
   50324 WT3  1733 TIP3 H1   HT     0.417000        1.0080           0
   50325 WT3  1733 TIP3 H2   HT     0.417000        1.0080           0
   50326 WT3  1735 TIP3 OH2  OT    -0.834000       15.9994           0
   50327 WT3  1735 TIP3 H1   HT     0.417000        1.0080           0
   50328 WT3  1735 TIP3 H2   HT     0.417000        1.0080           0
   50329 WT3  1740 TIP3 OH2  OT    -0.834000       15.9994           0
   50330 WT3  1740 TIP3 H1   HT     0.417000        1.0080           0
   50331 WT3  1740 TIP3 H2   HT     0.417000        1.0080           0
   50332 WT3  1744 TIP3 OH2  OT    -0.834000       15.9994           0
   50333 WT3  1744 TIP3 H1   HT     0.417000        1.0080           0
   50334 WT3  1744 TIP3 H2   HT     0.417000        1.0080           0
   50335 WT3  1746 TIP3 OH2  OT    -0.834000       15.9994           0
   50336 WT3  1746 TIP3 H1   HT     0.417000        1.0080           0
   50337 WT3  1746 TIP3 H2   HT     0.417000        1.0080           0
   50338 WT3  1748 TIP3 OH2  OT    -0.834000       15.9994           0
   50339 WT3  1748 TIP3 H1   HT     0.417000        1.0080           0
   50340 WT3  1748 TIP3 H2   HT     0.417000        1.0080           0
   50341 WT3  1750 TIP3 OH2  OT    -0.834000       15.9994           0
   50342 WT3  1750 TIP3 H1   HT     0.417000        1.0080           0
   50343 WT3  1750 TIP3 H2   HT     0.417000        1.0080           0
   50344 WT3  1752 TIP3 OH2  OT    -0.834000       15.9994           0
   50345 WT3  1752 TIP3 H1   HT     0.417000        1.0080           0
   50346 WT3  1752 TIP3 H2   HT     0.417000        1.0080           0
   50347 WT3  1755 TIP3 OH2  OT    -0.834000       15.9994           0
   50348 WT3  1755 TIP3 H1   HT     0.417000        1.0080           0
   50349 WT3  1755 TIP3 H2   HT     0.417000        1.0080           0
   50350 WT3  1756 TIP3 OH2  OT    -0.834000       15.9994           0
   50351 WT3  1756 TIP3 H1   HT     0.417000        1.0080           0
   50352 WT3  1756 TIP3 H2   HT     0.417000        1.0080           0
   50353 WT3  1757 TIP3 OH2  OT    -0.834000       15.9994           0
   50354 WT3  1757 TIP3 H1   HT     0.417000        1.0080           0
   50355 WT3  1757 TIP3 H2   HT     0.417000        1.0080           0
   50356 WT3  1764 TIP3 OH2  OT    -0.834000       15.9994           0
   50357 WT3  1764 TIP3 H1   HT     0.417000        1.0080           0
   50358 WT3  1764 TIP3 H2   HT     0.417000        1.0080           0
   50359 WT3  1766 TIP3 OH2  OT    -0.834000       15.9994           0
   50360 WT3  1766 TIP3 H1   HT     0.417000        1.0080           0
   50361 WT3  1766 TIP3 H2   HT     0.417000        1.0080           0
   50362 WT3  1768 TIP3 OH2  OT    -0.834000       15.9994           0
   50363 WT3  1768 TIP3 H1   HT     0.417000        1.0080           0
   50364 WT3  1768 TIP3 H2   HT     0.417000        1.0080           0
   50365 WT3  1771 TIP3 OH2  OT    -0.834000       15.9994           0
   50366 WT3  1771 TIP3 H1   HT     0.417000        1.0080           0
   50367 WT3  1771 TIP3 H2   HT     0.417000        1.0080           0
   50368 WT3  1772 TIP3 OH2  OT    -0.834000       15.9994           0
   50369 WT3  1772 TIP3 H1   HT     0.417000        1.0080           0
   50370 WT3  1772 TIP3 H2   HT     0.417000        1.0080           0
   50371 WT3  1773 TIP3 OH2  OT    -0.834000       15.9994           0
   50372 WT3  1773 TIP3 H1   HT     0.417000        1.0080           0
   50373 WT3  1773 TIP3 H2   HT     0.417000        1.0080           0
   50374 WT3  1775 TIP3 OH2  OT    -0.834000       15.9994           0
   50375 WT3  1775 TIP3 H1   HT     0.417000        1.0080           0
   50376 WT3  1775 TIP3 H2   HT     0.417000        1.0080           0
   50377 WT3  1776 TIP3 OH2  OT    -0.834000       15.9994           0
   50378 WT3  1776 TIP3 H1   HT     0.417000        1.0080           0
   50379 WT3  1776 TIP3 H2   HT     0.417000        1.0080           0
   50380 WT3  1778 TIP3 OH2  OT    -0.834000       15.9994           0
   50381 WT3  1778 TIP3 H1   HT     0.417000        1.0080           0
   50382 WT3  1778 TIP3 H2   HT     0.417000        1.0080           0
   50383 WT3  1779 TIP3 OH2  OT    -0.834000       15.9994           0
   50384 WT3  1779 TIP3 H1   HT     0.417000        1.0080           0
   50385 WT3  1779 TIP3 H2   HT     0.417000        1.0080           0
   50386 WT3  1782 TIP3 OH2  OT    -0.834000       15.9994           0
   50387 WT3  1782 TIP3 H1   HT     0.417000        1.0080           0
   50388 WT3  1782 TIP3 H2   HT     0.417000        1.0080           0
   50389 WT3  1786 TIP3 OH2  OT    -0.834000       15.9994           0
   50390 WT3  1786 TIP3 H1   HT     0.417000        1.0080           0
   50391 WT3  1786 TIP3 H2   HT     0.417000        1.0080           0
   50392 WT3  1788 TIP3 OH2  OT    -0.834000       15.9994           0
   50393 WT3  1788 TIP3 H1   HT     0.417000        1.0080           0
   50394 WT3  1788 TIP3 H2   HT     0.417000        1.0080           0
   50395 WT3  1789 TIP3 OH2  OT    -0.834000       15.9994           0
   50396 WT3  1789 TIP3 H1   HT     0.417000        1.0080           0
   50397 WT3  1789 TIP3 H2   HT     0.417000        1.0080           0
   50398 WT3  1790 TIP3 OH2  OT    -0.834000       15.9994           0
   50399 WT3  1790 TIP3 H1   HT     0.417000        1.0080           0
   50400 WT3  1790 TIP3 H2   HT     0.417000        1.0080           0
   50401 WT3  1794 TIP3 OH2  OT    -0.834000       15.9994           0
   50402 WT3  1794 TIP3 H1   HT     0.417000        1.0080           0
   50403 WT3  1794 TIP3 H2   HT     0.417000        1.0080           0
   50404 WT3  1796 TIP3 OH2  OT    -0.834000       15.9994           0
   50405 WT3  1796 TIP3 H1   HT     0.417000        1.0080           0
   50406 WT3  1796 TIP3 H2   HT     0.417000        1.0080           0
   50407 WT3  1798 TIP3 OH2  OT    -0.834000       15.9994           0
   50408 WT3  1798 TIP3 H1   HT     0.417000        1.0080           0
   50409 WT3  1798 TIP3 H2   HT     0.417000        1.0080           0
   50410 WT3  1800 TIP3 OH2  OT    -0.834000       15.9994           0
   50411 WT3  1800 TIP3 H1   HT     0.417000        1.0080           0
   50412 WT3  1800 TIP3 H2   HT     0.417000        1.0080           0
   50413 WT3  1805 TIP3 OH2  OT    -0.834000       15.9994           0
   50414 WT3  1805 TIP3 H1   HT     0.417000        1.0080           0
   50415 WT3  1805 TIP3 H2   HT     0.417000        1.0080           0
   50416 WT3  1808 TIP3 OH2  OT    -0.834000       15.9994           0
   50417 WT3  1808 TIP3 H1   HT     0.417000        1.0080           0
   50418 WT3  1808 TIP3 H2   HT     0.417000        1.0080           0
   50419 WT3  1810 TIP3 OH2  OT    -0.834000       15.9994           0
   50420 WT3  1810 TIP3 H1   HT     0.417000        1.0080           0
   50421 WT3  1810 TIP3 H2   HT     0.417000        1.0080           0
   50422 WT3  1811 TIP3 OH2  OT    -0.834000       15.9994           0
   50423 WT3  1811 TIP3 H1   HT     0.417000        1.0080           0
   50424 WT3  1811 TIP3 H2   HT     0.417000        1.0080           0
   50425 WT3  1812 TIP3 OH2  OT    -0.834000       15.9994           0
   50426 WT3  1812 TIP3 H1   HT     0.417000        1.0080           0
   50427 WT3  1812 TIP3 H2   HT     0.417000        1.0080           0
   50428 WT3  1813 TIP3 OH2  OT    -0.834000       15.9994           0
   50429 WT3  1813 TIP3 H1   HT     0.417000        1.0080           0
   50430 WT3  1813 TIP3 H2   HT     0.417000        1.0080           0
   50431 WT3  1814 TIP3 OH2  OT    -0.834000       15.9994           0
   50432 WT3  1814 TIP3 H1   HT     0.417000        1.0080           0
   50433 WT3  1814 TIP3 H2   HT     0.417000        1.0080           0
   50434 WT3  1815 TIP3 OH2  OT    -0.834000       15.9994           0
   50435 WT3  1815 TIP3 H1   HT     0.417000        1.0080           0
   50436 WT3  1815 TIP3 H2   HT     0.417000        1.0080           0
   50437 WT3  1816 TIP3 OH2  OT    -0.834000       15.9994           0
   50438 WT3  1816 TIP3 H1   HT     0.417000        1.0080           0
   50439 WT3  1816 TIP3 H2   HT     0.417000        1.0080           0
   50440 WT3  1817 TIP3 OH2  OT    -0.834000       15.9994           0
   50441 WT3  1817 TIP3 H1   HT     0.417000        1.0080           0
   50442 WT3  1817 TIP3 H2   HT     0.417000        1.0080           0
   50443 WT3  1818 TIP3 OH2  OT    -0.834000       15.9994           0
   50444 WT3  1818 TIP3 H1   HT     0.417000        1.0080           0
   50445 WT3  1818 TIP3 H2   HT     0.417000        1.0080           0
   50446 WT3  1819 TIP3 OH2  OT    -0.834000       15.9994           0
   50447 WT3  1819 TIP3 H1   HT     0.417000        1.0080           0
   50448 WT3  1819 TIP3 H2   HT     0.417000        1.0080           0
   50449 WT3  1820 TIP3 OH2  OT    -0.834000       15.9994           0
   50450 WT3  1820 TIP3 H1   HT     0.417000        1.0080           0
   50451 WT3  1820 TIP3 H2   HT     0.417000        1.0080           0
   50452 WT3  1821 TIP3 OH2  OT    -0.834000       15.9994           0
   50453 WT3  1821 TIP3 H1   HT     0.417000        1.0080           0
   50454 WT3  1821 TIP3 H2   HT     0.417000        1.0080           0
   50455 WT3  1824 TIP3 OH2  OT    -0.834000       15.9994           0
   50456 WT3  1824 TIP3 H1   HT     0.417000        1.0080           0
   50457 WT3  1824 TIP3 H2   HT     0.417000        1.0080           0
   50458 WT3  1825 TIP3 OH2  OT    -0.834000       15.9994           0
   50459 WT3  1825 TIP3 H1   HT     0.417000        1.0080           0
   50460 WT3  1825 TIP3 H2   HT     0.417000        1.0080           0
   50461 WT3  1827 TIP3 OH2  OT    -0.834000       15.9994           0
   50462 WT3  1827 TIP3 H1   HT     0.417000        1.0080           0
   50463 WT3  1827 TIP3 H2   HT     0.417000        1.0080           0
   50464 WT3  1829 TIP3 OH2  OT    -0.834000       15.9994           0
   50465 WT3  1829 TIP3 H1   HT     0.417000        1.0080           0
   50466 WT3  1829 TIP3 H2   HT     0.417000        1.0080           0
   50467 WT3  1830 TIP3 OH2  OT    -0.834000       15.9994           0
   50468 WT3  1830 TIP3 H1   HT     0.417000        1.0080           0
   50469 WT3  1830 TIP3 H2   HT     0.417000        1.0080           0
   50470 WT3  1831 TIP3 OH2  OT    -0.834000       15.9994           0
   50471 WT3  1831 TIP3 H1   HT     0.417000        1.0080           0
   50472 WT3  1831 TIP3 H2   HT     0.417000        1.0080           0
   50473 WT3  1832 TIP3 OH2  OT    -0.834000       15.9994           0
   50474 WT3  1832 TIP3 H1   HT     0.417000        1.0080           0
   50475 WT3  1832 TIP3 H2   HT     0.417000        1.0080           0
   50476 WT3  1833 TIP3 OH2  OT    -0.834000       15.9994           0
   50477 WT3  1833 TIP3 H1   HT     0.417000        1.0080           0
   50478 WT3  1833 TIP3 H2   HT     0.417000        1.0080           0
   50479 WT3  1835 TIP3 OH2  OT    -0.834000       15.9994           0
   50480 WT3  1835 TIP3 H1   HT     0.417000        1.0080           0
   50481 WT3  1835 TIP3 H2   HT     0.417000        1.0080           0
   50482 WT3  1836 TIP3 OH2  OT    -0.834000       15.9994           0
   50483 WT3  1836 TIP3 H1   HT     0.417000        1.0080           0
   50484 WT3  1836 TIP3 H2   HT     0.417000        1.0080           0
   50485 WT3  1837 TIP3 OH2  OT    -0.834000       15.9994           0
   50486 WT3  1837 TIP3 H1   HT     0.417000        1.0080           0
   50487 WT3  1837 TIP3 H2   HT     0.417000        1.0080           0
   50488 WT3  1838 TIP3 OH2  OT    -0.834000       15.9994           0
   50489 WT3  1838 TIP3 H1   HT     0.417000        1.0080           0
   50490 WT3  1838 TIP3 H2   HT     0.417000        1.0080           0
   50491 WT3  1839 TIP3 OH2  OT    -0.834000       15.9994           0
   50492 WT3  1839 TIP3 H1   HT     0.417000        1.0080           0
   50493 WT3  1839 TIP3 H2   HT     0.417000        1.0080           0
   50494 WT3  1840 TIP3 OH2  OT    -0.834000       15.9994           0
   50495 WT3  1840 TIP3 H1   HT     0.417000        1.0080           0
   50496 WT3  1840 TIP3 H2   HT     0.417000        1.0080           0
   50497 WT3  1841 TIP3 OH2  OT    -0.834000       15.9994           0
   50498 WT3  1841 TIP3 H1   HT     0.417000        1.0080           0
   50499 WT3  1841 TIP3 H2   HT     0.417000        1.0080           0
   50500 WT3  1842 TIP3 OH2  OT    -0.834000       15.9994           0
   50501 WT3  1842 TIP3 H1   HT     0.417000        1.0080           0
   50502 WT3  1842 TIP3 H2   HT     0.417000        1.0080           0
   50503 WT3  1843 TIP3 OH2  OT    -0.834000       15.9994           0
   50504 WT3  1843 TIP3 H1   HT     0.417000        1.0080           0
   50505 WT3  1843 TIP3 H2   HT     0.417000        1.0080           0
   50506 WT3  1844 TIP3 OH2  OT    -0.834000       15.9994           0
   50507 WT3  1844 TIP3 H1   HT     0.417000        1.0080           0
   50508 WT3  1844 TIP3 H2   HT     0.417000        1.0080           0
   50509 WT3  1846 TIP3 OH2  OT    -0.834000       15.9994           0
   50510 WT3  1846 TIP3 H1   HT     0.417000        1.0080           0
   50511 WT3  1846 TIP3 H2   HT     0.417000        1.0080           0
   50512 WT3  1847 TIP3 OH2  OT    -0.834000       15.9994           0
   50513 WT3  1847 TIP3 H1   HT     0.417000        1.0080           0
   50514 WT3  1847 TIP3 H2   HT     0.417000        1.0080           0
   50515 WT3  1850 TIP3 OH2  OT    -0.834000       15.9994           0
   50516 WT3  1850 TIP3 H1   HT     0.417000        1.0080           0
   50517 WT3  1850 TIP3 H2   HT     0.417000        1.0080           0
   50518 WT3  1851 TIP3 OH2  OT    -0.834000       15.9994           0
   50519 WT3  1851 TIP3 H1   HT     0.417000        1.0080           0
   50520 WT3  1851 TIP3 H2   HT     0.417000        1.0080           0
   50521 WT3  1852 TIP3 OH2  OT    -0.834000       15.9994           0
   50522 WT3  1852 TIP3 H1   HT     0.417000        1.0080           0
   50523 WT3  1852 TIP3 H2   HT     0.417000        1.0080           0
   50524 WT3  1853 TIP3 OH2  OT    -0.834000       15.9994           0
   50525 WT3  1853 TIP3 H1   HT     0.417000        1.0080           0
   50526 WT3  1853 TIP3 H2   HT     0.417000        1.0080           0
   50527 WT3  1854 TIP3 OH2  OT    -0.834000       15.9994           0
   50528 WT3  1854 TIP3 H1   HT     0.417000        1.0080           0
   50529 WT3  1854 TIP3 H2   HT     0.417000        1.0080           0
   50530 WT3  1855 TIP3 OH2  OT    -0.834000       15.9994           0
   50531 WT3  1855 TIP3 H1   HT     0.417000        1.0080           0
   50532 WT3  1855 TIP3 H2   HT     0.417000        1.0080           0
   50533 WT3  1856 TIP3 OH2  OT    -0.834000       15.9994           0
   50534 WT3  1856 TIP3 H1   HT     0.417000        1.0080           0
   50535 WT3  1856 TIP3 H2   HT     0.417000        1.0080           0
   50536 WT3  1857 TIP3 OH2  OT    -0.834000       15.9994           0
   50537 WT3  1857 TIP3 H1   HT     0.417000        1.0080           0
   50538 WT3  1857 TIP3 H2   HT     0.417000        1.0080           0
   50539 WT3  1858 TIP3 OH2  OT    -0.834000       15.9994           0
   50540 WT3  1858 TIP3 H1   HT     0.417000        1.0080           0
   50541 WT3  1858 TIP3 H2   HT     0.417000        1.0080           0
   50542 WT3  1859 TIP3 OH2  OT    -0.834000       15.9994           0
   50543 WT3  1859 TIP3 H1   HT     0.417000        1.0080           0
   50544 WT3  1859 TIP3 H2   HT     0.417000        1.0080           0
   50545 WT3  1860 TIP3 OH2  OT    -0.834000       15.9994           0
   50546 WT3  1860 TIP3 H1   HT     0.417000        1.0080           0
   50547 WT3  1860 TIP3 H2   HT     0.417000        1.0080           0
   50548 WT3  1861 TIP3 OH2  OT    -0.834000       15.9994           0
   50549 WT3  1861 TIP3 H1   HT     0.417000        1.0080           0
   50550 WT3  1861 TIP3 H2   HT     0.417000        1.0080           0
   50551 WT3  1862 TIP3 OH2  OT    -0.834000       15.9994           0
   50552 WT3  1862 TIP3 H1   HT     0.417000        1.0080           0
   50553 WT3  1862 TIP3 H2   HT     0.417000        1.0080           0
   50554 WT3  1863 TIP3 OH2  OT    -0.834000       15.9994           0
   50555 WT3  1863 TIP3 H1   HT     0.417000        1.0080           0
   50556 WT3  1863 TIP3 H2   HT     0.417000        1.0080           0
   50557 WT3  1864 TIP3 OH2  OT    -0.834000       15.9994           0
   50558 WT3  1864 TIP3 H1   HT     0.417000        1.0080           0
   50559 WT3  1864 TIP3 H2   HT     0.417000        1.0080           0
   50560 WT3  1866 TIP3 OH2  OT    -0.834000       15.9994           0
   50561 WT3  1866 TIP3 H1   HT     0.417000        1.0080           0
   50562 WT3  1866 TIP3 H2   HT     0.417000        1.0080           0
   50563 WT3  1868 TIP3 OH2  OT    -0.834000       15.9994           0
   50564 WT3  1868 TIP3 H1   HT     0.417000        1.0080           0
   50565 WT3  1868 TIP3 H2   HT     0.417000        1.0080           0
   50566 WT3  1869 TIP3 OH2  OT    -0.834000       15.9994           0
   50567 WT3  1869 TIP3 H1   HT     0.417000        1.0080           0
   50568 WT3  1869 TIP3 H2   HT     0.417000        1.0080           0
   50569 WT3  1870 TIP3 OH2  OT    -0.834000       15.9994           0
   50570 WT3  1870 TIP3 H1   HT     0.417000        1.0080           0
   50571 WT3  1870 TIP3 H2   HT     0.417000        1.0080           0
   50572 WT3  1871 TIP3 OH2  OT    -0.834000       15.9994           0
   50573 WT3  1871 TIP3 H1   HT     0.417000        1.0080           0
   50574 WT3  1871 TIP3 H2   HT     0.417000        1.0080           0
   50575 WT3  1872 TIP3 OH2  OT    -0.834000       15.9994           0
   50576 WT3  1872 TIP3 H1   HT     0.417000        1.0080           0
   50577 WT3  1872 TIP3 H2   HT     0.417000        1.0080           0
   50578 WT3  1873 TIP3 OH2  OT    -0.834000       15.9994           0
   50579 WT3  1873 TIP3 H1   HT     0.417000        1.0080           0
   50580 WT3  1873 TIP3 H2   HT     0.417000        1.0080           0
   50581 WT3  1874 TIP3 OH2  OT    -0.834000       15.9994           0
   50582 WT3  1874 TIP3 H1   HT     0.417000        1.0080           0
   50583 WT3  1874 TIP3 H2   HT     0.417000        1.0080           0
   50584 WT3  1875 TIP3 OH2  OT    -0.834000       15.9994           0
   50585 WT3  1875 TIP3 H1   HT     0.417000        1.0080           0
   50586 WT3  1875 TIP3 H2   HT     0.417000        1.0080           0
   50587 WT3  1876 TIP3 OH2  OT    -0.834000       15.9994           0
   50588 WT3  1876 TIP3 H1   HT     0.417000        1.0080           0
   50589 WT3  1876 TIP3 H2   HT     0.417000        1.0080           0
   50590 WT3  1877 TIP3 OH2  OT    -0.834000       15.9994           0
   50591 WT3  1877 TIP3 H1   HT     0.417000        1.0080           0
   50592 WT3  1877 TIP3 H2   HT     0.417000        1.0080           0
   50593 WT3  1878 TIP3 OH2  OT    -0.834000       15.9994           0
   50594 WT3  1878 TIP3 H1   HT     0.417000        1.0080           0
   50595 WT3  1878 TIP3 H2   HT     0.417000        1.0080           0
   50596 WT3  1879 TIP3 OH2  OT    -0.834000       15.9994           0
   50597 WT3  1879 TIP3 H1   HT     0.417000        1.0080           0
   50598 WT3  1879 TIP3 H2   HT     0.417000        1.0080           0
   50599 WT3  1880 TIP3 OH2  OT    -0.834000       15.9994           0
   50600 WT3  1880 TIP3 H1   HT     0.417000        1.0080           0
   50601 WT3  1880 TIP3 H2   HT     0.417000        1.0080           0
   50602 WT3  1881 TIP3 OH2  OT    -0.834000       15.9994           0
   50603 WT3  1881 TIP3 H1   HT     0.417000        1.0080           0
   50604 WT3  1881 TIP3 H2   HT     0.417000        1.0080           0
   50605 WT3  1882 TIP3 OH2  OT    -0.834000       15.9994           0
   50606 WT3  1882 TIP3 H1   HT     0.417000        1.0080           0
   50607 WT3  1882 TIP3 H2   HT     0.417000        1.0080           0
   50608 WT3  1883 TIP3 OH2  OT    -0.834000       15.9994           0
   50609 WT3  1883 TIP3 H1   HT     0.417000        1.0080           0
   50610 WT3  1883 TIP3 H2   HT     0.417000        1.0080           0
   50611 WT3  1885 TIP3 OH2  OT    -0.834000       15.9994           0
   50612 WT3  1885 TIP3 H1   HT     0.417000        1.0080           0
   50613 WT3  1885 TIP3 H2   HT     0.417000        1.0080           0
   50614 WT3  1887 TIP3 OH2  OT    -0.834000       15.9994           0
   50615 WT3  1887 TIP3 H1   HT     0.417000        1.0080           0
   50616 WT3  1887 TIP3 H2   HT     0.417000        1.0080           0
   50617 WT3  1888 TIP3 OH2  OT    -0.834000       15.9994           0
   50618 WT3  1888 TIP3 H1   HT     0.417000        1.0080           0
   50619 WT3  1888 TIP3 H2   HT     0.417000        1.0080           0
   50620 WT3  1890 TIP3 OH2  OT    -0.834000       15.9994           0
   50621 WT3  1890 TIP3 H1   HT     0.417000        1.0080           0
   50622 WT3  1890 TIP3 H2   HT     0.417000        1.0080           0
   50623 WT3  1891 TIP3 OH2  OT    -0.834000       15.9994           0
   50624 WT3  1891 TIP3 H1   HT     0.417000        1.0080           0
   50625 WT3  1891 TIP3 H2   HT     0.417000        1.0080           0
   50626 WT3  1892 TIP3 OH2  OT    -0.834000       15.9994           0
   50627 WT3  1892 TIP3 H1   HT     0.417000        1.0080           0
   50628 WT3  1892 TIP3 H2   HT     0.417000        1.0080           0
   50629 WT3  1893 TIP3 OH2  OT    -0.834000       15.9994           0
   50630 WT3  1893 TIP3 H1   HT     0.417000        1.0080           0
   50631 WT3  1893 TIP3 H2   HT     0.417000        1.0080           0
   50632 WT3  1894 TIP3 OH2  OT    -0.834000       15.9994           0
   50633 WT3  1894 TIP3 H1   HT     0.417000        1.0080           0
   50634 WT3  1894 TIP3 H2   HT     0.417000        1.0080           0
   50635 WT3  1895 TIP3 OH2  OT    -0.834000       15.9994           0
   50636 WT3  1895 TIP3 H1   HT     0.417000        1.0080           0
   50637 WT3  1895 TIP3 H2   HT     0.417000        1.0080           0
   50638 WT3  1896 TIP3 OH2  OT    -0.834000       15.9994           0
   50639 WT3  1896 TIP3 H1   HT     0.417000        1.0080           0
   50640 WT3  1896 TIP3 H2   HT     0.417000        1.0080           0
   50641 WT3  1897 TIP3 OH2  OT    -0.834000       15.9994           0
   50642 WT3  1897 TIP3 H1   HT     0.417000        1.0080           0
   50643 WT3  1897 TIP3 H2   HT     0.417000        1.0080           0
   50644 WT3  1898 TIP3 OH2  OT    -0.834000       15.9994           0
   50645 WT3  1898 TIP3 H1   HT     0.417000        1.0080           0
   50646 WT3  1898 TIP3 H2   HT     0.417000        1.0080           0
   50647 WT3  1899 TIP3 OH2  OT    -0.834000       15.9994           0
   50648 WT3  1899 TIP3 H1   HT     0.417000        1.0080           0
   50649 WT3  1899 TIP3 H2   HT     0.417000        1.0080           0
   50650 WT3  1900 TIP3 OH2  OT    -0.834000       15.9994           0
   50651 WT3  1900 TIP3 H1   HT     0.417000        1.0080           0
   50652 WT3  1900 TIP3 H2   HT     0.417000        1.0080           0
   50653 WT3  1901 TIP3 OH2  OT    -0.834000       15.9994           0
   50654 WT3  1901 TIP3 H1   HT     0.417000        1.0080           0
   50655 WT3  1901 TIP3 H2   HT     0.417000        1.0080           0
   50656 WT3  1902 TIP3 OH2  OT    -0.834000       15.9994           0
   50657 WT3  1902 TIP3 H1   HT     0.417000        1.0080           0
   50658 WT3  1902 TIP3 H2   HT     0.417000        1.0080           0
   50659 WT3  1903 TIP3 OH2  OT    -0.834000       15.9994           0
   50660 WT3  1903 TIP3 H1   HT     0.417000        1.0080           0
   50661 WT3  1903 TIP3 H2   HT     0.417000        1.0080           0
   50662 WT3  1904 TIP3 OH2  OT    -0.834000       15.9994           0
   50663 WT3  1904 TIP3 H1   HT     0.417000        1.0080           0
   50664 WT3  1904 TIP3 H2   HT     0.417000        1.0080           0
   50665 WT3  1906 TIP3 OH2  OT    -0.834000       15.9994           0
   50666 WT3  1906 TIP3 H1   HT     0.417000        1.0080           0
   50667 WT3  1906 TIP3 H2   HT     0.417000        1.0080           0
   50668 WT3  1907 TIP3 OH2  OT    -0.834000       15.9994           0
   50669 WT3  1907 TIP3 H1   HT     0.417000        1.0080           0
   50670 WT3  1907 TIP3 H2   HT     0.417000        1.0080           0
   50671 WT3  1909 TIP3 OH2  OT    -0.834000       15.9994           0
   50672 WT3  1909 TIP3 H1   HT     0.417000        1.0080           0
   50673 WT3  1909 TIP3 H2   HT     0.417000        1.0080           0
   50674 WT3  1911 TIP3 OH2  OT    -0.834000       15.9994           0
   50675 WT3  1911 TIP3 H1   HT     0.417000        1.0080           0
   50676 WT3  1911 TIP3 H2   HT     0.417000        1.0080           0
   50677 WT3  1912 TIP3 OH2  OT    -0.834000       15.9994           0
   50678 WT3  1912 TIP3 H1   HT     0.417000        1.0080           0
   50679 WT3  1912 TIP3 H2   HT     0.417000        1.0080           0
   50680 WT3  1913 TIP3 OH2  OT    -0.834000       15.9994           0
   50681 WT3  1913 TIP3 H1   HT     0.417000        1.0080           0
   50682 WT3  1913 TIP3 H2   HT     0.417000        1.0080           0
   50683 WT3  1914 TIP3 OH2  OT    -0.834000       15.9994           0
   50684 WT3  1914 TIP3 H1   HT     0.417000        1.0080           0
   50685 WT3  1914 TIP3 H2   HT     0.417000        1.0080           0
   50686 WT3  1915 TIP3 OH2  OT    -0.834000       15.9994           0
   50687 WT3  1915 TIP3 H1   HT     0.417000        1.0080           0
   50688 WT3  1915 TIP3 H2   HT     0.417000        1.0080           0
   50689 WT3  1916 TIP3 OH2  OT    -0.834000       15.9994           0
   50690 WT3  1916 TIP3 H1   HT     0.417000        1.0080           0
   50691 WT3  1916 TIP3 H2   HT     0.417000        1.0080           0
   50692 WT3  1917 TIP3 OH2  OT    -0.834000       15.9994           0
   50693 WT3  1917 TIP3 H1   HT     0.417000        1.0080           0
   50694 WT3  1917 TIP3 H2   HT     0.417000        1.0080           0
   50695 WT3  1918 TIP3 OH2  OT    -0.834000       15.9994           0
   50696 WT3  1918 TIP3 H1   HT     0.417000        1.0080           0
   50697 WT3  1918 TIP3 H2   HT     0.417000        1.0080           0
   50698 WT3  1919 TIP3 OH2  OT    -0.834000       15.9994           0
   50699 WT3  1919 TIP3 H1   HT     0.417000        1.0080           0
   50700 WT3  1919 TIP3 H2   HT     0.417000        1.0080           0
   50701 WT3  1920 TIP3 OH2  OT    -0.834000       15.9994           0
   50702 WT3  1920 TIP3 H1   HT     0.417000        1.0080           0
   50703 WT3  1920 TIP3 H2   HT     0.417000        1.0080           0
   50704 WT3  1921 TIP3 OH2  OT    -0.834000       15.9994           0
   50705 WT3  1921 TIP3 H1   HT     0.417000        1.0080           0
   50706 WT3  1921 TIP3 H2   HT     0.417000        1.0080           0
   50707 WT3  1922 TIP3 OH2  OT    -0.834000       15.9994           0
   50708 WT3  1922 TIP3 H1   HT     0.417000        1.0080           0
   50709 WT3  1922 TIP3 H2   HT     0.417000        1.0080           0
   50710 WT3  1923 TIP3 OH2  OT    -0.834000       15.9994           0
   50711 WT3  1923 TIP3 H1   HT     0.417000        1.0080           0
   50712 WT3  1923 TIP3 H2   HT     0.417000        1.0080           0
   50713 WT3  1924 TIP3 OH2  OT    -0.834000       15.9994           0
   50714 WT3  1924 TIP3 H1   HT     0.417000        1.0080           0
   50715 WT3  1924 TIP3 H2   HT     0.417000        1.0080           0
   50716 WT3  1925 TIP3 OH2  OT    -0.834000       15.9994           0
   50717 WT3  1925 TIP3 H1   HT     0.417000        1.0080           0
   50718 WT3  1925 TIP3 H2   HT     0.417000        1.0080           0
   50719 WT3  1926 TIP3 OH2  OT    -0.834000       15.9994           0
   50720 WT3  1926 TIP3 H1   HT     0.417000        1.0080           0
   50721 WT3  1926 TIP3 H2   HT     0.417000        1.0080           0
   50722 WT3  1928 TIP3 OH2  OT    -0.834000       15.9994           0
   50723 WT3  1928 TIP3 H1   HT     0.417000        1.0080           0
   50724 WT3  1928 TIP3 H2   HT     0.417000        1.0080           0
   50725 WT3  1930 TIP3 OH2  OT    -0.834000       15.9994           0
   50726 WT3  1930 TIP3 H1   HT     0.417000        1.0080           0
   50727 WT3  1930 TIP3 H2   HT     0.417000        1.0080           0
   50728 WT3  1931 TIP3 OH2  OT    -0.834000       15.9994           0
   50729 WT3  1931 TIP3 H1   HT     0.417000        1.0080           0
   50730 WT3  1931 TIP3 H2   HT     0.417000        1.0080           0
   50731 WT3  1932 TIP3 OH2  OT    -0.834000       15.9994           0
   50732 WT3  1932 TIP3 H1   HT     0.417000        1.0080           0
   50733 WT3  1932 TIP3 H2   HT     0.417000        1.0080           0
   50734 WT3  1934 TIP3 OH2  OT    -0.834000       15.9994           0
   50735 WT3  1934 TIP3 H1   HT     0.417000        1.0080           0
   50736 WT3  1934 TIP3 H2   HT     0.417000        1.0080           0
   50737 WT3  1935 TIP3 OH2  OT    -0.834000       15.9994           0
   50738 WT3  1935 TIP3 H1   HT     0.417000        1.0080           0
   50739 WT3  1935 TIP3 H2   HT     0.417000        1.0080           0
   50740 WT3  1936 TIP3 OH2  OT    -0.834000       15.9994           0
   50741 WT3  1936 TIP3 H1   HT     0.417000        1.0080           0
   50742 WT3  1936 TIP3 H2   HT     0.417000        1.0080           0
   50743 WT3  1937 TIP3 OH2  OT    -0.834000       15.9994           0
   50744 WT3  1937 TIP3 H1   HT     0.417000        1.0080           0
   50745 WT3  1937 TIP3 H2   HT     0.417000        1.0080           0
   50746 WT3  1938 TIP3 OH2  OT    -0.834000       15.9994           0
   50747 WT3  1938 TIP3 H1   HT     0.417000        1.0080           0
   50748 WT3  1938 TIP3 H2   HT     0.417000        1.0080           0
   50749 WT3  1939 TIP3 OH2  OT    -0.834000       15.9994           0
   50750 WT3  1939 TIP3 H1   HT     0.417000        1.0080           0
   50751 WT3  1939 TIP3 H2   HT     0.417000        1.0080           0
   50752 WT3  1940 TIP3 OH2  OT    -0.834000       15.9994           0
   50753 WT3  1940 TIP3 H1   HT     0.417000        1.0080           0
   50754 WT3  1940 TIP3 H2   HT     0.417000        1.0080           0
   50755 WT3  1941 TIP3 OH2  OT    -0.834000       15.9994           0
   50756 WT3  1941 TIP3 H1   HT     0.417000        1.0080           0
   50757 WT3  1941 TIP3 H2   HT     0.417000        1.0080           0
   50758 WT3  1942 TIP3 OH2  OT    -0.834000       15.9994           0
   50759 WT3  1942 TIP3 H1   HT     0.417000        1.0080           0
   50760 WT3  1942 TIP3 H2   HT     0.417000        1.0080           0
   50761 WT3  1943 TIP3 OH2  OT    -0.834000       15.9994           0
   50762 WT3  1943 TIP3 H1   HT     0.417000        1.0080           0
   50763 WT3  1943 TIP3 H2   HT     0.417000        1.0080           0
   50764 WT3  1944 TIP3 OH2  OT    -0.834000       15.9994           0
   50765 WT3  1944 TIP3 H1   HT     0.417000        1.0080           0
   50766 WT3  1944 TIP3 H2   HT     0.417000        1.0080           0
   50767 WT3  1945 TIP3 OH2  OT    -0.834000       15.9994           0
   50768 WT3  1945 TIP3 H1   HT     0.417000        1.0080           0
   50769 WT3  1945 TIP3 H2   HT     0.417000        1.0080           0
   50770 WT3  1946 TIP3 OH2  OT    -0.834000       15.9994           0
   50771 WT3  1946 TIP3 H1   HT     0.417000        1.0080           0
   50772 WT3  1946 TIP3 H2   HT     0.417000        1.0080           0
   50773 WT3  1947 TIP3 OH2  OT    -0.834000       15.9994           0
   50774 WT3  1947 TIP3 H1   HT     0.417000        1.0080           0
   50775 WT3  1947 TIP3 H2   HT     0.417000        1.0080           0
   50776 WT3  1948 TIP3 OH2  OT    -0.834000       15.9994           0
   50777 WT3  1948 TIP3 H1   HT     0.417000        1.0080           0
   50778 WT3  1948 TIP3 H2   HT     0.417000        1.0080           0
   50779 WT3  1949 TIP3 OH2  OT    -0.834000       15.9994           0
   50780 WT3  1949 TIP3 H1   HT     0.417000        1.0080           0
   50781 WT3  1949 TIP3 H2   HT     0.417000        1.0080           0
   50782 WT3  1950 TIP3 OH2  OT    -0.834000       15.9994           0
   50783 WT3  1950 TIP3 H1   HT     0.417000        1.0080           0
   50784 WT3  1950 TIP3 H2   HT     0.417000        1.0080           0
   50785 WT3  1952 TIP3 OH2  OT    -0.834000       15.9994           0
   50786 WT3  1952 TIP3 H1   HT     0.417000        1.0080           0
   50787 WT3  1952 TIP3 H2   HT     0.417000        1.0080           0
   50788 WT3  1953 TIP3 OH2  OT    -0.834000       15.9994           0
   50789 WT3  1953 TIP3 H1   HT     0.417000        1.0080           0
   50790 WT3  1953 TIP3 H2   HT     0.417000        1.0080           0
   50791 WT3  1954 TIP3 OH2  OT    -0.834000       15.9994           0
   50792 WT3  1954 TIP3 H1   HT     0.417000        1.0080           0
   50793 WT3  1954 TIP3 H2   HT     0.417000        1.0080           0
   50794 WT3  1955 TIP3 OH2  OT    -0.834000       15.9994           0
   50795 WT3  1955 TIP3 H1   HT     0.417000        1.0080           0
   50796 WT3  1955 TIP3 H2   HT     0.417000        1.0080           0
   50797 WT3  1956 TIP3 OH2  OT    -0.834000       15.9994           0
   50798 WT3  1956 TIP3 H1   HT     0.417000        1.0080           0
   50799 WT3  1956 TIP3 H2   HT     0.417000        1.0080           0
   50800 WT3  1957 TIP3 OH2  OT    -0.834000       15.9994           0
   50801 WT3  1957 TIP3 H1   HT     0.417000        1.0080           0
   50802 WT3  1957 TIP3 H2   HT     0.417000        1.0080           0
   50803 WT3  1958 TIP3 OH2  OT    -0.834000       15.9994           0
   50804 WT3  1958 TIP3 H1   HT     0.417000        1.0080           0
   50805 WT3  1958 TIP3 H2   HT     0.417000        1.0080           0
   50806 WT3  1959 TIP3 OH2  OT    -0.834000       15.9994           0
   50807 WT3  1959 TIP3 H1   HT     0.417000        1.0080           0
   50808 WT3  1959 TIP3 H2   HT     0.417000        1.0080           0
   50809 WT3  1960 TIP3 OH2  OT    -0.834000       15.9994           0
   50810 WT3  1960 TIP3 H1   HT     0.417000        1.0080           0
   50811 WT3  1960 TIP3 H2   HT     0.417000        1.0080           0
   50812 WT3  1961 TIP3 OH2  OT    -0.834000       15.9994           0
   50813 WT3  1961 TIP3 H1   HT     0.417000        1.0080           0
   50814 WT3  1961 TIP3 H2   HT     0.417000        1.0080           0
   50815 WT3  1962 TIP3 OH2  OT    -0.834000       15.9994           0
   50816 WT3  1962 TIP3 H1   HT     0.417000        1.0080           0
   50817 WT3  1962 TIP3 H2   HT     0.417000        1.0080           0
   50818 WT3  1963 TIP3 OH2  OT    -0.834000       15.9994           0
   50819 WT3  1963 TIP3 H1   HT     0.417000        1.0080           0
   50820 WT3  1963 TIP3 H2   HT     0.417000        1.0080           0
   50821 WT3  1964 TIP3 OH2  OT    -0.834000       15.9994           0
   50822 WT3  1964 TIP3 H1   HT     0.417000        1.0080           0
   50823 WT3  1964 TIP3 H2   HT     0.417000        1.0080           0
   50824 WT3  1965 TIP3 OH2  OT    -0.834000       15.9994           0
   50825 WT3  1965 TIP3 H1   HT     0.417000        1.0080           0
   50826 WT3  1965 TIP3 H2   HT     0.417000        1.0080           0
   50827 WT3  1966 TIP3 OH2  OT    -0.834000       15.9994           0
   50828 WT3  1966 TIP3 H1   HT     0.417000        1.0080           0
   50829 WT3  1966 TIP3 H2   HT     0.417000        1.0080           0
   50830 WT3  1967 TIP3 OH2  OT    -0.834000       15.9994           0
   50831 WT3  1967 TIP3 H1   HT     0.417000        1.0080           0
   50832 WT3  1967 TIP3 H2   HT     0.417000        1.0080           0
   50833 WT3  1968 TIP3 OH2  OT    -0.834000       15.9994           0
   50834 WT3  1968 TIP3 H1   HT     0.417000        1.0080           0
   50835 WT3  1968 TIP3 H2   HT     0.417000        1.0080           0
   50836 WT3  1969 TIP3 OH2  OT    -0.834000       15.9994           0
   50837 WT3  1969 TIP3 H1   HT     0.417000        1.0080           0
   50838 WT3  1969 TIP3 H2   HT     0.417000        1.0080           0
   50839 WT3  1970 TIP3 OH2  OT    -0.834000       15.9994           0
   50840 WT3  1970 TIP3 H1   HT     0.417000        1.0080           0
   50841 WT3  1970 TIP3 H2   HT     0.417000        1.0080           0
   50842 WT3  1972 TIP3 OH2  OT    -0.834000       15.9994           0
   50843 WT3  1972 TIP3 H1   HT     0.417000        1.0080           0
   50844 WT3  1972 TIP3 H2   HT     0.417000        1.0080           0
   50845 WT3  1973 TIP3 OH2  OT    -0.834000       15.9994           0
   50846 WT3  1973 TIP3 H1   HT     0.417000        1.0080           0
   50847 WT3  1973 TIP3 H2   HT     0.417000        1.0080           0
   50848 WT3  1975 TIP3 OH2  OT    -0.834000       15.9994           0
   50849 WT3  1975 TIP3 H1   HT     0.417000        1.0080           0
   50850 WT3  1975 TIP3 H2   HT     0.417000        1.0080           0
   50851 WT3  1976 TIP3 OH2  OT    -0.834000       15.9994           0
   50852 WT3  1976 TIP3 H1   HT     0.417000        1.0080           0
   50853 WT3  1976 TIP3 H2   HT     0.417000        1.0080           0
   50854 WT3  1977 TIP3 OH2  OT    -0.834000       15.9994           0
   50855 WT3  1977 TIP3 H1   HT     0.417000        1.0080           0
   50856 WT3  1977 TIP3 H2   HT     0.417000        1.0080           0
   50857 WT3  1978 TIP3 OH2  OT    -0.834000       15.9994           0
   50858 WT3  1978 TIP3 H1   HT     0.417000        1.0080           0
   50859 WT3  1978 TIP3 H2   HT     0.417000        1.0080           0
   50860 WT3  1979 TIP3 OH2  OT    -0.834000       15.9994           0
   50861 WT3  1979 TIP3 H1   HT     0.417000        1.0080           0
   50862 WT3  1979 TIP3 H2   HT     0.417000        1.0080           0
   50863 WT3  1980 TIP3 OH2  OT    -0.834000       15.9994           0
   50864 WT3  1980 TIP3 H1   HT     0.417000        1.0080           0
   50865 WT3  1980 TIP3 H2   HT     0.417000        1.0080           0
   50866 WT3  1982 TIP3 OH2  OT    -0.834000       15.9994           0
   50867 WT3  1982 TIP3 H1   HT     0.417000        1.0080           0
   50868 WT3  1982 TIP3 H2   HT     0.417000        1.0080           0
   50869 WT3  1983 TIP3 OH2  OT    -0.834000       15.9994           0
   50870 WT3  1983 TIP3 H1   HT     0.417000        1.0080           0
   50871 WT3  1983 TIP3 H2   HT     0.417000        1.0080           0
   50872 WT3  1984 TIP3 OH2  OT    -0.834000       15.9994           0
   50873 WT3  1984 TIP3 H1   HT     0.417000        1.0080           0
   50874 WT3  1984 TIP3 H2   HT     0.417000        1.0080           0
   50875 WT3  1985 TIP3 OH2  OT    -0.834000       15.9994           0
   50876 WT3  1985 TIP3 H1   HT     0.417000        1.0080           0
   50877 WT3  1985 TIP3 H2   HT     0.417000        1.0080           0
   50878 WT3  1986 TIP3 OH2  OT    -0.834000       15.9994           0
   50879 WT3  1986 TIP3 H1   HT     0.417000        1.0080           0
   50880 WT3  1986 TIP3 H2   HT     0.417000        1.0080           0
   50881 WT3  1987 TIP3 OH2  OT    -0.834000       15.9994           0
   50882 WT3  1987 TIP3 H1   HT     0.417000        1.0080           0
   50883 WT3  1987 TIP3 H2   HT     0.417000        1.0080           0
   50884 WT3  1988 TIP3 OH2  OT    -0.834000       15.9994           0
   50885 WT3  1988 TIP3 H1   HT     0.417000        1.0080           0
   50886 WT3  1988 TIP3 H2   HT     0.417000        1.0080           0
   50887 WT3  1989 TIP3 OH2  OT    -0.834000       15.9994           0
   50888 WT3  1989 TIP3 H1   HT     0.417000        1.0080           0
   50889 WT3  1989 TIP3 H2   HT     0.417000        1.0080           0
   50890 WT3  1991 TIP3 OH2  OT    -0.834000       15.9994           0
   50891 WT3  1991 TIP3 H1   HT     0.417000        1.0080           0
   50892 WT3  1991 TIP3 H2   HT     0.417000        1.0080           0
   50893 WT3  1993 TIP3 OH2  OT    -0.834000       15.9994           0
   50894 WT3  1993 TIP3 H1   HT     0.417000        1.0080           0
   50895 WT3  1993 TIP3 H2   HT     0.417000        1.0080           0
   50896 WT3  1994 TIP3 OH2  OT    -0.834000       15.9994           0
   50897 WT3  1994 TIP3 H1   HT     0.417000        1.0080           0
   50898 WT3  1994 TIP3 H2   HT     0.417000        1.0080           0
   50899 WT3  1996 TIP3 OH2  OT    -0.834000       15.9994           0
   50900 WT3  1996 TIP3 H1   HT     0.417000        1.0080           0
   50901 WT3  1996 TIP3 H2   HT     0.417000        1.0080           0
   50902 WT3  1997 TIP3 OH2  OT    -0.834000       15.9994           0
   50903 WT3  1997 TIP3 H1   HT     0.417000        1.0080           0
   50904 WT3  1997 TIP3 H2   HT     0.417000        1.0080           0
   50905 WT3  1998 TIP3 OH2  OT    -0.834000       15.9994           0
   50906 WT3  1998 TIP3 H1   HT     0.417000        1.0080           0
   50907 WT3  1998 TIP3 H2   HT     0.417000        1.0080           0
   50908 WT3  1999 TIP3 OH2  OT    -0.834000       15.9994           0
   50909 WT3  1999 TIP3 H1   HT     0.417000        1.0080           0
   50910 WT3  1999 TIP3 H2   HT     0.417000        1.0080           0
   50911 WT3  2000 TIP3 OH2  OT    -0.834000       15.9994           0
   50912 WT3  2000 TIP3 H1   HT     0.417000        1.0080           0
   50913 WT3  2000 TIP3 H2   HT     0.417000        1.0080           0
   50914 WT3  2002 TIP3 OH2  OT    -0.834000       15.9994           0
   50915 WT3  2002 TIP3 H1   HT     0.417000        1.0080           0
   50916 WT3  2002 TIP3 H2   HT     0.417000        1.0080           0
   50917 WT3  2003 TIP3 OH2  OT    -0.834000       15.9994           0
   50918 WT3  2003 TIP3 H1   HT     0.417000        1.0080           0
   50919 WT3  2003 TIP3 H2   HT     0.417000        1.0080           0
   50920 WT3  2004 TIP3 OH2  OT    -0.834000       15.9994           0
   50921 WT3  2004 TIP3 H1   HT     0.417000        1.0080           0
   50922 WT3  2004 TIP3 H2   HT     0.417000        1.0080           0
   50923 WT3  2005 TIP3 OH2  OT    -0.834000       15.9994           0
   50924 WT3  2005 TIP3 H1   HT     0.417000        1.0080           0
   50925 WT3  2005 TIP3 H2   HT     0.417000        1.0080           0
   50926 WT3  2006 TIP3 OH2  OT    -0.834000       15.9994           0
   50927 WT3  2006 TIP3 H1   HT     0.417000        1.0080           0
   50928 WT3  2006 TIP3 H2   HT     0.417000        1.0080           0
   50929 WT3  2007 TIP3 OH2  OT    -0.834000       15.9994           0
   50930 WT3  2007 TIP3 H1   HT     0.417000        1.0080           0
   50931 WT3  2007 TIP3 H2   HT     0.417000        1.0080           0
   50932 WT3  2008 TIP3 OH2  OT    -0.834000       15.9994           0
   50933 WT3  2008 TIP3 H1   HT     0.417000        1.0080           0
   50934 WT3  2008 TIP3 H2   HT     0.417000        1.0080           0
   50935 WT3  2009 TIP3 OH2  OT    -0.834000       15.9994           0
   50936 WT3  2009 TIP3 H1   HT     0.417000        1.0080           0
   50937 WT3  2009 TIP3 H2   HT     0.417000        1.0080           0
   50938 WT3  2013 TIP3 OH2  OT    -0.834000       15.9994           0
   50939 WT3  2013 TIP3 H1   HT     0.417000        1.0080           0
   50940 WT3  2013 TIP3 H2   HT     0.417000        1.0080           0
   50941 WT3  2014 TIP3 OH2  OT    -0.834000       15.9994           0
   50942 WT3  2014 TIP3 H1   HT     0.417000        1.0080           0
   50943 WT3  2014 TIP3 H2   HT     0.417000        1.0080           0
   50944 WT3  2015 TIP3 OH2  OT    -0.834000       15.9994           0
   50945 WT3  2015 TIP3 H1   HT     0.417000        1.0080           0
   50946 WT3  2015 TIP3 H2   HT     0.417000        1.0080           0
   50947 WT3  2016 TIP3 OH2  OT    -0.834000       15.9994           0
   50948 WT3  2016 TIP3 H1   HT     0.417000        1.0080           0
   50949 WT3  2016 TIP3 H2   HT     0.417000        1.0080           0
   50950 WT3  2018 TIP3 OH2  OT    -0.834000       15.9994           0
   50951 WT3  2018 TIP3 H1   HT     0.417000        1.0080           0
   50952 WT3  2018 TIP3 H2   HT     0.417000        1.0080           0
   50953 WT3  2019 TIP3 OH2  OT    -0.834000       15.9994           0
   50954 WT3  2019 TIP3 H1   HT     0.417000        1.0080           0
   50955 WT3  2019 TIP3 H2   HT     0.417000        1.0080           0
   50956 WT3  2020 TIP3 OH2  OT    -0.834000       15.9994           0
   50957 WT3  2020 TIP3 H1   HT     0.417000        1.0080           0
   50958 WT3  2020 TIP3 H2   HT     0.417000        1.0080           0
   50959 WT3  2021 TIP3 OH2  OT    -0.834000       15.9994           0
   50960 WT3  2021 TIP3 H1   HT     0.417000        1.0080           0
   50961 WT3  2021 TIP3 H2   HT     0.417000        1.0080           0
   50962 WT3  2022 TIP3 OH2  OT    -0.834000       15.9994           0
   50963 WT3  2022 TIP3 H1   HT     0.417000        1.0080           0
   50964 WT3  2022 TIP3 H2   HT     0.417000        1.0080           0
   50965 WT3  2025 TIP3 OH2  OT    -0.834000       15.9994           0
   50966 WT3  2025 TIP3 H1   HT     0.417000        1.0080           0
   50967 WT3  2025 TIP3 H2   HT     0.417000        1.0080           0
   50968 WT3  2026 TIP3 OH2  OT    -0.834000       15.9994           0
   50969 WT3  2026 TIP3 H1   HT     0.417000        1.0080           0
   50970 WT3  2026 TIP3 H2   HT     0.417000        1.0080           0
   50971 WT3  2027 TIP3 OH2  OT    -0.834000       15.9994           0
   50972 WT3  2027 TIP3 H1   HT     0.417000        1.0080           0
   50973 WT3  2027 TIP3 H2   HT     0.417000        1.0080           0
   50974 WT3  2028 TIP3 OH2  OT    -0.834000       15.9994           0
   50975 WT3  2028 TIP3 H1   HT     0.417000        1.0080           0
   50976 WT3  2028 TIP3 H2   HT     0.417000        1.0080           0
   50977 WT3  2029 TIP3 OH2  OT    -0.834000       15.9994           0
   50978 WT3  2029 TIP3 H1   HT     0.417000        1.0080           0
   50979 WT3  2029 TIP3 H2   HT     0.417000        1.0080           0
   50980 WT3  2031 TIP3 OH2  OT    -0.834000       15.9994           0
   50981 WT3  2031 TIP3 H1   HT     0.417000        1.0080           0
   50982 WT3  2031 TIP3 H2   HT     0.417000        1.0080           0
   50983 WT3  2033 TIP3 OH2  OT    -0.834000       15.9994           0
   50984 WT3  2033 TIP3 H1   HT     0.417000        1.0080           0
   50985 WT3  2033 TIP3 H2   HT     0.417000        1.0080           0
   50986 WT3  2036 TIP3 OH2  OT    -0.834000       15.9994           0
   50987 WT3  2036 TIP3 H1   HT     0.417000        1.0080           0
   50988 WT3  2036 TIP3 H2   HT     0.417000        1.0080           0
   50989 WT3  2037 TIP3 OH2  OT    -0.834000       15.9994           0
   50990 WT3  2037 TIP3 H1   HT     0.417000        1.0080           0
   50991 WT3  2037 TIP3 H2   HT     0.417000        1.0080           0
   50992 WT3  2038 TIP3 OH2  OT    -0.834000       15.9994           0
   50993 WT3  2038 TIP3 H1   HT     0.417000        1.0080           0
   50994 WT3  2038 TIP3 H2   HT     0.417000        1.0080           0
   50995 WT3  2039 TIP3 OH2  OT    -0.834000       15.9994           0
   50996 WT3  2039 TIP3 H1   HT     0.417000        1.0080           0
   50997 WT3  2039 TIP3 H2   HT     0.417000        1.0080           0
   50998 WT3  2040 TIP3 OH2  OT    -0.834000       15.9994           0
   50999 WT3  2040 TIP3 H1   HT     0.417000        1.0080           0
   51000 WT3  2040 TIP3 H2   HT     0.417000        1.0080           0
   51001 WT3  2042 TIP3 OH2  OT    -0.834000       15.9994           0
   51002 WT3  2042 TIP3 H1   HT     0.417000        1.0080           0
   51003 WT3  2042 TIP3 H2   HT     0.417000        1.0080           0
   51004 WT3  2043 TIP3 OH2  OT    -0.834000       15.9994           0
   51005 WT3  2043 TIP3 H1   HT     0.417000        1.0080           0
   51006 WT3  2043 TIP3 H2   HT     0.417000        1.0080           0
   51007 WT3  2044 TIP3 OH2  OT    -0.834000       15.9994           0
   51008 WT3  2044 TIP3 H1   HT     0.417000        1.0080           0
   51009 WT3  2044 TIP3 H2   HT     0.417000        1.0080           0
   51010 WT3  2045 TIP3 OH2  OT    -0.834000       15.9994           0
   51011 WT3  2045 TIP3 H1   HT     0.417000        1.0080           0
   51012 WT3  2045 TIP3 H2   HT     0.417000        1.0080           0
   51013 WT3  2049 TIP3 OH2  OT    -0.834000       15.9994           0
   51014 WT3  2049 TIP3 H1   HT     0.417000        1.0080           0
   51015 WT3  2049 TIP3 H2   HT     0.417000        1.0080           0
   51016 WT3  2050 TIP3 OH2  OT    -0.834000       15.9994           0
   51017 WT3  2050 TIP3 H1   HT     0.417000        1.0080           0
   51018 WT3  2050 TIP3 H2   HT     0.417000        1.0080           0
   51019 WT3  2052 TIP3 OH2  OT    -0.834000       15.9994           0
   51020 WT3  2052 TIP3 H1   HT     0.417000        1.0080           0
   51021 WT3  2052 TIP3 H2   HT     0.417000        1.0080           0
   51022 WT3  2053 TIP3 OH2  OT    -0.834000       15.9994           0
   51023 WT3  2053 TIP3 H1   HT     0.417000        1.0080           0
   51024 WT3  2053 TIP3 H2   HT     0.417000        1.0080           0
   51025 WT3  2054 TIP3 OH2  OT    -0.834000       15.9994           0
   51026 WT3  2054 TIP3 H1   HT     0.417000        1.0080           0
   51027 WT3  2054 TIP3 H2   HT     0.417000        1.0080           0
   51028 WT3  2056 TIP3 OH2  OT    -0.834000       15.9994           0
   51029 WT3  2056 TIP3 H1   HT     0.417000        1.0080           0
   51030 WT3  2056 TIP3 H2   HT     0.417000        1.0080           0
   51031 WT3  2057 TIP3 OH2  OT    -0.834000       15.9994           0
   51032 WT3  2057 TIP3 H1   HT     0.417000        1.0080           0
   51033 WT3  2057 TIP3 H2   HT     0.417000        1.0080           0
   51034 WT3  2060 TIP3 OH2  OT    -0.834000       15.9994           0
   51035 WT3  2060 TIP3 H1   HT     0.417000        1.0080           0
   51036 WT3  2060 TIP3 H2   HT     0.417000        1.0080           0
   51037 WT3  2061 TIP3 OH2  OT    -0.834000       15.9994           0
   51038 WT3  2061 TIP3 H1   HT     0.417000        1.0080           0
   51039 WT3  2061 TIP3 H2   HT     0.417000        1.0080           0
   51040 WT3  2070 TIP3 OH2  OT    -0.834000       15.9994           0
   51041 WT3  2070 TIP3 H1   HT     0.417000        1.0080           0
   51042 WT3  2070 TIP3 H2   HT     0.417000        1.0080           0
   51043 WT3  2073 TIP3 OH2  OT    -0.834000       15.9994           0
   51044 WT3  2073 TIP3 H1   HT     0.417000        1.0080           0
   51045 WT3  2073 TIP3 H2   HT     0.417000        1.0080           0
   51046 WT3  2075 TIP3 OH2  OT    -0.834000       15.9994           0
   51047 WT3  2075 TIP3 H1   HT     0.417000        1.0080           0
   51048 WT3  2075 TIP3 H2   HT     0.417000        1.0080           0
   51049 WT3  2076 TIP3 OH2  OT    -0.834000       15.9994           0
   51050 WT3  2076 TIP3 H1   HT     0.417000        1.0080           0
   51051 WT3  2076 TIP3 H2   HT     0.417000        1.0080           0
   51052 WT3  2079 TIP3 OH2  OT    -0.834000       15.9994           0
   51053 WT3  2079 TIP3 H1   HT     0.417000        1.0080           0
   51054 WT3  2079 TIP3 H2   HT     0.417000        1.0080           0
   51055 WT3  2082 TIP3 OH2  OT    -0.834000       15.9994           0
   51056 WT3  2082 TIP3 H1   HT     0.417000        1.0080           0
   51057 WT3  2082 TIP3 H2   HT     0.417000        1.0080           0
   51058 WT3  2083 TIP3 OH2  OT    -0.834000       15.9994           0
   51059 WT3  2083 TIP3 H1   HT     0.417000        1.0080           0
   51060 WT3  2083 TIP3 H2   HT     0.417000        1.0080           0
   51061 WT3  2084 TIP3 OH2  OT    -0.834000       15.9994           0
   51062 WT3  2084 TIP3 H1   HT     0.417000        1.0080           0
   51063 WT3  2084 TIP3 H2   HT     0.417000        1.0080           0
   51064 WT3  2086 TIP3 OH2  OT    -0.834000       15.9994           0
   51065 WT3  2086 TIP3 H1   HT     0.417000        1.0080           0
   51066 WT3  2086 TIP3 H2   HT     0.417000        1.0080           0
   51067 WT3  2089 TIP3 OH2  OT    -0.834000       15.9994           0
   51068 WT3  2089 TIP3 H1   HT     0.417000        1.0080           0
   51069 WT3  2089 TIP3 H2   HT     0.417000        1.0080           0
   51070 WT3  2095 TIP3 OH2  OT    -0.834000       15.9994           0
   51071 WT3  2095 TIP3 H1   HT     0.417000        1.0080           0
   51072 WT3  2095 TIP3 H2   HT     0.417000        1.0080           0
   51073 WT3  2096 TIP3 OH2  OT    -0.834000       15.9994           0
   51074 WT3  2096 TIP3 H1   HT     0.417000        1.0080           0
   51075 WT3  2096 TIP3 H2   HT     0.417000        1.0080           0
   51076 WT3  2098 TIP3 OH2  OT    -0.834000       15.9994           0
   51077 WT3  2098 TIP3 H1   HT     0.417000        1.0080           0
   51078 WT3  2098 TIP3 H2   HT     0.417000        1.0080           0
   51079 WT3  2103 TIP3 OH2  OT    -0.834000       15.9994           0
   51080 WT3  2103 TIP3 H1   HT     0.417000        1.0080           0
   51081 WT3  2103 TIP3 H2   HT     0.417000        1.0080           0
   51082 WT3  2105 TIP3 OH2  OT    -0.834000       15.9994           0
   51083 WT3  2105 TIP3 H1   HT     0.417000        1.0080           0
   51084 WT3  2105 TIP3 H2   HT     0.417000        1.0080           0
   51085 WT3  2106 TIP3 OH2  OT    -0.834000       15.9994           0
   51086 WT3  2106 TIP3 H1   HT     0.417000        1.0080           0
   51087 WT3  2106 TIP3 H2   HT     0.417000        1.0080           0
   51088 WT3  2107 TIP3 OH2  OT    -0.834000       15.9994           0
   51089 WT3  2107 TIP3 H1   HT     0.417000        1.0080           0
   51090 WT3  2107 TIP3 H2   HT     0.417000        1.0080           0
   51091 WT3  2114 TIP3 OH2  OT    -0.834000       15.9994           0
   51092 WT3  2114 TIP3 H1   HT     0.417000        1.0080           0
   51093 WT3  2114 TIP3 H2   HT     0.417000        1.0080           0
   51094 WT3  2115 TIP3 OH2  OT    -0.834000       15.9994           0
   51095 WT3  2115 TIP3 H1   HT     0.417000        1.0080           0
   51096 WT3  2115 TIP3 H2   HT     0.417000        1.0080           0
   51097 WT3  2116 TIP3 OH2  OT    -0.834000       15.9994           0
   51098 WT3  2116 TIP3 H1   HT     0.417000        1.0080           0
   51099 WT3  2116 TIP3 H2   HT     0.417000        1.0080           0
   51100 WT3  2118 TIP3 OH2  OT    -0.834000       15.9994           0
   51101 WT3  2118 TIP3 H1   HT     0.417000        1.0080           0
   51102 WT3  2118 TIP3 H2   HT     0.417000        1.0080           0
   51103 WT3  2123 TIP3 OH2  OT    -0.834000       15.9994           0
   51104 WT3  2123 TIP3 H1   HT     0.417000        1.0080           0
   51105 WT3  2123 TIP3 H2   HT     0.417000        1.0080           0
   51106 WT3  2127 TIP3 OH2  OT    -0.834000       15.9994           0
   51107 WT3  2127 TIP3 H1   HT     0.417000        1.0080           0
   51108 WT3  2127 TIP3 H2   HT     0.417000        1.0080           0
   51109 WT3  2130 TIP3 OH2  OT    -0.834000       15.9994           0
   51110 WT3  2130 TIP3 H1   HT     0.417000        1.0080           0
   51111 WT3  2130 TIP3 H2   HT     0.417000        1.0080           0
   51112 WT3  2133 TIP3 OH2  OT    -0.834000       15.9994           0
   51113 WT3  2133 TIP3 H1   HT     0.417000        1.0080           0
   51114 WT3  2133 TIP3 H2   HT     0.417000        1.0080           0
   51115 WT3  2134 TIP3 OH2  OT    -0.834000       15.9994           0
   51116 WT3  2134 TIP3 H1   HT     0.417000        1.0080           0
   51117 WT3  2134 TIP3 H2   HT     0.417000        1.0080           0
   51118 WT3  2135 TIP3 OH2  OT    -0.834000       15.9994           0
   51119 WT3  2135 TIP3 H1   HT     0.417000        1.0080           0
   51120 WT3  2135 TIP3 H2   HT     0.417000        1.0080           0
   51121 WT3  2137 TIP3 OH2  OT    -0.834000       15.9994           0
   51122 WT3  2137 TIP3 H1   HT     0.417000        1.0080           0
   51123 WT3  2137 TIP3 H2   HT     0.417000        1.0080           0
   51124 WT3  2145 TIP3 OH2  OT    -0.834000       15.9994           0
   51125 WT3  2145 TIP3 H1   HT     0.417000        1.0080           0
   51126 WT3  2145 TIP3 H2   HT     0.417000        1.0080           0
   51127 WT3  2147 TIP3 OH2  OT    -0.834000       15.9994           0
   51128 WT3  2147 TIP3 H1   HT     0.417000        1.0080           0
   51129 WT3  2147 TIP3 H2   HT     0.417000        1.0080           0
   51130 WT3  2151 TIP3 OH2  OT    -0.834000       15.9994           0
   51131 WT3  2151 TIP3 H1   HT     0.417000        1.0080           0
   51132 WT3  2151 TIP3 H2   HT     0.417000        1.0080           0
   51133 WT3  2155 TIP3 OH2  OT    -0.834000       15.9994           0
   51134 WT3  2155 TIP3 H1   HT     0.417000        1.0080           0
   51135 WT3  2155 TIP3 H2   HT     0.417000        1.0080           0
   51136 WT3  2163 TIP3 OH2  OT    -0.834000       15.9994           0
   51137 WT3  2163 TIP3 H1   HT     0.417000        1.0080           0
   51138 WT3  2163 TIP3 H2   HT     0.417000        1.0080           0
   51139 WT3  2165 TIP3 OH2  OT    -0.834000       15.9994           0
   51140 WT3  2165 TIP3 H1   HT     0.417000        1.0080           0
   51141 WT3  2165 TIP3 H2   HT     0.417000        1.0080           0
   51142 WT3  2167 TIP3 OH2  OT    -0.834000       15.9994           0
   51143 WT3  2167 TIP3 H1   HT     0.417000        1.0080           0
   51144 WT3  2167 TIP3 H2   HT     0.417000        1.0080           0
   51145 WT3  2172 TIP3 OH2  OT    -0.834000       15.9994           0
   51146 WT3  2172 TIP3 H1   HT     0.417000        1.0080           0
   51147 WT3  2172 TIP3 H2   HT     0.417000        1.0080           0
   51148 WT3  2180 TIP3 OH2  OT    -0.834000       15.9994           0
   51149 WT3  2180 TIP3 H1   HT     0.417000        1.0080           0
   51150 WT3  2180 TIP3 H2   HT     0.417000        1.0080           0
   51151 WT3  2185 TIP3 OH2  OT    -0.834000       15.9994           0
   51152 WT3  2185 TIP3 H1   HT     0.417000        1.0080           0
   51153 WT3  2185 TIP3 H2   HT     0.417000        1.0080           0
   51154 WT3  2186 TIP3 OH2  OT    -0.834000       15.9994           0
   51155 WT3  2186 TIP3 H1   HT     0.417000        1.0080           0
   51156 WT3  2186 TIP3 H2   HT     0.417000        1.0080           0
   51157 WT3  2187 TIP3 OH2  OT    -0.834000       15.9994           0
   51158 WT3  2187 TIP3 H1   HT     0.417000        1.0080           0
   51159 WT3  2187 TIP3 H2   HT     0.417000        1.0080           0
   51160 WT3  2194 TIP3 OH2  OT    -0.834000       15.9994           0
   51161 WT3  2194 TIP3 H1   HT     0.417000        1.0080           0
   51162 WT3  2194 TIP3 H2   HT     0.417000        1.0080           0
   51163 WT3  2195 TIP3 OH2  OT    -0.834000       15.9994           0
   51164 WT3  2195 TIP3 H1   HT     0.417000        1.0080           0
   51165 WT3  2195 TIP3 H2   HT     0.417000        1.0080           0
   51166 WT3  2196 TIP3 OH2  OT    -0.834000       15.9994           0
   51167 WT3  2196 TIP3 H1   HT     0.417000        1.0080           0
   51168 WT3  2196 TIP3 H2   HT     0.417000        1.0080           0
   51169 WT3  2197 TIP3 OH2  OT    -0.834000       15.9994           0
   51170 WT3  2197 TIP3 H1   HT     0.417000        1.0080           0
   51171 WT3  2197 TIP3 H2   HT     0.417000        1.0080           0
   51172 WT3  2198 TIP3 OH2  OT    -0.834000       15.9994           0
   51173 WT3  2198 TIP3 H1   HT     0.417000        1.0080           0
   51174 WT3  2198 TIP3 H2   HT     0.417000        1.0080           0
   51175 WT3  2200 TIP3 OH2  OT    -0.834000       15.9994           0
   51176 WT3  2200 TIP3 H1   HT     0.417000        1.0080           0
   51177 WT3  2200 TIP3 H2   HT     0.417000        1.0080           0
   51178 WT3  2201 TIP3 OH2  OT    -0.834000       15.9994           0
   51179 WT3  2201 TIP3 H1   HT     0.417000        1.0080           0
   51180 WT3  2201 TIP3 H2   HT     0.417000        1.0080           0
   51181 WT3  2203 TIP3 OH2  OT    -0.834000       15.9994           0
   51182 WT3  2203 TIP3 H1   HT     0.417000        1.0080           0
   51183 WT3  2203 TIP3 H2   HT     0.417000        1.0080           0
   51184 WT3  2208 TIP3 OH2  OT    -0.834000       15.9994           0
   51185 WT3  2208 TIP3 H1   HT     0.417000        1.0080           0
   51186 WT3  2208 TIP3 H2   HT     0.417000        1.0080           0
   51187 WT3  2211 TIP3 OH2  OT    -0.834000       15.9994           0
   51188 WT3  2211 TIP3 H1   HT     0.417000        1.0080           0
   51189 WT3  2211 TIP3 H2   HT     0.417000        1.0080           0
   51190 WT3  2212 TIP3 OH2  OT    -0.834000       15.9994           0
   51191 WT3  2212 TIP3 H1   HT     0.417000        1.0080           0
   51192 WT3  2212 TIP3 H2   HT     0.417000        1.0080           0
   51193 WT3  2213 TIP3 OH2  OT    -0.834000       15.9994           0
   51194 WT3  2213 TIP3 H1   HT     0.417000        1.0080           0
   51195 WT3  2213 TIP3 H2   HT     0.417000        1.0080           0
   51196 WT3  2217 TIP3 OH2  OT    -0.834000       15.9994           0
   51197 WT3  2217 TIP3 H1   HT     0.417000        1.0080           0
   51198 WT3  2217 TIP3 H2   HT     0.417000        1.0080           0
   51199 WT3  2219 TIP3 OH2  OT    -0.834000       15.9994           0
   51200 WT3  2219 TIP3 H1   HT     0.417000        1.0080           0
   51201 WT3  2219 TIP3 H2   HT     0.417000        1.0080           0
   51202 WT3  2225 TIP3 OH2  OT    -0.834000       15.9994           0
   51203 WT3  2225 TIP3 H1   HT     0.417000        1.0080           0
   51204 WT3  2225 TIP3 H2   HT     0.417000        1.0080           0
   51205 WT3  2227 TIP3 OH2  OT    -0.834000       15.9994           0
   51206 WT3  2227 TIP3 H1   HT     0.417000        1.0080           0
   51207 WT3  2227 TIP3 H2   HT     0.417000        1.0080           0
   51208 WT3  2229 TIP3 OH2  OT    -0.834000       15.9994           0
   51209 WT3  2229 TIP3 H1   HT     0.417000        1.0080           0
   51210 WT3  2229 TIP3 H2   HT     0.417000        1.0080           0
   51211 WT3  2231 TIP3 OH2  OT    -0.834000       15.9994           0
   51212 WT3  2231 TIP3 H1   HT     0.417000        1.0080           0
   51213 WT3  2231 TIP3 H2   HT     0.417000        1.0080           0
   51214 WT3  2232 TIP3 OH2  OT    -0.834000       15.9994           0
   51215 WT3  2232 TIP3 H1   HT     0.417000        1.0080           0
   51216 WT3  2232 TIP3 H2   HT     0.417000        1.0080           0
   51217 WT3  2234 TIP3 OH2  OT    -0.834000       15.9994           0
   51218 WT3  2234 TIP3 H1   HT     0.417000        1.0080           0
   51219 WT3  2234 TIP3 H2   HT     0.417000        1.0080           0
   51220 WT3  2235 TIP3 OH2  OT    -0.834000       15.9994           0
   51221 WT3  2235 TIP3 H1   HT     0.417000        1.0080           0
   51222 WT3  2235 TIP3 H2   HT     0.417000        1.0080           0
   51223 WT3  2236 TIP3 OH2  OT    -0.834000       15.9994           0
   51224 WT3  2236 TIP3 H1   HT     0.417000        1.0080           0
   51225 WT3  2236 TIP3 H2   HT     0.417000        1.0080           0
   51226 WT3  2237 TIP3 OH2  OT    -0.834000       15.9994           0
   51227 WT3  2237 TIP3 H1   HT     0.417000        1.0080           0
   51228 WT3  2237 TIP3 H2   HT     0.417000        1.0080           0
   51229 WT3  2238 TIP3 OH2  OT    -0.834000       15.9994           0
   51230 WT3  2238 TIP3 H1   HT     0.417000        1.0080           0
   51231 WT3  2238 TIP3 H2   HT     0.417000        1.0080           0
   51232 WT3  2240 TIP3 OH2  OT    -0.834000       15.9994           0
   51233 WT3  2240 TIP3 H1   HT     0.417000        1.0080           0
   51234 WT3  2240 TIP3 H2   HT     0.417000        1.0080           0
   51235 WT3  2241 TIP3 OH2  OT    -0.834000       15.9994           0
   51236 WT3  2241 TIP3 H1   HT     0.417000        1.0080           0
   51237 WT3  2241 TIP3 H2   HT     0.417000        1.0080           0
   51238 WT3  2242 TIP3 OH2  OT    -0.834000       15.9994           0
   51239 WT3  2242 TIP3 H1   HT     0.417000        1.0080           0
   51240 WT3  2242 TIP3 H2   HT     0.417000        1.0080           0
   51241 WT3  2244 TIP3 OH2  OT    -0.834000       15.9994           0
   51242 WT3  2244 TIP3 H1   HT     0.417000        1.0080           0
   51243 WT3  2244 TIP3 H2   HT     0.417000        1.0080           0
   51244 WT3  2247 TIP3 OH2  OT    -0.834000       15.9994           0
   51245 WT3  2247 TIP3 H1   HT     0.417000        1.0080           0
   51246 WT3  2247 TIP3 H2   HT     0.417000        1.0080           0
   51247 WT3  2249 TIP3 OH2  OT    -0.834000       15.9994           0
   51248 WT3  2249 TIP3 H1   HT     0.417000        1.0080           0
   51249 WT3  2249 TIP3 H2   HT     0.417000        1.0080           0
   51250 WT3  2250 TIP3 OH2  OT    -0.834000       15.9994           0
   51251 WT3  2250 TIP3 H1   HT     0.417000        1.0080           0
   51252 WT3  2250 TIP3 H2   HT     0.417000        1.0080           0
   51253 WT3  2251 TIP3 OH2  OT    -0.834000       15.9994           0
   51254 WT3  2251 TIP3 H1   HT     0.417000        1.0080           0
   51255 WT3  2251 TIP3 H2   HT     0.417000        1.0080           0
   51256 WT3  2253 TIP3 OH2  OT    -0.834000       15.9994           0
   51257 WT3  2253 TIP3 H1   HT     0.417000        1.0080           0
   51258 WT3  2253 TIP3 H2   HT     0.417000        1.0080           0
   51259 WT3  2254 TIP3 OH2  OT    -0.834000       15.9994           0
   51260 WT3  2254 TIP3 H1   HT     0.417000        1.0080           0
   51261 WT3  2254 TIP3 H2   HT     0.417000        1.0080           0
   51262 WT3  2256 TIP3 OH2  OT    -0.834000       15.9994           0
   51263 WT3  2256 TIP3 H1   HT     0.417000        1.0080           0
   51264 WT3  2256 TIP3 H2   HT     0.417000        1.0080           0
   51265 WT3  2257 TIP3 OH2  OT    -0.834000       15.9994           0
   51266 WT3  2257 TIP3 H1   HT     0.417000        1.0080           0
   51267 WT3  2257 TIP3 H2   HT     0.417000        1.0080           0
   51268 WT3  2258 TIP3 OH2  OT    -0.834000       15.9994           0
   51269 WT3  2258 TIP3 H1   HT     0.417000        1.0080           0
   51270 WT3  2258 TIP3 H2   HT     0.417000        1.0080           0
   51271 WT3  2259 TIP3 OH2  OT    -0.834000       15.9994           0
   51272 WT3  2259 TIP3 H1   HT     0.417000        1.0080           0
   51273 WT3  2259 TIP3 H2   HT     0.417000        1.0080           0
   51274 WT3  2260 TIP3 OH2  OT    -0.834000       15.9994           0
   51275 WT3  2260 TIP3 H1   HT     0.417000        1.0080           0
   51276 WT3  2260 TIP3 H2   HT     0.417000        1.0080           0
   51277 WT3  2261 TIP3 OH2  OT    -0.834000       15.9994           0
   51278 WT3  2261 TIP3 H1   HT     0.417000        1.0080           0
   51279 WT3  2261 TIP3 H2   HT     0.417000        1.0080           0
   51280 WT3  2265 TIP3 OH2  OT    -0.834000       15.9994           0
   51281 WT3  2265 TIP3 H1   HT     0.417000        1.0080           0
   51282 WT3  2265 TIP3 H2   HT     0.417000        1.0080           0
   51283 WT3  2269 TIP3 OH2  OT    -0.834000       15.9994           0
   51284 WT3  2269 TIP3 H1   HT     0.417000        1.0080           0
   51285 WT3  2269 TIP3 H2   HT     0.417000        1.0080           0
   51286 WT3  2270 TIP3 OH2  OT    -0.834000       15.9994           0
   51287 WT3  2270 TIP3 H1   HT     0.417000        1.0080           0
   51288 WT3  2270 TIP3 H2   HT     0.417000        1.0080           0
   51289 WT3  2271 TIP3 OH2  OT    -0.834000       15.9994           0
   51290 WT3  2271 TIP3 H1   HT     0.417000        1.0080           0
   51291 WT3  2271 TIP3 H2   HT     0.417000        1.0080           0
   51292 WT3  2272 TIP3 OH2  OT    -0.834000       15.9994           0
   51293 WT3  2272 TIP3 H1   HT     0.417000        1.0080           0
   51294 WT3  2272 TIP3 H2   HT     0.417000        1.0080           0
   51295 WT3  2273 TIP3 OH2  OT    -0.834000       15.9994           0
   51296 WT3  2273 TIP3 H1   HT     0.417000        1.0080           0
   51297 WT3  2273 TIP3 H2   HT     0.417000        1.0080           0
   51298 WT3  2274 TIP3 OH2  OT    -0.834000       15.9994           0
   51299 WT3  2274 TIP3 H1   HT     0.417000        1.0080           0
   51300 WT3  2274 TIP3 H2   HT     0.417000        1.0080           0
   51301 WT3  2275 TIP3 OH2  OT    -0.834000       15.9994           0
   51302 WT3  2275 TIP3 H1   HT     0.417000        1.0080           0
   51303 WT3  2275 TIP3 H2   HT     0.417000        1.0080           0
   51304 WT3  2276 TIP3 OH2  OT    -0.834000       15.9994           0
   51305 WT3  2276 TIP3 H1   HT     0.417000        1.0080           0
   51306 WT3  2276 TIP3 H2   HT     0.417000        1.0080           0
   51307 WT3  2277 TIP3 OH2  OT    -0.834000       15.9994           0
   51308 WT3  2277 TIP3 H1   HT     0.417000        1.0080           0
   51309 WT3  2277 TIP3 H2   HT     0.417000        1.0080           0
   51310 WT3  2278 TIP3 OH2  OT    -0.834000       15.9994           0
   51311 WT3  2278 TIP3 H1   HT     0.417000        1.0080           0
   51312 WT3  2278 TIP3 H2   HT     0.417000        1.0080           0
   51313 WT3  2279 TIP3 OH2  OT    -0.834000       15.9994           0
   51314 WT3  2279 TIP3 H1   HT     0.417000        1.0080           0
   51315 WT3  2279 TIP3 H2   HT     0.417000        1.0080           0
   51316 WT3  2280 TIP3 OH2  OT    -0.834000       15.9994           0
   51317 WT3  2280 TIP3 H1   HT     0.417000        1.0080           0
   51318 WT3  2280 TIP3 H2   HT     0.417000        1.0080           0
   51319 WT3  2281 TIP3 OH2  OT    -0.834000       15.9994           0
   51320 WT3  2281 TIP3 H1   HT     0.417000        1.0080           0
   51321 WT3  2281 TIP3 H2   HT     0.417000        1.0080           0
   51322 WT3  2282 TIP3 OH2  OT    -0.834000       15.9994           0
   51323 WT3  2282 TIP3 H1   HT     0.417000        1.0080           0
   51324 WT3  2282 TIP3 H2   HT     0.417000        1.0080           0
   51325 WT3  2283 TIP3 OH2  OT    -0.834000       15.9994           0
   51326 WT3  2283 TIP3 H1   HT     0.417000        1.0080           0
   51327 WT3  2283 TIP3 H2   HT     0.417000        1.0080           0
   51328 WT3  2284 TIP3 OH2  OT    -0.834000       15.9994           0
   51329 WT3  2284 TIP3 H1   HT     0.417000        1.0080           0
   51330 WT3  2284 TIP3 H2   HT     0.417000        1.0080           0
   51331 WT3  2285 TIP3 OH2  OT    -0.834000       15.9994           0
   51332 WT3  2285 TIP3 H1   HT     0.417000        1.0080           0
   51333 WT3  2285 TIP3 H2   HT     0.417000        1.0080           0
   51334 WT3  2286 TIP3 OH2  OT    -0.834000       15.9994           0
   51335 WT3  2286 TIP3 H1   HT     0.417000        1.0080           0
   51336 WT3  2286 TIP3 H2   HT     0.417000        1.0080           0
   51337 WT3  2288 TIP3 OH2  OT    -0.834000       15.9994           0
   51338 WT3  2288 TIP3 H1   HT     0.417000        1.0080           0
   51339 WT3  2288 TIP3 H2   HT     0.417000        1.0080           0
   51340 WT3  2289 TIP3 OH2  OT    -0.834000       15.9994           0
   51341 WT3  2289 TIP3 H1   HT     0.417000        1.0080           0
   51342 WT3  2289 TIP3 H2   HT     0.417000        1.0080           0
   51343 WT3  2290 TIP3 OH2  OT    -0.834000       15.9994           0
   51344 WT3  2290 TIP3 H1   HT     0.417000        1.0080           0
   51345 WT3  2290 TIP3 H2   HT     0.417000        1.0080           0
   51346 WT3  2291 TIP3 OH2  OT    -0.834000       15.9994           0
   51347 WT3  2291 TIP3 H1   HT     0.417000        1.0080           0
   51348 WT3  2291 TIP3 H2   HT     0.417000        1.0080           0
   51349 WT3  2292 TIP3 OH2  OT    -0.834000       15.9994           0
   51350 WT3  2292 TIP3 H1   HT     0.417000        1.0080           0
   51351 WT3  2292 TIP3 H2   HT     0.417000        1.0080           0
   51352 WT3  2293 TIP3 OH2  OT    -0.834000       15.9994           0
   51353 WT3  2293 TIP3 H1   HT     0.417000        1.0080           0
   51354 WT3  2293 TIP3 H2   HT     0.417000        1.0080           0
   51355 WT3  2294 TIP3 OH2  OT    -0.834000       15.9994           0
   51356 WT3  2294 TIP3 H1   HT     0.417000        1.0080           0
   51357 WT3  2294 TIP3 H2   HT     0.417000        1.0080           0
   51358 WT3  2295 TIP3 OH2  OT    -0.834000       15.9994           0
   51359 WT3  2295 TIP3 H1   HT     0.417000        1.0080           0
   51360 WT3  2295 TIP3 H2   HT     0.417000        1.0080           0
   51361 WT3  2296 TIP3 OH2  OT    -0.834000       15.9994           0
   51362 WT3  2296 TIP3 H1   HT     0.417000        1.0080           0
   51363 WT3  2296 TIP3 H2   HT     0.417000        1.0080           0
   51364 WT3  2297 TIP3 OH2  OT    -0.834000       15.9994           0
   51365 WT3  2297 TIP3 H1   HT     0.417000        1.0080           0
   51366 WT3  2297 TIP3 H2   HT     0.417000        1.0080           0
   51367 WT3  2298 TIP3 OH2  OT    -0.834000       15.9994           0
   51368 WT3  2298 TIP3 H1   HT     0.417000        1.0080           0
   51369 WT3  2298 TIP3 H2   HT     0.417000        1.0080           0
   51370 WT3  2299 TIP3 OH2  OT    -0.834000       15.9994           0
   51371 WT3  2299 TIP3 H1   HT     0.417000        1.0080           0
   51372 WT3  2299 TIP3 H2   HT     0.417000        1.0080           0
   51373 WT3  2300 TIP3 OH2  OT    -0.834000       15.9994           0
   51374 WT3  2300 TIP3 H1   HT     0.417000        1.0080           0
   51375 WT3  2300 TIP3 H2   HT     0.417000        1.0080           0
   51376 WT3  2301 TIP3 OH2  OT    -0.834000       15.9994           0
   51377 WT3  2301 TIP3 H1   HT     0.417000        1.0080           0
   51378 WT3  2301 TIP3 H2   HT     0.417000        1.0080           0
   51379 WT3  2302 TIP3 OH2  OT    -0.834000       15.9994           0
   51380 WT3  2302 TIP3 H1   HT     0.417000        1.0080           0
   51381 WT3  2302 TIP3 H2   HT     0.417000        1.0080           0
   51382 WT3  2303 TIP3 OH2  OT    -0.834000       15.9994           0
   51383 WT3  2303 TIP3 H1   HT     0.417000        1.0080           0
   51384 WT3  2303 TIP3 H2   HT     0.417000        1.0080           0
   51385 WT3  2304 TIP3 OH2  OT    -0.834000       15.9994           0
   51386 WT3  2304 TIP3 H1   HT     0.417000        1.0080           0
   51387 WT3  2304 TIP3 H2   HT     0.417000        1.0080           0
   51388 WT3  2305 TIP3 OH2  OT    -0.834000       15.9994           0
   51389 WT3  2305 TIP3 H1   HT     0.417000        1.0080           0
   51390 WT3  2305 TIP3 H2   HT     0.417000        1.0080           0
   51391 WT3  2306 TIP3 OH2  OT    -0.834000       15.9994           0
   51392 WT3  2306 TIP3 H1   HT     0.417000        1.0080           0
   51393 WT3  2306 TIP3 H2   HT     0.417000        1.0080           0
   51394 WT3  2308 TIP3 OH2  OT    -0.834000       15.9994           0
   51395 WT3  2308 TIP3 H1   HT     0.417000        1.0080           0
   51396 WT3  2308 TIP3 H2   HT     0.417000        1.0080           0
   51397 WT3  2309 TIP3 OH2  OT    -0.834000       15.9994           0
   51398 WT3  2309 TIP3 H1   HT     0.417000        1.0080           0
   51399 WT3  2309 TIP3 H2   HT     0.417000        1.0080           0
   51400 WT3  2310 TIP3 OH2  OT    -0.834000       15.9994           0
   51401 WT3  2310 TIP3 H1   HT     0.417000        1.0080           0
   51402 WT3  2310 TIP3 H2   HT     0.417000        1.0080           0
   51403 WT3  2311 TIP3 OH2  OT    -0.834000       15.9994           0
   51404 WT3  2311 TIP3 H1   HT     0.417000        1.0080           0
   51405 WT3  2311 TIP3 H2   HT     0.417000        1.0080           0
   51406 WT3  2313 TIP3 OH2  OT    -0.834000       15.9994           0
   51407 WT3  2313 TIP3 H1   HT     0.417000        1.0080           0
   51408 WT3  2313 TIP3 H2   HT     0.417000        1.0080           0
   51409 WT3  2314 TIP3 OH2  OT    -0.834000       15.9994           0
   51410 WT3  2314 TIP3 H1   HT     0.417000        1.0080           0
   51411 WT3  2314 TIP3 H2   HT     0.417000        1.0080           0
   51412 WT3  2315 TIP3 OH2  OT    -0.834000       15.9994           0
   51413 WT3  2315 TIP3 H1   HT     0.417000        1.0080           0
   51414 WT3  2315 TIP3 H2   HT     0.417000        1.0080           0
   51415 WT3  2316 TIP3 OH2  OT    -0.834000       15.9994           0
   51416 WT3  2316 TIP3 H1   HT     0.417000        1.0080           0
   51417 WT3  2316 TIP3 H2   HT     0.417000        1.0080           0
   51418 WT3  2317 TIP3 OH2  OT    -0.834000       15.9994           0
   51419 WT3  2317 TIP3 H1   HT     0.417000        1.0080           0
   51420 WT3  2317 TIP3 H2   HT     0.417000        1.0080           0
   51421 WT3  2318 TIP3 OH2  OT    -0.834000       15.9994           0
   51422 WT3  2318 TIP3 H1   HT     0.417000        1.0080           0
   51423 WT3  2318 TIP3 H2   HT     0.417000        1.0080           0
   51424 WT3  2319 TIP3 OH2  OT    -0.834000       15.9994           0
   51425 WT3  2319 TIP3 H1   HT     0.417000        1.0080           0
   51426 WT3  2319 TIP3 H2   HT     0.417000        1.0080           0
   51427 WT3  2320 TIP3 OH2  OT    -0.834000       15.9994           0
   51428 WT3  2320 TIP3 H1   HT     0.417000        1.0080           0
   51429 WT3  2320 TIP3 H2   HT     0.417000        1.0080           0
   51430 WT3  2321 TIP3 OH2  OT    -0.834000       15.9994           0
   51431 WT3  2321 TIP3 H1   HT     0.417000        1.0080           0
   51432 WT3  2321 TIP3 H2   HT     0.417000        1.0080           0
   51433 WT3  2322 TIP3 OH2  OT    -0.834000       15.9994           0
   51434 WT3  2322 TIP3 H1   HT     0.417000        1.0080           0
   51435 WT3  2322 TIP3 H2   HT     0.417000        1.0080           0
   51436 WT3  2323 TIP3 OH2  OT    -0.834000       15.9994           0
   51437 WT3  2323 TIP3 H1   HT     0.417000        1.0080           0
   51438 WT3  2323 TIP3 H2   HT     0.417000        1.0080           0
   51439 WT3  2324 TIP3 OH2  OT    -0.834000       15.9994           0
   51440 WT3  2324 TIP3 H1   HT     0.417000        1.0080           0
   51441 WT3  2324 TIP3 H2   HT     0.417000        1.0080           0
   51442 WT3  2325 TIP3 OH2  OT    -0.834000       15.9994           0
   51443 WT3  2325 TIP3 H1   HT     0.417000        1.0080           0
   51444 WT3  2325 TIP3 H2   HT     0.417000        1.0080           0
   51445 WT3  2326 TIP3 OH2  OT    -0.834000       15.9994           0
   51446 WT3  2326 TIP3 H1   HT     0.417000        1.0080           0
   51447 WT3  2326 TIP3 H2   HT     0.417000        1.0080           0
   51448 WT3  2327 TIP3 OH2  OT    -0.834000       15.9994           0
   51449 WT3  2327 TIP3 H1   HT     0.417000        1.0080           0
   51450 WT3  2327 TIP3 H2   HT     0.417000        1.0080           0
   51451 WT3  2328 TIP3 OH2  OT    -0.834000       15.9994           0
   51452 WT3  2328 TIP3 H1   HT     0.417000        1.0080           0
   51453 WT3  2328 TIP3 H2   HT     0.417000        1.0080           0
   51454 WT3  2329 TIP3 OH2  OT    -0.834000       15.9994           0
   51455 WT3  2329 TIP3 H1   HT     0.417000        1.0080           0
   51456 WT3  2329 TIP3 H2   HT     0.417000        1.0080           0
   51457 WT3  2331 TIP3 OH2  OT    -0.834000       15.9994           0
   51458 WT3  2331 TIP3 H1   HT     0.417000        1.0080           0
   51459 WT3  2331 TIP3 H2   HT     0.417000        1.0080           0
   51460 WT3  2332 TIP3 OH2  OT    -0.834000       15.9994           0
   51461 WT3  2332 TIP3 H1   HT     0.417000        1.0080           0
   51462 WT3  2332 TIP3 H2   HT     0.417000        1.0080           0
   51463 WT3  2333 TIP3 OH2  OT    -0.834000       15.9994           0
   51464 WT3  2333 TIP3 H1   HT     0.417000        1.0080           0
   51465 WT3  2333 TIP3 H2   HT     0.417000        1.0080           0
   51466 WT3  2334 TIP3 OH2  OT    -0.834000       15.9994           0
   51467 WT3  2334 TIP3 H1   HT     0.417000        1.0080           0
   51468 WT3  2334 TIP3 H2   HT     0.417000        1.0080           0
   51469 WT3  2335 TIP3 OH2  OT    -0.834000       15.9994           0
   51470 WT3  2335 TIP3 H1   HT     0.417000        1.0080           0
   51471 WT3  2335 TIP3 H2   HT     0.417000        1.0080           0
   51472 WT3  2336 TIP3 OH2  OT    -0.834000       15.9994           0
   51473 WT3  2336 TIP3 H1   HT     0.417000        1.0080           0
   51474 WT3  2336 TIP3 H2   HT     0.417000        1.0080           0
   51475 WT3  2337 TIP3 OH2  OT    -0.834000       15.9994           0
   51476 WT3  2337 TIP3 H1   HT     0.417000        1.0080           0
   51477 WT3  2337 TIP3 H2   HT     0.417000        1.0080           0
   51478 WT3  2338 TIP3 OH2  OT    -0.834000       15.9994           0
   51479 WT3  2338 TIP3 H1   HT     0.417000        1.0080           0
   51480 WT3  2338 TIP3 H2   HT     0.417000        1.0080           0
   51481 WT3  2339 TIP3 OH2  OT    -0.834000       15.9994           0
   51482 WT3  2339 TIP3 H1   HT     0.417000        1.0080           0
   51483 WT3  2339 TIP3 H2   HT     0.417000        1.0080           0
   51484 WT3  2340 TIP3 OH2  OT    -0.834000       15.9994           0
   51485 WT3  2340 TIP3 H1   HT     0.417000        1.0080           0
   51486 WT3  2340 TIP3 H2   HT     0.417000        1.0080           0
   51487 WT3  2341 TIP3 OH2  OT    -0.834000       15.9994           0
   51488 WT3  2341 TIP3 H1   HT     0.417000        1.0080           0
   51489 WT3  2341 TIP3 H2   HT     0.417000        1.0080           0
   51490 WT3  2342 TIP3 OH2  OT    -0.834000       15.9994           0
   51491 WT3  2342 TIP3 H1   HT     0.417000        1.0080           0
   51492 WT3  2342 TIP3 H2   HT     0.417000        1.0080           0
   51493 WT3  2343 TIP3 OH2  OT    -0.834000       15.9994           0
   51494 WT3  2343 TIP3 H1   HT     0.417000        1.0080           0
   51495 WT3  2343 TIP3 H2   HT     0.417000        1.0080           0
   51496 WT3  2344 TIP3 OH2  OT    -0.834000       15.9994           0
   51497 WT3  2344 TIP3 H1   HT     0.417000        1.0080           0
   51498 WT3  2344 TIP3 H2   HT     0.417000        1.0080           0
   51499 WT3  2345 TIP3 OH2  OT    -0.834000       15.9994           0
   51500 WT3  2345 TIP3 H1   HT     0.417000        1.0080           0
   51501 WT3  2345 TIP3 H2   HT     0.417000        1.0080           0
   51502 WT3  2346 TIP3 OH2  OT    -0.834000       15.9994           0
   51503 WT3  2346 TIP3 H1   HT     0.417000        1.0080           0
   51504 WT3  2346 TIP3 H2   HT     0.417000        1.0080           0
   51505 WT3  2347 TIP3 OH2  OT    -0.834000       15.9994           0
   51506 WT3  2347 TIP3 H1   HT     0.417000        1.0080           0
   51507 WT3  2347 TIP3 H2   HT     0.417000        1.0080           0
   51508 WT3  2348 TIP3 OH2  OT    -0.834000       15.9994           0
   51509 WT3  2348 TIP3 H1   HT     0.417000        1.0080           0
   51510 WT3  2348 TIP3 H2   HT     0.417000        1.0080           0
   51511 WT3  2349 TIP3 OH2  OT    -0.834000       15.9994           0
   51512 WT3  2349 TIP3 H1   HT     0.417000        1.0080           0
   51513 WT3  2349 TIP3 H2   HT     0.417000        1.0080           0
   51514 WT3  2350 TIP3 OH2  OT    -0.834000       15.9994           0
   51515 WT3  2350 TIP3 H1   HT     0.417000        1.0080           0
   51516 WT3  2350 TIP3 H2   HT     0.417000        1.0080           0
   51517 WT3  2351 TIP3 OH2  OT    -0.834000       15.9994           0
   51518 WT3  2351 TIP3 H1   HT     0.417000        1.0080           0
   51519 WT3  2351 TIP3 H2   HT     0.417000        1.0080           0
   51520 WT3  2352 TIP3 OH2  OT    -0.834000       15.9994           0
   51521 WT3  2352 TIP3 H1   HT     0.417000        1.0080           0
   51522 WT3  2352 TIP3 H2   HT     0.417000        1.0080           0
   51523 WT3  2354 TIP3 OH2  OT    -0.834000       15.9994           0
   51524 WT3  2354 TIP3 H1   HT     0.417000        1.0080           0
   51525 WT3  2354 TIP3 H2   HT     0.417000        1.0080           0
   51526 WT3  2355 TIP3 OH2  OT    -0.834000       15.9994           0
   51527 WT3  2355 TIP3 H1   HT     0.417000        1.0080           0
   51528 WT3  2355 TIP3 H2   HT     0.417000        1.0080           0
   51529 WT3  2356 TIP3 OH2  OT    -0.834000       15.9994           0
   51530 WT3  2356 TIP3 H1   HT     0.417000        1.0080           0
   51531 WT3  2356 TIP3 H2   HT     0.417000        1.0080           0
   51532 WT3  2357 TIP3 OH2  OT    -0.834000       15.9994           0
   51533 WT3  2357 TIP3 H1   HT     0.417000        1.0080           0
   51534 WT3  2357 TIP3 H2   HT     0.417000        1.0080           0
   51535 WT3  2358 TIP3 OH2  OT    -0.834000       15.9994           0
   51536 WT3  2358 TIP3 H1   HT     0.417000        1.0080           0
   51537 WT3  2358 TIP3 H2   HT     0.417000        1.0080           0
   51538 WT3  2359 TIP3 OH2  OT    -0.834000       15.9994           0
   51539 WT3  2359 TIP3 H1   HT     0.417000        1.0080           0
   51540 WT3  2359 TIP3 H2   HT     0.417000        1.0080           0
   51541 WT3  2360 TIP3 OH2  OT    -0.834000       15.9994           0
   51542 WT3  2360 TIP3 H1   HT     0.417000        1.0080           0
   51543 WT3  2360 TIP3 H2   HT     0.417000        1.0080           0
   51544 WT3  2361 TIP3 OH2  OT    -0.834000       15.9994           0
   51545 WT3  2361 TIP3 H1   HT     0.417000        1.0080           0
   51546 WT3  2361 TIP3 H2   HT     0.417000        1.0080           0
   51547 WT3  2362 TIP3 OH2  OT    -0.834000       15.9994           0
   51548 WT3  2362 TIP3 H1   HT     0.417000        1.0080           0
   51549 WT3  2362 TIP3 H2   HT     0.417000        1.0080           0
   51550 WT3  2363 TIP3 OH2  OT    -0.834000       15.9994           0
   51551 WT3  2363 TIP3 H1   HT     0.417000        1.0080           0
   51552 WT3  2363 TIP3 H2   HT     0.417000        1.0080           0
   51553 WT3  2364 TIP3 OH2  OT    -0.834000       15.9994           0
   51554 WT3  2364 TIP3 H1   HT     0.417000        1.0080           0
   51555 WT3  2364 TIP3 H2   HT     0.417000        1.0080           0
   51556 WT3  2365 TIP3 OH2  OT    -0.834000       15.9994           0
   51557 WT3  2365 TIP3 H1   HT     0.417000        1.0080           0
   51558 WT3  2365 TIP3 H2   HT     0.417000        1.0080           0
   51559 WT3  2366 TIP3 OH2  OT    -0.834000       15.9994           0
   51560 WT3  2366 TIP3 H1   HT     0.417000        1.0080           0
   51561 WT3  2366 TIP3 H2   HT     0.417000        1.0080           0
   51562 WT3  2367 TIP3 OH2  OT    -0.834000       15.9994           0
   51563 WT3  2367 TIP3 H1   HT     0.417000        1.0080           0
   51564 WT3  2367 TIP3 H2   HT     0.417000        1.0080           0
   51565 WT3  2368 TIP3 OH2  OT    -0.834000       15.9994           0
   51566 WT3  2368 TIP3 H1   HT     0.417000        1.0080           0
   51567 WT3  2368 TIP3 H2   HT     0.417000        1.0080           0
   51568 WT3  2369 TIP3 OH2  OT    -0.834000       15.9994           0
   51569 WT3  2369 TIP3 H1   HT     0.417000        1.0080           0
   51570 WT3  2369 TIP3 H2   HT     0.417000        1.0080           0
   51571 WT3  2371 TIP3 OH2  OT    -0.834000       15.9994           0
   51572 WT3  2371 TIP3 H1   HT     0.417000        1.0080           0
   51573 WT3  2371 TIP3 H2   HT     0.417000        1.0080           0
   51574 WT3  2372 TIP3 OH2  OT    -0.834000       15.9994           0
   51575 WT3  2372 TIP3 H1   HT     0.417000        1.0080           0
   51576 WT3  2372 TIP3 H2   HT     0.417000        1.0080           0
   51577 WT3  2373 TIP3 OH2  OT    -0.834000       15.9994           0
   51578 WT3  2373 TIP3 H1   HT     0.417000        1.0080           0
   51579 WT3  2373 TIP3 H2   HT     0.417000        1.0080           0
   51580 WT3  2374 TIP3 OH2  OT    -0.834000       15.9994           0
   51581 WT3  2374 TIP3 H1   HT     0.417000        1.0080           0
   51582 WT3  2374 TIP3 H2   HT     0.417000        1.0080           0
   51583 WT3  2375 TIP3 OH2  OT    -0.834000       15.9994           0
   51584 WT3  2375 TIP3 H1   HT     0.417000        1.0080           0
   51585 WT3  2375 TIP3 H2   HT     0.417000        1.0080           0
   51586 WT3  2376 TIP3 OH2  OT    -0.834000       15.9994           0
   51587 WT3  2376 TIP3 H1   HT     0.417000        1.0080           0
   51588 WT3  2376 TIP3 H2   HT     0.417000        1.0080           0
   51589 WT3  2377 TIP3 OH2  OT    -0.834000       15.9994           0
   51590 WT3  2377 TIP3 H1   HT     0.417000        1.0080           0
   51591 WT3  2377 TIP3 H2   HT     0.417000        1.0080           0
   51592 WT3  2379 TIP3 OH2  OT    -0.834000       15.9994           0
   51593 WT3  2379 TIP3 H1   HT     0.417000        1.0080           0
   51594 WT3  2379 TIP3 H2   HT     0.417000        1.0080           0
   51595 WT3  2381 TIP3 OH2  OT    -0.834000       15.9994           0
   51596 WT3  2381 TIP3 H1   HT     0.417000        1.0080           0
   51597 WT3  2381 TIP3 H2   HT     0.417000        1.0080           0
   51598 WT3  2382 TIP3 OH2  OT    -0.834000       15.9994           0
   51599 WT3  2382 TIP3 H1   HT     0.417000        1.0080           0
   51600 WT3  2382 TIP3 H2   HT     0.417000        1.0080           0
   51601 WT3  2383 TIP3 OH2  OT    -0.834000       15.9994           0
   51602 WT3  2383 TIP3 H1   HT     0.417000        1.0080           0
   51603 WT3  2383 TIP3 H2   HT     0.417000        1.0080           0
   51604 WT3  2384 TIP3 OH2  OT    -0.834000       15.9994           0
   51605 WT3  2384 TIP3 H1   HT     0.417000        1.0080           0
   51606 WT3  2384 TIP3 H2   HT     0.417000        1.0080           0
   51607 WT3  2385 TIP3 OH2  OT    -0.834000       15.9994           0
   51608 WT3  2385 TIP3 H1   HT     0.417000        1.0080           0
   51609 WT3  2385 TIP3 H2   HT     0.417000        1.0080           0
   51610 WT3  2386 TIP3 OH2  OT    -0.834000       15.9994           0
   51611 WT3  2386 TIP3 H1   HT     0.417000        1.0080           0
   51612 WT3  2386 TIP3 H2   HT     0.417000        1.0080           0
   51613 WT3  2387 TIP3 OH2  OT    -0.834000       15.9994           0
   51614 WT3  2387 TIP3 H1   HT     0.417000        1.0080           0
   51615 WT3  2387 TIP3 H2   HT     0.417000        1.0080           0
   51616 WT3  2388 TIP3 OH2  OT    -0.834000       15.9994           0
   51617 WT3  2388 TIP3 H1   HT     0.417000        1.0080           0
   51618 WT3  2388 TIP3 H2   HT     0.417000        1.0080           0
   51619 WT3  2390 TIP3 OH2  OT    -0.834000       15.9994           0
   51620 WT3  2390 TIP3 H1   HT     0.417000        1.0080           0
   51621 WT3  2390 TIP3 H2   HT     0.417000        1.0080           0
   51622 WT3  2392 TIP3 OH2  OT    -0.834000       15.9994           0
   51623 WT3  2392 TIP3 H1   HT     0.417000        1.0080           0
   51624 WT3  2392 TIP3 H2   HT     0.417000        1.0080           0
   51625 WT3  2393 TIP3 OH2  OT    -0.834000       15.9994           0
   51626 WT3  2393 TIP3 H1   HT     0.417000        1.0080           0
   51627 WT3  2393 TIP3 H2   HT     0.417000        1.0080           0
   51628 WT3  2394 TIP3 OH2  OT    -0.834000       15.9994           0
   51629 WT3  2394 TIP3 H1   HT     0.417000        1.0080           0
   51630 WT3  2394 TIP3 H2   HT     0.417000        1.0080           0
   51631 WT3  2397 TIP3 OH2  OT    -0.834000       15.9994           0
   51632 WT3  2397 TIP3 H1   HT     0.417000        1.0080           0
   51633 WT3  2397 TIP3 H2   HT     0.417000        1.0080           0
   51634 WT3  2398 TIP3 OH2  OT    -0.834000       15.9994           0
   51635 WT3  2398 TIP3 H1   HT     0.417000        1.0080           0
   51636 WT3  2398 TIP3 H2   HT     0.417000        1.0080           0
   51637 WT3  2399 TIP3 OH2  OT    -0.834000       15.9994           0
   51638 WT3  2399 TIP3 H1   HT     0.417000        1.0080           0
   51639 WT3  2399 TIP3 H2   HT     0.417000        1.0080           0
   51640 WT3  2400 TIP3 OH2  OT    -0.834000       15.9994           0
   51641 WT3  2400 TIP3 H1   HT     0.417000        1.0080           0
   51642 WT3  2400 TIP3 H2   HT     0.417000        1.0080           0
   51643 WT3  2401 TIP3 OH2  OT    -0.834000       15.9994           0
   51644 WT3  2401 TIP3 H1   HT     0.417000        1.0080           0
   51645 WT3  2401 TIP3 H2   HT     0.417000        1.0080           0
   51646 WT3  2402 TIP3 OH2  OT    -0.834000       15.9994           0
   51647 WT3  2402 TIP3 H1   HT     0.417000        1.0080           0
   51648 WT3  2402 TIP3 H2   HT     0.417000        1.0080           0
   51649 WT3  2404 TIP3 OH2  OT    -0.834000       15.9994           0
   51650 WT3  2404 TIP3 H1   HT     0.417000        1.0080           0
   51651 WT3  2404 TIP3 H2   HT     0.417000        1.0080           0
   51652 WT3  2405 TIP3 OH2  OT    -0.834000       15.9994           0
   51653 WT3  2405 TIP3 H1   HT     0.417000        1.0080           0
   51654 WT3  2405 TIP3 H2   HT     0.417000        1.0080           0
   51655 WT3  2406 TIP3 OH2  OT    -0.834000       15.9994           0
   51656 WT3  2406 TIP3 H1   HT     0.417000        1.0080           0
   51657 WT3  2406 TIP3 H2   HT     0.417000        1.0080           0
   51658 WT3  2407 TIP3 OH2  OT    -0.834000       15.9994           0
   51659 WT3  2407 TIP3 H1   HT     0.417000        1.0080           0
   51660 WT3  2407 TIP3 H2   HT     0.417000        1.0080           0
   51661 WT3  2408 TIP3 OH2  OT    -0.834000       15.9994           0
   51662 WT3  2408 TIP3 H1   HT     0.417000        1.0080           0
   51663 WT3  2408 TIP3 H2   HT     0.417000        1.0080           0
   51664 WT3  2411 TIP3 OH2  OT    -0.834000       15.9994           0
   51665 WT3  2411 TIP3 H1   HT     0.417000        1.0080           0
   51666 WT3  2411 TIP3 H2   HT     0.417000        1.0080           0
   51667 WT3  2412 TIP3 OH2  OT    -0.834000       15.9994           0
   51668 WT3  2412 TIP3 H1   HT     0.417000        1.0080           0
   51669 WT3  2412 TIP3 H2   HT     0.417000        1.0080           0
   51670 WT3  2415 TIP3 OH2  OT    -0.834000       15.9994           0
   51671 WT3  2415 TIP3 H1   HT     0.417000        1.0080           0
   51672 WT3  2415 TIP3 H2   HT     0.417000        1.0080           0
   51673 WT3  2416 TIP3 OH2  OT    -0.834000       15.9994           0
   51674 WT3  2416 TIP3 H1   HT     0.417000        1.0080           0
   51675 WT3  2416 TIP3 H2   HT     0.417000        1.0080           0
   51676 WT3  2418 TIP3 OH2  OT    -0.834000       15.9994           0
   51677 WT3  2418 TIP3 H1   HT     0.417000        1.0080           0
   51678 WT3  2418 TIP3 H2   HT     0.417000        1.0080           0
   51679 WT3  2419 TIP3 OH2  OT    -0.834000       15.9994           0
   51680 WT3  2419 TIP3 H1   HT     0.417000        1.0080           0
   51681 WT3  2419 TIP3 H2   HT     0.417000        1.0080           0
   51682 WT3  2420 TIP3 OH2  OT    -0.834000       15.9994           0
   51683 WT3  2420 TIP3 H1   HT     0.417000        1.0080           0
   51684 WT3  2420 TIP3 H2   HT     0.417000        1.0080           0
   51685 WT3  2421 TIP3 OH2  OT    -0.834000       15.9994           0
   51686 WT3  2421 TIP3 H1   HT     0.417000        1.0080           0
   51687 WT3  2421 TIP3 H2   HT     0.417000        1.0080           0
   51688 WT3  2422 TIP3 OH2  OT    -0.834000       15.9994           0
   51689 WT3  2422 TIP3 H1   HT     0.417000        1.0080           0
   51690 WT3  2422 TIP3 H2   HT     0.417000        1.0080           0
   51691 WT3  2423 TIP3 OH2  OT    -0.834000       15.9994           0
   51692 WT3  2423 TIP3 H1   HT     0.417000        1.0080           0
   51693 WT3  2423 TIP3 H2   HT     0.417000        1.0080           0
   51694 WT3  2424 TIP3 OH2  OT    -0.834000       15.9994           0
   51695 WT3  2424 TIP3 H1   HT     0.417000        1.0080           0
   51696 WT3  2424 TIP3 H2   HT     0.417000        1.0080           0
   51697 WT3  2425 TIP3 OH2  OT    -0.834000       15.9994           0
   51698 WT3  2425 TIP3 H1   HT     0.417000        1.0080           0
   51699 WT3  2425 TIP3 H2   HT     0.417000        1.0080           0
   51700 WT3  2426 TIP3 OH2  OT    -0.834000       15.9994           0
   51701 WT3  2426 TIP3 H1   HT     0.417000        1.0080           0
   51702 WT3  2426 TIP3 H2   HT     0.417000        1.0080           0
   51703 WT3  2427 TIP3 OH2  OT    -0.834000       15.9994           0
   51704 WT3  2427 TIP3 H1   HT     0.417000        1.0080           0
   51705 WT3  2427 TIP3 H2   HT     0.417000        1.0080           0
   51706 WT3  2429 TIP3 OH2  OT    -0.834000       15.9994           0
   51707 WT3  2429 TIP3 H1   HT     0.417000        1.0080           0
   51708 WT3  2429 TIP3 H2   HT     0.417000        1.0080           0
   51709 WT3  2430 TIP3 OH2  OT    -0.834000       15.9994           0
   51710 WT3  2430 TIP3 H1   HT     0.417000        1.0080           0
   51711 WT3  2430 TIP3 H2   HT     0.417000        1.0080           0
   51712 WT3  2432 TIP3 OH2  OT    -0.834000       15.9994           0
   51713 WT3  2432 TIP3 H1   HT     0.417000        1.0080           0
   51714 WT3  2432 TIP3 H2   HT     0.417000        1.0080           0
   51715 WT3  2434 TIP3 OH2  OT    -0.834000       15.9994           0
   51716 WT3  2434 TIP3 H1   HT     0.417000        1.0080           0
   51717 WT3  2434 TIP3 H2   HT     0.417000        1.0080           0
   51718 WT3  2436 TIP3 OH2  OT    -0.834000       15.9994           0
   51719 WT3  2436 TIP3 H1   HT     0.417000        1.0080           0
   51720 WT3  2436 TIP3 H2   HT     0.417000        1.0080           0
   51721 WT3  2437 TIP3 OH2  OT    -0.834000       15.9994           0
   51722 WT3  2437 TIP3 H1   HT     0.417000        1.0080           0
   51723 WT3  2437 TIP3 H2   HT     0.417000        1.0080           0
   51724 WT3  2438 TIP3 OH2  OT    -0.834000       15.9994           0
   51725 WT3  2438 TIP3 H1   HT     0.417000        1.0080           0
   51726 WT3  2438 TIP3 H2   HT     0.417000        1.0080           0
   51727 WT3  2439 TIP3 OH2  OT    -0.834000       15.9994           0
   51728 WT3  2439 TIP3 H1   HT     0.417000        1.0080           0
   51729 WT3  2439 TIP3 H2   HT     0.417000        1.0080           0
   51730 WT3  2442 TIP3 OH2  OT    -0.834000       15.9994           0
   51731 WT3  2442 TIP3 H1   HT     0.417000        1.0080           0
   51732 WT3  2442 TIP3 H2   HT     0.417000        1.0080           0
   51733 WT3  2443 TIP3 OH2  OT    -0.834000       15.9994           0
   51734 WT3  2443 TIP3 H1   HT     0.417000        1.0080           0
   51735 WT3  2443 TIP3 H2   HT     0.417000        1.0080           0
   51736 WT3  2444 TIP3 OH2  OT    -0.834000       15.9994           0
   51737 WT3  2444 TIP3 H1   HT     0.417000        1.0080           0
   51738 WT3  2444 TIP3 H2   HT     0.417000        1.0080           0
   51739 WT3  2445 TIP3 OH2  OT    -0.834000       15.9994           0
   51740 WT3  2445 TIP3 H1   HT     0.417000        1.0080           0
   51741 WT3  2445 TIP3 H2   HT     0.417000        1.0080           0
   51742 WT3  2446 TIP3 OH2  OT    -0.834000       15.9994           0
   51743 WT3  2446 TIP3 H1   HT     0.417000        1.0080           0
   51744 WT3  2446 TIP3 H2   HT     0.417000        1.0080           0
   51745 WT3  2448 TIP3 OH2  OT    -0.834000       15.9994           0
   51746 WT3  2448 TIP3 H1   HT     0.417000        1.0080           0
   51747 WT3  2448 TIP3 H2   HT     0.417000        1.0080           0
   51748 WT3  2449 TIP3 OH2  OT    -0.834000       15.9994           0
   51749 WT3  2449 TIP3 H1   HT     0.417000        1.0080           0
   51750 WT3  2449 TIP3 H2   HT     0.417000        1.0080           0
   51751 WT3  2450 TIP3 OH2  OT    -0.834000       15.9994           0
   51752 WT3  2450 TIP3 H1   HT     0.417000        1.0080           0
   51753 WT3  2450 TIP3 H2   HT     0.417000        1.0080           0
   51754 WT3  2452 TIP3 OH2  OT    -0.834000       15.9994           0
   51755 WT3  2452 TIP3 H1   HT     0.417000        1.0080           0
   51756 WT3  2452 TIP3 H2   HT     0.417000        1.0080           0
   51757 WT3  2453 TIP3 OH2  OT    -0.834000       15.9994           0
   51758 WT3  2453 TIP3 H1   HT     0.417000        1.0080           0
   51759 WT3  2453 TIP3 H2   HT     0.417000        1.0080           0
   51760 WT3  2454 TIP3 OH2  OT    -0.834000       15.9994           0
   51761 WT3  2454 TIP3 H1   HT     0.417000        1.0080           0
   51762 WT3  2454 TIP3 H2   HT     0.417000        1.0080           0
   51763 WT3  2455 TIP3 OH2  OT    -0.834000       15.9994           0
   51764 WT3  2455 TIP3 H1   HT     0.417000        1.0080           0
   51765 WT3  2455 TIP3 H2   HT     0.417000        1.0080           0
   51766 WT3  2458 TIP3 OH2  OT    -0.834000       15.9994           0
   51767 WT3  2458 TIP3 H1   HT     0.417000        1.0080           0
   51768 WT3  2458 TIP3 H2   HT     0.417000        1.0080           0
   51769 WT3  2460 TIP3 OH2  OT    -0.834000       15.9994           0
   51770 WT3  2460 TIP3 H1   HT     0.417000        1.0080           0
   51771 WT3  2460 TIP3 H2   HT     0.417000        1.0080           0
   51772 WT3  2463 TIP3 OH2  OT    -0.834000       15.9994           0
   51773 WT3  2463 TIP3 H1   HT     0.417000        1.0080           0
   51774 WT3  2463 TIP3 H2   HT     0.417000        1.0080           0
   51775 WT3  2464 TIP3 OH2  OT    -0.834000       15.9994           0
   51776 WT3  2464 TIP3 H1   HT     0.417000        1.0080           0
   51777 WT3  2464 TIP3 H2   HT     0.417000        1.0080           0
   51778 WT3  2465 TIP3 OH2  OT    -0.834000       15.9994           0
   51779 WT3  2465 TIP3 H1   HT     0.417000        1.0080           0
   51780 WT3  2465 TIP3 H2   HT     0.417000        1.0080           0
   51781 WT3  2466 TIP3 OH2  OT    -0.834000       15.9994           0
   51782 WT3  2466 TIP3 H1   HT     0.417000        1.0080           0
   51783 WT3  2466 TIP3 H2   HT     0.417000        1.0080           0
   51784 WT3  2467 TIP3 OH2  OT    -0.834000       15.9994           0
   51785 WT3  2467 TIP3 H1   HT     0.417000        1.0080           0
   51786 WT3  2467 TIP3 H2   HT     0.417000        1.0080           0
   51787 WT3  2469 TIP3 OH2  OT    -0.834000       15.9994           0
   51788 WT3  2469 TIP3 H1   HT     0.417000        1.0080           0
   51789 WT3  2469 TIP3 H2   HT     0.417000        1.0080           0
   51790 WT3  2470 TIP3 OH2  OT    -0.834000       15.9994           0
   51791 WT3  2470 TIP3 H1   HT     0.417000        1.0080           0
   51792 WT3  2470 TIP3 H2   HT     0.417000        1.0080           0
   51793 WT3  2471 TIP3 OH2  OT    -0.834000       15.9994           0
   51794 WT3  2471 TIP3 H1   HT     0.417000        1.0080           0
   51795 WT3  2471 TIP3 H2   HT     0.417000        1.0080           0
   51796 WT3  2472 TIP3 OH2  OT    -0.834000       15.9994           0
   51797 WT3  2472 TIP3 H1   HT     0.417000        1.0080           0
   51798 WT3  2472 TIP3 H2   HT     0.417000        1.0080           0
   51799 WT3  2473 TIP3 OH2  OT    -0.834000       15.9994           0
   51800 WT3  2473 TIP3 H1   HT     0.417000        1.0080           0
   51801 WT3  2473 TIP3 H2   HT     0.417000        1.0080           0
   51802 WT3  2474 TIP3 OH2  OT    -0.834000       15.9994           0
   51803 WT3  2474 TIP3 H1   HT     0.417000        1.0080           0
   51804 WT3  2474 TIP3 H2   HT     0.417000        1.0080           0
   51805 WT3  2478 TIP3 OH2  OT    -0.834000       15.9994           0
   51806 WT3  2478 TIP3 H1   HT     0.417000        1.0080           0
   51807 WT3  2478 TIP3 H2   HT     0.417000        1.0080           0
   51808 WT3  2479 TIP3 OH2  OT    -0.834000       15.9994           0
   51809 WT3  2479 TIP3 H1   HT     0.417000        1.0080           0
   51810 WT3  2479 TIP3 H2   HT     0.417000        1.0080           0
   51811 WT3  2480 TIP3 OH2  OT    -0.834000       15.9994           0
   51812 WT3  2480 TIP3 H1   HT     0.417000        1.0080           0
   51813 WT3  2480 TIP3 H2   HT     0.417000        1.0080           0
   51814 WT3  2482 TIP3 OH2  OT    -0.834000       15.9994           0
   51815 WT3  2482 TIP3 H1   HT     0.417000        1.0080           0
   51816 WT3  2482 TIP3 H2   HT     0.417000        1.0080           0
   51817 WT3  2484 TIP3 OH2  OT    -0.834000       15.9994           0
   51818 WT3  2484 TIP3 H1   HT     0.417000        1.0080           0
   51819 WT3  2484 TIP3 H2   HT     0.417000        1.0080           0
   51820 WT3  2485 TIP3 OH2  OT    -0.834000       15.9994           0
   51821 WT3  2485 TIP3 H1   HT     0.417000        1.0080           0
   51822 WT3  2485 TIP3 H2   HT     0.417000        1.0080           0
   51823 WT3  2488 TIP3 OH2  OT    -0.834000       15.9994           0
   51824 WT3  2488 TIP3 H1   HT     0.417000        1.0080           0
   51825 WT3  2488 TIP3 H2   HT     0.417000        1.0080           0
   51826 WT3  2489 TIP3 OH2  OT    -0.834000       15.9994           0
   51827 WT3  2489 TIP3 H1   HT     0.417000        1.0080           0
   51828 WT3  2489 TIP3 H2   HT     0.417000        1.0080           0
   51829 WT3  2492 TIP3 OH2  OT    -0.834000       15.9994           0
   51830 WT3  2492 TIP3 H1   HT     0.417000        1.0080           0
   51831 WT3  2492 TIP3 H2   HT     0.417000        1.0080           0
   51832 WT3  2495 TIP3 OH2  OT    -0.834000       15.9994           0
   51833 WT3  2495 TIP3 H1   HT     0.417000        1.0080           0
   51834 WT3  2495 TIP3 H2   HT     0.417000        1.0080           0
   51835 WT3  2500 TIP3 OH2  OT    -0.834000       15.9994           0
   51836 WT3  2500 TIP3 H1   HT     0.417000        1.0080           0
   51837 WT3  2500 TIP3 H2   HT     0.417000        1.0080           0
   51838 WT3  2501 TIP3 OH2  OT    -0.834000       15.9994           0
   51839 WT3  2501 TIP3 H1   HT     0.417000        1.0080           0
   51840 WT3  2501 TIP3 H2   HT     0.417000        1.0080           0
   51841 WT3  2504 TIP3 OH2  OT    -0.834000       15.9994           0
   51842 WT3  2504 TIP3 H1   HT     0.417000        1.0080           0
   51843 WT3  2504 TIP3 H2   HT     0.417000        1.0080           0
   51844 WT3  2505 TIP3 OH2  OT    -0.834000       15.9994           0
   51845 WT3  2505 TIP3 H1   HT     0.417000        1.0080           0
   51846 WT3  2505 TIP3 H2   HT     0.417000        1.0080           0
   51847 WT3  2506 TIP3 OH2  OT    -0.834000       15.9994           0
   51848 WT3  2506 TIP3 H1   HT     0.417000        1.0080           0
   51849 WT3  2506 TIP3 H2   HT     0.417000        1.0080           0
   51850 WT3  2507 TIP3 OH2  OT    -0.834000       15.9994           0
   51851 WT3  2507 TIP3 H1   HT     0.417000        1.0080           0
   51852 WT3  2507 TIP3 H2   HT     0.417000        1.0080           0
   51853 WT3  2508 TIP3 OH2  OT    -0.834000       15.9994           0
   51854 WT3  2508 TIP3 H1   HT     0.417000        1.0080           0
   51855 WT3  2508 TIP3 H2   HT     0.417000        1.0080           0
   51856 WT3  2511 TIP3 OH2  OT    -0.834000       15.9994           0
   51857 WT3  2511 TIP3 H1   HT     0.417000        1.0080           0
   51858 WT3  2511 TIP3 H2   HT     0.417000        1.0080           0
   51859 WT3  2512 TIP3 OH2  OT    -0.834000       15.9994           0
   51860 WT3  2512 TIP3 H1   HT     0.417000        1.0080           0
   51861 WT3  2512 TIP3 H2   HT     0.417000        1.0080           0
   51862 WT3  2513 TIP3 OH2  OT    -0.834000       15.9994           0
   51863 WT3  2513 TIP3 H1   HT     0.417000        1.0080           0
   51864 WT3  2513 TIP3 H2   HT     0.417000        1.0080           0
   51865 WT3  2515 TIP3 OH2  OT    -0.834000       15.9994           0
   51866 WT3  2515 TIP3 H1   HT     0.417000        1.0080           0
   51867 WT3  2515 TIP3 H2   HT     0.417000        1.0080           0
   51868 WT3  2518 TIP3 OH2  OT    -0.834000       15.9994           0
   51869 WT3  2518 TIP3 H1   HT     0.417000        1.0080           0
   51870 WT3  2518 TIP3 H2   HT     0.417000        1.0080           0
   51871 WT3  2519 TIP3 OH2  OT    -0.834000       15.9994           0
   51872 WT3  2519 TIP3 H1   HT     0.417000        1.0080           0
   51873 WT3  2519 TIP3 H2   HT     0.417000        1.0080           0
   51874 WT3  2523 TIP3 OH2  OT    -0.834000       15.9994           0
   51875 WT3  2523 TIP3 H1   HT     0.417000        1.0080           0
   51876 WT3  2523 TIP3 H2   HT     0.417000        1.0080           0
   51877 WT3  2528 TIP3 OH2  OT    -0.834000       15.9994           0
   51878 WT3  2528 TIP3 H1   HT     0.417000        1.0080           0
   51879 WT3  2528 TIP3 H2   HT     0.417000        1.0080           0
   51880 WT3  2534 TIP3 OH2  OT    -0.834000       15.9994           0
   51881 WT3  2534 TIP3 H1   HT     0.417000        1.0080           0
   51882 WT3  2534 TIP3 H2   HT     0.417000        1.0080           0
   51883 WT3  2536 TIP3 OH2  OT    -0.834000       15.9994           0
   51884 WT3  2536 TIP3 H1   HT     0.417000        1.0080           0
   51885 WT3  2536 TIP3 H2   HT     0.417000        1.0080           0
   51886 WT3  2538 TIP3 OH2  OT    -0.834000       15.9994           0
   51887 WT3  2538 TIP3 H1   HT     0.417000        1.0080           0
   51888 WT3  2538 TIP3 H2   HT     0.417000        1.0080           0
   51889 WT3  2541 TIP3 OH2  OT    -0.834000       15.9994           0
   51890 WT3  2541 TIP3 H1   HT     0.417000        1.0080           0
   51891 WT3  2541 TIP3 H2   HT     0.417000        1.0080           0
   51892 WT3  2561 TIP3 OH2  OT    -0.834000       15.9994           0
   51893 WT3  2561 TIP3 H1   HT     0.417000        1.0080           0
   51894 WT3  2561 TIP3 H2   HT     0.417000        1.0080           0
   51895 WT3  2563 TIP3 OH2  OT    -0.834000       15.9994           0
   51896 WT3  2563 TIP3 H1   HT     0.417000        1.0080           0
   51897 WT3  2563 TIP3 H2   HT     0.417000        1.0080           0
   51898 WT3  2576 TIP3 OH2  OT    -0.834000       15.9994           0
   51899 WT3  2576 TIP3 H1   HT     0.417000        1.0080           0
   51900 WT3  2576 TIP3 H2   HT     0.417000        1.0080           0
   51901 WT3  2582 TIP3 OH2  OT    -0.834000       15.9994           0
   51902 WT3  2582 TIP3 H1   HT     0.417000        1.0080           0
   51903 WT3  2582 TIP3 H2   HT     0.417000        1.0080           0
   51904 WT3  2585 TIP3 OH2  OT    -0.834000       15.9994           0
   51905 WT3  2585 TIP3 H1   HT     0.417000        1.0080           0
   51906 WT3  2585 TIP3 H2   HT     0.417000        1.0080           0
   51907 WT3  2587 TIP3 OH2  OT    -0.834000       15.9994           0
   51908 WT3  2587 TIP3 H1   HT     0.417000        1.0080           0
   51909 WT3  2587 TIP3 H2   HT     0.417000        1.0080           0
   51910 WT3  2590 TIP3 OH2  OT    -0.834000       15.9994           0
   51911 WT3  2590 TIP3 H1   HT     0.417000        1.0080           0
   51912 WT3  2590 TIP3 H2   HT     0.417000        1.0080           0
   51913 WT3  2591 TIP3 OH2  OT    -0.834000       15.9994           0
   51914 WT3  2591 TIP3 H1   HT     0.417000        1.0080           0
   51915 WT3  2591 TIP3 H2   HT     0.417000        1.0080           0
   51916 WT3  2598 TIP3 OH2  OT    -0.834000       15.9994           0
   51917 WT3  2598 TIP3 H1   HT     0.417000        1.0080           0
   51918 WT3  2598 TIP3 H2   HT     0.417000        1.0080           0
   51919 WT3  2606 TIP3 OH2  OT    -0.834000       15.9994           0
   51920 WT3  2606 TIP3 H1   HT     0.417000        1.0080           0
   51921 WT3  2606 TIP3 H2   HT     0.417000        1.0080           0
   51922 WT3  2607 TIP3 OH2  OT    -0.834000       15.9994           0
   51923 WT3  2607 TIP3 H1   HT     0.417000        1.0080           0
   51924 WT3  2607 TIP3 H2   HT     0.417000        1.0080           0
   51925 WT3  2608 TIP3 OH2  OT    -0.834000       15.9994           0
   51926 WT3  2608 TIP3 H1   HT     0.417000        1.0080           0
   51927 WT3  2608 TIP3 H2   HT     0.417000        1.0080           0
   51928 WT3  2610 TIP3 OH2  OT    -0.834000       15.9994           0
   51929 WT3  2610 TIP3 H1   HT     0.417000        1.0080           0
   51930 WT3  2610 TIP3 H2   HT     0.417000        1.0080           0
   51931 WT3  2616 TIP3 OH2  OT    -0.834000       15.9994           0
   51932 WT3  2616 TIP3 H1   HT     0.417000        1.0080           0
   51933 WT3  2616 TIP3 H2   HT     0.417000        1.0080           0
   51934 WT3  2617 TIP3 OH2  OT    -0.834000       15.9994           0
   51935 WT3  2617 TIP3 H1   HT     0.417000        1.0080           0
   51936 WT3  2617 TIP3 H2   HT     0.417000        1.0080           0
   51937 WT3  2624 TIP3 OH2  OT    -0.834000       15.9994           0
   51938 WT3  2624 TIP3 H1   HT     0.417000        1.0080           0
   51939 WT3  2624 TIP3 H2   HT     0.417000        1.0080           0
   51940 WT3  2626 TIP3 OH2  OT    -0.834000       15.9994           0
   51941 WT3  2626 TIP3 H1   HT     0.417000        1.0080           0
   51942 WT3  2626 TIP3 H2   HT     0.417000        1.0080           0
   51943 WT3  2628 TIP3 OH2  OT    -0.834000       15.9994           0
   51944 WT3  2628 TIP3 H1   HT     0.417000        1.0080           0
   51945 WT3  2628 TIP3 H2   HT     0.417000        1.0080           0
   51946 WT3  2629 TIP3 OH2  OT    -0.834000       15.9994           0
   51947 WT3  2629 TIP3 H1   HT     0.417000        1.0080           0
   51948 WT3  2629 TIP3 H2   HT     0.417000        1.0080           0
   51949 WT3  2630 TIP3 OH2  OT    -0.834000       15.9994           0
   51950 WT3  2630 TIP3 H1   HT     0.417000        1.0080           0
   51951 WT3  2630 TIP3 H2   HT     0.417000        1.0080           0
   51952 WT3  2632 TIP3 OH2  OT    -0.834000       15.9994           0
   51953 WT3  2632 TIP3 H1   HT     0.417000        1.0080           0
   51954 WT3  2632 TIP3 H2   HT     0.417000        1.0080           0
   51955 WT3  2633 TIP3 OH2  OT    -0.834000       15.9994           0
   51956 WT3  2633 TIP3 H1   HT     0.417000        1.0080           0
   51957 WT3  2633 TIP3 H2   HT     0.417000        1.0080           0
   51958 WT3  2634 TIP3 OH2  OT    -0.834000       15.9994           0
   51959 WT3  2634 TIP3 H1   HT     0.417000        1.0080           0
   51960 WT3  2634 TIP3 H2   HT     0.417000        1.0080           0
   51961 WT3  2635 TIP3 OH2  OT    -0.834000       15.9994           0
   51962 WT3  2635 TIP3 H1   HT     0.417000        1.0080           0
   51963 WT3  2635 TIP3 H2   HT     0.417000        1.0080           0
   51964 WT3  2636 TIP3 OH2  OT    -0.834000       15.9994           0
   51965 WT3  2636 TIP3 H1   HT     0.417000        1.0080           0
   51966 WT3  2636 TIP3 H2   HT     0.417000        1.0080           0
   51967 WT3  2638 TIP3 OH2  OT    -0.834000       15.9994           0
   51968 WT3  2638 TIP3 H1   HT     0.417000        1.0080           0
   51969 WT3  2638 TIP3 H2   HT     0.417000        1.0080           0
   51970 WT3  2644 TIP3 OH2  OT    -0.834000       15.9994           0
   51971 WT3  2644 TIP3 H1   HT     0.417000        1.0080           0
   51972 WT3  2644 TIP3 H2   HT     0.417000        1.0080           0
   51973 WT3  2646 TIP3 OH2  OT    -0.834000       15.9994           0
   51974 WT3  2646 TIP3 H1   HT     0.417000        1.0080           0
   51975 WT3  2646 TIP3 H2   HT     0.417000        1.0080           0
   51976 WT3  2649 TIP3 OH2  OT    -0.834000       15.9994           0
   51977 WT3  2649 TIP3 H1   HT     0.417000        1.0080           0
   51978 WT3  2649 TIP3 H2   HT     0.417000        1.0080           0
   51979 WT3  2650 TIP3 OH2  OT    -0.834000       15.9994           0
   51980 WT3  2650 TIP3 H1   HT     0.417000        1.0080           0
   51981 WT3  2650 TIP3 H2   HT     0.417000        1.0080           0
   51982 WT3  2652 TIP3 OH2  OT    -0.834000       15.9994           0
   51983 WT3  2652 TIP3 H1   HT     0.417000        1.0080           0
   51984 WT3  2652 TIP3 H2   HT     0.417000        1.0080           0
   51985 WT3  2654 TIP3 OH2  OT    -0.834000       15.9994           0
   51986 WT3  2654 TIP3 H1   HT     0.417000        1.0080           0
   51987 WT3  2654 TIP3 H2   HT     0.417000        1.0080           0
   51988 WT3  2656 TIP3 OH2  OT    -0.834000       15.9994           0
   51989 WT3  2656 TIP3 H1   HT     0.417000        1.0080           0
   51990 WT3  2656 TIP3 H2   HT     0.417000        1.0080           0
   51991 WT3  2657 TIP3 OH2  OT    -0.834000       15.9994           0
   51992 WT3  2657 TIP3 H1   HT     0.417000        1.0080           0
   51993 WT3  2657 TIP3 H2   HT     0.417000        1.0080           0
   51994 WT3  2659 TIP3 OH2  OT    -0.834000       15.9994           0
   51995 WT3  2659 TIP3 H1   HT     0.417000        1.0080           0
   51996 WT3  2659 TIP3 H2   HT     0.417000        1.0080           0
   51997 WT3  2662 TIP3 OH2  OT    -0.834000       15.9994           0
   51998 WT3  2662 TIP3 H1   HT     0.417000        1.0080           0
   51999 WT3  2662 TIP3 H2   HT     0.417000        1.0080           0
   52000 WT3  2665 TIP3 OH2  OT    -0.834000       15.9994           0
   52001 WT3  2665 TIP3 H1   HT     0.417000        1.0080           0
   52002 WT3  2665 TIP3 H2   HT     0.417000        1.0080           0
   52003 WT3  2667 TIP3 OH2  OT    -0.834000       15.9994           0
   52004 WT3  2667 TIP3 H1   HT     0.417000        1.0080           0
   52005 WT3  2667 TIP3 H2   HT     0.417000        1.0080           0
   52006 WT3  2669 TIP3 OH2  OT    -0.834000       15.9994           0
   52007 WT3  2669 TIP3 H1   HT     0.417000        1.0080           0
   52008 WT3  2669 TIP3 H2   HT     0.417000        1.0080           0
   52009 WT3  2670 TIP3 OH2  OT    -0.834000       15.9994           0
   52010 WT3  2670 TIP3 H1   HT     0.417000        1.0080           0
   52011 WT3  2670 TIP3 H2   HT     0.417000        1.0080           0
   52012 WT3  2672 TIP3 OH2  OT    -0.834000       15.9994           0
   52013 WT3  2672 TIP3 H1   HT     0.417000        1.0080           0
   52014 WT3  2672 TIP3 H2   HT     0.417000        1.0080           0
   52015 WT3  2673 TIP3 OH2  OT    -0.834000       15.9994           0
   52016 WT3  2673 TIP3 H1   HT     0.417000        1.0080           0
   52017 WT3  2673 TIP3 H2   HT     0.417000        1.0080           0
   52018 WT3  2674 TIP3 OH2  OT    -0.834000       15.9994           0
   52019 WT3  2674 TIP3 H1   HT     0.417000        1.0080           0
   52020 WT3  2674 TIP3 H2   HT     0.417000        1.0080           0
   52021 WT3  2675 TIP3 OH2  OT    -0.834000       15.9994           0
   52022 WT3  2675 TIP3 H1   HT     0.417000        1.0080           0
   52023 WT3  2675 TIP3 H2   HT     0.417000        1.0080           0
   52024 WT3  2676 TIP3 OH2  OT    -0.834000       15.9994           0
   52025 WT3  2676 TIP3 H1   HT     0.417000        1.0080           0
   52026 WT3  2676 TIP3 H2   HT     0.417000        1.0080           0
   52027 WT3  2677 TIP3 OH2  OT    -0.834000       15.9994           0
   52028 WT3  2677 TIP3 H1   HT     0.417000        1.0080           0
   52029 WT3  2677 TIP3 H2   HT     0.417000        1.0080           0
   52030 WT3  2678 TIP3 OH2  OT    -0.834000       15.9994           0
   52031 WT3  2678 TIP3 H1   HT     0.417000        1.0080           0
   52032 WT3  2678 TIP3 H2   HT     0.417000        1.0080           0
   52033 WT3  2680 TIP3 OH2  OT    -0.834000       15.9994           0
   52034 WT3  2680 TIP3 H1   HT     0.417000        1.0080           0
   52035 WT3  2680 TIP3 H2   HT     0.417000        1.0080           0
   52036 WT3  2681 TIP3 OH2  OT    -0.834000       15.9994           0
   52037 WT3  2681 TIP3 H1   HT     0.417000        1.0080           0
   52038 WT3  2681 TIP3 H2   HT     0.417000        1.0080           0
   52039 WT3  2682 TIP3 OH2  OT    -0.834000       15.9994           0
   52040 WT3  2682 TIP3 H1   HT     0.417000        1.0080           0
   52041 WT3  2682 TIP3 H2   HT     0.417000        1.0080           0
   52042 WT3  2683 TIP3 OH2  OT    -0.834000       15.9994           0
   52043 WT3  2683 TIP3 H1   HT     0.417000        1.0080           0
   52044 WT3  2683 TIP3 H2   HT     0.417000        1.0080           0
   52045 WT3  2684 TIP3 OH2  OT    -0.834000       15.9994           0
   52046 WT3  2684 TIP3 H1   HT     0.417000        1.0080           0
   52047 WT3  2684 TIP3 H2   HT     0.417000        1.0080           0
   52048 WT3  2686 TIP3 OH2  OT    -0.834000       15.9994           0
   52049 WT3  2686 TIP3 H1   HT     0.417000        1.0080           0
   52050 WT3  2686 TIP3 H2   HT     0.417000        1.0080           0
   52051 WT3  2688 TIP3 OH2  OT    -0.834000       15.9994           0
   52052 WT3  2688 TIP3 H1   HT     0.417000        1.0080           0
   52053 WT3  2688 TIP3 H2   HT     0.417000        1.0080           0
   52054 WT3  2689 TIP3 OH2  OT    -0.834000       15.9994           0
   52055 WT3  2689 TIP3 H1   HT     0.417000        1.0080           0
   52056 WT3  2689 TIP3 H2   HT     0.417000        1.0080           0
   52057 WT3  2690 TIP3 OH2  OT    -0.834000       15.9994           0
   52058 WT3  2690 TIP3 H1   HT     0.417000        1.0080           0
   52059 WT3  2690 TIP3 H2   HT     0.417000        1.0080           0
   52060 WT3  2692 TIP3 OH2  OT    -0.834000       15.9994           0
   52061 WT3  2692 TIP3 H1   HT     0.417000        1.0080           0
   52062 WT3  2692 TIP3 H2   HT     0.417000        1.0080           0
   52063 WT3  2693 TIP3 OH2  OT    -0.834000       15.9994           0
   52064 WT3  2693 TIP3 H1   HT     0.417000        1.0080           0
   52065 WT3  2693 TIP3 H2   HT     0.417000        1.0080           0
   52066 WT3  2694 TIP3 OH2  OT    -0.834000       15.9994           0
   52067 WT3  2694 TIP3 H1   HT     0.417000        1.0080           0
   52068 WT3  2694 TIP3 H2   HT     0.417000        1.0080           0
   52069 WT3  2695 TIP3 OH2  OT    -0.834000       15.9994           0
   52070 WT3  2695 TIP3 H1   HT     0.417000        1.0080           0
   52071 WT3  2695 TIP3 H2   HT     0.417000        1.0080           0
   52072 WT3  2696 TIP3 OH2  OT    -0.834000       15.9994           0
   52073 WT3  2696 TIP3 H1   HT     0.417000        1.0080           0
   52074 WT3  2696 TIP3 H2   HT     0.417000        1.0080           0
   52075 WT3  2697 TIP3 OH2  OT    -0.834000       15.9994           0
   52076 WT3  2697 TIP3 H1   HT     0.417000        1.0080           0
   52077 WT3  2697 TIP3 H2   HT     0.417000        1.0080           0
   52078 WT3  2698 TIP3 OH2  OT    -0.834000       15.9994           0
   52079 WT3  2698 TIP3 H1   HT     0.417000        1.0080           0
   52080 WT3  2698 TIP3 H2   HT     0.417000        1.0080           0
   52081 WT3  2699 TIP3 OH2  OT    -0.834000       15.9994           0
   52082 WT3  2699 TIP3 H1   HT     0.417000        1.0080           0
   52083 WT3  2699 TIP3 H2   HT     0.417000        1.0080           0
   52084 WT3  2700 TIP3 OH2  OT    -0.834000       15.9994           0
   52085 WT3  2700 TIP3 H1   HT     0.417000        1.0080           0
   52086 WT3  2700 TIP3 H2   HT     0.417000        1.0080           0
   52087 WT3  2701 TIP3 OH2  OT    -0.834000       15.9994           0
   52088 WT3  2701 TIP3 H1   HT     0.417000        1.0080           0
   52089 WT3  2701 TIP3 H2   HT     0.417000        1.0080           0
   52090 WT3  2702 TIP3 OH2  OT    -0.834000       15.9994           0
   52091 WT3  2702 TIP3 H1   HT     0.417000        1.0080           0
   52092 WT3  2702 TIP3 H2   HT     0.417000        1.0080           0
   52093 WT3  2703 TIP3 OH2  OT    -0.834000       15.9994           0
   52094 WT3  2703 TIP3 H1   HT     0.417000        1.0080           0
   52095 WT3  2703 TIP3 H2   HT     0.417000        1.0080           0
   52096 WT3  2705 TIP3 OH2  OT    -0.834000       15.9994           0
   52097 WT3  2705 TIP3 H1   HT     0.417000        1.0080           0
   52098 WT3  2705 TIP3 H2   HT     0.417000        1.0080           0
   52099 WT3  2707 TIP3 OH2  OT    -0.834000       15.9994           0
   52100 WT3  2707 TIP3 H1   HT     0.417000        1.0080           0
   52101 WT3  2707 TIP3 H2   HT     0.417000        1.0080           0
   52102 WT3  2708 TIP3 OH2  OT    -0.834000       15.9994           0
   52103 WT3  2708 TIP3 H1   HT     0.417000        1.0080           0
   52104 WT3  2708 TIP3 H2   HT     0.417000        1.0080           0
   52105 WT3  2709 TIP3 OH2  OT    -0.834000       15.9994           0
   52106 WT3  2709 TIP3 H1   HT     0.417000        1.0080           0
   52107 WT3  2709 TIP3 H2   HT     0.417000        1.0080           0
   52108 WT3  2710 TIP3 OH2  OT    -0.834000       15.9994           0
   52109 WT3  2710 TIP3 H1   HT     0.417000        1.0080           0
   52110 WT3  2710 TIP3 H2   HT     0.417000        1.0080           0
   52111 WT3  2711 TIP3 OH2  OT    -0.834000       15.9994           0
   52112 WT3  2711 TIP3 H1   HT     0.417000        1.0080           0
   52113 WT3  2711 TIP3 H2   HT     0.417000        1.0080           0
   52114 WT3  2713 TIP3 OH2  OT    -0.834000       15.9994           0
   52115 WT3  2713 TIP3 H1   HT     0.417000        1.0080           0
   52116 WT3  2713 TIP3 H2   HT     0.417000        1.0080           0
   52117 WT3  2714 TIP3 OH2  OT    -0.834000       15.9994           0
   52118 WT3  2714 TIP3 H1   HT     0.417000        1.0080           0
   52119 WT3  2714 TIP3 H2   HT     0.417000        1.0080           0
   52120 WT3  2715 TIP3 OH2  OT    -0.834000       15.9994           0
   52121 WT3  2715 TIP3 H1   HT     0.417000        1.0080           0
   52122 WT3  2715 TIP3 H2   HT     0.417000        1.0080           0
   52123 WT3  2717 TIP3 OH2  OT    -0.834000       15.9994           0
   52124 WT3  2717 TIP3 H1   HT     0.417000        1.0080           0
   52125 WT3  2717 TIP3 H2   HT     0.417000        1.0080           0
   52126 WT3  2718 TIP3 OH2  OT    -0.834000       15.9994           0
   52127 WT3  2718 TIP3 H1   HT     0.417000        1.0080           0
   52128 WT3  2718 TIP3 H2   HT     0.417000        1.0080           0
   52129 WT3  2719 TIP3 OH2  OT    -0.834000       15.9994           0
   52130 WT3  2719 TIP3 H1   HT     0.417000        1.0080           0
   52131 WT3  2719 TIP3 H2   HT     0.417000        1.0080           0
   52132 WT3  2720 TIP3 OH2  OT    -0.834000       15.9994           0
   52133 WT3  2720 TIP3 H1   HT     0.417000        1.0080           0
   52134 WT3  2720 TIP3 H2   HT     0.417000        1.0080           0
   52135 WT3  2721 TIP3 OH2  OT    -0.834000       15.9994           0
   52136 WT3  2721 TIP3 H1   HT     0.417000        1.0080           0
   52137 WT3  2721 TIP3 H2   HT     0.417000        1.0080           0
   52138 WT3  2722 TIP3 OH2  OT    -0.834000       15.9994           0
   52139 WT3  2722 TIP3 H1   HT     0.417000        1.0080           0
   52140 WT3  2722 TIP3 H2   HT     0.417000        1.0080           0
   52141 WT3  2723 TIP3 OH2  OT    -0.834000       15.9994           0
   52142 WT3  2723 TIP3 H1   HT     0.417000        1.0080           0
   52143 WT3  2723 TIP3 H2   HT     0.417000        1.0080           0
   52144 WT3  2724 TIP3 OH2  OT    -0.834000       15.9994           0
   52145 WT3  2724 TIP3 H1   HT     0.417000        1.0080           0
   52146 WT3  2724 TIP3 H2   HT     0.417000        1.0080           0
   52147 WT3  2728 TIP3 OH2  OT    -0.834000       15.9994           0
   52148 WT3  2728 TIP3 H1   HT     0.417000        1.0080           0
   52149 WT3  2728 TIP3 H2   HT     0.417000        1.0080           0
   52150 WT3  2730 TIP3 OH2  OT    -0.834000       15.9994           0
   52151 WT3  2730 TIP3 H1   HT     0.417000        1.0080           0
   52152 WT3  2730 TIP3 H2   HT     0.417000        1.0080           0
   52153 WT3  2731 TIP3 OH2  OT    -0.834000       15.9994           0
   52154 WT3  2731 TIP3 H1   HT     0.417000        1.0080           0
   52155 WT3  2731 TIP3 H2   HT     0.417000        1.0080           0
   52156 WT3  2732 TIP3 OH2  OT    -0.834000       15.9994           0
   52157 WT3  2732 TIP3 H1   HT     0.417000        1.0080           0
   52158 WT3  2732 TIP3 H2   HT     0.417000        1.0080           0
   52159 WT3  2733 TIP3 OH2  OT    -0.834000       15.9994           0
   52160 WT3  2733 TIP3 H1   HT     0.417000        1.0080           0
   52161 WT3  2733 TIP3 H2   HT     0.417000        1.0080           0
   52162 WT3  2734 TIP3 OH2  OT    -0.834000       15.9994           0
   52163 WT3  2734 TIP3 H1   HT     0.417000        1.0080           0
   52164 WT3  2734 TIP3 H2   HT     0.417000        1.0080           0
   52165 WT3  2735 TIP3 OH2  OT    -0.834000       15.9994           0
   52166 WT3  2735 TIP3 H1   HT     0.417000        1.0080           0
   52167 WT3  2735 TIP3 H2   HT     0.417000        1.0080           0
   52168 WT3  2736 TIP3 OH2  OT    -0.834000       15.9994           0
   52169 WT3  2736 TIP3 H1   HT     0.417000        1.0080           0
   52170 WT3  2736 TIP3 H2   HT     0.417000        1.0080           0
   52171 WT3  2737 TIP3 OH2  OT    -0.834000       15.9994           0
   52172 WT3  2737 TIP3 H1   HT     0.417000        1.0080           0
   52173 WT3  2737 TIP3 H2   HT     0.417000        1.0080           0
   52174 WT3  2738 TIP3 OH2  OT    -0.834000       15.9994           0
   52175 WT3  2738 TIP3 H1   HT     0.417000        1.0080           0
   52176 WT3  2738 TIP3 H2   HT     0.417000        1.0080           0
   52177 WT3  2739 TIP3 OH2  OT    -0.834000       15.9994           0
   52178 WT3  2739 TIP3 H1   HT     0.417000        1.0080           0
   52179 WT3  2739 TIP3 H2   HT     0.417000        1.0080           0
   52180 WT3  2740 TIP3 OH2  OT    -0.834000       15.9994           0
   52181 WT3  2740 TIP3 H1   HT     0.417000        1.0080           0
   52182 WT3  2740 TIP3 H2   HT     0.417000        1.0080           0
   52183 WT3  2741 TIP3 OH2  OT    -0.834000       15.9994           0
   52184 WT3  2741 TIP3 H1   HT     0.417000        1.0080           0
   52185 WT3  2741 TIP3 H2   HT     0.417000        1.0080           0
   52186 WT3  2743 TIP3 OH2  OT    -0.834000       15.9994           0
   52187 WT3  2743 TIP3 H1   HT     0.417000        1.0080           0
   52188 WT3  2743 TIP3 H2   HT     0.417000        1.0080           0
   52189 WT3  2746 TIP3 OH2  OT    -0.834000       15.9994           0
   52190 WT3  2746 TIP3 H1   HT     0.417000        1.0080           0
   52191 WT3  2746 TIP3 H2   HT     0.417000        1.0080           0
   52192 WT3  2749 TIP3 OH2  OT    -0.834000       15.9994           0
   52193 WT3  2749 TIP3 H1   HT     0.417000        1.0080           0
   52194 WT3  2749 TIP3 H2   HT     0.417000        1.0080           0
   52195 WT3  2750 TIP3 OH2  OT    -0.834000       15.9994           0
   52196 WT3  2750 TIP3 H1   HT     0.417000        1.0080           0
   52197 WT3  2750 TIP3 H2   HT     0.417000        1.0080           0
   52198 WT3  2752 TIP3 OH2  OT    -0.834000       15.9994           0
   52199 WT3  2752 TIP3 H1   HT     0.417000        1.0080           0
   52200 WT3  2752 TIP3 H2   HT     0.417000        1.0080           0
   52201 WT3  2753 TIP3 OH2  OT    -0.834000       15.9994           0
   52202 WT3  2753 TIP3 H1   HT     0.417000        1.0080           0
   52203 WT3  2753 TIP3 H2   HT     0.417000        1.0080           0
   52204 WT3  2754 TIP3 OH2  OT    -0.834000       15.9994           0
   52205 WT3  2754 TIP3 H1   HT     0.417000        1.0080           0
   52206 WT3  2754 TIP3 H2   HT     0.417000        1.0080           0
   52207 WT3  2755 TIP3 OH2  OT    -0.834000       15.9994           0
   52208 WT3  2755 TIP3 H1   HT     0.417000        1.0080           0
   52209 WT3  2755 TIP3 H2   HT     0.417000        1.0080           0
   52210 WT3  2756 TIP3 OH2  OT    -0.834000       15.9994           0
   52211 WT3  2756 TIP3 H1   HT     0.417000        1.0080           0
   52212 WT3  2756 TIP3 H2   HT     0.417000        1.0080           0
   52213 WT3  2757 TIP3 OH2  OT    -0.834000       15.9994           0
   52214 WT3  2757 TIP3 H1   HT     0.417000        1.0080           0
   52215 WT3  2757 TIP3 H2   HT     0.417000        1.0080           0
   52216 WT3  2758 TIP3 OH2  OT    -0.834000       15.9994           0
   52217 WT3  2758 TIP3 H1   HT     0.417000        1.0080           0
   52218 WT3  2758 TIP3 H2   HT     0.417000        1.0080           0
   52219 WT3  2760 TIP3 OH2  OT    -0.834000       15.9994           0
   52220 WT3  2760 TIP3 H1   HT     0.417000        1.0080           0
   52221 WT3  2760 TIP3 H2   HT     0.417000        1.0080           0
   52222 WT3  2761 TIP3 OH2  OT    -0.834000       15.9994           0
   52223 WT3  2761 TIP3 H1   HT     0.417000        1.0080           0
   52224 WT3  2761 TIP3 H2   HT     0.417000        1.0080           0
   52225 WT3  2762 TIP3 OH2  OT    -0.834000       15.9994           0
   52226 WT3  2762 TIP3 H1   HT     0.417000        1.0080           0
   52227 WT3  2762 TIP3 H2   HT     0.417000        1.0080           0
   52228 WT3  2763 TIP3 OH2  OT    -0.834000       15.9994           0
   52229 WT3  2763 TIP3 H1   HT     0.417000        1.0080           0
   52230 WT3  2763 TIP3 H2   HT     0.417000        1.0080           0
   52231 WT3  2765 TIP3 OH2  OT    -0.834000       15.9994           0
   52232 WT3  2765 TIP3 H1   HT     0.417000        1.0080           0
   52233 WT3  2765 TIP3 H2   HT     0.417000        1.0080           0
   52234 WT3  2766 TIP3 OH2  OT    -0.834000       15.9994           0
   52235 WT3  2766 TIP3 H1   HT     0.417000        1.0080           0
   52236 WT3  2766 TIP3 H2   HT     0.417000        1.0080           0
   52237 WT3  2767 TIP3 OH2  OT    -0.834000       15.9994           0
   52238 WT3  2767 TIP3 H1   HT     0.417000        1.0080           0
   52239 WT3  2767 TIP3 H2   HT     0.417000        1.0080           0
   52240 WT3  2768 TIP3 OH2  OT    -0.834000       15.9994           0
   52241 WT3  2768 TIP3 H1   HT     0.417000        1.0080           0
   52242 WT3  2768 TIP3 H2   HT     0.417000        1.0080           0
   52243 WT3  2769 TIP3 OH2  OT    -0.834000       15.9994           0
   52244 WT3  2769 TIP3 H1   HT     0.417000        1.0080           0
   52245 WT3  2769 TIP3 H2   HT     0.417000        1.0080           0
   52246 WT3  2771 TIP3 OH2  OT    -0.834000       15.9994           0
   52247 WT3  2771 TIP3 H1   HT     0.417000        1.0080           0
   52248 WT3  2771 TIP3 H2   HT     0.417000        1.0080           0
   52249 WT3  2772 TIP3 OH2  OT    -0.834000       15.9994           0
   52250 WT3  2772 TIP3 H1   HT     0.417000        1.0080           0
   52251 WT3  2772 TIP3 H2   HT     0.417000        1.0080           0
   52252 WT3  2774 TIP3 OH2  OT    -0.834000       15.9994           0
   52253 WT3  2774 TIP3 H1   HT     0.417000        1.0080           0
   52254 WT3  2774 TIP3 H2   HT     0.417000        1.0080           0
   52255 WT3  2775 TIP3 OH2  OT    -0.834000       15.9994           0
   52256 WT3  2775 TIP3 H1   HT     0.417000        1.0080           0
   52257 WT3  2775 TIP3 H2   HT     0.417000        1.0080           0
   52258 WT3  2776 TIP3 OH2  OT    -0.834000       15.9994           0
   52259 WT3  2776 TIP3 H1   HT     0.417000        1.0080           0
   52260 WT3  2776 TIP3 H2   HT     0.417000        1.0080           0
   52261 WT3  2777 TIP3 OH2  OT    -0.834000       15.9994           0
   52262 WT3  2777 TIP3 H1   HT     0.417000        1.0080           0
   52263 WT3  2777 TIP3 H2   HT     0.417000        1.0080           0
   52264 WT3  2778 TIP3 OH2  OT    -0.834000       15.9994           0
   52265 WT3  2778 TIP3 H1   HT     0.417000        1.0080           0
   52266 WT3  2778 TIP3 H2   HT     0.417000        1.0080           0
   52267 WT3  2779 TIP3 OH2  OT    -0.834000       15.9994           0
   52268 WT3  2779 TIP3 H1   HT     0.417000        1.0080           0
   52269 WT3  2779 TIP3 H2   HT     0.417000        1.0080           0
   52270 WT3  2780 TIP3 OH2  OT    -0.834000       15.9994           0
   52271 WT3  2780 TIP3 H1   HT     0.417000        1.0080           0
   52272 WT3  2780 TIP3 H2   HT     0.417000        1.0080           0
   52273 WT3  2781 TIP3 OH2  OT    -0.834000       15.9994           0
   52274 WT3  2781 TIP3 H1   HT     0.417000        1.0080           0
   52275 WT3  2781 TIP3 H2   HT     0.417000        1.0080           0
   52276 WT3  2782 TIP3 OH2  OT    -0.834000       15.9994           0
   52277 WT3  2782 TIP3 H1   HT     0.417000        1.0080           0
   52278 WT3  2782 TIP3 H2   HT     0.417000        1.0080           0
   52279 WT3  2784 TIP3 OH2  OT    -0.834000       15.9994           0
   52280 WT3  2784 TIP3 H1   HT     0.417000        1.0080           0
   52281 WT3  2784 TIP3 H2   HT     0.417000        1.0080           0
   52282 WT3  2785 TIP3 OH2  OT    -0.834000       15.9994           0
   52283 WT3  2785 TIP3 H1   HT     0.417000        1.0080           0
   52284 WT3  2785 TIP3 H2   HT     0.417000        1.0080           0
   52285 WT3  2786 TIP3 OH2  OT    -0.834000       15.9994           0
   52286 WT3  2786 TIP3 H1   HT     0.417000        1.0080           0
   52287 WT3  2786 TIP3 H2   HT     0.417000        1.0080           0
   52288 WT3  2787 TIP3 OH2  OT    -0.834000       15.9994           0
   52289 WT3  2787 TIP3 H1   HT     0.417000        1.0080           0
   52290 WT3  2787 TIP3 H2   HT     0.417000        1.0080           0
   52291 WT3  2790 TIP3 OH2  OT    -0.834000       15.9994           0
   52292 WT3  2790 TIP3 H1   HT     0.417000        1.0080           0
   52293 WT3  2790 TIP3 H2   HT     0.417000        1.0080           0
   52294 WT3  2794 TIP3 OH2  OT    -0.834000       15.9994           0
   52295 WT3  2794 TIP3 H1   HT     0.417000        1.0080           0
   52296 WT3  2794 TIP3 H2   HT     0.417000        1.0080           0
   52297 WT3  2795 TIP3 OH2  OT    -0.834000       15.9994           0
   52298 WT3  2795 TIP3 H1   HT     0.417000        1.0080           0
   52299 WT3  2795 TIP3 H2   HT     0.417000        1.0080           0
   52300 WT3  2797 TIP3 OH2  OT    -0.834000       15.9994           0
   52301 WT3  2797 TIP3 H1   HT     0.417000        1.0080           0
   52302 WT3  2797 TIP3 H2   HT     0.417000        1.0080           0
   52303 WT3  2799 TIP3 OH2  OT    -0.834000       15.9994           0
   52304 WT3  2799 TIP3 H1   HT     0.417000        1.0080           0
   52305 WT3  2799 TIP3 H2   HT     0.417000        1.0080           0
   52306 WT3  2800 TIP3 OH2  OT    -0.834000       15.9994           0
   52307 WT3  2800 TIP3 H1   HT     0.417000        1.0080           0
   52308 WT3  2800 TIP3 H2   HT     0.417000        1.0080           0
   52309 WT3  2801 TIP3 OH2  OT    -0.834000       15.9994           0
   52310 WT3  2801 TIP3 H1   HT     0.417000        1.0080           0
   52311 WT3  2801 TIP3 H2   HT     0.417000        1.0080           0
   52312 WT3  2802 TIP3 OH2  OT    -0.834000       15.9994           0
   52313 WT3  2802 TIP3 H1   HT     0.417000        1.0080           0
   52314 WT3  2802 TIP3 H2   HT     0.417000        1.0080           0
   52315 WT3  2803 TIP3 OH2  OT    -0.834000       15.9994           0
   52316 WT3  2803 TIP3 H1   HT     0.417000        1.0080           0
   52317 WT3  2803 TIP3 H2   HT     0.417000        1.0080           0
   52318 WT3  2804 TIP3 OH2  OT    -0.834000       15.9994           0
   52319 WT3  2804 TIP3 H1   HT     0.417000        1.0080           0
   52320 WT3  2804 TIP3 H2   HT     0.417000        1.0080           0
   52321 WT3  2805 TIP3 OH2  OT    -0.834000       15.9994           0
   52322 WT3  2805 TIP3 H1   HT     0.417000        1.0080           0
   52323 WT3  2805 TIP3 H2   HT     0.417000        1.0080           0
   52324 WT3  2806 TIP3 OH2  OT    -0.834000       15.9994           0
   52325 WT3  2806 TIP3 H1   HT     0.417000        1.0080           0
   52326 WT3  2806 TIP3 H2   HT     0.417000        1.0080           0
   52327 WT3  2807 TIP3 OH2  OT    -0.834000       15.9994           0
   52328 WT3  2807 TIP3 H1   HT     0.417000        1.0080           0
   52329 WT3  2807 TIP3 H2   HT     0.417000        1.0080           0
   52330 WT3  2808 TIP3 OH2  OT    -0.834000       15.9994           0
   52331 WT3  2808 TIP3 H1   HT     0.417000        1.0080           0
   52332 WT3  2808 TIP3 H2   HT     0.417000        1.0080           0
   52333 WT3  2809 TIP3 OH2  OT    -0.834000       15.9994           0
   52334 WT3  2809 TIP3 H1   HT     0.417000        1.0080           0
   52335 WT3  2809 TIP3 H2   HT     0.417000        1.0080           0
   52336 WT3  2810 TIP3 OH2  OT    -0.834000       15.9994           0
   52337 WT3  2810 TIP3 H1   HT     0.417000        1.0080           0
   52338 WT3  2810 TIP3 H2   HT     0.417000        1.0080           0
   52339 WT3  2811 TIP3 OH2  OT    -0.834000       15.9994           0
   52340 WT3  2811 TIP3 H1   HT     0.417000        1.0080           0
   52341 WT3  2811 TIP3 H2   HT     0.417000        1.0080           0
   52342 WT3  2814 TIP3 OH2  OT    -0.834000       15.9994           0
   52343 WT3  2814 TIP3 H1   HT     0.417000        1.0080           0
   52344 WT3  2814 TIP3 H2   HT     0.417000        1.0080           0
   52345 WT3  2815 TIP3 OH2  OT    -0.834000       15.9994           0
   52346 WT3  2815 TIP3 H1   HT     0.417000        1.0080           0
   52347 WT3  2815 TIP3 H2   HT     0.417000        1.0080           0
   52348 WT3  2816 TIP3 OH2  OT    -0.834000       15.9994           0
   52349 WT3  2816 TIP3 H1   HT     0.417000        1.0080           0
   52350 WT3  2816 TIP3 H2   HT     0.417000        1.0080           0
   52351 WT3  2817 TIP3 OH2  OT    -0.834000       15.9994           0
   52352 WT3  2817 TIP3 H1   HT     0.417000        1.0080           0
   52353 WT3  2817 TIP3 H2   HT     0.417000        1.0080           0
   52354 WT3  2818 TIP3 OH2  OT    -0.834000       15.9994           0
   52355 WT3  2818 TIP3 H1   HT     0.417000        1.0080           0
   52356 WT3  2818 TIP3 H2   HT     0.417000        1.0080           0
   52357 WT3  2819 TIP3 OH2  OT    -0.834000       15.9994           0
   52358 WT3  2819 TIP3 H1   HT     0.417000        1.0080           0
   52359 WT3  2819 TIP3 H2   HT     0.417000        1.0080           0
   52360 WT3  2820 TIP3 OH2  OT    -0.834000       15.9994           0
   52361 WT3  2820 TIP3 H1   HT     0.417000        1.0080           0
   52362 WT3  2820 TIP3 H2   HT     0.417000        1.0080           0
   52363 WT3  2821 TIP3 OH2  OT    -0.834000       15.9994           0
   52364 WT3  2821 TIP3 H1   HT     0.417000        1.0080           0
   52365 WT3  2821 TIP3 H2   HT     0.417000        1.0080           0
   52366 WT3  2822 TIP3 OH2  OT    -0.834000       15.9994           0
   52367 WT3  2822 TIP3 H1   HT     0.417000        1.0080           0
   52368 WT3  2822 TIP3 H2   HT     0.417000        1.0080           0
   52369 WT3  2823 TIP3 OH2  OT    -0.834000       15.9994           0
   52370 WT3  2823 TIP3 H1   HT     0.417000        1.0080           0
   52371 WT3  2823 TIP3 H2   HT     0.417000        1.0080           0
   52372 WT3  2824 TIP3 OH2  OT    -0.834000       15.9994           0
   52373 WT3  2824 TIP3 H1   HT     0.417000        1.0080           0
   52374 WT3  2824 TIP3 H2   HT     0.417000        1.0080           0
   52375 WT3  2825 TIP3 OH2  OT    -0.834000       15.9994           0
   52376 WT3  2825 TIP3 H1   HT     0.417000        1.0080           0
   52377 WT3  2825 TIP3 H2   HT     0.417000        1.0080           0
   52378 WT3  2826 TIP3 OH2  OT    -0.834000       15.9994           0
   52379 WT3  2826 TIP3 H1   HT     0.417000        1.0080           0
   52380 WT3  2826 TIP3 H2   HT     0.417000        1.0080           0
   52381 WT3  2827 TIP3 OH2  OT    -0.834000       15.9994           0
   52382 WT3  2827 TIP3 H1   HT     0.417000        1.0080           0
   52383 WT3  2827 TIP3 H2   HT     0.417000        1.0080           0
   52384 WT3  2829 TIP3 OH2  OT    -0.834000       15.9994           0
   52385 WT3  2829 TIP3 H1   HT     0.417000        1.0080           0
   52386 WT3  2829 TIP3 H2   HT     0.417000        1.0080           0
   52387 WT3  2830 TIP3 OH2  OT    -0.834000       15.9994           0
   52388 WT3  2830 TIP3 H1   HT     0.417000        1.0080           0
   52389 WT3  2830 TIP3 H2   HT     0.417000        1.0080           0
   52390 WT3  2831 TIP3 OH2  OT    -0.834000       15.9994           0
   52391 WT3  2831 TIP3 H1   HT     0.417000        1.0080           0
   52392 WT3  2831 TIP3 H2   HT     0.417000        1.0080           0
   52393 WT3  2832 TIP3 OH2  OT    -0.834000       15.9994           0
   52394 WT3  2832 TIP3 H1   HT     0.417000        1.0080           0
   52395 WT3  2832 TIP3 H2   HT     0.417000        1.0080           0
   52396 WT3  2834 TIP3 OH2  OT    -0.834000       15.9994           0
   52397 WT3  2834 TIP3 H1   HT     0.417000        1.0080           0
   52398 WT3  2834 TIP3 H2   HT     0.417000        1.0080           0
   52399 WT3  2836 TIP3 OH2  OT    -0.834000       15.9994           0
   52400 WT3  2836 TIP3 H1   HT     0.417000        1.0080           0
   52401 WT3  2836 TIP3 H2   HT     0.417000        1.0080           0
   52402 WT3  2837 TIP3 OH2  OT    -0.834000       15.9994           0
   52403 WT3  2837 TIP3 H1   HT     0.417000        1.0080           0
   52404 WT3  2837 TIP3 H2   HT     0.417000        1.0080           0
   52405 WT3  2839 TIP3 OH2  OT    -0.834000       15.9994           0
   52406 WT3  2839 TIP3 H1   HT     0.417000        1.0080           0
   52407 WT3  2839 TIP3 H2   HT     0.417000        1.0080           0
   52408 WT3  2840 TIP3 OH2  OT    -0.834000       15.9994           0
   52409 WT3  2840 TIP3 H1   HT     0.417000        1.0080           0
   52410 WT3  2840 TIP3 H2   HT     0.417000        1.0080           0
   52411 WT3  2841 TIP3 OH2  OT    -0.834000       15.9994           0
   52412 WT3  2841 TIP3 H1   HT     0.417000        1.0080           0
   52413 WT3  2841 TIP3 H2   HT     0.417000        1.0080           0
   52414 WT3  2842 TIP3 OH2  OT    -0.834000       15.9994           0
   52415 WT3  2842 TIP3 H1   HT     0.417000        1.0080           0
   52416 WT3  2842 TIP3 H2   HT     0.417000        1.0080           0
   52417 WT3  2843 TIP3 OH2  OT    -0.834000       15.9994           0
   52418 WT3  2843 TIP3 H1   HT     0.417000        1.0080           0
   52419 WT3  2843 TIP3 H2   HT     0.417000        1.0080           0
   52420 WT3  2844 TIP3 OH2  OT    -0.834000       15.9994           0
   52421 WT3  2844 TIP3 H1   HT     0.417000        1.0080           0
   52422 WT3  2844 TIP3 H2   HT     0.417000        1.0080           0
   52423 WT3  2845 TIP3 OH2  OT    -0.834000       15.9994           0
   52424 WT3  2845 TIP3 H1   HT     0.417000        1.0080           0
   52425 WT3  2845 TIP3 H2   HT     0.417000        1.0080           0
   52426 WT3  2846 TIP3 OH2  OT    -0.834000       15.9994           0
   52427 WT3  2846 TIP3 H1   HT     0.417000        1.0080           0
   52428 WT3  2846 TIP3 H2   HT     0.417000        1.0080           0
   52429 WT3  2847 TIP3 OH2  OT    -0.834000       15.9994           0
   52430 WT3  2847 TIP3 H1   HT     0.417000        1.0080           0
   52431 WT3  2847 TIP3 H2   HT     0.417000        1.0080           0
   52432 WT3  2850 TIP3 OH2  OT    -0.834000       15.9994           0
   52433 WT3  2850 TIP3 H1   HT     0.417000        1.0080           0
   52434 WT3  2850 TIP3 H2   HT     0.417000        1.0080           0
   52435 WT3  2852 TIP3 OH2  OT    -0.834000       15.9994           0
   52436 WT3  2852 TIP3 H1   HT     0.417000        1.0080           0
   52437 WT3  2852 TIP3 H2   HT     0.417000        1.0080           0
   52438 WT3  2853 TIP3 OH2  OT    -0.834000       15.9994           0
   52439 WT3  2853 TIP3 H1   HT     0.417000        1.0080           0
   52440 WT3  2853 TIP3 H2   HT     0.417000        1.0080           0
   52441 WT3  2854 TIP3 OH2  OT    -0.834000       15.9994           0
   52442 WT3  2854 TIP3 H1   HT     0.417000        1.0080           0
   52443 WT3  2854 TIP3 H2   HT     0.417000        1.0080           0
   52444 WT3  2855 TIP3 OH2  OT    -0.834000       15.9994           0
   52445 WT3  2855 TIP3 H1   HT     0.417000        1.0080           0
   52446 WT3  2855 TIP3 H2   HT     0.417000        1.0080           0
   52447 WT3  2856 TIP3 OH2  OT    -0.834000       15.9994           0
   52448 WT3  2856 TIP3 H1   HT     0.417000        1.0080           0
   52449 WT3  2856 TIP3 H2   HT     0.417000        1.0080           0
   52450 WT3  2857 TIP3 OH2  OT    -0.834000       15.9994           0
   52451 WT3  2857 TIP3 H1   HT     0.417000        1.0080           0
   52452 WT3  2857 TIP3 H2   HT     0.417000        1.0080           0
   52453 WT3  2859 TIP3 OH2  OT    -0.834000       15.9994           0
   52454 WT3  2859 TIP3 H1   HT     0.417000        1.0080           0
   52455 WT3  2859 TIP3 H2   HT     0.417000        1.0080           0
   52456 WT3  2860 TIP3 OH2  OT    -0.834000       15.9994           0
   52457 WT3  2860 TIP3 H1   HT     0.417000        1.0080           0
   52458 WT3  2860 TIP3 H2   HT     0.417000        1.0080           0
   52459 WT3  2862 TIP3 OH2  OT    -0.834000       15.9994           0
   52460 WT3  2862 TIP3 H1   HT     0.417000        1.0080           0
   52461 WT3  2862 TIP3 H2   HT     0.417000        1.0080           0
   52462 WT3  2863 TIP3 OH2  OT    -0.834000       15.9994           0
   52463 WT3  2863 TIP3 H1   HT     0.417000        1.0080           0
   52464 WT3  2863 TIP3 H2   HT     0.417000        1.0080           0
   52465 WT3  2865 TIP3 OH2  OT    -0.834000       15.9994           0
   52466 WT3  2865 TIP3 H1   HT     0.417000        1.0080           0
   52467 WT3  2865 TIP3 H2   HT     0.417000        1.0080           0
   52468 WT3  2866 TIP3 OH2  OT    -0.834000       15.9994           0
   52469 WT3  2866 TIP3 H1   HT     0.417000        1.0080           0
   52470 WT3  2866 TIP3 H2   HT     0.417000        1.0080           0
   52471 WT3  2867 TIP3 OH2  OT    -0.834000       15.9994           0
   52472 WT3  2867 TIP3 H1   HT     0.417000        1.0080           0
   52473 WT3  2867 TIP3 H2   HT     0.417000        1.0080           0
   52474 WT3  2868 TIP3 OH2  OT    -0.834000       15.9994           0
   52475 WT3  2868 TIP3 H1   HT     0.417000        1.0080           0
   52476 WT3  2868 TIP3 H2   HT     0.417000        1.0080           0
   52477 WT3  2869 TIP3 OH2  OT    -0.834000       15.9994           0
   52478 WT3  2869 TIP3 H1   HT     0.417000        1.0080           0
   52479 WT3  2869 TIP3 H2   HT     0.417000        1.0080           0
   52480 WT3  2871 TIP3 OH2  OT    -0.834000       15.9994           0
   52481 WT3  2871 TIP3 H1   HT     0.417000        1.0080           0
   52482 WT3  2871 TIP3 H2   HT     0.417000        1.0080           0
   52483 WT3  2873 TIP3 OH2  OT    -0.834000       15.9994           0
   52484 WT3  2873 TIP3 H1   HT     0.417000        1.0080           0
   52485 WT3  2873 TIP3 H2   HT     0.417000        1.0080           0
   52486 WT3  2874 TIP3 OH2  OT    -0.834000       15.9994           0
   52487 WT3  2874 TIP3 H1   HT     0.417000        1.0080           0
   52488 WT3  2874 TIP3 H2   HT     0.417000        1.0080           0
   52489 WT3  2877 TIP3 OH2  OT    -0.834000       15.9994           0
   52490 WT3  2877 TIP3 H1   HT     0.417000        1.0080           0
   52491 WT3  2877 TIP3 H2   HT     0.417000        1.0080           0
   52492 WT3  2878 TIP3 OH2  OT    -0.834000       15.9994           0
   52493 WT3  2878 TIP3 H1   HT     0.417000        1.0080           0
   52494 WT3  2878 TIP3 H2   HT     0.417000        1.0080           0
   52495 WT3  2882 TIP3 OH2  OT    -0.834000       15.9994           0
   52496 WT3  2882 TIP3 H1   HT     0.417000        1.0080           0
   52497 WT3  2882 TIP3 H2   HT     0.417000        1.0080           0
   52498 WT3  2883 TIP3 OH2  OT    -0.834000       15.9994           0
   52499 WT3  2883 TIP3 H1   HT     0.417000        1.0080           0
   52500 WT3  2883 TIP3 H2   HT     0.417000        1.0080           0
   52501 WT3  2884 TIP3 OH2  OT    -0.834000       15.9994           0
   52502 WT3  2884 TIP3 H1   HT     0.417000        1.0080           0
   52503 WT3  2884 TIP3 H2   HT     0.417000        1.0080           0
   52504 WT3  2885 TIP3 OH2  OT    -0.834000       15.9994           0
   52505 WT3  2885 TIP3 H1   HT     0.417000        1.0080           0
   52506 WT3  2885 TIP3 H2   HT     0.417000        1.0080           0
   52507 WT3  2886 TIP3 OH2  OT    -0.834000       15.9994           0
   52508 WT3  2886 TIP3 H1   HT     0.417000        1.0080           0
   52509 WT3  2886 TIP3 H2   HT     0.417000        1.0080           0
   52510 WT3  2888 TIP3 OH2  OT    -0.834000       15.9994           0
   52511 WT3  2888 TIP3 H1   HT     0.417000        1.0080           0
   52512 WT3  2888 TIP3 H2   HT     0.417000        1.0080           0
   52513 WT3  2889 TIP3 OH2  OT    -0.834000       15.9994           0
   52514 WT3  2889 TIP3 H1   HT     0.417000        1.0080           0
   52515 WT3  2889 TIP3 H2   HT     0.417000        1.0080           0
   52516 WT3  2890 TIP3 OH2  OT    -0.834000       15.9994           0
   52517 WT3  2890 TIP3 H1   HT     0.417000        1.0080           0
   52518 WT3  2890 TIP3 H2   HT     0.417000        1.0080           0
   52519 WT3  2891 TIP3 OH2  OT    -0.834000       15.9994           0
   52520 WT3  2891 TIP3 H1   HT     0.417000        1.0080           0
   52521 WT3  2891 TIP3 H2   HT     0.417000        1.0080           0
   52522 WT3  2893 TIP3 OH2  OT    -0.834000       15.9994           0
   52523 WT3  2893 TIP3 H1   HT     0.417000        1.0080           0
   52524 WT3  2893 TIP3 H2   HT     0.417000        1.0080           0
   52525 WT3  2894 TIP3 OH2  OT    -0.834000       15.9994           0
   52526 WT3  2894 TIP3 H1   HT     0.417000        1.0080           0
   52527 WT3  2894 TIP3 H2   HT     0.417000        1.0080           0
   52528 WT3  2897 TIP3 OH2  OT    -0.834000       15.9994           0
   52529 WT3  2897 TIP3 H1   HT     0.417000        1.0080           0
   52530 WT3  2897 TIP3 H2   HT     0.417000        1.0080           0
   52531 WT3  2898 TIP3 OH2  OT    -0.834000       15.9994           0
   52532 WT3  2898 TIP3 H1   HT     0.417000        1.0080           0
   52533 WT3  2898 TIP3 H2   HT     0.417000        1.0080           0
   52534 WT3  2900 TIP3 OH2  OT    -0.834000       15.9994           0
   52535 WT3  2900 TIP3 H1   HT     0.417000        1.0080           0
   52536 WT3  2900 TIP3 H2   HT     0.417000        1.0080           0
   52537 WT3  2901 TIP3 OH2  OT    -0.834000       15.9994           0
   52538 WT3  2901 TIP3 H1   HT     0.417000        1.0080           0
   52539 WT3  2901 TIP3 H2   HT     0.417000        1.0080           0
   52540 WT3  2903 TIP3 OH2  OT    -0.834000       15.9994           0
   52541 WT3  2903 TIP3 H1   HT     0.417000        1.0080           0
   52542 WT3  2903 TIP3 H2   HT     0.417000        1.0080           0
   52543 WT3  2904 TIP3 OH2  OT    -0.834000       15.9994           0
   52544 WT3  2904 TIP3 H1   HT     0.417000        1.0080           0
   52545 WT3  2904 TIP3 H2   HT     0.417000        1.0080           0
   52546 WT3  2906 TIP3 OH2  OT    -0.834000       15.9994           0
   52547 WT3  2906 TIP3 H1   HT     0.417000        1.0080           0
   52548 WT3  2906 TIP3 H2   HT     0.417000        1.0080           0
   52549 WT3  2907 TIP3 OH2  OT    -0.834000       15.9994           0
   52550 WT3  2907 TIP3 H1   HT     0.417000        1.0080           0
   52551 WT3  2907 TIP3 H2   HT     0.417000        1.0080           0
   52552 WT3  2909 TIP3 OH2  OT    -0.834000       15.9994           0
   52553 WT3  2909 TIP3 H1   HT     0.417000        1.0080           0
   52554 WT3  2909 TIP3 H2   HT     0.417000        1.0080           0
   52555 WT3  2910 TIP3 OH2  OT    -0.834000       15.9994           0
   52556 WT3  2910 TIP3 H1   HT     0.417000        1.0080           0
   52557 WT3  2910 TIP3 H2   HT     0.417000        1.0080           0
   52558 WT3  2911 TIP3 OH2  OT    -0.834000       15.9994           0
   52559 WT3  2911 TIP3 H1   HT     0.417000        1.0080           0
   52560 WT3  2911 TIP3 H2   HT     0.417000        1.0080           0
   52561 WT3  2913 TIP3 OH2  OT    -0.834000       15.9994           0
   52562 WT3  2913 TIP3 H1   HT     0.417000        1.0080           0
   52563 WT3  2913 TIP3 H2   HT     0.417000        1.0080           0
   52564 WT3  2914 TIP3 OH2  OT    -0.834000       15.9994           0
   52565 WT3  2914 TIP3 H1   HT     0.417000        1.0080           0
   52566 WT3  2914 TIP3 H2   HT     0.417000        1.0080           0
   52567 WT3  2916 TIP3 OH2  OT    -0.834000       15.9994           0
   52568 WT3  2916 TIP3 H1   HT     0.417000        1.0080           0
   52569 WT3  2916 TIP3 H2   HT     0.417000        1.0080           0
   52570 WT3  2917 TIP3 OH2  OT    -0.834000       15.9994           0
   52571 WT3  2917 TIP3 H1   HT     0.417000        1.0080           0
   52572 WT3  2917 TIP3 H2   HT     0.417000        1.0080           0
   52573 WT3  2918 TIP3 OH2  OT    -0.834000       15.9994           0
   52574 WT3  2918 TIP3 H1   HT     0.417000        1.0080           0
   52575 WT3  2918 TIP3 H2   HT     0.417000        1.0080           0
   52576 WT3  2919 TIP3 OH2  OT    -0.834000       15.9994           0
   52577 WT3  2919 TIP3 H1   HT     0.417000        1.0080           0
   52578 WT3  2919 TIP3 H2   HT     0.417000        1.0080           0
   52579 WT3  2921 TIP3 OH2  OT    -0.834000       15.9994           0
   52580 WT3  2921 TIP3 H1   HT     0.417000        1.0080           0
   52581 WT3  2921 TIP3 H2   HT     0.417000        1.0080           0
   52582 WT3  2922 TIP3 OH2  OT    -0.834000       15.9994           0
   52583 WT3  2922 TIP3 H1   HT     0.417000        1.0080           0
   52584 WT3  2922 TIP3 H2   HT     0.417000        1.0080           0
   52585 WT3  2925 TIP3 OH2  OT    -0.834000       15.9994           0
   52586 WT3  2925 TIP3 H1   HT     0.417000        1.0080           0
   52587 WT3  2925 TIP3 H2   HT     0.417000        1.0080           0
   52588 WT3  2926 TIP3 OH2  OT    -0.834000       15.9994           0
   52589 WT3  2926 TIP3 H1   HT     0.417000        1.0080           0
   52590 WT3  2926 TIP3 H2   HT     0.417000        1.0080           0
   52591 WT3  2927 TIP3 OH2  OT    -0.834000       15.9994           0
   52592 WT3  2927 TIP3 H1   HT     0.417000        1.0080           0
   52593 WT3  2927 TIP3 H2   HT     0.417000        1.0080           0
   52594 WT3  2928 TIP3 OH2  OT    -0.834000       15.9994           0
   52595 WT3  2928 TIP3 H1   HT     0.417000        1.0080           0
   52596 WT3  2928 TIP3 H2   HT     0.417000        1.0080           0
   52597 WT3  2930 TIP3 OH2  OT    -0.834000       15.9994           0
   52598 WT3  2930 TIP3 H1   HT     0.417000        1.0080           0
   52599 WT3  2930 TIP3 H2   HT     0.417000        1.0080           0
   52600 WT3  2936 TIP3 OH2  OT    -0.834000       15.9994           0
   52601 WT3  2936 TIP3 H1   HT     0.417000        1.0080           0
   52602 WT3  2936 TIP3 H2   HT     0.417000        1.0080           0
   52603 WT3  2941 TIP3 OH2  OT    -0.834000       15.9994           0
   52604 WT3  2941 TIP3 H1   HT     0.417000        1.0080           0
   52605 WT3  2941 TIP3 H2   HT     0.417000        1.0080           0
   52606 WT3  2943 TIP3 OH2  OT    -0.834000       15.9994           0
   52607 WT3  2943 TIP3 H1   HT     0.417000        1.0080           0
   52608 WT3  2943 TIP3 H2   HT     0.417000        1.0080           0
   52609 WT3  2944 TIP3 OH2  OT    -0.834000       15.9994           0
   52610 WT3  2944 TIP3 H1   HT     0.417000        1.0080           0
   52611 WT3  2944 TIP3 H2   HT     0.417000        1.0080           0
   52612 WT3  2946 TIP3 OH2  OT    -0.834000       15.9994           0
   52613 WT3  2946 TIP3 H1   HT     0.417000        1.0080           0
   52614 WT3  2946 TIP3 H2   HT     0.417000        1.0080           0
   52615 WT3  2951 TIP3 OH2  OT    -0.834000       15.9994           0
   52616 WT3  2951 TIP3 H1   HT     0.417000        1.0080           0
   52617 WT3  2951 TIP3 H2   HT     0.417000        1.0080           0
   52618 WT3  2957 TIP3 OH2  OT    -0.834000       15.9994           0
   52619 WT3  2957 TIP3 H1   HT     0.417000        1.0080           0
   52620 WT3  2957 TIP3 H2   HT     0.417000        1.0080           0
   52621 WT3  2962 TIP3 OH2  OT    -0.834000       15.9994           0
   52622 WT3  2962 TIP3 H1   HT     0.417000        1.0080           0
   52623 WT3  2962 TIP3 H2   HT     0.417000        1.0080           0
   52624 WT3  2963 TIP3 OH2  OT    -0.834000       15.9994           0
   52625 WT3  2963 TIP3 H1   HT     0.417000        1.0080           0
   52626 WT3  2963 TIP3 H2   HT     0.417000        1.0080           0
   52627 WT3  2965 TIP3 OH2  OT    -0.834000       15.9994           0
   52628 WT3  2965 TIP3 H1   HT     0.417000        1.0080           0
   52629 WT3  2965 TIP3 H2   HT     0.417000        1.0080           0
   52630 WT3  2967 TIP3 OH2  OT    -0.834000       15.9994           0
   52631 WT3  2967 TIP3 H1   HT     0.417000        1.0080           0
   52632 WT3  2967 TIP3 H2   HT     0.417000        1.0080           0
   52633 WT3  2968 TIP3 OH2  OT    -0.834000       15.9994           0
   52634 WT3  2968 TIP3 H1   HT     0.417000        1.0080           0
   52635 WT3  2968 TIP3 H2   HT     0.417000        1.0080           0
   52636 WT3  2972 TIP3 OH2  OT    -0.834000       15.9994           0
   52637 WT3  2972 TIP3 H1   HT     0.417000        1.0080           0
   52638 WT3  2972 TIP3 H2   HT     0.417000        1.0080           0
   52639 WT3  2975 TIP3 OH2  OT    -0.834000       15.9994           0
   52640 WT3  2975 TIP3 H1   HT     0.417000        1.0080           0
   52641 WT3  2975 TIP3 H2   HT     0.417000        1.0080           0
   52642 WT3  2979 TIP3 OH2  OT    -0.834000       15.9994           0
   52643 WT3  2979 TIP3 H1   HT     0.417000        1.0080           0
   52644 WT3  2979 TIP3 H2   HT     0.417000        1.0080           0
   52645 WT3  2985 TIP3 OH2  OT    -0.834000       15.9994           0
   52646 WT3  2985 TIP3 H1   HT     0.417000        1.0080           0
   52647 WT3  2985 TIP3 H2   HT     0.417000        1.0080           0
   52648 WT3  2991 TIP3 OH2  OT    -0.834000       15.9994           0
   52649 WT3  2991 TIP3 H1   HT     0.417000        1.0080           0
   52650 WT3  2991 TIP3 H2   HT     0.417000        1.0080           0
   52651 WT3  2994 TIP3 OH2  OT    -0.834000       15.9994           0
   52652 WT3  2994 TIP3 H1   HT     0.417000        1.0080           0
   52653 WT3  2994 TIP3 H2   HT     0.417000        1.0080           0
   52654 WT3  3005 TIP3 OH2  OT    -0.834000       15.9994           0
   52655 WT3  3005 TIP3 H1   HT     0.417000        1.0080           0
   52656 WT3  3005 TIP3 H2   HT     0.417000        1.0080           0
   52657 WT3  3010 TIP3 OH2  OT    -0.834000       15.9994           0
   52658 WT3  3010 TIP3 H1   HT     0.417000        1.0080           0
   52659 WT3  3010 TIP3 H2   HT     0.417000        1.0080           0
   52660 WT3  3012 TIP3 OH2  OT    -0.834000       15.9994           0
   52661 WT3  3012 TIP3 H1   HT     0.417000        1.0080           0
   52662 WT3  3012 TIP3 H2   HT     0.417000        1.0080           0
   52663 WT3  3016 TIP3 OH2  OT    -0.834000       15.9994           0
   52664 WT3  3016 TIP3 H1   HT     0.417000        1.0080           0
   52665 WT3  3016 TIP3 H2   HT     0.417000        1.0080           0
   52666 WT3  3024 TIP3 OH2  OT    -0.834000       15.9994           0
   52667 WT3  3024 TIP3 H1   HT     0.417000        1.0080           0
   52668 WT3  3024 TIP3 H2   HT     0.417000        1.0080           0
   52669 WT3  3027 TIP3 OH2  OT    -0.834000       15.9994           0
   52670 WT3  3027 TIP3 H1   HT     0.417000        1.0080           0
   52671 WT3  3027 TIP3 H2   HT     0.417000        1.0080           0
   52672 WT3  3030 TIP3 OH2  OT    -0.834000       15.9994           0
   52673 WT3  3030 TIP3 H1   HT     0.417000        1.0080           0
   52674 WT3  3030 TIP3 H2   HT     0.417000        1.0080           0
   52675 WT3  3033 TIP3 OH2  OT    -0.834000       15.9994           0
   52676 WT3  3033 TIP3 H1   HT     0.417000        1.0080           0
   52677 WT3  3033 TIP3 H2   HT     0.417000        1.0080           0
   52678 WT3  3036 TIP3 OH2  OT    -0.834000       15.9994           0
   52679 WT3  3036 TIP3 H1   HT     0.417000        1.0080           0
   52680 WT3  3036 TIP3 H2   HT     0.417000        1.0080           0
   52681 WT3  3037 TIP3 OH2  OT    -0.834000       15.9994           0
   52682 WT3  3037 TIP3 H1   HT     0.417000        1.0080           0
   52683 WT3  3037 TIP3 H2   HT     0.417000        1.0080           0
   52684 WT3  3038 TIP3 OH2  OT    -0.834000       15.9994           0
   52685 WT3  3038 TIP3 H1   HT     0.417000        1.0080           0
   52686 WT3  3038 TIP3 H2   HT     0.417000        1.0080           0
   52687 WT3  3042 TIP3 OH2  OT    -0.834000       15.9994           0
   52688 WT3  3042 TIP3 H1   HT     0.417000        1.0080           0
   52689 WT3  3042 TIP3 H2   HT     0.417000        1.0080           0
   52690 WT3  3046 TIP3 OH2  OT    -0.834000       15.9994           0
   52691 WT3  3046 TIP3 H1   HT     0.417000        1.0080           0
   52692 WT3  3046 TIP3 H2   HT     0.417000        1.0080           0
   52693 WT3  3049 TIP3 OH2  OT    -0.834000       15.9994           0
   52694 WT3  3049 TIP3 H1   HT     0.417000        1.0080           0
   52695 WT3  3049 TIP3 H2   HT     0.417000        1.0080           0
   52696 WT3  3050 TIP3 OH2  OT    -0.834000       15.9994           0
   52697 WT3  3050 TIP3 H1   HT     0.417000        1.0080           0
   52698 WT3  3050 TIP3 H2   HT     0.417000        1.0080           0
   52699 WT3  3053 TIP3 OH2  OT    -0.834000       15.9994           0
   52700 WT3  3053 TIP3 H1   HT     0.417000        1.0080           0
   52701 WT3  3053 TIP3 H2   HT     0.417000        1.0080           0
   52702 WT3  3057 TIP3 OH2  OT    -0.834000       15.9994           0
   52703 WT3  3057 TIP3 H1   HT     0.417000        1.0080           0
   52704 WT3  3057 TIP3 H2   HT     0.417000        1.0080           0
   52705 WT3  3058 TIP3 OH2  OT    -0.834000       15.9994           0
   52706 WT3  3058 TIP3 H1   HT     0.417000        1.0080           0
   52707 WT3  3058 TIP3 H2   HT     0.417000        1.0080           0
   52708 WT3  3070 TIP3 OH2  OT    -0.834000       15.9994           0
   52709 WT3  3070 TIP3 H1   HT     0.417000        1.0080           0
   52710 WT3  3070 TIP3 H2   HT     0.417000        1.0080           0
   52711 WT3  3071 TIP3 OH2  OT    -0.834000       15.9994           0
   52712 WT3  3071 TIP3 H1   HT     0.417000        1.0080           0
   52713 WT3  3071 TIP3 H2   HT     0.417000        1.0080           0
   52714 WT3  3072 TIP3 OH2  OT    -0.834000       15.9994           0
   52715 WT3  3072 TIP3 H1   HT     0.417000        1.0080           0
   52716 WT3  3072 TIP3 H2   HT     0.417000        1.0080           0
   52717 WT3  3073 TIP3 OH2  OT    -0.834000       15.9994           0
   52718 WT3  3073 TIP3 H1   HT     0.417000        1.0080           0
   52719 WT3  3073 TIP3 H2   HT     0.417000        1.0080           0
   52720 WT3  3075 TIP3 OH2  OT    -0.834000       15.9994           0
   52721 WT3  3075 TIP3 H1   HT     0.417000        1.0080           0
   52722 WT3  3075 TIP3 H2   HT     0.417000        1.0080           0
   52723 WT3  3079 TIP3 OH2  OT    -0.834000       15.9994           0
   52724 WT3  3079 TIP3 H1   HT     0.417000        1.0080           0
   52725 WT3  3079 TIP3 H2   HT     0.417000        1.0080           0
   52726 WT3  3080 TIP3 OH2  OT    -0.834000       15.9994           0
   52727 WT3  3080 TIP3 H1   HT     0.417000        1.0080           0
   52728 WT3  3080 TIP3 H2   HT     0.417000        1.0080           0
   52729 WT3  3081 TIP3 OH2  OT    -0.834000       15.9994           0
   52730 WT3  3081 TIP3 H1   HT     0.417000        1.0080           0
   52731 WT3  3081 TIP3 H2   HT     0.417000        1.0080           0
   52732 WT3  3082 TIP3 OH2  OT    -0.834000       15.9994           0
   52733 WT3  3082 TIP3 H1   HT     0.417000        1.0080           0
   52734 WT3  3082 TIP3 H2   HT     0.417000        1.0080           0
   52735 WT3  3084 TIP3 OH2  OT    -0.834000       15.9994           0
   52736 WT3  3084 TIP3 H1   HT     0.417000        1.0080           0
   52737 WT3  3084 TIP3 H2   HT     0.417000        1.0080           0
   52738 WT3  3085 TIP3 OH2  OT    -0.834000       15.9994           0
   52739 WT3  3085 TIP3 H1   HT     0.417000        1.0080           0
   52740 WT3  3085 TIP3 H2   HT     0.417000        1.0080           0
   52741 WT3  3086 TIP3 OH2  OT    -0.834000       15.9994           0
   52742 WT3  3086 TIP3 H1   HT     0.417000        1.0080           0
   52743 WT3  3086 TIP3 H2   HT     0.417000        1.0080           0
   52744 WT3  3090 TIP3 OH2  OT    -0.834000       15.9994           0
   52745 WT3  3090 TIP3 H1   HT     0.417000        1.0080           0
   52746 WT3  3090 TIP3 H2   HT     0.417000        1.0080           0
   52747 WT3  3091 TIP3 OH2  OT    -0.834000       15.9994           0
   52748 WT3  3091 TIP3 H1   HT     0.417000        1.0080           0
   52749 WT3  3091 TIP3 H2   HT     0.417000        1.0080           0
   52750 WT3  3092 TIP3 OH2  OT    -0.834000       15.9994           0
   52751 WT3  3092 TIP3 H1   HT     0.417000        1.0080           0
   52752 WT3  3092 TIP3 H2   HT     0.417000        1.0080           0
   52753 WT3  3095 TIP3 OH2  OT    -0.834000       15.9994           0
   52754 WT3  3095 TIP3 H1   HT     0.417000        1.0080           0
   52755 WT3  3095 TIP3 H2   HT     0.417000        1.0080           0
   52756 WT3  3096 TIP3 OH2  OT    -0.834000       15.9994           0
   52757 WT3  3096 TIP3 H1   HT     0.417000        1.0080           0
   52758 WT3  3096 TIP3 H2   HT     0.417000        1.0080           0
   52759 WT3  3097 TIP3 OH2  OT    -0.834000       15.9994           0
   52760 WT3  3097 TIP3 H1   HT     0.417000        1.0080           0
   52761 WT3  3097 TIP3 H2   HT     0.417000        1.0080           0
   52762 WT3  3099 TIP3 OH2  OT    -0.834000       15.9994           0
   52763 WT3  3099 TIP3 H1   HT     0.417000        1.0080           0
   52764 WT3  3099 TIP3 H2   HT     0.417000        1.0080           0
   52765 WT3  3101 TIP3 OH2  OT    -0.834000       15.9994           0
   52766 WT3  3101 TIP3 H1   HT     0.417000        1.0080           0
   52767 WT3  3101 TIP3 H2   HT     0.417000        1.0080           0
   52768 WT3  3102 TIP3 OH2  OT    -0.834000       15.9994           0
   52769 WT3  3102 TIP3 H1   HT     0.417000        1.0080           0
   52770 WT3  3102 TIP3 H2   HT     0.417000        1.0080           0
   52771 WT3  3103 TIP3 OH2  OT    -0.834000       15.9994           0
   52772 WT3  3103 TIP3 H1   HT     0.417000        1.0080           0
   52773 WT3  3103 TIP3 H2   HT     0.417000        1.0080           0
   52774 WT3  3104 TIP3 OH2  OT    -0.834000       15.9994           0
   52775 WT3  3104 TIP3 H1   HT     0.417000        1.0080           0
   52776 WT3  3104 TIP3 H2   HT     0.417000        1.0080           0
   52777 WT3  3106 TIP3 OH2  OT    -0.834000       15.9994           0
   52778 WT3  3106 TIP3 H1   HT     0.417000        1.0080           0
   52779 WT3  3106 TIP3 H2   HT     0.417000        1.0080           0
   52780 WT3  3107 TIP3 OH2  OT    -0.834000       15.9994           0
   52781 WT3  3107 TIP3 H1   HT     0.417000        1.0080           0
   52782 WT3  3107 TIP3 H2   HT     0.417000        1.0080           0
   52783 WT3  3108 TIP3 OH2  OT    -0.834000       15.9994           0
   52784 WT3  3108 TIP3 H1   HT     0.417000        1.0080           0
   52785 WT3  3108 TIP3 H2   HT     0.417000        1.0080           0
   52786 WT3  3109 TIP3 OH2  OT    -0.834000       15.9994           0
   52787 WT3  3109 TIP3 H1   HT     0.417000        1.0080           0
   52788 WT3  3109 TIP3 H2   HT     0.417000        1.0080           0
   52789 WT3  3111 TIP3 OH2  OT    -0.834000       15.9994           0
   52790 WT3  3111 TIP3 H1   HT     0.417000        1.0080           0
   52791 WT3  3111 TIP3 H2   HT     0.417000        1.0080           0
   52792 WT3  3112 TIP3 OH2  OT    -0.834000       15.9994           0
   52793 WT3  3112 TIP3 H1   HT     0.417000        1.0080           0
   52794 WT3  3112 TIP3 H2   HT     0.417000        1.0080           0
   52795 WT3  3113 TIP3 OH2  OT    -0.834000       15.9994           0
   52796 WT3  3113 TIP3 H1   HT     0.417000        1.0080           0
   52797 WT3  3113 TIP3 H2   HT     0.417000        1.0080           0
   52798 WT3  3114 TIP3 OH2  OT    -0.834000       15.9994           0
   52799 WT3  3114 TIP3 H1   HT     0.417000        1.0080           0
   52800 WT3  3114 TIP3 H2   HT     0.417000        1.0080           0
   52801 WT3  3115 TIP3 OH2  OT    -0.834000       15.9994           0
   52802 WT3  3115 TIP3 H1   HT     0.417000        1.0080           0
   52803 WT3  3115 TIP3 H2   HT     0.417000        1.0080           0
   52804 WT3  3116 TIP3 OH2  OT    -0.834000       15.9994           0
   52805 WT3  3116 TIP3 H1   HT     0.417000        1.0080           0
   52806 WT3  3116 TIP3 H2   HT     0.417000        1.0080           0
   52807 WT3  3117 TIP3 OH2  OT    -0.834000       15.9994           0
   52808 WT3  3117 TIP3 H1   HT     0.417000        1.0080           0
   52809 WT3  3117 TIP3 H2   HT     0.417000        1.0080           0
   52810 WT3  3119 TIP3 OH2  OT    -0.834000       15.9994           0
   52811 WT3  3119 TIP3 H1   HT     0.417000        1.0080           0
   52812 WT3  3119 TIP3 H2   HT     0.417000        1.0080           0
   52813 WT3  3120 TIP3 OH2  OT    -0.834000       15.9994           0
   52814 WT3  3120 TIP3 H1   HT     0.417000        1.0080           0
   52815 WT3  3120 TIP3 H2   HT     0.417000        1.0080           0
   52816 WT3  3121 TIP3 OH2  OT    -0.834000       15.9994           0
   52817 WT3  3121 TIP3 H1   HT     0.417000        1.0080           0
   52818 WT3  3121 TIP3 H2   HT     0.417000        1.0080           0
   52819 WT3  3129 TIP3 OH2  OT    -0.834000       15.9994           0
   52820 WT3  3129 TIP3 H1   HT     0.417000        1.0080           0
   52821 WT3  3129 TIP3 H2   HT     0.417000        1.0080           0
   52822 WT3  3131 TIP3 OH2  OT    -0.834000       15.9994           0
   52823 WT3  3131 TIP3 H1   HT     0.417000        1.0080           0
   52824 WT3  3131 TIP3 H2   HT     0.417000        1.0080           0
   52825 WT3  3132 TIP3 OH2  OT    -0.834000       15.9994           0
   52826 WT3  3132 TIP3 H1   HT     0.417000        1.0080           0
   52827 WT3  3132 TIP3 H2   HT     0.417000        1.0080           0
   52828 WT3  3133 TIP3 OH2  OT    -0.834000       15.9994           0
   52829 WT3  3133 TIP3 H1   HT     0.417000        1.0080           0
   52830 WT3  3133 TIP3 H2   HT     0.417000        1.0080           0
   52831 WT3  3134 TIP3 OH2  OT    -0.834000       15.9994           0
   52832 WT3  3134 TIP3 H1   HT     0.417000        1.0080           0
   52833 WT3  3134 TIP3 H2   HT     0.417000        1.0080           0
   52834 WT3  3136 TIP3 OH2  OT    -0.834000       15.9994           0
   52835 WT3  3136 TIP3 H1   HT     0.417000        1.0080           0
   52836 WT3  3136 TIP3 H2   HT     0.417000        1.0080           0
   52837 WT3  3138 TIP3 OH2  OT    -0.834000       15.9994           0
   52838 WT3  3138 TIP3 H1   HT     0.417000        1.0080           0
   52839 WT3  3138 TIP3 H2   HT     0.417000        1.0080           0
   52840 WT3  3139 TIP3 OH2  OT    -0.834000       15.9994           0
   52841 WT3  3139 TIP3 H1   HT     0.417000        1.0080           0
   52842 WT3  3139 TIP3 H2   HT     0.417000        1.0080           0
   52843 WT3  3140 TIP3 OH2  OT    -0.834000       15.9994           0
   52844 WT3  3140 TIP3 H1   HT     0.417000        1.0080           0
   52845 WT3  3140 TIP3 H2   HT     0.417000        1.0080           0
   52846 WT3  3141 TIP3 OH2  OT    -0.834000       15.9994           0
   52847 WT3  3141 TIP3 H1   HT     0.417000        1.0080           0
   52848 WT3  3141 TIP3 H2   HT     0.417000        1.0080           0
   52849 WT3  3142 TIP3 OH2  OT    -0.834000       15.9994           0
   52850 WT3  3142 TIP3 H1   HT     0.417000        1.0080           0
   52851 WT3  3142 TIP3 H2   HT     0.417000        1.0080           0
   52852 WT3  3143 TIP3 OH2  OT    -0.834000       15.9994           0
   52853 WT3  3143 TIP3 H1   HT     0.417000        1.0080           0
   52854 WT3  3143 TIP3 H2   HT     0.417000        1.0080           0
   52855 WT3  3144 TIP3 OH2  OT    -0.834000       15.9994           0
   52856 WT3  3144 TIP3 H1   HT     0.417000        1.0080           0
   52857 WT3  3144 TIP3 H2   HT     0.417000        1.0080           0
   52858 WT3  3145 TIP3 OH2  OT    -0.834000       15.9994           0
   52859 WT3  3145 TIP3 H1   HT     0.417000        1.0080           0
   52860 WT3  3145 TIP3 H2   HT     0.417000        1.0080           0
   52861 WT3  3148 TIP3 OH2  OT    -0.834000       15.9994           0
   52862 WT3  3148 TIP3 H1   HT     0.417000        1.0080           0
   52863 WT3  3148 TIP3 H2   HT     0.417000        1.0080           0
   52864 WT3  3150 TIP3 OH2  OT    -0.834000       15.9994           0
   52865 WT3  3150 TIP3 H1   HT     0.417000        1.0080           0
   52866 WT3  3150 TIP3 H2   HT     0.417000        1.0080           0
   52867 WT3  3152 TIP3 OH2  OT    -0.834000       15.9994           0
   52868 WT3  3152 TIP3 H1   HT     0.417000        1.0080           0
   52869 WT3  3152 TIP3 H2   HT     0.417000        1.0080           0
   52870 WT3  3154 TIP3 OH2  OT    -0.834000       15.9994           0
   52871 WT3  3154 TIP3 H1   HT     0.417000        1.0080           0
   52872 WT3  3154 TIP3 H2   HT     0.417000        1.0080           0
   52873 WT3  3155 TIP3 OH2  OT    -0.834000       15.9994           0
   52874 WT3  3155 TIP3 H1   HT     0.417000        1.0080           0
   52875 WT3  3155 TIP3 H2   HT     0.417000        1.0080           0
   52876 WT3  3156 TIP3 OH2  OT    -0.834000       15.9994           0
   52877 WT3  3156 TIP3 H1   HT     0.417000        1.0080           0
   52878 WT3  3156 TIP3 H2   HT     0.417000        1.0080           0
   52879 WT3  3157 TIP3 OH2  OT    -0.834000       15.9994           0
   52880 WT3  3157 TIP3 H1   HT     0.417000        1.0080           0
   52881 WT3  3157 TIP3 H2   HT     0.417000        1.0080           0
   52882 WT3  3158 TIP3 OH2  OT    -0.834000       15.9994           0
   52883 WT3  3158 TIP3 H1   HT     0.417000        1.0080           0
   52884 WT3  3158 TIP3 H2   HT     0.417000        1.0080           0
   52885 WT3  3159 TIP3 OH2  OT    -0.834000       15.9994           0
   52886 WT3  3159 TIP3 H1   HT     0.417000        1.0080           0
   52887 WT3  3159 TIP3 H2   HT     0.417000        1.0080           0
   52888 WT3  3160 TIP3 OH2  OT    -0.834000       15.9994           0
   52889 WT3  3160 TIP3 H1   HT     0.417000        1.0080           0
   52890 WT3  3160 TIP3 H2   HT     0.417000        1.0080           0
   52891 WT3  3161 TIP3 OH2  OT    -0.834000       15.9994           0
   52892 WT3  3161 TIP3 H1   HT     0.417000        1.0080           0
   52893 WT3  3161 TIP3 H2   HT     0.417000        1.0080           0
   52894 WT3  3162 TIP3 OH2  OT    -0.834000       15.9994           0
   52895 WT3  3162 TIP3 H1   HT     0.417000        1.0080           0
   52896 WT3  3162 TIP3 H2   HT     0.417000        1.0080           0
   52897 WT3  3163 TIP3 OH2  OT    -0.834000       15.9994           0
   52898 WT3  3163 TIP3 H1   HT     0.417000        1.0080           0
   52899 WT3  3163 TIP3 H2   HT     0.417000        1.0080           0
   52900 WT3  3164 TIP3 OH2  OT    -0.834000       15.9994           0
   52901 WT3  3164 TIP3 H1   HT     0.417000        1.0080           0
   52902 WT3  3164 TIP3 H2   HT     0.417000        1.0080           0
   52903 WT3  3167 TIP3 OH2  OT    -0.834000       15.9994           0
   52904 WT3  3167 TIP3 H1   HT     0.417000        1.0080           0
   52905 WT3  3167 TIP3 H2   HT     0.417000        1.0080           0
   52906 WT3  3169 TIP3 OH2  OT    -0.834000       15.9994           0
   52907 WT3  3169 TIP3 H1   HT     0.417000        1.0080           0
   52908 WT3  3169 TIP3 H2   HT     0.417000        1.0080           0
   52909 WT3  3171 TIP3 OH2  OT    -0.834000       15.9994           0
   52910 WT3  3171 TIP3 H1   HT     0.417000        1.0080           0
   52911 WT3  3171 TIP3 H2   HT     0.417000        1.0080           0
   52912 WT3  3173 TIP3 OH2  OT    -0.834000       15.9994           0
   52913 WT3  3173 TIP3 H1   HT     0.417000        1.0080           0
   52914 WT3  3173 TIP3 H2   HT     0.417000        1.0080           0
   52915 WT3  3174 TIP3 OH2  OT    -0.834000       15.9994           0
   52916 WT3  3174 TIP3 H1   HT     0.417000        1.0080           0
   52917 WT3  3174 TIP3 H2   HT     0.417000        1.0080           0
   52918 WT3  3175 TIP3 OH2  OT    -0.834000       15.9994           0
   52919 WT3  3175 TIP3 H1   HT     0.417000        1.0080           0
   52920 WT3  3175 TIP3 H2   HT     0.417000        1.0080           0
   52921 WT3  3176 TIP3 OH2  OT    -0.834000       15.9994           0
   52922 WT3  3176 TIP3 H1   HT     0.417000        1.0080           0
   52923 WT3  3176 TIP3 H2   HT     0.417000        1.0080           0
   52924 WT3  3177 TIP3 OH2  OT    -0.834000       15.9994           0
   52925 WT3  3177 TIP3 H1   HT     0.417000        1.0080           0
   52926 WT3  3177 TIP3 H2   HT     0.417000        1.0080           0
   52927 WT3  3178 TIP3 OH2  OT    -0.834000       15.9994           0
   52928 WT3  3178 TIP3 H1   HT     0.417000        1.0080           0
   52929 WT3  3178 TIP3 H2   HT     0.417000        1.0080           0
   52930 WT3  3179 TIP3 OH2  OT    -0.834000       15.9994           0
   52931 WT3  3179 TIP3 H1   HT     0.417000        1.0080           0
   52932 WT3  3179 TIP3 H2   HT     0.417000        1.0080           0
   52933 WT3  3180 TIP3 OH2  OT    -0.834000       15.9994           0
   52934 WT3  3180 TIP3 H1   HT     0.417000        1.0080           0
   52935 WT3  3180 TIP3 H2   HT     0.417000        1.0080           0
   52936 WT3  3181 TIP3 OH2  OT    -0.834000       15.9994           0
   52937 WT3  3181 TIP3 H1   HT     0.417000        1.0080           0
   52938 WT3  3181 TIP3 H2   HT     0.417000        1.0080           0
   52939 WT3  3182 TIP3 OH2  OT    -0.834000       15.9994           0
   52940 WT3  3182 TIP3 H1   HT     0.417000        1.0080           0
   52941 WT3  3182 TIP3 H2   HT     0.417000        1.0080           0
   52942 WT3  3183 TIP3 OH2  OT    -0.834000       15.9994           0
   52943 WT3  3183 TIP3 H1   HT     0.417000        1.0080           0
   52944 WT3  3183 TIP3 H2   HT     0.417000        1.0080           0
   52945 WT3  3184 TIP3 OH2  OT    -0.834000       15.9994           0
   52946 WT3  3184 TIP3 H1   HT     0.417000        1.0080           0
   52947 WT3  3184 TIP3 H2   HT     0.417000        1.0080           0
   52948 WT3  3185 TIP3 OH2  OT    -0.834000       15.9994           0
   52949 WT3  3185 TIP3 H1   HT     0.417000        1.0080           0
   52950 WT3  3185 TIP3 H2   HT     0.417000        1.0080           0
   52951 WT3  3186 TIP3 OH2  OT    -0.834000       15.9994           0
   52952 WT3  3186 TIP3 H1   HT     0.417000        1.0080           0
   52953 WT3  3186 TIP3 H2   HT     0.417000        1.0080           0
   52954 WT3  3187 TIP3 OH2  OT    -0.834000       15.9994           0
   52955 WT3  3187 TIP3 H1   HT     0.417000        1.0080           0
   52956 WT3  3187 TIP3 H2   HT     0.417000        1.0080           0
   52957 WT3  3189 TIP3 OH2  OT    -0.834000       15.9994           0
   52958 WT3  3189 TIP3 H1   HT     0.417000        1.0080           0
   52959 WT3  3189 TIP3 H2   HT     0.417000        1.0080           0
   52960 WT3  3190 TIP3 OH2  OT    -0.834000       15.9994           0
   52961 WT3  3190 TIP3 H1   HT     0.417000        1.0080           0
   52962 WT3  3190 TIP3 H2   HT     0.417000        1.0080           0
   52963 WT3  3191 TIP3 OH2  OT    -0.834000       15.9994           0
   52964 WT3  3191 TIP3 H1   HT     0.417000        1.0080           0
   52965 WT3  3191 TIP3 H2   HT     0.417000        1.0080           0
   52966 WT3  3192 TIP3 OH2  OT    -0.834000       15.9994           0
   52967 WT3  3192 TIP3 H1   HT     0.417000        1.0080           0
   52968 WT3  3192 TIP3 H2   HT     0.417000        1.0080           0
   52969 WT3  3193 TIP3 OH2  OT    -0.834000       15.9994           0
   52970 WT3  3193 TIP3 H1   HT     0.417000        1.0080           0
   52971 WT3  3193 TIP3 H2   HT     0.417000        1.0080           0
   52972 WT3  3194 TIP3 OH2  OT    -0.834000       15.9994           0
   52973 WT3  3194 TIP3 H1   HT     0.417000        1.0080           0
   52974 WT3  3194 TIP3 H2   HT     0.417000        1.0080           0
   52975 WT3  3195 TIP3 OH2  OT    -0.834000       15.9994           0
   52976 WT3  3195 TIP3 H1   HT     0.417000        1.0080           0
   52977 WT3  3195 TIP3 H2   HT     0.417000        1.0080           0
   52978 WT3  3196 TIP3 OH2  OT    -0.834000       15.9994           0
   52979 WT3  3196 TIP3 H1   HT     0.417000        1.0080           0
   52980 WT3  3196 TIP3 H2   HT     0.417000        1.0080           0
   52981 WT3  3197 TIP3 OH2  OT    -0.834000       15.9994           0
   52982 WT3  3197 TIP3 H1   HT     0.417000        1.0080           0
   52983 WT3  3197 TIP3 H2   HT     0.417000        1.0080           0
   52984 WT3  3198 TIP3 OH2  OT    -0.834000       15.9994           0
   52985 WT3  3198 TIP3 H1   HT     0.417000        1.0080           0
   52986 WT3  3198 TIP3 H2   HT     0.417000        1.0080           0
   52987 WT3  3199 TIP3 OH2  OT    -0.834000       15.9994           0
   52988 WT3  3199 TIP3 H1   HT     0.417000        1.0080           0
   52989 WT3  3199 TIP3 H2   HT     0.417000        1.0080           0
   52990 WT3  3200 TIP3 OH2  OT    -0.834000       15.9994           0
   52991 WT3  3200 TIP3 H1   HT     0.417000        1.0080           0
   52992 WT3  3200 TIP3 H2   HT     0.417000        1.0080           0
   52993 WT3  3201 TIP3 OH2  OT    -0.834000       15.9994           0
   52994 WT3  3201 TIP3 H1   HT     0.417000        1.0080           0
   52995 WT3  3201 TIP3 H2   HT     0.417000        1.0080           0
   52996 WT3  3202 TIP3 OH2  OT    -0.834000       15.9994           0
   52997 WT3  3202 TIP3 H1   HT     0.417000        1.0080           0
   52998 WT3  3202 TIP3 H2   HT     0.417000        1.0080           0
   52999 WT3  3203 TIP3 OH2  OT    -0.834000       15.9994           0
   53000 WT3  3203 TIP3 H1   HT     0.417000        1.0080           0
   53001 WT3  3203 TIP3 H2   HT     0.417000        1.0080           0
   53002 WT3  3204 TIP3 OH2  OT    -0.834000       15.9994           0
   53003 WT3  3204 TIP3 H1   HT     0.417000        1.0080           0
   53004 WT3  3204 TIP3 H2   HT     0.417000        1.0080           0
   53005 WT3  3205 TIP3 OH2  OT    -0.834000       15.9994           0
   53006 WT3  3205 TIP3 H1   HT     0.417000        1.0080           0
   53007 WT3  3205 TIP3 H2   HT     0.417000        1.0080           0
   53008 WT3  3207 TIP3 OH2  OT    -0.834000       15.9994           0
   53009 WT3  3207 TIP3 H1   HT     0.417000        1.0080           0
   53010 WT3  3207 TIP3 H2   HT     0.417000        1.0080           0
   53011 WT3  3208 TIP3 OH2  OT    -0.834000       15.9994           0
   53012 WT3  3208 TIP3 H1   HT     0.417000        1.0080           0
   53013 WT3  3208 TIP3 H2   HT     0.417000        1.0080           0
   53014 WT3  3209 TIP3 OH2  OT    -0.834000       15.9994           0
   53015 WT3  3209 TIP3 H1   HT     0.417000        1.0080           0
   53016 WT3  3209 TIP3 H2   HT     0.417000        1.0080           0
   53017 WT3  3210 TIP3 OH2  OT    -0.834000       15.9994           0
   53018 WT3  3210 TIP3 H1   HT     0.417000        1.0080           0
   53019 WT3  3210 TIP3 H2   HT     0.417000        1.0080           0
   53020 WT3  3211 TIP3 OH2  OT    -0.834000       15.9994           0
   53021 WT3  3211 TIP3 H1   HT     0.417000        1.0080           0
   53022 WT3  3211 TIP3 H2   HT     0.417000        1.0080           0
   53023 WT3  3212 TIP3 OH2  OT    -0.834000       15.9994           0
   53024 WT3  3212 TIP3 H1   HT     0.417000        1.0080           0
   53025 WT3  3212 TIP3 H2   HT     0.417000        1.0080           0
   53026 WT3  3214 TIP3 OH2  OT    -0.834000       15.9994           0
   53027 WT3  3214 TIP3 H1   HT     0.417000        1.0080           0
   53028 WT3  3214 TIP3 H2   HT     0.417000        1.0080           0
   53029 WT3  3215 TIP3 OH2  OT    -0.834000       15.9994           0
   53030 WT3  3215 TIP3 H1   HT     0.417000        1.0080           0
   53031 WT3  3215 TIP3 H2   HT     0.417000        1.0080           0
   53032 WT3  3216 TIP3 OH2  OT    -0.834000       15.9994           0
   53033 WT3  3216 TIP3 H1   HT     0.417000        1.0080           0
   53034 WT3  3216 TIP3 H2   HT     0.417000        1.0080           0
   53035 WT3  3217 TIP3 OH2  OT    -0.834000       15.9994           0
   53036 WT3  3217 TIP3 H1   HT     0.417000        1.0080           0
   53037 WT3  3217 TIP3 H2   HT     0.417000        1.0080           0
   53038 WT3  3218 TIP3 OH2  OT    -0.834000       15.9994           0
   53039 WT3  3218 TIP3 H1   HT     0.417000        1.0080           0
   53040 WT3  3218 TIP3 H2   HT     0.417000        1.0080           0
   53041 WT3  3219 TIP3 OH2  OT    -0.834000       15.9994           0
   53042 WT3  3219 TIP3 H1   HT     0.417000        1.0080           0
   53043 WT3  3219 TIP3 H2   HT     0.417000        1.0080           0
   53044 WT3  3220 TIP3 OH2  OT    -0.834000       15.9994           0
   53045 WT3  3220 TIP3 H1   HT     0.417000        1.0080           0
   53046 WT3  3220 TIP3 H2   HT     0.417000        1.0080           0
   53047 WT3  3221 TIP3 OH2  OT    -0.834000       15.9994           0
   53048 WT3  3221 TIP3 H1   HT     0.417000        1.0080           0
   53049 WT3  3221 TIP3 H2   HT     0.417000        1.0080           0
   53050 WT3  3222 TIP3 OH2  OT    -0.834000       15.9994           0
   53051 WT3  3222 TIP3 H1   HT     0.417000        1.0080           0
   53052 WT3  3222 TIP3 H2   HT     0.417000        1.0080           0
   53053 WT3  3223 TIP3 OH2  OT    -0.834000       15.9994           0
   53054 WT3  3223 TIP3 H1   HT     0.417000        1.0080           0
   53055 WT3  3223 TIP3 H2   HT     0.417000        1.0080           0
   53056 WT3  3224 TIP3 OH2  OT    -0.834000       15.9994           0
   53057 WT3  3224 TIP3 H1   HT     0.417000        1.0080           0
   53058 WT3  3224 TIP3 H2   HT     0.417000        1.0080           0
   53059 WT3  3225 TIP3 OH2  OT    -0.834000       15.9994           0
   53060 WT3  3225 TIP3 H1   HT     0.417000        1.0080           0
   53061 WT3  3225 TIP3 H2   HT     0.417000        1.0080           0
   53062 WT3  3226 TIP3 OH2  OT    -0.834000       15.9994           0
   53063 WT3  3226 TIP3 H1   HT     0.417000        1.0080           0
   53064 WT3  3226 TIP3 H2   HT     0.417000        1.0080           0
   53065 WT3  3227 TIP3 OH2  OT    -0.834000       15.9994           0
   53066 WT3  3227 TIP3 H1   HT     0.417000        1.0080           0
   53067 WT3  3227 TIP3 H2   HT     0.417000        1.0080           0
   53068 WT3  3228 TIP3 OH2  OT    -0.834000       15.9994           0
   53069 WT3  3228 TIP3 H1   HT     0.417000        1.0080           0
   53070 WT3  3228 TIP3 H2   HT     0.417000        1.0080           0
   53071 WT3  3229 TIP3 OH2  OT    -0.834000       15.9994           0
   53072 WT3  3229 TIP3 H1   HT     0.417000        1.0080           0
   53073 WT3  3229 TIP3 H2   HT     0.417000        1.0080           0
   53074 WT3  3232 TIP3 OH2  OT    -0.834000       15.9994           0
   53075 WT3  3232 TIP3 H1   HT     0.417000        1.0080           0
   53076 WT3  3232 TIP3 H2   HT     0.417000        1.0080           0
   53077 WT3  3233 TIP3 OH2  OT    -0.834000       15.9994           0
   53078 WT3  3233 TIP3 H1   HT     0.417000        1.0080           0
   53079 WT3  3233 TIP3 H2   HT     0.417000        1.0080           0
   53080 WT3  3234 TIP3 OH2  OT    -0.834000       15.9994           0
   53081 WT3  3234 TIP3 H1   HT     0.417000        1.0080           0
   53082 WT3  3234 TIP3 H2   HT     0.417000        1.0080           0
   53083 WT3  3235 TIP3 OH2  OT    -0.834000       15.9994           0
   53084 WT3  3235 TIP3 H1   HT     0.417000        1.0080           0
   53085 WT3  3235 TIP3 H2   HT     0.417000        1.0080           0
   53086 WT3  3236 TIP3 OH2  OT    -0.834000       15.9994           0
   53087 WT3  3236 TIP3 H1   HT     0.417000        1.0080           0
   53088 WT3  3236 TIP3 H2   HT     0.417000        1.0080           0
   53089 WT3  3237 TIP3 OH2  OT    -0.834000       15.9994           0
   53090 WT3  3237 TIP3 H1   HT     0.417000        1.0080           0
   53091 WT3  3237 TIP3 H2   HT     0.417000        1.0080           0
   53092 WT3  3238 TIP3 OH2  OT    -0.834000       15.9994           0
   53093 WT3  3238 TIP3 H1   HT     0.417000        1.0080           0
   53094 WT3  3238 TIP3 H2   HT     0.417000        1.0080           0
   53095 WT3  3239 TIP3 OH2  OT    -0.834000       15.9994           0
   53096 WT3  3239 TIP3 H1   HT     0.417000        1.0080           0
   53097 WT3  3239 TIP3 H2   HT     0.417000        1.0080           0
   53098 WT3  3240 TIP3 OH2  OT    -0.834000       15.9994           0
   53099 WT3  3240 TIP3 H1   HT     0.417000        1.0080           0
   53100 WT3  3240 TIP3 H2   HT     0.417000        1.0080           0
   53101 WT3  3241 TIP3 OH2  OT    -0.834000       15.9994           0
   53102 WT3  3241 TIP3 H1   HT     0.417000        1.0080           0
   53103 WT3  3241 TIP3 H2   HT     0.417000        1.0080           0
   53104 WT3  3242 TIP3 OH2  OT    -0.834000       15.9994           0
   53105 WT3  3242 TIP3 H1   HT     0.417000        1.0080           0
   53106 WT3  3242 TIP3 H2   HT     0.417000        1.0080           0
   53107 WT3  3243 TIP3 OH2  OT    -0.834000       15.9994           0
   53108 WT3  3243 TIP3 H1   HT     0.417000        1.0080           0
   53109 WT3  3243 TIP3 H2   HT     0.417000        1.0080           0
   53110 WT3  3244 TIP3 OH2  OT    -0.834000       15.9994           0
   53111 WT3  3244 TIP3 H1   HT     0.417000        1.0080           0
   53112 WT3  3244 TIP3 H2   HT     0.417000        1.0080           0
   53113 WT3  3245 TIP3 OH2  OT    -0.834000       15.9994           0
   53114 WT3  3245 TIP3 H1   HT     0.417000        1.0080           0
   53115 WT3  3245 TIP3 H2   HT     0.417000        1.0080           0
   53116 WT3  3246 TIP3 OH2  OT    -0.834000       15.9994           0
   53117 WT3  3246 TIP3 H1   HT     0.417000        1.0080           0
   53118 WT3  3246 TIP3 H2   HT     0.417000        1.0080           0
   53119 WT3  3247 TIP3 OH2  OT    -0.834000       15.9994           0
   53120 WT3  3247 TIP3 H1   HT     0.417000        1.0080           0
   53121 WT3  3247 TIP3 H2   HT     0.417000        1.0080           0
   53122 WT3  3248 TIP3 OH2  OT    -0.834000       15.9994           0
   53123 WT3  3248 TIP3 H1   HT     0.417000        1.0080           0
   53124 WT3  3248 TIP3 H2   HT     0.417000        1.0080           0
   53125 WT3  3249 TIP3 OH2  OT    -0.834000       15.9994           0
   53126 WT3  3249 TIP3 H1   HT     0.417000        1.0080           0
   53127 WT3  3249 TIP3 H2   HT     0.417000        1.0080           0
   53128 WT3  3250 TIP3 OH2  OT    -0.834000       15.9994           0
   53129 WT3  3250 TIP3 H1   HT     0.417000        1.0080           0
   53130 WT3  3250 TIP3 H2   HT     0.417000        1.0080           0
   53131 WT3  3251 TIP3 OH2  OT    -0.834000       15.9994           0
   53132 WT3  3251 TIP3 H1   HT     0.417000        1.0080           0
   53133 WT3  3251 TIP3 H2   HT     0.417000        1.0080           0
   53134 WT3  3252 TIP3 OH2  OT    -0.834000       15.9994           0
   53135 WT3  3252 TIP3 H1   HT     0.417000        1.0080           0
   53136 WT3  3252 TIP3 H2   HT     0.417000        1.0080           0
   53137 WT3  3253 TIP3 OH2  OT    -0.834000       15.9994           0
   53138 WT3  3253 TIP3 H1   HT     0.417000        1.0080           0
   53139 WT3  3253 TIP3 H2   HT     0.417000        1.0080           0
   53140 WT3  3254 TIP3 OH2  OT    -0.834000       15.9994           0
   53141 WT3  3254 TIP3 H1   HT     0.417000        1.0080           0
   53142 WT3  3254 TIP3 H2   HT     0.417000        1.0080           0
   53143 WT3  3257 TIP3 OH2  OT    -0.834000       15.9994           0
   53144 WT3  3257 TIP3 H1   HT     0.417000        1.0080           0
   53145 WT3  3257 TIP3 H2   HT     0.417000        1.0080           0
   53146 WT3  3258 TIP3 OH2  OT    -0.834000       15.9994           0
   53147 WT3  3258 TIP3 H1   HT     0.417000        1.0080           0
   53148 WT3  3258 TIP3 H2   HT     0.417000        1.0080           0
   53149 WT3  3259 TIP3 OH2  OT    -0.834000       15.9994           0
   53150 WT3  3259 TIP3 H1   HT     0.417000        1.0080           0
   53151 WT3  3259 TIP3 H2   HT     0.417000        1.0080           0
   53152 WT3  3260 TIP3 OH2  OT    -0.834000       15.9994           0
   53153 WT3  3260 TIP3 H1   HT     0.417000        1.0080           0
   53154 WT3  3260 TIP3 H2   HT     0.417000        1.0080           0
   53155 WT3  3261 TIP3 OH2  OT    -0.834000       15.9994           0
   53156 WT3  3261 TIP3 H1   HT     0.417000        1.0080           0
   53157 WT3  3261 TIP3 H2   HT     0.417000        1.0080           0
   53158 WT3  3262 TIP3 OH2  OT    -0.834000       15.9994           0
   53159 WT3  3262 TIP3 H1   HT     0.417000        1.0080           0
   53160 WT3  3262 TIP3 H2   HT     0.417000        1.0080           0
   53161 WT3  3263 TIP3 OH2  OT    -0.834000       15.9994           0
   53162 WT3  3263 TIP3 H1   HT     0.417000        1.0080           0
   53163 WT3  3263 TIP3 H2   HT     0.417000        1.0080           0
   53164 WT3  3264 TIP3 OH2  OT    -0.834000       15.9994           0
   53165 WT3  3264 TIP3 H1   HT     0.417000        1.0080           0
   53166 WT3  3264 TIP3 H2   HT     0.417000        1.0080           0
   53167 WT3  3265 TIP3 OH2  OT    -0.834000       15.9994           0
   53168 WT3  3265 TIP3 H1   HT     0.417000        1.0080           0
   53169 WT3  3265 TIP3 H2   HT     0.417000        1.0080           0
   53170 WT3  3266 TIP3 OH2  OT    -0.834000       15.9994           0
   53171 WT3  3266 TIP3 H1   HT     0.417000        1.0080           0
   53172 WT3  3266 TIP3 H2   HT     0.417000        1.0080           0
   53173 WT3  3267 TIP3 OH2  OT    -0.834000       15.9994           0
   53174 WT3  3267 TIP3 H1   HT     0.417000        1.0080           0
   53175 WT3  3267 TIP3 H2   HT     0.417000        1.0080           0
   53176 WT3  3268 TIP3 OH2  OT    -0.834000       15.9994           0
   53177 WT3  3268 TIP3 H1   HT     0.417000        1.0080           0
   53178 WT3  3268 TIP3 H2   HT     0.417000        1.0080           0
   53179 WT3  3269 TIP3 OH2  OT    -0.834000       15.9994           0
   53180 WT3  3269 TIP3 H1   HT     0.417000        1.0080           0
   53181 WT3  3269 TIP3 H2   HT     0.417000        1.0080           0
   53182 WT3  3270 TIP3 OH2  OT    -0.834000       15.9994           0
   53183 WT3  3270 TIP3 H1   HT     0.417000        1.0080           0
   53184 WT3  3270 TIP3 H2   HT     0.417000        1.0080           0
   53185 WT3  3271 TIP3 OH2  OT    -0.834000       15.9994           0
   53186 WT3  3271 TIP3 H1   HT     0.417000        1.0080           0
   53187 WT3  3271 TIP3 H2   HT     0.417000        1.0080           0
   53188 WT3  3272 TIP3 OH2  OT    -0.834000       15.9994           0
   53189 WT3  3272 TIP3 H1   HT     0.417000        1.0080           0
   53190 WT3  3272 TIP3 H2   HT     0.417000        1.0080           0
   53191 WT3  3273 TIP3 OH2  OT    -0.834000       15.9994           0
   53192 WT3  3273 TIP3 H1   HT     0.417000        1.0080           0
   53193 WT3  3273 TIP3 H2   HT     0.417000        1.0080           0
   53194 WT3  3274 TIP3 OH2  OT    -0.834000       15.9994           0
   53195 WT3  3274 TIP3 H1   HT     0.417000        1.0080           0
   53196 WT3  3274 TIP3 H2   HT     0.417000        1.0080           0
   53197 WT3  3276 TIP3 OH2  OT    -0.834000       15.9994           0
   53198 WT3  3276 TIP3 H1   HT     0.417000        1.0080           0
   53199 WT3  3276 TIP3 H2   HT     0.417000        1.0080           0
   53200 WT3  3277 TIP3 OH2  OT    -0.834000       15.9994           0
   53201 WT3  3277 TIP3 H1   HT     0.417000        1.0080           0
   53202 WT3  3277 TIP3 H2   HT     0.417000        1.0080           0
   53203 WT3  3278 TIP3 OH2  OT    -0.834000       15.9994           0
   53204 WT3  3278 TIP3 H1   HT     0.417000        1.0080           0
   53205 WT3  3278 TIP3 H2   HT     0.417000        1.0080           0
   53206 WT3  3280 TIP3 OH2  OT    -0.834000       15.9994           0
   53207 WT3  3280 TIP3 H1   HT     0.417000        1.0080           0
   53208 WT3  3280 TIP3 H2   HT     0.417000        1.0080           0
   53209 WT3  3281 TIP3 OH2  OT    -0.834000       15.9994           0
   53210 WT3  3281 TIP3 H1   HT     0.417000        1.0080           0
   53211 WT3  3281 TIP3 H2   HT     0.417000        1.0080           0
   53212 WT3  3282 TIP3 OH2  OT    -0.834000       15.9994           0
   53213 WT3  3282 TIP3 H1   HT     0.417000        1.0080           0
   53214 WT3  3282 TIP3 H2   HT     0.417000        1.0080           0
   53215 WT3  3283 TIP3 OH2  OT    -0.834000       15.9994           0
   53216 WT3  3283 TIP3 H1   HT     0.417000        1.0080           0
   53217 WT3  3283 TIP3 H2   HT     0.417000        1.0080           0
   53218 WT3  3284 TIP3 OH2  OT    -0.834000       15.9994           0
   53219 WT3  3284 TIP3 H1   HT     0.417000        1.0080           0
   53220 WT3  3284 TIP3 H2   HT     0.417000        1.0080           0
   53221 WT3  3285 TIP3 OH2  OT    -0.834000       15.9994           0
   53222 WT3  3285 TIP3 H1   HT     0.417000        1.0080           0
   53223 WT3  3285 TIP3 H2   HT     0.417000        1.0080           0
   53224 WT3  3286 TIP3 OH2  OT    -0.834000       15.9994           0
   53225 WT3  3286 TIP3 H1   HT     0.417000        1.0080           0
   53226 WT3  3286 TIP3 H2   HT     0.417000        1.0080           0
   53227 WT3  3287 TIP3 OH2  OT    -0.834000       15.9994           0
   53228 WT3  3287 TIP3 H1   HT     0.417000        1.0080           0
   53229 WT3  3287 TIP3 H2   HT     0.417000        1.0080           0
   53230 WT3  3288 TIP3 OH2  OT    -0.834000       15.9994           0
   53231 WT3  3288 TIP3 H1   HT     0.417000        1.0080           0
   53232 WT3  3288 TIP3 H2   HT     0.417000        1.0080           0
   53233 WT3  3290 TIP3 OH2  OT    -0.834000       15.9994           0
   53234 WT3  3290 TIP3 H1   HT     0.417000        1.0080           0
   53235 WT3  3290 TIP3 H2   HT     0.417000        1.0080           0
   53236 WT3  3291 TIP3 OH2  OT    -0.834000       15.9994           0
   53237 WT3  3291 TIP3 H1   HT     0.417000        1.0080           0
   53238 WT3  3291 TIP3 H2   HT     0.417000        1.0080           0
   53239 WT3  3292 TIP3 OH2  OT    -0.834000       15.9994           0
   53240 WT3  3292 TIP3 H1   HT     0.417000        1.0080           0
   53241 WT3  3292 TIP3 H2   HT     0.417000        1.0080           0
   53242 WT3  3293 TIP3 OH2  OT    -0.834000       15.9994           0
   53243 WT3  3293 TIP3 H1   HT     0.417000        1.0080           0
   53244 WT3  3293 TIP3 H2   HT     0.417000        1.0080           0
   53245 WT3  3294 TIP3 OH2  OT    -0.834000       15.9994           0
   53246 WT3  3294 TIP3 H1   HT     0.417000        1.0080           0
   53247 WT3  3294 TIP3 H2   HT     0.417000        1.0080           0
   53248 WT3  3295 TIP3 OH2  OT    -0.834000       15.9994           0
   53249 WT3  3295 TIP3 H1   HT     0.417000        1.0080           0
   53250 WT3  3295 TIP3 H2   HT     0.417000        1.0080           0
   53251 WT3  3296 TIP3 OH2  OT    -0.834000       15.9994           0
   53252 WT3  3296 TIP3 H1   HT     0.417000        1.0080           0
   53253 WT3  3296 TIP3 H2   HT     0.417000        1.0080           0
   53254 WT3  3297 TIP3 OH2  OT    -0.834000       15.9994           0
   53255 WT3  3297 TIP3 H1   HT     0.417000        1.0080           0
   53256 WT3  3297 TIP3 H2   HT     0.417000        1.0080           0
   53257 WT3  3298 TIP3 OH2  OT    -0.834000       15.9994           0
   53258 WT3  3298 TIP3 H1   HT     0.417000        1.0080           0
   53259 WT3  3298 TIP3 H2   HT     0.417000        1.0080           0
   53260 WT3  3299 TIP3 OH2  OT    -0.834000       15.9994           0
   53261 WT3  3299 TIP3 H1   HT     0.417000        1.0080           0
   53262 WT3  3299 TIP3 H2   HT     0.417000        1.0080           0
   53263 WT3  3300 TIP3 OH2  OT    -0.834000       15.9994           0
   53264 WT3  3300 TIP3 H1   HT     0.417000        1.0080           0
   53265 WT3  3300 TIP3 H2   HT     0.417000        1.0080           0
   53266 WT3  3301 TIP3 OH2  OT    -0.834000       15.9994           0
   53267 WT3  3301 TIP3 H1   HT     0.417000        1.0080           0
   53268 WT3  3301 TIP3 H2   HT     0.417000        1.0080           0
   53269 WT3  3302 TIP3 OH2  OT    -0.834000       15.9994           0
   53270 WT3  3302 TIP3 H1   HT     0.417000        1.0080           0
   53271 WT3  3302 TIP3 H2   HT     0.417000        1.0080           0
   53272 WT3  3303 TIP3 OH2  OT    -0.834000       15.9994           0
   53273 WT3  3303 TIP3 H1   HT     0.417000        1.0080           0
   53274 WT3  3303 TIP3 H2   HT     0.417000        1.0080           0
   53275 WT3  3304 TIP3 OH2  OT    -0.834000       15.9994           0
   53276 WT3  3304 TIP3 H1   HT     0.417000        1.0080           0
   53277 WT3  3304 TIP3 H2   HT     0.417000        1.0080           0
   53278 WT3  3306 TIP3 OH2  OT    -0.834000       15.9994           0
   53279 WT3  3306 TIP3 H1   HT     0.417000        1.0080           0
   53280 WT3  3306 TIP3 H2   HT     0.417000        1.0080           0
   53281 WT3  3307 TIP3 OH2  OT    -0.834000       15.9994           0
   53282 WT3  3307 TIP3 H1   HT     0.417000        1.0080           0
   53283 WT3  3307 TIP3 H2   HT     0.417000        1.0080           0
   53284 WT3  3308 TIP3 OH2  OT    -0.834000       15.9994           0
   53285 WT3  3308 TIP3 H1   HT     0.417000        1.0080           0
   53286 WT3  3308 TIP3 H2   HT     0.417000        1.0080           0
   53287 WT3  3309 TIP3 OH2  OT    -0.834000       15.9994           0
   53288 WT3  3309 TIP3 H1   HT     0.417000        1.0080           0
   53289 WT3  3309 TIP3 H2   HT     0.417000        1.0080           0
   53290 WT3  3310 TIP3 OH2  OT    -0.834000       15.9994           0
   53291 WT3  3310 TIP3 H1   HT     0.417000        1.0080           0
   53292 WT3  3310 TIP3 H2   HT     0.417000        1.0080           0
   53293 WT3  3312 TIP3 OH2  OT    -0.834000       15.9994           0
   53294 WT3  3312 TIP3 H1   HT     0.417000        1.0080           0
   53295 WT3  3312 TIP3 H2   HT     0.417000        1.0080           0
   53296 WT3  3314 TIP3 OH2  OT    -0.834000       15.9994           0
   53297 WT3  3314 TIP3 H1   HT     0.417000        1.0080           0
   53298 WT3  3314 TIP3 H2   HT     0.417000        1.0080           0
   53299 WT3  3315 TIP3 OH2  OT    -0.834000       15.9994           0
   53300 WT3  3315 TIP3 H1   HT     0.417000        1.0080           0
   53301 WT3  3315 TIP3 H2   HT     0.417000        1.0080           0
   53302 WT3  3316 TIP3 OH2  OT    -0.834000       15.9994           0
   53303 WT3  3316 TIP3 H1   HT     0.417000        1.0080           0
   53304 WT3  3316 TIP3 H2   HT     0.417000        1.0080           0
   53305 WT3  3317 TIP3 OH2  OT    -0.834000       15.9994           0
   53306 WT3  3317 TIP3 H1   HT     0.417000        1.0080           0
   53307 WT3  3317 TIP3 H2   HT     0.417000        1.0080           0
   53308 WT3  3319 TIP3 OH2  OT    -0.834000       15.9994           0
   53309 WT3  3319 TIP3 H1   HT     0.417000        1.0080           0
   53310 WT3  3319 TIP3 H2   HT     0.417000        1.0080           0
   53311 WT3  3321 TIP3 OH2  OT    -0.834000       15.9994           0
   53312 WT3  3321 TIP3 H1   HT     0.417000        1.0080           0
   53313 WT3  3321 TIP3 H2   HT     0.417000        1.0080           0
   53314 WT3  3322 TIP3 OH2  OT    -0.834000       15.9994           0
   53315 WT3  3322 TIP3 H1   HT     0.417000        1.0080           0
   53316 WT3  3322 TIP3 H2   HT     0.417000        1.0080           0
   53317 WT3  3323 TIP3 OH2  OT    -0.834000       15.9994           0
   53318 WT3  3323 TIP3 H1   HT     0.417000        1.0080           0
   53319 WT3  3323 TIP3 H2   HT     0.417000        1.0080           0
   53320 WT3  3324 TIP3 OH2  OT    -0.834000       15.9994           0
   53321 WT3  3324 TIP3 H1   HT     0.417000        1.0080           0
   53322 WT3  3324 TIP3 H2   HT     0.417000        1.0080           0
   53323 WT3  3325 TIP3 OH2  OT    -0.834000       15.9994           0
   53324 WT3  3325 TIP3 H1   HT     0.417000        1.0080           0
   53325 WT3  3325 TIP3 H2   HT     0.417000        1.0080           0
   53326 WT3  3326 TIP3 OH2  OT    -0.834000       15.9994           0
   53327 WT3  3326 TIP3 H1   HT     0.417000        1.0080           0
   53328 WT3  3326 TIP3 H2   HT     0.417000        1.0080           0
   53329 WT3  3327 TIP3 OH2  OT    -0.834000       15.9994           0
   53330 WT3  3327 TIP3 H1   HT     0.417000        1.0080           0
   53331 WT3  3327 TIP3 H2   HT     0.417000        1.0080           0
   53332 WT3  3329 TIP3 OH2  OT    -0.834000       15.9994           0
   53333 WT3  3329 TIP3 H1   HT     0.417000        1.0080           0
   53334 WT3  3329 TIP3 H2   HT     0.417000        1.0080           0
   53335 WT3  3330 TIP3 OH2  OT    -0.834000       15.9994           0
   53336 WT3  3330 TIP3 H1   HT     0.417000        1.0080           0
   53337 WT3  3330 TIP3 H2   HT     0.417000        1.0080           0
   53338 WT3  3331 TIP3 OH2  OT    -0.834000       15.9994           0
   53339 WT3  3331 TIP3 H1   HT     0.417000        1.0080           0
   53340 WT3  3331 TIP3 H2   HT     0.417000        1.0080           0
   53341 WT3  3332 TIP3 OH2  OT    -0.834000       15.9994           0
   53342 WT3  3332 TIP3 H1   HT     0.417000        1.0080           0
   53343 WT3  3332 TIP3 H2   HT     0.417000        1.0080           0
   53344 WT3  3333 TIP3 OH2  OT    -0.834000       15.9994           0
   53345 WT3  3333 TIP3 H1   HT     0.417000        1.0080           0
   53346 WT3  3333 TIP3 H2   HT     0.417000        1.0080           0
   53347 WT3  3334 TIP3 OH2  OT    -0.834000       15.9994           0
   53348 WT3  3334 TIP3 H1   HT     0.417000        1.0080           0
   53349 WT3  3334 TIP3 H2   HT     0.417000        1.0080           0
   53350 WT3  3335 TIP3 OH2  OT    -0.834000       15.9994           0
   53351 WT3  3335 TIP3 H1   HT     0.417000        1.0080           0
   53352 WT3  3335 TIP3 H2   HT     0.417000        1.0080           0
   53353 WT3  3336 TIP3 OH2  OT    -0.834000       15.9994           0
   53354 WT3  3336 TIP3 H1   HT     0.417000        1.0080           0
   53355 WT3  3336 TIP3 H2   HT     0.417000        1.0080           0
   53356 WT3  3339 TIP3 OH2  OT    -0.834000       15.9994           0
   53357 WT3  3339 TIP3 H1   HT     0.417000        1.0080           0
   53358 WT3  3339 TIP3 H2   HT     0.417000        1.0080           0
   53359 WT3  3341 TIP3 OH2  OT    -0.834000       15.9994           0
   53360 WT3  3341 TIP3 H1   HT     0.417000        1.0080           0
   53361 WT3  3341 TIP3 H2   HT     0.417000        1.0080           0
   53362 WT3  3342 TIP3 OH2  OT    -0.834000       15.9994           0
   53363 WT3  3342 TIP3 H1   HT     0.417000        1.0080           0
   53364 WT3  3342 TIP3 H2   HT     0.417000        1.0080           0
   53365 WT3  3344 TIP3 OH2  OT    -0.834000       15.9994           0
   53366 WT3  3344 TIP3 H1   HT     0.417000        1.0080           0
   53367 WT3  3344 TIP3 H2   HT     0.417000        1.0080           0
   53368 WT3  3345 TIP3 OH2  OT    -0.834000       15.9994           0
   53369 WT3  3345 TIP3 H1   HT     0.417000        1.0080           0
   53370 WT3  3345 TIP3 H2   HT     0.417000        1.0080           0
   53371 WT3  3346 TIP3 OH2  OT    -0.834000       15.9994           0
   53372 WT3  3346 TIP3 H1   HT     0.417000        1.0080           0
   53373 WT3  3346 TIP3 H2   HT     0.417000        1.0080           0
   53374 WT3  3347 TIP3 OH2  OT    -0.834000       15.9994           0
   53375 WT3  3347 TIP3 H1   HT     0.417000        1.0080           0
   53376 WT3  3347 TIP3 H2   HT     0.417000        1.0080           0
   53377 WT3  3348 TIP3 OH2  OT    -0.834000       15.9994           0
   53378 WT3  3348 TIP3 H1   HT     0.417000        1.0080           0
   53379 WT3  3348 TIP3 H2   HT     0.417000        1.0080           0
   53380 WT3  3349 TIP3 OH2  OT    -0.834000       15.9994           0
   53381 WT3  3349 TIP3 H1   HT     0.417000        1.0080           0
   53382 WT3  3349 TIP3 H2   HT     0.417000        1.0080           0
   53383 WT3  3350 TIP3 OH2  OT    -0.834000       15.9994           0
   53384 WT3  3350 TIP3 H1   HT     0.417000        1.0080           0
   53385 WT3  3350 TIP3 H2   HT     0.417000        1.0080           0
   53386 WT3  3352 TIP3 OH2  OT    -0.834000       15.9994           0
   53387 WT3  3352 TIP3 H1   HT     0.417000        1.0080           0
   53388 WT3  3352 TIP3 H2   HT     0.417000        1.0080           0
   53389 WT3  3353 TIP3 OH2  OT    -0.834000       15.9994           0
   53390 WT3  3353 TIP3 H1   HT     0.417000        1.0080           0
   53391 WT3  3353 TIP3 H2   HT     0.417000        1.0080           0
   53392 WT3  3354 TIP3 OH2  OT    -0.834000       15.9994           0
   53393 WT3  3354 TIP3 H1   HT     0.417000        1.0080           0
   53394 WT3  3354 TIP3 H2   HT     0.417000        1.0080           0
   53395 WT3  3355 TIP3 OH2  OT    -0.834000       15.9994           0
   53396 WT3  3355 TIP3 H1   HT     0.417000        1.0080           0
   53397 WT3  3355 TIP3 H2   HT     0.417000        1.0080           0
   53398 WT3  3356 TIP3 OH2  OT    -0.834000       15.9994           0
   53399 WT3  3356 TIP3 H1   HT     0.417000        1.0080           0
   53400 WT3  3356 TIP3 H2   HT     0.417000        1.0080           0
   53401 WT3  3358 TIP3 OH2  OT    -0.834000       15.9994           0
   53402 WT3  3358 TIP3 H1   HT     0.417000        1.0080           0
   53403 WT3  3358 TIP3 H2   HT     0.417000        1.0080           0
   53404 WT3  3359 TIP3 OH2  OT    -0.834000       15.9994           0
   53405 WT3  3359 TIP3 H1   HT     0.417000        1.0080           0
   53406 WT3  3359 TIP3 H2   HT     0.417000        1.0080           0
   53407 WT3  3360 TIP3 OH2  OT    -0.834000       15.9994           0
   53408 WT3  3360 TIP3 H1   HT     0.417000        1.0080           0
   53409 WT3  3360 TIP3 H2   HT     0.417000        1.0080           0
   53410 WT3  3361 TIP3 OH2  OT    -0.834000       15.9994           0
   53411 WT3  3361 TIP3 H1   HT     0.417000        1.0080           0
   53412 WT3  3361 TIP3 H2   HT     0.417000        1.0080           0
   53413 WT3  3362 TIP3 OH2  OT    -0.834000       15.9994           0
   53414 WT3  3362 TIP3 H1   HT     0.417000        1.0080           0
   53415 WT3  3362 TIP3 H2   HT     0.417000        1.0080           0
   53416 WT3  3364 TIP3 OH2  OT    -0.834000       15.9994           0
   53417 WT3  3364 TIP3 H1   HT     0.417000        1.0080           0
   53418 WT3  3364 TIP3 H2   HT     0.417000        1.0080           0
   53419 WT3  3365 TIP3 OH2  OT    -0.834000       15.9994           0
   53420 WT3  3365 TIP3 H1   HT     0.417000        1.0080           0
   53421 WT3  3365 TIP3 H2   HT     0.417000        1.0080           0
   53422 WT3  3366 TIP3 OH2  OT    -0.834000       15.9994           0
   53423 WT3  3366 TIP3 H1   HT     0.417000        1.0080           0
   53424 WT3  3366 TIP3 H2   HT     0.417000        1.0080           0
   53425 WT3  3367 TIP3 OH2  OT    -0.834000       15.9994           0
   53426 WT3  3367 TIP3 H1   HT     0.417000        1.0080           0
   53427 WT3  3367 TIP3 H2   HT     0.417000        1.0080           0
   53428 WT3  3369 TIP3 OH2  OT    -0.834000       15.9994           0
   53429 WT3  3369 TIP3 H1   HT     0.417000        1.0080           0
   53430 WT3  3369 TIP3 H2   HT     0.417000        1.0080           0
   53431 WT3  3371 TIP3 OH2  OT    -0.834000       15.9994           0
   53432 WT3  3371 TIP3 H1   HT     0.417000        1.0080           0
   53433 WT3  3371 TIP3 H2   HT     0.417000        1.0080           0
   53434 WT3  3373 TIP3 OH2  OT    -0.834000       15.9994           0
   53435 WT3  3373 TIP3 H1   HT     0.417000        1.0080           0
   53436 WT3  3373 TIP3 H2   HT     0.417000        1.0080           0
   53437 WT3  3381 TIP3 OH2  OT    -0.834000       15.9994           0
   53438 WT3  3381 TIP3 H1   HT     0.417000        1.0080           0
   53439 WT3  3381 TIP3 H2   HT     0.417000        1.0080           0
   53440 WT3  3382 TIP3 OH2  OT    -0.834000       15.9994           0
   53441 WT3  3382 TIP3 H1   HT     0.417000        1.0080           0
   53442 WT3  3382 TIP3 H2   HT     0.417000        1.0080           0
   53443 WT3  3385 TIP3 OH2  OT    -0.834000       15.9994           0
   53444 WT3  3385 TIP3 H1   HT     0.417000        1.0080           0
   53445 WT3  3385 TIP3 H2   HT     0.417000        1.0080           0
   53446 WT3  3386 TIP3 OH2  OT    -0.834000       15.9994           0
   53447 WT3  3386 TIP3 H1   HT     0.417000        1.0080           0
   53448 WT3  3386 TIP3 H2   HT     0.417000        1.0080           0
   53449 WT3  3387 TIP3 OH2  OT    -0.834000       15.9994           0
   53450 WT3  3387 TIP3 H1   HT     0.417000        1.0080           0
   53451 WT3  3387 TIP3 H2   HT     0.417000        1.0080           0
   53452 WT3  3390 TIP3 OH2  OT    -0.834000       15.9994           0
   53453 WT3  3390 TIP3 H1   HT     0.417000        1.0080           0
   53454 WT3  3390 TIP3 H2   HT     0.417000        1.0080           0
   53455 WT3  3401 TIP3 OH2  OT    -0.834000       15.9994           0
   53456 WT3  3401 TIP3 H1   HT     0.417000        1.0080           0
   53457 WT3  3401 TIP3 H2   HT     0.417000        1.0080           0
   53458 WT3  3402 TIP3 OH2  OT    -0.834000       15.9994           0
   53459 WT3  3402 TIP3 H1   HT     0.417000        1.0080           0
   53460 WT3  3402 TIP3 H2   HT     0.417000        1.0080           0
   53461 WT3  3406 TIP3 OH2  OT    -0.834000       15.9994           0
   53462 WT3  3406 TIP3 H1   HT     0.417000        1.0080           0
   53463 WT3  3406 TIP3 H2   HT     0.417000        1.0080           0
   53464 WT3  3407 TIP3 OH2  OT    -0.834000       15.9994           0
   53465 WT3  3407 TIP3 H1   HT     0.417000        1.0080           0
   53466 WT3  3407 TIP3 H2   HT     0.417000        1.0080           0
   53467 WT3  3408 TIP3 OH2  OT    -0.834000       15.9994           0
   53468 WT3  3408 TIP3 H1   HT     0.417000        1.0080           0
   53469 WT3  3408 TIP3 H2   HT     0.417000        1.0080           0
   53470 WT3  3413 TIP3 OH2  OT    -0.834000       15.9994           0
   53471 WT3  3413 TIP3 H1   HT     0.417000        1.0080           0
   53472 WT3  3413 TIP3 H2   HT     0.417000        1.0080           0
   53473 WT3  3415 TIP3 OH2  OT    -0.834000       15.9994           0
   53474 WT3  3415 TIP3 H1   HT     0.417000        1.0080           0
   53475 WT3  3415 TIP3 H2   HT     0.417000        1.0080           0
   53476 WT3  3418 TIP3 OH2  OT    -0.834000       15.9994           0
   53477 WT3  3418 TIP3 H1   HT     0.417000        1.0080           0
   53478 WT3  3418 TIP3 H2   HT     0.417000        1.0080           0
   53479 WT3  3426 TIP3 OH2  OT    -0.834000       15.9994           0
   53480 WT3  3426 TIP3 H1   HT     0.417000        1.0080           0
   53481 WT3  3426 TIP3 H2   HT     0.417000        1.0080           0
   53482 WT3  3427 TIP3 OH2  OT    -0.834000       15.9994           0
   53483 WT3  3427 TIP3 H1   HT     0.417000        1.0080           0
   53484 WT3  3427 TIP3 H2   HT     0.417000        1.0080           0
   53485 WT3  3429 TIP3 OH2  OT    -0.834000       15.9994           0
   53486 WT3  3429 TIP3 H1   HT     0.417000        1.0080           0
   53487 WT3  3429 TIP3 H2   HT     0.417000        1.0080           0
   53488 WT3  3430 TIP3 OH2  OT    -0.834000       15.9994           0
   53489 WT3  3430 TIP3 H1   HT     0.417000        1.0080           0
   53490 WT3  3430 TIP3 H2   HT     0.417000        1.0080           0
   53491 WT3  3434 TIP3 OH2  OT    -0.834000       15.9994           0
   53492 WT3  3434 TIP3 H1   HT     0.417000        1.0080           0
   53493 WT3  3434 TIP3 H2   HT     0.417000        1.0080           0
   53494 WT3  3438 TIP3 OH2  OT    -0.834000       15.9994           0
   53495 WT3  3438 TIP3 H1   HT     0.417000        1.0080           0
   53496 WT3  3438 TIP3 H2   HT     0.417000        1.0080           0
   53497 WT3  3440 TIP3 OH2  OT    -0.834000       15.9994           0
   53498 WT3  3440 TIP3 H1   HT     0.417000        1.0080           0
   53499 WT3  3440 TIP3 H2   HT     0.417000        1.0080           0
   53500 WT3  3442 TIP3 OH2  OT    -0.834000       15.9994           0
   53501 WT3  3442 TIP3 H1   HT     0.417000        1.0080           0
   53502 WT3  3442 TIP3 H2   HT     0.417000        1.0080           0
   53503 WT3  3447 TIP3 OH2  OT    -0.834000       15.9994           0
   53504 WT3  3447 TIP3 H1   HT     0.417000        1.0080           0
   53505 WT3  3447 TIP3 H2   HT     0.417000        1.0080           0
   53506 WT3  3450 TIP3 OH2  OT    -0.834000       15.9994           0
   53507 WT3  3450 TIP3 H1   HT     0.417000        1.0080           0
   53508 WT3  3450 TIP3 H2   HT     0.417000        1.0080           0
   53509 WT3  3459 TIP3 OH2  OT    -0.834000       15.9994           0
   53510 WT3  3459 TIP3 H1   HT     0.417000        1.0080           0
   53511 WT3  3459 TIP3 H2   HT     0.417000        1.0080           0
   53512 WT3  3473 TIP3 OH2  OT    -0.834000       15.9994           0
   53513 WT3  3473 TIP3 H1   HT     0.417000        1.0080           0
   53514 WT3  3473 TIP3 H2   HT     0.417000        1.0080           0
   53515 WT3  3474 TIP3 OH2  OT    -0.834000       15.9994           0
   53516 WT3  3474 TIP3 H1   HT     0.417000        1.0080           0
   53517 WT3  3474 TIP3 H2   HT     0.417000        1.0080           0
   53518 WT3  3476 TIP3 OH2  OT    -0.834000       15.9994           0
   53519 WT3  3476 TIP3 H1   HT     0.417000        1.0080           0
   53520 WT3  3476 TIP3 H2   HT     0.417000        1.0080           0
   53521 WT3  3480 TIP3 OH2  OT    -0.834000       15.9994           0
   53522 WT3  3480 TIP3 H1   HT     0.417000        1.0080           0
   53523 WT3  3480 TIP3 H2   HT     0.417000        1.0080           0
   53524 WT3  3484 TIP3 OH2  OT    -0.834000       15.9994           0
   53525 WT3  3484 TIP3 H1   HT     0.417000        1.0080           0
   53526 WT3  3484 TIP3 H2   HT     0.417000        1.0080           0
   53527 WT3  3496 TIP3 OH2  OT    -0.834000       15.9994           0
   53528 WT3  3496 TIP3 H1   HT     0.417000        1.0080           0
   53529 WT3  3496 TIP3 H2   HT     0.417000        1.0080           0
   53530 WT3  3497 TIP3 OH2  OT    -0.834000       15.9994           0
   53531 WT3  3497 TIP3 H1   HT     0.417000        1.0080           0
   53532 WT3  3497 TIP3 H2   HT     0.417000        1.0080           0
   53533 WT3  3504 TIP3 OH2  OT    -0.834000       15.9994           0
   53534 WT3  3504 TIP3 H1   HT     0.417000        1.0080           0
   53535 WT3  3504 TIP3 H2   HT     0.417000        1.0080           0
   53536 WT3  3507 TIP3 OH2  OT    -0.834000       15.9994           0
   53537 WT3  3507 TIP3 H1   HT     0.417000        1.0080           0
   53538 WT3  3507 TIP3 H2   HT     0.417000        1.0080           0
   53539 WT3  3511 TIP3 OH2  OT    -0.834000       15.9994           0
   53540 WT3  3511 TIP3 H1   HT     0.417000        1.0080           0
   53541 WT3  3511 TIP3 H2   HT     0.417000        1.0080           0
   53542 WT3  3513 TIP3 OH2  OT    -0.834000       15.9994           0
   53543 WT3  3513 TIP3 H1   HT     0.417000        1.0080           0
   53544 WT3  3513 TIP3 H2   HT     0.417000        1.0080           0
   53545 WT3  3514 TIP3 OH2  OT    -0.834000       15.9994           0
   53546 WT3  3514 TIP3 H1   HT     0.417000        1.0080           0
   53547 WT3  3514 TIP3 H2   HT     0.417000        1.0080           0
   53548 WT3  3521 TIP3 OH2  OT    -0.834000       15.9994           0
   53549 WT3  3521 TIP3 H1   HT     0.417000        1.0080           0
   53550 WT3  3521 TIP3 H2   HT     0.417000        1.0080           0
   53551 WT3  3526 TIP3 OH2  OT    -0.834000       15.9994           0
   53552 WT3  3526 TIP3 H1   HT     0.417000        1.0080           0
   53553 WT3  3526 TIP3 H2   HT     0.417000        1.0080           0
   53554 WT3  3527 TIP3 OH2  OT    -0.834000       15.9994           0
   53555 WT3  3527 TIP3 H1   HT     0.417000        1.0080           0
   53556 WT3  3527 TIP3 H2   HT     0.417000        1.0080           0
   53557 WT3  3533 TIP3 OH2  OT    -0.834000       15.9994           0
   53558 WT3  3533 TIP3 H1   HT     0.417000        1.0080           0
   53559 WT3  3533 TIP3 H2   HT     0.417000        1.0080           0
   53560 WT3  3534 TIP3 OH2  OT    -0.834000       15.9994           0
   53561 WT3  3534 TIP3 H1   HT     0.417000        1.0080           0
   53562 WT3  3534 TIP3 H2   HT     0.417000        1.0080           0
   53563 WT3  3537 TIP3 OH2  OT    -0.834000       15.9994           0
   53564 WT3  3537 TIP3 H1   HT     0.417000        1.0080           0
   53565 WT3  3537 TIP3 H2   HT     0.417000        1.0080           0
   53566 WT3  3544 TIP3 OH2  OT    -0.834000       15.9994           0
   53567 WT3  3544 TIP3 H1   HT     0.417000        1.0080           0
   53568 WT3  3544 TIP3 H2   HT     0.417000        1.0080           0
   53569 WT3  3545 TIP3 OH2  OT    -0.834000       15.9994           0
   53570 WT3  3545 TIP3 H1   HT     0.417000        1.0080           0
   53571 WT3  3545 TIP3 H2   HT     0.417000        1.0080           0
   53572 WT3  3548 TIP3 OH2  OT    -0.834000       15.9994           0
   53573 WT3  3548 TIP3 H1   HT     0.417000        1.0080           0
   53574 WT3  3548 TIP3 H2   HT     0.417000        1.0080           0
   53575 WT3  3552 TIP3 OH2  OT    -0.834000       15.9994           0
   53576 WT3  3552 TIP3 H1   HT     0.417000        1.0080           0
   53577 WT3  3552 TIP3 H2   HT     0.417000        1.0080           0
   53578 WT3  3554 TIP3 OH2  OT    -0.834000       15.9994           0
   53579 WT3  3554 TIP3 H1   HT     0.417000        1.0080           0
   53580 WT3  3554 TIP3 H2   HT     0.417000        1.0080           0
   53581 WT3  3555 TIP3 OH2  OT    -0.834000       15.9994           0
   53582 WT3  3555 TIP3 H1   HT     0.417000        1.0080           0
   53583 WT3  3555 TIP3 H2   HT     0.417000        1.0080           0
   53584 WT3  3556 TIP3 OH2  OT    -0.834000       15.9994           0
   53585 WT3  3556 TIP3 H1   HT     0.417000        1.0080           0
   53586 WT3  3556 TIP3 H2   HT     0.417000        1.0080           0
   53587 WT3  3557 TIP3 OH2  OT    -0.834000       15.9994           0
   53588 WT3  3557 TIP3 H1   HT     0.417000        1.0080           0
   53589 WT3  3557 TIP3 H2   HT     0.417000        1.0080           0
   53590 WT3  3558 TIP3 OH2  OT    -0.834000       15.9994           0
   53591 WT3  3558 TIP3 H1   HT     0.417000        1.0080           0
   53592 WT3  3558 TIP3 H2   HT     0.417000        1.0080           0
   53593 WT3  3560 TIP3 OH2  OT    -0.834000       15.9994           0
   53594 WT3  3560 TIP3 H1   HT     0.417000        1.0080           0
   53595 WT3  3560 TIP3 H2   HT     0.417000        1.0080           0
   53596 WT3  3561 TIP3 OH2  OT    -0.834000       15.9994           0
   53597 WT3  3561 TIP3 H1   HT     0.417000        1.0080           0
   53598 WT3  3561 TIP3 H2   HT     0.417000        1.0080           0
   53599 WT3  3562 TIP3 OH2  OT    -0.834000       15.9994           0
   53600 WT3  3562 TIP3 H1   HT     0.417000        1.0080           0
   53601 WT3  3562 TIP3 H2   HT     0.417000        1.0080           0
   53602 WT3  3563 TIP3 OH2  OT    -0.834000       15.9994           0
   53603 WT3  3563 TIP3 H1   HT     0.417000        1.0080           0
   53604 WT3  3563 TIP3 H2   HT     0.417000        1.0080           0
   53605 WT3  3564 TIP3 OH2  OT    -0.834000       15.9994           0
   53606 WT3  3564 TIP3 H1   HT     0.417000        1.0080           0
   53607 WT3  3564 TIP3 H2   HT     0.417000        1.0080           0
   53608 WT3  3569 TIP3 OH2  OT    -0.834000       15.9994           0
   53609 WT3  3569 TIP3 H1   HT     0.417000        1.0080           0
   53610 WT3  3569 TIP3 H2   HT     0.417000        1.0080           0
   53611 WT3  3573 TIP3 OH2  OT    -0.834000       15.9994           0
   53612 WT3  3573 TIP3 H1   HT     0.417000        1.0080           0
   53613 WT3  3573 TIP3 H2   HT     0.417000        1.0080           0
   53614 WT3  3575 TIP3 OH2  OT    -0.834000       15.9994           0
   53615 WT3  3575 TIP3 H1   HT     0.417000        1.0080           0
   53616 WT3  3575 TIP3 H2   HT     0.417000        1.0080           0
   53617 WT3  3576 TIP3 OH2  OT    -0.834000       15.9994           0
   53618 WT3  3576 TIP3 H1   HT     0.417000        1.0080           0
   53619 WT3  3576 TIP3 H2   HT     0.417000        1.0080           0
   53620 WT3  3578 TIP3 OH2  OT    -0.834000       15.9994           0
   53621 WT3  3578 TIP3 H1   HT     0.417000        1.0080           0
   53622 WT3  3578 TIP3 H2   HT     0.417000        1.0080           0
   53623 WT3  3579 TIP3 OH2  OT    -0.834000       15.9994           0
   53624 WT3  3579 TIP3 H1   HT     0.417000        1.0080           0
   53625 WT3  3579 TIP3 H2   HT     0.417000        1.0080           0
   53626 WT3  3580 TIP3 OH2  OT    -0.834000       15.9994           0
   53627 WT3  3580 TIP3 H1   HT     0.417000        1.0080           0
   53628 WT3  3580 TIP3 H2   HT     0.417000        1.0080           0
   53629 WT3  3582 TIP3 OH2  OT    -0.834000       15.9994           0
   53630 WT3  3582 TIP3 H1   HT     0.417000        1.0080           0
   53631 WT3  3582 TIP3 H2   HT     0.417000        1.0080           0
   53632 WT3  3583 TIP3 OH2  OT    -0.834000       15.9994           0
   53633 WT3  3583 TIP3 H1   HT     0.417000        1.0080           0
   53634 WT3  3583 TIP3 H2   HT     0.417000        1.0080           0
   53635 WT3  3585 TIP3 OH2  OT    -0.834000       15.9994           0
   53636 WT3  3585 TIP3 H1   HT     0.417000        1.0080           0
   53637 WT3  3585 TIP3 H2   HT     0.417000        1.0080           0
   53638 WT3  3586 TIP3 OH2  OT    -0.834000       15.9994           0
   53639 WT3  3586 TIP3 H1   HT     0.417000        1.0080           0
   53640 WT3  3586 TIP3 H2   HT     0.417000        1.0080           0
   53641 WT3  3587 TIP3 OH2  OT    -0.834000       15.9994           0
   53642 WT3  3587 TIP3 H1   HT     0.417000        1.0080           0
   53643 WT3  3587 TIP3 H2   HT     0.417000        1.0080           0
   53644 WT3  3588 TIP3 OH2  OT    -0.834000       15.9994           0
   53645 WT3  3588 TIP3 H1   HT     0.417000        1.0080           0
   53646 WT3  3588 TIP3 H2   HT     0.417000        1.0080           0
   53647 WT3  3589 TIP3 OH2  OT    -0.834000       15.9994           0
   53648 WT3  3589 TIP3 H1   HT     0.417000        1.0080           0
   53649 WT3  3589 TIP3 H2   HT     0.417000        1.0080           0
   53650 WT3  3590 TIP3 OH2  OT    -0.834000       15.9994           0
   53651 WT3  3590 TIP3 H1   HT     0.417000        1.0080           0
   53652 WT3  3590 TIP3 H2   HT     0.417000        1.0080           0
   53653 WT3  3592 TIP3 OH2  OT    -0.834000       15.9994           0
   53654 WT3  3592 TIP3 H1   HT     0.417000        1.0080           0
   53655 WT3  3592 TIP3 H2   HT     0.417000        1.0080           0
   53656 WT3  3593 TIP3 OH2  OT    -0.834000       15.9994           0
   53657 WT3  3593 TIP3 H1   HT     0.417000        1.0080           0
   53658 WT3  3593 TIP3 H2   HT     0.417000        1.0080           0
   53659 WT3  3595 TIP3 OH2  OT    -0.834000       15.9994           0
   53660 WT3  3595 TIP3 H1   HT     0.417000        1.0080           0
   53661 WT3  3595 TIP3 H2   HT     0.417000        1.0080           0
   53662 WT3  3596 TIP3 OH2  OT    -0.834000       15.9994           0
   53663 WT3  3596 TIP3 H1   HT     0.417000        1.0080           0
   53664 WT3  3596 TIP3 H2   HT     0.417000        1.0080           0
   53665 WT3  3597 TIP3 OH2  OT    -0.834000       15.9994           0
   53666 WT3  3597 TIP3 H1   HT     0.417000        1.0080           0
   53667 WT3  3597 TIP3 H2   HT     0.417000        1.0080           0
   53668 WT3  3598 TIP3 OH2  OT    -0.834000       15.9994           0
   53669 WT3  3598 TIP3 H1   HT     0.417000        1.0080           0
   53670 WT3  3598 TIP3 H2   HT     0.417000        1.0080           0
   53671 WT3  3599 TIP3 OH2  OT    -0.834000       15.9994           0
   53672 WT3  3599 TIP3 H1   HT     0.417000        1.0080           0
   53673 WT3  3599 TIP3 H2   HT     0.417000        1.0080           0
   53674 WT3  3600 TIP3 OH2  OT    -0.834000       15.9994           0
   53675 WT3  3600 TIP3 H1   HT     0.417000        1.0080           0
   53676 WT3  3600 TIP3 H2   HT     0.417000        1.0080           0
   53677 WT3  3601 TIP3 OH2  OT    -0.834000       15.9994           0
   53678 WT3  3601 TIP3 H1   HT     0.417000        1.0080           0
   53679 WT3  3601 TIP3 H2   HT     0.417000        1.0080           0
   53680 WT3  3602 TIP3 OH2  OT    -0.834000       15.9994           0
   53681 WT3  3602 TIP3 H1   HT     0.417000        1.0080           0
   53682 WT3  3602 TIP3 H2   HT     0.417000        1.0080           0
   53683 WT3  3603 TIP3 OH2  OT    -0.834000       15.9994           0
   53684 WT3  3603 TIP3 H1   HT     0.417000        1.0080           0
   53685 WT3  3603 TIP3 H2   HT     0.417000        1.0080           0
   53686 WT3  3604 TIP3 OH2  OT    -0.834000       15.9994           0
   53687 WT3  3604 TIP3 H1   HT     0.417000        1.0080           0
   53688 WT3  3604 TIP3 H2   HT     0.417000        1.0080           0
   53689 WT3  3607 TIP3 OH2  OT    -0.834000       15.9994           0
   53690 WT3  3607 TIP3 H1   HT     0.417000        1.0080           0
   53691 WT3  3607 TIP3 H2   HT     0.417000        1.0080           0
   53692 WT3  3608 TIP3 OH2  OT    -0.834000       15.9994           0
   53693 WT3  3608 TIP3 H1   HT     0.417000        1.0080           0
   53694 WT3  3608 TIP3 H2   HT     0.417000        1.0080           0
   53695 WT3  3610 TIP3 OH2  OT    -0.834000       15.9994           0
   53696 WT3  3610 TIP3 H1   HT     0.417000        1.0080           0
   53697 WT3  3610 TIP3 H2   HT     0.417000        1.0080           0
   53698 WT3  3611 TIP3 OH2  OT    -0.834000       15.9994           0
   53699 WT3  3611 TIP3 H1   HT     0.417000        1.0080           0
   53700 WT3  3611 TIP3 H2   HT     0.417000        1.0080           0
   53701 WT3  3612 TIP3 OH2  OT    -0.834000       15.9994           0
   53702 WT3  3612 TIP3 H1   HT     0.417000        1.0080           0
   53703 WT3  3612 TIP3 H2   HT     0.417000        1.0080           0
   53704 WT3  3613 TIP3 OH2  OT    -0.834000       15.9994           0
   53705 WT3  3613 TIP3 H1   HT     0.417000        1.0080           0
   53706 WT3  3613 TIP3 H2   HT     0.417000        1.0080           0
   53707 WT3  3614 TIP3 OH2  OT    -0.834000       15.9994           0
   53708 WT3  3614 TIP3 H1   HT     0.417000        1.0080           0
   53709 WT3  3614 TIP3 H2   HT     0.417000        1.0080           0
   53710 WT3  3615 TIP3 OH2  OT    -0.834000       15.9994           0
   53711 WT3  3615 TIP3 H1   HT     0.417000        1.0080           0
   53712 WT3  3615 TIP3 H2   HT     0.417000        1.0080           0
   53713 WT3  3616 TIP3 OH2  OT    -0.834000       15.9994           0
   53714 WT3  3616 TIP3 H1   HT     0.417000        1.0080           0
   53715 WT3  3616 TIP3 H2   HT     0.417000        1.0080           0
   53716 WT3  3617 TIP3 OH2  OT    -0.834000       15.9994           0
   53717 WT3  3617 TIP3 H1   HT     0.417000        1.0080           0
   53718 WT3  3617 TIP3 H2   HT     0.417000        1.0080           0
   53719 WT3  3618 TIP3 OH2  OT    -0.834000       15.9994           0
   53720 WT3  3618 TIP3 H1   HT     0.417000        1.0080           0
   53721 WT3  3618 TIP3 H2   HT     0.417000        1.0080           0
   53722 WT3  3619 TIP3 OH2  OT    -0.834000       15.9994           0
   53723 WT3  3619 TIP3 H1   HT     0.417000        1.0080           0
   53724 WT3  3619 TIP3 H2   HT     0.417000        1.0080           0
   53725 WT3  3620 TIP3 OH2  OT    -0.834000       15.9994           0
   53726 WT3  3620 TIP3 H1   HT     0.417000        1.0080           0
   53727 WT3  3620 TIP3 H2   HT     0.417000        1.0080           0
   53728 WT3  3621 TIP3 OH2  OT    -0.834000       15.9994           0
   53729 WT3  3621 TIP3 H1   HT     0.417000        1.0080           0
   53730 WT3  3621 TIP3 H2   HT     0.417000        1.0080           0
   53731 WT3  3622 TIP3 OH2  OT    -0.834000       15.9994           0
   53732 WT3  3622 TIP3 H1   HT     0.417000        1.0080           0
   53733 WT3  3622 TIP3 H2   HT     0.417000        1.0080           0
   53734 WT3  3623 TIP3 OH2  OT    -0.834000       15.9994           0
   53735 WT3  3623 TIP3 H1   HT     0.417000        1.0080           0
   53736 WT3  3623 TIP3 H2   HT     0.417000        1.0080           0
   53737 WT3  3624 TIP3 OH2  OT    -0.834000       15.9994           0
   53738 WT3  3624 TIP3 H1   HT     0.417000        1.0080           0
   53739 WT3  3624 TIP3 H2   HT     0.417000        1.0080           0
   53740 WT3  3625 TIP3 OH2  OT    -0.834000       15.9994           0
   53741 WT3  3625 TIP3 H1   HT     0.417000        1.0080           0
   53742 WT3  3625 TIP3 H2   HT     0.417000        1.0080           0
   53743 WT3  3626 TIP3 OH2  OT    -0.834000       15.9994           0
   53744 WT3  3626 TIP3 H1   HT     0.417000        1.0080           0
   53745 WT3  3626 TIP3 H2   HT     0.417000        1.0080           0
   53746 WT3  3627 TIP3 OH2  OT    -0.834000       15.9994           0
   53747 WT3  3627 TIP3 H1   HT     0.417000        1.0080           0
   53748 WT3  3627 TIP3 H2   HT     0.417000        1.0080           0
   53749 WT3  3628 TIP3 OH2  OT    -0.834000       15.9994           0
   53750 WT3  3628 TIP3 H1   HT     0.417000        1.0080           0
   53751 WT3  3628 TIP3 H2   HT     0.417000        1.0080           0
   53752 WT3  3629 TIP3 OH2  OT    -0.834000       15.9994           0
   53753 WT3  3629 TIP3 H1   HT     0.417000        1.0080           0
   53754 WT3  3629 TIP3 H2   HT     0.417000        1.0080           0
   53755 WT3  3630 TIP3 OH2  OT    -0.834000       15.9994           0
   53756 WT3  3630 TIP3 H1   HT     0.417000        1.0080           0
   53757 WT3  3630 TIP3 H2   HT     0.417000        1.0080           0
   53758 WT3  3632 TIP3 OH2  OT    -0.834000       15.9994           0
   53759 WT3  3632 TIP3 H1   HT     0.417000        1.0080           0
   53760 WT3  3632 TIP3 H2   HT     0.417000        1.0080           0
   53761 WT3  3633 TIP3 OH2  OT    -0.834000       15.9994           0
   53762 WT3  3633 TIP3 H1   HT     0.417000        1.0080           0
   53763 WT3  3633 TIP3 H2   HT     0.417000        1.0080           0
   53764 WT3  3634 TIP3 OH2  OT    -0.834000       15.9994           0
   53765 WT3  3634 TIP3 H1   HT     0.417000        1.0080           0
   53766 WT3  3634 TIP3 H2   HT     0.417000        1.0080           0
   53767 WT3  3636 TIP3 OH2  OT    -0.834000       15.9994           0
   53768 WT3  3636 TIP3 H1   HT     0.417000        1.0080           0
   53769 WT3  3636 TIP3 H2   HT     0.417000        1.0080           0
   53770 WT3  3638 TIP3 OH2  OT    -0.834000       15.9994           0
   53771 WT3  3638 TIP3 H1   HT     0.417000        1.0080           0
   53772 WT3  3638 TIP3 H2   HT     0.417000        1.0080           0
   53773 WT3  3639 TIP3 OH2  OT    -0.834000       15.9994           0
   53774 WT3  3639 TIP3 H1   HT     0.417000        1.0080           0
   53775 WT3  3639 TIP3 H2   HT     0.417000        1.0080           0
   53776 WT3  3640 TIP3 OH2  OT    -0.834000       15.9994           0
   53777 WT3  3640 TIP3 H1   HT     0.417000        1.0080           0
   53778 WT3  3640 TIP3 H2   HT     0.417000        1.0080           0
   53779 WT3  3641 TIP3 OH2  OT    -0.834000       15.9994           0
   53780 WT3  3641 TIP3 H1   HT     0.417000        1.0080           0
   53781 WT3  3641 TIP3 H2   HT     0.417000        1.0080           0
   53782 WT3  3642 TIP3 OH2  OT    -0.834000       15.9994           0
   53783 WT3  3642 TIP3 H1   HT     0.417000        1.0080           0
   53784 WT3  3642 TIP3 H2   HT     0.417000        1.0080           0
   53785 WT3  3643 TIP3 OH2  OT    -0.834000       15.9994           0
   53786 WT3  3643 TIP3 H1   HT     0.417000        1.0080           0
   53787 WT3  3643 TIP3 H2   HT     0.417000        1.0080           0
   53788 WT3  3644 TIP3 OH2  OT    -0.834000       15.9994           0
   53789 WT3  3644 TIP3 H1   HT     0.417000        1.0080           0
   53790 WT3  3644 TIP3 H2   HT     0.417000        1.0080           0
   53791 WT3  3645 TIP3 OH2  OT    -0.834000       15.9994           0
   53792 WT3  3645 TIP3 H1   HT     0.417000        1.0080           0
   53793 WT3  3645 TIP3 H2   HT     0.417000        1.0080           0
   53794 WT3  3646 TIP3 OH2  OT    -0.834000       15.9994           0
   53795 WT3  3646 TIP3 H1   HT     0.417000        1.0080           0
   53796 WT3  3646 TIP3 H2   HT     0.417000        1.0080           0
   53797 WT3  3647 TIP3 OH2  OT    -0.834000       15.9994           0
   53798 WT3  3647 TIP3 H1   HT     0.417000        1.0080           0
   53799 WT3  3647 TIP3 H2   HT     0.417000        1.0080           0
   53800 WT3  3648 TIP3 OH2  OT    -0.834000       15.9994           0
   53801 WT3  3648 TIP3 H1   HT     0.417000        1.0080           0
   53802 WT3  3648 TIP3 H2   HT     0.417000        1.0080           0
   53803 WT3  3650 TIP3 OH2  OT    -0.834000       15.9994           0
   53804 WT3  3650 TIP3 H1   HT     0.417000        1.0080           0
   53805 WT3  3650 TIP3 H2   HT     0.417000        1.0080           0
   53806 WT3  3651 TIP3 OH2  OT    -0.834000       15.9994           0
   53807 WT3  3651 TIP3 H1   HT     0.417000        1.0080           0
   53808 WT3  3651 TIP3 H2   HT     0.417000        1.0080           0
   53809 WT3  3653 TIP3 OH2  OT    -0.834000       15.9994           0
   53810 WT3  3653 TIP3 H1   HT     0.417000        1.0080           0
   53811 WT3  3653 TIP3 H2   HT     0.417000        1.0080           0
   53812 WT3  3654 TIP3 OH2  OT    -0.834000       15.9994           0
   53813 WT3  3654 TIP3 H1   HT     0.417000        1.0080           0
   53814 WT3  3654 TIP3 H2   HT     0.417000        1.0080           0
   53815 WT3  3655 TIP3 OH2  OT    -0.834000       15.9994           0
   53816 WT3  3655 TIP3 H1   HT     0.417000        1.0080           0
   53817 WT3  3655 TIP3 H2   HT     0.417000        1.0080           0
   53818 WT3  3657 TIP3 OH2  OT    -0.834000       15.9994           0
   53819 WT3  3657 TIP3 H1   HT     0.417000        1.0080           0
   53820 WT3  3657 TIP3 H2   HT     0.417000        1.0080           0
   53821 WT3  3658 TIP3 OH2  OT    -0.834000       15.9994           0
   53822 WT3  3658 TIP3 H1   HT     0.417000        1.0080           0
   53823 WT3  3658 TIP3 H2   HT     0.417000        1.0080           0
   53824 WT3  3659 TIP3 OH2  OT    -0.834000       15.9994           0
   53825 WT3  3659 TIP3 H1   HT     0.417000        1.0080           0
   53826 WT3  3659 TIP3 H2   HT     0.417000        1.0080           0
   53827 WT3  3660 TIP3 OH2  OT    -0.834000       15.9994           0
   53828 WT3  3660 TIP3 H1   HT     0.417000        1.0080           0
   53829 WT3  3660 TIP3 H2   HT     0.417000        1.0080           0
   53830 WT3  3661 TIP3 OH2  OT    -0.834000       15.9994           0
   53831 WT3  3661 TIP3 H1   HT     0.417000        1.0080           0
   53832 WT3  3661 TIP3 H2   HT     0.417000        1.0080           0
   53833 WT3  3662 TIP3 OH2  OT    -0.834000       15.9994           0
   53834 WT3  3662 TIP3 H1   HT     0.417000        1.0080           0
   53835 WT3  3662 TIP3 H2   HT     0.417000        1.0080           0
   53836 WT3  3663 TIP3 OH2  OT    -0.834000       15.9994           0
   53837 WT3  3663 TIP3 H1   HT     0.417000        1.0080           0
   53838 WT3  3663 TIP3 H2   HT     0.417000        1.0080           0
   53839 WT3  3664 TIP3 OH2  OT    -0.834000       15.9994           0
   53840 WT3  3664 TIP3 H1   HT     0.417000        1.0080           0
   53841 WT3  3664 TIP3 H2   HT     0.417000        1.0080           0
   53842 WT3  3665 TIP3 OH2  OT    -0.834000       15.9994           0
   53843 WT3  3665 TIP3 H1   HT     0.417000        1.0080           0
   53844 WT3  3665 TIP3 H2   HT     0.417000        1.0080           0
   53845 WT3  3666 TIP3 OH2  OT    -0.834000       15.9994           0
   53846 WT3  3666 TIP3 H1   HT     0.417000        1.0080           0
   53847 WT3  3666 TIP3 H2   HT     0.417000        1.0080           0
   53848 WT3  3667 TIP3 OH2  OT    -0.834000       15.9994           0
   53849 WT3  3667 TIP3 H1   HT     0.417000        1.0080           0
   53850 WT3  3667 TIP3 H2   HT     0.417000        1.0080           0
   53851 WT3  3668 TIP3 OH2  OT    -0.834000       15.9994           0
   53852 WT3  3668 TIP3 H1   HT     0.417000        1.0080           0
   53853 WT3  3668 TIP3 H2   HT     0.417000        1.0080           0
   53854 WT3  3670 TIP3 OH2  OT    -0.834000       15.9994           0
   53855 WT3  3670 TIP3 H1   HT     0.417000        1.0080           0
   53856 WT3  3670 TIP3 H2   HT     0.417000        1.0080           0
   53857 WT3  3671 TIP3 OH2  OT    -0.834000       15.9994           0
   53858 WT3  3671 TIP3 H1   HT     0.417000        1.0080           0
   53859 WT3  3671 TIP3 H2   HT     0.417000        1.0080           0
   53860 WT3  3673 TIP3 OH2  OT    -0.834000       15.9994           0
   53861 WT3  3673 TIP3 H1   HT     0.417000        1.0080           0
   53862 WT3  3673 TIP3 H2   HT     0.417000        1.0080           0
   53863 WT3  3674 TIP3 OH2  OT    -0.834000       15.9994           0
   53864 WT3  3674 TIP3 H1   HT     0.417000        1.0080           0
   53865 WT3  3674 TIP3 H2   HT     0.417000        1.0080           0
   53866 WT3  3675 TIP3 OH2  OT    -0.834000       15.9994           0
   53867 WT3  3675 TIP3 H1   HT     0.417000        1.0080           0
   53868 WT3  3675 TIP3 H2   HT     0.417000        1.0080           0
   53869 WT3  3677 TIP3 OH2  OT    -0.834000       15.9994           0
   53870 WT3  3677 TIP3 H1   HT     0.417000        1.0080           0
   53871 WT3  3677 TIP3 H2   HT     0.417000        1.0080           0
   53872 WT3  3678 TIP3 OH2  OT    -0.834000       15.9994           0
   53873 WT3  3678 TIP3 H1   HT     0.417000        1.0080           0
   53874 WT3  3678 TIP3 H2   HT     0.417000        1.0080           0
   53875 WT3  3679 TIP3 OH2  OT    -0.834000       15.9994           0
   53876 WT3  3679 TIP3 H1   HT     0.417000        1.0080           0
   53877 WT3  3679 TIP3 H2   HT     0.417000        1.0080           0
   53878 WT3  3680 TIP3 OH2  OT    -0.834000       15.9994           0
   53879 WT3  3680 TIP3 H1   HT     0.417000        1.0080           0
   53880 WT3  3680 TIP3 H2   HT     0.417000        1.0080           0
   53881 WT3  3681 TIP3 OH2  OT    -0.834000       15.9994           0
   53882 WT3  3681 TIP3 H1   HT     0.417000        1.0080           0
   53883 WT3  3681 TIP3 H2   HT     0.417000        1.0080           0
   53884 WT3  3682 TIP3 OH2  OT    -0.834000       15.9994           0
   53885 WT3  3682 TIP3 H1   HT     0.417000        1.0080           0
   53886 WT3  3682 TIP3 H2   HT     0.417000        1.0080           0
   53887 WT3  3683 TIP3 OH2  OT    -0.834000       15.9994           0
   53888 WT3  3683 TIP3 H1   HT     0.417000        1.0080           0
   53889 WT3  3683 TIP3 H2   HT     0.417000        1.0080           0
   53890 WT3  3684 TIP3 OH2  OT    -0.834000       15.9994           0
   53891 WT3  3684 TIP3 H1   HT     0.417000        1.0080           0
   53892 WT3  3684 TIP3 H2   HT     0.417000        1.0080           0
   53893 WT3  3685 TIP3 OH2  OT    -0.834000       15.9994           0
   53894 WT3  3685 TIP3 H1   HT     0.417000        1.0080           0
   53895 WT3  3685 TIP3 H2   HT     0.417000        1.0080           0
   53896 WT3  3686 TIP3 OH2  OT    -0.834000       15.9994           0
   53897 WT3  3686 TIP3 H1   HT     0.417000        1.0080           0
   53898 WT3  3686 TIP3 H2   HT     0.417000        1.0080           0
   53899 WT3  3687 TIP3 OH2  OT    -0.834000       15.9994           0
   53900 WT3  3687 TIP3 H1   HT     0.417000        1.0080           0
   53901 WT3  3687 TIP3 H2   HT     0.417000        1.0080           0
   53902 WT3  3688 TIP3 OH2  OT    -0.834000       15.9994           0
   53903 WT3  3688 TIP3 H1   HT     0.417000        1.0080           0
   53904 WT3  3688 TIP3 H2   HT     0.417000        1.0080           0
   53905 WT3  3689 TIP3 OH2  OT    -0.834000       15.9994           0
   53906 WT3  3689 TIP3 H1   HT     0.417000        1.0080           0
   53907 WT3  3689 TIP3 H2   HT     0.417000        1.0080           0
   53908 WT3  3690 TIP3 OH2  OT    -0.834000       15.9994           0
   53909 WT3  3690 TIP3 H1   HT     0.417000        1.0080           0
   53910 WT3  3690 TIP3 H2   HT     0.417000        1.0080           0
   53911 WT3  3691 TIP3 OH2  OT    -0.834000       15.9994           0
   53912 WT3  3691 TIP3 H1   HT     0.417000        1.0080           0
   53913 WT3  3691 TIP3 H2   HT     0.417000        1.0080           0
   53914 WT3  3692 TIP3 OH2  OT    -0.834000       15.9994           0
   53915 WT3  3692 TIP3 H1   HT     0.417000        1.0080           0
   53916 WT3  3692 TIP3 H2   HT     0.417000        1.0080           0
   53917 WT3  3693 TIP3 OH2  OT    -0.834000       15.9994           0
   53918 WT3  3693 TIP3 H1   HT     0.417000        1.0080           0
   53919 WT3  3693 TIP3 H2   HT     0.417000        1.0080           0
   53920 WT3  3694 TIP3 OH2  OT    -0.834000       15.9994           0
   53921 WT3  3694 TIP3 H1   HT     0.417000        1.0080           0
   53922 WT3  3694 TIP3 H2   HT     0.417000        1.0080           0
   53923 WT3  3695 TIP3 OH2  OT    -0.834000       15.9994           0
   53924 WT3  3695 TIP3 H1   HT     0.417000        1.0080           0
   53925 WT3  3695 TIP3 H2   HT     0.417000        1.0080           0
   53926 WT3  3696 TIP3 OH2  OT    -0.834000       15.9994           0
   53927 WT3  3696 TIP3 H1   HT     0.417000        1.0080           0
   53928 WT3  3696 TIP3 H2   HT     0.417000        1.0080           0
   53929 WT3  3697 TIP3 OH2  OT    -0.834000       15.9994           0
   53930 WT3  3697 TIP3 H1   HT     0.417000        1.0080           0
   53931 WT3  3697 TIP3 H2   HT     0.417000        1.0080           0
   53932 WT3  3698 TIP3 OH2  OT    -0.834000       15.9994           0
   53933 WT3  3698 TIP3 H1   HT     0.417000        1.0080           0
   53934 WT3  3698 TIP3 H2   HT     0.417000        1.0080           0
   53935 WT3  3699 TIP3 OH2  OT    -0.834000       15.9994           0
   53936 WT3  3699 TIP3 H1   HT     0.417000        1.0080           0
   53937 WT3  3699 TIP3 H2   HT     0.417000        1.0080           0
   53938 WT3  3700 TIP3 OH2  OT    -0.834000       15.9994           0
   53939 WT3  3700 TIP3 H1   HT     0.417000        1.0080           0
   53940 WT3  3700 TIP3 H2   HT     0.417000        1.0080           0
   53941 WT3  3701 TIP3 OH2  OT    -0.834000       15.9994           0
   53942 WT3  3701 TIP3 H1   HT     0.417000        1.0080           0
   53943 WT3  3701 TIP3 H2   HT     0.417000        1.0080           0
   53944 WT3  3702 TIP3 OH2  OT    -0.834000       15.9994           0
   53945 WT3  3702 TIP3 H1   HT     0.417000        1.0080           0
   53946 WT3  3702 TIP3 H2   HT     0.417000        1.0080           0
   53947 WT3  3703 TIP3 OH2  OT    -0.834000       15.9994           0
   53948 WT3  3703 TIP3 H1   HT     0.417000        1.0080           0
   53949 WT3  3703 TIP3 H2   HT     0.417000        1.0080           0
   53950 WT3  3704 TIP3 OH2  OT    -0.834000       15.9994           0
   53951 WT3  3704 TIP3 H1   HT     0.417000        1.0080           0
   53952 WT3  3704 TIP3 H2   HT     0.417000        1.0080           0
   53953 WT3  3705 TIP3 OH2  OT    -0.834000       15.9994           0
   53954 WT3  3705 TIP3 H1   HT     0.417000        1.0080           0
   53955 WT3  3705 TIP3 H2   HT     0.417000        1.0080           0
   53956 WT3  3706 TIP3 OH2  OT    -0.834000       15.9994           0
   53957 WT3  3706 TIP3 H1   HT     0.417000        1.0080           0
   53958 WT3  3706 TIP3 H2   HT     0.417000        1.0080           0
   53959 WT3  3707 TIP3 OH2  OT    -0.834000       15.9994           0
   53960 WT3  3707 TIP3 H1   HT     0.417000        1.0080           0
   53961 WT3  3707 TIP3 H2   HT     0.417000        1.0080           0
   53962 WT3  3708 TIP3 OH2  OT    -0.834000       15.9994           0
   53963 WT3  3708 TIP3 H1   HT     0.417000        1.0080           0
   53964 WT3  3708 TIP3 H2   HT     0.417000        1.0080           0
   53965 WT3  3709 TIP3 OH2  OT    -0.834000       15.9994           0
   53966 WT3  3709 TIP3 H1   HT     0.417000        1.0080           0
   53967 WT3  3709 TIP3 H2   HT     0.417000        1.0080           0
   53968 WT3  3710 TIP3 OH2  OT    -0.834000       15.9994           0
   53969 WT3  3710 TIP3 H1   HT     0.417000        1.0080           0
   53970 WT3  3710 TIP3 H2   HT     0.417000        1.0080           0
   53971 WT3  3714 TIP3 OH2  OT    -0.834000       15.9994           0
   53972 WT3  3714 TIP3 H1   HT     0.417000        1.0080           0
   53973 WT3  3714 TIP3 H2   HT     0.417000        1.0080           0
   53974 WT3  3716 TIP3 OH2  OT    -0.834000       15.9994           0
   53975 WT3  3716 TIP3 H1   HT     0.417000        1.0080           0
   53976 WT3  3716 TIP3 H2   HT     0.417000        1.0080           0
   53977 WT3  3718 TIP3 OH2  OT    -0.834000       15.9994           0
   53978 WT3  3718 TIP3 H1   HT     0.417000        1.0080           0
   53979 WT3  3718 TIP3 H2   HT     0.417000        1.0080           0
   53980 WT3  3719 TIP3 OH2  OT    -0.834000       15.9994           0
   53981 WT3  3719 TIP3 H1   HT     0.417000        1.0080           0
   53982 WT3  3719 TIP3 H2   HT     0.417000        1.0080           0
   53983 WT3  3720 TIP3 OH2  OT    -0.834000       15.9994           0
   53984 WT3  3720 TIP3 H1   HT     0.417000        1.0080           0
   53985 WT3  3720 TIP3 H2   HT     0.417000        1.0080           0
   53986 WT3  3721 TIP3 OH2  OT    -0.834000       15.9994           0
   53987 WT3  3721 TIP3 H1   HT     0.417000        1.0080           0
   53988 WT3  3721 TIP3 H2   HT     0.417000        1.0080           0
   53989 WT3  3722 TIP3 OH2  OT    -0.834000       15.9994           0
   53990 WT3  3722 TIP3 H1   HT     0.417000        1.0080           0
   53991 WT3  3722 TIP3 H2   HT     0.417000        1.0080           0
   53992 WT3  3723 TIP3 OH2  OT    -0.834000       15.9994           0
   53993 WT3  3723 TIP3 H1   HT     0.417000        1.0080           0
   53994 WT3  3723 TIP3 H2   HT     0.417000        1.0080           0
   53995 WT3  3724 TIP3 OH2  OT    -0.834000       15.9994           0
   53996 WT3  3724 TIP3 H1   HT     0.417000        1.0080           0
   53997 WT3  3724 TIP3 H2   HT     0.417000        1.0080           0
   53998 WT3  3725 TIP3 OH2  OT    -0.834000       15.9994           0
   53999 WT3  3725 TIP3 H1   HT     0.417000        1.0080           0
   54000 WT3  3725 TIP3 H2   HT     0.417000        1.0080           0
   54001 WT3  3726 TIP3 OH2  OT    -0.834000       15.9994           0
   54002 WT3  3726 TIP3 H1   HT     0.417000        1.0080           0
   54003 WT3  3726 TIP3 H2   HT     0.417000        1.0080           0
   54004 WT3  3727 TIP3 OH2  OT    -0.834000       15.9994           0
   54005 WT3  3727 TIP3 H1   HT     0.417000        1.0080           0
   54006 WT3  3727 TIP3 H2   HT     0.417000        1.0080           0
   54007 WT3  3728 TIP3 OH2  OT    -0.834000       15.9994           0
   54008 WT3  3728 TIP3 H1   HT     0.417000        1.0080           0
   54009 WT3  3728 TIP3 H2   HT     0.417000        1.0080           0
   54010 WT3  3729 TIP3 OH2  OT    -0.834000       15.9994           0
   54011 WT3  3729 TIP3 H1   HT     0.417000        1.0080           0
   54012 WT3  3729 TIP3 H2   HT     0.417000        1.0080           0
   54013 WT3  3730 TIP3 OH2  OT    -0.834000       15.9994           0
   54014 WT3  3730 TIP3 H1   HT     0.417000        1.0080           0
   54015 WT3  3730 TIP3 H2   HT     0.417000        1.0080           0
   54016 WT3  3731 TIP3 OH2  OT    -0.834000       15.9994           0
   54017 WT3  3731 TIP3 H1   HT     0.417000        1.0080           0
   54018 WT3  3731 TIP3 H2   HT     0.417000        1.0080           0
   54019 WT3  3732 TIP3 OH2  OT    -0.834000       15.9994           0
   54020 WT3  3732 TIP3 H1   HT     0.417000        1.0080           0
   54021 WT3  3732 TIP3 H2   HT     0.417000        1.0080           0
   54022 WT3  3733 TIP3 OH2  OT    -0.834000       15.9994           0
   54023 WT3  3733 TIP3 H1   HT     0.417000        1.0080           0
   54024 WT3  3733 TIP3 H2   HT     0.417000        1.0080           0
   54025 WT3  3734 TIP3 OH2  OT    -0.834000       15.9994           0
   54026 WT3  3734 TIP3 H1   HT     0.417000        1.0080           0
   54027 WT3  3734 TIP3 H2   HT     0.417000        1.0080           0
   54028 WT3  3735 TIP3 OH2  OT    -0.834000       15.9994           0
   54029 WT3  3735 TIP3 H1   HT     0.417000        1.0080           0
   54030 WT3  3735 TIP3 H2   HT     0.417000        1.0080           0
   54031 WT3  3736 TIP3 OH2  OT    -0.834000       15.9994           0
   54032 WT3  3736 TIP3 H1   HT     0.417000        1.0080           0
   54033 WT3  3736 TIP3 H2   HT     0.417000        1.0080           0
   54034 WT3  3737 TIP3 OH2  OT    -0.834000       15.9994           0
   54035 WT3  3737 TIP3 H1   HT     0.417000        1.0080           0
   54036 WT3  3737 TIP3 H2   HT     0.417000        1.0080           0
   54037 WT3  3738 TIP3 OH2  OT    -0.834000       15.9994           0
   54038 WT3  3738 TIP3 H1   HT     0.417000        1.0080           0
   54039 WT3  3738 TIP3 H2   HT     0.417000        1.0080           0
   54040 WT3  3739 TIP3 OH2  OT    -0.834000       15.9994           0
   54041 WT3  3739 TIP3 H1   HT     0.417000        1.0080           0
   54042 WT3  3739 TIP3 H2   HT     0.417000        1.0080           0
   54043 WT3  3740 TIP3 OH2  OT    -0.834000       15.9994           0
   54044 WT3  3740 TIP3 H1   HT     0.417000        1.0080           0
   54045 WT3  3740 TIP3 H2   HT     0.417000        1.0080           0
   54046 WT3  3742 TIP3 OH2  OT    -0.834000       15.9994           0
   54047 WT3  3742 TIP3 H1   HT     0.417000        1.0080           0
   54048 WT3  3742 TIP3 H2   HT     0.417000        1.0080           0
   54049 WT3  3743 TIP3 OH2  OT    -0.834000       15.9994           0
   54050 WT3  3743 TIP3 H1   HT     0.417000        1.0080           0
   54051 WT3  3743 TIP3 H2   HT     0.417000        1.0080           0
   54052 WT3  3744 TIP3 OH2  OT    -0.834000       15.9994           0
   54053 WT3  3744 TIP3 H1   HT     0.417000        1.0080           0
   54054 WT3  3744 TIP3 H2   HT     0.417000        1.0080           0
   54055 WT3  3745 TIP3 OH2  OT    -0.834000       15.9994           0
   54056 WT3  3745 TIP3 H1   HT     0.417000        1.0080           0
   54057 WT3  3745 TIP3 H2   HT     0.417000        1.0080           0
   54058 WT3  3747 TIP3 OH2  OT    -0.834000       15.9994           0
   54059 WT3  3747 TIP3 H1   HT     0.417000        1.0080           0
   54060 WT3  3747 TIP3 H2   HT     0.417000        1.0080           0
   54061 WT3  3749 TIP3 OH2  OT    -0.834000       15.9994           0
   54062 WT3  3749 TIP3 H1   HT     0.417000        1.0080           0
   54063 WT3  3749 TIP3 H2   HT     0.417000        1.0080           0
   54064 WT3  3750 TIP3 OH2  OT    -0.834000       15.9994           0
   54065 WT3  3750 TIP3 H1   HT     0.417000        1.0080           0
   54066 WT3  3750 TIP3 H2   HT     0.417000        1.0080           0
   54067 WT3  3751 TIP3 OH2  OT    -0.834000       15.9994           0
   54068 WT3  3751 TIP3 H1   HT     0.417000        1.0080           0
   54069 WT3  3751 TIP3 H2   HT     0.417000        1.0080           0
   54070 WT3  3752 TIP3 OH2  OT    -0.834000       15.9994           0
   54071 WT3  3752 TIP3 H1   HT     0.417000        1.0080           0
   54072 WT3  3752 TIP3 H2   HT     0.417000        1.0080           0
   54073 WT3  3753 TIP3 OH2  OT    -0.834000       15.9994           0
   54074 WT3  3753 TIP3 H1   HT     0.417000        1.0080           0
   54075 WT3  3753 TIP3 H2   HT     0.417000        1.0080           0
   54076 WT3  3754 TIP3 OH2  OT    -0.834000       15.9994           0
   54077 WT3  3754 TIP3 H1   HT     0.417000        1.0080           0
   54078 WT3  3754 TIP3 H2   HT     0.417000        1.0080           0
   54079 WT3  3756 TIP3 OH2  OT    -0.834000       15.9994           0
   54080 WT3  3756 TIP3 H1   HT     0.417000        1.0080           0
   54081 WT3  3756 TIP3 H2   HT     0.417000        1.0080           0
   54082 WT3  3757 TIP3 OH2  OT    -0.834000       15.9994           0
   54083 WT3  3757 TIP3 H1   HT     0.417000        1.0080           0
   54084 WT3  3757 TIP3 H2   HT     0.417000        1.0080           0
   54085 WT3  3758 TIP3 OH2  OT    -0.834000       15.9994           0
   54086 WT3  3758 TIP3 H1   HT     0.417000        1.0080           0
   54087 WT3  3758 TIP3 H2   HT     0.417000        1.0080           0
   54088 WT3  3759 TIP3 OH2  OT    -0.834000       15.9994           0
   54089 WT3  3759 TIP3 H1   HT     0.417000        1.0080           0
   54090 WT3  3759 TIP3 H2   HT     0.417000        1.0080           0
   54091 WT3  3760 TIP3 OH2  OT    -0.834000       15.9994           0
   54092 WT3  3760 TIP3 H1   HT     0.417000        1.0080           0
   54093 WT3  3760 TIP3 H2   HT     0.417000        1.0080           0
   54094 WT3  3761 TIP3 OH2  OT    -0.834000       15.9994           0
   54095 WT3  3761 TIP3 H1   HT     0.417000        1.0080           0
   54096 WT3  3761 TIP3 H2   HT     0.417000        1.0080           0
   54097 WT3  3762 TIP3 OH2  OT    -0.834000       15.9994           0
   54098 WT3  3762 TIP3 H1   HT     0.417000        1.0080           0
   54099 WT3  3762 TIP3 H2   HT     0.417000        1.0080           0
   54100 WT3  3764 TIP3 OH2  OT    -0.834000       15.9994           0
   54101 WT3  3764 TIP3 H1   HT     0.417000        1.0080           0
   54102 WT3  3764 TIP3 H2   HT     0.417000        1.0080           0
   54103 WT3  3766 TIP3 OH2  OT    -0.834000       15.9994           0
   54104 WT3  3766 TIP3 H1   HT     0.417000        1.0080           0
   54105 WT3  3766 TIP3 H2   HT     0.417000        1.0080           0
   54106 WT3  3767 TIP3 OH2  OT    -0.834000       15.9994           0
   54107 WT3  3767 TIP3 H1   HT     0.417000        1.0080           0
   54108 WT3  3767 TIP3 H2   HT     0.417000        1.0080           0
   54109 WT3  3770 TIP3 OH2  OT    -0.834000       15.9994           0
   54110 WT3  3770 TIP3 H1   HT     0.417000        1.0080           0
   54111 WT3  3770 TIP3 H2   HT     0.417000        1.0080           0
   54112 WT3  3771 TIP3 OH2  OT    -0.834000       15.9994           0
   54113 WT3  3771 TIP3 H1   HT     0.417000        1.0080           0
   54114 WT3  3771 TIP3 H2   HT     0.417000        1.0080           0
   54115 WT3  3772 TIP3 OH2  OT    -0.834000       15.9994           0
   54116 WT3  3772 TIP3 H1   HT     0.417000        1.0080           0
   54117 WT3  3772 TIP3 H2   HT     0.417000        1.0080           0
   54118 WT3  3773 TIP3 OH2  OT    -0.834000       15.9994           0
   54119 WT3  3773 TIP3 H1   HT     0.417000        1.0080           0
   54120 WT3  3773 TIP3 H2   HT     0.417000        1.0080           0
   54121 WT3  3774 TIP3 OH2  OT    -0.834000       15.9994           0
   54122 WT3  3774 TIP3 H1   HT     0.417000        1.0080           0
   54123 WT3  3774 TIP3 H2   HT     0.417000        1.0080           0
   54124 WT3  3776 TIP3 OH2  OT    -0.834000       15.9994           0
   54125 WT3  3776 TIP3 H1   HT     0.417000        1.0080           0
   54126 WT3  3776 TIP3 H2   HT     0.417000        1.0080           0
   54127 WT3  3777 TIP3 OH2  OT    -0.834000       15.9994           0
   54128 WT3  3777 TIP3 H1   HT     0.417000        1.0080           0
   54129 WT3  3777 TIP3 H2   HT     0.417000        1.0080           0
   54130 WT3  3778 TIP3 OH2  OT    -0.834000       15.9994           0
   54131 WT3  3778 TIP3 H1   HT     0.417000        1.0080           0
   54132 WT3  3778 TIP3 H2   HT     0.417000        1.0080           0
   54133 WT3  3779 TIP3 OH2  OT    -0.834000       15.9994           0
   54134 WT3  3779 TIP3 H1   HT     0.417000        1.0080           0
   54135 WT3  3779 TIP3 H2   HT     0.417000        1.0080           0
   54136 WT3  3781 TIP3 OH2  OT    -0.834000       15.9994           0
   54137 WT3  3781 TIP3 H1   HT     0.417000        1.0080           0
   54138 WT3  3781 TIP3 H2   HT     0.417000        1.0080           0
   54139 WT3  3782 TIP3 OH2  OT    -0.834000       15.9994           0
   54140 WT3  3782 TIP3 H1   HT     0.417000        1.0080           0
   54141 WT3  3782 TIP3 H2   HT     0.417000        1.0080           0
   54142 WT3  3785 TIP3 OH2  OT    -0.834000       15.9994           0
   54143 WT3  3785 TIP3 H1   HT     0.417000        1.0080           0
   54144 WT3  3785 TIP3 H2   HT     0.417000        1.0080           0
   54145 WT3  3786 TIP3 OH2  OT    -0.834000       15.9994           0
   54146 WT3  3786 TIP3 H1   HT     0.417000        1.0080           0
   54147 WT3  3786 TIP3 H2   HT     0.417000        1.0080           0
   54148 WT3  3787 TIP3 OH2  OT    -0.834000       15.9994           0
   54149 WT3  3787 TIP3 H1   HT     0.417000        1.0080           0
   54150 WT3  3787 TIP3 H2   HT     0.417000        1.0080           0
   54151 WT3  3788 TIP3 OH2  OT    -0.834000       15.9994           0
   54152 WT3  3788 TIP3 H1   HT     0.417000        1.0080           0
   54153 WT3  3788 TIP3 H2   HT     0.417000        1.0080           0
   54154 WT3  3789 TIP3 OH2  OT    -0.834000       15.9994           0
   54155 WT3  3789 TIP3 H1   HT     0.417000        1.0080           0
   54156 WT3  3789 TIP3 H2   HT     0.417000        1.0080           0
   54157 WT3  3790 TIP3 OH2  OT    -0.834000       15.9994           0
   54158 WT3  3790 TIP3 H1   HT     0.417000        1.0080           0
   54159 WT3  3790 TIP3 H2   HT     0.417000        1.0080           0
   54160 WT3  3792 TIP3 OH2  OT    -0.834000       15.9994           0
   54161 WT3  3792 TIP3 H1   HT     0.417000        1.0080           0
   54162 WT3  3792 TIP3 H2   HT     0.417000        1.0080           0
   54163 WT3  3793 TIP3 OH2  OT    -0.834000       15.9994           0
   54164 WT3  3793 TIP3 H1   HT     0.417000        1.0080           0
   54165 WT3  3793 TIP3 H2   HT     0.417000        1.0080           0
   54166 WT3  3795 TIP3 OH2  OT    -0.834000       15.9994           0
   54167 WT3  3795 TIP3 H1   HT     0.417000        1.0080           0
   54168 WT3  3795 TIP3 H2   HT     0.417000        1.0080           0
   54169 WT3  3796 TIP3 OH2  OT    -0.834000       15.9994           0
   54170 WT3  3796 TIP3 H1   HT     0.417000        1.0080           0
   54171 WT3  3796 TIP3 H2   HT     0.417000        1.0080           0
   54172 WT3  3798 TIP3 OH2  OT    -0.834000       15.9994           0
   54173 WT3  3798 TIP3 H1   HT     0.417000        1.0080           0
   54174 WT3  3798 TIP3 H2   HT     0.417000        1.0080           0
   54175 WT3  3799 TIP3 OH2  OT    -0.834000       15.9994           0
   54176 WT3  3799 TIP3 H1   HT     0.417000        1.0080           0
   54177 WT3  3799 TIP3 H2   HT     0.417000        1.0080           0
   54178 WT3  3800 TIP3 OH2  OT    -0.834000       15.9994           0
   54179 WT3  3800 TIP3 H1   HT     0.417000        1.0080           0
   54180 WT3  3800 TIP3 H2   HT     0.417000        1.0080           0
   54181 WT3  3801 TIP3 OH2  OT    -0.834000       15.9994           0
   54182 WT3  3801 TIP3 H1   HT     0.417000        1.0080           0
   54183 WT3  3801 TIP3 H2   HT     0.417000        1.0080           0
   54184 WT3  3803 TIP3 OH2  OT    -0.834000       15.9994           0
   54185 WT3  3803 TIP3 H1   HT     0.417000        1.0080           0
   54186 WT3  3803 TIP3 H2   HT     0.417000        1.0080           0
   54187 WT3  3804 TIP3 OH2  OT    -0.834000       15.9994           0
   54188 WT3  3804 TIP3 H1   HT     0.417000        1.0080           0
   54189 WT3  3804 TIP3 H2   HT     0.417000        1.0080           0
   54190 WT3  3807 TIP3 OH2  OT    -0.834000       15.9994           0
   54191 WT3  3807 TIP3 H1   HT     0.417000        1.0080           0
   54192 WT3  3807 TIP3 H2   HT     0.417000        1.0080           0
   54193 WT3  3808 TIP3 OH2  OT    -0.834000       15.9994           0
   54194 WT3  3808 TIP3 H1   HT     0.417000        1.0080           0
   54195 WT3  3808 TIP3 H2   HT     0.417000        1.0080           0
   54196 WT3  3810 TIP3 OH2  OT    -0.834000       15.9994           0
   54197 WT3  3810 TIP3 H1   HT     0.417000        1.0080           0
   54198 WT3  3810 TIP3 H2   HT     0.417000        1.0080           0
   54199 WT3  3811 TIP3 OH2  OT    -0.834000       15.9994           0
   54200 WT3  3811 TIP3 H1   HT     0.417000        1.0080           0
   54201 WT3  3811 TIP3 H2   HT     0.417000        1.0080           0
   54202 WT3  3814 TIP3 OH2  OT    -0.834000       15.9994           0
   54203 WT3  3814 TIP3 H1   HT     0.417000        1.0080           0
   54204 WT3  3814 TIP3 H2   HT     0.417000        1.0080           0
   54205 WT3  3817 TIP3 OH2  OT    -0.834000       15.9994           0
   54206 WT3  3817 TIP3 H1   HT     0.417000        1.0080           0
   54207 WT3  3817 TIP3 H2   HT     0.417000        1.0080           0
   54208 WT3  3818 TIP3 OH2  OT    -0.834000       15.9994           0
   54209 WT3  3818 TIP3 H1   HT     0.417000        1.0080           0
   54210 WT3  3818 TIP3 H2   HT     0.417000        1.0080           0
   54211 WT3  3820 TIP3 OH2  OT    -0.834000       15.9994           0
   54212 WT3  3820 TIP3 H1   HT     0.417000        1.0080           0
   54213 WT3  3820 TIP3 H2   HT     0.417000        1.0080           0
   54214 WT3  3821 TIP3 OH2  OT    -0.834000       15.9994           0
   54215 WT3  3821 TIP3 H1   HT     0.417000        1.0080           0
   54216 WT3  3821 TIP3 H2   HT     0.417000        1.0080           0
   54217 WT3  3822 TIP3 OH2  OT    -0.834000       15.9994           0
   54218 WT3  3822 TIP3 H1   HT     0.417000        1.0080           0
   54219 WT3  3822 TIP3 H2   HT     0.417000        1.0080           0
   54220 WT3  3827 TIP3 OH2  OT    -0.834000       15.9994           0
   54221 WT3  3827 TIP3 H1   HT     0.417000        1.0080           0
   54222 WT3  3827 TIP3 H2   HT     0.417000        1.0080           0
   54223 WT3  3828 TIP3 OH2  OT    -0.834000       15.9994           0
   54224 WT3  3828 TIP3 H1   HT     0.417000        1.0080           0
   54225 WT3  3828 TIP3 H2   HT     0.417000        1.0080           0
   54226 WT3  3829 TIP3 OH2  OT    -0.834000       15.9994           0
   54227 WT3  3829 TIP3 H1   HT     0.417000        1.0080           0
   54228 WT3  3829 TIP3 H2   HT     0.417000        1.0080           0
   54229 WT3  3830 TIP3 OH2  OT    -0.834000       15.9994           0
   54230 WT3  3830 TIP3 H1   HT     0.417000        1.0080           0
   54231 WT3  3830 TIP3 H2   HT     0.417000        1.0080           0
   54232 WT3  3831 TIP3 OH2  OT    -0.834000       15.9994           0
   54233 WT3  3831 TIP3 H1   HT     0.417000        1.0080           0
   54234 WT3  3831 TIP3 H2   HT     0.417000        1.0080           0
   54235 WT3  3833 TIP3 OH2  OT    -0.834000       15.9994           0
   54236 WT3  3833 TIP3 H1   HT     0.417000        1.0080           0
   54237 WT3  3833 TIP3 H2   HT     0.417000        1.0080           0
   54238 WT3  3834 TIP3 OH2  OT    -0.834000       15.9994           0
   54239 WT3  3834 TIP3 H1   HT     0.417000        1.0080           0
   54240 WT3  3834 TIP3 H2   HT     0.417000        1.0080           0
   54241 WT3  3835 TIP3 OH2  OT    -0.834000       15.9994           0
   54242 WT3  3835 TIP3 H1   HT     0.417000        1.0080           0
   54243 WT3  3835 TIP3 H2   HT     0.417000        1.0080           0
   54244 WT3  3838 TIP3 OH2  OT    -0.834000       15.9994           0
   54245 WT3  3838 TIP3 H1   HT     0.417000        1.0080           0
   54246 WT3  3838 TIP3 H2   HT     0.417000        1.0080           0
   54247 WT3  3840 TIP3 OH2  OT    -0.834000       15.9994           0
   54248 WT3  3840 TIP3 H1   HT     0.417000        1.0080           0
   54249 WT3  3840 TIP3 H2   HT     0.417000        1.0080           0
   54250 WT3  3841 TIP3 OH2  OT    -0.834000       15.9994           0
   54251 WT3  3841 TIP3 H1   HT     0.417000        1.0080           0
   54252 WT3  3841 TIP3 H2   HT     0.417000        1.0080           0
   54253 WT3  3844 TIP3 OH2  OT    -0.834000       15.9994           0
   54254 WT3  3844 TIP3 H1   HT     0.417000        1.0080           0
   54255 WT3  3844 TIP3 H2   HT     0.417000        1.0080           0
   54256 WT3  3850 TIP3 OH2  OT    -0.834000       15.9994           0
   54257 WT3  3850 TIP3 H1   HT     0.417000        1.0080           0
   54258 WT3  3850 TIP3 H2   HT     0.417000        1.0080           0
   54259 WT3  3851 TIP3 OH2  OT    -0.834000       15.9994           0
   54260 WT3  3851 TIP3 H1   HT     0.417000        1.0080           0
   54261 WT3  3851 TIP3 H2   HT     0.417000        1.0080           0
   54262 WT3  3852 TIP3 OH2  OT    -0.834000       15.9994           0
   54263 WT3  3852 TIP3 H1   HT     0.417000        1.0080           0
   54264 WT3  3852 TIP3 H2   HT     0.417000        1.0080           0
   54265 WT3  3860 TIP3 OH2  OT    -0.834000       15.9994           0
   54266 WT3  3860 TIP3 H1   HT     0.417000        1.0080           0
   54267 WT3  3860 TIP3 H2   HT     0.417000        1.0080           0
   54268 WT3  3864 TIP3 OH2  OT    -0.834000       15.9994           0
   54269 WT3  3864 TIP3 H1   HT     0.417000        1.0080           0
   54270 WT3  3864 TIP3 H2   HT     0.417000        1.0080           0
   54271 WT3  3872 TIP3 OH2  OT    -0.834000       15.9994           0
   54272 WT3  3872 TIP3 H1   HT     0.417000        1.0080           0
   54273 WT3  3872 TIP3 H2   HT     0.417000        1.0080           0
   54274 WT3  3892 TIP3 OH2  OT    -0.834000       15.9994           0
   54275 WT3  3892 TIP3 H1   HT     0.417000        1.0080           0
   54276 WT3  3892 TIP3 H2   HT     0.417000        1.0080           0
   54277 WT3  3906 TIP3 OH2  OT    -0.834000       15.9994           0
   54278 WT3  3906 TIP3 H1   HT     0.417000        1.0080           0
   54279 WT3  3906 TIP3 H2   HT     0.417000        1.0080           0
   54280 WT3  3908 TIP3 OH2  OT    -0.834000       15.9994           0
   54281 WT3  3908 TIP3 H1   HT     0.417000        1.0080           0
   54282 WT3  3908 TIP3 H2   HT     0.417000        1.0080           0
   54283 WT3  3919 TIP3 OH2  OT    -0.834000       15.9994           0
   54284 WT3  3919 TIP3 H1   HT     0.417000        1.0080           0
   54285 WT3  3919 TIP3 H2   HT     0.417000        1.0080           0
   54286 WT3  3924 TIP3 OH2  OT    -0.834000       15.9994           0
   54287 WT3  3924 TIP3 H1   HT     0.417000        1.0080           0
   54288 WT3  3924 TIP3 H2   HT     0.417000        1.0080           0
   54289 WT3  3925 TIP3 OH2  OT    -0.834000       15.9994           0
   54290 WT3  3925 TIP3 H1   HT     0.417000        1.0080           0
   54291 WT3  3925 TIP3 H2   HT     0.417000        1.0080           0
   54292 WT3  3931 TIP3 OH2  OT    -0.834000       15.9994           0
   54293 WT3  3931 TIP3 H1   HT     0.417000        1.0080           0
   54294 WT3  3931 TIP3 H2   HT     0.417000        1.0080           0
   54295 WT3  3933 TIP3 OH2  OT    -0.834000       15.9994           0
   54296 WT3  3933 TIP3 H1   HT     0.417000        1.0080           0
   54297 WT3  3933 TIP3 H2   HT     0.417000        1.0080           0
   54298 WT3  3935 TIP3 OH2  OT    -0.834000       15.9994           0
   54299 WT3  3935 TIP3 H1   HT     0.417000        1.0080           0
   54300 WT3  3935 TIP3 H2   HT     0.417000        1.0080           0
   54301 WT3  3938 TIP3 OH2  OT    -0.834000       15.9994           0
   54302 WT3  3938 TIP3 H1   HT     0.417000        1.0080           0
   54303 WT3  3938 TIP3 H2   HT     0.417000        1.0080           0
   54304 WT3  3943 TIP3 OH2  OT    -0.834000       15.9994           0
   54305 WT3  3943 TIP3 H1   HT     0.417000        1.0080           0
   54306 WT3  3943 TIP3 H2   HT     0.417000        1.0080           0
   54307 WT3  3950 TIP3 OH2  OT    -0.834000       15.9994           0
   54308 WT3  3950 TIP3 H1   HT     0.417000        1.0080           0
   54309 WT3  3950 TIP3 H2   HT     0.417000        1.0080           0
   54310 WT3  3951 TIP3 OH2  OT    -0.834000       15.9994           0
   54311 WT3  3951 TIP3 H1   HT     0.417000        1.0080           0
   54312 WT3  3951 TIP3 H2   HT     0.417000        1.0080           0
   54313 WT3  3953 TIP3 OH2  OT    -0.834000       15.9994           0
   54314 WT3  3953 TIP3 H1   HT     0.417000        1.0080           0
   54315 WT3  3953 TIP3 H2   HT     0.417000        1.0080           0
   54316 WT3  3957 TIP3 OH2  OT    -0.834000       15.9994           0
   54317 WT3  3957 TIP3 H1   HT     0.417000        1.0080           0
   54318 WT3  3957 TIP3 H2   HT     0.417000        1.0080           0
   54319 WT3  3962 TIP3 OH2  OT    -0.834000       15.9994           0
   54320 WT3  3962 TIP3 H1   HT     0.417000        1.0080           0
   54321 WT3  3962 TIP3 H2   HT     0.417000        1.0080           0
   54322 WT3  3964 TIP3 OH2  OT    -0.834000       15.9994           0
   54323 WT3  3964 TIP3 H1   HT     0.417000        1.0080           0
   54324 WT3  3964 TIP3 H2   HT     0.417000        1.0080           0
   54325 WT3  3967 TIP3 OH2  OT    -0.834000       15.9994           0
   54326 WT3  3967 TIP3 H1   HT     0.417000        1.0080           0
   54327 WT3  3967 TIP3 H2   HT     0.417000        1.0080           0
   54328 WT3  3968 TIP3 OH2  OT    -0.834000       15.9994           0
   54329 WT3  3968 TIP3 H1   HT     0.417000        1.0080           0
   54330 WT3  3968 TIP3 H2   HT     0.417000        1.0080           0
   54331 WT3  3973 TIP3 OH2  OT    -0.834000       15.9994           0
   54332 WT3  3973 TIP3 H1   HT     0.417000        1.0080           0
   54333 WT3  3973 TIP3 H2   HT     0.417000        1.0080           0
   54334 WT3  3974 TIP3 OH2  OT    -0.834000       15.9994           0
   54335 WT3  3974 TIP3 H1   HT     0.417000        1.0080           0
   54336 WT3  3974 TIP3 H2   HT     0.417000        1.0080           0
   54337 WT3  3975 TIP3 OH2  OT    -0.834000       15.9994           0
   54338 WT3  3975 TIP3 H1   HT     0.417000        1.0080           0
   54339 WT3  3975 TIP3 H2   HT     0.417000        1.0080           0
   54340 WT3  3976 TIP3 OH2  OT    -0.834000       15.9994           0
   54341 WT3  3976 TIP3 H1   HT     0.417000        1.0080           0
   54342 WT3  3976 TIP3 H2   HT     0.417000        1.0080           0
   54343 WT3  3977 TIP3 OH2  OT    -0.834000       15.9994           0
   54344 WT3  3977 TIP3 H1   HT     0.417000        1.0080           0
   54345 WT3  3977 TIP3 H2   HT     0.417000        1.0080           0
   54346 WT3  3982 TIP3 OH2  OT    -0.834000       15.9994           0
   54347 WT3  3982 TIP3 H1   HT     0.417000        1.0080           0
   54348 WT3  3982 TIP3 H2   HT     0.417000        1.0080           0
   54349 WT3  3983 TIP3 OH2  OT    -0.834000       15.9994           0
   54350 WT3  3983 TIP3 H1   HT     0.417000        1.0080           0
   54351 WT3  3983 TIP3 H2   HT     0.417000        1.0080           0
   54352 WT3  3985 TIP3 OH2  OT    -0.834000       15.9994           0
   54353 WT3  3985 TIP3 H1   HT     0.417000        1.0080           0
   54354 WT3  3985 TIP3 H2   HT     0.417000        1.0080           0
   54355 WT3  3986 TIP3 OH2  OT    -0.834000       15.9994           0
   54356 WT3  3986 TIP3 H1   HT     0.417000        1.0080           0
   54357 WT3  3986 TIP3 H2   HT     0.417000        1.0080           0
   54358 WT3  3990 TIP3 OH2  OT    -0.834000       15.9994           0
   54359 WT3  3990 TIP3 H1   HT     0.417000        1.0080           0
   54360 WT3  3990 TIP3 H2   HT     0.417000        1.0080           0
   54361 WT3  3991 TIP3 OH2  OT    -0.834000       15.9994           0
   54362 WT3  3991 TIP3 H1   HT     0.417000        1.0080           0
   54363 WT3  3991 TIP3 H2   HT     0.417000        1.0080           0
   54364 WT3  3992 TIP3 OH2  OT    -0.834000       15.9994           0
   54365 WT3  3992 TIP3 H1   HT     0.417000        1.0080           0
   54366 WT3  3992 TIP3 H2   HT     0.417000        1.0080           0
   54367 WT3  3993 TIP3 OH2  OT    -0.834000       15.9994           0
   54368 WT3  3993 TIP3 H1   HT     0.417000        1.0080           0
   54369 WT3  3993 TIP3 H2   HT     0.417000        1.0080           0
   54370 WT3  3995 TIP3 OH2  OT    -0.834000       15.9994           0
   54371 WT3  3995 TIP3 H1   HT     0.417000        1.0080           0
   54372 WT3  3995 TIP3 H2   HT     0.417000        1.0080           0
   54373 WT3  3996 TIP3 OH2  OT    -0.834000       15.9994           0
   54374 WT3  3996 TIP3 H1   HT     0.417000        1.0080           0
   54375 WT3  3996 TIP3 H2   HT     0.417000        1.0080           0
   54376 WT3  3997 TIP3 OH2  OT    -0.834000       15.9994           0
   54377 WT3  3997 TIP3 H1   HT     0.417000        1.0080           0
   54378 WT3  3997 TIP3 H2   HT     0.417000        1.0080           0
   54379 WT3  3998 TIP3 OH2  OT    -0.834000       15.9994           0
   54380 WT3  3998 TIP3 H1   HT     0.417000        1.0080           0
   54381 WT3  3998 TIP3 H2   HT     0.417000        1.0080           0
   54382 WT3  3999 TIP3 OH2  OT    -0.834000       15.9994           0
   54383 WT3  3999 TIP3 H1   HT     0.417000        1.0080           0
   54384 WT3  3999 TIP3 H2   HT     0.417000        1.0080           0
   54385 WT3  4000 TIP3 OH2  OT    -0.834000       15.9994           0
   54386 WT3  4000 TIP3 H1   HT     0.417000        1.0080           0
   54387 WT3  4000 TIP3 H2   HT     0.417000        1.0080           0
   54388 WT3  4001 TIP3 OH2  OT    -0.834000       15.9994           0
   54389 WT3  4001 TIP3 H1   HT     0.417000        1.0080           0
   54390 WT3  4001 TIP3 H2   HT     0.417000        1.0080           0
   54391 WT3  4002 TIP3 OH2  OT    -0.834000       15.9994           0
   54392 WT3  4002 TIP3 H1   HT     0.417000        1.0080           0
   54393 WT3  4002 TIP3 H2   HT     0.417000        1.0080           0
   54394 WT3  4003 TIP3 OH2  OT    -0.834000       15.9994           0
   54395 WT3  4003 TIP3 H1   HT     0.417000        1.0080           0
   54396 WT3  4003 TIP3 H2   HT     0.417000        1.0080           0
   54397 WT3  4004 TIP3 OH2  OT    -0.834000       15.9994           0
   54398 WT3  4004 TIP3 H1   HT     0.417000        1.0080           0
   54399 WT3  4004 TIP3 H2   HT     0.417000        1.0080           0
   54400 WT3  4005 TIP3 OH2  OT    -0.834000       15.9994           0
   54401 WT3  4005 TIP3 H1   HT     0.417000        1.0080           0
   54402 WT3  4005 TIP3 H2   HT     0.417000        1.0080           0
   54403 WT3  4006 TIP3 OH2  OT    -0.834000       15.9994           0
   54404 WT3  4006 TIP3 H1   HT     0.417000        1.0080           0
   54405 WT3  4006 TIP3 H2   HT     0.417000        1.0080           0
   54406 WT3  4007 TIP3 OH2  OT    -0.834000       15.9994           0
   54407 WT3  4007 TIP3 H1   HT     0.417000        1.0080           0
   54408 WT3  4007 TIP3 H2   HT     0.417000        1.0080           0
   54409 WT3  4008 TIP3 OH2  OT    -0.834000       15.9994           0
   54410 WT3  4008 TIP3 H1   HT     0.417000        1.0080           0
   54411 WT3  4008 TIP3 H2   HT     0.417000        1.0080           0
   54412 WT3  4010 TIP3 OH2  OT    -0.834000       15.9994           0
   54413 WT3  4010 TIP3 H1   HT     0.417000        1.0080           0
   54414 WT3  4010 TIP3 H2   HT     0.417000        1.0080           0
   54415 WT3  4012 TIP3 OH2  OT    -0.834000       15.9994           0
   54416 WT3  4012 TIP3 H1   HT     0.417000        1.0080           0
   54417 WT3  4012 TIP3 H2   HT     0.417000        1.0080           0
   54418 WT3  4013 TIP3 OH2  OT    -0.834000       15.9994           0
   54419 WT3  4013 TIP3 H1   HT     0.417000        1.0080           0
   54420 WT3  4013 TIP3 H2   HT     0.417000        1.0080           0
   54421 WT3  4014 TIP3 OH2  OT    -0.834000       15.9994           0
   54422 WT3  4014 TIP3 H1   HT     0.417000        1.0080           0
   54423 WT3  4014 TIP3 H2   HT     0.417000        1.0080           0
   54424 WT3  4015 TIP3 OH2  OT    -0.834000       15.9994           0
   54425 WT3  4015 TIP3 H1   HT     0.417000        1.0080           0
   54426 WT3  4015 TIP3 H2   HT     0.417000        1.0080           0
   54427 WT3  4016 TIP3 OH2  OT    -0.834000       15.9994           0
   54428 WT3  4016 TIP3 H1   HT     0.417000        1.0080           0
   54429 WT3  4016 TIP3 H2   HT     0.417000        1.0080           0
   54430 WT3  4017 TIP3 OH2  OT    -0.834000       15.9994           0
   54431 WT3  4017 TIP3 H1   HT     0.417000        1.0080           0
   54432 WT3  4017 TIP3 H2   HT     0.417000        1.0080           0
   54433 WT3  4018 TIP3 OH2  OT    -0.834000       15.9994           0
   54434 WT3  4018 TIP3 H1   HT     0.417000        1.0080           0
   54435 WT3  4018 TIP3 H2   HT     0.417000        1.0080           0
   54436 WT3  4019 TIP3 OH2  OT    -0.834000       15.9994           0
   54437 WT3  4019 TIP3 H1   HT     0.417000        1.0080           0
   54438 WT3  4019 TIP3 H2   HT     0.417000        1.0080           0
   54439 WT3  4020 TIP3 OH2  OT    -0.834000       15.9994           0
   54440 WT3  4020 TIP3 H1   HT     0.417000        1.0080           0
   54441 WT3  4020 TIP3 H2   HT     0.417000        1.0080           0
   54442 WT3  4021 TIP3 OH2  OT    -0.834000       15.9994           0
   54443 WT3  4021 TIP3 H1   HT     0.417000        1.0080           0
   54444 WT3  4021 TIP3 H2   HT     0.417000        1.0080           0
   54445 WT3  4022 TIP3 OH2  OT    -0.834000       15.9994           0
   54446 WT3  4022 TIP3 H1   HT     0.417000        1.0080           0
   54447 WT3  4022 TIP3 H2   HT     0.417000        1.0080           0
   54448 WT3  4025 TIP3 OH2  OT    -0.834000       15.9994           0
   54449 WT3  4025 TIP3 H1   HT     0.417000        1.0080           0
   54450 WT3  4025 TIP3 H2   HT     0.417000        1.0080           0
   54451 WT3  4026 TIP3 OH2  OT    -0.834000       15.9994           0
   54452 WT3  4026 TIP3 H1   HT     0.417000        1.0080           0
   54453 WT3  4026 TIP3 H2   HT     0.417000        1.0080           0
   54454 WT3  4027 TIP3 OH2  OT    -0.834000       15.9994           0
   54455 WT3  4027 TIP3 H1   HT     0.417000        1.0080           0
   54456 WT3  4027 TIP3 H2   HT     0.417000        1.0080           0
   54457 WT3  4030 TIP3 OH2  OT    -0.834000       15.9994           0
   54458 WT3  4030 TIP3 H1   HT     0.417000        1.0080           0
   54459 WT3  4030 TIP3 H2   HT     0.417000        1.0080           0
   54460 WT3  4033 TIP3 OH2  OT    -0.834000       15.9994           0
   54461 WT3  4033 TIP3 H1   HT     0.417000        1.0080           0
   54462 WT3  4033 TIP3 H2   HT     0.417000        1.0080           0
   54463 WT3  4034 TIP3 OH2  OT    -0.834000       15.9994           0
   54464 WT3  4034 TIP3 H1   HT     0.417000        1.0080           0
   54465 WT3  4034 TIP3 H2   HT     0.417000        1.0080           0
   54466 WT3  4035 TIP3 OH2  OT    -0.834000       15.9994           0
   54467 WT3  4035 TIP3 H1   HT     0.417000        1.0080           0
   54468 WT3  4035 TIP3 H2   HT     0.417000        1.0080           0
   54469 WT3  4036 TIP3 OH2  OT    -0.834000       15.9994           0
   54470 WT3  4036 TIP3 H1   HT     0.417000        1.0080           0
   54471 WT3  4036 TIP3 H2   HT     0.417000        1.0080           0
   54472 WT3  4037 TIP3 OH2  OT    -0.834000       15.9994           0
   54473 WT3  4037 TIP3 H1   HT     0.417000        1.0080           0
   54474 WT3  4037 TIP3 H2   HT     0.417000        1.0080           0
   54475 WT3  4038 TIP3 OH2  OT    -0.834000       15.9994           0
   54476 WT3  4038 TIP3 H1   HT     0.417000        1.0080           0
   54477 WT3  4038 TIP3 H2   HT     0.417000        1.0080           0
   54478 WT3  4039 TIP3 OH2  OT    -0.834000       15.9994           0
   54479 WT3  4039 TIP3 H1   HT     0.417000        1.0080           0
   54480 WT3  4039 TIP3 H2   HT     0.417000        1.0080           0
   54481 WT3  4040 TIP3 OH2  OT    -0.834000       15.9994           0
   54482 WT3  4040 TIP3 H1   HT     0.417000        1.0080           0
   54483 WT3  4040 TIP3 H2   HT     0.417000        1.0080           0
   54484 WT3  4041 TIP3 OH2  OT    -0.834000       15.9994           0
   54485 WT3  4041 TIP3 H1   HT     0.417000        1.0080           0
   54486 WT3  4041 TIP3 H2   HT     0.417000        1.0080           0
   54487 WT3  4042 TIP3 OH2  OT    -0.834000       15.9994           0
   54488 WT3  4042 TIP3 H1   HT     0.417000        1.0080           0
   54489 WT3  4042 TIP3 H2   HT     0.417000        1.0080           0
   54490 WT3  4043 TIP3 OH2  OT    -0.834000       15.9994           0
   54491 WT3  4043 TIP3 H1   HT     0.417000        1.0080           0
   54492 WT3  4043 TIP3 H2   HT     0.417000        1.0080           0
   54493 WT3  4044 TIP3 OH2  OT    -0.834000       15.9994           0
   54494 WT3  4044 TIP3 H1   HT     0.417000        1.0080           0
   54495 WT3  4044 TIP3 H2   HT     0.417000        1.0080           0
   54496 WT3  4045 TIP3 OH2  OT    -0.834000       15.9994           0
   54497 WT3  4045 TIP3 H1   HT     0.417000        1.0080           0
   54498 WT3  4045 TIP3 H2   HT     0.417000        1.0080           0
   54499 WT3  4046 TIP3 OH2  OT    -0.834000       15.9994           0
   54500 WT3  4046 TIP3 H1   HT     0.417000        1.0080           0
   54501 WT3  4046 TIP3 H2   HT     0.417000        1.0080           0
   54502 WT3  4047 TIP3 OH2  OT    -0.834000       15.9994           0
   54503 WT3  4047 TIP3 H1   HT     0.417000        1.0080           0
   54504 WT3  4047 TIP3 H2   HT     0.417000        1.0080           0
   54505 WT3  4050 TIP3 OH2  OT    -0.834000       15.9994           0
   54506 WT3  4050 TIP3 H1   HT     0.417000        1.0080           0
   54507 WT3  4050 TIP3 H2   HT     0.417000        1.0080           0
   54508 WT3  4053 TIP3 OH2  OT    -0.834000       15.9994           0
   54509 WT3  4053 TIP3 H1   HT     0.417000        1.0080           0
   54510 WT3  4053 TIP3 H2   HT     0.417000        1.0080           0
   54511 WT3  4054 TIP3 OH2  OT    -0.834000       15.9994           0
   54512 WT3  4054 TIP3 H1   HT     0.417000        1.0080           0
   54513 WT3  4054 TIP3 H2   HT     0.417000        1.0080           0
   54514 WT3  4055 TIP3 OH2  OT    -0.834000       15.9994           0
   54515 WT3  4055 TIP3 H1   HT     0.417000        1.0080           0
   54516 WT3  4055 TIP3 H2   HT     0.417000        1.0080           0
   54517 WT3  4056 TIP3 OH2  OT    -0.834000       15.9994           0
   54518 WT3  4056 TIP3 H1   HT     0.417000        1.0080           0
   54519 WT3  4056 TIP3 H2   HT     0.417000        1.0080           0
   54520 WT3  4057 TIP3 OH2  OT    -0.834000       15.9994           0
   54521 WT3  4057 TIP3 H1   HT     0.417000        1.0080           0
   54522 WT3  4057 TIP3 H2   HT     0.417000        1.0080           0
   54523 WT3  4059 TIP3 OH2  OT    -0.834000       15.9994           0
   54524 WT3  4059 TIP3 H1   HT     0.417000        1.0080           0
   54525 WT3  4059 TIP3 H2   HT     0.417000        1.0080           0
   54526 WT3  4060 TIP3 OH2  OT    -0.834000       15.9994           0
   54527 WT3  4060 TIP3 H1   HT     0.417000        1.0080           0
   54528 WT3  4060 TIP3 H2   HT     0.417000        1.0080           0
   54529 WT3  4061 TIP3 OH2  OT    -0.834000       15.9994           0
   54530 WT3  4061 TIP3 H1   HT     0.417000        1.0080           0
   54531 WT3  4061 TIP3 H2   HT     0.417000        1.0080           0
   54532 WT3  4062 TIP3 OH2  OT    -0.834000       15.9994           0
   54533 WT3  4062 TIP3 H1   HT     0.417000        1.0080           0
   54534 WT3  4062 TIP3 H2   HT     0.417000        1.0080           0
   54535 WT3  4063 TIP3 OH2  OT    -0.834000       15.9994           0
   54536 WT3  4063 TIP3 H1   HT     0.417000        1.0080           0
   54537 WT3  4063 TIP3 H2   HT     0.417000        1.0080           0
   54538 WT3  4064 TIP3 OH2  OT    -0.834000       15.9994           0
   54539 WT3  4064 TIP3 H1   HT     0.417000        1.0080           0
   54540 WT3  4064 TIP3 H2   HT     0.417000        1.0080           0
   54541 WT3  4065 TIP3 OH2  OT    -0.834000       15.9994           0
   54542 WT3  4065 TIP3 H1   HT     0.417000        1.0080           0
   54543 WT3  4065 TIP3 H2   HT     0.417000        1.0080           0
   54544 WT3  4066 TIP3 OH2  OT    -0.834000       15.9994           0
   54545 WT3  4066 TIP3 H1   HT     0.417000        1.0080           0
   54546 WT3  4066 TIP3 H2   HT     0.417000        1.0080           0
   54547 WT3  4067 TIP3 OH2  OT    -0.834000       15.9994           0
   54548 WT3  4067 TIP3 H1   HT     0.417000        1.0080           0
   54549 WT3  4067 TIP3 H2   HT     0.417000        1.0080           0
   54550 WT3  4068 TIP3 OH2  OT    -0.834000       15.9994           0
   54551 WT3  4068 TIP3 H1   HT     0.417000        1.0080           0
   54552 WT3  4068 TIP3 H2   HT     0.417000        1.0080           0
   54553 WT3  4072 TIP3 OH2  OT    -0.834000       15.9994           0
   54554 WT3  4072 TIP3 H1   HT     0.417000        1.0080           0
   54555 WT3  4072 TIP3 H2   HT     0.417000        1.0080           0
   54556 WT3  4073 TIP3 OH2  OT    -0.834000       15.9994           0
   54557 WT3  4073 TIP3 H1   HT     0.417000        1.0080           0
   54558 WT3  4073 TIP3 H2   HT     0.417000        1.0080           0
   54559 WT3  4074 TIP3 OH2  OT    -0.834000       15.9994           0
   54560 WT3  4074 TIP3 H1   HT     0.417000        1.0080           0
   54561 WT3  4074 TIP3 H2   HT     0.417000        1.0080           0
   54562 WT3  4075 TIP3 OH2  OT    -0.834000       15.9994           0
   54563 WT3  4075 TIP3 H1   HT     0.417000        1.0080           0
   54564 WT3  4075 TIP3 H2   HT     0.417000        1.0080           0
   54565 WT3  4076 TIP3 OH2  OT    -0.834000       15.9994           0
   54566 WT3  4076 TIP3 H1   HT     0.417000        1.0080           0
   54567 WT3  4076 TIP3 H2   HT     0.417000        1.0080           0
   54568 WT3  4077 TIP3 OH2  OT    -0.834000       15.9994           0
   54569 WT3  4077 TIP3 H1   HT     0.417000        1.0080           0
   54570 WT3  4077 TIP3 H2   HT     0.417000        1.0080           0
   54571 WT3  4078 TIP3 OH2  OT    -0.834000       15.9994           0
   54572 WT3  4078 TIP3 H1   HT     0.417000        1.0080           0
   54573 WT3  4078 TIP3 H2   HT     0.417000        1.0080           0
   54574 WT3  4079 TIP3 OH2  OT    -0.834000       15.9994           0
   54575 WT3  4079 TIP3 H1   HT     0.417000        1.0080           0
   54576 WT3  4079 TIP3 H2   HT     0.417000        1.0080           0
   54577 WT3  4080 TIP3 OH2  OT    -0.834000       15.9994           0
   54578 WT3  4080 TIP3 H1   HT     0.417000        1.0080           0
   54579 WT3  4080 TIP3 H2   HT     0.417000        1.0080           0
   54580 WT3  4081 TIP3 OH2  OT    -0.834000       15.9994           0
   54581 WT3  4081 TIP3 H1   HT     0.417000        1.0080           0
   54582 WT3  4081 TIP3 H2   HT     0.417000        1.0080           0
   54583 WT3  4082 TIP3 OH2  OT    -0.834000       15.9994           0
   54584 WT3  4082 TIP3 H1   HT     0.417000        1.0080           0
   54585 WT3  4082 TIP3 H2   HT     0.417000        1.0080           0
   54586 WT3  4083 TIP3 OH2  OT    -0.834000       15.9994           0
   54587 WT3  4083 TIP3 H1   HT     0.417000        1.0080           0
   54588 WT3  4083 TIP3 H2   HT     0.417000        1.0080           0
   54589 WT3  4084 TIP3 OH2  OT    -0.834000       15.9994           0
   54590 WT3  4084 TIP3 H1   HT     0.417000        1.0080           0
   54591 WT3  4084 TIP3 H2   HT     0.417000        1.0080           0
   54592 WT3  4085 TIP3 OH2  OT    -0.834000       15.9994           0
   54593 WT3  4085 TIP3 H1   HT     0.417000        1.0080           0
   54594 WT3  4085 TIP3 H2   HT     0.417000        1.0080           0
   54595 WT3  4086 TIP3 OH2  OT    -0.834000       15.9994           0
   54596 WT3  4086 TIP3 H1   HT     0.417000        1.0080           0
   54597 WT3  4086 TIP3 H2   HT     0.417000        1.0080           0
   54598 WT3  4087 TIP3 OH2  OT    -0.834000       15.9994           0
   54599 WT3  4087 TIP3 H1   HT     0.417000        1.0080           0
   54600 WT3  4087 TIP3 H2   HT     0.417000        1.0080           0
   54601 WT3  4088 TIP3 OH2  OT    -0.834000       15.9994           0
   54602 WT3  4088 TIP3 H1   HT     0.417000        1.0080           0
   54603 WT3  4088 TIP3 H2   HT     0.417000        1.0080           0
   54604 WT3  4089 TIP3 OH2  OT    -0.834000       15.9994           0
   54605 WT3  4089 TIP3 H1   HT     0.417000        1.0080           0
   54606 WT3  4089 TIP3 H2   HT     0.417000        1.0080           0
   54607 WT3  4091 TIP3 OH2  OT    -0.834000       15.9994           0
   54608 WT3  4091 TIP3 H1   HT     0.417000        1.0080           0
   54609 WT3  4091 TIP3 H2   HT     0.417000        1.0080           0
   54610 WT3  4092 TIP3 OH2  OT    -0.834000       15.9994           0
   54611 WT3  4092 TIP3 H1   HT     0.417000        1.0080           0
   54612 WT3  4092 TIP3 H2   HT     0.417000        1.0080           0
   54613 WT3  4093 TIP3 OH2  OT    -0.834000       15.9994           0
   54614 WT3  4093 TIP3 H1   HT     0.417000        1.0080           0
   54615 WT3  4093 TIP3 H2   HT     0.417000        1.0080           0
   54616 WT3  4095 TIP3 OH2  OT    -0.834000       15.9994           0
   54617 WT3  4095 TIP3 H1   HT     0.417000        1.0080           0
   54618 WT3  4095 TIP3 H2   HT     0.417000        1.0080           0
   54619 WT3  4096 TIP3 OH2  OT    -0.834000       15.9994           0
   54620 WT3  4096 TIP3 H1   HT     0.417000        1.0080           0
   54621 WT3  4096 TIP3 H2   HT     0.417000        1.0080           0
   54622 WT3  4097 TIP3 OH2  OT    -0.834000       15.9994           0
   54623 WT3  4097 TIP3 H1   HT     0.417000        1.0080           0
   54624 WT3  4097 TIP3 H2   HT     0.417000        1.0080           0
   54625 WT3  4098 TIP3 OH2  OT    -0.834000       15.9994           0
   54626 WT3  4098 TIP3 H1   HT     0.417000        1.0080           0
   54627 WT3  4098 TIP3 H2   HT     0.417000        1.0080           0
   54628 WT3  4099 TIP3 OH2  OT    -0.834000       15.9994           0
   54629 WT3  4099 TIP3 H1   HT     0.417000        1.0080           0
   54630 WT3  4099 TIP3 H2   HT     0.417000        1.0080           0
   54631 WT3  4101 TIP3 OH2  OT    -0.834000       15.9994           0
   54632 WT3  4101 TIP3 H1   HT     0.417000        1.0080           0
   54633 WT3  4101 TIP3 H2   HT     0.417000        1.0080           0
   54634 WT3  4102 TIP3 OH2  OT    -0.834000       15.9994           0
   54635 WT3  4102 TIP3 H1   HT     0.417000        1.0080           0
   54636 WT3  4102 TIP3 H2   HT     0.417000        1.0080           0
   54637 WT3  4103 TIP3 OH2  OT    -0.834000       15.9994           0
   54638 WT3  4103 TIP3 H1   HT     0.417000        1.0080           0
   54639 WT3  4103 TIP3 H2   HT     0.417000        1.0080           0
   54640 WT3  4104 TIP3 OH2  OT    -0.834000       15.9994           0
   54641 WT3  4104 TIP3 H1   HT     0.417000        1.0080           0
   54642 WT3  4104 TIP3 H2   HT     0.417000        1.0080           0
   54643 WT3  4105 TIP3 OH2  OT    -0.834000       15.9994           0
   54644 WT3  4105 TIP3 H1   HT     0.417000        1.0080           0
   54645 WT3  4105 TIP3 H2   HT     0.417000        1.0080           0
   54646 WT3  4106 TIP3 OH2  OT    -0.834000       15.9994           0
   54647 WT3  4106 TIP3 H1   HT     0.417000        1.0080           0
   54648 WT3  4106 TIP3 H2   HT     0.417000        1.0080           0
   54649 WT3  4107 TIP3 OH2  OT    -0.834000       15.9994           0
   54650 WT3  4107 TIP3 H1   HT     0.417000        1.0080           0
   54651 WT3  4107 TIP3 H2   HT     0.417000        1.0080           0
   54652 WT3  4108 TIP3 OH2  OT    -0.834000       15.9994           0
   54653 WT3  4108 TIP3 H1   HT     0.417000        1.0080           0
   54654 WT3  4108 TIP3 H2   HT     0.417000        1.0080           0
   54655 WT3  4109 TIP3 OH2  OT    -0.834000       15.9994           0
   54656 WT3  4109 TIP3 H1   HT     0.417000        1.0080           0
   54657 WT3  4109 TIP3 H2   HT     0.417000        1.0080           0
   54658 WT3  4110 TIP3 OH2  OT    -0.834000       15.9994           0
   54659 WT3  4110 TIP3 H1   HT     0.417000        1.0080           0
   54660 WT3  4110 TIP3 H2   HT     0.417000        1.0080           0
   54661 WT3  4111 TIP3 OH2  OT    -0.834000       15.9994           0
   54662 WT3  4111 TIP3 H1   HT     0.417000        1.0080           0
   54663 WT3  4111 TIP3 H2   HT     0.417000        1.0080           0
   54664 WT3  4114 TIP3 OH2  OT    -0.834000       15.9994           0
   54665 WT3  4114 TIP3 H1   HT     0.417000        1.0080           0
   54666 WT3  4114 TIP3 H2   HT     0.417000        1.0080           0
   54667 WT3  4115 TIP3 OH2  OT    -0.834000       15.9994           0
   54668 WT3  4115 TIP3 H1   HT     0.417000        1.0080           0
   54669 WT3  4115 TIP3 H2   HT     0.417000        1.0080           0
   54670 WT3  4116 TIP3 OH2  OT    -0.834000       15.9994           0
   54671 WT3  4116 TIP3 H1   HT     0.417000        1.0080           0
   54672 WT3  4116 TIP3 H2   HT     0.417000        1.0080           0
   54673 WT3  4117 TIP3 OH2  OT    -0.834000       15.9994           0
   54674 WT3  4117 TIP3 H1   HT     0.417000        1.0080           0
   54675 WT3  4117 TIP3 H2   HT     0.417000        1.0080           0
   54676 WT3  4118 TIP3 OH2  OT    -0.834000       15.9994           0
   54677 WT3  4118 TIP3 H1   HT     0.417000        1.0080           0
   54678 WT3  4118 TIP3 H2   HT     0.417000        1.0080           0
   54679 WT3  4119 TIP3 OH2  OT    -0.834000       15.9994           0
   54680 WT3  4119 TIP3 H1   HT     0.417000        1.0080           0
   54681 WT3  4119 TIP3 H2   HT     0.417000        1.0080           0
   54682 WT3  4120 TIP3 OH2  OT    -0.834000       15.9994           0
   54683 WT3  4120 TIP3 H1   HT     0.417000        1.0080           0
   54684 WT3  4120 TIP3 H2   HT     0.417000        1.0080           0
   54685 WT3  4121 TIP3 OH2  OT    -0.834000       15.9994           0
   54686 WT3  4121 TIP3 H1   HT     0.417000        1.0080           0
   54687 WT3  4121 TIP3 H2   HT     0.417000        1.0080           0
   54688 WT3  4122 TIP3 OH2  OT    -0.834000       15.9994           0
   54689 WT3  4122 TIP3 H1   HT     0.417000        1.0080           0
   54690 WT3  4122 TIP3 H2   HT     0.417000        1.0080           0
   54691 WT3  4123 TIP3 OH2  OT    -0.834000       15.9994           0
   54692 WT3  4123 TIP3 H1   HT     0.417000        1.0080           0
   54693 WT3  4123 TIP3 H2   HT     0.417000        1.0080           0
   54694 WT3  4124 TIP3 OH2  OT    -0.834000       15.9994           0
   54695 WT3  4124 TIP3 H1   HT     0.417000        1.0080           0
   54696 WT3  4124 TIP3 H2   HT     0.417000        1.0080           0
   54697 WT3  4125 TIP3 OH2  OT    -0.834000       15.9994           0
   54698 WT3  4125 TIP3 H1   HT     0.417000        1.0080           0
   54699 WT3  4125 TIP3 H2   HT     0.417000        1.0080           0
   54700 WT3  4126 TIP3 OH2  OT    -0.834000       15.9994           0
   54701 WT3  4126 TIP3 H1   HT     0.417000        1.0080           0
   54702 WT3  4126 TIP3 H2   HT     0.417000        1.0080           0
   54703 WT3  4127 TIP3 OH2  OT    -0.834000       15.9994           0
   54704 WT3  4127 TIP3 H1   HT     0.417000        1.0080           0
   54705 WT3  4127 TIP3 H2   HT     0.417000        1.0080           0
   54706 WT3  4128 TIP3 OH2  OT    -0.834000       15.9994           0
   54707 WT3  4128 TIP3 H1   HT     0.417000        1.0080           0
   54708 WT3  4128 TIP3 H2   HT     0.417000        1.0080           0
   54709 WT3  4129 TIP3 OH2  OT    -0.834000       15.9994           0
   54710 WT3  4129 TIP3 H1   HT     0.417000        1.0080           0
   54711 WT3  4129 TIP3 H2   HT     0.417000        1.0080           0
   54712 WT3  4131 TIP3 OH2  OT    -0.834000       15.9994           0
   54713 WT3  4131 TIP3 H1   HT     0.417000        1.0080           0
   54714 WT3  4131 TIP3 H2   HT     0.417000        1.0080           0
   54715 WT3  4133 TIP3 OH2  OT    -0.834000       15.9994           0
   54716 WT3  4133 TIP3 H1   HT     0.417000        1.0080           0
   54717 WT3  4133 TIP3 H2   HT     0.417000        1.0080           0
   54718 WT3  4134 TIP3 OH2  OT    -0.834000       15.9994           0
   54719 WT3  4134 TIP3 H1   HT     0.417000        1.0080           0
   54720 WT3  4134 TIP3 H2   HT     0.417000        1.0080           0
   54721 WT3  4135 TIP3 OH2  OT    -0.834000       15.9994           0
   54722 WT3  4135 TIP3 H1   HT     0.417000        1.0080           0
   54723 WT3  4135 TIP3 H2   HT     0.417000        1.0080           0
   54724 WT3  4136 TIP3 OH2  OT    -0.834000       15.9994           0
   54725 WT3  4136 TIP3 H1   HT     0.417000        1.0080           0
   54726 WT3  4136 TIP3 H2   HT     0.417000        1.0080           0
   54727 WT3  4138 TIP3 OH2  OT    -0.834000       15.9994           0
   54728 WT3  4138 TIP3 H1   HT     0.417000        1.0080           0
   54729 WT3  4138 TIP3 H2   HT     0.417000        1.0080           0
   54730 WT3  4139 TIP3 OH2  OT    -0.834000       15.9994           0
   54731 WT3  4139 TIP3 H1   HT     0.417000        1.0080           0
   54732 WT3  4139 TIP3 H2   HT     0.417000        1.0080           0
   54733 WT3  4140 TIP3 OH2  OT    -0.834000       15.9994           0
   54734 WT3  4140 TIP3 H1   HT     0.417000        1.0080           0
   54735 WT3  4140 TIP3 H2   HT     0.417000        1.0080           0
   54736 WT3  4141 TIP3 OH2  OT    -0.834000       15.9994           0
   54737 WT3  4141 TIP3 H1   HT     0.417000        1.0080           0
   54738 WT3  4141 TIP3 H2   HT     0.417000        1.0080           0
   54739 WT3  4142 TIP3 OH2  OT    -0.834000       15.9994           0
   54740 WT3  4142 TIP3 H1   HT     0.417000        1.0080           0
   54741 WT3  4142 TIP3 H2   HT     0.417000        1.0080           0
   54742 WT3  4143 TIP3 OH2  OT    -0.834000       15.9994           0
   54743 WT3  4143 TIP3 H1   HT     0.417000        1.0080           0
   54744 WT3  4143 TIP3 H2   HT     0.417000        1.0080           0
   54745 WT3  4144 TIP3 OH2  OT    -0.834000       15.9994           0
   54746 WT3  4144 TIP3 H1   HT     0.417000        1.0080           0
   54747 WT3  4144 TIP3 H2   HT     0.417000        1.0080           0
   54748 WT3  4145 TIP3 OH2  OT    -0.834000       15.9994           0
   54749 WT3  4145 TIP3 H1   HT     0.417000        1.0080           0
   54750 WT3  4145 TIP3 H2   HT     0.417000        1.0080           0
   54751 WT3  4146 TIP3 OH2  OT    -0.834000       15.9994           0
   54752 WT3  4146 TIP3 H1   HT     0.417000        1.0080           0
   54753 WT3  4146 TIP3 H2   HT     0.417000        1.0080           0
   54754 WT3  4147 TIP3 OH2  OT    -0.834000       15.9994           0
   54755 WT3  4147 TIP3 H1   HT     0.417000        1.0080           0
   54756 WT3  4147 TIP3 H2   HT     0.417000        1.0080           0
   54757 WT3  4148 TIP3 OH2  OT    -0.834000       15.9994           0
   54758 WT3  4148 TIP3 H1   HT     0.417000        1.0080           0
   54759 WT3  4148 TIP3 H2   HT     0.417000        1.0080           0
   54760 WT3  4149 TIP3 OH2  OT    -0.834000       15.9994           0
   54761 WT3  4149 TIP3 H1   HT     0.417000        1.0080           0
   54762 WT3  4149 TIP3 H2   HT     0.417000        1.0080           0
   54763 WT3  4150 TIP3 OH2  OT    -0.834000       15.9994           0
   54764 WT3  4150 TIP3 H1   HT     0.417000        1.0080           0
   54765 WT3  4150 TIP3 H2   HT     0.417000        1.0080           0
   54766 WT3  4151 TIP3 OH2  OT    -0.834000       15.9994           0
   54767 WT3  4151 TIP3 H1   HT     0.417000        1.0080           0
   54768 WT3  4151 TIP3 H2   HT     0.417000        1.0080           0
   54769 WT3  4152 TIP3 OH2  OT    -0.834000       15.9994           0
   54770 WT3  4152 TIP3 H1   HT     0.417000        1.0080           0
   54771 WT3  4152 TIP3 H2   HT     0.417000        1.0080           0
   54772 WT3  4154 TIP3 OH2  OT    -0.834000       15.9994           0
   54773 WT3  4154 TIP3 H1   HT     0.417000        1.0080           0
   54774 WT3  4154 TIP3 H2   HT     0.417000        1.0080           0
   54775 WT3  4155 TIP3 OH2  OT    -0.834000       15.9994           0
   54776 WT3  4155 TIP3 H1   HT     0.417000        1.0080           0
   54777 WT3  4155 TIP3 H2   HT     0.417000        1.0080           0
   54778 WT3  4156 TIP3 OH2  OT    -0.834000       15.9994           0
   54779 WT3  4156 TIP3 H1   HT     0.417000        1.0080           0
   54780 WT3  4156 TIP3 H2   HT     0.417000        1.0080           0
   54781 WT3  4157 TIP3 OH2  OT    -0.834000       15.9994           0
   54782 WT3  4157 TIP3 H1   HT     0.417000        1.0080           0
   54783 WT3  4157 TIP3 H2   HT     0.417000        1.0080           0
   54784 WT3  4158 TIP3 OH2  OT    -0.834000       15.9994           0
   54785 WT3  4158 TIP3 H1   HT     0.417000        1.0080           0
   54786 WT3  4158 TIP3 H2   HT     0.417000        1.0080           0
   54787 WT3  4159 TIP3 OH2  OT    -0.834000       15.9994           0
   54788 WT3  4159 TIP3 H1   HT     0.417000        1.0080           0
   54789 WT3  4159 TIP3 H2   HT     0.417000        1.0080           0
   54790 WT3  4160 TIP3 OH2  OT    -0.834000       15.9994           0
   54791 WT3  4160 TIP3 H1   HT     0.417000        1.0080           0
   54792 WT3  4160 TIP3 H2   HT     0.417000        1.0080           0
   54793 WT3  4161 TIP3 OH2  OT    -0.834000       15.9994           0
   54794 WT3  4161 TIP3 H1   HT     0.417000        1.0080           0
   54795 WT3  4161 TIP3 H2   HT     0.417000        1.0080           0
   54796 WT3  4162 TIP3 OH2  OT    -0.834000       15.9994           0
   54797 WT3  4162 TIP3 H1   HT     0.417000        1.0080           0
   54798 WT3  4162 TIP3 H2   HT     0.417000        1.0080           0
   54799 WT3  4163 TIP3 OH2  OT    -0.834000       15.9994           0
   54800 WT3  4163 TIP3 H1   HT     0.417000        1.0080           0
   54801 WT3  4163 TIP3 H2   HT     0.417000        1.0080           0
   54802 WT3  4164 TIP3 OH2  OT    -0.834000       15.9994           0
   54803 WT3  4164 TIP3 H1   HT     0.417000        1.0080           0
   54804 WT3  4164 TIP3 H2   HT     0.417000        1.0080           0
   54805 WT3  4165 TIP3 OH2  OT    -0.834000       15.9994           0
   54806 WT3  4165 TIP3 H1   HT     0.417000        1.0080           0
   54807 WT3  4165 TIP3 H2   HT     0.417000        1.0080           0
   54808 WT3  4166 TIP3 OH2  OT    -0.834000       15.9994           0
   54809 WT3  4166 TIP3 H1   HT     0.417000        1.0080           0
   54810 WT3  4166 TIP3 H2   HT     0.417000        1.0080           0
   54811 WT3  4167 TIP3 OH2  OT    -0.834000       15.9994           0
   54812 WT3  4167 TIP3 H1   HT     0.417000        1.0080           0
   54813 WT3  4167 TIP3 H2   HT     0.417000        1.0080           0
   54814 WT3  4168 TIP3 OH2  OT    -0.834000       15.9994           0
   54815 WT3  4168 TIP3 H1   HT     0.417000        1.0080           0
   54816 WT3  4168 TIP3 H2   HT     0.417000        1.0080           0
   54817 WT3  4170 TIP3 OH2  OT    -0.834000       15.9994           0
   54818 WT3  4170 TIP3 H1   HT     0.417000        1.0080           0
   54819 WT3  4170 TIP3 H2   HT     0.417000        1.0080           0
   54820 WT3  4171 TIP3 OH2  OT    -0.834000       15.9994           0
   54821 WT3  4171 TIP3 H1   HT     0.417000        1.0080           0
   54822 WT3  4171 TIP3 H2   HT     0.417000        1.0080           0
   54823 WT3  4172 TIP3 OH2  OT    -0.834000       15.9994           0
   54824 WT3  4172 TIP3 H1   HT     0.417000        1.0080           0
   54825 WT3  4172 TIP3 H2   HT     0.417000        1.0080           0
   54826 WT3  4174 TIP3 OH2  OT    -0.834000       15.9994           0
   54827 WT3  4174 TIP3 H1   HT     0.417000        1.0080           0
   54828 WT3  4174 TIP3 H2   HT     0.417000        1.0080           0
   54829 WT3  4175 TIP3 OH2  OT    -0.834000       15.9994           0
   54830 WT3  4175 TIP3 H1   HT     0.417000        1.0080           0
   54831 WT3  4175 TIP3 H2   HT     0.417000        1.0080           0
   54832 WT3  4176 TIP3 OH2  OT    -0.834000       15.9994           0
   54833 WT3  4176 TIP3 H1   HT     0.417000        1.0080           0
   54834 WT3  4176 TIP3 H2   HT     0.417000        1.0080           0
   54835 WT3  4177 TIP3 OH2  OT    -0.834000       15.9994           0
   54836 WT3  4177 TIP3 H1   HT     0.417000        1.0080           0
   54837 WT3  4177 TIP3 H2   HT     0.417000        1.0080           0
   54838 WT3  4179 TIP3 OH2  OT    -0.834000       15.9994           0
   54839 WT3  4179 TIP3 H1   HT     0.417000        1.0080           0
   54840 WT3  4179 TIP3 H2   HT     0.417000        1.0080           0
   54841 WT3  4181 TIP3 OH2  OT    -0.834000       15.9994           0
   54842 WT3  4181 TIP3 H1   HT     0.417000        1.0080           0
   54843 WT3  4181 TIP3 H2   HT     0.417000        1.0080           0
   54844 WT3  4182 TIP3 OH2  OT    -0.834000       15.9994           0
   54845 WT3  4182 TIP3 H1   HT     0.417000        1.0080           0
   54846 WT3  4182 TIP3 H2   HT     0.417000        1.0080           0
   54847 WT3  4183 TIP3 OH2  OT    -0.834000       15.9994           0
   54848 WT3  4183 TIP3 H1   HT     0.417000        1.0080           0
   54849 WT3  4183 TIP3 H2   HT     0.417000        1.0080           0
   54850 WT3  4184 TIP3 OH2  OT    -0.834000       15.9994           0
   54851 WT3  4184 TIP3 H1   HT     0.417000        1.0080           0
   54852 WT3  4184 TIP3 H2   HT     0.417000        1.0080           0
   54853 WT3  4185 TIP3 OH2  OT    -0.834000       15.9994           0
   54854 WT3  4185 TIP3 H1   HT     0.417000        1.0080           0
   54855 WT3  4185 TIP3 H2   HT     0.417000        1.0080           0
   54856 WT3  4186 TIP3 OH2  OT    -0.834000       15.9994           0
   54857 WT3  4186 TIP3 H1   HT     0.417000        1.0080           0
   54858 WT3  4186 TIP3 H2   HT     0.417000        1.0080           0
   54859 WT3  4187 TIP3 OH2  OT    -0.834000       15.9994           0
   54860 WT3  4187 TIP3 H1   HT     0.417000        1.0080           0
   54861 WT3  4187 TIP3 H2   HT     0.417000        1.0080           0
   54862 WT3  4188 TIP3 OH2  OT    -0.834000       15.9994           0
   54863 WT3  4188 TIP3 H1   HT     0.417000        1.0080           0
   54864 WT3  4188 TIP3 H2   HT     0.417000        1.0080           0
   54865 WT3  4189 TIP3 OH2  OT    -0.834000       15.9994           0
   54866 WT3  4189 TIP3 H1   HT     0.417000        1.0080           0
   54867 WT3  4189 TIP3 H2   HT     0.417000        1.0080           0
   54868 WT3  4190 TIP3 OH2  OT    -0.834000       15.9994           0
   54869 WT3  4190 TIP3 H1   HT     0.417000        1.0080           0
   54870 WT3  4190 TIP3 H2   HT     0.417000        1.0080           0
   54871 WT3  4191 TIP3 OH2  OT    -0.834000       15.9994           0
   54872 WT3  4191 TIP3 H1   HT     0.417000        1.0080           0
   54873 WT3  4191 TIP3 H2   HT     0.417000        1.0080           0
   54874 WT3  4192 TIP3 OH2  OT    -0.834000       15.9994           0
   54875 WT3  4192 TIP3 H1   HT     0.417000        1.0080           0
   54876 WT3  4192 TIP3 H2   HT     0.417000        1.0080           0
   54877 WT3  4193 TIP3 OH2  OT    -0.834000       15.9994           0
   54878 WT3  4193 TIP3 H1   HT     0.417000        1.0080           0
   54879 WT3  4193 TIP3 H2   HT     0.417000        1.0080           0
   54880 WT3  4195 TIP3 OH2  OT    -0.834000       15.9994           0
   54881 WT3  4195 TIP3 H1   HT     0.417000        1.0080           0
   54882 WT3  4195 TIP3 H2   HT     0.417000        1.0080           0
   54883 WT3  4196 TIP3 OH2  OT    -0.834000       15.9994           0
   54884 WT3  4196 TIP3 H1   HT     0.417000        1.0080           0
   54885 WT3  4196 TIP3 H2   HT     0.417000        1.0080           0
   54886 WT3  4198 TIP3 OH2  OT    -0.834000       15.9994           0
   54887 WT3  4198 TIP3 H1   HT     0.417000        1.0080           0
   54888 WT3  4198 TIP3 H2   HT     0.417000        1.0080           0
   54889 WT3  4199 TIP3 OH2  OT    -0.834000       15.9994           0
   54890 WT3  4199 TIP3 H1   HT     0.417000        1.0080           0
   54891 WT3  4199 TIP3 H2   HT     0.417000        1.0080           0
   54892 WT3  4200 TIP3 OH2  OT    -0.834000       15.9994           0
   54893 WT3  4200 TIP3 H1   HT     0.417000        1.0080           0
   54894 WT3  4200 TIP3 H2   HT     0.417000        1.0080           0
   54895 WT3  4201 TIP3 OH2  OT    -0.834000       15.9994           0
   54896 WT3  4201 TIP3 H1   HT     0.417000        1.0080           0
   54897 WT3  4201 TIP3 H2   HT     0.417000        1.0080           0
   54898 WT3  4202 TIP3 OH2  OT    -0.834000       15.9994           0
   54899 WT3  4202 TIP3 H1   HT     0.417000        1.0080           0
   54900 WT3  4202 TIP3 H2   HT     0.417000        1.0080           0
   54901 WT3  4205 TIP3 OH2  OT    -0.834000       15.9994           0
   54902 WT3  4205 TIP3 H1   HT     0.417000        1.0080           0
   54903 WT3  4205 TIP3 H2   HT     0.417000        1.0080           0
   54904 WT3  4207 TIP3 OH2  OT    -0.834000       15.9994           0
   54905 WT3  4207 TIP3 H1   HT     0.417000        1.0080           0
   54906 WT3  4207 TIP3 H2   HT     0.417000        1.0080           0
   54907 WT3  4208 TIP3 OH2  OT    -0.834000       15.9994           0
   54908 WT3  4208 TIP3 H1   HT     0.417000        1.0080           0
   54909 WT3  4208 TIP3 H2   HT     0.417000        1.0080           0
   54910 WT3  4209 TIP3 OH2  OT    -0.834000       15.9994           0
   54911 WT3  4209 TIP3 H1   HT     0.417000        1.0080           0
   54912 WT3  4209 TIP3 H2   HT     0.417000        1.0080           0
   54913 WT3  4210 TIP3 OH2  OT    -0.834000       15.9994           0
   54914 WT3  4210 TIP3 H1   HT     0.417000        1.0080           0
   54915 WT3  4210 TIP3 H2   HT     0.417000        1.0080           0
   54916 WT3  4211 TIP3 OH2  OT    -0.834000       15.9994           0
   54917 WT3  4211 TIP3 H1   HT     0.417000        1.0080           0
   54918 WT3  4211 TIP3 H2   HT     0.417000        1.0080           0
   54919 WT3  4212 TIP3 OH2  OT    -0.834000       15.9994           0
   54920 WT3  4212 TIP3 H1   HT     0.417000        1.0080           0
   54921 WT3  4212 TIP3 H2   HT     0.417000        1.0080           0
   54922 WT3  4215 TIP3 OH2  OT    -0.834000       15.9994           0
   54923 WT3  4215 TIP3 H1   HT     0.417000        1.0080           0
   54924 WT3  4215 TIP3 H2   HT     0.417000        1.0080           0
   54925 WT3  4216 TIP3 OH2  OT    -0.834000       15.9994           0
   54926 WT3  4216 TIP3 H1   HT     0.417000        1.0080           0
   54927 WT3  4216 TIP3 H2   HT     0.417000        1.0080           0
   54928 WT3  4217 TIP3 OH2  OT    -0.834000       15.9994           0
   54929 WT3  4217 TIP3 H1   HT     0.417000        1.0080           0
   54930 WT3  4217 TIP3 H2   HT     0.417000        1.0080           0
   54931 WT3  4218 TIP3 OH2  OT    -0.834000       15.9994           0
   54932 WT3  4218 TIP3 H1   HT     0.417000        1.0080           0
   54933 WT3  4218 TIP3 H2   HT     0.417000        1.0080           0
   54934 WT3  4219 TIP3 OH2  OT    -0.834000       15.9994           0
   54935 WT3  4219 TIP3 H1   HT     0.417000        1.0080           0
   54936 WT3  4219 TIP3 H2   HT     0.417000        1.0080           0
   54937 WT3  4224 TIP3 OH2  OT    -0.834000       15.9994           0
   54938 WT3  4224 TIP3 H1   HT     0.417000        1.0080           0
   54939 WT3  4224 TIP3 H2   HT     0.417000        1.0080           0
   54940 WT3  4225 TIP3 OH2  OT    -0.834000       15.9994           0
   54941 WT3  4225 TIP3 H1   HT     0.417000        1.0080           0
   54942 WT3  4225 TIP3 H2   HT     0.417000        1.0080           0
   54943 WT3  4227 TIP3 OH2  OT    -0.834000       15.9994           0
   54944 WT3  4227 TIP3 H1   HT     0.417000        1.0080           0
   54945 WT3  4227 TIP3 H2   HT     0.417000        1.0080           0
   54946 WT3  4228 TIP3 OH2  OT    -0.834000       15.9994           0
   54947 WT3  4228 TIP3 H1   HT     0.417000        1.0080           0
   54948 WT3  4228 TIP3 H2   HT     0.417000        1.0080           0
   54949 WT3  4230 TIP3 OH2  OT    -0.834000       15.9994           0
   54950 WT3  4230 TIP3 H1   HT     0.417000        1.0080           0
   54951 WT3  4230 TIP3 H2   HT     0.417000        1.0080           0
   54952 WT3  4231 TIP3 OH2  OT    -0.834000       15.9994           0
   54953 WT3  4231 TIP3 H1   HT     0.417000        1.0080           0
   54954 WT3  4231 TIP3 H2   HT     0.417000        1.0080           0
   54955 WT3  4232 TIP3 OH2  OT    -0.834000       15.9994           0
   54956 WT3  4232 TIP3 H1   HT     0.417000        1.0080           0
   54957 WT3  4232 TIP3 H2   HT     0.417000        1.0080           0
   54958 WT3  4233 TIP3 OH2  OT    -0.834000       15.9994           0
   54959 WT3  4233 TIP3 H1   HT     0.417000        1.0080           0
   54960 WT3  4233 TIP3 H2   HT     0.417000        1.0080           0
   54961 WT3  4234 TIP3 OH2  OT    -0.834000       15.9994           0
   54962 WT3  4234 TIP3 H1   HT     0.417000        1.0080           0
   54963 WT3  4234 TIP3 H2   HT     0.417000        1.0080           0
   54964 WT3  4235 TIP3 OH2  OT    -0.834000       15.9994           0
   54965 WT3  4235 TIP3 H1   HT     0.417000        1.0080           0
   54966 WT3  4235 TIP3 H2   HT     0.417000        1.0080           0
   54967 WT3  4236 TIP3 OH2  OT    -0.834000       15.9994           0
   54968 WT3  4236 TIP3 H1   HT     0.417000        1.0080           0
   54969 WT3  4236 TIP3 H2   HT     0.417000        1.0080           0
   54970 WT3  4243 TIP3 OH2  OT    -0.834000       15.9994           0
   54971 WT3  4243 TIP3 H1   HT     0.417000        1.0080           0
   54972 WT3  4243 TIP3 H2   HT     0.417000        1.0080           0
   54973 WT3  4247 TIP3 OH2  OT    -0.834000       15.9994           0
   54974 WT3  4247 TIP3 H1   HT     0.417000        1.0080           0
   54975 WT3  4247 TIP3 H2   HT     0.417000        1.0080           0
   54976 WT3  4249 TIP3 OH2  OT    -0.834000       15.9994           0
   54977 WT3  4249 TIP3 H1   HT     0.417000        1.0080           0
   54978 WT3  4249 TIP3 H2   HT     0.417000        1.0080           0
   54979 WT3  4251 TIP3 OH2  OT    -0.834000       15.9994           0
   54980 WT3  4251 TIP3 H1   HT     0.417000        1.0080           0
   54981 WT3  4251 TIP3 H2   HT     0.417000        1.0080           0
   54982 WT3  4255 TIP3 OH2  OT    -0.834000       15.9994           0
   54983 WT3  4255 TIP3 H1   HT     0.417000        1.0080           0
   54984 WT3  4255 TIP3 H2   HT     0.417000        1.0080           0
   54985 WT3  4256 TIP3 OH2  OT    -0.834000       15.9994           0
   54986 WT3  4256 TIP3 H1   HT     0.417000        1.0080           0
   54987 WT3  4256 TIP3 H2   HT     0.417000        1.0080           0
   54988 WT3  4257 TIP3 OH2  OT    -0.834000       15.9994           0
   54989 WT3  4257 TIP3 H1   HT     0.417000        1.0080           0
   54990 WT3  4257 TIP3 H2   HT     0.417000        1.0080           0
   54991 WT3  4260 TIP3 OH2  OT    -0.834000       15.9994           0
   54992 WT3  4260 TIP3 H1   HT     0.417000        1.0080           0
   54993 WT3  4260 TIP3 H2   HT     0.417000        1.0080           0
   54994 WT3  4263 TIP3 OH2  OT    -0.834000       15.9994           0
   54995 WT3  4263 TIP3 H1   HT     0.417000        1.0080           0
   54996 WT3  4263 TIP3 H2   HT     0.417000        1.0080           0
   54997 WT3  4266 TIP3 OH2  OT    -0.834000       15.9994           0
   54998 WT3  4266 TIP3 H1   HT     0.417000        1.0080           0
   54999 WT3  4266 TIP3 H2   HT     0.417000        1.0080           0
   55000 WT3  4268 TIP3 OH2  OT    -0.834000       15.9994           0
   55001 WT3  4268 TIP3 H1   HT     0.417000        1.0080           0
   55002 WT3  4268 TIP3 H2   HT     0.417000        1.0080           0
   55003 WT3  4272 TIP3 OH2  OT    -0.834000       15.9994           0
   55004 WT3  4272 TIP3 H1   HT     0.417000        1.0080           0
   55005 WT3  4272 TIP3 H2   HT     0.417000        1.0080           0
   55006 WT3  4273 TIP3 OH2  OT    -0.834000       15.9994           0
   55007 WT3  4273 TIP3 H1   HT     0.417000        1.0080           0
   55008 WT3  4273 TIP3 H2   HT     0.417000        1.0080           0
   55009 WT3  4274 TIP3 OH2  OT    -0.834000       15.9994           0
   55010 WT3  4274 TIP3 H1   HT     0.417000        1.0080           0
   55011 WT3  4274 TIP3 H2   HT     0.417000        1.0080           0
   55012 WT3  4278 TIP3 OH2  OT    -0.834000       15.9994           0
   55013 WT3  4278 TIP3 H1   HT     0.417000        1.0080           0
   55014 WT3  4278 TIP3 H2   HT     0.417000        1.0080           0
   55015 WT3  4282 TIP3 OH2  OT    -0.834000       15.9994           0
   55016 WT3  4282 TIP3 H1   HT     0.417000        1.0080           0
   55017 WT3  4282 TIP3 H2   HT     0.417000        1.0080           0
   55018 WT3  4283 TIP3 OH2  OT    -0.834000       15.9994           0
   55019 WT3  4283 TIP3 H1   HT     0.417000        1.0080           0
   55020 WT3  4283 TIP3 H2   HT     0.417000        1.0080           0
   55021 WT3  4284 TIP3 OH2  OT    -0.834000       15.9994           0
   55022 WT3  4284 TIP3 H1   HT     0.417000        1.0080           0
   55023 WT3  4284 TIP3 H2   HT     0.417000        1.0080           0
   55024 WT3  4285 TIP3 OH2  OT    -0.834000       15.9994           0
   55025 WT3  4285 TIP3 H1   HT     0.417000        1.0080           0
   55026 WT3  4285 TIP3 H2   HT     0.417000        1.0080           0
   55027 WT3  4286 TIP3 OH2  OT    -0.834000       15.9994           0
   55028 WT3  4286 TIP3 H1   HT     0.417000        1.0080           0
   55029 WT3  4286 TIP3 H2   HT     0.417000        1.0080           0
   55030 WT3  4287 TIP3 OH2  OT    -0.834000       15.9994           0
   55031 WT3  4287 TIP3 H1   HT     0.417000        1.0080           0
   55032 WT3  4287 TIP3 H2   HT     0.417000        1.0080           0
   55033 WT3  4294 TIP3 OH2  OT    -0.834000       15.9994           0
   55034 WT3  4294 TIP3 H1   HT     0.417000        1.0080           0
   55035 WT3  4294 TIP3 H2   HT     0.417000        1.0080           0
   55036 WT3  4297 TIP3 OH2  OT    -0.834000       15.9994           0
   55037 WT3  4297 TIP3 H1   HT     0.417000        1.0080           0
   55038 WT3  4297 TIP3 H2   HT     0.417000        1.0080           0
   55039 WT3  4298 TIP3 OH2  OT    -0.834000       15.9994           0
   55040 WT3  4298 TIP3 H1   HT     0.417000        1.0080           0
   55041 WT3  4298 TIP3 H2   HT     0.417000        1.0080           0
   55042 WT3  4299 TIP3 OH2  OT    -0.834000       15.9994           0
   55043 WT3  4299 TIP3 H1   HT     0.417000        1.0080           0
   55044 WT3  4299 TIP3 H2   HT     0.417000        1.0080           0
   55045 WT3  4303 TIP3 OH2  OT    -0.834000       15.9994           0
   55046 WT3  4303 TIP3 H1   HT     0.417000        1.0080           0
   55047 WT3  4303 TIP3 H2   HT     0.417000        1.0080           0
   55048 WT3  4304 TIP3 OH2  OT    -0.834000       15.9994           0
   55049 WT3  4304 TIP3 H1   HT     0.417000        1.0080           0
   55050 WT3  4304 TIP3 H2   HT     0.417000        1.0080           0
   55051 WT3  4306 TIP3 OH2  OT    -0.834000       15.9994           0
   55052 WT3  4306 TIP3 H1   HT     0.417000        1.0080           0
   55053 WT3  4306 TIP3 H2   HT     0.417000        1.0080           0
   55054 WT3  4307 TIP3 OH2  OT    -0.834000       15.9994           0
   55055 WT3  4307 TIP3 H1   HT     0.417000        1.0080           0
   55056 WT3  4307 TIP3 H2   HT     0.417000        1.0080           0
   55057 WT3  4313 TIP3 OH2  OT    -0.834000       15.9994           0
   55058 WT3  4313 TIP3 H1   HT     0.417000        1.0080           0
   55059 WT3  4313 TIP3 H2   HT     0.417000        1.0080           0
   55060 WT3  4315 TIP3 OH2  OT    -0.834000       15.9994           0
   55061 WT3  4315 TIP3 H1   HT     0.417000        1.0080           0
   55062 WT3  4315 TIP3 H2   HT     0.417000        1.0080           0
   55063 WT3  4319 TIP3 OH2  OT    -0.834000       15.9994           0
   55064 WT3  4319 TIP3 H1   HT     0.417000        1.0080           0
   55065 WT3  4319 TIP3 H2   HT     0.417000        1.0080           0
   55066 WT3  4328 TIP3 OH2  OT    -0.834000       15.9994           0
   55067 WT3  4328 TIP3 H1   HT     0.417000        1.0080           0
   55068 WT3  4328 TIP3 H2   HT     0.417000        1.0080           0
   55069 WT3  4337 TIP3 OH2  OT    -0.834000       15.9994           0
   55070 WT3  4337 TIP3 H1   HT     0.417000        1.0080           0
   55071 WT3  4337 TIP3 H2   HT     0.417000        1.0080           0
   55072 WT3  4345 TIP3 OH2  OT    -0.834000       15.9994           0
   55073 WT3  4345 TIP3 H1   HT     0.417000        1.0080           0
   55074 WT3  4345 TIP3 H2   HT     0.417000        1.0080           0
   55075 WT3  4347 TIP3 OH2  OT    -0.834000       15.9994           0
   55076 WT3  4347 TIP3 H1   HT     0.417000        1.0080           0
   55077 WT3  4347 TIP3 H2   HT     0.417000        1.0080           0
   55078 WT3  4356 TIP3 OH2  OT    -0.834000       15.9994           0
   55079 WT3  4356 TIP3 H1   HT     0.417000        1.0080           0
   55080 WT3  4356 TIP3 H2   HT     0.417000        1.0080           0
   55081 WT3  4365 TIP3 OH2  OT    -0.834000       15.9994           0
   55082 WT3  4365 TIP3 H1   HT     0.417000        1.0080           0
   55083 WT3  4365 TIP3 H2   HT     0.417000        1.0080           0
   55084 WT3  4374 TIP3 OH2  OT    -0.834000       15.9994           0
   55085 WT3  4374 TIP3 H1   HT     0.417000        1.0080           0
   55086 WT3  4374 TIP3 H2   HT     0.417000        1.0080           0
   55087 WT3  4380 TIP3 OH2  OT    -0.834000       15.9994           0
   55088 WT3  4380 TIP3 H1   HT     0.417000        1.0080           0
   55089 WT3  4380 TIP3 H2   HT     0.417000        1.0080           0
   55090 WT3  4382 TIP3 OH2  OT    -0.834000       15.9994           0
   55091 WT3  4382 TIP3 H1   HT     0.417000        1.0080           0
   55092 WT3  4382 TIP3 H2   HT     0.417000        1.0080           0
   55093 WT3  4386 TIP3 OH2  OT    -0.834000       15.9994           0
   55094 WT3  4386 TIP3 H1   HT     0.417000        1.0080           0
   55095 WT3  4386 TIP3 H2   HT     0.417000        1.0080           0
   55096 WT3  4390 TIP3 OH2  OT    -0.834000       15.9994           0
   55097 WT3  4390 TIP3 H1   HT     0.417000        1.0080           0
   55098 WT3  4390 TIP3 H2   HT     0.417000        1.0080           0
   55099 WT3  4394 TIP3 OH2  OT    -0.834000       15.9994           0
   55100 WT3  4394 TIP3 H1   HT     0.417000        1.0080           0
   55101 WT3  4394 TIP3 H2   HT     0.417000        1.0080           0
   55102 WT3  4396 TIP3 OH2  OT    -0.834000       15.9994           0
   55103 WT3  4396 TIP3 H1   HT     0.417000        1.0080           0
   55104 WT3  4396 TIP3 H2   HT     0.417000        1.0080           0
   55105 WT3  4401 TIP3 OH2  OT    -0.834000       15.9994           0
   55106 WT3  4401 TIP3 H1   HT     0.417000        1.0080           0
   55107 WT3  4401 TIP3 H2   HT     0.417000        1.0080           0
   55108 WT3  4404 TIP3 OH2  OT    -0.834000       15.9994           0
   55109 WT3  4404 TIP3 H1   HT     0.417000        1.0080           0
   55110 WT3  4404 TIP3 H2   HT     0.417000        1.0080           0
   55111 WT3  4407 TIP3 OH2  OT    -0.834000       15.9994           0
   55112 WT3  4407 TIP3 H1   HT     0.417000        1.0080           0
   55113 WT3  4407 TIP3 H2   HT     0.417000        1.0080           0
   55114 WT3  4412 TIP3 OH2  OT    -0.834000       15.9994           0
   55115 WT3  4412 TIP3 H1   HT     0.417000        1.0080           0
   55116 WT3  4412 TIP3 H2   HT     0.417000        1.0080           0
   55117 WT3  4414 TIP3 OH2  OT    -0.834000       15.9994           0
   55118 WT3  4414 TIP3 H1   HT     0.417000        1.0080           0
   55119 WT3  4414 TIP3 H2   HT     0.417000        1.0080           0
   55120 WT3  4417 TIP3 OH2  OT    -0.834000       15.9994           0
   55121 WT3  4417 TIP3 H1   HT     0.417000        1.0080           0
   55122 WT3  4417 TIP3 H2   HT     0.417000        1.0080           0
   55123 WT3  4419 TIP3 OH2  OT    -0.834000       15.9994           0
   55124 WT3  4419 TIP3 H1   HT     0.417000        1.0080           0
   55125 WT3  4419 TIP3 H2   HT     0.417000        1.0080           0
   55126 WT3  4420 TIP3 OH2  OT    -0.834000       15.9994           0
   55127 WT3  4420 TIP3 H1   HT     0.417000        1.0080           0
   55128 WT3  4420 TIP3 H2   HT     0.417000        1.0080           0
   55129 WT3  4421 TIP3 OH2  OT    -0.834000       15.9994           0
   55130 WT3  4421 TIP3 H1   HT     0.417000        1.0080           0
   55131 WT3  4421 TIP3 H2   HT     0.417000        1.0080           0
   55132 WT3  4422 TIP3 OH2  OT    -0.834000       15.9994           0
   55133 WT3  4422 TIP3 H1   HT     0.417000        1.0080           0
   55134 WT3  4422 TIP3 H2   HT     0.417000        1.0080           0
   55135 WT3  4428 TIP3 OH2  OT    -0.834000       15.9994           0
   55136 WT3  4428 TIP3 H1   HT     0.417000        1.0080           0
   55137 WT3  4428 TIP3 H2   HT     0.417000        1.0080           0
   55138 WT3  4432 TIP3 OH2  OT    -0.834000       15.9994           0
   55139 WT3  4432 TIP3 H1   HT     0.417000        1.0080           0
   55140 WT3  4432 TIP3 H2   HT     0.417000        1.0080           0
   55141 WT3  4433 TIP3 OH2  OT    -0.834000       15.9994           0
   55142 WT3  4433 TIP3 H1   HT     0.417000        1.0080           0
   55143 WT3  4433 TIP3 H2   HT     0.417000        1.0080           0
   55144 WT3  4434 TIP3 OH2  OT    -0.834000       15.9994           0
   55145 WT3  4434 TIP3 H1   HT     0.417000        1.0080           0
   55146 WT3  4434 TIP3 H2   HT     0.417000        1.0080           0
   55147 WT3  4436 TIP3 OH2  OT    -0.834000       15.9994           0
   55148 WT3  4436 TIP3 H1   HT     0.417000        1.0080           0
   55149 WT3  4436 TIP3 H2   HT     0.417000        1.0080           0
   55150 WT3  4437 TIP3 OH2  OT    -0.834000       15.9994           0
   55151 WT3  4437 TIP3 H1   HT     0.417000        1.0080           0
   55152 WT3  4437 TIP3 H2   HT     0.417000        1.0080           0
   55153 WT3  4438 TIP3 OH2  OT    -0.834000       15.9994           0
   55154 WT3  4438 TIP3 H1   HT     0.417000        1.0080           0
   55155 WT3  4438 TIP3 H2   HT     0.417000        1.0080           0
   55156 WT3  4441 TIP3 OH2  OT    -0.834000       15.9994           0
   55157 WT3  4441 TIP3 H1   HT     0.417000        1.0080           0
   55158 WT3  4441 TIP3 H2   HT     0.417000        1.0080           0
   55159 WT3  4442 TIP3 OH2  OT    -0.834000       15.9994           0
   55160 WT3  4442 TIP3 H1   HT     0.417000        1.0080           0
   55161 WT3  4442 TIP3 H2   HT     0.417000        1.0080           0
   55162 WT3  4443 TIP3 OH2  OT    -0.834000       15.9994           0
   55163 WT3  4443 TIP3 H1   HT     0.417000        1.0080           0
   55164 WT3  4443 TIP3 H2   HT     0.417000        1.0080           0
   55165 WT3  4446 TIP3 OH2  OT    -0.834000       15.9994           0
   55166 WT3  4446 TIP3 H1   HT     0.417000        1.0080           0
   55167 WT3  4446 TIP3 H2   HT     0.417000        1.0080           0
   55168 WT3  4451 TIP3 OH2  OT    -0.834000       15.9994           0
   55169 WT3  4451 TIP3 H1   HT     0.417000        1.0080           0
   55170 WT3  4451 TIP3 H2   HT     0.417000        1.0080           0
   55171 WT3  4453 TIP3 OH2  OT    -0.834000       15.9994           0
   55172 WT3  4453 TIP3 H1   HT     0.417000        1.0080           0
   55173 WT3  4453 TIP3 H2   HT     0.417000        1.0080           0
   55174 WT3  4455 TIP3 OH2  OT    -0.834000       15.9994           0
   55175 WT3  4455 TIP3 H1   HT     0.417000        1.0080           0
   55176 WT3  4455 TIP3 H2   HT     0.417000        1.0080           0
   55177 WT3  4456 TIP3 OH2  OT    -0.834000       15.9994           0
   55178 WT3  4456 TIP3 H1   HT     0.417000        1.0080           0
   55179 WT3  4456 TIP3 H2   HT     0.417000        1.0080           0
   55180 WT3  4457 TIP3 OH2  OT    -0.834000       15.9994           0
   55181 WT3  4457 TIP3 H1   HT     0.417000        1.0080           0
   55182 WT3  4457 TIP3 H2   HT     0.417000        1.0080           0
   55183 WT3  4459 TIP3 OH2  OT    -0.834000       15.9994           0
   55184 WT3  4459 TIP3 H1   HT     0.417000        1.0080           0
   55185 WT3  4459 TIP3 H2   HT     0.417000        1.0080           0
   55186 WT3  4460 TIP3 OH2  OT    -0.834000       15.9994           0
   55187 WT3  4460 TIP3 H1   HT     0.417000        1.0080           0
   55188 WT3  4460 TIP3 H2   HT     0.417000        1.0080           0
   55189 WT3  4461 TIP3 OH2  OT    -0.834000       15.9994           0
   55190 WT3  4461 TIP3 H1   HT     0.417000        1.0080           0
   55191 WT3  4461 TIP3 H2   HT     0.417000        1.0080           0
   55192 WT3  4462 TIP3 OH2  OT    -0.834000       15.9994           0
   55193 WT3  4462 TIP3 H1   HT     0.417000        1.0080           0
   55194 WT3  4462 TIP3 H2   HT     0.417000        1.0080           0
   55195 WT3  4463 TIP3 OH2  OT    -0.834000       15.9994           0
   55196 WT3  4463 TIP3 H1   HT     0.417000        1.0080           0
   55197 WT3  4463 TIP3 H2   HT     0.417000        1.0080           0
   55198 WT3  4464 TIP3 OH2  OT    -0.834000       15.9994           0
   55199 WT3  4464 TIP3 H1   HT     0.417000        1.0080           0
   55200 WT3  4464 TIP3 H2   HT     0.417000        1.0080           0
   55201 WT3  4465 TIP3 OH2  OT    -0.834000       15.9994           0
   55202 WT3  4465 TIP3 H1   HT     0.417000        1.0080           0
   55203 WT3  4465 TIP3 H2   HT     0.417000        1.0080           0
   55204 WT3  4466 TIP3 OH2  OT    -0.834000       15.9994           0
   55205 WT3  4466 TIP3 H1   HT     0.417000        1.0080           0
   55206 WT3  4466 TIP3 H2   HT     0.417000        1.0080           0
   55207 WT3  4469 TIP3 OH2  OT    -0.834000       15.9994           0
   55208 WT3  4469 TIP3 H1   HT     0.417000        1.0080           0
   55209 WT3  4469 TIP3 H2   HT     0.417000        1.0080           0
   55210 WT3  4470 TIP3 OH2  OT    -0.834000       15.9994           0
   55211 WT3  4470 TIP3 H1   HT     0.417000        1.0080           0
   55212 WT3  4470 TIP3 H2   HT     0.417000        1.0080           0
   55213 WT3  4472 TIP3 OH2  OT    -0.834000       15.9994           0
   55214 WT3  4472 TIP3 H1   HT     0.417000        1.0080           0
   55215 WT3  4472 TIP3 H2   HT     0.417000        1.0080           0
   55216 WT3  4473 TIP3 OH2  OT    -0.834000       15.9994           0
   55217 WT3  4473 TIP3 H1   HT     0.417000        1.0080           0
   55218 WT3  4473 TIP3 H2   HT     0.417000        1.0080           0
   55219 WT3  4474 TIP3 OH2  OT    -0.834000       15.9994           0
   55220 WT3  4474 TIP3 H1   HT     0.417000        1.0080           0
   55221 WT3  4474 TIP3 H2   HT     0.417000        1.0080           0
   55222 WT3  4475 TIP3 OH2  OT    -0.834000       15.9994           0
   55223 WT3  4475 TIP3 H1   HT     0.417000        1.0080           0
   55224 WT3  4475 TIP3 H2   HT     0.417000        1.0080           0
   55225 WT3  4477 TIP3 OH2  OT    -0.834000       15.9994           0
   55226 WT3  4477 TIP3 H1   HT     0.417000        1.0080           0
   55227 WT3  4477 TIP3 H2   HT     0.417000        1.0080           0
   55228 WT3  4478 TIP3 OH2  OT    -0.834000       15.9994           0
   55229 WT3  4478 TIP3 H1   HT     0.417000        1.0080           0
   55230 WT3  4478 TIP3 H2   HT     0.417000        1.0080           0
   55231 WT3  4479 TIP3 OH2  OT    -0.834000       15.9994           0
   55232 WT3  4479 TIP3 H1   HT     0.417000        1.0080           0
   55233 WT3  4479 TIP3 H2   HT     0.417000        1.0080           0
   55234 WT3  4480 TIP3 OH2  OT    -0.834000       15.9994           0
   55235 WT3  4480 TIP3 H1   HT     0.417000        1.0080           0
   55236 WT3  4480 TIP3 H2   HT     0.417000        1.0080           0
   55237 WT3  4482 TIP3 OH2  OT    -0.834000       15.9994           0
   55238 WT3  4482 TIP3 H1   HT     0.417000        1.0080           0
   55239 WT3  4482 TIP3 H2   HT     0.417000        1.0080           0
   55240 WT3  4483 TIP3 OH2  OT    -0.834000       15.9994           0
   55241 WT3  4483 TIP3 H1   HT     0.417000        1.0080           0
   55242 WT3  4483 TIP3 H2   HT     0.417000        1.0080           0
   55243 WT3  4484 TIP3 OH2  OT    -0.834000       15.9994           0
   55244 WT3  4484 TIP3 H1   HT     0.417000        1.0080           0
   55245 WT3  4484 TIP3 H2   HT     0.417000        1.0080           0
   55246 WT3  4485 TIP3 OH2  OT    -0.834000       15.9994           0
   55247 WT3  4485 TIP3 H1   HT     0.417000        1.0080           0
   55248 WT3  4485 TIP3 H2   HT     0.417000        1.0080           0
   55249 WT3  4487 TIP3 OH2  OT    -0.834000       15.9994           0
   55250 WT3  4487 TIP3 H1   HT     0.417000        1.0080           0
   55251 WT3  4487 TIP3 H2   HT     0.417000        1.0080           0
   55252 WT3  4489 TIP3 OH2  OT    -0.834000       15.9994           0
   55253 WT3  4489 TIP3 H1   HT     0.417000        1.0080           0
   55254 WT3  4489 TIP3 H2   HT     0.417000        1.0080           0
   55255 WT3  4493 TIP3 OH2  OT    -0.834000       15.9994           0
   55256 WT3  4493 TIP3 H1   HT     0.417000        1.0080           0
   55257 WT3  4493 TIP3 H2   HT     0.417000        1.0080           0
   55258 WT3  4494 TIP3 OH2  OT    -0.834000       15.9994           0
   55259 WT3  4494 TIP3 H1   HT     0.417000        1.0080           0
   55260 WT3  4494 TIP3 H2   HT     0.417000        1.0080           0
   55261 WT3  4495 TIP3 OH2  OT    -0.834000       15.9994           0
   55262 WT3  4495 TIP3 H1   HT     0.417000        1.0080           0
   55263 WT3  4495 TIP3 H2   HT     0.417000        1.0080           0
   55264 WT3  4496 TIP3 OH2  OT    -0.834000       15.9994           0
   55265 WT3  4496 TIP3 H1   HT     0.417000        1.0080           0
   55266 WT3  4496 TIP3 H2   HT     0.417000        1.0080           0
   55267 WT3  4497 TIP3 OH2  OT    -0.834000       15.9994           0
   55268 WT3  4497 TIP3 H1   HT     0.417000        1.0080           0
   55269 WT3  4497 TIP3 H2   HT     0.417000        1.0080           0
   55270 WT3  4498 TIP3 OH2  OT    -0.834000       15.9994           0
   55271 WT3  4498 TIP3 H1   HT     0.417000        1.0080           0
   55272 WT3  4498 TIP3 H2   HT     0.417000        1.0080           0
   55273 WT3  4499 TIP3 OH2  OT    -0.834000       15.9994           0
   55274 WT3  4499 TIP3 H1   HT     0.417000        1.0080           0
   55275 WT3  4499 TIP3 H2   HT     0.417000        1.0080           0
   55276 WT3  4500 TIP3 OH2  OT    -0.834000       15.9994           0
   55277 WT3  4500 TIP3 H1   HT     0.417000        1.0080           0
   55278 WT3  4500 TIP3 H2   HT     0.417000        1.0080           0
   55279 WT3  4501 TIP3 OH2  OT    -0.834000       15.9994           0
   55280 WT3  4501 TIP3 H1   HT     0.417000        1.0080           0
   55281 WT3  4501 TIP3 H2   HT     0.417000        1.0080           0
   55282 WT3  4502 TIP3 OH2  OT    -0.834000       15.9994           0
   55283 WT3  4502 TIP3 H1   HT     0.417000        1.0080           0
   55284 WT3  4502 TIP3 H2   HT     0.417000        1.0080           0
   55285 WT3  4503 TIP3 OH2  OT    -0.834000       15.9994           0
   55286 WT3  4503 TIP3 H1   HT     0.417000        1.0080           0
   55287 WT3  4503 TIP3 H2   HT     0.417000        1.0080           0
   55288 WT3  4504 TIP3 OH2  OT    -0.834000       15.9994           0
   55289 WT3  4504 TIP3 H1   HT     0.417000        1.0080           0
   55290 WT3  4504 TIP3 H2   HT     0.417000        1.0080           0
   55291 WT3  4505 TIP3 OH2  OT    -0.834000       15.9994           0
   55292 WT3  4505 TIP3 H1   HT     0.417000        1.0080           0
   55293 WT3  4505 TIP3 H2   HT     0.417000        1.0080           0
   55294 WT3  4506 TIP3 OH2  OT    -0.834000       15.9994           0
   55295 WT3  4506 TIP3 H1   HT     0.417000        1.0080           0
   55296 WT3  4506 TIP3 H2   HT     0.417000        1.0080           0
   55297 WT3  4507 TIP3 OH2  OT    -0.834000       15.9994           0
   55298 WT3  4507 TIP3 H1   HT     0.417000        1.0080           0
   55299 WT3  4507 TIP3 H2   HT     0.417000        1.0080           0
   55300 WT3  4508 TIP3 OH2  OT    -0.834000       15.9994           0
   55301 WT3  4508 TIP3 H1   HT     0.417000        1.0080           0
   55302 WT3  4508 TIP3 H2   HT     0.417000        1.0080           0
   55303 WT3  4509 TIP3 OH2  OT    -0.834000       15.9994           0
   55304 WT3  4509 TIP3 H1   HT     0.417000        1.0080           0
   55305 WT3  4509 TIP3 H2   HT     0.417000        1.0080           0
   55306 WT3  4510 TIP3 OH2  OT    -0.834000       15.9994           0
   55307 WT3  4510 TIP3 H1   HT     0.417000        1.0080           0
   55308 WT3  4510 TIP3 H2   HT     0.417000        1.0080           0
   55309 WT3  4513 TIP3 OH2  OT    -0.834000       15.9994           0
   55310 WT3  4513 TIP3 H1   HT     0.417000        1.0080           0
   55311 WT3  4513 TIP3 H2   HT     0.417000        1.0080           0
   55312 WT3  4515 TIP3 OH2  OT    -0.834000       15.9994           0
   55313 WT3  4515 TIP3 H1   HT     0.417000        1.0080           0
   55314 WT3  4515 TIP3 H2   HT     0.417000        1.0080           0
   55315 WT3  4516 TIP3 OH2  OT    -0.834000       15.9994           0
   55316 WT3  4516 TIP3 H1   HT     0.417000        1.0080           0
   55317 WT3  4516 TIP3 H2   HT     0.417000        1.0080           0
   55318 WT3  4517 TIP3 OH2  OT    -0.834000       15.9994           0
   55319 WT3  4517 TIP3 H1   HT     0.417000        1.0080           0
   55320 WT3  4517 TIP3 H2   HT     0.417000        1.0080           0
   55321 WT3  4518 TIP3 OH2  OT    -0.834000       15.9994           0
   55322 WT3  4518 TIP3 H1   HT     0.417000        1.0080           0
   55323 WT3  4518 TIP3 H2   HT     0.417000        1.0080           0
   55324 WT3  4519 TIP3 OH2  OT    -0.834000       15.9994           0
   55325 WT3  4519 TIP3 H1   HT     0.417000        1.0080           0
   55326 WT3  4519 TIP3 H2   HT     0.417000        1.0080           0
   55327 WT3  4520 TIP3 OH2  OT    -0.834000       15.9994           0
   55328 WT3  4520 TIP3 H1   HT     0.417000        1.0080           0
   55329 WT3  4520 TIP3 H2   HT     0.417000        1.0080           0
   55330 WT3  4522 TIP3 OH2  OT    -0.834000       15.9994           0
   55331 WT3  4522 TIP3 H1   HT     0.417000        1.0080           0
   55332 WT3  4522 TIP3 H2   HT     0.417000        1.0080           0
   55333 WT3  4523 TIP3 OH2  OT    -0.834000       15.9994           0
   55334 WT3  4523 TIP3 H1   HT     0.417000        1.0080           0
   55335 WT3  4523 TIP3 H2   HT     0.417000        1.0080           0
   55336 WT3  4524 TIP3 OH2  OT    -0.834000       15.9994           0
   55337 WT3  4524 TIP3 H1   HT     0.417000        1.0080           0
   55338 WT3  4524 TIP3 H2   HT     0.417000        1.0080           0
   55339 WT3  4525 TIP3 OH2  OT    -0.834000       15.9994           0
   55340 WT3  4525 TIP3 H1   HT     0.417000        1.0080           0
   55341 WT3  4525 TIP3 H2   HT     0.417000        1.0080           0
   55342 WT3  4526 TIP3 OH2  OT    -0.834000       15.9994           0
   55343 WT3  4526 TIP3 H1   HT     0.417000        1.0080           0
   55344 WT3  4526 TIP3 H2   HT     0.417000        1.0080           0
   55345 WT3  4527 TIP3 OH2  OT    -0.834000       15.9994           0
   55346 WT3  4527 TIP3 H1   HT     0.417000        1.0080           0
   55347 WT3  4527 TIP3 H2   HT     0.417000        1.0080           0
   55348 WT3  4528 TIP3 OH2  OT    -0.834000       15.9994           0
   55349 WT3  4528 TIP3 H1   HT     0.417000        1.0080           0
   55350 WT3  4528 TIP3 H2   HT     0.417000        1.0080           0
   55351 WT3  4529 TIP3 OH2  OT    -0.834000       15.9994           0
   55352 WT3  4529 TIP3 H1   HT     0.417000        1.0080           0
   55353 WT3  4529 TIP3 H2   HT     0.417000        1.0080           0
   55354 WT3  4530 TIP3 OH2  OT    -0.834000       15.9994           0
   55355 WT3  4530 TIP3 H1   HT     0.417000        1.0080           0
   55356 WT3  4530 TIP3 H2   HT     0.417000        1.0080           0
   55357 WT3  4531 TIP3 OH2  OT    -0.834000       15.9994           0
   55358 WT3  4531 TIP3 H1   HT     0.417000        1.0080           0
   55359 WT3  4531 TIP3 H2   HT     0.417000        1.0080           0
   55360 WT3  4532 TIP3 OH2  OT    -0.834000       15.9994           0
   55361 WT3  4532 TIP3 H1   HT     0.417000        1.0080           0
   55362 WT3  4532 TIP3 H2   HT     0.417000        1.0080           0
   55363 WT3  4535 TIP3 OH2  OT    -0.834000       15.9994           0
   55364 WT3  4535 TIP3 H1   HT     0.417000        1.0080           0
   55365 WT3  4535 TIP3 H2   HT     0.417000        1.0080           0
   55366 WT3  4536 TIP3 OH2  OT    -0.834000       15.9994           0
   55367 WT3  4536 TIP3 H1   HT     0.417000        1.0080           0
   55368 WT3  4536 TIP3 H2   HT     0.417000        1.0080           0
   55369 WT3  4537 TIP3 OH2  OT    -0.834000       15.9994           0
   55370 WT3  4537 TIP3 H1   HT     0.417000        1.0080           0
   55371 WT3  4537 TIP3 H2   HT     0.417000        1.0080           0
   55372 WT3  4538 TIP3 OH2  OT    -0.834000       15.9994           0
   55373 WT3  4538 TIP3 H1   HT     0.417000        1.0080           0
   55374 WT3  4538 TIP3 H2   HT     0.417000        1.0080           0
   55375 WT3  4539 TIP3 OH2  OT    -0.834000       15.9994           0
   55376 WT3  4539 TIP3 H1   HT     0.417000        1.0080           0
   55377 WT3  4539 TIP3 H2   HT     0.417000        1.0080           0
   55378 WT3  4540 TIP3 OH2  OT    -0.834000       15.9994           0
   55379 WT3  4540 TIP3 H1   HT     0.417000        1.0080           0
   55380 WT3  4540 TIP3 H2   HT     0.417000        1.0080           0
   55381 WT3  4541 TIP3 OH2  OT    -0.834000       15.9994           0
   55382 WT3  4541 TIP3 H1   HT     0.417000        1.0080           0
   55383 WT3  4541 TIP3 H2   HT     0.417000        1.0080           0
   55384 WT3  4542 TIP3 OH2  OT    -0.834000       15.9994           0
   55385 WT3  4542 TIP3 H1   HT     0.417000        1.0080           0
   55386 WT3  4542 TIP3 H2   HT     0.417000        1.0080           0
   55387 WT3  4543 TIP3 OH2  OT    -0.834000       15.9994           0
   55388 WT3  4543 TIP3 H1   HT     0.417000        1.0080           0
   55389 WT3  4543 TIP3 H2   HT     0.417000        1.0080           0
   55390 WT3  4544 TIP3 OH2  OT    -0.834000       15.9994           0
   55391 WT3  4544 TIP3 H1   HT     0.417000        1.0080           0
   55392 WT3  4544 TIP3 H2   HT     0.417000        1.0080           0
   55393 WT3  4545 TIP3 OH2  OT    -0.834000       15.9994           0
   55394 WT3  4545 TIP3 H1   HT     0.417000        1.0080           0
   55395 WT3  4545 TIP3 H2   HT     0.417000        1.0080           0
   55396 WT3  4546 TIP3 OH2  OT    -0.834000       15.9994           0
   55397 WT3  4546 TIP3 H1   HT     0.417000        1.0080           0
   55398 WT3  4546 TIP3 H2   HT     0.417000        1.0080           0
   55399 WT3  4547 TIP3 OH2  OT    -0.834000       15.9994           0
   55400 WT3  4547 TIP3 H1   HT     0.417000        1.0080           0
   55401 WT3  4547 TIP3 H2   HT     0.417000        1.0080           0
   55402 WT3  4548 TIP3 OH2  OT    -0.834000       15.9994           0
   55403 WT3  4548 TIP3 H1   HT     0.417000        1.0080           0
   55404 WT3  4548 TIP3 H2   HT     0.417000        1.0080           0
   55405 WT3  4549 TIP3 OH2  OT    -0.834000       15.9994           0
   55406 WT3  4549 TIP3 H1   HT     0.417000        1.0080           0
   55407 WT3  4549 TIP3 H2   HT     0.417000        1.0080           0
   55408 WT3  4550 TIP3 OH2  OT    -0.834000       15.9994           0
   55409 WT3  4550 TIP3 H1   HT     0.417000        1.0080           0
   55410 WT3  4550 TIP3 H2   HT     0.417000        1.0080           0
   55411 WT3  4551 TIP3 OH2  OT    -0.834000       15.9994           0
   55412 WT3  4551 TIP3 H1   HT     0.417000        1.0080           0
   55413 WT3  4551 TIP3 H2   HT     0.417000        1.0080           0
   55414 WT3  4552 TIP3 OH2  OT    -0.834000       15.9994           0
   55415 WT3  4552 TIP3 H1   HT     0.417000        1.0080           0
   55416 WT3  4552 TIP3 H2   HT     0.417000        1.0080           0
   55417 WT3  4553 TIP3 OH2  OT    -0.834000       15.9994           0
   55418 WT3  4553 TIP3 H1   HT     0.417000        1.0080           0
   55419 WT3  4553 TIP3 H2   HT     0.417000        1.0080           0
   55420 WT3  4558 TIP3 OH2  OT    -0.834000       15.9994           0
   55421 WT3  4558 TIP3 H1   HT     0.417000        1.0080           0
   55422 WT3  4558 TIP3 H2   HT     0.417000        1.0080           0
   55423 WT3  4559 TIP3 OH2  OT    -0.834000       15.9994           0
   55424 WT3  4559 TIP3 H1   HT     0.417000        1.0080           0
   55425 WT3  4559 TIP3 H2   HT     0.417000        1.0080           0
   55426 WT3  4560 TIP3 OH2  OT    -0.834000       15.9994           0
   55427 WT3  4560 TIP3 H1   HT     0.417000        1.0080           0
   55428 WT3  4560 TIP3 H2   HT     0.417000        1.0080           0
   55429 WT3  4561 TIP3 OH2  OT    -0.834000       15.9994           0
   55430 WT3  4561 TIP3 H1   HT     0.417000        1.0080           0
   55431 WT3  4561 TIP3 H2   HT     0.417000        1.0080           0
   55432 WT3  4562 TIP3 OH2  OT    -0.834000       15.9994           0
   55433 WT3  4562 TIP3 H1   HT     0.417000        1.0080           0
   55434 WT3  4562 TIP3 H2   HT     0.417000        1.0080           0
   55435 WT3  4563 TIP3 OH2  OT    -0.834000       15.9994           0
   55436 WT3  4563 TIP3 H1   HT     0.417000        1.0080           0
   55437 WT3  4563 TIP3 H2   HT     0.417000        1.0080           0
   55438 WT3  4564 TIP3 OH2  OT    -0.834000       15.9994           0
   55439 WT3  4564 TIP3 H1   HT     0.417000        1.0080           0
   55440 WT3  4564 TIP3 H2   HT     0.417000        1.0080           0
   55441 WT3  4565 TIP3 OH2  OT    -0.834000       15.9994           0
   55442 WT3  4565 TIP3 H1   HT     0.417000        1.0080           0
   55443 WT3  4565 TIP3 H2   HT     0.417000        1.0080           0
   55444 WT3  4566 TIP3 OH2  OT    -0.834000       15.9994           0
   55445 WT3  4566 TIP3 H1   HT     0.417000        1.0080           0
   55446 WT3  4566 TIP3 H2   HT     0.417000        1.0080           0
   55447 WT3  4567 TIP3 OH2  OT    -0.834000       15.9994           0
   55448 WT3  4567 TIP3 H1   HT     0.417000        1.0080           0
   55449 WT3  4567 TIP3 H2   HT     0.417000        1.0080           0
   55450 WT3  4568 TIP3 OH2  OT    -0.834000       15.9994           0
   55451 WT3  4568 TIP3 H1   HT     0.417000        1.0080           0
   55452 WT3  4568 TIP3 H2   HT     0.417000        1.0080           0
   55453 WT3  4569 TIP3 OH2  OT    -0.834000       15.9994           0
   55454 WT3  4569 TIP3 H1   HT     0.417000        1.0080           0
   55455 WT3  4569 TIP3 H2   HT     0.417000        1.0080           0
   55456 WT3  4570 TIP3 OH2  OT    -0.834000       15.9994           0
   55457 WT3  4570 TIP3 H1   HT     0.417000        1.0080           0
   55458 WT3  4570 TIP3 H2   HT     0.417000        1.0080           0
   55459 WT3  4571 TIP3 OH2  OT    -0.834000       15.9994           0
   55460 WT3  4571 TIP3 H1   HT     0.417000        1.0080           0
   55461 WT3  4571 TIP3 H2   HT     0.417000        1.0080           0
   55462 WT3  4572 TIP3 OH2  OT    -0.834000       15.9994           0
   55463 WT3  4572 TIP3 H1   HT     0.417000        1.0080           0
   55464 WT3  4572 TIP3 H2   HT     0.417000        1.0080           0
   55465 WT3  4573 TIP3 OH2  OT    -0.834000       15.9994           0
   55466 WT3  4573 TIP3 H1   HT     0.417000        1.0080           0
   55467 WT3  4573 TIP3 H2   HT     0.417000        1.0080           0
   55468 WT3  4574 TIP3 OH2  OT    -0.834000       15.9994           0
   55469 WT3  4574 TIP3 H1   HT     0.417000        1.0080           0
   55470 WT3  4574 TIP3 H2   HT     0.417000        1.0080           0
   55471 WT3  4576 TIP3 OH2  OT    -0.834000       15.9994           0
   55472 WT3  4576 TIP3 H1   HT     0.417000        1.0080           0
   55473 WT3  4576 TIP3 H2   HT     0.417000        1.0080           0
   55474 WT3  4578 TIP3 OH2  OT    -0.834000       15.9994           0
   55475 WT3  4578 TIP3 H1   HT     0.417000        1.0080           0
   55476 WT3  4578 TIP3 H2   HT     0.417000        1.0080           0
   55477 WT3  4580 TIP3 OH2  OT    -0.834000       15.9994           0
   55478 WT3  4580 TIP3 H1   HT     0.417000        1.0080           0
   55479 WT3  4580 TIP3 H2   HT     0.417000        1.0080           0
   55480 WT3  4581 TIP3 OH2  OT    -0.834000       15.9994           0
   55481 WT3  4581 TIP3 H1   HT     0.417000        1.0080           0
   55482 WT3  4581 TIP3 H2   HT     0.417000        1.0080           0
   55483 WT3  4582 TIP3 OH2  OT    -0.834000       15.9994           0
   55484 WT3  4582 TIP3 H1   HT     0.417000        1.0080           0
   55485 WT3  4582 TIP3 H2   HT     0.417000        1.0080           0
   55486 WT3  4583 TIP3 OH2  OT    -0.834000       15.9994           0
   55487 WT3  4583 TIP3 H1   HT     0.417000        1.0080           0
   55488 WT3  4583 TIP3 H2   HT     0.417000        1.0080           0
   55489 WT3  4584 TIP3 OH2  OT    -0.834000       15.9994           0
   55490 WT3  4584 TIP3 H1   HT     0.417000        1.0080           0
   55491 WT3  4584 TIP3 H2   HT     0.417000        1.0080           0
   55492 WT3  4585 TIP3 OH2  OT    -0.834000       15.9994           0
   55493 WT3  4585 TIP3 H1   HT     0.417000        1.0080           0
   55494 WT3  4585 TIP3 H2   HT     0.417000        1.0080           0
   55495 WT3  4586 TIP3 OH2  OT    -0.834000       15.9994           0
   55496 WT3  4586 TIP3 H1   HT     0.417000        1.0080           0
   55497 WT3  4586 TIP3 H2   HT     0.417000        1.0080           0
   55498 WT3  4587 TIP3 OH2  OT    -0.834000       15.9994           0
   55499 WT3  4587 TIP3 H1   HT     0.417000        1.0080           0
   55500 WT3  4587 TIP3 H2   HT     0.417000        1.0080           0
   55501 WT3  4588 TIP3 OH2  OT    -0.834000       15.9994           0
   55502 WT3  4588 TIP3 H1   HT     0.417000        1.0080           0
   55503 WT3  4588 TIP3 H2   HT     0.417000        1.0080           0
   55504 WT3  4590 TIP3 OH2  OT    -0.834000       15.9994           0
   55505 WT3  4590 TIP3 H1   HT     0.417000        1.0080           0
   55506 WT3  4590 TIP3 H2   HT     0.417000        1.0080           0
   55507 WT3  4591 TIP3 OH2  OT    -0.834000       15.9994           0
   55508 WT3  4591 TIP3 H1   HT     0.417000        1.0080           0
   55509 WT3  4591 TIP3 H2   HT     0.417000        1.0080           0
   55510 WT3  4592 TIP3 OH2  OT    -0.834000       15.9994           0
   55511 WT3  4592 TIP3 H1   HT     0.417000        1.0080           0
   55512 WT3  4592 TIP3 H2   HT     0.417000        1.0080           0
   55513 WT3  4593 TIP3 OH2  OT    -0.834000       15.9994           0
   55514 WT3  4593 TIP3 H1   HT     0.417000        1.0080           0
   55515 WT3  4593 TIP3 H2   HT     0.417000        1.0080           0
   55516 WT3  4595 TIP3 OH2  OT    -0.834000       15.9994           0
   55517 WT3  4595 TIP3 H1   HT     0.417000        1.0080           0
   55518 WT3  4595 TIP3 H2   HT     0.417000        1.0080           0
   55519 WT3  4596 TIP3 OH2  OT    -0.834000       15.9994           0
   55520 WT3  4596 TIP3 H1   HT     0.417000        1.0080           0
   55521 WT3  4596 TIP3 H2   HT     0.417000        1.0080           0
   55522 WT3  4599 TIP3 OH2  OT    -0.834000       15.9994           0
   55523 WT3  4599 TIP3 H1   HT     0.417000        1.0080           0
   55524 WT3  4599 TIP3 H2   HT     0.417000        1.0080           0
   55525 WT3  4600 TIP3 OH2  OT    -0.834000       15.9994           0
   55526 WT3  4600 TIP3 H1   HT     0.417000        1.0080           0
   55527 WT3  4600 TIP3 H2   HT     0.417000        1.0080           0
   55528 WT3  4602 TIP3 OH2  OT    -0.834000       15.9994           0
   55529 WT3  4602 TIP3 H1   HT     0.417000        1.0080           0
   55530 WT3  4602 TIP3 H2   HT     0.417000        1.0080           0
   55531 WT3  4605 TIP3 OH2  OT    -0.834000       15.9994           0
   55532 WT3  4605 TIP3 H1   HT     0.417000        1.0080           0
   55533 WT3  4605 TIP3 H2   HT     0.417000        1.0080           0
   55534 WT3  4606 TIP3 OH2  OT    -0.834000       15.9994           0
   55535 WT3  4606 TIP3 H1   HT     0.417000        1.0080           0
   55536 WT3  4606 TIP3 H2   HT     0.417000        1.0080           0
   55537 WT3  4607 TIP3 OH2  OT    -0.834000       15.9994           0
   55538 WT3  4607 TIP3 H1   HT     0.417000        1.0080           0
   55539 WT3  4607 TIP3 H2   HT     0.417000        1.0080           0
   55540 WT3  4608 TIP3 OH2  OT    -0.834000       15.9994           0
   55541 WT3  4608 TIP3 H1   HT     0.417000        1.0080           0
   55542 WT3  4608 TIP3 H2   HT     0.417000        1.0080           0
   55543 WT3  4609 TIP3 OH2  OT    -0.834000       15.9994           0
   55544 WT3  4609 TIP3 H1   HT     0.417000        1.0080           0
   55545 WT3  4609 TIP3 H2   HT     0.417000        1.0080           0
   55546 WT3  4610 TIP3 OH2  OT    -0.834000       15.9994           0
   55547 WT3  4610 TIP3 H1   HT     0.417000        1.0080           0
   55548 WT3  4610 TIP3 H2   HT     0.417000        1.0080           0
   55549 WT3  4611 TIP3 OH2  OT    -0.834000       15.9994           0
   55550 WT3  4611 TIP3 H1   HT     0.417000        1.0080           0
   55551 WT3  4611 TIP3 H2   HT     0.417000        1.0080           0
   55552 WT3  4612 TIP3 OH2  OT    -0.834000       15.9994           0
   55553 WT3  4612 TIP3 H1   HT     0.417000        1.0080           0
   55554 WT3  4612 TIP3 H2   HT     0.417000        1.0080           0
   55555 WT3  4614 TIP3 OH2  OT    -0.834000       15.9994           0
   55556 WT3  4614 TIP3 H1   HT     0.417000        1.0080           0
   55557 WT3  4614 TIP3 H2   HT     0.417000        1.0080           0
   55558 WT3  4615 TIP3 OH2  OT    -0.834000       15.9994           0
   55559 WT3  4615 TIP3 H1   HT     0.417000        1.0080           0
   55560 WT3  4615 TIP3 H2   HT     0.417000        1.0080           0
   55561 WT3  4617 TIP3 OH2  OT    -0.834000       15.9994           0
   55562 WT3  4617 TIP3 H1   HT     0.417000        1.0080           0
   55563 WT3  4617 TIP3 H2   HT     0.417000        1.0080           0
   55564 WT3  4619 TIP3 OH2  OT    -0.834000       15.9994           0
   55565 WT3  4619 TIP3 H1   HT     0.417000        1.0080           0
   55566 WT3  4619 TIP3 H2   HT     0.417000        1.0080           0
   55567 WT3  4620 TIP3 OH2  OT    -0.834000       15.9994           0
   55568 WT3  4620 TIP3 H1   HT     0.417000        1.0080           0
   55569 WT3  4620 TIP3 H2   HT     0.417000        1.0080           0
   55570 WT3  4621 TIP3 OH2  OT    -0.834000       15.9994           0
   55571 WT3  4621 TIP3 H1   HT     0.417000        1.0080           0
   55572 WT3  4621 TIP3 H2   HT     0.417000        1.0080           0
   55573 WT3  4622 TIP3 OH2  OT    -0.834000       15.9994           0
   55574 WT3  4622 TIP3 H1   HT     0.417000        1.0080           0
   55575 WT3  4622 TIP3 H2   HT     0.417000        1.0080           0
   55576 WT3  4623 TIP3 OH2  OT    -0.834000       15.9994           0
   55577 WT3  4623 TIP3 H1   HT     0.417000        1.0080           0
   55578 WT3  4623 TIP3 H2   HT     0.417000        1.0080           0
   55579 WT3  4624 TIP3 OH2  OT    -0.834000       15.9994           0
   55580 WT3  4624 TIP3 H1   HT     0.417000        1.0080           0
   55581 WT3  4624 TIP3 H2   HT     0.417000        1.0080           0
   55582 WT3  4625 TIP3 OH2  OT    -0.834000       15.9994           0
   55583 WT3  4625 TIP3 H1   HT     0.417000        1.0080           0
   55584 WT3  4625 TIP3 H2   HT     0.417000        1.0080           0
   55585 WT3  4626 TIP3 OH2  OT    -0.834000       15.9994           0
   55586 WT3  4626 TIP3 H1   HT     0.417000        1.0080           0
   55587 WT3  4626 TIP3 H2   HT     0.417000        1.0080           0
   55588 WT3  4627 TIP3 OH2  OT    -0.834000       15.9994           0
   55589 WT3  4627 TIP3 H1   HT     0.417000        1.0080           0
   55590 WT3  4627 TIP3 H2   HT     0.417000        1.0080           0
   55591 WT3  4628 TIP3 OH2  OT    -0.834000       15.9994           0
   55592 WT3  4628 TIP3 H1   HT     0.417000        1.0080           0
   55593 WT3  4628 TIP3 H2   HT     0.417000        1.0080           0
   55594 WT3  4630 TIP3 OH2  OT    -0.834000       15.9994           0
   55595 WT3  4630 TIP3 H1   HT     0.417000        1.0080           0
   55596 WT3  4630 TIP3 H2   HT     0.417000        1.0080           0
   55597 WT3  4631 TIP3 OH2  OT    -0.834000       15.9994           0
   55598 WT3  4631 TIP3 H1   HT     0.417000        1.0080           0
   55599 WT3  4631 TIP3 H2   HT     0.417000        1.0080           0
   55600 WT3  4632 TIP3 OH2  OT    -0.834000       15.9994           0
   55601 WT3  4632 TIP3 H1   HT     0.417000        1.0080           0
   55602 WT3  4632 TIP3 H2   HT     0.417000        1.0080           0
   55603 WT3  4633 TIP3 OH2  OT    -0.834000       15.9994           0
   55604 WT3  4633 TIP3 H1   HT     0.417000        1.0080           0
   55605 WT3  4633 TIP3 H2   HT     0.417000        1.0080           0
   55606 WT3  4634 TIP3 OH2  OT    -0.834000       15.9994           0
   55607 WT3  4634 TIP3 H1   HT     0.417000        1.0080           0
   55608 WT3  4634 TIP3 H2   HT     0.417000        1.0080           0
   55609 WT3  4636 TIP3 OH2  OT    -0.834000       15.9994           0
   55610 WT3  4636 TIP3 H1   HT     0.417000        1.0080           0
   55611 WT3  4636 TIP3 H2   HT     0.417000        1.0080           0
   55612 WT3  4639 TIP3 OH2  OT    -0.834000       15.9994           0
   55613 WT3  4639 TIP3 H1   HT     0.417000        1.0080           0
   55614 WT3  4639 TIP3 H2   HT     0.417000        1.0080           0
   55615 WT3  4640 TIP3 OH2  OT    -0.834000       15.9994           0
   55616 WT3  4640 TIP3 H1   HT     0.417000        1.0080           0
   55617 WT3  4640 TIP3 H2   HT     0.417000        1.0080           0
   55618 WT3  4641 TIP3 OH2  OT    -0.834000       15.9994           0
   55619 WT3  4641 TIP3 H1   HT     0.417000        1.0080           0
   55620 WT3  4641 TIP3 H2   HT     0.417000        1.0080           0
   55621 WT3  4644 TIP3 OH2  OT    -0.834000       15.9994           0
   55622 WT3  4644 TIP3 H1   HT     0.417000        1.0080           0
   55623 WT3  4644 TIP3 H2   HT     0.417000        1.0080           0
   55624 WT3  4645 TIP3 OH2  OT    -0.834000       15.9994           0
   55625 WT3  4645 TIP3 H1   HT     0.417000        1.0080           0
   55626 WT3  4645 TIP3 H2   HT     0.417000        1.0080           0
   55627 WT3  4646 TIP3 OH2  OT    -0.834000       15.9994           0
   55628 WT3  4646 TIP3 H1   HT     0.417000        1.0080           0
   55629 WT3  4646 TIP3 H2   HT     0.417000        1.0080           0
   55630 WT3  4647 TIP3 OH2  OT    -0.834000       15.9994           0
   55631 WT3  4647 TIP3 H1   HT     0.417000        1.0080           0
   55632 WT3  4647 TIP3 H2   HT     0.417000        1.0080           0
   55633 WT3  4648 TIP3 OH2  OT    -0.834000       15.9994           0
   55634 WT3  4648 TIP3 H1   HT     0.417000        1.0080           0
   55635 WT3  4648 TIP3 H2   HT     0.417000        1.0080           0
   55636 WT3  4649 TIP3 OH2  OT    -0.834000       15.9994           0
   55637 WT3  4649 TIP3 H1   HT     0.417000        1.0080           0
   55638 WT3  4649 TIP3 H2   HT     0.417000        1.0080           0
   55639 WT3  4650 TIP3 OH2  OT    -0.834000       15.9994           0
   55640 WT3  4650 TIP3 H1   HT     0.417000        1.0080           0
   55641 WT3  4650 TIP3 H2   HT     0.417000        1.0080           0
   55642 WT3  4652 TIP3 OH2  OT    -0.834000       15.9994           0
   55643 WT3  4652 TIP3 H1   HT     0.417000        1.0080           0
   55644 WT3  4652 TIP3 H2   HT     0.417000        1.0080           0
   55645 WT3  4653 TIP3 OH2  OT    -0.834000       15.9994           0
   55646 WT3  4653 TIP3 H1   HT     0.417000        1.0080           0
   55647 WT3  4653 TIP3 H2   HT     0.417000        1.0080           0
   55648 WT3  4654 TIP3 OH2  OT    -0.834000       15.9994           0
   55649 WT3  4654 TIP3 H1   HT     0.417000        1.0080           0
   55650 WT3  4654 TIP3 H2   HT     0.417000        1.0080           0
   55651 WT3  4655 TIP3 OH2  OT    -0.834000       15.9994           0
   55652 WT3  4655 TIP3 H1   HT     0.417000        1.0080           0
   55653 WT3  4655 TIP3 H2   HT     0.417000        1.0080           0
   55654 WT3  4656 TIP3 OH2  OT    -0.834000       15.9994           0
   55655 WT3  4656 TIP3 H1   HT     0.417000        1.0080           0
   55656 WT3  4656 TIP3 H2   HT     0.417000        1.0080           0
   55657 WT3  4657 TIP3 OH2  OT    -0.834000       15.9994           0
   55658 WT3  4657 TIP3 H1   HT     0.417000        1.0080           0
   55659 WT3  4657 TIP3 H2   HT     0.417000        1.0080           0
   55660 WT3  4661 TIP3 OH2  OT    -0.834000       15.9994           0
   55661 WT3  4661 TIP3 H1   HT     0.417000        1.0080           0
   55662 WT3  4661 TIP3 H2   HT     0.417000        1.0080           0
   55663 WT3  4663 TIP3 OH2  OT    -0.834000       15.9994           0
   55664 WT3  4663 TIP3 H1   HT     0.417000        1.0080           0
   55665 WT3  4663 TIP3 H2   HT     0.417000        1.0080           0
   55666 WT3  4665 TIP3 OH2  OT    -0.834000       15.9994           0
   55667 WT3  4665 TIP3 H1   HT     0.417000        1.0080           0
   55668 WT3  4665 TIP3 H2   HT     0.417000        1.0080           0
   55669 WT3  4666 TIP3 OH2  OT    -0.834000       15.9994           0
   55670 WT3  4666 TIP3 H1   HT     0.417000        1.0080           0
   55671 WT3  4666 TIP3 H2   HT     0.417000        1.0080           0
   55672 WT3  4667 TIP3 OH2  OT    -0.834000       15.9994           0
   55673 WT3  4667 TIP3 H1   HT     0.417000        1.0080           0
   55674 WT3  4667 TIP3 H2   HT     0.417000        1.0080           0
   55675 WT3  4668 TIP3 OH2  OT    -0.834000       15.9994           0
   55676 WT3  4668 TIP3 H1   HT     0.417000        1.0080           0
   55677 WT3  4668 TIP3 H2   HT     0.417000        1.0080           0
   55678 WT3  4669 TIP3 OH2  OT    -0.834000       15.9994           0
   55679 WT3  4669 TIP3 H1   HT     0.417000        1.0080           0
   55680 WT3  4669 TIP3 H2   HT     0.417000        1.0080           0
   55681 WT3  4670 TIP3 OH2  OT    -0.834000       15.9994           0
   55682 WT3  4670 TIP3 H1   HT     0.417000        1.0080           0
   55683 WT3  4670 TIP3 H2   HT     0.417000        1.0080           0
   55684 WT3  4671 TIP3 OH2  OT    -0.834000       15.9994           0
   55685 WT3  4671 TIP3 H1   HT     0.417000        1.0080           0
   55686 WT3  4671 TIP3 H2   HT     0.417000        1.0080           0
   55687 WT3  4672 TIP3 OH2  OT    -0.834000       15.9994           0
   55688 WT3  4672 TIP3 H1   HT     0.417000        1.0080           0
   55689 WT3  4672 TIP3 H2   HT     0.417000        1.0080           0
   55690 WT3  4674 TIP3 OH2  OT    -0.834000       15.9994           0
   55691 WT3  4674 TIP3 H1   HT     0.417000        1.0080           0
   55692 WT3  4674 TIP3 H2   HT     0.417000        1.0080           0
   55693 WT3  4676 TIP3 OH2  OT    -0.834000       15.9994           0
   55694 WT3  4676 TIP3 H1   HT     0.417000        1.0080           0
   55695 WT3  4676 TIP3 H2   HT     0.417000        1.0080           0
   55696 WT3  4677 TIP3 OH2  OT    -0.834000       15.9994           0
   55697 WT3  4677 TIP3 H1   HT     0.417000        1.0080           0
   55698 WT3  4677 TIP3 H2   HT     0.417000        1.0080           0
   55699 WT3  4679 TIP3 OH2  OT    -0.834000       15.9994           0
   55700 WT3  4679 TIP3 H1   HT     0.417000        1.0080           0
   55701 WT3  4679 TIP3 H2   HT     0.417000        1.0080           0
   55702 WT3  4681 TIP3 OH2  OT    -0.834000       15.9994           0
   55703 WT3  4681 TIP3 H1   HT     0.417000        1.0080           0
   55704 WT3  4681 TIP3 H2   HT     0.417000        1.0080           0
   55705 WT3  4682 TIP3 OH2  OT    -0.834000       15.9994           0
   55706 WT3  4682 TIP3 H1   HT     0.417000        1.0080           0
   55707 WT3  4682 TIP3 H2   HT     0.417000        1.0080           0
   55708 WT3  4683 TIP3 OH2  OT    -0.834000       15.9994           0
   55709 WT3  4683 TIP3 H1   HT     0.417000        1.0080           0
   55710 WT3  4683 TIP3 H2   HT     0.417000        1.0080           0
   55711 WT3  4685 TIP3 OH2  OT    -0.834000       15.9994           0
   55712 WT3  4685 TIP3 H1   HT     0.417000        1.0080           0
   55713 WT3  4685 TIP3 H2   HT     0.417000        1.0080           0
   55714 WT3  4687 TIP3 OH2  OT    -0.834000       15.9994           0
   55715 WT3  4687 TIP3 H1   HT     0.417000        1.0080           0
   55716 WT3  4687 TIP3 H2   HT     0.417000        1.0080           0
   55717 WT3  4689 TIP3 OH2  OT    -0.834000       15.9994           0
   55718 WT3  4689 TIP3 H1   HT     0.417000        1.0080           0
   55719 WT3  4689 TIP3 H2   HT     0.417000        1.0080           0
   55720 WT3  4691 TIP3 OH2  OT    -0.834000       15.9994           0
   55721 WT3  4691 TIP3 H1   HT     0.417000        1.0080           0
   55722 WT3  4691 TIP3 H2   HT     0.417000        1.0080           0
   55723 WT3  4692 TIP3 OH2  OT    -0.834000       15.9994           0
   55724 WT3  4692 TIP3 H1   HT     0.417000        1.0080           0
   55725 WT3  4692 TIP3 H2   HT     0.417000        1.0080           0
   55726 WT3  4695 TIP3 OH2  OT    -0.834000       15.9994           0
   55727 WT3  4695 TIP3 H1   HT     0.417000        1.0080           0
   55728 WT3  4695 TIP3 H2   HT     0.417000        1.0080           0
   55729 WT3  4696 TIP3 OH2  OT    -0.834000       15.9994           0
   55730 WT3  4696 TIP3 H1   HT     0.417000        1.0080           0
   55731 WT3  4696 TIP3 H2   HT     0.417000        1.0080           0
   55732 WT3  4698 TIP3 OH2  OT    -0.834000       15.9994           0
   55733 WT3  4698 TIP3 H1   HT     0.417000        1.0080           0
   55734 WT3  4698 TIP3 H2   HT     0.417000        1.0080           0
   55735 WT3  4699 TIP3 OH2  OT    -0.834000       15.9994           0
   55736 WT3  4699 TIP3 H1   HT     0.417000        1.0080           0
   55737 WT3  4699 TIP3 H2   HT     0.417000        1.0080           0
   55738 WT3  4703 TIP3 OH2  OT    -0.834000       15.9994           0
   55739 WT3  4703 TIP3 H1   HT     0.417000        1.0080           0
   55740 WT3  4703 TIP3 H2   HT     0.417000        1.0080           0
   55741 WT3  4706 TIP3 OH2  OT    -0.834000       15.9994           0
   55742 WT3  4706 TIP3 H1   HT     0.417000        1.0080           0
   55743 WT3  4706 TIP3 H2   HT     0.417000        1.0080           0
   55744 WT3  4710 TIP3 OH2  OT    -0.834000       15.9994           0
   55745 WT3  4710 TIP3 H1   HT     0.417000        1.0080           0
   55746 WT3  4710 TIP3 H2   HT     0.417000        1.0080           0
   55747 WT3  4712 TIP3 OH2  OT    -0.834000       15.9994           0
   55748 WT3  4712 TIP3 H1   HT     0.417000        1.0080           0
   55749 WT3  4712 TIP3 H2   HT     0.417000        1.0080           0
   55750 WT3  4713 TIP3 OH2  OT    -0.834000       15.9994           0
   55751 WT3  4713 TIP3 H1   HT     0.417000        1.0080           0
   55752 WT3  4713 TIP3 H2   HT     0.417000        1.0080           0
   55753 WT3  4715 TIP3 OH2  OT    -0.834000       15.9994           0
   55754 WT3  4715 TIP3 H1   HT     0.417000        1.0080           0
   55755 WT3  4715 TIP3 H2   HT     0.417000        1.0080           0
   55756 WT3  4719 TIP3 OH2  OT    -0.834000       15.9994           0
   55757 WT3  4719 TIP3 H1   HT     0.417000        1.0080           0
   55758 WT3  4719 TIP3 H2   HT     0.417000        1.0080           0
   55759 WT3  4720 TIP3 OH2  OT    -0.834000       15.9994           0
   55760 WT3  4720 TIP3 H1   HT     0.417000        1.0080           0
   55761 WT3  4720 TIP3 H2   HT     0.417000        1.0080           0
   55762 WT3  4723 TIP3 OH2  OT    -0.834000       15.9994           0
   55763 WT3  4723 TIP3 H1   HT     0.417000        1.0080           0
   55764 WT3  4723 TIP3 H2   HT     0.417000        1.0080           0
   55765 WT3  4725 TIP3 OH2  OT    -0.834000       15.9994           0
   55766 WT3  4725 TIP3 H1   HT     0.417000        1.0080           0
   55767 WT3  4725 TIP3 H2   HT     0.417000        1.0080           0
   55768 WT3  4726 TIP3 OH2  OT    -0.834000       15.9994           0
   55769 WT3  4726 TIP3 H1   HT     0.417000        1.0080           0
   55770 WT3  4726 TIP3 H2   HT     0.417000        1.0080           0
   55771 WT3  4732 TIP3 OH2  OT    -0.834000       15.9994           0
   55772 WT3  4732 TIP3 H1   HT     0.417000        1.0080           0
   55773 WT3  4732 TIP3 H2   HT     0.417000        1.0080           0
   55774 WT3  4735 TIP3 OH2  OT    -0.834000       15.9994           0
   55775 WT3  4735 TIP3 H1   HT     0.417000        1.0080           0
   55776 WT3  4735 TIP3 H2   HT     0.417000        1.0080           0
   55777 WT3  4739 TIP3 OH2  OT    -0.834000       15.9994           0
   55778 WT3  4739 TIP3 H1   HT     0.417000        1.0080           0
   55779 WT3  4739 TIP3 H2   HT     0.417000        1.0080           0
   55780 WT3  4750 TIP3 OH2  OT    -0.834000       15.9994           0
   55781 WT3  4750 TIP3 H1   HT     0.417000        1.0080           0
   55782 WT3  4750 TIP3 H2   HT     0.417000        1.0080           0
   55783 WT3  4751 TIP3 OH2  OT    -0.834000       15.9994           0
   55784 WT3  4751 TIP3 H1   HT     0.417000        1.0080           0
   55785 WT3  4751 TIP3 H2   HT     0.417000        1.0080           0
   55786 WT3  4765 TIP3 OH2  OT    -0.834000       15.9994           0
   55787 WT3  4765 TIP3 H1   HT     0.417000        1.0080           0
   55788 WT3  4765 TIP3 H2   HT     0.417000        1.0080           0
   55789 WT3  4778 TIP3 OH2  OT    -0.834000       15.9994           0
   55790 WT3  4778 TIP3 H1   HT     0.417000        1.0080           0
   55791 WT3  4778 TIP3 H2   HT     0.417000        1.0080           0
   55792 WT3  4787 TIP3 OH2  OT    -0.834000       15.9994           0
   55793 WT3  4787 TIP3 H1   HT     0.417000        1.0080           0
   55794 WT3  4787 TIP3 H2   HT     0.417000        1.0080           0
   55795 WT3  4791 TIP3 OH2  OT    -0.834000       15.9994           0
   55796 WT3  4791 TIP3 H1   HT     0.417000        1.0080           0
   55797 WT3  4791 TIP3 H2   HT     0.417000        1.0080           0
   55798 WT3  4797 TIP3 OH2  OT    -0.834000       15.9994           0
   55799 WT3  4797 TIP3 H1   HT     0.417000        1.0080           0
   55800 WT3  4797 TIP3 H2   HT     0.417000        1.0080           0
   55801 WT3  4798 TIP3 OH2  OT    -0.834000       15.9994           0
   55802 WT3  4798 TIP3 H1   HT     0.417000        1.0080           0
   55803 WT3  4798 TIP3 H2   HT     0.417000        1.0080           0
   55804 WT3  4799 TIP3 OH2  OT    -0.834000       15.9994           0
   55805 WT3  4799 TIP3 H1   HT     0.417000        1.0080           0
   55806 WT3  4799 TIP3 H2   HT     0.417000        1.0080           0
   55807 WT3  4800 TIP3 OH2  OT    -0.834000       15.9994           0
   55808 WT3  4800 TIP3 H1   HT     0.417000        1.0080           0
   55809 WT3  4800 TIP3 H2   HT     0.417000        1.0080           0
   55810 WT3  4801 TIP3 OH2  OT    -0.834000       15.9994           0
   55811 WT3  4801 TIP3 H1   HT     0.417000        1.0080           0
   55812 WT3  4801 TIP3 H2   HT     0.417000        1.0080           0
   55813 WT3  4807 TIP3 OH2  OT    -0.834000       15.9994           0
   55814 WT3  4807 TIP3 H1   HT     0.417000        1.0080           0
   55815 WT3  4807 TIP3 H2   HT     0.417000        1.0080           0
   55816 WT3  4808 TIP3 OH2  OT    -0.834000       15.9994           0
   55817 WT3  4808 TIP3 H1   HT     0.417000        1.0080           0
   55818 WT3  4808 TIP3 H2   HT     0.417000        1.0080           0
   55819 WT3  4809 TIP3 OH2  OT    -0.834000       15.9994           0
   55820 WT3  4809 TIP3 H1   HT     0.417000        1.0080           0
   55821 WT3  4809 TIP3 H2   HT     0.417000        1.0080           0
   55822 WT3  4814 TIP3 OH2  OT    -0.834000       15.9994           0
   55823 WT3  4814 TIP3 H1   HT     0.417000        1.0080           0
   55824 WT3  4814 TIP3 H2   HT     0.417000        1.0080           0
   55825 WT3  4815 TIP3 OH2  OT    -0.834000       15.9994           0
   55826 WT3  4815 TIP3 H1   HT     0.417000        1.0080           0
   55827 WT3  4815 TIP3 H2   HT     0.417000        1.0080           0
   55828 WT3  4820 TIP3 OH2  OT    -0.834000       15.9994           0
   55829 WT3  4820 TIP3 H1   HT     0.417000        1.0080           0
   55830 WT3  4820 TIP3 H2   HT     0.417000        1.0080           0
   55831 WT3  4821 TIP3 OH2  OT    -0.834000       15.9994           0
   55832 WT3  4821 TIP3 H1   HT     0.417000        1.0080           0
   55833 WT3  4821 TIP3 H2   HT     0.417000        1.0080           0
   55834 WT3  4822 TIP3 OH2  OT    -0.834000       15.9994           0
   55835 WT3  4822 TIP3 H1   HT     0.417000        1.0080           0
   55836 WT3  4822 TIP3 H2   HT     0.417000        1.0080           0
   55837 WT3  4834 TIP3 OH2  OT    -0.834000       15.9994           0
   55838 WT3  4834 TIP3 H1   HT     0.417000        1.0080           0
   55839 WT3  4834 TIP3 H2   HT     0.417000        1.0080           0
   55840 WT3  4835 TIP3 OH2  OT    -0.834000       15.9994           0
   55841 WT3  4835 TIP3 H1   HT     0.417000        1.0080           0
   55842 WT3  4835 TIP3 H2   HT     0.417000        1.0080           0
   55843 WT3  4836 TIP3 OH2  OT    -0.834000       15.9994           0
   55844 WT3  4836 TIP3 H1   HT     0.417000        1.0080           0
   55845 WT3  4836 TIP3 H2   HT     0.417000        1.0080           0
   55846 WT3  4837 TIP3 OH2  OT    -0.834000       15.9994           0
   55847 WT3  4837 TIP3 H1   HT     0.417000        1.0080           0
   55848 WT3  4837 TIP3 H2   HT     0.417000        1.0080           0
   55849 WT3  4844 TIP3 OH2  OT    -0.834000       15.9994           0
   55850 WT3  4844 TIP3 H1   HT     0.417000        1.0080           0
   55851 WT3  4844 TIP3 H2   HT     0.417000        1.0080           0
   55852 WT3  4845 TIP3 OH2  OT    -0.834000       15.9994           0
   55853 WT3  4845 TIP3 H1   HT     0.417000        1.0080           0
   55854 WT3  4845 TIP3 H2   HT     0.417000        1.0080           0
   55855 WT3  4849 TIP3 OH2  OT    -0.834000       15.9994           0
   55856 WT3  4849 TIP3 H1   HT     0.417000        1.0080           0
   55857 WT3  4849 TIP3 H2   HT     0.417000        1.0080           0
   55858 WT3  4851 TIP3 OH2  OT    -0.834000       15.9994           0
   55859 WT3  4851 TIP3 H1   HT     0.417000        1.0080           0
   55860 WT3  4851 TIP3 H2   HT     0.417000        1.0080           0
   55861 WT3  4853 TIP3 OH2  OT    -0.834000       15.9994           0
   55862 WT3  4853 TIP3 H1   HT     0.417000        1.0080           0
   55863 WT3  4853 TIP3 H2   HT     0.417000        1.0080           0
   55864 WT3  4855 TIP3 OH2  OT    -0.834000       15.9994           0
   55865 WT3  4855 TIP3 H1   HT     0.417000        1.0080           0
   55866 WT3  4855 TIP3 H2   HT     0.417000        1.0080           0
   55867 WT3  4856 TIP3 OH2  OT    -0.834000       15.9994           0
   55868 WT3  4856 TIP3 H1   HT     0.417000        1.0080           0
   55869 WT3  4856 TIP3 H2   HT     0.417000        1.0080           0
   55870 WT3  4857 TIP3 OH2  OT    -0.834000       15.9994           0
   55871 WT3  4857 TIP3 H1   HT     0.417000        1.0080           0
   55872 WT3  4857 TIP3 H2   HT     0.417000        1.0080           0
   55873 WT3  4858 TIP3 OH2  OT    -0.834000       15.9994           0
   55874 WT3  4858 TIP3 H1   HT     0.417000        1.0080           0
   55875 WT3  4858 TIP3 H2   HT     0.417000        1.0080           0
   55876 WT3  4861 TIP3 OH2  OT    -0.834000       15.9994           0
   55877 WT3  4861 TIP3 H1   HT     0.417000        1.0080           0
   55878 WT3  4861 TIP3 H2   HT     0.417000        1.0080           0
   55879 WT3  4863 TIP3 OH2  OT    -0.834000       15.9994           0
   55880 WT3  4863 TIP3 H1   HT     0.417000        1.0080           0
   55881 WT3  4863 TIP3 H2   HT     0.417000        1.0080           0
   55882 WT3  4864 TIP3 OH2  OT    -0.834000       15.9994           0
   55883 WT3  4864 TIP3 H1   HT     0.417000        1.0080           0
   55884 WT3  4864 TIP3 H2   HT     0.417000        1.0080           0
   55885 WT3  4866 TIP3 OH2  OT    -0.834000       15.9994           0
   55886 WT3  4866 TIP3 H1   HT     0.417000        1.0080           0
   55887 WT3  4866 TIP3 H2   HT     0.417000        1.0080           0
   55888 WT3  4872 TIP3 OH2  OT    -0.834000       15.9994           0
   55889 WT3  4872 TIP3 H1   HT     0.417000        1.0080           0
   55890 WT3  4872 TIP3 H2   HT     0.417000        1.0080           0
   55891 WT3  4873 TIP3 OH2  OT    -0.834000       15.9994           0
   55892 WT3  4873 TIP3 H1   HT     0.417000        1.0080           0
   55893 WT3  4873 TIP3 H2   HT     0.417000        1.0080           0
   55894 WT3  4875 TIP3 OH2  OT    -0.834000       15.9994           0
   55895 WT3  4875 TIP3 H1   HT     0.417000        1.0080           0
   55896 WT3  4875 TIP3 H2   HT     0.417000        1.0080           0
   55897 WT3  4877 TIP3 OH2  OT    -0.834000       15.9994           0
   55898 WT3  4877 TIP3 H1   HT     0.417000        1.0080           0
   55899 WT3  4877 TIP3 H2   HT     0.417000        1.0080           0
   55900 WT3  4880 TIP3 OH2  OT    -0.834000       15.9994           0
   55901 WT3  4880 TIP3 H1   HT     0.417000        1.0080           0
   55902 WT3  4880 TIP3 H2   HT     0.417000        1.0080           0
   55903 WT3  4881 TIP3 OH2  OT    -0.834000       15.9994           0
   55904 WT3  4881 TIP3 H1   HT     0.417000        1.0080           0
   55905 WT3  4881 TIP3 H2   HT     0.417000        1.0080           0
   55906 WT3  4882 TIP3 OH2  OT    -0.834000       15.9994           0
   55907 WT3  4882 TIP3 H1   HT     0.417000        1.0080           0
   55908 WT3  4882 TIP3 H2   HT     0.417000        1.0080           0
   55909 WT3  4884 TIP3 OH2  OT    -0.834000       15.9994           0
   55910 WT3  4884 TIP3 H1   HT     0.417000        1.0080           0
   55911 WT3  4884 TIP3 H2   HT     0.417000        1.0080           0
   55912 WT3  4887 TIP3 OH2  OT    -0.834000       15.9994           0
   55913 WT3  4887 TIP3 H1   HT     0.417000        1.0080           0
   55914 WT3  4887 TIP3 H2   HT     0.417000        1.0080           0
   55915 WT3  4893 TIP3 OH2  OT    -0.834000       15.9994           0
   55916 WT3  4893 TIP3 H1   HT     0.417000        1.0080           0
   55917 WT3  4893 TIP3 H2   HT     0.417000        1.0080           0
   55918 WT3  4894 TIP3 OH2  OT    -0.834000       15.9994           0
   55919 WT3  4894 TIP3 H1   HT     0.417000        1.0080           0
   55920 WT3  4894 TIP3 H2   HT     0.417000        1.0080           0
   55921 WT3  4895 TIP3 OH2  OT    -0.834000       15.9994           0
   55922 WT3  4895 TIP3 H1   HT     0.417000        1.0080           0
   55923 WT3  4895 TIP3 H2   HT     0.417000        1.0080           0
   55924 WT3  4896 TIP3 OH2  OT    -0.834000       15.9994           0
   55925 WT3  4896 TIP3 H1   HT     0.417000        1.0080           0
   55926 WT3  4896 TIP3 H2   HT     0.417000        1.0080           0
   55927 WT3  4897 TIP3 OH2  OT    -0.834000       15.9994           0
   55928 WT3  4897 TIP3 H1   HT     0.417000        1.0080           0
   55929 WT3  4897 TIP3 H2   HT     0.417000        1.0080           0
   55930 WT3  4898 TIP3 OH2  OT    -0.834000       15.9994           0
   55931 WT3  4898 TIP3 H1   HT     0.417000        1.0080           0
   55932 WT3  4898 TIP3 H2   HT     0.417000        1.0080           0
   55933 WT3  4899 TIP3 OH2  OT    -0.834000       15.9994           0
   55934 WT3  4899 TIP3 H1   HT     0.417000        1.0080           0
   55935 WT3  4899 TIP3 H2   HT     0.417000        1.0080           0
   55936 WT3  4901 TIP3 OH2  OT    -0.834000       15.9994           0
   55937 WT3  4901 TIP3 H1   HT     0.417000        1.0080           0
   55938 WT3  4901 TIP3 H2   HT     0.417000        1.0080           0
   55939 WT3  4902 TIP3 OH2  OT    -0.834000       15.9994           0
   55940 WT3  4902 TIP3 H1   HT     0.417000        1.0080           0
   55941 WT3  4902 TIP3 H2   HT     0.417000        1.0080           0
   55942 WT3  4903 TIP3 OH2  OT    -0.834000       15.9994           0
   55943 WT3  4903 TIP3 H1   HT     0.417000        1.0080           0
   55944 WT3  4903 TIP3 H2   HT     0.417000        1.0080           0
   55945 WT3  4905 TIP3 OH2  OT    -0.834000       15.9994           0
   55946 WT3  4905 TIP3 H1   HT     0.417000        1.0080           0
   55947 WT3  4905 TIP3 H2   HT     0.417000        1.0080           0
   55948 WT3  4906 TIP3 OH2  OT    -0.834000       15.9994           0
   55949 WT3  4906 TIP3 H1   HT     0.417000        1.0080           0
   55950 WT3  4906 TIP3 H2   HT     0.417000        1.0080           0
   55951 WT3  4908 TIP3 OH2  OT    -0.834000       15.9994           0
   55952 WT3  4908 TIP3 H1   HT     0.417000        1.0080           0
   55953 WT3  4908 TIP3 H2   HT     0.417000        1.0080           0
   55954 WT3  4909 TIP3 OH2  OT    -0.834000       15.9994           0
   55955 WT3  4909 TIP3 H1   HT     0.417000        1.0080           0
   55956 WT3  4909 TIP3 H2   HT     0.417000        1.0080           0
   55957 WT3  4911 TIP3 OH2  OT    -0.834000       15.9994           0
   55958 WT3  4911 TIP3 H1   HT     0.417000        1.0080           0
   55959 WT3  4911 TIP3 H2   HT     0.417000        1.0080           0
   55960 WT3  4912 TIP3 OH2  OT    -0.834000       15.9994           0
   55961 WT3  4912 TIP3 H1   HT     0.417000        1.0080           0
   55962 WT3  4912 TIP3 H2   HT     0.417000        1.0080           0
   55963 WT3  4913 TIP3 OH2  OT    -0.834000       15.9994           0
   55964 WT3  4913 TIP3 H1   HT     0.417000        1.0080           0
   55965 WT3  4913 TIP3 H2   HT     0.417000        1.0080           0
   55966 WT3  4914 TIP3 OH2  OT    -0.834000       15.9994           0
   55967 WT3  4914 TIP3 H1   HT     0.417000        1.0080           0
   55968 WT3  4914 TIP3 H2   HT     0.417000        1.0080           0
   55969 WT3  4915 TIP3 OH2  OT    -0.834000       15.9994           0
   55970 WT3  4915 TIP3 H1   HT     0.417000        1.0080           0
   55971 WT3  4915 TIP3 H2   HT     0.417000        1.0080           0
   55972 WT3  4916 TIP3 OH2  OT    -0.834000       15.9994           0
   55973 WT3  4916 TIP3 H1   HT     0.417000        1.0080           0
   55974 WT3  4916 TIP3 H2   HT     0.417000        1.0080           0
   55975 WT3  4917 TIP3 OH2  OT    -0.834000       15.9994           0
   55976 WT3  4917 TIP3 H1   HT     0.417000        1.0080           0
   55977 WT3  4917 TIP3 H2   HT     0.417000        1.0080           0
   55978 WT3  4919 TIP3 OH2  OT    -0.834000       15.9994           0
   55979 WT3  4919 TIP3 H1   HT     0.417000        1.0080           0
   55980 WT3  4919 TIP3 H2   HT     0.417000        1.0080           0
   55981 WT3  4920 TIP3 OH2  OT    -0.834000       15.9994           0
   55982 WT3  4920 TIP3 H1   HT     0.417000        1.0080           0
   55983 WT3  4920 TIP3 H2   HT     0.417000        1.0080           0
   55984 WT3  4922 TIP3 OH2  OT    -0.834000       15.9994           0
   55985 WT3  4922 TIP3 H1   HT     0.417000        1.0080           0
   55986 WT3  4922 TIP3 H2   HT     0.417000        1.0080           0
   55987 WT3  4924 TIP3 OH2  OT    -0.834000       15.9994           0
   55988 WT3  4924 TIP3 H1   HT     0.417000        1.0080           0
   55989 WT3  4924 TIP3 H2   HT     0.417000        1.0080           0
   55990 WT3  4925 TIP3 OH2  OT    -0.834000       15.9994           0
   55991 WT3  4925 TIP3 H1   HT     0.417000        1.0080           0
   55992 WT3  4925 TIP3 H2   HT     0.417000        1.0080           0
   55993 WT3  4926 TIP3 OH2  OT    -0.834000       15.9994           0
   55994 WT3  4926 TIP3 H1   HT     0.417000        1.0080           0
   55995 WT3  4926 TIP3 H2   HT     0.417000        1.0080           0
   55996 WT3  4927 TIP3 OH2  OT    -0.834000       15.9994           0
   55997 WT3  4927 TIP3 H1   HT     0.417000        1.0080           0
   55998 WT3  4927 TIP3 H2   HT     0.417000        1.0080           0
   55999 WT3  4929 TIP3 OH2  OT    -0.834000       15.9994           0
   56000 WT3  4929 TIP3 H1   HT     0.417000        1.0080           0
   56001 WT3  4929 TIP3 H2   HT     0.417000        1.0080           0
   56002 WT3  4932 TIP3 OH2  OT    -0.834000       15.9994           0
   56003 WT3  4932 TIP3 H1   HT     0.417000        1.0080           0
   56004 WT3  4932 TIP3 H2   HT     0.417000        1.0080           0
   56005 WT3  4933 TIP3 OH2  OT    -0.834000       15.9994           0
   56006 WT3  4933 TIP3 H1   HT     0.417000        1.0080           0
   56007 WT3  4933 TIP3 H2   HT     0.417000        1.0080           0
   56008 WT3  4934 TIP3 OH2  OT    -0.834000       15.9994           0
   56009 WT3  4934 TIP3 H1   HT     0.417000        1.0080           0
   56010 WT3  4934 TIP3 H2   HT     0.417000        1.0080           0
   56011 WT3  4935 TIP3 OH2  OT    -0.834000       15.9994           0
   56012 WT3  4935 TIP3 H1   HT     0.417000        1.0080           0
   56013 WT3  4935 TIP3 H2   HT     0.417000        1.0080           0
   56014 WT3  4936 TIP3 OH2  OT    -0.834000       15.9994           0
   56015 WT3  4936 TIP3 H1   HT     0.417000        1.0080           0
   56016 WT3  4936 TIP3 H2   HT     0.417000        1.0080           0
   56017 WT3  4937 TIP3 OH2  OT    -0.834000       15.9994           0
   56018 WT3  4937 TIP3 H1   HT     0.417000        1.0080           0
   56019 WT3  4937 TIP3 H2   HT     0.417000        1.0080           0
   56020 WT3  4938 TIP3 OH2  OT    -0.834000       15.9994           0
   56021 WT3  4938 TIP3 H1   HT     0.417000        1.0080           0
   56022 WT3  4938 TIP3 H2   HT     0.417000        1.0080           0
   56023 WT3  4939 TIP3 OH2  OT    -0.834000       15.9994           0
   56024 WT3  4939 TIP3 H1   HT     0.417000        1.0080           0
   56025 WT3  4939 TIP3 H2   HT     0.417000        1.0080           0
   56026 WT3  4940 TIP3 OH2  OT    -0.834000       15.9994           0
   56027 WT3  4940 TIP3 H1   HT     0.417000        1.0080           0
   56028 WT3  4940 TIP3 H2   HT     0.417000        1.0080           0
   56029 WT3  4941 TIP3 OH2  OT    -0.834000       15.9994           0
   56030 WT3  4941 TIP3 H1   HT     0.417000        1.0080           0
   56031 WT3  4941 TIP3 H2   HT     0.417000        1.0080           0
   56032 WT3  4942 TIP3 OH2  OT    -0.834000       15.9994           0
   56033 WT3  4942 TIP3 H1   HT     0.417000        1.0080           0
   56034 WT3  4942 TIP3 H2   HT     0.417000        1.0080           0
   56035 WT3  4943 TIP3 OH2  OT    -0.834000       15.9994           0
   56036 WT3  4943 TIP3 H1   HT     0.417000        1.0080           0
   56037 WT3  4943 TIP3 H2   HT     0.417000        1.0080           0
   56038 WT3  4944 TIP3 OH2  OT    -0.834000       15.9994           0
   56039 WT3  4944 TIP3 H1   HT     0.417000        1.0080           0
   56040 WT3  4944 TIP3 H2   HT     0.417000        1.0080           0
   56041 WT3  4945 TIP3 OH2  OT    -0.834000       15.9994           0
   56042 WT3  4945 TIP3 H1   HT     0.417000        1.0080           0
   56043 WT3  4945 TIP3 H2   HT     0.417000        1.0080           0
   56044 WT3  4946 TIP3 OH2  OT    -0.834000       15.9994           0
   56045 WT3  4946 TIP3 H1   HT     0.417000        1.0080           0
   56046 WT3  4946 TIP3 H2   HT     0.417000        1.0080           0
   56047 WT3  4947 TIP3 OH2  OT    -0.834000       15.9994           0
   56048 WT3  4947 TIP3 H1   HT     0.417000        1.0080           0
   56049 WT3  4947 TIP3 H2   HT     0.417000        1.0080           0
   56050 WT3  4948 TIP3 OH2  OT    -0.834000       15.9994           0
   56051 WT3  4948 TIP3 H1   HT     0.417000        1.0080           0
   56052 WT3  4948 TIP3 H2   HT     0.417000        1.0080           0
   56053 WT3  4949 TIP3 OH2  OT    -0.834000       15.9994           0
   56054 WT3  4949 TIP3 H1   HT     0.417000        1.0080           0
   56055 WT3  4949 TIP3 H2   HT     0.417000        1.0080           0
   56056 WT3  4950 TIP3 OH2  OT    -0.834000       15.9994           0
   56057 WT3  4950 TIP3 H1   HT     0.417000        1.0080           0
   56058 WT3  4950 TIP3 H2   HT     0.417000        1.0080           0
   56059 WT3  4951 TIP3 OH2  OT    -0.834000       15.9994           0
   56060 WT3  4951 TIP3 H1   HT     0.417000        1.0080           0
   56061 WT3  4951 TIP3 H2   HT     0.417000        1.0080           0
   56062 WT3  4953 TIP3 OH2  OT    -0.834000       15.9994           0
   56063 WT3  4953 TIP3 H1   HT     0.417000        1.0080           0
   56064 WT3  4953 TIP3 H2   HT     0.417000        1.0080           0
   56065 WT3  4954 TIP3 OH2  OT    -0.834000       15.9994           0
   56066 WT3  4954 TIP3 H1   HT     0.417000        1.0080           0
   56067 WT3  4954 TIP3 H2   HT     0.417000        1.0080           0
   56068 WT3  4955 TIP3 OH2  OT    -0.834000       15.9994           0
   56069 WT3  4955 TIP3 H1   HT     0.417000        1.0080           0
   56070 WT3  4955 TIP3 H2   HT     0.417000        1.0080           0
   56071 WT3  4956 TIP3 OH2  OT    -0.834000       15.9994           0
   56072 WT3  4956 TIP3 H1   HT     0.417000        1.0080           0
   56073 WT3  4956 TIP3 H2   HT     0.417000        1.0080           0
   56074 WT3  4957 TIP3 OH2  OT    -0.834000       15.9994           0
   56075 WT3  4957 TIP3 H1   HT     0.417000        1.0080           0
   56076 WT3  4957 TIP3 H2   HT     0.417000        1.0080           0
   56077 WT3  4958 TIP3 OH2  OT    -0.834000       15.9994           0
   56078 WT3  4958 TIP3 H1   HT     0.417000        1.0080           0
   56079 WT3  4958 TIP3 H2   HT     0.417000        1.0080           0
   56080 WT3  4959 TIP3 OH2  OT    -0.834000       15.9994           0
   56081 WT3  4959 TIP3 H1   HT     0.417000        1.0080           0
   56082 WT3  4959 TIP3 H2   HT     0.417000        1.0080           0
   56083 WT3  4960 TIP3 OH2  OT    -0.834000       15.9994           0
   56084 WT3  4960 TIP3 H1   HT     0.417000        1.0080           0
   56085 WT3  4960 TIP3 H2   HT     0.417000        1.0080           0
   56086 WT3  4961 TIP3 OH2  OT    -0.834000       15.9994           0
   56087 WT3  4961 TIP3 H1   HT     0.417000        1.0080           0
   56088 WT3  4961 TIP3 H2   HT     0.417000        1.0080           0
   56089 WT3  4962 TIP3 OH2  OT    -0.834000       15.9994           0
   56090 WT3  4962 TIP3 H1   HT     0.417000        1.0080           0
   56091 WT3  4962 TIP3 H2   HT     0.417000        1.0080           0
   56092 WT3  4963 TIP3 OH2  OT    -0.834000       15.9994           0
   56093 WT3  4963 TIP3 H1   HT     0.417000        1.0080           0
   56094 WT3  4963 TIP3 H2   HT     0.417000        1.0080           0
   56095 WT3  4964 TIP3 OH2  OT    -0.834000       15.9994           0
   56096 WT3  4964 TIP3 H1   HT     0.417000        1.0080           0
   56097 WT3  4964 TIP3 H2   HT     0.417000        1.0080           0
   56098 WT3  4965 TIP3 OH2  OT    -0.834000       15.9994           0
   56099 WT3  4965 TIP3 H1   HT     0.417000        1.0080           0
   56100 WT3  4965 TIP3 H2   HT     0.417000        1.0080           0
   56101 WT3  4966 TIP3 OH2  OT    -0.834000       15.9994           0
   56102 WT3  4966 TIP3 H1   HT     0.417000        1.0080           0
   56103 WT3  4966 TIP3 H2   HT     0.417000        1.0080           0
   56104 WT3  4967 TIP3 OH2  OT    -0.834000       15.9994           0
   56105 WT3  4967 TIP3 H1   HT     0.417000        1.0080           0
   56106 WT3  4967 TIP3 H2   HT     0.417000        1.0080           0
   56107 WT3  4968 TIP3 OH2  OT    -0.834000       15.9994           0
   56108 WT3  4968 TIP3 H1   HT     0.417000        1.0080           0
   56109 WT3  4968 TIP3 H2   HT     0.417000        1.0080           0
   56110 WT3  4969 TIP3 OH2  OT    -0.834000       15.9994           0
   56111 WT3  4969 TIP3 H1   HT     0.417000        1.0080           0
   56112 WT3  4969 TIP3 H2   HT     0.417000        1.0080           0
   56113 WT3  4971 TIP3 OH2  OT    -0.834000       15.9994           0
   56114 WT3  4971 TIP3 H1   HT     0.417000        1.0080           0
   56115 WT3  4971 TIP3 H2   HT     0.417000        1.0080           0
   56116 WT3  4972 TIP3 OH2  OT    -0.834000       15.9994           0
   56117 WT3  4972 TIP3 H1   HT     0.417000        1.0080           0
   56118 WT3  4972 TIP3 H2   HT     0.417000        1.0080           0
   56119 WT3  4973 TIP3 OH2  OT    -0.834000       15.9994           0
   56120 WT3  4973 TIP3 H1   HT     0.417000        1.0080           0
   56121 WT3  4973 TIP3 H2   HT     0.417000        1.0080           0
   56122 WT3  4975 TIP3 OH2  OT    -0.834000       15.9994           0
   56123 WT3  4975 TIP3 H1   HT     0.417000        1.0080           0
   56124 WT3  4975 TIP3 H2   HT     0.417000        1.0080           0
   56125 WT3  4976 TIP3 OH2  OT    -0.834000       15.9994           0
   56126 WT3  4976 TIP3 H1   HT     0.417000        1.0080           0
   56127 WT3  4976 TIP3 H2   HT     0.417000        1.0080           0
   56128 WT3  4977 TIP3 OH2  OT    -0.834000       15.9994           0
   56129 WT3  4977 TIP3 H1   HT     0.417000        1.0080           0
   56130 WT3  4977 TIP3 H2   HT     0.417000        1.0080           0
   56131 WT3  4978 TIP3 OH2  OT    -0.834000       15.9994           0
   56132 WT3  4978 TIP3 H1   HT     0.417000        1.0080           0
   56133 WT3  4978 TIP3 H2   HT     0.417000        1.0080           0
   56134 WT3  4979 TIP3 OH2  OT    -0.834000       15.9994           0
   56135 WT3  4979 TIP3 H1   HT     0.417000        1.0080           0
   56136 WT3  4979 TIP3 H2   HT     0.417000        1.0080           0
   56137 WT3  4980 TIP3 OH2  OT    -0.834000       15.9994           0
   56138 WT3  4980 TIP3 H1   HT     0.417000        1.0080           0
   56139 WT3  4980 TIP3 H2   HT     0.417000        1.0080           0
   56140 WT3  4981 TIP3 OH2  OT    -0.834000       15.9994           0
   56141 WT3  4981 TIP3 H1   HT     0.417000        1.0080           0
   56142 WT3  4981 TIP3 H2   HT     0.417000        1.0080           0
   56143 WT3  4982 TIP3 OH2  OT    -0.834000       15.9994           0
   56144 WT3  4982 TIP3 H1   HT     0.417000        1.0080           0
   56145 WT3  4982 TIP3 H2   HT     0.417000        1.0080           0
   56146 WT3  4983 TIP3 OH2  OT    -0.834000       15.9994           0
   56147 WT3  4983 TIP3 H1   HT     0.417000        1.0080           0
   56148 WT3  4983 TIP3 H2   HT     0.417000        1.0080           0
   56149 WT3  4984 TIP3 OH2  OT    -0.834000       15.9994           0
   56150 WT3  4984 TIP3 H1   HT     0.417000        1.0080           0
   56151 WT3  4984 TIP3 H2   HT     0.417000        1.0080           0
   56152 WT3  4985 TIP3 OH2  OT    -0.834000       15.9994           0
   56153 WT3  4985 TIP3 H1   HT     0.417000        1.0080           0
   56154 WT3  4985 TIP3 H2   HT     0.417000        1.0080           0
   56155 WT3  4986 TIP3 OH2  OT    -0.834000       15.9994           0
   56156 WT3  4986 TIP3 H1   HT     0.417000        1.0080           0
   56157 WT3  4986 TIP3 H2   HT     0.417000        1.0080           0
   56158 WT3  4987 TIP3 OH2  OT    -0.834000       15.9994           0
   56159 WT3  4987 TIP3 H1   HT     0.417000        1.0080           0
   56160 WT3  4987 TIP3 H2   HT     0.417000        1.0080           0
   56161 WT3  4988 TIP3 OH2  OT    -0.834000       15.9994           0
   56162 WT3  4988 TIP3 H1   HT     0.417000        1.0080           0
   56163 WT3  4988 TIP3 H2   HT     0.417000        1.0080           0
   56164 WT3  4989 TIP3 OH2  OT    -0.834000       15.9994           0
   56165 WT3  4989 TIP3 H1   HT     0.417000        1.0080           0
   56166 WT3  4989 TIP3 H2   HT     0.417000        1.0080           0
   56167 WT3  4991 TIP3 OH2  OT    -0.834000       15.9994           0
   56168 WT3  4991 TIP3 H1   HT     0.417000        1.0080           0
   56169 WT3  4991 TIP3 H2   HT     0.417000        1.0080           0
   56170 WT3  4992 TIP3 OH2  OT    -0.834000       15.9994           0
   56171 WT3  4992 TIP3 H1   HT     0.417000        1.0080           0
   56172 WT3  4992 TIP3 H2   HT     0.417000        1.0080           0
   56173 WT3  4993 TIP3 OH2  OT    -0.834000       15.9994           0
   56174 WT3  4993 TIP3 H1   HT     0.417000        1.0080           0
   56175 WT3  4993 TIP3 H2   HT     0.417000        1.0080           0
   56176 WT3  4994 TIP3 OH2  OT    -0.834000       15.9994           0
   56177 WT3  4994 TIP3 H1   HT     0.417000        1.0080           0
   56178 WT3  4994 TIP3 H2   HT     0.417000        1.0080           0
   56179 WT3  4995 TIP3 OH2  OT    -0.834000       15.9994           0
   56180 WT3  4995 TIP3 H1   HT     0.417000        1.0080           0
   56181 WT3  4995 TIP3 H2   HT     0.417000        1.0080           0
   56182 WT3  4996 TIP3 OH2  OT    -0.834000       15.9994           0
   56183 WT3  4996 TIP3 H1   HT     0.417000        1.0080           0
   56184 WT3  4996 TIP3 H2   HT     0.417000        1.0080           0
   56185 WT3  4998 TIP3 OH2  OT    -0.834000       15.9994           0
   56186 WT3  4998 TIP3 H1   HT     0.417000        1.0080           0
   56187 WT3  4998 TIP3 H2   HT     0.417000        1.0080           0
   56188 WT3  4999 TIP3 OH2  OT    -0.834000       15.9994           0
   56189 WT3  4999 TIP3 H1   HT     0.417000        1.0080           0
   56190 WT3  4999 TIP3 H2   HT     0.417000        1.0080           0
   56191 WT3  5000 TIP3 OH2  OT    -0.834000       15.9994           0
   56192 WT3  5000 TIP3 H1   HT     0.417000        1.0080           0
   56193 WT3  5000 TIP3 H2   HT     0.417000        1.0080           0
   56194 WT3  5001 TIP3 OH2  OT    -0.834000       15.9994           0
   56195 WT3  5001 TIP3 H1   HT     0.417000        1.0080           0
   56196 WT3  5001 TIP3 H2   HT     0.417000        1.0080           0
   56197 WT3  5002 TIP3 OH2  OT    -0.834000       15.9994           0
   56198 WT3  5002 TIP3 H1   HT     0.417000        1.0080           0
   56199 WT3  5002 TIP3 H2   HT     0.417000        1.0080           0
   56200 WT3  5003 TIP3 OH2  OT    -0.834000       15.9994           0
   56201 WT3  5003 TIP3 H1   HT     0.417000        1.0080           0
   56202 WT3  5003 TIP3 H2   HT     0.417000        1.0080           0
   56203 WT3  5004 TIP3 OH2  OT    -0.834000       15.9994           0
   56204 WT3  5004 TIP3 H1   HT     0.417000        1.0080           0
   56205 WT3  5004 TIP3 H2   HT     0.417000        1.0080           0
   56206 WT3  5005 TIP3 OH2  OT    -0.834000       15.9994           0
   56207 WT3  5005 TIP3 H1   HT     0.417000        1.0080           0
   56208 WT3  5005 TIP3 H2   HT     0.417000        1.0080           0
   56209 WT3  5006 TIP3 OH2  OT    -0.834000       15.9994           0
   56210 WT3  5006 TIP3 H1   HT     0.417000        1.0080           0
   56211 WT3  5006 TIP3 H2   HT     0.417000        1.0080           0
   56212 WT3  5007 TIP3 OH2  OT    -0.834000       15.9994           0
   56213 WT3  5007 TIP3 H1   HT     0.417000        1.0080           0
   56214 WT3  5007 TIP3 H2   HT     0.417000        1.0080           0
   56215 WT3  5008 TIP3 OH2  OT    -0.834000       15.9994           0
   56216 WT3  5008 TIP3 H1   HT     0.417000        1.0080           0
   56217 WT3  5008 TIP3 H2   HT     0.417000        1.0080           0
   56218 WT3  5009 TIP3 OH2  OT    -0.834000       15.9994           0
   56219 WT3  5009 TIP3 H1   HT     0.417000        1.0080           0
   56220 WT3  5009 TIP3 H2   HT     0.417000        1.0080           0
   56221 WT3  5010 TIP3 OH2  OT    -0.834000       15.9994           0
   56222 WT3  5010 TIP3 H1   HT     0.417000        1.0080           0
   56223 WT3  5010 TIP3 H2   HT     0.417000        1.0080           0
   56224 WT3  5012 TIP3 OH2  OT    -0.834000       15.9994           0
   56225 WT3  5012 TIP3 H1   HT     0.417000        1.0080           0
   56226 WT3  5012 TIP3 H2   HT     0.417000        1.0080           0
   56227 WT3  5013 TIP3 OH2  OT    -0.834000       15.9994           0
   56228 WT3  5013 TIP3 H1   HT     0.417000        1.0080           0
   56229 WT3  5013 TIP3 H2   HT     0.417000        1.0080           0
   56230 WT3  5014 TIP3 OH2  OT    -0.834000       15.9994           0
   56231 WT3  5014 TIP3 H1   HT     0.417000        1.0080           0
   56232 WT3  5014 TIP3 H2   HT     0.417000        1.0080           0
   56233 WT3  5015 TIP3 OH2  OT    -0.834000       15.9994           0
   56234 WT3  5015 TIP3 H1   HT     0.417000        1.0080           0
   56235 WT3  5015 TIP3 H2   HT     0.417000        1.0080           0
   56236 WT3  5016 TIP3 OH2  OT    -0.834000       15.9994           0
   56237 WT3  5016 TIP3 H1   HT     0.417000        1.0080           0
   56238 WT3  5016 TIP3 H2   HT     0.417000        1.0080           0
   56239 WT3  5017 TIP3 OH2  OT    -0.834000       15.9994           0
   56240 WT3  5017 TIP3 H1   HT     0.417000        1.0080           0
   56241 WT3  5017 TIP3 H2   HT     0.417000        1.0080           0
   56242 WT3  5019 TIP3 OH2  OT    -0.834000       15.9994           0
   56243 WT3  5019 TIP3 H1   HT     0.417000        1.0080           0
   56244 WT3  5019 TIP3 H2   HT     0.417000        1.0080           0
   56245 WT3  5020 TIP3 OH2  OT    -0.834000       15.9994           0
   56246 WT3  5020 TIP3 H1   HT     0.417000        1.0080           0
   56247 WT3  5020 TIP3 H2   HT     0.417000        1.0080           0
   56248 WT3  5021 TIP3 OH2  OT    -0.834000       15.9994           0
   56249 WT3  5021 TIP3 H1   HT     0.417000        1.0080           0
   56250 WT3  5021 TIP3 H2   HT     0.417000        1.0080           0
   56251 WT3  5022 TIP3 OH2  OT    -0.834000       15.9994           0
   56252 WT3  5022 TIP3 H1   HT     0.417000        1.0080           0
   56253 WT3  5022 TIP3 H2   HT     0.417000        1.0080           0
   56254 WT3  5023 TIP3 OH2  OT    -0.834000       15.9994           0
   56255 WT3  5023 TIP3 H1   HT     0.417000        1.0080           0
   56256 WT3  5023 TIP3 H2   HT     0.417000        1.0080           0
   56257 WT3  5024 TIP3 OH2  OT    -0.834000       15.9994           0
   56258 WT3  5024 TIP3 H1   HT     0.417000        1.0080           0
   56259 WT3  5024 TIP3 H2   HT     0.417000        1.0080           0
   56260 WT3  5025 TIP3 OH2  OT    -0.834000       15.9994           0
   56261 WT3  5025 TIP3 H1   HT     0.417000        1.0080           0
   56262 WT3  5025 TIP3 H2   HT     0.417000        1.0080           0
   56263 WT3  5027 TIP3 OH2  OT    -0.834000       15.9994           0
   56264 WT3  5027 TIP3 H1   HT     0.417000        1.0080           0
   56265 WT3  5027 TIP3 H2   HT     0.417000        1.0080           0
   56266 WT3  5028 TIP3 OH2  OT    -0.834000       15.9994           0
   56267 WT3  5028 TIP3 H1   HT     0.417000        1.0080           0
   56268 WT3  5028 TIP3 H2   HT     0.417000        1.0080           0
   56269 WT3  5029 TIP3 OH2  OT    -0.834000       15.9994           0
   56270 WT3  5029 TIP3 H1   HT     0.417000        1.0080           0
   56271 WT3  5029 TIP3 H2   HT     0.417000        1.0080           0
   56272 WT3  5030 TIP3 OH2  OT    -0.834000       15.9994           0
   56273 WT3  5030 TIP3 H1   HT     0.417000        1.0080           0
   56274 WT3  5030 TIP3 H2   HT     0.417000        1.0080           0
   56275 WT3  5032 TIP3 OH2  OT    -0.834000       15.9994           0
   56276 WT3  5032 TIP3 H1   HT     0.417000        1.0080           0
   56277 WT3  5032 TIP3 H2   HT     0.417000        1.0080           0
   56278 WT3  5033 TIP3 OH2  OT    -0.834000       15.9994           0
   56279 WT3  5033 TIP3 H1   HT     0.417000        1.0080           0
   56280 WT3  5033 TIP3 H2   HT     0.417000        1.0080           0
   56281 WT3  5034 TIP3 OH2  OT    -0.834000       15.9994           0
   56282 WT3  5034 TIP3 H1   HT     0.417000        1.0080           0
   56283 WT3  5034 TIP3 H2   HT     0.417000        1.0080           0
   56284 WT3  5035 TIP3 OH2  OT    -0.834000       15.9994           0
   56285 WT3  5035 TIP3 H1   HT     0.417000        1.0080           0
   56286 WT3  5035 TIP3 H2   HT     0.417000        1.0080           0
   56287 WT3  5036 TIP3 OH2  OT    -0.834000       15.9994           0
   56288 WT3  5036 TIP3 H1   HT     0.417000        1.0080           0
   56289 WT3  5036 TIP3 H2   HT     0.417000        1.0080           0
   56290 WT3  5039 TIP3 OH2  OT    -0.834000       15.9994           0
   56291 WT3  5039 TIP3 H1   HT     0.417000        1.0080           0
   56292 WT3  5039 TIP3 H2   HT     0.417000        1.0080           0
   56293 WT3  5040 TIP3 OH2  OT    -0.834000       15.9994           0
   56294 WT3  5040 TIP3 H1   HT     0.417000        1.0080           0
   56295 WT3  5040 TIP3 H2   HT     0.417000        1.0080           0
   56296 WT3  5041 TIP3 OH2  OT    -0.834000       15.9994           0
   56297 WT3  5041 TIP3 H1   HT     0.417000        1.0080           0
   56298 WT3  5041 TIP3 H2   HT     0.417000        1.0080           0
   56299 WT3  5042 TIP3 OH2  OT    -0.834000       15.9994           0
   56300 WT3  5042 TIP3 H1   HT     0.417000        1.0080           0
   56301 WT3  5042 TIP3 H2   HT     0.417000        1.0080           0
   56302 WT3  5043 TIP3 OH2  OT    -0.834000       15.9994           0
   56303 WT3  5043 TIP3 H1   HT     0.417000        1.0080           0
   56304 WT3  5043 TIP3 H2   HT     0.417000        1.0080           0
   56305 WT3  5044 TIP3 OH2  OT    -0.834000       15.9994           0
   56306 WT3  5044 TIP3 H1   HT     0.417000        1.0080           0
   56307 WT3  5044 TIP3 H2   HT     0.417000        1.0080           0
   56308 WT3  5045 TIP3 OH2  OT    -0.834000       15.9994           0
   56309 WT3  5045 TIP3 H1   HT     0.417000        1.0080           0
   56310 WT3  5045 TIP3 H2   HT     0.417000        1.0080           0
   56311 WT3  5046 TIP3 OH2  OT    -0.834000       15.9994           0
   56312 WT3  5046 TIP3 H1   HT     0.417000        1.0080           0
   56313 WT3  5046 TIP3 H2   HT     0.417000        1.0080           0
   56314 WT3  5047 TIP3 OH2  OT    -0.834000       15.9994           0
   56315 WT3  5047 TIP3 H1   HT     0.417000        1.0080           0
   56316 WT3  5047 TIP3 H2   HT     0.417000        1.0080           0
   56317 WT3  5048 TIP3 OH2  OT    -0.834000       15.9994           0
   56318 WT3  5048 TIP3 H1   HT     0.417000        1.0080           0
   56319 WT3  5048 TIP3 H2   HT     0.417000        1.0080           0
   56320 WT3  5049 TIP3 OH2  OT    -0.834000       15.9994           0
   56321 WT3  5049 TIP3 H1   HT     0.417000        1.0080           0
   56322 WT3  5049 TIP3 H2   HT     0.417000        1.0080           0
   56323 WT3  5050 TIP3 OH2  OT    -0.834000       15.9994           0
   56324 WT3  5050 TIP3 H1   HT     0.417000        1.0080           0
   56325 WT3  5050 TIP3 H2   HT     0.417000        1.0080           0
   56326 WT3  5051 TIP3 OH2  OT    -0.834000       15.9994           0
   56327 WT3  5051 TIP3 H1   HT     0.417000        1.0080           0
   56328 WT3  5051 TIP3 H2   HT     0.417000        1.0080           0
   56329 WT3  5052 TIP3 OH2  OT    -0.834000       15.9994           0
   56330 WT3  5052 TIP3 H1   HT     0.417000        1.0080           0
   56331 WT3  5052 TIP3 H2   HT     0.417000        1.0080           0
   56332 WT3  5053 TIP3 OH2  OT    -0.834000       15.9994           0
   56333 WT3  5053 TIP3 H1   HT     0.417000        1.0080           0
   56334 WT3  5053 TIP3 H2   HT     0.417000        1.0080           0
   56335 WT3  5054 TIP3 OH2  OT    -0.834000       15.9994           0
   56336 WT3  5054 TIP3 H1   HT     0.417000        1.0080           0
   56337 WT3  5054 TIP3 H2   HT     0.417000        1.0080           0
   56338 WT3  5056 TIP3 OH2  OT    -0.834000       15.9994           0
   56339 WT3  5056 TIP3 H1   HT     0.417000        1.0080           0
   56340 WT3  5056 TIP3 H2   HT     0.417000        1.0080           0
   56341 WT3  5058 TIP3 OH2  OT    -0.834000       15.9994           0
   56342 WT3  5058 TIP3 H1   HT     0.417000        1.0080           0
   56343 WT3  5058 TIP3 H2   HT     0.417000        1.0080           0
   56344 WT3  5059 TIP3 OH2  OT    -0.834000       15.9994           0
   56345 WT3  5059 TIP3 H1   HT     0.417000        1.0080           0
   56346 WT3  5059 TIP3 H2   HT     0.417000        1.0080           0
   56347 WT3  5060 TIP3 OH2  OT    -0.834000       15.9994           0
   56348 WT3  5060 TIP3 H1   HT     0.417000        1.0080           0
   56349 WT3  5060 TIP3 H2   HT     0.417000        1.0080           0
   56350 WT3  5061 TIP3 OH2  OT    -0.834000       15.9994           0
   56351 WT3  5061 TIP3 H1   HT     0.417000        1.0080           0
   56352 WT3  5061 TIP3 H2   HT     0.417000        1.0080           0
   56353 WT3  5062 TIP3 OH2  OT    -0.834000       15.9994           0
   56354 WT3  5062 TIP3 H1   HT     0.417000        1.0080           0
   56355 WT3  5062 TIP3 H2   HT     0.417000        1.0080           0
   56356 WT3  5063 TIP3 OH2  OT    -0.834000       15.9994           0
   56357 WT3  5063 TIP3 H1   HT     0.417000        1.0080           0
   56358 WT3  5063 TIP3 H2   HT     0.417000        1.0080           0
   56359 WT3  5064 TIP3 OH2  OT    -0.834000       15.9994           0
   56360 WT3  5064 TIP3 H1   HT     0.417000        1.0080           0
   56361 WT3  5064 TIP3 H2   HT     0.417000        1.0080           0
   56362 WT3  5065 TIP3 OH2  OT    -0.834000       15.9994           0
   56363 WT3  5065 TIP3 H1   HT     0.417000        1.0080           0
   56364 WT3  5065 TIP3 H2   HT     0.417000        1.0080           0
   56365 WT3  5066 TIP3 OH2  OT    -0.834000       15.9994           0
   56366 WT3  5066 TIP3 H1   HT     0.417000        1.0080           0
   56367 WT3  5066 TIP3 H2   HT     0.417000        1.0080           0
   56368 WT3  5067 TIP3 OH2  OT    -0.834000       15.9994           0
   56369 WT3  5067 TIP3 H1   HT     0.417000        1.0080           0
   56370 WT3  5067 TIP3 H2   HT     0.417000        1.0080           0
   56371 WT3  5068 TIP3 OH2  OT    -0.834000       15.9994           0
   56372 WT3  5068 TIP3 H1   HT     0.417000        1.0080           0
   56373 WT3  5068 TIP3 H2   HT     0.417000        1.0080           0
   56374 WT3  5069 TIP3 OH2  OT    -0.834000       15.9994           0
   56375 WT3  5069 TIP3 H1   HT     0.417000        1.0080           0
   56376 WT3  5069 TIP3 H2   HT     0.417000        1.0080           0
   56377 WT3  5070 TIP3 OH2  OT    -0.834000       15.9994           0
   56378 WT3  5070 TIP3 H1   HT     0.417000        1.0080           0
   56379 WT3  5070 TIP3 H2   HT     0.417000        1.0080           0
   56380 WT3  5072 TIP3 OH2  OT    -0.834000       15.9994           0
   56381 WT3  5072 TIP3 H1   HT     0.417000        1.0080           0
   56382 WT3  5072 TIP3 H2   HT     0.417000        1.0080           0
   56383 WT3  5073 TIP3 OH2  OT    -0.834000       15.9994           0
   56384 WT3  5073 TIP3 H1   HT     0.417000        1.0080           0
   56385 WT3  5073 TIP3 H2   HT     0.417000        1.0080           0
   56386 WT3  5074 TIP3 OH2  OT    -0.834000       15.9994           0
   56387 WT3  5074 TIP3 H1   HT     0.417000        1.0080           0
   56388 WT3  5074 TIP3 H2   HT     0.417000        1.0080           0
   56389 WT3  5075 TIP3 OH2  OT    -0.834000       15.9994           0
   56390 WT3  5075 TIP3 H1   HT     0.417000        1.0080           0
   56391 WT3  5075 TIP3 H2   HT     0.417000        1.0080           0
   56392 WT3  5076 TIP3 OH2  OT    -0.834000       15.9994           0
   56393 WT3  5076 TIP3 H1   HT     0.417000        1.0080           0
   56394 WT3  5076 TIP3 H2   HT     0.417000        1.0080           0
   56395 WT3  5081 TIP3 OH2  OT    -0.834000       15.9994           0
   56396 WT3  5081 TIP3 H1   HT     0.417000        1.0080           0
   56397 WT3  5081 TIP3 H2   HT     0.417000        1.0080           0
   56398 WT3  5082 TIP3 OH2  OT    -0.834000       15.9994           0
   56399 WT3  5082 TIP3 H1   HT     0.417000        1.0080           0
   56400 WT3  5082 TIP3 H2   HT     0.417000        1.0080           0
   56401 WT3  5083 TIP3 OH2  OT    -0.834000       15.9994           0
   56402 WT3  5083 TIP3 H1   HT     0.417000        1.0080           0
   56403 WT3  5083 TIP3 H2   HT     0.417000        1.0080           0
   56404 WT3  5084 TIP3 OH2  OT    -0.834000       15.9994           0
   56405 WT3  5084 TIP3 H1   HT     0.417000        1.0080           0
   56406 WT3  5084 TIP3 H2   HT     0.417000        1.0080           0
   56407 WT3  5085 TIP3 OH2  OT    -0.834000       15.9994           0
   56408 WT3  5085 TIP3 H1   HT     0.417000        1.0080           0
   56409 WT3  5085 TIP3 H2   HT     0.417000        1.0080           0
   56410 WT3  5086 TIP3 OH2  OT    -0.834000       15.9994           0
   56411 WT3  5086 TIP3 H1   HT     0.417000        1.0080           0
   56412 WT3  5086 TIP3 H2   HT     0.417000        1.0080           0
   56413 WT3  5087 TIP3 OH2  OT    -0.834000       15.9994           0
   56414 WT3  5087 TIP3 H1   HT     0.417000        1.0080           0
   56415 WT3  5087 TIP3 H2   HT     0.417000        1.0080           0
   56416 WT3  5088 TIP3 OH2  OT    -0.834000       15.9994           0
   56417 WT3  5088 TIP3 H1   HT     0.417000        1.0080           0
   56418 WT3  5088 TIP3 H2   HT     0.417000        1.0080           0
   56419 WT3  5089 TIP3 OH2  OT    -0.834000       15.9994           0
   56420 WT3  5089 TIP3 H1   HT     0.417000        1.0080           0
   56421 WT3  5089 TIP3 H2   HT     0.417000        1.0080           0
   56422 WT3  5091 TIP3 OH2  OT    -0.834000       15.9994           0
   56423 WT3  5091 TIP3 H1   HT     0.417000        1.0080           0
   56424 WT3  5091 TIP3 H2   HT     0.417000        1.0080           0
   56425 WT3  5092 TIP3 OH2  OT    -0.834000       15.9994           0
   56426 WT3  5092 TIP3 H1   HT     0.417000        1.0080           0
   56427 WT3  5092 TIP3 H2   HT     0.417000        1.0080           0
   56428 WT3  5093 TIP3 OH2  OT    -0.834000       15.9994           0
   56429 WT3  5093 TIP3 H1   HT     0.417000        1.0080           0
   56430 WT3  5093 TIP3 H2   HT     0.417000        1.0080           0
   56431 WT3  5094 TIP3 OH2  OT    -0.834000       15.9994           0
   56432 WT3  5094 TIP3 H1   HT     0.417000        1.0080           0
   56433 WT3  5094 TIP3 H2   HT     0.417000        1.0080           0
   56434 WT3  5097 TIP3 OH2  OT    -0.834000       15.9994           0
   56435 WT3  5097 TIP3 H1   HT     0.417000        1.0080           0
   56436 WT3  5097 TIP3 H2   HT     0.417000        1.0080           0
   56437 WT3  5098 TIP3 OH2  OT    -0.834000       15.9994           0
   56438 WT3  5098 TIP3 H1   HT     0.417000        1.0080           0
   56439 WT3  5098 TIP3 H2   HT     0.417000        1.0080           0
   56440 WT3  5099 TIP3 OH2  OT    -0.834000       15.9994           0
   56441 WT3  5099 TIP3 H1   HT     0.417000        1.0080           0
   56442 WT3  5099 TIP3 H2   HT     0.417000        1.0080           0
   56443 WT3  5103 TIP3 OH2  OT    -0.834000       15.9994           0
   56444 WT3  5103 TIP3 H1   HT     0.417000        1.0080           0
   56445 WT3  5103 TIP3 H2   HT     0.417000        1.0080           0
   56446 WT3  5106 TIP3 OH2  OT    -0.834000       15.9994           0
   56447 WT3  5106 TIP3 H1   HT     0.417000        1.0080           0
   56448 WT3  5106 TIP3 H2   HT     0.417000        1.0080           0
   56449 WT3  5107 TIP3 OH2  OT    -0.834000       15.9994           0
   56450 WT3  5107 TIP3 H1   HT     0.417000        1.0080           0
   56451 WT3  5107 TIP3 H2   HT     0.417000        1.0080           0
   56452 WT3  5108 TIP3 OH2  OT    -0.834000       15.9994           0
   56453 WT3  5108 TIP3 H1   HT     0.417000        1.0080           0
   56454 WT3  5108 TIP3 H2   HT     0.417000        1.0080           0
   56455 WT3  5110 TIP3 OH2  OT    -0.834000       15.9994           0
   56456 WT3  5110 TIP3 H1   HT     0.417000        1.0080           0
   56457 WT3  5110 TIP3 H2   HT     0.417000        1.0080           0
   56458 WT3  5114 TIP3 OH2  OT    -0.834000       15.9994           0
   56459 WT3  5114 TIP3 H1   HT     0.417000        1.0080           0
   56460 WT3  5114 TIP3 H2   HT     0.417000        1.0080           0
   56461 WT3  5115 TIP3 OH2  OT    -0.834000       15.9994           0
   56462 WT3  5115 TIP3 H1   HT     0.417000        1.0080           0
   56463 WT3  5115 TIP3 H2   HT     0.417000        1.0080           0
   56464 WT3  5116 TIP3 OH2  OT    -0.834000       15.9994           0
   56465 WT3  5116 TIP3 H1   HT     0.417000        1.0080           0
   56466 WT3  5116 TIP3 H2   HT     0.417000        1.0080           0
   56467 WT3  5117 TIP3 OH2  OT    -0.834000       15.9994           0
   56468 WT3  5117 TIP3 H1   HT     0.417000        1.0080           0
   56469 WT3  5117 TIP3 H2   HT     0.417000        1.0080           0
   56470 WT3  5118 TIP3 OH2  OT    -0.834000       15.9994           0
   56471 WT3  5118 TIP3 H1   HT     0.417000        1.0080           0
   56472 WT3  5118 TIP3 H2   HT     0.417000        1.0080           0
   56473 WT3  5119 TIP3 OH2  OT    -0.834000       15.9994           0
   56474 WT3  5119 TIP3 H1   HT     0.417000        1.0080           0
   56475 WT3  5119 TIP3 H2   HT     0.417000        1.0080           0
   56476 WT3  5121 TIP3 OH2  OT    -0.834000       15.9994           0
   56477 WT3  5121 TIP3 H1   HT     0.417000        1.0080           0
   56478 WT3  5121 TIP3 H2   HT     0.417000        1.0080           0
   56479 WT3  5124 TIP3 OH2  OT    -0.834000       15.9994           0
   56480 WT3  5124 TIP3 H1   HT     0.417000        1.0080           0
   56481 WT3  5124 TIP3 H2   HT     0.417000        1.0080           0
   56482 WT3  5125 TIP3 OH2  OT    -0.834000       15.9994           0
   56483 WT3  5125 TIP3 H1   HT     0.417000        1.0080           0
   56484 WT3  5125 TIP3 H2   HT     0.417000        1.0080           0
   56485 WT3  5127 TIP3 OH2  OT    -0.834000       15.9994           0
   56486 WT3  5127 TIP3 H1   HT     0.417000        1.0080           0
   56487 WT3  5127 TIP3 H2   HT     0.417000        1.0080           0
   56488 WT3  5133 TIP3 OH2  OT    -0.834000       15.9994           0
   56489 WT3  5133 TIP3 H1   HT     0.417000        1.0080           0
   56490 WT3  5133 TIP3 H2   HT     0.417000        1.0080           0
   56491 WT3  5134 TIP3 OH2  OT    -0.834000       15.9994           0
   56492 WT3  5134 TIP3 H1   HT     0.417000        1.0080           0
   56493 WT3  5134 TIP3 H2   HT     0.417000        1.0080           0
   56494 WT3  5135 TIP3 OH2  OT    -0.834000       15.9994           0
   56495 WT3  5135 TIP3 H1   HT     0.417000        1.0080           0
   56496 WT3  5135 TIP3 H2   HT     0.417000        1.0080           0
   56497 WT3  5136 TIP3 OH2  OT    -0.834000       15.9994           0
   56498 WT3  5136 TIP3 H1   HT     0.417000        1.0080           0
   56499 WT3  5136 TIP3 H2   HT     0.417000        1.0080           0
   56500 WT3  5140 TIP3 OH2  OT    -0.834000       15.9994           0
   56501 WT3  5140 TIP3 H1   HT     0.417000        1.0080           0
   56502 WT3  5140 TIP3 H2   HT     0.417000        1.0080           0
   56503 WT3  5142 TIP3 OH2  OT    -0.834000       15.9994           0
   56504 WT3  5142 TIP3 H1   HT     0.417000        1.0080           0
   56505 WT3  5142 TIP3 H2   HT     0.417000        1.0080           0
   56506 WT3  5144 TIP3 OH2  OT    -0.834000       15.9994           0
   56507 WT3  5144 TIP3 H1   HT     0.417000        1.0080           0
   56508 WT3  5144 TIP3 H2   HT     0.417000        1.0080           0
   56509 WT3  5151 TIP3 OH2  OT    -0.834000       15.9994           0
   56510 WT3  5151 TIP3 H1   HT     0.417000        1.0080           0
   56511 WT3  5151 TIP3 H2   HT     0.417000        1.0080           0
   56512 WT3  5155 TIP3 OH2  OT    -0.834000       15.9994           0
   56513 WT3  5155 TIP3 H1   HT     0.417000        1.0080           0
   56514 WT3  5155 TIP3 H2   HT     0.417000        1.0080           0
   56515 WT3  5157 TIP3 OH2  OT    -0.834000       15.9994           0
   56516 WT3  5157 TIP3 H1   HT     0.417000        1.0080           0
   56517 WT3  5157 TIP3 H2   HT     0.417000        1.0080           0
   56518 WT3  5158 TIP3 OH2  OT    -0.834000       15.9994           0
   56519 WT3  5158 TIP3 H1   HT     0.417000        1.0080           0
   56520 WT3  5158 TIP3 H2   HT     0.417000        1.0080           0
   56521 WT3  5161 TIP3 OH2  OT    -0.834000       15.9994           0
   56522 WT3  5161 TIP3 H1   HT     0.417000        1.0080           0
   56523 WT3  5161 TIP3 H2   HT     0.417000        1.0080           0
   56524 WT3  5162 TIP3 OH2  OT    -0.834000       15.9994           0
   56525 WT3  5162 TIP3 H1   HT     0.417000        1.0080           0
   56526 WT3  5162 TIP3 H2   HT     0.417000        1.0080           0
   56527 WT3  5164 TIP3 OH2  OT    -0.834000       15.9994           0
   56528 WT3  5164 TIP3 H1   HT     0.417000        1.0080           0
   56529 WT3  5164 TIP3 H2   HT     0.417000        1.0080           0
   56530 WT3  5165 TIP3 OH2  OT    -0.834000       15.9994           0
   56531 WT3  5165 TIP3 H1   HT     0.417000        1.0080           0
   56532 WT3  5165 TIP3 H2   HT     0.417000        1.0080           0
   56533 WT3  5166 TIP3 OH2  OT    -0.834000       15.9994           0
   56534 WT3  5166 TIP3 H1   HT     0.417000        1.0080           0
   56535 WT3  5166 TIP3 H2   HT     0.417000        1.0080           0
   56536 WT3  5169 TIP3 OH2  OT    -0.834000       15.9994           0
   56537 WT3  5169 TIP3 H1   HT     0.417000        1.0080           0
   56538 WT3  5169 TIP3 H2   HT     0.417000        1.0080           0
   56539 WT3  5170 TIP3 OH2  OT    -0.834000       15.9994           0
   56540 WT3  5170 TIP3 H1   HT     0.417000        1.0080           0
   56541 WT3  5170 TIP3 H2   HT     0.417000        1.0080           0
   56542 WT3  5175 TIP3 OH2  OT    -0.834000       15.9994           0
   56543 WT3  5175 TIP3 H1   HT     0.417000        1.0080           0
   56544 WT3  5175 TIP3 H2   HT     0.417000        1.0080           0
   56545 WT3  5176 TIP3 OH2  OT    -0.834000       15.9994           0
   56546 WT3  5176 TIP3 H1   HT     0.417000        1.0080           0
   56547 WT3  5176 TIP3 H2   HT     0.417000        1.0080           0
   56548 WT3  5193 TIP3 OH2  OT    -0.834000       15.9994           0
   56549 WT3  5193 TIP3 H1   HT     0.417000        1.0080           0
   56550 WT3  5193 TIP3 H2   HT     0.417000        1.0080           0
   56551 WT3  5195 TIP3 OH2  OT    -0.834000       15.9994           0
   56552 WT3  5195 TIP3 H1   HT     0.417000        1.0080           0
   56553 WT3  5195 TIP3 H2   HT     0.417000        1.0080           0
   56554 WT3  5196 TIP3 OH2  OT    -0.834000       15.9994           0
   56555 WT3  5196 TIP3 H1   HT     0.417000        1.0080           0
   56556 WT3  5196 TIP3 H2   HT     0.417000        1.0080           0
   56557 WT3  5213 TIP3 OH2  OT    -0.834000       15.9994           0
   56558 WT3  5213 TIP3 H1   HT     0.417000        1.0080           0
   56559 WT3  5213 TIP3 H2   HT     0.417000        1.0080           0
   56560 WT3  5218 TIP3 OH2  OT    -0.834000       15.9994           0
   56561 WT3  5218 TIP3 H1   HT     0.417000        1.0080           0
   56562 WT3  5218 TIP3 H2   HT     0.417000        1.0080           0
   56563 WT3  5228 TIP3 OH2  OT    -0.834000       15.9994           0
   56564 WT3  5228 TIP3 H1   HT     0.417000        1.0080           0
   56565 WT3  5228 TIP3 H2   HT     0.417000        1.0080           0
   56566 WT3  5234 TIP3 OH2  OT    -0.834000       15.9994           0
   56567 WT3  5234 TIP3 H1   HT     0.417000        1.0080           0
   56568 WT3  5234 TIP3 H2   HT     0.417000        1.0080           0
   56569 WT3  5241 TIP3 OH2  OT    -0.834000       15.9994           0
   56570 WT3  5241 TIP3 H1   HT     0.417000        1.0080           0
   56571 WT3  5241 TIP3 H2   HT     0.417000        1.0080           0
   56572 WT3  5251 TIP3 OH2  OT    -0.834000       15.9994           0
   56573 WT3  5251 TIP3 H1   HT     0.417000        1.0080           0
   56574 WT3  5251 TIP3 H2   HT     0.417000        1.0080           0
   56575 WT3  5252 TIP3 OH2  OT    -0.834000       15.9994           0
   56576 WT3  5252 TIP3 H1   HT     0.417000        1.0080           0
   56577 WT3  5252 TIP3 H2   HT     0.417000        1.0080           0
   56578 WT3  5259 TIP3 OH2  OT    -0.834000       15.9994           0
   56579 WT3  5259 TIP3 H1   HT     0.417000        1.0080           0
   56580 WT3  5259 TIP3 H2   HT     0.417000        1.0080           0
   56581 WT3  5260 TIP3 OH2  OT    -0.834000       15.9994           0
   56582 WT3  5260 TIP3 H1   HT     0.417000        1.0080           0
   56583 WT3  5260 TIP3 H2   HT     0.417000        1.0080           0
   56584 WT3  5264 TIP3 OH2  OT    -0.834000       15.9994           0
   56585 WT3  5264 TIP3 H1   HT     0.417000        1.0080           0
   56586 WT3  5264 TIP3 H2   HT     0.417000        1.0080           0
   56587 WT3  5266 TIP3 OH2  OT    -0.834000       15.9994           0
   56588 WT3  5266 TIP3 H1   HT     0.417000        1.0080           0
   56589 WT3  5266 TIP3 H2   HT     0.417000        1.0080           0
   56590 WT3  5267 TIP3 OH2  OT    -0.834000       15.9994           0
   56591 WT3  5267 TIP3 H1   HT     0.417000        1.0080           0
   56592 WT3  5267 TIP3 H2   HT     0.417000        1.0080           0
   56593 WT3  5271 TIP3 OH2  OT    -0.834000       15.9994           0
   56594 WT3  5271 TIP3 H1   HT     0.417000        1.0080           0
   56595 WT3  5271 TIP3 H2   HT     0.417000        1.0080           0
   56596 WT3  5272 TIP3 OH2  OT    -0.834000       15.9994           0
   56597 WT3  5272 TIP3 H1   HT     0.417000        1.0080           0
   56598 WT3  5272 TIP3 H2   HT     0.417000        1.0080           0
   56599 WT3  5273 TIP3 OH2  OT    -0.834000       15.9994           0
   56600 WT3  5273 TIP3 H1   HT     0.417000        1.0080           0
   56601 WT3  5273 TIP3 H2   HT     0.417000        1.0080           0
   56602 WT3  5284 TIP3 OH2  OT    -0.834000       15.9994           0
   56603 WT3  5284 TIP3 H1   HT     0.417000        1.0080           0
   56604 WT3  5284 TIP3 H2   HT     0.417000        1.0080           0
   56605 WT3  5285 TIP3 OH2  OT    -0.834000       15.9994           0
   56606 WT3  5285 TIP3 H1   HT     0.417000        1.0080           0
   56607 WT3  5285 TIP3 H2   HT     0.417000        1.0080           0
   56608 WT3  5286 TIP3 OH2  OT    -0.834000       15.9994           0
   56609 WT3  5286 TIP3 H1   HT     0.417000        1.0080           0
   56610 WT3  5286 TIP3 H2   HT     0.417000        1.0080           0
   56611 WT3  5289 TIP3 OH2  OT    -0.834000       15.9994           0
   56612 WT3  5289 TIP3 H1   HT     0.417000        1.0080           0
   56613 WT3  5289 TIP3 H2   HT     0.417000        1.0080           0
   56614 WT3  5296 TIP3 OH2  OT    -0.834000       15.9994           0
   56615 WT3  5296 TIP3 H1   HT     0.417000        1.0080           0
   56616 WT3  5296 TIP3 H2   HT     0.417000        1.0080           0
   56617 WT3  5298 TIP3 OH2  OT    -0.834000       15.9994           0
   56618 WT3  5298 TIP3 H1   HT     0.417000        1.0080           0
   56619 WT3  5298 TIP3 H2   HT     0.417000        1.0080           0
   56620 WT3  5302 TIP3 OH2  OT    -0.834000       15.9994           0
   56621 WT3  5302 TIP3 H1   HT     0.417000        1.0080           0
   56622 WT3  5302 TIP3 H2   HT     0.417000        1.0080           0
   56623 WT3  5304 TIP3 OH2  OT    -0.834000       15.9994           0
   56624 WT3  5304 TIP3 H1   HT     0.417000        1.0080           0
   56625 WT3  5304 TIP3 H2   HT     0.417000        1.0080           0
   56626 WT3  5306 TIP3 OH2  OT    -0.834000       15.9994           0
   56627 WT3  5306 TIP3 H1   HT     0.417000        1.0080           0
   56628 WT3  5306 TIP3 H2   HT     0.417000        1.0080           0
   56629 WT3  5309 TIP3 OH2  OT    -0.834000       15.9994           0
   56630 WT3  5309 TIP3 H1   HT     0.417000        1.0080           0
   56631 WT3  5309 TIP3 H2   HT     0.417000        1.0080           0
   56632 WT3  5314 TIP3 OH2  OT    -0.834000       15.9994           0
   56633 WT3  5314 TIP3 H1   HT     0.417000        1.0080           0
   56634 WT3  5314 TIP3 H2   HT     0.417000        1.0080           0
   56635 WT3  5317 TIP3 OH2  OT    -0.834000       15.9994           0
   56636 WT3  5317 TIP3 H1   HT     0.417000        1.0080           0
   56637 WT3  5317 TIP3 H2   HT     0.417000        1.0080           0
   56638 WT3  5318 TIP3 OH2  OT    -0.834000       15.9994           0
   56639 WT3  5318 TIP3 H1   HT     0.417000        1.0080           0
   56640 WT3  5318 TIP3 H2   HT     0.417000        1.0080           0
   56641 WT3  5319 TIP3 OH2  OT    -0.834000       15.9994           0
   56642 WT3  5319 TIP3 H1   HT     0.417000        1.0080           0
   56643 WT3  5319 TIP3 H2   HT     0.417000        1.0080           0
   56644 WT3  5320 TIP3 OH2  OT    -0.834000       15.9994           0
   56645 WT3  5320 TIP3 H1   HT     0.417000        1.0080           0
   56646 WT3  5320 TIP3 H2   HT     0.417000        1.0080           0
   56647 WT3  5322 TIP3 OH2  OT    -0.834000       15.9994           0
   56648 WT3  5322 TIP3 H1   HT     0.417000        1.0080           0
   56649 WT3  5322 TIP3 H2   HT     0.417000        1.0080           0
   56650 WT3  5323 TIP3 OH2  OT    -0.834000       15.9994           0
   56651 WT3  5323 TIP3 H1   HT     0.417000        1.0080           0
   56652 WT3  5323 TIP3 H2   HT     0.417000        1.0080           0
   56653 WT3  5325 TIP3 OH2  OT    -0.834000       15.9994           0
   56654 WT3  5325 TIP3 H1   HT     0.417000        1.0080           0
   56655 WT3  5325 TIP3 H2   HT     0.417000        1.0080           0
   56656 WT3  5327 TIP3 OH2  OT    -0.834000       15.9994           0
   56657 WT3  5327 TIP3 H1   HT     0.417000        1.0080           0
   56658 WT3  5327 TIP3 H2   HT     0.417000        1.0080           0
   56659 WT3  5328 TIP3 OH2  OT    -0.834000       15.9994           0
   56660 WT3  5328 TIP3 H1   HT     0.417000        1.0080           0
   56661 WT3  5328 TIP3 H2   HT     0.417000        1.0080           0
   56662 WT3  5332 TIP3 OH2  OT    -0.834000       15.9994           0
   56663 WT3  5332 TIP3 H1   HT     0.417000        1.0080           0
   56664 WT3  5332 TIP3 H2   HT     0.417000        1.0080           0
   56665 WT3  5334 TIP3 OH2  OT    -0.834000       15.9994           0
   56666 WT3  5334 TIP3 H1   HT     0.417000        1.0080           0
   56667 WT3  5334 TIP3 H2   HT     0.417000        1.0080           0
   56668 WT3  5338 TIP3 OH2  OT    -0.834000       15.9994           0
   56669 WT3  5338 TIP3 H1   HT     0.417000        1.0080           0
   56670 WT3  5338 TIP3 H2   HT     0.417000        1.0080           0
   56671 WT3  5341 TIP3 OH2  OT    -0.834000       15.9994           0
   56672 WT3  5341 TIP3 H1   HT     0.417000        1.0080           0
   56673 WT3  5341 TIP3 H2   HT     0.417000        1.0080           0
   56674 WT3  5343 TIP3 OH2  OT    -0.834000       15.9994           0
   56675 WT3  5343 TIP3 H1   HT     0.417000        1.0080           0
   56676 WT3  5343 TIP3 H2   HT     0.417000        1.0080           0
   56677 WT3  5344 TIP3 OH2  OT    -0.834000       15.9994           0
   56678 WT3  5344 TIP3 H1   HT     0.417000        1.0080           0
   56679 WT3  5344 TIP3 H2   HT     0.417000        1.0080           0
   56680 WT3  5348 TIP3 OH2  OT    -0.834000       15.9994           0
   56681 WT3  5348 TIP3 H1   HT     0.417000        1.0080           0
   56682 WT3  5348 TIP3 H2   HT     0.417000        1.0080           0
   56683 WT3  5349 TIP3 OH2  OT    -0.834000       15.9994           0
   56684 WT3  5349 TIP3 H1   HT     0.417000        1.0080           0
   56685 WT3  5349 TIP3 H2   HT     0.417000        1.0080           0
   56686 WT3  5350 TIP3 OH2  OT    -0.834000       15.9994           0
   56687 WT3  5350 TIP3 H1   HT     0.417000        1.0080           0
   56688 WT3  5350 TIP3 H2   HT     0.417000        1.0080           0
   56689 WT3  5353 TIP3 OH2  OT    -0.834000       15.9994           0
   56690 WT3  5353 TIP3 H1   HT     0.417000        1.0080           0
   56691 WT3  5353 TIP3 H2   HT     0.417000        1.0080           0
   56692 WT3  5355 TIP3 OH2  OT    -0.834000       15.9994           0
   56693 WT3  5355 TIP3 H1   HT     0.417000        1.0080           0
   56694 WT3  5355 TIP3 H2   HT     0.417000        1.0080           0
   56695 WT3  5356 TIP3 OH2  OT    -0.834000       15.9994           0
   56696 WT3  5356 TIP3 H1   HT     0.417000        1.0080           0
   56697 WT3  5356 TIP3 H2   HT     0.417000        1.0080           0
   56698 WT3  5357 TIP3 OH2  OT    -0.834000       15.9994           0
   56699 WT3  5357 TIP3 H1   HT     0.417000        1.0080           0
   56700 WT3  5357 TIP3 H2   HT     0.417000        1.0080           0
   56701 WT3  5358 TIP3 OH2  OT    -0.834000       15.9994           0
   56702 WT3  5358 TIP3 H1   HT     0.417000        1.0080           0
   56703 WT3  5358 TIP3 H2   HT     0.417000        1.0080           0
   56704 WT3  5359 TIP3 OH2  OT    -0.834000       15.9994           0
   56705 WT3  5359 TIP3 H1   HT     0.417000        1.0080           0
   56706 WT3  5359 TIP3 H2   HT     0.417000        1.0080           0
   56707 WT3  5360 TIP3 OH2  OT    -0.834000       15.9994           0
   56708 WT3  5360 TIP3 H1   HT     0.417000        1.0080           0
   56709 WT3  5360 TIP3 H2   HT     0.417000        1.0080           0
   56710 WT3  5364 TIP3 OH2  OT    -0.834000       15.9994           0
   56711 WT3  5364 TIP3 H1   HT     0.417000        1.0080           0
   56712 WT3  5364 TIP3 H2   HT     0.417000        1.0080           0
   56713 WT3  5365 TIP3 OH2  OT    -0.834000       15.9994           0
   56714 WT3  5365 TIP3 H1   HT     0.417000        1.0080           0
   56715 WT3  5365 TIP3 H2   HT     0.417000        1.0080           0
   56716 WT3  5366 TIP3 OH2  OT    -0.834000       15.9994           0
   56717 WT3  5366 TIP3 H1   HT     0.417000        1.0080           0
   56718 WT3  5366 TIP3 H2   HT     0.417000        1.0080           0
   56719 WT3  5368 TIP3 OH2  OT    -0.834000       15.9994           0
   56720 WT3  5368 TIP3 H1   HT     0.417000        1.0080           0
   56721 WT3  5368 TIP3 H2   HT     0.417000        1.0080           0
   56722 WT3  5369 TIP3 OH2  OT    -0.834000       15.9994           0
   56723 WT3  5369 TIP3 H1   HT     0.417000        1.0080           0
   56724 WT3  5369 TIP3 H2   HT     0.417000        1.0080           0
   56725 WT3  5370 TIP3 OH2  OT    -0.834000       15.9994           0
   56726 WT3  5370 TIP3 H1   HT     0.417000        1.0080           0
   56727 WT3  5370 TIP3 H2   HT     0.417000        1.0080           0
   56728 WT3  5371 TIP3 OH2  OT    -0.834000       15.9994           0
   56729 WT3  5371 TIP3 H1   HT     0.417000        1.0080           0
   56730 WT3  5371 TIP3 H2   HT     0.417000        1.0080           0
   56731 WT3  5372 TIP3 OH2  OT    -0.834000       15.9994           0
   56732 WT3  5372 TIP3 H1   HT     0.417000        1.0080           0
   56733 WT3  5372 TIP3 H2   HT     0.417000        1.0080           0
   56734 WT3  5375 TIP3 OH2  OT    -0.834000       15.9994           0
   56735 WT3  5375 TIP3 H1   HT     0.417000        1.0080           0
   56736 WT3  5375 TIP3 H2   HT     0.417000        1.0080           0
   56737 WT3  5376 TIP3 OH2  OT    -0.834000       15.9994           0
   56738 WT3  5376 TIP3 H1   HT     0.417000        1.0080           0
   56739 WT3  5376 TIP3 H2   HT     0.417000        1.0080           0
   56740 WT3  5377 TIP3 OH2  OT    -0.834000       15.9994           0
   56741 WT3  5377 TIP3 H1   HT     0.417000        1.0080           0
   56742 WT3  5377 TIP3 H2   HT     0.417000        1.0080           0
   56743 WT3  5378 TIP3 OH2  OT    -0.834000       15.9994           0
   56744 WT3  5378 TIP3 H1   HT     0.417000        1.0080           0
   56745 WT3  5378 TIP3 H2   HT     0.417000        1.0080           0
   56746 WT3  5379 TIP3 OH2  OT    -0.834000       15.9994           0
   56747 WT3  5379 TIP3 H1   HT     0.417000        1.0080           0
   56748 WT3  5379 TIP3 H2   HT     0.417000        1.0080           0
   56749 WT3  5380 TIP3 OH2  OT    -0.834000       15.9994           0
   56750 WT3  5380 TIP3 H1   HT     0.417000        1.0080           0
   56751 WT3  5380 TIP3 H2   HT     0.417000        1.0080           0
   56752 WT3  5381 TIP3 OH2  OT    -0.834000       15.9994           0
   56753 WT3  5381 TIP3 H1   HT     0.417000        1.0080           0
   56754 WT3  5381 TIP3 H2   HT     0.417000        1.0080           0
   56755 WT3  5382 TIP3 OH2  OT    -0.834000       15.9994           0
   56756 WT3  5382 TIP3 H1   HT     0.417000        1.0080           0
   56757 WT3  5382 TIP3 H2   HT     0.417000        1.0080           0
   56758 WT3  5383 TIP3 OH2  OT    -0.834000       15.9994           0
   56759 WT3  5383 TIP3 H1   HT     0.417000        1.0080           0
   56760 WT3  5383 TIP3 H2   HT     0.417000        1.0080           0
   56761 WT3  5384 TIP3 OH2  OT    -0.834000       15.9994           0
   56762 WT3  5384 TIP3 H1   HT     0.417000        1.0080           0
   56763 WT3  5384 TIP3 H2   HT     0.417000        1.0080           0
   56764 WT3  5385 TIP3 OH2  OT    -0.834000       15.9994           0
   56765 WT3  5385 TIP3 H1   HT     0.417000        1.0080           0
   56766 WT3  5385 TIP3 H2   HT     0.417000        1.0080           0
   56767 WT3  5388 TIP3 OH2  OT    -0.834000       15.9994           0
   56768 WT3  5388 TIP3 H1   HT     0.417000        1.0080           0
   56769 WT3  5388 TIP3 H2   HT     0.417000        1.0080           0
   56770 WT3  5389 TIP3 OH2  OT    -0.834000       15.9994           0
   56771 WT3  5389 TIP3 H1   HT     0.417000        1.0080           0
   56772 WT3  5389 TIP3 H2   HT     0.417000        1.0080           0
   56773 WT3  5390 TIP3 OH2  OT    -0.834000       15.9994           0
   56774 WT3  5390 TIP3 H1   HT     0.417000        1.0080           0
   56775 WT3  5390 TIP3 H2   HT     0.417000        1.0080           0
   56776 WT3  5392 TIP3 OH2  OT    -0.834000       15.9994           0
   56777 WT3  5392 TIP3 H1   HT     0.417000        1.0080           0
   56778 WT3  5392 TIP3 H2   HT     0.417000        1.0080           0
   56779 WT3  5393 TIP3 OH2  OT    -0.834000       15.9994           0
   56780 WT3  5393 TIP3 H1   HT     0.417000        1.0080           0
   56781 WT3  5393 TIP3 H2   HT     0.417000        1.0080           0
   56782 WT3  5394 TIP3 OH2  OT    -0.834000       15.9994           0
   56783 WT3  5394 TIP3 H1   HT     0.417000        1.0080           0
   56784 WT3  5394 TIP3 H2   HT     0.417000        1.0080           0
   56785 WT3  5395 TIP3 OH2  OT    -0.834000       15.9994           0
   56786 WT3  5395 TIP3 H1   HT     0.417000        1.0080           0
   56787 WT3  5395 TIP3 H2   HT     0.417000        1.0080           0
   56788 WT3  5396 TIP3 OH2  OT    -0.834000       15.9994           0
   56789 WT3  5396 TIP3 H1   HT     0.417000        1.0080           0
   56790 WT3  5396 TIP3 H2   HT     0.417000        1.0080           0
   56791 WT3  5397 TIP3 OH2  OT    -0.834000       15.9994           0
   56792 WT3  5397 TIP3 H1   HT     0.417000        1.0080           0
   56793 WT3  5397 TIP3 H2   HT     0.417000        1.0080           0
   56794 WT3  5398 TIP3 OH2  OT    -0.834000       15.9994           0
   56795 WT3  5398 TIP3 H1   HT     0.417000        1.0080           0
   56796 WT3  5398 TIP3 H2   HT     0.417000        1.0080           0
   56797 WT3  5399 TIP3 OH2  OT    -0.834000       15.9994           0
   56798 WT3  5399 TIP3 H1   HT     0.417000        1.0080           0
   56799 WT3  5399 TIP3 H2   HT     0.417000        1.0080           0
   56800 WT3  5400 TIP3 OH2  OT    -0.834000       15.9994           0
   56801 WT3  5400 TIP3 H1   HT     0.417000        1.0080           0
   56802 WT3  5400 TIP3 H2   HT     0.417000        1.0080           0
   56803 WT3  5401 TIP3 OH2  OT    -0.834000       15.9994           0
   56804 WT3  5401 TIP3 H1   HT     0.417000        1.0080           0
   56805 WT3  5401 TIP3 H2   HT     0.417000        1.0080           0
   56806 WT3  5402 TIP3 OH2  OT    -0.834000       15.9994           0
   56807 WT3  5402 TIP3 H1   HT     0.417000        1.0080           0
   56808 WT3  5402 TIP3 H2   HT     0.417000        1.0080           0
   56809 WT3  5403 TIP3 OH2  OT    -0.834000       15.9994           0
   56810 WT3  5403 TIP3 H1   HT     0.417000        1.0080           0
   56811 WT3  5403 TIP3 H2   HT     0.417000        1.0080           0
   56812 WT3  5404 TIP3 OH2  OT    -0.834000       15.9994           0
   56813 WT3  5404 TIP3 H1   HT     0.417000        1.0080           0
   56814 WT3  5404 TIP3 H2   HT     0.417000        1.0080           0
   56815 WT3  5406 TIP3 OH2  OT    -0.834000       15.9994           0
   56816 WT3  5406 TIP3 H1   HT     0.417000        1.0080           0
   56817 WT3  5406 TIP3 H2   HT     0.417000        1.0080           0
   56818 WT3  5408 TIP3 OH2  OT    -0.834000       15.9994           0
   56819 WT3  5408 TIP3 H1   HT     0.417000        1.0080           0
   56820 WT3  5408 TIP3 H2   HT     0.417000        1.0080           0
   56821 WT3  5409 TIP3 OH2  OT    -0.834000       15.9994           0
   56822 WT3  5409 TIP3 H1   HT     0.417000        1.0080           0
   56823 WT3  5409 TIP3 H2   HT     0.417000        1.0080           0
   56824 WT3  5410 TIP3 OH2  OT    -0.834000       15.9994           0
   56825 WT3  5410 TIP3 H1   HT     0.417000        1.0080           0
   56826 WT3  5410 TIP3 H2   HT     0.417000        1.0080           0
   56827 WT3  5411 TIP3 OH2  OT    -0.834000       15.9994           0
   56828 WT3  5411 TIP3 H1   HT     0.417000        1.0080           0
   56829 WT3  5411 TIP3 H2   HT     0.417000        1.0080           0
   56830 WT3  5412 TIP3 OH2  OT    -0.834000       15.9994           0
   56831 WT3  5412 TIP3 H1   HT     0.417000        1.0080           0
   56832 WT3  5412 TIP3 H2   HT     0.417000        1.0080           0
   56833 WT3  5413 TIP3 OH2  OT    -0.834000       15.9994           0
   56834 WT3  5413 TIP3 H1   HT     0.417000        1.0080           0
   56835 WT3  5413 TIP3 H2   HT     0.417000        1.0080           0
   56836 WT3  5414 TIP3 OH2  OT    -0.834000       15.9994           0
   56837 WT3  5414 TIP3 H1   HT     0.417000        1.0080           0
   56838 WT3  5414 TIP3 H2   HT     0.417000        1.0080           0
   56839 WT3  5415 TIP3 OH2  OT    -0.834000       15.9994           0
   56840 WT3  5415 TIP3 H1   HT     0.417000        1.0080           0
   56841 WT3  5415 TIP3 H2   HT     0.417000        1.0080           0
   56842 WT3  5417 TIP3 OH2  OT    -0.834000       15.9994           0
   56843 WT3  5417 TIP3 H1   HT     0.417000        1.0080           0
   56844 WT3  5417 TIP3 H2   HT     0.417000        1.0080           0
   56845 WT3  5418 TIP3 OH2  OT    -0.834000       15.9994           0
   56846 WT3  5418 TIP3 H1   HT     0.417000        1.0080           0
   56847 WT3  5418 TIP3 H2   HT     0.417000        1.0080           0
   56848 WT3  5419 TIP3 OH2  OT    -0.834000       15.9994           0
   56849 WT3  5419 TIP3 H1   HT     0.417000        1.0080           0
   56850 WT3  5419 TIP3 H2   HT     0.417000        1.0080           0
   56851 WT3  5420 TIP3 OH2  OT    -0.834000       15.9994           0
   56852 WT3  5420 TIP3 H1   HT     0.417000        1.0080           0
   56853 WT3  5420 TIP3 H2   HT     0.417000        1.0080           0
   56854 WT3  5421 TIP3 OH2  OT    -0.834000       15.9994           0
   56855 WT3  5421 TIP3 H1   HT     0.417000        1.0080           0
   56856 WT3  5421 TIP3 H2   HT     0.417000        1.0080           0
   56857 WT3  5422 TIP3 OH2  OT    -0.834000       15.9994           0
   56858 WT3  5422 TIP3 H1   HT     0.417000        1.0080           0
   56859 WT3  5422 TIP3 H2   HT     0.417000        1.0080           0
   56860 WT3  5423 TIP3 OH2  OT    -0.834000       15.9994           0
   56861 WT3  5423 TIP3 H1   HT     0.417000        1.0080           0
   56862 WT3  5423 TIP3 H2   HT     0.417000        1.0080           0
   56863 WT3  5424 TIP3 OH2  OT    -0.834000       15.9994           0
   56864 WT3  5424 TIP3 H1   HT     0.417000        1.0080           0
   56865 WT3  5424 TIP3 H2   HT     0.417000        1.0080           0
   56866 WT3  5425 TIP3 OH2  OT    -0.834000       15.9994           0
   56867 WT3  5425 TIP3 H1   HT     0.417000        1.0080           0
   56868 WT3  5425 TIP3 H2   HT     0.417000        1.0080           0
   56869 WT3  5426 TIP3 OH2  OT    -0.834000       15.9994           0
   56870 WT3  5426 TIP3 H1   HT     0.417000        1.0080           0
   56871 WT3  5426 TIP3 H2   HT     0.417000        1.0080           0
   56872 WT3  5427 TIP3 OH2  OT    -0.834000       15.9994           0
   56873 WT3  5427 TIP3 H1   HT     0.417000        1.0080           0
   56874 WT3  5427 TIP3 H2   HT     0.417000        1.0080           0
   56875 WT3  5428 TIP3 OH2  OT    -0.834000       15.9994           0
   56876 WT3  5428 TIP3 H1   HT     0.417000        1.0080           0
   56877 WT3  5428 TIP3 H2   HT     0.417000        1.0080           0
   56878 WT3  5429 TIP3 OH2  OT    -0.834000       15.9994           0
   56879 WT3  5429 TIP3 H1   HT     0.417000        1.0080           0
   56880 WT3  5429 TIP3 H2   HT     0.417000        1.0080           0
   56881 WT3  5430 TIP3 OH2  OT    -0.834000       15.9994           0
   56882 WT3  5430 TIP3 H1   HT     0.417000        1.0080           0
   56883 WT3  5430 TIP3 H2   HT     0.417000        1.0080           0
   56884 WT3  5431 TIP3 OH2  OT    -0.834000       15.9994           0
   56885 WT3  5431 TIP3 H1   HT     0.417000        1.0080           0
   56886 WT3  5431 TIP3 H2   HT     0.417000        1.0080           0
   56887 WT3  5432 TIP3 OH2  OT    -0.834000       15.9994           0
   56888 WT3  5432 TIP3 H1   HT     0.417000        1.0080           0
   56889 WT3  5432 TIP3 H2   HT     0.417000        1.0080           0
   56890 WT3  5434 TIP3 OH2  OT    -0.834000       15.9994           0
   56891 WT3  5434 TIP3 H1   HT     0.417000        1.0080           0
   56892 WT3  5434 TIP3 H2   HT     0.417000        1.0080           0
   56893 WT3  5435 TIP3 OH2  OT    -0.834000       15.9994           0
   56894 WT3  5435 TIP3 H1   HT     0.417000        1.0080           0
   56895 WT3  5435 TIP3 H2   HT     0.417000        1.0080           0
   56896 WT3  5437 TIP3 OH2  OT    -0.834000       15.9994           0
   56897 WT3  5437 TIP3 H1   HT     0.417000        1.0080           0
   56898 WT3  5437 TIP3 H2   HT     0.417000        1.0080           0
   56899 WT3  5438 TIP3 OH2  OT    -0.834000       15.9994           0
   56900 WT3  5438 TIP3 H1   HT     0.417000        1.0080           0
   56901 WT3  5438 TIP3 H2   HT     0.417000        1.0080           0
   56902 WT3  5440 TIP3 OH2  OT    -0.834000       15.9994           0
   56903 WT3  5440 TIP3 H1   HT     0.417000        1.0080           0
   56904 WT3  5440 TIP3 H2   HT     0.417000        1.0080           0
   56905 WT3  5442 TIP3 OH2  OT    -0.834000       15.9994           0
   56906 WT3  5442 TIP3 H1   HT     0.417000        1.0080           0
   56907 WT3  5442 TIP3 H2   HT     0.417000        1.0080           0
   56908 WT3  5443 TIP3 OH2  OT    -0.834000       15.9994           0
   56909 WT3  5443 TIP3 H1   HT     0.417000        1.0080           0
   56910 WT3  5443 TIP3 H2   HT     0.417000        1.0080           0
   56911 WT3  5444 TIP3 OH2  OT    -0.834000       15.9994           0
   56912 WT3  5444 TIP3 H1   HT     0.417000        1.0080           0
   56913 WT3  5444 TIP3 H2   HT     0.417000        1.0080           0
   56914 WT3  5445 TIP3 OH2  OT    -0.834000       15.9994           0
   56915 WT3  5445 TIP3 H1   HT     0.417000        1.0080           0
   56916 WT3  5445 TIP3 H2   HT     0.417000        1.0080           0
   56917 WT3  5446 TIP3 OH2  OT    -0.834000       15.9994           0
   56918 WT3  5446 TIP3 H1   HT     0.417000        1.0080           0
   56919 WT3  5446 TIP3 H2   HT     0.417000        1.0080           0
   56920 WT3  5447 TIP3 OH2  OT    -0.834000       15.9994           0
   56921 WT3  5447 TIP3 H1   HT     0.417000        1.0080           0
   56922 WT3  5447 TIP3 H2   HT     0.417000        1.0080           0
   56923 WT3  5448 TIP3 OH2  OT    -0.834000       15.9994           0
   56924 WT3  5448 TIP3 H1   HT     0.417000        1.0080           0
   56925 WT3  5448 TIP3 H2   HT     0.417000        1.0080           0
   56926 WT3  5449 TIP3 OH2  OT    -0.834000       15.9994           0
   56927 WT3  5449 TIP3 H1   HT     0.417000        1.0080           0
   56928 WT3  5449 TIP3 H2   HT     0.417000        1.0080           0
   56929 WT3  5450 TIP3 OH2  OT    -0.834000       15.9994           0
   56930 WT3  5450 TIP3 H1   HT     0.417000        1.0080           0
   56931 WT3  5450 TIP3 H2   HT     0.417000        1.0080           0
   56932 WT3  5451 TIP3 OH2  OT    -0.834000       15.9994           0
   56933 WT3  5451 TIP3 H1   HT     0.417000        1.0080           0
   56934 WT3  5451 TIP3 H2   HT     0.417000        1.0080           0
   56935 WT3  5452 TIP3 OH2  OT    -0.834000       15.9994           0
   56936 WT3  5452 TIP3 H1   HT     0.417000        1.0080           0
   56937 WT3  5452 TIP3 H2   HT     0.417000        1.0080           0
   56938 WT3  5453 TIP3 OH2  OT    -0.834000       15.9994           0
   56939 WT3  5453 TIP3 H1   HT     0.417000        1.0080           0
   56940 WT3  5453 TIP3 H2   HT     0.417000        1.0080           0
   56941 WT3  5454 TIP3 OH2  OT    -0.834000       15.9994           0
   56942 WT3  5454 TIP3 H1   HT     0.417000        1.0080           0
   56943 WT3  5454 TIP3 H2   HT     0.417000        1.0080           0
   56944 WT3  5455 TIP3 OH2  OT    -0.834000       15.9994           0
   56945 WT3  5455 TIP3 H1   HT     0.417000        1.0080           0
   56946 WT3  5455 TIP3 H2   HT     0.417000        1.0080           0
   56947 WT3  5456 TIP3 OH2  OT    -0.834000       15.9994           0
   56948 WT3  5456 TIP3 H1   HT     0.417000        1.0080           0
   56949 WT3  5456 TIP3 H2   HT     0.417000        1.0080           0
   56950 WT3  5457 TIP3 OH2  OT    -0.834000       15.9994           0
   56951 WT3  5457 TIP3 H1   HT     0.417000        1.0080           0
   56952 WT3  5457 TIP3 H2   HT     0.417000        1.0080           0
   56953 WT3  5460 TIP3 OH2  OT    -0.834000       15.9994           0
   56954 WT3  5460 TIP3 H1   HT     0.417000        1.0080           0
   56955 WT3  5460 TIP3 H2   HT     0.417000        1.0080           0
   56956 WT3  5461 TIP3 OH2  OT    -0.834000       15.9994           0
   56957 WT3  5461 TIP3 H1   HT     0.417000        1.0080           0
   56958 WT3  5461 TIP3 H2   HT     0.417000        1.0080           0
   56959 WT3  5462 TIP3 OH2  OT    -0.834000       15.9994           0
   56960 WT3  5462 TIP3 H1   HT     0.417000        1.0080           0
   56961 WT3  5462 TIP3 H2   HT     0.417000        1.0080           0
   56962 WT3  5463 TIP3 OH2  OT    -0.834000       15.9994           0
   56963 WT3  5463 TIP3 H1   HT     0.417000        1.0080           0
   56964 WT3  5463 TIP3 H2   HT     0.417000        1.0080           0
   56965 WT3  5464 TIP3 OH2  OT    -0.834000       15.9994           0
   56966 WT3  5464 TIP3 H1   HT     0.417000        1.0080           0
   56967 WT3  5464 TIP3 H2   HT     0.417000        1.0080           0
   56968 WT3  5465 TIP3 OH2  OT    -0.834000       15.9994           0
   56969 WT3  5465 TIP3 H1   HT     0.417000        1.0080           0
   56970 WT3  5465 TIP3 H2   HT     0.417000        1.0080           0
   56971 WT3  5466 TIP3 OH2  OT    -0.834000       15.9994           0
   56972 WT3  5466 TIP3 H1   HT     0.417000        1.0080           0
   56973 WT3  5466 TIP3 H2   HT     0.417000        1.0080           0
   56974 WT3  5467 TIP3 OH2  OT    -0.834000       15.9994           0
   56975 WT3  5467 TIP3 H1   HT     0.417000        1.0080           0
   56976 WT3  5467 TIP3 H2   HT     0.417000        1.0080           0
   56977 WT3  5468 TIP3 OH2  OT    -0.834000       15.9994           0
   56978 WT3  5468 TIP3 H1   HT     0.417000        1.0080           0
   56979 WT3  5468 TIP3 H2   HT     0.417000        1.0080           0
   56980 WT3  5469 TIP3 OH2  OT    -0.834000       15.9994           0
   56981 WT3  5469 TIP3 H1   HT     0.417000        1.0080           0
   56982 WT3  5469 TIP3 H2   HT     0.417000        1.0080           0
   56983 WT3  5470 TIP3 OH2  OT    -0.834000       15.9994           0
   56984 WT3  5470 TIP3 H1   HT     0.417000        1.0080           0
   56985 WT3  5470 TIP3 H2   HT     0.417000        1.0080           0
   56986 WT3  5471 TIP3 OH2  OT    -0.834000       15.9994           0
   56987 WT3  5471 TIP3 H1   HT     0.417000        1.0080           0
   56988 WT3  5471 TIP3 H2   HT     0.417000        1.0080           0
   56989 WT3  5472 TIP3 OH2  OT    -0.834000       15.9994           0
   56990 WT3  5472 TIP3 H1   HT     0.417000        1.0080           0
   56991 WT3  5472 TIP3 H2   HT     0.417000        1.0080           0
   56992 WT3  5473 TIP3 OH2  OT    -0.834000       15.9994           0
   56993 WT3  5473 TIP3 H1   HT     0.417000        1.0080           0
   56994 WT3  5473 TIP3 H2   HT     0.417000        1.0080           0
   56995 WT3  5476 TIP3 OH2  OT    -0.834000       15.9994           0
   56996 WT3  5476 TIP3 H1   HT     0.417000        1.0080           0
   56997 WT3  5476 TIP3 H2   HT     0.417000        1.0080           0
   56998 WT3  5477 TIP3 OH2  OT    -0.834000       15.9994           0
   56999 WT3  5477 TIP3 H1   HT     0.417000        1.0080           0
   57000 WT3  5477 TIP3 H2   HT     0.417000        1.0080           0
   57001 WT3  5479 TIP3 OH2  OT    -0.834000       15.9994           0
   57002 WT3  5479 TIP3 H1   HT     0.417000        1.0080           0
   57003 WT3  5479 TIP3 H2   HT     0.417000        1.0080           0
   57004 WT3  5481 TIP3 OH2  OT    -0.834000       15.9994           0
   57005 WT3  5481 TIP3 H1   HT     0.417000        1.0080           0
   57006 WT3  5481 TIP3 H2   HT     0.417000        1.0080           0
   57007 WT3  5482 TIP3 OH2  OT    -0.834000       15.9994           0
   57008 WT3  5482 TIP3 H1   HT     0.417000        1.0080           0
   57009 WT3  5482 TIP3 H2   HT     0.417000        1.0080           0
   57010 WT3  5483 TIP3 OH2  OT    -0.834000       15.9994           0
   57011 WT3  5483 TIP3 H1   HT     0.417000        1.0080           0
   57012 WT3  5483 TIP3 H2   HT     0.417000        1.0080           0
   57013 WT3  5484 TIP3 OH2  OT    -0.834000       15.9994           0
   57014 WT3  5484 TIP3 H1   HT     0.417000        1.0080           0
   57015 WT3  5484 TIP3 H2   HT     0.417000        1.0080           0
   57016 WT3  5485 TIP3 OH2  OT    -0.834000       15.9994           0
   57017 WT3  5485 TIP3 H1   HT     0.417000        1.0080           0
   57018 WT3  5485 TIP3 H2   HT     0.417000        1.0080           0
   57019 WT3  5486 TIP3 OH2  OT    -0.834000       15.9994           0
   57020 WT3  5486 TIP3 H1   HT     0.417000        1.0080           0
   57021 WT3  5486 TIP3 H2   HT     0.417000        1.0080           0
   57022 WT3  5487 TIP3 OH2  OT    -0.834000       15.9994           0
   57023 WT3  5487 TIP3 H1   HT     0.417000        1.0080           0
   57024 WT3  5487 TIP3 H2   HT     0.417000        1.0080           0
   57025 WT3  5488 TIP3 OH2  OT    -0.834000       15.9994           0
   57026 WT3  5488 TIP3 H1   HT     0.417000        1.0080           0
   57027 WT3  5488 TIP3 H2   HT     0.417000        1.0080           0
   57028 WT3  5489 TIP3 OH2  OT    -0.834000       15.9994           0
   57029 WT3  5489 TIP3 H1   HT     0.417000        1.0080           0
   57030 WT3  5489 TIP3 H2   HT     0.417000        1.0080           0
   57031 WT3  5490 TIP3 OH2  OT    -0.834000       15.9994           0
   57032 WT3  5490 TIP3 H1   HT     0.417000        1.0080           0
   57033 WT3  5490 TIP3 H2   HT     0.417000        1.0080           0
   57034 WT3  5491 TIP3 OH2  OT    -0.834000       15.9994           0
   57035 WT3  5491 TIP3 H1   HT     0.417000        1.0080           0
   57036 WT3  5491 TIP3 H2   HT     0.417000        1.0080           0
   57037 WT3  5492 TIP3 OH2  OT    -0.834000       15.9994           0
   57038 WT3  5492 TIP3 H1   HT     0.417000        1.0080           0
   57039 WT3  5492 TIP3 H2   HT     0.417000        1.0080           0
   57040 WT3  5493 TIP3 OH2  OT    -0.834000       15.9994           0
   57041 WT3  5493 TIP3 H1   HT     0.417000        1.0080           0
   57042 WT3  5493 TIP3 H2   HT     0.417000        1.0080           0
   57043 WT3  5495 TIP3 OH2  OT    -0.834000       15.9994           0
   57044 WT3  5495 TIP3 H1   HT     0.417000        1.0080           0
   57045 WT3  5495 TIP3 H2   HT     0.417000        1.0080           0
   57046 WT3  5496 TIP3 OH2  OT    -0.834000       15.9994           0
   57047 WT3  5496 TIP3 H1   HT     0.417000        1.0080           0
   57048 WT3  5496 TIP3 H2   HT     0.417000        1.0080           0
   57049 WT3  5497 TIP3 OH2  OT    -0.834000       15.9994           0
   57050 WT3  5497 TIP3 H1   HT     0.417000        1.0080           0
   57051 WT3  5497 TIP3 H2   HT     0.417000        1.0080           0
   57052 WT3  5499 TIP3 OH2  OT    -0.834000       15.9994           0
   57053 WT3  5499 TIP3 H1   HT     0.417000        1.0080           0
   57054 WT3  5499 TIP3 H2   HT     0.417000        1.0080           0
   57055 WT3  5500 TIP3 OH2  OT    -0.834000       15.9994           0
   57056 WT3  5500 TIP3 H1   HT     0.417000        1.0080           0
   57057 WT3  5500 TIP3 H2   HT     0.417000        1.0080           0
   57058 WT3  5501 TIP3 OH2  OT    -0.834000       15.9994           0
   57059 WT3  5501 TIP3 H1   HT     0.417000        1.0080           0
   57060 WT3  5501 TIP3 H2   HT     0.417000        1.0080           0
   57061 WT3  5502 TIP3 OH2  OT    -0.834000       15.9994           0
   57062 WT3  5502 TIP3 H1   HT     0.417000        1.0080           0
   57063 WT3  5502 TIP3 H2   HT     0.417000        1.0080           0
   57064 WT3  5503 TIP3 OH2  OT    -0.834000       15.9994           0
   57065 WT3  5503 TIP3 H1   HT     0.417000        1.0080           0
   57066 WT3  5503 TIP3 H2   HT     0.417000        1.0080           0
   57067 WT3  5504 TIP3 OH2  OT    -0.834000       15.9994           0
   57068 WT3  5504 TIP3 H1   HT     0.417000        1.0080           0
   57069 WT3  5504 TIP3 H2   HT     0.417000        1.0080           0
   57070 WT3  5505 TIP3 OH2  OT    -0.834000       15.9994           0
   57071 WT3  5505 TIP3 H1   HT     0.417000        1.0080           0
   57072 WT3  5505 TIP3 H2   HT     0.417000        1.0080           0
   57073 WT3  5506 TIP3 OH2  OT    -0.834000       15.9994           0
   57074 WT3  5506 TIP3 H1   HT     0.417000        1.0080           0
   57075 WT3  5506 TIP3 H2   HT     0.417000        1.0080           0
   57076 WT3  5507 TIP3 OH2  OT    -0.834000       15.9994           0
   57077 WT3  5507 TIP3 H1   HT     0.417000        1.0080           0
   57078 WT3  5507 TIP3 H2   HT     0.417000        1.0080           0
   57079 WT3  5508 TIP3 OH2  OT    -0.834000       15.9994           0
   57080 WT3  5508 TIP3 H1   HT     0.417000        1.0080           0
   57081 WT3  5508 TIP3 H2   HT     0.417000        1.0080           0
   57082 WT3  5511 TIP3 OH2  OT    -0.834000       15.9994           0
   57083 WT3  5511 TIP3 H1   HT     0.417000        1.0080           0
   57084 WT3  5511 TIP3 H2   HT     0.417000        1.0080           0
   57085 WT3  5512 TIP3 OH2  OT    -0.834000       15.9994           0
   57086 WT3  5512 TIP3 H1   HT     0.417000        1.0080           0
   57087 WT3  5512 TIP3 H2   HT     0.417000        1.0080           0
   57088 WT3  5513 TIP3 OH2  OT    -0.834000       15.9994           0
   57089 WT3  5513 TIP3 H1   HT     0.417000        1.0080           0
   57090 WT3  5513 TIP3 H2   HT     0.417000        1.0080           0
   57091 WT3  5514 TIP3 OH2  OT    -0.834000       15.9994           0
   57092 WT3  5514 TIP3 H1   HT     0.417000        1.0080           0
   57093 WT3  5514 TIP3 H2   HT     0.417000        1.0080           0
   57094 WT3  5515 TIP3 OH2  OT    -0.834000       15.9994           0
   57095 WT3  5515 TIP3 H1   HT     0.417000        1.0080           0
   57096 WT3  5515 TIP3 H2   HT     0.417000        1.0080           0
   57097 WT3  5517 TIP3 OH2  OT    -0.834000       15.9994           0
   57098 WT3  5517 TIP3 H1   HT     0.417000        1.0080           0
   57099 WT3  5517 TIP3 H2   HT     0.417000        1.0080           0
   57100 WT3  5518 TIP3 OH2  OT    -0.834000       15.9994           0
   57101 WT3  5518 TIP3 H1   HT     0.417000        1.0080           0
   57102 WT3  5518 TIP3 H2   HT     0.417000        1.0080           0
   57103 WT3  5520 TIP3 OH2  OT    -0.834000       15.9994           0
   57104 WT3  5520 TIP3 H1   HT     0.417000        1.0080           0
   57105 WT3  5520 TIP3 H2   HT     0.417000        1.0080           0
   57106 WT3  5522 TIP3 OH2  OT    -0.834000       15.9994           0
   57107 WT3  5522 TIP3 H1   HT     0.417000        1.0080           0
   57108 WT3  5522 TIP3 H2   HT     0.417000        1.0080           0
   57109 WT3  5523 TIP3 OH2  OT    -0.834000       15.9994           0
   57110 WT3  5523 TIP3 H1   HT     0.417000        1.0080           0
   57111 WT3  5523 TIP3 H2   HT     0.417000        1.0080           0
   57112 WT3  5524 TIP3 OH2  OT    -0.834000       15.9994           0
   57113 WT3  5524 TIP3 H1   HT     0.417000        1.0080           0
   57114 WT3  5524 TIP3 H2   HT     0.417000        1.0080           0
   57115 WT3  5526 TIP3 OH2  OT    -0.834000       15.9994           0
   57116 WT3  5526 TIP3 H1   HT     0.417000        1.0080           0
   57117 WT3  5526 TIP3 H2   HT     0.417000        1.0080           0
   57118 WT3  5527 TIP3 OH2  OT    -0.834000       15.9994           0
   57119 WT3  5527 TIP3 H1   HT     0.417000        1.0080           0
   57120 WT3  5527 TIP3 H2   HT     0.417000        1.0080           0
   57121 WT3  5528 TIP3 OH2  OT    -0.834000       15.9994           0
   57122 WT3  5528 TIP3 H1   HT     0.417000        1.0080           0
   57123 WT3  5528 TIP3 H2   HT     0.417000        1.0080           0
   57124 WT3  5529 TIP3 OH2  OT    -0.834000       15.9994           0
   57125 WT3  5529 TIP3 H1   HT     0.417000        1.0080           0
   57126 WT3  5529 TIP3 H2   HT     0.417000        1.0080           0
   57127 WT3  5530 TIP3 OH2  OT    -0.834000       15.9994           0
   57128 WT3  5530 TIP3 H1   HT     0.417000        1.0080           0
   57129 WT3  5530 TIP3 H2   HT     0.417000        1.0080           0
   57130 WT3  5531 TIP3 OH2  OT    -0.834000       15.9994           0
   57131 WT3  5531 TIP3 H1   HT     0.417000        1.0080           0
   57132 WT3  5531 TIP3 H2   HT     0.417000        1.0080           0
   57133 WT3  5532 TIP3 OH2  OT    -0.834000       15.9994           0
   57134 WT3  5532 TIP3 H1   HT     0.417000        1.0080           0
   57135 WT3  5532 TIP3 H2   HT     0.417000        1.0080           0
   57136 WT3  5533 TIP3 OH2  OT    -0.834000       15.9994           0
   57137 WT3  5533 TIP3 H1   HT     0.417000        1.0080           0
   57138 WT3  5533 TIP3 H2   HT     0.417000        1.0080           0
   57139 WT3  5534 TIP3 OH2  OT    -0.834000       15.9994           0
   57140 WT3  5534 TIP3 H1   HT     0.417000        1.0080           0
   57141 WT3  5534 TIP3 H2   HT     0.417000        1.0080           0
   57142 WT3  5535 TIP3 OH2  OT    -0.834000       15.9994           0
   57143 WT3  5535 TIP3 H1   HT     0.417000        1.0080           0
   57144 WT3  5535 TIP3 H2   HT     0.417000        1.0080           0
   57145 WT3  5537 TIP3 OH2  OT    -0.834000       15.9994           0
   57146 WT3  5537 TIP3 H1   HT     0.417000        1.0080           0
   57147 WT3  5537 TIP3 H2   HT     0.417000        1.0080           0
   57148 WT3  5539 TIP3 OH2  OT    -0.834000       15.9994           0
   57149 WT3  5539 TIP3 H1   HT     0.417000        1.0080           0
   57150 WT3  5539 TIP3 H2   HT     0.417000        1.0080           0
   57151 WT3  5540 TIP3 OH2  OT    -0.834000       15.9994           0
   57152 WT3  5540 TIP3 H1   HT     0.417000        1.0080           0
   57153 WT3  5540 TIP3 H2   HT     0.417000        1.0080           0
   57154 WT3  5544 TIP3 OH2  OT    -0.834000       15.9994           0
   57155 WT3  5544 TIP3 H1   HT     0.417000        1.0080           0
   57156 WT3  5544 TIP3 H2   HT     0.417000        1.0080           0
   57157 WT3  5545 TIP3 OH2  OT    -0.834000       15.9994           0
   57158 WT3  5545 TIP3 H1   HT     0.417000        1.0080           0
   57159 WT3  5545 TIP3 H2   HT     0.417000        1.0080           0
   57160 WT3  5547 TIP3 OH2  OT    -0.834000       15.9994           0
   57161 WT3  5547 TIP3 H1   HT     0.417000        1.0080           0
   57162 WT3  5547 TIP3 H2   HT     0.417000        1.0080           0
   57163 WT3  5549 TIP3 OH2  OT    -0.834000       15.9994           0
   57164 WT3  5549 TIP3 H1   HT     0.417000        1.0080           0
   57165 WT3  5549 TIP3 H2   HT     0.417000        1.0080           0
   57166 WT3  5550 TIP3 OH2  OT    -0.834000       15.9994           0
   57167 WT3  5550 TIP3 H1   HT     0.417000        1.0080           0
   57168 WT3  5550 TIP3 H2   HT     0.417000        1.0080           0
   57169 WT3  5551 TIP3 OH2  OT    -0.834000       15.9994           0
   57170 WT3  5551 TIP3 H1   HT     0.417000        1.0080           0
   57171 WT3  5551 TIP3 H2   HT     0.417000        1.0080           0
   57172 WT3  5552 TIP3 OH2  OT    -0.834000       15.9994           0
   57173 WT3  5552 TIP3 H1   HT     0.417000        1.0080           0
   57174 WT3  5552 TIP3 H2   HT     0.417000        1.0080           0
   57175 WT3  5553 TIP3 OH2  OT    -0.834000       15.9994           0
   57176 WT3  5553 TIP3 H1   HT     0.417000        1.0080           0
   57177 WT3  5553 TIP3 H2   HT     0.417000        1.0080           0
   57178 WT3  5555 TIP3 OH2  OT    -0.834000       15.9994           0
   57179 WT3  5555 TIP3 H1   HT     0.417000        1.0080           0
   57180 WT3  5555 TIP3 H2   HT     0.417000        1.0080           0
   57181 WT3  5556 TIP3 OH2  OT    -0.834000       15.9994           0
   57182 WT3  5556 TIP3 H1   HT     0.417000        1.0080           0
   57183 WT3  5556 TIP3 H2   HT     0.417000        1.0080           0
   57184 WT3  5557 TIP3 OH2  OT    -0.834000       15.9994           0
   57185 WT3  5557 TIP3 H1   HT     0.417000        1.0080           0
   57186 WT3  5557 TIP3 H2   HT     0.417000        1.0080           0
   57187 WT3  5559 TIP3 OH2  OT    -0.834000       15.9994           0
   57188 WT3  5559 TIP3 H1   HT     0.417000        1.0080           0
   57189 WT3  5559 TIP3 H2   HT     0.417000        1.0080           0
   57190 WT3  5560 TIP3 OH2  OT    -0.834000       15.9994           0
   57191 WT3  5560 TIP3 H1   HT     0.417000        1.0080           0
   57192 WT3  5560 TIP3 H2   HT     0.417000        1.0080           0
   57193 WT3  5561 TIP3 OH2  OT    -0.834000       15.9994           0
   57194 WT3  5561 TIP3 H1   HT     0.417000        1.0080           0
   57195 WT3  5561 TIP3 H2   HT     0.417000        1.0080           0
   57196 WT3  5563 TIP3 OH2  OT    -0.834000       15.9994           0
   57197 WT3  5563 TIP3 H1   HT     0.417000        1.0080           0
   57198 WT3  5563 TIP3 H2   HT     0.417000        1.0080           0
   57199 WT3  5565 TIP3 OH2  OT    -0.834000       15.9994           0
   57200 WT3  5565 TIP3 H1   HT     0.417000        1.0080           0
   57201 WT3  5565 TIP3 H2   HT     0.417000        1.0080           0
   57202 WT3  5566 TIP3 OH2  OT    -0.834000       15.9994           0
   57203 WT3  5566 TIP3 H1   HT     0.417000        1.0080           0
   57204 WT3  5566 TIP3 H2   HT     0.417000        1.0080           0
   57205 WT3  5568 TIP3 OH2  OT    -0.834000       15.9994           0
   57206 WT3  5568 TIP3 H1   HT     0.417000        1.0080           0
   57207 WT3  5568 TIP3 H2   HT     0.417000        1.0080           0
   57208 WT3  5570 TIP3 OH2  OT    -0.834000       15.9994           0
   57209 WT3  5570 TIP3 H1   HT     0.417000        1.0080           0
   57210 WT3  5570 TIP3 H2   HT     0.417000        1.0080           0
   57211 WT3  5571 TIP3 OH2  OT    -0.834000       15.9994           0
   57212 WT3  5571 TIP3 H1   HT     0.417000        1.0080           0
   57213 WT3  5571 TIP3 H2   HT     0.417000        1.0080           0
   57214 WT3  5572 TIP3 OH2  OT    -0.834000       15.9994           0
   57215 WT3  5572 TIP3 H1   HT     0.417000        1.0080           0
   57216 WT3  5572 TIP3 H2   HT     0.417000        1.0080           0
   57217 WT3  5575 TIP3 OH2  OT    -0.834000       15.9994           0
   57218 WT3  5575 TIP3 H1   HT     0.417000        1.0080           0
   57219 WT3  5575 TIP3 H2   HT     0.417000        1.0080           0
   57220 WT3  5577 TIP3 OH2  OT    -0.834000       15.9994           0
   57221 WT3  5577 TIP3 H1   HT     0.417000        1.0080           0
   57222 WT3  5577 TIP3 H2   HT     0.417000        1.0080           0
   57223 WT3  5579 TIP3 OH2  OT    -0.834000       15.9994           0
   57224 WT3  5579 TIP3 H1   HT     0.417000        1.0080           0
   57225 WT3  5579 TIP3 H2   HT     0.417000        1.0080           0
   57226 WT3  5582 TIP3 OH2  OT    -0.834000       15.9994           0
   57227 WT3  5582 TIP3 H1   HT     0.417000        1.0080           0
   57228 WT3  5582 TIP3 H2   HT     0.417000        1.0080           0
   57229 WT3  5585 TIP3 OH2  OT    -0.834000       15.9994           0
   57230 WT3  5585 TIP3 H1   HT     0.417000        1.0080           0
   57231 WT3  5585 TIP3 H2   HT     0.417000        1.0080           0
   57232 WT3  5591 TIP3 OH2  OT    -0.834000       15.9994           0
   57233 WT3  5591 TIP3 H1   HT     0.417000        1.0080           0
   57234 WT3  5591 TIP3 H2   HT     0.417000        1.0080           0
   57235 WT3  5594 TIP3 OH2  OT    -0.834000       15.9994           0
   57236 WT3  5594 TIP3 H1   HT     0.417000        1.0080           0
   57237 WT3  5594 TIP3 H2   HT     0.417000        1.0080           0
   57238 WT3  5596 TIP3 OH2  OT    -0.834000       15.9994           0
   57239 WT3  5596 TIP3 H1   HT     0.417000        1.0080           0
   57240 WT3  5596 TIP3 H2   HT     0.417000        1.0080           0
   57241 WT3  5598 TIP3 OH2  OT    -0.834000       15.9994           0
   57242 WT3  5598 TIP3 H1   HT     0.417000        1.0080           0
   57243 WT3  5598 TIP3 H2   HT     0.417000        1.0080           0
   57244 WT3  5599 TIP3 OH2  OT    -0.834000       15.9994           0
   57245 WT3  5599 TIP3 H1   HT     0.417000        1.0080           0
   57246 WT3  5599 TIP3 H2   HT     0.417000        1.0080           0
   57247 WT3  5602 TIP3 OH2  OT    -0.834000       15.9994           0
   57248 WT3  5602 TIP3 H1   HT     0.417000        1.0080           0
   57249 WT3  5602 TIP3 H2   HT     0.417000        1.0080           0
   57250 WT3  5607 TIP3 OH2  OT    -0.834000       15.9994           0
   57251 WT3  5607 TIP3 H1   HT     0.417000        1.0080           0
   57252 WT3  5607 TIP3 H2   HT     0.417000        1.0080           0
   57253 WT3  5609 TIP3 OH2  OT    -0.834000       15.9994           0
   57254 WT3  5609 TIP3 H1   HT     0.417000        1.0080           0
   57255 WT3  5609 TIP3 H2   HT     0.417000        1.0080           0
   57256 WT3  5610 TIP3 OH2  OT    -0.834000       15.9994           0
   57257 WT3  5610 TIP3 H1   HT     0.417000        1.0080           0
   57258 WT3  5610 TIP3 H2   HT     0.417000        1.0080           0
   57259 WT3  5612 TIP3 OH2  OT    -0.834000       15.9994           0
   57260 WT3  5612 TIP3 H1   HT     0.417000        1.0080           0
   57261 WT3  5612 TIP3 H2   HT     0.417000        1.0080           0
   57262 WT3  5613 TIP3 OH2  OT    -0.834000       15.9994           0
   57263 WT3  5613 TIP3 H1   HT     0.417000        1.0080           0
   57264 WT3  5613 TIP3 H2   HT     0.417000        1.0080           0
   57265 WT3  5628 TIP3 OH2  OT    -0.834000       15.9994           0
   57266 WT3  5628 TIP3 H1   HT     0.417000        1.0080           0
   57267 WT3  5628 TIP3 H2   HT     0.417000        1.0080           0
   57268 WT3  5638 TIP3 OH2  OT    -0.834000       15.9994           0
   57269 WT3  5638 TIP3 H1   HT     0.417000        1.0080           0
   57270 WT3  5638 TIP3 H2   HT     0.417000        1.0080           0
   57271 WT3  5640 TIP3 OH2  OT    -0.834000       15.9994           0
   57272 WT3  5640 TIP3 H1   HT     0.417000        1.0080           0
   57273 WT3  5640 TIP3 H2   HT     0.417000        1.0080           0
   57274 WT3  5646 TIP3 OH2  OT    -0.834000       15.9994           0
   57275 WT3  5646 TIP3 H1   HT     0.417000        1.0080           0
   57276 WT3  5646 TIP3 H2   HT     0.417000        1.0080           0
   57277 WT3  5650 TIP3 OH2  OT    -0.834000       15.9994           0
   57278 WT3  5650 TIP3 H1   HT     0.417000        1.0080           0
   57279 WT3  5650 TIP3 H2   HT     0.417000        1.0080           0
   57280 WT3  5654 TIP3 OH2  OT    -0.834000       15.9994           0
   57281 WT3  5654 TIP3 H1   HT     0.417000        1.0080           0
   57282 WT3  5654 TIP3 H2   HT     0.417000        1.0080           0
   57283 WT3  5658 TIP3 OH2  OT    -0.834000       15.9994           0
   57284 WT3  5658 TIP3 H1   HT     0.417000        1.0080           0
   57285 WT3  5658 TIP3 H2   HT     0.417000        1.0080           0
   57286 WT3  5669 TIP3 OH2  OT    -0.834000       15.9994           0
   57287 WT3  5669 TIP3 H1   HT     0.417000        1.0080           0
   57288 WT3  5669 TIP3 H2   HT     0.417000        1.0080           0
   57289 WT3  5676 TIP3 OH2  OT    -0.834000       15.9994           0
   57290 WT3  5676 TIP3 H1   HT     0.417000        1.0080           0
   57291 WT3  5676 TIP3 H2   HT     0.417000        1.0080           0
   57292 WT3  5678 TIP3 OH2  OT    -0.834000       15.9994           0
   57293 WT3  5678 TIP3 H1   HT     0.417000        1.0080           0
   57294 WT3  5678 TIP3 H2   HT     0.417000        1.0080           0
   57295 WT3  5679 TIP3 OH2  OT    -0.834000       15.9994           0
   57296 WT3  5679 TIP3 H1   HT     0.417000        1.0080           0
   57297 WT3  5679 TIP3 H2   HT     0.417000        1.0080           0
   57298 WT3  5690 TIP3 OH2  OT    -0.834000       15.9994           0
   57299 WT3  5690 TIP3 H1   HT     0.417000        1.0080           0
   57300 WT3  5690 TIP3 H2   HT     0.417000        1.0080           0
   57301 WT3  5691 TIP3 OH2  OT    -0.834000       15.9994           0
   57302 WT3  5691 TIP3 H1   HT     0.417000        1.0080           0
   57303 WT3  5691 TIP3 H2   HT     0.417000        1.0080           0
   57304 WT3  5692 TIP3 OH2  OT    -0.834000       15.9994           0
   57305 WT3  5692 TIP3 H1   HT     0.417000        1.0080           0
   57306 WT3  5692 TIP3 H2   HT     0.417000        1.0080           0
   57307 WT3  5697 TIP3 OH2  OT    -0.834000       15.9994           0
   57308 WT3  5697 TIP3 H1   HT     0.417000        1.0080           0
   57309 WT3  5697 TIP3 H2   HT     0.417000        1.0080           0
   57310 WT3  5704 TIP3 OH2  OT    -0.834000       15.9994           0
   57311 WT3  5704 TIP3 H1   HT     0.417000        1.0080           0
   57312 WT3  5704 TIP3 H2   HT     0.417000        1.0080           0
   57313 WT3  5706 TIP3 OH2  OT    -0.834000       15.9994           0
   57314 WT3  5706 TIP3 H1   HT     0.417000        1.0080           0
   57315 WT3  5706 TIP3 H2   HT     0.417000        1.0080           0
   57316 WT3  5710 TIP3 OH2  OT    -0.834000       15.9994           0
   57317 WT3  5710 TIP3 H1   HT     0.417000        1.0080           0
   57318 WT3  5710 TIP3 H2   HT     0.417000        1.0080           0
   57319 WT3  5711 TIP3 OH2  OT    -0.834000       15.9994           0
   57320 WT3  5711 TIP3 H1   HT     0.417000        1.0080           0
   57321 WT3  5711 TIP3 H2   HT     0.417000        1.0080           0
   57322 WT3  5713 TIP3 OH2  OT    -0.834000       15.9994           0
   57323 WT3  5713 TIP3 H1   HT     0.417000        1.0080           0
   57324 WT3  5713 TIP3 H2   HT     0.417000        1.0080           0
   57325 WT3  5714 TIP3 OH2  OT    -0.834000       15.9994           0
   57326 WT3  5714 TIP3 H1   HT     0.417000        1.0080           0
   57327 WT3  5714 TIP3 H2   HT     0.417000        1.0080           0
   57328 WT3  5715 TIP3 OH2  OT    -0.834000       15.9994           0
   57329 WT3  5715 TIP3 H1   HT     0.417000        1.0080           0
   57330 WT3  5715 TIP3 H2   HT     0.417000        1.0080           0
   57331 WT3  5719 TIP3 OH2  OT    -0.834000       15.9994           0
   57332 WT3  5719 TIP3 H1   HT     0.417000        1.0080           0
   57333 WT3  5719 TIP3 H2   HT     0.417000        1.0080           0
   57334 WT3  5720 TIP3 OH2  OT    -0.834000       15.9994           0
   57335 WT3  5720 TIP3 H1   HT     0.417000        1.0080           0
   57336 WT3  5720 TIP3 H2   HT     0.417000        1.0080           0
   57337 WT3  5722 TIP3 OH2  OT    -0.834000       15.9994           0
   57338 WT3  5722 TIP3 H1   HT     0.417000        1.0080           0
   57339 WT3  5722 TIP3 H2   HT     0.417000        1.0080           0
   57340 WT3  5723 TIP3 OH2  OT    -0.834000       15.9994           0
   57341 WT3  5723 TIP3 H1   HT     0.417000        1.0080           0
   57342 WT3  5723 TIP3 H2   HT     0.417000        1.0080           0
   57343 WT3  5727 TIP3 OH2  OT    -0.834000       15.9994           0
   57344 WT3  5727 TIP3 H1   HT     0.417000        1.0080           0
   57345 WT3  5727 TIP3 H2   HT     0.417000        1.0080           0
   57346 WT3  5733 TIP3 OH2  OT    -0.834000       15.9994           0
   57347 WT3  5733 TIP3 H1   HT     0.417000        1.0080           0
   57348 WT3  5733 TIP3 H2   HT     0.417000        1.0080           0
   57349 WT3  5734 TIP3 OH2  OT    -0.834000       15.9994           0
   57350 WT3  5734 TIP3 H1   HT     0.417000        1.0080           0
   57351 WT3  5734 TIP3 H2   HT     0.417000        1.0080           0
   57352 WT3  5738 TIP3 OH2  OT    -0.834000       15.9994           0
   57353 WT3  5738 TIP3 H1   HT     0.417000        1.0080           0
   57354 WT3  5738 TIP3 H2   HT     0.417000        1.0080           0
   57355 WT3  5741 TIP3 OH2  OT    -0.834000       15.9994           0
   57356 WT3  5741 TIP3 H1   HT     0.417000        1.0080           0
   57357 WT3  5741 TIP3 H2   HT     0.417000        1.0080           0
   57358 WT3  5744 TIP3 OH2  OT    -0.834000       15.9994           0
   57359 WT3  5744 TIP3 H1   HT     0.417000        1.0080           0
   57360 WT3  5744 TIP3 H2   HT     0.417000        1.0080           0
   57361 WT3  5750 TIP3 OH2  OT    -0.834000       15.9994           0
   57362 WT3  5750 TIP3 H1   HT     0.417000        1.0080           0
   57363 WT3  5750 TIP3 H2   HT     0.417000        1.0080           0
   57364 WT3  5753 TIP3 OH2  OT    -0.834000       15.9994           0
   57365 WT3  5753 TIP3 H1   HT     0.417000        1.0080           0
   57366 WT3  5753 TIP3 H2   HT     0.417000        1.0080           0
   57367 WT3  5754 TIP3 OH2  OT    -0.834000       15.9994           0
   57368 WT3  5754 TIP3 H1   HT     0.417000        1.0080           0
   57369 WT3  5754 TIP3 H2   HT     0.417000        1.0080           0
   57370 WT3  5755 TIP3 OH2  OT    -0.834000       15.9994           0
   57371 WT3  5755 TIP3 H1   HT     0.417000        1.0080           0
   57372 WT3  5755 TIP3 H2   HT     0.417000        1.0080           0
   57373 WT3  5756 TIP3 OH2  OT    -0.834000       15.9994           0
   57374 WT3  5756 TIP3 H1   HT     0.417000        1.0080           0
   57375 WT3  5756 TIP3 H2   HT     0.417000        1.0080           0
   57376 WT3  5757 TIP3 OH2  OT    -0.834000       15.9994           0
   57377 WT3  5757 TIP3 H1   HT     0.417000        1.0080           0
   57378 WT3  5757 TIP3 H2   HT     0.417000        1.0080           0
   57379 WT3  5758 TIP3 OH2  OT    -0.834000       15.9994           0
   57380 WT3  5758 TIP3 H1   HT     0.417000        1.0080           0
   57381 WT3  5758 TIP3 H2   HT     0.417000        1.0080           0
   57382 WT3  5760 TIP3 OH2  OT    -0.834000       15.9994           0
   57383 WT3  5760 TIP3 H1   HT     0.417000        1.0080           0
   57384 WT3  5760 TIP3 H2   HT     0.417000        1.0080           0
   57385 WT3  5762 TIP3 OH2  OT    -0.834000       15.9994           0
   57386 WT3  5762 TIP3 H1   HT     0.417000        1.0080           0
   57387 WT3  5762 TIP3 H2   HT     0.417000        1.0080           0
   57388 WT3  5764 TIP3 OH2  OT    -0.834000       15.9994           0
   57389 WT3  5764 TIP3 H1   HT     0.417000        1.0080           0
   57390 WT3  5764 TIP3 H2   HT     0.417000        1.0080           0
   57391 WT3  5765 TIP3 OH2  OT    -0.834000       15.9994           0
   57392 WT3  5765 TIP3 H1   HT     0.417000        1.0080           0
   57393 WT3  5765 TIP3 H2   HT     0.417000        1.0080           0
   57394 WT3  5767 TIP3 OH2  OT    -0.834000       15.9994           0
   57395 WT3  5767 TIP3 H1   HT     0.417000        1.0080           0
   57396 WT3  5767 TIP3 H2   HT     0.417000        1.0080           0
   57397 WT3  5768 TIP3 OH2  OT    -0.834000       15.9994           0
   57398 WT3  5768 TIP3 H1   HT     0.417000        1.0080           0
   57399 WT3  5768 TIP3 H2   HT     0.417000        1.0080           0
   57400 WT3  5772 TIP3 OH2  OT    -0.834000       15.9994           0
   57401 WT3  5772 TIP3 H1   HT     0.417000        1.0080           0
   57402 WT3  5772 TIP3 H2   HT     0.417000        1.0080           0
   57403 WT3  5774 TIP3 OH2  OT    -0.834000       15.9994           0
   57404 WT3  5774 TIP3 H1   HT     0.417000        1.0080           0
   57405 WT3  5774 TIP3 H2   HT     0.417000        1.0080           0
   57406 WT3  5777 TIP3 OH2  OT    -0.834000       15.9994           0
   57407 WT3  5777 TIP3 H1   HT     0.417000        1.0080           0
   57408 WT3  5777 TIP3 H2   HT     0.417000        1.0080           0
   57409 WT3  5778 TIP3 OH2  OT    -0.834000       15.9994           0
   57410 WT3  5778 TIP3 H1   HT     0.417000        1.0080           0
   57411 WT3  5778 TIP3 H2   HT     0.417000        1.0080           0
   57412 WT3  5779 TIP3 OH2  OT    -0.834000       15.9994           0
   57413 WT3  5779 TIP3 H1   HT     0.417000        1.0080           0
   57414 WT3  5779 TIP3 H2   HT     0.417000        1.0080           0
   57415 WT3  5780 TIP3 OH2  OT    -0.834000       15.9994           0
   57416 WT3  5780 TIP3 H1   HT     0.417000        1.0080           0
   57417 WT3  5780 TIP3 H2   HT     0.417000        1.0080           0
   57418 WT3  5781 TIP3 OH2  OT    -0.834000       15.9994           0
   57419 WT3  5781 TIP3 H1   HT     0.417000        1.0080           0
   57420 WT3  5781 TIP3 H2   HT     0.417000        1.0080           0
   57421 WT3  5782 TIP3 OH2  OT    -0.834000       15.9994           0
   57422 WT3  5782 TIP3 H1   HT     0.417000        1.0080           0
   57423 WT3  5782 TIP3 H2   HT     0.417000        1.0080           0
   57424 WT3  5783 TIP3 OH2  OT    -0.834000       15.9994           0
   57425 WT3  5783 TIP3 H1   HT     0.417000        1.0080           0
   57426 WT3  5783 TIP3 H2   HT     0.417000        1.0080           0
   57427 WT3  5784 TIP3 OH2  OT    -0.834000       15.9994           0
   57428 WT3  5784 TIP3 H1   HT     0.417000        1.0080           0
   57429 WT3  5784 TIP3 H2   HT     0.417000        1.0080           0
   57430 WT3  5785 TIP3 OH2  OT    -0.834000       15.9994           0
   57431 WT3  5785 TIP3 H1   HT     0.417000        1.0080           0
   57432 WT3  5785 TIP3 H2   HT     0.417000        1.0080           0
   57433 WT3  5786 TIP3 OH2  OT    -0.834000       15.9994           0
   57434 WT3  5786 TIP3 H1   HT     0.417000        1.0080           0
   57435 WT3  5786 TIP3 H2   HT     0.417000        1.0080           0
   57436 WT3  5787 TIP3 OH2  OT    -0.834000       15.9994           0
   57437 WT3  5787 TIP3 H1   HT     0.417000        1.0080           0
   57438 WT3  5787 TIP3 H2   HT     0.417000        1.0080           0
   57439 WT3  5788 TIP3 OH2  OT    -0.834000       15.9994           0
   57440 WT3  5788 TIP3 H1   HT     0.417000        1.0080           0
   57441 WT3  5788 TIP3 H2   HT     0.417000        1.0080           0
   57442 WT3  5790 TIP3 OH2  OT    -0.834000       15.9994           0
   57443 WT3  5790 TIP3 H1   HT     0.417000        1.0080           0
   57444 WT3  5790 TIP3 H2   HT     0.417000        1.0080           0
   57445 WT3  5791 TIP3 OH2  OT    -0.834000       15.9994           0
   57446 WT3  5791 TIP3 H1   HT     0.417000        1.0080           0
   57447 WT3  5791 TIP3 H2   HT     0.417000        1.0080           0
   57448 WT3  5794 TIP3 OH2  OT    -0.834000       15.9994           0
   57449 WT3  5794 TIP3 H1   HT     0.417000        1.0080           0
   57450 WT3  5794 TIP3 H2   HT     0.417000        1.0080           0
   57451 WT3  5795 TIP3 OH2  OT    -0.834000       15.9994           0
   57452 WT3  5795 TIP3 H1   HT     0.417000        1.0080           0
   57453 WT3  5795 TIP3 H2   HT     0.417000        1.0080           0
   57454 WT3  5796 TIP3 OH2  OT    -0.834000       15.9994           0
   57455 WT3  5796 TIP3 H1   HT     0.417000        1.0080           0
   57456 WT3  5796 TIP3 H2   HT     0.417000        1.0080           0
   57457 WT3  5797 TIP3 OH2  OT    -0.834000       15.9994           0
   57458 WT3  5797 TIP3 H1   HT     0.417000        1.0080           0
   57459 WT3  5797 TIP3 H2   HT     0.417000        1.0080           0
   57460 WT3  5798 TIP3 OH2  OT    -0.834000       15.9994           0
   57461 WT3  5798 TIP3 H1   HT     0.417000        1.0080           0
   57462 WT3  5798 TIP3 H2   HT     0.417000        1.0080           0
   57463 WT3  5799 TIP3 OH2  OT    -0.834000       15.9994           0
   57464 WT3  5799 TIP3 H1   HT     0.417000        1.0080           0
   57465 WT3  5799 TIP3 H2   HT     0.417000        1.0080           0
   57466 WT3  5800 TIP3 OH2  OT    -0.834000       15.9994           0
   57467 WT3  5800 TIP3 H1   HT     0.417000        1.0080           0
   57468 WT3  5800 TIP3 H2   HT     0.417000        1.0080           0
   57469 WT3  5801 TIP3 OH2  OT    -0.834000       15.9994           0
   57470 WT3  5801 TIP3 H1   HT     0.417000        1.0080           0
   57471 WT3  5801 TIP3 H2   HT     0.417000        1.0080           0
   57472 WT3  5802 TIP3 OH2  OT    -0.834000       15.9994           0
   57473 WT3  5802 TIP3 H1   HT     0.417000        1.0080           0
   57474 WT3  5802 TIP3 H2   HT     0.417000        1.0080           0
   57475 WT3  5803 TIP3 OH2  OT    -0.834000       15.9994           0
   57476 WT3  5803 TIP3 H1   HT     0.417000        1.0080           0
   57477 WT3  5803 TIP3 H2   HT     0.417000        1.0080           0
   57478 WT3  5804 TIP3 OH2  OT    -0.834000       15.9994           0
   57479 WT3  5804 TIP3 H1   HT     0.417000        1.0080           0
   57480 WT3  5804 TIP3 H2   HT     0.417000        1.0080           0
   57481 WT3  5805 TIP3 OH2  OT    -0.834000       15.9994           0
   57482 WT3  5805 TIP3 H1   HT     0.417000        1.0080           0
   57483 WT3  5805 TIP3 H2   HT     0.417000        1.0080           0
   57484 WT3  5806 TIP3 OH2  OT    -0.834000       15.9994           0
   57485 WT3  5806 TIP3 H1   HT     0.417000        1.0080           0
   57486 WT3  5806 TIP3 H2   HT     0.417000        1.0080           0
   57487 WT3  5807 TIP3 OH2  OT    -0.834000       15.9994           0
   57488 WT3  5807 TIP3 H1   HT     0.417000        1.0080           0
   57489 WT3  5807 TIP3 H2   HT     0.417000        1.0080           0
   57490 WT3  5808 TIP3 OH2  OT    -0.834000       15.9994           0
   57491 WT3  5808 TIP3 H1   HT     0.417000        1.0080           0
   57492 WT3  5808 TIP3 H2   HT     0.417000        1.0080           0
   57493 WT3  5809 TIP3 OH2  OT    -0.834000       15.9994           0
   57494 WT3  5809 TIP3 H1   HT     0.417000        1.0080           0
   57495 WT3  5809 TIP3 H2   HT     0.417000        1.0080           0
   57496 WT3  5810 TIP3 OH2  OT    -0.834000       15.9994           0
   57497 WT3  5810 TIP3 H1   HT     0.417000        1.0080           0
   57498 WT3  5810 TIP3 H2   HT     0.417000        1.0080           0
   57499 WT3  5812 TIP3 OH2  OT    -0.834000       15.9994           0
   57500 WT3  5812 TIP3 H1   HT     0.417000        1.0080           0
   57501 WT3  5812 TIP3 H2   HT     0.417000        1.0080           0
   57502 WT3  5813 TIP3 OH2  OT    -0.834000       15.9994           0
   57503 WT3  5813 TIP3 H1   HT     0.417000        1.0080           0
   57504 WT3  5813 TIP3 H2   HT     0.417000        1.0080           0
   57505 WT3  5814 TIP3 OH2  OT    -0.834000       15.9994           0
   57506 WT3  5814 TIP3 H1   HT     0.417000        1.0080           0
   57507 WT3  5814 TIP3 H2   HT     0.417000        1.0080           0
   57508 WT3  5817 TIP3 OH2  OT    -0.834000       15.9994           0
   57509 WT3  5817 TIP3 H1   HT     0.417000        1.0080           0
   57510 WT3  5817 TIP3 H2   HT     0.417000        1.0080           0
   57511 WT3  5818 TIP3 OH2  OT    -0.834000       15.9994           0
   57512 WT3  5818 TIP3 H1   HT     0.417000        1.0080           0
   57513 WT3  5818 TIP3 H2   HT     0.417000        1.0080           0
   57514 WT3  5819 TIP3 OH2  OT    -0.834000       15.9994           0
   57515 WT3  5819 TIP3 H1   HT     0.417000        1.0080           0
   57516 WT3  5819 TIP3 H2   HT     0.417000        1.0080           0
   57517 WT3  5820 TIP3 OH2  OT    -0.834000       15.9994           0
   57518 WT3  5820 TIP3 H1   HT     0.417000        1.0080           0
   57519 WT3  5820 TIP3 H2   HT     0.417000        1.0080           0
   57520 WT3  5821 TIP3 OH2  OT    -0.834000       15.9994           0
   57521 WT3  5821 TIP3 H1   HT     0.417000        1.0080           0
   57522 WT3  5821 TIP3 H2   HT     0.417000        1.0080           0
   57523 WT3  5823 TIP3 OH2  OT    -0.834000       15.9994           0
   57524 WT3  5823 TIP3 H1   HT     0.417000        1.0080           0
   57525 WT3  5823 TIP3 H2   HT     0.417000        1.0080           0
   57526 WT3  5824 TIP3 OH2  OT    -0.834000       15.9994           0
   57527 WT3  5824 TIP3 H1   HT     0.417000        1.0080           0
   57528 WT3  5824 TIP3 H2   HT     0.417000        1.0080           0
   57529 WT3  5826 TIP3 OH2  OT    -0.834000       15.9994           0
   57530 WT3  5826 TIP3 H1   HT     0.417000        1.0080           0
   57531 WT3  5826 TIP3 H2   HT     0.417000        1.0080           0
   57532 WT3  5827 TIP3 OH2  OT    -0.834000       15.9994           0
   57533 WT3  5827 TIP3 H1   HT     0.417000        1.0080           0
   57534 WT3  5827 TIP3 H2   HT     0.417000        1.0080           0
   57535 WT3  5828 TIP3 OH2  OT    -0.834000       15.9994           0
   57536 WT3  5828 TIP3 H1   HT     0.417000        1.0080           0
   57537 WT3  5828 TIP3 H2   HT     0.417000        1.0080           0
   57538 WT3  5829 TIP3 OH2  OT    -0.834000       15.9994           0
   57539 WT3  5829 TIP3 H1   HT     0.417000        1.0080           0
   57540 WT3  5829 TIP3 H2   HT     0.417000        1.0080           0
   57541 WT3  5830 TIP3 OH2  OT    -0.834000       15.9994           0
   57542 WT3  5830 TIP3 H1   HT     0.417000        1.0080           0
   57543 WT3  5830 TIP3 H2   HT     0.417000        1.0080           0
   57544 WT3  5832 TIP3 OH2  OT    -0.834000       15.9994           0
   57545 WT3  5832 TIP3 H1   HT     0.417000        1.0080           0
   57546 WT3  5832 TIP3 H2   HT     0.417000        1.0080           0
   57547 WT3  5834 TIP3 OH2  OT    -0.834000       15.9994           0
   57548 WT3  5834 TIP3 H1   HT     0.417000        1.0080           0
   57549 WT3  5834 TIP3 H2   HT     0.417000        1.0080           0
   57550 WT3  5835 TIP3 OH2  OT    -0.834000       15.9994           0
   57551 WT3  5835 TIP3 H1   HT     0.417000        1.0080           0
   57552 WT3  5835 TIP3 H2   HT     0.417000        1.0080           0
   57553 WT3  5836 TIP3 OH2  OT    -0.834000       15.9994           0
   57554 WT3  5836 TIP3 H1   HT     0.417000        1.0080           0
   57555 WT3  5836 TIP3 H2   HT     0.417000        1.0080           0
   57556 WT3  5837 TIP3 OH2  OT    -0.834000       15.9994           0
   57557 WT3  5837 TIP3 H1   HT     0.417000        1.0080           0
   57558 WT3  5837 TIP3 H2   HT     0.417000        1.0080           0
   57559 WT3  5839 TIP3 OH2  OT    -0.834000       15.9994           0
   57560 WT3  5839 TIP3 H1   HT     0.417000        1.0080           0
   57561 WT3  5839 TIP3 H2   HT     0.417000        1.0080           0
   57562 WT3  5840 TIP3 OH2  OT    -0.834000       15.9994           0
   57563 WT3  5840 TIP3 H1   HT     0.417000        1.0080           0
   57564 WT3  5840 TIP3 H2   HT     0.417000        1.0080           0
   57565 WT3  5841 TIP3 OH2  OT    -0.834000       15.9994           0
   57566 WT3  5841 TIP3 H1   HT     0.417000        1.0080           0
   57567 WT3  5841 TIP3 H2   HT     0.417000        1.0080           0
   57568 WT3  5842 TIP3 OH2  OT    -0.834000       15.9994           0
   57569 WT3  5842 TIP3 H1   HT     0.417000        1.0080           0
   57570 WT3  5842 TIP3 H2   HT     0.417000        1.0080           0
   57571 WT3  5843 TIP3 OH2  OT    -0.834000       15.9994           0
   57572 WT3  5843 TIP3 H1   HT     0.417000        1.0080           0
   57573 WT3  5843 TIP3 H2   HT     0.417000        1.0080           0
   57574 WT3  5844 TIP3 OH2  OT    -0.834000       15.9994           0
   57575 WT3  5844 TIP3 H1   HT     0.417000        1.0080           0
   57576 WT3  5844 TIP3 H2   HT     0.417000        1.0080           0
   57577 WT3  5845 TIP3 OH2  OT    -0.834000       15.9994           0
   57578 WT3  5845 TIP3 H1   HT     0.417000        1.0080           0
   57579 WT3  5845 TIP3 H2   HT     0.417000        1.0080           0
   57580 WT3  5846 TIP3 OH2  OT    -0.834000       15.9994           0
   57581 WT3  5846 TIP3 H1   HT     0.417000        1.0080           0
   57582 WT3  5846 TIP3 H2   HT     0.417000        1.0080           0
   57583 WT3  5847 TIP3 OH2  OT    -0.834000       15.9994           0
   57584 WT3  5847 TIP3 H1   HT     0.417000        1.0080           0
   57585 WT3  5847 TIP3 H2   HT     0.417000        1.0080           0
   57586 WT3  5848 TIP3 OH2  OT    -0.834000       15.9994           0
   57587 WT3  5848 TIP3 H1   HT     0.417000        1.0080           0
   57588 WT3  5848 TIP3 H2   HT     0.417000        1.0080           0
   57589 WT3  5849 TIP3 OH2  OT    -0.834000       15.9994           0
   57590 WT3  5849 TIP3 H1   HT     0.417000        1.0080           0
   57591 WT3  5849 TIP3 H2   HT     0.417000        1.0080           0
   57592 WT3  5850 TIP3 OH2  OT    -0.834000       15.9994           0
   57593 WT3  5850 TIP3 H1   HT     0.417000        1.0080           0
   57594 WT3  5850 TIP3 H2   HT     0.417000        1.0080           0
   57595 WT3  5855 TIP3 OH2  OT    -0.834000       15.9994           0
   57596 WT3  5855 TIP3 H1   HT     0.417000        1.0080           0
   57597 WT3  5855 TIP3 H2   HT     0.417000        1.0080           0
   57598 WT3  5858 TIP3 OH2  OT    -0.834000       15.9994           0
   57599 WT3  5858 TIP3 H1   HT     0.417000        1.0080           0
   57600 WT3  5858 TIP3 H2   HT     0.417000        1.0080           0
   57601 WT3  5859 TIP3 OH2  OT    -0.834000       15.9994           0
   57602 WT3  5859 TIP3 H1   HT     0.417000        1.0080           0
   57603 WT3  5859 TIP3 H2   HT     0.417000        1.0080           0
   57604 WT3  5860 TIP3 OH2  OT    -0.834000       15.9994           0
   57605 WT3  5860 TIP3 H1   HT     0.417000        1.0080           0
   57606 WT3  5860 TIP3 H2   HT     0.417000        1.0080           0
   57607 WT3  5861 TIP3 OH2  OT    -0.834000       15.9994           0
   57608 WT3  5861 TIP3 H1   HT     0.417000        1.0080           0
   57609 WT3  5861 TIP3 H2   HT     0.417000        1.0080           0
   57610 WT3  5862 TIP3 OH2  OT    -0.834000       15.9994           0
   57611 WT3  5862 TIP3 H1   HT     0.417000        1.0080           0
   57612 WT3  5862 TIP3 H2   HT     0.417000        1.0080           0
   57613 WT3  5863 TIP3 OH2  OT    -0.834000       15.9994           0
   57614 WT3  5863 TIP3 H1   HT     0.417000        1.0080           0
   57615 WT3  5863 TIP3 H2   HT     0.417000        1.0080           0
   57616 WT3  5864 TIP3 OH2  OT    -0.834000       15.9994           0
   57617 WT3  5864 TIP3 H1   HT     0.417000        1.0080           0
   57618 WT3  5864 TIP3 H2   HT     0.417000        1.0080           0
   57619 WT3  5865 TIP3 OH2  OT    -0.834000       15.9994           0
   57620 WT3  5865 TIP3 H1   HT     0.417000        1.0080           0
   57621 WT3  5865 TIP3 H2   HT     0.417000        1.0080           0
   57622 WT3  5866 TIP3 OH2  OT    -0.834000       15.9994           0
   57623 WT3  5866 TIP3 H1   HT     0.417000        1.0080           0
   57624 WT3  5866 TIP3 H2   HT     0.417000        1.0080           0
   57625 WT3  5867 TIP3 OH2  OT    -0.834000       15.9994           0
   57626 WT3  5867 TIP3 H1   HT     0.417000        1.0080           0
   57627 WT3  5867 TIP3 H2   HT     0.417000        1.0080           0
   57628 WT3  5868 TIP3 OH2  OT    -0.834000       15.9994           0
   57629 WT3  5868 TIP3 H1   HT     0.417000        1.0080           0
   57630 WT3  5868 TIP3 H2   HT     0.417000        1.0080           0
   57631 WT3  5869 TIP3 OH2  OT    -0.834000       15.9994           0
   57632 WT3  5869 TIP3 H1   HT     0.417000        1.0080           0
   57633 WT3  5869 TIP3 H2   HT     0.417000        1.0080           0
   57634 WT3  5870 TIP3 OH2  OT    -0.834000       15.9994           0
   57635 WT3  5870 TIP3 H1   HT     0.417000        1.0080           0
   57636 WT3  5870 TIP3 H2   HT     0.417000        1.0080           0
   57637 WT3  5871 TIP3 OH2  OT    -0.834000       15.9994           0
   57638 WT3  5871 TIP3 H1   HT     0.417000        1.0080           0
   57639 WT3  5871 TIP3 H2   HT     0.417000        1.0080           0
   57640 WT3  5872 TIP3 OH2  OT    -0.834000       15.9994           0
   57641 WT3  5872 TIP3 H1   HT     0.417000        1.0080           0
   57642 WT3  5872 TIP3 H2   HT     0.417000        1.0080           0
   57643 WT3  5873 TIP3 OH2  OT    -0.834000       15.9994           0
   57644 WT3  5873 TIP3 H1   HT     0.417000        1.0080           0
   57645 WT3  5873 TIP3 H2   HT     0.417000        1.0080           0
   57646 WT3  5874 TIP3 OH2  OT    -0.834000       15.9994           0
   57647 WT3  5874 TIP3 H1   HT     0.417000        1.0080           0
   57648 WT3  5874 TIP3 H2   HT     0.417000        1.0080           0
   57649 WT3  5877 TIP3 OH2  OT    -0.834000       15.9994           0
   57650 WT3  5877 TIP3 H1   HT     0.417000        1.0080           0
   57651 WT3  5877 TIP3 H2   HT     0.417000        1.0080           0
   57652 WT3  5878 TIP3 OH2  OT    -0.834000       15.9994           0
   57653 WT3  5878 TIP3 H1   HT     0.417000        1.0080           0
   57654 WT3  5878 TIP3 H2   HT     0.417000        1.0080           0
   57655 WT3  5881 TIP3 OH2  OT    -0.834000       15.9994           0
   57656 WT3  5881 TIP3 H1   HT     0.417000        1.0080           0
   57657 WT3  5881 TIP3 H2   HT     0.417000        1.0080           0
   57658 WT3  5882 TIP3 OH2  OT    -0.834000       15.9994           0
   57659 WT3  5882 TIP3 H1   HT     0.417000        1.0080           0
   57660 WT3  5882 TIP3 H2   HT     0.417000        1.0080           0
   57661 WT3  5883 TIP3 OH2  OT    -0.834000       15.9994           0
   57662 WT3  5883 TIP3 H1   HT     0.417000        1.0080           0
   57663 WT3  5883 TIP3 H2   HT     0.417000        1.0080           0
   57664 WT3  5884 TIP3 OH2  OT    -0.834000       15.9994           0
   57665 WT3  5884 TIP3 H1   HT     0.417000        1.0080           0
   57666 WT3  5884 TIP3 H2   HT     0.417000        1.0080           0
   57667 WT3  5886 TIP3 OH2  OT    -0.834000       15.9994           0
   57668 WT3  5886 TIP3 H1   HT     0.417000        1.0080           0
   57669 WT3  5886 TIP3 H2   HT     0.417000        1.0080           0
   57670 WT3  5887 TIP3 OH2  OT    -0.834000       15.9994           0
   57671 WT3  5887 TIP3 H1   HT     0.417000        1.0080           0
   57672 WT3  5887 TIP3 H2   HT     0.417000        1.0080           0
   57673 WT3  5888 TIP3 OH2  OT    -0.834000       15.9994           0
   57674 WT3  5888 TIP3 H1   HT     0.417000        1.0080           0
   57675 WT3  5888 TIP3 H2   HT     0.417000        1.0080           0
   57676 WT3  5889 TIP3 OH2  OT    -0.834000       15.9994           0
   57677 WT3  5889 TIP3 H1   HT     0.417000        1.0080           0
   57678 WT3  5889 TIP3 H2   HT     0.417000        1.0080           0
   57679 WT3  5890 TIP3 OH2  OT    -0.834000       15.9994           0
   57680 WT3  5890 TIP3 H1   HT     0.417000        1.0080           0
   57681 WT3  5890 TIP3 H2   HT     0.417000        1.0080           0
   57682 WT3  5891 TIP3 OH2  OT    -0.834000       15.9994           0
   57683 WT3  5891 TIP3 H1   HT     0.417000        1.0080           0
   57684 WT3  5891 TIP3 H2   HT     0.417000        1.0080           0
   57685 WT3  5892 TIP3 OH2  OT    -0.834000       15.9994           0
   57686 WT3  5892 TIP3 H1   HT     0.417000        1.0080           0
   57687 WT3  5892 TIP3 H2   HT     0.417000        1.0080           0
   57688 WT3  5893 TIP3 OH2  OT    -0.834000       15.9994           0
   57689 WT3  5893 TIP3 H1   HT     0.417000        1.0080           0
   57690 WT3  5893 TIP3 H2   HT     0.417000        1.0080           0
   57691 WT3  5894 TIP3 OH2  OT    -0.834000       15.9994           0
   57692 WT3  5894 TIP3 H1   HT     0.417000        1.0080           0
   57693 WT3  5894 TIP3 H2   HT     0.417000        1.0080           0
   57694 WT3  5895 TIP3 OH2  OT    -0.834000       15.9994           0
   57695 WT3  5895 TIP3 H1   HT     0.417000        1.0080           0
   57696 WT3  5895 TIP3 H2   HT     0.417000        1.0080           0
   57697 WT3  5896 TIP3 OH2  OT    -0.834000       15.9994           0
   57698 WT3  5896 TIP3 H1   HT     0.417000        1.0080           0
   57699 WT3  5896 TIP3 H2   HT     0.417000        1.0080           0
   57700 WT3  5897 TIP3 OH2  OT    -0.834000       15.9994           0
   57701 WT3  5897 TIP3 H1   HT     0.417000        1.0080           0
   57702 WT3  5897 TIP3 H2   HT     0.417000        1.0080           0
   57703 WT3  5898 TIP3 OH2  OT    -0.834000       15.9994           0
   57704 WT3  5898 TIP3 H1   HT     0.417000        1.0080           0
   57705 WT3  5898 TIP3 H2   HT     0.417000        1.0080           0
   57706 WT3  5899 TIP3 OH2  OT    -0.834000       15.9994           0
   57707 WT3  5899 TIP3 H1   HT     0.417000        1.0080           0
   57708 WT3  5899 TIP3 H2   HT     0.417000        1.0080           0
   57709 WT3  5901 TIP3 OH2  OT    -0.834000       15.9994           0
   57710 WT3  5901 TIP3 H1   HT     0.417000        1.0080           0
   57711 WT3  5901 TIP3 H2   HT     0.417000        1.0080           0
   57712 WT3  5902 TIP3 OH2  OT    -0.834000       15.9994           0
   57713 WT3  5902 TIP3 H1   HT     0.417000        1.0080           0
   57714 WT3  5902 TIP3 H2   HT     0.417000        1.0080           0
   57715 WT3  5903 TIP3 OH2  OT    -0.834000       15.9994           0
   57716 WT3  5903 TIP3 H1   HT     0.417000        1.0080           0
   57717 WT3  5903 TIP3 H2   HT     0.417000        1.0080           0
   57718 WT3  5904 TIP3 OH2  OT    -0.834000       15.9994           0
   57719 WT3  5904 TIP3 H1   HT     0.417000        1.0080           0
   57720 WT3  5904 TIP3 H2   HT     0.417000        1.0080           0
   57721 WT3  5906 TIP3 OH2  OT    -0.834000       15.9994           0
   57722 WT3  5906 TIP3 H1   HT     0.417000        1.0080           0
   57723 WT3  5906 TIP3 H2   HT     0.417000        1.0080           0
   57724 WT3  5907 TIP3 OH2  OT    -0.834000       15.9994           0
   57725 WT3  5907 TIP3 H1   HT     0.417000        1.0080           0
   57726 WT3  5907 TIP3 H2   HT     0.417000        1.0080           0
   57727 WT3  5908 TIP3 OH2  OT    -0.834000       15.9994           0
   57728 WT3  5908 TIP3 H1   HT     0.417000        1.0080           0
   57729 WT3  5908 TIP3 H2   HT     0.417000        1.0080           0
   57730 WT3  5909 TIP3 OH2  OT    -0.834000       15.9994           0
   57731 WT3  5909 TIP3 H1   HT     0.417000        1.0080           0
   57732 WT3  5909 TIP3 H2   HT     0.417000        1.0080           0
   57733 WT3  5910 TIP3 OH2  OT    -0.834000       15.9994           0
   57734 WT3  5910 TIP3 H1   HT     0.417000        1.0080           0
   57735 WT3  5910 TIP3 H2   HT     0.417000        1.0080           0
   57736 WT3  5911 TIP3 OH2  OT    -0.834000       15.9994           0
   57737 WT3  5911 TIP3 H1   HT     0.417000        1.0080           0
   57738 WT3  5911 TIP3 H2   HT     0.417000        1.0080           0
   57739 WT3  5912 TIP3 OH2  OT    -0.834000       15.9994           0
   57740 WT3  5912 TIP3 H1   HT     0.417000        1.0080           0
   57741 WT3  5912 TIP3 H2   HT     0.417000        1.0080           0
   57742 WT3  5913 TIP3 OH2  OT    -0.834000       15.9994           0
   57743 WT3  5913 TIP3 H1   HT     0.417000        1.0080           0
   57744 WT3  5913 TIP3 H2   HT     0.417000        1.0080           0
   57745 WT3  5914 TIP3 OH2  OT    -0.834000       15.9994           0
   57746 WT3  5914 TIP3 H1   HT     0.417000        1.0080           0
   57747 WT3  5914 TIP3 H2   HT     0.417000        1.0080           0
   57748 WT3  5915 TIP3 OH2  OT    -0.834000       15.9994           0
   57749 WT3  5915 TIP3 H1   HT     0.417000        1.0080           0
   57750 WT3  5915 TIP3 H2   HT     0.417000        1.0080           0
   57751 WT3  5916 TIP3 OH2  OT    -0.834000       15.9994           0
   57752 WT3  5916 TIP3 H1   HT     0.417000        1.0080           0
   57753 WT3  5916 TIP3 H2   HT     0.417000        1.0080           0
   57754 WT3  5918 TIP3 OH2  OT    -0.834000       15.9994           0
   57755 WT3  5918 TIP3 H1   HT     0.417000        1.0080           0
   57756 WT3  5918 TIP3 H2   HT     0.417000        1.0080           0
   57757 WT3  5919 TIP3 OH2  OT    -0.834000       15.9994           0
   57758 WT3  5919 TIP3 H1   HT     0.417000        1.0080           0
   57759 WT3  5919 TIP3 H2   HT     0.417000        1.0080           0
   57760 WT3  5920 TIP3 OH2  OT    -0.834000       15.9994           0
   57761 WT3  5920 TIP3 H1   HT     0.417000        1.0080           0
   57762 WT3  5920 TIP3 H2   HT     0.417000        1.0080           0
   57763 WT3  5923 TIP3 OH2  OT    -0.834000       15.9994           0
   57764 WT3  5923 TIP3 H1   HT     0.417000        1.0080           0
   57765 WT3  5923 TIP3 H2   HT     0.417000        1.0080           0
   57766 WT3  5924 TIP3 OH2  OT    -0.834000       15.9994           0
   57767 WT3  5924 TIP3 H1   HT     0.417000        1.0080           0
   57768 WT3  5924 TIP3 H2   HT     0.417000        1.0080           0
   57769 WT3  5925 TIP3 OH2  OT    -0.834000       15.9994           0
   57770 WT3  5925 TIP3 H1   HT     0.417000        1.0080           0
   57771 WT3  5925 TIP3 H2   HT     0.417000        1.0080           0
   57772 WT3  5926 TIP3 OH2  OT    -0.834000       15.9994           0
   57773 WT3  5926 TIP3 H1   HT     0.417000        1.0080           0
   57774 WT3  5926 TIP3 H2   HT     0.417000        1.0080           0
   57775 WT3  5927 TIP3 OH2  OT    -0.834000       15.9994           0
   57776 WT3  5927 TIP3 H1   HT     0.417000        1.0080           0
   57777 WT3  5927 TIP3 H2   HT     0.417000        1.0080           0
   57778 WT3  5929 TIP3 OH2  OT    -0.834000       15.9994           0
   57779 WT3  5929 TIP3 H1   HT     0.417000        1.0080           0
   57780 WT3  5929 TIP3 H2   HT     0.417000        1.0080           0
   57781 WT3  5930 TIP3 OH2  OT    -0.834000       15.9994           0
   57782 WT3  5930 TIP3 H1   HT     0.417000        1.0080           0
   57783 WT3  5930 TIP3 H2   HT     0.417000        1.0080           0
   57784 WT3  5931 TIP3 OH2  OT    -0.834000       15.9994           0
   57785 WT3  5931 TIP3 H1   HT     0.417000        1.0080           0
   57786 WT3  5931 TIP3 H2   HT     0.417000        1.0080           0
   57787 WT3  5932 TIP3 OH2  OT    -0.834000       15.9994           0
   57788 WT3  5932 TIP3 H1   HT     0.417000        1.0080           0
   57789 WT3  5932 TIP3 H2   HT     0.417000        1.0080           0
   57790 WT3  5933 TIP3 OH2  OT    -0.834000       15.9994           0
   57791 WT3  5933 TIP3 H1   HT     0.417000        1.0080           0
   57792 WT3  5933 TIP3 H2   HT     0.417000        1.0080           0
   57793 WT3  5934 TIP3 OH2  OT    -0.834000       15.9994           0
   57794 WT3  5934 TIP3 H1   HT     0.417000        1.0080           0
   57795 WT3  5934 TIP3 H2   HT     0.417000        1.0080           0
   57796 WT3  5935 TIP3 OH2  OT    -0.834000       15.9994           0
   57797 WT3  5935 TIP3 H1   HT     0.417000        1.0080           0
   57798 WT3  5935 TIP3 H2   HT     0.417000        1.0080           0
   57799 WT3  5936 TIP3 OH2  OT    -0.834000       15.9994           0
   57800 WT3  5936 TIP3 H1   HT     0.417000        1.0080           0
   57801 WT3  5936 TIP3 H2   HT     0.417000        1.0080           0
   57802 WT3  5937 TIP3 OH2  OT    -0.834000       15.9994           0
   57803 WT3  5937 TIP3 H1   HT     0.417000        1.0080           0
   57804 WT3  5937 TIP3 H2   HT     0.417000        1.0080           0
   57805 WT3  5938 TIP3 OH2  OT    -0.834000       15.9994           0
   57806 WT3  5938 TIP3 H1   HT     0.417000        1.0080           0
   57807 WT3  5938 TIP3 H2   HT     0.417000        1.0080           0
   57808 WT3  5941 TIP3 OH2  OT    -0.834000       15.9994           0
   57809 WT3  5941 TIP3 H1   HT     0.417000        1.0080           0
   57810 WT3  5941 TIP3 H2   HT     0.417000        1.0080           0
   57811 WT3  5943 TIP3 OH2  OT    -0.834000       15.9994           0
   57812 WT3  5943 TIP3 H1   HT     0.417000        1.0080           0
   57813 WT3  5943 TIP3 H2   HT     0.417000        1.0080           0
   57814 WT3  5945 TIP3 OH2  OT    -0.834000       15.9994           0
   57815 WT3  5945 TIP3 H1   HT     0.417000        1.0080           0
   57816 WT3  5945 TIP3 H2   HT     0.417000        1.0080           0
   57817 WT3  5946 TIP3 OH2  OT    -0.834000       15.9994           0
   57818 WT3  5946 TIP3 H1   HT     0.417000        1.0080           0
   57819 WT3  5946 TIP3 H2   HT     0.417000        1.0080           0
   57820 WT3  5947 TIP3 OH2  OT    -0.834000       15.9994           0
   57821 WT3  5947 TIP3 H1   HT     0.417000        1.0080           0
   57822 WT3  5947 TIP3 H2   HT     0.417000        1.0080           0
   57823 WT3  5948 TIP3 OH2  OT    -0.834000       15.9994           0
   57824 WT3  5948 TIP3 H1   HT     0.417000        1.0080           0
   57825 WT3  5948 TIP3 H2   HT     0.417000        1.0080           0
   57826 WT3  5949 TIP3 OH2  OT    -0.834000       15.9994           0
   57827 WT3  5949 TIP3 H1   HT     0.417000        1.0080           0
   57828 WT3  5949 TIP3 H2   HT     0.417000        1.0080           0
   57829 WT3  5951 TIP3 OH2  OT    -0.834000       15.9994           0
   57830 WT3  5951 TIP3 H1   HT     0.417000        1.0080           0
   57831 WT3  5951 TIP3 H2   HT     0.417000        1.0080           0
   57832 WT3  5952 TIP3 OH2  OT    -0.834000       15.9994           0
   57833 WT3  5952 TIP3 H1   HT     0.417000        1.0080           0
   57834 WT3  5952 TIP3 H2   HT     0.417000        1.0080           0
   57835 WT3  5953 TIP3 OH2  OT    -0.834000       15.9994           0
   57836 WT3  5953 TIP3 H1   HT     0.417000        1.0080           0
   57837 WT3  5953 TIP3 H2   HT     0.417000        1.0080           0
   57838 WT3  5954 TIP3 OH2  OT    -0.834000       15.9994           0
   57839 WT3  5954 TIP3 H1   HT     0.417000        1.0080           0
   57840 WT3  5954 TIP3 H2   HT     0.417000        1.0080           0
   57841 WT3  5955 TIP3 OH2  OT    -0.834000       15.9994           0
   57842 WT3  5955 TIP3 H1   HT     0.417000        1.0080           0
   57843 WT3  5955 TIP3 H2   HT     0.417000        1.0080           0
   57844 WT3  5956 TIP3 OH2  OT    -0.834000       15.9994           0
   57845 WT3  5956 TIP3 H1   HT     0.417000        1.0080           0
   57846 WT3  5956 TIP3 H2   HT     0.417000        1.0080           0
   57847 WT3  5957 TIP3 OH2  OT    -0.834000       15.9994           0
   57848 WT3  5957 TIP3 H1   HT     0.417000        1.0080           0
   57849 WT3  5957 TIP3 H2   HT     0.417000        1.0080           0
   57850 WT3  5958 TIP3 OH2  OT    -0.834000       15.9994           0
   57851 WT3  5958 TIP3 H1   HT     0.417000        1.0080           0
   57852 WT3  5958 TIP3 H2   HT     0.417000        1.0080           0
   57853 WT3  5959 TIP3 OH2  OT    -0.834000       15.9994           0
   57854 WT3  5959 TIP3 H1   HT     0.417000        1.0080           0
   57855 WT3  5959 TIP3 H2   HT     0.417000        1.0080           0
   57856 WT3  5961 TIP3 OH2  OT    -0.834000       15.9994           0
   57857 WT3  5961 TIP3 H1   HT     0.417000        1.0080           0
   57858 WT3  5961 TIP3 H2   HT     0.417000        1.0080           0
   57859 WT3  5963 TIP3 OH2  OT    -0.834000       15.9994           0
   57860 WT3  5963 TIP3 H1   HT     0.417000        1.0080           0
   57861 WT3  5963 TIP3 H2   HT     0.417000        1.0080           0
   57862 WT3  5965 TIP3 OH2  OT    -0.834000       15.9994           0
   57863 WT3  5965 TIP3 H1   HT     0.417000        1.0080           0
   57864 WT3  5965 TIP3 H2   HT     0.417000        1.0080           0
   57865 WT3  5966 TIP3 OH2  OT    -0.834000       15.9994           0
   57866 WT3  5966 TIP3 H1   HT     0.417000        1.0080           0
   57867 WT3  5966 TIP3 H2   HT     0.417000        1.0080           0
   57868 WT3  5967 TIP3 OH2  OT    -0.834000       15.9994           0
   57869 WT3  5967 TIP3 H1   HT     0.417000        1.0080           0
   57870 WT3  5967 TIP3 H2   HT     0.417000        1.0080           0
   57871 WT3  5968 TIP3 OH2  OT    -0.834000       15.9994           0
   57872 WT3  5968 TIP3 H1   HT     0.417000        1.0080           0
   57873 WT3  5968 TIP3 H2   HT     0.417000        1.0080           0
   57874 WT3  5971 TIP3 OH2  OT    -0.834000       15.9994           0
   57875 WT3  5971 TIP3 H1   HT     0.417000        1.0080           0
   57876 WT3  5971 TIP3 H2   HT     0.417000        1.0080           0
   57877 WT3  5972 TIP3 OH2  OT    -0.834000       15.9994           0
   57878 WT3  5972 TIP3 H1   HT     0.417000        1.0080           0
   57879 WT3  5972 TIP3 H2   HT     0.417000        1.0080           0
   57880 WT3  5973 TIP3 OH2  OT    -0.834000       15.9994           0
   57881 WT3  5973 TIP3 H1   HT     0.417000        1.0080           0
   57882 WT3  5973 TIP3 H2   HT     0.417000        1.0080           0
   57883 WT3  5974 TIP3 OH2  OT    -0.834000       15.9994           0
   57884 WT3  5974 TIP3 H1   HT     0.417000        1.0080           0
   57885 WT3  5974 TIP3 H2   HT     0.417000        1.0080           0
   57886 WT3  5975 TIP3 OH2  OT    -0.834000       15.9994           0
   57887 WT3  5975 TIP3 H1   HT     0.417000        1.0080           0
   57888 WT3  5975 TIP3 H2   HT     0.417000        1.0080           0
   57889 WT3  5976 TIP3 OH2  OT    -0.834000       15.9994           0
   57890 WT3  5976 TIP3 H1   HT     0.417000        1.0080           0
   57891 WT3  5976 TIP3 H2   HT     0.417000        1.0080           0
   57892 WT3  5977 TIP3 OH2  OT    -0.834000       15.9994           0
   57893 WT3  5977 TIP3 H1   HT     0.417000        1.0080           0
   57894 WT3  5977 TIP3 H2   HT     0.417000        1.0080           0
   57895 WT3  5978 TIP3 OH2  OT    -0.834000       15.9994           0
   57896 WT3  5978 TIP3 H1   HT     0.417000        1.0080           0
   57897 WT3  5978 TIP3 H2   HT     0.417000        1.0080           0
   57898 WT3  5981 TIP3 OH2  OT    -0.834000       15.9994           0
   57899 WT3  5981 TIP3 H1   HT     0.417000        1.0080           0
   57900 WT3  5981 TIP3 H2   HT     0.417000        1.0080           0
   57901 WT3  5983 TIP3 OH2  OT    -0.834000       15.9994           0
   57902 WT3  5983 TIP3 H1   HT     0.417000        1.0080           0
   57903 WT3  5983 TIP3 H2   HT     0.417000        1.0080           0
   57904 WT3  5984 TIP3 OH2  OT    -0.834000       15.9994           0
   57905 WT3  5984 TIP3 H1   HT     0.417000        1.0080           0
   57906 WT3  5984 TIP3 H2   HT     0.417000        1.0080           0
   57907 WT3  5985 TIP3 OH2  OT    -0.834000       15.9994           0
   57908 WT3  5985 TIP3 H1   HT     0.417000        1.0080           0
   57909 WT3  5985 TIP3 H2   HT     0.417000        1.0080           0
   57910 WT3  5986 TIP3 OH2  OT    -0.834000       15.9994           0
   57911 WT3  5986 TIP3 H1   HT     0.417000        1.0080           0
   57912 WT3  5986 TIP3 H2   HT     0.417000        1.0080           0
   57913 WT3  5988 TIP3 OH2  OT    -0.834000       15.9994           0
   57914 WT3  5988 TIP3 H1   HT     0.417000        1.0080           0
   57915 WT3  5988 TIP3 H2   HT     0.417000        1.0080           0
   57916 WT3  5989 TIP3 OH2  OT    -0.834000       15.9994           0
   57917 WT3  5989 TIP3 H1   HT     0.417000        1.0080           0
   57918 WT3  5989 TIP3 H2   HT     0.417000        1.0080           0
   57919 WT3  5992 TIP3 OH2  OT    -0.834000       15.9994           0
   57920 WT3  5992 TIP3 H1   HT     0.417000        1.0080           0
   57921 WT3  5992 TIP3 H2   HT     0.417000        1.0080           0
   57922 WT3  5993 TIP3 OH2  OT    -0.834000       15.9994           0
   57923 WT3  5993 TIP3 H1   HT     0.417000        1.0080           0
   57924 WT3  5993 TIP3 H2   HT     0.417000        1.0080           0
   57925 WT3  5994 TIP3 OH2  OT    -0.834000       15.9994           0
   57926 WT3  5994 TIP3 H1   HT     0.417000        1.0080           0
   57927 WT3  5994 TIP3 H2   HT     0.417000        1.0080           0
   57928 WT3  5996 TIP3 OH2  OT    -0.834000       15.9994           0
   57929 WT3  5996 TIP3 H1   HT     0.417000        1.0080           0
   57930 WT3  5996 TIP3 H2   HT     0.417000        1.0080           0
   57931 WT3  5997 TIP3 OH2  OT    -0.834000       15.9994           0
   57932 WT3  5997 TIP3 H1   HT     0.417000        1.0080           0
   57933 WT3  5997 TIP3 H2   HT     0.417000        1.0080           0
   57934 WT3  6000 TIP3 OH2  OT    -0.834000       15.9994           0
   57935 WT3  6000 TIP3 H1   HT     0.417000        1.0080           0
   57936 WT3  6000 TIP3 H2   HT     0.417000        1.0080           0
   57937 WT3  6001 TIP3 OH2  OT    -0.834000       15.9994           0
   57938 WT3  6001 TIP3 H1   HT     0.417000        1.0080           0
   57939 WT3  6001 TIP3 H2   HT     0.417000        1.0080           0
   57940 WT3  6004 TIP3 OH2  OT    -0.834000       15.9994           0
   57941 WT3  6004 TIP3 H1   HT     0.417000        1.0080           0
   57942 WT3  6004 TIP3 H2   HT     0.417000        1.0080           0
   57943 WT3  6005 TIP3 OH2  OT    -0.834000       15.9994           0
   57944 WT3  6005 TIP3 H1   HT     0.417000        1.0080           0
   57945 WT3  6005 TIP3 H2   HT     0.417000        1.0080           0
   57946 WT3  6006 TIP3 OH2  OT    -0.834000       15.9994           0
   57947 WT3  6006 TIP3 H1   HT     0.417000        1.0080           0
   57948 WT3  6006 TIP3 H2   HT     0.417000        1.0080           0
   57949 WT3  6008 TIP3 OH2  OT    -0.834000       15.9994           0
   57950 WT3  6008 TIP3 H1   HT     0.417000        1.0080           0
   57951 WT3  6008 TIP3 H2   HT     0.417000        1.0080           0
   57952 WT3  6010 TIP3 OH2  OT    -0.834000       15.9994           0
   57953 WT3  6010 TIP3 H1   HT     0.417000        1.0080           0
   57954 WT3  6010 TIP3 H2   HT     0.417000        1.0080           0
   57955 WT3  6012 TIP3 OH2  OT    -0.834000       15.9994           0
   57956 WT3  6012 TIP3 H1   HT     0.417000        1.0080           0
   57957 WT3  6012 TIP3 H2   HT     0.417000        1.0080           0
   57958 WT3  6016 TIP3 OH2  OT    -0.834000       15.9994           0
   57959 WT3  6016 TIP3 H1   HT     0.417000        1.0080           0
   57960 WT3  6016 TIP3 H2   HT     0.417000        1.0080           0
   57961 WT3  6017 TIP3 OH2  OT    -0.834000       15.9994           0
   57962 WT3  6017 TIP3 H1   HT     0.417000        1.0080           0
   57963 WT3  6017 TIP3 H2   HT     0.417000        1.0080           0
   57964 WT3  6019 TIP3 OH2  OT    -0.834000       15.9994           0
   57965 WT3  6019 TIP3 H1   HT     0.417000        1.0080           0
   57966 WT3  6019 TIP3 H2   HT     0.417000        1.0080           0
   57967 WT3  6021 TIP3 OH2  OT    -0.834000       15.9994           0
   57968 WT3  6021 TIP3 H1   HT     0.417000        1.0080           0
   57969 WT3  6021 TIP3 H2   HT     0.417000        1.0080           0
   57970 WT3  6036 TIP3 OH2  OT    -0.834000       15.9994           0
   57971 WT3  6036 TIP3 H1   HT     0.417000        1.0080           0
   57972 WT3  6036 TIP3 H2   HT     0.417000        1.0080           0
   57973 WT3  6038 TIP3 OH2  OT    -0.834000       15.9994           0
   57974 WT3  6038 TIP3 H1   HT     0.417000        1.0080           0
   57975 WT3  6038 TIP3 H2   HT     0.417000        1.0080           0
   57976 WT3  6039 TIP3 OH2  OT    -0.834000       15.9994           0
   57977 WT3  6039 TIP3 H1   HT     0.417000        1.0080           0
   57978 WT3  6039 TIP3 H2   HT     0.417000        1.0080           0
   57979 WT3  6042 TIP3 OH2  OT    -0.834000       15.9994           0
   57980 WT3  6042 TIP3 H1   HT     0.417000        1.0080           0
   57981 WT3  6042 TIP3 H2   HT     0.417000        1.0080           0
   57982 WT3  6046 TIP3 OH2  OT    -0.834000       15.9994           0
   57983 WT3  6046 TIP3 H1   HT     0.417000        1.0080           0
   57984 WT3  6046 TIP3 H2   HT     0.417000        1.0080           0
   57985 WT3  6048 TIP3 OH2  OT    -0.834000       15.9994           0
   57986 WT3  6048 TIP3 H1   HT     0.417000        1.0080           0
   57987 WT3  6048 TIP3 H2   HT     0.417000        1.0080           0
   57988 WT3  6057 TIP3 OH2  OT    -0.834000       15.9994           0
   57989 WT3  6057 TIP3 H1   HT     0.417000        1.0080           0
   57990 WT3  6057 TIP3 H2   HT     0.417000        1.0080           0
   57991 WT3  6060 TIP3 OH2  OT    -0.834000       15.9994           0
   57992 WT3  6060 TIP3 H1   HT     0.417000        1.0080           0
   57993 WT3  6060 TIP3 H2   HT     0.417000        1.0080           0
   57994 WT3  6061 TIP3 OH2  OT    -0.834000       15.9994           0
   57995 WT3  6061 TIP3 H1   HT     0.417000        1.0080           0
   57996 WT3  6061 TIP3 H2   HT     0.417000        1.0080           0
   57997 WT3  6080 TIP3 OH2  OT    -0.834000       15.9994           0
   57998 WT3  6080 TIP3 H1   HT     0.417000        1.0080           0
   57999 WT3  6080 TIP3 H2   HT     0.417000        1.0080           0
   58000 WT3  6090 TIP3 OH2  OT    -0.834000       15.9994           0
   58001 WT3  6090 TIP3 H1   HT     0.417000        1.0080           0
   58002 WT3  6090 TIP3 H2   HT     0.417000        1.0080           0
   58003 WT3  6091 TIP3 OH2  OT    -0.834000       15.9994           0
   58004 WT3  6091 TIP3 H1   HT     0.417000        1.0080           0
   58005 WT3  6091 TIP3 H2   HT     0.417000        1.0080           0
   58006 WT3  6096 TIP3 OH2  OT    -0.834000       15.9994           0
   58007 WT3  6096 TIP3 H1   HT     0.417000        1.0080           0
   58008 WT3  6096 TIP3 H2   HT     0.417000        1.0080           0
   58009 WT3  6107 TIP3 OH2  OT    -0.834000       15.9994           0
   58010 WT3  6107 TIP3 H1   HT     0.417000        1.0080           0
   58011 WT3  6107 TIP3 H2   HT     0.417000        1.0080           0
   58012 WT3  6110 TIP3 OH2  OT    -0.834000       15.9994           0
   58013 WT3  6110 TIP3 H1   HT     0.417000        1.0080           0
   58014 WT3  6110 TIP3 H2   HT     0.417000        1.0080           0
   58015 WT3  6117 TIP3 OH2  OT    -0.834000       15.9994           0
   58016 WT3  6117 TIP3 H1   HT     0.417000        1.0080           0
   58017 WT3  6117 TIP3 H2   HT     0.417000        1.0080           0
   58018 WT3  6122 TIP3 OH2  OT    -0.834000       15.9994           0
   58019 WT3  6122 TIP3 H1   HT     0.417000        1.0080           0
   58020 WT3  6122 TIP3 H2   HT     0.417000        1.0080           0
   58021 WT3  6124 TIP3 OH2  OT    -0.834000       15.9994           0
   58022 WT3  6124 TIP3 H1   HT     0.417000        1.0080           0
   58023 WT3  6124 TIP3 H2   HT     0.417000        1.0080           0
   58024 WT3  6125 TIP3 OH2  OT    -0.834000       15.9994           0
   58025 WT3  6125 TIP3 H1   HT     0.417000        1.0080           0
   58026 WT3  6125 TIP3 H2   HT     0.417000        1.0080           0
   58027 WT3  6126 TIP3 OH2  OT    -0.834000       15.9994           0
   58028 WT3  6126 TIP3 H1   HT     0.417000        1.0080           0
   58029 WT3  6126 TIP3 H2   HT     0.417000        1.0080           0
   58030 WT3  6131 TIP3 OH2  OT    -0.834000       15.9994           0
   58031 WT3  6131 TIP3 H1   HT     0.417000        1.0080           0
   58032 WT3  6131 TIP3 H2   HT     0.417000        1.0080           0
   58033 WT3  6134 TIP3 OH2  OT    -0.834000       15.9994           0
   58034 WT3  6134 TIP3 H1   HT     0.417000        1.0080           0
   58035 WT3  6134 TIP3 H2   HT     0.417000        1.0080           0
   58036 WT3  6136 TIP3 OH2  OT    -0.834000       15.9994           0
   58037 WT3  6136 TIP3 H1   HT     0.417000        1.0080           0
   58038 WT3  6136 TIP3 H2   HT     0.417000        1.0080           0
   58039 WT3  6138 TIP3 OH2  OT    -0.834000       15.9994           0
   58040 WT3  6138 TIP3 H1   HT     0.417000        1.0080           0
   58041 WT3  6138 TIP3 H2   HT     0.417000        1.0080           0
   58042 WT3  6139 TIP3 OH2  OT    -0.834000       15.9994           0
   58043 WT3  6139 TIP3 H1   HT     0.417000        1.0080           0
   58044 WT3  6139 TIP3 H2   HT     0.417000        1.0080           0
   58045 WT3  6146 TIP3 OH2  OT    -0.834000       15.9994           0
   58046 WT3  6146 TIP3 H1   HT     0.417000        1.0080           0
   58047 WT3  6146 TIP3 H2   HT     0.417000        1.0080           0
   58048 WT3  6147 TIP3 OH2  OT    -0.834000       15.9994           0
   58049 WT3  6147 TIP3 H1   HT     0.417000        1.0080           0
   58050 WT3  6147 TIP3 H2   HT     0.417000        1.0080           0
   58051 WT3  6157 TIP3 OH2  OT    -0.834000       15.9994           0
   58052 WT3  6157 TIP3 H1   HT     0.417000        1.0080           0
   58053 WT3  6157 TIP3 H2   HT     0.417000        1.0080           0
   58054 WT3  6158 TIP3 OH2  OT    -0.834000       15.9994           0
   58055 WT3  6158 TIP3 H1   HT     0.417000        1.0080           0
   58056 WT3  6158 TIP3 H2   HT     0.417000        1.0080           0
   58057 WT3  6163 TIP3 OH2  OT    -0.834000       15.9994           0
   58058 WT3  6163 TIP3 H1   HT     0.417000        1.0080           0
   58059 WT3  6163 TIP3 H2   HT     0.417000        1.0080           0
   58060 WT3  6166 TIP3 OH2  OT    -0.834000       15.9994           0
   58061 WT3  6166 TIP3 H1   HT     0.417000        1.0080           0
   58062 WT3  6166 TIP3 H2   HT     0.417000        1.0080           0
   58063 WT3  6172 TIP3 OH2  OT    -0.834000       15.9994           0
   58064 WT3  6172 TIP3 H1   HT     0.417000        1.0080           0
   58065 WT3  6172 TIP3 H2   HT     0.417000        1.0080           0
   58066 WT3  6173 TIP3 OH2  OT    -0.834000       15.9994           0
   58067 WT3  6173 TIP3 H1   HT     0.417000        1.0080           0
   58068 WT3  6173 TIP3 H2   HT     0.417000        1.0080           0
   58069 WT3  6174 TIP3 OH2  OT    -0.834000       15.9994           0
   58070 WT3  6174 TIP3 H1   HT     0.417000        1.0080           0
   58071 WT3  6174 TIP3 H2   HT     0.417000        1.0080           0
   58072 WT3  6176 TIP3 OH2  OT    -0.834000       15.9994           0
   58073 WT3  6176 TIP3 H1   HT     0.417000        1.0080           0
   58074 WT3  6176 TIP3 H2   HT     0.417000        1.0080           0
   58075 WT3  6177 TIP3 OH2  OT    -0.834000       15.9994           0
   58076 WT3  6177 TIP3 H1   HT     0.417000        1.0080           0
   58077 WT3  6177 TIP3 H2   HT     0.417000        1.0080           0
   58078 WT3  6178 TIP3 OH2  OT    -0.834000       15.9994           0
   58079 WT3  6178 TIP3 H1   HT     0.417000        1.0080           0
   58080 WT3  6178 TIP3 H2   HT     0.417000        1.0080           0
   58081 WT3  6179 TIP3 OH2  OT    -0.834000       15.9994           0
   58082 WT3  6179 TIP3 H1   HT     0.417000        1.0080           0
   58083 WT3  6179 TIP3 H2   HT     0.417000        1.0080           0
   58084 WT3  6180 TIP3 OH2  OT    -0.834000       15.9994           0
   58085 WT3  6180 TIP3 H1   HT     0.417000        1.0080           0
   58086 WT3  6180 TIP3 H2   HT     0.417000        1.0080           0
   58087 WT3  6181 TIP3 OH2  OT    -0.834000       15.9994           0
   58088 WT3  6181 TIP3 H1   HT     0.417000        1.0080           0
   58089 WT3  6181 TIP3 H2   HT     0.417000        1.0080           0
   58090 WT3  6183 TIP3 OH2  OT    -0.834000       15.9994           0
   58091 WT3  6183 TIP3 H1   HT     0.417000        1.0080           0
   58092 WT3  6183 TIP3 H2   HT     0.417000        1.0080           0
   58093 WT3  6184 TIP3 OH2  OT    -0.834000       15.9994           0
   58094 WT3  6184 TIP3 H1   HT     0.417000        1.0080           0
   58095 WT3  6184 TIP3 H2   HT     0.417000        1.0080           0
   58096 WT3  6187 TIP3 OH2  OT    -0.834000       15.9994           0
   58097 WT3  6187 TIP3 H1   HT     0.417000        1.0080           0
   58098 WT3  6187 TIP3 H2   HT     0.417000        1.0080           0
   58099 WT3  6188 TIP3 OH2  OT    -0.834000       15.9994           0
   58100 WT3  6188 TIP3 H1   HT     0.417000        1.0080           0
   58101 WT3  6188 TIP3 H2   HT     0.417000        1.0080           0
   58102 WT3  6192 TIP3 OH2  OT    -0.834000       15.9994           0
   58103 WT3  6192 TIP3 H1   HT     0.417000        1.0080           0
   58104 WT3  6192 TIP3 H2   HT     0.417000        1.0080           0
   58105 WT3  6193 TIP3 OH2  OT    -0.834000       15.9994           0
   58106 WT3  6193 TIP3 H1   HT     0.417000        1.0080           0
   58107 WT3  6193 TIP3 H2   HT     0.417000        1.0080           0
   58108 WT3  6194 TIP3 OH2  OT    -0.834000       15.9994           0
   58109 WT3  6194 TIP3 H1   HT     0.417000        1.0080           0
   58110 WT3  6194 TIP3 H2   HT     0.417000        1.0080           0
   58111 WT3  6195 TIP3 OH2  OT    -0.834000       15.9994           0
   58112 WT3  6195 TIP3 H1   HT     0.417000        1.0080           0
   58113 WT3  6195 TIP3 H2   HT     0.417000        1.0080           0
   58114 WT3  6198 TIP3 OH2  OT    -0.834000       15.9994           0
   58115 WT3  6198 TIP3 H1   HT     0.417000        1.0080           0
   58116 WT3  6198 TIP3 H2   HT     0.417000        1.0080           0
   58117 WT3  6199 TIP3 OH2  OT    -0.834000       15.9994           0
   58118 WT3  6199 TIP3 H1   HT     0.417000        1.0080           0
   58119 WT3  6199 TIP3 H2   HT     0.417000        1.0080           0
   58120 WT3  6200 TIP3 OH2  OT    -0.834000       15.9994           0
   58121 WT3  6200 TIP3 H1   HT     0.417000        1.0080           0
   58122 WT3  6200 TIP3 H2   HT     0.417000        1.0080           0
   58123 WT3  6202 TIP3 OH2  OT    -0.834000       15.9994           0
   58124 WT3  6202 TIP3 H1   HT     0.417000        1.0080           0
   58125 WT3  6202 TIP3 H2   HT     0.417000        1.0080           0
   58126 WT3  6203 TIP3 OH2  OT    -0.834000       15.9994           0
   58127 WT3  6203 TIP3 H1   HT     0.417000        1.0080           0
   58128 WT3  6203 TIP3 H2   HT     0.417000        1.0080           0
   58129 WT3  6204 TIP3 OH2  OT    -0.834000       15.9994           0
   58130 WT3  6204 TIP3 H1   HT     0.417000        1.0080           0
   58131 WT3  6204 TIP3 H2   HT     0.417000        1.0080           0
   58132 WT3  6205 TIP3 OH2  OT    -0.834000       15.9994           0
   58133 WT3  6205 TIP3 H1   HT     0.417000        1.0080           0
   58134 WT3  6205 TIP3 H2   HT     0.417000        1.0080           0
   58135 WT3  6207 TIP3 OH2  OT    -0.834000       15.9994           0
   58136 WT3  6207 TIP3 H1   HT     0.417000        1.0080           0
   58137 WT3  6207 TIP3 H2   HT     0.417000        1.0080           0
   58138 WT3  6208 TIP3 OH2  OT    -0.834000       15.9994           0
   58139 WT3  6208 TIP3 H1   HT     0.417000        1.0080           0
   58140 WT3  6208 TIP3 H2   HT     0.417000        1.0080           0
   58141 WT3  6212 TIP3 OH2  OT    -0.834000       15.9994           0
   58142 WT3  6212 TIP3 H1   HT     0.417000        1.0080           0
   58143 WT3  6212 TIP3 H2   HT     0.417000        1.0080           0
   58144 WT3  6214 TIP3 OH2  OT    -0.834000       15.9994           0
   58145 WT3  6214 TIP3 H1   HT     0.417000        1.0080           0
   58146 WT3  6214 TIP3 H2   HT     0.417000        1.0080           0
   58147 WT3  6215 TIP3 OH2  OT    -0.834000       15.9994           0
   58148 WT3  6215 TIP3 H1   HT     0.417000        1.0080           0
   58149 WT3  6215 TIP3 H2   HT     0.417000        1.0080           0
   58150 WT3  6216 TIP3 OH2  OT    -0.834000       15.9994           0
   58151 WT3  6216 TIP3 H1   HT     0.417000        1.0080           0
   58152 WT3  6216 TIP3 H2   HT     0.417000        1.0080           0
   58153 WT3  6217 TIP3 OH2  OT    -0.834000       15.9994           0
   58154 WT3  6217 TIP3 H1   HT     0.417000        1.0080           0
   58155 WT3  6217 TIP3 H2   HT     0.417000        1.0080           0
   58156 WT3  6218 TIP3 OH2  OT    -0.834000       15.9994           0
   58157 WT3  6218 TIP3 H1   HT     0.417000        1.0080           0
   58158 WT3  6218 TIP3 H2   HT     0.417000        1.0080           0
   58159 WT3  6219 TIP3 OH2  OT    -0.834000       15.9994           0
   58160 WT3  6219 TIP3 H1   HT     0.417000        1.0080           0
   58161 WT3  6219 TIP3 H2   HT     0.417000        1.0080           0
   58162 WT3  6220 TIP3 OH2  OT    -0.834000       15.9994           0
   58163 WT3  6220 TIP3 H1   HT     0.417000        1.0080           0
   58164 WT3  6220 TIP3 H2   HT     0.417000        1.0080           0
   58165 WT3  6221 TIP3 OH2  OT    -0.834000       15.9994           0
   58166 WT3  6221 TIP3 H1   HT     0.417000        1.0080           0
   58167 WT3  6221 TIP3 H2   HT     0.417000        1.0080           0
   58168 WT3  6224 TIP3 OH2  OT    -0.834000       15.9994           0
   58169 WT3  6224 TIP3 H1   HT     0.417000        1.0080           0
   58170 WT3  6224 TIP3 H2   HT     0.417000        1.0080           0
   58171 WT3  6225 TIP3 OH2  OT    -0.834000       15.9994           0
   58172 WT3  6225 TIP3 H1   HT     0.417000        1.0080           0
   58173 WT3  6225 TIP3 H2   HT     0.417000        1.0080           0
   58174 WT3  6227 TIP3 OH2  OT    -0.834000       15.9994           0
   58175 WT3  6227 TIP3 H1   HT     0.417000        1.0080           0
   58176 WT3  6227 TIP3 H2   HT     0.417000        1.0080           0
   58177 WT3  6228 TIP3 OH2  OT    -0.834000       15.9994           0
   58178 WT3  6228 TIP3 H1   HT     0.417000        1.0080           0
   58179 WT3  6228 TIP3 H2   HT     0.417000        1.0080           0
   58180 WT3  6229 TIP3 OH2  OT    -0.834000       15.9994           0
   58181 WT3  6229 TIP3 H1   HT     0.417000        1.0080           0
   58182 WT3  6229 TIP3 H2   HT     0.417000        1.0080           0
   58183 WT3  6230 TIP3 OH2  OT    -0.834000       15.9994           0
   58184 WT3  6230 TIP3 H1   HT     0.417000        1.0080           0
   58185 WT3  6230 TIP3 H2   HT     0.417000        1.0080           0
   58186 WT3  6231 TIP3 OH2  OT    -0.834000       15.9994           0
   58187 WT3  6231 TIP3 H1   HT     0.417000        1.0080           0
   58188 WT3  6231 TIP3 H2   HT     0.417000        1.0080           0
   58189 WT3  6233 TIP3 OH2  OT    -0.834000       15.9994           0
   58190 WT3  6233 TIP3 H1   HT     0.417000        1.0080           0
   58191 WT3  6233 TIP3 H2   HT     0.417000        1.0080           0
   58192 WT3  6236 TIP3 OH2  OT    -0.834000       15.9994           0
   58193 WT3  6236 TIP3 H1   HT     0.417000        1.0080           0
   58194 WT3  6236 TIP3 H2   HT     0.417000        1.0080           0
   58195 WT3  6237 TIP3 OH2  OT    -0.834000       15.9994           0
   58196 WT3  6237 TIP3 H1   HT     0.417000        1.0080           0
   58197 WT3  6237 TIP3 H2   HT     0.417000        1.0080           0
   58198 WT3  6238 TIP3 OH2  OT    -0.834000       15.9994           0
   58199 WT3  6238 TIP3 H1   HT     0.417000        1.0080           0
   58200 WT3  6238 TIP3 H2   HT     0.417000        1.0080           0
   58201 WT3  6240 TIP3 OH2  OT    -0.834000       15.9994           0
   58202 WT3  6240 TIP3 H1   HT     0.417000        1.0080           0
   58203 WT3  6240 TIP3 H2   HT     0.417000        1.0080           0
   58204 WT3  6241 TIP3 OH2  OT    -0.834000       15.9994           0
   58205 WT3  6241 TIP3 H1   HT     0.417000        1.0080           0
   58206 WT3  6241 TIP3 H2   HT     0.417000        1.0080           0
   58207 WT3  6242 TIP3 OH2  OT    -0.834000       15.9994           0
   58208 WT3  6242 TIP3 H1   HT     0.417000        1.0080           0
   58209 WT3  6242 TIP3 H2   HT     0.417000        1.0080           0
   58210 WT3  6243 TIP3 OH2  OT    -0.834000       15.9994           0
   58211 WT3  6243 TIP3 H1   HT     0.417000        1.0080           0
   58212 WT3  6243 TIP3 H2   HT     0.417000        1.0080           0
   58213 WT3  6245 TIP3 OH2  OT    -0.834000       15.9994           0
   58214 WT3  6245 TIP3 H1   HT     0.417000        1.0080           0
   58215 WT3  6245 TIP3 H2   HT     0.417000        1.0080           0
   58216 WT3  6246 TIP3 OH2  OT    -0.834000       15.9994           0
   58217 WT3  6246 TIP3 H1   HT     0.417000        1.0080           0
   58218 WT3  6246 TIP3 H2   HT     0.417000        1.0080           0
   58219 WT3  6247 TIP3 OH2  OT    -0.834000       15.9994           0
   58220 WT3  6247 TIP3 H1   HT     0.417000        1.0080           0
   58221 WT3  6247 TIP3 H2   HT     0.417000        1.0080           0
   58222 WT3  6248 TIP3 OH2  OT    -0.834000       15.9994           0
   58223 WT3  6248 TIP3 H1   HT     0.417000        1.0080           0
   58224 WT3  6248 TIP3 H2   HT     0.417000        1.0080           0
   58225 WT3  6249 TIP3 OH2  OT    -0.834000       15.9994           0
   58226 WT3  6249 TIP3 H1   HT     0.417000        1.0080           0
   58227 WT3  6249 TIP3 H2   HT     0.417000        1.0080           0
   58228 WT3  6251 TIP3 OH2  OT    -0.834000       15.9994           0
   58229 WT3  6251 TIP3 H1   HT     0.417000        1.0080           0
   58230 WT3  6251 TIP3 H2   HT     0.417000        1.0080           0
   58231 WT3  6252 TIP3 OH2  OT    -0.834000       15.9994           0
   58232 WT3  6252 TIP3 H1   HT     0.417000        1.0080           0
   58233 WT3  6252 TIP3 H2   HT     0.417000        1.0080           0
   58234 WT3  6253 TIP3 OH2  OT    -0.834000       15.9994           0
   58235 WT3  6253 TIP3 H1   HT     0.417000        1.0080           0
   58236 WT3  6253 TIP3 H2   HT     0.417000        1.0080           0
   58237 WT3  6254 TIP3 OH2  OT    -0.834000       15.9994           0
   58238 WT3  6254 TIP3 H1   HT     0.417000        1.0080           0
   58239 WT3  6254 TIP3 H2   HT     0.417000        1.0080           0
   58240 WT3  6256 TIP3 OH2  OT    -0.834000       15.9994           0
   58241 WT3  6256 TIP3 H1   HT     0.417000        1.0080           0
   58242 WT3  6256 TIP3 H2   HT     0.417000        1.0080           0
   58243 WT3  6257 TIP3 OH2  OT    -0.834000       15.9994           0
   58244 WT3  6257 TIP3 H1   HT     0.417000        1.0080           0
   58245 WT3  6257 TIP3 H2   HT     0.417000        1.0080           0
   58246 WT3  6258 TIP3 OH2  OT    -0.834000       15.9994           0
   58247 WT3  6258 TIP3 H1   HT     0.417000        1.0080           0
   58248 WT3  6258 TIP3 H2   HT     0.417000        1.0080           0
   58249 WT3  6260 TIP3 OH2  OT    -0.834000       15.9994           0
   58250 WT3  6260 TIP3 H1   HT     0.417000        1.0080           0
   58251 WT3  6260 TIP3 H2   HT     0.417000        1.0080           0
   58252 WT3  6261 TIP3 OH2  OT    -0.834000       15.9994           0
   58253 WT3  6261 TIP3 H1   HT     0.417000        1.0080           0
   58254 WT3  6261 TIP3 H2   HT     0.417000        1.0080           0
   58255 WT3  6262 TIP3 OH2  OT    -0.834000       15.9994           0
   58256 WT3  6262 TIP3 H1   HT     0.417000        1.0080           0
   58257 WT3  6262 TIP3 H2   HT     0.417000        1.0080           0
   58258 WT3  6263 TIP3 OH2  OT    -0.834000       15.9994           0
   58259 WT3  6263 TIP3 H1   HT     0.417000        1.0080           0
   58260 WT3  6263 TIP3 H2   HT     0.417000        1.0080           0
   58261 WT3  6264 TIP3 OH2  OT    -0.834000       15.9994           0
   58262 WT3  6264 TIP3 H1   HT     0.417000        1.0080           0
   58263 WT3  6264 TIP3 H2   HT     0.417000        1.0080           0
   58264 WT3  6265 TIP3 OH2  OT    -0.834000       15.9994           0
   58265 WT3  6265 TIP3 H1   HT     0.417000        1.0080           0
   58266 WT3  6265 TIP3 H2   HT     0.417000        1.0080           0
   58267 WT3  6266 TIP3 OH2  OT    -0.834000       15.9994           0
   58268 WT3  6266 TIP3 H1   HT     0.417000        1.0080           0
   58269 WT3  6266 TIP3 H2   HT     0.417000        1.0080           0
   58270 WT3  6267 TIP3 OH2  OT    -0.834000       15.9994           0
   58271 WT3  6267 TIP3 H1   HT     0.417000        1.0080           0
   58272 WT3  6267 TIP3 H2   HT     0.417000        1.0080           0
   58273 WT3  6268 TIP3 OH2  OT    -0.834000       15.9994           0
   58274 WT3  6268 TIP3 H1   HT     0.417000        1.0080           0
   58275 WT3  6268 TIP3 H2   HT     0.417000        1.0080           0
   58276 WT3  6269 TIP3 OH2  OT    -0.834000       15.9994           0
   58277 WT3  6269 TIP3 H1   HT     0.417000        1.0080           0
   58278 WT3  6269 TIP3 H2   HT     0.417000        1.0080           0
   58279 WT3  6270 TIP3 OH2  OT    -0.834000       15.9994           0
   58280 WT3  6270 TIP3 H1   HT     0.417000        1.0080           0
   58281 WT3  6270 TIP3 H2   HT     0.417000        1.0080           0
   58282 WT3  6271 TIP3 OH2  OT    -0.834000       15.9994           0
   58283 WT3  6271 TIP3 H1   HT     0.417000        1.0080           0
   58284 WT3  6271 TIP3 H2   HT     0.417000        1.0080           0
   58285 WT3  6272 TIP3 OH2  OT    -0.834000       15.9994           0
   58286 WT3  6272 TIP3 H1   HT     0.417000        1.0080           0
   58287 WT3  6272 TIP3 H2   HT     0.417000        1.0080           0
   58288 WT3  6273 TIP3 OH2  OT    -0.834000       15.9994           0
   58289 WT3  6273 TIP3 H1   HT     0.417000        1.0080           0
   58290 WT3  6273 TIP3 H2   HT     0.417000        1.0080           0
   58291 WT3  6274 TIP3 OH2  OT    -0.834000       15.9994           0
   58292 WT3  6274 TIP3 H1   HT     0.417000        1.0080           0
   58293 WT3  6274 TIP3 H2   HT     0.417000        1.0080           0
   58294 WT3  6275 TIP3 OH2  OT    -0.834000       15.9994           0
   58295 WT3  6275 TIP3 H1   HT     0.417000        1.0080           0
   58296 WT3  6275 TIP3 H2   HT     0.417000        1.0080           0
   58297 WT3  6276 TIP3 OH2  OT    -0.834000       15.9994           0
   58298 WT3  6276 TIP3 H1   HT     0.417000        1.0080           0
   58299 WT3  6276 TIP3 H2   HT     0.417000        1.0080           0
   58300 WT3  6277 TIP3 OH2  OT    -0.834000       15.9994           0
   58301 WT3  6277 TIP3 H1   HT     0.417000        1.0080           0
   58302 WT3  6277 TIP3 H2   HT     0.417000        1.0080           0
   58303 WT3  6278 TIP3 OH2  OT    -0.834000       15.9994           0
   58304 WT3  6278 TIP3 H1   HT     0.417000        1.0080           0
   58305 WT3  6278 TIP3 H2   HT     0.417000        1.0080           0
   58306 WT3  6279 TIP3 OH2  OT    -0.834000       15.9994           0
   58307 WT3  6279 TIP3 H1   HT     0.417000        1.0080           0
   58308 WT3  6279 TIP3 H2   HT     0.417000        1.0080           0
   58309 WT3  6281 TIP3 OH2  OT    -0.834000       15.9994           0
   58310 WT3  6281 TIP3 H1   HT     0.417000        1.0080           0
   58311 WT3  6281 TIP3 H2   HT     0.417000        1.0080           0
   58312 WT3  6282 TIP3 OH2  OT    -0.834000       15.9994           0
   58313 WT3  6282 TIP3 H1   HT     0.417000        1.0080           0
   58314 WT3  6282 TIP3 H2   HT     0.417000        1.0080           0
   58315 WT3  6283 TIP3 OH2  OT    -0.834000       15.9994           0
   58316 WT3  6283 TIP3 H1   HT     0.417000        1.0080           0
   58317 WT3  6283 TIP3 H2   HT     0.417000        1.0080           0
   58318 WT3  6284 TIP3 OH2  OT    -0.834000       15.9994           0
   58319 WT3  6284 TIP3 H1   HT     0.417000        1.0080           0
   58320 WT3  6284 TIP3 H2   HT     0.417000        1.0080           0
   58321 WT3  6285 TIP3 OH2  OT    -0.834000       15.9994           0
   58322 WT3  6285 TIP3 H1   HT     0.417000        1.0080           0
   58323 WT3  6285 TIP3 H2   HT     0.417000        1.0080           0
   58324 WT3  6286 TIP3 OH2  OT    -0.834000       15.9994           0
   58325 WT3  6286 TIP3 H1   HT     0.417000        1.0080           0
   58326 WT3  6286 TIP3 H2   HT     0.417000        1.0080           0
   58327 WT3  6287 TIP3 OH2  OT    -0.834000       15.9994           0
   58328 WT3  6287 TIP3 H1   HT     0.417000        1.0080           0
   58329 WT3  6287 TIP3 H2   HT     0.417000        1.0080           0
   58330 WT3  6288 TIP3 OH2  OT    -0.834000       15.9994           0
   58331 WT3  6288 TIP3 H1   HT     0.417000        1.0080           0
   58332 WT3  6288 TIP3 H2   HT     0.417000        1.0080           0
   58333 WT3  6289 TIP3 OH2  OT    -0.834000       15.9994           0
   58334 WT3  6289 TIP3 H1   HT     0.417000        1.0080           0
   58335 WT3  6289 TIP3 H2   HT     0.417000        1.0080           0
   58336 WT3  6290 TIP3 OH2  OT    -0.834000       15.9994           0
   58337 WT3  6290 TIP3 H1   HT     0.417000        1.0080           0
   58338 WT3  6290 TIP3 H2   HT     0.417000        1.0080           0
   58339 WT3  6292 TIP3 OH2  OT    -0.834000       15.9994           0
   58340 WT3  6292 TIP3 H1   HT     0.417000        1.0080           0
   58341 WT3  6292 TIP3 H2   HT     0.417000        1.0080           0
   58342 WT3  6293 TIP3 OH2  OT    -0.834000       15.9994           0
   58343 WT3  6293 TIP3 H1   HT     0.417000        1.0080           0
   58344 WT3  6293 TIP3 H2   HT     0.417000        1.0080           0
   58345 WT3  6294 TIP3 OH2  OT    -0.834000       15.9994           0
   58346 WT3  6294 TIP3 H1   HT     0.417000        1.0080           0
   58347 WT3  6294 TIP3 H2   HT     0.417000        1.0080           0
   58348 WT3  6296 TIP3 OH2  OT    -0.834000       15.9994           0
   58349 WT3  6296 TIP3 H1   HT     0.417000        1.0080           0
   58350 WT3  6296 TIP3 H2   HT     0.417000        1.0080           0
   58351 WT3  6297 TIP3 OH2  OT    -0.834000       15.9994           0
   58352 WT3  6297 TIP3 H1   HT     0.417000        1.0080           0
   58353 WT3  6297 TIP3 H2   HT     0.417000        1.0080           0
   58354 WT3  6298 TIP3 OH2  OT    -0.834000       15.9994           0
   58355 WT3  6298 TIP3 H1   HT     0.417000        1.0080           0
   58356 WT3  6298 TIP3 H2   HT     0.417000        1.0080           0
   58357 WT3  6300 TIP3 OH2  OT    -0.834000       15.9994           0
   58358 WT3  6300 TIP3 H1   HT     0.417000        1.0080           0
   58359 WT3  6300 TIP3 H2   HT     0.417000        1.0080           0
   58360 WT3  6302 TIP3 OH2  OT    -0.834000       15.9994           0
   58361 WT3  6302 TIP3 H1   HT     0.417000        1.0080           0
   58362 WT3  6302 TIP3 H2   HT     0.417000        1.0080           0
   58363 WT3  6303 TIP3 OH2  OT    -0.834000       15.9994           0
   58364 WT3  6303 TIP3 H1   HT     0.417000        1.0080           0
   58365 WT3  6303 TIP3 H2   HT     0.417000        1.0080           0
   58366 WT3  6304 TIP3 OH2  OT    -0.834000       15.9994           0
   58367 WT3  6304 TIP3 H1   HT     0.417000        1.0080           0
   58368 WT3  6304 TIP3 H2   HT     0.417000        1.0080           0
   58369 WT3  6305 TIP3 OH2  OT    -0.834000       15.9994           0
   58370 WT3  6305 TIP3 H1   HT     0.417000        1.0080           0
   58371 WT3  6305 TIP3 H2   HT     0.417000        1.0080           0
   58372 WT3  6306 TIP3 OH2  OT    -0.834000       15.9994           0
   58373 WT3  6306 TIP3 H1   HT     0.417000        1.0080           0
   58374 WT3  6306 TIP3 H2   HT     0.417000        1.0080           0
   58375 WT3  6307 TIP3 OH2  OT    -0.834000       15.9994           0
   58376 WT3  6307 TIP3 H1   HT     0.417000        1.0080           0
   58377 WT3  6307 TIP3 H2   HT     0.417000        1.0080           0
   58378 WT3  6308 TIP3 OH2  OT    -0.834000       15.9994           0
   58379 WT3  6308 TIP3 H1   HT     0.417000        1.0080           0
   58380 WT3  6308 TIP3 H2   HT     0.417000        1.0080           0
   58381 WT3  6309 TIP3 OH2  OT    -0.834000       15.9994           0
   58382 WT3  6309 TIP3 H1   HT     0.417000        1.0080           0
   58383 WT3  6309 TIP3 H2   HT     0.417000        1.0080           0
   58384 WT3  6310 TIP3 OH2  OT    -0.834000       15.9994           0
   58385 WT3  6310 TIP3 H1   HT     0.417000        1.0080           0
   58386 WT3  6310 TIP3 H2   HT     0.417000        1.0080           0
   58387 WT3  6311 TIP3 OH2  OT    -0.834000       15.9994           0
   58388 WT3  6311 TIP3 H1   HT     0.417000        1.0080           0
   58389 WT3  6311 TIP3 H2   HT     0.417000        1.0080           0
   58390 WT3  6312 TIP3 OH2  OT    -0.834000       15.9994           0
   58391 WT3  6312 TIP3 H1   HT     0.417000        1.0080           0
   58392 WT3  6312 TIP3 H2   HT     0.417000        1.0080           0
   58393 WT3  6313 TIP3 OH2  OT    -0.834000       15.9994           0
   58394 WT3  6313 TIP3 H1   HT     0.417000        1.0080           0
   58395 WT3  6313 TIP3 H2   HT     0.417000        1.0080           0
   58396 WT3  6314 TIP3 OH2  OT    -0.834000       15.9994           0
   58397 WT3  6314 TIP3 H1   HT     0.417000        1.0080           0
   58398 WT3  6314 TIP3 H2   HT     0.417000        1.0080           0
   58399 WT3  6315 TIP3 OH2  OT    -0.834000       15.9994           0
   58400 WT3  6315 TIP3 H1   HT     0.417000        1.0080           0
   58401 WT3  6315 TIP3 H2   HT     0.417000        1.0080           0
   58402 WT3  6316 TIP3 OH2  OT    -0.834000       15.9994           0
   58403 WT3  6316 TIP3 H1   HT     0.417000        1.0080           0
   58404 WT3  6316 TIP3 H2   HT     0.417000        1.0080           0
   58405 WT3  6317 TIP3 OH2  OT    -0.834000       15.9994           0
   58406 WT3  6317 TIP3 H1   HT     0.417000        1.0080           0
   58407 WT3  6317 TIP3 H2   HT     0.417000        1.0080           0
   58408 WT3  6318 TIP3 OH2  OT    -0.834000       15.9994           0
   58409 WT3  6318 TIP3 H1   HT     0.417000        1.0080           0
   58410 WT3  6318 TIP3 H2   HT     0.417000        1.0080           0
   58411 WT3  6319 TIP3 OH2  OT    -0.834000       15.9994           0
   58412 WT3  6319 TIP3 H1   HT     0.417000        1.0080           0
   58413 WT3  6319 TIP3 H2   HT     0.417000        1.0080           0
   58414 WT3  6321 TIP3 OH2  OT    -0.834000       15.9994           0
   58415 WT3  6321 TIP3 H1   HT     0.417000        1.0080           0
   58416 WT3  6321 TIP3 H2   HT     0.417000        1.0080           0
   58417 WT3  6323 TIP3 OH2  OT    -0.834000       15.9994           0
   58418 WT3  6323 TIP3 H1   HT     0.417000        1.0080           0
   58419 WT3  6323 TIP3 H2   HT     0.417000        1.0080           0
   58420 WT3  6324 TIP3 OH2  OT    -0.834000       15.9994           0
   58421 WT3  6324 TIP3 H1   HT     0.417000        1.0080           0
   58422 WT3  6324 TIP3 H2   HT     0.417000        1.0080           0
   58423 WT3  6325 TIP3 OH2  OT    -0.834000       15.9994           0
   58424 WT3  6325 TIP3 H1   HT     0.417000        1.0080           0
   58425 WT3  6325 TIP3 H2   HT     0.417000        1.0080           0
   58426 WT3  6326 TIP3 OH2  OT    -0.834000       15.9994           0
   58427 WT3  6326 TIP3 H1   HT     0.417000        1.0080           0
   58428 WT3  6326 TIP3 H2   HT     0.417000        1.0080           0
   58429 WT3  6327 TIP3 OH2  OT    -0.834000       15.9994           0
   58430 WT3  6327 TIP3 H1   HT     0.417000        1.0080           0
   58431 WT3  6327 TIP3 H2   HT     0.417000        1.0080           0
   58432 WT3  6328 TIP3 OH2  OT    -0.834000       15.9994           0
   58433 WT3  6328 TIP3 H1   HT     0.417000        1.0080           0
   58434 WT3  6328 TIP3 H2   HT     0.417000        1.0080           0
   58435 WT3  6329 TIP3 OH2  OT    -0.834000       15.9994           0
   58436 WT3  6329 TIP3 H1   HT     0.417000        1.0080           0
   58437 WT3  6329 TIP3 H2   HT     0.417000        1.0080           0
   58438 WT3  6330 TIP3 OH2  OT    -0.834000       15.9994           0
   58439 WT3  6330 TIP3 H1   HT     0.417000        1.0080           0
   58440 WT3  6330 TIP3 H2   HT     0.417000        1.0080           0
   58441 WT3  6331 TIP3 OH2  OT    -0.834000       15.9994           0
   58442 WT3  6331 TIP3 H1   HT     0.417000        1.0080           0
   58443 WT3  6331 TIP3 H2   HT     0.417000        1.0080           0
   58444 WT3  6332 TIP3 OH2  OT    -0.834000       15.9994           0
   58445 WT3  6332 TIP3 H1   HT     0.417000        1.0080           0
   58446 WT3  6332 TIP3 H2   HT     0.417000        1.0080           0
   58447 WT3  6333 TIP3 OH2  OT    -0.834000       15.9994           0
   58448 WT3  6333 TIP3 H1   HT     0.417000        1.0080           0
   58449 WT3  6333 TIP3 H2   HT     0.417000        1.0080           0
   58450 WT3  6334 TIP3 OH2  OT    -0.834000       15.9994           0
   58451 WT3  6334 TIP3 H1   HT     0.417000        1.0080           0
   58452 WT3  6334 TIP3 H2   HT     0.417000        1.0080           0
   58453 WT3  6335 TIP3 OH2  OT    -0.834000       15.9994           0
   58454 WT3  6335 TIP3 H1   HT     0.417000        1.0080           0
   58455 WT3  6335 TIP3 H2   HT     0.417000        1.0080           0
   58456 WT3  6336 TIP3 OH2  OT    -0.834000       15.9994           0
   58457 WT3  6336 TIP3 H1   HT     0.417000        1.0080           0
   58458 WT3  6336 TIP3 H2   HT     0.417000        1.0080           0
   58459 WT3  6337 TIP3 OH2  OT    -0.834000       15.9994           0
   58460 WT3  6337 TIP3 H1   HT     0.417000        1.0080           0
   58461 WT3  6337 TIP3 H2   HT     0.417000        1.0080           0
   58462 WT3  6338 TIP3 OH2  OT    -0.834000       15.9994           0
   58463 WT3  6338 TIP3 H1   HT     0.417000        1.0080           0
   58464 WT3  6338 TIP3 H2   HT     0.417000        1.0080           0
   58465 WT3  6339 TIP3 OH2  OT    -0.834000       15.9994           0
   58466 WT3  6339 TIP3 H1   HT     0.417000        1.0080           0
   58467 WT3  6339 TIP3 H2   HT     0.417000        1.0080           0
   58468 WT3  6341 TIP3 OH2  OT    -0.834000       15.9994           0
   58469 WT3  6341 TIP3 H1   HT     0.417000        1.0080           0
   58470 WT3  6341 TIP3 H2   HT     0.417000        1.0080           0
   58471 WT3  6342 TIP3 OH2  OT    -0.834000       15.9994           0
   58472 WT3  6342 TIP3 H1   HT     0.417000        1.0080           0
   58473 WT3  6342 TIP3 H2   HT     0.417000        1.0080           0
   58474 WT3  6343 TIP3 OH2  OT    -0.834000       15.9994           0
   58475 WT3  6343 TIP3 H1   HT     0.417000        1.0080           0
   58476 WT3  6343 TIP3 H2   HT     0.417000        1.0080           0
   58477 WT3  6344 TIP3 OH2  OT    -0.834000       15.9994           0
   58478 WT3  6344 TIP3 H1   HT     0.417000        1.0080           0
   58479 WT3  6344 TIP3 H2   HT     0.417000        1.0080           0
   58480 WT3  6345 TIP3 OH2  OT    -0.834000       15.9994           0
   58481 WT3  6345 TIP3 H1   HT     0.417000        1.0080           0
   58482 WT3  6345 TIP3 H2   HT     0.417000        1.0080           0
   58483 WT3  6346 TIP3 OH2  OT    -0.834000       15.9994           0
   58484 WT3  6346 TIP3 H1   HT     0.417000        1.0080           0
   58485 WT3  6346 TIP3 H2   HT     0.417000        1.0080           0
   58486 WT3  6347 TIP3 OH2  OT    -0.834000       15.9994           0
   58487 WT3  6347 TIP3 H1   HT     0.417000        1.0080           0
   58488 WT3  6347 TIP3 H2   HT     0.417000        1.0080           0
   58489 WT3  6348 TIP3 OH2  OT    -0.834000       15.9994           0
   58490 WT3  6348 TIP3 H1   HT     0.417000        1.0080           0
   58491 WT3  6348 TIP3 H2   HT     0.417000        1.0080           0
   58492 WT3  6349 TIP3 OH2  OT    -0.834000       15.9994           0
   58493 WT3  6349 TIP3 H1   HT     0.417000        1.0080           0
   58494 WT3  6349 TIP3 H2   HT     0.417000        1.0080           0
   58495 WT3  6351 TIP3 OH2  OT    -0.834000       15.9994           0
   58496 WT3  6351 TIP3 H1   HT     0.417000        1.0080           0
   58497 WT3  6351 TIP3 H2   HT     0.417000        1.0080           0
   58498 WT3  6352 TIP3 OH2  OT    -0.834000       15.9994           0
   58499 WT3  6352 TIP3 H1   HT     0.417000        1.0080           0
   58500 WT3  6352 TIP3 H2   HT     0.417000        1.0080           0
   58501 WT3  6353 TIP3 OH2  OT    -0.834000       15.9994           0
   58502 WT3  6353 TIP3 H1   HT     0.417000        1.0080           0
   58503 WT3  6353 TIP3 H2   HT     0.417000        1.0080           0
   58504 WT3  6354 TIP3 OH2  OT    -0.834000       15.9994           0
   58505 WT3  6354 TIP3 H1   HT     0.417000        1.0080           0
   58506 WT3  6354 TIP3 H2   HT     0.417000        1.0080           0
   58507 WT3  6355 TIP3 OH2  OT    -0.834000       15.9994           0
   58508 WT3  6355 TIP3 H1   HT     0.417000        1.0080           0
   58509 WT3  6355 TIP3 H2   HT     0.417000        1.0080           0
   58510 WT3  6357 TIP3 OH2  OT    -0.834000       15.9994           0
   58511 WT3  6357 TIP3 H1   HT     0.417000        1.0080           0
   58512 WT3  6357 TIP3 H2   HT     0.417000        1.0080           0
   58513 WT3  6358 TIP3 OH2  OT    -0.834000       15.9994           0
   58514 WT3  6358 TIP3 H1   HT     0.417000        1.0080           0
   58515 WT3  6358 TIP3 H2   HT     0.417000        1.0080           0
   58516 WT3  6359 TIP3 OH2  OT    -0.834000       15.9994           0
   58517 WT3  6359 TIP3 H1   HT     0.417000        1.0080           0
   58518 WT3  6359 TIP3 H2   HT     0.417000        1.0080           0
   58519 WT3  6360 TIP3 OH2  OT    -0.834000       15.9994           0
   58520 WT3  6360 TIP3 H1   HT     0.417000        1.0080           0
   58521 WT3  6360 TIP3 H2   HT     0.417000        1.0080           0
   58522 WT3  6361 TIP3 OH2  OT    -0.834000       15.9994           0
   58523 WT3  6361 TIP3 H1   HT     0.417000        1.0080           0
   58524 WT3  6361 TIP3 H2   HT     0.417000        1.0080           0
   58525 WT3  6362 TIP3 OH2  OT    -0.834000       15.9994           0
   58526 WT3  6362 TIP3 H1   HT     0.417000        1.0080           0
   58527 WT3  6362 TIP3 H2   HT     0.417000        1.0080           0
   58528 WT3  6364 TIP3 OH2  OT    -0.834000       15.9994           0
   58529 WT3  6364 TIP3 H1   HT     0.417000        1.0080           0
   58530 WT3  6364 TIP3 H2   HT     0.417000        1.0080           0
   58531 WT3  6365 TIP3 OH2  OT    -0.834000       15.9994           0
   58532 WT3  6365 TIP3 H1   HT     0.417000        1.0080           0
   58533 WT3  6365 TIP3 H2   HT     0.417000        1.0080           0
   58534 WT3  6366 TIP3 OH2  OT    -0.834000       15.9994           0
   58535 WT3  6366 TIP3 H1   HT     0.417000        1.0080           0
   58536 WT3  6366 TIP3 H2   HT     0.417000        1.0080           0
   58537 WT3  6367 TIP3 OH2  OT    -0.834000       15.9994           0
   58538 WT3  6367 TIP3 H1   HT     0.417000        1.0080           0
   58539 WT3  6367 TIP3 H2   HT     0.417000        1.0080           0
   58540 WT3  6369 TIP3 OH2  OT    -0.834000       15.9994           0
   58541 WT3  6369 TIP3 H1   HT     0.417000        1.0080           0
   58542 WT3  6369 TIP3 H2   HT     0.417000        1.0080           0
   58543 WT3  6370 TIP3 OH2  OT    -0.834000       15.9994           0
   58544 WT3  6370 TIP3 H1   HT     0.417000        1.0080           0
   58545 WT3  6370 TIP3 H2   HT     0.417000        1.0080           0
   58546 WT3  6371 TIP3 OH2  OT    -0.834000       15.9994           0
   58547 WT3  6371 TIP3 H1   HT     0.417000        1.0080           0
   58548 WT3  6371 TIP3 H2   HT     0.417000        1.0080           0
   58549 WT3  6372 TIP3 OH2  OT    -0.834000       15.9994           0
   58550 WT3  6372 TIP3 H1   HT     0.417000        1.0080           0
   58551 WT3  6372 TIP3 H2   HT     0.417000        1.0080           0
   58552 WT3  6373 TIP3 OH2  OT    -0.834000       15.9994           0
   58553 WT3  6373 TIP3 H1   HT     0.417000        1.0080           0
   58554 WT3  6373 TIP3 H2   HT     0.417000        1.0080           0
   58555 WT3  6374 TIP3 OH2  OT    -0.834000       15.9994           0
   58556 WT3  6374 TIP3 H1   HT     0.417000        1.0080           0
   58557 WT3  6374 TIP3 H2   HT     0.417000        1.0080           0
   58558 WT3  6375 TIP3 OH2  OT    -0.834000       15.9994           0
   58559 WT3  6375 TIP3 H1   HT     0.417000        1.0080           0
   58560 WT3  6375 TIP3 H2   HT     0.417000        1.0080           0
   58561 WT3  6376 TIP3 OH2  OT    -0.834000       15.9994           0
   58562 WT3  6376 TIP3 H1   HT     0.417000        1.0080           0
   58563 WT3  6376 TIP3 H2   HT     0.417000        1.0080           0
   58564 WT3  6379 TIP3 OH2  OT    -0.834000       15.9994           0
   58565 WT3  6379 TIP3 H1   HT     0.417000        1.0080           0
   58566 WT3  6379 TIP3 H2   HT     0.417000        1.0080           0
   58567 WT3  6380 TIP3 OH2  OT    -0.834000       15.9994           0
   58568 WT3  6380 TIP3 H1   HT     0.417000        1.0080           0
   58569 WT3  6380 TIP3 H2   HT     0.417000        1.0080           0
   58570 WT3  6381 TIP3 OH2  OT    -0.834000       15.9994           0
   58571 WT3  6381 TIP3 H1   HT     0.417000        1.0080           0
   58572 WT3  6381 TIP3 H2   HT     0.417000        1.0080           0
   58573 WT3  6382 TIP3 OH2  OT    -0.834000       15.9994           0
   58574 WT3  6382 TIP3 H1   HT     0.417000        1.0080           0
   58575 WT3  6382 TIP3 H2   HT     0.417000        1.0080           0
   58576 WT3  6383 TIP3 OH2  OT    -0.834000       15.9994           0
   58577 WT3  6383 TIP3 H1   HT     0.417000        1.0080           0
   58578 WT3  6383 TIP3 H2   HT     0.417000        1.0080           0
   58579 WT3  6384 TIP3 OH2  OT    -0.834000       15.9994           0
   58580 WT3  6384 TIP3 H1   HT     0.417000        1.0080           0
   58581 WT3  6384 TIP3 H2   HT     0.417000        1.0080           0
   58582 WT3  6385 TIP3 OH2  OT    -0.834000       15.9994           0
   58583 WT3  6385 TIP3 H1   HT     0.417000        1.0080           0
   58584 WT3  6385 TIP3 H2   HT     0.417000        1.0080           0
   58585 WT3  6386 TIP3 OH2  OT    -0.834000       15.9994           0
   58586 WT3  6386 TIP3 H1   HT     0.417000        1.0080           0
   58587 WT3  6386 TIP3 H2   HT     0.417000        1.0080           0
   58588 WT3  6387 TIP3 OH2  OT    -0.834000       15.9994           0
   58589 WT3  6387 TIP3 H1   HT     0.417000        1.0080           0
   58590 WT3  6387 TIP3 H2   HT     0.417000        1.0080           0
   58591 WT3  6388 TIP3 OH2  OT    -0.834000       15.9994           0
   58592 WT3  6388 TIP3 H1   HT     0.417000        1.0080           0
   58593 WT3  6388 TIP3 H2   HT     0.417000        1.0080           0
   58594 WT3  6389 TIP3 OH2  OT    -0.834000       15.9994           0
   58595 WT3  6389 TIP3 H1   HT     0.417000        1.0080           0
   58596 WT3  6389 TIP3 H2   HT     0.417000        1.0080           0
   58597 WT3  6390 TIP3 OH2  OT    -0.834000       15.9994           0
   58598 WT3  6390 TIP3 H1   HT     0.417000        1.0080           0
   58599 WT3  6390 TIP3 H2   HT     0.417000        1.0080           0
   58600 WT3  6391 TIP3 OH2  OT    -0.834000       15.9994           0
   58601 WT3  6391 TIP3 H1   HT     0.417000        1.0080           0
   58602 WT3  6391 TIP3 H2   HT     0.417000        1.0080           0
   58603 WT3  6392 TIP3 OH2  OT    -0.834000       15.9994           0
   58604 WT3  6392 TIP3 H1   HT     0.417000        1.0080           0
   58605 WT3  6392 TIP3 H2   HT     0.417000        1.0080           0
   58606 WT3  6393 TIP3 OH2  OT    -0.834000       15.9994           0
   58607 WT3  6393 TIP3 H1   HT     0.417000        1.0080           0
   58608 WT3  6393 TIP3 H2   HT     0.417000        1.0080           0
   58609 WT3  6394 TIP3 OH2  OT    -0.834000       15.9994           0
   58610 WT3  6394 TIP3 H1   HT     0.417000        1.0080           0
   58611 WT3  6394 TIP3 H2   HT     0.417000        1.0080           0
   58612 WT3  6395 TIP3 OH2  OT    -0.834000       15.9994           0
   58613 WT3  6395 TIP3 H1   HT     0.417000        1.0080           0
   58614 WT3  6395 TIP3 H2   HT     0.417000        1.0080           0
   58615 WT3  6396 TIP3 OH2  OT    -0.834000       15.9994           0
   58616 WT3  6396 TIP3 H1   HT     0.417000        1.0080           0
   58617 WT3  6396 TIP3 H2   HT     0.417000        1.0080           0
   58618 WT3  6397 TIP3 OH2  OT    -0.834000       15.9994           0
   58619 WT3  6397 TIP3 H1   HT     0.417000        1.0080           0
   58620 WT3  6397 TIP3 H2   HT     0.417000        1.0080           0
   58621 WT3  6398 TIP3 OH2  OT    -0.834000       15.9994           0
   58622 WT3  6398 TIP3 H1   HT     0.417000        1.0080           0
   58623 WT3  6398 TIP3 H2   HT     0.417000        1.0080           0
   58624 WT3  6402 TIP3 OH2  OT    -0.834000       15.9994           0
   58625 WT3  6402 TIP3 H1   HT     0.417000        1.0080           0
   58626 WT3  6402 TIP3 H2   HT     0.417000        1.0080           0
   58627 WT3  6403 TIP3 OH2  OT    -0.834000       15.9994           0
   58628 WT3  6403 TIP3 H1   HT     0.417000        1.0080           0
   58629 WT3  6403 TIP3 H2   HT     0.417000        1.0080           0
   58630 WT3  6404 TIP3 OH2  OT    -0.834000       15.9994           0
   58631 WT3  6404 TIP3 H1   HT     0.417000        1.0080           0
   58632 WT3  6404 TIP3 H2   HT     0.417000        1.0080           0
   58633 WT3  6406 TIP3 OH2  OT    -0.834000       15.9994           0
   58634 WT3  6406 TIP3 H1   HT     0.417000        1.0080           0
   58635 WT3  6406 TIP3 H2   HT     0.417000        1.0080           0
   58636 WT3  6407 TIP3 OH2  OT    -0.834000       15.9994           0
   58637 WT3  6407 TIP3 H1   HT     0.417000        1.0080           0
   58638 WT3  6407 TIP3 H2   HT     0.417000        1.0080           0
   58639 WT3  6408 TIP3 OH2  OT    -0.834000       15.9994           0
   58640 WT3  6408 TIP3 H1   HT     0.417000        1.0080           0
   58641 WT3  6408 TIP3 H2   HT     0.417000        1.0080           0
   58642 WT3  6409 TIP3 OH2  OT    -0.834000       15.9994           0
   58643 WT3  6409 TIP3 H1   HT     0.417000        1.0080           0
   58644 WT3  6409 TIP3 H2   HT     0.417000        1.0080           0
   58645 WT3  6410 TIP3 OH2  OT    -0.834000       15.9994           0
   58646 WT3  6410 TIP3 H1   HT     0.417000        1.0080           0
   58647 WT3  6410 TIP3 H2   HT     0.417000        1.0080           0
   58648 WT3  6411 TIP3 OH2  OT    -0.834000       15.9994           0
   58649 WT3  6411 TIP3 H1   HT     0.417000        1.0080           0
   58650 WT3  6411 TIP3 H2   HT     0.417000        1.0080           0
   58651 WT3  6412 TIP3 OH2  OT    -0.834000       15.9994           0
   58652 WT3  6412 TIP3 H1   HT     0.417000        1.0080           0
   58653 WT3  6412 TIP3 H2   HT     0.417000        1.0080           0
   58654 WT3  6413 TIP3 OH2  OT    -0.834000       15.9994           0
   58655 WT3  6413 TIP3 H1   HT     0.417000        1.0080           0
   58656 WT3  6413 TIP3 H2   HT     0.417000        1.0080           0
   58657 WT3  6414 TIP3 OH2  OT    -0.834000       15.9994           0
   58658 WT3  6414 TIP3 H1   HT     0.417000        1.0080           0
   58659 WT3  6414 TIP3 H2   HT     0.417000        1.0080           0
   58660 WT3  6415 TIP3 OH2  OT    -0.834000       15.9994           0
   58661 WT3  6415 TIP3 H1   HT     0.417000        1.0080           0
   58662 WT3  6415 TIP3 H2   HT     0.417000        1.0080           0
   58663 WT3  6416 TIP3 OH2  OT    -0.834000       15.9994           0
   58664 WT3  6416 TIP3 H1   HT     0.417000        1.0080           0
   58665 WT3  6416 TIP3 H2   HT     0.417000        1.0080           0
   58666 WT3  6417 TIP3 OH2  OT    -0.834000       15.9994           0
   58667 WT3  6417 TIP3 H1   HT     0.417000        1.0080           0
   58668 WT3  6417 TIP3 H2   HT     0.417000        1.0080           0
   58669 WT3  6418 TIP3 OH2  OT    -0.834000       15.9994           0
   58670 WT3  6418 TIP3 H1   HT     0.417000        1.0080           0
   58671 WT3  6418 TIP3 H2   HT     0.417000        1.0080           0
   58672 WT3  6419 TIP3 OH2  OT    -0.834000       15.9994           0
   58673 WT3  6419 TIP3 H1   HT     0.417000        1.0080           0
   58674 WT3  6419 TIP3 H2   HT     0.417000        1.0080           0
   58675 WT3  6423 TIP3 OH2  OT    -0.834000       15.9994           0
   58676 WT3  6423 TIP3 H1   HT     0.417000        1.0080           0
   58677 WT3  6423 TIP3 H2   HT     0.417000        1.0080           0
   58678 WT3  6424 TIP3 OH2  OT    -0.834000       15.9994           0
   58679 WT3  6424 TIP3 H1   HT     0.417000        1.0080           0
   58680 WT3  6424 TIP3 H2   HT     0.417000        1.0080           0
   58681 WT3  6425 TIP3 OH2  OT    -0.834000       15.9994           0
   58682 WT3  6425 TIP3 H1   HT     0.417000        1.0080           0
   58683 WT3  6425 TIP3 H2   HT     0.417000        1.0080           0
   58684 WT3  6429 TIP3 OH2  OT    -0.834000       15.9994           0
   58685 WT3  6429 TIP3 H1   HT     0.417000        1.0080           0
   58686 WT3  6429 TIP3 H2   HT     0.417000        1.0080           0
   58687 WT3  6434 TIP3 OH2  OT    -0.834000       15.9994           0
   58688 WT3  6434 TIP3 H1   HT     0.417000        1.0080           0
   58689 WT3  6434 TIP3 H2   HT     0.417000        1.0080           0
   58690 WT3  6435 TIP3 OH2  OT    -0.834000       15.9994           0
   58691 WT3  6435 TIP3 H1   HT     0.417000        1.0080           0
   58692 WT3  6435 TIP3 H2   HT     0.417000        1.0080           0
   58693 WT3  6436 TIP3 OH2  OT    -0.834000       15.9994           0
   58694 WT3  6436 TIP3 H1   HT     0.417000        1.0080           0
   58695 WT3  6436 TIP3 H2   HT     0.417000        1.0080           0
   58696 WT3  6439 TIP3 OH2  OT    -0.834000       15.9994           0
   58697 WT3  6439 TIP3 H1   HT     0.417000        1.0080           0
   58698 WT3  6439 TIP3 H2   HT     0.417000        1.0080           0
   58699 WT3  6440 TIP3 OH2  OT    -0.834000       15.9994           0
   58700 WT3  6440 TIP3 H1   HT     0.417000        1.0080           0
   58701 WT3  6440 TIP3 H2   HT     0.417000        1.0080           0
   58702 WT3  6443 TIP3 OH2  OT    -0.834000       15.9994           0
   58703 WT3  6443 TIP3 H1   HT     0.417000        1.0080           0
   58704 WT3  6443 TIP3 H2   HT     0.417000        1.0080           0
   58705 WT3  6445 TIP3 OH2  OT    -0.834000       15.9994           0
   58706 WT3  6445 TIP3 H1   HT     0.417000        1.0080           0
   58707 WT3  6445 TIP3 H2   HT     0.417000        1.0080           0
   58708 WT3  6447 TIP3 OH2  OT    -0.834000       15.9994           0
   58709 WT3  6447 TIP3 H1   HT     0.417000        1.0080           0
   58710 WT3  6447 TIP3 H2   HT     0.417000        1.0080           0
   58711 WT3  6448 TIP3 OH2  OT    -0.834000       15.9994           0
   58712 WT3  6448 TIP3 H1   HT     0.417000        1.0080           0
   58713 WT3  6448 TIP3 H2   HT     0.417000        1.0080           0
   58714 WT3  6452 TIP3 OH2  OT    -0.834000       15.9994           0
   58715 WT3  6452 TIP3 H1   HT     0.417000        1.0080           0
   58716 WT3  6452 TIP3 H2   HT     0.417000        1.0080           0
   58717 WT3  6453 TIP3 OH2  OT    -0.834000       15.9994           0
   58718 WT3  6453 TIP3 H1   HT     0.417000        1.0080           0
   58719 WT3  6453 TIP3 H2   HT     0.417000        1.0080           0
   58720 WT3  6456 TIP3 OH2  OT    -0.834000       15.9994           0
   58721 WT3  6456 TIP3 H1   HT     0.417000        1.0080           0
   58722 WT3  6456 TIP3 H2   HT     0.417000        1.0080           0
   58723 WT3  6459 TIP3 OH2  OT    -0.834000       15.9994           0
   58724 WT3  6459 TIP3 H1   HT     0.417000        1.0080           0
   58725 WT3  6459 TIP3 H2   HT     0.417000        1.0080           0
   58726 WT3  6464 TIP3 OH2  OT    -0.834000       15.9994           0
   58727 WT3  6464 TIP3 H1   HT     0.417000        1.0080           0
   58728 WT3  6464 TIP3 H2   HT     0.417000        1.0080           0
   58729 WT3  6467 TIP3 OH2  OT    -0.834000       15.9994           0
   58730 WT3  6467 TIP3 H1   HT     0.417000        1.0080           0
   58731 WT3  6467 TIP3 H2   HT     0.417000        1.0080           0
   58732 WT3  6468 TIP3 OH2  OT    -0.834000       15.9994           0
   58733 WT3  6468 TIP3 H1   HT     0.417000        1.0080           0
   58734 WT3  6468 TIP3 H2   HT     0.417000        1.0080           0
   58735 WT3  6469 TIP3 OH2  OT    -0.834000       15.9994           0
   58736 WT3  6469 TIP3 H1   HT     0.417000        1.0080           0
   58737 WT3  6469 TIP3 H2   HT     0.417000        1.0080           0
   58738 WT3  6475 TIP3 OH2  OT    -0.834000       15.9994           0
   58739 WT3  6475 TIP3 H1   HT     0.417000        1.0080           0
   58740 WT3  6475 TIP3 H2   HT     0.417000        1.0080           0
   58741 WT3  6478 TIP3 OH2  OT    -0.834000       15.9994           0
   58742 WT3  6478 TIP3 H1   HT     0.417000        1.0080           0
   58743 WT3  6478 TIP3 H2   HT     0.417000        1.0080           0
   58744 WT3  6481 TIP3 OH2  OT    -0.834000       15.9994           0
   58745 WT3  6481 TIP3 H1   HT     0.417000        1.0080           0
   58746 WT3  6481 TIP3 H2   HT     0.417000        1.0080           0
   58747 WT3  6483 TIP3 OH2  OT    -0.834000       15.9994           0
   58748 WT3  6483 TIP3 H1   HT     0.417000        1.0080           0
   58749 WT3  6483 TIP3 H2   HT     0.417000        1.0080           0
   58750 WT3  6485 TIP3 OH2  OT    -0.834000       15.9994           0
   58751 WT3  6485 TIP3 H1   HT     0.417000        1.0080           0
   58752 WT3  6485 TIP3 H2   HT     0.417000        1.0080           0
   58753 WT3  6488 TIP3 OH2  OT    -0.834000       15.9994           0
   58754 WT3  6488 TIP3 H1   HT     0.417000        1.0080           0
   58755 WT3  6488 TIP3 H2   HT     0.417000        1.0080           0
   58756 WT3  6491 TIP3 OH2  OT    -0.834000       15.9994           0
   58757 WT3  6491 TIP3 H1   HT     0.417000        1.0080           0
   58758 WT3  6491 TIP3 H2   HT     0.417000        1.0080           0
   58759 WT3  6496 TIP3 OH2  OT    -0.834000       15.9994           0
   58760 WT3  6496 TIP3 H1   HT     0.417000        1.0080           0
   58761 WT3  6496 TIP3 H2   HT     0.417000        1.0080           0
   58762 WT3  6498 TIP3 OH2  OT    -0.834000       15.9994           0
   58763 WT3  6498 TIP3 H1   HT     0.417000        1.0080           0
   58764 WT3  6498 TIP3 H2   HT     0.417000        1.0080           0
   58765 WT3  6499 TIP3 OH2  OT    -0.834000       15.9994           0
   58766 WT3  6499 TIP3 H1   HT     0.417000        1.0080           0
   58767 WT3  6499 TIP3 H2   HT     0.417000        1.0080           0
   58768 WT3  6502 TIP3 OH2  OT    -0.834000       15.9994           0
   58769 WT3  6502 TIP3 H1   HT     0.417000        1.0080           0
   58770 WT3  6502 TIP3 H2   HT     0.417000        1.0080           0
   58771 WT3  6505 TIP3 OH2  OT    -0.834000       15.9994           0
   58772 WT3  6505 TIP3 H1   HT     0.417000        1.0080           0
   58773 WT3  6505 TIP3 H2   HT     0.417000        1.0080           0
   58774 WT3  6517 TIP3 OH2  OT    -0.834000       15.9994           0
   58775 WT3  6517 TIP3 H1   HT     0.417000        1.0080           0
   58776 WT3  6517 TIP3 H2   HT     0.417000        1.0080           0
   58777 WT3  6518 TIP3 OH2  OT    -0.834000       15.9994           0
   58778 WT3  6518 TIP3 H1   HT     0.417000        1.0080           0
   58779 WT3  6518 TIP3 H2   HT     0.417000        1.0080           0
   58780 WT3  6519 TIP3 OH2  OT    -0.834000       15.9994           0
   58781 WT3  6519 TIP3 H1   HT     0.417000        1.0080           0
   58782 WT3  6519 TIP3 H2   HT     0.417000        1.0080           0
   58783 WT3  6523 TIP3 OH2  OT    -0.834000       15.9994           0
   58784 WT3  6523 TIP3 H1   HT     0.417000        1.0080           0
   58785 WT3  6523 TIP3 H2   HT     0.417000        1.0080           0
   58786 WT3  6529 TIP3 OH2  OT    -0.834000       15.9994           0
   58787 WT3  6529 TIP3 H1   HT     0.417000        1.0080           0
   58788 WT3  6529 TIP3 H2   HT     0.417000        1.0080           0
   58789 WT3  6536 TIP3 OH2  OT    -0.834000       15.9994           0
   58790 WT3  6536 TIP3 H1   HT     0.417000        1.0080           0
   58791 WT3  6536 TIP3 H2   HT     0.417000        1.0080           0
   58792 WT3  6547 TIP3 OH2  OT    -0.834000       15.9994           0
   58793 WT3  6547 TIP3 H1   HT     0.417000        1.0080           0
   58794 WT3  6547 TIP3 H2   HT     0.417000        1.0080           0
   58795 WT3  6551 TIP3 OH2  OT    -0.834000       15.9994           0
   58796 WT3  6551 TIP3 H1   HT     0.417000        1.0080           0
   58797 WT3  6551 TIP3 H2   HT     0.417000        1.0080           0
   58798 WT3  6555 TIP3 OH2  OT    -0.834000       15.9994           0
   58799 WT3  6555 TIP3 H1   HT     0.417000        1.0080           0
   58800 WT3  6555 TIP3 H2   HT     0.417000        1.0080           0
   58801 WT3  6560 TIP3 OH2  OT    -0.834000       15.9994           0
   58802 WT3  6560 TIP3 H1   HT     0.417000        1.0080           0
   58803 WT3  6560 TIP3 H2   HT     0.417000        1.0080           0
   58804 WT3  6561 TIP3 OH2  OT    -0.834000       15.9994           0
   58805 WT3  6561 TIP3 H1   HT     0.417000        1.0080           0
   58806 WT3  6561 TIP3 H2   HT     0.417000        1.0080           0
   58807 WT3  6575 TIP3 OH2  OT    -0.834000       15.9994           0
   58808 WT3  6575 TIP3 H1   HT     0.417000        1.0080           0
   58809 WT3  6575 TIP3 H2   HT     0.417000        1.0080           0
   58810 WT3  6577 TIP3 OH2  OT    -0.834000       15.9994           0
   58811 WT3  6577 TIP3 H1   HT     0.417000        1.0080           0
   58812 WT3  6577 TIP3 H2   HT     0.417000        1.0080           0
   58813 WT3  6578 TIP3 OH2  OT    -0.834000       15.9994           0
   58814 WT3  6578 TIP3 H1   HT     0.417000        1.0080           0
   58815 WT3  6578 TIP3 H2   HT     0.417000        1.0080           0
   58816 WT3  6579 TIP3 OH2  OT    -0.834000       15.9994           0
   58817 WT3  6579 TIP3 H1   HT     0.417000        1.0080           0
   58818 WT3  6579 TIP3 H2   HT     0.417000        1.0080           0
   58819 WT3  6583 TIP3 OH2  OT    -0.834000       15.9994           0
   58820 WT3  6583 TIP3 H1   HT     0.417000        1.0080           0
   58821 WT3  6583 TIP3 H2   HT     0.417000        1.0080           0
   58822 WT3  6588 TIP3 OH2  OT    -0.834000       15.9994           0
   58823 WT3  6588 TIP3 H1   HT     0.417000        1.0080           0
   58824 WT3  6588 TIP3 H2   HT     0.417000        1.0080           0
   58825 WT3  6591 TIP3 OH2  OT    -0.834000       15.9994           0
   58826 WT3  6591 TIP3 H1   HT     0.417000        1.0080           0
   58827 WT3  6591 TIP3 H2   HT     0.417000        1.0080           0
   58828 WT3  6592 TIP3 OH2  OT    -0.834000       15.9994           0
   58829 WT3  6592 TIP3 H1   HT     0.417000        1.0080           0
   58830 WT3  6592 TIP3 H2   HT     0.417000        1.0080           0
   58831 WT3  6595 TIP3 OH2  OT    -0.834000       15.9994           0
   58832 WT3  6595 TIP3 H1   HT     0.417000        1.0080           0
   58833 WT3  6595 TIP3 H2   HT     0.417000        1.0080           0
   58834 WT3  6597 TIP3 OH2  OT    -0.834000       15.9994           0
   58835 WT3  6597 TIP3 H1   HT     0.417000        1.0080           0
   58836 WT3  6597 TIP3 H2   HT     0.417000        1.0080           0
   58837 WT3  6601 TIP3 OH2  OT    -0.834000       15.9994           0
   58838 WT3  6601 TIP3 H1   HT     0.417000        1.0080           0
   58839 WT3  6601 TIP3 H2   HT     0.417000        1.0080           0
   58840 WT3  6602 TIP3 OH2  OT    -0.834000       15.9994           0
   58841 WT3  6602 TIP3 H1   HT     0.417000        1.0080           0
   58842 WT3  6602 TIP3 H2   HT     0.417000        1.0080           0
   58843 WT3  6603 TIP3 OH2  OT    -0.834000       15.9994           0
   58844 WT3  6603 TIP3 H1   HT     0.417000        1.0080           0
   58845 WT3  6603 TIP3 H2   HT     0.417000        1.0080           0
   58846 WT3  6604 TIP3 OH2  OT    -0.834000       15.9994           0
   58847 WT3  6604 TIP3 H1   HT     0.417000        1.0080           0
   58848 WT3  6604 TIP3 H2   HT     0.417000        1.0080           0
   58849 WT3  6606 TIP3 OH2  OT    -0.834000       15.9994           0
   58850 WT3  6606 TIP3 H1   HT     0.417000        1.0080           0
   58851 WT3  6606 TIP3 H2   HT     0.417000        1.0080           0
   58852 WT3  6613 TIP3 OH2  OT    -0.834000       15.9994           0
   58853 WT3  6613 TIP3 H1   HT     0.417000        1.0080           0
   58854 WT3  6613 TIP3 H2   HT     0.417000        1.0080           0
   58855 WT3  6614 TIP3 OH2  OT    -0.834000       15.9994           0
   58856 WT3  6614 TIP3 H1   HT     0.417000        1.0080           0
   58857 WT3  6614 TIP3 H2   HT     0.417000        1.0080           0
   58858 WT3  6615 TIP3 OH2  OT    -0.834000       15.9994           0
   58859 WT3  6615 TIP3 H1   HT     0.417000        1.0080           0
   58860 WT3  6615 TIP3 H2   HT     0.417000        1.0080           0
   58861 WT3  6616 TIP3 OH2  OT    -0.834000       15.9994           0
   58862 WT3  6616 TIP3 H1   HT     0.417000        1.0080           0
   58863 WT3  6616 TIP3 H2   HT     0.417000        1.0080           0
   58864 WT3  6618 TIP3 OH2  OT    -0.834000       15.9994           0
   58865 WT3  6618 TIP3 H1   HT     0.417000        1.0080           0
   58866 WT3  6618 TIP3 H2   HT     0.417000        1.0080           0
   58867 WT3  6620 TIP3 OH2  OT    -0.834000       15.9994           0
   58868 WT3  6620 TIP3 H1   HT     0.417000        1.0080           0
   58869 WT3  6620 TIP3 H2   HT     0.417000        1.0080           0
   58870 WT3  6621 TIP3 OH2  OT    -0.834000       15.9994           0
   58871 WT3  6621 TIP3 H1   HT     0.417000        1.0080           0
   58872 WT3  6621 TIP3 H2   HT     0.417000        1.0080           0
   58873 WT3  6622 TIP3 OH2  OT    -0.834000       15.9994           0
   58874 WT3  6622 TIP3 H1   HT     0.417000        1.0080           0
   58875 WT3  6622 TIP3 H2   HT     0.417000        1.0080           0
   58876 WT3  6623 TIP3 OH2  OT    -0.834000       15.9994           0
   58877 WT3  6623 TIP3 H1   HT     0.417000        1.0080           0
   58878 WT3  6623 TIP3 H2   HT     0.417000        1.0080           0
   58879 WT3  6625 TIP3 OH2  OT    -0.834000       15.9994           0
   58880 WT3  6625 TIP3 H1   HT     0.417000        1.0080           0
   58881 WT3  6625 TIP3 H2   HT     0.417000        1.0080           0
   58882 WT3  6627 TIP3 OH2  OT    -0.834000       15.9994           0
   58883 WT3  6627 TIP3 H1   HT     0.417000        1.0080           0
   58884 WT3  6627 TIP3 H2   HT     0.417000        1.0080           0
   58885 WT3  6628 TIP3 OH2  OT    -0.834000       15.9994           0
   58886 WT3  6628 TIP3 H1   HT     0.417000        1.0080           0
   58887 WT3  6628 TIP3 H2   HT     0.417000        1.0080           0
   58888 WT3  6629 TIP3 OH2  OT    -0.834000       15.9994           0
   58889 WT3  6629 TIP3 H1   HT     0.417000        1.0080           0
   58890 WT3  6629 TIP3 H2   HT     0.417000        1.0080           0
   58891 WT3  6634 TIP3 OH2  OT    -0.834000       15.9994           0
   58892 WT3  6634 TIP3 H1   HT     0.417000        1.0080           0
   58893 WT3  6634 TIP3 H2   HT     0.417000        1.0080           0
   58894 WT3  6637 TIP3 OH2  OT    -0.834000       15.9994           0
   58895 WT3  6637 TIP3 H1   HT     0.417000        1.0080           0
   58896 WT3  6637 TIP3 H2   HT     0.417000        1.0080           0
   58897 WT3  6639 TIP3 OH2  OT    -0.834000       15.9994           0
   58898 WT3  6639 TIP3 H1   HT     0.417000        1.0080           0
   58899 WT3  6639 TIP3 H2   HT     0.417000        1.0080           0
   58900 WT3  6640 TIP3 OH2  OT    -0.834000       15.9994           0
   58901 WT3  6640 TIP3 H1   HT     0.417000        1.0080           0
   58902 WT3  6640 TIP3 H2   HT     0.417000        1.0080           0
   58903 WT3  6641 TIP3 OH2  OT    -0.834000       15.9994           0
   58904 WT3  6641 TIP3 H1   HT     0.417000        1.0080           0
   58905 WT3  6641 TIP3 H2   HT     0.417000        1.0080           0
   58906 WT3  6643 TIP3 OH2  OT    -0.834000       15.9994           0
   58907 WT3  6643 TIP3 H1   HT     0.417000        1.0080           0
   58908 WT3  6643 TIP3 H2   HT     0.417000        1.0080           0
   58909 WT3  6644 TIP3 OH2  OT    -0.834000       15.9994           0
   58910 WT3  6644 TIP3 H1   HT     0.417000        1.0080           0
   58911 WT3  6644 TIP3 H2   HT     0.417000        1.0080           0
   58912 WT3  6645 TIP3 OH2  OT    -0.834000       15.9994           0
   58913 WT3  6645 TIP3 H1   HT     0.417000        1.0080           0
   58914 WT3  6645 TIP3 H2   HT     0.417000        1.0080           0
   58915 WT3  6647 TIP3 OH2  OT    -0.834000       15.9994           0
   58916 WT3  6647 TIP3 H1   HT     0.417000        1.0080           0
   58917 WT3  6647 TIP3 H2   HT     0.417000        1.0080           0
   58918 WT3  6648 TIP3 OH2  OT    -0.834000       15.9994           0
   58919 WT3  6648 TIP3 H1   HT     0.417000        1.0080           0
   58920 WT3  6648 TIP3 H2   HT     0.417000        1.0080           0
   58921 WT3  6649 TIP3 OH2  OT    -0.834000       15.9994           0
   58922 WT3  6649 TIP3 H1   HT     0.417000        1.0080           0
   58923 WT3  6649 TIP3 H2   HT     0.417000        1.0080           0
   58924 WT3  6650 TIP3 OH2  OT    -0.834000       15.9994           0
   58925 WT3  6650 TIP3 H1   HT     0.417000        1.0080           0
   58926 WT3  6650 TIP3 H2   HT     0.417000        1.0080           0
   58927 WT3  6652 TIP3 OH2  OT    -0.834000       15.9994           0
   58928 WT3  6652 TIP3 H1   HT     0.417000        1.0080           0
   58929 WT3  6652 TIP3 H2   HT     0.417000        1.0080           0
   58930 WT3  6653 TIP3 OH2  OT    -0.834000       15.9994           0
   58931 WT3  6653 TIP3 H1   HT     0.417000        1.0080           0
   58932 WT3  6653 TIP3 H2   HT     0.417000        1.0080           0
   58933 WT3  6657 TIP3 OH2  OT    -0.834000       15.9994           0
   58934 WT3  6657 TIP3 H1   HT     0.417000        1.0080           0
   58935 WT3  6657 TIP3 H2   HT     0.417000        1.0080           0
   58936 WT3  6658 TIP3 OH2  OT    -0.834000       15.9994           0
   58937 WT3  6658 TIP3 H1   HT     0.417000        1.0080           0
   58938 WT3  6658 TIP3 H2   HT     0.417000        1.0080           0
   58939 WT3  6659 TIP3 OH2  OT    -0.834000       15.9994           0
   58940 WT3  6659 TIP3 H1   HT     0.417000        1.0080           0
   58941 WT3  6659 TIP3 H2   HT     0.417000        1.0080           0
   58942 WT3  6660 TIP3 OH2  OT    -0.834000       15.9994           0
   58943 WT3  6660 TIP3 H1   HT     0.417000        1.0080           0
   58944 WT3  6660 TIP3 H2   HT     0.417000        1.0080           0
   58945 WT3  6661 TIP3 OH2  OT    -0.834000       15.9994           0
   58946 WT3  6661 TIP3 H1   HT     0.417000        1.0080           0
   58947 WT3  6661 TIP3 H2   HT     0.417000        1.0080           0
   58948 WT3  6662 TIP3 OH2  OT    -0.834000       15.9994           0
   58949 WT3  6662 TIP3 H1   HT     0.417000        1.0080           0
   58950 WT3  6662 TIP3 H2   HT     0.417000        1.0080           0
   58951 WT3  6663 TIP3 OH2  OT    -0.834000       15.9994           0
   58952 WT3  6663 TIP3 H1   HT     0.417000        1.0080           0
   58953 WT3  6663 TIP3 H2   HT     0.417000        1.0080           0
   58954 WT3  6664 TIP3 OH2  OT    -0.834000       15.9994           0
   58955 WT3  6664 TIP3 H1   HT     0.417000        1.0080           0
   58956 WT3  6664 TIP3 H2   HT     0.417000        1.0080           0
   58957 WT3  6665 TIP3 OH2  OT    -0.834000       15.9994           0
   58958 WT3  6665 TIP3 H1   HT     0.417000        1.0080           0
   58959 WT3  6665 TIP3 H2   HT     0.417000        1.0080           0
   58960 WT3  6666 TIP3 OH2  OT    -0.834000       15.9994           0
   58961 WT3  6666 TIP3 H1   HT     0.417000        1.0080           0
   58962 WT3  6666 TIP3 H2   HT     0.417000        1.0080           0
   58963 WT3  6667 TIP3 OH2  OT    -0.834000       15.9994           0
   58964 WT3  6667 TIP3 H1   HT     0.417000        1.0080           0
   58965 WT3  6667 TIP3 H2   HT     0.417000        1.0080           0
   58966 WT3  6668 TIP3 OH2  OT    -0.834000       15.9994           0
   58967 WT3  6668 TIP3 H1   HT     0.417000        1.0080           0
   58968 WT3  6668 TIP3 H2   HT     0.417000        1.0080           0
   58969 WT3  6669 TIP3 OH2  OT    -0.834000       15.9994           0
   58970 WT3  6669 TIP3 H1   HT     0.417000        1.0080           0
   58971 WT3  6669 TIP3 H2   HT     0.417000        1.0080           0
   58972 WT3  6670 TIP3 OH2  OT    -0.834000       15.9994           0
   58973 WT3  6670 TIP3 H1   HT     0.417000        1.0080           0
   58974 WT3  6670 TIP3 H2   HT     0.417000        1.0080           0
   58975 WT3  6671 TIP3 OH2  OT    -0.834000       15.9994           0
   58976 WT3  6671 TIP3 H1   HT     0.417000        1.0080           0
   58977 WT3  6671 TIP3 H2   HT     0.417000        1.0080           0
   58978 WT3  6672 TIP3 OH2  OT    -0.834000       15.9994           0
   58979 WT3  6672 TIP3 H1   HT     0.417000        1.0080           0
   58980 WT3  6672 TIP3 H2   HT     0.417000        1.0080           0
   58981 WT3  6673 TIP3 OH2  OT    -0.834000       15.9994           0
   58982 WT3  6673 TIP3 H1   HT     0.417000        1.0080           0
   58983 WT3  6673 TIP3 H2   HT     0.417000        1.0080           0
   58984 WT3  6674 TIP3 OH2  OT    -0.834000       15.9994           0
   58985 WT3  6674 TIP3 H1   HT     0.417000        1.0080           0
   58986 WT3  6674 TIP3 H2   HT     0.417000        1.0080           0
   58987 WT3  6677 TIP3 OH2  OT    -0.834000       15.9994           0
   58988 WT3  6677 TIP3 H1   HT     0.417000        1.0080           0
   58989 WT3  6677 TIP3 H2   HT     0.417000        1.0080           0
   58990 WT3  6679 TIP3 OH2  OT    -0.834000       15.9994           0
   58991 WT3  6679 TIP3 H1   HT     0.417000        1.0080           0
   58992 WT3  6679 TIP3 H2   HT     0.417000        1.0080           0
   58993 WT3  6680 TIP3 OH2  OT    -0.834000       15.9994           0
   58994 WT3  6680 TIP3 H1   HT     0.417000        1.0080           0
   58995 WT3  6680 TIP3 H2   HT     0.417000        1.0080           0
   58996 WT3  6681 TIP3 OH2  OT    -0.834000       15.9994           0
   58997 WT3  6681 TIP3 H1   HT     0.417000        1.0080           0
   58998 WT3  6681 TIP3 H2   HT     0.417000        1.0080           0
   58999 WT3  6683 TIP3 OH2  OT    -0.834000       15.9994           0
   59000 WT3  6683 TIP3 H1   HT     0.417000        1.0080           0
   59001 WT3  6683 TIP3 H2   HT     0.417000        1.0080           0
   59002 WT3  6684 TIP3 OH2  OT    -0.834000       15.9994           0
   59003 WT3  6684 TIP3 H1   HT     0.417000        1.0080           0
   59004 WT3  6684 TIP3 H2   HT     0.417000        1.0080           0
   59005 WT3  6685 TIP3 OH2  OT    -0.834000       15.9994           0
   59006 WT3  6685 TIP3 H1   HT     0.417000        1.0080           0
   59007 WT3  6685 TIP3 H2   HT     0.417000        1.0080           0
   59008 WT3  6686 TIP3 OH2  OT    -0.834000       15.9994           0
   59009 WT3  6686 TIP3 H1   HT     0.417000        1.0080           0
   59010 WT3  6686 TIP3 H2   HT     0.417000        1.0080           0
   59011 WT3  6687 TIP3 OH2  OT    -0.834000       15.9994           0
   59012 WT3  6687 TIP3 H1   HT     0.417000        1.0080           0
   59013 WT3  6687 TIP3 H2   HT     0.417000        1.0080           0
   59014 WT3  6689 TIP3 OH2  OT    -0.834000       15.9994           0
   59015 WT3  6689 TIP3 H1   HT     0.417000        1.0080           0
   59016 WT3  6689 TIP3 H2   HT     0.417000        1.0080           0
   59017 WT3  6690 TIP3 OH2  OT    -0.834000       15.9994           0
   59018 WT3  6690 TIP3 H1   HT     0.417000        1.0080           0
   59019 WT3  6690 TIP3 H2   HT     0.417000        1.0080           0
   59020 WT3  6691 TIP3 OH2  OT    -0.834000       15.9994           0
   59021 WT3  6691 TIP3 H1   HT     0.417000        1.0080           0
   59022 WT3  6691 TIP3 H2   HT     0.417000        1.0080           0
   59023 WT3  6692 TIP3 OH2  OT    -0.834000       15.9994           0
   59024 WT3  6692 TIP3 H1   HT     0.417000        1.0080           0
   59025 WT3  6692 TIP3 H2   HT     0.417000        1.0080           0
   59026 WT3  6693 TIP3 OH2  OT    -0.834000       15.9994           0
   59027 WT3  6693 TIP3 H1   HT     0.417000        1.0080           0
   59028 WT3  6693 TIP3 H2   HT     0.417000        1.0080           0
   59029 WT3  6694 TIP3 OH2  OT    -0.834000       15.9994           0
   59030 WT3  6694 TIP3 H1   HT     0.417000        1.0080           0
   59031 WT3  6694 TIP3 H2   HT     0.417000        1.0080           0
   59032 WT3  6697 TIP3 OH2  OT    -0.834000       15.9994           0
   59033 WT3  6697 TIP3 H1   HT     0.417000        1.0080           0
   59034 WT3  6697 TIP3 H2   HT     0.417000        1.0080           0
   59035 WT3  6698 TIP3 OH2  OT    -0.834000       15.9994           0
   59036 WT3  6698 TIP3 H1   HT     0.417000        1.0080           0
   59037 WT3  6698 TIP3 H2   HT     0.417000        1.0080           0
   59038 WT3  6700 TIP3 OH2  OT    -0.834000       15.9994           0
   59039 WT3  6700 TIP3 H1   HT     0.417000        1.0080           0
   59040 WT3  6700 TIP3 H2   HT     0.417000        1.0080           0
   59041 WT3  6701 TIP3 OH2  OT    -0.834000       15.9994           0
   59042 WT3  6701 TIP3 H1   HT     0.417000        1.0080           0
   59043 WT3  6701 TIP3 H2   HT     0.417000        1.0080           0
   59044 WT3  6702 TIP3 OH2  OT    -0.834000       15.9994           0
   59045 WT3  6702 TIP3 H1   HT     0.417000        1.0080           0
   59046 WT3  6702 TIP3 H2   HT     0.417000        1.0080           0
   59047 WT3  6703 TIP3 OH2  OT    -0.834000       15.9994           0
   59048 WT3  6703 TIP3 H1   HT     0.417000        1.0080           0
   59049 WT3  6703 TIP3 H2   HT     0.417000        1.0080           0
   59050 WT3  6704 TIP3 OH2  OT    -0.834000       15.9994           0
   59051 WT3  6704 TIP3 H1   HT     0.417000        1.0080           0
   59052 WT3  6704 TIP3 H2   HT     0.417000        1.0080           0
   59053 WT3  6705 TIP3 OH2  OT    -0.834000       15.9994           0
   59054 WT3  6705 TIP3 H1   HT     0.417000        1.0080           0
   59055 WT3  6705 TIP3 H2   HT     0.417000        1.0080           0
   59056 WT3  6706 TIP3 OH2  OT    -0.834000       15.9994           0
   59057 WT3  6706 TIP3 H1   HT     0.417000        1.0080           0
   59058 WT3  6706 TIP3 H2   HT     0.417000        1.0080           0
   59059 WT3  6707 TIP3 OH2  OT    -0.834000       15.9994           0
   59060 WT3  6707 TIP3 H1   HT     0.417000        1.0080           0
   59061 WT3  6707 TIP3 H2   HT     0.417000        1.0080           0
   59062 WT3  6708 TIP3 OH2  OT    -0.834000       15.9994           0
   59063 WT3  6708 TIP3 H1   HT     0.417000        1.0080           0
   59064 WT3  6708 TIP3 H2   HT     0.417000        1.0080           0
   59065 WT3  6709 TIP3 OH2  OT    -0.834000       15.9994           0
   59066 WT3  6709 TIP3 H1   HT     0.417000        1.0080           0
   59067 WT3  6709 TIP3 H2   HT     0.417000        1.0080           0
   59068 WT3  6710 TIP3 OH2  OT    -0.834000       15.9994           0
   59069 WT3  6710 TIP3 H1   HT     0.417000        1.0080           0
   59070 WT3  6710 TIP3 H2   HT     0.417000        1.0080           0
   59071 WT3  6712 TIP3 OH2  OT    -0.834000       15.9994           0
   59072 WT3  6712 TIP3 H1   HT     0.417000        1.0080           0
   59073 WT3  6712 TIP3 H2   HT     0.417000        1.0080           0
   59074 WT3  6714 TIP3 OH2  OT    -0.834000       15.9994           0
   59075 WT3  6714 TIP3 H1   HT     0.417000        1.0080           0
   59076 WT3  6714 TIP3 H2   HT     0.417000        1.0080           0
   59077 WT3  6715 TIP3 OH2  OT    -0.834000       15.9994           0
   59078 WT3  6715 TIP3 H1   HT     0.417000        1.0080           0
   59079 WT3  6715 TIP3 H2   HT     0.417000        1.0080           0
   59080 WT3  6717 TIP3 OH2  OT    -0.834000       15.9994           0
   59081 WT3  6717 TIP3 H1   HT     0.417000        1.0080           0
   59082 WT3  6717 TIP3 H2   HT     0.417000        1.0080           0
   59083 WT3  6719 TIP3 OH2  OT    -0.834000       15.9994           0
   59084 WT3  6719 TIP3 H1   HT     0.417000        1.0080           0
   59085 WT3  6719 TIP3 H2   HT     0.417000        1.0080           0
   59086 WT3  6721 TIP3 OH2  OT    -0.834000       15.9994           0
   59087 WT3  6721 TIP3 H1   HT     0.417000        1.0080           0
   59088 WT3  6721 TIP3 H2   HT     0.417000        1.0080           0
   59089 WT3  6722 TIP3 OH2  OT    -0.834000       15.9994           0
   59090 WT3  6722 TIP3 H1   HT     0.417000        1.0080           0
   59091 WT3  6722 TIP3 H2   HT     0.417000        1.0080           0
   59092 WT3  6724 TIP3 OH2  OT    -0.834000       15.9994           0
   59093 WT3  6724 TIP3 H1   HT     0.417000        1.0080           0
   59094 WT3  6724 TIP3 H2   HT     0.417000        1.0080           0
   59095 WT3  6725 TIP3 OH2  OT    -0.834000       15.9994           0
   59096 WT3  6725 TIP3 H1   HT     0.417000        1.0080           0
   59097 WT3  6725 TIP3 H2   HT     0.417000        1.0080           0
   59098 WT3  6726 TIP3 OH2  OT    -0.834000       15.9994           0
   59099 WT3  6726 TIP3 H1   HT     0.417000        1.0080           0
   59100 WT3  6726 TIP3 H2   HT     0.417000        1.0080           0
   59101 WT3  6727 TIP3 OH2  OT    -0.834000       15.9994           0
   59102 WT3  6727 TIP3 H1   HT     0.417000        1.0080           0
   59103 WT3  6727 TIP3 H2   HT     0.417000        1.0080           0
   59104 WT3  6728 TIP3 OH2  OT    -0.834000       15.9994           0
   59105 WT3  6728 TIP3 H1   HT     0.417000        1.0080           0
   59106 WT3  6728 TIP3 H2   HT     0.417000        1.0080           0
   59107 WT3  6729 TIP3 OH2  OT    -0.834000       15.9994           0
   59108 WT3  6729 TIP3 H1   HT     0.417000        1.0080           0
   59109 WT3  6729 TIP3 H2   HT     0.417000        1.0080           0
   59110 WT3  6730 TIP3 OH2  OT    -0.834000       15.9994           0
   59111 WT3  6730 TIP3 H1   HT     0.417000        1.0080           0
   59112 WT3  6730 TIP3 H2   HT     0.417000        1.0080           0
   59113 WT3  6731 TIP3 OH2  OT    -0.834000       15.9994           0
   59114 WT3  6731 TIP3 H1   HT     0.417000        1.0080           0
   59115 WT3  6731 TIP3 H2   HT     0.417000        1.0080           0
   59116 WT3  6732 TIP3 OH2  OT    -0.834000       15.9994           0
   59117 WT3  6732 TIP3 H1   HT     0.417000        1.0080           0
   59118 WT3  6732 TIP3 H2   HT     0.417000        1.0080           0
   59119 WT3  6733 TIP3 OH2  OT    -0.834000       15.9994           0
   59120 WT3  6733 TIP3 H1   HT     0.417000        1.0080           0
   59121 WT3  6733 TIP3 H2   HT     0.417000        1.0080           0
   59122 WT3  6734 TIP3 OH2  OT    -0.834000       15.9994           0
   59123 WT3  6734 TIP3 H1   HT     0.417000        1.0080           0
   59124 WT3  6734 TIP3 H2   HT     0.417000        1.0080           0
   59125 WT3  6735 TIP3 OH2  OT    -0.834000       15.9994           0
   59126 WT3  6735 TIP3 H1   HT     0.417000        1.0080           0
   59127 WT3  6735 TIP3 H2   HT     0.417000        1.0080           0
   59128 WT3  6736 TIP3 OH2  OT    -0.834000       15.9994           0
   59129 WT3  6736 TIP3 H1   HT     0.417000        1.0080           0
   59130 WT3  6736 TIP3 H2   HT     0.417000        1.0080           0
   59131 WT3  6737 TIP3 OH2  OT    -0.834000       15.9994           0
   59132 WT3  6737 TIP3 H1   HT     0.417000        1.0080           0
   59133 WT3  6737 TIP3 H2   HT     0.417000        1.0080           0
   59134 WT3  6740 TIP3 OH2  OT    -0.834000       15.9994           0
   59135 WT3  6740 TIP3 H1   HT     0.417000        1.0080           0
   59136 WT3  6740 TIP3 H2   HT     0.417000        1.0080           0
   59137 WT3  6741 TIP3 OH2  OT    -0.834000       15.9994           0
   59138 WT3  6741 TIP3 H1   HT     0.417000        1.0080           0
   59139 WT3  6741 TIP3 H2   HT     0.417000        1.0080           0
   59140 WT3  6742 TIP3 OH2  OT    -0.834000       15.9994           0
   59141 WT3  6742 TIP3 H1   HT     0.417000        1.0080           0
   59142 WT3  6742 TIP3 H2   HT     0.417000        1.0080           0
   59143 WT3  6743 TIP3 OH2  OT    -0.834000       15.9994           0
   59144 WT3  6743 TIP3 H1   HT     0.417000        1.0080           0
   59145 WT3  6743 TIP3 H2   HT     0.417000        1.0080           0
   59146 WT3  6744 TIP3 OH2  OT    -0.834000       15.9994           0
   59147 WT3  6744 TIP3 H1   HT     0.417000        1.0080           0
   59148 WT3  6744 TIP3 H2   HT     0.417000        1.0080           0
   59149 WT3  6745 TIP3 OH2  OT    -0.834000       15.9994           0
   59150 WT3  6745 TIP3 H1   HT     0.417000        1.0080           0
   59151 WT3  6745 TIP3 H2   HT     0.417000        1.0080           0
   59152 WT3  6747 TIP3 OH2  OT    -0.834000       15.9994           0
   59153 WT3  6747 TIP3 H1   HT     0.417000        1.0080           0
   59154 WT3  6747 TIP3 H2   HT     0.417000        1.0080           0
   59155 WT3  6748 TIP3 OH2  OT    -0.834000       15.9994           0
   59156 WT3  6748 TIP3 H1   HT     0.417000        1.0080           0
   59157 WT3  6748 TIP3 H2   HT     0.417000        1.0080           0
   59158 WT3  6749 TIP3 OH2  OT    -0.834000       15.9994           0
   59159 WT3  6749 TIP3 H1   HT     0.417000        1.0080           0
   59160 WT3  6749 TIP3 H2   HT     0.417000        1.0080           0
   59161 WT3  6750 TIP3 OH2  OT    -0.834000       15.9994           0
   59162 WT3  6750 TIP3 H1   HT     0.417000        1.0080           0
   59163 WT3  6750 TIP3 H2   HT     0.417000        1.0080           0
   59164 WT3  6751 TIP3 OH2  OT    -0.834000       15.9994           0
   59165 WT3  6751 TIP3 H1   HT     0.417000        1.0080           0
   59166 WT3  6751 TIP3 H2   HT     0.417000        1.0080           0
   59167 WT3  6752 TIP3 OH2  OT    -0.834000       15.9994           0
   59168 WT3  6752 TIP3 H1   HT     0.417000        1.0080           0
   59169 WT3  6752 TIP3 H2   HT     0.417000        1.0080           0
   59170 WT3  6753 TIP3 OH2  OT    -0.834000       15.9994           0
   59171 WT3  6753 TIP3 H1   HT     0.417000        1.0080           0
   59172 WT3  6753 TIP3 H2   HT     0.417000        1.0080           0
   59173 WT3  6754 TIP3 OH2  OT    -0.834000       15.9994           0
   59174 WT3  6754 TIP3 H1   HT     0.417000        1.0080           0
   59175 WT3  6754 TIP3 H2   HT     0.417000        1.0080           0
   59176 WT3  6755 TIP3 OH2  OT    -0.834000       15.9994           0
   59177 WT3  6755 TIP3 H1   HT     0.417000        1.0080           0
   59178 WT3  6755 TIP3 H2   HT     0.417000        1.0080           0
   59179 WT3  6756 TIP3 OH2  OT    -0.834000       15.9994           0
   59180 WT3  6756 TIP3 H1   HT     0.417000        1.0080           0
   59181 WT3  6756 TIP3 H2   HT     0.417000        1.0080           0
   59182 WT3  6757 TIP3 OH2  OT    -0.834000       15.9994           0
   59183 WT3  6757 TIP3 H1   HT     0.417000        1.0080           0
   59184 WT3  6757 TIP3 H2   HT     0.417000        1.0080           0
   59185 WT3  6758 TIP3 OH2  OT    -0.834000       15.9994           0
   59186 WT3  6758 TIP3 H1   HT     0.417000        1.0080           0
   59187 WT3  6758 TIP3 H2   HT     0.417000        1.0080           0
   59188 WT3  6761 TIP3 OH2  OT    -0.834000       15.9994           0
   59189 WT3  6761 TIP3 H1   HT     0.417000        1.0080           0
   59190 WT3  6761 TIP3 H2   HT     0.417000        1.0080           0
   59191 WT3  6762 TIP3 OH2  OT    -0.834000       15.9994           0
   59192 WT3  6762 TIP3 H1   HT     0.417000        1.0080           0
   59193 WT3  6762 TIP3 H2   HT     0.417000        1.0080           0
   59194 WT3  6763 TIP3 OH2  OT    -0.834000       15.9994           0
   59195 WT3  6763 TIP3 H1   HT     0.417000        1.0080           0
   59196 WT3  6763 TIP3 H2   HT     0.417000        1.0080           0
   59197 WT3  6765 TIP3 OH2  OT    -0.834000       15.9994           0
   59198 WT3  6765 TIP3 H1   HT     0.417000        1.0080           0
   59199 WT3  6765 TIP3 H2   HT     0.417000        1.0080           0
   59200 WT3  6767 TIP3 OH2  OT    -0.834000       15.9994           0
   59201 WT3  6767 TIP3 H1   HT     0.417000        1.0080           0
   59202 WT3  6767 TIP3 H2   HT     0.417000        1.0080           0
   59203 WT3  6768 TIP3 OH2  OT    -0.834000       15.9994           0
   59204 WT3  6768 TIP3 H1   HT     0.417000        1.0080           0
   59205 WT3  6768 TIP3 H2   HT     0.417000        1.0080           0
   59206 WT3  6769 TIP3 OH2  OT    -0.834000       15.9994           0
   59207 WT3  6769 TIP3 H1   HT     0.417000        1.0080           0
   59208 WT3  6769 TIP3 H2   HT     0.417000        1.0080           0
   59209 WT3  6770 TIP3 OH2  OT    -0.834000       15.9994           0
   59210 WT3  6770 TIP3 H1   HT     0.417000        1.0080           0
   59211 WT3  6770 TIP3 H2   HT     0.417000        1.0080           0
   59212 WT3  6771 TIP3 OH2  OT    -0.834000       15.9994           0
   59213 WT3  6771 TIP3 H1   HT     0.417000        1.0080           0
   59214 WT3  6771 TIP3 H2   HT     0.417000        1.0080           0
   59215 WT3  6772 TIP3 OH2  OT    -0.834000       15.9994           0
   59216 WT3  6772 TIP3 H1   HT     0.417000        1.0080           0
   59217 WT3  6772 TIP3 H2   HT     0.417000        1.0080           0
   59218 WT3  6773 TIP3 OH2  OT    -0.834000       15.9994           0
   59219 WT3  6773 TIP3 H1   HT     0.417000        1.0080           0
   59220 WT3  6773 TIP3 H2   HT     0.417000        1.0080           0
   59221 WT3  6774 TIP3 OH2  OT    -0.834000       15.9994           0
   59222 WT3  6774 TIP3 H1   HT     0.417000        1.0080           0
   59223 WT3  6774 TIP3 H2   HT     0.417000        1.0080           0
   59224 WT3  6775 TIP3 OH2  OT    -0.834000       15.9994           0
   59225 WT3  6775 TIP3 H1   HT     0.417000        1.0080           0
   59226 WT3  6775 TIP3 H2   HT     0.417000        1.0080           0
   59227 WT3  6776 TIP3 OH2  OT    -0.834000       15.9994           0
   59228 WT3  6776 TIP3 H1   HT     0.417000        1.0080           0
   59229 WT3  6776 TIP3 H2   HT     0.417000        1.0080           0
   59230 WT3  6777 TIP3 OH2  OT    -0.834000       15.9994           0
   59231 WT3  6777 TIP3 H1   HT     0.417000        1.0080           0
   59232 WT3  6777 TIP3 H2   HT     0.417000        1.0080           0
   59233 WT3  6778 TIP3 OH2  OT    -0.834000       15.9994           0
   59234 WT3  6778 TIP3 H1   HT     0.417000        1.0080           0
   59235 WT3  6778 TIP3 H2   HT     0.417000        1.0080           0
   59236 WT3  6779 TIP3 OH2  OT    -0.834000       15.9994           0
   59237 WT3  6779 TIP3 H1   HT     0.417000        1.0080           0
   59238 WT3  6779 TIP3 H2   HT     0.417000        1.0080           0
   59239 WT3  6782 TIP3 OH2  OT    -0.834000       15.9994           0
   59240 WT3  6782 TIP3 H1   HT     0.417000        1.0080           0
   59241 WT3  6782 TIP3 H2   HT     0.417000        1.0080           0
   59242 WT3  6783 TIP3 OH2  OT    -0.834000       15.9994           0
   59243 WT3  6783 TIP3 H1   HT     0.417000        1.0080           0
   59244 WT3  6783 TIP3 H2   HT     0.417000        1.0080           0
   59245 WT3  6784 TIP3 OH2  OT    -0.834000       15.9994           0
   59246 WT3  6784 TIP3 H1   HT     0.417000        1.0080           0
   59247 WT3  6784 TIP3 H2   HT     0.417000        1.0080           0
   59248 WT3  6785 TIP3 OH2  OT    -0.834000       15.9994           0
   59249 WT3  6785 TIP3 H1   HT     0.417000        1.0080           0
   59250 WT3  6785 TIP3 H2   HT     0.417000        1.0080           0
   59251 WT3  6786 TIP3 OH2  OT    -0.834000       15.9994           0
   59252 WT3  6786 TIP3 H1   HT     0.417000        1.0080           0
   59253 WT3  6786 TIP3 H2   HT     0.417000        1.0080           0
   59254 WT3  6787 TIP3 OH2  OT    -0.834000       15.9994           0
   59255 WT3  6787 TIP3 H1   HT     0.417000        1.0080           0
   59256 WT3  6787 TIP3 H2   HT     0.417000        1.0080           0
   59257 WT3  6788 TIP3 OH2  OT    -0.834000       15.9994           0
   59258 WT3  6788 TIP3 H1   HT     0.417000        1.0080           0
   59259 WT3  6788 TIP3 H2   HT     0.417000        1.0080           0
   59260 WT3  6789 TIP3 OH2  OT    -0.834000       15.9994           0
   59261 WT3  6789 TIP3 H1   HT     0.417000        1.0080           0
   59262 WT3  6789 TIP3 H2   HT     0.417000        1.0080           0
   59263 WT3  6790 TIP3 OH2  OT    -0.834000       15.9994           0
   59264 WT3  6790 TIP3 H1   HT     0.417000        1.0080           0
   59265 WT3  6790 TIP3 H2   HT     0.417000        1.0080           0
   59266 WT3  6791 TIP3 OH2  OT    -0.834000       15.9994           0
   59267 WT3  6791 TIP3 H1   HT     0.417000        1.0080           0
   59268 WT3  6791 TIP3 H2   HT     0.417000        1.0080           0
   59269 WT3  6792 TIP3 OH2  OT    -0.834000       15.9994           0
   59270 WT3  6792 TIP3 H1   HT     0.417000        1.0080           0
   59271 WT3  6792 TIP3 H2   HT     0.417000        1.0080           0
   59272 WT3  6793 TIP3 OH2  OT    -0.834000       15.9994           0
   59273 WT3  6793 TIP3 H1   HT     0.417000        1.0080           0
   59274 WT3  6793 TIP3 H2   HT     0.417000        1.0080           0
   59275 WT3  6794 TIP3 OH2  OT    -0.834000       15.9994           0
   59276 WT3  6794 TIP3 H1   HT     0.417000        1.0080           0
   59277 WT3  6794 TIP3 H2   HT     0.417000        1.0080           0
   59278 WT3  6795 TIP3 OH2  OT    -0.834000       15.9994           0
   59279 WT3  6795 TIP3 H1   HT     0.417000        1.0080           0
   59280 WT3  6795 TIP3 H2   HT     0.417000        1.0080           0
   59281 WT3  6797 TIP3 OH2  OT    -0.834000       15.9994           0
   59282 WT3  6797 TIP3 H1   HT     0.417000        1.0080           0
   59283 WT3  6797 TIP3 H2   HT     0.417000        1.0080           0
   59284 WT3  6798 TIP3 OH2  OT    -0.834000       15.9994           0
   59285 WT3  6798 TIP3 H1   HT     0.417000        1.0080           0
   59286 WT3  6798 TIP3 H2   HT     0.417000        1.0080           0
   59287 WT3  6800 TIP3 OH2  OT    -0.834000       15.9994           0
   59288 WT3  6800 TIP3 H1   HT     0.417000        1.0080           0
   59289 WT3  6800 TIP3 H2   HT     0.417000        1.0080           0
   59290 WT3  6801 TIP3 OH2  OT    -0.834000       15.9994           0
   59291 WT3  6801 TIP3 H1   HT     0.417000        1.0080           0
   59292 WT3  6801 TIP3 H2   HT     0.417000        1.0080           0
   59293 WT3  6802 TIP3 OH2  OT    -0.834000       15.9994           0
   59294 WT3  6802 TIP3 H1   HT     0.417000        1.0080           0
   59295 WT3  6802 TIP3 H2   HT     0.417000        1.0080           0
   59296 WT3  6803 TIP3 OH2  OT    -0.834000       15.9994           0
   59297 WT3  6803 TIP3 H1   HT     0.417000        1.0080           0
   59298 WT3  6803 TIP3 H2   HT     0.417000        1.0080           0
   59299 WT3  6804 TIP3 OH2  OT    -0.834000       15.9994           0
   59300 WT3  6804 TIP3 H1   HT     0.417000        1.0080           0
   59301 WT3  6804 TIP3 H2   HT     0.417000        1.0080           0
   59302 WT3  6807 TIP3 OH2  OT    -0.834000       15.9994           0
   59303 WT3  6807 TIP3 H1   HT     0.417000        1.0080           0
   59304 WT3  6807 TIP3 H2   HT     0.417000        1.0080           0
   59305 WT3  6808 TIP3 OH2  OT    -0.834000       15.9994           0
   59306 WT3  6808 TIP3 H1   HT     0.417000        1.0080           0
   59307 WT3  6808 TIP3 H2   HT     0.417000        1.0080           0
   59308 WT3  6809 TIP3 OH2  OT    -0.834000       15.9994           0
   59309 WT3  6809 TIP3 H1   HT     0.417000        1.0080           0
   59310 WT3  6809 TIP3 H2   HT     0.417000        1.0080           0
   59311 WT3  6810 TIP3 OH2  OT    -0.834000       15.9994           0
   59312 WT3  6810 TIP3 H1   HT     0.417000        1.0080           0
   59313 WT3  6810 TIP3 H2   HT     0.417000        1.0080           0
   59314 WT3  6812 TIP3 OH2  OT    -0.834000       15.9994           0
   59315 WT3  6812 TIP3 H1   HT     0.417000        1.0080           0
   59316 WT3  6812 TIP3 H2   HT     0.417000        1.0080           0
   59317 WT3  6813 TIP3 OH2  OT    -0.834000       15.9994           0
   59318 WT3  6813 TIP3 H1   HT     0.417000        1.0080           0
   59319 WT3  6813 TIP3 H2   HT     0.417000        1.0080           0
   59320 WT3  6814 TIP3 OH2  OT    -0.834000       15.9994           0
   59321 WT3  6814 TIP3 H1   HT     0.417000        1.0080           0
   59322 WT3  6814 TIP3 H2   HT     0.417000        1.0080           0
   59323 WT3  6816 TIP3 OH2  OT    -0.834000       15.9994           0
   59324 WT3  6816 TIP3 H1   HT     0.417000        1.0080           0
   59325 WT3  6816 TIP3 H2   HT     0.417000        1.0080           0
   59326 WT3  6817 TIP3 OH2  OT    -0.834000       15.9994           0
   59327 WT3  6817 TIP3 H1   HT     0.417000        1.0080           0
   59328 WT3  6817 TIP3 H2   HT     0.417000        1.0080           0
   59329 WT3  6819 TIP3 OH2  OT    -0.834000       15.9994           0
   59330 WT3  6819 TIP3 H1   HT     0.417000        1.0080           0
   59331 WT3  6819 TIP3 H2   HT     0.417000        1.0080           0
   59332 WT3  6820 TIP3 OH2  OT    -0.834000       15.9994           0
   59333 WT3  6820 TIP3 H1   HT     0.417000        1.0080           0
   59334 WT3  6820 TIP3 H2   HT     0.417000        1.0080           0
   59335 WT3  6821 TIP3 OH2  OT    -0.834000       15.9994           0
   59336 WT3  6821 TIP3 H1   HT     0.417000        1.0080           0
   59337 WT3  6821 TIP3 H2   HT     0.417000        1.0080           0
   59338 WT3  6822 TIP3 OH2  OT    -0.834000       15.9994           0
   59339 WT3  6822 TIP3 H1   HT     0.417000        1.0080           0
   59340 WT3  6822 TIP3 H2   HT     0.417000        1.0080           0
   59341 WT3  6823 TIP3 OH2  OT    -0.834000       15.9994           0
   59342 WT3  6823 TIP3 H1   HT     0.417000        1.0080           0
   59343 WT3  6823 TIP3 H2   HT     0.417000        1.0080           0
   59344 WT3  6825 TIP3 OH2  OT    -0.834000       15.9994           0
   59345 WT3  6825 TIP3 H1   HT     0.417000        1.0080           0
   59346 WT3  6825 TIP3 H2   HT     0.417000        1.0080           0
   59347 WT3  6826 TIP3 OH2  OT    -0.834000       15.9994           0
   59348 WT3  6826 TIP3 H1   HT     0.417000        1.0080           0
   59349 WT3  6826 TIP3 H2   HT     0.417000        1.0080           0
   59350 WT3  6827 TIP3 OH2  OT    -0.834000       15.9994           0
   59351 WT3  6827 TIP3 H1   HT     0.417000        1.0080           0
   59352 WT3  6827 TIP3 H2   HT     0.417000        1.0080           0
   59353 WT3  6828 TIP3 OH2  OT    -0.834000       15.9994           0
   59354 WT3  6828 TIP3 H1   HT     0.417000        1.0080           0
   59355 WT3  6828 TIP3 H2   HT     0.417000        1.0080           0
   59356 WT3  6829 TIP3 OH2  OT    -0.834000       15.9994           0
   59357 WT3  6829 TIP3 H1   HT     0.417000        1.0080           0
   59358 WT3  6829 TIP3 H2   HT     0.417000        1.0080           0
   59359 WT3  6831 TIP3 OH2  OT    -0.834000       15.9994           0
   59360 WT3  6831 TIP3 H1   HT     0.417000        1.0080           0
   59361 WT3  6831 TIP3 H2   HT     0.417000        1.0080           0
   59362 WT3  6832 TIP3 OH2  OT    -0.834000       15.9994           0
   59363 WT3  6832 TIP3 H1   HT     0.417000        1.0080           0
   59364 WT3  6832 TIP3 H2   HT     0.417000        1.0080           0
   59365 WT3  6834 TIP3 OH2  OT    -0.834000       15.9994           0
   59366 WT3  6834 TIP3 H1   HT     0.417000        1.0080           0
   59367 WT3  6834 TIP3 H2   HT     0.417000        1.0080           0
   59368 WT3  6835 TIP3 OH2  OT    -0.834000       15.9994           0
   59369 WT3  6835 TIP3 H1   HT     0.417000        1.0080           0
   59370 WT3  6835 TIP3 H2   HT     0.417000        1.0080           0
   59371 WT3  6837 TIP3 OH2  OT    -0.834000       15.9994           0
   59372 WT3  6837 TIP3 H1   HT     0.417000        1.0080           0
   59373 WT3  6837 TIP3 H2   HT     0.417000        1.0080           0
   59374 WT3  6838 TIP3 OH2  OT    -0.834000       15.9994           0
   59375 WT3  6838 TIP3 H1   HT     0.417000        1.0080           0
   59376 WT3  6838 TIP3 H2   HT     0.417000        1.0080           0
   59377 WT3  6839 TIP3 OH2  OT    -0.834000       15.9994           0
   59378 WT3  6839 TIP3 H1   HT     0.417000        1.0080           0
   59379 WT3  6839 TIP3 H2   HT     0.417000        1.0080           0
   59380 WT3  6840 TIP3 OH2  OT    -0.834000       15.9994           0
   59381 WT3  6840 TIP3 H1   HT     0.417000        1.0080           0
   59382 WT3  6840 TIP3 H2   HT     0.417000        1.0080           0
   59383 WT3  6841 TIP3 OH2  OT    -0.834000       15.9994           0
   59384 WT3  6841 TIP3 H1   HT     0.417000        1.0080           0
   59385 WT3  6841 TIP3 H2   HT     0.417000        1.0080           0
   59386 WT3  6842 TIP3 OH2  OT    -0.834000       15.9994           0
   59387 WT3  6842 TIP3 H1   HT     0.417000        1.0080           0
   59388 WT3  6842 TIP3 H2   HT     0.417000        1.0080           0
   59389 WT3  6844 TIP3 OH2  OT    -0.834000       15.9994           0
   59390 WT3  6844 TIP3 H1   HT     0.417000        1.0080           0
   59391 WT3  6844 TIP3 H2   HT     0.417000        1.0080           0
   59392 WT3  6845 TIP3 OH2  OT    -0.834000       15.9994           0
   59393 WT3  6845 TIP3 H1   HT     0.417000        1.0080           0
   59394 WT3  6845 TIP3 H2   HT     0.417000        1.0080           0
   59395 WT3  6846 TIP3 OH2  OT    -0.834000       15.9994           0
   59396 WT3  6846 TIP3 H1   HT     0.417000        1.0080           0
   59397 WT3  6846 TIP3 H2   HT     0.417000        1.0080           0
   59398 WT3  6847 TIP3 OH2  OT    -0.834000       15.9994           0
   59399 WT3  6847 TIP3 H1   HT     0.417000        1.0080           0
   59400 WT3  6847 TIP3 H2   HT     0.417000        1.0080           0
   59401 WT3  6848 TIP3 OH2  OT    -0.834000       15.9994           0
   59402 WT3  6848 TIP3 H1   HT     0.417000        1.0080           0
   59403 WT3  6848 TIP3 H2   HT     0.417000        1.0080           0
   59404 WT3  6849 TIP3 OH2  OT    -0.834000       15.9994           0
   59405 WT3  6849 TIP3 H1   HT     0.417000        1.0080           0
   59406 WT3  6849 TIP3 H2   HT     0.417000        1.0080           0
   59407 WT3  6850 TIP3 OH2  OT    -0.834000       15.9994           0
   59408 WT3  6850 TIP3 H1   HT     0.417000        1.0080           0
   59409 WT3  6850 TIP3 H2   HT     0.417000        1.0080           0
   59410 WT3  6851 TIP3 OH2  OT    -0.834000       15.9994           0
   59411 WT3  6851 TIP3 H1   HT     0.417000        1.0080           0
   59412 WT3  6851 TIP3 H2   HT     0.417000        1.0080           0
   59413 WT3  6853 TIP3 OH2  OT    -0.834000       15.9994           0
   59414 WT3  6853 TIP3 H1   HT     0.417000        1.0080           0
   59415 WT3  6853 TIP3 H2   HT     0.417000        1.0080           0
   59416 WT3  6854 TIP3 OH2  OT    -0.834000       15.9994           0
   59417 WT3  6854 TIP3 H1   HT     0.417000        1.0080           0
   59418 WT3  6854 TIP3 H2   HT     0.417000        1.0080           0
   59419 WT3  6855 TIP3 OH2  OT    -0.834000       15.9994           0
   59420 WT3  6855 TIP3 H1   HT     0.417000        1.0080           0
   59421 WT3  6855 TIP3 H2   HT     0.417000        1.0080           0
   59422 WT3  6856 TIP3 OH2  OT    -0.834000       15.9994           0
   59423 WT3  6856 TIP3 H1   HT     0.417000        1.0080           0
   59424 WT3  6856 TIP3 H2   HT     0.417000        1.0080           0
   59425 WT3  6857 TIP3 OH2  OT    -0.834000       15.9994           0
   59426 WT3  6857 TIP3 H1   HT     0.417000        1.0080           0
   59427 WT3  6857 TIP3 H2   HT     0.417000        1.0080           0
   59428 WT3  6858 TIP3 OH2  OT    -0.834000       15.9994           0
   59429 WT3  6858 TIP3 H1   HT     0.417000        1.0080           0
   59430 WT3  6858 TIP3 H2   HT     0.417000        1.0080           0
   59431 WT3  6861 TIP3 OH2  OT    -0.834000       15.9994           0
   59432 WT3  6861 TIP3 H1   HT     0.417000        1.0080           0
   59433 WT3  6861 TIP3 H2   HT     0.417000        1.0080           0
   59434 WT3  6862 TIP3 OH2  OT    -0.834000       15.9994           0
   59435 WT3  6862 TIP3 H1   HT     0.417000        1.0080           0
   59436 WT3  6862 TIP3 H2   HT     0.417000        1.0080           0
   59437 WT3  6863 TIP3 OH2  OT    -0.834000       15.9994           0
   59438 WT3  6863 TIP3 H1   HT     0.417000        1.0080           0
   59439 WT3  6863 TIP3 H2   HT     0.417000        1.0080           0
   59440 WT3  6864 TIP3 OH2  OT    -0.834000       15.9994           0
   59441 WT3  6864 TIP3 H1   HT     0.417000        1.0080           0
   59442 WT3  6864 TIP3 H2   HT     0.417000        1.0080           0
   59443 WT3  6865 TIP3 OH2  OT    -0.834000       15.9994           0
   59444 WT3  6865 TIP3 H1   HT     0.417000        1.0080           0
   59445 WT3  6865 TIP3 H2   HT     0.417000        1.0080           0
   59446 WT3  6866 TIP3 OH2  OT    -0.834000       15.9994           0
   59447 WT3  6866 TIP3 H1   HT     0.417000        1.0080           0
   59448 WT3  6866 TIP3 H2   HT     0.417000        1.0080           0
   59449 WT3  6867 TIP3 OH2  OT    -0.834000       15.9994           0
   59450 WT3  6867 TIP3 H1   HT     0.417000        1.0080           0
   59451 WT3  6867 TIP3 H2   HT     0.417000        1.0080           0
   59452 WT3  6869 TIP3 OH2  OT    -0.834000       15.9994           0
   59453 WT3  6869 TIP3 H1   HT     0.417000        1.0080           0
   59454 WT3  6869 TIP3 H2   HT     0.417000        1.0080           0
   59455 WT3  6870 TIP3 OH2  OT    -0.834000       15.9994           0
   59456 WT3  6870 TIP3 H1   HT     0.417000        1.0080           0
   59457 WT3  6870 TIP3 H2   HT     0.417000        1.0080           0
   59458 WT3  6872 TIP3 OH2  OT    -0.834000       15.9994           0
   59459 WT3  6872 TIP3 H1   HT     0.417000        1.0080           0
   59460 WT3  6872 TIP3 H2   HT     0.417000        1.0080           0
   59461 WT3  6874 TIP3 OH2  OT    -0.834000       15.9994           0
   59462 WT3  6874 TIP3 H1   HT     0.417000        1.0080           0
   59463 WT3  6874 TIP3 H2   HT     0.417000        1.0080           0
   59464 WT3  6875 TIP3 OH2  OT    -0.834000       15.9994           0
   59465 WT3  6875 TIP3 H1   HT     0.417000        1.0080           0
   59466 WT3  6875 TIP3 H2   HT     0.417000        1.0080           0
   59467 WT3  6876 TIP3 OH2  OT    -0.834000       15.9994           0
   59468 WT3  6876 TIP3 H1   HT     0.417000        1.0080           0
   59469 WT3  6876 TIP3 H2   HT     0.417000        1.0080           0
   59470 WT3  6877 TIP3 OH2  OT    -0.834000       15.9994           0
   59471 WT3  6877 TIP3 H1   HT     0.417000        1.0080           0
   59472 WT3  6877 TIP3 H2   HT     0.417000        1.0080           0
   59473 WT3  6878 TIP3 OH2  OT    -0.834000       15.9994           0
   59474 WT3  6878 TIP3 H1   HT     0.417000        1.0080           0
   59475 WT3  6878 TIP3 H2   HT     0.417000        1.0080           0
   59476 WT3  6879 TIP3 OH2  OT    -0.834000       15.9994           0
   59477 WT3  6879 TIP3 H1   HT     0.417000        1.0080           0
   59478 WT3  6879 TIP3 H2   HT     0.417000        1.0080           0
   59479 WT3  6880 TIP3 OH2  OT    -0.834000       15.9994           0
   59480 WT3  6880 TIP3 H1   HT     0.417000        1.0080           0
   59481 WT3  6880 TIP3 H2   HT     0.417000        1.0080           0
   59482 WT3  6881 TIP3 OH2  OT    -0.834000       15.9994           0
   59483 WT3  6881 TIP3 H1   HT     0.417000        1.0080           0
   59484 WT3  6881 TIP3 H2   HT     0.417000        1.0080           0
   59485 WT3  6882 TIP3 OH2  OT    -0.834000       15.9994           0
   59486 WT3  6882 TIP3 H1   HT     0.417000        1.0080           0
   59487 WT3  6882 TIP3 H2   HT     0.417000        1.0080           0
   59488 WT3  6885 TIP3 OH2  OT    -0.834000       15.9994           0
   59489 WT3  6885 TIP3 H1   HT     0.417000        1.0080           0
   59490 WT3  6885 TIP3 H2   HT     0.417000        1.0080           0
   59491 WT3  6887 TIP3 OH2  OT    -0.834000       15.9994           0
   59492 WT3  6887 TIP3 H1   HT     0.417000        1.0080           0
   59493 WT3  6887 TIP3 H2   HT     0.417000        1.0080           0
   59494 WT3  6892 TIP3 OH2  OT    -0.834000       15.9994           0
   59495 WT3  6892 TIP3 H1   HT     0.417000        1.0080           0
   59496 WT3  6892 TIP3 H2   HT     0.417000        1.0080           0
   59497 WT3  6895 TIP3 OH2  OT    -0.834000       15.9994           0
   59498 WT3  6895 TIP3 H1   HT     0.417000        1.0080           0
   59499 WT3  6895 TIP3 H2   HT     0.417000        1.0080           0
   59500 WT3  6896 TIP3 OH2  OT    -0.834000       15.9994           0
   59501 WT3  6896 TIP3 H1   HT     0.417000        1.0080           0
   59502 WT3  6896 TIP3 H2   HT     0.417000        1.0080           0
   59503 WT3  6897 TIP3 OH2  OT    -0.834000       15.9994           0
   59504 WT3  6897 TIP3 H1   HT     0.417000        1.0080           0
   59505 WT3  6897 TIP3 H2   HT     0.417000        1.0080           0
   59506 WT3  6898 TIP3 OH2  OT    -0.834000       15.9994           0
   59507 WT3  6898 TIP3 H1   HT     0.417000        1.0080           0
   59508 WT3  6898 TIP3 H2   HT     0.417000        1.0080           0
   59509 WT3  6899 TIP3 OH2  OT    -0.834000       15.9994           0
   59510 WT3  6899 TIP3 H1   HT     0.417000        1.0080           0
   59511 WT3  6899 TIP3 H2   HT     0.417000        1.0080           0
   59512 WT3  6901 TIP3 OH2  OT    -0.834000       15.9994           0
   59513 WT3  6901 TIP3 H1   HT     0.417000        1.0080           0
   59514 WT3  6901 TIP3 H2   HT     0.417000        1.0080           0
   59515 WT3  6902 TIP3 OH2  OT    -0.834000       15.9994           0
   59516 WT3  6902 TIP3 H1   HT     0.417000        1.0080           0
   59517 WT3  6902 TIP3 H2   HT     0.417000        1.0080           0
   59518 WT3  6905 TIP3 OH2  OT    -0.834000       15.9994           0
   59519 WT3  6905 TIP3 H1   HT     0.417000        1.0080           0
   59520 WT3  6905 TIP3 H2   HT     0.417000        1.0080           0
   59521 WT3  6906 TIP3 OH2  OT    -0.834000       15.9994           0
   59522 WT3  6906 TIP3 H1   HT     0.417000        1.0080           0
   59523 WT3  6906 TIP3 H2   HT     0.417000        1.0080           0
   59524 WT3  6909 TIP3 OH2  OT    -0.834000       15.9994           0
   59525 WT3  6909 TIP3 H1   HT     0.417000        1.0080           0
   59526 WT3  6909 TIP3 H2   HT     0.417000        1.0080           0
   59527 WT3  6911 TIP3 OH2  OT    -0.834000       15.9994           0
   59528 WT3  6911 TIP3 H1   HT     0.417000        1.0080           0
   59529 WT3  6911 TIP3 H2   HT     0.417000        1.0080           0
   59530 WT3  6912 TIP3 OH2  OT    -0.834000       15.9994           0
   59531 WT3  6912 TIP3 H1   HT     0.417000        1.0080           0
   59532 WT3  6912 TIP3 H2   HT     0.417000        1.0080           0
   59533 WT3  6914 TIP3 OH2  OT    -0.834000       15.9994           0
   59534 WT3  6914 TIP3 H1   HT     0.417000        1.0080           0
   59535 WT3  6914 TIP3 H2   HT     0.417000        1.0080           0
   59536 WT3  6915 TIP3 OH2  OT    -0.834000       15.9994           0
   59537 WT3  6915 TIP3 H1   HT     0.417000        1.0080           0
   59538 WT3  6915 TIP3 H2   HT     0.417000        1.0080           0
   59539 WT3  6916 TIP3 OH2  OT    -0.834000       15.9994           0
   59540 WT3  6916 TIP3 H1   HT     0.417000        1.0080           0
   59541 WT3  6916 TIP3 H2   HT     0.417000        1.0080           0
   59542 WT3  6917 TIP3 OH2  OT    -0.834000       15.9994           0
   59543 WT3  6917 TIP3 H1   HT     0.417000        1.0080           0
   59544 WT3  6917 TIP3 H2   HT     0.417000        1.0080           0
   59545 WT3  6921 TIP3 OH2  OT    -0.834000       15.9994           0
   59546 WT3  6921 TIP3 H1   HT     0.417000        1.0080           0
   59547 WT3  6921 TIP3 H2   HT     0.417000        1.0080           0
   59548 WT3  6926 TIP3 OH2  OT    -0.834000       15.9994           0
   59549 WT3  6926 TIP3 H1   HT     0.417000        1.0080           0
   59550 WT3  6926 TIP3 H2   HT     0.417000        1.0080           0
   59551 WT3  6929 TIP3 OH2  OT    -0.834000       15.9994           0
   59552 WT3  6929 TIP3 H1   HT     0.417000        1.0080           0
   59553 WT3  6929 TIP3 H2   HT     0.417000        1.0080           0
   59554 WT3  6934 TIP3 OH2  OT    -0.834000       15.9994           0
   59555 WT3  6934 TIP3 H1   HT     0.417000        1.0080           0
   59556 WT3  6934 TIP3 H2   HT     0.417000        1.0080           0
   59557 WT3  6941 TIP3 OH2  OT    -0.834000       15.9994           0
   59558 WT3  6941 TIP3 H1   HT     0.417000        1.0080           0
   59559 WT3  6941 TIP3 H2   HT     0.417000        1.0080           0
   59560 WT3  6944 TIP3 OH2  OT    -0.834000       15.9994           0
   59561 WT3  6944 TIP3 H1   HT     0.417000        1.0080           0
   59562 WT3  6944 TIP3 H2   HT     0.417000        1.0080           0
   59563 WT3  6946 TIP3 OH2  OT    -0.834000       15.9994           0
   59564 WT3  6946 TIP3 H1   HT     0.417000        1.0080           0
   59565 WT3  6946 TIP3 H2   HT     0.417000        1.0080           0
   59566 WT3  6947 TIP3 OH2  OT    -0.834000       15.9994           0
   59567 WT3  6947 TIP3 H1   HT     0.417000        1.0080           0
   59568 WT3  6947 TIP3 H2   HT     0.417000        1.0080           0
   59569 WT3  6949 TIP3 OH2  OT    -0.834000       15.9994           0
   59570 WT3  6949 TIP3 H1   HT     0.417000        1.0080           0
   59571 WT3  6949 TIP3 H2   HT     0.417000        1.0080           0
   59572 WT3  6952 TIP3 OH2  OT    -0.834000       15.9994           0
   59573 WT3  6952 TIP3 H1   HT     0.417000        1.0080           0
   59574 WT3  6952 TIP3 H2   HT     0.417000        1.0080           0
   59575 WT3  6955 TIP3 OH2  OT    -0.834000       15.9994           0
   59576 WT3  6955 TIP3 H1   HT     0.417000        1.0080           0
   59577 WT3  6955 TIP3 H2   HT     0.417000        1.0080           0
   59578 WT3  6962 TIP3 OH2  OT    -0.834000       15.9994           0
   59579 WT3  6962 TIP3 H1   HT     0.417000        1.0080           0
   59580 WT3  6962 TIP3 H2   HT     0.417000        1.0080           0
   59581 WT3  6968 TIP3 OH2  OT    -0.834000       15.9994           0
   59582 WT3  6968 TIP3 H1   HT     0.417000        1.0080           0
   59583 WT3  6968 TIP3 H2   HT     0.417000        1.0080           0
   59584 WT3  6969 TIP3 OH2  OT    -0.834000       15.9994           0
   59585 WT3  6969 TIP3 H1   HT     0.417000        1.0080           0
   59586 WT3  6969 TIP3 H2   HT     0.417000        1.0080           0
   59587 WT3  6975 TIP3 OH2  OT    -0.834000       15.9994           0
   59588 WT3  6975 TIP3 H1   HT     0.417000        1.0080           0
   59589 WT3  6975 TIP3 H2   HT     0.417000        1.0080           0
   59590 WT3  6976 TIP3 OH2  OT    -0.834000       15.9994           0
   59591 WT3  6976 TIP3 H1   HT     0.417000        1.0080           0
   59592 WT3  6976 TIP3 H2   HT     0.417000        1.0080           0
   59593 WT3  6979 TIP3 OH2  OT    -0.834000       15.9994           0
   59594 WT3  6979 TIP3 H1   HT     0.417000        1.0080           0
   59595 WT3  6979 TIP3 H2   HT     0.417000        1.0080           0
   59596 WT3  6988 TIP3 OH2  OT    -0.834000       15.9994           0
   59597 WT3  6988 TIP3 H1   HT     0.417000        1.0080           0
   59598 WT3  6988 TIP3 H2   HT     0.417000        1.0080           0
   59599 WT3  6994 TIP3 OH2  OT    -0.834000       15.9994           0
   59600 WT3  6994 TIP3 H1   HT     0.417000        1.0080           0
   59601 WT3  6994 TIP3 H2   HT     0.417000        1.0080           0
   59602 WT3  6999 TIP3 OH2  OT    -0.834000       15.9994           0
   59603 WT3  6999 TIP3 H1   HT     0.417000        1.0080           0
   59604 WT3  6999 TIP3 H2   HT     0.417000        1.0080           0
   59605 WT3  7001 TIP3 OH2  OT    -0.834000       15.9994           0
   59606 WT3  7001 TIP3 H1   HT     0.417000        1.0080           0
   59607 WT3  7001 TIP3 H2   HT     0.417000        1.0080           0
   59608 WT3  7003 TIP3 OH2  OT    -0.834000       15.9994           0
   59609 WT3  7003 TIP3 H1   HT     0.417000        1.0080           0
   59610 WT3  7003 TIP3 H2   HT     0.417000        1.0080           0
   59611 WT3  7012 TIP3 OH2  OT    -0.834000       15.9994           0
   59612 WT3  7012 TIP3 H1   HT     0.417000        1.0080           0
   59613 WT3  7012 TIP3 H2   HT     0.417000        1.0080           0
   59614 WT3  7016 TIP3 OH2  OT    -0.834000       15.9994           0
   59615 WT3  7016 TIP3 H1   HT     0.417000        1.0080           0
   59616 WT3  7016 TIP3 H2   HT     0.417000        1.0080           0
   59617 WT3  7017 TIP3 OH2  OT    -0.834000       15.9994           0
   59618 WT3  7017 TIP3 H1   HT     0.417000        1.0080           0
   59619 WT3  7017 TIP3 H2   HT     0.417000        1.0080           0
   59620 WT3  7019 TIP3 OH2  OT    -0.834000       15.9994           0
   59621 WT3  7019 TIP3 H1   HT     0.417000        1.0080           0
   59622 WT3  7019 TIP3 H2   HT     0.417000        1.0080           0
   59623 WT3  7020 TIP3 OH2  OT    -0.834000       15.9994           0
   59624 WT3  7020 TIP3 H1   HT     0.417000        1.0080           0
   59625 WT3  7020 TIP3 H2   HT     0.417000        1.0080           0
   59626 WT3  7021 TIP3 OH2  OT    -0.834000       15.9994           0
   59627 WT3  7021 TIP3 H1   HT     0.417000        1.0080           0
   59628 WT3  7021 TIP3 H2   HT     0.417000        1.0080           0
   59629 WT3  7023 TIP3 OH2  OT    -0.834000       15.9994           0
   59630 WT3  7023 TIP3 H1   HT     0.417000        1.0080           0
   59631 WT3  7023 TIP3 H2   HT     0.417000        1.0080           0
   59632 WT3  7027 TIP3 OH2  OT    -0.834000       15.9994           0
   59633 WT3  7027 TIP3 H1   HT     0.417000        1.0080           0
   59634 WT3  7027 TIP3 H2   HT     0.417000        1.0080           0
   59635 WT3  7029 TIP3 OH2  OT    -0.834000       15.9994           0
   59636 WT3  7029 TIP3 H1   HT     0.417000        1.0080           0
   59637 WT3  7029 TIP3 H2   HT     0.417000        1.0080           0
   59638 WT3  7040 TIP3 OH2  OT    -0.834000       15.9994           0
   59639 WT3  7040 TIP3 H1   HT     0.417000        1.0080           0
   59640 WT3  7040 TIP3 H2   HT     0.417000        1.0080           0
   59641 WT3  7041 TIP3 OH2  OT    -0.834000       15.9994           0
   59642 WT3  7041 TIP3 H1   HT     0.417000        1.0080           0
   59643 WT3  7041 TIP3 H2   HT     0.417000        1.0080           0
   59644 WT3  7042 TIP3 OH2  OT    -0.834000       15.9994           0
   59645 WT3  7042 TIP3 H1   HT     0.417000        1.0080           0
   59646 WT3  7042 TIP3 H2   HT     0.417000        1.0080           0
   59647 WT3  7043 TIP3 OH2  OT    -0.834000       15.9994           0
   59648 WT3  7043 TIP3 H1   HT     0.417000        1.0080           0
   59649 WT3  7043 TIP3 H2   HT     0.417000        1.0080           0
   59650 WT3  7046 TIP3 OH2  OT    -0.834000       15.9994           0
   59651 WT3  7046 TIP3 H1   HT     0.417000        1.0080           0
   59652 WT3  7046 TIP3 H2   HT     0.417000        1.0080           0
   59653 WT3  7050 TIP3 OH2  OT    -0.834000       15.9994           0
   59654 WT3  7050 TIP3 H1   HT     0.417000        1.0080           0
   59655 WT3  7050 TIP3 H2   HT     0.417000        1.0080           0
   59656 WT3  7051 TIP3 OH2  OT    -0.834000       15.9994           0
   59657 WT3  7051 TIP3 H1   HT     0.417000        1.0080           0
   59658 WT3  7051 TIP3 H2   HT     0.417000        1.0080           0
   59659 WT3  7052 TIP3 OH2  OT    -0.834000       15.9994           0
   59660 WT3  7052 TIP3 H1   HT     0.417000        1.0080           0
   59661 WT3  7052 TIP3 H2   HT     0.417000        1.0080           0
   59662 WT3  7054 TIP3 OH2  OT    -0.834000       15.9994           0
   59663 WT3  7054 TIP3 H1   HT     0.417000        1.0080           0
   59664 WT3  7054 TIP3 H2   HT     0.417000        1.0080           0
   59665 WT3  7056 TIP3 OH2  OT    -0.834000       15.9994           0
   59666 WT3  7056 TIP3 H1   HT     0.417000        1.0080           0
   59667 WT3  7056 TIP3 H2   HT     0.417000        1.0080           0
   59668 WT3  7058 TIP3 OH2  OT    -0.834000       15.9994           0
   59669 WT3  7058 TIP3 H1   HT     0.417000        1.0080           0
   59670 WT3  7058 TIP3 H2   HT     0.417000        1.0080           0
   59671 WT3  7059 TIP3 OH2  OT    -0.834000       15.9994           0
   59672 WT3  7059 TIP3 H1   HT     0.417000        1.0080           0
   59673 WT3  7059 TIP3 H2   HT     0.417000        1.0080           0
   59674 WT3  7060 TIP3 OH2  OT    -0.834000       15.9994           0
   59675 WT3  7060 TIP3 H1   HT     0.417000        1.0080           0
   59676 WT3  7060 TIP3 H2   HT     0.417000        1.0080           0
   59677 WT3  7062 TIP3 OH2  OT    -0.834000       15.9994           0
   59678 WT3  7062 TIP3 H1   HT     0.417000        1.0080           0
   59679 WT3  7062 TIP3 H2   HT     0.417000        1.0080           0
   59680 WT3  7063 TIP3 OH2  OT    -0.834000       15.9994           0
   59681 WT3  7063 TIP3 H1   HT     0.417000        1.0080           0
   59682 WT3  7063 TIP3 H2   HT     0.417000        1.0080           0
   59683 WT3  7065 TIP3 OH2  OT    -0.834000       15.9994           0
   59684 WT3  7065 TIP3 H1   HT     0.417000        1.0080           0
   59685 WT3  7065 TIP3 H2   HT     0.417000        1.0080           0
   59686 WT3  7067 TIP3 OH2  OT    -0.834000       15.9994           0
   59687 WT3  7067 TIP3 H1   HT     0.417000        1.0080           0
   59688 WT3  7067 TIP3 H2   HT     0.417000        1.0080           0
   59689 WT3  7068 TIP3 OH2  OT    -0.834000       15.9994           0
   59690 WT3  7068 TIP3 H1   HT     0.417000        1.0080           0
   59691 WT3  7068 TIP3 H2   HT     0.417000        1.0080           0
   59692 WT3  7069 TIP3 OH2  OT    -0.834000       15.9994           0
   59693 WT3  7069 TIP3 H1   HT     0.417000        1.0080           0
   59694 WT3  7069 TIP3 H2   HT     0.417000        1.0080           0
   59695 WT3  7071 TIP3 OH2  OT    -0.834000       15.9994           0
   59696 WT3  7071 TIP3 H1   HT     0.417000        1.0080           0
   59697 WT3  7071 TIP3 H2   HT     0.417000        1.0080           0
   59698 WT3  7073 TIP3 OH2  OT    -0.834000       15.9994           0
   59699 WT3  7073 TIP3 H1   HT     0.417000        1.0080           0
   59700 WT3  7073 TIP3 H2   HT     0.417000        1.0080           0
   59701 WT3  7076 TIP3 OH2  OT    -0.834000       15.9994           0
   59702 WT3  7076 TIP3 H1   HT     0.417000        1.0080           0
   59703 WT3  7076 TIP3 H2   HT     0.417000        1.0080           0
   59704 WT3  7077 TIP3 OH2  OT    -0.834000       15.9994           0
   59705 WT3  7077 TIP3 H1   HT     0.417000        1.0080           0
   59706 WT3  7077 TIP3 H2   HT     0.417000        1.0080           0
   59707 WT3  7078 TIP3 OH2  OT    -0.834000       15.9994           0
   59708 WT3  7078 TIP3 H1   HT     0.417000        1.0080           0
   59709 WT3  7078 TIP3 H2   HT     0.417000        1.0080           0
   59710 WT3  7081 TIP3 OH2  OT    -0.834000       15.9994           0
   59711 WT3  7081 TIP3 H1   HT     0.417000        1.0080           0
   59712 WT3  7081 TIP3 H2   HT     0.417000        1.0080           0
   59713 WT3  7082 TIP3 OH2  OT    -0.834000       15.9994           0
   59714 WT3  7082 TIP3 H1   HT     0.417000        1.0080           0
   59715 WT3  7082 TIP3 H2   HT     0.417000        1.0080           0
   59716 WT3  7083 TIP3 OH2  OT    -0.834000       15.9994           0
   59717 WT3  7083 TIP3 H1   HT     0.417000        1.0080           0
   59718 WT3  7083 TIP3 H2   HT     0.417000        1.0080           0
   59719 WT3  7085 TIP3 OH2  OT    -0.834000       15.9994           0
   59720 WT3  7085 TIP3 H1   HT     0.417000        1.0080           0
   59721 WT3  7085 TIP3 H2   HT     0.417000        1.0080           0
   59722 WT3  7086 TIP3 OH2  OT    -0.834000       15.9994           0
   59723 WT3  7086 TIP3 H1   HT     0.417000        1.0080           0
   59724 WT3  7086 TIP3 H2   HT     0.417000        1.0080           0
   59725 WT3  7088 TIP3 OH2  OT    -0.834000       15.9994           0
   59726 WT3  7088 TIP3 H1   HT     0.417000        1.0080           0
   59727 WT3  7088 TIP3 H2   HT     0.417000        1.0080           0
   59728 WT3  7089 TIP3 OH2  OT    -0.834000       15.9994           0
   59729 WT3  7089 TIP3 H1   HT     0.417000        1.0080           0
   59730 WT3  7089 TIP3 H2   HT     0.417000        1.0080           0
   59731 WT3  7091 TIP3 OH2  OT    -0.834000       15.9994           0
   59732 WT3  7091 TIP3 H1   HT     0.417000        1.0080           0
   59733 WT3  7091 TIP3 H2   HT     0.417000        1.0080           0
   59734 WT3  7095 TIP3 OH2  OT    -0.834000       15.9994           0
   59735 WT3  7095 TIP3 H1   HT     0.417000        1.0080           0
   59736 WT3  7095 TIP3 H2   HT     0.417000        1.0080           0
   59737 WT3  7098 TIP3 OH2  OT    -0.834000       15.9994           0
   59738 WT3  7098 TIP3 H1   HT     0.417000        1.0080           0
   59739 WT3  7098 TIP3 H2   HT     0.417000        1.0080           0
   59740 WT3  7099 TIP3 OH2  OT    -0.834000       15.9994           0
   59741 WT3  7099 TIP3 H1   HT     0.417000        1.0080           0
   59742 WT3  7099 TIP3 H2   HT     0.417000        1.0080           0
   59743 WT3  7101 TIP3 OH2  OT    -0.834000       15.9994           0
   59744 WT3  7101 TIP3 H1   HT     0.417000        1.0080           0
   59745 WT3  7101 TIP3 H2   HT     0.417000        1.0080           0
   59746 WT3  7102 TIP3 OH2  OT    -0.834000       15.9994           0
   59747 WT3  7102 TIP3 H1   HT     0.417000        1.0080           0
   59748 WT3  7102 TIP3 H2   HT     0.417000        1.0080           0
   59749 WT3  7103 TIP3 OH2  OT    -0.834000       15.9994           0
   59750 WT3  7103 TIP3 H1   HT     0.417000        1.0080           0
   59751 WT3  7103 TIP3 H2   HT     0.417000        1.0080           0
   59752 WT3  7104 TIP3 OH2  OT    -0.834000       15.9994           0
   59753 WT3  7104 TIP3 H1   HT     0.417000        1.0080           0
   59754 WT3  7104 TIP3 H2   HT     0.417000        1.0080           0
   59755 WT3  7105 TIP3 OH2  OT    -0.834000       15.9994           0
   59756 WT3  7105 TIP3 H1   HT     0.417000        1.0080           0
   59757 WT3  7105 TIP3 H2   HT     0.417000        1.0080           0
   59758 WT3  7106 TIP3 OH2  OT    -0.834000       15.9994           0
   59759 WT3  7106 TIP3 H1   HT     0.417000        1.0080           0
   59760 WT3  7106 TIP3 H2   HT     0.417000        1.0080           0
   59761 WT3  7109 TIP3 OH2  OT    -0.834000       15.9994           0
   59762 WT3  7109 TIP3 H1   HT     0.417000        1.0080           0
   59763 WT3  7109 TIP3 H2   HT     0.417000        1.0080           0
   59764 WT3  7110 TIP3 OH2  OT    -0.834000       15.9994           0
   59765 WT3  7110 TIP3 H1   HT     0.417000        1.0080           0
   59766 WT3  7110 TIP3 H2   HT     0.417000        1.0080           0
   59767 WT3  7111 TIP3 OH2  OT    -0.834000       15.9994           0
   59768 WT3  7111 TIP3 H1   HT     0.417000        1.0080           0
   59769 WT3  7111 TIP3 H2   HT     0.417000        1.0080           0
   59770 WT3  7112 TIP3 OH2  OT    -0.834000       15.9994           0
   59771 WT3  7112 TIP3 H1   HT     0.417000        1.0080           0
   59772 WT3  7112 TIP3 H2   HT     0.417000        1.0080           0
   59773 WT3  7114 TIP3 OH2  OT    -0.834000       15.9994           0
   59774 WT3  7114 TIP3 H1   HT     0.417000        1.0080           0
   59775 WT3  7114 TIP3 H2   HT     0.417000        1.0080           0
   59776 WT3  7117 TIP3 OH2  OT    -0.834000       15.9994           0
   59777 WT3  7117 TIP3 H1   HT     0.417000        1.0080           0
   59778 WT3  7117 TIP3 H2   HT     0.417000        1.0080           0
   59779 WT3  7118 TIP3 OH2  OT    -0.834000       15.9994           0
   59780 WT3  7118 TIP3 H1   HT     0.417000        1.0080           0
   59781 WT3  7118 TIP3 H2   HT     0.417000        1.0080           0
   59782 WT3  7120 TIP3 OH2  OT    -0.834000       15.9994           0
   59783 WT3  7120 TIP3 H1   HT     0.417000        1.0080           0
   59784 WT3  7120 TIP3 H2   HT     0.417000        1.0080           0
   59785 WT3  7121 TIP3 OH2  OT    -0.834000       15.9994           0
   59786 WT3  7121 TIP3 H1   HT     0.417000        1.0080           0
   59787 WT3  7121 TIP3 H2   HT     0.417000        1.0080           0
   59788 WT3  7122 TIP3 OH2  OT    -0.834000       15.9994           0
   59789 WT3  7122 TIP3 H1   HT     0.417000        1.0080           0
   59790 WT3  7122 TIP3 H2   HT     0.417000        1.0080           0
   59791 WT3  7123 TIP3 OH2  OT    -0.834000       15.9994           0
   59792 WT3  7123 TIP3 H1   HT     0.417000        1.0080           0
   59793 WT3  7123 TIP3 H2   HT     0.417000        1.0080           0
   59794 WT3  7125 TIP3 OH2  OT    -0.834000       15.9994           0
   59795 WT3  7125 TIP3 H1   HT     0.417000        1.0080           0
   59796 WT3  7125 TIP3 H2   HT     0.417000        1.0080           0
   59797 WT3  7126 TIP3 OH2  OT    -0.834000       15.9994           0
   59798 WT3  7126 TIP3 H1   HT     0.417000        1.0080           0
   59799 WT3  7126 TIP3 H2   HT     0.417000        1.0080           0
   59800 WT3  7127 TIP3 OH2  OT    -0.834000       15.9994           0
   59801 WT3  7127 TIP3 H1   HT     0.417000        1.0080           0
   59802 WT3  7127 TIP3 H2   HT     0.417000        1.0080           0
   59803 WT3  7128 TIP3 OH2  OT    -0.834000       15.9994           0
   59804 WT3  7128 TIP3 H1   HT     0.417000        1.0080           0
   59805 WT3  7128 TIP3 H2   HT     0.417000        1.0080           0
   59806 WT3  7129 TIP3 OH2  OT    -0.834000       15.9994           0
   59807 WT3  7129 TIP3 H1   HT     0.417000        1.0080           0
   59808 WT3  7129 TIP3 H2   HT     0.417000        1.0080           0
   59809 WT3  7130 TIP3 OH2  OT    -0.834000       15.9994           0
   59810 WT3  7130 TIP3 H1   HT     0.417000        1.0080           0
   59811 WT3  7130 TIP3 H2   HT     0.417000        1.0080           0
   59812 WT3  7131 TIP3 OH2  OT    -0.834000       15.9994           0
   59813 WT3  7131 TIP3 H1   HT     0.417000        1.0080           0
   59814 WT3  7131 TIP3 H2   HT     0.417000        1.0080           0
   59815 WT3  7132 TIP3 OH2  OT    -0.834000       15.9994           0
   59816 WT3  7132 TIP3 H1   HT     0.417000        1.0080           0
   59817 WT3  7132 TIP3 H2   HT     0.417000        1.0080           0
   59818 WT3  7133 TIP3 OH2  OT    -0.834000       15.9994           0
   59819 WT3  7133 TIP3 H1   HT     0.417000        1.0080           0
   59820 WT3  7133 TIP3 H2   HT     0.417000        1.0080           0
   59821 WT3  7134 TIP3 OH2  OT    -0.834000       15.9994           0
   59822 WT3  7134 TIP3 H1   HT     0.417000        1.0080           0
   59823 WT3  7134 TIP3 H2   HT     0.417000        1.0080           0
   59824 WT3  7135 TIP3 OH2  OT    -0.834000       15.9994           0
   59825 WT3  7135 TIP3 H1   HT     0.417000        1.0080           0
   59826 WT3  7135 TIP3 H2   HT     0.417000        1.0080           0
   59827 WT3  7139 TIP3 OH2  OT    -0.834000       15.9994           0
   59828 WT3  7139 TIP3 H1   HT     0.417000        1.0080           0
   59829 WT3  7139 TIP3 H2   HT     0.417000        1.0080           0
   59830 WT3  7140 TIP3 OH2  OT    -0.834000       15.9994           0
   59831 WT3  7140 TIP3 H1   HT     0.417000        1.0080           0
   59832 WT3  7140 TIP3 H2   HT     0.417000        1.0080           0
   59833 WT3  7141 TIP3 OH2  OT    -0.834000       15.9994           0
   59834 WT3  7141 TIP3 H1   HT     0.417000        1.0080           0
   59835 WT3  7141 TIP3 H2   HT     0.417000        1.0080           0
   59836 WT3  7142 TIP3 OH2  OT    -0.834000       15.9994           0
   59837 WT3  7142 TIP3 H1   HT     0.417000        1.0080           0
   59838 WT3  7142 TIP3 H2   HT     0.417000        1.0080           0
   59839 WT3  7143 TIP3 OH2  OT    -0.834000       15.9994           0
   59840 WT3  7143 TIP3 H1   HT     0.417000        1.0080           0
   59841 WT3  7143 TIP3 H2   HT     0.417000        1.0080           0
   59842 WT3  7144 TIP3 OH2  OT    -0.834000       15.9994           0
   59843 WT3  7144 TIP3 H1   HT     0.417000        1.0080           0
   59844 WT3  7144 TIP3 H2   HT     0.417000        1.0080           0
   59845 WT3  7145 TIP3 OH2  OT    -0.834000       15.9994           0
   59846 WT3  7145 TIP3 H1   HT     0.417000        1.0080           0
   59847 WT3  7145 TIP3 H2   HT     0.417000        1.0080           0
   59848 WT3  7146 TIP3 OH2  OT    -0.834000       15.9994           0
   59849 WT3  7146 TIP3 H1   HT     0.417000        1.0080           0
   59850 WT3  7146 TIP3 H2   HT     0.417000        1.0080           0
   59851 WT3  7147 TIP3 OH2  OT    -0.834000       15.9994           0
   59852 WT3  7147 TIP3 H1   HT     0.417000        1.0080           0
   59853 WT3  7147 TIP3 H2   HT     0.417000        1.0080           0
   59854 WT3  7148 TIP3 OH2  OT    -0.834000       15.9994           0
   59855 WT3  7148 TIP3 H1   HT     0.417000        1.0080           0
   59856 WT3  7148 TIP3 H2   HT     0.417000        1.0080           0
   59857 WT3  7149 TIP3 OH2  OT    -0.834000       15.9994           0
   59858 WT3  7149 TIP3 H1   HT     0.417000        1.0080           0
   59859 WT3  7149 TIP3 H2   HT     0.417000        1.0080           0
   59860 WT3  7150 TIP3 OH2  OT    -0.834000       15.9994           0
   59861 WT3  7150 TIP3 H1   HT     0.417000        1.0080           0
   59862 WT3  7150 TIP3 H2   HT     0.417000        1.0080           0
   59863 WT3  7151 TIP3 OH2  OT    -0.834000       15.9994           0
   59864 WT3  7151 TIP3 H1   HT     0.417000        1.0080           0
   59865 WT3  7151 TIP3 H2   HT     0.417000        1.0080           0
   59866 WT3  7152 TIP3 OH2  OT    -0.834000       15.9994           0
   59867 WT3  7152 TIP3 H1   HT     0.417000        1.0080           0
   59868 WT3  7152 TIP3 H2   HT     0.417000        1.0080           0
   59869 WT3  7153 TIP3 OH2  OT    -0.834000       15.9994           0
   59870 WT3  7153 TIP3 H1   HT     0.417000        1.0080           0
   59871 WT3  7153 TIP3 H2   HT     0.417000        1.0080           0
   59872 WT3  7154 TIP3 OH2  OT    -0.834000       15.9994           0
   59873 WT3  7154 TIP3 H1   HT     0.417000        1.0080           0
   59874 WT3  7154 TIP3 H2   HT     0.417000        1.0080           0
   59875 WT3  7157 TIP3 OH2  OT    -0.834000       15.9994           0
   59876 WT3  7157 TIP3 H1   HT     0.417000        1.0080           0
   59877 WT3  7157 TIP3 H2   HT     0.417000        1.0080           0
   59878 WT3  7160 TIP3 OH2  OT    -0.834000       15.9994           0
   59879 WT3  7160 TIP3 H1   HT     0.417000        1.0080           0
   59880 WT3  7160 TIP3 H2   HT     0.417000        1.0080           0
   59881 WT3  7161 TIP3 OH2  OT    -0.834000       15.9994           0
   59882 WT3  7161 TIP3 H1   HT     0.417000        1.0080           0
   59883 WT3  7161 TIP3 H2   HT     0.417000        1.0080           0
   59884 WT3  7162 TIP3 OH2  OT    -0.834000       15.9994           0
   59885 WT3  7162 TIP3 H1   HT     0.417000        1.0080           0
   59886 WT3  7162 TIP3 H2   HT     0.417000        1.0080           0
   59887 WT3  7164 TIP3 OH2  OT    -0.834000       15.9994           0
   59888 WT3  7164 TIP3 H1   HT     0.417000        1.0080           0
   59889 WT3  7164 TIP3 H2   HT     0.417000        1.0080           0
   59890 WT3  7165 TIP3 OH2  OT    -0.834000       15.9994           0
   59891 WT3  7165 TIP3 H1   HT     0.417000        1.0080           0
   59892 WT3  7165 TIP3 H2   HT     0.417000        1.0080           0
   59893 WT3  7166 TIP3 OH2  OT    -0.834000       15.9994           0
   59894 WT3  7166 TIP3 H1   HT     0.417000        1.0080           0
   59895 WT3  7166 TIP3 H2   HT     0.417000        1.0080           0
   59896 WT3  7167 TIP3 OH2  OT    -0.834000       15.9994           0
   59897 WT3  7167 TIP3 H1   HT     0.417000        1.0080           0
   59898 WT3  7167 TIP3 H2   HT     0.417000        1.0080           0
   59899 WT3  7168 TIP3 OH2  OT    -0.834000       15.9994           0
   59900 WT3  7168 TIP3 H1   HT     0.417000        1.0080           0
   59901 WT3  7168 TIP3 H2   HT     0.417000        1.0080           0
   59902 WT3  7169 TIP3 OH2  OT    -0.834000       15.9994           0
   59903 WT3  7169 TIP3 H1   HT     0.417000        1.0080           0
   59904 WT3  7169 TIP3 H2   HT     0.417000        1.0080           0
   59905 WT3  7170 TIP3 OH2  OT    -0.834000       15.9994           0
   59906 WT3  7170 TIP3 H1   HT     0.417000        1.0080           0
   59907 WT3  7170 TIP3 H2   HT     0.417000        1.0080           0
   59908 WT3  7171 TIP3 OH2  OT    -0.834000       15.9994           0
   59909 WT3  7171 TIP3 H1   HT     0.417000        1.0080           0
   59910 WT3  7171 TIP3 H2   HT     0.417000        1.0080           0
   59911 WT3  7172 TIP3 OH2  OT    -0.834000       15.9994           0
   59912 WT3  7172 TIP3 H1   HT     0.417000        1.0080           0
   59913 WT3  7172 TIP3 H2   HT     0.417000        1.0080           0
   59914 WT3  7173 TIP3 OH2  OT    -0.834000       15.9994           0
   59915 WT3  7173 TIP3 H1   HT     0.417000        1.0080           0
   59916 WT3  7173 TIP3 H2   HT     0.417000        1.0080           0
   59917 WT3  7174 TIP3 OH2  OT    -0.834000       15.9994           0
   59918 WT3  7174 TIP3 H1   HT     0.417000        1.0080           0
   59919 WT3  7174 TIP3 H2   HT     0.417000        1.0080           0
   59920 WT3  7175 TIP3 OH2  OT    -0.834000       15.9994           0
   59921 WT3  7175 TIP3 H1   HT     0.417000        1.0080           0
   59922 WT3  7175 TIP3 H2   HT     0.417000        1.0080           0
   59923 WT3  7176 TIP3 OH2  OT    -0.834000       15.9994           0
   59924 WT3  7176 TIP3 H1   HT     0.417000        1.0080           0
   59925 WT3  7176 TIP3 H2   HT     0.417000        1.0080           0
   59926 WT3  7177 TIP3 OH2  OT    -0.834000       15.9994           0
   59927 WT3  7177 TIP3 H1   HT     0.417000        1.0080           0
   59928 WT3  7177 TIP3 H2   HT     0.417000        1.0080           0
   59929 WT3  7178 TIP3 OH2  OT    -0.834000       15.9994           0
   59930 WT3  7178 TIP3 H1   HT     0.417000        1.0080           0
   59931 WT3  7178 TIP3 H2   HT     0.417000        1.0080           0
   59932 WT3  7179 TIP3 OH2  OT    -0.834000       15.9994           0
   59933 WT3  7179 TIP3 H1   HT     0.417000        1.0080           0
   59934 WT3  7179 TIP3 H2   HT     0.417000        1.0080           0
   59935 WT3  7180 TIP3 OH2  OT    -0.834000       15.9994           0
   59936 WT3  7180 TIP3 H1   HT     0.417000        1.0080           0
   59937 WT3  7180 TIP3 H2   HT     0.417000        1.0080           0
   59938 WT3  7181 TIP3 OH2  OT    -0.834000       15.9994           0
   59939 WT3  7181 TIP3 H1   HT     0.417000        1.0080           0
   59940 WT3  7181 TIP3 H2   HT     0.417000        1.0080           0
   59941 WT3  7182 TIP3 OH2  OT    -0.834000       15.9994           0
   59942 WT3  7182 TIP3 H1   HT     0.417000        1.0080           0
   59943 WT3  7182 TIP3 H2   HT     0.417000        1.0080           0
   59944 WT3  7183 TIP3 OH2  OT    -0.834000       15.9994           0
   59945 WT3  7183 TIP3 H1   HT     0.417000        1.0080           0
   59946 WT3  7183 TIP3 H2   HT     0.417000        1.0080           0
   59947 WT3  7184 TIP3 OH2  OT    -0.834000       15.9994           0
   59948 WT3  7184 TIP3 H1   HT     0.417000        1.0080           0
   59949 WT3  7184 TIP3 H2   HT     0.417000        1.0080           0
   59950 WT3  7185 TIP3 OH2  OT    -0.834000       15.9994           0
   59951 WT3  7185 TIP3 H1   HT     0.417000        1.0080           0
   59952 WT3  7185 TIP3 H2   HT     0.417000        1.0080           0
   59953 WT3  7186 TIP3 OH2  OT    -0.834000       15.9994           0
   59954 WT3  7186 TIP3 H1   HT     0.417000        1.0080           0
   59955 WT3  7186 TIP3 H2   HT     0.417000        1.0080           0
   59956 WT3  7187 TIP3 OH2  OT    -0.834000       15.9994           0
   59957 WT3  7187 TIP3 H1   HT     0.417000        1.0080           0
   59958 WT3  7187 TIP3 H2   HT     0.417000        1.0080           0
   59959 WT3  7188 TIP3 OH2  OT    -0.834000       15.9994           0
   59960 WT3  7188 TIP3 H1   HT     0.417000        1.0080           0
   59961 WT3  7188 TIP3 H2   HT     0.417000        1.0080           0
   59962 WT3  7189 TIP3 OH2  OT    -0.834000       15.9994           0
   59963 WT3  7189 TIP3 H1   HT     0.417000        1.0080           0
   59964 WT3  7189 TIP3 H2   HT     0.417000        1.0080           0
   59965 WT3  7190 TIP3 OH2  OT    -0.834000       15.9994           0
   59966 WT3  7190 TIP3 H1   HT     0.417000        1.0080           0
   59967 WT3  7190 TIP3 H2   HT     0.417000        1.0080           0
   59968 WT3  7191 TIP3 OH2  OT    -0.834000       15.9994           0
   59969 WT3  7191 TIP3 H1   HT     0.417000        1.0080           0
   59970 WT3  7191 TIP3 H2   HT     0.417000        1.0080           0
   59971 WT3  7192 TIP3 OH2  OT    -0.834000       15.9994           0
   59972 WT3  7192 TIP3 H1   HT     0.417000        1.0080           0
   59973 WT3  7192 TIP3 H2   HT     0.417000        1.0080           0
   59974 WT3  7193 TIP3 OH2  OT    -0.834000       15.9994           0
   59975 WT3  7193 TIP3 H1   HT     0.417000        1.0080           0
   59976 WT3  7193 TIP3 H2   HT     0.417000        1.0080           0
   59977 WT3  7194 TIP3 OH2  OT    -0.834000       15.9994           0
   59978 WT3  7194 TIP3 H1   HT     0.417000        1.0080           0
   59979 WT3  7194 TIP3 H2   HT     0.417000        1.0080           0
   59980 WT3  7195 TIP3 OH2  OT    -0.834000       15.9994           0
   59981 WT3  7195 TIP3 H1   HT     0.417000        1.0080           0
   59982 WT3  7195 TIP3 H2   HT     0.417000        1.0080           0
   59983 WT3  7196 TIP3 OH2  OT    -0.834000       15.9994           0
   59984 WT3  7196 TIP3 H1   HT     0.417000        1.0080           0
   59985 WT3  7196 TIP3 H2   HT     0.417000        1.0080           0
   59986 WT3  7197 TIP3 OH2  OT    -0.834000       15.9994           0
   59987 WT3  7197 TIP3 H1   HT     0.417000        1.0080           0
   59988 WT3  7197 TIP3 H2   HT     0.417000        1.0080           0
   59989 WT3  7198 TIP3 OH2  OT    -0.834000       15.9994           0
   59990 WT3  7198 TIP3 H1   HT     0.417000        1.0080           0
   59991 WT3  7198 TIP3 H2   HT     0.417000        1.0080           0
   59992 WT3  7200 TIP3 OH2  OT    -0.834000       15.9994           0
   59993 WT3  7200 TIP3 H1   HT     0.417000        1.0080           0
   59994 WT3  7200 TIP3 H2   HT     0.417000        1.0080           0
   59995 WT3  7201 TIP3 OH2  OT    -0.834000       15.9994           0
   59996 WT3  7201 TIP3 H1   HT     0.417000        1.0080           0
   59997 WT3  7201 TIP3 H2   HT     0.417000        1.0080           0
   59998 WT3  7202 TIP3 OH2  OT    -0.834000       15.9994           0
   59999 WT3  7202 TIP3 H1   HT     0.417000        1.0080           0
   60000 WT3  7202 TIP3 H2   HT     0.417000        1.0080           0
   60001 WT3  7203 TIP3 OH2  OT    -0.834000       15.9994           0
   60002 WT3  7203 TIP3 H1   HT     0.417000        1.0080           0
   60003 WT3  7203 TIP3 H2   HT     0.417000        1.0080           0
   60004 WT3  7204 TIP3 OH2  OT    -0.834000       15.9994           0
   60005 WT3  7204 TIP3 H1   HT     0.417000        1.0080           0
   60006 WT3  7204 TIP3 H2   HT     0.417000        1.0080           0
   60007 WT3  7205 TIP3 OH2  OT    -0.834000       15.9994           0
   60008 WT3  7205 TIP3 H1   HT     0.417000        1.0080           0
   60009 WT3  7205 TIP3 H2   HT     0.417000        1.0080           0
   60010 WT3  7206 TIP3 OH2  OT    -0.834000       15.9994           0
   60011 WT3  7206 TIP3 H1   HT     0.417000        1.0080           0
   60012 WT3  7206 TIP3 H2   HT     0.417000        1.0080           0
   60013 WT3  7207 TIP3 OH2  OT    -0.834000       15.9994           0
   60014 WT3  7207 TIP3 H1   HT     0.417000        1.0080           0
   60015 WT3  7207 TIP3 H2   HT     0.417000        1.0080           0
   60016 WT3  7208 TIP3 OH2  OT    -0.834000       15.9994           0
   60017 WT3  7208 TIP3 H1   HT     0.417000        1.0080           0
   60018 WT3  7208 TIP3 H2   HT     0.417000        1.0080           0
   60019 WT3  7209 TIP3 OH2  OT    -0.834000       15.9994           0
   60020 WT3  7209 TIP3 H1   HT     0.417000        1.0080           0
   60021 WT3  7209 TIP3 H2   HT     0.417000        1.0080           0
   60022 WT3  7210 TIP3 OH2  OT    -0.834000       15.9994           0
   60023 WT3  7210 TIP3 H1   HT     0.417000        1.0080           0
   60024 WT3  7210 TIP3 H2   HT     0.417000        1.0080           0
   60025 WT3  7211 TIP3 OH2  OT    -0.834000       15.9994           0
   60026 WT3  7211 TIP3 H1   HT     0.417000        1.0080           0
   60027 WT3  7211 TIP3 H2   HT     0.417000        1.0080           0
   60028 WT3  7212 TIP3 OH2  OT    -0.834000       15.9994           0
   60029 WT3  7212 TIP3 H1   HT     0.417000        1.0080           0
   60030 WT3  7212 TIP3 H2   HT     0.417000        1.0080           0
   60031 WT3  7213 TIP3 OH2  OT    -0.834000       15.9994           0
   60032 WT3  7213 TIP3 H1   HT     0.417000        1.0080           0
   60033 WT3  7213 TIP3 H2   HT     0.417000        1.0080           0
   60034 WT3  7215 TIP3 OH2  OT    -0.834000       15.9994           0
   60035 WT3  7215 TIP3 H1   HT     0.417000        1.0080           0
   60036 WT3  7215 TIP3 H2   HT     0.417000        1.0080           0
   60037 WT3  7216 TIP3 OH2  OT    -0.834000       15.9994           0
   60038 WT3  7216 TIP3 H1   HT     0.417000        1.0080           0
   60039 WT3  7216 TIP3 H2   HT     0.417000        1.0080           0
   60040 WT3  7217 TIP3 OH2  OT    -0.834000       15.9994           0
   60041 WT3  7217 TIP3 H1   HT     0.417000        1.0080           0
   60042 WT3  7217 TIP3 H2   HT     0.417000        1.0080           0
   60043 WT3  7219 TIP3 OH2  OT    -0.834000       15.9994           0
   60044 WT3  7219 TIP3 H1   HT     0.417000        1.0080           0
   60045 WT3  7219 TIP3 H2   HT     0.417000        1.0080           0
   60046 WT3  7221 TIP3 OH2  OT    -0.834000       15.9994           0
   60047 WT3  7221 TIP3 H1   HT     0.417000        1.0080           0
   60048 WT3  7221 TIP3 H2   HT     0.417000        1.0080           0
   60049 WT3  7222 TIP3 OH2  OT    -0.834000       15.9994           0
   60050 WT3  7222 TIP3 H1   HT     0.417000        1.0080           0
   60051 WT3  7222 TIP3 H2   HT     0.417000        1.0080           0
   60052 WT3  7223 TIP3 OH2  OT    -0.834000       15.9994           0
   60053 WT3  7223 TIP3 H1   HT     0.417000        1.0080           0
   60054 WT3  7223 TIP3 H2   HT     0.417000        1.0080           0
   60055 WT3  7225 TIP3 OH2  OT    -0.834000       15.9994           0
   60056 WT3  7225 TIP3 H1   HT     0.417000        1.0080           0
   60057 WT3  7225 TIP3 H2   HT     0.417000        1.0080           0
   60058 WT3  7226 TIP3 OH2  OT    -0.834000       15.9994           0
   60059 WT3  7226 TIP3 H1   HT     0.417000        1.0080           0
   60060 WT3  7226 TIP3 H2   HT     0.417000        1.0080           0
   60061 WT3  7227 TIP3 OH2  OT    -0.834000       15.9994           0
   60062 WT3  7227 TIP3 H1   HT     0.417000        1.0080           0
   60063 WT3  7227 TIP3 H2   HT     0.417000        1.0080           0
   60064 WT3  7228 TIP3 OH2  OT    -0.834000       15.9994           0
   60065 WT3  7228 TIP3 H1   HT     0.417000        1.0080           0
   60066 WT3  7228 TIP3 H2   HT     0.417000        1.0080           0
   60067 WT3  7229 TIP3 OH2  OT    -0.834000       15.9994           0
   60068 WT3  7229 TIP3 H1   HT     0.417000        1.0080           0
   60069 WT3  7229 TIP3 H2   HT     0.417000        1.0080           0
   60070 WT3  7230 TIP3 OH2  OT    -0.834000       15.9994           0
   60071 WT3  7230 TIP3 H1   HT     0.417000        1.0080           0
   60072 WT3  7230 TIP3 H2   HT     0.417000        1.0080           0
   60073 WT3  7231 TIP3 OH2  OT    -0.834000       15.9994           0
   60074 WT3  7231 TIP3 H1   HT     0.417000        1.0080           0
   60075 WT3  7231 TIP3 H2   HT     0.417000        1.0080           0
   60076 WT3  7232 TIP3 OH2  OT    -0.834000       15.9994           0
   60077 WT3  7232 TIP3 H1   HT     0.417000        1.0080           0
   60078 WT3  7232 TIP3 H2   HT     0.417000        1.0080           0
   60079 WT3  7233 TIP3 OH2  OT    -0.834000       15.9994           0
   60080 WT3  7233 TIP3 H1   HT     0.417000        1.0080           0
   60081 WT3  7233 TIP3 H2   HT     0.417000        1.0080           0
   60082 WT3  7234 TIP3 OH2  OT    -0.834000       15.9994           0
   60083 WT3  7234 TIP3 H1   HT     0.417000        1.0080           0
   60084 WT3  7234 TIP3 H2   HT     0.417000        1.0080           0
   60085 WT3  7235 TIP3 OH2  OT    -0.834000       15.9994           0
   60086 WT3  7235 TIP3 H1   HT     0.417000        1.0080           0
   60087 WT3  7235 TIP3 H2   HT     0.417000        1.0080           0
   60088 WT3  7236 TIP3 OH2  OT    -0.834000       15.9994           0
   60089 WT3  7236 TIP3 H1   HT     0.417000        1.0080           0
   60090 WT3  7236 TIP3 H2   HT     0.417000        1.0080           0
   60091 WT3  7237 TIP3 OH2  OT    -0.834000       15.9994           0
   60092 WT3  7237 TIP3 H1   HT     0.417000        1.0080           0
   60093 WT3  7237 TIP3 H2   HT     0.417000        1.0080           0
   60094 WT3  7238 TIP3 OH2  OT    -0.834000       15.9994           0
   60095 WT3  7238 TIP3 H1   HT     0.417000        1.0080           0
   60096 WT3  7238 TIP3 H2   HT     0.417000        1.0080           0
   60097 WT3  7239 TIP3 OH2  OT    -0.834000       15.9994           0
   60098 WT3  7239 TIP3 H1   HT     0.417000        1.0080           0
   60099 WT3  7239 TIP3 H2   HT     0.417000        1.0080           0
   60100 WT3  7241 TIP3 OH2  OT    -0.834000       15.9994           0
   60101 WT3  7241 TIP3 H1   HT     0.417000        1.0080           0
   60102 WT3  7241 TIP3 H2   HT     0.417000        1.0080           0
   60103 WT3  7242 TIP3 OH2  OT    -0.834000       15.9994           0
   60104 WT3  7242 TIP3 H1   HT     0.417000        1.0080           0
   60105 WT3  7242 TIP3 H2   HT     0.417000        1.0080           0
   60106 WT3  7243 TIP3 OH2  OT    -0.834000       15.9994           0
   60107 WT3  7243 TIP3 H1   HT     0.417000        1.0080           0
   60108 WT3  7243 TIP3 H2   HT     0.417000        1.0080           0
   60109 WT3  7245 TIP3 OH2  OT    -0.834000       15.9994           0
   60110 WT3  7245 TIP3 H1   HT     0.417000        1.0080           0
   60111 WT3  7245 TIP3 H2   HT     0.417000        1.0080           0
   60112 WT3  7246 TIP3 OH2  OT    -0.834000       15.9994           0
   60113 WT3  7246 TIP3 H1   HT     0.417000        1.0080           0
   60114 WT3  7246 TIP3 H2   HT     0.417000        1.0080           0
   60115 WT3  7247 TIP3 OH2  OT    -0.834000       15.9994           0
   60116 WT3  7247 TIP3 H1   HT     0.417000        1.0080           0
   60117 WT3  7247 TIP3 H2   HT     0.417000        1.0080           0
   60118 WT3  7248 TIP3 OH2  OT    -0.834000       15.9994           0
   60119 WT3  7248 TIP3 H1   HT     0.417000        1.0080           0
   60120 WT3  7248 TIP3 H2   HT     0.417000        1.0080           0
   60121 WT3  7249 TIP3 OH2  OT    -0.834000       15.9994           0
   60122 WT3  7249 TIP3 H1   HT     0.417000        1.0080           0
   60123 WT3  7249 TIP3 H2   HT     0.417000        1.0080           0
   60124 WT3  7250 TIP3 OH2  OT    -0.834000       15.9994           0
   60125 WT3  7250 TIP3 H1   HT     0.417000        1.0080           0
   60126 WT3  7250 TIP3 H2   HT     0.417000        1.0080           0
   60127 WT3  7251 TIP3 OH2  OT    -0.834000       15.9994           0
   60128 WT3  7251 TIP3 H1   HT     0.417000        1.0080           0
   60129 WT3  7251 TIP3 H2   HT     0.417000        1.0080           0
   60130 WT3  7252 TIP3 OH2  OT    -0.834000       15.9994           0
   60131 WT3  7252 TIP3 H1   HT     0.417000        1.0080           0
   60132 WT3  7252 TIP3 H2   HT     0.417000        1.0080           0
   60133 WT3  7253 TIP3 OH2  OT    -0.834000       15.9994           0
   60134 WT3  7253 TIP3 H1   HT     0.417000        1.0080           0
   60135 WT3  7253 TIP3 H2   HT     0.417000        1.0080           0
   60136 WT3  7254 TIP3 OH2  OT    -0.834000       15.9994           0
   60137 WT3  7254 TIP3 H1   HT     0.417000        1.0080           0
   60138 WT3  7254 TIP3 H2   HT     0.417000        1.0080           0
   60139 WT3  7256 TIP3 OH2  OT    -0.834000       15.9994           0
   60140 WT3  7256 TIP3 H1   HT     0.417000        1.0080           0
   60141 WT3  7256 TIP3 H2   HT     0.417000        1.0080           0
   60142 WT3  7257 TIP3 OH2  OT    -0.834000       15.9994           0
   60143 WT3  7257 TIP3 H1   HT     0.417000        1.0080           0
   60144 WT3  7257 TIP3 H2   HT     0.417000        1.0080           0
   60145 WT3  7259 TIP3 OH2  OT    -0.834000       15.9994           0
   60146 WT3  7259 TIP3 H1   HT     0.417000        1.0080           0
   60147 WT3  7259 TIP3 H2   HT     0.417000        1.0080           0
   60148 WT3  7260 TIP3 OH2  OT    -0.834000       15.9994           0
   60149 WT3  7260 TIP3 H1   HT     0.417000        1.0080           0
   60150 WT3  7260 TIP3 H2   HT     0.417000        1.0080           0
   60151 WT3  7262 TIP3 OH2  OT    -0.834000       15.9994           0
   60152 WT3  7262 TIP3 H1   HT     0.417000        1.0080           0
   60153 WT3  7262 TIP3 H2   HT     0.417000        1.0080           0
   60154 WT3  7264 TIP3 OH2  OT    -0.834000       15.9994           0
   60155 WT3  7264 TIP3 H1   HT     0.417000        1.0080           0
   60156 WT3  7264 TIP3 H2   HT     0.417000        1.0080           0
   60157 WT3  7265 TIP3 OH2  OT    -0.834000       15.9994           0
   60158 WT3  7265 TIP3 H1   HT     0.417000        1.0080           0
   60159 WT3  7265 TIP3 H2   HT     0.417000        1.0080           0
   60160 WT3  7266 TIP3 OH2  OT    -0.834000       15.9994           0
   60161 WT3  7266 TIP3 H1   HT     0.417000        1.0080           0
   60162 WT3  7266 TIP3 H2   HT     0.417000        1.0080           0
   60163 WT3  7267 TIP3 OH2  OT    -0.834000       15.9994           0
   60164 WT3  7267 TIP3 H1   HT     0.417000        1.0080           0
   60165 WT3  7267 TIP3 H2   HT     0.417000        1.0080           0
   60166 WT3  7268 TIP3 OH2  OT    -0.834000       15.9994           0
   60167 WT3  7268 TIP3 H1   HT     0.417000        1.0080           0
   60168 WT3  7268 TIP3 H2   HT     0.417000        1.0080           0
   60169 WT3  7269 TIP3 OH2  OT    -0.834000       15.9994           0
   60170 WT3  7269 TIP3 H1   HT     0.417000        1.0080           0
   60171 WT3  7269 TIP3 H2   HT     0.417000        1.0080           0
   60172 WT3  7270 TIP3 OH2  OT    -0.834000       15.9994           0
   60173 WT3  7270 TIP3 H1   HT     0.417000        1.0080           0
   60174 WT3  7270 TIP3 H2   HT     0.417000        1.0080           0
   60175 WT3  7272 TIP3 OH2  OT    -0.834000       15.9994           0
   60176 WT3  7272 TIP3 H1   HT     0.417000        1.0080           0
   60177 WT3  7272 TIP3 H2   HT     0.417000        1.0080           0
   60178 WT3  7273 TIP3 OH2  OT    -0.834000       15.9994           0
   60179 WT3  7273 TIP3 H1   HT     0.417000        1.0080           0
   60180 WT3  7273 TIP3 H2   HT     0.417000        1.0080           0
   60181 WT3  7275 TIP3 OH2  OT    -0.834000       15.9994           0
   60182 WT3  7275 TIP3 H1   HT     0.417000        1.0080           0
   60183 WT3  7275 TIP3 H2   HT     0.417000        1.0080           0
   60184 WT3  7276 TIP3 OH2  OT    -0.834000       15.9994           0
   60185 WT3  7276 TIP3 H1   HT     0.417000        1.0080           0
   60186 WT3  7276 TIP3 H2   HT     0.417000        1.0080           0
   60187 WT3  7277 TIP3 OH2  OT    -0.834000       15.9994           0
   60188 WT3  7277 TIP3 H1   HT     0.417000        1.0080           0
   60189 WT3  7277 TIP3 H2   HT     0.417000        1.0080           0
   60190 WT3  7279 TIP3 OH2  OT    -0.834000       15.9994           0
   60191 WT3  7279 TIP3 H1   HT     0.417000        1.0080           0
   60192 WT3  7279 TIP3 H2   HT     0.417000        1.0080           0
   60193 WT3  7280 TIP3 OH2  OT    -0.834000       15.9994           0
   60194 WT3  7280 TIP3 H1   HT     0.417000        1.0080           0
   60195 WT3  7280 TIP3 H2   HT     0.417000        1.0080           0
   60196 WT3  7281 TIP3 OH2  OT    -0.834000       15.9994           0
   60197 WT3  7281 TIP3 H1   HT     0.417000        1.0080           0
   60198 WT3  7281 TIP3 H2   HT     0.417000        1.0080           0
   60199 WT3  7282 TIP3 OH2  OT    -0.834000       15.9994           0
   60200 WT3  7282 TIP3 H1   HT     0.417000        1.0080           0
   60201 WT3  7282 TIP3 H2   HT     0.417000        1.0080           0
   60202 WT3  7283 TIP3 OH2  OT    -0.834000       15.9994           0
   60203 WT3  7283 TIP3 H1   HT     0.417000        1.0080           0
   60204 WT3  7283 TIP3 H2   HT     0.417000        1.0080           0
   60205 WT3  7287 TIP3 OH2  OT    -0.834000       15.9994           0
   60206 WT3  7287 TIP3 H1   HT     0.417000        1.0080           0
   60207 WT3  7287 TIP3 H2   HT     0.417000        1.0080           0
   60208 WT3  7288 TIP3 OH2  OT    -0.834000       15.9994           0
   60209 WT3  7288 TIP3 H1   HT     0.417000        1.0080           0
   60210 WT3  7288 TIP3 H2   HT     0.417000        1.0080           0
   60211 WT3  7289 TIP3 OH2  OT    -0.834000       15.9994           0
   60212 WT3  7289 TIP3 H1   HT     0.417000        1.0080           0
   60213 WT3  7289 TIP3 H2   HT     0.417000        1.0080           0
   60214 WT3  7290 TIP3 OH2  OT    -0.834000       15.9994           0
   60215 WT3  7290 TIP3 H1   HT     0.417000        1.0080           0
   60216 WT3  7290 TIP3 H2   HT     0.417000        1.0080           0
   60217 WT3  7291 TIP3 OH2  OT    -0.834000       15.9994           0
   60218 WT3  7291 TIP3 H1   HT     0.417000        1.0080           0
   60219 WT3  7291 TIP3 H2   HT     0.417000        1.0080           0
   60220 WT3  7295 TIP3 OH2  OT    -0.834000       15.9994           0
   60221 WT3  7295 TIP3 H1   HT     0.417000        1.0080           0
   60222 WT3  7295 TIP3 H2   HT     0.417000        1.0080           0
   60223 WT3  7296 TIP3 OH2  OT    -0.834000       15.9994           0
   60224 WT3  7296 TIP3 H1   HT     0.417000        1.0080           0
   60225 WT3  7296 TIP3 H2   HT     0.417000        1.0080           0
   60226 WT3  7297 TIP3 OH2  OT    -0.834000       15.9994           0
   60227 WT3  7297 TIP3 H1   HT     0.417000        1.0080           0
   60228 WT3  7297 TIP3 H2   HT     0.417000        1.0080           0
   60229 WT3  7298 TIP3 OH2  OT    -0.834000       15.9994           0
   60230 WT3  7298 TIP3 H1   HT     0.417000        1.0080           0
   60231 WT3  7298 TIP3 H2   HT     0.417000        1.0080           0
   60232 WT3  7299 TIP3 OH2  OT    -0.834000       15.9994           0
   60233 WT3  7299 TIP3 H1   HT     0.417000        1.0080           0
   60234 WT3  7299 TIP3 H2   HT     0.417000        1.0080           0
   60235 WT3  7300 TIP3 OH2  OT    -0.834000       15.9994           0
   60236 WT3  7300 TIP3 H1   HT     0.417000        1.0080           0
   60237 WT3  7300 TIP3 H2   HT     0.417000        1.0080           0
   60238 WT3  7301 TIP3 OH2  OT    -0.834000       15.9994           0
   60239 WT3  7301 TIP3 H1   HT     0.417000        1.0080           0
   60240 WT3  7301 TIP3 H2   HT     0.417000        1.0080           0
   60241 WT3  7302 TIP3 OH2  OT    -0.834000       15.9994           0
   60242 WT3  7302 TIP3 H1   HT     0.417000        1.0080           0
   60243 WT3  7302 TIP3 H2   HT     0.417000        1.0080           0
   60244 WT3  7303 TIP3 OH2  OT    -0.834000       15.9994           0
   60245 WT3  7303 TIP3 H1   HT     0.417000        1.0080           0
   60246 WT3  7303 TIP3 H2   HT     0.417000        1.0080           0
   60247 WT3  7305 TIP3 OH2  OT    -0.834000       15.9994           0
   60248 WT3  7305 TIP3 H1   HT     0.417000        1.0080           0
   60249 WT3  7305 TIP3 H2   HT     0.417000        1.0080           0
   60250 WT3  7306 TIP3 OH2  OT    -0.834000       15.9994           0
   60251 WT3  7306 TIP3 H1   HT     0.417000        1.0080           0
   60252 WT3  7306 TIP3 H2   HT     0.417000        1.0080           0
   60253 WT3  7311 TIP3 OH2  OT    -0.834000       15.9994           0
   60254 WT3  7311 TIP3 H1   HT     0.417000        1.0080           0
   60255 WT3  7311 TIP3 H2   HT     0.417000        1.0080           0
   60256 WT3  7312 TIP3 OH2  OT    -0.834000       15.9994           0
   60257 WT3  7312 TIP3 H1   HT     0.417000        1.0080           0
   60258 WT3  7312 TIP3 H2   HT     0.417000        1.0080           0
   60259 WT3  7313 TIP3 OH2  OT    -0.834000       15.9994           0
   60260 WT3  7313 TIP3 H1   HT     0.417000        1.0080           0
   60261 WT3  7313 TIP3 H2   HT     0.417000        1.0080           0
   60262 WT3  7314 TIP3 OH2  OT    -0.834000       15.9994           0
   60263 WT3  7314 TIP3 H1   HT     0.417000        1.0080           0
   60264 WT3  7314 TIP3 H2   HT     0.417000        1.0080           0
   60265 WT3  7316 TIP3 OH2  OT    -0.834000       15.9994           0
   60266 WT3  7316 TIP3 H1   HT     0.417000        1.0080           0
   60267 WT3  7316 TIP3 H2   HT     0.417000        1.0080           0
   60268 WT3  7317 TIP3 OH2  OT    -0.834000       15.9994           0
   60269 WT3  7317 TIP3 H1   HT     0.417000        1.0080           0
   60270 WT3  7317 TIP3 H2   HT     0.417000        1.0080           0
   60271 WT3  7318 TIP3 OH2  OT    -0.834000       15.9994           0
   60272 WT3  7318 TIP3 H1   HT     0.417000        1.0080           0
   60273 WT3  7318 TIP3 H2   HT     0.417000        1.0080           0
   60274 WT3  7320 TIP3 OH2  OT    -0.834000       15.9994           0
   60275 WT3  7320 TIP3 H1   HT     0.417000        1.0080           0
   60276 WT3  7320 TIP3 H2   HT     0.417000        1.0080           0
   60277 WT3  7324 TIP3 OH2  OT    -0.834000       15.9994           0
   60278 WT3  7324 TIP3 H1   HT     0.417000        1.0080           0
   60279 WT3  7324 TIP3 H2   HT     0.417000        1.0080           0
   60280 WT3  7326 TIP3 OH2  OT    -0.834000       15.9994           0
   60281 WT3  7326 TIP3 H1   HT     0.417000        1.0080           0
   60282 WT3  7326 TIP3 H2   HT     0.417000        1.0080           0
   60283 WT3  7328 TIP3 OH2  OT    -0.834000       15.9994           0
   60284 WT3  7328 TIP3 H1   HT     0.417000        1.0080           0
   60285 WT3  7328 TIP3 H2   HT     0.417000        1.0080           0
   60286 WT3  7329 TIP3 OH2  OT    -0.834000       15.9994           0
   60287 WT3  7329 TIP3 H1   HT     0.417000        1.0080           0
   60288 WT3  7329 TIP3 H2   HT     0.417000        1.0080           0
   60289 WT3  7331 TIP3 OH2  OT    -0.834000       15.9994           0
   60290 WT3  7331 TIP3 H1   HT     0.417000        1.0080           0
   60291 WT3  7331 TIP3 H2   HT     0.417000        1.0080           0
   60292 WT3  7332 TIP3 OH2  OT    -0.834000       15.9994           0
   60293 WT3  7332 TIP3 H1   HT     0.417000        1.0080           0
   60294 WT3  7332 TIP3 H2   HT     0.417000        1.0080           0
   60295 WT3  7333 TIP3 OH2  OT    -0.834000       15.9994           0
   60296 WT3  7333 TIP3 H1   HT     0.417000        1.0080           0
   60297 WT3  7333 TIP3 H2   HT     0.417000        1.0080           0
   60298 WT3  7335 TIP3 OH2  OT    -0.834000       15.9994           0
   60299 WT3  7335 TIP3 H1   HT     0.417000        1.0080           0
   60300 WT3  7335 TIP3 H2   HT     0.417000        1.0080           0
   60301 WT3  7336 TIP3 OH2  OT    -0.834000       15.9994           0
   60302 WT3  7336 TIP3 H1   HT     0.417000        1.0080           0
   60303 WT3  7336 TIP3 H2   HT     0.417000        1.0080           0
   60304 WT3  7337 TIP3 OH2  OT    -0.834000       15.9994           0
   60305 WT3  7337 TIP3 H1   HT     0.417000        1.0080           0
   60306 WT3  7337 TIP3 H2   HT     0.417000        1.0080           0
   60307 WT3  7338 TIP3 OH2  OT    -0.834000       15.9994           0
   60308 WT3  7338 TIP3 H1   HT     0.417000        1.0080           0
   60309 WT3  7338 TIP3 H2   HT     0.417000        1.0080           0
   60310 WT3  7339 TIP3 OH2  OT    -0.834000       15.9994           0
   60311 WT3  7339 TIP3 H1   HT     0.417000        1.0080           0
   60312 WT3  7339 TIP3 H2   HT     0.417000        1.0080           0
   60313 WT3  7340 TIP3 OH2  OT    -0.834000       15.9994           0
   60314 WT3  7340 TIP3 H1   HT     0.417000        1.0080           0
   60315 WT3  7340 TIP3 H2   HT     0.417000        1.0080           0
   60316 WT3  7343 TIP3 OH2  OT    -0.834000       15.9994           0
   60317 WT3  7343 TIP3 H1   HT     0.417000        1.0080           0
   60318 WT3  7343 TIP3 H2   HT     0.417000        1.0080           0
   60319 WT3  7344 TIP3 OH2  OT    -0.834000       15.9994           0
   60320 WT3  7344 TIP3 H1   HT     0.417000        1.0080           0
   60321 WT3  7344 TIP3 H2   HT     0.417000        1.0080           0
   60322 WT3  7346 TIP3 OH2  OT    -0.834000       15.9994           0
   60323 WT3  7346 TIP3 H1   HT     0.417000        1.0080           0
   60324 WT3  7346 TIP3 H2   HT     0.417000        1.0080           0
   60325 WT3  7349 TIP3 OH2  OT    -0.834000       15.9994           0
   60326 WT3  7349 TIP3 H1   HT     0.417000        1.0080           0
   60327 WT3  7349 TIP3 H2   HT     0.417000        1.0080           0
   60328 WT3  7352 TIP3 OH2  OT    -0.834000       15.9994           0
   60329 WT3  7352 TIP3 H1   HT     0.417000        1.0080           0
   60330 WT3  7352 TIP3 H2   HT     0.417000        1.0080           0
   60331 WT3  7354 TIP3 OH2  OT    -0.834000       15.9994           0
   60332 WT3  7354 TIP3 H1   HT     0.417000        1.0080           0
   60333 WT3  7354 TIP3 H2   HT     0.417000        1.0080           0
   60334 WT3  7356 TIP3 OH2  OT    -0.834000       15.9994           0
   60335 WT3  7356 TIP3 H1   HT     0.417000        1.0080           0
   60336 WT3  7356 TIP3 H2   HT     0.417000        1.0080           0
   60337 WT3  7358 TIP3 OH2  OT    -0.834000       15.9994           0
   60338 WT3  7358 TIP3 H1   HT     0.417000        1.0080           0
   60339 WT3  7358 TIP3 H2   HT     0.417000        1.0080           0
   60340 WT3  7361 TIP3 OH2  OT    -0.834000       15.9994           0
   60341 WT3  7361 TIP3 H1   HT     0.417000        1.0080           0
   60342 WT3  7361 TIP3 H2   HT     0.417000        1.0080           0
   60343 WT3  7364 TIP3 OH2  OT    -0.834000       15.9994           0
   60344 WT3  7364 TIP3 H1   HT     0.417000        1.0080           0
   60345 WT3  7364 TIP3 H2   HT     0.417000        1.0080           0
   60346 WT3  7370 TIP3 OH2  OT    -0.834000       15.9994           0
   60347 WT3  7370 TIP3 H1   HT     0.417000        1.0080           0
   60348 WT3  7370 TIP3 H2   HT     0.417000        1.0080           0
   60349 WT3  7371 TIP3 OH2  OT    -0.834000       15.9994           0
   60350 WT3  7371 TIP3 H1   HT     0.417000        1.0080           0
   60351 WT3  7371 TIP3 H2   HT     0.417000        1.0080           0
   60352 WT3  7372 TIP3 OH2  OT    -0.834000       15.9994           0
   60353 WT3  7372 TIP3 H1   HT     0.417000        1.0080           0
   60354 WT3  7372 TIP3 H2   HT     0.417000        1.0080           0
   60355 WT3  7374 TIP3 OH2  OT    -0.834000       15.9994           0
   60356 WT3  7374 TIP3 H1   HT     0.417000        1.0080           0
   60357 WT3  7374 TIP3 H2   HT     0.417000        1.0080           0
   60358 WT3  7375 TIP3 OH2  OT    -0.834000       15.9994           0
   60359 WT3  7375 TIP3 H1   HT     0.417000        1.0080           0
   60360 WT3  7375 TIP3 H2   HT     0.417000        1.0080           0
   60361 WT3  7378 TIP3 OH2  OT    -0.834000       15.9994           0
   60362 WT3  7378 TIP3 H1   HT     0.417000        1.0080           0
   60363 WT3  7378 TIP3 H2   HT     0.417000        1.0080           0
   60364 WT3  7382 TIP3 OH2  OT    -0.834000       15.9994           0
   60365 WT3  7382 TIP3 H1   HT     0.417000        1.0080           0
   60366 WT3  7382 TIP3 H2   HT     0.417000        1.0080           0
   60367 WT3  7392 TIP3 OH2  OT    -0.834000       15.9994           0
   60368 WT3  7392 TIP3 H1   HT     0.417000        1.0080           0
   60369 WT3  7392 TIP3 H2   HT     0.417000        1.0080           0
   60370 WT3  7395 TIP3 OH2  OT    -0.834000       15.9994           0
   60371 WT3  7395 TIP3 H1   HT     0.417000        1.0080           0
   60372 WT3  7395 TIP3 H2   HT     0.417000        1.0080           0
   60373 WT3  7398 TIP3 OH2  OT    -0.834000       15.9994           0
   60374 WT3  7398 TIP3 H1   HT     0.417000        1.0080           0
   60375 WT3  7398 TIP3 H2   HT     0.417000        1.0080           0
   60376 WT3  7401 TIP3 OH2  OT    -0.834000       15.9994           0
   60377 WT3  7401 TIP3 H1   HT     0.417000        1.0080           0
   60378 WT3  7401 TIP3 H2   HT     0.417000        1.0080           0
   60379 WT3  7408 TIP3 OH2  OT    -0.834000       15.9994           0
   60380 WT3  7408 TIP3 H1   HT     0.417000        1.0080           0
   60381 WT3  7408 TIP3 H2   HT     0.417000        1.0080           0
   60382 WT3  7412 TIP3 OH2  OT    -0.834000       15.9994           0
   60383 WT3  7412 TIP3 H1   HT     0.417000        1.0080           0
   60384 WT3  7412 TIP3 H2   HT     0.417000        1.0080           0
   60385 WT3  7414 TIP3 OH2  OT    -0.834000       15.9994           0
   60386 WT3  7414 TIP3 H1   HT     0.417000        1.0080           0
   60387 WT3  7414 TIP3 H2   HT     0.417000        1.0080           0
   60388 WT3  7415 TIP3 OH2  OT    -0.834000       15.9994           0
   60389 WT3  7415 TIP3 H1   HT     0.417000        1.0080           0
   60390 WT3  7415 TIP3 H2   HT     0.417000        1.0080           0
   60391 WT3  7418 TIP3 OH2  OT    -0.834000       15.9994           0
   60392 WT3  7418 TIP3 H1   HT     0.417000        1.0080           0
   60393 WT3  7418 TIP3 H2   HT     0.417000        1.0080           0
   60394 WT3  7422 TIP3 OH2  OT    -0.834000       15.9994           0
   60395 WT3  7422 TIP3 H1   HT     0.417000        1.0080           0
   60396 WT3  7422 TIP3 H2   HT     0.417000        1.0080           0
   60397 WT3  7430 TIP3 OH2  OT    -0.834000       15.9994           0
   60398 WT3  7430 TIP3 H1   HT     0.417000        1.0080           0
   60399 WT3  7430 TIP3 H2   HT     0.417000        1.0080           0
   60400 WT3  7431 TIP3 OH2  OT    -0.834000       15.9994           0
   60401 WT3  7431 TIP3 H1   HT     0.417000        1.0080           0
   60402 WT3  7431 TIP3 H2   HT     0.417000        1.0080           0
   60403 WT3  7435 TIP3 OH2  OT    -0.834000       15.9994           0
   60404 WT3  7435 TIP3 H1   HT     0.417000        1.0080           0
   60405 WT3  7435 TIP3 H2   HT     0.417000        1.0080           0
   60406 WT3  7436 TIP3 OH2  OT    -0.834000       15.9994           0
   60407 WT3  7436 TIP3 H1   HT     0.417000        1.0080           0
   60408 WT3  7436 TIP3 H2   HT     0.417000        1.0080           0
   60409 WT3  7437 TIP3 OH2  OT    -0.834000       15.9994           0
   60410 WT3  7437 TIP3 H1   HT     0.417000        1.0080           0
   60411 WT3  7437 TIP3 H2   HT     0.417000        1.0080           0
   60412 WT3  7439 TIP3 OH2  OT    -0.834000       15.9994           0
   60413 WT3  7439 TIP3 H1   HT     0.417000        1.0080           0
   60414 WT3  7439 TIP3 H2   HT     0.417000        1.0080           0
   60415 WT3  7443 TIP3 OH2  OT    -0.834000       15.9994           0
   60416 WT3  7443 TIP3 H1   HT     0.417000        1.0080           0
   60417 WT3  7443 TIP3 H2   HT     0.417000        1.0080           0
   60418 WT3  7444 TIP3 OH2  OT    -0.834000       15.9994           0
   60419 WT3  7444 TIP3 H1   HT     0.417000        1.0080           0
   60420 WT3  7444 TIP3 H2   HT     0.417000        1.0080           0
   60421 WT3  7451 TIP3 OH2  OT    -0.834000       15.9994           0
   60422 WT3  7451 TIP3 H1   HT     0.417000        1.0080           0
   60423 WT3  7451 TIP3 H2   HT     0.417000        1.0080           0
   60424 WT3  7455 TIP3 OH2  OT    -0.834000       15.9994           0
   60425 WT3  7455 TIP3 H1   HT     0.417000        1.0080           0
   60426 WT3  7455 TIP3 H2   HT     0.417000        1.0080           0
   60427 WT3  7461 TIP3 OH2  OT    -0.834000       15.9994           0
   60428 WT3  7461 TIP3 H1   HT     0.417000        1.0080           0
   60429 WT3  7461 TIP3 H2   HT     0.417000        1.0080           0
   60430 WT3  7467 TIP3 OH2  OT    -0.834000       15.9994           0
   60431 WT3  7467 TIP3 H1   HT     0.417000        1.0080           0
   60432 WT3  7467 TIP3 H2   HT     0.417000        1.0080           0
   60433 WT3  7471 TIP3 OH2  OT    -0.834000       15.9994           0
   60434 WT3  7471 TIP3 H1   HT     0.417000        1.0080           0
   60435 WT3  7471 TIP3 H2   HT     0.417000        1.0080           0
   60436 WT3  7472 TIP3 OH2  OT    -0.834000       15.9994           0
   60437 WT3  7472 TIP3 H1   HT     0.417000        1.0080           0
   60438 WT3  7472 TIP3 H2   HT     0.417000        1.0080           0
   60439 WT3  7474 TIP3 OH2  OT    -0.834000       15.9994           0
   60440 WT3  7474 TIP3 H1   HT     0.417000        1.0080           0
   60441 WT3  7474 TIP3 H2   HT     0.417000        1.0080           0
   60442 WT3  7476 TIP3 OH2  OT    -0.834000       15.9994           0
   60443 WT3  7476 TIP3 H1   HT     0.417000        1.0080           0
   60444 WT3  7476 TIP3 H2   HT     0.417000        1.0080           0
   60445 WT3  7479 TIP3 OH2  OT    -0.834000       15.9994           0
   60446 WT3  7479 TIP3 H1   HT     0.417000        1.0080           0
   60447 WT3  7479 TIP3 H2   HT     0.417000        1.0080           0
   60448 WT3  7480 TIP3 OH2  OT    -0.834000       15.9994           0
   60449 WT3  7480 TIP3 H1   HT     0.417000        1.0080           0
   60450 WT3  7480 TIP3 H2   HT     0.417000        1.0080           0
   60451 WT3  7481 TIP3 OH2  OT    -0.834000       15.9994           0
   60452 WT3  7481 TIP3 H1   HT     0.417000        1.0080           0
   60453 WT3  7481 TIP3 H2   HT     0.417000        1.0080           0
   60454 WT3  7483 TIP3 OH2  OT    -0.834000       15.9994           0
   60455 WT3  7483 TIP3 H1   HT     0.417000        1.0080           0
   60456 WT3  7483 TIP3 H2   HT     0.417000        1.0080           0
   60457 WT3  7486 TIP3 OH2  OT    -0.834000       15.9994           0
   60458 WT3  7486 TIP3 H1   HT     0.417000        1.0080           0
   60459 WT3  7486 TIP3 H2   HT     0.417000        1.0080           0
   60460 WT3  7490 TIP3 OH2  OT    -0.834000       15.9994           0
   60461 WT3  7490 TIP3 H1   HT     0.417000        1.0080           0
   60462 WT3  7490 TIP3 H2   HT     0.417000        1.0080           0
   60463 WT3  7492 TIP3 OH2  OT    -0.834000       15.9994           0
   60464 WT3  7492 TIP3 H1   HT     0.417000        1.0080           0
   60465 WT3  7492 TIP3 H2   HT     0.417000        1.0080           0
   60466 WT3  7493 TIP3 OH2  OT    -0.834000       15.9994           0
   60467 WT3  7493 TIP3 H1   HT     0.417000        1.0080           0
   60468 WT3  7493 TIP3 H2   HT     0.417000        1.0080           0
   60469 WT3  7495 TIP3 OH2  OT    -0.834000       15.9994           0
   60470 WT3  7495 TIP3 H1   HT     0.417000        1.0080           0
   60471 WT3  7495 TIP3 H2   HT     0.417000        1.0080           0
   60472 WT3  7497 TIP3 OH2  OT    -0.834000       15.9994           0
   60473 WT3  7497 TIP3 H1   HT     0.417000        1.0080           0
   60474 WT3  7497 TIP3 H2   HT     0.417000        1.0080           0
   60475 WT3  7498 TIP3 OH2  OT    -0.834000       15.9994           0
   60476 WT3  7498 TIP3 H1   HT     0.417000        1.0080           0
   60477 WT3  7498 TIP3 H2   HT     0.417000        1.0080           0
   60478 WT3  7500 TIP3 OH2  OT    -0.834000       15.9994           0
   60479 WT3  7500 TIP3 H1   HT     0.417000        1.0080           0
   60480 WT3  7500 TIP3 H2   HT     0.417000        1.0080           0
   60481 WT3  7501 TIP3 OH2  OT    -0.834000       15.9994           0
   60482 WT3  7501 TIP3 H1   HT     0.417000        1.0080           0
   60483 WT3  7501 TIP3 H2   HT     0.417000        1.0080           0
   60484 WT3  7503 TIP3 OH2  OT    -0.834000       15.9994           0
   60485 WT3  7503 TIP3 H1   HT     0.417000        1.0080           0
   60486 WT3  7503 TIP3 H2   HT     0.417000        1.0080           0
   60487 WT3  7504 TIP3 OH2  OT    -0.834000       15.9994           0
   60488 WT3  7504 TIP3 H1   HT     0.417000        1.0080           0
   60489 WT3  7504 TIP3 H2   HT     0.417000        1.0080           0
   60490 WT3  7505 TIP3 OH2  OT    -0.834000       15.9994           0
   60491 WT3  7505 TIP3 H1   HT     0.417000        1.0080           0
   60492 WT3  7505 TIP3 H2   HT     0.417000        1.0080           0
   60493 WT3  7506 TIP3 OH2  OT    -0.834000       15.9994           0
   60494 WT3  7506 TIP3 H1   HT     0.417000        1.0080           0
   60495 WT3  7506 TIP3 H2   HT     0.417000        1.0080           0
   60496 WT3  7507 TIP3 OH2  OT    -0.834000       15.9994           0
   60497 WT3  7507 TIP3 H1   HT     0.417000        1.0080           0
   60498 WT3  7507 TIP3 H2   HT     0.417000        1.0080           0
   60499 WT3  7508 TIP3 OH2  OT    -0.834000       15.9994           0
   60500 WT3  7508 TIP3 H1   HT     0.417000        1.0080           0
   60501 WT3  7508 TIP3 H2   HT     0.417000        1.0080           0
   60502 WT3  7509 TIP3 OH2  OT    -0.834000       15.9994           0
   60503 WT3  7509 TIP3 H1   HT     0.417000        1.0080           0
   60504 WT3  7509 TIP3 H2   HT     0.417000        1.0080           0
   60505 WT3  7510 TIP3 OH2  OT    -0.834000       15.9994           0
   60506 WT3  7510 TIP3 H1   HT     0.417000        1.0080           0
   60507 WT3  7510 TIP3 H2   HT     0.417000        1.0080           0
   60508 WT3  7511 TIP3 OH2  OT    -0.834000       15.9994           0
   60509 WT3  7511 TIP3 H1   HT     0.417000        1.0080           0
   60510 WT3  7511 TIP3 H2   HT     0.417000        1.0080           0
   60511 WT3  7516 TIP3 OH2  OT    -0.834000       15.9994           0
   60512 WT3  7516 TIP3 H1   HT     0.417000        1.0080           0
   60513 WT3  7516 TIP3 H2   HT     0.417000        1.0080           0
   60514 WT3  7519 TIP3 OH2  OT    -0.834000       15.9994           0
   60515 WT3  7519 TIP3 H1   HT     0.417000        1.0080           0
   60516 WT3  7519 TIP3 H2   HT     0.417000        1.0080           0
   60517 WT3  7520 TIP3 OH2  OT    -0.834000       15.9994           0
   60518 WT3  7520 TIP3 H1   HT     0.417000        1.0080           0
   60519 WT3  7520 TIP3 H2   HT     0.417000        1.0080           0
   60520 WT3  7522 TIP3 OH2  OT    -0.834000       15.9994           0
   60521 WT3  7522 TIP3 H1   HT     0.417000        1.0080           0
   60522 WT3  7522 TIP3 H2   HT     0.417000        1.0080           0
   60523 WT3  7523 TIP3 OH2  OT    -0.834000       15.9994           0
   60524 WT3  7523 TIP3 H1   HT     0.417000        1.0080           0
   60525 WT3  7523 TIP3 H2   HT     0.417000        1.0080           0
   60526 WT3  7525 TIP3 OH2  OT    -0.834000       15.9994           0
   60527 WT3  7525 TIP3 H1   HT     0.417000        1.0080           0
   60528 WT3  7525 TIP3 H2   HT     0.417000        1.0080           0
   60529 WT3  7526 TIP3 OH2  OT    -0.834000       15.9994           0
   60530 WT3  7526 TIP3 H1   HT     0.417000        1.0080           0
   60531 WT3  7526 TIP3 H2   HT     0.417000        1.0080           0
   60532 WT3  7527 TIP3 OH2  OT    -0.834000       15.9994           0
   60533 WT3  7527 TIP3 H1   HT     0.417000        1.0080           0
   60534 WT3  7527 TIP3 H2   HT     0.417000        1.0080           0
   60535 WT3  7528 TIP3 OH2  OT    -0.834000       15.9994           0
   60536 WT3  7528 TIP3 H1   HT     0.417000        1.0080           0
   60537 WT3  7528 TIP3 H2   HT     0.417000        1.0080           0
   60538 WT3  7529 TIP3 OH2  OT    -0.834000       15.9994           0
   60539 WT3  7529 TIP3 H1   HT     0.417000        1.0080           0
   60540 WT3  7529 TIP3 H2   HT     0.417000        1.0080           0
   60541 WT3  7530 TIP3 OH2  OT    -0.834000       15.9994           0
   60542 WT3  7530 TIP3 H1   HT     0.417000        1.0080           0
   60543 WT3  7530 TIP3 H2   HT     0.417000        1.0080           0
   60544 WT3  7531 TIP3 OH2  OT    -0.834000       15.9994           0
   60545 WT3  7531 TIP3 H1   HT     0.417000        1.0080           0
   60546 WT3  7531 TIP3 H2   HT     0.417000        1.0080           0
   60547 WT3  7532 TIP3 OH2  OT    -0.834000       15.9994           0
   60548 WT3  7532 TIP3 H1   HT     0.417000        1.0080           0
   60549 WT3  7532 TIP3 H2   HT     0.417000        1.0080           0
   60550 WT3  7538 TIP3 OH2  OT    -0.834000       15.9994           0
   60551 WT3  7538 TIP3 H1   HT     0.417000        1.0080           0
   60552 WT3  7538 TIP3 H2   HT     0.417000        1.0080           0
   60553 WT3  7539 TIP3 OH2  OT    -0.834000       15.9994           0
   60554 WT3  7539 TIP3 H1   HT     0.417000        1.0080           0
   60555 WT3  7539 TIP3 H2   HT     0.417000        1.0080           0
   60556 WT3  7541 TIP3 OH2  OT    -0.834000       15.9994           0
   60557 WT3  7541 TIP3 H1   HT     0.417000        1.0080           0
   60558 WT3  7541 TIP3 H2   HT     0.417000        1.0080           0
   60559 WT3  7544 TIP3 OH2  OT    -0.834000       15.9994           0
   60560 WT3  7544 TIP3 H1   HT     0.417000        1.0080           0
   60561 WT3  7544 TIP3 H2   HT     0.417000        1.0080           0
   60562 WT3  7545 TIP3 OH2  OT    -0.834000       15.9994           0
   60563 WT3  7545 TIP3 H1   HT     0.417000        1.0080           0
   60564 WT3  7545 TIP3 H2   HT     0.417000        1.0080           0
   60565 WT3  7546 TIP3 OH2  OT    -0.834000       15.9994           0
   60566 WT3  7546 TIP3 H1   HT     0.417000        1.0080           0
   60567 WT3  7546 TIP3 H2   HT     0.417000        1.0080           0
   60568 WT3  7547 TIP3 OH2  OT    -0.834000       15.9994           0
   60569 WT3  7547 TIP3 H1   HT     0.417000        1.0080           0
   60570 WT3  7547 TIP3 H2   HT     0.417000        1.0080           0
   60571 WT3  7550 TIP3 OH2  OT    -0.834000       15.9994           0
   60572 WT3  7550 TIP3 H1   HT     0.417000        1.0080           0
   60573 WT3  7550 TIP3 H2   HT     0.417000        1.0080           0
   60574 WT3  7551 TIP3 OH2  OT    -0.834000       15.9994           0
   60575 WT3  7551 TIP3 H1   HT     0.417000        1.0080           0
   60576 WT3  7551 TIP3 H2   HT     0.417000        1.0080           0
   60577 WT3  7552 TIP3 OH2  OT    -0.834000       15.9994           0
   60578 WT3  7552 TIP3 H1   HT     0.417000        1.0080           0
   60579 WT3  7552 TIP3 H2   HT     0.417000        1.0080           0
   60580 WT3  7553 TIP3 OH2  OT    -0.834000       15.9994           0
   60581 WT3  7553 TIP3 H1   HT     0.417000        1.0080           0
   60582 WT3  7553 TIP3 H2   HT     0.417000        1.0080           0
   60583 WT3  7554 TIP3 OH2  OT    -0.834000       15.9994           0
   60584 WT3  7554 TIP3 H1   HT     0.417000        1.0080           0
   60585 WT3  7554 TIP3 H2   HT     0.417000        1.0080           0
   60586 WT3  7557 TIP3 OH2  OT    -0.834000       15.9994           0
   60587 WT3  7557 TIP3 H1   HT     0.417000        1.0080           0
   60588 WT3  7557 TIP3 H2   HT     0.417000        1.0080           0
   60589 WT3  7559 TIP3 OH2  OT    -0.834000       15.9994           0
   60590 WT3  7559 TIP3 H1   HT     0.417000        1.0080           0
   60591 WT3  7559 TIP3 H2   HT     0.417000        1.0080           0
   60592 WT3  7561 TIP3 OH2  OT    -0.834000       15.9994           0
   60593 WT3  7561 TIP3 H1   HT     0.417000        1.0080           0
   60594 WT3  7561 TIP3 H2   HT     0.417000        1.0080           0
   60595 WT3  7563 TIP3 OH2  OT    -0.834000       15.9994           0
   60596 WT3  7563 TIP3 H1   HT     0.417000        1.0080           0
   60597 WT3  7563 TIP3 H2   HT     0.417000        1.0080           0
   60598 WT3  7564 TIP3 OH2  OT    -0.834000       15.9994           0
   60599 WT3  7564 TIP3 H1   HT     0.417000        1.0080           0
   60600 WT3  7564 TIP3 H2   HT     0.417000        1.0080           0
   60601 WT3  7567 TIP3 OH2  OT    -0.834000       15.9994           0
   60602 WT3  7567 TIP3 H1   HT     0.417000        1.0080           0
   60603 WT3  7567 TIP3 H2   HT     0.417000        1.0080           0
   60604 WT3  7568 TIP3 OH2  OT    -0.834000       15.9994           0
   60605 WT3  7568 TIP3 H1   HT     0.417000        1.0080           0
   60606 WT3  7568 TIP3 H2   HT     0.417000        1.0080           0
   60607 WT3  7570 TIP3 OH2  OT    -0.834000       15.9994           0
   60608 WT3  7570 TIP3 H1   HT     0.417000        1.0080           0
   60609 WT3  7570 TIP3 H2   HT     0.417000        1.0080           0
   60610 WT3  7571 TIP3 OH2  OT    -0.834000       15.9994           0
   60611 WT3  7571 TIP3 H1   HT     0.417000        1.0080           0
   60612 WT3  7571 TIP3 H2   HT     0.417000        1.0080           0
   60613 WT3  7572 TIP3 OH2  OT    -0.834000       15.9994           0
   60614 WT3  7572 TIP3 H1   HT     0.417000        1.0080           0
   60615 WT3  7572 TIP3 H2   HT     0.417000        1.0080           0
   60616 WT3  7573 TIP3 OH2  OT    -0.834000       15.9994           0
   60617 WT3  7573 TIP3 H1   HT     0.417000        1.0080           0
   60618 WT3  7573 TIP3 H2   HT     0.417000        1.0080           0
   60619 WT3  7574 TIP3 OH2  OT    -0.834000       15.9994           0
   60620 WT3  7574 TIP3 H1   HT     0.417000        1.0080           0
   60621 WT3  7574 TIP3 H2   HT     0.417000        1.0080           0
   60622 WT3  7575 TIP3 OH2  OT    -0.834000       15.9994           0
   60623 WT3  7575 TIP3 H1   HT     0.417000        1.0080           0
   60624 WT3  7575 TIP3 H2   HT     0.417000        1.0080           0
   60625 WT3  7576 TIP3 OH2  OT    -0.834000       15.9994           0
   60626 WT3  7576 TIP3 H1   HT     0.417000        1.0080           0
   60627 WT3  7576 TIP3 H2   HT     0.417000        1.0080           0
   60628 WT3  7578 TIP3 OH2  OT    -0.834000       15.9994           0
   60629 WT3  7578 TIP3 H1   HT     0.417000        1.0080           0
   60630 WT3  7578 TIP3 H2   HT     0.417000        1.0080           0
   60631 WT3  7579 TIP3 OH2  OT    -0.834000       15.9994           0
   60632 WT3  7579 TIP3 H1   HT     0.417000        1.0080           0
   60633 WT3  7579 TIP3 H2   HT     0.417000        1.0080           0
   60634 WT3  7580 TIP3 OH2  OT    -0.834000       15.9994           0
   60635 WT3  7580 TIP3 H1   HT     0.417000        1.0080           0
   60636 WT3  7580 TIP3 H2   HT     0.417000        1.0080           0
   60637 WT3  7581 TIP3 OH2  OT    -0.834000       15.9994           0
   60638 WT3  7581 TIP3 H1   HT     0.417000        1.0080           0
   60639 WT3  7581 TIP3 H2   HT     0.417000        1.0080           0
   60640 WT3  7582 TIP3 OH2  OT    -0.834000       15.9994           0
   60641 WT3  7582 TIP3 H1   HT     0.417000        1.0080           0
   60642 WT3  7582 TIP3 H2   HT     0.417000        1.0080           0
   60643 WT3  7584 TIP3 OH2  OT    -0.834000       15.9994           0
   60644 WT3  7584 TIP3 H1   HT     0.417000        1.0080           0
   60645 WT3  7584 TIP3 H2   HT     0.417000        1.0080           0
   60646 WT3  7586 TIP3 OH2  OT    -0.834000       15.9994           0
   60647 WT3  7586 TIP3 H1   HT     0.417000        1.0080           0
   60648 WT3  7586 TIP3 H2   HT     0.417000        1.0080           0
   60649 WT3  7587 TIP3 OH2  OT    -0.834000       15.9994           0
   60650 WT3  7587 TIP3 H1   HT     0.417000        1.0080           0
   60651 WT3  7587 TIP3 H2   HT     0.417000        1.0080           0
   60652 WT3  7588 TIP3 OH2  OT    -0.834000       15.9994           0
   60653 WT3  7588 TIP3 H1   HT     0.417000        1.0080           0
   60654 WT3  7588 TIP3 H2   HT     0.417000        1.0080           0
   60655 WT3  7589 TIP3 OH2  OT    -0.834000       15.9994           0
   60656 WT3  7589 TIP3 H1   HT     0.417000        1.0080           0
   60657 WT3  7589 TIP3 H2   HT     0.417000        1.0080           0
   60658 WT3  7590 TIP3 OH2  OT    -0.834000       15.9994           0
   60659 WT3  7590 TIP3 H1   HT     0.417000        1.0080           0
   60660 WT3  7590 TIP3 H2   HT     0.417000        1.0080           0
   60661 WT3  7591 TIP3 OH2  OT    -0.834000       15.9994           0
   60662 WT3  7591 TIP3 H1   HT     0.417000        1.0080           0
   60663 WT3  7591 TIP3 H2   HT     0.417000        1.0080           0
   60664 WT3  7592 TIP3 OH2  OT    -0.834000       15.9994           0
   60665 WT3  7592 TIP3 H1   HT     0.417000        1.0080           0
   60666 WT3  7592 TIP3 H2   HT     0.417000        1.0080           0
   60667 WT3  7593 TIP3 OH2  OT    -0.834000       15.9994           0
   60668 WT3  7593 TIP3 H1   HT     0.417000        1.0080           0
   60669 WT3  7593 TIP3 H2   HT     0.417000        1.0080           0
   60670 WT3  7594 TIP3 OH2  OT    -0.834000       15.9994           0
   60671 WT3  7594 TIP3 H1   HT     0.417000        1.0080           0
   60672 WT3  7594 TIP3 H2   HT     0.417000        1.0080           0
   60673 WT3  7595 TIP3 OH2  OT    -0.834000       15.9994           0
   60674 WT3  7595 TIP3 H1   HT     0.417000        1.0080           0
   60675 WT3  7595 TIP3 H2   HT     0.417000        1.0080           0
   60676 WT3  7596 TIP3 OH2  OT    -0.834000       15.9994           0
   60677 WT3  7596 TIP3 H1   HT     0.417000        1.0080           0
   60678 WT3  7596 TIP3 H2   HT     0.417000        1.0080           0
   60679 WT3  7597 TIP3 OH2  OT    -0.834000       15.9994           0
   60680 WT3  7597 TIP3 H1   HT     0.417000        1.0080           0
   60681 WT3  7597 TIP3 H2   HT     0.417000        1.0080           0
   60682 WT3  7598 TIP3 OH2  OT    -0.834000       15.9994           0
   60683 WT3  7598 TIP3 H1   HT     0.417000        1.0080           0
   60684 WT3  7598 TIP3 H2   HT     0.417000        1.0080           0
   60685 WT3  7600 TIP3 OH2  OT    -0.834000       15.9994           0
   60686 WT3  7600 TIP3 H1   HT     0.417000        1.0080           0
   60687 WT3  7600 TIP3 H2   HT     0.417000        1.0080           0
   60688 WT3  7602 TIP3 OH2  OT    -0.834000       15.9994           0
   60689 WT3  7602 TIP3 H1   HT     0.417000        1.0080           0
   60690 WT3  7602 TIP3 H2   HT     0.417000        1.0080           0
   60691 WT3  7603 TIP3 OH2  OT    -0.834000       15.9994           0
   60692 WT3  7603 TIP3 H1   HT     0.417000        1.0080           0
   60693 WT3  7603 TIP3 H2   HT     0.417000        1.0080           0
   60694 WT3  7604 TIP3 OH2  OT    -0.834000       15.9994           0
   60695 WT3  7604 TIP3 H1   HT     0.417000        1.0080           0
   60696 WT3  7604 TIP3 H2   HT     0.417000        1.0080           0
   60697 WT3  7605 TIP3 OH2  OT    -0.834000       15.9994           0
   60698 WT3  7605 TIP3 H1   HT     0.417000        1.0080           0
   60699 WT3  7605 TIP3 H2   HT     0.417000        1.0080           0
   60700 WT3  7606 TIP3 OH2  OT    -0.834000       15.9994           0
   60701 WT3  7606 TIP3 H1   HT     0.417000        1.0080           0
   60702 WT3  7606 TIP3 H2   HT     0.417000        1.0080           0
   60703 WT3  7608 TIP3 OH2  OT    -0.834000       15.9994           0
   60704 WT3  7608 TIP3 H1   HT     0.417000        1.0080           0
   60705 WT3  7608 TIP3 H2   HT     0.417000        1.0080           0
   60706 WT3  7609 TIP3 OH2  OT    -0.834000       15.9994           0
   60707 WT3  7609 TIP3 H1   HT     0.417000        1.0080           0
   60708 WT3  7609 TIP3 H2   HT     0.417000        1.0080           0
   60709 WT3  7610 TIP3 OH2  OT    -0.834000       15.9994           0
   60710 WT3  7610 TIP3 H1   HT     0.417000        1.0080           0
   60711 WT3  7610 TIP3 H2   HT     0.417000        1.0080           0
   60712 WT3  7611 TIP3 OH2  OT    -0.834000       15.9994           0
   60713 WT3  7611 TIP3 H1   HT     0.417000        1.0080           0
   60714 WT3  7611 TIP3 H2   HT     0.417000        1.0080           0
   60715 WT3  7612 TIP3 OH2  OT    -0.834000       15.9994           0
   60716 WT3  7612 TIP3 H1   HT     0.417000        1.0080           0
   60717 WT3  7612 TIP3 H2   HT     0.417000        1.0080           0
   60718 WT3  7613 TIP3 OH2  OT    -0.834000       15.9994           0
   60719 WT3  7613 TIP3 H1   HT     0.417000        1.0080           0
   60720 WT3  7613 TIP3 H2   HT     0.417000        1.0080           0
   60721 WT3  7614 TIP3 OH2  OT    -0.834000       15.9994           0
   60722 WT3  7614 TIP3 H1   HT     0.417000        1.0080           0
   60723 WT3  7614 TIP3 H2   HT     0.417000        1.0080           0
   60724 WT3  7615 TIP3 OH2  OT    -0.834000       15.9994           0
   60725 WT3  7615 TIP3 H1   HT     0.417000        1.0080           0
   60726 WT3  7615 TIP3 H2   HT     0.417000        1.0080           0
   60727 WT3  7616 TIP3 OH2  OT    -0.834000       15.9994           0
   60728 WT3  7616 TIP3 H1   HT     0.417000        1.0080           0
   60729 WT3  7616 TIP3 H2   HT     0.417000        1.0080           0
   60730 WT3  7617 TIP3 OH2  OT    -0.834000       15.9994           0
   60731 WT3  7617 TIP3 H1   HT     0.417000        1.0080           0
   60732 WT3  7617 TIP3 H2   HT     0.417000        1.0080           0
   60733 WT3  7619 TIP3 OH2  OT    -0.834000       15.9994           0
   60734 WT3  7619 TIP3 H1   HT     0.417000        1.0080           0
   60735 WT3  7619 TIP3 H2   HT     0.417000        1.0080           0
   60736 WT3  7620 TIP3 OH2  OT    -0.834000       15.9994           0
   60737 WT3  7620 TIP3 H1   HT     0.417000        1.0080           0
   60738 WT3  7620 TIP3 H2   HT     0.417000        1.0080           0
   60739 WT3  7622 TIP3 OH2  OT    -0.834000       15.9994           0
   60740 WT3  7622 TIP3 H1   HT     0.417000        1.0080           0
   60741 WT3  7622 TIP3 H2   HT     0.417000        1.0080           0
   60742 WT3  7624 TIP3 OH2  OT    -0.834000       15.9994           0
   60743 WT3  7624 TIP3 H1   HT     0.417000        1.0080           0
   60744 WT3  7624 TIP3 H2   HT     0.417000        1.0080           0
   60745 WT3  7625 TIP3 OH2  OT    -0.834000       15.9994           0
   60746 WT3  7625 TIP3 H1   HT     0.417000        1.0080           0
   60747 WT3  7625 TIP3 H2   HT     0.417000        1.0080           0
   60748 WT3  7626 TIP3 OH2  OT    -0.834000       15.9994           0
   60749 WT3  7626 TIP3 H1   HT     0.417000        1.0080           0
   60750 WT3  7626 TIP3 H2   HT     0.417000        1.0080           0
   60751 WT3  7627 TIP3 OH2  OT    -0.834000       15.9994           0
   60752 WT3  7627 TIP3 H1   HT     0.417000        1.0080           0
   60753 WT3  7627 TIP3 H2   HT     0.417000        1.0080           0
   60754 WT3  7628 TIP3 OH2  OT    -0.834000       15.9994           0
   60755 WT3  7628 TIP3 H1   HT     0.417000        1.0080           0
   60756 WT3  7628 TIP3 H2   HT     0.417000        1.0080           0
   60757 WT3  7629 TIP3 OH2  OT    -0.834000       15.9994           0
   60758 WT3  7629 TIP3 H1   HT     0.417000        1.0080           0
   60759 WT3  7629 TIP3 H2   HT     0.417000        1.0080           0
   60760 WT3  7630 TIP3 OH2  OT    -0.834000       15.9994           0
   60761 WT3  7630 TIP3 H1   HT     0.417000        1.0080           0
   60762 WT3  7630 TIP3 H2   HT     0.417000        1.0080           0
   60763 WT3  7631 TIP3 OH2  OT    -0.834000       15.9994           0
   60764 WT3  7631 TIP3 H1   HT     0.417000        1.0080           0
   60765 WT3  7631 TIP3 H2   HT     0.417000        1.0080           0
   60766 WT3  7632 TIP3 OH2  OT    -0.834000       15.9994           0
   60767 WT3  7632 TIP3 H1   HT     0.417000        1.0080           0
   60768 WT3  7632 TIP3 H2   HT     0.417000        1.0080           0
   60769 WT3  7633 TIP3 OH2  OT    -0.834000       15.9994           0
   60770 WT3  7633 TIP3 H1   HT     0.417000        1.0080           0
   60771 WT3  7633 TIP3 H2   HT     0.417000        1.0080           0
   60772 WT3  7634 TIP3 OH2  OT    -0.834000       15.9994           0
   60773 WT3  7634 TIP3 H1   HT     0.417000        1.0080           0
   60774 WT3  7634 TIP3 H2   HT     0.417000        1.0080           0
   60775 WT3  7635 TIP3 OH2  OT    -0.834000       15.9994           0
   60776 WT3  7635 TIP3 H1   HT     0.417000        1.0080           0
   60777 WT3  7635 TIP3 H2   HT     0.417000        1.0080           0
   60778 WT3  7636 TIP3 OH2  OT    -0.834000       15.9994           0
   60779 WT3  7636 TIP3 H1   HT     0.417000        1.0080           0
   60780 WT3  7636 TIP3 H2   HT     0.417000        1.0080           0
   60781 WT3  7637 TIP3 OH2  OT    -0.834000       15.9994           0
   60782 WT3  7637 TIP3 H1   HT     0.417000        1.0080           0
   60783 WT3  7637 TIP3 H2   HT     0.417000        1.0080           0
   60784 WT3  7638 TIP3 OH2  OT    -0.834000       15.9994           0
   60785 WT3  7638 TIP3 H1   HT     0.417000        1.0080           0
   60786 WT3  7638 TIP3 H2   HT     0.417000        1.0080           0
   60787 WT3  7640 TIP3 OH2  OT    -0.834000       15.9994           0
   60788 WT3  7640 TIP3 H1   HT     0.417000        1.0080           0
   60789 WT3  7640 TIP3 H2   HT     0.417000        1.0080           0
   60790 WT3  7641 TIP3 OH2  OT    -0.834000       15.9994           0
   60791 WT3  7641 TIP3 H1   HT     0.417000        1.0080           0
   60792 WT3  7641 TIP3 H2   HT     0.417000        1.0080           0
   60793 WT3  7643 TIP3 OH2  OT    -0.834000       15.9994           0
   60794 WT3  7643 TIP3 H1   HT     0.417000        1.0080           0
   60795 WT3  7643 TIP3 H2   HT     0.417000        1.0080           0
   60796 WT3  7644 TIP3 OH2  OT    -0.834000       15.9994           0
   60797 WT3  7644 TIP3 H1   HT     0.417000        1.0080           0
   60798 WT3  7644 TIP3 H2   HT     0.417000        1.0080           0
   60799 WT3  7645 TIP3 OH2  OT    -0.834000       15.9994           0
   60800 WT3  7645 TIP3 H1   HT     0.417000        1.0080           0
   60801 WT3  7645 TIP3 H2   HT     0.417000        1.0080           0
   60802 WT3  7646 TIP3 OH2  OT    -0.834000       15.9994           0
   60803 WT3  7646 TIP3 H1   HT     0.417000        1.0080           0
   60804 WT3  7646 TIP3 H2   HT     0.417000        1.0080           0
   60805 WT3  7647 TIP3 OH2  OT    -0.834000       15.9994           0
   60806 WT3  7647 TIP3 H1   HT     0.417000        1.0080           0
   60807 WT3  7647 TIP3 H2   HT     0.417000        1.0080           0
   60808 WT3  7648 TIP3 OH2  OT    -0.834000       15.9994           0
   60809 WT3  7648 TIP3 H1   HT     0.417000        1.0080           0
   60810 WT3  7648 TIP3 H2   HT     0.417000        1.0080           0
   60811 WT3  7649 TIP3 OH2  OT    -0.834000       15.9994           0
   60812 WT3  7649 TIP3 H1   HT     0.417000        1.0080           0
   60813 WT3  7649 TIP3 H2   HT     0.417000        1.0080           0
   60814 WT3  7650 TIP3 OH2  OT    -0.834000       15.9994           0
   60815 WT3  7650 TIP3 H1   HT     0.417000        1.0080           0
   60816 WT3  7650 TIP3 H2   HT     0.417000        1.0080           0
   60817 WT3  7651 TIP3 OH2  OT    -0.834000       15.9994           0
   60818 WT3  7651 TIP3 H1   HT     0.417000        1.0080           0
   60819 WT3  7651 TIP3 H2   HT     0.417000        1.0080           0
   60820 WT3  7652 TIP3 OH2  OT    -0.834000       15.9994           0
   60821 WT3  7652 TIP3 H1   HT     0.417000        1.0080           0
   60822 WT3  7652 TIP3 H2   HT     0.417000        1.0080           0
   60823 WT3  7654 TIP3 OH2  OT    -0.834000       15.9994           0
   60824 WT3  7654 TIP3 H1   HT     0.417000        1.0080           0
   60825 WT3  7654 TIP3 H2   HT     0.417000        1.0080           0
   60826 WT3  7655 TIP3 OH2  OT    -0.834000       15.9994           0
   60827 WT3  7655 TIP3 H1   HT     0.417000        1.0080           0
   60828 WT3  7655 TIP3 H2   HT     0.417000        1.0080           0
   60829 WT3  7656 TIP3 OH2  OT    -0.834000       15.9994           0
   60830 WT3  7656 TIP3 H1   HT     0.417000        1.0080           0
   60831 WT3  7656 TIP3 H2   HT     0.417000        1.0080           0
   60832 WT3  7657 TIP3 OH2  OT    -0.834000       15.9994           0
   60833 WT3  7657 TIP3 H1   HT     0.417000        1.0080           0
   60834 WT3  7657 TIP3 H2   HT     0.417000        1.0080           0
   60835 WT3  7658 TIP3 OH2  OT    -0.834000       15.9994           0
   60836 WT3  7658 TIP3 H1   HT     0.417000        1.0080           0
   60837 WT3  7658 TIP3 H2   HT     0.417000        1.0080           0
   60838 WT3  7659 TIP3 OH2  OT    -0.834000       15.9994           0
   60839 WT3  7659 TIP3 H1   HT     0.417000        1.0080           0
   60840 WT3  7659 TIP3 H2   HT     0.417000        1.0080           0
   60841 WT3  7660 TIP3 OH2  OT    -0.834000       15.9994           0
   60842 WT3  7660 TIP3 H1   HT     0.417000        1.0080           0
   60843 WT3  7660 TIP3 H2   HT     0.417000        1.0080           0
   60844 WT3  7661 TIP3 OH2  OT    -0.834000       15.9994           0
   60845 WT3  7661 TIP3 H1   HT     0.417000        1.0080           0
   60846 WT3  7661 TIP3 H2   HT     0.417000        1.0080           0
   60847 WT3  7662 TIP3 OH2  OT    -0.834000       15.9994           0
   60848 WT3  7662 TIP3 H1   HT     0.417000        1.0080           0
   60849 WT3  7662 TIP3 H2   HT     0.417000        1.0080           0
   60850 WT3  7663 TIP3 OH2  OT    -0.834000       15.9994           0
   60851 WT3  7663 TIP3 H1   HT     0.417000        1.0080           0
   60852 WT3  7663 TIP3 H2   HT     0.417000        1.0080           0
   60853 WT3  7664 TIP3 OH2  OT    -0.834000       15.9994           0
   60854 WT3  7664 TIP3 H1   HT     0.417000        1.0080           0
   60855 WT3  7664 TIP3 H2   HT     0.417000        1.0080           0
   60856 WT3  7667 TIP3 OH2  OT    -0.834000       15.9994           0
   60857 WT3  7667 TIP3 H1   HT     0.417000        1.0080           0
   60858 WT3  7667 TIP3 H2   HT     0.417000        1.0080           0
   60859 WT3  7668 TIP3 OH2  OT    -0.834000       15.9994           0
   60860 WT3  7668 TIP3 H1   HT     0.417000        1.0080           0
   60861 WT3  7668 TIP3 H2   HT     0.417000        1.0080           0
   60862 WT3  7669 TIP3 OH2  OT    -0.834000       15.9994           0
   60863 WT3  7669 TIP3 H1   HT     0.417000        1.0080           0
   60864 WT3  7669 TIP3 H2   HT     0.417000        1.0080           0
   60865 WT3  7670 TIP3 OH2  OT    -0.834000       15.9994           0
   60866 WT3  7670 TIP3 H1   HT     0.417000        1.0080           0
   60867 WT3  7670 TIP3 H2   HT     0.417000        1.0080           0
   60868 WT3  7671 TIP3 OH2  OT    -0.834000       15.9994           0
   60869 WT3  7671 TIP3 H1   HT     0.417000        1.0080           0
   60870 WT3  7671 TIP3 H2   HT     0.417000        1.0080           0
   60871 WT3  7672 TIP3 OH2  OT    -0.834000       15.9994           0
   60872 WT3  7672 TIP3 H1   HT     0.417000        1.0080           0
   60873 WT3  7672 TIP3 H2   HT     0.417000        1.0080           0
   60874 WT3  7673 TIP3 OH2  OT    -0.834000       15.9994           0
   60875 WT3  7673 TIP3 H1   HT     0.417000        1.0080           0
   60876 WT3  7673 TIP3 H2   HT     0.417000        1.0080           0
   60877 WT3  7674 TIP3 OH2  OT    -0.834000       15.9994           0
   60878 WT3  7674 TIP3 H1   HT     0.417000        1.0080           0
   60879 WT3  7674 TIP3 H2   HT     0.417000        1.0080           0
   60880 WT3  7675 TIP3 OH2  OT    -0.834000       15.9994           0
   60881 WT3  7675 TIP3 H1   HT     0.417000        1.0080           0
   60882 WT3  7675 TIP3 H2   HT     0.417000        1.0080           0
   60883 WT3  7676 TIP3 OH2  OT    -0.834000       15.9994           0
   60884 WT3  7676 TIP3 H1   HT     0.417000        1.0080           0
   60885 WT3  7676 TIP3 H2   HT     0.417000        1.0080           0
   60886 WT3  7677 TIP3 OH2  OT    -0.834000       15.9994           0
   60887 WT3  7677 TIP3 H1   HT     0.417000        1.0080           0
   60888 WT3  7677 TIP3 H2   HT     0.417000        1.0080           0
   60889 WT3  7678 TIP3 OH2  OT    -0.834000       15.9994           0
   60890 WT3  7678 TIP3 H1   HT     0.417000        1.0080           0
   60891 WT3  7678 TIP3 H2   HT     0.417000        1.0080           0
   60892 WT3  7679 TIP3 OH2  OT    -0.834000       15.9994           0
   60893 WT3  7679 TIP3 H1   HT     0.417000        1.0080           0
   60894 WT3  7679 TIP3 H2   HT     0.417000        1.0080           0
   60895 WT3  7680 TIP3 OH2  OT    -0.834000       15.9994           0
   60896 WT3  7680 TIP3 H1   HT     0.417000        1.0080           0
   60897 WT3  7680 TIP3 H2   HT     0.417000        1.0080           0
   60898 WT3  7681 TIP3 OH2  OT    -0.834000       15.9994           0
   60899 WT3  7681 TIP3 H1   HT     0.417000        1.0080           0
   60900 WT3  7681 TIP3 H2   HT     0.417000        1.0080           0
   60901 WT3  7682 TIP3 OH2  OT    -0.834000       15.9994           0
   60902 WT3  7682 TIP3 H1   HT     0.417000        1.0080           0
   60903 WT3  7682 TIP3 H2   HT     0.417000        1.0080           0
   60904 WT3  7683 TIP3 OH2  OT    -0.834000       15.9994           0
   60905 WT3  7683 TIP3 H1   HT     0.417000        1.0080           0
   60906 WT3  7683 TIP3 H2   HT     0.417000        1.0080           0
   60907 WT3  7684 TIP3 OH2  OT    -0.834000       15.9994           0
   60908 WT3  7684 TIP3 H1   HT     0.417000        1.0080           0
   60909 WT3  7684 TIP3 H2   HT     0.417000        1.0080           0
   60910 WT3  7685 TIP3 OH2  OT    -0.834000       15.9994           0
   60911 WT3  7685 TIP3 H1   HT     0.417000        1.0080           0
   60912 WT3  7685 TIP3 H2   HT     0.417000        1.0080           0
   60913 WT3  7686 TIP3 OH2  OT    -0.834000       15.9994           0
   60914 WT3  7686 TIP3 H1   HT     0.417000        1.0080           0
   60915 WT3  7686 TIP3 H2   HT     0.417000        1.0080           0
   60916 WT3  7687 TIP3 OH2  OT    -0.834000       15.9994           0
   60917 WT3  7687 TIP3 H1   HT     0.417000        1.0080           0
   60918 WT3  7687 TIP3 H2   HT     0.417000        1.0080           0
   60919 WT3  7688 TIP3 OH2  OT    -0.834000       15.9994           0
   60920 WT3  7688 TIP3 H1   HT     0.417000        1.0080           0
   60921 WT3  7688 TIP3 H2   HT     0.417000        1.0080           0
   60922 WT3  7689 TIP3 OH2  OT    -0.834000       15.9994           0
   60923 WT3  7689 TIP3 H1   HT     0.417000        1.0080           0
   60924 WT3  7689 TIP3 H2   HT     0.417000        1.0080           0
   60925 WT3  7690 TIP3 OH2  OT    -0.834000       15.9994           0
   60926 WT3  7690 TIP3 H1   HT     0.417000        1.0080           0
   60927 WT3  7690 TIP3 H2   HT     0.417000        1.0080           0
   60928 WT3  7691 TIP3 OH2  OT    -0.834000       15.9994           0
   60929 WT3  7691 TIP3 H1   HT     0.417000        1.0080           0
   60930 WT3  7691 TIP3 H2   HT     0.417000        1.0080           0
   60931 WT3  7693 TIP3 OH2  OT    -0.834000       15.9994           0
   60932 WT3  7693 TIP3 H1   HT     0.417000        1.0080           0
   60933 WT3  7693 TIP3 H2   HT     0.417000        1.0080           0
   60934 WT3  7694 TIP3 OH2  OT    -0.834000       15.9994           0
   60935 WT3  7694 TIP3 H1   HT     0.417000        1.0080           0
   60936 WT3  7694 TIP3 H2   HT     0.417000        1.0080           0
   60937 WT3  7695 TIP3 OH2  OT    -0.834000       15.9994           0
   60938 WT3  7695 TIP3 H1   HT     0.417000        1.0080           0
   60939 WT3  7695 TIP3 H2   HT     0.417000        1.0080           0
   60940 WT3  7696 TIP3 OH2  OT    -0.834000       15.9994           0
   60941 WT3  7696 TIP3 H1   HT     0.417000        1.0080           0
   60942 WT3  7696 TIP3 H2   HT     0.417000        1.0080           0
   60943 WT3  7697 TIP3 OH2  OT    -0.834000       15.9994           0
   60944 WT3  7697 TIP3 H1   HT     0.417000        1.0080           0
   60945 WT3  7697 TIP3 H2   HT     0.417000        1.0080           0
   60946 WT3  7698 TIP3 OH2  OT    -0.834000       15.9994           0
   60947 WT3  7698 TIP3 H1   HT     0.417000        1.0080           0
   60948 WT3  7698 TIP3 H2   HT     0.417000        1.0080           0
   60949 WT3  7699 TIP3 OH2  OT    -0.834000       15.9994           0
   60950 WT3  7699 TIP3 H1   HT     0.417000        1.0080           0
   60951 WT3  7699 TIP3 H2   HT     0.417000        1.0080           0
   60952 WT3  7700 TIP3 OH2  OT    -0.834000       15.9994           0
   60953 WT3  7700 TIP3 H1   HT     0.417000        1.0080           0
   60954 WT3  7700 TIP3 H2   HT     0.417000        1.0080           0
   60955 WT3  7701 TIP3 OH2  OT    -0.834000       15.9994           0
   60956 WT3  7701 TIP3 H1   HT     0.417000        1.0080           0
   60957 WT3  7701 TIP3 H2   HT     0.417000        1.0080           0
   60958 WT3  7702 TIP3 OH2  OT    -0.834000       15.9994           0
   60959 WT3  7702 TIP3 H1   HT     0.417000        1.0080           0
   60960 WT3  7702 TIP3 H2   HT     0.417000        1.0080           0
   60961 WT3  7703 TIP3 OH2  OT    -0.834000       15.9994           0
   60962 WT3  7703 TIP3 H1   HT     0.417000        1.0080           0
   60963 WT3  7703 TIP3 H2   HT     0.417000        1.0080           0
   60964 WT3  7704 TIP3 OH2  OT    -0.834000       15.9994           0
   60965 WT3  7704 TIP3 H1   HT     0.417000        1.0080           0
   60966 WT3  7704 TIP3 H2   HT     0.417000        1.0080           0
   60967 WT3  7705 TIP3 OH2  OT    -0.834000       15.9994           0
   60968 WT3  7705 TIP3 H1   HT     0.417000        1.0080           0
   60969 WT3  7705 TIP3 H2   HT     0.417000        1.0080           0
   60970 WT3  7706 TIP3 OH2  OT    -0.834000       15.9994           0
   60971 WT3  7706 TIP3 H1   HT     0.417000        1.0080           0
   60972 WT3  7706 TIP3 H2   HT     0.417000        1.0080           0
   60973 WT3  7707 TIP3 OH2  OT    -0.834000       15.9994           0
   60974 WT3  7707 TIP3 H1   HT     0.417000        1.0080           0
   60975 WT3  7707 TIP3 H2   HT     0.417000        1.0080           0
   60976 WT3  7708 TIP3 OH2  OT    -0.834000       15.9994           0
   60977 WT3  7708 TIP3 H1   HT     0.417000        1.0080           0
   60978 WT3  7708 TIP3 H2   HT     0.417000        1.0080           0
   60979 WT3  7709 TIP3 OH2  OT    -0.834000       15.9994           0
   60980 WT3  7709 TIP3 H1   HT     0.417000        1.0080           0
   60981 WT3  7709 TIP3 H2   HT     0.417000        1.0080           0
   60982 WT3  7710 TIP3 OH2  OT    -0.834000       15.9994           0
   60983 WT3  7710 TIP3 H1   HT     0.417000        1.0080           0
   60984 WT3  7710 TIP3 H2   HT     0.417000        1.0080           0
   60985 WT3  7711 TIP3 OH2  OT    -0.834000       15.9994           0
   60986 WT3  7711 TIP3 H1   HT     0.417000        1.0080           0
   60987 WT3  7711 TIP3 H2   HT     0.417000        1.0080           0
   60988 WT3  7712 TIP3 OH2  OT    -0.834000       15.9994           0
   60989 WT3  7712 TIP3 H1   HT     0.417000        1.0080           0
   60990 WT3  7712 TIP3 H2   HT     0.417000        1.0080           0
   60991 WT3  7713 TIP3 OH2  OT    -0.834000       15.9994           0
   60992 WT3  7713 TIP3 H1   HT     0.417000        1.0080           0
   60993 WT3  7713 TIP3 H2   HT     0.417000        1.0080           0
   60994 WT3  7714 TIP3 OH2  OT    -0.834000       15.9994           0
   60995 WT3  7714 TIP3 H1   HT     0.417000        1.0080           0
   60996 WT3  7714 TIP3 H2   HT     0.417000        1.0080           0
   60997 WT3  7715 TIP3 OH2  OT    -0.834000       15.9994           0
   60998 WT3  7715 TIP3 H1   HT     0.417000        1.0080           0
   60999 WT3  7715 TIP3 H2   HT     0.417000        1.0080           0
   61000 WT3  7716 TIP3 OH2  OT    -0.834000       15.9994           0
   61001 WT3  7716 TIP3 H1   HT     0.417000        1.0080           0
   61002 WT3  7716 TIP3 H2   HT     0.417000        1.0080           0
   61003 WT3  7717 TIP3 OH2  OT    -0.834000       15.9994           0
   61004 WT3  7717 TIP3 H1   HT     0.417000        1.0080           0
   61005 WT3  7717 TIP3 H2   HT     0.417000        1.0080           0
   61006 WT3  7718 TIP3 OH2  OT    -0.834000       15.9994           0
   61007 WT3  7718 TIP3 H1   HT     0.417000        1.0080           0
   61008 WT3  7718 TIP3 H2   HT     0.417000        1.0080           0
   61009 WT3  7720 TIP3 OH2  OT    -0.834000       15.9994           0
   61010 WT3  7720 TIP3 H1   HT     0.417000        1.0080           0
   61011 WT3  7720 TIP3 H2   HT     0.417000        1.0080           0
   61012 WT3  7721 TIP3 OH2  OT    -0.834000       15.9994           0
   61013 WT3  7721 TIP3 H1   HT     0.417000        1.0080           0
   61014 WT3  7721 TIP3 H2   HT     0.417000        1.0080           0
   61015 WT3  7722 TIP3 OH2  OT    -0.834000       15.9994           0
   61016 WT3  7722 TIP3 H1   HT     0.417000        1.0080           0
   61017 WT3  7722 TIP3 H2   HT     0.417000        1.0080           0
   61018 WT3  7723 TIP3 OH2  OT    -0.834000       15.9994           0
   61019 WT3  7723 TIP3 H1   HT     0.417000        1.0080           0
   61020 WT3  7723 TIP3 H2   HT     0.417000        1.0080           0
   61021 WT3  7726 TIP3 OH2  OT    -0.834000       15.9994           0
   61022 WT3  7726 TIP3 H1   HT     0.417000        1.0080           0
   61023 WT3  7726 TIP3 H2   HT     0.417000        1.0080           0
   61024 WT3  7729 TIP3 OH2  OT    -0.834000       15.9994           0
   61025 WT3  7729 TIP3 H1   HT     0.417000        1.0080           0
   61026 WT3  7729 TIP3 H2   HT     0.417000        1.0080           0
   61027 WT3  7730 TIP3 OH2  OT    -0.834000       15.9994           0
   61028 WT3  7730 TIP3 H1   HT     0.417000        1.0080           0
   61029 WT3  7730 TIP3 H2   HT     0.417000        1.0080           0
   61030 WT3  7731 TIP3 OH2  OT    -0.834000       15.9994           0
   61031 WT3  7731 TIP3 H1   HT     0.417000        1.0080           0
   61032 WT3  7731 TIP3 H2   HT     0.417000        1.0080           0
   61033 WT3  7733 TIP3 OH2  OT    -0.834000       15.9994           0
   61034 WT3  7733 TIP3 H1   HT     0.417000        1.0080           0
   61035 WT3  7733 TIP3 H2   HT     0.417000        1.0080           0
   61036 WT3  7734 TIP3 OH2  OT    -0.834000       15.9994           0
   61037 WT3  7734 TIP3 H1   HT     0.417000        1.0080           0
   61038 WT3  7734 TIP3 H2   HT     0.417000        1.0080           0
   61039 WT3  7735 TIP3 OH2  OT    -0.834000       15.9994           0
   61040 WT3  7735 TIP3 H1   HT     0.417000        1.0080           0
   61041 WT3  7735 TIP3 H2   HT     0.417000        1.0080           0
   61042 WT3  7736 TIP3 OH2  OT    -0.834000       15.9994           0
   61043 WT3  7736 TIP3 H1   HT     0.417000        1.0080           0
   61044 WT3  7736 TIP3 H2   HT     0.417000        1.0080           0
   61045 WT3  7737 TIP3 OH2  OT    -0.834000       15.9994           0
   61046 WT3  7737 TIP3 H1   HT     0.417000        1.0080           0
   61047 WT3  7737 TIP3 H2   HT     0.417000        1.0080           0
   61048 WT3  7738 TIP3 OH2  OT    -0.834000       15.9994           0
   61049 WT3  7738 TIP3 H1   HT     0.417000        1.0080           0
   61050 WT3  7738 TIP3 H2   HT     0.417000        1.0080           0
   61051 WT3  7739 TIP3 OH2  OT    -0.834000       15.9994           0
   61052 WT3  7739 TIP3 H1   HT     0.417000        1.0080           0
   61053 WT3  7739 TIP3 H2   HT     0.417000        1.0080           0
   61054 WT3  7741 TIP3 OH2  OT    -0.834000       15.9994           0
   61055 WT3  7741 TIP3 H1   HT     0.417000        1.0080           0
   61056 WT3  7741 TIP3 H2   HT     0.417000        1.0080           0
   61057 WT3  7742 TIP3 OH2  OT    -0.834000       15.9994           0
   61058 WT3  7742 TIP3 H1   HT     0.417000        1.0080           0
   61059 WT3  7742 TIP3 H2   HT     0.417000        1.0080           0
   61060 WT3  7743 TIP3 OH2  OT    -0.834000       15.9994           0
   61061 WT3  7743 TIP3 H1   HT     0.417000        1.0080           0
   61062 WT3  7743 TIP3 H2   HT     0.417000        1.0080           0
   61063 WT3  7744 TIP3 OH2  OT    -0.834000       15.9994           0
   61064 WT3  7744 TIP3 H1   HT     0.417000        1.0080           0
   61065 WT3  7744 TIP3 H2   HT     0.417000        1.0080           0
   61066 WT3  7746 TIP3 OH2  OT    -0.834000       15.9994           0
   61067 WT3  7746 TIP3 H1   HT     0.417000        1.0080           0
   61068 WT3  7746 TIP3 H2   HT     0.417000        1.0080           0
   61069 WT3  7747 TIP3 OH2  OT    -0.834000       15.9994           0
   61070 WT3  7747 TIP3 H1   HT     0.417000        1.0080           0
   61071 WT3  7747 TIP3 H2   HT     0.417000        1.0080           0
   61072 WT3  7748 TIP3 OH2  OT    -0.834000       15.9994           0
   61073 WT3  7748 TIP3 H1   HT     0.417000        1.0080           0
   61074 WT3  7748 TIP3 H2   HT     0.417000        1.0080           0
   61075 WT3  7750 TIP3 OH2  OT    -0.834000       15.9994           0
   61076 WT3  7750 TIP3 H1   HT     0.417000        1.0080           0
   61077 WT3  7750 TIP3 H2   HT     0.417000        1.0080           0
   61078 WT3  7751 TIP3 OH2  OT    -0.834000       15.9994           0
   61079 WT3  7751 TIP3 H1   HT     0.417000        1.0080           0
   61080 WT3  7751 TIP3 H2   HT     0.417000        1.0080           0
   61081 WT3  7752 TIP3 OH2  OT    -0.834000       15.9994           0
   61082 WT3  7752 TIP3 H1   HT     0.417000        1.0080           0
   61083 WT3  7752 TIP3 H2   HT     0.417000        1.0080           0
   61084 WT3  7754 TIP3 OH2  OT    -0.834000       15.9994           0
   61085 WT3  7754 TIP3 H1   HT     0.417000        1.0080           0
   61086 WT3  7754 TIP3 H2   HT     0.417000        1.0080           0
   61087 WT3  7755 TIP3 OH2  OT    -0.834000       15.9994           0
   61088 WT3  7755 TIP3 H1   HT     0.417000        1.0080           0
   61089 WT3  7755 TIP3 H2   HT     0.417000        1.0080           0
   61090 WT3  7756 TIP3 OH2  OT    -0.834000       15.9994           0
   61091 WT3  7756 TIP3 H1   HT     0.417000        1.0080           0
   61092 WT3  7756 TIP3 H2   HT     0.417000        1.0080           0
   61093 WT3  7757 TIP3 OH2  OT    -0.834000       15.9994           0
   61094 WT3  7757 TIP3 H1   HT     0.417000        1.0080           0
   61095 WT3  7757 TIP3 H2   HT     0.417000        1.0080           0
   61096 WT3  7759 TIP3 OH2  OT    -0.834000       15.9994           0
   61097 WT3  7759 TIP3 H1   HT     0.417000        1.0080           0
   61098 WT3  7759 TIP3 H2   HT     0.417000        1.0080           0
   61099 WT3  7760 TIP3 OH2  OT    -0.834000       15.9994           0
   61100 WT3  7760 TIP3 H1   HT     0.417000        1.0080           0
   61101 WT3  7760 TIP3 H2   HT     0.417000        1.0080           0
   61102 WT3  7761 TIP3 OH2  OT    -0.834000       15.9994           0
   61103 WT3  7761 TIP3 H1   HT     0.417000        1.0080           0
   61104 WT3  7761 TIP3 H2   HT     0.417000        1.0080           0
   61105 WT3  7763 TIP3 OH2  OT    -0.834000       15.9994           0
   61106 WT3  7763 TIP3 H1   HT     0.417000        1.0080           0
   61107 WT3  7763 TIP3 H2   HT     0.417000        1.0080           0
   61108 WT3  7764 TIP3 OH2  OT    -0.834000       15.9994           0
   61109 WT3  7764 TIP3 H1   HT     0.417000        1.0080           0
   61110 WT3  7764 TIP3 H2   HT     0.417000        1.0080           0
   61111 WT3  7766 TIP3 OH2  OT    -0.834000       15.9994           0
   61112 WT3  7766 TIP3 H1   HT     0.417000        1.0080           0
   61113 WT3  7766 TIP3 H2   HT     0.417000        1.0080           0
   61114 WT3  7767 TIP3 OH2  OT    -0.834000       15.9994           0
   61115 WT3  7767 TIP3 H1   HT     0.417000        1.0080           0
   61116 WT3  7767 TIP3 H2   HT     0.417000        1.0080           0
   61117 WT3  7768 TIP3 OH2  OT    -0.834000       15.9994           0
   61118 WT3  7768 TIP3 H1   HT     0.417000        1.0080           0
   61119 WT3  7768 TIP3 H2   HT     0.417000        1.0080           0
   61120 WT3  7770 TIP3 OH2  OT    -0.834000       15.9994           0
   61121 WT3  7770 TIP3 H1   HT     0.417000        1.0080           0
   61122 WT3  7770 TIP3 H2   HT     0.417000        1.0080           0
   61123 WT3  7772 TIP3 OH2  OT    -0.834000       15.9994           0
   61124 WT3  7772 TIP3 H1   HT     0.417000        1.0080           0
   61125 WT3  7772 TIP3 H2   HT     0.417000        1.0080           0
   61126 WT3  7773 TIP3 OH2  OT    -0.834000       15.9994           0
   61127 WT3  7773 TIP3 H1   HT     0.417000        1.0080           0
   61128 WT3  7773 TIP3 H2   HT     0.417000        1.0080           0
   61129 WT3  7774 TIP3 OH2  OT    -0.834000       15.9994           0
   61130 WT3  7774 TIP3 H1   HT     0.417000        1.0080           0
   61131 WT3  7774 TIP3 H2   HT     0.417000        1.0080           0
   61132 WT3  7775 TIP3 OH2  OT    -0.834000       15.9994           0
   61133 WT3  7775 TIP3 H1   HT     0.417000        1.0080           0
   61134 WT3  7775 TIP3 H2   HT     0.417000        1.0080           0
   61135 WT3  7776 TIP3 OH2  OT    -0.834000       15.9994           0
   61136 WT3  7776 TIP3 H1   HT     0.417000        1.0080           0
   61137 WT3  7776 TIP3 H2   HT     0.417000        1.0080           0
   61138 WT3  7777 TIP3 OH2  OT    -0.834000       15.9994           0
   61139 WT3  7777 TIP3 H1   HT     0.417000        1.0080           0
   61140 WT3  7777 TIP3 H2   HT     0.417000        1.0080           0
   61141 WT3  7781 TIP3 OH2  OT    -0.834000       15.9994           0
   61142 WT3  7781 TIP3 H1   HT     0.417000        1.0080           0
   61143 WT3  7781 TIP3 H2   HT     0.417000        1.0080           0
   61144 WT3  7782 TIP3 OH2  OT    -0.834000       15.9994           0
   61145 WT3  7782 TIP3 H1   HT     0.417000        1.0080           0
   61146 WT3  7782 TIP3 H2   HT     0.417000        1.0080           0
   61147 WT3  7784 TIP3 OH2  OT    -0.834000       15.9994           0
   61148 WT3  7784 TIP3 H1   HT     0.417000        1.0080           0
   61149 WT3  7784 TIP3 H2   HT     0.417000        1.0080           0
   61150 WT3  7786 TIP3 OH2  OT    -0.834000       15.9994           0
   61151 WT3  7786 TIP3 H1   HT     0.417000        1.0080           0
   61152 WT3  7786 TIP3 H2   HT     0.417000        1.0080           0
   61153 WT3  7790 TIP3 OH2  OT    -0.834000       15.9994           0
   61154 WT3  7790 TIP3 H1   HT     0.417000        1.0080           0
   61155 WT3  7790 TIP3 H2   HT     0.417000        1.0080           0
   61156 WT3  7791 TIP3 OH2  OT    -0.834000       15.9994           0
   61157 WT3  7791 TIP3 H1   HT     0.417000        1.0080           0
   61158 WT3  7791 TIP3 H2   HT     0.417000        1.0080           0
   61159 WT3  7793 TIP3 OH2  OT    -0.834000       15.9994           0
   61160 WT3  7793 TIP3 H1   HT     0.417000        1.0080           0
   61161 WT3  7793 TIP3 H2   HT     0.417000        1.0080           0
   61162 WT3  7794 TIP3 OH2  OT    -0.834000       15.9994           0
   61163 WT3  7794 TIP3 H1   HT     0.417000        1.0080           0
   61164 WT3  7794 TIP3 H2   HT     0.417000        1.0080           0
   61165 WT3  7796 TIP3 OH2  OT    -0.834000       15.9994           0
   61166 WT3  7796 TIP3 H1   HT     0.417000        1.0080           0
   61167 WT3  7796 TIP3 H2   HT     0.417000        1.0080           0
   61168 WT3  7797 TIP3 OH2  OT    -0.834000       15.9994           0
   61169 WT3  7797 TIP3 H1   HT     0.417000        1.0080           0
   61170 WT3  7797 TIP3 H2   HT     0.417000        1.0080           0
   61171 WT3  7798 TIP3 OH2  OT    -0.834000       15.9994           0
   61172 WT3  7798 TIP3 H1   HT     0.417000        1.0080           0
   61173 WT3  7798 TIP3 H2   HT     0.417000        1.0080           0
   61174 WT3  7802 TIP3 OH2  OT    -0.834000       15.9994           0
   61175 WT3  7802 TIP3 H1   HT     0.417000        1.0080           0
   61176 WT3  7802 TIP3 H2   HT     0.417000        1.0080           0
   61177 WT3  7807 TIP3 OH2  OT    -0.834000       15.9994           0
   61178 WT3  7807 TIP3 H1   HT     0.417000        1.0080           0
   61179 WT3  7807 TIP3 H2   HT     0.417000        1.0080           0
   61180 WT3  7811 TIP3 OH2  OT    -0.834000       15.9994           0
   61181 WT3  7811 TIP3 H1   HT     0.417000        1.0080           0
   61182 WT3  7811 TIP3 H2   HT     0.417000        1.0080           0
   61183 WT3  7815 TIP3 OH2  OT    -0.834000       15.9994           0
   61184 WT3  7815 TIP3 H1   HT     0.417000        1.0080           0
   61185 WT3  7815 TIP3 H2   HT     0.417000        1.0080           0
   61186 WT3  7816 TIP3 OH2  OT    -0.834000       15.9994           0
   61187 WT3  7816 TIP3 H1   HT     0.417000        1.0080           0
   61188 WT3  7816 TIP3 H2   HT     0.417000        1.0080           0
   61189 WT3  7820 TIP3 OH2  OT    -0.834000       15.9994           0
   61190 WT3  7820 TIP3 H1   HT     0.417000        1.0080           0
   61191 WT3  7820 TIP3 H2   HT     0.417000        1.0080           0
   61192 WT3  7822 TIP3 OH2  OT    -0.834000       15.9994           0
   61193 WT3  7822 TIP3 H1   HT     0.417000        1.0080           0
   61194 WT3  7822 TIP3 H2   HT     0.417000        1.0080           0
   61195 WT3  7834 TIP3 OH2  OT    -0.834000       15.9994           0
   61196 WT3  7834 TIP3 H1   HT     0.417000        1.0080           0
   61197 WT3  7834 TIP3 H2   HT     0.417000        1.0080           0
   61198 WT3  7835 TIP3 OH2  OT    -0.834000       15.9994           0
   61199 WT3  7835 TIP3 H1   HT     0.417000        1.0080           0
   61200 WT3  7835 TIP3 H2   HT     0.417000        1.0080           0
   61201 WT3  7839 TIP3 OH2  OT    -0.834000       15.9994           0
   61202 WT3  7839 TIP3 H1   HT     0.417000        1.0080           0
   61203 WT3  7839 TIP3 H2   HT     0.417000        1.0080           0
   61204 WT3  7843 TIP3 OH2  OT    -0.834000       15.9994           0
   61205 WT3  7843 TIP3 H1   HT     0.417000        1.0080           0
   61206 WT3  7843 TIP3 H2   HT     0.417000        1.0080           0
   61207 WT3  7848 TIP3 OH2  OT    -0.834000       15.9994           0
   61208 WT3  7848 TIP3 H1   HT     0.417000        1.0080           0
   61209 WT3  7848 TIP3 H2   HT     0.417000        1.0080           0
   61210 WT3  7849 TIP3 OH2  OT    -0.834000       15.9994           0
   61211 WT3  7849 TIP3 H1   HT     0.417000        1.0080           0
   61212 WT3  7849 TIP3 H2   HT     0.417000        1.0080           0
   61213 WT3  7851 TIP3 OH2  OT    -0.834000       15.9994           0
   61214 WT3  7851 TIP3 H1   HT     0.417000        1.0080           0
   61215 WT3  7851 TIP3 H2   HT     0.417000        1.0080           0
   61216 WT3  7853 TIP3 OH2  OT    -0.834000       15.9994           0
   61217 WT3  7853 TIP3 H1   HT     0.417000        1.0080           0
   61218 WT3  7853 TIP3 H2   HT     0.417000        1.0080           0
   61219 WT3  7855 TIP3 OH2  OT    -0.834000       15.9994           0
   61220 WT3  7855 TIP3 H1   HT     0.417000        1.0080           0
   61221 WT3  7855 TIP3 H2   HT     0.417000        1.0080           0
   61222 WT3  7860 TIP3 OH2  OT    -0.834000       15.9994           0
   61223 WT3  7860 TIP3 H1   HT     0.417000        1.0080           0
   61224 WT3  7860 TIP3 H2   HT     0.417000        1.0080           0
   61225 WT3  7867 TIP3 OH2  OT    -0.834000       15.9994           0
   61226 WT3  7867 TIP3 H1   HT     0.417000        1.0080           0
   61227 WT3  7867 TIP3 H2   HT     0.417000        1.0080           0
   61228 WT3  7869 TIP3 OH2  OT    -0.834000       15.9994           0
   61229 WT3  7869 TIP3 H1   HT     0.417000        1.0080           0
   61230 WT3  7869 TIP3 H2   HT     0.417000        1.0080           0
   61231 WT3  7872 TIP3 OH2  OT    -0.834000       15.9994           0
   61232 WT3  7872 TIP3 H1   HT     0.417000        1.0080           0
   61233 WT3  7872 TIP3 H2   HT     0.417000        1.0080           0
   61234 WT3  7873 TIP3 OH2  OT    -0.834000       15.9994           0
   61235 WT3  7873 TIP3 H1   HT     0.417000        1.0080           0
   61236 WT3  7873 TIP3 H2   HT     0.417000        1.0080           0
   61237 WT3  7882 TIP3 OH2  OT    -0.834000       15.9994           0
   61238 WT3  7882 TIP3 H1   HT     0.417000        1.0080           0
   61239 WT3  7882 TIP3 H2   HT     0.417000        1.0080           0
   61240 WT3  7883 TIP3 OH2  OT    -0.834000       15.9994           0
   61241 WT3  7883 TIP3 H1   HT     0.417000        1.0080           0
   61242 WT3  7883 TIP3 H2   HT     0.417000        1.0080           0
   61243 WT3  7886 TIP3 OH2  OT    -0.834000       15.9994           0
   61244 WT3  7886 TIP3 H1   HT     0.417000        1.0080           0
   61245 WT3  7886 TIP3 H2   HT     0.417000        1.0080           0
   61246 WT3  7891 TIP3 OH2  OT    -0.834000       15.9994           0
   61247 WT3  7891 TIP3 H1   HT     0.417000        1.0080           0
   61248 WT3  7891 TIP3 H2   HT     0.417000        1.0080           0
   61249 WT3  7894 TIP3 OH2  OT    -0.834000       15.9994           0
   61250 WT3  7894 TIP3 H1   HT     0.417000        1.0080           0
   61251 WT3  7894 TIP3 H2   HT     0.417000        1.0080           0
   61252 WT3  7895 TIP3 OH2  OT    -0.834000       15.9994           0
   61253 WT3  7895 TIP3 H1   HT     0.417000        1.0080           0
   61254 WT3  7895 TIP3 H2   HT     0.417000        1.0080           0
   61255 WT3  7896 TIP3 OH2  OT    -0.834000       15.9994           0
   61256 WT3  7896 TIP3 H1   HT     0.417000        1.0080           0
   61257 WT3  7896 TIP3 H2   HT     0.417000        1.0080           0
   61258 WT3  7897 TIP3 OH2  OT    -0.834000       15.9994           0
   61259 WT3  7897 TIP3 H1   HT     0.417000        1.0080           0
   61260 WT3  7897 TIP3 H2   HT     0.417000        1.0080           0
   61261 WT3  7901 TIP3 OH2  OT    -0.834000       15.9994           0
   61262 WT3  7901 TIP3 H1   HT     0.417000        1.0080           0
   61263 WT3  7901 TIP3 H2   HT     0.417000        1.0080           0
   61264 WT3  7902 TIP3 OH2  OT    -0.834000       15.9994           0
   61265 WT3  7902 TIP3 H1   HT     0.417000        1.0080           0
   61266 WT3  7902 TIP3 H2   HT     0.417000        1.0080           0
   61267 WT3  7904 TIP3 OH2  OT    -0.834000       15.9994           0
   61268 WT3  7904 TIP3 H1   HT     0.417000        1.0080           0
   61269 WT3  7904 TIP3 H2   HT     0.417000        1.0080           0
   61270 WT3  7908 TIP3 OH2  OT    -0.834000       15.9994           0
   61271 WT3  7908 TIP3 H1   HT     0.417000        1.0080           0
   61272 WT3  7908 TIP3 H2   HT     0.417000        1.0080           0
   61273 WT3  7916 TIP3 OH2  OT    -0.834000       15.9994           0
   61274 WT3  7916 TIP3 H1   HT     0.417000        1.0080           0
   61275 WT3  7916 TIP3 H2   HT     0.417000        1.0080           0
   61276 WT3  7922 TIP3 OH2  OT    -0.834000       15.9994           0
   61277 WT3  7922 TIP3 H1   HT     0.417000        1.0080           0
   61278 WT3  7922 TIP3 H2   HT     0.417000        1.0080           0
   61279 WT3  7923 TIP3 OH2  OT    -0.834000       15.9994           0
   61280 WT3  7923 TIP3 H1   HT     0.417000        1.0080           0
   61281 WT3  7923 TIP3 H2   HT     0.417000        1.0080           0
   61282 WT3  7924 TIP3 OH2  OT    -0.834000       15.9994           0
   61283 WT3  7924 TIP3 H1   HT     0.417000        1.0080           0
   61284 WT3  7924 TIP3 H2   HT     0.417000        1.0080           0
   61285 WT3  7926 TIP3 OH2  OT    -0.834000       15.9994           0
   61286 WT3  7926 TIP3 H1   HT     0.417000        1.0080           0
   61287 WT3  7926 TIP3 H2   HT     0.417000        1.0080           0
   61288 WT3  7927 TIP3 OH2  OT    -0.834000       15.9994           0
   61289 WT3  7927 TIP3 H1   HT     0.417000        1.0080           0
   61290 WT3  7927 TIP3 H2   HT     0.417000        1.0080           0
   61291 WT3  7929 TIP3 OH2  OT    -0.834000       15.9994           0
   61292 WT3  7929 TIP3 H1   HT     0.417000        1.0080           0
   61293 WT3  7929 TIP3 H2   HT     0.417000        1.0080           0
   61294 WT3  7930 TIP3 OH2  OT    -0.834000       15.9994           0
   61295 WT3  7930 TIP3 H1   HT     0.417000        1.0080           0
   61296 WT3  7930 TIP3 H2   HT     0.417000        1.0080           0
   61297 WT3  7931 TIP3 OH2  OT    -0.834000       15.9994           0
   61298 WT3  7931 TIP3 H1   HT     0.417000        1.0080           0
   61299 WT3  7931 TIP3 H2   HT     0.417000        1.0080           0
   61300 WT3  7932 TIP3 OH2  OT    -0.834000       15.9994           0
   61301 WT3  7932 TIP3 H1   HT     0.417000        1.0080           0
   61302 WT3  7932 TIP3 H2   HT     0.417000        1.0080           0
   61303 WT3  7933 TIP3 OH2  OT    -0.834000       15.9994           0
   61304 WT3  7933 TIP3 H1   HT     0.417000        1.0080           0
   61305 WT3  7933 TIP3 H2   HT     0.417000        1.0080           0
   61306 WT3  7937 TIP3 OH2  OT    -0.834000       15.9994           0
   61307 WT3  7937 TIP3 H1   HT     0.417000        1.0080           0
   61308 WT3  7937 TIP3 H2   HT     0.417000        1.0080           0
   61309 WT3  7938 TIP3 OH2  OT    -0.834000       15.9994           0
   61310 WT3  7938 TIP3 H1   HT     0.417000        1.0080           0
   61311 WT3  7938 TIP3 H2   HT     0.417000        1.0080           0
   61312 WT3  7939 TIP3 OH2  OT    -0.834000       15.9994           0
   61313 WT3  7939 TIP3 H1   HT     0.417000        1.0080           0
   61314 WT3  7939 TIP3 H2   HT     0.417000        1.0080           0
   61315 WT3  7941 TIP3 OH2  OT    -0.834000       15.9994           0
   61316 WT3  7941 TIP3 H1   HT     0.417000        1.0080           0
   61317 WT3  7941 TIP3 H2   HT     0.417000        1.0080           0
   61318 WT3  7942 TIP3 OH2  OT    -0.834000       15.9994           0
   61319 WT3  7942 TIP3 H1   HT     0.417000        1.0080           0
   61320 WT3  7942 TIP3 H2   HT     0.417000        1.0080           0
   61321 WT3  7943 TIP3 OH2  OT    -0.834000       15.9994           0
   61322 WT3  7943 TIP3 H1   HT     0.417000        1.0080           0
   61323 WT3  7943 TIP3 H2   HT     0.417000        1.0080           0
   61324 WT3  7945 TIP3 OH2  OT    -0.834000       15.9994           0
   61325 WT3  7945 TIP3 H1   HT     0.417000        1.0080           0
   61326 WT3  7945 TIP3 H2   HT     0.417000        1.0080           0
   61327 WT3  7947 TIP3 OH2  OT    -0.834000       15.9994           0
   61328 WT3  7947 TIP3 H1   HT     0.417000        1.0080           0
   61329 WT3  7947 TIP3 H2   HT     0.417000        1.0080           0
   61330 WT3  7948 TIP3 OH2  OT    -0.834000       15.9994           0
   61331 WT3  7948 TIP3 H1   HT     0.417000        1.0080           0
   61332 WT3  7948 TIP3 H2   HT     0.417000        1.0080           0
   61333 WT3  7949 TIP3 OH2  OT    -0.834000       15.9994           0
   61334 WT3  7949 TIP3 H1   HT     0.417000        1.0080           0
   61335 WT3  7949 TIP3 H2   HT     0.417000        1.0080           0
   61336 WT3  7950 TIP3 OH2  OT    -0.834000       15.9994           0
   61337 WT3  7950 TIP3 H1   HT     0.417000        1.0080           0
   61338 WT3  7950 TIP3 H2   HT     0.417000        1.0080           0
   61339 WT3  7951 TIP3 OH2  OT    -0.834000       15.9994           0
   61340 WT3  7951 TIP3 H1   HT     0.417000        1.0080           0
   61341 WT3  7951 TIP3 H2   HT     0.417000        1.0080           0
   61342 WT3  7952 TIP3 OH2  OT    -0.834000       15.9994           0
   61343 WT3  7952 TIP3 H1   HT     0.417000        1.0080           0
   61344 WT3  7952 TIP3 H2   HT     0.417000        1.0080           0
   61345 WT3  7953 TIP3 OH2  OT    -0.834000       15.9994           0
   61346 WT3  7953 TIP3 H1   HT     0.417000        1.0080           0
   61347 WT3  7953 TIP3 H2   HT     0.417000        1.0080           0
   61348 WT3  7955 TIP3 OH2  OT    -0.834000       15.9994           0
   61349 WT3  7955 TIP3 H1   HT     0.417000        1.0080           0
   61350 WT3  7955 TIP3 H2   HT     0.417000        1.0080           0
   61351 WT3  7957 TIP3 OH2  OT    -0.834000       15.9994           0
   61352 WT3  7957 TIP3 H1   HT     0.417000        1.0080           0
   61353 WT3  7957 TIP3 H2   HT     0.417000        1.0080           0
   61354 WT3  7958 TIP3 OH2  OT    -0.834000       15.9994           0
   61355 WT3  7958 TIP3 H1   HT     0.417000        1.0080           0
   61356 WT3  7958 TIP3 H2   HT     0.417000        1.0080           0
   61357 WT3  7961 TIP3 OH2  OT    -0.834000       15.9994           0
   61358 WT3  7961 TIP3 H1   HT     0.417000        1.0080           0
   61359 WT3  7961 TIP3 H2   HT     0.417000        1.0080           0
   61360 WT3  7962 TIP3 OH2  OT    -0.834000       15.9994           0
   61361 WT3  7962 TIP3 H1   HT     0.417000        1.0080           0
   61362 WT3  7962 TIP3 H2   HT     0.417000        1.0080           0
   61363 WT3  7963 TIP3 OH2  OT    -0.834000       15.9994           0
   61364 WT3  7963 TIP3 H1   HT     0.417000        1.0080           0
   61365 WT3  7963 TIP3 H2   HT     0.417000        1.0080           0
   61366 WT3  7964 TIP3 OH2  OT    -0.834000       15.9994           0
   61367 WT3  7964 TIP3 H1   HT     0.417000        1.0080           0
   61368 WT3  7964 TIP3 H2   HT     0.417000        1.0080           0
   61369 WT3  7965 TIP3 OH2  OT    -0.834000       15.9994           0
   61370 WT3  7965 TIP3 H1   HT     0.417000        1.0080           0
   61371 WT3  7965 TIP3 H2   HT     0.417000        1.0080           0
   61372 WT3  7966 TIP3 OH2  OT    -0.834000       15.9994           0
   61373 WT3  7966 TIP3 H1   HT     0.417000        1.0080           0
   61374 WT3  7966 TIP3 H2   HT     0.417000        1.0080           0
   61375 WT3  7967 TIP3 OH2  OT    -0.834000       15.9994           0
   61376 WT3  7967 TIP3 H1   HT     0.417000        1.0080           0
   61377 WT3  7967 TIP3 H2   HT     0.417000        1.0080           0
   61378 WT3  7969 TIP3 OH2  OT    -0.834000       15.9994           0
   61379 WT3  7969 TIP3 H1   HT     0.417000        1.0080           0
   61380 WT3  7969 TIP3 H2   HT     0.417000        1.0080           0
   61381 WT3  7970 TIP3 OH2  OT    -0.834000       15.9994           0
   61382 WT3  7970 TIP3 H1   HT     0.417000        1.0080           0
   61383 WT3  7970 TIP3 H2   HT     0.417000        1.0080           0
   61384 WT3  7973 TIP3 OH2  OT    -0.834000       15.9994           0
   61385 WT3  7973 TIP3 H1   HT     0.417000        1.0080           0
   61386 WT3  7973 TIP3 H2   HT     0.417000        1.0080           0
   61387 WT3  7974 TIP3 OH2  OT    -0.834000       15.9994           0
   61388 WT3  7974 TIP3 H1   HT     0.417000        1.0080           0
   61389 WT3  7974 TIP3 H2   HT     0.417000        1.0080           0
   61390 WT3  7976 TIP3 OH2  OT    -0.834000       15.9994           0
   61391 WT3  7976 TIP3 H1   HT     0.417000        1.0080           0
   61392 WT3  7976 TIP3 H2   HT     0.417000        1.0080           0
   61393 WT3  7978 TIP3 OH2  OT    -0.834000       15.9994           0
   61394 WT3  7978 TIP3 H1   HT     0.417000        1.0080           0
   61395 WT3  7978 TIP3 H2   HT     0.417000        1.0080           0
   61396 WT3  7980 TIP3 OH2  OT    -0.834000       15.9994           0
   61397 WT3  7980 TIP3 H1   HT     0.417000        1.0080           0
   61398 WT3  7980 TIP3 H2   HT     0.417000        1.0080           0
   61399 WT3  7982 TIP3 OH2  OT    -0.834000       15.9994           0
   61400 WT3  7982 TIP3 H1   HT     0.417000        1.0080           0
   61401 WT3  7982 TIP3 H2   HT     0.417000        1.0080           0
   61402 WT3  7983 TIP3 OH2  OT    -0.834000       15.9994           0
   61403 WT3  7983 TIP3 H1   HT     0.417000        1.0080           0
   61404 WT3  7983 TIP3 H2   HT     0.417000        1.0080           0
   61405 WT3  7984 TIP3 OH2  OT    -0.834000       15.9994           0
   61406 WT3  7984 TIP3 H1   HT     0.417000        1.0080           0
   61407 WT3  7984 TIP3 H2   HT     0.417000        1.0080           0
   61408 WT3  7985 TIP3 OH2  OT    -0.834000       15.9994           0
   61409 WT3  7985 TIP3 H1   HT     0.417000        1.0080           0
   61410 WT3  7985 TIP3 H2   HT     0.417000        1.0080           0
   61411 WT3  7986 TIP3 OH2  OT    -0.834000       15.9994           0
   61412 WT3  7986 TIP3 H1   HT     0.417000        1.0080           0
   61413 WT3  7986 TIP3 H2   HT     0.417000        1.0080           0
   61414 WT3  7987 TIP3 OH2  OT    -0.834000       15.9994           0
   61415 WT3  7987 TIP3 H1   HT     0.417000        1.0080           0
   61416 WT3  7987 TIP3 H2   HT     0.417000        1.0080           0
   61417 WT3  7988 TIP3 OH2  OT    -0.834000       15.9994           0
   61418 WT3  7988 TIP3 H1   HT     0.417000        1.0080           0
   61419 WT3  7988 TIP3 H2   HT     0.417000        1.0080           0
   61420 WT3  7989 TIP3 OH2  OT    -0.834000       15.9994           0
   61421 WT3  7989 TIP3 H1   HT     0.417000        1.0080           0
   61422 WT3  7989 TIP3 H2   HT     0.417000        1.0080           0
   61423 WT3  7990 TIP3 OH2  OT    -0.834000       15.9994           0
   61424 WT3  7990 TIP3 H1   HT     0.417000        1.0080           0
   61425 WT3  7990 TIP3 H2   HT     0.417000        1.0080           0
   61426 WT3  7991 TIP3 OH2  OT    -0.834000       15.9994           0
   61427 WT3  7991 TIP3 H1   HT     0.417000        1.0080           0
   61428 WT3  7991 TIP3 H2   HT     0.417000        1.0080           0
   61429 WT3  7992 TIP3 OH2  OT    -0.834000       15.9994           0
   61430 WT3  7992 TIP3 H1   HT     0.417000        1.0080           0
   61431 WT3  7992 TIP3 H2   HT     0.417000        1.0080           0
   61432 WT3  7993 TIP3 OH2  OT    -0.834000       15.9994           0
   61433 WT3  7993 TIP3 H1   HT     0.417000        1.0080           0
   61434 WT3  7993 TIP3 H2   HT     0.417000        1.0080           0
   61435 WT3  7995 TIP3 OH2  OT    -0.834000       15.9994           0
   61436 WT3  7995 TIP3 H1   HT     0.417000        1.0080           0
   61437 WT3  7995 TIP3 H2   HT     0.417000        1.0080           0
   61438 WT3  7996 TIP3 OH2  OT    -0.834000       15.9994           0
   61439 WT3  7996 TIP3 H1   HT     0.417000        1.0080           0
   61440 WT3  7996 TIP3 H2   HT     0.417000        1.0080           0
   61441 WT3  7997 TIP3 OH2  OT    -0.834000       15.9994           0
   61442 WT3  7997 TIP3 H1   HT     0.417000        1.0080           0
   61443 WT3  7997 TIP3 H2   HT     0.417000        1.0080           0
   61444 WT3  7999 TIP3 OH2  OT    -0.834000       15.9994           0
   61445 WT3  7999 TIP3 H1   HT     0.417000        1.0080           0
   61446 WT3  7999 TIP3 H2   HT     0.417000        1.0080           0
   61447 WT3  8001 TIP3 OH2  OT    -0.834000       15.9994           0
   61448 WT3  8001 TIP3 H1   HT     0.417000        1.0080           0
   61449 WT3  8001 TIP3 H2   HT     0.417000        1.0080           0
   61450 WT3  8002 TIP3 OH2  OT    -0.834000       15.9994           0
   61451 WT3  8002 TIP3 H1   HT     0.417000        1.0080           0
   61452 WT3  8002 TIP3 H2   HT     0.417000        1.0080           0
   61453 WT3  8003 TIP3 OH2  OT    -0.834000       15.9994           0
   61454 WT3  8003 TIP3 H1   HT     0.417000        1.0080           0
   61455 WT3  8003 TIP3 H2   HT     0.417000        1.0080           0
   61456 WT3  8004 TIP3 OH2  OT    -0.834000       15.9994           0
   61457 WT3  8004 TIP3 H1   HT     0.417000        1.0080           0
   61458 WT3  8004 TIP3 H2   HT     0.417000        1.0080           0
   61459 WT3  8005 TIP3 OH2  OT    -0.834000       15.9994           0
   61460 WT3  8005 TIP3 H1   HT     0.417000        1.0080           0
   61461 WT3  8005 TIP3 H2   HT     0.417000        1.0080           0
   61462 WT3  8006 TIP3 OH2  OT    -0.834000       15.9994           0
   61463 WT3  8006 TIP3 H1   HT     0.417000        1.0080           0
   61464 WT3  8006 TIP3 H2   HT     0.417000        1.0080           0
   61465 WT3  8007 TIP3 OH2  OT    -0.834000       15.9994           0
   61466 WT3  8007 TIP3 H1   HT     0.417000        1.0080           0
   61467 WT3  8007 TIP3 H2   HT     0.417000        1.0080           0
   61468 WT3  8008 TIP3 OH2  OT    -0.834000       15.9994           0
   61469 WT3  8008 TIP3 H1   HT     0.417000        1.0080           0
   61470 WT3  8008 TIP3 H2   HT     0.417000        1.0080           0
   61471 WT3  8009 TIP3 OH2  OT    -0.834000       15.9994           0
   61472 WT3  8009 TIP3 H1   HT     0.417000        1.0080           0
   61473 WT3  8009 TIP3 H2   HT     0.417000        1.0080           0
   61474 WT3  8010 TIP3 OH2  OT    -0.834000       15.9994           0
   61475 WT3  8010 TIP3 H1   HT     0.417000        1.0080           0
   61476 WT3  8010 TIP3 H2   HT     0.417000        1.0080           0
   61477 WT3  8011 TIP3 OH2  OT    -0.834000       15.9994           0
   61478 WT3  8011 TIP3 H1   HT     0.417000        1.0080           0
   61479 WT3  8011 TIP3 H2   HT     0.417000        1.0080           0
   61480 WT3  8013 TIP3 OH2  OT    -0.834000       15.9994           0
   61481 WT3  8013 TIP3 H1   HT     0.417000        1.0080           0
   61482 WT3  8013 TIP3 H2   HT     0.417000        1.0080           0
   61483 WT3  8014 TIP3 OH2  OT    -0.834000       15.9994           0
   61484 WT3  8014 TIP3 H1   HT     0.417000        1.0080           0
   61485 WT3  8014 TIP3 H2   HT     0.417000        1.0080           0
   61486 WT3  8016 TIP3 OH2  OT    -0.834000       15.9994           0
   61487 WT3  8016 TIP3 H1   HT     0.417000        1.0080           0
   61488 WT3  8016 TIP3 H2   HT     0.417000        1.0080           0
   61489 WT3  8018 TIP3 OH2  OT    -0.834000       15.9994           0
   61490 WT3  8018 TIP3 H1   HT     0.417000        1.0080           0
   61491 WT3  8018 TIP3 H2   HT     0.417000        1.0080           0
   61492 WT3  8019 TIP3 OH2  OT    -0.834000       15.9994           0
   61493 WT3  8019 TIP3 H1   HT     0.417000        1.0080           0
   61494 WT3  8019 TIP3 H2   HT     0.417000        1.0080           0
   61495 WT3  8022 TIP3 OH2  OT    -0.834000       15.9994           0
   61496 WT3  8022 TIP3 H1   HT     0.417000        1.0080           0
   61497 WT3  8022 TIP3 H2   HT     0.417000        1.0080           0
   61498 WT3  8023 TIP3 OH2  OT    -0.834000       15.9994           0
   61499 WT3  8023 TIP3 H1   HT     0.417000        1.0080           0
   61500 WT3  8023 TIP3 H2   HT     0.417000        1.0080           0
   61501 WT3  8024 TIP3 OH2  OT    -0.834000       15.9994           0
   61502 WT3  8024 TIP3 H1   HT     0.417000        1.0080           0
   61503 WT3  8024 TIP3 H2   HT     0.417000        1.0080           0
   61504 WT3  8025 TIP3 OH2  OT    -0.834000       15.9994           0
   61505 WT3  8025 TIP3 H1   HT     0.417000        1.0080           0
   61506 WT3  8025 TIP3 H2   HT     0.417000        1.0080           0
   61507 WT3  8026 TIP3 OH2  OT    -0.834000       15.9994           0
   61508 WT3  8026 TIP3 H1   HT     0.417000        1.0080           0
   61509 WT3  8026 TIP3 H2   HT     0.417000        1.0080           0
   61510 WT3  8027 TIP3 OH2  OT    -0.834000       15.9994           0
   61511 WT3  8027 TIP3 H1   HT     0.417000        1.0080           0
   61512 WT3  8027 TIP3 H2   HT     0.417000        1.0080           0
   61513 WT3  8028 TIP3 OH2  OT    -0.834000       15.9994           0
   61514 WT3  8028 TIP3 H1   HT     0.417000        1.0080           0
   61515 WT3  8028 TIP3 H2   HT     0.417000        1.0080           0
   61516 WT3  8029 TIP3 OH2  OT    -0.834000       15.9994           0
   61517 WT3  8029 TIP3 H1   HT     0.417000        1.0080           0
   61518 WT3  8029 TIP3 H2   HT     0.417000        1.0080           0
   61519 WT3  8030 TIP3 OH2  OT    -0.834000       15.9994           0
   61520 WT3  8030 TIP3 H1   HT     0.417000        1.0080           0
   61521 WT3  8030 TIP3 H2   HT     0.417000        1.0080           0
   61522 WT3  8032 TIP3 OH2  OT    -0.834000       15.9994           0
   61523 WT3  8032 TIP3 H1   HT     0.417000        1.0080           0
   61524 WT3  8032 TIP3 H2   HT     0.417000        1.0080           0
   61525 WT3  8034 TIP3 OH2  OT    -0.834000       15.9994           0
   61526 WT3  8034 TIP3 H1   HT     0.417000        1.0080           0
   61527 WT3  8034 TIP3 H2   HT     0.417000        1.0080           0
   61528 WT3  8035 TIP3 OH2  OT    -0.834000       15.9994           0
   61529 WT3  8035 TIP3 H1   HT     0.417000        1.0080           0
   61530 WT3  8035 TIP3 H2   HT     0.417000        1.0080           0
   61531 WT3  8036 TIP3 OH2  OT    -0.834000       15.9994           0
   61532 WT3  8036 TIP3 H1   HT     0.417000        1.0080           0
   61533 WT3  8036 TIP3 H2   HT     0.417000        1.0080           0
   61534 WT3  8039 TIP3 OH2  OT    -0.834000       15.9994           0
   61535 WT3  8039 TIP3 H1   HT     0.417000        1.0080           0
   61536 WT3  8039 TIP3 H2   HT     0.417000        1.0080           0
   61537 WT3  8040 TIP3 OH2  OT    -0.834000       15.9994           0
   61538 WT3  8040 TIP3 H1   HT     0.417000        1.0080           0
   61539 WT3  8040 TIP3 H2   HT     0.417000        1.0080           0
   61540 WT3  8041 TIP3 OH2  OT    -0.834000       15.9994           0
   61541 WT3  8041 TIP3 H1   HT     0.417000        1.0080           0
   61542 WT3  8041 TIP3 H2   HT     0.417000        1.0080           0
   61543 WT3  8043 TIP3 OH2  OT    -0.834000       15.9994           0
   61544 WT3  8043 TIP3 H1   HT     0.417000        1.0080           0
   61545 WT3  8043 TIP3 H2   HT     0.417000        1.0080           0
   61546 WT3  8044 TIP3 OH2  OT    -0.834000       15.9994           0
   61547 WT3  8044 TIP3 H1   HT     0.417000        1.0080           0
   61548 WT3  8044 TIP3 H2   HT     0.417000        1.0080           0
   61549 WT3  8045 TIP3 OH2  OT    -0.834000       15.9994           0
   61550 WT3  8045 TIP3 H1   HT     0.417000        1.0080           0
   61551 WT3  8045 TIP3 H2   HT     0.417000        1.0080           0
   61552 WT3  8046 TIP3 OH2  OT    -0.834000       15.9994           0
   61553 WT3  8046 TIP3 H1   HT     0.417000        1.0080           0
   61554 WT3  8046 TIP3 H2   HT     0.417000        1.0080           0
   61555 WT3  8047 TIP3 OH2  OT    -0.834000       15.9994           0
   61556 WT3  8047 TIP3 H1   HT     0.417000        1.0080           0
   61557 WT3  8047 TIP3 H2   HT     0.417000        1.0080           0
   61558 WT3  8049 TIP3 OH2  OT    -0.834000       15.9994           0
   61559 WT3  8049 TIP3 H1   HT     0.417000        1.0080           0
   61560 WT3  8049 TIP3 H2   HT     0.417000        1.0080           0
   61561 WT3  8050 TIP3 OH2  OT    -0.834000       15.9994           0
   61562 WT3  8050 TIP3 H1   HT     0.417000        1.0080           0
   61563 WT3  8050 TIP3 H2   HT     0.417000        1.0080           0
   61564 WT3  8051 TIP3 OH2  OT    -0.834000       15.9994           0
   61565 WT3  8051 TIP3 H1   HT     0.417000        1.0080           0
   61566 WT3  8051 TIP3 H2   HT     0.417000        1.0080           0
   61567 WT3  8052 TIP3 OH2  OT    -0.834000       15.9994           0
   61568 WT3  8052 TIP3 H1   HT     0.417000        1.0080           0
   61569 WT3  8052 TIP3 H2   HT     0.417000        1.0080           0
   61570 WT3  8053 TIP3 OH2  OT    -0.834000       15.9994           0
   61571 WT3  8053 TIP3 H1   HT     0.417000        1.0080           0
   61572 WT3  8053 TIP3 H2   HT     0.417000        1.0080           0
   61573 WT3  8054 TIP3 OH2  OT    -0.834000       15.9994           0
   61574 WT3  8054 TIP3 H1   HT     0.417000        1.0080           0
   61575 WT3  8054 TIP3 H2   HT     0.417000        1.0080           0
   61576 WT3  8055 TIP3 OH2  OT    -0.834000       15.9994           0
   61577 WT3  8055 TIP3 H1   HT     0.417000        1.0080           0
   61578 WT3  8055 TIP3 H2   HT     0.417000        1.0080           0
   61579 WT3  8056 TIP3 OH2  OT    -0.834000       15.9994           0
   61580 WT3  8056 TIP3 H1   HT     0.417000        1.0080           0
   61581 WT3  8056 TIP3 H2   HT     0.417000        1.0080           0
   61582 WT3  8057 TIP3 OH2  OT    -0.834000       15.9994           0
   61583 WT3  8057 TIP3 H1   HT     0.417000        1.0080           0
   61584 WT3  8057 TIP3 H2   HT     0.417000        1.0080           0
   61585 WT3  8058 TIP3 OH2  OT    -0.834000       15.9994           0
   61586 WT3  8058 TIP3 H1   HT     0.417000        1.0080           0
   61587 WT3  8058 TIP3 H2   HT     0.417000        1.0080           0
   61588 WT3  8059 TIP3 OH2  OT    -0.834000       15.9994           0
   61589 WT3  8059 TIP3 H1   HT     0.417000        1.0080           0
   61590 WT3  8059 TIP3 H2   HT     0.417000        1.0080           0
   61591 WT3  8060 TIP3 OH2  OT    -0.834000       15.9994           0
   61592 WT3  8060 TIP3 H1   HT     0.417000        1.0080           0
   61593 WT3  8060 TIP3 H2   HT     0.417000        1.0080           0
   61594 WT3  8061 TIP3 OH2  OT    -0.834000       15.9994           0
   61595 WT3  8061 TIP3 H1   HT     0.417000        1.0080           0
   61596 WT3  8061 TIP3 H2   HT     0.417000        1.0080           0
   61597 WT3  8063 TIP3 OH2  OT    -0.834000       15.9994           0
   61598 WT3  8063 TIP3 H1   HT     0.417000        1.0080           0
   61599 WT3  8063 TIP3 H2   HT     0.417000        1.0080           0
   61600 WT3  8064 TIP3 OH2  OT    -0.834000       15.9994           0
   61601 WT3  8064 TIP3 H1   HT     0.417000        1.0080           0
   61602 WT3  8064 TIP3 H2   HT     0.417000        1.0080           0
   61603 WT3  8065 TIP3 OH2  OT    -0.834000       15.9994           0
   61604 WT3  8065 TIP3 H1   HT     0.417000        1.0080           0
   61605 WT3  8065 TIP3 H2   HT     0.417000        1.0080           0
   61606 WT3  8066 TIP3 OH2  OT    -0.834000       15.9994           0
   61607 WT3  8066 TIP3 H1   HT     0.417000        1.0080           0
   61608 WT3  8066 TIP3 H2   HT     0.417000        1.0080           0
   61609 WT3  8067 TIP3 OH2  OT    -0.834000       15.9994           0
   61610 WT3  8067 TIP3 H1   HT     0.417000        1.0080           0
   61611 WT3  8067 TIP3 H2   HT     0.417000        1.0080           0
   61612 WT3  8068 TIP3 OH2  OT    -0.834000       15.9994           0
   61613 WT3  8068 TIP3 H1   HT     0.417000        1.0080           0
   61614 WT3  8068 TIP3 H2   HT     0.417000        1.0080           0
   61615 WT3  8069 TIP3 OH2  OT    -0.834000       15.9994           0
   61616 WT3  8069 TIP3 H1   HT     0.417000        1.0080           0
   61617 WT3  8069 TIP3 H2   HT     0.417000        1.0080           0
   61618 WT3  8070 TIP3 OH2  OT    -0.834000       15.9994           0
   61619 WT3  8070 TIP3 H1   HT     0.417000        1.0080           0
   61620 WT3  8070 TIP3 H2   HT     0.417000        1.0080           0
   61621 WT3  8071 TIP3 OH2  OT    -0.834000       15.9994           0
   61622 WT3  8071 TIP3 H1   HT     0.417000        1.0080           0
   61623 WT3  8071 TIP3 H2   HT     0.417000        1.0080           0
   61624 WT3  8072 TIP3 OH2  OT    -0.834000       15.9994           0
   61625 WT3  8072 TIP3 H1   HT     0.417000        1.0080           0
   61626 WT3  8072 TIP3 H2   HT     0.417000        1.0080           0
   61627 WT3  8073 TIP3 OH2  OT    -0.834000       15.9994           0
   61628 WT3  8073 TIP3 H1   HT     0.417000        1.0080           0
   61629 WT3  8073 TIP3 H2   HT     0.417000        1.0080           0
   61630 WT3  8074 TIP3 OH2  OT    -0.834000       15.9994           0
   61631 WT3  8074 TIP3 H1   HT     0.417000        1.0080           0
   61632 WT3  8074 TIP3 H2   HT     0.417000        1.0080           0
   61633 WT3  8075 TIP3 OH2  OT    -0.834000       15.9994           0
   61634 WT3  8075 TIP3 H1   HT     0.417000        1.0080           0
   61635 WT3  8075 TIP3 H2   HT     0.417000        1.0080           0
   61636 WT3  8076 TIP3 OH2  OT    -0.834000       15.9994           0
   61637 WT3  8076 TIP3 H1   HT     0.417000        1.0080           0
   61638 WT3  8076 TIP3 H2   HT     0.417000        1.0080           0
   61639 WT3  8077 TIP3 OH2  OT    -0.834000       15.9994           0
   61640 WT3  8077 TIP3 H1   HT     0.417000        1.0080           0
   61641 WT3  8077 TIP3 H2   HT     0.417000        1.0080           0
   61642 WT3  8078 TIP3 OH2  OT    -0.834000       15.9994           0
   61643 WT3  8078 TIP3 H1   HT     0.417000        1.0080           0
   61644 WT3  8078 TIP3 H2   HT     0.417000        1.0080           0
   61645 WT3  8080 TIP3 OH2  OT    -0.834000       15.9994           0
   61646 WT3  8080 TIP3 H1   HT     0.417000        1.0080           0
   61647 WT3  8080 TIP3 H2   HT     0.417000        1.0080           0
   61648 WT3  8081 TIP3 OH2  OT    -0.834000       15.9994           0
   61649 WT3  8081 TIP3 H1   HT     0.417000        1.0080           0
   61650 WT3  8081 TIP3 H2   HT     0.417000        1.0080           0
   61651 WT3  8084 TIP3 OH2  OT    -0.834000       15.9994           0
   61652 WT3  8084 TIP3 H1   HT     0.417000        1.0080           0
   61653 WT3  8084 TIP3 H2   HT     0.417000        1.0080           0
   61654 WT3  8085 TIP3 OH2  OT    -0.834000       15.9994           0
   61655 WT3  8085 TIP3 H1   HT     0.417000        1.0080           0
   61656 WT3  8085 TIP3 H2   HT     0.417000        1.0080           0
   61657 WT3  8086 TIP3 OH2  OT    -0.834000       15.9994           0
   61658 WT3  8086 TIP3 H1   HT     0.417000        1.0080           0
   61659 WT3  8086 TIP3 H2   HT     0.417000        1.0080           0
   61660 WT3  8087 TIP3 OH2  OT    -0.834000       15.9994           0
   61661 WT3  8087 TIP3 H1   HT     0.417000        1.0080           0
   61662 WT3  8087 TIP3 H2   HT     0.417000        1.0080           0
   61663 WT3  8088 TIP3 OH2  OT    -0.834000       15.9994           0
   61664 WT3  8088 TIP3 H1   HT     0.417000        1.0080           0
   61665 WT3  8088 TIP3 H2   HT     0.417000        1.0080           0
   61666 WT3  8089 TIP3 OH2  OT    -0.834000       15.9994           0
   61667 WT3  8089 TIP3 H1   HT     0.417000        1.0080           0
   61668 WT3  8089 TIP3 H2   HT     0.417000        1.0080           0
   61669 WT3  8090 TIP3 OH2  OT    -0.834000       15.9994           0
   61670 WT3  8090 TIP3 H1   HT     0.417000        1.0080           0
   61671 WT3  8090 TIP3 H2   HT     0.417000        1.0080           0
   61672 WT3  8091 TIP3 OH2  OT    -0.834000       15.9994           0
   61673 WT3  8091 TIP3 H1   HT     0.417000        1.0080           0
   61674 WT3  8091 TIP3 H2   HT     0.417000        1.0080           0
   61675 WT3  8092 TIP3 OH2  OT    -0.834000       15.9994           0
   61676 WT3  8092 TIP3 H1   HT     0.417000        1.0080           0
   61677 WT3  8092 TIP3 H2   HT     0.417000        1.0080           0
   61678 WT3  8093 TIP3 OH2  OT    -0.834000       15.9994           0
   61679 WT3  8093 TIP3 H1   HT     0.417000        1.0080           0
   61680 WT3  8093 TIP3 H2   HT     0.417000        1.0080           0
   61681 WT3  8094 TIP3 OH2  OT    -0.834000       15.9994           0
   61682 WT3  8094 TIP3 H1   HT     0.417000        1.0080           0
   61683 WT3  8094 TIP3 H2   HT     0.417000        1.0080           0
   61684 WT3  8095 TIP3 OH2  OT    -0.834000       15.9994           0
   61685 WT3  8095 TIP3 H1   HT     0.417000        1.0080           0
   61686 WT3  8095 TIP3 H2   HT     0.417000        1.0080           0
   61687 WT3  8096 TIP3 OH2  OT    -0.834000       15.9994           0
   61688 WT3  8096 TIP3 H1   HT     0.417000        1.0080           0
   61689 WT3  8096 TIP3 H2   HT     0.417000        1.0080           0
   61690 WT3  8097 TIP3 OH2  OT    -0.834000       15.9994           0
   61691 WT3  8097 TIP3 H1   HT     0.417000        1.0080           0
   61692 WT3  8097 TIP3 H2   HT     0.417000        1.0080           0
   61693 WT3  8098 TIP3 OH2  OT    -0.834000       15.9994           0
   61694 WT3  8098 TIP3 H1   HT     0.417000        1.0080           0
   61695 WT3  8098 TIP3 H2   HT     0.417000        1.0080           0
   61696 WT3  8099 TIP3 OH2  OT    -0.834000       15.9994           0
   61697 WT3  8099 TIP3 H1   HT     0.417000        1.0080           0
   61698 WT3  8099 TIP3 H2   HT     0.417000        1.0080           0
   61699 WT3  8100 TIP3 OH2  OT    -0.834000       15.9994           0
   61700 WT3  8100 TIP3 H1   HT     0.417000        1.0080           0
   61701 WT3  8100 TIP3 H2   HT     0.417000        1.0080           0
   61702 WT3  8101 TIP3 OH2  OT    -0.834000       15.9994           0
   61703 WT3  8101 TIP3 H1   HT     0.417000        1.0080           0
   61704 WT3  8101 TIP3 H2   HT     0.417000        1.0080           0
   61705 WT3  8102 TIP3 OH2  OT    -0.834000       15.9994           0
   61706 WT3  8102 TIP3 H1   HT     0.417000        1.0080           0
   61707 WT3  8102 TIP3 H2   HT     0.417000        1.0080           0
   61708 WT3  8103 TIP3 OH2  OT    -0.834000       15.9994           0
   61709 WT3  8103 TIP3 H1   HT     0.417000        1.0080           0
   61710 WT3  8103 TIP3 H2   HT     0.417000        1.0080           0
   61711 WT3  8104 TIP3 OH2  OT    -0.834000       15.9994           0
   61712 WT3  8104 TIP3 H1   HT     0.417000        1.0080           0
   61713 WT3  8104 TIP3 H2   HT     0.417000        1.0080           0
   61714 WT3  8106 TIP3 OH2  OT    -0.834000       15.9994           0
   61715 WT3  8106 TIP3 H1   HT     0.417000        1.0080           0
   61716 WT3  8106 TIP3 H2   HT     0.417000        1.0080           0
   61717 WT3  8107 TIP3 OH2  OT    -0.834000       15.9994           0
   61718 WT3  8107 TIP3 H1   HT     0.417000        1.0080           0
   61719 WT3  8107 TIP3 H2   HT     0.417000        1.0080           0
   61720 WT3  8108 TIP3 OH2  OT    -0.834000       15.9994           0
   61721 WT3  8108 TIP3 H1   HT     0.417000        1.0080           0
   61722 WT3  8108 TIP3 H2   HT     0.417000        1.0080           0
   61723 WT3  8109 TIP3 OH2  OT    -0.834000       15.9994           0
   61724 WT3  8109 TIP3 H1   HT     0.417000        1.0080           0
   61725 WT3  8109 TIP3 H2   HT     0.417000        1.0080           0
   61726 WT3  8110 TIP3 OH2  OT    -0.834000       15.9994           0
   61727 WT3  8110 TIP3 H1   HT     0.417000        1.0080           0
   61728 WT3  8110 TIP3 H2   HT     0.417000        1.0080           0
   61729 WT3  8111 TIP3 OH2  OT    -0.834000       15.9994           0
   61730 WT3  8111 TIP3 H1   HT     0.417000        1.0080           0
   61731 WT3  8111 TIP3 H2   HT     0.417000        1.0080           0
   61732 WT3  8112 TIP3 OH2  OT    -0.834000       15.9994           0
   61733 WT3  8112 TIP3 H1   HT     0.417000        1.0080           0
   61734 WT3  8112 TIP3 H2   HT     0.417000        1.0080           0
   61735 WT3  8113 TIP3 OH2  OT    -0.834000       15.9994           0
   61736 WT3  8113 TIP3 H1   HT     0.417000        1.0080           0
   61737 WT3  8113 TIP3 H2   HT     0.417000        1.0080           0
   61738 WT3  8114 TIP3 OH2  OT    -0.834000       15.9994           0
   61739 WT3  8114 TIP3 H1   HT     0.417000        1.0080           0
   61740 WT3  8114 TIP3 H2   HT     0.417000        1.0080           0
   61741 WT3  8115 TIP3 OH2  OT    -0.834000       15.9994           0
   61742 WT3  8115 TIP3 H1   HT     0.417000        1.0080           0
   61743 WT3  8115 TIP3 H2   HT     0.417000        1.0080           0
   61744 WT3  8116 TIP3 OH2  OT    -0.834000       15.9994           0
   61745 WT3  8116 TIP3 H1   HT     0.417000        1.0080           0
   61746 WT3  8116 TIP3 H2   HT     0.417000        1.0080           0
   61747 WT3  8117 TIP3 OH2  OT    -0.834000       15.9994           0
   61748 WT3  8117 TIP3 H1   HT     0.417000        1.0080           0
   61749 WT3  8117 TIP3 H2   HT     0.417000        1.0080           0
   61750 WT3  8118 TIP3 OH2  OT    -0.834000       15.9994           0
   61751 WT3  8118 TIP3 H1   HT     0.417000        1.0080           0
   61752 WT3  8118 TIP3 H2   HT     0.417000        1.0080           0
   61753 WT3  8119 TIP3 OH2  OT    -0.834000       15.9994           0
   61754 WT3  8119 TIP3 H1   HT     0.417000        1.0080           0
   61755 WT3  8119 TIP3 H2   HT     0.417000        1.0080           0
   61756 WT3  8120 TIP3 OH2  OT    -0.834000       15.9994           0
   61757 WT3  8120 TIP3 H1   HT     0.417000        1.0080           0
   61758 WT3  8120 TIP3 H2   HT     0.417000        1.0080           0
   61759 WT3  8121 TIP3 OH2  OT    -0.834000       15.9994           0
   61760 WT3  8121 TIP3 H1   HT     0.417000        1.0080           0
   61761 WT3  8121 TIP3 H2   HT     0.417000        1.0080           0
   61762 WT3  8126 TIP3 OH2  OT    -0.834000       15.9994           0
   61763 WT3  8126 TIP3 H1   HT     0.417000        1.0080           0
   61764 WT3  8126 TIP3 H2   HT     0.417000        1.0080           0
   61765 WT3  8127 TIP3 OH2  OT    -0.834000       15.9994           0
   61766 WT3  8127 TIP3 H1   HT     0.417000        1.0080           0
   61767 WT3  8127 TIP3 H2   HT     0.417000        1.0080           0
   61768 WT3  8128 TIP3 OH2  OT    -0.834000       15.9994           0
   61769 WT3  8128 TIP3 H1   HT     0.417000        1.0080           0
   61770 WT3  8128 TIP3 H2   HT     0.417000        1.0080           0
   61771 WT3  8129 TIP3 OH2  OT    -0.834000       15.9994           0
   61772 WT3  8129 TIP3 H1   HT     0.417000        1.0080           0
   61773 WT3  8129 TIP3 H2   HT     0.417000        1.0080           0
   61774 WT3  8130 TIP3 OH2  OT    -0.834000       15.9994           0
   61775 WT3  8130 TIP3 H1   HT     0.417000        1.0080           0
   61776 WT3  8130 TIP3 H2   HT     0.417000        1.0080           0
   61777 WT3  8131 TIP3 OH2  OT    -0.834000       15.9994           0
   61778 WT3  8131 TIP3 H1   HT     0.417000        1.0080           0
   61779 WT3  8131 TIP3 H2   HT     0.417000        1.0080           0
   61780 WT3  8132 TIP3 OH2  OT    -0.834000       15.9994           0
   61781 WT3  8132 TIP3 H1   HT     0.417000        1.0080           0
   61782 WT3  8132 TIP3 H2   HT     0.417000        1.0080           0
   61783 WT3  8133 TIP3 OH2  OT    -0.834000       15.9994           0
   61784 WT3  8133 TIP3 H1   HT     0.417000        1.0080           0
   61785 WT3  8133 TIP3 H2   HT     0.417000        1.0080           0
   61786 WT3  8135 TIP3 OH2  OT    -0.834000       15.9994           0
   61787 WT3  8135 TIP3 H1   HT     0.417000        1.0080           0
   61788 WT3  8135 TIP3 H2   HT     0.417000        1.0080           0
   61789 WT3  8136 TIP3 OH2  OT    -0.834000       15.9994           0
   61790 WT3  8136 TIP3 H1   HT     0.417000        1.0080           0
   61791 WT3  8136 TIP3 H2   HT     0.417000        1.0080           0
   61792 WT3  8137 TIP3 OH2  OT    -0.834000       15.9994           0
   61793 WT3  8137 TIP3 H1   HT     0.417000        1.0080           0
   61794 WT3  8137 TIP3 H2   HT     0.417000        1.0080           0
   61795 WT3  8138 TIP3 OH2  OT    -0.834000       15.9994           0
   61796 WT3  8138 TIP3 H1   HT     0.417000        1.0080           0
   61797 WT3  8138 TIP3 H2   HT     0.417000        1.0080           0
   61798 WT3  8139 TIP3 OH2  OT    -0.834000       15.9994           0
   61799 WT3  8139 TIP3 H1   HT     0.417000        1.0080           0
   61800 WT3  8139 TIP3 H2   HT     0.417000        1.0080           0
   61801 WT3  8140 TIP3 OH2  OT    -0.834000       15.9994           0
   61802 WT3  8140 TIP3 H1   HT     0.417000        1.0080           0
   61803 WT3  8140 TIP3 H2   HT     0.417000        1.0080           0
   61804 WT3  8143 TIP3 OH2  OT    -0.834000       15.9994           0
   61805 WT3  8143 TIP3 H1   HT     0.417000        1.0080           0
   61806 WT3  8143 TIP3 H2   HT     0.417000        1.0080           0
   61807 WT3  8144 TIP3 OH2  OT    -0.834000       15.9994           0
   61808 WT3  8144 TIP3 H1   HT     0.417000        1.0080           0
   61809 WT3  8144 TIP3 H2   HT     0.417000        1.0080           0
   61810 WT3  8145 TIP3 OH2  OT    -0.834000       15.9994           0
   61811 WT3  8145 TIP3 H1   HT     0.417000        1.0080           0
   61812 WT3  8145 TIP3 H2   HT     0.417000        1.0080           0
   61813 WT3  8146 TIP3 OH2  OT    -0.834000       15.9994           0
   61814 WT3  8146 TIP3 H1   HT     0.417000        1.0080           0
   61815 WT3  8146 TIP3 H2   HT     0.417000        1.0080           0
   61816 WT3  8147 TIP3 OH2  OT    -0.834000       15.9994           0
   61817 WT3  8147 TIP3 H1   HT     0.417000        1.0080           0
   61818 WT3  8147 TIP3 H2   HT     0.417000        1.0080           0
   61819 WT3  8150 TIP3 OH2  OT    -0.834000       15.9994           0
   61820 WT3  8150 TIP3 H1   HT     0.417000        1.0080           0
   61821 WT3  8150 TIP3 H2   HT     0.417000        1.0080           0
   61822 WT3  8153 TIP3 OH2  OT    -0.834000       15.9994           0
   61823 WT3  8153 TIP3 H1   HT     0.417000        1.0080           0
   61824 WT3  8153 TIP3 H2   HT     0.417000        1.0080           0
   61825 WT3  8154 TIP3 OH2  OT    -0.834000       15.9994           0
   61826 WT3  8154 TIP3 H1   HT     0.417000        1.0080           0
   61827 WT3  8154 TIP3 H2   HT     0.417000        1.0080           0
   61828 WT3  8155 TIP3 OH2  OT    -0.834000       15.9994           0
   61829 WT3  8155 TIP3 H1   HT     0.417000        1.0080           0
   61830 WT3  8155 TIP3 H2   HT     0.417000        1.0080           0
   61831 WT3  8156 TIP3 OH2  OT    -0.834000       15.9994           0
   61832 WT3  8156 TIP3 H1   HT     0.417000        1.0080           0
   61833 WT3  8156 TIP3 H2   HT     0.417000        1.0080           0
   61834 WT3  8157 TIP3 OH2  OT    -0.834000       15.9994           0
   61835 WT3  8157 TIP3 H1   HT     0.417000        1.0080           0
   61836 WT3  8157 TIP3 H2   HT     0.417000        1.0080           0
   61837 WT3  8158 TIP3 OH2  OT    -0.834000       15.9994           0
   61838 WT3  8158 TIP3 H1   HT     0.417000        1.0080           0
   61839 WT3  8158 TIP3 H2   HT     0.417000        1.0080           0
   61840 WT3  8159 TIP3 OH2  OT    -0.834000       15.9994           0
   61841 WT3  8159 TIP3 H1   HT     0.417000        1.0080           0
   61842 WT3  8159 TIP3 H2   HT     0.417000        1.0080           0
   61843 WT3  8160 TIP3 OH2  OT    -0.834000       15.9994           0
   61844 WT3  8160 TIP3 H1   HT     0.417000        1.0080           0
   61845 WT3  8160 TIP3 H2   HT     0.417000        1.0080           0
   61846 WT3  8162 TIP3 OH2  OT    -0.834000       15.9994           0
   61847 WT3  8162 TIP3 H1   HT     0.417000        1.0080           0
   61848 WT3  8162 TIP3 H2   HT     0.417000        1.0080           0
   61849 WT3  8166 TIP3 OH2  OT    -0.834000       15.9994           0
   61850 WT3  8166 TIP3 H1   HT     0.417000        1.0080           0
   61851 WT3  8166 TIP3 H2   HT     0.417000        1.0080           0
   61852 WT3  8167 TIP3 OH2  OT    -0.834000       15.9994           0
   61853 WT3  8167 TIP3 H1   HT     0.417000        1.0080           0
   61854 WT3  8167 TIP3 H2   HT     0.417000        1.0080           0
   61855 WT3  8169 TIP3 OH2  OT    -0.834000       15.9994           0
   61856 WT3  8169 TIP3 H1   HT     0.417000        1.0080           0
   61857 WT3  8169 TIP3 H2   HT     0.417000        1.0080           0
   61858 WT3  8170 TIP3 OH2  OT    -0.834000       15.9994           0
   61859 WT3  8170 TIP3 H1   HT     0.417000        1.0080           0
   61860 WT3  8170 TIP3 H2   HT     0.417000        1.0080           0
   61861 WT3  8171 TIP3 OH2  OT    -0.834000       15.9994           0
   61862 WT3  8171 TIP3 H1   HT     0.417000        1.0080           0
   61863 WT3  8171 TIP3 H2   HT     0.417000        1.0080           0
   61864 WT3  8172 TIP3 OH2  OT    -0.834000       15.9994           0
   61865 WT3  8172 TIP3 H1   HT     0.417000        1.0080           0
   61866 WT3  8172 TIP3 H2   HT     0.417000        1.0080           0
   61867 WT3  8174 TIP3 OH2  OT    -0.834000       15.9994           0
   61868 WT3  8174 TIP3 H1   HT     0.417000        1.0080           0
   61869 WT3  8174 TIP3 H2   HT     0.417000        1.0080           0
   61870 WT3  8175 TIP3 OH2  OT    -0.834000       15.9994           0
   61871 WT3  8175 TIP3 H1   HT     0.417000        1.0080           0
   61872 WT3  8175 TIP3 H2   HT     0.417000        1.0080           0
   61873 WT3  8176 TIP3 OH2  OT    -0.834000       15.9994           0
   61874 WT3  8176 TIP3 H1   HT     0.417000        1.0080           0
   61875 WT3  8176 TIP3 H2   HT     0.417000        1.0080           0
   61876 WT3  8178 TIP3 OH2  OT    -0.834000       15.9994           0
   61877 WT3  8178 TIP3 H1   HT     0.417000        1.0080           0
   61878 WT3  8178 TIP3 H2   HT     0.417000        1.0080           0
   61879 WT3  8182 TIP3 OH2  OT    -0.834000       15.9994           0
   61880 WT3  8182 TIP3 H1   HT     0.417000        1.0080           0
   61881 WT3  8182 TIP3 H2   HT     0.417000        1.0080           0
   61882 WT3  8184 TIP3 OH2  OT    -0.834000       15.9994           0
   61883 WT3  8184 TIP3 H1   HT     0.417000        1.0080           0
   61884 WT3  8184 TIP3 H2   HT     0.417000        1.0080           0
   61885 WT3  8185 TIP3 OH2  OT    -0.834000       15.9994           0
   61886 WT3  8185 TIP3 H1   HT     0.417000        1.0080           0
   61887 WT3  8185 TIP3 H2   HT     0.417000        1.0080           0
   61888 WT3  8186 TIP3 OH2  OT    -0.834000       15.9994           0
   61889 WT3  8186 TIP3 H1   HT     0.417000        1.0080           0
   61890 WT3  8186 TIP3 H2   HT     0.417000        1.0080           0
   61891 WT3  8188 TIP3 OH2  OT    -0.834000       15.9994           0
   61892 WT3  8188 TIP3 H1   HT     0.417000        1.0080           0
   61893 WT3  8188 TIP3 H2   HT     0.417000        1.0080           0
   61894 WT3  8189 TIP3 OH2  OT    -0.834000       15.9994           0
   61895 WT3  8189 TIP3 H1   HT     0.417000        1.0080           0
   61896 WT3  8189 TIP3 H2   HT     0.417000        1.0080           0
   61897 WT3  8190 TIP3 OH2  OT    -0.834000       15.9994           0
   61898 WT3  8190 TIP3 H1   HT     0.417000        1.0080           0
   61899 WT3  8190 TIP3 H2   HT     0.417000        1.0080           0
   61900 WT3  8192 TIP3 OH2  OT    -0.834000       15.9994           0
   61901 WT3  8192 TIP3 H1   HT     0.417000        1.0080           0
   61902 WT3  8192 TIP3 H2   HT     0.417000        1.0080           0
   61903 WT3  8193 TIP3 OH2  OT    -0.834000       15.9994           0
   61904 WT3  8193 TIP3 H1   HT     0.417000        1.0080           0
   61905 WT3  8193 TIP3 H2   HT     0.417000        1.0080           0
   61906 WT3  8194 TIP3 OH2  OT    -0.834000       15.9994           0
   61907 WT3  8194 TIP3 H1   HT     0.417000        1.0080           0
   61908 WT3  8194 TIP3 H2   HT     0.417000        1.0080           0
   61909 WT3  8195 TIP3 OH2  OT    -0.834000       15.9994           0
   61910 WT3  8195 TIP3 H1   HT     0.417000        1.0080           0
   61911 WT3  8195 TIP3 H2   HT     0.417000        1.0080           0
   61912 WT3  8196 TIP3 OH2  OT    -0.834000       15.9994           0
   61913 WT3  8196 TIP3 H1   HT     0.417000        1.0080           0
   61914 WT3  8196 TIP3 H2   HT     0.417000        1.0080           0
   61915 WT3  8197 TIP3 OH2  OT    -0.834000       15.9994           0
   61916 WT3  8197 TIP3 H1   HT     0.417000        1.0080           0
   61917 WT3  8197 TIP3 H2   HT     0.417000        1.0080           0
   61918 WT3  8198 TIP3 OH2  OT    -0.834000       15.9994           0
   61919 WT3  8198 TIP3 H1   HT     0.417000        1.0080           0
   61920 WT3  8198 TIP3 H2   HT     0.417000        1.0080           0
   61921 WT3  8199 TIP3 OH2  OT    -0.834000       15.9994           0
   61922 WT3  8199 TIP3 H1   HT     0.417000        1.0080           0
   61923 WT3  8199 TIP3 H2   HT     0.417000        1.0080           0
   61924 WT3  8200 TIP3 OH2  OT    -0.834000       15.9994           0
   61925 WT3  8200 TIP3 H1   HT     0.417000        1.0080           0
   61926 WT3  8200 TIP3 H2   HT     0.417000        1.0080           0
   61927 WT3  8201 TIP3 OH2  OT    -0.834000       15.9994           0
   61928 WT3  8201 TIP3 H1   HT     0.417000        1.0080           0
   61929 WT3  8201 TIP3 H2   HT     0.417000        1.0080           0
   61930 WT3  8202 TIP3 OH2  OT    -0.834000       15.9994           0
   61931 WT3  8202 TIP3 H1   HT     0.417000        1.0080           0
   61932 WT3  8202 TIP3 H2   HT     0.417000        1.0080           0
   61933 WT3  8203 TIP3 OH2  OT    -0.834000       15.9994           0
   61934 WT3  8203 TIP3 H1   HT     0.417000        1.0080           0
   61935 WT3  8203 TIP3 H2   HT     0.417000        1.0080           0
   61936 WT3  8206 TIP3 OH2  OT    -0.834000       15.9994           0
   61937 WT3  8206 TIP3 H1   HT     0.417000        1.0080           0
   61938 WT3  8206 TIP3 H2   HT     0.417000        1.0080           0
   61939 WT3  8207 TIP3 OH2  OT    -0.834000       15.9994           0
   61940 WT3  8207 TIP3 H1   HT     0.417000        1.0080           0
   61941 WT3  8207 TIP3 H2   HT     0.417000        1.0080           0
   61942 WT3  8210 TIP3 OH2  OT    -0.834000       15.9994           0
   61943 WT3  8210 TIP3 H1   HT     0.417000        1.0080           0
   61944 WT3  8210 TIP3 H2   HT     0.417000        1.0080           0
   61945 WT3  8211 TIP3 OH2  OT    -0.834000       15.9994           0
   61946 WT3  8211 TIP3 H1   HT     0.417000        1.0080           0
   61947 WT3  8211 TIP3 H2   HT     0.417000        1.0080           0
   61948 WT3  8214 TIP3 OH2  OT    -0.834000       15.9994           0
   61949 WT3  8214 TIP3 H1   HT     0.417000        1.0080           0
   61950 WT3  8214 TIP3 H2   HT     0.417000        1.0080           0
   61951 WT3  8215 TIP3 OH2  OT    -0.834000       15.9994           0
   61952 WT3  8215 TIP3 H1   HT     0.417000        1.0080           0
   61953 WT3  8215 TIP3 H2   HT     0.417000        1.0080           0
   61954 WT3  8216 TIP3 OH2  OT    -0.834000       15.9994           0
   61955 WT3  8216 TIP3 H1   HT     0.417000        1.0080           0
   61956 WT3  8216 TIP3 H2   HT     0.417000        1.0080           0
   61957 WT3  8219 TIP3 OH2  OT    -0.834000       15.9994           0
   61958 WT3  8219 TIP3 H1   HT     0.417000        1.0080           0
   61959 WT3  8219 TIP3 H2   HT     0.417000        1.0080           0
   61960 WT3  8222 TIP3 OH2  OT    -0.834000       15.9994           0
   61961 WT3  8222 TIP3 H1   HT     0.417000        1.0080           0
   61962 WT3  8222 TIP3 H2   HT     0.417000        1.0080           0
   61963 WT3  8223 TIP3 OH2  OT    -0.834000       15.9994           0
   61964 WT3  8223 TIP3 H1   HT     0.417000        1.0080           0
   61965 WT3  8223 TIP3 H2   HT     0.417000        1.0080           0
   61966 WT3  8228 TIP3 OH2  OT    -0.834000       15.9994           0
   61967 WT3  8228 TIP3 H1   HT     0.417000        1.0080           0
   61968 WT3  8228 TIP3 H2   HT     0.417000        1.0080           0
   61969 WT3  8237 TIP3 OH2  OT    -0.834000       15.9994           0
   61970 WT3  8237 TIP3 H1   HT     0.417000        1.0080           0
   61971 WT3  8237 TIP3 H2   HT     0.417000        1.0080           0
   61972 WT3  8242 TIP3 OH2  OT    -0.834000       15.9994           0
   61973 WT3  8242 TIP3 H1   HT     0.417000        1.0080           0
   61974 WT3  8242 TIP3 H2   HT     0.417000        1.0080           0
   61975 WT3  8243 TIP3 OH2  OT    -0.834000       15.9994           0
   61976 WT3  8243 TIP3 H1   HT     0.417000        1.0080           0
   61977 WT3  8243 TIP3 H2   HT     0.417000        1.0080           0
   61978 WT3  8247 TIP3 OH2  OT    -0.834000       15.9994           0
   61979 WT3  8247 TIP3 H1   HT     0.417000        1.0080           0
   61980 WT3  8247 TIP3 H2   HT     0.417000        1.0080           0
   61981 WT3  8248 TIP3 OH2  OT    -0.834000       15.9994           0
   61982 WT3  8248 TIP3 H1   HT     0.417000        1.0080           0
   61983 WT3  8248 TIP3 H2   HT     0.417000        1.0080           0
   61984 WT3  8251 TIP3 OH2  OT    -0.834000       15.9994           0
   61985 WT3  8251 TIP3 H1   HT     0.417000        1.0080           0
   61986 WT3  8251 TIP3 H2   HT     0.417000        1.0080           0
   61987 WT3  8261 TIP3 OH2  OT    -0.834000       15.9994           0
   61988 WT3  8261 TIP3 H1   HT     0.417000        1.0080           0
   61989 WT3  8261 TIP3 H2   HT     0.417000        1.0080           0
   61990 WT3  8263 TIP3 OH2  OT    -0.834000       15.9994           0
   61991 WT3  8263 TIP3 H1   HT     0.417000        1.0080           0
   61992 WT3  8263 TIP3 H2   HT     0.417000        1.0080           0
   61993 WT3  8265 TIP3 OH2  OT    -0.834000       15.9994           0
   61994 WT3  8265 TIP3 H1   HT     0.417000        1.0080           0
   61995 WT3  8265 TIP3 H2   HT     0.417000        1.0080           0
   61996 WT3  8266 TIP3 OH2  OT    -0.834000       15.9994           0
   61997 WT3  8266 TIP3 H1   HT     0.417000        1.0080           0
   61998 WT3  8266 TIP3 H2   HT     0.417000        1.0080           0
   61999 WT3  8267 TIP3 OH2  OT    -0.834000       15.9994           0
   62000 WT3  8267 TIP3 H1   HT     0.417000        1.0080           0
   62001 WT3  8267 TIP3 H2   HT     0.417000        1.0080           0
   62002 WT3  8268 TIP3 OH2  OT    -0.834000       15.9994           0
   62003 WT3  8268 TIP3 H1   HT     0.417000        1.0080           0
   62004 WT3  8268 TIP3 H2   HT     0.417000        1.0080           0
   62005 WT3  8270 TIP3 OH2  OT    -0.834000       15.9994           0
   62006 WT3  8270 TIP3 H1   HT     0.417000        1.0080           0
   62007 WT3  8270 TIP3 H2   HT     0.417000        1.0080           0
   62008 WT3  8282 TIP3 OH2  OT    -0.834000       15.9994           0
   62009 WT3  8282 TIP3 H1   HT     0.417000        1.0080           0
   62010 WT3  8282 TIP3 H2   HT     0.417000        1.0080           0
   62011 WT3  8284 TIP3 OH2  OT    -0.834000       15.9994           0
   62012 WT3  8284 TIP3 H1   HT     0.417000        1.0080           0
   62013 WT3  8284 TIP3 H2   HT     0.417000        1.0080           0
   62014 WT3  8290 TIP3 OH2  OT    -0.834000       15.9994           0
   62015 WT3  8290 TIP3 H1   HT     0.417000        1.0080           0
   62016 WT3  8290 TIP3 H2   HT     0.417000        1.0080           0
   62017 WT3  8293 TIP3 OH2  OT    -0.834000       15.9994           0
   62018 WT3  8293 TIP3 H1   HT     0.417000        1.0080           0
   62019 WT3  8293 TIP3 H2   HT     0.417000        1.0080           0
   62020 WT3  8301 TIP3 OH2  OT    -0.834000       15.9994           0
   62021 WT3  8301 TIP3 H1   HT     0.417000        1.0080           0
   62022 WT3  8301 TIP3 H2   HT     0.417000        1.0080           0
   62023 WT3  8304 TIP3 OH2  OT    -0.834000       15.9994           0
   62024 WT3  8304 TIP3 H1   HT     0.417000        1.0080           0
   62025 WT3  8304 TIP3 H2   HT     0.417000        1.0080           0
   62026 WT3  8309 TIP3 OH2  OT    -0.834000       15.9994           0
   62027 WT3  8309 TIP3 H1   HT     0.417000        1.0080           0
   62028 WT3  8309 TIP3 H2   HT     0.417000        1.0080           0
   62029 WT3  8319 TIP3 OH2  OT    -0.834000       15.9994           0
   62030 WT3  8319 TIP3 H1   HT     0.417000        1.0080           0
   62031 WT3  8319 TIP3 H2   HT     0.417000        1.0080           0
   62032 WT3  8322 TIP3 OH2  OT    -0.834000       15.9994           0
   62033 WT3  8322 TIP3 H1   HT     0.417000        1.0080           0
   62034 WT3  8322 TIP3 H2   HT     0.417000        1.0080           0
   62035 WT3  8324 TIP3 OH2  OT    -0.834000       15.9994           0
   62036 WT3  8324 TIP3 H1   HT     0.417000        1.0080           0
   62037 WT3  8324 TIP3 H2   HT     0.417000        1.0080           0
   62038 WT3  8326 TIP3 OH2  OT    -0.834000       15.9994           0
   62039 WT3  8326 TIP3 H1   HT     0.417000        1.0080           0
   62040 WT3  8326 TIP3 H2   HT     0.417000        1.0080           0
   62041 WT3  8327 TIP3 OH2  OT    -0.834000       15.9994           0
   62042 WT3  8327 TIP3 H1   HT     0.417000        1.0080           0
   62043 WT3  8327 TIP3 H2   HT     0.417000        1.0080           0
   62044 WT3  8339 TIP3 OH2  OT    -0.834000       15.9994           0
   62045 WT3  8339 TIP3 H1   HT     0.417000        1.0080           0
   62046 WT3  8339 TIP3 H2   HT     0.417000        1.0080           0
   62047 WT3  8342 TIP3 OH2  OT    -0.834000       15.9994           0
   62048 WT3  8342 TIP3 H1   HT     0.417000        1.0080           0
   62049 WT3  8342 TIP3 H2   HT     0.417000        1.0080           0
   62050 WT3  8345 TIP3 OH2  OT    -0.834000       15.9994           0
   62051 WT3  8345 TIP3 H1   HT     0.417000        1.0080           0
   62052 WT3  8345 TIP3 H2   HT     0.417000        1.0080           0
   62053 WT3  8348 TIP3 OH2  OT    -0.834000       15.9994           0
   62054 WT3  8348 TIP3 H1   HT     0.417000        1.0080           0
   62055 WT3  8348 TIP3 H2   HT     0.417000        1.0080           0
   62056 WT3  8349 TIP3 OH2  OT    -0.834000       15.9994           0
   62057 WT3  8349 TIP3 H1   HT     0.417000        1.0080           0
   62058 WT3  8349 TIP3 H2   HT     0.417000        1.0080           0
   62059 WT3  8354 TIP3 OH2  OT    -0.834000       15.9994           0
   62060 WT3  8354 TIP3 H1   HT     0.417000        1.0080           0
   62061 WT3  8354 TIP3 H2   HT     0.417000        1.0080           0
   62062 WT3  8360 TIP3 OH2  OT    -0.834000       15.9994           0
   62063 WT3  8360 TIP3 H1   HT     0.417000        1.0080           0
   62064 WT3  8360 TIP3 H2   HT     0.417000        1.0080           0
   62065 WT3  8364 TIP3 OH2  OT    -0.834000       15.9994           0
   62066 WT3  8364 TIP3 H1   HT     0.417000        1.0080           0
   62067 WT3  8364 TIP3 H2   HT     0.417000        1.0080           0
   62068 WT3  8365 TIP3 OH2  OT    -0.834000       15.9994           0
   62069 WT3  8365 TIP3 H1   HT     0.417000        1.0080           0
   62070 WT3  8365 TIP3 H2   HT     0.417000        1.0080           0
   62071 WT3  8369 TIP3 OH2  OT    -0.834000       15.9994           0
   62072 WT3  8369 TIP3 H1   HT     0.417000        1.0080           0
   62073 WT3  8369 TIP3 H2   HT     0.417000        1.0080           0
   62074 WT3  8370 TIP3 OH2  OT    -0.834000       15.9994           0
   62075 WT3  8370 TIP3 H1   HT     0.417000        1.0080           0
   62076 WT3  8370 TIP3 H2   HT     0.417000        1.0080           0
   62077 WT3  8377 TIP3 OH2  OT    -0.834000       15.9994           0
   62078 WT3  8377 TIP3 H1   HT     0.417000        1.0080           0
   62079 WT3  8377 TIP3 H2   HT     0.417000        1.0080           0
   62080 WT3  8378 TIP3 OH2  OT    -0.834000       15.9994           0
   62081 WT3  8378 TIP3 H1   HT     0.417000        1.0080           0
   62082 WT3  8378 TIP3 H2   HT     0.417000        1.0080           0
   62083 WT3  8381 TIP3 OH2  OT    -0.834000       15.9994           0
   62084 WT3  8381 TIP3 H1   HT     0.417000        1.0080           0
   62085 WT3  8381 TIP3 H2   HT     0.417000        1.0080           0
   62086 WT3  8382 TIP3 OH2  OT    -0.834000       15.9994           0
   62087 WT3  8382 TIP3 H1   HT     0.417000        1.0080           0
   62088 WT3  8382 TIP3 H2   HT     0.417000        1.0080           0
   62089 WT3  8384 TIP3 OH2  OT    -0.834000       15.9994           0
   62090 WT3  8384 TIP3 H1   HT     0.417000        1.0080           0
   62091 WT3  8384 TIP3 H2   HT     0.417000        1.0080           0
   62092 WT3  8386 TIP3 OH2  OT    -0.834000       15.9994           0
   62093 WT3  8386 TIP3 H1   HT     0.417000        1.0080           0
   62094 WT3  8386 TIP3 H2   HT     0.417000        1.0080           0
   62095 WT3  8388 TIP3 OH2  OT    -0.834000       15.9994           0
   62096 WT3  8388 TIP3 H1   HT     0.417000        1.0080           0
   62097 WT3  8388 TIP3 H2   HT     0.417000        1.0080           0
   62098 WT3  8389 TIP3 OH2  OT    -0.834000       15.9994           0
   62099 WT3  8389 TIP3 H1   HT     0.417000        1.0080           0
   62100 WT3  8389 TIP3 H2   HT     0.417000        1.0080           0
   62101 WT3  8391 TIP3 OH2  OT    -0.834000       15.9994           0
   62102 WT3  8391 TIP3 H1   HT     0.417000        1.0080           0
   62103 WT3  8391 TIP3 H2   HT     0.417000        1.0080           0
   62104 WT3  8392 TIP3 OH2  OT    -0.834000       15.9994           0
   62105 WT3  8392 TIP3 H1   HT     0.417000        1.0080           0
   62106 WT3  8392 TIP3 H2   HT     0.417000        1.0080           0
   62107 WT3  8393 TIP3 OH2  OT    -0.834000       15.9994           0
   62108 WT3  8393 TIP3 H1   HT     0.417000        1.0080           0
   62109 WT3  8393 TIP3 H2   HT     0.417000        1.0080           0
   62110 WT3  8394 TIP3 OH2  OT    -0.834000       15.9994           0
   62111 WT3  8394 TIP3 H1   HT     0.417000        1.0080           0
   62112 WT3  8394 TIP3 H2   HT     0.417000        1.0080           0
   62113 WT3  8396 TIP3 OH2  OT    -0.834000       15.9994           0
   62114 WT3  8396 TIP3 H1   HT     0.417000        1.0080           0
   62115 WT3  8396 TIP3 H2   HT     0.417000        1.0080           0
   62116 WT3  8397 TIP3 OH2  OT    -0.834000       15.9994           0
   62117 WT3  8397 TIP3 H1   HT     0.417000        1.0080           0
   62118 WT3  8397 TIP3 H2   HT     0.417000        1.0080           0
   62119 WT3  8399 TIP3 OH2  OT    -0.834000       15.9994           0
   62120 WT3  8399 TIP3 H1   HT     0.417000        1.0080           0
   62121 WT3  8399 TIP3 H2   HT     0.417000        1.0080           0
   62122 WT3  8401 TIP3 OH2  OT    -0.834000       15.9994           0
   62123 WT3  8401 TIP3 H1   HT     0.417000        1.0080           0
   62124 WT3  8401 TIP3 H2   HT     0.417000        1.0080           0
   62125 WT3  8402 TIP3 OH2  OT    -0.834000       15.9994           0
   62126 WT3  8402 TIP3 H1   HT     0.417000        1.0080           0
   62127 WT3  8402 TIP3 H2   HT     0.417000        1.0080           0
   62128 WT3  8403 TIP3 OH2  OT    -0.834000       15.9994           0
   62129 WT3  8403 TIP3 H1   HT     0.417000        1.0080           0
   62130 WT3  8403 TIP3 H2   HT     0.417000        1.0080           0
   62131 WT3  8404 TIP3 OH2  OT    -0.834000       15.9994           0
   62132 WT3  8404 TIP3 H1   HT     0.417000        1.0080           0
   62133 WT3  8404 TIP3 H2   HT     0.417000        1.0080           0
   62134 WT3  8406 TIP3 OH2  OT    -0.834000       15.9994           0
   62135 WT3  8406 TIP3 H1   HT     0.417000        1.0080           0
   62136 WT3  8406 TIP3 H2   HT     0.417000        1.0080           0
   62137 WT3  8408 TIP3 OH2  OT    -0.834000       15.9994           0
   62138 WT3  8408 TIP3 H1   HT     0.417000        1.0080           0
   62139 WT3  8408 TIP3 H2   HT     0.417000        1.0080           0
   62140 WT3  8409 TIP3 OH2  OT    -0.834000       15.9994           0
   62141 WT3  8409 TIP3 H1   HT     0.417000        1.0080           0
   62142 WT3  8409 TIP3 H2   HT     0.417000        1.0080           0
   62143 WT3  8410 TIP3 OH2  OT    -0.834000       15.9994           0
   62144 WT3  8410 TIP3 H1   HT     0.417000        1.0080           0
   62145 WT3  8410 TIP3 H2   HT     0.417000        1.0080           0
   62146 WT3  8411 TIP3 OH2  OT    -0.834000       15.9994           0
   62147 WT3  8411 TIP3 H1   HT     0.417000        1.0080           0
   62148 WT3  8411 TIP3 H2   HT     0.417000        1.0080           0
   62149 WT3  8412 TIP3 OH2  OT    -0.834000       15.9994           0
   62150 WT3  8412 TIP3 H1   HT     0.417000        1.0080           0
   62151 WT3  8412 TIP3 H2   HT     0.417000        1.0080           0
   62152 WT3  8413 TIP3 OH2  OT    -0.834000       15.9994           0
   62153 WT3  8413 TIP3 H1   HT     0.417000        1.0080           0
   62154 WT3  8413 TIP3 H2   HT     0.417000        1.0080           0
   62155 WT3  8414 TIP3 OH2  OT    -0.834000       15.9994           0
   62156 WT3  8414 TIP3 H1   HT     0.417000        1.0080           0
   62157 WT3  8414 TIP3 H2   HT     0.417000        1.0080           0
   62158 WT3  8415 TIP3 OH2  OT    -0.834000       15.9994           0
   62159 WT3  8415 TIP3 H1   HT     0.417000        1.0080           0
   62160 WT3  8415 TIP3 H2   HT     0.417000        1.0080           0
   62161 WT3  8416 TIP3 OH2  OT    -0.834000       15.9994           0
   62162 WT3  8416 TIP3 H1   HT     0.417000        1.0080           0
   62163 WT3  8416 TIP3 H2   HT     0.417000        1.0080           0
   62164 WT3  8419 TIP3 OH2  OT    -0.834000       15.9994           0
   62165 WT3  8419 TIP3 H1   HT     0.417000        1.0080           0
   62166 WT3  8419 TIP3 H2   HT     0.417000        1.0080           0
   62167 WT3  8420 TIP3 OH2  OT    -0.834000       15.9994           0
   62168 WT3  8420 TIP3 H1   HT     0.417000        1.0080           0
   62169 WT3  8420 TIP3 H2   HT     0.417000        1.0080           0
   62170 WT3  8421 TIP3 OH2  OT    -0.834000       15.9994           0
   62171 WT3  8421 TIP3 H1   HT     0.417000        1.0080           0
   62172 WT3  8421 TIP3 H2   HT     0.417000        1.0080           0
   62173 WT3  8422 TIP3 OH2  OT    -0.834000       15.9994           0
   62174 WT3  8422 TIP3 H1   HT     0.417000        1.0080           0
   62175 WT3  8422 TIP3 H2   HT     0.417000        1.0080           0
   62176 WT3  8423 TIP3 OH2  OT    -0.834000       15.9994           0
   62177 WT3  8423 TIP3 H1   HT     0.417000        1.0080           0
   62178 WT3  8423 TIP3 H2   HT     0.417000        1.0080           0
   62179 WT3  8425 TIP3 OH2  OT    -0.834000       15.9994           0
   62180 WT3  8425 TIP3 H1   HT     0.417000        1.0080           0
   62181 WT3  8425 TIP3 H2   HT     0.417000        1.0080           0
   62182 WT3  8426 TIP3 OH2  OT    -0.834000       15.9994           0
   62183 WT3  8426 TIP3 H1   HT     0.417000        1.0080           0
   62184 WT3  8426 TIP3 H2   HT     0.417000        1.0080           0
   62185 WT3  8427 TIP3 OH2  OT    -0.834000       15.9994           0
   62186 WT3  8427 TIP3 H1   HT     0.417000        1.0080           0
   62187 WT3  8427 TIP3 H2   HT     0.417000        1.0080           0
   62188 WT3  8428 TIP3 OH2  OT    -0.834000       15.9994           0
   62189 WT3  8428 TIP3 H1   HT     0.417000        1.0080           0
   62190 WT3  8428 TIP3 H2   HT     0.417000        1.0080           0
   62191 WT3  8429 TIP3 OH2  OT    -0.834000       15.9994           0
   62192 WT3  8429 TIP3 H1   HT     0.417000        1.0080           0
   62193 WT3  8429 TIP3 H2   HT     0.417000        1.0080           0
   62194 WT3  8430 TIP3 OH2  OT    -0.834000       15.9994           0
   62195 WT3  8430 TIP3 H1   HT     0.417000        1.0080           0
   62196 WT3  8430 TIP3 H2   HT     0.417000        1.0080           0
   62197 WT3  8431 TIP3 OH2  OT    -0.834000       15.9994           0
   62198 WT3  8431 TIP3 H1   HT     0.417000        1.0080           0
   62199 WT3  8431 TIP3 H2   HT     0.417000        1.0080           0
   62200 WT3  8432 TIP3 OH2  OT    -0.834000       15.9994           0
   62201 WT3  8432 TIP3 H1   HT     0.417000        1.0080           0
   62202 WT3  8432 TIP3 H2   HT     0.417000        1.0080           0
   62203 WT3  8433 TIP3 OH2  OT    -0.834000       15.9994           0
   62204 WT3  8433 TIP3 H1   HT     0.417000        1.0080           0
   62205 WT3  8433 TIP3 H2   HT     0.417000        1.0080           0
   62206 WT3  8434 TIP3 OH2  OT    -0.834000       15.9994           0
   62207 WT3  8434 TIP3 H1   HT     0.417000        1.0080           0
   62208 WT3  8434 TIP3 H2   HT     0.417000        1.0080           0
   62209 WT3  8435 TIP3 OH2  OT    -0.834000       15.9994           0
   62210 WT3  8435 TIP3 H1   HT     0.417000        1.0080           0
   62211 WT3  8435 TIP3 H2   HT     0.417000        1.0080           0
   62212 WT3  8436 TIP3 OH2  OT    -0.834000       15.9994           0
   62213 WT3  8436 TIP3 H1   HT     0.417000        1.0080           0
   62214 WT3  8436 TIP3 H2   HT     0.417000        1.0080           0
   62215 WT3  8441 TIP3 OH2  OT    -0.834000       15.9994           0
   62216 WT3  8441 TIP3 H1   HT     0.417000        1.0080           0
   62217 WT3  8441 TIP3 H2   HT     0.417000        1.0080           0
   62218 WT3  8442 TIP3 OH2  OT    -0.834000       15.9994           0
   62219 WT3  8442 TIP3 H1   HT     0.417000        1.0080           0
   62220 WT3  8442 TIP3 H2   HT     0.417000        1.0080           0
   62221 WT3  8443 TIP3 OH2  OT    -0.834000       15.9994           0
   62222 WT3  8443 TIP3 H1   HT     0.417000        1.0080           0
   62223 WT3  8443 TIP3 H2   HT     0.417000        1.0080           0
   62224 WT3  8444 TIP3 OH2  OT    -0.834000       15.9994           0
   62225 WT3  8444 TIP3 H1   HT     0.417000        1.0080           0
   62226 WT3  8444 TIP3 H2   HT     0.417000        1.0080           0
   62227 WT3  8445 TIP3 OH2  OT    -0.834000       15.9994           0
   62228 WT3  8445 TIP3 H1   HT     0.417000        1.0080           0
   62229 WT3  8445 TIP3 H2   HT     0.417000        1.0080           0
   62230 WT3  8446 TIP3 OH2  OT    -0.834000       15.9994           0
   62231 WT3  8446 TIP3 H1   HT     0.417000        1.0080           0
   62232 WT3  8446 TIP3 H2   HT     0.417000        1.0080           0
   62233 WT3  8447 TIP3 OH2  OT    -0.834000       15.9994           0
   62234 WT3  8447 TIP3 H1   HT     0.417000        1.0080           0
   62235 WT3  8447 TIP3 H2   HT     0.417000        1.0080           0
   62236 WT3  8448 TIP3 OH2  OT    -0.834000       15.9994           0
   62237 WT3  8448 TIP3 H1   HT     0.417000        1.0080           0
   62238 WT3  8448 TIP3 H2   HT     0.417000        1.0080           0
   62239 WT3  8450 TIP3 OH2  OT    -0.834000       15.9994           0
   62240 WT3  8450 TIP3 H1   HT     0.417000        1.0080           0
   62241 WT3  8450 TIP3 H2   HT     0.417000        1.0080           0
   62242 WT3  8451 TIP3 OH2  OT    -0.834000       15.9994           0
   62243 WT3  8451 TIP3 H1   HT     0.417000        1.0080           0
   62244 WT3  8451 TIP3 H2   HT     0.417000        1.0080           0
   62245 WT3  8453 TIP3 OH2  OT    -0.834000       15.9994           0
   62246 WT3  8453 TIP3 H1   HT     0.417000        1.0080           0
   62247 WT3  8453 TIP3 H2   HT     0.417000        1.0080           0
   62248 WT3  8455 TIP3 OH2  OT    -0.834000       15.9994           0
   62249 WT3  8455 TIP3 H1   HT     0.417000        1.0080           0
   62250 WT3  8455 TIP3 H2   HT     0.417000        1.0080           0
   62251 WT3  8456 TIP3 OH2  OT    -0.834000       15.9994           0
   62252 WT3  8456 TIP3 H1   HT     0.417000        1.0080           0
   62253 WT3  8456 TIP3 H2   HT     0.417000        1.0080           0
   62254 WT3  8457 TIP3 OH2  OT    -0.834000       15.9994           0
   62255 WT3  8457 TIP3 H1   HT     0.417000        1.0080           0
   62256 WT3  8457 TIP3 H2   HT     0.417000        1.0080           0
   62257 WT3  8459 TIP3 OH2  OT    -0.834000       15.9994           0
   62258 WT3  8459 TIP3 H1   HT     0.417000        1.0080           0
   62259 WT3  8459 TIP3 H2   HT     0.417000        1.0080           0
   62260 WT3  8460 TIP3 OH2  OT    -0.834000       15.9994           0
   62261 WT3  8460 TIP3 H1   HT     0.417000        1.0080           0
   62262 WT3  8460 TIP3 H2   HT     0.417000        1.0080           0
   62263 WT3  8462 TIP3 OH2  OT    -0.834000       15.9994           0
   62264 WT3  8462 TIP3 H1   HT     0.417000        1.0080           0
   62265 WT3  8462 TIP3 H2   HT     0.417000        1.0080           0
   62266 WT3  8463 TIP3 OH2  OT    -0.834000       15.9994           0
   62267 WT3  8463 TIP3 H1   HT     0.417000        1.0080           0
   62268 WT3  8463 TIP3 H2   HT     0.417000        1.0080           0
   62269 WT3  8464 TIP3 OH2  OT    -0.834000       15.9994           0
   62270 WT3  8464 TIP3 H1   HT     0.417000        1.0080           0
   62271 WT3  8464 TIP3 H2   HT     0.417000        1.0080           0
   62272 WT3  8465 TIP3 OH2  OT    -0.834000       15.9994           0
   62273 WT3  8465 TIP3 H1   HT     0.417000        1.0080           0
   62274 WT3  8465 TIP3 H2   HT     0.417000        1.0080           0
   62275 WT3  8466 TIP3 OH2  OT    -0.834000       15.9994           0
   62276 WT3  8466 TIP3 H1   HT     0.417000        1.0080           0
   62277 WT3  8466 TIP3 H2   HT     0.417000        1.0080           0
   62278 WT3  8467 TIP3 OH2  OT    -0.834000       15.9994           0
   62279 WT3  8467 TIP3 H1   HT     0.417000        1.0080           0
   62280 WT3  8467 TIP3 H2   HT     0.417000        1.0080           0
   62281 WT3  8468 TIP3 OH2  OT    -0.834000       15.9994           0
   62282 WT3  8468 TIP3 H1   HT     0.417000        1.0080           0
   62283 WT3  8468 TIP3 H2   HT     0.417000        1.0080           0
   62284 WT3  8469 TIP3 OH2  OT    -0.834000       15.9994           0
   62285 WT3  8469 TIP3 H1   HT     0.417000        1.0080           0
   62286 WT3  8469 TIP3 H2   HT     0.417000        1.0080           0
   62287 WT3  8470 TIP3 OH2  OT    -0.834000       15.9994           0
   62288 WT3  8470 TIP3 H1   HT     0.417000        1.0080           0
   62289 WT3  8470 TIP3 H2   HT     0.417000        1.0080           0
   62290 WT3  8472 TIP3 OH2  OT    -0.834000       15.9994           0
   62291 WT3  8472 TIP3 H1   HT     0.417000        1.0080           0
   62292 WT3  8472 TIP3 H2   HT     0.417000        1.0080           0
   62293 WT3  8473 TIP3 OH2  OT    -0.834000       15.9994           0
   62294 WT3  8473 TIP3 H1   HT     0.417000        1.0080           0
   62295 WT3  8473 TIP3 H2   HT     0.417000        1.0080           0
   62296 WT3  8474 TIP3 OH2  OT    -0.834000       15.9994           0
   62297 WT3  8474 TIP3 H1   HT     0.417000        1.0080           0
   62298 WT3  8474 TIP3 H2   HT     0.417000        1.0080           0
   62299 WT3  8475 TIP3 OH2  OT    -0.834000       15.9994           0
   62300 WT3  8475 TIP3 H1   HT     0.417000        1.0080           0
   62301 WT3  8475 TIP3 H2   HT     0.417000        1.0080           0
   62302 WT3  8476 TIP3 OH2  OT    -0.834000       15.9994           0
   62303 WT3  8476 TIP3 H1   HT     0.417000        1.0080           0
   62304 WT3  8476 TIP3 H2   HT     0.417000        1.0080           0
   62305 WT3  8477 TIP3 OH2  OT    -0.834000       15.9994           0
   62306 WT3  8477 TIP3 H1   HT     0.417000        1.0080           0
   62307 WT3  8477 TIP3 H2   HT     0.417000        1.0080           0
   62308 WT3  8480 TIP3 OH2  OT    -0.834000       15.9994           0
   62309 WT3  8480 TIP3 H1   HT     0.417000        1.0080           0
   62310 WT3  8480 TIP3 H2   HT     0.417000        1.0080           0
   62311 WT3  8481 TIP3 OH2  OT    -0.834000       15.9994           0
   62312 WT3  8481 TIP3 H1   HT     0.417000        1.0080           0
   62313 WT3  8481 TIP3 H2   HT     0.417000        1.0080           0
   62314 WT3  8482 TIP3 OH2  OT    -0.834000       15.9994           0
   62315 WT3  8482 TIP3 H1   HT     0.417000        1.0080           0
   62316 WT3  8482 TIP3 H2   HT     0.417000        1.0080           0
   62317 WT3  8483 TIP3 OH2  OT    -0.834000       15.9994           0
   62318 WT3  8483 TIP3 H1   HT     0.417000        1.0080           0
   62319 WT3  8483 TIP3 H2   HT     0.417000        1.0080           0
   62320 WT3  8484 TIP3 OH2  OT    -0.834000       15.9994           0
   62321 WT3  8484 TIP3 H1   HT     0.417000        1.0080           0
   62322 WT3  8484 TIP3 H2   HT     0.417000        1.0080           0
   62323 WT3  8485 TIP3 OH2  OT    -0.834000       15.9994           0
   62324 WT3  8485 TIP3 H1   HT     0.417000        1.0080           0
   62325 WT3  8485 TIP3 H2   HT     0.417000        1.0080           0
   62326 WT3  8486 TIP3 OH2  OT    -0.834000       15.9994           0
   62327 WT3  8486 TIP3 H1   HT     0.417000        1.0080           0
   62328 WT3  8486 TIP3 H2   HT     0.417000        1.0080           0
   62329 WT3  8487 TIP3 OH2  OT    -0.834000       15.9994           0
   62330 WT3  8487 TIP3 H1   HT     0.417000        1.0080           0
   62331 WT3  8487 TIP3 H2   HT     0.417000        1.0080           0
   62332 WT3  8489 TIP3 OH2  OT    -0.834000       15.9994           0
   62333 WT3  8489 TIP3 H1   HT     0.417000        1.0080           0
   62334 WT3  8489 TIP3 H2   HT     0.417000        1.0080           0
   62335 WT3  8490 TIP3 OH2  OT    -0.834000       15.9994           0
   62336 WT3  8490 TIP3 H1   HT     0.417000        1.0080           0
   62337 WT3  8490 TIP3 H2   HT     0.417000        1.0080           0
   62338 WT3  8491 TIP3 OH2  OT    -0.834000       15.9994           0
   62339 WT3  8491 TIP3 H1   HT     0.417000        1.0080           0
   62340 WT3  8491 TIP3 H2   HT     0.417000        1.0080           0
   62341 WT3  8492 TIP3 OH2  OT    -0.834000       15.9994           0
   62342 WT3  8492 TIP3 H1   HT     0.417000        1.0080           0
   62343 WT3  8492 TIP3 H2   HT     0.417000        1.0080           0
   62344 WT3  8493 TIP3 OH2  OT    -0.834000       15.9994           0
   62345 WT3  8493 TIP3 H1   HT     0.417000        1.0080           0
   62346 WT3  8493 TIP3 H2   HT     0.417000        1.0080           0
   62347 WT3  8494 TIP3 OH2  OT    -0.834000       15.9994           0
   62348 WT3  8494 TIP3 H1   HT     0.417000        1.0080           0
   62349 WT3  8494 TIP3 H2   HT     0.417000        1.0080           0
   62350 WT3  8495 TIP3 OH2  OT    -0.834000       15.9994           0
   62351 WT3  8495 TIP3 H1   HT     0.417000        1.0080           0
   62352 WT3  8495 TIP3 H2   HT     0.417000        1.0080           0
   62353 WT3  8496 TIP3 OH2  OT    -0.834000       15.9994           0
   62354 WT3  8496 TIP3 H1   HT     0.417000        1.0080           0
   62355 WT3  8496 TIP3 H2   HT     0.417000        1.0080           0
   62356 WT3  8497 TIP3 OH2  OT    -0.834000       15.9994           0
   62357 WT3  8497 TIP3 H1   HT     0.417000        1.0080           0
   62358 WT3  8497 TIP3 H2   HT     0.417000        1.0080           0
   62359 WT3  8498 TIP3 OH2  OT    -0.834000       15.9994           0
   62360 WT3  8498 TIP3 H1   HT     0.417000        1.0080           0
   62361 WT3  8498 TIP3 H2   HT     0.417000        1.0080           0
   62362 WT3  8499 TIP3 OH2  OT    -0.834000       15.9994           0
   62363 WT3  8499 TIP3 H1   HT     0.417000        1.0080           0
   62364 WT3  8499 TIP3 H2   HT     0.417000        1.0080           0
   62365 WT3  8503 TIP3 OH2  OT    -0.834000       15.9994           0
   62366 WT3  8503 TIP3 H1   HT     0.417000        1.0080           0
   62367 WT3  8503 TIP3 H2   HT     0.417000        1.0080           0
   62368 WT3  8504 TIP3 OH2  OT    -0.834000       15.9994           0
   62369 WT3  8504 TIP3 H1   HT     0.417000        1.0080           0
   62370 WT3  8504 TIP3 H2   HT     0.417000        1.0080           0
   62371 WT3  8505 TIP3 OH2  OT    -0.834000       15.9994           0
   62372 WT3  8505 TIP3 H1   HT     0.417000        1.0080           0
   62373 WT3  8505 TIP3 H2   HT     0.417000        1.0080           0
   62374 WT3  8508 TIP3 OH2  OT    -0.834000       15.9994           0
   62375 WT3  8508 TIP3 H1   HT     0.417000        1.0080           0
   62376 WT3  8508 TIP3 H2   HT     0.417000        1.0080           0
   62377 WT3  8509 TIP3 OH2  OT    -0.834000       15.9994           0
   62378 WT3  8509 TIP3 H1   HT     0.417000        1.0080           0
   62379 WT3  8509 TIP3 H2   HT     0.417000        1.0080           0
   62380 WT3  8510 TIP3 OH2  OT    -0.834000       15.9994           0
   62381 WT3  8510 TIP3 H1   HT     0.417000        1.0080           0
   62382 WT3  8510 TIP3 H2   HT     0.417000        1.0080           0
   62383 WT3  8511 TIP3 OH2  OT    -0.834000       15.9994           0
   62384 WT3  8511 TIP3 H1   HT     0.417000        1.0080           0
   62385 WT3  8511 TIP3 H2   HT     0.417000        1.0080           0
   62386 WT3  8512 TIP3 OH2  OT    -0.834000       15.9994           0
   62387 WT3  8512 TIP3 H1   HT     0.417000        1.0080           0
   62388 WT3  8512 TIP3 H2   HT     0.417000        1.0080           0
   62389 WT3  8513 TIP3 OH2  OT    -0.834000       15.9994           0
   62390 WT3  8513 TIP3 H1   HT     0.417000        1.0080           0
   62391 WT3  8513 TIP3 H2   HT     0.417000        1.0080           0
   62392 WT3  8514 TIP3 OH2  OT    -0.834000       15.9994           0
   62393 WT3  8514 TIP3 H1   HT     0.417000        1.0080           0
   62394 WT3  8514 TIP3 H2   HT     0.417000        1.0080           0
   62395 WT3  8515 TIP3 OH2  OT    -0.834000       15.9994           0
   62396 WT3  8515 TIP3 H1   HT     0.417000        1.0080           0
   62397 WT3  8515 TIP3 H2   HT     0.417000        1.0080           0
   62398 WT3  8516 TIP3 OH2  OT    -0.834000       15.9994           0
   62399 WT3  8516 TIP3 H1   HT     0.417000        1.0080           0
   62400 WT3  8516 TIP3 H2   HT     0.417000        1.0080           0
   62401 WT3  8517 TIP3 OH2  OT    -0.834000       15.9994           0
   62402 WT3  8517 TIP3 H1   HT     0.417000        1.0080           0
   62403 WT3  8517 TIP3 H2   HT     0.417000        1.0080           0
   62404 WT3  8518 TIP3 OH2  OT    -0.834000       15.9994           0
   62405 WT3  8518 TIP3 H1   HT     0.417000        1.0080           0
   62406 WT3  8518 TIP3 H2   HT     0.417000        1.0080           0
   62407 WT3  8519 TIP3 OH2  OT    -0.834000       15.9994           0
   62408 WT3  8519 TIP3 H1   HT     0.417000        1.0080           0
   62409 WT3  8519 TIP3 H2   HT     0.417000        1.0080           0
   62410 WT3  8520 TIP3 OH2  OT    -0.834000       15.9994           0
   62411 WT3  8520 TIP3 H1   HT     0.417000        1.0080           0
   62412 WT3  8520 TIP3 H2   HT     0.417000        1.0080           0
   62413 WT3  8521 TIP3 OH2  OT    -0.834000       15.9994           0
   62414 WT3  8521 TIP3 H1   HT     0.417000        1.0080           0
   62415 WT3  8521 TIP3 H2   HT     0.417000        1.0080           0
   62416 WT3  8522 TIP3 OH2  OT    -0.834000       15.9994           0
   62417 WT3  8522 TIP3 H1   HT     0.417000        1.0080           0
   62418 WT3  8522 TIP3 H2   HT     0.417000        1.0080           0
   62419 WT3  8523 TIP3 OH2  OT    -0.834000       15.9994           0
   62420 WT3  8523 TIP3 H1   HT     0.417000        1.0080           0
   62421 WT3  8523 TIP3 H2   HT     0.417000        1.0080           0
   62422 WT3  8527 TIP3 OH2  OT    -0.834000       15.9994           0
   62423 WT3  8527 TIP3 H1   HT     0.417000        1.0080           0
   62424 WT3  8527 TIP3 H2   HT     0.417000        1.0080           0
   62425 WT3  8528 TIP3 OH2  OT    -0.834000       15.9994           0
   62426 WT3  8528 TIP3 H1   HT     0.417000        1.0080           0
   62427 WT3  8528 TIP3 H2   HT     0.417000        1.0080           0
   62428 WT3  8529 TIP3 OH2  OT    -0.834000       15.9994           0
   62429 WT3  8529 TIP3 H1   HT     0.417000        1.0080           0
   62430 WT3  8529 TIP3 H2   HT     0.417000        1.0080           0
   62431 WT3  8530 TIP3 OH2  OT    -0.834000       15.9994           0
   62432 WT3  8530 TIP3 H1   HT     0.417000        1.0080           0
   62433 WT3  8530 TIP3 H2   HT     0.417000        1.0080           0
   62434 WT3  8531 TIP3 OH2  OT    -0.834000       15.9994           0
   62435 WT3  8531 TIP3 H1   HT     0.417000        1.0080           0
   62436 WT3  8531 TIP3 H2   HT     0.417000        1.0080           0
   62437 WT3  8532 TIP3 OH2  OT    -0.834000       15.9994           0
   62438 WT3  8532 TIP3 H1   HT     0.417000        1.0080           0
   62439 WT3  8532 TIP3 H2   HT     0.417000        1.0080           0
   62440 WT3  8533 TIP3 OH2  OT    -0.834000       15.9994           0
   62441 WT3  8533 TIP3 H1   HT     0.417000        1.0080           0
   62442 WT3  8533 TIP3 H2   HT     0.417000        1.0080           0
   62443 WT3  8534 TIP3 OH2  OT    -0.834000       15.9994           0
   62444 WT3  8534 TIP3 H1   HT     0.417000        1.0080           0
   62445 WT3  8534 TIP3 H2   HT     0.417000        1.0080           0
   62446 WT3  8535 TIP3 OH2  OT    -0.834000       15.9994           0
   62447 WT3  8535 TIP3 H1   HT     0.417000        1.0080           0
   62448 WT3  8535 TIP3 H2   HT     0.417000        1.0080           0
   62449 WT3  8536 TIP3 OH2  OT    -0.834000       15.9994           0
   62450 WT3  8536 TIP3 H1   HT     0.417000        1.0080           0
   62451 WT3  8536 TIP3 H2   HT     0.417000        1.0080           0
   62452 WT3  8538 TIP3 OH2  OT    -0.834000       15.9994           0
   62453 WT3  8538 TIP3 H1   HT     0.417000        1.0080           0
   62454 WT3  8538 TIP3 H2   HT     0.417000        1.0080           0
   62455 WT3  8539 TIP3 OH2  OT    -0.834000       15.9994           0
   62456 WT3  8539 TIP3 H1   HT     0.417000        1.0080           0
   62457 WT3  8539 TIP3 H2   HT     0.417000        1.0080           0
   62458 WT3  8540 TIP3 OH2  OT    -0.834000       15.9994           0
   62459 WT3  8540 TIP3 H1   HT     0.417000        1.0080           0
   62460 WT3  8540 TIP3 H2   HT     0.417000        1.0080           0
   62461 WT3  8541 TIP3 OH2  OT    -0.834000       15.9994           0
   62462 WT3  8541 TIP3 H1   HT     0.417000        1.0080           0
   62463 WT3  8541 TIP3 H2   HT     0.417000        1.0080           0
   62464 WT3  8542 TIP3 OH2  OT    -0.834000       15.9994           0
   62465 WT3  8542 TIP3 H1   HT     0.417000        1.0080           0
   62466 WT3  8542 TIP3 H2   HT     0.417000        1.0080           0
   62467 WT3  8543 TIP3 OH2  OT    -0.834000       15.9994           0
   62468 WT3  8543 TIP3 H1   HT     0.417000        1.0080           0
   62469 WT3  8543 TIP3 H2   HT     0.417000        1.0080           0
   62470 WT3  8544 TIP3 OH2  OT    -0.834000       15.9994           0
   62471 WT3  8544 TIP3 H1   HT     0.417000        1.0080           0
   62472 WT3  8544 TIP3 H2   HT     0.417000        1.0080           0
   62473 WT3  8545 TIP3 OH2  OT    -0.834000       15.9994           0
   62474 WT3  8545 TIP3 H1   HT     0.417000        1.0080           0
   62475 WT3  8545 TIP3 H2   HT     0.417000        1.0080           0
   62476 WT3  8546 TIP3 OH2  OT    -0.834000       15.9994           0
   62477 WT3  8546 TIP3 H1   HT     0.417000        1.0080           0
   62478 WT3  8546 TIP3 H2   HT     0.417000        1.0080           0
   62479 WT3  8547 TIP3 OH2  OT    -0.834000       15.9994           0
   62480 WT3  8547 TIP3 H1   HT     0.417000        1.0080           0
   62481 WT3  8547 TIP3 H2   HT     0.417000        1.0080           0
   62482 WT3  8548 TIP3 OH2  OT    -0.834000       15.9994           0
   62483 WT3  8548 TIP3 H1   HT     0.417000        1.0080           0
   62484 WT3  8548 TIP3 H2   HT     0.417000        1.0080           0
   62485 WT3  8549 TIP3 OH2  OT    -0.834000       15.9994           0
   62486 WT3  8549 TIP3 H1   HT     0.417000        1.0080           0
   62487 WT3  8549 TIP3 H2   HT     0.417000        1.0080           0
   62488 WT3  8550 TIP3 OH2  OT    -0.834000       15.9994           0
   62489 WT3  8550 TIP3 H1   HT     0.417000        1.0080           0
   62490 WT3  8550 TIP3 H2   HT     0.417000        1.0080           0
   62491 WT3  8551 TIP3 OH2  OT    -0.834000       15.9994           0
   62492 WT3  8551 TIP3 H1   HT     0.417000        1.0080           0
   62493 WT3  8551 TIP3 H2   HT     0.417000        1.0080           0
   62494 WT3  8552 TIP3 OH2  OT    -0.834000       15.9994           0
   62495 WT3  8552 TIP3 H1   HT     0.417000        1.0080           0
   62496 WT3  8552 TIP3 H2   HT     0.417000        1.0080           0
   62497 WT3  8553 TIP3 OH2  OT    -0.834000       15.9994           0
   62498 WT3  8553 TIP3 H1   HT     0.417000        1.0080           0
   62499 WT3  8553 TIP3 H2   HT     0.417000        1.0080           0
   62500 WT3  8554 TIP3 OH2  OT    -0.834000       15.9994           0
   62501 WT3  8554 TIP3 H1   HT     0.417000        1.0080           0
   62502 WT3  8554 TIP3 H2   HT     0.417000        1.0080           0
   62503 WT3  8555 TIP3 OH2  OT    -0.834000       15.9994           0
   62504 WT3  8555 TIP3 H1   HT     0.417000        1.0080           0
   62505 WT3  8555 TIP3 H2   HT     0.417000        1.0080           0
   62506 WT3  8556 TIP3 OH2  OT    -0.834000       15.9994           0
   62507 WT3  8556 TIP3 H1   HT     0.417000        1.0080           0
   62508 WT3  8556 TIP3 H2   HT     0.417000        1.0080           0
   62509 WT3  8557 TIP3 OH2  OT    -0.834000       15.9994           0
   62510 WT3  8557 TIP3 H1   HT     0.417000        1.0080           0
   62511 WT3  8557 TIP3 H2   HT     0.417000        1.0080           0
   62512 WT3  8558 TIP3 OH2  OT    -0.834000       15.9994           0
   62513 WT3  8558 TIP3 H1   HT     0.417000        1.0080           0
   62514 WT3  8558 TIP3 H2   HT     0.417000        1.0080           0
   62515 WT3  8559 TIP3 OH2  OT    -0.834000       15.9994           0
   62516 WT3  8559 TIP3 H1   HT     0.417000        1.0080           0
   62517 WT3  8559 TIP3 H2   HT     0.417000        1.0080           0
   62518 WT3  8560 TIP3 OH2  OT    -0.834000       15.9994           0
   62519 WT3  8560 TIP3 H1   HT     0.417000        1.0080           0
   62520 WT3  8560 TIP3 H2   HT     0.417000        1.0080           0
   62521 WT3  8561 TIP3 OH2  OT    -0.834000       15.9994           0
   62522 WT3  8561 TIP3 H1   HT     0.417000        1.0080           0
   62523 WT3  8561 TIP3 H2   HT     0.417000        1.0080           0
   62524 WT3  8562 TIP3 OH2  OT    -0.834000       15.9994           0
   62525 WT3  8562 TIP3 H1   HT     0.417000        1.0080           0
   62526 WT3  8562 TIP3 H2   HT     0.417000        1.0080           0
   62527 WT3  8563 TIP3 OH2  OT    -0.834000       15.9994           0
   62528 WT3  8563 TIP3 H1   HT     0.417000        1.0080           0
   62529 WT3  8563 TIP3 H2   HT     0.417000        1.0080           0
   62530 WT3  8564 TIP3 OH2  OT    -0.834000       15.9994           0
   62531 WT3  8564 TIP3 H1   HT     0.417000        1.0080           0
   62532 WT3  8564 TIP3 H2   HT     0.417000        1.0080           0
   62533 WT3  8565 TIP3 OH2  OT    -0.834000       15.9994           0
   62534 WT3  8565 TIP3 H1   HT     0.417000        1.0080           0
   62535 WT3  8565 TIP3 H2   HT     0.417000        1.0080           0
   62536 WT3  8566 TIP3 OH2  OT    -0.834000       15.9994           0
   62537 WT3  8566 TIP3 H1   HT     0.417000        1.0080           0
   62538 WT3  8566 TIP3 H2   HT     0.417000        1.0080           0
   62539 WT3  8567 TIP3 OH2  OT    -0.834000       15.9994           0
   62540 WT3  8567 TIP3 H1   HT     0.417000        1.0080           0
   62541 WT3  8567 TIP3 H2   HT     0.417000        1.0080           0
   62542 WT3  8568 TIP3 OH2  OT    -0.834000       15.9994           0
   62543 WT3  8568 TIP3 H1   HT     0.417000        1.0080           0
   62544 WT3  8568 TIP3 H2   HT     0.417000        1.0080           0
   62545 WT3  8571 TIP3 OH2  OT    -0.834000       15.9994           0
   62546 WT3  8571 TIP3 H1   HT     0.417000        1.0080           0
   62547 WT3  8571 TIP3 H2   HT     0.417000        1.0080           0
   62548 WT3  8572 TIP3 OH2  OT    -0.834000       15.9994           0
   62549 WT3  8572 TIP3 H1   HT     0.417000        1.0080           0
   62550 WT3  8572 TIP3 H2   HT     0.417000        1.0080           0
   62551 WT3  8573 TIP3 OH2  OT    -0.834000       15.9994           0
   62552 WT3  8573 TIP3 H1   HT     0.417000        1.0080           0
   62553 WT3  8573 TIP3 H2   HT     0.417000        1.0080           0
   62554 WT3  8574 TIP3 OH2  OT    -0.834000       15.9994           0
   62555 WT3  8574 TIP3 H1   HT     0.417000        1.0080           0
   62556 WT3  8574 TIP3 H2   HT     0.417000        1.0080           0
   62557 WT3  8575 TIP3 OH2  OT    -0.834000       15.9994           0
   62558 WT3  8575 TIP3 H1   HT     0.417000        1.0080           0
   62559 WT3  8575 TIP3 H2   HT     0.417000        1.0080           0
   62560 WT3  8576 TIP3 OH2  OT    -0.834000       15.9994           0
   62561 WT3  8576 TIP3 H1   HT     0.417000        1.0080           0
   62562 WT3  8576 TIP3 H2   HT     0.417000        1.0080           0
   62563 WT3  8577 TIP3 OH2  OT    -0.834000       15.9994           0
   62564 WT3  8577 TIP3 H1   HT     0.417000        1.0080           0
   62565 WT3  8577 TIP3 H2   HT     0.417000        1.0080           0
   62566 WT3  8578 TIP3 OH2  OT    -0.834000       15.9994           0
   62567 WT3  8578 TIP3 H1   HT     0.417000        1.0080           0
   62568 WT3  8578 TIP3 H2   HT     0.417000        1.0080           0
   62569 WT3  8579 TIP3 OH2  OT    -0.834000       15.9994           0
   62570 WT3  8579 TIP3 H1   HT     0.417000        1.0080           0
   62571 WT3  8579 TIP3 H2   HT     0.417000        1.0080           0
   62572 WT3  8580 TIP3 OH2  OT    -0.834000       15.9994           0
   62573 WT3  8580 TIP3 H1   HT     0.417000        1.0080           0
   62574 WT3  8580 TIP3 H2   HT     0.417000        1.0080           0
   62575 WT3  8581 TIP3 OH2  OT    -0.834000       15.9994           0
   62576 WT3  8581 TIP3 H1   HT     0.417000        1.0080           0
   62577 WT3  8581 TIP3 H2   HT     0.417000        1.0080           0
   62578 WT3  8582 TIP3 OH2  OT    -0.834000       15.9994           0
   62579 WT3  8582 TIP3 H1   HT     0.417000        1.0080           0
   62580 WT3  8582 TIP3 H2   HT     0.417000        1.0080           0
   62581 WT3  8583 TIP3 OH2  OT    -0.834000       15.9994           0
   62582 WT3  8583 TIP3 H1   HT     0.417000        1.0080           0
   62583 WT3  8583 TIP3 H2   HT     0.417000        1.0080           0
   62584 WT3  8584 TIP3 OH2  OT    -0.834000       15.9994           0
   62585 WT3  8584 TIP3 H1   HT     0.417000        1.0080           0
   62586 WT3  8584 TIP3 H2   HT     0.417000        1.0080           0
   62587 WT3  8585 TIP3 OH2  OT    -0.834000       15.9994           0
   62588 WT3  8585 TIP3 H1   HT     0.417000        1.0080           0
   62589 WT3  8585 TIP3 H2   HT     0.417000        1.0080           0
   62590 WT3  8586 TIP3 OH2  OT    -0.834000       15.9994           0
   62591 WT3  8586 TIP3 H1   HT     0.417000        1.0080           0
   62592 WT3  8586 TIP3 H2   HT     0.417000        1.0080           0
   62593 WT3  8588 TIP3 OH2  OT    -0.834000       15.9994           0
   62594 WT3  8588 TIP3 H1   HT     0.417000        1.0080           0
   62595 WT3  8588 TIP3 H2   HT     0.417000        1.0080           0
   62596 WT3  8590 TIP3 OH2  OT    -0.834000       15.9994           0
   62597 WT3  8590 TIP3 H1   HT     0.417000        1.0080           0
   62598 WT3  8590 TIP3 H2   HT     0.417000        1.0080           0
   62599 WT3  8591 TIP3 OH2  OT    -0.834000       15.9994           0
   62600 WT3  8591 TIP3 H1   HT     0.417000        1.0080           0
   62601 WT3  8591 TIP3 H2   HT     0.417000        1.0080           0
   62602 WT3  8592 TIP3 OH2  OT    -0.834000       15.9994           0
   62603 WT3  8592 TIP3 H1   HT     0.417000        1.0080           0
   62604 WT3  8592 TIP3 H2   HT     0.417000        1.0080           0
   62605 WT3  8593 TIP3 OH2  OT    -0.834000       15.9994           0
   62606 WT3  8593 TIP3 H1   HT     0.417000        1.0080           0
   62607 WT3  8593 TIP3 H2   HT     0.417000        1.0080           0
   62608 WT3  8594 TIP3 OH2  OT    -0.834000       15.9994           0
   62609 WT3  8594 TIP3 H1   HT     0.417000        1.0080           0
   62610 WT3  8594 TIP3 H2   HT     0.417000        1.0080           0
   62611 WT3  8595 TIP3 OH2  OT    -0.834000       15.9994           0
   62612 WT3  8595 TIP3 H1   HT     0.417000        1.0080           0
   62613 WT3  8595 TIP3 H2   HT     0.417000        1.0080           0
   62614 WT3  8596 TIP3 OH2  OT    -0.834000       15.9994           0
   62615 WT3  8596 TIP3 H1   HT     0.417000        1.0080           0
   62616 WT3  8596 TIP3 H2   HT     0.417000        1.0080           0
   62617 WT3  8598 TIP3 OH2  OT    -0.834000       15.9994           0
   62618 WT3  8598 TIP3 H1   HT     0.417000        1.0080           0
   62619 WT3  8598 TIP3 H2   HT     0.417000        1.0080           0
   62620 WT3  8599 TIP3 OH2  OT    -0.834000       15.9994           0
   62621 WT3  8599 TIP3 H1   HT     0.417000        1.0080           0
   62622 WT3  8599 TIP3 H2   HT     0.417000        1.0080           0
   62623 WT3  8600 TIP3 OH2  OT    -0.834000       15.9994           0
   62624 WT3  8600 TIP3 H1   HT     0.417000        1.0080           0
   62625 WT3  8600 TIP3 H2   HT     0.417000        1.0080           0
   62626 WT3  8601 TIP3 OH2  OT    -0.834000       15.9994           0
   62627 WT3  8601 TIP3 H1   HT     0.417000        1.0080           0
   62628 WT3  8601 TIP3 H2   HT     0.417000        1.0080           0
   62629 WT3  8602 TIP3 OH2  OT    -0.834000       15.9994           0
   62630 WT3  8602 TIP3 H1   HT     0.417000        1.0080           0
   62631 WT3  8602 TIP3 H2   HT     0.417000        1.0080           0
   62632 WT3  8604 TIP3 OH2  OT    -0.834000       15.9994           0
   62633 WT3  8604 TIP3 H1   HT     0.417000        1.0080           0
   62634 WT3  8604 TIP3 H2   HT     0.417000        1.0080           0
   62635 WT3  8605 TIP3 OH2  OT    -0.834000       15.9994           0
   62636 WT3  8605 TIP3 H1   HT     0.417000        1.0080           0
   62637 WT3  8605 TIP3 H2   HT     0.417000        1.0080           0
   62638 WT3  8606 TIP3 OH2  OT    -0.834000       15.9994           0
   62639 WT3  8606 TIP3 H1   HT     0.417000        1.0080           0
   62640 WT3  8606 TIP3 H2   HT     0.417000        1.0080           0
   62641 WT3  8608 TIP3 OH2  OT    -0.834000       15.9994           0
   62642 WT3  8608 TIP3 H1   HT     0.417000        1.0080           0
   62643 WT3  8608 TIP3 H2   HT     0.417000        1.0080           0
   62644 WT3  8609 TIP3 OH2  OT    -0.834000       15.9994           0
   62645 WT3  8609 TIP3 H1   HT     0.417000        1.0080           0
   62646 WT3  8609 TIP3 H2   HT     0.417000        1.0080           0
   62647 WT3  8610 TIP3 OH2  OT    -0.834000       15.9994           0
   62648 WT3  8610 TIP3 H1   HT     0.417000        1.0080           0
   62649 WT3  8610 TIP3 H2   HT     0.417000        1.0080           0
   62650 WT3  8611 TIP3 OH2  OT    -0.834000       15.9994           0
   62651 WT3  8611 TIP3 H1   HT     0.417000        1.0080           0
   62652 WT3  8611 TIP3 H2   HT     0.417000        1.0080           0
   62653 WT3  8612 TIP3 OH2  OT    -0.834000       15.9994           0
   62654 WT3  8612 TIP3 H1   HT     0.417000        1.0080           0
   62655 WT3  8612 TIP3 H2   HT     0.417000        1.0080           0
   62656 WT3  8613 TIP3 OH2  OT    -0.834000       15.9994           0
   62657 WT3  8613 TIP3 H1   HT     0.417000        1.0080           0
   62658 WT3  8613 TIP3 H2   HT     0.417000        1.0080           0
   62659 WT3  8614 TIP3 OH2  OT    -0.834000       15.9994           0
   62660 WT3  8614 TIP3 H1   HT     0.417000        1.0080           0
   62661 WT3  8614 TIP3 H2   HT     0.417000        1.0080           0
   62662 WT3  8615 TIP3 OH2  OT    -0.834000       15.9994           0
   62663 WT3  8615 TIP3 H1   HT     0.417000        1.0080           0
   62664 WT3  8615 TIP3 H2   HT     0.417000        1.0080           0
   62665 WT3  8616 TIP3 OH2  OT    -0.834000       15.9994           0
   62666 WT3  8616 TIP3 H1   HT     0.417000        1.0080           0
   62667 WT3  8616 TIP3 H2   HT     0.417000        1.0080           0
   62668 WT3  8617 TIP3 OH2  OT    -0.834000       15.9994           0
   62669 WT3  8617 TIP3 H1   HT     0.417000        1.0080           0
   62670 WT3  8617 TIP3 H2   HT     0.417000        1.0080           0
   62671 WT3  8618 TIP3 OH2  OT    -0.834000       15.9994           0
   62672 WT3  8618 TIP3 H1   HT     0.417000        1.0080           0
   62673 WT3  8618 TIP3 H2   HT     0.417000        1.0080           0
   62674 WT3  8619 TIP3 OH2  OT    -0.834000       15.9994           0
   62675 WT3  8619 TIP3 H1   HT     0.417000        1.0080           0
   62676 WT3  8619 TIP3 H2   HT     0.417000        1.0080           0
   62677 WT3  8620 TIP3 OH2  OT    -0.834000       15.9994           0
   62678 WT3  8620 TIP3 H1   HT     0.417000        1.0080           0
   62679 WT3  8620 TIP3 H2   HT     0.417000        1.0080           0
   62680 WT3  8621 TIP3 OH2  OT    -0.834000       15.9994           0
   62681 WT3  8621 TIP3 H1   HT     0.417000        1.0080           0
   62682 WT3  8621 TIP3 H2   HT     0.417000        1.0080           0
   62683 WT3  8622 TIP3 OH2  OT    -0.834000       15.9994           0
   62684 WT3  8622 TIP3 H1   HT     0.417000        1.0080           0
   62685 WT3  8622 TIP3 H2   HT     0.417000        1.0080           0
   62686 WT3  8623 TIP3 OH2  OT    -0.834000       15.9994           0
   62687 WT3  8623 TIP3 H1   HT     0.417000        1.0080           0
   62688 WT3  8623 TIP3 H2   HT     0.417000        1.0080           0
   62689 WT3  8624 TIP3 OH2  OT    -0.834000       15.9994           0
   62690 WT3  8624 TIP3 H1   HT     0.417000        1.0080           0
   62691 WT3  8624 TIP3 H2   HT     0.417000        1.0080           0
   62692 WT3  8625 TIP3 OH2  OT    -0.834000       15.9994           0
   62693 WT3  8625 TIP3 H1   HT     0.417000        1.0080           0
   62694 WT3  8625 TIP3 H2   HT     0.417000        1.0080           0
   62695 WT3  8627 TIP3 OH2  OT    -0.834000       15.9994           0
   62696 WT3  8627 TIP3 H1   HT     0.417000        1.0080           0
   62697 WT3  8627 TIP3 H2   HT     0.417000        1.0080           0
   62698 WT3  8631 TIP3 OH2  OT    -0.834000       15.9994           0
   62699 WT3  8631 TIP3 H1   HT     0.417000        1.0080           0
   62700 WT3  8631 TIP3 H2   HT     0.417000        1.0080           0
   62701 WT3  8633 TIP3 OH2  OT    -0.834000       15.9994           0
   62702 WT3  8633 TIP3 H1   HT     0.417000        1.0080           0
   62703 WT3  8633 TIP3 H2   HT     0.417000        1.0080           0
   62704 WT3  8634 TIP3 OH2  OT    -0.834000       15.9994           0
   62705 WT3  8634 TIP3 H1   HT     0.417000        1.0080           0
   62706 WT3  8634 TIP3 H2   HT     0.417000        1.0080           0
   62707 WT3  8635 TIP3 OH2  OT    -0.834000       15.9994           0
   62708 WT3  8635 TIP3 H1   HT     0.417000        1.0080           0
   62709 WT3  8635 TIP3 H2   HT     0.417000        1.0080           0
   62710 WT3  8637 TIP3 OH2  OT    -0.834000       15.9994           0
   62711 WT3  8637 TIP3 H1   HT     0.417000        1.0080           0
   62712 WT3  8637 TIP3 H2   HT     0.417000        1.0080           0
   62713 WT3  8638 TIP3 OH2  OT    -0.834000       15.9994           0
   62714 WT3  8638 TIP3 H1   HT     0.417000        1.0080           0
   62715 WT3  8638 TIP3 H2   HT     0.417000        1.0080           0
   62716 WT3  8639 TIP3 OH2  OT    -0.834000       15.9994           0
   62717 WT3  8639 TIP3 H1   HT     0.417000        1.0080           0
   62718 WT3  8639 TIP3 H2   HT     0.417000        1.0080           0
   62719 WT3  8640 TIP3 OH2  OT    -0.834000       15.9994           0
   62720 WT3  8640 TIP3 H1   HT     0.417000        1.0080           0
   62721 WT3  8640 TIP3 H2   HT     0.417000        1.0080           0
   62722 WT3  8641 TIP3 OH2  OT    -0.834000       15.9994           0
   62723 WT3  8641 TIP3 H1   HT     0.417000        1.0080           0
   62724 WT3  8641 TIP3 H2   HT     0.417000        1.0080           0
   62725 WT3  8642 TIP3 OH2  OT    -0.834000       15.9994           0
   62726 WT3  8642 TIP3 H1   HT     0.417000        1.0080           0
   62727 WT3  8642 TIP3 H2   HT     0.417000        1.0080           0
   62728 WT3  8643 TIP3 OH2  OT    -0.834000       15.9994           0
   62729 WT3  8643 TIP3 H1   HT     0.417000        1.0080           0
   62730 WT3  8643 TIP3 H2   HT     0.417000        1.0080           0
   62731 WT3  8644 TIP3 OH2  OT    -0.834000       15.9994           0
   62732 WT3  8644 TIP3 H1   HT     0.417000        1.0080           0
   62733 WT3  8644 TIP3 H2   HT     0.417000        1.0080           0
   62734 WT3  8645 TIP3 OH2  OT    -0.834000       15.9994           0
   62735 WT3  8645 TIP3 H1   HT     0.417000        1.0080           0
   62736 WT3  8645 TIP3 H2   HT     0.417000        1.0080           0
   62737 WT3  8646 TIP3 OH2  OT    -0.834000       15.9994           0
   62738 WT3  8646 TIP3 H1   HT     0.417000        1.0080           0
   62739 WT3  8646 TIP3 H2   HT     0.417000        1.0080           0
   62740 WT3  8647 TIP3 OH2  OT    -0.834000       15.9994           0
   62741 WT3  8647 TIP3 H1   HT     0.417000        1.0080           0
   62742 WT3  8647 TIP3 H2   HT     0.417000        1.0080           0
   62743 WT3  8649 TIP3 OH2  OT    -0.834000       15.9994           0
   62744 WT3  8649 TIP3 H1   HT     0.417000        1.0080           0
   62745 WT3  8649 TIP3 H2   HT     0.417000        1.0080           0
   62746 WT3  8652 TIP3 OH2  OT    -0.834000       15.9994           0
   62747 WT3  8652 TIP3 H1   HT     0.417000        1.0080           0
   62748 WT3  8652 TIP3 H2   HT     0.417000        1.0080           0
   62749 WT3  8653 TIP3 OH2  OT    -0.834000       15.9994           0
   62750 WT3  8653 TIP3 H1   HT     0.417000        1.0080           0
   62751 WT3  8653 TIP3 H2   HT     0.417000        1.0080           0
   62752 WT3  8654 TIP3 OH2  OT    -0.834000       15.9994           0
   62753 WT3  8654 TIP3 H1   HT     0.417000        1.0080           0
   62754 WT3  8654 TIP3 H2   HT     0.417000        1.0080           0
   62755 WT3  8658 TIP3 OH2  OT    -0.834000       15.9994           0
   62756 WT3  8658 TIP3 H1   HT     0.417000        1.0080           0
   62757 WT3  8658 TIP3 H2   HT     0.417000        1.0080           0
   62758 WT3  8659 TIP3 OH2  OT    -0.834000       15.9994           0
   62759 WT3  8659 TIP3 H1   HT     0.417000        1.0080           0
   62760 WT3  8659 TIP3 H2   HT     0.417000        1.0080           0
   62761 WT3  8660 TIP3 OH2  OT    -0.834000       15.9994           0
   62762 WT3  8660 TIP3 H1   HT     0.417000        1.0080           0
   62763 WT3  8660 TIP3 H2   HT     0.417000        1.0080           0
   62764 WT3  8665 TIP3 OH2  OT    -0.834000       15.9994           0
   62765 WT3  8665 TIP3 H1   HT     0.417000        1.0080           0
   62766 WT3  8665 TIP3 H2   HT     0.417000        1.0080           0
   62767 WT3  8667 TIP3 OH2  OT    -0.834000       15.9994           0
   62768 WT3  8667 TIP3 H1   HT     0.417000        1.0080           0
   62769 WT3  8667 TIP3 H2   HT     0.417000        1.0080           0
   62770 WT3  8668 TIP3 OH2  OT    -0.834000       15.9994           0
   62771 WT3  8668 TIP3 H1   HT     0.417000        1.0080           0
   62772 WT3  8668 TIP3 H2   HT     0.417000        1.0080           0
   62773 WT3  8670 TIP3 OH2  OT    -0.834000       15.9994           0
   62774 WT3  8670 TIP3 H1   HT     0.417000        1.0080           0
   62775 WT3  8670 TIP3 H2   HT     0.417000        1.0080           0
   62776 WT3  8672 TIP3 OH2  OT    -0.834000       15.9994           0
   62777 WT3  8672 TIP3 H1   HT     0.417000        1.0080           0
   62778 WT3  8672 TIP3 H2   HT     0.417000        1.0080           0
   62779 WT3  8674 TIP3 OH2  OT    -0.834000       15.9994           0
   62780 WT3  8674 TIP3 H1   HT     0.417000        1.0080           0
   62781 WT3  8674 TIP3 H2   HT     0.417000        1.0080           0
   62782 WT3  8675 TIP3 OH2  OT    -0.834000       15.9994           0
   62783 WT3  8675 TIP3 H1   HT     0.417000        1.0080           0
   62784 WT3  8675 TIP3 H2   HT     0.417000        1.0080           0
   62785 WT3  8676 TIP3 OH2  OT    -0.834000       15.9994           0
   62786 WT3  8676 TIP3 H1   HT     0.417000        1.0080           0
   62787 WT3  8676 TIP3 H2   HT     0.417000        1.0080           0
   62788 WT3  8679 TIP3 OH2  OT    -0.834000       15.9994           0
   62789 WT3  8679 TIP3 H1   HT     0.417000        1.0080           0
   62790 WT3  8679 TIP3 H2   HT     0.417000        1.0080           0
   62791 WT3  8681 TIP3 OH2  OT    -0.834000       15.9994           0
   62792 WT3  8681 TIP3 H1   HT     0.417000        1.0080           0
   62793 WT3  8681 TIP3 H2   HT     0.417000        1.0080           0
   62794 WT3  8682 TIP3 OH2  OT    -0.834000       15.9994           0
   62795 WT3  8682 TIP3 H1   HT     0.417000        1.0080           0
   62796 WT3  8682 TIP3 H2   HT     0.417000        1.0080           0
   62797 WT3  8683 TIP3 OH2  OT    -0.834000       15.9994           0
   62798 WT3  8683 TIP3 H1   HT     0.417000        1.0080           0
   62799 WT3  8683 TIP3 H2   HT     0.417000        1.0080           0
   62800 WT3  8687 TIP3 OH2  OT    -0.834000       15.9994           0
   62801 WT3  8687 TIP3 H1   HT     0.417000        1.0080           0
   62802 WT3  8687 TIP3 H2   HT     0.417000        1.0080           0
   62803 WT3  8700 TIP3 OH2  OT    -0.834000       15.9994           0
   62804 WT3  8700 TIP3 H1   HT     0.417000        1.0080           0
   62805 WT3  8700 TIP3 H2   HT     0.417000        1.0080           0
   62806 WT3  8703 TIP3 OH2  OT    -0.834000       15.9994           0
   62807 WT3  8703 TIP3 H1   HT     0.417000        1.0080           0
   62808 WT3  8703 TIP3 H2   HT     0.417000        1.0080           0
   62809 WT3  8704 TIP3 OH2  OT    -0.834000       15.9994           0
   62810 WT3  8704 TIP3 H1   HT     0.417000        1.0080           0
   62811 WT3  8704 TIP3 H2   HT     0.417000        1.0080           0
   62812 WT3  8710 TIP3 OH2  OT    -0.834000       15.9994           0
   62813 WT3  8710 TIP3 H1   HT     0.417000        1.0080           0
   62814 WT3  8710 TIP3 H2   HT     0.417000        1.0080           0
   62815 WT3  8719 TIP3 OH2  OT    -0.834000       15.9994           0
   62816 WT3  8719 TIP3 H1   HT     0.417000        1.0080           0
   62817 WT3  8719 TIP3 H2   HT     0.417000        1.0080           0
   62818 WT3  8721 TIP3 OH2  OT    -0.834000       15.9994           0
   62819 WT3  8721 TIP3 H1   HT     0.417000        1.0080           0
   62820 WT3  8721 TIP3 H2   HT     0.417000        1.0080           0
   62821 WT3  8748 TIP3 OH2  OT    -0.834000       15.9994           0
   62822 WT3  8748 TIP3 H1   HT     0.417000        1.0080           0
   62823 WT3  8748 TIP3 H2   HT     0.417000        1.0080           0
   62824 WT3  8760 TIP3 OH2  OT    -0.834000       15.9994           0
   62825 WT3  8760 TIP3 H1   HT     0.417000        1.0080           0
   62826 WT3  8760 TIP3 H2   HT     0.417000        1.0080           0
   62827 WT3  8762 TIP3 OH2  OT    -0.834000       15.9994           0
   62828 WT3  8762 TIP3 H1   HT     0.417000        1.0080           0
   62829 WT3  8762 TIP3 H2   HT     0.417000        1.0080           0
   62830 WT3  8771 TIP3 OH2  OT    -0.834000       15.9994           0
   62831 WT3  8771 TIP3 H1   HT     0.417000        1.0080           0
   62832 WT3  8771 TIP3 H2   HT     0.417000        1.0080           0
   62833 WT3  8777 TIP3 OH2  OT    -0.834000       15.9994           0
   62834 WT3  8777 TIP3 H1   HT     0.417000        1.0080           0
   62835 WT3  8777 TIP3 H2   HT     0.417000        1.0080           0
   62836 WT3  8779 TIP3 OH2  OT    -0.834000       15.9994           0
   62837 WT3  8779 TIP3 H1   HT     0.417000        1.0080           0
   62838 WT3  8779 TIP3 H2   HT     0.417000        1.0080           0
   62839 WT3  8780 TIP3 OH2  OT    -0.834000       15.9994           0
   62840 WT3  8780 TIP3 H1   HT     0.417000        1.0080           0
   62841 WT3  8780 TIP3 H2   HT     0.417000        1.0080           0
   62842 WT3  8782 TIP3 OH2  OT    -0.834000       15.9994           0
   62843 WT3  8782 TIP3 H1   HT     0.417000        1.0080           0
   62844 WT3  8782 TIP3 H2   HT     0.417000        1.0080           0
   62845 WT3  8790 TIP3 OH2  OT    -0.834000       15.9994           0
   62846 WT3  8790 TIP3 H1   HT     0.417000        1.0080           0
   62847 WT3  8790 TIP3 H2   HT     0.417000        1.0080           0
   62848 WT3  8792 TIP3 OH2  OT    -0.834000       15.9994           0
   62849 WT3  8792 TIP3 H1   HT     0.417000        1.0080           0
   62850 WT3  8792 TIP3 H2   HT     0.417000        1.0080           0
   62851 WT3  8794 TIP3 OH2  OT    -0.834000       15.9994           0
   62852 WT3  8794 TIP3 H1   HT     0.417000        1.0080           0
   62853 WT3  8794 TIP3 H2   HT     0.417000        1.0080           0
   62854 WT3  8799 TIP3 OH2  OT    -0.834000       15.9994           0
   62855 WT3  8799 TIP3 H1   HT     0.417000        1.0080           0
   62856 WT3  8799 TIP3 H2   HT     0.417000        1.0080           0
   62857 WT3  8801 TIP3 OH2  OT    -0.834000       15.9994           0
   62858 WT3  8801 TIP3 H1   HT     0.417000        1.0080           0
   62859 WT3  8801 TIP3 H2   HT     0.417000        1.0080           0
   62860 WT3  8802 TIP3 OH2  OT    -0.834000       15.9994           0
   62861 WT3  8802 TIP3 H1   HT     0.417000        1.0080           0
   62862 WT3  8802 TIP3 H2   HT     0.417000        1.0080           0
   62863 WT3  8803 TIP3 OH2  OT    -0.834000       15.9994           0
   62864 WT3  8803 TIP3 H1   HT     0.417000        1.0080           0
   62865 WT3  8803 TIP3 H2   HT     0.417000        1.0080           0
   62866 WT3  8807 TIP3 OH2  OT    -0.834000       15.9994           0
   62867 WT3  8807 TIP3 H1   HT     0.417000        1.0080           0
   62868 WT3  8807 TIP3 H2   HT     0.417000        1.0080           0
   62869 WT3  8813 TIP3 OH2  OT    -0.834000       15.9994           0
   62870 WT3  8813 TIP3 H1   HT     0.417000        1.0080           0
   62871 WT3  8813 TIP3 H2   HT     0.417000        1.0080           0
   62872 WT3  8816 TIP3 OH2  OT    -0.834000       15.9994           0
   62873 WT3  8816 TIP3 H1   HT     0.417000        1.0080           0
   62874 WT3  8816 TIP3 H2   HT     0.417000        1.0080           0
   62875 WT3  8820 TIP3 OH2  OT    -0.834000       15.9994           0
   62876 WT3  8820 TIP3 H1   HT     0.417000        1.0080           0
   62877 WT3  8820 TIP3 H2   HT     0.417000        1.0080           0
   62878 WT3  8822 TIP3 OH2  OT    -0.834000       15.9994           0
   62879 WT3  8822 TIP3 H1   HT     0.417000        1.0080           0
   62880 WT3  8822 TIP3 H2   HT     0.417000        1.0080           0
   62881 WT3  8823 TIP3 OH2  OT    -0.834000       15.9994           0
   62882 WT3  8823 TIP3 H1   HT     0.417000        1.0080           0
   62883 WT3  8823 TIP3 H2   HT     0.417000        1.0080           0
   62884 WT3  8824 TIP3 OH2  OT    -0.834000       15.9994           0
   62885 WT3  8824 TIP3 H1   HT     0.417000        1.0080           0
   62886 WT3  8824 TIP3 H2   HT     0.417000        1.0080           0
   62887 WT3  8829 TIP3 OH2  OT    -0.834000       15.9994           0
   62888 WT3  8829 TIP3 H1   HT     0.417000        1.0080           0
   62889 WT3  8829 TIP3 H2   HT     0.417000        1.0080           0
   62890 WT3  8830 TIP3 OH2  OT    -0.834000       15.9994           0
   62891 WT3  8830 TIP3 H1   HT     0.417000        1.0080           0
   62892 WT3  8830 TIP3 H2   HT     0.417000        1.0080           0
   62893 WT3  8831 TIP3 OH2  OT    -0.834000       15.9994           0
   62894 WT3  8831 TIP3 H1   HT     0.417000        1.0080           0
   62895 WT3  8831 TIP3 H2   HT     0.417000        1.0080           0
   62896 WT3  8833 TIP3 OH2  OT    -0.834000       15.9994           0
   62897 WT3  8833 TIP3 H1   HT     0.417000        1.0080           0
   62898 WT3  8833 TIP3 H2   HT     0.417000        1.0080           0
   62899 WT3  8836 TIP3 OH2  OT    -0.834000       15.9994           0
   62900 WT3  8836 TIP3 H1   HT     0.417000        1.0080           0
   62901 WT3  8836 TIP3 H2   HT     0.417000        1.0080           0
   62902 WT3  8837 TIP3 OH2  OT    -0.834000       15.9994           0
   62903 WT3  8837 TIP3 H1   HT     0.417000        1.0080           0
   62904 WT3  8837 TIP3 H2   HT     0.417000        1.0080           0
   62905 WT3  8840 TIP3 OH2  OT    -0.834000       15.9994           0
   62906 WT3  8840 TIP3 H1   HT     0.417000        1.0080           0
   62907 WT3  8840 TIP3 H2   HT     0.417000        1.0080           0
   62908 WT3  8842 TIP3 OH2  OT    -0.834000       15.9994           0
   62909 WT3  8842 TIP3 H1   HT     0.417000        1.0080           0
   62910 WT3  8842 TIP3 H2   HT     0.417000        1.0080           0
   62911 WT3  8843 TIP3 OH2  OT    -0.834000       15.9994           0
   62912 WT3  8843 TIP3 H1   HT     0.417000        1.0080           0
   62913 WT3  8843 TIP3 H2   HT     0.417000        1.0080           0
   62914 WT3  8844 TIP3 OH2  OT    -0.834000       15.9994           0
   62915 WT3  8844 TIP3 H1   HT     0.417000        1.0080           0
   62916 WT3  8844 TIP3 H2   HT     0.417000        1.0080           0
   62917 WT3  8845 TIP3 OH2  OT    -0.834000       15.9994           0
   62918 WT3  8845 TIP3 H1   HT     0.417000        1.0080           0
   62919 WT3  8845 TIP3 H2   HT     0.417000        1.0080           0
   62920 WT3  8846 TIP3 OH2  OT    -0.834000       15.9994           0
   62921 WT3  8846 TIP3 H1   HT     0.417000        1.0080           0
   62922 WT3  8846 TIP3 H2   HT     0.417000        1.0080           0
   62923 WT3  8847 TIP3 OH2  OT    -0.834000       15.9994           0
   62924 WT3  8847 TIP3 H1   HT     0.417000        1.0080           0
   62925 WT3  8847 TIP3 H2   HT     0.417000        1.0080           0
   62926 WT3  8848 TIP3 OH2  OT    -0.834000       15.9994           0
   62927 WT3  8848 TIP3 H1   HT     0.417000        1.0080           0
   62928 WT3  8848 TIP3 H2   HT     0.417000        1.0080           0
   62929 WT3  8849 TIP3 OH2  OT    -0.834000       15.9994           0
   62930 WT3  8849 TIP3 H1   HT     0.417000        1.0080           0
   62931 WT3  8849 TIP3 H2   HT     0.417000        1.0080           0
   62932 WT3  8850 TIP3 OH2  OT    -0.834000       15.9994           0
   62933 WT3  8850 TIP3 H1   HT     0.417000        1.0080           0
   62934 WT3  8850 TIP3 H2   HT     0.417000        1.0080           0
   62935 WT3  8852 TIP3 OH2  OT    -0.834000       15.9994           0
   62936 WT3  8852 TIP3 H1   HT     0.417000        1.0080           0
   62937 WT3  8852 TIP3 H2   HT     0.417000        1.0080           0
   62938 WT3  8855 TIP3 OH2  OT    -0.834000       15.9994           0
   62939 WT3  8855 TIP3 H1   HT     0.417000        1.0080           0
   62940 WT3  8855 TIP3 H2   HT     0.417000        1.0080           0
   62941 WT3  8856 TIP3 OH2  OT    -0.834000       15.9994           0
   62942 WT3  8856 TIP3 H1   HT     0.417000        1.0080           0
   62943 WT3  8856 TIP3 H2   HT     0.417000        1.0080           0
   62944 WT3  8859 TIP3 OH2  OT    -0.834000       15.9994           0
   62945 WT3  8859 TIP3 H1   HT     0.417000        1.0080           0
   62946 WT3  8859 TIP3 H2   HT     0.417000        1.0080           0
   62947 WT3  8861 TIP3 OH2  OT    -0.834000       15.9994           0
   62948 WT3  8861 TIP3 H1   HT     0.417000        1.0080           0
   62949 WT3  8861 TIP3 H2   HT     0.417000        1.0080           0
   62950 WT3  8863 TIP3 OH2  OT    -0.834000       15.9994           0
   62951 WT3  8863 TIP3 H1   HT     0.417000        1.0080           0
   62952 WT3  8863 TIP3 H2   HT     0.417000        1.0080           0
   62953 WT3  8864 TIP3 OH2  OT    -0.834000       15.9994           0
   62954 WT3  8864 TIP3 H1   HT     0.417000        1.0080           0
   62955 WT3  8864 TIP3 H2   HT     0.417000        1.0080           0
   62956 WT3  8865 TIP3 OH2  OT    -0.834000       15.9994           0
   62957 WT3  8865 TIP3 H1   HT     0.417000        1.0080           0
   62958 WT3  8865 TIP3 H2   HT     0.417000        1.0080           0
   62959 WT3  8866 TIP3 OH2  OT    -0.834000       15.9994           0
   62960 WT3  8866 TIP3 H1   HT     0.417000        1.0080           0
   62961 WT3  8866 TIP3 H2   HT     0.417000        1.0080           0
   62962 WT3  8867 TIP3 OH2  OT    -0.834000       15.9994           0
   62963 WT3  8867 TIP3 H1   HT     0.417000        1.0080           0
   62964 WT3  8867 TIP3 H2   HT     0.417000        1.0080           0
   62965 WT3  8869 TIP3 OH2  OT    -0.834000       15.9994           0
   62966 WT3  8869 TIP3 H1   HT     0.417000        1.0080           0
   62967 WT3  8869 TIP3 H2   HT     0.417000        1.0080           0
   62968 WT3  8870 TIP3 OH2  OT    -0.834000       15.9994           0
   62969 WT3  8870 TIP3 H1   HT     0.417000        1.0080           0
   62970 WT3  8870 TIP3 H2   HT     0.417000        1.0080           0
   62971 WT3  8871 TIP3 OH2  OT    -0.834000       15.9994           0
   62972 WT3  8871 TIP3 H1   HT     0.417000        1.0080           0
   62973 WT3  8871 TIP3 H2   HT     0.417000        1.0080           0
   62974 WT3  8878 TIP3 OH2  OT    -0.834000       15.9994           0
   62975 WT3  8878 TIP3 H1   HT     0.417000        1.0080           0
   62976 WT3  8878 TIP3 H2   HT     0.417000        1.0080           0
   62977 WT3  8879 TIP3 OH2  OT    -0.834000       15.9994           0
   62978 WT3  8879 TIP3 H1   HT     0.417000        1.0080           0
   62979 WT3  8879 TIP3 H2   HT     0.417000        1.0080           0
   62980 WT3  8881 TIP3 OH2  OT    -0.834000       15.9994           0
   62981 WT3  8881 TIP3 H1   HT     0.417000        1.0080           0
   62982 WT3  8881 TIP3 H2   HT     0.417000        1.0080           0
   62983 WT3  8882 TIP3 OH2  OT    -0.834000       15.9994           0
   62984 WT3  8882 TIP3 H1   HT     0.417000        1.0080           0
   62985 WT3  8882 TIP3 H2   HT     0.417000        1.0080           0
   62986 WT3  8883 TIP3 OH2  OT    -0.834000       15.9994           0
   62987 WT3  8883 TIP3 H1   HT     0.417000        1.0080           0
   62988 WT3  8883 TIP3 H2   HT     0.417000        1.0080           0
   62989 WT3  8884 TIP3 OH2  OT    -0.834000       15.9994           0
   62990 WT3  8884 TIP3 H1   HT     0.417000        1.0080           0
   62991 WT3  8884 TIP3 H2   HT     0.417000        1.0080           0
   62992 WT3  8885 TIP3 OH2  OT    -0.834000       15.9994           0
   62993 WT3  8885 TIP3 H1   HT     0.417000        1.0080           0
   62994 WT3  8885 TIP3 H2   HT     0.417000        1.0080           0
   62995 WT3  8886 TIP3 OH2  OT    -0.834000       15.9994           0
   62996 WT3  8886 TIP3 H1   HT     0.417000        1.0080           0
   62997 WT3  8886 TIP3 H2   HT     0.417000        1.0080           0
   62998 WT3  8887 TIP3 OH2  OT    -0.834000       15.9994           0
   62999 WT3  8887 TIP3 H1   HT     0.417000        1.0080           0
   63000 WT3  8887 TIP3 H2   HT     0.417000        1.0080           0
   63001 WT3  8888 TIP3 OH2  OT    -0.834000       15.9994           0
   63002 WT3  8888 TIP3 H1   HT     0.417000        1.0080           0
   63003 WT3  8888 TIP3 H2   HT     0.417000        1.0080           0
   63004 WT3  8893 TIP3 OH2  OT    -0.834000       15.9994           0
   63005 WT3  8893 TIP3 H1   HT     0.417000        1.0080           0
   63006 WT3  8893 TIP3 H2   HT     0.417000        1.0080           0
   63007 WT3  8894 TIP3 OH2  OT    -0.834000       15.9994           0
   63008 WT3  8894 TIP3 H1   HT     0.417000        1.0080           0
   63009 WT3  8894 TIP3 H2   HT     0.417000        1.0080           0
   63010 WT3  8895 TIP3 OH2  OT    -0.834000       15.9994           0
   63011 WT3  8895 TIP3 H1   HT     0.417000        1.0080           0
   63012 WT3  8895 TIP3 H2   HT     0.417000        1.0080           0
   63013 WT3  8896 TIP3 OH2  OT    -0.834000       15.9994           0
   63014 WT3  8896 TIP3 H1   HT     0.417000        1.0080           0
   63015 WT3  8896 TIP3 H2   HT     0.417000        1.0080           0
   63016 WT3  8897 TIP3 OH2  OT    -0.834000       15.9994           0
   63017 WT3  8897 TIP3 H1   HT     0.417000        1.0080           0
   63018 WT3  8897 TIP3 H2   HT     0.417000        1.0080           0
   63019 WT3  8898 TIP3 OH2  OT    -0.834000       15.9994           0
   63020 WT3  8898 TIP3 H1   HT     0.417000        1.0080           0
   63021 WT3  8898 TIP3 H2   HT     0.417000        1.0080           0
   63022 WT3  8901 TIP3 OH2  OT    -0.834000       15.9994           0
   63023 WT3  8901 TIP3 H1   HT     0.417000        1.0080           0
   63024 WT3  8901 TIP3 H2   HT     0.417000        1.0080           0
   63025 WT3  8902 TIP3 OH2  OT    -0.834000       15.9994           0
   63026 WT3  8902 TIP3 H1   HT     0.417000        1.0080           0
   63027 WT3  8902 TIP3 H2   HT     0.417000        1.0080           0
   63028 WT3  8903 TIP3 OH2  OT    -0.834000       15.9994           0
   63029 WT3  8903 TIP3 H1   HT     0.417000        1.0080           0
   63030 WT3  8903 TIP3 H2   HT     0.417000        1.0080           0
   63031 WT3  8904 TIP3 OH2  OT    -0.834000       15.9994           0
   63032 WT3  8904 TIP3 H1   HT     0.417000        1.0080           0
   63033 WT3  8904 TIP3 H2   HT     0.417000        1.0080           0
   63034 WT3  8905 TIP3 OH2  OT    -0.834000       15.9994           0
   63035 WT3  8905 TIP3 H1   HT     0.417000        1.0080           0
   63036 WT3  8905 TIP3 H2   HT     0.417000        1.0080           0
   63037 WT3  8907 TIP3 OH2  OT    -0.834000       15.9994           0
   63038 WT3  8907 TIP3 H1   HT     0.417000        1.0080           0
   63039 WT3  8907 TIP3 H2   HT     0.417000        1.0080           0
   63040 WT3  8908 TIP3 OH2  OT    -0.834000       15.9994           0
   63041 WT3  8908 TIP3 H1   HT     0.417000        1.0080           0
   63042 WT3  8908 TIP3 H2   HT     0.417000        1.0080           0
   63043 WT3  8910 TIP3 OH2  OT    -0.834000       15.9994           0
   63044 WT3  8910 TIP3 H1   HT     0.417000        1.0080           0
   63045 WT3  8910 TIP3 H2   HT     0.417000        1.0080           0
   63046 WT3  8911 TIP3 OH2  OT    -0.834000       15.9994           0
   63047 WT3  8911 TIP3 H1   HT     0.417000        1.0080           0
   63048 WT3  8911 TIP3 H2   HT     0.417000        1.0080           0
   63049 WT3  8912 TIP3 OH2  OT    -0.834000       15.9994           0
   63050 WT3  8912 TIP3 H1   HT     0.417000        1.0080           0
   63051 WT3  8912 TIP3 H2   HT     0.417000        1.0080           0
   63052 WT3  8913 TIP3 OH2  OT    -0.834000       15.9994           0
   63053 WT3  8913 TIP3 H1   HT     0.417000        1.0080           0
   63054 WT3  8913 TIP3 H2   HT     0.417000        1.0080           0
   63055 WT3  8914 TIP3 OH2  OT    -0.834000       15.9994           0
   63056 WT3  8914 TIP3 H1   HT     0.417000        1.0080           0
   63057 WT3  8914 TIP3 H2   HT     0.417000        1.0080           0
   63058 WT3  8915 TIP3 OH2  OT    -0.834000       15.9994           0
   63059 WT3  8915 TIP3 H1   HT     0.417000        1.0080           0
   63060 WT3  8915 TIP3 H2   HT     0.417000        1.0080           0
   63061 WT3  8917 TIP3 OH2  OT    -0.834000       15.9994           0
   63062 WT3  8917 TIP3 H1   HT     0.417000        1.0080           0
   63063 WT3  8917 TIP3 H2   HT     0.417000        1.0080           0
   63064 WT3  8918 TIP3 OH2  OT    -0.834000       15.9994           0
   63065 WT3  8918 TIP3 H1   HT     0.417000        1.0080           0
   63066 WT3  8918 TIP3 H2   HT     0.417000        1.0080           0
   63067 WT3  8919 TIP3 OH2  OT    -0.834000       15.9994           0
   63068 WT3  8919 TIP3 H1   HT     0.417000        1.0080           0
   63069 WT3  8919 TIP3 H2   HT     0.417000        1.0080           0
   63070 WT3  8921 TIP3 OH2  OT    -0.834000       15.9994           0
   63071 WT3  8921 TIP3 H1   HT     0.417000        1.0080           0
   63072 WT3  8921 TIP3 H2   HT     0.417000        1.0080           0
   63073 WT3  8922 TIP3 OH2  OT    -0.834000       15.9994           0
   63074 WT3  8922 TIP3 H1   HT     0.417000        1.0080           0
   63075 WT3  8922 TIP3 H2   HT     0.417000        1.0080           0
   63076 WT3  8923 TIP3 OH2  OT    -0.834000       15.9994           0
   63077 WT3  8923 TIP3 H1   HT     0.417000        1.0080           0
   63078 WT3  8923 TIP3 H2   HT     0.417000        1.0080           0
   63079 WT3  8924 TIP3 OH2  OT    -0.834000       15.9994           0
   63080 WT3  8924 TIP3 H1   HT     0.417000        1.0080           0
   63081 WT3  8924 TIP3 H2   HT     0.417000        1.0080           0
   63082 WT3  8926 TIP3 OH2  OT    -0.834000       15.9994           0
   63083 WT3  8926 TIP3 H1   HT     0.417000        1.0080           0
   63084 WT3  8926 TIP3 H2   HT     0.417000        1.0080           0
   63085 WT3  8927 TIP3 OH2  OT    -0.834000       15.9994           0
   63086 WT3  8927 TIP3 H1   HT     0.417000        1.0080           0
   63087 WT3  8927 TIP3 H2   HT     0.417000        1.0080           0
   63088 WT3  8928 TIP3 OH2  OT    -0.834000       15.9994           0
   63089 WT3  8928 TIP3 H1   HT     0.417000        1.0080           0
   63090 WT3  8928 TIP3 H2   HT     0.417000        1.0080           0
   63091 WT3  8929 TIP3 OH2  OT    -0.834000       15.9994           0
   63092 WT3  8929 TIP3 H1   HT     0.417000        1.0080           0
   63093 WT3  8929 TIP3 H2   HT     0.417000        1.0080           0
   63094 WT3  8930 TIP3 OH2  OT    -0.834000       15.9994           0
   63095 WT3  8930 TIP3 H1   HT     0.417000        1.0080           0
   63096 WT3  8930 TIP3 H2   HT     0.417000        1.0080           0
   63097 WT3  8931 TIP3 OH2  OT    -0.834000       15.9994           0
   63098 WT3  8931 TIP3 H1   HT     0.417000        1.0080           0
   63099 WT3  8931 TIP3 H2   HT     0.417000        1.0080           0
   63100 WT3  8932 TIP3 OH2  OT    -0.834000       15.9994           0
   63101 WT3  8932 TIP3 H1   HT     0.417000        1.0080           0
   63102 WT3  8932 TIP3 H2   HT     0.417000        1.0080           0
   63103 WT3  8933 TIP3 OH2  OT    -0.834000       15.9994           0
   63104 WT3  8933 TIP3 H1   HT     0.417000        1.0080           0
   63105 WT3  8933 TIP3 H2   HT     0.417000        1.0080           0
   63106 WT3  8934 TIP3 OH2  OT    -0.834000       15.9994           0
   63107 WT3  8934 TIP3 H1   HT     0.417000        1.0080           0
   63108 WT3  8934 TIP3 H2   HT     0.417000        1.0080           0
   63109 WT3  8935 TIP3 OH2  OT    -0.834000       15.9994           0
   63110 WT3  8935 TIP3 H1   HT     0.417000        1.0080           0
   63111 WT3  8935 TIP3 H2   HT     0.417000        1.0080           0
   63112 WT3  8936 TIP3 OH2  OT    -0.834000       15.9994           0
   63113 WT3  8936 TIP3 H1   HT     0.417000        1.0080           0
   63114 WT3  8936 TIP3 H2   HT     0.417000        1.0080           0
   63115 WT3  8937 TIP3 OH2  OT    -0.834000       15.9994           0
   63116 WT3  8937 TIP3 H1   HT     0.417000        1.0080           0
   63117 WT3  8937 TIP3 H2   HT     0.417000        1.0080           0
   63118 WT3  8938 TIP3 OH2  OT    -0.834000       15.9994           0
   63119 WT3  8938 TIP3 H1   HT     0.417000        1.0080           0
   63120 WT3  8938 TIP3 H2   HT     0.417000        1.0080           0
   63121 WT3  8939 TIP3 OH2  OT    -0.834000       15.9994           0
   63122 WT3  8939 TIP3 H1   HT     0.417000        1.0080           0
   63123 WT3  8939 TIP3 H2   HT     0.417000        1.0080           0
   63124 WT3  8940 TIP3 OH2  OT    -0.834000       15.9994           0
   63125 WT3  8940 TIP3 H1   HT     0.417000        1.0080           0
   63126 WT3  8940 TIP3 H2   HT     0.417000        1.0080           0
   63127 WT3  8941 TIP3 OH2  OT    -0.834000       15.9994           0
   63128 WT3  8941 TIP3 H1   HT     0.417000        1.0080           0
   63129 WT3  8941 TIP3 H2   HT     0.417000        1.0080           0
   63130 WT3  8942 TIP3 OH2  OT    -0.834000       15.9994           0
   63131 WT3  8942 TIP3 H1   HT     0.417000        1.0080           0
   63132 WT3  8942 TIP3 H2   HT     0.417000        1.0080           0
   63133 WT3  8946 TIP3 OH2  OT    -0.834000       15.9994           0
   63134 WT3  8946 TIP3 H1   HT     0.417000        1.0080           0
   63135 WT3  8946 TIP3 H2   HT     0.417000        1.0080           0
   63136 WT3  8948 TIP3 OH2  OT    -0.834000       15.9994           0
   63137 WT3  8948 TIP3 H1   HT     0.417000        1.0080           0
   63138 WT3  8948 TIP3 H2   HT     0.417000        1.0080           0
   63139 WT3  8949 TIP3 OH2  OT    -0.834000       15.9994           0
   63140 WT3  8949 TIP3 H1   HT     0.417000        1.0080           0
   63141 WT3  8949 TIP3 H2   HT     0.417000        1.0080           0
   63142 WT3  8950 TIP3 OH2  OT    -0.834000       15.9994           0
   63143 WT3  8950 TIP3 H1   HT     0.417000        1.0080           0
   63144 WT3  8950 TIP3 H2   HT     0.417000        1.0080           0
   63145 WT3  8951 TIP3 OH2  OT    -0.834000       15.9994           0
   63146 WT3  8951 TIP3 H1   HT     0.417000        1.0080           0
   63147 WT3  8951 TIP3 H2   HT     0.417000        1.0080           0
   63148 WT3  8952 TIP3 OH2  OT    -0.834000       15.9994           0
   63149 WT3  8952 TIP3 H1   HT     0.417000        1.0080           0
   63150 WT3  8952 TIP3 H2   HT     0.417000        1.0080           0
   63151 WT3  8953 TIP3 OH2  OT    -0.834000       15.9994           0
   63152 WT3  8953 TIP3 H1   HT     0.417000        1.0080           0
   63153 WT3  8953 TIP3 H2   HT     0.417000        1.0080           0
   63154 WT3  8954 TIP3 OH2  OT    -0.834000       15.9994           0
   63155 WT3  8954 TIP3 H1   HT     0.417000        1.0080           0
   63156 WT3  8954 TIP3 H2   HT     0.417000        1.0080           0
   63157 WT3  8956 TIP3 OH2  OT    -0.834000       15.9994           0
   63158 WT3  8956 TIP3 H1   HT     0.417000        1.0080           0
   63159 WT3  8956 TIP3 H2   HT     0.417000        1.0080           0
   63160 WT3  8957 TIP3 OH2  OT    -0.834000       15.9994           0
   63161 WT3  8957 TIP3 H1   HT     0.417000        1.0080           0
   63162 WT3  8957 TIP3 H2   HT     0.417000        1.0080           0
   63163 WT3  8958 TIP3 OH2  OT    -0.834000       15.9994           0
   63164 WT3  8958 TIP3 H1   HT     0.417000        1.0080           0
   63165 WT3  8958 TIP3 H2   HT     0.417000        1.0080           0
   63166 WT3  8959 TIP3 OH2  OT    -0.834000       15.9994           0
   63167 WT3  8959 TIP3 H1   HT     0.417000        1.0080           0
   63168 WT3  8959 TIP3 H2   HT     0.417000        1.0080           0
   63169 WT3  8960 TIP3 OH2  OT    -0.834000       15.9994           0
   63170 WT3  8960 TIP3 H1   HT     0.417000        1.0080           0
   63171 WT3  8960 TIP3 H2   HT     0.417000        1.0080           0
   63172 WT3  8961 TIP3 OH2  OT    -0.834000       15.9994           0
   63173 WT3  8961 TIP3 H1   HT     0.417000        1.0080           0
   63174 WT3  8961 TIP3 H2   HT     0.417000        1.0080           0
   63175 WT3  8962 TIP3 OH2  OT    -0.834000       15.9994           0
   63176 WT3  8962 TIP3 H1   HT     0.417000        1.0080           0
   63177 WT3  8962 TIP3 H2   HT     0.417000        1.0080           0
   63178 WT3  8963 TIP3 OH2  OT    -0.834000       15.9994           0
   63179 WT3  8963 TIP3 H1   HT     0.417000        1.0080           0
   63180 WT3  8963 TIP3 H2   HT     0.417000        1.0080           0
   63181 WT3  8964 TIP3 OH2  OT    -0.834000       15.9994           0
   63182 WT3  8964 TIP3 H1   HT     0.417000        1.0080           0
   63183 WT3  8964 TIP3 H2   HT     0.417000        1.0080           0
   63184 WT3  8967 TIP3 OH2  OT    -0.834000       15.9994           0
   63185 WT3  8967 TIP3 H1   HT     0.417000        1.0080           0
   63186 WT3  8967 TIP3 H2   HT     0.417000        1.0080           0
   63187 WT3  8968 TIP3 OH2  OT    -0.834000       15.9994           0
   63188 WT3  8968 TIP3 H1   HT     0.417000        1.0080           0
   63189 WT3  8968 TIP3 H2   HT     0.417000        1.0080           0
   63190 WT3  8969 TIP3 OH2  OT    -0.834000       15.9994           0
   63191 WT3  8969 TIP3 H1   HT     0.417000        1.0080           0
   63192 WT3  8969 TIP3 H2   HT     0.417000        1.0080           0
   63193 WT3  8970 TIP3 OH2  OT    -0.834000       15.9994           0
   63194 WT3  8970 TIP3 H1   HT     0.417000        1.0080           0
   63195 WT3  8970 TIP3 H2   HT     0.417000        1.0080           0
   63196 WT3  8971 TIP3 OH2  OT    -0.834000       15.9994           0
   63197 WT3  8971 TIP3 H1   HT     0.417000        1.0080           0
   63198 WT3  8971 TIP3 H2   HT     0.417000        1.0080           0
   63199 WT3  8972 TIP3 OH2  OT    -0.834000       15.9994           0
   63200 WT3  8972 TIP3 H1   HT     0.417000        1.0080           0
   63201 WT3  8972 TIP3 H2   HT     0.417000        1.0080           0
   63202 WT3  8973 TIP3 OH2  OT    -0.834000       15.9994           0
   63203 WT3  8973 TIP3 H1   HT     0.417000        1.0080           0
   63204 WT3  8973 TIP3 H2   HT     0.417000        1.0080           0
   63205 WT3  8974 TIP3 OH2  OT    -0.834000       15.9994           0
   63206 WT3  8974 TIP3 H1   HT     0.417000        1.0080           0
   63207 WT3  8974 TIP3 H2   HT     0.417000        1.0080           0
   63208 WT3  8975 TIP3 OH2  OT    -0.834000       15.9994           0
   63209 WT3  8975 TIP3 H1   HT     0.417000        1.0080           0
   63210 WT3  8975 TIP3 H2   HT     0.417000        1.0080           0
   63211 WT3  8976 TIP3 OH2  OT    -0.834000       15.9994           0
   63212 WT3  8976 TIP3 H1   HT     0.417000        1.0080           0
   63213 WT3  8976 TIP3 H2   HT     0.417000        1.0080           0
   63214 WT3  8977 TIP3 OH2  OT    -0.834000       15.9994           0
   63215 WT3  8977 TIP3 H1   HT     0.417000        1.0080           0
   63216 WT3  8977 TIP3 H2   HT     0.417000        1.0080           0
   63217 WT3  8978 TIP3 OH2  OT    -0.834000       15.9994           0
   63218 WT3  8978 TIP3 H1   HT     0.417000        1.0080           0
   63219 WT3  8978 TIP3 H2   HT     0.417000        1.0080           0
   63220 WT3  8979 TIP3 OH2  OT    -0.834000       15.9994           0
   63221 WT3  8979 TIP3 H1   HT     0.417000        1.0080           0
   63222 WT3  8979 TIP3 H2   HT     0.417000        1.0080           0
   63223 WT3  8980 TIP3 OH2  OT    -0.834000       15.9994           0
   63224 WT3  8980 TIP3 H1   HT     0.417000        1.0080           0
   63225 WT3  8980 TIP3 H2   HT     0.417000        1.0080           0
   63226 WT3  8981 TIP3 OH2  OT    -0.834000       15.9994           0
   63227 WT3  8981 TIP3 H1   HT     0.417000        1.0080           0
   63228 WT3  8981 TIP3 H2   HT     0.417000        1.0080           0
   63229 WT3  8984 TIP3 OH2  OT    -0.834000       15.9994           0
   63230 WT3  8984 TIP3 H1   HT     0.417000        1.0080           0
   63231 WT3  8984 TIP3 H2   HT     0.417000        1.0080           0
   63232 WT3  8985 TIP3 OH2  OT    -0.834000       15.9994           0
   63233 WT3  8985 TIP3 H1   HT     0.417000        1.0080           0
   63234 WT3  8985 TIP3 H2   HT     0.417000        1.0080           0
   63235 WT3  8987 TIP3 OH2  OT    -0.834000       15.9994           0
   63236 WT3  8987 TIP3 H1   HT     0.417000        1.0080           0
   63237 WT3  8987 TIP3 H2   HT     0.417000        1.0080           0
   63238 WT3  8988 TIP3 OH2  OT    -0.834000       15.9994           0
   63239 WT3  8988 TIP3 H1   HT     0.417000        1.0080           0
   63240 WT3  8988 TIP3 H2   HT     0.417000        1.0080           0
   63241 WT3  8989 TIP3 OH2  OT    -0.834000       15.9994           0
   63242 WT3  8989 TIP3 H1   HT     0.417000        1.0080           0
   63243 WT3  8989 TIP3 H2   HT     0.417000        1.0080           0
   63244 WT3  8990 TIP3 OH2  OT    -0.834000       15.9994           0
   63245 WT3  8990 TIP3 H1   HT     0.417000        1.0080           0
   63246 WT3  8990 TIP3 H2   HT     0.417000        1.0080           0
   63247 WT3  8991 TIP3 OH2  OT    -0.834000       15.9994           0
   63248 WT3  8991 TIP3 H1   HT     0.417000        1.0080           0
   63249 WT3  8991 TIP3 H2   HT     0.417000        1.0080           0
   63250 WT3  8992 TIP3 OH2  OT    -0.834000       15.9994           0
   63251 WT3  8992 TIP3 H1   HT     0.417000        1.0080           0
   63252 WT3  8992 TIP3 H2   HT     0.417000        1.0080           0
   63253 WT3  8993 TIP3 OH2  OT    -0.834000       15.9994           0
   63254 WT3  8993 TIP3 H1   HT     0.417000        1.0080           0
   63255 WT3  8993 TIP3 H2   HT     0.417000        1.0080           0
   63256 WT3  8994 TIP3 OH2  OT    -0.834000       15.9994           0
   63257 WT3  8994 TIP3 H1   HT     0.417000        1.0080           0
   63258 WT3  8994 TIP3 H2   HT     0.417000        1.0080           0
   63259 WT3  8995 TIP3 OH2  OT    -0.834000       15.9994           0
   63260 WT3  8995 TIP3 H1   HT     0.417000        1.0080           0
   63261 WT3  8995 TIP3 H2   HT     0.417000        1.0080           0
   63262 WT3  8996 TIP3 OH2  OT    -0.834000       15.9994           0
   63263 WT3  8996 TIP3 H1   HT     0.417000        1.0080           0
   63264 WT3  8996 TIP3 H2   HT     0.417000        1.0080           0
   63265 WT3  8997 TIP3 OH2  OT    -0.834000       15.9994           0
   63266 WT3  8997 TIP3 H1   HT     0.417000        1.0080           0
   63267 WT3  8997 TIP3 H2   HT     0.417000        1.0080           0
   63268 WT3  8998 TIP3 OH2  OT    -0.834000       15.9994           0
   63269 WT3  8998 TIP3 H1   HT     0.417000        1.0080           0
   63270 WT3  8998 TIP3 H2   HT     0.417000        1.0080           0
   63271 WT3  8999 TIP3 OH2  OT    -0.834000       15.9994           0
   63272 WT3  8999 TIP3 H1   HT     0.417000        1.0080           0
   63273 WT3  8999 TIP3 H2   HT     0.417000        1.0080           0
   63274 WT3  9000 TIP3 OH2  OT    -0.834000       15.9994           0
   63275 WT3  9000 TIP3 H1   HT     0.417000        1.0080           0
   63276 WT3  9000 TIP3 H2   HT     0.417000        1.0080           0
   63277 WT3  9001 TIP3 OH2  OT    -0.834000       15.9994           0
   63278 WT3  9001 TIP3 H1   HT     0.417000        1.0080           0
   63279 WT3  9001 TIP3 H2   HT     0.417000        1.0080           0
   63280 WT3  9002 TIP3 OH2  OT    -0.834000       15.9994           0
   63281 WT3  9002 TIP3 H1   HT     0.417000        1.0080           0
   63282 WT3  9002 TIP3 H2   HT     0.417000        1.0080           0
   63283 WT3  9003 TIP3 OH2  OT    -0.834000       15.9994           0
   63284 WT3  9003 TIP3 H1   HT     0.417000        1.0080           0
   63285 WT3  9003 TIP3 H2   HT     0.417000        1.0080           0
   63286 WT3  9004 TIP3 OH2  OT    -0.834000       15.9994           0
   63287 WT3  9004 TIP3 H1   HT     0.417000        1.0080           0
   63288 WT3  9004 TIP3 H2   HT     0.417000        1.0080           0
   63289 WT3  9005 TIP3 OH2  OT    -0.834000       15.9994           0
   63290 WT3  9005 TIP3 H1   HT     0.417000        1.0080           0
   63291 WT3  9005 TIP3 H2   HT     0.417000        1.0080           0
   63292 WT3  9006 TIP3 OH2  OT    -0.834000       15.9994           0
   63293 WT3  9006 TIP3 H1   HT     0.417000        1.0080           0
   63294 WT3  9006 TIP3 H2   HT     0.417000        1.0080           0
   63295 WT3  9007 TIP3 OH2  OT    -0.834000       15.9994           0
   63296 WT3  9007 TIP3 H1   HT     0.417000        1.0080           0
   63297 WT3  9007 TIP3 H2   HT     0.417000        1.0080           0
   63298 WT3  9008 TIP3 OH2  OT    -0.834000       15.9994           0
   63299 WT3  9008 TIP3 H1   HT     0.417000        1.0080           0
   63300 WT3  9008 TIP3 H2   HT     0.417000        1.0080           0
   63301 WT3  9009 TIP3 OH2  OT    -0.834000       15.9994           0
   63302 WT3  9009 TIP3 H1   HT     0.417000        1.0080           0
   63303 WT3  9009 TIP3 H2   HT     0.417000        1.0080           0
   63304 WT3  9010 TIP3 OH2  OT    -0.834000       15.9994           0
   63305 WT3  9010 TIP3 H1   HT     0.417000        1.0080           0
   63306 WT3  9010 TIP3 H2   HT     0.417000        1.0080           0
   63307 WT3  9011 TIP3 OH2  OT    -0.834000       15.9994           0
   63308 WT3  9011 TIP3 H1   HT     0.417000        1.0080           0
   63309 WT3  9011 TIP3 H2   HT     0.417000        1.0080           0
   63310 WT3  9012 TIP3 OH2  OT    -0.834000       15.9994           0
   63311 WT3  9012 TIP3 H1   HT     0.417000        1.0080           0
   63312 WT3  9012 TIP3 H2   HT     0.417000        1.0080           0
   63313 WT3  9013 TIP3 OH2  OT    -0.834000       15.9994           0
   63314 WT3  9013 TIP3 H1   HT     0.417000        1.0080           0
   63315 WT3  9013 TIP3 H2   HT     0.417000        1.0080           0
   63316 WT3  9014 TIP3 OH2  OT    -0.834000       15.9994           0
   63317 WT3  9014 TIP3 H1   HT     0.417000        1.0080           0
   63318 WT3  9014 TIP3 H2   HT     0.417000        1.0080           0
   63319 WT3  9015 TIP3 OH2  OT    -0.834000       15.9994           0
   63320 WT3  9015 TIP3 H1   HT     0.417000        1.0080           0
   63321 WT3  9015 TIP3 H2   HT     0.417000        1.0080           0
   63322 WT3  9016 TIP3 OH2  OT    -0.834000       15.9994           0
   63323 WT3  9016 TIP3 H1   HT     0.417000        1.0080           0
   63324 WT3  9016 TIP3 H2   HT     0.417000        1.0080           0
   63325 WT3  9017 TIP3 OH2  OT    -0.834000       15.9994           0
   63326 WT3  9017 TIP3 H1   HT     0.417000        1.0080           0
   63327 WT3  9017 TIP3 H2   HT     0.417000        1.0080           0
   63328 WT3  9018 TIP3 OH2  OT    -0.834000       15.9994           0
   63329 WT3  9018 TIP3 H1   HT     0.417000        1.0080           0
   63330 WT3  9018 TIP3 H2   HT     0.417000        1.0080           0
   63331 WT3  9019 TIP3 OH2  OT    -0.834000       15.9994           0
   63332 WT3  9019 TIP3 H1   HT     0.417000        1.0080           0
   63333 WT3  9019 TIP3 H2   HT     0.417000        1.0080           0
   63334 WT3  9020 TIP3 OH2  OT    -0.834000       15.9994           0
   63335 WT3  9020 TIP3 H1   HT     0.417000        1.0080           0
   63336 WT3  9020 TIP3 H2   HT     0.417000        1.0080           0
   63337 WT3  9021 TIP3 OH2  OT    -0.834000       15.9994           0
   63338 WT3  9021 TIP3 H1   HT     0.417000        1.0080           0
   63339 WT3  9021 TIP3 H2   HT     0.417000        1.0080           0
   63340 WT3  9022 TIP3 OH2  OT    -0.834000       15.9994           0
   63341 WT3  9022 TIP3 H1   HT     0.417000        1.0080           0
   63342 WT3  9022 TIP3 H2   HT     0.417000        1.0080           0
   63343 WT3  9023 TIP3 OH2  OT    -0.834000       15.9994           0
   63344 WT3  9023 TIP3 H1   HT     0.417000        1.0080           0
   63345 WT3  9023 TIP3 H2   HT     0.417000        1.0080           0
   63346 WT3  9024 TIP3 OH2  OT    -0.834000       15.9994           0
   63347 WT3  9024 TIP3 H1   HT     0.417000        1.0080           0
   63348 WT3  9024 TIP3 H2   HT     0.417000        1.0080           0
   63349 WT3  9025 TIP3 OH2  OT    -0.834000       15.9994           0
   63350 WT3  9025 TIP3 H1   HT     0.417000        1.0080           0
   63351 WT3  9025 TIP3 H2   HT     0.417000        1.0080           0
   63352 WT3  9026 TIP3 OH2  OT    -0.834000       15.9994           0
   63353 WT3  9026 TIP3 H1   HT     0.417000        1.0080           0
   63354 WT3  9026 TIP3 H2   HT     0.417000        1.0080           0
   63355 WT3  9027 TIP3 OH2  OT    -0.834000       15.9994           0
   63356 WT3  9027 TIP3 H1   HT     0.417000        1.0080           0
   63357 WT3  9027 TIP3 H2   HT     0.417000        1.0080           0
   63358 WT3  9028 TIP3 OH2  OT    -0.834000       15.9994           0
   63359 WT3  9028 TIP3 H1   HT     0.417000        1.0080           0
   63360 WT3  9028 TIP3 H2   HT     0.417000        1.0080           0
   63361 WT3  9029 TIP3 OH2  OT    -0.834000       15.9994           0
   63362 WT3  9029 TIP3 H1   HT     0.417000        1.0080           0
   63363 WT3  9029 TIP3 H2   HT     0.417000        1.0080           0
   63364 WT3  9030 TIP3 OH2  OT    -0.834000       15.9994           0
   63365 WT3  9030 TIP3 H1   HT     0.417000        1.0080           0
   63366 WT3  9030 TIP3 H2   HT     0.417000        1.0080           0
   63367 WT3  9032 TIP3 OH2  OT    -0.834000       15.9994           0
   63368 WT3  9032 TIP3 H1   HT     0.417000        1.0080           0
   63369 WT3  9032 TIP3 H2   HT     0.417000        1.0080           0
   63370 WT3  9033 TIP3 OH2  OT    -0.834000       15.9994           0
   63371 WT3  9033 TIP3 H1   HT     0.417000        1.0080           0
   63372 WT3  9033 TIP3 H2   HT     0.417000        1.0080           0
   63373 WT3  9034 TIP3 OH2  OT    -0.834000       15.9994           0
   63374 WT3  9034 TIP3 H1   HT     0.417000        1.0080           0
   63375 WT3  9034 TIP3 H2   HT     0.417000        1.0080           0
   63376 WT3  9035 TIP3 OH2  OT    -0.834000       15.9994           0
   63377 WT3  9035 TIP3 H1   HT     0.417000        1.0080           0
   63378 WT3  9035 TIP3 H2   HT     0.417000        1.0080           0
   63379 WT3  9036 TIP3 OH2  OT    -0.834000       15.9994           0
   63380 WT3  9036 TIP3 H1   HT     0.417000        1.0080           0
   63381 WT3  9036 TIP3 H2   HT     0.417000        1.0080           0
   63382 WT3  9037 TIP3 OH2  OT    -0.834000       15.9994           0
   63383 WT3  9037 TIP3 H1   HT     0.417000        1.0080           0
   63384 WT3  9037 TIP3 H2   HT     0.417000        1.0080           0
   63385 WT3  9038 TIP3 OH2  OT    -0.834000       15.9994           0
   63386 WT3  9038 TIP3 H1   HT     0.417000        1.0080           0
   63387 WT3  9038 TIP3 H2   HT     0.417000        1.0080           0
   63388 WT3  9039 TIP3 OH2  OT    -0.834000       15.9994           0
   63389 WT3  9039 TIP3 H1   HT     0.417000        1.0080           0
   63390 WT3  9039 TIP3 H2   HT     0.417000        1.0080           0
   63391 WT3  9040 TIP3 OH2  OT    -0.834000       15.9994           0
   63392 WT3  9040 TIP3 H1   HT     0.417000        1.0080           0
   63393 WT3  9040 TIP3 H2   HT     0.417000        1.0080           0
   63394 WT3  9041 TIP3 OH2  OT    -0.834000       15.9994           0
   63395 WT3  9041 TIP3 H1   HT     0.417000        1.0080           0
   63396 WT3  9041 TIP3 H2   HT     0.417000        1.0080           0
   63397 WT3  9042 TIP3 OH2  OT    -0.834000       15.9994           0
   63398 WT3  9042 TIP3 H1   HT     0.417000        1.0080           0
   63399 WT3  9042 TIP3 H2   HT     0.417000        1.0080           0
   63400 WT3  9043 TIP3 OH2  OT    -0.834000       15.9994           0
   63401 WT3  9043 TIP3 H1   HT     0.417000        1.0080           0
   63402 WT3  9043 TIP3 H2   HT     0.417000        1.0080           0
   63403 WT3  9045 TIP3 OH2  OT    -0.834000       15.9994           0
   63404 WT3  9045 TIP3 H1   HT     0.417000        1.0080           0
   63405 WT3  9045 TIP3 H2   HT     0.417000        1.0080           0
   63406 WT3  9046 TIP3 OH2  OT    -0.834000       15.9994           0
   63407 WT3  9046 TIP3 H1   HT     0.417000        1.0080           0
   63408 WT3  9046 TIP3 H2   HT     0.417000        1.0080           0
   63409 WT3  9047 TIP3 OH2  OT    -0.834000       15.9994           0
   63410 WT3  9047 TIP3 H1   HT     0.417000        1.0080           0
   63411 WT3  9047 TIP3 H2   HT     0.417000        1.0080           0
   63412 WT3  9049 TIP3 OH2  OT    -0.834000       15.9994           0
   63413 WT3  9049 TIP3 H1   HT     0.417000        1.0080           0
   63414 WT3  9049 TIP3 H2   HT     0.417000        1.0080           0
   63415 WT3  9050 TIP3 OH2  OT    -0.834000       15.9994           0
   63416 WT3  9050 TIP3 H1   HT     0.417000        1.0080           0
   63417 WT3  9050 TIP3 H2   HT     0.417000        1.0080           0
   63418 WT3  9053 TIP3 OH2  OT    -0.834000       15.9994           0
   63419 WT3  9053 TIP3 H1   HT     0.417000        1.0080           0
   63420 WT3  9053 TIP3 H2   HT     0.417000        1.0080           0
   63421 WT3  9054 TIP3 OH2  OT    -0.834000       15.9994           0
   63422 WT3  9054 TIP3 H1   HT     0.417000        1.0080           0
   63423 WT3  9054 TIP3 H2   HT     0.417000        1.0080           0
   63424 WT3  9055 TIP3 OH2  OT    -0.834000       15.9994           0
   63425 WT3  9055 TIP3 H1   HT     0.417000        1.0080           0
   63426 WT3  9055 TIP3 H2   HT     0.417000        1.0080           0
   63427 WT3  9056 TIP3 OH2  OT    -0.834000       15.9994           0
   63428 WT3  9056 TIP3 H1   HT     0.417000        1.0080           0
   63429 WT3  9056 TIP3 H2   HT     0.417000        1.0080           0
   63430 WT3  9057 TIP3 OH2  OT    -0.834000       15.9994           0
   63431 WT3  9057 TIP3 H1   HT     0.417000        1.0080           0
   63432 WT3  9057 TIP3 H2   HT     0.417000        1.0080           0
   63433 WT3  9058 TIP3 OH2  OT    -0.834000       15.9994           0
   63434 WT3  9058 TIP3 H1   HT     0.417000        1.0080           0
   63435 WT3  9058 TIP3 H2   HT     0.417000        1.0080           0
   63436 WT3  9059 TIP3 OH2  OT    -0.834000       15.9994           0
   63437 WT3  9059 TIP3 H1   HT     0.417000        1.0080           0
   63438 WT3  9059 TIP3 H2   HT     0.417000        1.0080           0
   63439 WT3  9060 TIP3 OH2  OT    -0.834000       15.9994           0
   63440 WT3  9060 TIP3 H1   HT     0.417000        1.0080           0
   63441 WT3  9060 TIP3 H2   HT     0.417000        1.0080           0
   63442 WT3  9061 TIP3 OH2  OT    -0.834000       15.9994           0
   63443 WT3  9061 TIP3 H1   HT     0.417000        1.0080           0
   63444 WT3  9061 TIP3 H2   HT     0.417000        1.0080           0
   63445 WT3  9062 TIP3 OH2  OT    -0.834000       15.9994           0
   63446 WT3  9062 TIP3 H1   HT     0.417000        1.0080           0
   63447 WT3  9062 TIP3 H2   HT     0.417000        1.0080           0
   63448 WT3  9063 TIP3 OH2  OT    -0.834000       15.9994           0
   63449 WT3  9063 TIP3 H1   HT     0.417000        1.0080           0
   63450 WT3  9063 TIP3 H2   HT     0.417000        1.0080           0
   63451 WT3  9066 TIP3 OH2  OT    -0.834000       15.9994           0
   63452 WT3  9066 TIP3 H1   HT     0.417000        1.0080           0
   63453 WT3  9066 TIP3 H2   HT     0.417000        1.0080           0
   63454 WT3  9067 TIP3 OH2  OT    -0.834000       15.9994           0
   63455 WT3  9067 TIP3 H1   HT     0.417000        1.0080           0
   63456 WT3  9067 TIP3 H2   HT     0.417000        1.0080           0
   63457 WT3  9072 TIP3 OH2  OT    -0.834000       15.9994           0
   63458 WT3  9072 TIP3 H1   HT     0.417000        1.0080           0
   63459 WT3  9072 TIP3 H2   HT     0.417000        1.0080           0
   63460 WT3  9075 TIP3 OH2  OT    -0.834000       15.9994           0
   63461 WT3  9075 TIP3 H1   HT     0.417000        1.0080           0
   63462 WT3  9075 TIP3 H2   HT     0.417000        1.0080           0
   63463 WT3  9078 TIP3 OH2  OT    -0.834000       15.9994           0
   63464 WT3  9078 TIP3 H1   HT     0.417000        1.0080           0
   63465 WT3  9078 TIP3 H2   HT     0.417000        1.0080           0
   63466 WT3  9079 TIP3 OH2  OT    -0.834000       15.9994           0
   63467 WT3  9079 TIP3 H1   HT     0.417000        1.0080           0
   63468 WT3  9079 TIP3 H2   HT     0.417000        1.0080           0
   63469 WT3  9081 TIP3 OH2  OT    -0.834000       15.9994           0
   63470 WT3  9081 TIP3 H1   HT     0.417000        1.0080           0
   63471 WT3  9081 TIP3 H2   HT     0.417000        1.0080           0
   63472 WT3  9082 TIP3 OH2  OT    -0.834000       15.9994           0
   63473 WT3  9082 TIP3 H1   HT     0.417000        1.0080           0
   63474 WT3  9082 TIP3 H2   HT     0.417000        1.0080           0
   63475 WT3  9084 TIP3 OH2  OT    -0.834000       15.9994           0
   63476 WT3  9084 TIP3 H1   HT     0.417000        1.0080           0
   63477 WT3  9084 TIP3 H2   HT     0.417000        1.0080           0
   63478 WT3  9085 TIP3 OH2  OT    -0.834000       15.9994           0
   63479 WT3  9085 TIP3 H1   HT     0.417000        1.0080           0
   63480 WT3  9085 TIP3 H2   HT     0.417000        1.0080           0
   63481 WT3  9086 TIP3 OH2  OT    -0.834000       15.9994           0
   63482 WT3  9086 TIP3 H1   HT     0.417000        1.0080           0
   63483 WT3  9086 TIP3 H2   HT     0.417000        1.0080           0
   63484 WT3  9087 TIP3 OH2  OT    -0.834000       15.9994           0
   63485 WT3  9087 TIP3 H1   HT     0.417000        1.0080           0
   63486 WT3  9087 TIP3 H2   HT     0.417000        1.0080           0
   63487 WT3  9093 TIP3 OH2  OT    -0.834000       15.9994           0
   63488 WT3  9093 TIP3 H1   HT     0.417000        1.0080           0
   63489 WT3  9093 TIP3 H2   HT     0.417000        1.0080           0
   63490 WT3  9094 TIP3 OH2  OT    -0.834000       15.9994           0
   63491 WT3  9094 TIP3 H1   HT     0.417000        1.0080           0
   63492 WT3  9094 TIP3 H2   HT     0.417000        1.0080           0
   63493 WT3  9096 TIP3 OH2  OT    -0.834000       15.9994           0
   63494 WT3  9096 TIP3 H1   HT     0.417000        1.0080           0
   63495 WT3  9096 TIP3 H2   HT     0.417000        1.0080           0
   63496 WT3  9098 TIP3 OH2  OT    -0.834000       15.9994           0
   63497 WT3  9098 TIP3 H1   HT     0.417000        1.0080           0
   63498 WT3  9098 TIP3 H2   HT     0.417000        1.0080           0
   63499 WT3  9099 TIP3 OH2  OT    -0.834000       15.9994           0
   63500 WT3  9099 TIP3 H1   HT     0.417000        1.0080           0
   63501 WT3  9099 TIP3 H2   HT     0.417000        1.0080           0
   63502 WT3  9100 TIP3 OH2  OT    -0.834000       15.9994           0
   63503 WT3  9100 TIP3 H1   HT     0.417000        1.0080           0
   63504 WT3  9100 TIP3 H2   HT     0.417000        1.0080           0
   63505 WT3  9101 TIP3 OH2  OT    -0.834000       15.9994           0
   63506 WT3  9101 TIP3 H1   HT     0.417000        1.0080           0
   63507 WT3  9101 TIP3 H2   HT     0.417000        1.0080           0
   63508 WT3  9102 TIP3 OH2  OT    -0.834000       15.9994           0
   63509 WT3  9102 TIP3 H1   HT     0.417000        1.0080           0
   63510 WT3  9102 TIP3 H2   HT     0.417000        1.0080           0
   63511 WT3  9103 TIP3 OH2  OT    -0.834000       15.9994           0
   63512 WT3  9103 TIP3 H1   HT     0.417000        1.0080           0
   63513 WT3  9103 TIP3 H2   HT     0.417000        1.0080           0
   63514 WT3  9105 TIP3 OH2  OT    -0.834000       15.9994           0
   63515 WT3  9105 TIP3 H1   HT     0.417000        1.0080           0
   63516 WT3  9105 TIP3 H2   HT     0.417000        1.0080           0
   63517 WT3  9107 TIP3 OH2  OT    -0.834000       15.9994           0
   63518 WT3  9107 TIP3 H1   HT     0.417000        1.0080           0
   63519 WT3  9107 TIP3 H2   HT     0.417000        1.0080           0
   63520 WT3  9109 TIP3 OH2  OT    -0.834000       15.9994           0
   63521 WT3  9109 TIP3 H1   HT     0.417000        1.0080           0
   63522 WT3  9109 TIP3 H2   HT     0.417000        1.0080           0
   63523 WT3  9113 TIP3 OH2  OT    -0.834000       15.9994           0
   63524 WT3  9113 TIP3 H1   HT     0.417000        1.0080           0
   63525 WT3  9113 TIP3 H2   HT     0.417000        1.0080           0
   63526 WT3  9114 TIP3 OH2  OT    -0.834000       15.9994           0
   63527 WT3  9114 TIP3 H1   HT     0.417000        1.0080           0
   63528 WT3  9114 TIP3 H2   HT     0.417000        1.0080           0
   63529 WT3  9115 TIP3 OH2  OT    -0.834000       15.9994           0
   63530 WT3  9115 TIP3 H1   HT     0.417000        1.0080           0
   63531 WT3  9115 TIP3 H2   HT     0.417000        1.0080           0
   63532 WT3  9117 TIP3 OH2  OT    -0.834000       15.9994           0
   63533 WT3  9117 TIP3 H1   HT     0.417000        1.0080           0
   63534 WT3  9117 TIP3 H2   HT     0.417000        1.0080           0
   63535 WT3  9121 TIP3 OH2  OT    -0.834000       15.9994           0
   63536 WT3  9121 TIP3 H1   HT     0.417000        1.0080           0
   63537 WT3  9121 TIP3 H2   HT     0.417000        1.0080           0
   63538 WT3  9122 TIP3 OH2  OT    -0.834000       15.9994           0
   63539 WT3  9122 TIP3 H1   HT     0.417000        1.0080           0
   63540 WT3  9122 TIP3 H2   HT     0.417000        1.0080           0
   63541 WT3  9126 TIP3 OH2  OT    -0.834000       15.9994           0
   63542 WT3  9126 TIP3 H1   HT     0.417000        1.0080           0
   63543 WT3  9126 TIP3 H2   HT     0.417000        1.0080           0
   63544 WT3  9127 TIP3 OH2  OT    -0.834000       15.9994           0
   63545 WT3  9127 TIP3 H1   HT     0.417000        1.0080           0
   63546 WT3  9127 TIP3 H2   HT     0.417000        1.0080           0
   63547 WT3  9128 TIP3 OH2  OT    -0.834000       15.9994           0
   63548 WT3  9128 TIP3 H1   HT     0.417000        1.0080           0
   63549 WT3  9128 TIP3 H2   HT     0.417000        1.0080           0
   63550 WT3  9129 TIP3 OH2  OT    -0.834000       15.9994           0
   63551 WT3  9129 TIP3 H1   HT     0.417000        1.0080           0
   63552 WT3  9129 TIP3 H2   HT     0.417000        1.0080           0
   63553 WT3  9131 TIP3 OH2  OT    -0.834000       15.9994           0
   63554 WT3  9131 TIP3 H1   HT     0.417000        1.0080           0
   63555 WT3  9131 TIP3 H2   HT     0.417000        1.0080           0
   63556 WT3  9132 TIP3 OH2  OT    -0.834000       15.9994           0
   63557 WT3  9132 TIP3 H1   HT     0.417000        1.0080           0
   63558 WT3  9132 TIP3 H2   HT     0.417000        1.0080           0
   63559 WT3  9134 TIP3 OH2  OT    -0.834000       15.9994           0
   63560 WT3  9134 TIP3 H1   HT     0.417000        1.0080           0
   63561 WT3  9134 TIP3 H2   HT     0.417000        1.0080           0
   63562 WT3  9135 TIP3 OH2  OT    -0.834000       15.9994           0
   63563 WT3  9135 TIP3 H1   HT     0.417000        1.0080           0
   63564 WT3  9135 TIP3 H2   HT     0.417000        1.0080           0
   63565 WT3  9138 TIP3 OH2  OT    -0.834000       15.9994           0
   63566 WT3  9138 TIP3 H1   HT     0.417000        1.0080           0
   63567 WT3  9138 TIP3 H2   HT     0.417000        1.0080           0
   63568 WT3  9139 TIP3 OH2  OT    -0.834000       15.9994           0
   63569 WT3  9139 TIP3 H1   HT     0.417000        1.0080           0
   63570 WT3  9139 TIP3 H2   HT     0.417000        1.0080           0
   63571 WT3  9140 TIP3 OH2  OT    -0.834000       15.9994           0
   63572 WT3  9140 TIP3 H1   HT     0.417000        1.0080           0
   63573 WT3  9140 TIP3 H2   HT     0.417000        1.0080           0
   63574 WT3  9144 TIP3 OH2  OT    -0.834000       15.9994           0
   63575 WT3  9144 TIP3 H1   HT     0.417000        1.0080           0
   63576 WT3  9144 TIP3 H2   HT     0.417000        1.0080           0
   63577 WT3  9146 TIP3 OH2  OT    -0.834000       15.9994           0
   63578 WT3  9146 TIP3 H1   HT     0.417000        1.0080           0
   63579 WT3  9146 TIP3 H2   HT     0.417000        1.0080           0
   63580 WT3  9149 TIP3 OH2  OT    -0.834000       15.9994           0
   63581 WT3  9149 TIP3 H1   HT     0.417000        1.0080           0
   63582 WT3  9149 TIP3 H2   HT     0.417000        1.0080           0
   63583 WT3  9151 TIP3 OH2  OT    -0.834000       15.9994           0
   63584 WT3  9151 TIP3 H1   HT     0.417000        1.0080           0
   63585 WT3  9151 TIP3 H2   HT     0.417000        1.0080           0
   63586 WT3  9159 TIP3 OH2  OT    -0.834000       15.9994           0
   63587 WT3  9159 TIP3 H1   HT     0.417000        1.0080           0
   63588 WT3  9159 TIP3 H2   HT     0.417000        1.0080           0
   63589 WT3  9165 TIP3 OH2  OT    -0.834000       15.9994           0
   63590 WT3  9165 TIP3 H1   HT     0.417000        1.0080           0
   63591 WT3  9165 TIP3 H2   HT     0.417000        1.0080           0
   63592 WT3  9168 TIP3 OH2  OT    -0.834000       15.9994           0
   63593 WT3  9168 TIP3 H1   HT     0.417000        1.0080           0
   63594 WT3  9168 TIP3 H2   HT     0.417000        1.0080           0
   63595 WT3  9169 TIP3 OH2  OT    -0.834000       15.9994           0
   63596 WT3  9169 TIP3 H1   HT     0.417000        1.0080           0
   63597 WT3  9169 TIP3 H2   HT     0.417000        1.0080           0
   63598 WT3  9170 TIP3 OH2  OT    -0.834000       15.9994           0
   63599 WT3  9170 TIP3 H1   HT     0.417000        1.0080           0
   63600 WT3  9170 TIP3 H2   HT     0.417000        1.0080           0
   63601 WT3  9178 TIP3 OH2  OT    -0.834000       15.9994           0
   63602 WT3  9178 TIP3 H1   HT     0.417000        1.0080           0
   63603 WT3  9178 TIP3 H2   HT     0.417000        1.0080           0
   63604 WT3  9179 TIP3 OH2  OT    -0.834000       15.9994           0
   63605 WT3  9179 TIP3 H1   HT     0.417000        1.0080           0
   63606 WT3  9179 TIP3 H2   HT     0.417000        1.0080           0
   63607 WT3  9188 TIP3 OH2  OT    -0.834000       15.9994           0
   63608 WT3  9188 TIP3 H1   HT     0.417000        1.0080           0
   63609 WT3  9188 TIP3 H2   HT     0.417000        1.0080           0
   63610 WT3  9190 TIP3 OH2  OT    -0.834000       15.9994           0
   63611 WT3  9190 TIP3 H1   HT     0.417000        1.0080           0
   63612 WT3  9190 TIP3 H2   HT     0.417000        1.0080           0
   63613 WT3  9201 TIP3 OH2  OT    -0.834000       15.9994           0
   63614 WT3  9201 TIP3 H1   HT     0.417000        1.0080           0
   63615 WT3  9201 TIP3 H2   HT     0.417000        1.0080           0
   63616 WT3  9210 TIP3 OH2  OT    -0.834000       15.9994           0
   63617 WT3  9210 TIP3 H1   HT     0.417000        1.0080           0
   63618 WT3  9210 TIP3 H2   HT     0.417000        1.0080           0
   63619 WT3  9212 TIP3 OH2  OT    -0.834000       15.9994           0
   63620 WT3  9212 TIP3 H1   HT     0.417000        1.0080           0
   63621 WT3  9212 TIP3 H2   HT     0.417000        1.0080           0
   63622 WT3  9214 TIP3 OH2  OT    -0.834000       15.9994           0
   63623 WT3  9214 TIP3 H1   HT     0.417000        1.0080           0
   63624 WT3  9214 TIP3 H2   HT     0.417000        1.0080           0
   63625 WT3  9224 TIP3 OH2  OT    -0.834000       15.9994           0
   63626 WT3  9224 TIP3 H1   HT     0.417000        1.0080           0
   63627 WT3  9224 TIP3 H2   HT     0.417000        1.0080           0
   63628 WT3  9226 TIP3 OH2  OT    -0.834000       15.9994           0
   63629 WT3  9226 TIP3 H1   HT     0.417000        1.0080           0
   63630 WT3  9226 TIP3 H2   HT     0.417000        1.0080           0
   63631 WT3  9230 TIP3 OH2  OT    -0.834000       15.9994           0
   63632 WT3  9230 TIP3 H1   HT     0.417000        1.0080           0
   63633 WT3  9230 TIP3 H2   HT     0.417000        1.0080           0
   63634 WT3  9231 TIP3 OH2  OT    -0.834000       15.9994           0
   63635 WT3  9231 TIP3 H1   HT     0.417000        1.0080           0
   63636 WT3  9231 TIP3 H2   HT     0.417000        1.0080           0
   63637 WT3  9234 TIP3 OH2  OT    -0.834000       15.9994           0
   63638 WT3  9234 TIP3 H1   HT     0.417000        1.0080           0
   63639 WT3  9234 TIP3 H2   HT     0.417000        1.0080           0
   63640 WT3  9235 TIP3 OH2  OT    -0.834000       15.9994           0
   63641 WT3  9235 TIP3 H1   HT     0.417000        1.0080           0
   63642 WT3  9235 TIP3 H2   HT     0.417000        1.0080           0
   63643 WT3  9240 TIP3 OH2  OT    -0.834000       15.9994           0
   63644 WT3  9240 TIP3 H1   HT     0.417000        1.0080           0
   63645 WT3  9240 TIP3 H2   HT     0.417000        1.0080           0
   63646 WT3  9241 TIP3 OH2  OT    -0.834000       15.9994           0
   63647 WT3  9241 TIP3 H1   HT     0.417000        1.0080           0
   63648 WT3  9241 TIP3 H2   HT     0.417000        1.0080           0
   63649 WT3  9243 TIP3 OH2  OT    -0.834000       15.9994           0
   63650 WT3  9243 TIP3 H1   HT     0.417000        1.0080           0
   63651 WT3  9243 TIP3 H2   HT     0.417000        1.0080           0
   63652 WT3  9246 TIP3 OH2  OT    -0.834000       15.9994           0
   63653 WT3  9246 TIP3 H1   HT     0.417000        1.0080           0
   63654 WT3  9246 TIP3 H2   HT     0.417000        1.0080           0
   63655 WT3  9250 TIP3 OH2  OT    -0.834000       15.9994           0
   63656 WT3  9250 TIP3 H1   HT     0.417000        1.0080           0
   63657 WT3  9250 TIP3 H2   HT     0.417000        1.0080           0
   63658 WT3  9252 TIP3 OH2  OT    -0.834000       15.9994           0
   63659 WT3  9252 TIP3 H1   HT     0.417000        1.0080           0
   63660 WT3  9252 TIP3 H2   HT     0.417000        1.0080           0
   63661 WT3  9253 TIP3 OH2  OT    -0.834000       15.9994           0
   63662 WT3  9253 TIP3 H1   HT     0.417000        1.0080           0
   63663 WT3  9253 TIP3 H2   HT     0.417000        1.0080           0
   63664 WT3  9255 TIP3 OH2  OT    -0.834000       15.9994           0
   63665 WT3  9255 TIP3 H1   HT     0.417000        1.0080           0
   63666 WT3  9255 TIP3 H2   HT     0.417000        1.0080           0
   63667 WT3  9257 TIP3 OH2  OT    -0.834000       15.9994           0
   63668 WT3  9257 TIP3 H1   HT     0.417000        1.0080           0
   63669 WT3  9257 TIP3 H2   HT     0.417000        1.0080           0
   63670 WT3  9260 TIP3 OH2  OT    -0.834000       15.9994           0
   63671 WT3  9260 TIP3 H1   HT     0.417000        1.0080           0
   63672 WT3  9260 TIP3 H2   HT     0.417000        1.0080           0
   63673 WT3  9261 TIP3 OH2  OT    -0.834000       15.9994           0
   63674 WT3  9261 TIP3 H1   HT     0.417000        1.0080           0
   63675 WT3  9261 TIP3 H2   HT     0.417000        1.0080           0
   63676 WT4  4    TIP3 OH2  OT    -0.834000       15.9994           0
   63677 WT4  4    TIP3 H1   HT     0.417000        1.0080           0
   63678 WT4  4    TIP3 H2   HT     0.417000        1.0080           0
   63679 WT4  5    TIP3 OH2  OT    -0.834000       15.9994           0
   63680 WT4  5    TIP3 H1   HT     0.417000        1.0080           0
   63681 WT4  5    TIP3 H2   HT     0.417000        1.0080           0
   63682 WT4  7    TIP3 OH2  OT    -0.834000       15.9994           0
   63683 WT4  7    TIP3 H1   HT     0.417000        1.0080           0
   63684 WT4  7    TIP3 H2   HT     0.417000        1.0080           0
   63685 WT4  8    TIP3 OH2  OT    -0.834000       15.9994           0
   63686 WT4  8    TIP3 H1   HT     0.417000        1.0080           0
   63687 WT4  8    TIP3 H2   HT     0.417000        1.0080           0
   63688 WT4  10   TIP3 OH2  OT    -0.834000       15.9994           0
   63689 WT4  10   TIP3 H1   HT     0.417000        1.0080           0
   63690 WT4  10   TIP3 H2   HT     0.417000        1.0080           0
   63691 WT4  11   TIP3 OH2  OT    -0.834000       15.9994           0
   63692 WT4  11   TIP3 H1   HT     0.417000        1.0080           0
   63693 WT4  11   TIP3 H2   HT     0.417000        1.0080           0
   63694 WT4  12   TIP3 OH2  OT    -0.834000       15.9994           0
   63695 WT4  12   TIP3 H1   HT     0.417000        1.0080           0
   63696 WT4  12   TIP3 H2   HT     0.417000        1.0080           0
   63697 WT4  15   TIP3 OH2  OT    -0.834000       15.9994           0
   63698 WT4  15   TIP3 H1   HT     0.417000        1.0080           0
   63699 WT4  15   TIP3 H2   HT     0.417000        1.0080           0
   63700 WT4  16   TIP3 OH2  OT    -0.834000       15.9994           0
   63701 WT4  16   TIP3 H1   HT     0.417000        1.0080           0
   63702 WT4  16   TIP3 H2   HT     0.417000        1.0080           0
   63703 WT4  21   TIP3 OH2  OT    -0.834000       15.9994           0
   63704 WT4  21   TIP3 H1   HT     0.417000        1.0080           0
   63705 WT4  21   TIP3 H2   HT     0.417000        1.0080           0
   63706 WT4  22   TIP3 OH2  OT    -0.834000       15.9994           0
   63707 WT4  22   TIP3 H1   HT     0.417000        1.0080           0
   63708 WT4  22   TIP3 H2   HT     0.417000        1.0080           0
   63709 WT4  23   TIP3 OH2  OT    -0.834000       15.9994           0
   63710 WT4  23   TIP3 H1   HT     0.417000        1.0080           0
   63711 WT4  23   TIP3 H2   HT     0.417000        1.0080           0
   63712 WT4  24   TIP3 OH2  OT    -0.834000       15.9994           0
   63713 WT4  24   TIP3 H1   HT     0.417000        1.0080           0
   63714 WT4  24   TIP3 H2   HT     0.417000        1.0080           0
   63715 WT4  25   TIP3 OH2  OT    -0.834000       15.9994           0
   63716 WT4  25   TIP3 H1   HT     0.417000        1.0080           0
   63717 WT4  25   TIP3 H2   HT     0.417000        1.0080           0
   63718 WT4  26   TIP3 OH2  OT    -0.834000       15.9994           0
   63719 WT4  26   TIP3 H1   HT     0.417000        1.0080           0
   63720 WT4  26   TIP3 H2   HT     0.417000        1.0080           0
   63721 WT4  27   TIP3 OH2  OT    -0.834000       15.9994           0
   63722 WT4  27   TIP3 H1   HT     0.417000        1.0080           0
   63723 WT4  27   TIP3 H2   HT     0.417000        1.0080           0
   63724 WT4  29   TIP3 OH2  OT    -0.834000       15.9994           0
   63725 WT4  29   TIP3 H1   HT     0.417000        1.0080           0
   63726 WT4  29   TIP3 H2   HT     0.417000        1.0080           0
   63727 WT4  30   TIP3 OH2  OT    -0.834000       15.9994           0
   63728 WT4  30   TIP3 H1   HT     0.417000        1.0080           0
   63729 WT4  30   TIP3 H2   HT     0.417000        1.0080           0
   63730 WT4  31   TIP3 OH2  OT    -0.834000       15.9994           0
   63731 WT4  31   TIP3 H1   HT     0.417000        1.0080           0
   63732 WT4  31   TIP3 H2   HT     0.417000        1.0080           0
   63733 WT4  32   TIP3 OH2  OT    -0.834000       15.9994           0
   63734 WT4  32   TIP3 H1   HT     0.417000        1.0080           0
   63735 WT4  32   TIP3 H2   HT     0.417000        1.0080           0
   63736 WT4  33   TIP3 OH2  OT    -0.834000       15.9994           0
   63737 WT4  33   TIP3 H1   HT     0.417000        1.0080           0
   63738 WT4  33   TIP3 H2   HT     0.417000        1.0080           0
   63739 WT4  35   TIP3 OH2  OT    -0.834000       15.9994           0
   63740 WT4  35   TIP3 H1   HT     0.417000        1.0080           0
   63741 WT4  35   TIP3 H2   HT     0.417000        1.0080           0
   63742 WT4  43   TIP3 OH2  OT    -0.834000       15.9994           0
   63743 WT4  43   TIP3 H1   HT     0.417000        1.0080           0
   63744 WT4  43   TIP3 H2   HT     0.417000        1.0080           0
   63745 WT4  44   TIP3 OH2  OT    -0.834000       15.9994           0
   63746 WT4  44   TIP3 H1   HT     0.417000        1.0080           0
   63747 WT4  44   TIP3 H2   HT     0.417000        1.0080           0
   63748 WT4  45   TIP3 OH2  OT    -0.834000       15.9994           0
   63749 WT4  45   TIP3 H1   HT     0.417000        1.0080           0
   63750 WT4  45   TIP3 H2   HT     0.417000        1.0080           0
   63751 WT4  46   TIP3 OH2  OT    -0.834000       15.9994           0
   63752 WT4  46   TIP3 H1   HT     0.417000        1.0080           0
   63753 WT4  46   TIP3 H2   HT     0.417000        1.0080           0
   63754 WT4  47   TIP3 OH2  OT    -0.834000       15.9994           0
   63755 WT4  47   TIP3 H1   HT     0.417000        1.0080           0
   63756 WT4  47   TIP3 H2   HT     0.417000        1.0080           0
   63757 WT4  48   TIP3 OH2  OT    -0.834000       15.9994           0
   63758 WT4  48   TIP3 H1   HT     0.417000        1.0080           0
   63759 WT4  48   TIP3 H2   HT     0.417000        1.0080           0
   63760 WT4  50   TIP3 OH2  OT    -0.834000       15.9994           0
   63761 WT4  50   TIP3 H1   HT     0.417000        1.0080           0
   63762 WT4  50   TIP3 H2   HT     0.417000        1.0080           0
   63763 WT4  52   TIP3 OH2  OT    -0.834000       15.9994           0
   63764 WT4  52   TIP3 H1   HT     0.417000        1.0080           0
   63765 WT4  52   TIP3 H2   HT     0.417000        1.0080           0
   63766 WT4  53   TIP3 OH2  OT    -0.834000       15.9994           0
   63767 WT4  53   TIP3 H1   HT     0.417000        1.0080           0
   63768 WT4  53   TIP3 H2   HT     0.417000        1.0080           0
   63769 WT4  55   TIP3 OH2  OT    -0.834000       15.9994           0
   63770 WT4  55   TIP3 H1   HT     0.417000        1.0080           0
   63771 WT4  55   TIP3 H2   HT     0.417000        1.0080           0
   63772 WT4  56   TIP3 OH2  OT    -0.834000       15.9994           0
   63773 WT4  56   TIP3 H1   HT     0.417000        1.0080           0
   63774 WT4  56   TIP3 H2   HT     0.417000        1.0080           0
   63775 WT4  59   TIP3 OH2  OT    -0.834000       15.9994           0
   63776 WT4  59   TIP3 H1   HT     0.417000        1.0080           0
   63777 WT4  59   TIP3 H2   HT     0.417000        1.0080           0
   63778 WT4  64   TIP3 OH2  OT    -0.834000       15.9994           0
   63779 WT4  64   TIP3 H1   HT     0.417000        1.0080           0
   63780 WT4  64   TIP3 H2   HT     0.417000        1.0080           0
   63781 WT4  66   TIP3 OH2  OT    -0.834000       15.9994           0
   63782 WT4  66   TIP3 H1   HT     0.417000        1.0080           0
   63783 WT4  66   TIP3 H2   HT     0.417000        1.0080           0
   63784 WT4  67   TIP3 OH2  OT    -0.834000       15.9994           0
   63785 WT4  67   TIP3 H1   HT     0.417000        1.0080           0
   63786 WT4  67   TIP3 H2   HT     0.417000        1.0080           0
   63787 WT4  68   TIP3 OH2  OT    -0.834000       15.9994           0
   63788 WT4  68   TIP3 H1   HT     0.417000        1.0080           0
   63789 WT4  68   TIP3 H2   HT     0.417000        1.0080           0
   63790 WT4  69   TIP3 OH2  OT    -0.834000       15.9994           0
   63791 WT4  69   TIP3 H1   HT     0.417000        1.0080           0
   63792 WT4  69   TIP3 H2   HT     0.417000        1.0080           0
   63793 WT4  70   TIP3 OH2  OT    -0.834000       15.9994           0
   63794 WT4  70   TIP3 H1   HT     0.417000        1.0080           0
   63795 WT4  70   TIP3 H2   HT     0.417000        1.0080           0
   63796 WT4  71   TIP3 OH2  OT    -0.834000       15.9994           0
   63797 WT4  71   TIP3 H1   HT     0.417000        1.0080           0
   63798 WT4  71   TIP3 H2   HT     0.417000        1.0080           0
   63799 WT4  72   TIP3 OH2  OT    -0.834000       15.9994           0
   63800 WT4  72   TIP3 H1   HT     0.417000        1.0080           0
   63801 WT4  72   TIP3 H2   HT     0.417000        1.0080           0
   63802 WT4  74   TIP3 OH2  OT    -0.834000       15.9994           0
   63803 WT4  74   TIP3 H1   HT     0.417000        1.0080           0
   63804 WT4  74   TIP3 H2   HT     0.417000        1.0080           0
   63805 WT4  75   TIP3 OH2  OT    -0.834000       15.9994           0
   63806 WT4  75   TIP3 H1   HT     0.417000        1.0080           0
   63807 WT4  75   TIP3 H2   HT     0.417000        1.0080           0
   63808 WT4  76   TIP3 OH2  OT    -0.834000       15.9994           0
   63809 WT4  76   TIP3 H1   HT     0.417000        1.0080           0
   63810 WT4  76   TIP3 H2   HT     0.417000        1.0080           0
   63811 WT4  79   TIP3 OH2  OT    -0.834000       15.9994           0
   63812 WT4  79   TIP3 H1   HT     0.417000        1.0080           0
   63813 WT4  79   TIP3 H2   HT     0.417000        1.0080           0
   63814 WT4  83   TIP3 OH2  OT    -0.834000       15.9994           0
   63815 WT4  83   TIP3 H1   HT     0.417000        1.0080           0
   63816 WT4  83   TIP3 H2   HT     0.417000        1.0080           0
   63817 WT4  86   TIP3 OH2  OT    -0.834000       15.9994           0
   63818 WT4  86   TIP3 H1   HT     0.417000        1.0080           0
   63819 WT4  86   TIP3 H2   HT     0.417000        1.0080           0
   63820 WT4  87   TIP3 OH2  OT    -0.834000       15.9994           0
   63821 WT4  87   TIP3 H1   HT     0.417000        1.0080           0
   63822 WT4  87   TIP3 H2   HT     0.417000        1.0080           0
   63823 WT4  88   TIP3 OH2  OT    -0.834000       15.9994           0
   63824 WT4  88   TIP3 H1   HT     0.417000        1.0080           0
   63825 WT4  88   TIP3 H2   HT     0.417000        1.0080           0
   63826 WT4  90   TIP3 OH2  OT    -0.834000       15.9994           0
   63827 WT4  90   TIP3 H1   HT     0.417000        1.0080           0
   63828 WT4  90   TIP3 H2   HT     0.417000        1.0080           0
   63829 WT4  91   TIP3 OH2  OT    -0.834000       15.9994           0
   63830 WT4  91   TIP3 H1   HT     0.417000        1.0080           0
   63831 WT4  91   TIP3 H2   HT     0.417000        1.0080           0
   63832 WT4  92   TIP3 OH2  OT    -0.834000       15.9994           0
   63833 WT4  92   TIP3 H1   HT     0.417000        1.0080           0
   63834 WT4  92   TIP3 H2   HT     0.417000        1.0080           0
   63835 WT4  93   TIP3 OH2  OT    -0.834000       15.9994           0
   63836 WT4  93   TIP3 H1   HT     0.417000        1.0080           0
   63837 WT4  93   TIP3 H2   HT     0.417000        1.0080           0
   63838 WT4  94   TIP3 OH2  OT    -0.834000       15.9994           0
   63839 WT4  94   TIP3 H1   HT     0.417000        1.0080           0
   63840 WT4  94   TIP3 H2   HT     0.417000        1.0080           0
   63841 WT4  95   TIP3 OH2  OT    -0.834000       15.9994           0
   63842 WT4  95   TIP3 H1   HT     0.417000        1.0080           0
   63843 WT4  95   TIP3 H2   HT     0.417000        1.0080           0
   63844 WT4  97   TIP3 OH2  OT    -0.834000       15.9994           0
   63845 WT4  97   TIP3 H1   HT     0.417000        1.0080           0
   63846 WT4  97   TIP3 H2   HT     0.417000        1.0080           0
   63847 WT4  98   TIP3 OH2  OT    -0.834000       15.9994           0
   63848 WT4  98   TIP3 H1   HT     0.417000        1.0080           0
   63849 WT4  98   TIP3 H2   HT     0.417000        1.0080           0
   63850 WT4  99   TIP3 OH2  OT    -0.834000       15.9994           0
   63851 WT4  99   TIP3 H1   HT     0.417000        1.0080           0
   63852 WT4  99   TIP3 H2   HT     0.417000        1.0080           0
   63853 WT4  100  TIP3 OH2  OT    -0.834000       15.9994           0
   63854 WT4  100  TIP3 H1   HT     0.417000        1.0080           0
   63855 WT4  100  TIP3 H2   HT     0.417000        1.0080           0
   63856 WT4  101  TIP3 OH2  OT    -0.834000       15.9994           0
   63857 WT4  101  TIP3 H1   HT     0.417000        1.0080           0
   63858 WT4  101  TIP3 H2   HT     0.417000        1.0080           0
   63859 WT4  107  TIP3 OH2  OT    -0.834000       15.9994           0
   63860 WT4  107  TIP3 H1   HT     0.417000        1.0080           0
   63861 WT4  107  TIP3 H2   HT     0.417000        1.0080           0
   63862 WT4  108  TIP3 OH2  OT    -0.834000       15.9994           0
   63863 WT4  108  TIP3 H1   HT     0.417000        1.0080           0
   63864 WT4  108  TIP3 H2   HT     0.417000        1.0080           0
   63865 WT4  109  TIP3 OH2  OT    -0.834000       15.9994           0
   63866 WT4  109  TIP3 H1   HT     0.417000        1.0080           0
   63867 WT4  109  TIP3 H2   HT     0.417000        1.0080           0
   63868 WT4  110  TIP3 OH2  OT    -0.834000       15.9994           0
   63869 WT4  110  TIP3 H1   HT     0.417000        1.0080           0
   63870 WT4  110  TIP3 H2   HT     0.417000        1.0080           0
   63871 WT4  111  TIP3 OH2  OT    -0.834000       15.9994           0
   63872 WT4  111  TIP3 H1   HT     0.417000        1.0080           0
   63873 WT4  111  TIP3 H2   HT     0.417000        1.0080           0
   63874 WT4  112  TIP3 OH2  OT    -0.834000       15.9994           0
   63875 WT4  112  TIP3 H1   HT     0.417000        1.0080           0
   63876 WT4  112  TIP3 H2   HT     0.417000        1.0080           0
   63877 WT4  113  TIP3 OH2  OT    -0.834000       15.9994           0
   63878 WT4  113  TIP3 H1   HT     0.417000        1.0080           0
   63879 WT4  113  TIP3 H2   HT     0.417000        1.0080           0
   63880 WT4  114  TIP3 OH2  OT    -0.834000       15.9994           0
   63881 WT4  114  TIP3 H1   HT     0.417000        1.0080           0
   63882 WT4  114  TIP3 H2   HT     0.417000        1.0080           0
   63883 WT4  115  TIP3 OH2  OT    -0.834000       15.9994           0
   63884 WT4  115  TIP3 H1   HT     0.417000        1.0080           0
   63885 WT4  115  TIP3 H2   HT     0.417000        1.0080           0
   63886 WT4  116  TIP3 OH2  OT    -0.834000       15.9994           0
   63887 WT4  116  TIP3 H1   HT     0.417000        1.0080           0
   63888 WT4  116  TIP3 H2   HT     0.417000        1.0080           0
   63889 WT4  117  TIP3 OH2  OT    -0.834000       15.9994           0
   63890 WT4  117  TIP3 H1   HT     0.417000        1.0080           0
   63891 WT4  117  TIP3 H2   HT     0.417000        1.0080           0
   63892 WT4  118  TIP3 OH2  OT    -0.834000       15.9994           0
   63893 WT4  118  TIP3 H1   HT     0.417000        1.0080           0
   63894 WT4  118  TIP3 H2   HT     0.417000        1.0080           0
   63895 WT4  119  TIP3 OH2  OT    -0.834000       15.9994           0
   63896 WT4  119  TIP3 H1   HT     0.417000        1.0080           0
   63897 WT4  119  TIP3 H2   HT     0.417000        1.0080           0
   63898 WT4  123  TIP3 OH2  OT    -0.834000       15.9994           0
   63899 WT4  123  TIP3 H1   HT     0.417000        1.0080           0
   63900 WT4  123  TIP3 H2   HT     0.417000        1.0080           0
   63901 WT4  125  TIP3 OH2  OT    -0.834000       15.9994           0
   63902 WT4  125  TIP3 H1   HT     0.417000        1.0080           0
   63903 WT4  125  TIP3 H2   HT     0.417000        1.0080           0
   63904 WT4  129  TIP3 OH2  OT    -0.834000       15.9994           0
   63905 WT4  129  TIP3 H1   HT     0.417000        1.0080           0
   63906 WT4  129  TIP3 H2   HT     0.417000        1.0080           0
   63907 WT4  130  TIP3 OH2  OT    -0.834000       15.9994           0
   63908 WT4  130  TIP3 H1   HT     0.417000        1.0080           0
   63909 WT4  130  TIP3 H2   HT     0.417000        1.0080           0
   63910 WT4  131  TIP3 OH2  OT    -0.834000       15.9994           0
   63911 WT4  131  TIP3 H1   HT     0.417000        1.0080           0
   63912 WT4  131  TIP3 H2   HT     0.417000        1.0080           0
   63913 WT4  132  TIP3 OH2  OT    -0.834000       15.9994           0
   63914 WT4  132  TIP3 H1   HT     0.417000        1.0080           0
   63915 WT4  132  TIP3 H2   HT     0.417000        1.0080           0
   63916 WT4  133  TIP3 OH2  OT    -0.834000       15.9994           0
   63917 WT4  133  TIP3 H1   HT     0.417000        1.0080           0
   63918 WT4  133  TIP3 H2   HT     0.417000        1.0080           0
   63919 WT4  134  TIP3 OH2  OT    -0.834000       15.9994           0
   63920 WT4  134  TIP3 H1   HT     0.417000        1.0080           0
   63921 WT4  134  TIP3 H2   HT     0.417000        1.0080           0
   63922 WT4  135  TIP3 OH2  OT    -0.834000       15.9994           0
   63923 WT4  135  TIP3 H1   HT     0.417000        1.0080           0
   63924 WT4  135  TIP3 H2   HT     0.417000        1.0080           0
   63925 WT4  136  TIP3 OH2  OT    -0.834000       15.9994           0
   63926 WT4  136  TIP3 H1   HT     0.417000        1.0080           0
   63927 WT4  136  TIP3 H2   HT     0.417000        1.0080           0
   63928 WT4  137  TIP3 OH2  OT    -0.834000       15.9994           0
   63929 WT4  137  TIP3 H1   HT     0.417000        1.0080           0
   63930 WT4  137  TIP3 H2   HT     0.417000        1.0080           0
   63931 WT4  139  TIP3 OH2  OT    -0.834000       15.9994           0
   63932 WT4  139  TIP3 H1   HT     0.417000        1.0080           0
   63933 WT4  139  TIP3 H2   HT     0.417000        1.0080           0
   63934 WT4  140  TIP3 OH2  OT    -0.834000       15.9994           0
   63935 WT4  140  TIP3 H1   HT     0.417000        1.0080           0
   63936 WT4  140  TIP3 H2   HT     0.417000        1.0080           0
   63937 WT4  142  TIP3 OH2  OT    -0.834000       15.9994           0
   63938 WT4  142  TIP3 H1   HT     0.417000        1.0080           0
   63939 WT4  142  TIP3 H2   HT     0.417000        1.0080           0
   63940 WT4  144  TIP3 OH2  OT    -0.834000       15.9994           0
   63941 WT4  144  TIP3 H1   HT     0.417000        1.0080           0
   63942 WT4  144  TIP3 H2   HT     0.417000        1.0080           0
   63943 WT4  145  TIP3 OH2  OT    -0.834000       15.9994           0
   63944 WT4  145  TIP3 H1   HT     0.417000        1.0080           0
   63945 WT4  145  TIP3 H2   HT     0.417000        1.0080           0
   63946 WT4  146  TIP3 OH2  OT    -0.834000       15.9994           0
   63947 WT4  146  TIP3 H1   HT     0.417000        1.0080           0
   63948 WT4  146  TIP3 H2   HT     0.417000        1.0080           0
   63949 WT4  149  TIP3 OH2  OT    -0.834000       15.9994           0
   63950 WT4  149  TIP3 H1   HT     0.417000        1.0080           0
   63951 WT4  149  TIP3 H2   HT     0.417000        1.0080           0
   63952 WT4  150  TIP3 OH2  OT    -0.834000       15.9994           0
   63953 WT4  150  TIP3 H1   HT     0.417000        1.0080           0
   63954 WT4  150  TIP3 H2   HT     0.417000        1.0080           0
   63955 WT4  151  TIP3 OH2  OT    -0.834000       15.9994           0
   63956 WT4  151  TIP3 H1   HT     0.417000        1.0080           0
   63957 WT4  151  TIP3 H2   HT     0.417000        1.0080           0
   63958 WT4  152  TIP3 OH2  OT    -0.834000       15.9994           0
   63959 WT4  152  TIP3 H1   HT     0.417000        1.0080           0
   63960 WT4  152  TIP3 H2   HT     0.417000        1.0080           0
   63961 WT4  153  TIP3 OH2  OT    -0.834000       15.9994           0
   63962 WT4  153  TIP3 H1   HT     0.417000        1.0080           0
   63963 WT4  153  TIP3 H2   HT     0.417000        1.0080           0
   63964 WT4  154  TIP3 OH2  OT    -0.834000       15.9994           0
   63965 WT4  154  TIP3 H1   HT     0.417000        1.0080           0
   63966 WT4  154  TIP3 H2   HT     0.417000        1.0080           0
   63967 WT4  155  TIP3 OH2  OT    -0.834000       15.9994           0
   63968 WT4  155  TIP3 H1   HT     0.417000        1.0080           0
   63969 WT4  155  TIP3 H2   HT     0.417000        1.0080           0
   63970 WT4  156  TIP3 OH2  OT    -0.834000       15.9994           0
   63971 WT4  156  TIP3 H1   HT     0.417000        1.0080           0
   63972 WT4  156  TIP3 H2   HT     0.417000        1.0080           0
   63973 WT4  157  TIP3 OH2  OT    -0.834000       15.9994           0
   63974 WT4  157  TIP3 H1   HT     0.417000        1.0080           0
   63975 WT4  157  TIP3 H2   HT     0.417000        1.0080           0
   63976 WT4  158  TIP3 OH2  OT    -0.834000       15.9994           0
   63977 WT4  158  TIP3 H1   HT     0.417000        1.0080           0
   63978 WT4  158  TIP3 H2   HT     0.417000        1.0080           0
   63979 WT4  161  TIP3 OH2  OT    -0.834000       15.9994           0
   63980 WT4  161  TIP3 H1   HT     0.417000        1.0080           0
   63981 WT4  161  TIP3 H2   HT     0.417000        1.0080           0
   63982 WT4  163  TIP3 OH2  OT    -0.834000       15.9994           0
   63983 WT4  163  TIP3 H1   HT     0.417000        1.0080           0
   63984 WT4  163  TIP3 H2   HT     0.417000        1.0080           0
   63985 WT4  164  TIP3 OH2  OT    -0.834000       15.9994           0
   63986 WT4  164  TIP3 H1   HT     0.417000        1.0080           0
   63987 WT4  164  TIP3 H2   HT     0.417000        1.0080           0
   63988 WT4  167  TIP3 OH2  OT    -0.834000       15.9994           0
   63989 WT4  167  TIP3 H1   HT     0.417000        1.0080           0
   63990 WT4  167  TIP3 H2   HT     0.417000        1.0080           0
   63991 WT4  170  TIP3 OH2  OT    -0.834000       15.9994           0
   63992 WT4  170  TIP3 H1   HT     0.417000        1.0080           0
   63993 WT4  170  TIP3 H2   HT     0.417000        1.0080           0
   63994 WT4  171  TIP3 OH2  OT    -0.834000       15.9994           0
   63995 WT4  171  TIP3 H1   HT     0.417000        1.0080           0
   63996 WT4  171  TIP3 H2   HT     0.417000        1.0080           0
   63997 WT4  173  TIP3 OH2  OT    -0.834000       15.9994           0
   63998 WT4  173  TIP3 H1   HT     0.417000        1.0080           0
   63999 WT4  173  TIP3 H2   HT     0.417000        1.0080           0
   64000 WT4  174  TIP3 OH2  OT    -0.834000       15.9994           0
   64001 WT4  174  TIP3 H1   HT     0.417000        1.0080           0
   64002 WT4  174  TIP3 H2   HT     0.417000        1.0080           0
   64003 WT4  176  TIP3 OH2  OT    -0.834000       15.9994           0
   64004 WT4  176  TIP3 H1   HT     0.417000        1.0080           0
   64005 WT4  176  TIP3 H2   HT     0.417000        1.0080           0
   64006 WT4  177  TIP3 OH2  OT    -0.834000       15.9994           0
   64007 WT4  177  TIP3 H1   HT     0.417000        1.0080           0
   64008 WT4  177  TIP3 H2   HT     0.417000        1.0080           0
   64009 WT4  178  TIP3 OH2  OT    -0.834000       15.9994           0
   64010 WT4  178  TIP3 H1   HT     0.417000        1.0080           0
   64011 WT4  178  TIP3 H2   HT     0.417000        1.0080           0
   64012 WT4  179  TIP3 OH2  OT    -0.834000       15.9994           0
   64013 WT4  179  TIP3 H1   HT     0.417000        1.0080           0
   64014 WT4  179  TIP3 H2   HT     0.417000        1.0080           0
   64015 WT4  180  TIP3 OH2  OT    -0.834000       15.9994           0
   64016 WT4  180  TIP3 H1   HT     0.417000        1.0080           0
   64017 WT4  180  TIP3 H2   HT     0.417000        1.0080           0
   64018 WT4  181  TIP3 OH2  OT    -0.834000       15.9994           0
   64019 WT4  181  TIP3 H1   HT     0.417000        1.0080           0
   64020 WT4  181  TIP3 H2   HT     0.417000        1.0080           0
   64021 WT4  182  TIP3 OH2  OT    -0.834000       15.9994           0
   64022 WT4  182  TIP3 H1   HT     0.417000        1.0080           0
   64023 WT4  182  TIP3 H2   HT     0.417000        1.0080           0
   64024 WT4  183  TIP3 OH2  OT    -0.834000       15.9994           0
   64025 WT4  183  TIP3 H1   HT     0.417000        1.0080           0
   64026 WT4  183  TIP3 H2   HT     0.417000        1.0080           0
   64027 WT4  189  TIP3 OH2  OT    -0.834000       15.9994           0
   64028 WT4  189  TIP3 H1   HT     0.417000        1.0080           0
   64029 WT4  189  TIP3 H2   HT     0.417000        1.0080           0
   64030 WT4  190  TIP3 OH2  OT    -0.834000       15.9994           0
   64031 WT4  190  TIP3 H1   HT     0.417000        1.0080           0
   64032 WT4  190  TIP3 H2   HT     0.417000        1.0080           0
   64033 WT4  191  TIP3 OH2  OT    -0.834000       15.9994           0
   64034 WT4  191  TIP3 H1   HT     0.417000        1.0080           0
   64035 WT4  191  TIP3 H2   HT     0.417000        1.0080           0
   64036 WT4  192  TIP3 OH2  OT    -0.834000       15.9994           0
   64037 WT4  192  TIP3 H1   HT     0.417000        1.0080           0
   64038 WT4  192  TIP3 H2   HT     0.417000        1.0080           0
   64039 WT4  193  TIP3 OH2  OT    -0.834000       15.9994           0
   64040 WT4  193  TIP3 H1   HT     0.417000        1.0080           0
   64041 WT4  193  TIP3 H2   HT     0.417000        1.0080           0
   64042 WT4  195  TIP3 OH2  OT    -0.834000       15.9994           0
   64043 WT4  195  TIP3 H1   HT     0.417000        1.0080           0
   64044 WT4  195  TIP3 H2   HT     0.417000        1.0080           0
   64045 WT4  196  TIP3 OH2  OT    -0.834000       15.9994           0
   64046 WT4  196  TIP3 H1   HT     0.417000        1.0080           0
   64047 WT4  196  TIP3 H2   HT     0.417000        1.0080           0
   64048 WT4  197  TIP3 OH2  OT    -0.834000       15.9994           0
   64049 WT4  197  TIP3 H1   HT     0.417000        1.0080           0
   64050 WT4  197  TIP3 H2   HT     0.417000        1.0080           0
   64051 WT4  198  TIP3 OH2  OT    -0.834000       15.9994           0
   64052 WT4  198  TIP3 H1   HT     0.417000        1.0080           0
   64053 WT4  198  TIP3 H2   HT     0.417000        1.0080           0
   64054 WT4  199  TIP3 OH2  OT    -0.834000       15.9994           0
   64055 WT4  199  TIP3 H1   HT     0.417000        1.0080           0
   64056 WT4  199  TIP3 H2   HT     0.417000        1.0080           0
   64057 WT4  201  TIP3 OH2  OT    -0.834000       15.9994           0
   64058 WT4  201  TIP3 H1   HT     0.417000        1.0080           0
   64059 WT4  201  TIP3 H2   HT     0.417000        1.0080           0
   64060 WT4  202  TIP3 OH2  OT    -0.834000       15.9994           0
   64061 WT4  202  TIP3 H1   HT     0.417000        1.0080           0
   64062 WT4  202  TIP3 H2   HT     0.417000        1.0080           0
   64063 WT4  203  TIP3 OH2  OT    -0.834000       15.9994           0
   64064 WT4  203  TIP3 H1   HT     0.417000        1.0080           0
   64065 WT4  203  TIP3 H2   HT     0.417000        1.0080           0
   64066 WT4  204  TIP3 OH2  OT    -0.834000       15.9994           0
   64067 WT4  204  TIP3 H1   HT     0.417000        1.0080           0
   64068 WT4  204  TIP3 H2   HT     0.417000        1.0080           0
   64069 WT4  212  TIP3 OH2  OT    -0.834000       15.9994           0
   64070 WT4  212  TIP3 H1   HT     0.417000        1.0080           0
   64071 WT4  212  TIP3 H2   HT     0.417000        1.0080           0
   64072 WT4  214  TIP3 OH2  OT    -0.834000       15.9994           0
   64073 WT4  214  TIP3 H1   HT     0.417000        1.0080           0
   64074 WT4  214  TIP3 H2   HT     0.417000        1.0080           0
   64075 WT4  215  TIP3 OH2  OT    -0.834000       15.9994           0
   64076 WT4  215  TIP3 H1   HT     0.417000        1.0080           0
   64077 WT4  215  TIP3 H2   HT     0.417000        1.0080           0
   64078 WT4  217  TIP3 OH2  OT    -0.834000       15.9994           0
   64079 WT4  217  TIP3 H1   HT     0.417000        1.0080           0
   64080 WT4  217  TIP3 H2   HT     0.417000        1.0080           0
   64081 WT4  218  TIP3 OH2  OT    -0.834000       15.9994           0
   64082 WT4  218  TIP3 H1   HT     0.417000        1.0080           0
   64083 WT4  218  TIP3 H2   HT     0.417000        1.0080           0
   64084 WT4  219  TIP3 OH2  OT    -0.834000       15.9994           0
   64085 WT4  219  TIP3 H1   HT     0.417000        1.0080           0
   64086 WT4  219  TIP3 H2   HT     0.417000        1.0080           0
   64087 WT4  220  TIP3 OH2  OT    -0.834000       15.9994           0
   64088 WT4  220  TIP3 H1   HT     0.417000        1.0080           0
   64089 WT4  220  TIP3 H2   HT     0.417000        1.0080           0
   64090 WT4  221  TIP3 OH2  OT    -0.834000       15.9994           0
   64091 WT4  221  TIP3 H1   HT     0.417000        1.0080           0
   64092 WT4  221  TIP3 H2   HT     0.417000        1.0080           0
   64093 WT4  223  TIP3 OH2  OT    -0.834000       15.9994           0
   64094 WT4  223  TIP3 H1   HT     0.417000        1.0080           0
   64095 WT4  223  TIP3 H2   HT     0.417000        1.0080           0
   64096 WT4  231  TIP3 OH2  OT    -0.834000       15.9994           0
   64097 WT4  231  TIP3 H1   HT     0.417000        1.0080           0
   64098 WT4  231  TIP3 H2   HT     0.417000        1.0080           0
   64099 WT4  233  TIP3 OH2  OT    -0.834000       15.9994           0
   64100 WT4  233  TIP3 H1   HT     0.417000        1.0080           0
   64101 WT4  233  TIP3 H2   HT     0.417000        1.0080           0
   64102 WT4  235  TIP3 OH2  OT    -0.834000       15.9994           0
   64103 WT4  235  TIP3 H1   HT     0.417000        1.0080           0
   64104 WT4  235  TIP3 H2   HT     0.417000        1.0080           0
   64105 WT4  236  TIP3 OH2  OT    -0.834000       15.9994           0
   64106 WT4  236  TIP3 H1   HT     0.417000        1.0080           0
   64107 WT4  236  TIP3 H2   HT     0.417000        1.0080           0
   64108 WT4  237  TIP3 OH2  OT    -0.834000       15.9994           0
   64109 WT4  237  TIP3 H1   HT     0.417000        1.0080           0
   64110 WT4  237  TIP3 H2   HT     0.417000        1.0080           0
   64111 WT4  238  TIP3 OH2  OT    -0.834000       15.9994           0
   64112 WT4  238  TIP3 H1   HT     0.417000        1.0080           0
   64113 WT4  238  TIP3 H2   HT     0.417000        1.0080           0
   64114 WT4  239  TIP3 OH2  OT    -0.834000       15.9994           0
   64115 WT4  239  TIP3 H1   HT     0.417000        1.0080           0
   64116 WT4  239  TIP3 H2   HT     0.417000        1.0080           0
   64117 WT4  240  TIP3 OH2  OT    -0.834000       15.9994           0
   64118 WT4  240  TIP3 H1   HT     0.417000        1.0080           0
   64119 WT4  240  TIP3 H2   HT     0.417000        1.0080           0
   64120 WT4  241  TIP3 OH2  OT    -0.834000       15.9994           0
   64121 WT4  241  TIP3 H1   HT     0.417000        1.0080           0
   64122 WT4  241  TIP3 H2   HT     0.417000        1.0080           0
   64123 WT4  245  TIP3 OH2  OT    -0.834000       15.9994           0
   64124 WT4  245  TIP3 H1   HT     0.417000        1.0080           0
   64125 WT4  245  TIP3 H2   HT     0.417000        1.0080           0
   64126 WT4  246  TIP3 OH2  OT    -0.834000       15.9994           0
   64127 WT4  246  TIP3 H1   HT     0.417000        1.0080           0
   64128 WT4  246  TIP3 H2   HT     0.417000        1.0080           0
   64129 WT4  252  TIP3 OH2  OT    -0.834000       15.9994           0
   64130 WT4  252  TIP3 H1   HT     0.417000        1.0080           0
   64131 WT4  252  TIP3 H2   HT     0.417000        1.0080           0
   64132 WT4  253  TIP3 OH2  OT    -0.834000       15.9994           0
   64133 WT4  253  TIP3 H1   HT     0.417000        1.0080           0
   64134 WT4  253  TIP3 H2   HT     0.417000        1.0080           0
   64135 WT4  256  TIP3 OH2  OT    -0.834000       15.9994           0
   64136 WT4  256  TIP3 H1   HT     0.417000        1.0080           0
   64137 WT4  256  TIP3 H2   HT     0.417000        1.0080           0
   64138 WT4  257  TIP3 OH2  OT    -0.834000       15.9994           0
   64139 WT4  257  TIP3 H1   HT     0.417000        1.0080           0
   64140 WT4  257  TIP3 H2   HT     0.417000        1.0080           0
   64141 WT4  260  TIP3 OH2  OT    -0.834000       15.9994           0
   64142 WT4  260  TIP3 H1   HT     0.417000        1.0080           0
   64143 WT4  260  TIP3 H2   HT     0.417000        1.0080           0
   64144 WT4  261  TIP3 OH2  OT    -0.834000       15.9994           0
   64145 WT4  261  TIP3 H1   HT     0.417000        1.0080           0
   64146 WT4  261  TIP3 H2   HT     0.417000        1.0080           0
   64147 WT4  262  TIP3 OH2  OT    -0.834000       15.9994           0
   64148 WT4  262  TIP3 H1   HT     0.417000        1.0080           0
   64149 WT4  262  TIP3 H2   HT     0.417000        1.0080           0
   64150 WT4  263  TIP3 OH2  OT    -0.834000       15.9994           0
   64151 WT4  263  TIP3 H1   HT     0.417000        1.0080           0
   64152 WT4  263  TIP3 H2   HT     0.417000        1.0080           0
   64153 WT4  273  TIP3 OH2  OT    -0.834000       15.9994           0
   64154 WT4  273  TIP3 H1   HT     0.417000        1.0080           0
   64155 WT4  273  TIP3 H2   HT     0.417000        1.0080           0
   64156 WT4  278  TIP3 OH2  OT    -0.834000       15.9994           0
   64157 WT4  278  TIP3 H1   HT     0.417000        1.0080           0
   64158 WT4  278  TIP3 H2   HT     0.417000        1.0080           0
   64159 WT4  279  TIP3 OH2  OT    -0.834000       15.9994           0
   64160 WT4  279  TIP3 H1   HT     0.417000        1.0080           0
   64161 WT4  279  TIP3 H2   HT     0.417000        1.0080           0
   64162 WT4  280  TIP3 OH2  OT    -0.834000       15.9994           0
   64163 WT4  280  TIP3 H1   HT     0.417000        1.0080           0
   64164 WT4  280  TIP3 H2   HT     0.417000        1.0080           0
   64165 WT4  281  TIP3 OH2  OT    -0.834000       15.9994           0
   64166 WT4  281  TIP3 H1   HT     0.417000        1.0080           0
   64167 WT4  281  TIP3 H2   HT     0.417000        1.0080           0
   64168 WT4  282  TIP3 OH2  OT    -0.834000       15.9994           0
   64169 WT4  282  TIP3 H1   HT     0.417000        1.0080           0
   64170 WT4  282  TIP3 H2   HT     0.417000        1.0080           0
   64171 WT4  284  TIP3 OH2  OT    -0.834000       15.9994           0
   64172 WT4  284  TIP3 H1   HT     0.417000        1.0080           0
   64173 WT4  284  TIP3 H2   HT     0.417000        1.0080           0
   64174 WT4  291  TIP3 OH2  OT    -0.834000       15.9994           0
   64175 WT4  291  TIP3 H1   HT     0.417000        1.0080           0
   64176 WT4  291  TIP3 H2   HT     0.417000        1.0080           0
   64177 WT4  295  TIP3 OH2  OT    -0.834000       15.9994           0
   64178 WT4  295  TIP3 H1   HT     0.417000        1.0080           0
   64179 WT4  295  TIP3 H2   HT     0.417000        1.0080           0
   64180 WT4  297  TIP3 OH2  OT    -0.834000       15.9994           0
   64181 WT4  297  TIP3 H1   HT     0.417000        1.0080           0
   64182 WT4  297  TIP3 H2   HT     0.417000        1.0080           0
   64183 WT4  298  TIP3 OH2  OT    -0.834000       15.9994           0
   64184 WT4  298  TIP3 H1   HT     0.417000        1.0080           0
   64185 WT4  298  TIP3 H2   HT     0.417000        1.0080           0
   64186 WT4  300  TIP3 OH2  OT    -0.834000       15.9994           0
   64187 WT4  300  TIP3 H1   HT     0.417000        1.0080           0
   64188 WT4  300  TIP3 H2   HT     0.417000        1.0080           0
   64189 WT4  304  TIP3 OH2  OT    -0.834000       15.9994           0
   64190 WT4  304  TIP3 H1   HT     0.417000        1.0080           0
   64191 WT4  304  TIP3 H2   HT     0.417000        1.0080           0
   64192 WT4  320  TIP3 OH2  OT    -0.834000       15.9994           0
   64193 WT4  320  TIP3 H1   HT     0.417000        1.0080           0
   64194 WT4  320  TIP3 H2   HT     0.417000        1.0080           0
   64195 WT4  327  TIP3 OH2  OT    -0.834000       15.9994           0
   64196 WT4  327  TIP3 H1   HT     0.417000        1.0080           0
   64197 WT4  327  TIP3 H2   HT     0.417000        1.0080           0
   64198 WT4  337  TIP3 OH2  OT    -0.834000       15.9994           0
   64199 WT4  337  TIP3 H1   HT     0.417000        1.0080           0
   64200 WT4  337  TIP3 H2   HT     0.417000        1.0080           0
   64201 WT4  340  TIP3 OH2  OT    -0.834000       15.9994           0
   64202 WT4  340  TIP3 H1   HT     0.417000        1.0080           0
   64203 WT4  340  TIP3 H2   HT     0.417000        1.0080           0
   64204 WT4  365  TIP3 OH2  OT    -0.834000       15.9994           0
   64205 WT4  365  TIP3 H1   HT     0.417000        1.0080           0
   64206 WT4  365  TIP3 H2   HT     0.417000        1.0080           0
   64207 WT4  367  TIP3 OH2  OT    -0.834000       15.9994           0
   64208 WT4  367  TIP3 H1   HT     0.417000        1.0080           0
   64209 WT4  367  TIP3 H2   HT     0.417000        1.0080           0
   64210 WT4  368  TIP3 OH2  OT    -0.834000       15.9994           0
   64211 WT4  368  TIP3 H1   HT     0.417000        1.0080           0
   64212 WT4  368  TIP3 H2   HT     0.417000        1.0080           0
   64213 WT4  407  TIP3 OH2  OT    -0.834000       15.9994           0
   64214 WT4  407  TIP3 H1   HT     0.417000        1.0080           0
   64215 WT4  407  TIP3 H2   HT     0.417000        1.0080           0
   64216 WT4  408  TIP3 OH2  OT    -0.834000       15.9994           0
   64217 WT4  408  TIP3 H1   HT     0.417000        1.0080           0
   64218 WT4  408  TIP3 H2   HT     0.417000        1.0080           0
   64219 WT4  411  TIP3 OH2  OT    -0.834000       15.9994           0
   64220 WT4  411  TIP3 H1   HT     0.417000        1.0080           0
   64221 WT4  411  TIP3 H2   HT     0.417000        1.0080           0
   64222 WT4  412  TIP3 OH2  OT    -0.834000       15.9994           0
   64223 WT4  412  TIP3 H1   HT     0.417000        1.0080           0
   64224 WT4  412  TIP3 H2   HT     0.417000        1.0080           0
   64225 WT4  416  TIP3 OH2  OT    -0.834000       15.9994           0
   64226 WT4  416  TIP3 H1   HT     0.417000        1.0080           0
   64227 WT4  416  TIP3 H2   HT     0.417000        1.0080           0
   64228 WT4  424  TIP3 OH2  OT    -0.834000       15.9994           0
   64229 WT4  424  TIP3 H1   HT     0.417000        1.0080           0
   64230 WT4  424  TIP3 H2   HT     0.417000        1.0080           0
   64231 WT4  429  TIP3 OH2  OT    -0.834000       15.9994           0
   64232 WT4  429  TIP3 H1   HT     0.417000        1.0080           0
   64233 WT4  429  TIP3 H2   HT     0.417000        1.0080           0
   64234 WT4  430  TIP3 OH2  OT    -0.834000       15.9994           0
   64235 WT4  430  TIP3 H1   HT     0.417000        1.0080           0
   64236 WT4  430  TIP3 H2   HT     0.417000        1.0080           0
   64237 WT4  432  TIP3 OH2  OT    -0.834000       15.9994           0
   64238 WT4  432  TIP3 H1   HT     0.417000        1.0080           0
   64239 WT4  432  TIP3 H2   HT     0.417000        1.0080           0
   64240 WT4  443  TIP3 OH2  OT    -0.834000       15.9994           0
   64241 WT4  443  TIP3 H1   HT     0.417000        1.0080           0
   64242 WT4  443  TIP3 H2   HT     0.417000        1.0080           0
   64243 WT4  444  TIP3 OH2  OT    -0.834000       15.9994           0
   64244 WT4  444  TIP3 H1   HT     0.417000        1.0080           0
   64245 WT4  444  TIP3 H2   HT     0.417000        1.0080           0
   64246 WT4  447  TIP3 OH2  OT    -0.834000       15.9994           0
   64247 WT4  447  TIP3 H1   HT     0.417000        1.0080           0
   64248 WT4  447  TIP3 H2   HT     0.417000        1.0080           0
   64249 WT4  449  TIP3 OH2  OT    -0.834000       15.9994           0
   64250 WT4  449  TIP3 H1   HT     0.417000        1.0080           0
   64251 WT4  449  TIP3 H2   HT     0.417000        1.0080           0
   64252 WT4  450  TIP3 OH2  OT    -0.834000       15.9994           0
   64253 WT4  450  TIP3 H1   HT     0.417000        1.0080           0
   64254 WT4  450  TIP3 H2   HT     0.417000        1.0080           0
   64255 WT4  451  TIP3 OH2  OT    -0.834000       15.9994           0
   64256 WT4  451  TIP3 H1   HT     0.417000        1.0080           0
   64257 WT4  451  TIP3 H2   HT     0.417000        1.0080           0
   64258 WT4  452  TIP3 OH2  OT    -0.834000       15.9994           0
   64259 WT4  452  TIP3 H1   HT     0.417000        1.0080           0
   64260 WT4  452  TIP3 H2   HT     0.417000        1.0080           0
   64261 WT4  453  TIP3 OH2  OT    -0.834000       15.9994           0
   64262 WT4  453  TIP3 H1   HT     0.417000        1.0080           0
   64263 WT4  453  TIP3 H2   HT     0.417000        1.0080           0
   64264 WT4  455  TIP3 OH2  OT    -0.834000       15.9994           0
   64265 WT4  455  TIP3 H1   HT     0.417000        1.0080           0
   64266 WT4  455  TIP3 H2   HT     0.417000        1.0080           0
   64267 WT4  458  TIP3 OH2  OT    -0.834000       15.9994           0
   64268 WT4  458  TIP3 H1   HT     0.417000        1.0080           0
   64269 WT4  458  TIP3 H2   HT     0.417000        1.0080           0
   64270 WT4  465  TIP3 OH2  OT    -0.834000       15.9994           0
   64271 WT4  465  TIP3 H1   HT     0.417000        1.0080           0
   64272 WT4  465  TIP3 H2   HT     0.417000        1.0080           0
   64273 WT4  466  TIP3 OH2  OT    -0.834000       15.9994           0
   64274 WT4  466  TIP3 H1   HT     0.417000        1.0080           0
   64275 WT4  466  TIP3 H2   HT     0.417000        1.0080           0
   64276 WT4  467  TIP3 OH2  OT    -0.834000       15.9994           0
   64277 WT4  467  TIP3 H1   HT     0.417000        1.0080           0
   64278 WT4  467  TIP3 H2   HT     0.417000        1.0080           0
   64279 WT4  469  TIP3 OH2  OT    -0.834000       15.9994           0
   64280 WT4  469  TIP3 H1   HT     0.417000        1.0080           0
   64281 WT4  469  TIP3 H2   HT     0.417000        1.0080           0
   64282 WT4  473  TIP3 OH2  OT    -0.834000       15.9994           0
   64283 WT4  473  TIP3 H1   HT     0.417000        1.0080           0
   64284 WT4  473  TIP3 H2   HT     0.417000        1.0080           0
   64285 WT4  474  TIP3 OH2  OT    -0.834000       15.9994           0
   64286 WT4  474  TIP3 H1   HT     0.417000        1.0080           0
   64287 WT4  474  TIP3 H2   HT     0.417000        1.0080           0
   64288 WT4  478  TIP3 OH2  OT    -0.834000       15.9994           0
   64289 WT4  478  TIP3 H1   HT     0.417000        1.0080           0
   64290 WT4  478  TIP3 H2   HT     0.417000        1.0080           0
   64291 WT4  484  TIP3 OH2  OT    -0.834000       15.9994           0
   64292 WT4  484  TIP3 H1   HT     0.417000        1.0080           0
   64293 WT4  484  TIP3 H2   HT     0.417000        1.0080           0
   64294 WT4  485  TIP3 OH2  OT    -0.834000       15.9994           0
   64295 WT4  485  TIP3 H1   HT     0.417000        1.0080           0
   64296 WT4  485  TIP3 H2   HT     0.417000        1.0080           0
   64297 WT4  486  TIP3 OH2  OT    -0.834000       15.9994           0
   64298 WT4  486  TIP3 H1   HT     0.417000        1.0080           0
   64299 WT4  486  TIP3 H2   HT     0.417000        1.0080           0
   64300 WT4  488  TIP3 OH2  OT    -0.834000       15.9994           0
   64301 WT4  488  TIP3 H1   HT     0.417000        1.0080           0
   64302 WT4  488  TIP3 H2   HT     0.417000        1.0080           0
   64303 WT4  489  TIP3 OH2  OT    -0.834000       15.9994           0
   64304 WT4  489  TIP3 H1   HT     0.417000        1.0080           0
   64305 WT4  489  TIP3 H2   HT     0.417000        1.0080           0
   64306 WT4  490  TIP3 OH2  OT    -0.834000       15.9994           0
   64307 WT4  490  TIP3 H1   HT     0.417000        1.0080           0
   64308 WT4  490  TIP3 H2   HT     0.417000        1.0080           0
   64309 WT4  491  TIP3 OH2  OT    -0.834000       15.9994           0
   64310 WT4  491  TIP3 H1   HT     0.417000        1.0080           0
   64311 WT4  491  TIP3 H2   HT     0.417000        1.0080           0
   64312 WT4  492  TIP3 OH2  OT    -0.834000       15.9994           0
   64313 WT4  492  TIP3 H1   HT     0.417000        1.0080           0
   64314 WT4  492  TIP3 H2   HT     0.417000        1.0080           0
   64315 WT4  494  TIP3 OH2  OT    -0.834000       15.9994           0
   64316 WT4  494  TIP3 H1   HT     0.417000        1.0080           0
   64317 WT4  494  TIP3 H2   HT     0.417000        1.0080           0
   64318 WT4  495  TIP3 OH2  OT    -0.834000       15.9994           0
   64319 WT4  495  TIP3 H1   HT     0.417000        1.0080           0
   64320 WT4  495  TIP3 H2   HT     0.417000        1.0080           0
   64321 WT4  498  TIP3 OH2  OT    -0.834000       15.9994           0
   64322 WT4  498  TIP3 H1   HT     0.417000        1.0080           0
   64323 WT4  498  TIP3 H2   HT     0.417000        1.0080           0
   64324 WT4  499  TIP3 OH2  OT    -0.834000       15.9994           0
   64325 WT4  499  TIP3 H1   HT     0.417000        1.0080           0
   64326 WT4  499  TIP3 H2   HT     0.417000        1.0080           0
   64327 WT4  503  TIP3 OH2  OT    -0.834000       15.9994           0
   64328 WT4  503  TIP3 H1   HT     0.417000        1.0080           0
   64329 WT4  503  TIP3 H2   HT     0.417000        1.0080           0
   64330 WT4  506  TIP3 OH2  OT    -0.834000       15.9994           0
   64331 WT4  506  TIP3 H1   HT     0.417000        1.0080           0
   64332 WT4  506  TIP3 H2   HT     0.417000        1.0080           0
   64333 WT4  507  TIP3 OH2  OT    -0.834000       15.9994           0
   64334 WT4  507  TIP3 H1   HT     0.417000        1.0080           0
   64335 WT4  507  TIP3 H2   HT     0.417000        1.0080           0
   64336 WT4  508  TIP3 OH2  OT    -0.834000       15.9994           0
   64337 WT4  508  TIP3 H1   HT     0.417000        1.0080           0
   64338 WT4  508  TIP3 H2   HT     0.417000        1.0080           0
   64339 WT4  509  TIP3 OH2  OT    -0.834000       15.9994           0
   64340 WT4  509  TIP3 H1   HT     0.417000        1.0080           0
   64341 WT4  509  TIP3 H2   HT     0.417000        1.0080           0
   64342 WT4  510  TIP3 OH2  OT    -0.834000       15.9994           0
   64343 WT4  510  TIP3 H1   HT     0.417000        1.0080           0
   64344 WT4  510  TIP3 H2   HT     0.417000        1.0080           0
   64345 WT4  511  TIP3 OH2  OT    -0.834000       15.9994           0
   64346 WT4  511  TIP3 H1   HT     0.417000        1.0080           0
   64347 WT4  511  TIP3 H2   HT     0.417000        1.0080           0
   64348 WT4  512  TIP3 OH2  OT    -0.834000       15.9994           0
   64349 WT4  512  TIP3 H1   HT     0.417000        1.0080           0
   64350 WT4  512  TIP3 H2   HT     0.417000        1.0080           0
   64351 WT4  513  TIP3 OH2  OT    -0.834000       15.9994           0
   64352 WT4  513  TIP3 H1   HT     0.417000        1.0080           0
   64353 WT4  513  TIP3 H2   HT     0.417000        1.0080           0
   64354 WT4  514  TIP3 OH2  OT    -0.834000       15.9994           0
   64355 WT4  514  TIP3 H1   HT     0.417000        1.0080           0
   64356 WT4  514  TIP3 H2   HT     0.417000        1.0080           0
   64357 WT4  515  TIP3 OH2  OT    -0.834000       15.9994           0
   64358 WT4  515  TIP3 H1   HT     0.417000        1.0080           0
   64359 WT4  515  TIP3 H2   HT     0.417000        1.0080           0
   64360 WT4  516  TIP3 OH2  OT    -0.834000       15.9994           0
   64361 WT4  516  TIP3 H1   HT     0.417000        1.0080           0
   64362 WT4  516  TIP3 H2   HT     0.417000        1.0080           0
   64363 WT4  517  TIP3 OH2  OT    -0.834000       15.9994           0
   64364 WT4  517  TIP3 H1   HT     0.417000        1.0080           0
   64365 WT4  517  TIP3 H2   HT     0.417000        1.0080           0
   64366 WT4  528  TIP3 OH2  OT    -0.834000       15.9994           0
   64367 WT4  528  TIP3 H1   HT     0.417000        1.0080           0
   64368 WT4  528  TIP3 H2   HT     0.417000        1.0080           0
   64369 WT4  529  TIP3 OH2  OT    -0.834000       15.9994           0
   64370 WT4  529  TIP3 H1   HT     0.417000        1.0080           0
   64371 WT4  529  TIP3 H2   HT     0.417000        1.0080           0
   64372 WT4  530  TIP3 OH2  OT    -0.834000       15.9994           0
   64373 WT4  530  TIP3 H1   HT     0.417000        1.0080           0
   64374 WT4  530  TIP3 H2   HT     0.417000        1.0080           0
   64375 WT4  531  TIP3 OH2  OT    -0.834000       15.9994           0
   64376 WT4  531  TIP3 H1   HT     0.417000        1.0080           0
   64377 WT4  531  TIP3 H2   HT     0.417000        1.0080           0
   64378 WT4  532  TIP3 OH2  OT    -0.834000       15.9994           0
   64379 WT4  532  TIP3 H1   HT     0.417000        1.0080           0
   64380 WT4  532  TIP3 H2   HT     0.417000        1.0080           0
   64381 WT4  533  TIP3 OH2  OT    -0.834000       15.9994           0
   64382 WT4  533  TIP3 H1   HT     0.417000        1.0080           0
   64383 WT4  533  TIP3 H2   HT     0.417000        1.0080           0
   64384 WT4  534  TIP3 OH2  OT    -0.834000       15.9994           0
   64385 WT4  534  TIP3 H1   HT     0.417000        1.0080           0
   64386 WT4  534  TIP3 H2   HT     0.417000        1.0080           0
   64387 WT4  535  TIP3 OH2  OT    -0.834000       15.9994           0
   64388 WT4  535  TIP3 H1   HT     0.417000        1.0080           0
   64389 WT4  535  TIP3 H2   HT     0.417000        1.0080           0
   64390 WT4  536  TIP3 OH2  OT    -0.834000       15.9994           0
   64391 WT4  536  TIP3 H1   HT     0.417000        1.0080           0
   64392 WT4  536  TIP3 H2   HT     0.417000        1.0080           0
   64393 WT4  538  TIP3 OH2  OT    -0.834000       15.9994           0
   64394 WT4  538  TIP3 H1   HT     0.417000        1.0080           0
   64395 WT4  538  TIP3 H2   HT     0.417000        1.0080           0
   64396 WT4  540  TIP3 OH2  OT    -0.834000       15.9994           0
   64397 WT4  540  TIP3 H1   HT     0.417000        1.0080           0
   64398 WT4  540  TIP3 H2   HT     0.417000        1.0080           0
   64399 WT4  543  TIP3 OH2  OT    -0.834000       15.9994           0
   64400 WT4  543  TIP3 H1   HT     0.417000        1.0080           0
   64401 WT4  543  TIP3 H2   HT     0.417000        1.0080           0
   64402 WT4  547  TIP3 OH2  OT    -0.834000       15.9994           0
   64403 WT4  547  TIP3 H1   HT     0.417000        1.0080           0
   64404 WT4  547  TIP3 H2   HT     0.417000        1.0080           0
   64405 WT4  549  TIP3 OH2  OT    -0.834000       15.9994           0
   64406 WT4  549  TIP3 H1   HT     0.417000        1.0080           0
   64407 WT4  549  TIP3 H2   HT     0.417000        1.0080           0
   64408 WT4  550  TIP3 OH2  OT    -0.834000       15.9994           0
   64409 WT4  550  TIP3 H1   HT     0.417000        1.0080           0
   64410 WT4  550  TIP3 H2   HT     0.417000        1.0080           0
   64411 WT4  551  TIP3 OH2  OT    -0.834000       15.9994           0
   64412 WT4  551  TIP3 H1   HT     0.417000        1.0080           0
   64413 WT4  551  TIP3 H2   HT     0.417000        1.0080           0
   64414 WT4  552  TIP3 OH2  OT    -0.834000       15.9994           0
   64415 WT4  552  TIP3 H1   HT     0.417000        1.0080           0
   64416 WT4  552  TIP3 H2   HT     0.417000        1.0080           0
   64417 WT4  553  TIP3 OH2  OT    -0.834000       15.9994           0
   64418 WT4  553  TIP3 H1   HT     0.417000        1.0080           0
   64419 WT4  553  TIP3 H2   HT     0.417000        1.0080           0
   64420 WT4  554  TIP3 OH2  OT    -0.834000       15.9994           0
   64421 WT4  554  TIP3 H1   HT     0.417000        1.0080           0
   64422 WT4  554  TIP3 H2   HT     0.417000        1.0080           0
   64423 WT4  555  TIP3 OH2  OT    -0.834000       15.9994           0
   64424 WT4  555  TIP3 H1   HT     0.417000        1.0080           0
   64425 WT4  555  TIP3 H2   HT     0.417000        1.0080           0
   64426 WT4  558  TIP3 OH2  OT    -0.834000       15.9994           0
   64427 WT4  558  TIP3 H1   HT     0.417000        1.0080           0
   64428 WT4  558  TIP3 H2   HT     0.417000        1.0080           0
   64429 WT4  562  TIP3 OH2  OT    -0.834000       15.9994           0
   64430 WT4  562  TIP3 H1   HT     0.417000        1.0080           0
   64431 WT4  562  TIP3 H2   HT     0.417000        1.0080           0
   64432 WT4  563  TIP3 OH2  OT    -0.834000       15.9994           0
   64433 WT4  563  TIP3 H1   HT     0.417000        1.0080           0
   64434 WT4  563  TIP3 H2   HT     0.417000        1.0080           0
   64435 WT4  568  TIP3 OH2  OT    -0.834000       15.9994           0
   64436 WT4  568  TIP3 H1   HT     0.417000        1.0080           0
   64437 WT4  568  TIP3 H2   HT     0.417000        1.0080           0
   64438 WT4  570  TIP3 OH2  OT    -0.834000       15.9994           0
   64439 WT4  570  TIP3 H1   HT     0.417000        1.0080           0
   64440 WT4  570  TIP3 H2   HT     0.417000        1.0080           0
   64441 WT4  572  TIP3 OH2  OT    -0.834000       15.9994           0
   64442 WT4  572  TIP3 H1   HT     0.417000        1.0080           0
   64443 WT4  572  TIP3 H2   HT     0.417000        1.0080           0
   64444 WT4  573  TIP3 OH2  OT    -0.834000       15.9994           0
   64445 WT4  573  TIP3 H1   HT     0.417000        1.0080           0
   64446 WT4  573  TIP3 H2   HT     0.417000        1.0080           0
   64447 WT4  574  TIP3 OH2  OT    -0.834000       15.9994           0
   64448 WT4  574  TIP3 H1   HT     0.417000        1.0080           0
   64449 WT4  574  TIP3 H2   HT     0.417000        1.0080           0
   64450 WT4  575  TIP3 OH2  OT    -0.834000       15.9994           0
   64451 WT4  575  TIP3 H1   HT     0.417000        1.0080           0
   64452 WT4  575  TIP3 H2   HT     0.417000        1.0080           0
   64453 WT4  576  TIP3 OH2  OT    -0.834000       15.9994           0
   64454 WT4  576  TIP3 H1   HT     0.417000        1.0080           0
   64455 WT4  576  TIP3 H2   HT     0.417000        1.0080           0
   64456 WT4  577  TIP3 OH2  OT    -0.834000       15.9994           0
   64457 WT4  577  TIP3 H1   HT     0.417000        1.0080           0
   64458 WT4  577  TIP3 H2   HT     0.417000        1.0080           0
   64459 WT4  578  TIP3 OH2  OT    -0.834000       15.9994           0
   64460 WT4  578  TIP3 H1   HT     0.417000        1.0080           0
   64461 WT4  578  TIP3 H2   HT     0.417000        1.0080           0
   64462 WT4  579  TIP3 OH2  OT    -0.834000       15.9994           0
   64463 WT4  579  TIP3 H1   HT     0.417000        1.0080           0
   64464 WT4  579  TIP3 H2   HT     0.417000        1.0080           0
   64465 WT4  580  TIP3 OH2  OT    -0.834000       15.9994           0
   64466 WT4  580  TIP3 H1   HT     0.417000        1.0080           0
   64467 WT4  580  TIP3 H2   HT     0.417000        1.0080           0
   64468 WT4  584  TIP3 OH2  OT    -0.834000       15.9994           0
   64469 WT4  584  TIP3 H1   HT     0.417000        1.0080           0
   64470 WT4  584  TIP3 H2   HT     0.417000        1.0080           0
   64471 WT4  588  TIP3 OH2  OT    -0.834000       15.9994           0
   64472 WT4  588  TIP3 H1   HT     0.417000        1.0080           0
   64473 WT4  588  TIP3 H2   HT     0.417000        1.0080           0
   64474 WT4  591  TIP3 OH2  OT    -0.834000       15.9994           0
   64475 WT4  591  TIP3 H1   HT     0.417000        1.0080           0
   64476 WT4  591  TIP3 H2   HT     0.417000        1.0080           0
   64477 WT4  592  TIP3 OH2  OT    -0.834000       15.9994           0
   64478 WT4  592  TIP3 H1   HT     0.417000        1.0080           0
   64479 WT4  592  TIP3 H2   HT     0.417000        1.0080           0
   64480 WT4  593  TIP3 OH2  OT    -0.834000       15.9994           0
   64481 WT4  593  TIP3 H1   HT     0.417000        1.0080           0
   64482 WT4  593  TIP3 H2   HT     0.417000        1.0080           0
   64483 WT4  594  TIP3 OH2  OT    -0.834000       15.9994           0
   64484 WT4  594  TIP3 H1   HT     0.417000        1.0080           0
   64485 WT4  594  TIP3 H2   HT     0.417000        1.0080           0
   64486 WT4  595  TIP3 OH2  OT    -0.834000       15.9994           0
   64487 WT4  595  TIP3 H1   HT     0.417000        1.0080           0
   64488 WT4  595  TIP3 H2   HT     0.417000        1.0080           0
   64489 WT4  596  TIP3 OH2  OT    -0.834000       15.9994           0
   64490 WT4  596  TIP3 H1   HT     0.417000        1.0080           0
   64491 WT4  596  TIP3 H2   HT     0.417000        1.0080           0
   64492 WT4  597  TIP3 OH2  OT    -0.834000       15.9994           0
   64493 WT4  597  TIP3 H1   HT     0.417000        1.0080           0
   64494 WT4  597  TIP3 H2   HT     0.417000        1.0080           0
   64495 WT4  598  TIP3 OH2  OT    -0.834000       15.9994           0
   64496 WT4  598  TIP3 H1   HT     0.417000        1.0080           0
   64497 WT4  598  TIP3 H2   HT     0.417000        1.0080           0
   64498 WT4  599  TIP3 OH2  OT    -0.834000       15.9994           0
   64499 WT4  599  TIP3 H1   HT     0.417000        1.0080           0
   64500 WT4  599  TIP3 H2   HT     0.417000        1.0080           0
   64501 WT4  600  TIP3 OH2  OT    -0.834000       15.9994           0
   64502 WT4  600  TIP3 H1   HT     0.417000        1.0080           0
   64503 WT4  600  TIP3 H2   HT     0.417000        1.0080           0
   64504 WT4  602  TIP3 OH2  OT    -0.834000       15.9994           0
   64505 WT4  602  TIP3 H1   HT     0.417000        1.0080           0
   64506 WT4  602  TIP3 H2   HT     0.417000        1.0080           0
   64507 WT4  611  TIP3 OH2  OT    -0.834000       15.9994           0
   64508 WT4  611  TIP3 H1   HT     0.417000        1.0080           0
   64509 WT4  611  TIP3 H2   HT     0.417000        1.0080           0
   64510 WT4  612  TIP3 OH2  OT    -0.834000       15.9994           0
   64511 WT4  612  TIP3 H1   HT     0.417000        1.0080           0
   64512 WT4  612  TIP3 H2   HT     0.417000        1.0080           0
   64513 WT4  613  TIP3 OH2  OT    -0.834000       15.9994           0
   64514 WT4  613  TIP3 H1   HT     0.417000        1.0080           0
   64515 WT4  613  TIP3 H2   HT     0.417000        1.0080           0
   64516 WT4  615  TIP3 OH2  OT    -0.834000       15.9994           0
   64517 WT4  615  TIP3 H1   HT     0.417000        1.0080           0
   64518 WT4  615  TIP3 H2   HT     0.417000        1.0080           0
   64519 WT4  616  TIP3 OH2  OT    -0.834000       15.9994           0
   64520 WT4  616  TIP3 H1   HT     0.417000        1.0080           0
   64521 WT4  616  TIP3 H2   HT     0.417000        1.0080           0
   64522 WT4  617  TIP3 OH2  OT    -0.834000       15.9994           0
   64523 WT4  617  TIP3 H1   HT     0.417000        1.0080           0
   64524 WT4  617  TIP3 H2   HT     0.417000        1.0080           0
   64525 WT4  618  TIP3 OH2  OT    -0.834000       15.9994           0
   64526 WT4  618  TIP3 H1   HT     0.417000        1.0080           0
   64527 WT4  618  TIP3 H2   HT     0.417000        1.0080           0
   64528 WT4  619  TIP3 OH2  OT    -0.834000       15.9994           0
   64529 WT4  619  TIP3 H1   HT     0.417000        1.0080           0
   64530 WT4  619  TIP3 H2   HT     0.417000        1.0080           0
   64531 WT4  620  TIP3 OH2  OT    -0.834000       15.9994           0
   64532 WT4  620  TIP3 H1   HT     0.417000        1.0080           0
   64533 WT4  620  TIP3 H2   HT     0.417000        1.0080           0
   64534 WT4  621  TIP3 OH2  OT    -0.834000       15.9994           0
   64535 WT4  621  TIP3 H1   HT     0.417000        1.0080           0
   64536 WT4  621  TIP3 H2   HT     0.417000        1.0080           0
   64537 WT4  623  TIP3 OH2  OT    -0.834000       15.9994           0
   64538 WT4  623  TIP3 H1   HT     0.417000        1.0080           0
   64539 WT4  623  TIP3 H2   HT     0.417000        1.0080           0
   64540 WT4  624  TIP3 OH2  OT    -0.834000       15.9994           0
   64541 WT4  624  TIP3 H1   HT     0.417000        1.0080           0
   64542 WT4  624  TIP3 H2   HT     0.417000        1.0080           0
   64543 WT4  625  TIP3 OH2  OT    -0.834000       15.9994           0
   64544 WT4  625  TIP3 H1   HT     0.417000        1.0080           0
   64545 WT4  625  TIP3 H2   HT     0.417000        1.0080           0
   64546 WT4  626  TIP3 OH2  OT    -0.834000       15.9994           0
   64547 WT4  626  TIP3 H1   HT     0.417000        1.0080           0
   64548 WT4  626  TIP3 H2   HT     0.417000        1.0080           0
   64549 WT4  632  TIP3 OH2  OT    -0.834000       15.9994           0
   64550 WT4  632  TIP3 H1   HT     0.417000        1.0080           0
   64551 WT4  632  TIP3 H2   HT     0.417000        1.0080           0
   64552 WT4  634  TIP3 OH2  OT    -0.834000       15.9994           0
   64553 WT4  634  TIP3 H1   HT     0.417000        1.0080           0
   64554 WT4  634  TIP3 H2   HT     0.417000        1.0080           0
   64555 WT4  635  TIP3 OH2  OT    -0.834000       15.9994           0
   64556 WT4  635  TIP3 H1   HT     0.417000        1.0080           0
   64557 WT4  635  TIP3 H2   HT     0.417000        1.0080           0
   64558 WT4  636  TIP3 OH2  OT    -0.834000       15.9994           0
   64559 WT4  636  TIP3 H1   HT     0.417000        1.0080           0
   64560 WT4  636  TIP3 H2   HT     0.417000        1.0080           0
   64561 WT4  637  TIP3 OH2  OT    -0.834000       15.9994           0
   64562 WT4  637  TIP3 H1   HT     0.417000        1.0080           0
   64563 WT4  637  TIP3 H2   HT     0.417000        1.0080           0
   64564 WT4  638  TIP3 OH2  OT    -0.834000       15.9994           0
   64565 WT4  638  TIP3 H1   HT     0.417000        1.0080           0
   64566 WT4  638  TIP3 H2   HT     0.417000        1.0080           0
   64567 WT4  639  TIP3 OH2  OT    -0.834000       15.9994           0
   64568 WT4  639  TIP3 H1   HT     0.417000        1.0080           0
   64569 WT4  639  TIP3 H2   HT     0.417000        1.0080           0
   64570 WT4  640  TIP3 OH2  OT    -0.834000       15.9994           0
   64571 WT4  640  TIP3 H1   HT     0.417000        1.0080           0
   64572 WT4  640  TIP3 H2   HT     0.417000        1.0080           0
   64573 WT4  641  TIP3 OH2  OT    -0.834000       15.9994           0
   64574 WT4  641  TIP3 H1   HT     0.417000        1.0080           0
   64575 WT4  641  TIP3 H2   HT     0.417000        1.0080           0
   64576 WT4  642  TIP3 OH2  OT    -0.834000       15.9994           0
   64577 WT4  642  TIP3 H1   HT     0.417000        1.0080           0
   64578 WT4  642  TIP3 H2   HT     0.417000        1.0080           0
   64579 WT4  643  TIP3 OH2  OT    -0.834000       15.9994           0
   64580 WT4  643  TIP3 H1   HT     0.417000        1.0080           0
   64581 WT4  643  TIP3 H2   HT     0.417000        1.0080           0
   64582 WT4  645  TIP3 OH2  OT    -0.834000       15.9994           0
   64583 WT4  645  TIP3 H1   HT     0.417000        1.0080           0
   64584 WT4  645  TIP3 H2   HT     0.417000        1.0080           0
   64585 WT4  648  TIP3 OH2  OT    -0.834000       15.9994           0
   64586 WT4  648  TIP3 H1   HT     0.417000        1.0080           0
   64587 WT4  648  TIP3 H2   HT     0.417000        1.0080           0
   64588 WT4  653  TIP3 OH2  OT    -0.834000       15.9994           0
   64589 WT4  653  TIP3 H1   HT     0.417000        1.0080           0
   64590 WT4  653  TIP3 H2   HT     0.417000        1.0080           0
   64591 WT4  656  TIP3 OH2  OT    -0.834000       15.9994           0
   64592 WT4  656  TIP3 H1   HT     0.417000        1.0080           0
   64593 WT4  656  TIP3 H2   HT     0.417000        1.0080           0
   64594 WT4  657  TIP3 OH2  OT    -0.834000       15.9994           0
   64595 WT4  657  TIP3 H1   HT     0.417000        1.0080           0
   64596 WT4  657  TIP3 H2   HT     0.417000        1.0080           0
   64597 WT4  658  TIP3 OH2  OT    -0.834000       15.9994           0
   64598 WT4  658  TIP3 H1   HT     0.417000        1.0080           0
   64599 WT4  658  TIP3 H2   HT     0.417000        1.0080           0
   64600 WT4  659  TIP3 OH2  OT    -0.834000       15.9994           0
   64601 WT4  659  TIP3 H1   HT     0.417000        1.0080           0
   64602 WT4  659  TIP3 H2   HT     0.417000        1.0080           0
   64603 WT4  660  TIP3 OH2  OT    -0.834000       15.9994           0
   64604 WT4  660  TIP3 H1   HT     0.417000        1.0080           0
   64605 WT4  660  TIP3 H2   HT     0.417000        1.0080           0
   64606 WT4  661  TIP3 OH2  OT    -0.834000       15.9994           0
   64607 WT4  661  TIP3 H1   HT     0.417000        1.0080           0
   64608 WT4  661  TIP3 H2   HT     0.417000        1.0080           0
   64609 WT4  662  TIP3 OH2  OT    -0.834000       15.9994           0
   64610 WT4  662  TIP3 H1   HT     0.417000        1.0080           0
   64611 WT4  662  TIP3 H2   HT     0.417000        1.0080           0
   64612 WT4  663  TIP3 OH2  OT    -0.834000       15.9994           0
   64613 WT4  663  TIP3 H1   HT     0.417000        1.0080           0
   64614 WT4  663  TIP3 H2   HT     0.417000        1.0080           0
   64615 WT4  665  TIP3 OH2  OT    -0.834000       15.9994           0
   64616 WT4  665  TIP3 H1   HT     0.417000        1.0080           0
   64617 WT4  665  TIP3 H2   HT     0.417000        1.0080           0
   64618 WT4  666  TIP3 OH2  OT    -0.834000       15.9994           0
   64619 WT4  666  TIP3 H1   HT     0.417000        1.0080           0
   64620 WT4  666  TIP3 H2   HT     0.417000        1.0080           0
   64621 WT4  672  TIP3 OH2  OT    -0.834000       15.9994           0
   64622 WT4  672  TIP3 H1   HT     0.417000        1.0080           0
   64623 WT4  672  TIP3 H2   HT     0.417000        1.0080           0
   64624 WT4  674  TIP3 OH2  OT    -0.834000       15.9994           0
   64625 WT4  674  TIP3 H1   HT     0.417000        1.0080           0
   64626 WT4  674  TIP3 H2   HT     0.417000        1.0080           0
   64627 WT4  675  TIP3 OH2  OT    -0.834000       15.9994           0
   64628 WT4  675  TIP3 H1   HT     0.417000        1.0080           0
   64629 WT4  675  TIP3 H2   HT     0.417000        1.0080           0
   64630 WT4  676  TIP3 OH2  OT    -0.834000       15.9994           0
   64631 WT4  676  TIP3 H1   HT     0.417000        1.0080           0
   64632 WT4  676  TIP3 H2   HT     0.417000        1.0080           0
   64633 WT4  679  TIP3 OH2  OT    -0.834000       15.9994           0
   64634 WT4  679  TIP3 H1   HT     0.417000        1.0080           0
   64635 WT4  679  TIP3 H2   HT     0.417000        1.0080           0
   64636 WT4  680  TIP3 OH2  OT    -0.834000       15.9994           0
   64637 WT4  680  TIP3 H1   HT     0.417000        1.0080           0
   64638 WT4  680  TIP3 H2   HT     0.417000        1.0080           0
   64639 WT4  681  TIP3 OH2  OT    -0.834000       15.9994           0
   64640 WT4  681  TIP3 H1   HT     0.417000        1.0080           0
   64641 WT4  681  TIP3 H2   HT     0.417000        1.0080           0
   64642 WT4  682  TIP3 OH2  OT    -0.834000       15.9994           0
   64643 WT4  682  TIP3 H1   HT     0.417000        1.0080           0
   64644 WT4  682  TIP3 H2   HT     0.417000        1.0080           0
   64645 WT4  683  TIP3 OH2  OT    -0.834000       15.9994           0
   64646 WT4  683  TIP3 H1   HT     0.417000        1.0080           0
   64647 WT4  683  TIP3 H2   HT     0.417000        1.0080           0
   64648 WT4  684  TIP3 OH2  OT    -0.834000       15.9994           0
   64649 WT4  684  TIP3 H1   HT     0.417000        1.0080           0
   64650 WT4  684  TIP3 H2   HT     0.417000        1.0080           0
   64651 WT4  686  TIP3 OH2  OT    -0.834000       15.9994           0
   64652 WT4  686  TIP3 H1   HT     0.417000        1.0080           0
   64653 WT4  686  TIP3 H2   HT     0.417000        1.0080           0
   64654 WT4  687  TIP3 OH2  OT    -0.834000       15.9994           0
   64655 WT4  687  TIP3 H1   HT     0.417000        1.0080           0
   64656 WT4  687  TIP3 H2   HT     0.417000        1.0080           0
   64657 WT4  695  TIP3 OH2  OT    -0.834000       15.9994           0
   64658 WT4  695  TIP3 H1   HT     0.417000        1.0080           0
   64659 WT4  695  TIP3 H2   HT     0.417000        1.0080           0
   64660 WT4  697  TIP3 OH2  OT    -0.834000       15.9994           0
   64661 WT4  697  TIP3 H1   HT     0.417000        1.0080           0
   64662 WT4  697  TIP3 H2   HT     0.417000        1.0080           0
   64663 WT4  698  TIP3 OH2  OT    -0.834000       15.9994           0
   64664 WT4  698  TIP3 H1   HT     0.417000        1.0080           0
   64665 WT4  698  TIP3 H2   HT     0.417000        1.0080           0
   64666 WT4  699  TIP3 OH2  OT    -0.834000       15.9994           0
   64667 WT4  699  TIP3 H1   HT     0.417000        1.0080           0
   64668 WT4  699  TIP3 H2   HT     0.417000        1.0080           0
   64669 WT4  700  TIP3 OH2  OT    -0.834000       15.9994           0
   64670 WT4  700  TIP3 H1   HT     0.417000        1.0080           0
   64671 WT4  700  TIP3 H2   HT     0.417000        1.0080           0
   64672 WT4  701  TIP3 OH2  OT    -0.834000       15.9994           0
   64673 WT4  701  TIP3 H1   HT     0.417000        1.0080           0
   64674 WT4  701  TIP3 H2   HT     0.417000        1.0080           0
   64675 WT4  702  TIP3 OH2  OT    -0.834000       15.9994           0
   64676 WT4  702  TIP3 H1   HT     0.417000        1.0080           0
   64677 WT4  702  TIP3 H2   HT     0.417000        1.0080           0
   64678 WT4  703  TIP3 OH2  OT    -0.834000       15.9994           0
   64679 WT4  703  TIP3 H1   HT     0.417000        1.0080           0
   64680 WT4  703  TIP3 H2   HT     0.417000        1.0080           0
   64681 WT4  704  TIP3 OH2  OT    -0.834000       15.9994           0
   64682 WT4  704  TIP3 H1   HT     0.417000        1.0080           0
   64683 WT4  704  TIP3 H2   HT     0.417000        1.0080           0
   64684 WT4  705  TIP3 OH2  OT    -0.834000       15.9994           0
   64685 WT4  705  TIP3 H1   HT     0.417000        1.0080           0
   64686 WT4  705  TIP3 H2   HT     0.417000        1.0080           0
   64687 WT4  707  TIP3 OH2  OT    -0.834000       15.9994           0
   64688 WT4  707  TIP3 H1   HT     0.417000        1.0080           0
   64689 WT4  707  TIP3 H2   HT     0.417000        1.0080           0
   64690 WT4  708  TIP3 OH2  OT    -0.834000       15.9994           0
   64691 WT4  708  TIP3 H1   HT     0.417000        1.0080           0
   64692 WT4  708  TIP3 H2   HT     0.417000        1.0080           0
   64693 WT4  710  TIP3 OH2  OT    -0.834000       15.9994           0
   64694 WT4  710  TIP3 H1   HT     0.417000        1.0080           0
   64695 WT4  710  TIP3 H2   HT     0.417000        1.0080           0
   64696 WT4  716  TIP3 OH2  OT    -0.834000       15.9994           0
   64697 WT4  716  TIP3 H1   HT     0.417000        1.0080           0
   64698 WT4  716  TIP3 H2   HT     0.417000        1.0080           0
   64699 WT4  718  TIP3 OH2  OT    -0.834000       15.9994           0
   64700 WT4  718  TIP3 H1   HT     0.417000        1.0080           0
   64701 WT4  718  TIP3 H2   HT     0.417000        1.0080           0
   64702 WT4  719  TIP3 OH2  OT    -0.834000       15.9994           0
   64703 WT4  719  TIP3 H1   HT     0.417000        1.0080           0
   64704 WT4  719  TIP3 H2   HT     0.417000        1.0080           0
   64705 WT4  720  TIP3 OH2  OT    -0.834000       15.9994           0
   64706 WT4  720  TIP3 H1   HT     0.417000        1.0080           0
   64707 WT4  720  TIP3 H2   HT     0.417000        1.0080           0
   64708 WT4  721  TIP3 OH2  OT    -0.834000       15.9994           0
   64709 WT4  721  TIP3 H1   HT     0.417000        1.0080           0
   64710 WT4  721  TIP3 H2   HT     0.417000        1.0080           0
   64711 WT4  722  TIP3 OH2  OT    -0.834000       15.9994           0
   64712 WT4  722  TIP3 H1   HT     0.417000        1.0080           0
   64713 WT4  722  TIP3 H2   HT     0.417000        1.0080           0
   64714 WT4  724  TIP3 OH2  OT    -0.834000       15.9994           0
   64715 WT4  724  TIP3 H1   HT     0.417000        1.0080           0
   64716 WT4  724  TIP3 H2   HT     0.417000        1.0080           0
   64717 WT4  725  TIP3 OH2  OT    -0.834000       15.9994           0
   64718 WT4  725  TIP3 H1   HT     0.417000        1.0080           0
   64719 WT4  725  TIP3 H2   HT     0.417000        1.0080           0
   64720 WT4  726  TIP3 OH2  OT    -0.834000       15.9994           0
   64721 WT4  726  TIP3 H1   HT     0.417000        1.0080           0
   64722 WT4  726  TIP3 H2   HT     0.417000        1.0080           0
   64723 WT4  736  TIP3 OH2  OT    -0.834000       15.9994           0
   64724 WT4  736  TIP3 H1   HT     0.417000        1.0080           0
   64725 WT4  736  TIP3 H2   HT     0.417000        1.0080           0
   64726 WT4  737  TIP3 OH2  OT    -0.834000       15.9994           0
   64727 WT4  737  TIP3 H1   HT     0.417000        1.0080           0
   64728 WT4  737  TIP3 H2   HT     0.417000        1.0080           0
   64729 WT4  738  TIP3 OH2  OT    -0.834000       15.9994           0
   64730 WT4  738  TIP3 H1   HT     0.417000        1.0080           0
   64731 WT4  738  TIP3 H2   HT     0.417000        1.0080           0
   64732 WT4  739  TIP3 OH2  OT    -0.834000       15.9994           0
   64733 WT4  739  TIP3 H1   HT     0.417000        1.0080           0
   64734 WT4  739  TIP3 H2   HT     0.417000        1.0080           0
   64735 WT4  741  TIP3 OH2  OT    -0.834000       15.9994           0
   64736 WT4  741  TIP3 H1   HT     0.417000        1.0080           0
   64737 WT4  741  TIP3 H2   HT     0.417000        1.0080           0
   64738 WT4  742  TIP3 OH2  OT    -0.834000       15.9994           0
   64739 WT4  742  TIP3 H1   HT     0.417000        1.0080           0
   64740 WT4  742  TIP3 H2   HT     0.417000        1.0080           0
   64741 WT4  746  TIP3 OH2  OT    -0.834000       15.9994           0
   64742 WT4  746  TIP3 H1   HT     0.417000        1.0080           0
   64743 WT4  746  TIP3 H2   HT     0.417000        1.0080           0
   64744 WT4  747  TIP3 OH2  OT    -0.834000       15.9994           0
   64745 WT4  747  TIP3 H1   HT     0.417000        1.0080           0
   64746 WT4  747  TIP3 H2   HT     0.417000        1.0080           0
   64747 WT4  748  TIP3 OH2  OT    -0.834000       15.9994           0
   64748 WT4  748  TIP3 H1   HT     0.417000        1.0080           0
   64749 WT4  748  TIP3 H2   HT     0.417000        1.0080           0
   64750 WT4  758  TIP3 OH2  OT    -0.834000       15.9994           0
   64751 WT4  758  TIP3 H1   HT     0.417000        1.0080           0
   64752 WT4  758  TIP3 H2   HT     0.417000        1.0080           0
   64753 WT4  759  TIP3 OH2  OT    -0.834000       15.9994           0
   64754 WT4  759  TIP3 H1   HT     0.417000        1.0080           0
   64755 WT4  759  TIP3 H2   HT     0.417000        1.0080           0
   64756 WT4  762  TIP3 OH2  OT    -0.834000       15.9994           0
   64757 WT4  762  TIP3 H1   HT     0.417000        1.0080           0
   64758 WT4  762  TIP3 H2   HT     0.417000        1.0080           0
   64759 WT4  778  TIP3 OH2  OT    -0.834000       15.9994           0
   64760 WT4  778  TIP3 H1   HT     0.417000        1.0080           0
   64761 WT4  778  TIP3 H2   HT     0.417000        1.0080           0
   64762 WT4  784  TIP3 OH2  OT    -0.834000       15.9994           0
   64763 WT4  784  TIP3 H1   HT     0.417000        1.0080           0
   64764 WT4  784  TIP3 H2   HT     0.417000        1.0080           0
   64765 WT4  785  TIP3 OH2  OT    -0.834000       15.9994           0
   64766 WT4  785  TIP3 H1   HT     0.417000        1.0080           0
   64767 WT4  785  TIP3 H2   HT     0.417000        1.0080           0
   64768 WT4  787  TIP3 OH2  OT    -0.834000       15.9994           0
   64769 WT4  787  TIP3 H1   HT     0.417000        1.0080           0
   64770 WT4  787  TIP3 H2   HT     0.417000        1.0080           0
   64771 WT4  789  TIP3 OH2  OT    -0.834000       15.9994           0
   64772 WT4  789  TIP3 H1   HT     0.417000        1.0080           0
   64773 WT4  789  TIP3 H2   HT     0.417000        1.0080           0
   64774 WT4  796  TIP3 OH2  OT    -0.834000       15.9994           0
   64775 WT4  796  TIP3 H1   HT     0.417000        1.0080           0
   64776 WT4  796  TIP3 H2   HT     0.417000        1.0080           0
   64777 WT4  805  TIP3 OH2  OT    -0.834000       15.9994           0
   64778 WT4  805  TIP3 H1   HT     0.417000        1.0080           0
   64779 WT4  805  TIP3 H2   HT     0.417000        1.0080           0
   64780 WT4  806  TIP3 OH2  OT    -0.834000       15.9994           0
   64781 WT4  806  TIP3 H1   HT     0.417000        1.0080           0
   64782 WT4  806  TIP3 H2   HT     0.417000        1.0080           0
   64783 WT4  813  TIP3 OH2  OT    -0.834000       15.9994           0
   64784 WT4  813  TIP3 H1   HT     0.417000        1.0080           0
   64785 WT4  813  TIP3 H2   HT     0.417000        1.0080           0
   64786 WT4  822  TIP3 OH2  OT    -0.834000       15.9994           0
   64787 WT4  822  TIP3 H1   HT     0.417000        1.0080           0
   64788 WT4  822  TIP3 H2   HT     0.417000        1.0080           0
   64789 WT4  825  TIP3 OH2  OT    -0.834000       15.9994           0
   64790 WT4  825  TIP3 H1   HT     0.417000        1.0080           0
   64791 WT4  825  TIP3 H2   HT     0.417000        1.0080           0
   64792 WT4  848  TIP3 OH2  OT    -0.834000       15.9994           0
   64793 WT4  848  TIP3 H1   HT     0.417000        1.0080           0
   64794 WT4  848  TIP3 H2   HT     0.417000        1.0080           0
   64795 WT4  849  TIP3 OH2  OT    -0.834000       15.9994           0
   64796 WT4  849  TIP3 H1   HT     0.417000        1.0080           0
   64797 WT4  849  TIP3 H2   HT     0.417000        1.0080           0
   64798 WT4  852  TIP3 OH2  OT    -0.834000       15.9994           0
   64799 WT4  852  TIP3 H1   HT     0.417000        1.0080           0
   64800 WT4  852  TIP3 H2   HT     0.417000        1.0080           0
   64801 WT4  854  TIP3 OH2  OT    -0.834000       15.9994           0
   64802 WT4  854  TIP3 H1   HT     0.417000        1.0080           0
   64803 WT4  854  TIP3 H2   HT     0.417000        1.0080           0
   64804 WT4  866  TIP3 OH2  OT    -0.834000       15.9994           0
   64805 WT4  866  TIP3 H1   HT     0.417000        1.0080           0
   64806 WT4  866  TIP3 H2   HT     0.417000        1.0080           0
   64807 WT4  867  TIP3 OH2  OT    -0.834000       15.9994           0
   64808 WT4  867  TIP3 H1   HT     0.417000        1.0080           0
   64809 WT4  867  TIP3 H2   HT     0.417000        1.0080           0
   64810 WT4  887  TIP3 OH2  OT    -0.834000       15.9994           0
   64811 WT4  887  TIP3 H1   HT     0.417000        1.0080           0
   64812 WT4  887  TIP3 H2   HT     0.417000        1.0080           0
   64813 WT4  888  TIP3 OH2  OT    -0.834000       15.9994           0
   64814 WT4  888  TIP3 H1   HT     0.417000        1.0080           0
   64815 WT4  888  TIP3 H2   HT     0.417000        1.0080           0
   64816 WT4  889  TIP3 OH2  OT    -0.834000       15.9994           0
   64817 WT4  889  TIP3 H1   HT     0.417000        1.0080           0
   64818 WT4  889  TIP3 H2   HT     0.417000        1.0080           0
   64819 WT4  890  TIP3 OH2  OT    -0.834000       15.9994           0
   64820 WT4  890  TIP3 H1   HT     0.417000        1.0080           0
   64821 WT4  890  TIP3 H2   HT     0.417000        1.0080           0
   64822 WT4  891  TIP3 OH2  OT    -0.834000       15.9994           0
   64823 WT4  891  TIP3 H1   HT     0.417000        1.0080           0
   64824 WT4  891  TIP3 H2   HT     0.417000        1.0080           0
   64825 WT4  894  TIP3 OH2  OT    -0.834000       15.9994           0
   64826 WT4  894  TIP3 H1   HT     0.417000        1.0080           0
   64827 WT4  894  TIP3 H2   HT     0.417000        1.0080           0
   64828 WT4  895  TIP3 OH2  OT    -0.834000       15.9994           0
   64829 WT4  895  TIP3 H1   HT     0.417000        1.0080           0
   64830 WT4  895  TIP3 H2   HT     0.417000        1.0080           0
   64831 WT4  897  TIP3 OH2  OT    -0.834000       15.9994           0
   64832 WT4  897  TIP3 H1   HT     0.417000        1.0080           0
   64833 WT4  897  TIP3 H2   HT     0.417000        1.0080           0
   64834 WT4  906  TIP3 OH2  OT    -0.834000       15.9994           0
   64835 WT4  906  TIP3 H1   HT     0.417000        1.0080           0
   64836 WT4  906  TIP3 H2   HT     0.417000        1.0080           0
   64837 WT4  907  TIP3 OH2  OT    -0.834000       15.9994           0
   64838 WT4  907  TIP3 H1   HT     0.417000        1.0080           0
   64839 WT4  907  TIP3 H2   HT     0.417000        1.0080           0
   64840 WT4  908  TIP3 OH2  OT    -0.834000       15.9994           0
   64841 WT4  908  TIP3 H1   HT     0.417000        1.0080           0
   64842 WT4  908  TIP3 H2   HT     0.417000        1.0080           0
   64843 WT4  911  TIP3 OH2  OT    -0.834000       15.9994           0
   64844 WT4  911  TIP3 H1   HT     0.417000        1.0080           0
   64845 WT4  911  TIP3 H2   HT     0.417000        1.0080           0
   64846 WT4  912  TIP3 OH2  OT    -0.834000       15.9994           0
   64847 WT4  912  TIP3 H1   HT     0.417000        1.0080           0
   64848 WT4  912  TIP3 H2   HT     0.417000        1.0080           0
   64849 WT4  916  TIP3 OH2  OT    -0.834000       15.9994           0
   64850 WT4  916  TIP3 H1   HT     0.417000        1.0080           0
   64851 WT4  916  TIP3 H2   HT     0.417000        1.0080           0
   64852 WT4  918  TIP3 OH2  OT    -0.834000       15.9994           0
   64853 WT4  918  TIP3 H1   HT     0.417000        1.0080           0
   64854 WT4  918  TIP3 H2   HT     0.417000        1.0080           0
   64855 WT4  924  TIP3 OH2  OT    -0.834000       15.9994           0
   64856 WT4  924  TIP3 H1   HT     0.417000        1.0080           0
   64857 WT4  924  TIP3 H2   HT     0.417000        1.0080           0
   64858 WT4  927  TIP3 OH2  OT    -0.834000       15.9994           0
   64859 WT4  927  TIP3 H1   HT     0.417000        1.0080           0
   64860 WT4  927  TIP3 H2   HT     0.417000        1.0080           0
   64861 WT4  928  TIP3 OH2  OT    -0.834000       15.9994           0
   64862 WT4  928  TIP3 H1   HT     0.417000        1.0080           0
   64863 WT4  928  TIP3 H2   HT     0.417000        1.0080           0
   64864 WT4  929  TIP3 OH2  OT    -0.834000       15.9994           0
   64865 WT4  929  TIP3 H1   HT     0.417000        1.0080           0
   64866 WT4  929  TIP3 H2   HT     0.417000        1.0080           0
   64867 WT4  930  TIP3 OH2  OT    -0.834000       15.9994           0
   64868 WT4  930  TIP3 H1   HT     0.417000        1.0080           0
   64869 WT4  930  TIP3 H2   HT     0.417000        1.0080           0
   64870 WT4  932  TIP3 OH2  OT    -0.834000       15.9994           0
   64871 WT4  932  TIP3 H1   HT     0.417000        1.0080           0
   64872 WT4  932  TIP3 H2   HT     0.417000        1.0080           0
   64873 WT4  933  TIP3 OH2  OT    -0.834000       15.9994           0
   64874 WT4  933  TIP3 H1   HT     0.417000        1.0080           0
   64875 WT4  933  TIP3 H2   HT     0.417000        1.0080           0
   64876 WT4  936  TIP3 OH2  OT    -0.834000       15.9994           0
   64877 WT4  936  TIP3 H1   HT     0.417000        1.0080           0
   64878 WT4  936  TIP3 H2   HT     0.417000        1.0080           0
   64879 WT4  940  TIP3 OH2  OT    -0.834000       15.9994           0
   64880 WT4  940  TIP3 H1   HT     0.417000        1.0080           0
   64881 WT4  940  TIP3 H2   HT     0.417000        1.0080           0
   64882 WT4  941  TIP3 OH2  OT    -0.834000       15.9994           0
   64883 WT4  941  TIP3 H1   HT     0.417000        1.0080           0
   64884 WT4  941  TIP3 H2   HT     0.417000        1.0080           0
   64885 WT4  942  TIP3 OH2  OT    -0.834000       15.9994           0
   64886 WT4  942  TIP3 H1   HT     0.417000        1.0080           0
   64887 WT4  942  TIP3 H2   HT     0.417000        1.0080           0
   64888 WT4  947  TIP3 OH2  OT    -0.834000       15.9994           0
   64889 WT4  947  TIP3 H1   HT     0.417000        1.0080           0
   64890 WT4  947  TIP3 H2   HT     0.417000        1.0080           0
   64891 WT4  948  TIP3 OH2  OT    -0.834000       15.9994           0
   64892 WT4  948  TIP3 H1   HT     0.417000        1.0080           0
   64893 WT4  948  TIP3 H2   HT     0.417000        1.0080           0
   64894 WT4  949  TIP3 OH2  OT    -0.834000       15.9994           0
   64895 WT4  949  TIP3 H1   HT     0.417000        1.0080           0
   64896 WT4  949  TIP3 H2   HT     0.417000        1.0080           0
   64897 WT4  950  TIP3 OH2  OT    -0.834000       15.9994           0
   64898 WT4  950  TIP3 H1   HT     0.417000        1.0080           0
   64899 WT4  950  TIP3 H2   HT     0.417000        1.0080           0
   64900 WT4  951  TIP3 OH2  OT    -0.834000       15.9994           0
   64901 WT4  951  TIP3 H1   HT     0.417000        1.0080           0
   64902 WT4  951  TIP3 H2   HT     0.417000        1.0080           0
   64903 WT4  952  TIP3 OH2  OT    -0.834000       15.9994           0
   64904 WT4  952  TIP3 H1   HT     0.417000        1.0080           0
   64905 WT4  952  TIP3 H2   HT     0.417000        1.0080           0
   64906 WT4  953  TIP3 OH2  OT    -0.834000       15.9994           0
   64907 WT4  953  TIP3 H1   HT     0.417000        1.0080           0
   64908 WT4  953  TIP3 H2   HT     0.417000        1.0080           0
   64909 WT4  954  TIP3 OH2  OT    -0.834000       15.9994           0
   64910 WT4  954  TIP3 H1   HT     0.417000        1.0080           0
   64911 WT4  954  TIP3 H2   HT     0.417000        1.0080           0
   64912 WT4  956  TIP3 OH2  OT    -0.834000       15.9994           0
   64913 WT4  956  TIP3 H1   HT     0.417000        1.0080           0
   64914 WT4  956  TIP3 H2   HT     0.417000        1.0080           0
   64915 WT4  964  TIP3 OH2  OT    -0.834000       15.9994           0
   64916 WT4  964  TIP3 H1   HT     0.417000        1.0080           0
   64917 WT4  964  TIP3 H2   HT     0.417000        1.0080           0
   64918 WT4  970  TIP3 OH2  OT    -0.834000       15.9994           0
   64919 WT4  970  TIP3 H1   HT     0.417000        1.0080           0
   64920 WT4  970  TIP3 H2   HT     0.417000        1.0080           0
   64921 WT4  971  TIP3 OH2  OT    -0.834000       15.9994           0
   64922 WT4  971  TIP3 H1   HT     0.417000        1.0080           0
   64923 WT4  971  TIP3 H2   HT     0.417000        1.0080           0
   64924 WT4  972  TIP3 OH2  OT    -0.834000       15.9994           0
   64925 WT4  972  TIP3 H1   HT     0.417000        1.0080           0
   64926 WT4  972  TIP3 H2   HT     0.417000        1.0080           0
   64927 WT4  973  TIP3 OH2  OT    -0.834000       15.9994           0
   64928 WT4  973  TIP3 H1   HT     0.417000        1.0080           0
   64929 WT4  973  TIP3 H2   HT     0.417000        1.0080           0
   64930 WT4  974  TIP3 OH2  OT    -0.834000       15.9994           0
   64931 WT4  974  TIP3 H1   HT     0.417000        1.0080           0
   64932 WT4  974  TIP3 H2   HT     0.417000        1.0080           0
   64933 WT4  975  TIP3 OH2  OT    -0.834000       15.9994           0
   64934 WT4  975  TIP3 H1   HT     0.417000        1.0080           0
   64935 WT4  975  TIP3 H2   HT     0.417000        1.0080           0
   64936 WT4  976  TIP3 OH2  OT    -0.834000       15.9994           0
   64937 WT4  976  TIP3 H1   HT     0.417000        1.0080           0
   64938 WT4  976  TIP3 H2   HT     0.417000        1.0080           0
   64939 WT4  977  TIP3 OH2  OT    -0.834000       15.9994           0
   64940 WT4  977  TIP3 H1   HT     0.417000        1.0080           0
   64941 WT4  977  TIP3 H2   HT     0.417000        1.0080           0
   64942 WT4  978  TIP3 OH2  OT    -0.834000       15.9994           0
   64943 WT4  978  TIP3 H1   HT     0.417000        1.0080           0
   64944 WT4  978  TIP3 H2   HT     0.417000        1.0080           0
   64945 WT4  985  TIP3 OH2  OT    -0.834000       15.9994           0
   64946 WT4  985  TIP3 H1   HT     0.417000        1.0080           0
   64947 WT4  985  TIP3 H2   HT     0.417000        1.0080           0
   64948 WT4  987  TIP3 OH2  OT    -0.834000       15.9994           0
   64949 WT4  987  TIP3 H1   HT     0.417000        1.0080           0
   64950 WT4  987  TIP3 H2   HT     0.417000        1.0080           0
   64951 WT4  988  TIP3 OH2  OT    -0.834000       15.9994           0
   64952 WT4  988  TIP3 H1   HT     0.417000        1.0080           0
   64953 WT4  988  TIP3 H2   HT     0.417000        1.0080           0
   64954 WT4  989  TIP3 OH2  OT    -0.834000       15.9994           0
   64955 WT4  989  TIP3 H1   HT     0.417000        1.0080           0
   64956 WT4  989  TIP3 H2   HT     0.417000        1.0080           0
   64957 WT4  990  TIP3 OH2  OT    -0.834000       15.9994           0
   64958 WT4  990  TIP3 H1   HT     0.417000        1.0080           0
   64959 WT4  990  TIP3 H2   HT     0.417000        1.0080           0
   64960 WT4  991  TIP3 OH2  OT    -0.834000       15.9994           0
   64961 WT4  991  TIP3 H1   HT     0.417000        1.0080           0
   64962 WT4  991  TIP3 H2   HT     0.417000        1.0080           0
   64963 WT4  992  TIP3 OH2  OT    -0.834000       15.9994           0
   64964 WT4  992  TIP3 H1   HT     0.417000        1.0080           0
   64965 WT4  992  TIP3 H2   HT     0.417000        1.0080           0
   64966 WT4  993  TIP3 OH2  OT    -0.834000       15.9994           0
   64967 WT4  993  TIP3 H1   HT     0.417000        1.0080           0
   64968 WT4  993  TIP3 H2   HT     0.417000        1.0080           0
   64969 WT4  994  TIP3 OH2  OT    -0.834000       15.9994           0
   64970 WT4  994  TIP3 H1   HT     0.417000        1.0080           0
   64971 WT4  994  TIP3 H2   HT     0.417000        1.0080           0
   64972 WT4  995  TIP3 OH2  OT    -0.834000       15.9994           0
   64973 WT4  995  TIP3 H1   HT     0.417000        1.0080           0
   64974 WT4  995  TIP3 H2   HT     0.417000        1.0080           0
   64975 WT4  996  TIP3 OH2  OT    -0.834000       15.9994           0
   64976 WT4  996  TIP3 H1   HT     0.417000        1.0080           0
   64977 WT4  996  TIP3 H2   HT     0.417000        1.0080           0
   64978 WT4  997  TIP3 OH2  OT    -0.834000       15.9994           0
   64979 WT4  997  TIP3 H1   HT     0.417000        1.0080           0
   64980 WT4  997  TIP3 H2   HT     0.417000        1.0080           0
   64981 WT4  998  TIP3 OH2  OT    -0.834000       15.9994           0
   64982 WT4  998  TIP3 H1   HT     0.417000        1.0080           0
   64983 WT4  998  TIP3 H2   HT     0.417000        1.0080           0
   64984 WT4  1000 TIP3 OH2  OT    -0.834000       15.9994           0
   64985 WT4  1000 TIP3 H1   HT     0.417000        1.0080           0
   64986 WT4  1000 TIP3 H2   HT     0.417000        1.0080           0
   64987 WT4  1001 TIP3 OH2  OT    -0.834000       15.9994           0
   64988 WT4  1001 TIP3 H1   HT     0.417000        1.0080           0
   64989 WT4  1001 TIP3 H2   HT     0.417000        1.0080           0
   64990 WT4  1003 TIP3 OH2  OT    -0.834000       15.9994           0
   64991 WT4  1003 TIP3 H1   HT     0.417000        1.0080           0
   64992 WT4  1003 TIP3 H2   HT     0.417000        1.0080           0
   64993 WT4  1007 TIP3 OH2  OT    -0.834000       15.9994           0
   64994 WT4  1007 TIP3 H1   HT     0.417000        1.0080           0
   64995 WT4  1007 TIP3 H2   HT     0.417000        1.0080           0
   64996 WT4  1010 TIP3 OH2  OT    -0.834000       15.9994           0
   64997 WT4  1010 TIP3 H1   HT     0.417000        1.0080           0
   64998 WT4  1010 TIP3 H2   HT     0.417000        1.0080           0
   64999 WT4  1011 TIP3 OH2  OT    -0.834000       15.9994           0
   65000 WT4  1011 TIP3 H1   HT     0.417000        1.0080           0
   65001 WT4  1011 TIP3 H2   HT     0.417000        1.0080           0
   65002 WT4  1012 TIP3 OH2  OT    -0.834000       15.9994           0
   65003 WT4  1012 TIP3 H1   HT     0.417000        1.0080           0
   65004 WT4  1012 TIP3 H2   HT     0.417000        1.0080           0
   65005 WT4  1013 TIP3 OH2  OT    -0.834000       15.9994           0
   65006 WT4  1013 TIP3 H1   HT     0.417000        1.0080           0
   65007 WT4  1013 TIP3 H2   HT     0.417000        1.0080           0
   65008 WT4  1014 TIP3 OH2  OT    -0.834000       15.9994           0
   65009 WT4  1014 TIP3 H1   HT     0.417000        1.0080           0
   65010 WT4  1014 TIP3 H2   HT     0.417000        1.0080           0
   65011 WT4  1015 TIP3 OH2  OT    -0.834000       15.9994           0
   65012 WT4  1015 TIP3 H1   HT     0.417000        1.0080           0
   65013 WT4  1015 TIP3 H2   HT     0.417000        1.0080           0
   65014 WT4  1017 TIP3 OH2  OT    -0.834000       15.9994           0
   65015 WT4  1017 TIP3 H1   HT     0.417000        1.0080           0
   65016 WT4  1017 TIP3 H2   HT     0.417000        1.0080           0
   65017 WT4  1018 TIP3 OH2  OT    -0.834000       15.9994           0
   65018 WT4  1018 TIP3 H1   HT     0.417000        1.0080           0
   65019 WT4  1018 TIP3 H2   HT     0.417000        1.0080           0
   65020 WT4  1020 TIP3 OH2  OT    -0.834000       15.9994           0
   65021 WT4  1020 TIP3 H1   HT     0.417000        1.0080           0
   65022 WT4  1020 TIP3 H2   HT     0.417000        1.0080           0
   65023 WT4  1022 TIP3 OH2  OT    -0.834000       15.9994           0
   65024 WT4  1022 TIP3 H1   HT     0.417000        1.0080           0
   65025 WT4  1022 TIP3 H2   HT     0.417000        1.0080           0
   65026 WT4  1023 TIP3 OH2  OT    -0.834000       15.9994           0
   65027 WT4  1023 TIP3 H1   HT     0.417000        1.0080           0
   65028 WT4  1023 TIP3 H2   HT     0.417000        1.0080           0
   65029 WT4  1027 TIP3 OH2  OT    -0.834000       15.9994           0
   65030 WT4  1027 TIP3 H1   HT     0.417000        1.0080           0
   65031 WT4  1027 TIP3 H2   HT     0.417000        1.0080           0
   65032 WT4  1032 TIP3 OH2  OT    -0.834000       15.9994           0
   65033 WT4  1032 TIP3 H1   HT     0.417000        1.0080           0
   65034 WT4  1032 TIP3 H2   HT     0.417000        1.0080           0
   65035 WT4  1033 TIP3 OH2  OT    -0.834000       15.9994           0
   65036 WT4  1033 TIP3 H1   HT     0.417000        1.0080           0
   65037 WT4  1033 TIP3 H2   HT     0.417000        1.0080           0
   65038 WT4  1035 TIP3 OH2  OT    -0.834000       15.9994           0
   65039 WT4  1035 TIP3 H1   HT     0.417000        1.0080           0
   65040 WT4  1035 TIP3 H2   HT     0.417000        1.0080           0
   65041 WT4  1036 TIP3 OH2  OT    -0.834000       15.9994           0
   65042 WT4  1036 TIP3 H1   HT     0.417000        1.0080           0
   65043 WT4  1036 TIP3 H2   HT     0.417000        1.0080           0
   65044 WT4  1037 TIP3 OH2  OT    -0.834000       15.9994           0
   65045 WT4  1037 TIP3 H1   HT     0.417000        1.0080           0
   65046 WT4  1037 TIP3 H2   HT     0.417000        1.0080           0
   65047 WT4  1038 TIP3 OH2  OT    -0.834000       15.9994           0
   65048 WT4  1038 TIP3 H1   HT     0.417000        1.0080           0
   65049 WT4  1038 TIP3 H2   HT     0.417000        1.0080           0
   65050 WT4  1039 TIP3 OH2  OT    -0.834000       15.9994           0
   65051 WT4  1039 TIP3 H1   HT     0.417000        1.0080           0
   65052 WT4  1039 TIP3 H2   HT     0.417000        1.0080           0
   65053 WT4  1040 TIP3 OH2  OT    -0.834000       15.9994           0
   65054 WT4  1040 TIP3 H1   HT     0.417000        1.0080           0
   65055 WT4  1040 TIP3 H2   HT     0.417000        1.0080           0
   65056 WT4  1042 TIP3 OH2  OT    -0.834000       15.9994           0
   65057 WT4  1042 TIP3 H1   HT     0.417000        1.0080           0
   65058 WT4  1042 TIP3 H2   HT     0.417000        1.0080           0
   65059 WT4  1043 TIP3 OH2  OT    -0.834000       15.9994           0
   65060 WT4  1043 TIP3 H1   HT     0.417000        1.0080           0
   65061 WT4  1043 TIP3 H2   HT     0.417000        1.0080           0
   65062 WT4  1051 TIP3 OH2  OT    -0.834000       15.9994           0
   65063 WT4  1051 TIP3 H1   HT     0.417000        1.0080           0
   65064 WT4  1051 TIP3 H2   HT     0.417000        1.0080           0
   65065 WT4  1053 TIP3 OH2  OT    -0.834000       15.9994           0
   65066 WT4  1053 TIP3 H1   HT     0.417000        1.0080           0
   65067 WT4  1053 TIP3 H2   HT     0.417000        1.0080           0
   65068 WT4  1055 TIP3 OH2  OT    -0.834000       15.9994           0
   65069 WT4  1055 TIP3 H1   HT     0.417000        1.0080           0
   65070 WT4  1055 TIP3 H2   HT     0.417000        1.0080           0
   65071 WT4  1056 TIP3 OH2  OT    -0.834000       15.9994           0
   65072 WT4  1056 TIP3 H1   HT     0.417000        1.0080           0
   65073 WT4  1056 TIP3 H2   HT     0.417000        1.0080           0
   65074 WT4  1057 TIP3 OH2  OT    -0.834000       15.9994           0
   65075 WT4  1057 TIP3 H1   HT     0.417000        1.0080           0
   65076 WT4  1057 TIP3 H2   HT     0.417000        1.0080           0
   65077 WT4  1058 TIP3 OH2  OT    -0.834000       15.9994           0
   65078 WT4  1058 TIP3 H1   HT     0.417000        1.0080           0
   65079 WT4  1058 TIP3 H2   HT     0.417000        1.0080           0
   65080 WT4  1059 TIP3 OH2  OT    -0.834000       15.9994           0
   65081 WT4  1059 TIP3 H1   HT     0.417000        1.0080           0
   65082 WT4  1059 TIP3 H2   HT     0.417000        1.0080           0
   65083 WT4  1060 TIP3 OH2  OT    -0.834000       15.9994           0
   65084 WT4  1060 TIP3 H1   HT     0.417000        1.0080           0
   65085 WT4  1060 TIP3 H2   HT     0.417000        1.0080           0
   65086 WT4  1061 TIP3 OH2  OT    -0.834000       15.9994           0
   65087 WT4  1061 TIP3 H1   HT     0.417000        1.0080           0
   65088 WT4  1061 TIP3 H2   HT     0.417000        1.0080           0
   65089 WT4  1062 TIP3 OH2  OT    -0.834000       15.9994           0
   65090 WT4  1062 TIP3 H1   HT     0.417000        1.0080           0
   65091 WT4  1062 TIP3 H2   HT     0.417000        1.0080           0
   65092 WT4  1063 TIP3 OH2  OT    -0.834000       15.9994           0
   65093 WT4  1063 TIP3 H1   HT     0.417000        1.0080           0
   65094 WT4  1063 TIP3 H2   HT     0.417000        1.0080           0
   65095 WT4  1065 TIP3 OH2  OT    -0.834000       15.9994           0
   65096 WT4  1065 TIP3 H1   HT     0.417000        1.0080           0
   65097 WT4  1065 TIP3 H2   HT     0.417000        1.0080           0
   65098 WT4  1066 TIP3 OH2  OT    -0.834000       15.9994           0
   65099 WT4  1066 TIP3 H1   HT     0.417000        1.0080           0
   65100 WT4  1066 TIP3 H2   HT     0.417000        1.0080           0
   65101 WT4  1076 TIP3 OH2  OT    -0.834000       15.9994           0
   65102 WT4  1076 TIP3 H1   HT     0.417000        1.0080           0
   65103 WT4  1076 TIP3 H2   HT     0.417000        1.0080           0
   65104 WT4  1077 TIP3 OH2  OT    -0.834000       15.9994           0
   65105 WT4  1077 TIP3 H1   HT     0.417000        1.0080           0
   65106 WT4  1077 TIP3 H2   HT     0.417000        1.0080           0
   65107 WT4  1079 TIP3 OH2  OT    -0.834000       15.9994           0
   65108 WT4  1079 TIP3 H1   HT     0.417000        1.0080           0
   65109 WT4  1079 TIP3 H2   HT     0.417000        1.0080           0
   65110 WT4  1080 TIP3 OH2  OT    -0.834000       15.9994           0
   65111 WT4  1080 TIP3 H1   HT     0.417000        1.0080           0
   65112 WT4  1080 TIP3 H2   HT     0.417000        1.0080           0
   65113 WT4  1081 TIP3 OH2  OT    -0.834000       15.9994           0
   65114 WT4  1081 TIP3 H1   HT     0.417000        1.0080           0
   65115 WT4  1081 TIP3 H2   HT     0.417000        1.0080           0
   65116 WT4  1082 TIP3 OH2  OT    -0.834000       15.9994           0
   65117 WT4  1082 TIP3 H1   HT     0.417000        1.0080           0
   65118 WT4  1082 TIP3 H2   HT     0.417000        1.0080           0
   65119 WT4  1083 TIP3 OH2  OT    -0.834000       15.9994           0
   65120 WT4  1083 TIP3 H1   HT     0.417000        1.0080           0
   65121 WT4  1083 TIP3 H2   HT     0.417000        1.0080           0
   65122 WT4  1085 TIP3 OH2  OT    -0.834000       15.9994           0
   65123 WT4  1085 TIP3 H1   HT     0.417000        1.0080           0
   65124 WT4  1085 TIP3 H2   HT     0.417000        1.0080           0
   65125 WT4  1090 TIP3 OH2  OT    -0.834000       15.9994           0
   65126 WT4  1090 TIP3 H1   HT     0.417000        1.0080           0
   65127 WT4  1090 TIP3 H2   HT     0.417000        1.0080           0
   65128 WT4  1092 TIP3 OH2  OT    -0.834000       15.9994           0
   65129 WT4  1092 TIP3 H1   HT     0.417000        1.0080           0
   65130 WT4  1092 TIP3 H2   HT     0.417000        1.0080           0
   65131 WT4  1094 TIP3 OH2  OT    -0.834000       15.9994           0
   65132 WT4  1094 TIP3 H1   HT     0.417000        1.0080           0
   65133 WT4  1094 TIP3 H2   HT     0.417000        1.0080           0
   65134 WT4  1096 TIP3 OH2  OT    -0.834000       15.9994           0
   65135 WT4  1096 TIP3 H1   HT     0.417000        1.0080           0
   65136 WT4  1096 TIP3 H2   HT     0.417000        1.0080           0
   65137 WT4  1097 TIP3 OH2  OT    -0.834000       15.9994           0
   65138 WT4  1097 TIP3 H1   HT     0.417000        1.0080           0
   65139 WT4  1097 TIP3 H2   HT     0.417000        1.0080           0
   65140 WT4  1098 TIP3 OH2  OT    -0.834000       15.9994           0
   65141 WT4  1098 TIP3 H1   HT     0.417000        1.0080           0
   65142 WT4  1098 TIP3 H2   HT     0.417000        1.0080           0
   65143 WT4  1099 TIP3 OH2  OT    -0.834000       15.9994           0
   65144 WT4  1099 TIP3 H1   HT     0.417000        1.0080           0
   65145 WT4  1099 TIP3 H2   HT     0.417000        1.0080           0
   65146 WT4  1100 TIP3 OH2  OT    -0.834000       15.9994           0
   65147 WT4  1100 TIP3 H1   HT     0.417000        1.0080           0
   65148 WT4  1100 TIP3 H2   HT     0.417000        1.0080           0
   65149 WT4  1101 TIP3 OH2  OT    -0.834000       15.9994           0
   65150 WT4  1101 TIP3 H1   HT     0.417000        1.0080           0
   65151 WT4  1101 TIP3 H2   HT     0.417000        1.0080           0
   65152 WT4  1102 TIP3 OH2  OT    -0.834000       15.9994           0
   65153 WT4  1102 TIP3 H1   HT     0.417000        1.0080           0
   65154 WT4  1102 TIP3 H2   HT     0.417000        1.0080           0
   65155 WT4  1103 TIP3 OH2  OT    -0.834000       15.9994           0
   65156 WT4  1103 TIP3 H1   HT     0.417000        1.0080           0
   65157 WT4  1103 TIP3 H2   HT     0.417000        1.0080           0
   65158 WT4  1104 TIP3 OH2  OT    -0.834000       15.9994           0
   65159 WT4  1104 TIP3 H1   HT     0.417000        1.0080           0
   65160 WT4  1104 TIP3 H2   HT     0.417000        1.0080           0
   65161 WT4  1105 TIP3 OH2  OT    -0.834000       15.9994           0
   65162 WT4  1105 TIP3 H1   HT     0.417000        1.0080           0
   65163 WT4  1105 TIP3 H2   HT     0.417000        1.0080           0
   65164 WT4  1106 TIP3 OH2  OT    -0.834000       15.9994           0
   65165 WT4  1106 TIP3 H1   HT     0.417000        1.0080           0
   65166 WT4  1106 TIP3 H2   HT     0.417000        1.0080           0
   65167 WT4  1107 TIP3 OH2  OT    -0.834000       15.9994           0
   65168 WT4  1107 TIP3 H1   HT     0.417000        1.0080           0
   65169 WT4  1107 TIP3 H2   HT     0.417000        1.0080           0
   65170 WT4  1112 TIP3 OH2  OT    -0.834000       15.9994           0
   65171 WT4  1112 TIP3 H1   HT     0.417000        1.0080           0
   65172 WT4  1112 TIP3 H2   HT     0.417000        1.0080           0
   65173 WT4  1113 TIP3 OH2  OT    -0.834000       15.9994           0
   65174 WT4  1113 TIP3 H1   HT     0.417000        1.0080           0
   65175 WT4  1113 TIP3 H2   HT     0.417000        1.0080           0
   65176 WT4  1115 TIP3 OH2  OT    -0.834000       15.9994           0
   65177 WT4  1115 TIP3 H1   HT     0.417000        1.0080           0
   65178 WT4  1115 TIP3 H2   HT     0.417000        1.0080           0
   65179 WT4  1116 TIP3 OH2  OT    -0.834000       15.9994           0
   65180 WT4  1116 TIP3 H1   HT     0.417000        1.0080           0
   65181 WT4  1116 TIP3 H2   HT     0.417000        1.0080           0
   65182 WT4  1117 TIP3 OH2  OT    -0.834000       15.9994           0
   65183 WT4  1117 TIP3 H1   HT     0.417000        1.0080           0
   65184 WT4  1117 TIP3 H2   HT     0.417000        1.0080           0
   65185 WT4  1118 TIP3 OH2  OT    -0.834000       15.9994           0
   65186 WT4  1118 TIP3 H1   HT     0.417000        1.0080           0
   65187 WT4  1118 TIP3 H2   HT     0.417000        1.0080           0
   65188 WT4  1119 TIP3 OH2  OT    -0.834000       15.9994           0
   65189 WT4  1119 TIP3 H1   HT     0.417000        1.0080           0
   65190 WT4  1119 TIP3 H2   HT     0.417000        1.0080           0
   65191 WT4  1120 TIP3 OH2  OT    -0.834000       15.9994           0
   65192 WT4  1120 TIP3 H1   HT     0.417000        1.0080           0
   65193 WT4  1120 TIP3 H2   HT     0.417000        1.0080           0
   65194 WT4  1121 TIP3 OH2  OT    -0.834000       15.9994           0
   65195 WT4  1121 TIP3 H1   HT     0.417000        1.0080           0
   65196 WT4  1121 TIP3 H2   HT     0.417000        1.0080           0
   65197 WT4  1122 TIP3 OH2  OT    -0.834000       15.9994           0
   65198 WT4  1122 TIP3 H1   HT     0.417000        1.0080           0
   65199 WT4  1122 TIP3 H2   HT     0.417000        1.0080           0
   65200 WT4  1123 TIP3 OH2  OT    -0.834000       15.9994           0
   65201 WT4  1123 TIP3 H1   HT     0.417000        1.0080           0
   65202 WT4  1123 TIP3 H2   HT     0.417000        1.0080           0
   65203 WT4  1126 TIP3 OH2  OT    -0.834000       15.9994           0
   65204 WT4  1126 TIP3 H1   HT     0.417000        1.0080           0
   65205 WT4  1126 TIP3 H2   HT     0.417000        1.0080           0
   65206 WT4  1128 TIP3 OH2  OT    -0.834000       15.9994           0
   65207 WT4  1128 TIP3 H1   HT     0.417000        1.0080           0
   65208 WT4  1128 TIP3 H2   HT     0.417000        1.0080           0
   65209 WT4  1134 TIP3 OH2  OT    -0.834000       15.9994           0
   65210 WT4  1134 TIP3 H1   HT     0.417000        1.0080           0
   65211 WT4  1134 TIP3 H2   HT     0.417000        1.0080           0
   65212 WT4  1137 TIP3 OH2  OT    -0.834000       15.9994           0
   65213 WT4  1137 TIP3 H1   HT     0.417000        1.0080           0
   65214 WT4  1137 TIP3 H2   HT     0.417000        1.0080           0
   65215 WT4  1140 TIP3 OH2  OT    -0.834000       15.9994           0
   65216 WT4  1140 TIP3 H1   HT     0.417000        1.0080           0
   65217 WT4  1140 TIP3 H2   HT     0.417000        1.0080           0
   65218 WT4  1141 TIP3 OH2  OT    -0.834000       15.9994           0
   65219 WT4  1141 TIP3 H1   HT     0.417000        1.0080           0
   65220 WT4  1141 TIP3 H2   HT     0.417000        1.0080           0
   65221 WT4  1142 TIP3 OH2  OT    -0.834000       15.9994           0
   65222 WT4  1142 TIP3 H1   HT     0.417000        1.0080           0
   65223 WT4  1142 TIP3 H2   HT     0.417000        1.0080           0
   65224 WT4  1143 TIP3 OH2  OT    -0.834000       15.9994           0
   65225 WT4  1143 TIP3 H1   HT     0.417000        1.0080           0
   65226 WT4  1143 TIP3 H2   HT     0.417000        1.0080           0
   65227 WT4  1144 TIP3 OH2  OT    -0.834000       15.9994           0
   65228 WT4  1144 TIP3 H1   HT     0.417000        1.0080           0
   65229 WT4  1144 TIP3 H2   HT     0.417000        1.0080           0
   65230 WT4  1145 TIP3 OH2  OT    -0.834000       15.9994           0
   65231 WT4  1145 TIP3 H1   HT     0.417000        1.0080           0
   65232 WT4  1145 TIP3 H2   HT     0.417000        1.0080           0
   65233 WT4  1146 TIP3 OH2  OT    -0.834000       15.9994           0
   65234 WT4  1146 TIP3 H1   HT     0.417000        1.0080           0
   65235 WT4  1146 TIP3 H2   HT     0.417000        1.0080           0
   65236 WT4  1147 TIP3 OH2  OT    -0.834000       15.9994           0
   65237 WT4  1147 TIP3 H1   HT     0.417000        1.0080           0
   65238 WT4  1147 TIP3 H2   HT     0.417000        1.0080           0
   65239 WT4  1148 TIP3 OH2  OT    -0.834000       15.9994           0
   65240 WT4  1148 TIP3 H1   HT     0.417000        1.0080           0
   65241 WT4  1148 TIP3 H2   HT     0.417000        1.0080           0
   65242 WT4  1150 TIP3 OH2  OT    -0.834000       15.9994           0
   65243 WT4  1150 TIP3 H1   HT     0.417000        1.0080           0
   65244 WT4  1150 TIP3 H2   HT     0.417000        1.0080           0
   65245 WT4  1158 TIP3 OH2  OT    -0.834000       15.9994           0
   65246 WT4  1158 TIP3 H1   HT     0.417000        1.0080           0
   65247 WT4  1158 TIP3 H2   HT     0.417000        1.0080           0
   65248 WT4  1164 TIP3 OH2  OT    -0.834000       15.9994           0
   65249 WT4  1164 TIP3 H1   HT     0.417000        1.0080           0
   65250 WT4  1164 TIP3 H2   HT     0.417000        1.0080           0
   65251 WT4  1165 TIP3 OH2  OT    -0.834000       15.9994           0
   65252 WT4  1165 TIP3 H1   HT     0.417000        1.0080           0
   65253 WT4  1165 TIP3 H2   HT     0.417000        1.0080           0
   65254 WT4  1167 TIP3 OH2  OT    -0.834000       15.9994           0
   65255 WT4  1167 TIP3 H1   HT     0.417000        1.0080           0
   65256 WT4  1167 TIP3 H2   HT     0.417000        1.0080           0
   65257 WT4  1178 TIP3 OH2  OT    -0.834000       15.9994           0
   65258 WT4  1178 TIP3 H1   HT     0.417000        1.0080           0
   65259 WT4  1178 TIP3 H2   HT     0.417000        1.0080           0
   65260 WT4  1179 TIP3 OH2  OT    -0.834000       15.9994           0
   65261 WT4  1179 TIP3 H1   HT     0.417000        1.0080           0
   65262 WT4  1179 TIP3 H2   HT     0.417000        1.0080           0
   65263 WT4  1182 TIP3 OH2  OT    -0.834000       15.9994           0
   65264 WT4  1182 TIP3 H1   HT     0.417000        1.0080           0
   65265 WT4  1182 TIP3 H2   HT     0.417000        1.0080           0
   65266 WT4  1183 TIP3 OH2  OT    -0.834000       15.9994           0
   65267 WT4  1183 TIP3 H1   HT     0.417000        1.0080           0
   65268 WT4  1183 TIP3 H2   HT     0.417000        1.0080           0
   65269 WT4  1186 TIP3 OH2  OT    -0.834000       15.9994           0
   65270 WT4  1186 TIP3 H1   HT     0.417000        1.0080           0
   65271 WT4  1186 TIP3 H2   HT     0.417000        1.0080           0
   65272 WT4  1187 TIP3 OH2  OT    -0.834000       15.9994           0
   65273 WT4  1187 TIP3 H1   HT     0.417000        1.0080           0
   65274 WT4  1187 TIP3 H2   HT     0.417000        1.0080           0
   65275 WT4  1188 TIP3 OH2  OT    -0.834000       15.9994           0
   65276 WT4  1188 TIP3 H1   HT     0.417000        1.0080           0
   65277 WT4  1188 TIP3 H2   HT     0.417000        1.0080           0
   65278 WT4  1189 TIP3 OH2  OT    -0.834000       15.9994           0
   65279 WT4  1189 TIP3 H1   HT     0.417000        1.0080           0
   65280 WT4  1189 TIP3 H2   HT     0.417000        1.0080           0
   65281 WT4  1190 TIP3 OH2  OT    -0.834000       15.9994           0
   65282 WT4  1190 TIP3 H1   HT     0.417000        1.0080           0
   65283 WT4  1190 TIP3 H2   HT     0.417000        1.0080           0
   65284 WT4  1194 TIP3 OH2  OT    -0.834000       15.9994           0
   65285 WT4  1194 TIP3 H1   HT     0.417000        1.0080           0
   65286 WT4  1194 TIP3 H2   HT     0.417000        1.0080           0
   65287 WT4  1197 TIP3 OH2  OT    -0.834000       15.9994           0
   65288 WT4  1197 TIP3 H1   HT     0.417000        1.0080           0
   65289 WT4  1197 TIP3 H2   HT     0.417000        1.0080           0
   65290 WT4  1200 TIP3 OH2  OT    -0.834000       15.9994           0
   65291 WT4  1200 TIP3 H1   HT     0.417000        1.0080           0
   65292 WT4  1200 TIP3 H2   HT     0.417000        1.0080           0
   65293 WT4  1201 TIP3 OH2  OT    -0.834000       15.9994           0
   65294 WT4  1201 TIP3 H1   HT     0.417000        1.0080           0
   65295 WT4  1201 TIP3 H2   HT     0.417000        1.0080           0
   65296 WT4  1202 TIP3 OH2  OT    -0.834000       15.9994           0
   65297 WT4  1202 TIP3 H1   HT     0.417000        1.0080           0
   65298 WT4  1202 TIP3 H2   HT     0.417000        1.0080           0
   65299 WT4  1203 TIP3 OH2  OT    -0.834000       15.9994           0
   65300 WT4  1203 TIP3 H1   HT     0.417000        1.0080           0
   65301 WT4  1203 TIP3 H2   HT     0.417000        1.0080           0
   65302 WT4  1204 TIP3 OH2  OT    -0.834000       15.9994           0
   65303 WT4  1204 TIP3 H1   HT     0.417000        1.0080           0
   65304 WT4  1204 TIP3 H2   HT     0.417000        1.0080           0
   65305 WT4  1205 TIP3 OH2  OT    -0.834000       15.9994           0
   65306 WT4  1205 TIP3 H1   HT     0.417000        1.0080           0
   65307 WT4  1205 TIP3 H2   HT     0.417000        1.0080           0
   65308 WT4  1206 TIP3 OH2  OT    -0.834000       15.9994           0
   65309 WT4  1206 TIP3 H1   HT     0.417000        1.0080           0
   65310 WT4  1206 TIP3 H2   HT     0.417000        1.0080           0
   65311 WT4  1211 TIP3 OH2  OT    -0.834000       15.9994           0
   65312 WT4  1211 TIP3 H1   HT     0.417000        1.0080           0
   65313 WT4  1211 TIP3 H2   HT     0.417000        1.0080           0
   65314 WT4  1215 TIP3 OH2  OT    -0.834000       15.9994           0
   65315 WT4  1215 TIP3 H1   HT     0.417000        1.0080           0
   65316 WT4  1215 TIP3 H2   HT     0.417000        1.0080           0
   65317 WT4  1217 TIP3 OH2  OT    -0.834000       15.9994           0
   65318 WT4  1217 TIP3 H1   HT     0.417000        1.0080           0
   65319 WT4  1217 TIP3 H2   HT     0.417000        1.0080           0
   65320 WT4  1227 TIP3 OH2  OT    -0.834000       15.9994           0
   65321 WT4  1227 TIP3 H1   HT     0.417000        1.0080           0
   65322 WT4  1227 TIP3 H2   HT     0.417000        1.0080           0
   65323 WT4  1233 TIP3 OH2  OT    -0.834000       15.9994           0
   65324 WT4  1233 TIP3 H1   HT     0.417000        1.0080           0
   65325 WT4  1233 TIP3 H2   HT     0.417000        1.0080           0
   65326 WT4  1241 TIP3 OH2  OT    -0.834000       15.9994           0
   65327 WT4  1241 TIP3 H1   HT     0.417000        1.0080           0
   65328 WT4  1241 TIP3 H2   HT     0.417000        1.0080           0
   65329 WT4  1268 TIP3 OH2  OT    -0.834000       15.9994           0
   65330 WT4  1268 TIP3 H1   HT     0.417000        1.0080           0
   65331 WT4  1268 TIP3 H2   HT     0.417000        1.0080           0
   65332 WT4  1271 TIP3 OH2  OT    -0.834000       15.9994           0
   65333 WT4  1271 TIP3 H1   HT     0.417000        1.0080           0
   65334 WT4  1271 TIP3 H2   HT     0.417000        1.0080           0
   65335 WT4  1272 TIP3 OH2  OT    -0.834000       15.9994           0
   65336 WT4  1272 TIP3 H1   HT     0.417000        1.0080           0
   65337 WT4  1272 TIP3 H2   HT     0.417000        1.0080           0
   65338 WT4  1274 TIP3 OH2  OT    -0.834000       15.9994           0
   65339 WT4  1274 TIP3 H1   HT     0.417000        1.0080           0
   65340 WT4  1274 TIP3 H2   HT     0.417000        1.0080           0
   65341 WT4  1297 TIP3 OH2  OT    -0.834000       15.9994           0
   65342 WT4  1297 TIP3 H1   HT     0.417000        1.0080           0
   65343 WT4  1297 TIP3 H2   HT     0.417000        1.0080           0
   65344 WT4  1298 TIP3 OH2  OT    -0.834000       15.9994           0
   65345 WT4  1298 TIP3 H1   HT     0.417000        1.0080           0
   65346 WT4  1298 TIP3 H2   HT     0.417000        1.0080           0
   65347 WT4  1301 TIP3 OH2  OT    -0.834000       15.9994           0
   65348 WT4  1301 TIP3 H1   HT     0.417000        1.0080           0
   65349 WT4  1301 TIP3 H2   HT     0.417000        1.0080           0
   65350 WT4  1305 TIP3 OH2  OT    -0.834000       15.9994           0
   65351 WT4  1305 TIP3 H1   HT     0.417000        1.0080           0
   65352 WT4  1305 TIP3 H2   HT     0.417000        1.0080           0
   65353 WT4  1307 TIP3 OH2  OT    -0.834000       15.9994           0
   65354 WT4  1307 TIP3 H1   HT     0.417000        1.0080           0
   65355 WT4  1307 TIP3 H2   HT     0.417000        1.0080           0
   65356 WT4  1308 TIP3 OH2  OT    -0.834000       15.9994           0
   65357 WT4  1308 TIP3 H1   HT     0.417000        1.0080           0
   65358 WT4  1308 TIP3 H2   HT     0.417000        1.0080           0
   65359 WT4  1309 TIP3 OH2  OT    -0.834000       15.9994           0
   65360 WT4  1309 TIP3 H1   HT     0.417000        1.0080           0
   65361 WT4  1309 TIP3 H2   HT     0.417000        1.0080           0
   65362 WT4  1310 TIP3 OH2  OT    -0.834000       15.9994           0
   65363 WT4  1310 TIP3 H1   HT     0.417000        1.0080           0
   65364 WT4  1310 TIP3 H2   HT     0.417000        1.0080           0
   65365 WT4  1311 TIP3 OH2  OT    -0.834000       15.9994           0
   65366 WT4  1311 TIP3 H1   HT     0.417000        1.0080           0
   65367 WT4  1311 TIP3 H2   HT     0.417000        1.0080           0
   65368 WT4  1313 TIP3 OH2  OT    -0.834000       15.9994           0
   65369 WT4  1313 TIP3 H1   HT     0.417000        1.0080           0
   65370 WT4  1313 TIP3 H2   HT     0.417000        1.0080           0
   65371 WT4  1317 TIP3 OH2  OT    -0.834000       15.9994           0
   65372 WT4  1317 TIP3 H1   HT     0.417000        1.0080           0
   65373 WT4  1317 TIP3 H2   HT     0.417000        1.0080           0
   65374 WT4  1322 TIP3 OH2  OT    -0.834000       15.9994           0
   65375 WT4  1322 TIP3 H1   HT     0.417000        1.0080           0
   65376 WT4  1322 TIP3 H2   HT     0.417000        1.0080           0
   65377 WT4  1326 TIP3 OH2  OT    -0.834000       15.9994           0
   65378 WT4  1326 TIP3 H1   HT     0.417000        1.0080           0
   65379 WT4  1326 TIP3 H2   HT     0.417000        1.0080           0
   65380 WT4  1327 TIP3 OH2  OT    -0.834000       15.9994           0
   65381 WT4  1327 TIP3 H1   HT     0.417000        1.0080           0
   65382 WT4  1327 TIP3 H2   HT     0.417000        1.0080           0
   65383 WT4  1329 TIP3 OH2  OT    -0.834000       15.9994           0
   65384 WT4  1329 TIP3 H1   HT     0.417000        1.0080           0
   65385 WT4  1329 TIP3 H2   HT     0.417000        1.0080           0
   65386 WT4  1330 TIP3 OH2  OT    -0.834000       15.9994           0
   65387 WT4  1330 TIP3 H1   HT     0.417000        1.0080           0
   65388 WT4  1330 TIP3 H2   HT     0.417000        1.0080           0
   65389 WT4  1331 TIP3 OH2  OT    -0.834000       15.9994           0
   65390 WT4  1331 TIP3 H1   HT     0.417000        1.0080           0
   65391 WT4  1331 TIP3 H2   HT     0.417000        1.0080           0
   65392 WT4  1332 TIP3 OH2  OT    -0.834000       15.9994           0
   65393 WT4  1332 TIP3 H1   HT     0.417000        1.0080           0
   65394 WT4  1332 TIP3 H2   HT     0.417000        1.0080           0
   65395 WT4  1333 TIP3 OH2  OT    -0.834000       15.9994           0
   65396 WT4  1333 TIP3 H1   HT     0.417000        1.0080           0
   65397 WT4  1333 TIP3 H2   HT     0.417000        1.0080           0
   65398 WT4  1334 TIP3 OH2  OT    -0.834000       15.9994           0
   65399 WT4  1334 TIP3 H1   HT     0.417000        1.0080           0
   65400 WT4  1334 TIP3 H2   HT     0.417000        1.0080           0
   65401 WT4  1337 TIP3 OH2  OT    -0.834000       15.9994           0
   65402 WT4  1337 TIP3 H1   HT     0.417000        1.0080           0
   65403 WT4  1337 TIP3 H2   HT     0.417000        1.0080           0
   65404 WT4  1344 TIP3 OH2  OT    -0.834000       15.9994           0
   65405 WT4  1344 TIP3 H1   HT     0.417000        1.0080           0
   65406 WT4  1344 TIP3 H2   HT     0.417000        1.0080           0
   65407 WT4  1346 TIP3 OH2  OT    -0.834000       15.9994           0
   65408 WT4  1346 TIP3 H1   HT     0.417000        1.0080           0
   65409 WT4  1346 TIP3 H2   HT     0.417000        1.0080           0
   65410 WT4  1347 TIP3 OH2  OT    -0.834000       15.9994           0
   65411 WT4  1347 TIP3 H1   HT     0.417000        1.0080           0
   65412 WT4  1347 TIP3 H2   HT     0.417000        1.0080           0
   65413 WT4  1349 TIP3 OH2  OT    -0.834000       15.9994           0
   65414 WT4  1349 TIP3 H1   HT     0.417000        1.0080           0
   65415 WT4  1349 TIP3 H2   HT     0.417000        1.0080           0
   65416 WT4  1350 TIP3 OH2  OT    -0.834000       15.9994           0
   65417 WT4  1350 TIP3 H1   HT     0.417000        1.0080           0
   65418 WT4  1350 TIP3 H2   HT     0.417000        1.0080           0
   65419 WT4  1351 TIP3 OH2  OT    -0.834000       15.9994           0
   65420 WT4  1351 TIP3 H1   HT     0.417000        1.0080           0
   65421 WT4  1351 TIP3 H2   HT     0.417000        1.0080           0
   65422 WT4  1352 TIP3 OH2  OT    -0.834000       15.9994           0
   65423 WT4  1352 TIP3 H1   HT     0.417000        1.0080           0
   65424 WT4  1352 TIP3 H2   HT     0.417000        1.0080           0
   65425 WT4  1354 TIP3 OH2  OT    -0.834000       15.9994           0
   65426 WT4  1354 TIP3 H1   HT     0.417000        1.0080           0
   65427 WT4  1354 TIP3 H2   HT     0.417000        1.0080           0
   65428 WT4  1355 TIP3 OH2  OT    -0.834000       15.9994           0
   65429 WT4  1355 TIP3 H1   HT     0.417000        1.0080           0
   65430 WT4  1355 TIP3 H2   HT     0.417000        1.0080           0
   65431 WT4  1356 TIP3 OH2  OT    -0.834000       15.9994           0
   65432 WT4  1356 TIP3 H1   HT     0.417000        1.0080           0
   65433 WT4  1356 TIP3 H2   HT     0.417000        1.0080           0
   65434 WT4  1357 TIP3 OH2  OT    -0.834000       15.9994           0
   65435 WT4  1357 TIP3 H1   HT     0.417000        1.0080           0
   65436 WT4  1357 TIP3 H2   HT     0.417000        1.0080           0
   65437 WT4  1361 TIP3 OH2  OT    -0.834000       15.9994           0
   65438 WT4  1361 TIP3 H1   HT     0.417000        1.0080           0
   65439 WT4  1361 TIP3 H2   HT     0.417000        1.0080           0
   65440 WT4  1367 TIP3 OH2  OT    -0.834000       15.9994           0
   65441 WT4  1367 TIP3 H1   HT     0.417000        1.0080           0
   65442 WT4  1367 TIP3 H2   HT     0.417000        1.0080           0
   65443 WT4  1368 TIP3 OH2  OT    -0.834000       15.9994           0
   65444 WT4  1368 TIP3 H1   HT     0.417000        1.0080           0
   65445 WT4  1368 TIP3 H2   HT     0.417000        1.0080           0
   65446 WT4  1370 TIP3 OH2  OT    -0.834000       15.9994           0
   65447 WT4  1370 TIP3 H1   HT     0.417000        1.0080           0
   65448 WT4  1370 TIP3 H2   HT     0.417000        1.0080           0
   65449 WT4  1371 TIP3 OH2  OT    -0.834000       15.9994           0
   65450 WT4  1371 TIP3 H1   HT     0.417000        1.0080           0
   65451 WT4  1371 TIP3 H2   HT     0.417000        1.0080           0
   65452 WT4  1372 TIP3 OH2  OT    -0.834000       15.9994           0
   65453 WT4  1372 TIP3 H1   HT     0.417000        1.0080           0
   65454 WT4  1372 TIP3 H2   HT     0.417000        1.0080           0
   65455 WT4  1374 TIP3 OH2  OT    -0.834000       15.9994           0
   65456 WT4  1374 TIP3 H1   HT     0.417000        1.0080           0
   65457 WT4  1374 TIP3 H2   HT     0.417000        1.0080           0
   65458 WT4  1375 TIP3 OH2  OT    -0.834000       15.9994           0
   65459 WT4  1375 TIP3 H1   HT     0.417000        1.0080           0
   65460 WT4  1375 TIP3 H2   HT     0.417000        1.0080           0
   65461 WT4  1376 TIP3 OH2  OT    -0.834000       15.9994           0
   65462 WT4  1376 TIP3 H1   HT     0.417000        1.0080           0
   65463 WT4  1376 TIP3 H2   HT     0.417000        1.0080           0
   65464 WT4  1379 TIP3 OH2  OT    -0.834000       15.9994           0
   65465 WT4  1379 TIP3 H1   HT     0.417000        1.0080           0
   65466 WT4  1379 TIP3 H2   HT     0.417000        1.0080           0
   65467 WT4  1380 TIP3 OH2  OT    -0.834000       15.9994           0
   65468 WT4  1380 TIP3 H1   HT     0.417000        1.0080           0
   65469 WT4  1380 TIP3 H2   HT     0.417000        1.0080           0
   65470 WT4  1386 TIP3 OH2  OT    -0.834000       15.9994           0
   65471 WT4  1386 TIP3 H1   HT     0.417000        1.0080           0
   65472 WT4  1386 TIP3 H2   HT     0.417000        1.0080           0
   65473 WT4  1387 TIP3 OH2  OT    -0.834000       15.9994           0
   65474 WT4  1387 TIP3 H1   HT     0.417000        1.0080           0
   65475 WT4  1387 TIP3 H2   HT     0.417000        1.0080           0
   65476 WT4  1388 TIP3 OH2  OT    -0.834000       15.9994           0
   65477 WT4  1388 TIP3 H1   HT     0.417000        1.0080           0
   65478 WT4  1388 TIP3 H2   HT     0.417000        1.0080           0
   65479 WT4  1389 TIP3 OH2  OT    -0.834000       15.9994           0
   65480 WT4  1389 TIP3 H1   HT     0.417000        1.0080           0
   65481 WT4  1389 TIP3 H2   HT     0.417000        1.0080           0
   65482 WT4  1392 TIP3 OH2  OT    -0.834000       15.9994           0
   65483 WT4  1392 TIP3 H1   HT     0.417000        1.0080           0
   65484 WT4  1392 TIP3 H2   HT     0.417000        1.0080           0
   65485 WT4  1393 TIP3 OH2  OT    -0.834000       15.9994           0
   65486 WT4  1393 TIP3 H1   HT     0.417000        1.0080           0
   65487 WT4  1393 TIP3 H2   HT     0.417000        1.0080           0
   65488 WT4  1394 TIP3 OH2  OT    -0.834000       15.9994           0
   65489 WT4  1394 TIP3 H1   HT     0.417000        1.0080           0
   65490 WT4  1394 TIP3 H2   HT     0.417000        1.0080           0
   65491 WT4  1395 TIP3 OH2  OT    -0.834000       15.9994           0
   65492 WT4  1395 TIP3 H1   HT     0.417000        1.0080           0
   65493 WT4  1395 TIP3 H2   HT     0.417000        1.0080           0
   65494 WT4  1396 TIP3 OH2  OT    -0.834000       15.9994           0
   65495 WT4  1396 TIP3 H1   HT     0.417000        1.0080           0
   65496 WT4  1396 TIP3 H2   HT     0.417000        1.0080           0
   65497 WT4  1397 TIP3 OH2  OT    -0.834000       15.9994           0
   65498 WT4  1397 TIP3 H1   HT     0.417000        1.0080           0
   65499 WT4  1397 TIP3 H2   HT     0.417000        1.0080           0
   65500 WT4  1398 TIP3 OH2  OT    -0.834000       15.9994           0
   65501 WT4  1398 TIP3 H1   HT     0.417000        1.0080           0
   65502 WT4  1398 TIP3 H2   HT     0.417000        1.0080           0
   65503 WT4  1407 TIP3 OH2  OT    -0.834000       15.9994           0
   65504 WT4  1407 TIP3 H1   HT     0.417000        1.0080           0
   65505 WT4  1407 TIP3 H2   HT     0.417000        1.0080           0
   65506 WT4  1408 TIP3 OH2  OT    -0.834000       15.9994           0
   65507 WT4  1408 TIP3 H1   HT     0.417000        1.0080           0
   65508 WT4  1408 TIP3 H2   HT     0.417000        1.0080           0
   65509 WT4  1411 TIP3 OH2  OT    -0.834000       15.9994           0
   65510 WT4  1411 TIP3 H1   HT     0.417000        1.0080           0
   65511 WT4  1411 TIP3 H2   HT     0.417000        1.0080           0
   65512 WT4  1412 TIP3 OH2  OT    -0.834000       15.9994           0
   65513 WT4  1412 TIP3 H1   HT     0.417000        1.0080           0
   65514 WT4  1412 TIP3 H2   HT     0.417000        1.0080           0
   65515 WT4  1413 TIP3 OH2  OT    -0.834000       15.9994           0
   65516 WT4  1413 TIP3 H1   HT     0.417000        1.0080           0
   65517 WT4  1413 TIP3 H2   HT     0.417000        1.0080           0
   65518 WT4  1414 TIP3 OH2  OT    -0.834000       15.9994           0
   65519 WT4  1414 TIP3 H1   HT     0.417000        1.0080           0
   65520 WT4  1414 TIP3 H2   HT     0.417000        1.0080           0
   65521 WT4  1415 TIP3 OH2  OT    -0.834000       15.9994           0
   65522 WT4  1415 TIP3 H1   HT     0.417000        1.0080           0
   65523 WT4  1415 TIP3 H2   HT     0.417000        1.0080           0
   65524 WT4  1416 TIP3 OH2  OT    -0.834000       15.9994           0
   65525 WT4  1416 TIP3 H1   HT     0.417000        1.0080           0
   65526 WT4  1416 TIP3 H2   HT     0.417000        1.0080           0
   65527 WT4  1417 TIP3 OH2  OT    -0.834000       15.9994           0
   65528 WT4  1417 TIP3 H1   HT     0.417000        1.0080           0
   65529 WT4  1417 TIP3 H2   HT     0.417000        1.0080           0
   65530 WT4  1418 TIP3 OH2  OT    -0.834000       15.9994           0
   65531 WT4  1418 TIP3 H1   HT     0.417000        1.0080           0
   65532 WT4  1418 TIP3 H2   HT     0.417000        1.0080           0
   65533 WT4  1419 TIP3 OH2  OT    -0.834000       15.9994           0
   65534 WT4  1419 TIP3 H1   HT     0.417000        1.0080           0
   65535 WT4  1419 TIP3 H2   HT     0.417000        1.0080           0
   65536 WT4  1420 TIP3 OH2  OT    -0.834000       15.9994           0
   65537 WT4  1420 TIP3 H1   HT     0.417000        1.0080           0
   65538 WT4  1420 TIP3 H2   HT     0.417000        1.0080           0
   65539 WT4  1421 TIP3 OH2  OT    -0.834000       15.9994           0
   65540 WT4  1421 TIP3 H1   HT     0.417000        1.0080           0
   65541 WT4  1421 TIP3 H2   HT     0.417000        1.0080           0
   65542 WT4  1422 TIP3 OH2  OT    -0.834000       15.9994           0
   65543 WT4  1422 TIP3 H1   HT     0.417000        1.0080           0
   65544 WT4  1422 TIP3 H2   HT     0.417000        1.0080           0
   65545 WT4  1425 TIP3 OH2  OT    -0.834000       15.9994           0
   65546 WT4  1425 TIP3 H1   HT     0.417000        1.0080           0
   65547 WT4  1425 TIP3 H2   HT     0.417000        1.0080           0
   65548 WT4  1427 TIP3 OH2  OT    -0.834000       15.9994           0
   65549 WT4  1427 TIP3 H1   HT     0.417000        1.0080           0
   65550 WT4  1427 TIP3 H2   HT     0.417000        1.0080           0
   65551 WT4  1428 TIP3 OH2  OT    -0.834000       15.9994           0
   65552 WT4  1428 TIP3 H1   HT     0.417000        1.0080           0
   65553 WT4  1428 TIP3 H2   HT     0.417000        1.0080           0
   65554 WT4  1429 TIP3 OH2  OT    -0.834000       15.9994           0
   65555 WT4  1429 TIP3 H1   HT     0.417000        1.0080           0
   65556 WT4  1429 TIP3 H2   HT     0.417000        1.0080           0
   65557 WT4  1430 TIP3 OH2  OT    -0.834000       15.9994           0
   65558 WT4  1430 TIP3 H1   HT     0.417000        1.0080           0
   65559 WT4  1430 TIP3 H2   HT     0.417000        1.0080           0
   65560 WT4  1431 TIP3 OH2  OT    -0.834000       15.9994           0
   65561 WT4  1431 TIP3 H1   HT     0.417000        1.0080           0
   65562 WT4  1431 TIP3 H2   HT     0.417000        1.0080           0
   65563 WT4  1433 TIP3 OH2  OT    -0.834000       15.9994           0
   65564 WT4  1433 TIP3 H1   HT     0.417000        1.0080           0
   65565 WT4  1433 TIP3 H2   HT     0.417000        1.0080           0
   65566 WT4  1434 TIP3 OH2  OT    -0.834000       15.9994           0
   65567 WT4  1434 TIP3 H1   HT     0.417000        1.0080           0
   65568 WT4  1434 TIP3 H2   HT     0.417000        1.0080           0
   65569 WT4  1435 TIP3 OH2  OT    -0.834000       15.9994           0
   65570 WT4  1435 TIP3 H1   HT     0.417000        1.0080           0
   65571 WT4  1435 TIP3 H2   HT     0.417000        1.0080           0
   65572 WT4  1436 TIP3 OH2  OT    -0.834000       15.9994           0
   65573 WT4  1436 TIP3 H1   HT     0.417000        1.0080           0
   65574 WT4  1436 TIP3 H2   HT     0.417000        1.0080           0
   65575 WT4  1437 TIP3 OH2  OT    -0.834000       15.9994           0
   65576 WT4  1437 TIP3 H1   HT     0.417000        1.0080           0
   65577 WT4  1437 TIP3 H2   HT     0.417000        1.0080           0
   65578 WT4  1438 TIP3 OH2  OT    -0.834000       15.9994           0
   65579 WT4  1438 TIP3 H1   HT     0.417000        1.0080           0
   65580 WT4  1438 TIP3 H2   HT     0.417000        1.0080           0
   65581 WT4  1439 TIP3 OH2  OT    -0.834000       15.9994           0
   65582 WT4  1439 TIP3 H1   HT     0.417000        1.0080           0
   65583 WT4  1439 TIP3 H2   HT     0.417000        1.0080           0
   65584 WT4  1440 TIP3 OH2  OT    -0.834000       15.9994           0
   65585 WT4  1440 TIP3 H1   HT     0.417000        1.0080           0
   65586 WT4  1440 TIP3 H2   HT     0.417000        1.0080           0
   65587 WT4  1441 TIP3 OH2  OT    -0.834000       15.9994           0
   65588 WT4  1441 TIP3 H1   HT     0.417000        1.0080           0
   65589 WT4  1441 TIP3 H2   HT     0.417000        1.0080           0
   65590 WT4  1442 TIP3 OH2  OT    -0.834000       15.9994           0
   65591 WT4  1442 TIP3 H1   HT     0.417000        1.0080           0
   65592 WT4  1442 TIP3 H2   HT     0.417000        1.0080           0
   65593 WT4  1443 TIP3 OH2  OT    -0.834000       15.9994           0
   65594 WT4  1443 TIP3 H1   HT     0.417000        1.0080           0
   65595 WT4  1443 TIP3 H2   HT     0.417000        1.0080           0
   65596 WT4  1450 TIP3 OH2  OT    -0.834000       15.9994           0
   65597 WT4  1450 TIP3 H1   HT     0.417000        1.0080           0
   65598 WT4  1450 TIP3 H2   HT     0.417000        1.0080           0
   65599 WT4  1451 TIP3 OH2  OT    -0.834000       15.9994           0
   65600 WT4  1451 TIP3 H1   HT     0.417000        1.0080           0
   65601 WT4  1451 TIP3 H2   HT     0.417000        1.0080           0
   65602 WT4  1452 TIP3 OH2  OT    -0.834000       15.9994           0
   65603 WT4  1452 TIP3 H1   HT     0.417000        1.0080           0
   65604 WT4  1452 TIP3 H2   HT     0.417000        1.0080           0
   65605 WT4  1453 TIP3 OH2  OT    -0.834000       15.9994           0
   65606 WT4  1453 TIP3 H1   HT     0.417000        1.0080           0
   65607 WT4  1453 TIP3 H2   HT     0.417000        1.0080           0
   65608 WT4  1454 TIP3 OH2  OT    -0.834000       15.9994           0
   65609 WT4  1454 TIP3 H1   HT     0.417000        1.0080           0
   65610 WT4  1454 TIP3 H2   HT     0.417000        1.0080           0
   65611 WT4  1455 TIP3 OH2  OT    -0.834000       15.9994           0
   65612 WT4  1455 TIP3 H1   HT     0.417000        1.0080           0
   65613 WT4  1455 TIP3 H2   HT     0.417000        1.0080           0
   65614 WT4  1456 TIP3 OH2  OT    -0.834000       15.9994           0
   65615 WT4  1456 TIP3 H1   HT     0.417000        1.0080           0
   65616 WT4  1456 TIP3 H2   HT     0.417000        1.0080           0
   65617 WT4  1457 TIP3 OH2  OT    -0.834000       15.9994           0
   65618 WT4  1457 TIP3 H1   HT     0.417000        1.0080           0
   65619 WT4  1457 TIP3 H2   HT     0.417000        1.0080           0
   65620 WT4  1458 TIP3 OH2  OT    -0.834000       15.9994           0
   65621 WT4  1458 TIP3 H1   HT     0.417000        1.0080           0
   65622 WT4  1458 TIP3 H2   HT     0.417000        1.0080           0
   65623 WT4  1459 TIP3 OH2  OT    -0.834000       15.9994           0
   65624 WT4  1459 TIP3 H1   HT     0.417000        1.0080           0
   65625 WT4  1459 TIP3 H2   HT     0.417000        1.0080           0
   65626 WT4  1460 TIP3 OH2  OT    -0.834000       15.9994           0
   65627 WT4  1460 TIP3 H1   HT     0.417000        1.0080           0
   65628 WT4  1460 TIP3 H2   HT     0.417000        1.0080           0
   65629 WT4  1461 TIP3 OH2  OT    -0.834000       15.9994           0
   65630 WT4  1461 TIP3 H1   HT     0.417000        1.0080           0
   65631 WT4  1461 TIP3 H2   HT     0.417000        1.0080           0
   65632 WT4  1463 TIP3 OH2  OT    -0.834000       15.9994           0
   65633 WT4  1463 TIP3 H1   HT     0.417000        1.0080           0
   65634 WT4  1463 TIP3 H2   HT     0.417000        1.0080           0
   65635 WT4  1465 TIP3 OH2  OT    -0.834000       15.9994           0
   65636 WT4  1465 TIP3 H1   HT     0.417000        1.0080           0
   65637 WT4  1465 TIP3 H2   HT     0.417000        1.0080           0
   65638 WT4  1466 TIP3 OH2  OT    -0.834000       15.9994           0
   65639 WT4  1466 TIP3 H1   HT     0.417000        1.0080           0
   65640 WT4  1466 TIP3 H2   HT     0.417000        1.0080           0
   65641 WT4  1471 TIP3 OH2  OT    -0.834000       15.9994           0
   65642 WT4  1471 TIP3 H1   HT     0.417000        1.0080           0
   65643 WT4  1471 TIP3 H2   HT     0.417000        1.0080           0
   65644 WT4  1474 TIP3 OH2  OT    -0.834000       15.9994           0
   65645 WT4  1474 TIP3 H1   HT     0.417000        1.0080           0
   65646 WT4  1474 TIP3 H2   HT     0.417000        1.0080           0
   65647 WT4  1475 TIP3 OH2  OT    -0.834000       15.9994           0
   65648 WT4  1475 TIP3 H1   HT     0.417000        1.0080           0
   65649 WT4  1475 TIP3 H2   HT     0.417000        1.0080           0
   65650 WT4  1476 TIP3 OH2  OT    -0.834000       15.9994           0
   65651 WT4  1476 TIP3 H1   HT     0.417000        1.0080           0
   65652 WT4  1476 TIP3 H2   HT     0.417000        1.0080           0
   65653 WT4  1477 TIP3 OH2  OT    -0.834000       15.9994           0
   65654 WT4  1477 TIP3 H1   HT     0.417000        1.0080           0
   65655 WT4  1477 TIP3 H2   HT     0.417000        1.0080           0
   65656 WT4  1478 TIP3 OH2  OT    -0.834000       15.9994           0
   65657 WT4  1478 TIP3 H1   HT     0.417000        1.0080           0
   65658 WT4  1478 TIP3 H2   HT     0.417000        1.0080           0
   65659 WT4  1479 TIP3 OH2  OT    -0.834000       15.9994           0
   65660 WT4  1479 TIP3 H1   HT     0.417000        1.0080           0
   65661 WT4  1479 TIP3 H2   HT     0.417000        1.0080           0
   65662 WT4  1480 TIP3 OH2  OT    -0.834000       15.9994           0
   65663 WT4  1480 TIP3 H1   HT     0.417000        1.0080           0
   65664 WT4  1480 TIP3 H2   HT     0.417000        1.0080           0
   65665 WT4  1481 TIP3 OH2  OT    -0.834000       15.9994           0
   65666 WT4  1481 TIP3 H1   HT     0.417000        1.0080           0
   65667 WT4  1481 TIP3 H2   HT     0.417000        1.0080           0
   65668 WT4  1482 TIP3 OH2  OT    -0.834000       15.9994           0
   65669 WT4  1482 TIP3 H1   HT     0.417000        1.0080           0
   65670 WT4  1482 TIP3 H2   HT     0.417000        1.0080           0
   65671 WT4  1483 TIP3 OH2  OT    -0.834000       15.9994           0
   65672 WT4  1483 TIP3 H1   HT     0.417000        1.0080           0
   65673 WT4  1483 TIP3 H2   HT     0.417000        1.0080           0
   65674 WT4  1485 TIP3 OH2  OT    -0.834000       15.9994           0
   65675 WT4  1485 TIP3 H1   HT     0.417000        1.0080           0
   65676 WT4  1485 TIP3 H2   HT     0.417000        1.0080           0
   65677 WT4  1492 TIP3 OH2  OT    -0.834000       15.9994           0
   65678 WT4  1492 TIP3 H1   HT     0.417000        1.0080           0
   65679 WT4  1492 TIP3 H2   HT     0.417000        1.0080           0
   65680 WT4  1493 TIP3 OH2  OT    -0.834000       15.9994           0
   65681 WT4  1493 TIP3 H1   HT     0.417000        1.0080           0
   65682 WT4  1493 TIP3 H2   HT     0.417000        1.0080           0
   65683 WT4  1494 TIP3 OH2  OT    -0.834000       15.9994           0
   65684 WT4  1494 TIP3 H1   HT     0.417000        1.0080           0
   65685 WT4  1494 TIP3 H2   HT     0.417000        1.0080           0
   65686 WT4  1496 TIP3 OH2  OT    -0.834000       15.9994           0
   65687 WT4  1496 TIP3 H1   HT     0.417000        1.0080           0
   65688 WT4  1496 TIP3 H2   HT     0.417000        1.0080           0
   65689 WT4  1497 TIP3 OH2  OT    -0.834000       15.9994           0
   65690 WT4  1497 TIP3 H1   HT     0.417000        1.0080           0
   65691 WT4  1497 TIP3 H2   HT     0.417000        1.0080           0
   65692 WT4  1499 TIP3 OH2  OT    -0.834000       15.9994           0
   65693 WT4  1499 TIP3 H1   HT     0.417000        1.0080           0
   65694 WT4  1499 TIP3 H2   HT     0.417000        1.0080           0
   65695 WT4  1500 TIP3 OH2  OT    -0.834000       15.9994           0
   65696 WT4  1500 TIP3 H1   HT     0.417000        1.0080           0
   65697 WT4  1500 TIP3 H2   HT     0.417000        1.0080           0
   65698 WT4  1501 TIP3 OH2  OT    -0.834000       15.9994           0
   65699 WT4  1501 TIP3 H1   HT     0.417000        1.0080           0
   65700 WT4  1501 TIP3 H2   HT     0.417000        1.0080           0
   65701 WT4  1502 TIP3 OH2  OT    -0.834000       15.9994           0
   65702 WT4  1502 TIP3 H1   HT     0.417000        1.0080           0
   65703 WT4  1502 TIP3 H2   HT     0.417000        1.0080           0
   65704 WT4  1503 TIP3 OH2  OT    -0.834000       15.9994           0
   65705 WT4  1503 TIP3 H1   HT     0.417000        1.0080           0
   65706 WT4  1503 TIP3 H2   HT     0.417000        1.0080           0
   65707 WT4  1504 TIP3 OH2  OT    -0.834000       15.9994           0
   65708 WT4  1504 TIP3 H1   HT     0.417000        1.0080           0
   65709 WT4  1504 TIP3 H2   HT     0.417000        1.0080           0
   65710 WT4  1506 TIP3 OH2  OT    -0.834000       15.9994           0
   65711 WT4  1506 TIP3 H1   HT     0.417000        1.0080           0
   65712 WT4  1506 TIP3 H2   HT     0.417000        1.0080           0
   65713 WT4  1512 TIP3 OH2  OT    -0.834000       15.9994           0
   65714 WT4  1512 TIP3 H1   HT     0.417000        1.0080           0
   65715 WT4  1512 TIP3 H2   HT     0.417000        1.0080           0
   65716 WT4  1514 TIP3 OH2  OT    -0.834000       15.9994           0
   65717 WT4  1514 TIP3 H1   HT     0.417000        1.0080           0
   65718 WT4  1514 TIP3 H2   HT     0.417000        1.0080           0
   65719 WT4  1515 TIP3 OH2  OT    -0.834000       15.9994           0
   65720 WT4  1515 TIP3 H1   HT     0.417000        1.0080           0
   65721 WT4  1515 TIP3 H2   HT     0.417000        1.0080           0
   65722 WT4  1517 TIP3 OH2  OT    -0.834000       15.9994           0
   65723 WT4  1517 TIP3 H1   HT     0.417000        1.0080           0
   65724 WT4  1517 TIP3 H2   HT     0.417000        1.0080           0
   65725 WT4  1518 TIP3 OH2  OT    -0.834000       15.9994           0
   65726 WT4  1518 TIP3 H1   HT     0.417000        1.0080           0
   65727 WT4  1518 TIP3 H2   HT     0.417000        1.0080           0
   65728 WT4  1519 TIP3 OH2  OT    -0.834000       15.9994           0
   65729 WT4  1519 TIP3 H1   HT     0.417000        1.0080           0
   65730 WT4  1519 TIP3 H2   HT     0.417000        1.0080           0
   65731 WT4  1520 TIP3 OH2  OT    -0.834000       15.9994           0
   65732 WT4  1520 TIP3 H1   HT     0.417000        1.0080           0
   65733 WT4  1520 TIP3 H2   HT     0.417000        1.0080           0
   65734 WT4  1521 TIP3 OH2  OT    -0.834000       15.9994           0
   65735 WT4  1521 TIP3 H1   HT     0.417000        1.0080           0
   65736 WT4  1521 TIP3 H2   HT     0.417000        1.0080           0
   65737 WT4  1522 TIP3 OH2  OT    -0.834000       15.9994           0
   65738 WT4  1522 TIP3 H1   HT     0.417000        1.0080           0
   65739 WT4  1522 TIP3 H2   HT     0.417000        1.0080           0
   65740 WT4  1523 TIP3 OH2  OT    -0.834000       15.9994           0
   65741 WT4  1523 TIP3 H1   HT     0.417000        1.0080           0
   65742 WT4  1523 TIP3 H2   HT     0.417000        1.0080           0
   65743 WT4  1524 TIP3 OH2  OT    -0.834000       15.9994           0
   65744 WT4  1524 TIP3 H1   HT     0.417000        1.0080           0
   65745 WT4  1524 TIP3 H2   HT     0.417000        1.0080           0
   65746 WT4  1525 TIP3 OH2  OT    -0.834000       15.9994           0
   65747 WT4  1525 TIP3 H1   HT     0.417000        1.0080           0
   65748 WT4  1525 TIP3 H2   HT     0.417000        1.0080           0
   65749 WT4  1526 TIP3 OH2  OT    -0.834000       15.9994           0
   65750 WT4  1526 TIP3 H1   HT     0.417000        1.0080           0
   65751 WT4  1526 TIP3 H2   HT     0.417000        1.0080           0
   65752 WT4  1527 TIP3 OH2  OT    -0.834000       15.9994           0
   65753 WT4  1527 TIP3 H1   HT     0.417000        1.0080           0
   65754 WT4  1527 TIP3 H2   HT     0.417000        1.0080           0
   65755 WT4  1531 TIP3 OH2  OT    -0.834000       15.9994           0
   65756 WT4  1531 TIP3 H1   HT     0.417000        1.0080           0
   65757 WT4  1531 TIP3 H2   HT     0.417000        1.0080           0
   65758 WT4  1532 TIP3 OH2  OT    -0.834000       15.9994           0
   65759 WT4  1532 TIP3 H1   HT     0.417000        1.0080           0
   65760 WT4  1532 TIP3 H2   HT     0.417000        1.0080           0
   65761 WT4  1534 TIP3 OH2  OT    -0.834000       15.9994           0
   65762 WT4  1534 TIP3 H1   HT     0.417000        1.0080           0
   65763 WT4  1534 TIP3 H2   HT     0.417000        1.0080           0
   65764 WT4  1535 TIP3 OH2  OT    -0.834000       15.9994           0
   65765 WT4  1535 TIP3 H1   HT     0.417000        1.0080           0
   65766 WT4  1535 TIP3 H2   HT     0.417000        1.0080           0
   65767 WT4  1537 TIP3 OH2  OT    -0.834000       15.9994           0
   65768 WT4  1537 TIP3 H1   HT     0.417000        1.0080           0
   65769 WT4  1537 TIP3 H2   HT     0.417000        1.0080           0
   65770 WT4  1538 TIP3 OH2  OT    -0.834000       15.9994           0
   65771 WT4  1538 TIP3 H1   HT     0.417000        1.0080           0
   65772 WT4  1538 TIP3 H2   HT     0.417000        1.0080           0
   65773 WT4  1539 TIP3 OH2  OT    -0.834000       15.9994           0
   65774 WT4  1539 TIP3 H1   HT     0.417000        1.0080           0
   65775 WT4  1539 TIP3 H2   HT     0.417000        1.0080           0
   65776 WT4  1540 TIP3 OH2  OT    -0.834000       15.9994           0
   65777 WT4  1540 TIP3 H1   HT     0.417000        1.0080           0
   65778 WT4  1540 TIP3 H2   HT     0.417000        1.0080           0
   65779 WT4  1541 TIP3 OH2  OT    -0.834000       15.9994           0
   65780 WT4  1541 TIP3 H1   HT     0.417000        1.0080           0
   65781 WT4  1541 TIP3 H2   HT     0.417000        1.0080           0
   65782 WT4  1542 TIP3 OH2  OT    -0.834000       15.9994           0
   65783 WT4  1542 TIP3 H1   HT     0.417000        1.0080           0
   65784 WT4  1542 TIP3 H2   HT     0.417000        1.0080           0
   65785 WT4  1543 TIP3 OH2  OT    -0.834000       15.9994           0
   65786 WT4  1543 TIP3 H1   HT     0.417000        1.0080           0
   65787 WT4  1543 TIP3 H2   HT     0.417000        1.0080           0
   65788 WT4  1544 TIP3 OH2  OT    -0.834000       15.9994           0
   65789 WT4  1544 TIP3 H1   HT     0.417000        1.0080           0
   65790 WT4  1544 TIP3 H2   HT     0.417000        1.0080           0
   65791 WT4  1545 TIP3 OH2  OT    -0.834000       15.9994           0
   65792 WT4  1545 TIP3 H1   HT     0.417000        1.0080           0
   65793 WT4  1545 TIP3 H2   HT     0.417000        1.0080           0
   65794 WT4  1546 TIP3 OH2  OT    -0.834000       15.9994           0
   65795 WT4  1546 TIP3 H1   HT     0.417000        1.0080           0
   65796 WT4  1546 TIP3 H2   HT     0.417000        1.0080           0
   65797 WT4  1547 TIP3 OH2  OT    -0.834000       15.9994           0
   65798 WT4  1547 TIP3 H1   HT     0.417000        1.0080           0
   65799 WT4  1547 TIP3 H2   HT     0.417000        1.0080           0
   65800 WT4  1551 TIP3 OH2  OT    -0.834000       15.9994           0
   65801 WT4  1551 TIP3 H1   HT     0.417000        1.0080           0
   65802 WT4  1551 TIP3 H2   HT     0.417000        1.0080           0
   65803 WT4  1552 TIP3 OH2  OT    -0.834000       15.9994           0
   65804 WT4  1552 TIP3 H1   HT     0.417000        1.0080           0
   65805 WT4  1552 TIP3 H2   HT     0.417000        1.0080           0
   65806 WT4  1555 TIP3 OH2  OT    -0.834000       15.9994           0
   65807 WT4  1555 TIP3 H1   HT     0.417000        1.0080           0
   65808 WT4  1555 TIP3 H2   HT     0.417000        1.0080           0
   65809 WT4  1557 TIP3 OH2  OT    -0.834000       15.9994           0
   65810 WT4  1557 TIP3 H1   HT     0.417000        1.0080           0
   65811 WT4  1557 TIP3 H2   HT     0.417000        1.0080           0
   65812 WT4  1558 TIP3 OH2  OT    -0.834000       15.9994           0
   65813 WT4  1558 TIP3 H1   HT     0.417000        1.0080           0
   65814 WT4  1558 TIP3 H2   HT     0.417000        1.0080           0
   65815 WT4  1559 TIP3 OH2  OT    -0.834000       15.9994           0
   65816 WT4  1559 TIP3 H1   HT     0.417000        1.0080           0
   65817 WT4  1559 TIP3 H2   HT     0.417000        1.0080           0
   65818 WT4  1560 TIP3 OH2  OT    -0.834000       15.9994           0
   65819 WT4  1560 TIP3 H1   HT     0.417000        1.0080           0
   65820 WT4  1560 TIP3 H2   HT     0.417000        1.0080           0
   65821 WT4  1561 TIP3 OH2  OT    -0.834000       15.9994           0
   65822 WT4  1561 TIP3 H1   HT     0.417000        1.0080           0
   65823 WT4  1561 TIP3 H2   HT     0.417000        1.0080           0
   65824 WT4  1564 TIP3 OH2  OT    -0.834000       15.9994           0
   65825 WT4  1564 TIP3 H1   HT     0.417000        1.0080           0
   65826 WT4  1564 TIP3 H2   HT     0.417000        1.0080           0
   65827 WT4  1565 TIP3 OH2  OT    -0.834000       15.9994           0
   65828 WT4  1565 TIP3 H1   HT     0.417000        1.0080           0
   65829 WT4  1565 TIP3 H2   HT     0.417000        1.0080           0
   65830 WT4  1576 TIP3 OH2  OT    -0.834000       15.9994           0
   65831 WT4  1576 TIP3 H1   HT     0.417000        1.0080           0
   65832 WT4  1576 TIP3 H2   HT     0.417000        1.0080           0
   65833 WT4  1577 TIP3 OH2  OT    -0.834000       15.9994           0
   65834 WT4  1577 TIP3 H1   HT     0.417000        1.0080           0
   65835 WT4  1577 TIP3 H2   HT     0.417000        1.0080           0
   65836 WT4  1581 TIP3 OH2  OT    -0.834000       15.9994           0
   65837 WT4  1581 TIP3 H1   HT     0.417000        1.0080           0
   65838 WT4  1581 TIP3 H2   HT     0.417000        1.0080           0
   65839 WT4  1582 TIP3 OH2  OT    -0.834000       15.9994           0
   65840 WT4  1582 TIP3 H1   HT     0.417000        1.0080           0
   65841 WT4  1582 TIP3 H2   HT     0.417000        1.0080           0
   65842 WT4  1583 TIP3 OH2  OT    -0.834000       15.9994           0
   65843 WT4  1583 TIP3 H1   HT     0.417000        1.0080           0
   65844 WT4  1583 TIP3 H2   HT     0.417000        1.0080           0
   65845 WT4  1584 TIP3 OH2  OT    -0.834000       15.9994           0
   65846 WT4  1584 TIP3 H1   HT     0.417000        1.0080           0
   65847 WT4  1584 TIP3 H2   HT     0.417000        1.0080           0
   65848 WT4  1585 TIP3 OH2  OT    -0.834000       15.9994           0
   65849 WT4  1585 TIP3 H1   HT     0.417000        1.0080           0
   65850 WT4  1585 TIP3 H2   HT     0.417000        1.0080           0
   65851 WT4  1586 TIP3 OH2  OT    -0.834000       15.9994           0
   65852 WT4  1586 TIP3 H1   HT     0.417000        1.0080           0
   65853 WT4  1586 TIP3 H2   HT     0.417000        1.0080           0
   65854 WT4  1587 TIP3 OH2  OT    -0.834000       15.9994           0
   65855 WT4  1587 TIP3 H1   HT     0.417000        1.0080           0
   65856 WT4  1587 TIP3 H2   HT     0.417000        1.0080           0
   65857 WT4  1589 TIP3 OH2  OT    -0.834000       15.9994           0
   65858 WT4  1589 TIP3 H1   HT     0.417000        1.0080           0
   65859 WT4  1589 TIP3 H2   HT     0.417000        1.0080           0
   65860 WT4  1590 TIP3 OH2  OT    -0.834000       15.9994           0
   65861 WT4  1590 TIP3 H1   HT     0.417000        1.0080           0
   65862 WT4  1590 TIP3 H2   HT     0.417000        1.0080           0
   65863 WT4  1592 TIP3 OH2  OT    -0.834000       15.9994           0
   65864 WT4  1592 TIP3 H1   HT     0.417000        1.0080           0
   65865 WT4  1592 TIP3 H2   HT     0.417000        1.0080           0
   65866 WT4  1593 TIP3 OH2  OT    -0.834000       15.9994           0
   65867 WT4  1593 TIP3 H1   HT     0.417000        1.0080           0
   65868 WT4  1593 TIP3 H2   HT     0.417000        1.0080           0
   65869 WT4  1598 TIP3 OH2  OT    -0.834000       15.9994           0
   65870 WT4  1598 TIP3 H1   HT     0.417000        1.0080           0
   65871 WT4  1598 TIP3 H2   HT     0.417000        1.0080           0
   65872 WT4  1600 TIP3 OH2  OT    -0.834000       15.9994           0
   65873 WT4  1600 TIP3 H1   HT     0.417000        1.0080           0
   65874 WT4  1600 TIP3 H2   HT     0.417000        1.0080           0
   65875 WT4  1601 TIP3 OH2  OT    -0.834000       15.9994           0
   65876 WT4  1601 TIP3 H1   HT     0.417000        1.0080           0
   65877 WT4  1601 TIP3 H2   HT     0.417000        1.0080           0
   65878 WT4  1603 TIP3 OH2  OT    -0.834000       15.9994           0
   65879 WT4  1603 TIP3 H1   HT     0.417000        1.0080           0
   65880 WT4  1603 TIP3 H2   HT     0.417000        1.0080           0
   65881 WT4  1608 TIP3 OH2  OT    -0.834000       15.9994           0
   65882 WT4  1608 TIP3 H1   HT     0.417000        1.0080           0
   65883 WT4  1608 TIP3 H2   HT     0.417000        1.0080           0
   65884 WT4  1609 TIP3 OH2  OT    -0.834000       15.9994           0
   65885 WT4  1609 TIP3 H1   HT     0.417000        1.0080           0
   65886 WT4  1609 TIP3 H2   HT     0.417000        1.0080           0
   65887 WT4  1610 TIP3 OH2  OT    -0.834000       15.9994           0
   65888 WT4  1610 TIP3 H1   HT     0.417000        1.0080           0
   65889 WT4  1610 TIP3 H2   HT     0.417000        1.0080           0
   65890 WT4  1611 TIP3 OH2  OT    -0.834000       15.9994           0
   65891 WT4  1611 TIP3 H1   HT     0.417000        1.0080           0
   65892 WT4  1611 TIP3 H2   HT     0.417000        1.0080           0
   65893 WT4  1612 TIP3 OH2  OT    -0.834000       15.9994           0
   65894 WT4  1612 TIP3 H1   HT     0.417000        1.0080           0
   65895 WT4  1612 TIP3 H2   HT     0.417000        1.0080           0
   65896 WT4  1616 TIP3 OH2  OT    -0.834000       15.9994           0
   65897 WT4  1616 TIP3 H1   HT     0.417000        1.0080           0
   65898 WT4  1616 TIP3 H2   HT     0.417000        1.0080           0
   65899 WT4  1618 TIP3 OH2  OT    -0.834000       15.9994           0
   65900 WT4  1618 TIP3 H1   HT     0.417000        1.0080           0
   65901 WT4  1618 TIP3 H2   HT     0.417000        1.0080           0
   65902 WT4  1621 TIP3 OH2  OT    -0.834000       15.9994           0
   65903 WT4  1621 TIP3 H1   HT     0.417000        1.0080           0
   65904 WT4  1621 TIP3 H2   HT     0.417000        1.0080           0
   65905 WT4  1623 TIP3 OH2  OT    -0.834000       15.9994           0
   65906 WT4  1623 TIP3 H1   HT     0.417000        1.0080           0
   65907 WT4  1623 TIP3 H2   HT     0.417000        1.0080           0
   65908 WT4  1624 TIP3 OH2  OT    -0.834000       15.9994           0
   65909 WT4  1624 TIP3 H1   HT     0.417000        1.0080           0
   65910 WT4  1624 TIP3 H2   HT     0.417000        1.0080           0
   65911 WT4  1625 TIP3 OH2  OT    -0.834000       15.9994           0
   65912 WT4  1625 TIP3 H1   HT     0.417000        1.0080           0
   65913 WT4  1625 TIP3 H2   HT     0.417000        1.0080           0
   65914 WT4  1626 TIP3 OH2  OT    -0.834000       15.9994           0
   65915 WT4  1626 TIP3 H1   HT     0.417000        1.0080           0
   65916 WT4  1626 TIP3 H2   HT     0.417000        1.0080           0
   65917 WT4  1629 TIP3 OH2  OT    -0.834000       15.9994           0
   65918 WT4  1629 TIP3 H1   HT     0.417000        1.0080           0
   65919 WT4  1629 TIP3 H2   HT     0.417000        1.0080           0
   65920 WT4  1630 TIP3 OH2  OT    -0.834000       15.9994           0
   65921 WT4  1630 TIP3 H1   HT     0.417000        1.0080           0
   65922 WT4  1630 TIP3 H2   HT     0.417000        1.0080           0
   65923 WT4  1638 TIP3 OH2  OT    -0.834000       15.9994           0
   65924 WT4  1638 TIP3 H1   HT     0.417000        1.0080           0
   65925 WT4  1638 TIP3 H2   HT     0.417000        1.0080           0
   65926 WT4  1640 TIP3 OH2  OT    -0.834000       15.9994           0
   65927 WT4  1640 TIP3 H1   HT     0.417000        1.0080           0
   65928 WT4  1640 TIP3 H2   HT     0.417000        1.0080           0
   65929 WT4  1642 TIP3 OH2  OT    -0.834000       15.9994           0
   65930 WT4  1642 TIP3 H1   HT     0.417000        1.0080           0
   65931 WT4  1642 TIP3 H2   HT     0.417000        1.0080           0
   65932 WT4  1643 TIP3 OH2  OT    -0.834000       15.9994           0
   65933 WT4  1643 TIP3 H1   HT     0.417000        1.0080           0
   65934 WT4  1643 TIP3 H2   HT     0.417000        1.0080           0
   65935 WT4  1650 TIP3 OH2  OT    -0.834000       15.9994           0
   65936 WT4  1650 TIP3 H1   HT     0.417000        1.0080           0
   65937 WT4  1650 TIP3 H2   HT     0.417000        1.0080           0
   65938 WT4  1658 TIP3 OH2  OT    -0.834000       15.9994           0
   65939 WT4  1658 TIP3 H1   HT     0.417000        1.0080           0
   65940 WT4  1658 TIP3 H2   HT     0.417000        1.0080           0
   65941 WT4  1665 TIP3 OH2  OT    -0.834000       15.9994           0
   65942 WT4  1665 TIP3 H1   HT     0.417000        1.0080           0
   65943 WT4  1665 TIP3 H2   HT     0.417000        1.0080           0
   65944 WT4  1666 TIP3 OH2  OT    -0.834000       15.9994           0
   65945 WT4  1666 TIP3 H1   HT     0.417000        1.0080           0
   65946 WT4  1666 TIP3 H2   HT     0.417000        1.0080           0
   65947 WT4  1670 TIP3 OH2  OT    -0.834000       15.9994           0
   65948 WT4  1670 TIP3 H1   HT     0.417000        1.0080           0
   65949 WT4  1670 TIP3 H2   HT     0.417000        1.0080           0
   65950 WT4  1692 TIP3 OH2  OT    -0.834000       15.9994           0
   65951 WT4  1692 TIP3 H1   HT     0.417000        1.0080           0
   65952 WT4  1692 TIP3 H2   HT     0.417000        1.0080           0
   65953 WT4  1707 TIP3 OH2  OT    -0.834000       15.9994           0
   65954 WT4  1707 TIP3 H1   HT     0.417000        1.0080           0
   65955 WT4  1707 TIP3 H2   HT     0.417000        1.0080           0
   65956 WT4  1711 TIP3 OH2  OT    -0.834000       15.9994           0
   65957 WT4  1711 TIP3 H1   HT     0.417000        1.0080           0
   65958 WT4  1711 TIP3 H2   HT     0.417000        1.0080           0
   65959 WT4  1712 TIP3 OH2  OT    -0.834000       15.9994           0
   65960 WT4  1712 TIP3 H1   HT     0.417000        1.0080           0
   65961 WT4  1712 TIP3 H2   HT     0.417000        1.0080           0
   65962 WT4  1716 TIP3 OH2  OT    -0.834000       15.9994           0
   65963 WT4  1716 TIP3 H1   HT     0.417000        1.0080           0
   65964 WT4  1716 TIP3 H2   HT     0.417000        1.0080           0
   65965 WT4  1718 TIP3 OH2  OT    -0.834000       15.9994           0
   65966 WT4  1718 TIP3 H1   HT     0.417000        1.0080           0
   65967 WT4  1718 TIP3 H2   HT     0.417000        1.0080           0
   65968 WT4  1722 TIP3 OH2  OT    -0.834000       15.9994           0
   65969 WT4  1722 TIP3 H1   HT     0.417000        1.0080           0
   65970 WT4  1722 TIP3 H2   HT     0.417000        1.0080           0
   65971 WT4  1723 TIP3 OH2  OT    -0.834000       15.9994           0
   65972 WT4  1723 TIP3 H1   HT     0.417000        1.0080           0
   65973 WT4  1723 TIP3 H2   HT     0.417000        1.0080           0
   65974 WT4  1725 TIP3 OH2  OT    -0.834000       15.9994           0
   65975 WT4  1725 TIP3 H1   HT     0.417000        1.0080           0
   65976 WT4  1725 TIP3 H2   HT     0.417000        1.0080           0
   65977 WT4  1727 TIP3 OH2  OT    -0.834000       15.9994           0
   65978 WT4  1727 TIP3 H1   HT     0.417000        1.0080           0
   65979 WT4  1727 TIP3 H2   HT     0.417000        1.0080           0
   65980 WT4  1729 TIP3 OH2  OT    -0.834000       15.9994           0
   65981 WT4  1729 TIP3 H1   HT     0.417000        1.0080           0
   65982 WT4  1729 TIP3 H2   HT     0.417000        1.0080           0
   65983 WT4  1730 TIP3 OH2  OT    -0.834000       15.9994           0
   65984 WT4  1730 TIP3 H1   HT     0.417000        1.0080           0
   65985 WT4  1730 TIP3 H2   HT     0.417000        1.0080           0
   65986 WT4  1733 TIP3 OH2  OT    -0.834000       15.9994           0
   65987 WT4  1733 TIP3 H1   HT     0.417000        1.0080           0
   65988 WT4  1733 TIP3 H2   HT     0.417000        1.0080           0
   65989 WT4  1735 TIP3 OH2  OT    -0.834000       15.9994           0
   65990 WT4  1735 TIP3 H1   HT     0.417000        1.0080           0
   65991 WT4  1735 TIP3 H2   HT     0.417000        1.0080           0
   65992 WT4  1744 TIP3 OH2  OT    -0.834000       15.9994           0
   65993 WT4  1744 TIP3 H1   HT     0.417000        1.0080           0
   65994 WT4  1744 TIP3 H2   HT     0.417000        1.0080           0
   65995 WT4  1746 TIP3 OH2  OT    -0.834000       15.9994           0
   65996 WT4  1746 TIP3 H1   HT     0.417000        1.0080           0
   65997 WT4  1746 TIP3 H2   HT     0.417000        1.0080           0
   65998 WT4  1748 TIP3 OH2  OT    -0.834000       15.9994           0
   65999 WT4  1748 TIP3 H1   HT     0.417000        1.0080           0
   66000 WT4  1748 TIP3 H2   HT     0.417000        1.0080           0
   66001 WT4  1750 TIP3 OH2  OT    -0.834000       15.9994           0
   66002 WT4  1750 TIP3 H1   HT     0.417000        1.0080           0
   66003 WT4  1750 TIP3 H2   HT     0.417000        1.0080           0
   66004 WT4  1752 TIP3 OH2  OT    -0.834000       15.9994           0
   66005 WT4  1752 TIP3 H1   HT     0.417000        1.0080           0
   66006 WT4  1752 TIP3 H2   HT     0.417000        1.0080           0
   66007 WT4  1755 TIP3 OH2  OT    -0.834000       15.9994           0
   66008 WT4  1755 TIP3 H1   HT     0.417000        1.0080           0
   66009 WT4  1755 TIP3 H2   HT     0.417000        1.0080           0
   66010 WT4  1757 TIP3 OH2  OT    -0.834000       15.9994           0
   66011 WT4  1757 TIP3 H1   HT     0.417000        1.0080           0
   66012 WT4  1757 TIP3 H2   HT     0.417000        1.0080           0
   66013 WT4  1764 TIP3 OH2  OT    -0.834000       15.9994           0
   66014 WT4  1764 TIP3 H1   HT     0.417000        1.0080           0
   66015 WT4  1764 TIP3 H2   HT     0.417000        1.0080           0
   66016 WT4  1766 TIP3 OH2  OT    -0.834000       15.9994           0
   66017 WT4  1766 TIP3 H1   HT     0.417000        1.0080           0
   66018 WT4  1766 TIP3 H2   HT     0.417000        1.0080           0
   66019 WT4  1768 TIP3 OH2  OT    -0.834000       15.9994           0
   66020 WT4  1768 TIP3 H1   HT     0.417000        1.0080           0
   66021 WT4  1768 TIP3 H2   HT     0.417000        1.0080           0
   66022 WT4  1771 TIP3 OH2  OT    -0.834000       15.9994           0
   66023 WT4  1771 TIP3 H1   HT     0.417000        1.0080           0
   66024 WT4  1771 TIP3 H2   HT     0.417000        1.0080           0
   66025 WT4  1772 TIP3 OH2  OT    -0.834000       15.9994           0
   66026 WT4  1772 TIP3 H1   HT     0.417000        1.0080           0
   66027 WT4  1772 TIP3 H2   HT     0.417000        1.0080           0
   66028 WT4  1773 TIP3 OH2  OT    -0.834000       15.9994           0
   66029 WT4  1773 TIP3 H1   HT     0.417000        1.0080           0
   66030 WT4  1773 TIP3 H2   HT     0.417000        1.0080           0
   66031 WT4  1775 TIP3 OH2  OT    -0.834000       15.9994           0
   66032 WT4  1775 TIP3 H1   HT     0.417000        1.0080           0
   66033 WT4  1775 TIP3 H2   HT     0.417000        1.0080           0
   66034 WT4  1776 TIP3 OH2  OT    -0.834000       15.9994           0
   66035 WT4  1776 TIP3 H1   HT     0.417000        1.0080           0
   66036 WT4  1776 TIP3 H2   HT     0.417000        1.0080           0
   66037 WT4  1778 TIP3 OH2  OT    -0.834000       15.9994           0
   66038 WT4  1778 TIP3 H1   HT     0.417000        1.0080           0
   66039 WT4  1778 TIP3 H2   HT     0.417000        1.0080           0
   66040 WT4  1788 TIP3 OH2  OT    -0.834000       15.9994           0
   66041 WT4  1788 TIP3 H1   HT     0.417000        1.0080           0
   66042 WT4  1788 TIP3 H2   HT     0.417000        1.0080           0
   66043 WT4  1789 TIP3 OH2  OT    -0.834000       15.9994           0
   66044 WT4  1789 TIP3 H1   HT     0.417000        1.0080           0
   66045 WT4  1789 TIP3 H2   HT     0.417000        1.0080           0
   66046 WT4  1790 TIP3 OH2  OT    -0.834000       15.9994           0
   66047 WT4  1790 TIP3 H1   HT     0.417000        1.0080           0
   66048 WT4  1790 TIP3 H2   HT     0.417000        1.0080           0
   66049 WT4  1794 TIP3 OH2  OT    -0.834000       15.9994           0
   66050 WT4  1794 TIP3 H1   HT     0.417000        1.0080           0
   66051 WT4  1794 TIP3 H2   HT     0.417000        1.0080           0
   66052 WT4  1795 TIP3 OH2  OT    -0.834000       15.9994           0
   66053 WT4  1795 TIP3 H1   HT     0.417000        1.0080           0
   66054 WT4  1795 TIP3 H2   HT     0.417000        1.0080           0
   66055 WT4  1796 TIP3 OH2  OT    -0.834000       15.9994           0
   66056 WT4  1796 TIP3 H1   HT     0.417000        1.0080           0
   66057 WT4  1796 TIP3 H2   HT     0.417000        1.0080           0
   66058 WT4  1798 TIP3 OH2  OT    -0.834000       15.9994           0
   66059 WT4  1798 TIP3 H1   HT     0.417000        1.0080           0
   66060 WT4  1798 TIP3 H2   HT     0.417000        1.0080           0
   66061 WT4  1808 TIP3 OH2  OT    -0.834000       15.9994           0
   66062 WT4  1808 TIP3 H1   HT     0.417000        1.0080           0
   66063 WT4  1808 TIP3 H2   HT     0.417000        1.0080           0
   66064 WT4  1810 TIP3 OH2  OT    -0.834000       15.9994           0
   66065 WT4  1810 TIP3 H1   HT     0.417000        1.0080           0
   66066 WT4  1810 TIP3 H2   HT     0.417000        1.0080           0
   66067 WT4  1811 TIP3 OH2  OT    -0.834000       15.9994           0
   66068 WT4  1811 TIP3 H1   HT     0.417000        1.0080           0
   66069 WT4  1811 TIP3 H2   HT     0.417000        1.0080           0
   66070 WT4  1812 TIP3 OH2  OT    -0.834000       15.9994           0
   66071 WT4  1812 TIP3 H1   HT     0.417000        1.0080           0
   66072 WT4  1812 TIP3 H2   HT     0.417000        1.0080           0
   66073 WT4  1813 TIP3 OH2  OT    -0.834000       15.9994           0
   66074 WT4  1813 TIP3 H1   HT     0.417000        1.0080           0
   66075 WT4  1813 TIP3 H2   HT     0.417000        1.0080           0
   66076 WT4  1814 TIP3 OH2  OT    -0.834000       15.9994           0
   66077 WT4  1814 TIP3 H1   HT     0.417000        1.0080           0
   66078 WT4  1814 TIP3 H2   HT     0.417000        1.0080           0
   66079 WT4  1815 TIP3 OH2  OT    -0.834000       15.9994           0
   66080 WT4  1815 TIP3 H1   HT     0.417000        1.0080           0
   66081 WT4  1815 TIP3 H2   HT     0.417000        1.0080           0
   66082 WT4  1816 TIP3 OH2  OT    -0.834000       15.9994           0
   66083 WT4  1816 TIP3 H1   HT     0.417000        1.0080           0
   66084 WT4  1816 TIP3 H2   HT     0.417000        1.0080           0
   66085 WT4  1817 TIP3 OH2  OT    -0.834000       15.9994           0
   66086 WT4  1817 TIP3 H1   HT     0.417000        1.0080           0
   66087 WT4  1817 TIP3 H2   HT     0.417000        1.0080           0
   66088 WT4  1818 TIP3 OH2  OT    -0.834000       15.9994           0
   66089 WT4  1818 TIP3 H1   HT     0.417000        1.0080           0
   66090 WT4  1818 TIP3 H2   HT     0.417000        1.0080           0
   66091 WT4  1820 TIP3 OH2  OT    -0.834000       15.9994           0
   66092 WT4  1820 TIP3 H1   HT     0.417000        1.0080           0
   66093 WT4  1820 TIP3 H2   HT     0.417000        1.0080           0
   66094 WT4  1821 TIP3 OH2  OT    -0.834000       15.9994           0
   66095 WT4  1821 TIP3 H1   HT     0.417000        1.0080           0
   66096 WT4  1821 TIP3 H2   HT     0.417000        1.0080           0
   66097 WT4  1824 TIP3 OH2  OT    -0.834000       15.9994           0
   66098 WT4  1824 TIP3 H1   HT     0.417000        1.0080           0
   66099 WT4  1824 TIP3 H2   HT     0.417000        1.0080           0
   66100 WT4  1829 TIP3 OH2  OT    -0.834000       15.9994           0
   66101 WT4  1829 TIP3 H1   HT     0.417000        1.0080           0
   66102 WT4  1829 TIP3 H2   HT     0.417000        1.0080           0
   66103 WT4  1830 TIP3 OH2  OT    -0.834000       15.9994           0
   66104 WT4  1830 TIP3 H1   HT     0.417000        1.0080           0
   66105 WT4  1830 TIP3 H2   HT     0.417000        1.0080           0
   66106 WT4  1831 TIP3 OH2  OT    -0.834000       15.9994           0
   66107 WT4  1831 TIP3 H1   HT     0.417000        1.0080           0
   66108 WT4  1831 TIP3 H2   HT     0.417000        1.0080           0
   66109 WT4  1832 TIP3 OH2  OT    -0.834000       15.9994           0
   66110 WT4  1832 TIP3 H1   HT     0.417000        1.0080           0
   66111 WT4  1832 TIP3 H2   HT     0.417000        1.0080           0
   66112 WT4  1833 TIP3 OH2  OT    -0.834000       15.9994           0
   66113 WT4  1833 TIP3 H1   HT     0.417000        1.0080           0
   66114 WT4  1833 TIP3 H2   HT     0.417000        1.0080           0
   66115 WT4  1835 TIP3 OH2  OT    -0.834000       15.9994           0
   66116 WT4  1835 TIP3 H1   HT     0.417000        1.0080           0
   66117 WT4  1835 TIP3 H2   HT     0.417000        1.0080           0
   66118 WT4  1836 TIP3 OH2  OT    -0.834000       15.9994           0
   66119 WT4  1836 TIP3 H1   HT     0.417000        1.0080           0
   66120 WT4  1836 TIP3 H2   HT     0.417000        1.0080           0
   66121 WT4  1837 TIP3 OH2  OT    -0.834000       15.9994           0
   66122 WT4  1837 TIP3 H1   HT     0.417000        1.0080           0
   66123 WT4  1837 TIP3 H2   HT     0.417000        1.0080           0
   66124 WT4  1838 TIP3 OH2  OT    -0.834000       15.9994           0
   66125 WT4  1838 TIP3 H1   HT     0.417000        1.0080           0
   66126 WT4  1838 TIP3 H2   HT     0.417000        1.0080           0
   66127 WT4  1839 TIP3 OH2  OT    -0.834000       15.9994           0
   66128 WT4  1839 TIP3 H1   HT     0.417000        1.0080           0
   66129 WT4  1839 TIP3 H2   HT     0.417000        1.0080           0
   66130 WT4  1840 TIP3 OH2  OT    -0.834000       15.9994           0
   66131 WT4  1840 TIP3 H1   HT     0.417000        1.0080           0
   66132 WT4  1840 TIP3 H2   HT     0.417000        1.0080           0
   66133 WT4  1841 TIP3 OH2  OT    -0.834000       15.9994           0
   66134 WT4  1841 TIP3 H1   HT     0.417000        1.0080           0
   66135 WT4  1841 TIP3 H2   HT     0.417000        1.0080           0
   66136 WT4  1844 TIP3 OH2  OT    -0.834000       15.9994           0
   66137 WT4  1844 TIP3 H1   HT     0.417000        1.0080           0
   66138 WT4  1844 TIP3 H2   HT     0.417000        1.0080           0
   66139 WT4  1847 TIP3 OH2  OT    -0.834000       15.9994           0
   66140 WT4  1847 TIP3 H1   HT     0.417000        1.0080           0
   66141 WT4  1847 TIP3 H2   HT     0.417000        1.0080           0
   66142 WT4  1850 TIP3 OH2  OT    -0.834000       15.9994           0
   66143 WT4  1850 TIP3 H1   HT     0.417000        1.0080           0
   66144 WT4  1850 TIP3 H2   HT     0.417000        1.0080           0
   66145 WT4  1851 TIP3 OH2  OT    -0.834000       15.9994           0
   66146 WT4  1851 TIP3 H1   HT     0.417000        1.0080           0
   66147 WT4  1851 TIP3 H2   HT     0.417000        1.0080           0
   66148 WT4  1852 TIP3 OH2  OT    -0.834000       15.9994           0
   66149 WT4  1852 TIP3 H1   HT     0.417000        1.0080           0
   66150 WT4  1852 TIP3 H2   HT     0.417000        1.0080           0
   66151 WT4  1853 TIP3 OH2  OT    -0.834000       15.9994           0
   66152 WT4  1853 TIP3 H1   HT     0.417000        1.0080           0
   66153 WT4  1853 TIP3 H2   HT     0.417000        1.0080           0
   66154 WT4  1854 TIP3 OH2  OT    -0.834000       15.9994           0
   66155 WT4  1854 TIP3 H1   HT     0.417000        1.0080           0
   66156 WT4  1854 TIP3 H2   HT     0.417000        1.0080           0
   66157 WT4  1855 TIP3 OH2  OT    -0.834000       15.9994           0
   66158 WT4  1855 TIP3 H1   HT     0.417000        1.0080           0
   66159 WT4  1855 TIP3 H2   HT     0.417000        1.0080           0
   66160 WT4  1856 TIP3 OH2  OT    -0.834000       15.9994           0
   66161 WT4  1856 TIP3 H1   HT     0.417000        1.0080           0
   66162 WT4  1856 TIP3 H2   HT     0.417000        1.0080           0
   66163 WT4  1857 TIP3 OH2  OT    -0.834000       15.9994           0
   66164 WT4  1857 TIP3 H1   HT     0.417000        1.0080           0
   66165 WT4  1857 TIP3 H2   HT     0.417000        1.0080           0
   66166 WT4  1858 TIP3 OH2  OT    -0.834000       15.9994           0
   66167 WT4  1858 TIP3 H1   HT     0.417000        1.0080           0
   66168 WT4  1858 TIP3 H2   HT     0.417000        1.0080           0
   66169 WT4  1859 TIP3 OH2  OT    -0.834000       15.9994           0
   66170 WT4  1859 TIP3 H1   HT     0.417000        1.0080           0
   66171 WT4  1859 TIP3 H2   HT     0.417000        1.0080           0
   66172 WT4  1860 TIP3 OH2  OT    -0.834000       15.9994           0
   66173 WT4  1860 TIP3 H1   HT     0.417000        1.0080           0
   66174 WT4  1860 TIP3 H2   HT     0.417000        1.0080           0
   66175 WT4  1861 TIP3 OH2  OT    -0.834000       15.9994           0
   66176 WT4  1861 TIP3 H1   HT     0.417000        1.0080           0
   66177 WT4  1861 TIP3 H2   HT     0.417000        1.0080           0
   66178 WT4  1862 TIP3 OH2  OT    -0.834000       15.9994           0
   66179 WT4  1862 TIP3 H1   HT     0.417000        1.0080           0
   66180 WT4  1862 TIP3 H2   HT     0.417000        1.0080           0
   66181 WT4  1864 TIP3 OH2  OT    -0.834000       15.9994           0
   66182 WT4  1864 TIP3 H1   HT     0.417000        1.0080           0
   66183 WT4  1864 TIP3 H2   HT     0.417000        1.0080           0
   66184 WT4  1866 TIP3 OH2  OT    -0.834000       15.9994           0
   66185 WT4  1866 TIP3 H1   HT     0.417000        1.0080           0
   66186 WT4  1866 TIP3 H2   HT     0.417000        1.0080           0
   66187 WT4  1870 TIP3 OH2  OT    -0.834000       15.9994           0
   66188 WT4  1870 TIP3 H1   HT     0.417000        1.0080           0
   66189 WT4  1870 TIP3 H2   HT     0.417000        1.0080           0
   66190 WT4  1871 TIP3 OH2  OT    -0.834000       15.9994           0
   66191 WT4  1871 TIP3 H1   HT     0.417000        1.0080           0
   66192 WT4  1871 TIP3 H2   HT     0.417000        1.0080           0
   66193 WT4  1872 TIP3 OH2  OT    -0.834000       15.9994           0
   66194 WT4  1872 TIP3 H1   HT     0.417000        1.0080           0
   66195 WT4  1872 TIP3 H2   HT     0.417000        1.0080           0
   66196 WT4  1873 TIP3 OH2  OT    -0.834000       15.9994           0
   66197 WT4  1873 TIP3 H1   HT     0.417000        1.0080           0
   66198 WT4  1873 TIP3 H2   HT     0.417000        1.0080           0
   66199 WT4  1874 TIP3 OH2  OT    -0.834000       15.9994           0
   66200 WT4  1874 TIP3 H1   HT     0.417000        1.0080           0
   66201 WT4  1874 TIP3 H2   HT     0.417000        1.0080           0
   66202 WT4  1875 TIP3 OH2  OT    -0.834000       15.9994           0
   66203 WT4  1875 TIP3 H1   HT     0.417000        1.0080           0
   66204 WT4  1875 TIP3 H2   HT     0.417000        1.0080           0
   66205 WT4  1876 TIP3 OH2  OT    -0.834000       15.9994           0
   66206 WT4  1876 TIP3 H1   HT     0.417000        1.0080           0
   66207 WT4  1876 TIP3 H2   HT     0.417000        1.0080           0
   66208 WT4  1877 TIP3 OH2  OT    -0.834000       15.9994           0
   66209 WT4  1877 TIP3 H1   HT     0.417000        1.0080           0
   66210 WT4  1877 TIP3 H2   HT     0.417000        1.0080           0
   66211 WT4  1878 TIP3 OH2  OT    -0.834000       15.9994           0
   66212 WT4  1878 TIP3 H1   HT     0.417000        1.0080           0
   66213 WT4  1878 TIP3 H2   HT     0.417000        1.0080           0
   66214 WT4  1879 TIP3 OH2  OT    -0.834000       15.9994           0
   66215 WT4  1879 TIP3 H1   HT     0.417000        1.0080           0
   66216 WT4  1879 TIP3 H2   HT     0.417000        1.0080           0
   66217 WT4  1880 TIP3 OH2  OT    -0.834000       15.9994           0
   66218 WT4  1880 TIP3 H1   HT     0.417000        1.0080           0
   66219 WT4  1880 TIP3 H2   HT     0.417000        1.0080           0
   66220 WT4  1881 TIP3 OH2  OT    -0.834000       15.9994           0
   66221 WT4  1881 TIP3 H1   HT     0.417000        1.0080           0
   66222 WT4  1881 TIP3 H2   HT     0.417000        1.0080           0
   66223 WT4  1883 TIP3 OH2  OT    -0.834000       15.9994           0
   66224 WT4  1883 TIP3 H1   HT     0.417000        1.0080           0
   66225 WT4  1883 TIP3 H2   HT     0.417000        1.0080           0
   66226 WT4  1885 TIP3 OH2  OT    -0.834000       15.9994           0
   66227 WT4  1885 TIP3 H1   HT     0.417000        1.0080           0
   66228 WT4  1885 TIP3 H2   HT     0.417000        1.0080           0
   66229 WT4  1891 TIP3 OH2  OT    -0.834000       15.9994           0
   66230 WT4  1891 TIP3 H1   HT     0.417000        1.0080           0
   66231 WT4  1891 TIP3 H2   HT     0.417000        1.0080           0
   66232 WT4  1892 TIP3 OH2  OT    -0.834000       15.9994           0
   66233 WT4  1892 TIP3 H1   HT     0.417000        1.0080           0
   66234 WT4  1892 TIP3 H2   HT     0.417000        1.0080           0
   66235 WT4  1895 TIP3 OH2  OT    -0.834000       15.9994           0
   66236 WT4  1895 TIP3 H1   HT     0.417000        1.0080           0
   66237 WT4  1895 TIP3 H2   HT     0.417000        1.0080           0
   66238 WT4  1896 TIP3 OH2  OT    -0.834000       15.9994           0
   66239 WT4  1896 TIP3 H1   HT     0.417000        1.0080           0
   66240 WT4  1896 TIP3 H2   HT     0.417000        1.0080           0
   66241 WT4  1897 TIP3 OH2  OT    -0.834000       15.9994           0
   66242 WT4  1897 TIP3 H1   HT     0.417000        1.0080           0
   66243 WT4  1897 TIP3 H2   HT     0.417000        1.0080           0
   66244 WT4  1898 TIP3 OH2  OT    -0.834000       15.9994           0
   66245 WT4  1898 TIP3 H1   HT     0.417000        1.0080           0
   66246 WT4  1898 TIP3 H2   HT     0.417000        1.0080           0
   66247 WT4  1899 TIP3 OH2  OT    -0.834000       15.9994           0
   66248 WT4  1899 TIP3 H1   HT     0.417000        1.0080           0
   66249 WT4  1899 TIP3 H2   HT     0.417000        1.0080           0
   66250 WT4  1900 TIP3 OH2  OT    -0.834000       15.9994           0
   66251 WT4  1900 TIP3 H1   HT     0.417000        1.0080           0
   66252 WT4  1900 TIP3 H2   HT     0.417000        1.0080           0
   66253 WT4  1901 TIP3 OH2  OT    -0.834000       15.9994           0
   66254 WT4  1901 TIP3 H1   HT     0.417000        1.0080           0
   66255 WT4  1901 TIP3 H2   HT     0.417000        1.0080           0
   66256 WT4  1902 TIP3 OH2  OT    -0.834000       15.9994           0
   66257 WT4  1902 TIP3 H1   HT     0.417000        1.0080           0
   66258 WT4  1902 TIP3 H2   HT     0.417000        1.0080           0
   66259 WT4  1906 TIP3 OH2  OT    -0.834000       15.9994           0
   66260 WT4  1906 TIP3 H1   HT     0.417000        1.0080           0
   66261 WT4  1906 TIP3 H2   HT     0.417000        1.0080           0
   66262 WT4  1907 TIP3 OH2  OT    -0.834000       15.9994           0
   66263 WT4  1907 TIP3 H1   HT     0.417000        1.0080           0
   66264 WT4  1907 TIP3 H2   HT     0.417000        1.0080           0
   66265 WT4  1911 TIP3 OH2  OT    -0.834000       15.9994           0
   66266 WT4  1911 TIP3 H1   HT     0.417000        1.0080           0
   66267 WT4  1911 TIP3 H2   HT     0.417000        1.0080           0
   66268 WT4  1912 TIP3 OH2  OT    -0.834000       15.9994           0
   66269 WT4  1912 TIP3 H1   HT     0.417000        1.0080           0
   66270 WT4  1912 TIP3 H2   HT     0.417000        1.0080           0
   66271 WT4  1913 TIP3 OH2  OT    -0.834000       15.9994           0
   66272 WT4  1913 TIP3 H1   HT     0.417000        1.0080           0
   66273 WT4  1913 TIP3 H2   HT     0.417000        1.0080           0
   66274 WT4  1914 TIP3 OH2  OT    -0.834000       15.9994           0
   66275 WT4  1914 TIP3 H1   HT     0.417000        1.0080           0
   66276 WT4  1914 TIP3 H2   HT     0.417000        1.0080           0
   66277 WT4  1915 TIP3 OH2  OT    -0.834000       15.9994           0
   66278 WT4  1915 TIP3 H1   HT     0.417000        1.0080           0
   66279 WT4  1915 TIP3 H2   HT     0.417000        1.0080           0
   66280 WT4  1916 TIP3 OH2  OT    -0.834000       15.9994           0
   66281 WT4  1916 TIP3 H1   HT     0.417000        1.0080           0
   66282 WT4  1916 TIP3 H2   HT     0.417000        1.0080           0
   66283 WT4  1917 TIP3 OH2  OT    -0.834000       15.9994           0
   66284 WT4  1917 TIP3 H1   HT     0.417000        1.0080           0
   66285 WT4  1917 TIP3 H2   HT     0.417000        1.0080           0
   66286 WT4  1918 TIP3 OH2  OT    -0.834000       15.9994           0
   66287 WT4  1918 TIP3 H1   HT     0.417000        1.0080           0
   66288 WT4  1918 TIP3 H2   HT     0.417000        1.0080           0
   66289 WT4  1919 TIP3 OH2  OT    -0.834000       15.9994           0
   66290 WT4  1919 TIP3 H1   HT     0.417000        1.0080           0
   66291 WT4  1919 TIP3 H2   HT     0.417000        1.0080           0
   66292 WT4  1920 TIP3 OH2  OT    -0.834000       15.9994           0
   66293 WT4  1920 TIP3 H1   HT     0.417000        1.0080           0
   66294 WT4  1920 TIP3 H2   HT     0.417000        1.0080           0
   66295 WT4  1921 TIP3 OH2  OT    -0.834000       15.9994           0
   66296 WT4  1921 TIP3 H1   HT     0.417000        1.0080           0
   66297 WT4  1921 TIP3 H2   HT     0.417000        1.0080           0
   66298 WT4  1922 TIP3 OH2  OT    -0.834000       15.9994           0
   66299 WT4  1922 TIP3 H1   HT     0.417000        1.0080           0
   66300 WT4  1922 TIP3 H2   HT     0.417000        1.0080           0
   66301 WT4  1923 TIP3 OH2  OT    -0.834000       15.9994           0
   66302 WT4  1923 TIP3 H1   HT     0.417000        1.0080           0
   66303 WT4  1923 TIP3 H2   HT     0.417000        1.0080           0
   66304 WT4  1924 TIP3 OH2  OT    -0.834000       15.9994           0
   66305 WT4  1924 TIP3 H1   HT     0.417000        1.0080           0
   66306 WT4  1924 TIP3 H2   HT     0.417000        1.0080           0
   66307 WT4  1925 TIP3 OH2  OT    -0.834000       15.9994           0
   66308 WT4  1925 TIP3 H1   HT     0.417000        1.0080           0
   66309 WT4  1925 TIP3 H2   HT     0.417000        1.0080           0
   66310 WT4  1926 TIP3 OH2  OT    -0.834000       15.9994           0
   66311 WT4  1926 TIP3 H1   HT     0.417000        1.0080           0
   66312 WT4  1926 TIP3 H2   HT     0.417000        1.0080           0
   66313 WT4  1931 TIP3 OH2  OT    -0.834000       15.9994           0
   66314 WT4  1931 TIP3 H1   HT     0.417000        1.0080           0
   66315 WT4  1931 TIP3 H2   HT     0.417000        1.0080           0
   66316 WT4  1934 TIP3 OH2  OT    -0.834000       15.9994           0
   66317 WT4  1934 TIP3 H1   HT     0.417000        1.0080           0
   66318 WT4  1934 TIP3 H2   HT     0.417000        1.0080           0
   66319 WT4  1935 TIP3 OH2  OT    -0.834000       15.9994           0
   66320 WT4  1935 TIP3 H1   HT     0.417000        1.0080           0
   66321 WT4  1935 TIP3 H2   HT     0.417000        1.0080           0
   66322 WT4  1936 TIP3 OH2  OT    -0.834000       15.9994           0
   66323 WT4  1936 TIP3 H1   HT     0.417000        1.0080           0
   66324 WT4  1936 TIP3 H2   HT     0.417000        1.0080           0
   66325 WT4  1937 TIP3 OH2  OT    -0.834000       15.9994           0
   66326 WT4  1937 TIP3 H1   HT     0.417000        1.0080           0
   66327 WT4  1937 TIP3 H2   HT     0.417000        1.0080           0
   66328 WT4  1938 TIP3 OH2  OT    -0.834000       15.9994           0
   66329 WT4  1938 TIP3 H1   HT     0.417000        1.0080           0
   66330 WT4  1938 TIP3 H2   HT     0.417000        1.0080           0
   66331 WT4  1939 TIP3 OH2  OT    -0.834000       15.9994           0
   66332 WT4  1939 TIP3 H1   HT     0.417000        1.0080           0
   66333 WT4  1939 TIP3 H2   HT     0.417000        1.0080           0
   66334 WT4  1940 TIP3 OH2  OT    -0.834000       15.9994           0
   66335 WT4  1940 TIP3 H1   HT     0.417000        1.0080           0
   66336 WT4  1940 TIP3 H2   HT     0.417000        1.0080           0
   66337 WT4  1941 TIP3 OH2  OT    -0.834000       15.9994           0
   66338 WT4  1941 TIP3 H1   HT     0.417000        1.0080           0
   66339 WT4  1941 TIP3 H2   HT     0.417000        1.0080           0
   66340 WT4  1942 TIP3 OH2  OT    -0.834000       15.9994           0
   66341 WT4  1942 TIP3 H1   HT     0.417000        1.0080           0
   66342 WT4  1942 TIP3 H2   HT     0.417000        1.0080           0
   66343 WT4  1943 TIP3 OH2  OT    -0.834000       15.9994           0
   66344 WT4  1943 TIP3 H1   HT     0.417000        1.0080           0
   66345 WT4  1943 TIP3 H2   HT     0.417000        1.0080           0
   66346 WT4  1944 TIP3 OH2  OT    -0.834000       15.9994           0
   66347 WT4  1944 TIP3 H1   HT     0.417000        1.0080           0
   66348 WT4  1944 TIP3 H2   HT     0.417000        1.0080           0
   66349 WT4  1945 TIP3 OH2  OT    -0.834000       15.9994           0
   66350 WT4  1945 TIP3 H1   HT     0.417000        1.0080           0
   66351 WT4  1945 TIP3 H2   HT     0.417000        1.0080           0
   66352 WT4  1946 TIP3 OH2  OT    -0.834000       15.9994           0
   66353 WT4  1946 TIP3 H1   HT     0.417000        1.0080           0
   66354 WT4  1946 TIP3 H2   HT     0.417000        1.0080           0
   66355 WT4  1947 TIP3 OH2  OT    -0.834000       15.9994           0
   66356 WT4  1947 TIP3 H1   HT     0.417000        1.0080           0
   66357 WT4  1947 TIP3 H2   HT     0.417000        1.0080           0
   66358 WT4  1948 TIP3 OH2  OT    -0.834000       15.9994           0
   66359 WT4  1948 TIP3 H1   HT     0.417000        1.0080           0
   66360 WT4  1948 TIP3 H2   HT     0.417000        1.0080           0
   66361 WT4  1949 TIP3 OH2  OT    -0.834000       15.9994           0
   66362 WT4  1949 TIP3 H1   HT     0.417000        1.0080           0
   66363 WT4  1949 TIP3 H2   HT     0.417000        1.0080           0
   66364 WT4  1950 TIP3 OH2  OT    -0.834000       15.9994           0
   66365 WT4  1950 TIP3 H1   HT     0.417000        1.0080           0
   66366 WT4  1950 TIP3 H2   HT     0.417000        1.0080           0
   66367 WT4  1952 TIP3 OH2  OT    -0.834000       15.9994           0
   66368 WT4  1952 TIP3 H1   HT     0.417000        1.0080           0
   66369 WT4  1952 TIP3 H2   HT     0.417000        1.0080           0
   66370 WT4  1953 TIP3 OH2  OT    -0.834000       15.9994           0
   66371 WT4  1953 TIP3 H1   HT     0.417000        1.0080           0
   66372 WT4  1953 TIP3 H2   HT     0.417000        1.0080           0
   66373 WT4  1954 TIP3 OH2  OT    -0.834000       15.9994           0
   66374 WT4  1954 TIP3 H1   HT     0.417000        1.0080           0
   66375 WT4  1954 TIP3 H2   HT     0.417000        1.0080           0
   66376 WT4  1955 TIP3 OH2  OT    -0.834000       15.9994           0
   66377 WT4  1955 TIP3 H1   HT     0.417000        1.0080           0
   66378 WT4  1955 TIP3 H2   HT     0.417000        1.0080           0
   66379 WT4  1959 TIP3 OH2  OT    -0.834000       15.9994           0
   66380 WT4  1959 TIP3 H1   HT     0.417000        1.0080           0
   66381 WT4  1959 TIP3 H2   HT     0.417000        1.0080           0
   66382 WT4  1960 TIP3 OH2  OT    -0.834000       15.9994           0
   66383 WT4  1960 TIP3 H1   HT     0.417000        1.0080           0
   66384 WT4  1960 TIP3 H2   HT     0.417000        1.0080           0
   66385 WT4  1961 TIP3 OH2  OT    -0.834000       15.9994           0
   66386 WT4  1961 TIP3 H1   HT     0.417000        1.0080           0
   66387 WT4  1961 TIP3 H2   HT     0.417000        1.0080           0
   66388 WT4  1962 TIP3 OH2  OT    -0.834000       15.9994           0
   66389 WT4  1962 TIP3 H1   HT     0.417000        1.0080           0
   66390 WT4  1962 TIP3 H2   HT     0.417000        1.0080           0
   66391 WT4  1963 TIP3 OH2  OT    -0.834000       15.9994           0
   66392 WT4  1963 TIP3 H1   HT     0.417000        1.0080           0
   66393 WT4  1963 TIP3 H2   HT     0.417000        1.0080           0
   66394 WT4  1965 TIP3 OH2  OT    -0.834000       15.9994           0
   66395 WT4  1965 TIP3 H1   HT     0.417000        1.0080           0
   66396 WT4  1965 TIP3 H2   HT     0.417000        1.0080           0
   66397 WT4  1966 TIP3 OH2  OT    -0.834000       15.9994           0
   66398 WT4  1966 TIP3 H1   HT     0.417000        1.0080           0
   66399 WT4  1966 TIP3 H2   HT     0.417000        1.0080           0
   66400 WT4  1967 TIP3 OH2  OT    -0.834000       15.9994           0
   66401 WT4  1967 TIP3 H1   HT     0.417000        1.0080           0
   66402 WT4  1967 TIP3 H2   HT     0.417000        1.0080           0
   66403 WT4  1969 TIP3 OH2  OT    -0.834000       15.9994           0
   66404 WT4  1969 TIP3 H1   HT     0.417000        1.0080           0
   66405 WT4  1969 TIP3 H2   HT     0.417000        1.0080           0
   66406 WT4  1976 TIP3 OH2  OT    -0.834000       15.9994           0
   66407 WT4  1976 TIP3 H1   HT     0.417000        1.0080           0
   66408 WT4  1976 TIP3 H2   HT     0.417000        1.0080           0
   66409 WT4  1977 TIP3 OH2  OT    -0.834000       15.9994           0
   66410 WT4  1977 TIP3 H1   HT     0.417000        1.0080           0
   66411 WT4  1977 TIP3 H2   HT     0.417000        1.0080           0
   66412 WT4  1978 TIP3 OH2  OT    -0.834000       15.9994           0
   66413 WT4  1978 TIP3 H1   HT     0.417000        1.0080           0
   66414 WT4  1978 TIP3 H2   HT     0.417000        1.0080           0
   66415 WT4  1979 TIP3 OH2  OT    -0.834000       15.9994           0
   66416 WT4  1979 TIP3 H1   HT     0.417000        1.0080           0
   66417 WT4  1979 TIP3 H2   HT     0.417000        1.0080           0
   66418 WT4  1980 TIP3 OH2  OT    -0.834000       15.9994           0
   66419 WT4  1980 TIP3 H1   HT     0.417000        1.0080           0
   66420 WT4  1980 TIP3 H2   HT     0.417000        1.0080           0
   66421 WT4  1982 TIP3 OH2  OT    -0.834000       15.9994           0
   66422 WT4  1982 TIP3 H1   HT     0.417000        1.0080           0
   66423 WT4  1982 TIP3 H2   HT     0.417000        1.0080           0
   66424 WT4  1983 TIP3 OH2  OT    -0.834000       15.9994           0
   66425 WT4  1983 TIP3 H1   HT     0.417000        1.0080           0
   66426 WT4  1983 TIP3 H2   HT     0.417000        1.0080           0
   66427 WT4  1984 TIP3 OH2  OT    -0.834000       15.9994           0
   66428 WT4  1984 TIP3 H1   HT     0.417000        1.0080           0
   66429 WT4  1984 TIP3 H2   HT     0.417000        1.0080           0
   66430 WT4  1986 TIP3 OH2  OT    -0.834000       15.9994           0
   66431 WT4  1986 TIP3 H1   HT     0.417000        1.0080           0
   66432 WT4  1986 TIP3 H2   HT     0.417000        1.0080           0
   66433 WT4  1987 TIP3 OH2  OT    -0.834000       15.9994           0
   66434 WT4  1987 TIP3 H1   HT     0.417000        1.0080           0
   66435 WT4  1987 TIP3 H2   HT     0.417000        1.0080           0
   66436 WT4  1988 TIP3 OH2  OT    -0.834000       15.9994           0
   66437 WT4  1988 TIP3 H1   HT     0.417000        1.0080           0
   66438 WT4  1988 TIP3 H2   HT     0.417000        1.0080           0
   66439 WT4  1989 TIP3 OH2  OT    -0.834000       15.9994           0
   66440 WT4  1989 TIP3 H1   HT     0.417000        1.0080           0
   66441 WT4  1989 TIP3 H2   HT     0.417000        1.0080           0
   66442 WT4  1993 TIP3 OH2  OT    -0.834000       15.9994           0
   66443 WT4  1993 TIP3 H1   HT     0.417000        1.0080           0
   66444 WT4  1993 TIP3 H2   HT     0.417000        1.0080           0
   66445 WT4  1998 TIP3 OH2  OT    -0.834000       15.9994           0
   66446 WT4  1998 TIP3 H1   HT     0.417000        1.0080           0
   66447 WT4  1998 TIP3 H2   HT     0.417000        1.0080           0
   66448 WT4  1999 TIP3 OH2  OT    -0.834000       15.9994           0
   66449 WT4  1999 TIP3 H1   HT     0.417000        1.0080           0
   66450 WT4  1999 TIP3 H2   HT     0.417000        1.0080           0
   66451 WT4  2000 TIP3 OH2  OT    -0.834000       15.9994           0
   66452 WT4  2000 TIP3 H1   HT     0.417000        1.0080           0
   66453 WT4  2000 TIP3 H2   HT     0.417000        1.0080           0
   66454 WT4  2002 TIP3 OH2  OT    -0.834000       15.9994           0
   66455 WT4  2002 TIP3 H1   HT     0.417000        1.0080           0
   66456 WT4  2002 TIP3 H2   HT     0.417000        1.0080           0
   66457 WT4  2003 TIP3 OH2  OT    -0.834000       15.9994           0
   66458 WT4  2003 TIP3 H1   HT     0.417000        1.0080           0
   66459 WT4  2003 TIP3 H2   HT     0.417000        1.0080           0
   66460 WT4  2004 TIP3 OH2  OT    -0.834000       15.9994           0
   66461 WT4  2004 TIP3 H1   HT     0.417000        1.0080           0
   66462 WT4  2004 TIP3 H2   HT     0.417000        1.0080           0
   66463 WT4  2005 TIP3 OH2  OT    -0.834000       15.9994           0
   66464 WT4  2005 TIP3 H1   HT     0.417000        1.0080           0
   66465 WT4  2005 TIP3 H2   HT     0.417000        1.0080           0
   66466 WT4  2006 TIP3 OH2  OT    -0.834000       15.9994           0
   66467 WT4  2006 TIP3 H1   HT     0.417000        1.0080           0
   66468 WT4  2006 TIP3 H2   HT     0.417000        1.0080           0
   66469 WT4  2007 TIP3 OH2  OT    -0.834000       15.9994           0
   66470 WT4  2007 TIP3 H1   HT     0.417000        1.0080           0
   66471 WT4  2007 TIP3 H2   HT     0.417000        1.0080           0
   66472 WT4  2009 TIP3 OH2  OT    -0.834000       15.9994           0
   66473 WT4  2009 TIP3 H1   HT     0.417000        1.0080           0
   66474 WT4  2009 TIP3 H2   HT     0.417000        1.0080           0
   66475 WT4  2014 TIP3 OH2  OT    -0.834000       15.9994           0
   66476 WT4  2014 TIP3 H1   HT     0.417000        1.0080           0
   66477 WT4  2014 TIP3 H2   HT     0.417000        1.0080           0
   66478 WT4  2016 TIP3 OH2  OT    -0.834000       15.9994           0
   66479 WT4  2016 TIP3 H1   HT     0.417000        1.0080           0
   66480 WT4  2016 TIP3 H2   HT     0.417000        1.0080           0
   66481 WT4  2018 TIP3 OH2  OT    -0.834000       15.9994           0
   66482 WT4  2018 TIP3 H1   HT     0.417000        1.0080           0
   66483 WT4  2018 TIP3 H2   HT     0.417000        1.0080           0
   66484 WT4  2019 TIP3 OH2  OT    -0.834000       15.9994           0
   66485 WT4  2019 TIP3 H1   HT     0.417000        1.0080           0
   66486 WT4  2019 TIP3 H2   HT     0.417000        1.0080           0
   66487 WT4  2020 TIP3 OH2  OT    -0.834000       15.9994           0
   66488 WT4  2020 TIP3 H1   HT     0.417000        1.0080           0
   66489 WT4  2020 TIP3 H2   HT     0.417000        1.0080           0
   66490 WT4  2021 TIP3 OH2  OT    -0.834000       15.9994           0
   66491 WT4  2021 TIP3 H1   HT     0.417000        1.0080           0
   66492 WT4  2021 TIP3 H2   HT     0.417000        1.0080           0
   66493 WT4  2022 TIP3 OH2  OT    -0.834000       15.9994           0
   66494 WT4  2022 TIP3 H1   HT     0.417000        1.0080           0
   66495 WT4  2022 TIP3 H2   HT     0.417000        1.0080           0
   66496 WT4  2025 TIP3 OH2  OT    -0.834000       15.9994           0
   66497 WT4  2025 TIP3 H1   HT     0.417000        1.0080           0
   66498 WT4  2025 TIP3 H2   HT     0.417000        1.0080           0
   66499 WT4  2026 TIP3 OH2  OT    -0.834000       15.9994           0
   66500 WT4  2026 TIP3 H1   HT     0.417000        1.0080           0
   66501 WT4  2026 TIP3 H2   HT     0.417000        1.0080           0
   66502 WT4  2027 TIP3 OH2  OT    -0.834000       15.9994           0
   66503 WT4  2027 TIP3 H1   HT     0.417000        1.0080           0
   66504 WT4  2027 TIP3 H2   HT     0.417000        1.0080           0
   66505 WT4  2028 TIP3 OH2  OT    -0.834000       15.9994           0
   66506 WT4  2028 TIP3 H1   HT     0.417000        1.0080           0
   66507 WT4  2028 TIP3 H2   HT     0.417000        1.0080           0
   66508 WT4  2029 TIP3 OH2  OT    -0.834000       15.9994           0
   66509 WT4  2029 TIP3 H1   HT     0.417000        1.0080           0
   66510 WT4  2029 TIP3 H2   HT     0.417000        1.0080           0
   66511 WT4  2031 TIP3 OH2  OT    -0.834000       15.9994           0
   66512 WT4  2031 TIP3 H1   HT     0.417000        1.0080           0
   66513 WT4  2031 TIP3 H2   HT     0.417000        1.0080           0
   66514 WT4  2037 TIP3 OH2  OT    -0.834000       15.9994           0
   66515 WT4  2037 TIP3 H1   HT     0.417000        1.0080           0
   66516 WT4  2037 TIP3 H2   HT     0.417000        1.0080           0
   66517 WT4  2038 TIP3 OH2  OT    -0.834000       15.9994           0
   66518 WT4  2038 TIP3 H1   HT     0.417000        1.0080           0
   66519 WT4  2038 TIP3 H2   HT     0.417000        1.0080           0
   66520 WT4  2039 TIP3 OH2  OT    -0.834000       15.9994           0
   66521 WT4  2039 TIP3 H1   HT     0.417000        1.0080           0
   66522 WT4  2039 TIP3 H2   HT     0.417000        1.0080           0
   66523 WT4  2040 TIP3 OH2  OT    -0.834000       15.9994           0
   66524 WT4  2040 TIP3 H1   HT     0.417000        1.0080           0
   66525 WT4  2040 TIP3 H2   HT     0.417000        1.0080           0
   66526 WT4  2042 TIP3 OH2  OT    -0.834000       15.9994           0
   66527 WT4  2042 TIP3 H1   HT     0.417000        1.0080           0
   66528 WT4  2042 TIP3 H2   HT     0.417000        1.0080           0
   66529 WT4  2043 TIP3 OH2  OT    -0.834000       15.9994           0
   66530 WT4  2043 TIP3 H1   HT     0.417000        1.0080           0
   66531 WT4  2043 TIP3 H2   HT     0.417000        1.0080           0
   66532 WT4  2044 TIP3 OH2  OT    -0.834000       15.9994           0
   66533 WT4  2044 TIP3 H1   HT     0.417000        1.0080           0
   66534 WT4  2044 TIP3 H2   HT     0.417000        1.0080           0
   66535 WT4  2045 TIP3 OH2  OT    -0.834000       15.9994           0
   66536 WT4  2045 TIP3 H1   HT     0.417000        1.0080           0
   66537 WT4  2045 TIP3 H2   HT     0.417000        1.0080           0
   66538 WT4  2049 TIP3 OH2  OT    -0.834000       15.9994           0
   66539 WT4  2049 TIP3 H1   HT     0.417000        1.0080           0
   66540 WT4  2049 TIP3 H2   HT     0.417000        1.0080           0
   66541 WT4  2050 TIP3 OH2  OT    -0.834000       15.9994           0
   66542 WT4  2050 TIP3 H1   HT     0.417000        1.0080           0
   66543 WT4  2050 TIP3 H2   HT     0.417000        1.0080           0
   66544 WT4  2052 TIP3 OH2  OT    -0.834000       15.9994           0
   66545 WT4  2052 TIP3 H1   HT     0.417000        1.0080           0
   66546 WT4  2052 TIP3 H2   HT     0.417000        1.0080           0
   66547 WT4  2053 TIP3 OH2  OT    -0.834000       15.9994           0
   66548 WT4  2053 TIP3 H1   HT     0.417000        1.0080           0
   66549 WT4  2053 TIP3 H2   HT     0.417000        1.0080           0
   66550 WT4  2060 TIP3 OH2  OT    -0.834000       15.9994           0
   66551 WT4  2060 TIP3 H1   HT     0.417000        1.0080           0
   66552 WT4  2060 TIP3 H2   HT     0.417000        1.0080           0
   66553 WT4  2061 TIP3 OH2  OT    -0.834000       15.9994           0
   66554 WT4  2061 TIP3 H1   HT     0.417000        1.0080           0
   66555 WT4  2061 TIP3 H2   HT     0.417000        1.0080           0
   66556 WT4  2070 TIP3 OH2  OT    -0.834000       15.9994           0
   66557 WT4  2070 TIP3 H1   HT     0.417000        1.0080           0
   66558 WT4  2070 TIP3 H2   HT     0.417000        1.0080           0
   66559 WT4  2073 TIP3 OH2  OT    -0.834000       15.9994           0
   66560 WT4  2073 TIP3 H1   HT     0.417000        1.0080           0
   66561 WT4  2073 TIP3 H2   HT     0.417000        1.0080           0
   66562 WT4  2075 TIP3 OH2  OT    -0.834000       15.9994           0
   66563 WT4  2075 TIP3 H1   HT     0.417000        1.0080           0
   66564 WT4  2075 TIP3 H2   HT     0.417000        1.0080           0
   66565 WT4  2079 TIP3 OH2  OT    -0.834000       15.9994           0
   66566 WT4  2079 TIP3 H1   HT     0.417000        1.0080           0
   66567 WT4  2079 TIP3 H2   HT     0.417000        1.0080           0
   66568 WT4  2082 TIP3 OH2  OT    -0.834000       15.9994           0
   66569 WT4  2082 TIP3 H1   HT     0.417000        1.0080           0
   66570 WT4  2082 TIP3 H2   HT     0.417000        1.0080           0
   66571 WT4  2083 TIP3 OH2  OT    -0.834000       15.9994           0
   66572 WT4  2083 TIP3 H1   HT     0.417000        1.0080           0
   66573 WT4  2083 TIP3 H2   HT     0.417000        1.0080           0
   66574 WT4  2084 TIP3 OH2  OT    -0.834000       15.9994           0
   66575 WT4  2084 TIP3 H1   HT     0.417000        1.0080           0
   66576 WT4  2084 TIP3 H2   HT     0.417000        1.0080           0
   66577 WT4  2086 TIP3 OH2  OT    -0.834000       15.9994           0
   66578 WT4  2086 TIP3 H1   HT     0.417000        1.0080           0
   66579 WT4  2086 TIP3 H2   HT     0.417000        1.0080           0
   66580 WT4  2089 TIP3 OH2  OT    -0.834000       15.9994           0
   66581 WT4  2089 TIP3 H1   HT     0.417000        1.0080           0
   66582 WT4  2089 TIP3 H2   HT     0.417000        1.0080           0
   66583 WT4  2095 TIP3 OH2  OT    -0.834000       15.9994           0
   66584 WT4  2095 TIP3 H1   HT     0.417000        1.0080           0
   66585 WT4  2095 TIP3 H2   HT     0.417000        1.0080           0
   66586 WT4  2101 TIP3 OH2  OT    -0.834000       15.9994           0
   66587 WT4  2101 TIP3 H1   HT     0.417000        1.0080           0
   66588 WT4  2101 TIP3 H2   HT     0.417000        1.0080           0
   66589 WT4  2103 TIP3 OH2  OT    -0.834000       15.9994           0
   66590 WT4  2103 TIP3 H1   HT     0.417000        1.0080           0
   66591 WT4  2103 TIP3 H2   HT     0.417000        1.0080           0
   66592 WT4  2105 TIP3 OH2  OT    -0.834000       15.9994           0
   66593 WT4  2105 TIP3 H1   HT     0.417000        1.0080           0
   66594 WT4  2105 TIP3 H2   HT     0.417000        1.0080           0
   66595 WT4  2106 TIP3 OH2  OT    -0.834000       15.9994           0
   66596 WT4  2106 TIP3 H1   HT     0.417000        1.0080           0
   66597 WT4  2106 TIP3 H2   HT     0.417000        1.0080           0
   66598 WT4  2107 TIP3 OH2  OT    -0.834000       15.9994           0
   66599 WT4  2107 TIP3 H1   HT     0.417000        1.0080           0
   66600 WT4  2107 TIP3 H2   HT     0.417000        1.0080           0
   66601 WT4  2116 TIP3 OH2  OT    -0.834000       15.9994           0
   66602 WT4  2116 TIP3 H1   HT     0.417000        1.0080           0
   66603 WT4  2116 TIP3 H2   HT     0.417000        1.0080           0
   66604 WT4  2123 TIP3 OH2  OT    -0.834000       15.9994           0
   66605 WT4  2123 TIP3 H1   HT     0.417000        1.0080           0
   66606 WT4  2123 TIP3 H2   HT     0.417000        1.0080           0
   66607 WT4  2127 TIP3 OH2  OT    -0.834000       15.9994           0
   66608 WT4  2127 TIP3 H1   HT     0.417000        1.0080           0
   66609 WT4  2127 TIP3 H2   HT     0.417000        1.0080           0
   66610 WT4  2130 TIP3 OH2  OT    -0.834000       15.9994           0
   66611 WT4  2130 TIP3 H1   HT     0.417000        1.0080           0
   66612 WT4  2130 TIP3 H2   HT     0.417000        1.0080           0
   66613 WT4  2133 TIP3 OH2  OT    -0.834000       15.9994           0
   66614 WT4  2133 TIP3 H1   HT     0.417000        1.0080           0
   66615 WT4  2133 TIP3 H2   HT     0.417000        1.0080           0
   66616 WT4  2135 TIP3 OH2  OT    -0.834000       15.9994           0
   66617 WT4  2135 TIP3 H1   HT     0.417000        1.0080           0
   66618 WT4  2135 TIP3 H2   HT     0.417000        1.0080           0
   66619 WT4  2147 TIP3 OH2  OT    -0.834000       15.9994           0
   66620 WT4  2147 TIP3 H1   HT     0.417000        1.0080           0
   66621 WT4  2147 TIP3 H2   HT     0.417000        1.0080           0
   66622 WT4  2151 TIP3 OH2  OT    -0.834000       15.9994           0
   66623 WT4  2151 TIP3 H1   HT     0.417000        1.0080           0
   66624 WT4  2151 TIP3 H2   HT     0.417000        1.0080           0
   66625 WT4  2155 TIP3 OH2  OT    -0.834000       15.9994           0
   66626 WT4  2155 TIP3 H1   HT     0.417000        1.0080           0
   66627 WT4  2155 TIP3 H2   HT     0.417000        1.0080           0
   66628 WT4  2163 TIP3 OH2  OT    -0.834000       15.9994           0
   66629 WT4  2163 TIP3 H1   HT     0.417000        1.0080           0
   66630 WT4  2163 TIP3 H2   HT     0.417000        1.0080           0
   66631 WT4  2165 TIP3 OH2  OT    -0.834000       15.9994           0
   66632 WT4  2165 TIP3 H1   HT     0.417000        1.0080           0
   66633 WT4  2165 TIP3 H2   HT     0.417000        1.0080           0
   66634 WT4  2167 TIP3 OH2  OT    -0.834000       15.9994           0
   66635 WT4  2167 TIP3 H1   HT     0.417000        1.0080           0
   66636 WT4  2167 TIP3 H2   HT     0.417000        1.0080           0
   66637 WT4  2172 TIP3 OH2  OT    -0.834000       15.9994           0
   66638 WT4  2172 TIP3 H1   HT     0.417000        1.0080           0
   66639 WT4  2172 TIP3 H2   HT     0.417000        1.0080           0
   66640 WT4  2185 TIP3 OH2  OT    -0.834000       15.9994           0
   66641 WT4  2185 TIP3 H1   HT     0.417000        1.0080           0
   66642 WT4  2185 TIP3 H2   HT     0.417000        1.0080           0
   66643 WT4  2186 TIP3 OH2  OT    -0.834000       15.9994           0
   66644 WT4  2186 TIP3 H1   HT     0.417000        1.0080           0
   66645 WT4  2186 TIP3 H2   HT     0.417000        1.0080           0
   66646 WT4  2187 TIP3 OH2  OT    -0.834000       15.9994           0
   66647 WT4  2187 TIP3 H1   HT     0.417000        1.0080           0
   66648 WT4  2187 TIP3 H2   HT     0.417000        1.0080           0
   66649 WT4  2194 TIP3 OH2  OT    -0.834000       15.9994           0
   66650 WT4  2194 TIP3 H1   HT     0.417000        1.0080           0
   66651 WT4  2194 TIP3 H2   HT     0.417000        1.0080           0
   66652 WT4  2195 TIP3 OH2  OT    -0.834000       15.9994           0
   66653 WT4  2195 TIP3 H1   HT     0.417000        1.0080           0
   66654 WT4  2195 TIP3 H2   HT     0.417000        1.0080           0
   66655 WT4  2196 TIP3 OH2  OT    -0.834000       15.9994           0
   66656 WT4  2196 TIP3 H1   HT     0.417000        1.0080           0
   66657 WT4  2196 TIP3 H2   HT     0.417000        1.0080           0
   66658 WT4  2197 TIP3 OH2  OT    -0.834000       15.9994           0
   66659 WT4  2197 TIP3 H1   HT     0.417000        1.0080           0
   66660 WT4  2197 TIP3 H2   HT     0.417000        1.0080           0
   66661 WT4  2198 TIP3 OH2  OT    -0.834000       15.9994           0
   66662 WT4  2198 TIP3 H1   HT     0.417000        1.0080           0
   66663 WT4  2198 TIP3 H2   HT     0.417000        1.0080           0
   66664 WT4  2208 TIP3 OH2  OT    -0.834000       15.9994           0
   66665 WT4  2208 TIP3 H1   HT     0.417000        1.0080           0
   66666 WT4  2208 TIP3 H2   HT     0.417000        1.0080           0
   66667 WT4  2211 TIP3 OH2  OT    -0.834000       15.9994           0
   66668 WT4  2211 TIP3 H1   HT     0.417000        1.0080           0
   66669 WT4  2211 TIP3 H2   HT     0.417000        1.0080           0
   66670 WT4  2212 TIP3 OH2  OT    -0.834000       15.9994           0
   66671 WT4  2212 TIP3 H1   HT     0.417000        1.0080           0
   66672 WT4  2212 TIP3 H2   HT     0.417000        1.0080           0
   66673 WT4  2213 TIP3 OH2  OT    -0.834000       15.9994           0
   66674 WT4  2213 TIP3 H1   HT     0.417000        1.0080           0
   66675 WT4  2213 TIP3 H2   HT     0.417000        1.0080           0
   66676 WT4  2217 TIP3 OH2  OT    -0.834000       15.9994           0
   66677 WT4  2217 TIP3 H1   HT     0.417000        1.0080           0
   66678 WT4  2217 TIP3 H2   HT     0.417000        1.0080           0
   66679 WT4  2219 TIP3 OH2  OT    -0.834000       15.9994           0
   66680 WT4  2219 TIP3 H1   HT     0.417000        1.0080           0
   66681 WT4  2219 TIP3 H2   HT     0.417000        1.0080           0
   66682 WT4  2227 TIP3 OH2  OT    -0.834000       15.9994           0
   66683 WT4  2227 TIP3 H1   HT     0.417000        1.0080           0
   66684 WT4  2227 TIP3 H2   HT     0.417000        1.0080           0
   66685 WT4  2229 TIP3 OH2  OT    -0.834000       15.9994           0
   66686 WT4  2229 TIP3 H1   HT     0.417000        1.0080           0
   66687 WT4  2229 TIP3 H2   HT     0.417000        1.0080           0
   66688 WT4  2231 TIP3 OH2  OT    -0.834000       15.9994           0
   66689 WT4  2231 TIP3 H1   HT     0.417000        1.0080           0
   66690 WT4  2231 TIP3 H2   HT     0.417000        1.0080           0
   66691 WT4  2232 TIP3 OH2  OT    -0.834000       15.9994           0
   66692 WT4  2232 TIP3 H1   HT     0.417000        1.0080           0
   66693 WT4  2232 TIP3 H2   HT     0.417000        1.0080           0
   66694 WT4  2234 TIP3 OH2  OT    -0.834000       15.9994           0
   66695 WT4  2234 TIP3 H1   HT     0.417000        1.0080           0
   66696 WT4  2234 TIP3 H2   HT     0.417000        1.0080           0
   66697 WT4  2235 TIP3 OH2  OT    -0.834000       15.9994           0
   66698 WT4  2235 TIP3 H1   HT     0.417000        1.0080           0
   66699 WT4  2235 TIP3 H2   HT     0.417000        1.0080           0
   66700 WT4  2236 TIP3 OH2  OT    -0.834000       15.9994           0
   66701 WT4  2236 TIP3 H1   HT     0.417000        1.0080           0
   66702 WT4  2236 TIP3 H2   HT     0.417000        1.0080           0
   66703 WT4  2237 TIP3 OH2  OT    -0.834000       15.9994           0
   66704 WT4  2237 TIP3 H1   HT     0.417000        1.0080           0
   66705 WT4  2237 TIP3 H2   HT     0.417000        1.0080           0
   66706 WT4  2240 TIP3 OH2  OT    -0.834000       15.9994           0
   66707 WT4  2240 TIP3 H1   HT     0.417000        1.0080           0
   66708 WT4  2240 TIP3 H2   HT     0.417000        1.0080           0
   66709 WT4  2241 TIP3 OH2  OT    -0.834000       15.9994           0
   66710 WT4  2241 TIP3 H1   HT     0.417000        1.0080           0
   66711 WT4  2241 TIP3 H2   HT     0.417000        1.0080           0
   66712 WT4  2244 TIP3 OH2  OT    -0.834000       15.9994           0
   66713 WT4  2244 TIP3 H1   HT     0.417000        1.0080           0
   66714 WT4  2244 TIP3 H2   HT     0.417000        1.0080           0
   66715 WT4  2250 TIP3 OH2  OT    -0.834000       15.9994           0
   66716 WT4  2250 TIP3 H1   HT     0.417000        1.0080           0
   66717 WT4  2250 TIP3 H2   HT     0.417000        1.0080           0
   66718 WT4  2251 TIP3 OH2  OT    -0.834000       15.9994           0
   66719 WT4  2251 TIP3 H1   HT     0.417000        1.0080           0
   66720 WT4  2251 TIP3 H2   HT     0.417000        1.0080           0
   66721 WT4  2253 TIP3 OH2  OT    -0.834000       15.9994           0
   66722 WT4  2253 TIP3 H1   HT     0.417000        1.0080           0
   66723 WT4  2253 TIP3 H2   HT     0.417000        1.0080           0
   66724 WT4  2254 TIP3 OH2  OT    -0.834000       15.9994           0
   66725 WT4  2254 TIP3 H1   HT     0.417000        1.0080           0
   66726 WT4  2254 TIP3 H2   HT     0.417000        1.0080           0
   66727 WT4  2256 TIP3 OH2  OT    -0.834000       15.9994           0
   66728 WT4  2256 TIP3 H1   HT     0.417000        1.0080           0
   66729 WT4  2256 TIP3 H2   HT     0.417000        1.0080           0
   66730 WT4  2257 TIP3 OH2  OT    -0.834000       15.9994           0
   66731 WT4  2257 TIP3 H1   HT     0.417000        1.0080           0
   66732 WT4  2257 TIP3 H2   HT     0.417000        1.0080           0
   66733 WT4  2258 TIP3 OH2  OT    -0.834000       15.9994           0
   66734 WT4  2258 TIP3 H1   HT     0.417000        1.0080           0
   66735 WT4  2258 TIP3 H2   HT     0.417000        1.0080           0
   66736 WT4  2259 TIP3 OH2  OT    -0.834000       15.9994           0
   66737 WT4  2259 TIP3 H1   HT     0.417000        1.0080           0
   66738 WT4  2259 TIP3 H2   HT     0.417000        1.0080           0
   66739 WT4  2260 TIP3 OH2  OT    -0.834000       15.9994           0
   66740 WT4  2260 TIP3 H1   HT     0.417000        1.0080           0
   66741 WT4  2260 TIP3 H2   HT     0.417000        1.0080           0
   66742 WT4  2261 TIP3 OH2  OT    -0.834000       15.9994           0
   66743 WT4  2261 TIP3 H1   HT     0.417000        1.0080           0
   66744 WT4  2261 TIP3 H2   HT     0.417000        1.0080           0
   66745 WT4  2269 TIP3 OH2  OT    -0.834000       15.9994           0
   66746 WT4  2269 TIP3 H1   HT     0.417000        1.0080           0
   66747 WT4  2269 TIP3 H2   HT     0.417000        1.0080           0
   66748 WT4  2270 TIP3 OH2  OT    -0.834000       15.9994           0
   66749 WT4  2270 TIP3 H1   HT     0.417000        1.0080           0
   66750 WT4  2270 TIP3 H2   HT     0.417000        1.0080           0
   66751 WT4  2271 TIP3 OH2  OT    -0.834000       15.9994           0
   66752 WT4  2271 TIP3 H1   HT     0.417000        1.0080           0
   66753 WT4  2271 TIP3 H2   HT     0.417000        1.0080           0
   66754 WT4  2272 TIP3 OH2  OT    -0.834000       15.9994           0
   66755 WT4  2272 TIP3 H1   HT     0.417000        1.0080           0
   66756 WT4  2272 TIP3 H2   HT     0.417000        1.0080           0
   66757 WT4  2273 TIP3 OH2  OT    -0.834000       15.9994           0
   66758 WT4  2273 TIP3 H1   HT     0.417000        1.0080           0
   66759 WT4  2273 TIP3 H2   HT     0.417000        1.0080           0
   66760 WT4  2274 TIP3 OH2  OT    -0.834000       15.9994           0
   66761 WT4  2274 TIP3 H1   HT     0.417000        1.0080           0
   66762 WT4  2274 TIP3 H2   HT     0.417000        1.0080           0
   66763 WT4  2275 TIP3 OH2  OT    -0.834000       15.9994           0
   66764 WT4  2275 TIP3 H1   HT     0.417000        1.0080           0
   66765 WT4  2275 TIP3 H2   HT     0.417000        1.0080           0
   66766 WT4  2276 TIP3 OH2  OT    -0.834000       15.9994           0
   66767 WT4  2276 TIP3 H1   HT     0.417000        1.0080           0
   66768 WT4  2276 TIP3 H2   HT     0.417000        1.0080           0
   66769 WT4  2277 TIP3 OH2  OT    -0.834000       15.9994           0
   66770 WT4  2277 TIP3 H1   HT     0.417000        1.0080           0
   66771 WT4  2277 TIP3 H2   HT     0.417000        1.0080           0
   66772 WT4  2278 TIP3 OH2  OT    -0.834000       15.9994           0
   66773 WT4  2278 TIP3 H1   HT     0.417000        1.0080           0
   66774 WT4  2278 TIP3 H2   HT     0.417000        1.0080           0
   66775 WT4  2279 TIP3 OH2  OT    -0.834000       15.9994           0
   66776 WT4  2279 TIP3 H1   HT     0.417000        1.0080           0
   66777 WT4  2279 TIP3 H2   HT     0.417000        1.0080           0
   66778 WT4  2280 TIP3 OH2  OT    -0.834000       15.9994           0
   66779 WT4  2280 TIP3 H1   HT     0.417000        1.0080           0
   66780 WT4  2280 TIP3 H2   HT     0.417000        1.0080           0
   66781 WT4  2281 TIP3 OH2  OT    -0.834000       15.9994           0
   66782 WT4  2281 TIP3 H1   HT     0.417000        1.0080           0
   66783 WT4  2281 TIP3 H2   HT     0.417000        1.0080           0
   66784 WT4  2282 TIP3 OH2  OT    -0.834000       15.9994           0
   66785 WT4  2282 TIP3 H1   HT     0.417000        1.0080           0
   66786 WT4  2282 TIP3 H2   HT     0.417000        1.0080           0
   66787 WT4  2283 TIP3 OH2  OT    -0.834000       15.9994           0
   66788 WT4  2283 TIP3 H1   HT     0.417000        1.0080           0
   66789 WT4  2283 TIP3 H2   HT     0.417000        1.0080           0
   66790 WT4  2284 TIP3 OH2  OT    -0.834000       15.9994           0
   66791 WT4  2284 TIP3 H1   HT     0.417000        1.0080           0
   66792 WT4  2284 TIP3 H2   HT     0.417000        1.0080           0
   66793 WT4  2285 TIP3 OH2  OT    -0.834000       15.9994           0
   66794 WT4  2285 TIP3 H1   HT     0.417000        1.0080           0
   66795 WT4  2285 TIP3 H2   HT     0.417000        1.0080           0
   66796 WT4  2286 TIP3 OH2  OT    -0.834000       15.9994           0
   66797 WT4  2286 TIP3 H1   HT     0.417000        1.0080           0
   66798 WT4  2286 TIP3 H2   HT     0.417000        1.0080           0
   66799 WT4  2288 TIP3 OH2  OT    -0.834000       15.9994           0
   66800 WT4  2288 TIP3 H1   HT     0.417000        1.0080           0
   66801 WT4  2288 TIP3 H2   HT     0.417000        1.0080           0
   66802 WT4  2290 TIP3 OH2  OT    -0.834000       15.9994           0
   66803 WT4  2290 TIP3 H1   HT     0.417000        1.0080           0
   66804 WT4  2290 TIP3 H2   HT     0.417000        1.0080           0
   66805 WT4  2292 TIP3 OH2  OT    -0.834000       15.9994           0
   66806 WT4  2292 TIP3 H1   HT     0.417000        1.0080           0
   66807 WT4  2292 TIP3 H2   HT     0.417000        1.0080           0
   66808 WT4  2293 TIP3 OH2  OT    -0.834000       15.9994           0
   66809 WT4  2293 TIP3 H1   HT     0.417000        1.0080           0
   66810 WT4  2293 TIP3 H2   HT     0.417000        1.0080           0
   66811 WT4  2294 TIP3 OH2  OT    -0.834000       15.9994           0
   66812 WT4  2294 TIP3 H1   HT     0.417000        1.0080           0
   66813 WT4  2294 TIP3 H2   HT     0.417000        1.0080           0
   66814 WT4  2295 TIP3 OH2  OT    -0.834000       15.9994           0
   66815 WT4  2295 TIP3 H1   HT     0.417000        1.0080           0
   66816 WT4  2295 TIP3 H2   HT     0.417000        1.0080           0
   66817 WT4  2296 TIP3 OH2  OT    -0.834000       15.9994           0
   66818 WT4  2296 TIP3 H1   HT     0.417000        1.0080           0
   66819 WT4  2296 TIP3 H2   HT     0.417000        1.0080           0
   66820 WT4  2297 TIP3 OH2  OT    -0.834000       15.9994           0
   66821 WT4  2297 TIP3 H1   HT     0.417000        1.0080           0
   66822 WT4  2297 TIP3 H2   HT     0.417000        1.0080           0
   66823 WT4  2298 TIP3 OH2  OT    -0.834000       15.9994           0
   66824 WT4  2298 TIP3 H1   HT     0.417000        1.0080           0
   66825 WT4  2298 TIP3 H2   HT     0.417000        1.0080           0
   66826 WT4  2299 TIP3 OH2  OT    -0.834000       15.9994           0
   66827 WT4  2299 TIP3 H1   HT     0.417000        1.0080           0
   66828 WT4  2299 TIP3 H2   HT     0.417000        1.0080           0
   66829 WT4  2300 TIP3 OH2  OT    -0.834000       15.9994           0
   66830 WT4  2300 TIP3 H1   HT     0.417000        1.0080           0
   66831 WT4  2300 TIP3 H2   HT     0.417000        1.0080           0
   66832 WT4  2301 TIP3 OH2  OT    -0.834000       15.9994           0
   66833 WT4  2301 TIP3 H1   HT     0.417000        1.0080           0
   66834 WT4  2301 TIP3 H2   HT     0.417000        1.0080           0
   66835 WT4  2302 TIP3 OH2  OT    -0.834000       15.9994           0
   66836 WT4  2302 TIP3 H1   HT     0.417000        1.0080           0
   66837 WT4  2302 TIP3 H2   HT     0.417000        1.0080           0
   66838 WT4  2304 TIP3 OH2  OT    -0.834000       15.9994           0
   66839 WT4  2304 TIP3 H1   HT     0.417000        1.0080           0
   66840 WT4  2304 TIP3 H2   HT     0.417000        1.0080           0
   66841 WT4  2309 TIP3 OH2  OT    -0.834000       15.9994           0
   66842 WT4  2309 TIP3 H1   HT     0.417000        1.0080           0
   66843 WT4  2309 TIP3 H2   HT     0.417000        1.0080           0
   66844 WT4  2311 TIP3 OH2  OT    -0.834000       15.9994           0
   66845 WT4  2311 TIP3 H1   HT     0.417000        1.0080           0
   66846 WT4  2311 TIP3 H2   HT     0.417000        1.0080           0
   66847 WT4  2312 TIP3 OH2  OT    -0.834000       15.9994           0
   66848 WT4  2312 TIP3 H1   HT     0.417000        1.0080           0
   66849 WT4  2312 TIP3 H2   HT     0.417000        1.0080           0
   66850 WT4  2313 TIP3 OH2  OT    -0.834000       15.9994           0
   66851 WT4  2313 TIP3 H1   HT     0.417000        1.0080           0
   66852 WT4  2313 TIP3 H2   HT     0.417000        1.0080           0
   66853 WT4  2314 TIP3 OH2  OT    -0.834000       15.9994           0
   66854 WT4  2314 TIP3 H1   HT     0.417000        1.0080           0
   66855 WT4  2314 TIP3 H2   HT     0.417000        1.0080           0
   66856 WT4  2315 TIP3 OH2  OT    -0.834000       15.9994           0
   66857 WT4  2315 TIP3 H1   HT     0.417000        1.0080           0
   66858 WT4  2315 TIP3 H2   HT     0.417000        1.0080           0
   66859 WT4  2316 TIP3 OH2  OT    -0.834000       15.9994           0
   66860 WT4  2316 TIP3 H1   HT     0.417000        1.0080           0
   66861 WT4  2316 TIP3 H2   HT     0.417000        1.0080           0
   66862 WT4  2317 TIP3 OH2  OT    -0.834000       15.9994           0
   66863 WT4  2317 TIP3 H1   HT     0.417000        1.0080           0
   66864 WT4  2317 TIP3 H2   HT     0.417000        1.0080           0
   66865 WT4  2318 TIP3 OH2  OT    -0.834000       15.9994           0
   66866 WT4  2318 TIP3 H1   HT     0.417000        1.0080           0
   66867 WT4  2318 TIP3 H2   HT     0.417000        1.0080           0
   66868 WT4  2319 TIP3 OH2  OT    -0.834000       15.9994           0
   66869 WT4  2319 TIP3 H1   HT     0.417000        1.0080           0
   66870 WT4  2319 TIP3 H2   HT     0.417000        1.0080           0
   66871 WT4  2320 TIP3 OH2  OT    -0.834000       15.9994           0
   66872 WT4  2320 TIP3 H1   HT     0.417000        1.0080           0
   66873 WT4  2320 TIP3 H2   HT     0.417000        1.0080           0
   66874 WT4  2321 TIP3 OH2  OT    -0.834000       15.9994           0
   66875 WT4  2321 TIP3 H1   HT     0.417000        1.0080           0
   66876 WT4  2321 TIP3 H2   HT     0.417000        1.0080           0
   66877 WT4  2322 TIP3 OH2  OT    -0.834000       15.9994           0
   66878 WT4  2322 TIP3 H1   HT     0.417000        1.0080           0
   66879 WT4  2322 TIP3 H2   HT     0.417000        1.0080           0
   66880 WT4  2324 TIP3 OH2  OT    -0.834000       15.9994           0
   66881 WT4  2324 TIP3 H1   HT     0.417000        1.0080           0
   66882 WT4  2324 TIP3 H2   HT     0.417000        1.0080           0
   66883 WT4  2325 TIP3 OH2  OT    -0.834000       15.9994           0
   66884 WT4  2325 TIP3 H1   HT     0.417000        1.0080           0
   66885 WT4  2325 TIP3 H2   HT     0.417000        1.0080           0
   66886 WT4  2326 TIP3 OH2  OT    -0.834000       15.9994           0
   66887 WT4  2326 TIP3 H1   HT     0.417000        1.0080           0
   66888 WT4  2326 TIP3 H2   HT     0.417000        1.0080           0
   66889 WT4  2327 TIP3 OH2  OT    -0.834000       15.9994           0
   66890 WT4  2327 TIP3 H1   HT     0.417000        1.0080           0
   66891 WT4  2327 TIP3 H2   HT     0.417000        1.0080           0
   66892 WT4  2329 TIP3 OH2  OT    -0.834000       15.9994           0
   66893 WT4  2329 TIP3 H1   HT     0.417000        1.0080           0
   66894 WT4  2329 TIP3 H2   HT     0.417000        1.0080           0
   66895 WT4  2331 TIP3 OH2  OT    -0.834000       15.9994           0
   66896 WT4  2331 TIP3 H1   HT     0.417000        1.0080           0
   66897 WT4  2331 TIP3 H2   HT     0.417000        1.0080           0
   66898 WT4  2332 TIP3 OH2  OT    -0.834000       15.9994           0
   66899 WT4  2332 TIP3 H1   HT     0.417000        1.0080           0
   66900 WT4  2332 TIP3 H2   HT     0.417000        1.0080           0
   66901 WT4  2333 TIP3 OH2  OT    -0.834000       15.9994           0
   66902 WT4  2333 TIP3 H1   HT     0.417000        1.0080           0
   66903 WT4  2333 TIP3 H2   HT     0.417000        1.0080           0
   66904 WT4  2335 TIP3 OH2  OT    -0.834000       15.9994           0
   66905 WT4  2335 TIP3 H1   HT     0.417000        1.0080           0
   66906 WT4  2335 TIP3 H2   HT     0.417000        1.0080           0
   66907 WT4  2336 TIP3 OH2  OT    -0.834000       15.9994           0
   66908 WT4  2336 TIP3 H1   HT     0.417000        1.0080           0
   66909 WT4  2336 TIP3 H2   HT     0.417000        1.0080           0
   66910 WT4  2337 TIP3 OH2  OT    -0.834000       15.9994           0
   66911 WT4  2337 TIP3 H1   HT     0.417000        1.0080           0
   66912 WT4  2337 TIP3 H2   HT     0.417000        1.0080           0
   66913 WT4  2338 TIP3 OH2  OT    -0.834000       15.9994           0
   66914 WT4  2338 TIP3 H1   HT     0.417000        1.0080           0
   66915 WT4  2338 TIP3 H2   HT     0.417000        1.0080           0
   66916 WT4  2339 TIP3 OH2  OT    -0.834000       15.9994           0
   66917 WT4  2339 TIP3 H1   HT     0.417000        1.0080           0
   66918 WT4  2339 TIP3 H2   HT     0.417000        1.0080           0
   66919 WT4  2340 TIP3 OH2  OT    -0.834000       15.9994           0
   66920 WT4  2340 TIP3 H1   HT     0.417000        1.0080           0
   66921 WT4  2340 TIP3 H2   HT     0.417000        1.0080           0
   66922 WT4  2341 TIP3 OH2  OT    -0.834000       15.9994           0
   66923 WT4  2341 TIP3 H1   HT     0.417000        1.0080           0
   66924 WT4  2341 TIP3 H2   HT     0.417000        1.0080           0
   66925 WT4  2342 TIP3 OH2  OT    -0.834000       15.9994           0
   66926 WT4  2342 TIP3 H1   HT     0.417000        1.0080           0
   66927 WT4  2342 TIP3 H2   HT     0.417000        1.0080           0
   66928 WT4  2343 TIP3 OH2  OT    -0.834000       15.9994           0
   66929 WT4  2343 TIP3 H1   HT     0.417000        1.0080           0
   66930 WT4  2343 TIP3 H2   HT     0.417000        1.0080           0
   66931 WT4  2345 TIP3 OH2  OT    -0.834000       15.9994           0
   66932 WT4  2345 TIP3 H1   HT     0.417000        1.0080           0
   66933 WT4  2345 TIP3 H2   HT     0.417000        1.0080           0
   66934 WT4  2346 TIP3 OH2  OT    -0.834000       15.9994           0
   66935 WT4  2346 TIP3 H1   HT     0.417000        1.0080           0
   66936 WT4  2346 TIP3 H2   HT     0.417000        1.0080           0
   66937 WT4  2351 TIP3 OH2  OT    -0.834000       15.9994           0
   66938 WT4  2351 TIP3 H1   HT     0.417000        1.0080           0
   66939 WT4  2351 TIP3 H2   HT     0.417000        1.0080           0
   66940 WT4  2352 TIP3 OH2  OT    -0.834000       15.9994           0
   66941 WT4  2352 TIP3 H1   HT     0.417000        1.0080           0
   66942 WT4  2352 TIP3 H2   HT     0.417000        1.0080           0
   66943 WT4  2354 TIP3 OH2  OT    -0.834000       15.9994           0
   66944 WT4  2354 TIP3 H1   HT     0.417000        1.0080           0
   66945 WT4  2354 TIP3 H2   HT     0.417000        1.0080           0
   66946 WT4  2355 TIP3 OH2  OT    -0.834000       15.9994           0
   66947 WT4  2355 TIP3 H1   HT     0.417000        1.0080           0
   66948 WT4  2355 TIP3 H2   HT     0.417000        1.0080           0
   66949 WT4  2357 TIP3 OH2  OT    -0.834000       15.9994           0
   66950 WT4  2357 TIP3 H1   HT     0.417000        1.0080           0
   66951 WT4  2357 TIP3 H2   HT     0.417000        1.0080           0
   66952 WT4  2358 TIP3 OH2  OT    -0.834000       15.9994           0
   66953 WT4  2358 TIP3 H1   HT     0.417000        1.0080           0
   66954 WT4  2358 TIP3 H2   HT     0.417000        1.0080           0
   66955 WT4  2359 TIP3 OH2  OT    -0.834000       15.9994           0
   66956 WT4  2359 TIP3 H1   HT     0.417000        1.0080           0
   66957 WT4  2359 TIP3 H2   HT     0.417000        1.0080           0
   66958 WT4  2360 TIP3 OH2  OT    -0.834000       15.9994           0
   66959 WT4  2360 TIP3 H1   HT     0.417000        1.0080           0
   66960 WT4  2360 TIP3 H2   HT     0.417000        1.0080           0
   66961 WT4  2361 TIP3 OH2  OT    -0.834000       15.9994           0
   66962 WT4  2361 TIP3 H1   HT     0.417000        1.0080           0
   66963 WT4  2361 TIP3 H2   HT     0.417000        1.0080           0
   66964 WT4  2362 TIP3 OH2  OT    -0.834000       15.9994           0
   66965 WT4  2362 TIP3 H1   HT     0.417000        1.0080           0
   66966 WT4  2362 TIP3 H2   HT     0.417000        1.0080           0
   66967 WT4  2363 TIP3 OH2  OT    -0.834000       15.9994           0
   66968 WT4  2363 TIP3 H1   HT     0.417000        1.0080           0
   66969 WT4  2363 TIP3 H2   HT     0.417000        1.0080           0
   66970 WT4  2364 TIP3 OH2  OT    -0.834000       15.9994           0
   66971 WT4  2364 TIP3 H1   HT     0.417000        1.0080           0
   66972 WT4  2364 TIP3 H2   HT     0.417000        1.0080           0
   66973 WT4  2365 TIP3 OH2  OT    -0.834000       15.9994           0
   66974 WT4  2365 TIP3 H1   HT     0.417000        1.0080           0
   66975 WT4  2365 TIP3 H2   HT     0.417000        1.0080           0
   66976 WT4  2367 TIP3 OH2  OT    -0.834000       15.9994           0
   66977 WT4  2367 TIP3 H1   HT     0.417000        1.0080           0
   66978 WT4  2367 TIP3 H2   HT     0.417000        1.0080           0
   66979 WT4  2368 TIP3 OH2  OT    -0.834000       15.9994           0
   66980 WT4  2368 TIP3 H1   HT     0.417000        1.0080           0
   66981 WT4  2368 TIP3 H2   HT     0.417000        1.0080           0
   66982 WT4  2375 TIP3 OH2  OT    -0.834000       15.9994           0
   66983 WT4  2375 TIP3 H1   HT     0.417000        1.0080           0
   66984 WT4  2375 TIP3 H2   HT     0.417000        1.0080           0
   66985 WT4  2376 TIP3 OH2  OT    -0.834000       15.9994           0
   66986 WT4  2376 TIP3 H1   HT     0.417000        1.0080           0
   66987 WT4  2376 TIP3 H2   HT     0.417000        1.0080           0
   66988 WT4  2377 TIP3 OH2  OT    -0.834000       15.9994           0
   66989 WT4  2377 TIP3 H1   HT     0.417000        1.0080           0
   66990 WT4  2377 TIP3 H2   HT     0.417000        1.0080           0
   66991 WT4  2378 TIP3 OH2  OT    -0.834000       15.9994           0
   66992 WT4  2378 TIP3 H1   HT     0.417000        1.0080           0
   66993 WT4  2378 TIP3 H2   HT     0.417000        1.0080           0
   66994 WT4  2379 TIP3 OH2  OT    -0.834000       15.9994           0
   66995 WT4  2379 TIP3 H1   HT     0.417000        1.0080           0
   66996 WT4  2379 TIP3 H2   HT     0.417000        1.0080           0
   66997 WT4  2380 TIP3 OH2  OT    -0.834000       15.9994           0
   66998 WT4  2380 TIP3 H1   HT     0.417000        1.0080           0
   66999 WT4  2380 TIP3 H2   HT     0.417000        1.0080           0
   67000 WT4  2381 TIP3 OH2  OT    -0.834000       15.9994           0
   67001 WT4  2381 TIP3 H1   HT     0.417000        1.0080           0
   67002 WT4  2381 TIP3 H2   HT     0.417000        1.0080           0
   67003 WT4  2382 TIP3 OH2  OT    -0.834000       15.9994           0
   67004 WT4  2382 TIP3 H1   HT     0.417000        1.0080           0
   67005 WT4  2382 TIP3 H2   HT     0.417000        1.0080           0
   67006 WT4  2383 TIP3 OH2  OT    -0.834000       15.9994           0
   67007 WT4  2383 TIP3 H1   HT     0.417000        1.0080           0
   67008 WT4  2383 TIP3 H2   HT     0.417000        1.0080           0
   67009 WT4  2384 TIP3 OH2  OT    -0.834000       15.9994           0
   67010 WT4  2384 TIP3 H1   HT     0.417000        1.0080           0
   67011 WT4  2384 TIP3 H2   HT     0.417000        1.0080           0
   67012 WT4  2385 TIP3 OH2  OT    -0.834000       15.9994           0
   67013 WT4  2385 TIP3 H1   HT     0.417000        1.0080           0
   67014 WT4  2385 TIP3 H2   HT     0.417000        1.0080           0
   67015 WT4  2388 TIP3 OH2  OT    -0.834000       15.9994           0
   67016 WT4  2388 TIP3 H1   HT     0.417000        1.0080           0
   67017 WT4  2388 TIP3 H2   HT     0.417000        1.0080           0
   67018 WT4  2397 TIP3 OH2  OT    -0.834000       15.9994           0
   67019 WT4  2397 TIP3 H1   HT     0.417000        1.0080           0
   67020 WT4  2397 TIP3 H2   HT     0.417000        1.0080           0
   67021 WT4  2398 TIP3 OH2  OT    -0.834000       15.9994           0
   67022 WT4  2398 TIP3 H1   HT     0.417000        1.0080           0
   67023 WT4  2398 TIP3 H2   HT     0.417000        1.0080           0
   67024 WT4  2399 TIP3 OH2  OT    -0.834000       15.9994           0
   67025 WT4  2399 TIP3 H1   HT     0.417000        1.0080           0
   67026 WT4  2399 TIP3 H2   HT     0.417000        1.0080           0
   67027 WT4  2400 TIP3 OH2  OT    -0.834000       15.9994           0
   67028 WT4  2400 TIP3 H1   HT     0.417000        1.0080           0
   67029 WT4  2400 TIP3 H2   HT     0.417000        1.0080           0
   67030 WT4  2402 TIP3 OH2  OT    -0.834000       15.9994           0
   67031 WT4  2402 TIP3 H1   HT     0.417000        1.0080           0
   67032 WT4  2402 TIP3 H2   HT     0.417000        1.0080           0
   67033 WT4  2404 TIP3 OH2  OT    -0.834000       15.9994           0
   67034 WT4  2404 TIP3 H1   HT     0.417000        1.0080           0
   67035 WT4  2404 TIP3 H2   HT     0.417000        1.0080           0
   67036 WT4  2405 TIP3 OH2  OT    -0.834000       15.9994           0
   67037 WT4  2405 TIP3 H1   HT     0.417000        1.0080           0
   67038 WT4  2405 TIP3 H2   HT     0.417000        1.0080           0
   67039 WT4  2406 TIP3 OH2  OT    -0.834000       15.9994           0
   67040 WT4  2406 TIP3 H1   HT     0.417000        1.0080           0
   67041 WT4  2406 TIP3 H2   HT     0.417000        1.0080           0
   67042 WT4  2407 TIP3 OH2  OT    -0.834000       15.9994           0
   67043 WT4  2407 TIP3 H1   HT     0.417000        1.0080           0
   67044 WT4  2407 TIP3 H2   HT     0.417000        1.0080           0
   67045 WT4  2416 TIP3 OH2  OT    -0.834000       15.9994           0
   67046 WT4  2416 TIP3 H1   HT     0.417000        1.0080           0
   67047 WT4  2416 TIP3 H2   HT     0.417000        1.0080           0
   67048 WT4  2418 TIP3 OH2  OT    -0.834000       15.9994           0
   67049 WT4  2418 TIP3 H1   HT     0.417000        1.0080           0
   67050 WT4  2418 TIP3 H2   HT     0.417000        1.0080           0
   67051 WT4  2419 TIP3 OH2  OT    -0.834000       15.9994           0
   67052 WT4  2419 TIP3 H1   HT     0.417000        1.0080           0
   67053 WT4  2419 TIP3 H2   HT     0.417000        1.0080           0
   67054 WT4  2420 TIP3 OH2  OT    -0.834000       15.9994           0
   67055 WT4  2420 TIP3 H1   HT     0.417000        1.0080           0
   67056 WT4  2420 TIP3 H2   HT     0.417000        1.0080           0
   67057 WT4  2421 TIP3 OH2  OT    -0.834000       15.9994           0
   67058 WT4  2421 TIP3 H1   HT     0.417000        1.0080           0
   67059 WT4  2421 TIP3 H2   HT     0.417000        1.0080           0
   67060 WT4  2422 TIP3 OH2  OT    -0.834000       15.9994           0
   67061 WT4  2422 TIP3 H1   HT     0.417000        1.0080           0
   67062 WT4  2422 TIP3 H2   HT     0.417000        1.0080           0
   67063 WT4  2423 TIP3 OH2  OT    -0.834000       15.9994           0
   67064 WT4  2423 TIP3 H1   HT     0.417000        1.0080           0
   67065 WT4  2423 TIP3 H2   HT     0.417000        1.0080           0
   67066 WT4  2424 TIP3 OH2  OT    -0.834000       15.9994           0
   67067 WT4  2424 TIP3 H1   HT     0.417000        1.0080           0
   67068 WT4  2424 TIP3 H2   HT     0.417000        1.0080           0
   67069 WT4  2425 TIP3 OH2  OT    -0.834000       15.9994           0
   67070 WT4  2425 TIP3 H1   HT     0.417000        1.0080           0
   67071 WT4  2425 TIP3 H2   HT     0.417000        1.0080           0
   67072 WT4  2426 TIP3 OH2  OT    -0.834000       15.9994           0
   67073 WT4  2426 TIP3 H1   HT     0.417000        1.0080           0
   67074 WT4  2426 TIP3 H2   HT     0.417000        1.0080           0
   67075 WT4  2427 TIP3 OH2  OT    -0.834000       15.9994           0
   67076 WT4  2427 TIP3 H1   HT     0.417000        1.0080           0
   67077 WT4  2427 TIP3 H2   HT     0.417000        1.0080           0
   67078 WT4  2430 TIP3 OH2  OT    -0.834000       15.9994           0
   67079 WT4  2430 TIP3 H1   HT     0.417000        1.0080           0
   67080 WT4  2430 TIP3 H2   HT     0.417000        1.0080           0
   67081 WT4  2436 TIP3 OH2  OT    -0.834000       15.9994           0
   67082 WT4  2436 TIP3 H1   HT     0.417000        1.0080           0
   67083 WT4  2436 TIP3 H2   HT     0.417000        1.0080           0
   67084 WT4  2438 TIP3 OH2  OT    -0.834000       15.9994           0
   67085 WT4  2438 TIP3 H1   HT     0.417000        1.0080           0
   67086 WT4  2438 TIP3 H2   HT     0.417000        1.0080           0
   67087 WT4  2439 TIP3 OH2  OT    -0.834000       15.9994           0
   67088 WT4  2439 TIP3 H1   HT     0.417000        1.0080           0
   67089 WT4  2439 TIP3 H2   HT     0.417000        1.0080           0
   67090 WT4  2442 TIP3 OH2  OT    -0.834000       15.9994           0
   67091 WT4  2442 TIP3 H1   HT     0.417000        1.0080           0
   67092 WT4  2442 TIP3 H2   HT     0.417000        1.0080           0
   67093 WT4  2443 TIP3 OH2  OT    -0.834000       15.9994           0
   67094 WT4  2443 TIP3 H1   HT     0.417000        1.0080           0
   67095 WT4  2443 TIP3 H2   HT     0.417000        1.0080           0
   67096 WT4  2444 TIP3 OH2  OT    -0.834000       15.9994           0
   67097 WT4  2444 TIP3 H1   HT     0.417000        1.0080           0
   67098 WT4  2444 TIP3 H2   HT     0.417000        1.0080           0
   67099 WT4  2445 TIP3 OH2  OT    -0.834000       15.9994           0
   67100 WT4  2445 TIP3 H1   HT     0.417000        1.0080           0
   67101 WT4  2445 TIP3 H2   HT     0.417000        1.0080           0
   67102 WT4  2446 TIP3 OH2  OT    -0.834000       15.9994           0
   67103 WT4  2446 TIP3 H1   HT     0.417000        1.0080           0
   67104 WT4  2446 TIP3 H2   HT     0.417000        1.0080           0
   67105 WT4  2448 TIP3 OH2  OT    -0.834000       15.9994           0
   67106 WT4  2448 TIP3 H1   HT     0.417000        1.0080           0
   67107 WT4  2448 TIP3 H2   HT     0.417000        1.0080           0
   67108 WT4  2449 TIP3 OH2  OT    -0.834000       15.9994           0
   67109 WT4  2449 TIP3 H1   HT     0.417000        1.0080           0
   67110 WT4  2449 TIP3 H2   HT     0.417000        1.0080           0
   67111 WT4  2450 TIP3 OH2  OT    -0.834000       15.9994           0
   67112 WT4  2450 TIP3 H1   HT     0.417000        1.0080           0
   67113 WT4  2450 TIP3 H2   HT     0.417000        1.0080           0
   67114 WT4  2458 TIP3 OH2  OT    -0.834000       15.9994           0
   67115 WT4  2458 TIP3 H1   HT     0.417000        1.0080           0
   67116 WT4  2458 TIP3 H2   HT     0.417000        1.0080           0
   67117 WT4  2460 TIP3 OH2  OT    -0.834000       15.9994           0
   67118 WT4  2460 TIP3 H1   HT     0.417000        1.0080           0
   67119 WT4  2460 TIP3 H2   HT     0.417000        1.0080           0
   67120 WT4  2463 TIP3 OH2  OT    -0.834000       15.9994           0
   67121 WT4  2463 TIP3 H1   HT     0.417000        1.0080           0
   67122 WT4  2463 TIP3 H2   HT     0.417000        1.0080           0
   67123 WT4  2464 TIP3 OH2  OT    -0.834000       15.9994           0
   67124 WT4  2464 TIP3 H1   HT     0.417000        1.0080           0
   67125 WT4  2464 TIP3 H2   HT     0.417000        1.0080           0
   67126 WT4  2465 TIP3 OH2  OT    -0.834000       15.9994           0
   67127 WT4  2465 TIP3 H1   HT     0.417000        1.0080           0
   67128 WT4  2465 TIP3 H2   HT     0.417000        1.0080           0
   67129 WT4  2466 TIP3 OH2  OT    -0.834000       15.9994           0
   67130 WT4  2466 TIP3 H1   HT     0.417000        1.0080           0
   67131 WT4  2466 TIP3 H2   HT     0.417000        1.0080           0
   67132 WT4  2467 TIP3 OH2  OT    -0.834000       15.9994           0
   67133 WT4  2467 TIP3 H1   HT     0.417000        1.0080           0
   67134 WT4  2467 TIP3 H2   HT     0.417000        1.0080           0
   67135 WT4  2469 TIP3 OH2  OT    -0.834000       15.9994           0
   67136 WT4  2469 TIP3 H1   HT     0.417000        1.0080           0
   67137 WT4  2469 TIP3 H2   HT     0.417000        1.0080           0
   67138 WT4  2471 TIP3 OH2  OT    -0.834000       15.9994           0
   67139 WT4  2471 TIP3 H1   HT     0.417000        1.0080           0
   67140 WT4  2471 TIP3 H2   HT     0.417000        1.0080           0
   67141 WT4  2473 TIP3 OH2  OT    -0.834000       15.9994           0
   67142 WT4  2473 TIP3 H1   HT     0.417000        1.0080           0
   67143 WT4  2473 TIP3 H2   HT     0.417000        1.0080           0
   67144 WT4  2477 TIP3 OH2  OT    -0.834000       15.9994           0
   67145 WT4  2477 TIP3 H1   HT     0.417000        1.0080           0
   67146 WT4  2477 TIP3 H2   HT     0.417000        1.0080           0
   67147 WT4  2479 TIP3 OH2  OT    -0.834000       15.9994           0
   67148 WT4  2479 TIP3 H1   HT     0.417000        1.0080           0
   67149 WT4  2479 TIP3 H2   HT     0.417000        1.0080           0
   67150 WT4  2480 TIP3 OH2  OT    -0.834000       15.9994           0
   67151 WT4  2480 TIP3 H1   HT     0.417000        1.0080           0
   67152 WT4  2480 TIP3 H2   HT     0.417000        1.0080           0
   67153 WT4  2482 TIP3 OH2  OT    -0.834000       15.9994           0
   67154 WT4  2482 TIP3 H1   HT     0.417000        1.0080           0
   67155 WT4  2482 TIP3 H2   HT     0.417000        1.0080           0
   67156 WT4  2484 TIP3 OH2  OT    -0.834000       15.9994           0
   67157 WT4  2484 TIP3 H1   HT     0.417000        1.0080           0
   67158 WT4  2484 TIP3 H2   HT     0.417000        1.0080           0
   67159 WT4  2485 TIP3 OH2  OT    -0.834000       15.9994           0
   67160 WT4  2485 TIP3 H1   HT     0.417000        1.0080           0
   67161 WT4  2485 TIP3 H2   HT     0.417000        1.0080           0
   67162 WT4  2488 TIP3 OH2  OT    -0.834000       15.9994           0
   67163 WT4  2488 TIP3 H1   HT     0.417000        1.0080           0
   67164 WT4  2488 TIP3 H2   HT     0.417000        1.0080           0
   67165 WT4  2489 TIP3 OH2  OT    -0.834000       15.9994           0
   67166 WT4  2489 TIP3 H1   HT     0.417000        1.0080           0
   67167 WT4  2489 TIP3 H2   HT     0.417000        1.0080           0
   67168 WT4  2492 TIP3 OH2  OT    -0.834000       15.9994           0
   67169 WT4  2492 TIP3 H1   HT     0.417000        1.0080           0
   67170 WT4  2492 TIP3 H2   HT     0.417000        1.0080           0
   67171 WT4  2500 TIP3 OH2  OT    -0.834000       15.9994           0
   67172 WT4  2500 TIP3 H1   HT     0.417000        1.0080           0
   67173 WT4  2500 TIP3 H2   HT     0.417000        1.0080           0
   67174 WT4  2501 TIP3 OH2  OT    -0.834000       15.9994           0
   67175 WT4  2501 TIP3 H1   HT     0.417000        1.0080           0
   67176 WT4  2501 TIP3 H2   HT     0.417000        1.0080           0
   67177 WT4  2504 TIP3 OH2  OT    -0.834000       15.9994           0
   67178 WT4  2504 TIP3 H1   HT     0.417000        1.0080           0
   67179 WT4  2504 TIP3 H2   HT     0.417000        1.0080           0
   67180 WT4  2505 TIP3 OH2  OT    -0.834000       15.9994           0
   67181 WT4  2505 TIP3 H1   HT     0.417000        1.0080           0
   67182 WT4  2505 TIP3 H2   HT     0.417000        1.0080           0
   67183 WT4  2506 TIP3 OH2  OT    -0.834000       15.9994           0
   67184 WT4  2506 TIP3 H1   HT     0.417000        1.0080           0
   67185 WT4  2506 TIP3 H2   HT     0.417000        1.0080           0
   67186 WT4  2507 TIP3 OH2  OT    -0.834000       15.9994           0
   67187 WT4  2507 TIP3 H1   HT     0.417000        1.0080           0
   67188 WT4  2507 TIP3 H2   HT     0.417000        1.0080           0
   67189 WT4  2508 TIP3 OH2  OT    -0.834000       15.9994           0
   67190 WT4  2508 TIP3 H1   HT     0.417000        1.0080           0
   67191 WT4  2508 TIP3 H2   HT     0.417000        1.0080           0
   67192 WT4  2511 TIP3 OH2  OT    -0.834000       15.9994           0
   67193 WT4  2511 TIP3 H1   HT     0.417000        1.0080           0
   67194 WT4  2511 TIP3 H2   HT     0.417000        1.0080           0
   67195 WT4  2512 TIP3 OH2  OT    -0.834000       15.9994           0
   67196 WT4  2512 TIP3 H1   HT     0.417000        1.0080           0
   67197 WT4  2512 TIP3 H2   HT     0.417000        1.0080           0
   67198 WT4  2513 TIP3 OH2  OT    -0.834000       15.9994           0
   67199 WT4  2513 TIP3 H1   HT     0.417000        1.0080           0
   67200 WT4  2513 TIP3 H2   HT     0.417000        1.0080           0
   67201 WT4  2515 TIP3 OH2  OT    -0.834000       15.9994           0
   67202 WT4  2515 TIP3 H1   HT     0.417000        1.0080           0
   67203 WT4  2515 TIP3 H2   HT     0.417000        1.0080           0
   67204 WT4  2519 TIP3 OH2  OT    -0.834000       15.9994           0
   67205 WT4  2519 TIP3 H1   HT     0.417000        1.0080           0
   67206 WT4  2519 TIP3 H2   HT     0.417000        1.0080           0
   67207 WT4  2523 TIP3 OH2  OT    -0.834000       15.9994           0
   67208 WT4  2523 TIP3 H1   HT     0.417000        1.0080           0
   67209 WT4  2523 TIP3 H2   HT     0.417000        1.0080           0
   67210 WT4  2528 TIP3 OH2  OT    -0.834000       15.9994           0
   67211 WT4  2528 TIP3 H1   HT     0.417000        1.0080           0
   67212 WT4  2528 TIP3 H2   HT     0.417000        1.0080           0
   67213 WT4  2541 TIP3 OH2  OT    -0.834000       15.9994           0
   67214 WT4  2541 TIP3 H1   HT     0.417000        1.0080           0
   67215 WT4  2541 TIP3 H2   HT     0.417000        1.0080           0
   67216 WT4  2563 TIP3 OH2  OT    -0.834000       15.9994           0
   67217 WT4  2563 TIP3 H1   HT     0.417000        1.0080           0
   67218 WT4  2563 TIP3 H2   HT     0.417000        1.0080           0
   67219 WT4  2582 TIP3 OH2  OT    -0.834000       15.9994           0
   67220 WT4  2582 TIP3 H1   HT     0.417000        1.0080           0
   67221 WT4  2582 TIP3 H2   HT     0.417000        1.0080           0
   67222 WT4  2587 TIP3 OH2  OT    -0.834000       15.9994           0
   67223 WT4  2587 TIP3 H1   HT     0.417000        1.0080           0
   67224 WT4  2587 TIP3 H2   HT     0.417000        1.0080           0
   67225 WT4  2591 TIP3 OH2  OT    -0.834000       15.9994           0
   67226 WT4  2591 TIP3 H1   HT     0.417000        1.0080           0
   67227 WT4  2591 TIP3 H2   HT     0.417000        1.0080           0
   67228 WT4  2598 TIP3 OH2  OT    -0.834000       15.9994           0
   67229 WT4  2598 TIP3 H1   HT     0.417000        1.0080           0
   67230 WT4  2598 TIP3 H2   HT     0.417000        1.0080           0
   67231 WT4  2606 TIP3 OH2  OT    -0.834000       15.9994           0
   67232 WT4  2606 TIP3 H1   HT     0.417000        1.0080           0
   67233 WT4  2606 TIP3 H2   HT     0.417000        1.0080           0
   67234 WT4  2607 TIP3 OH2  OT    -0.834000       15.9994           0
   67235 WT4  2607 TIP3 H1   HT     0.417000        1.0080           0
   67236 WT4  2607 TIP3 H2   HT     0.417000        1.0080           0
   67237 WT4  2608 TIP3 OH2  OT    -0.834000       15.9994           0
   67238 WT4  2608 TIP3 H1   HT     0.417000        1.0080           0
   67239 WT4  2608 TIP3 H2   HT     0.417000        1.0080           0
   67240 WT4  2610 TIP3 OH2  OT    -0.834000       15.9994           0
   67241 WT4  2610 TIP3 H1   HT     0.417000        1.0080           0
   67242 WT4  2610 TIP3 H2   HT     0.417000        1.0080           0
   67243 WT4  2616 TIP3 OH2  OT    -0.834000       15.9994           0
   67244 WT4  2616 TIP3 H1   HT     0.417000        1.0080           0
   67245 WT4  2616 TIP3 H2   HT     0.417000        1.0080           0
   67246 WT4  2617 TIP3 OH2  OT    -0.834000       15.9994           0
   67247 WT4  2617 TIP3 H1   HT     0.417000        1.0080           0
   67248 WT4  2617 TIP3 H2   HT     0.417000        1.0080           0
   67249 WT4  2624 TIP3 OH2  OT    -0.834000       15.9994           0
   67250 WT4  2624 TIP3 H1   HT     0.417000        1.0080           0
   67251 WT4  2624 TIP3 H2   HT     0.417000        1.0080           0
   67252 WT4  2628 TIP3 OH2  OT    -0.834000       15.9994           0
   67253 WT4  2628 TIP3 H1   HT     0.417000        1.0080           0
   67254 WT4  2628 TIP3 H2   HT     0.417000        1.0080           0
   67255 WT4  2630 TIP3 OH2  OT    -0.834000       15.9994           0
   67256 WT4  2630 TIP3 H1   HT     0.417000        1.0080           0
   67257 WT4  2630 TIP3 H2   HT     0.417000        1.0080           0
   67258 WT4  2632 TIP3 OH2  OT    -0.834000       15.9994           0
   67259 WT4  2632 TIP3 H1   HT     0.417000        1.0080           0
   67260 WT4  2632 TIP3 H2   HT     0.417000        1.0080           0
   67261 WT4  2633 TIP3 OH2  OT    -0.834000       15.9994           0
   67262 WT4  2633 TIP3 H1   HT     0.417000        1.0080           0
   67263 WT4  2633 TIP3 H2   HT     0.417000        1.0080           0
   67264 WT4  2634 TIP3 OH2  OT    -0.834000       15.9994           0
   67265 WT4  2634 TIP3 H1   HT     0.417000        1.0080           0
   67266 WT4  2634 TIP3 H2   HT     0.417000        1.0080           0
   67267 WT4  2635 TIP3 OH2  OT    -0.834000       15.9994           0
   67268 WT4  2635 TIP3 H1   HT     0.417000        1.0080           0
   67269 WT4  2635 TIP3 H2   HT     0.417000        1.0080           0
   67270 WT4  2643 TIP3 OH2  OT    -0.834000       15.9994           0
   67271 WT4  2643 TIP3 H1   HT     0.417000        1.0080           0
   67272 WT4  2643 TIP3 H2   HT     0.417000        1.0080           0
   67273 WT4  2644 TIP3 OH2  OT    -0.834000       15.9994           0
   67274 WT4  2644 TIP3 H1   HT     0.417000        1.0080           0
   67275 WT4  2644 TIP3 H2   HT     0.417000        1.0080           0
   67276 WT4  2649 TIP3 OH2  OT    -0.834000       15.9994           0
   67277 WT4  2649 TIP3 H1   HT     0.417000        1.0080           0
   67278 WT4  2649 TIP3 H2   HT     0.417000        1.0080           0
   67279 WT4  2650 TIP3 OH2  OT    -0.834000       15.9994           0
   67280 WT4  2650 TIP3 H1   HT     0.417000        1.0080           0
   67281 WT4  2650 TIP3 H2   HT     0.417000        1.0080           0
   67282 WT4  2652 TIP3 OH2  OT    -0.834000       15.9994           0
   67283 WT4  2652 TIP3 H1   HT     0.417000        1.0080           0
   67284 WT4  2652 TIP3 H2   HT     0.417000        1.0080           0
   67285 WT4  2654 TIP3 OH2  OT    -0.834000       15.9994           0
   67286 WT4  2654 TIP3 H1   HT     0.417000        1.0080           0
   67287 WT4  2654 TIP3 H2   HT     0.417000        1.0080           0
   67288 WT4  2656 TIP3 OH2  OT    -0.834000       15.9994           0
   67289 WT4  2656 TIP3 H1   HT     0.417000        1.0080           0
   67290 WT4  2656 TIP3 H2   HT     0.417000        1.0080           0
   67291 WT4  2657 TIP3 OH2  OT    -0.834000       15.9994           0
   67292 WT4  2657 TIP3 H1   HT     0.417000        1.0080           0
   67293 WT4  2657 TIP3 H2   HT     0.417000        1.0080           0
   67294 WT4  2659 TIP3 OH2  OT    -0.834000       15.9994           0
   67295 WT4  2659 TIP3 H1   HT     0.417000        1.0080           0
   67296 WT4  2659 TIP3 H2   HT     0.417000        1.0080           0
   67297 WT4  2662 TIP3 OH2  OT    -0.834000       15.9994           0
   67298 WT4  2662 TIP3 H1   HT     0.417000        1.0080           0
   67299 WT4  2662 TIP3 H2   HT     0.417000        1.0080           0
   67300 WT4  2667 TIP3 OH2  OT    -0.834000       15.9994           0
   67301 WT4  2667 TIP3 H1   HT     0.417000        1.0080           0
   67302 WT4  2667 TIP3 H2   HT     0.417000        1.0080           0
   67303 WT4  2669 TIP3 OH2  OT    -0.834000       15.9994           0
   67304 WT4  2669 TIP3 H1   HT     0.417000        1.0080           0
   67305 WT4  2669 TIP3 H2   HT     0.417000        1.0080           0
   67306 WT4  2670 TIP3 OH2  OT    -0.834000       15.9994           0
   67307 WT4  2670 TIP3 H1   HT     0.417000        1.0080           0
   67308 WT4  2670 TIP3 H2   HT     0.417000        1.0080           0
   67309 WT4  2672 TIP3 OH2  OT    -0.834000       15.9994           0
   67310 WT4  2672 TIP3 H1   HT     0.417000        1.0080           0
   67311 WT4  2672 TIP3 H2   HT     0.417000        1.0080           0
   67312 WT4  2673 TIP3 OH2  OT    -0.834000       15.9994           0
   67313 WT4  2673 TIP3 H1   HT     0.417000        1.0080           0
   67314 WT4  2673 TIP3 H2   HT     0.417000        1.0080           0
   67315 WT4  2674 TIP3 OH2  OT    -0.834000       15.9994           0
   67316 WT4  2674 TIP3 H1   HT     0.417000        1.0080           0
   67317 WT4  2674 TIP3 H2   HT     0.417000        1.0080           0
   67318 WT4  2675 TIP3 OH2  OT    -0.834000       15.9994           0
   67319 WT4  2675 TIP3 H1   HT     0.417000        1.0080           0
   67320 WT4  2675 TIP3 H2   HT     0.417000        1.0080           0
   67321 WT4  2676 TIP3 OH2  OT    -0.834000       15.9994           0
   67322 WT4  2676 TIP3 H1   HT     0.417000        1.0080           0
   67323 WT4  2676 TIP3 H2   HT     0.417000        1.0080           0
   67324 WT4  2677 TIP3 OH2  OT    -0.834000       15.9994           0
   67325 WT4  2677 TIP3 H1   HT     0.417000        1.0080           0
   67326 WT4  2677 TIP3 H2   HT     0.417000        1.0080           0
   67327 WT4  2678 TIP3 OH2  OT    -0.834000       15.9994           0
   67328 WT4  2678 TIP3 H1   HT     0.417000        1.0080           0
   67329 WT4  2678 TIP3 H2   HT     0.417000        1.0080           0
   67330 WT4  2680 TIP3 OH2  OT    -0.834000       15.9994           0
   67331 WT4  2680 TIP3 H1   HT     0.417000        1.0080           0
   67332 WT4  2680 TIP3 H2   HT     0.417000        1.0080           0
   67333 WT4  2681 TIP3 OH2  OT    -0.834000       15.9994           0
   67334 WT4  2681 TIP3 H1   HT     0.417000        1.0080           0
   67335 WT4  2681 TIP3 H2   HT     0.417000        1.0080           0
   67336 WT4  2682 TIP3 OH2  OT    -0.834000       15.9994           0
   67337 WT4  2682 TIP3 H1   HT     0.417000        1.0080           0
   67338 WT4  2682 TIP3 H2   HT     0.417000        1.0080           0
   67339 WT4  2683 TIP3 OH2  OT    -0.834000       15.9994           0
   67340 WT4  2683 TIP3 H1   HT     0.417000        1.0080           0
   67341 WT4  2683 TIP3 H2   HT     0.417000        1.0080           0
   67342 WT4  2684 TIP3 OH2  OT    -0.834000       15.9994           0
   67343 WT4  2684 TIP3 H1   HT     0.417000        1.0080           0
   67344 WT4  2684 TIP3 H2   HT     0.417000        1.0080           0
   67345 WT4  2689 TIP3 OH2  OT    -0.834000       15.9994           0
   67346 WT4  2689 TIP3 H1   HT     0.417000        1.0080           0
   67347 WT4  2689 TIP3 H2   HT     0.417000        1.0080           0
   67348 WT4  2690 TIP3 OH2  OT    -0.834000       15.9994           0
   67349 WT4  2690 TIP3 H1   HT     0.417000        1.0080           0
   67350 WT4  2690 TIP3 H2   HT     0.417000        1.0080           0
   67351 WT4  2691 TIP3 OH2  OT    -0.834000       15.9994           0
   67352 WT4  2691 TIP3 H1   HT     0.417000        1.0080           0
   67353 WT4  2691 TIP3 H2   HT     0.417000        1.0080           0
   67354 WT4  2692 TIP3 OH2  OT    -0.834000       15.9994           0
   67355 WT4  2692 TIP3 H1   HT     0.417000        1.0080           0
   67356 WT4  2692 TIP3 H2   HT     0.417000        1.0080           0
   67357 WT4  2693 TIP3 OH2  OT    -0.834000       15.9994           0
   67358 WT4  2693 TIP3 H1   HT     0.417000        1.0080           0
   67359 WT4  2693 TIP3 H2   HT     0.417000        1.0080           0
   67360 WT4  2694 TIP3 OH2  OT    -0.834000       15.9994           0
   67361 WT4  2694 TIP3 H1   HT     0.417000        1.0080           0
   67362 WT4  2694 TIP3 H2   HT     0.417000        1.0080           0
   67363 WT4  2695 TIP3 OH2  OT    -0.834000       15.9994           0
   67364 WT4  2695 TIP3 H1   HT     0.417000        1.0080           0
   67365 WT4  2695 TIP3 H2   HT     0.417000        1.0080           0
   67366 WT4  2696 TIP3 OH2  OT    -0.834000       15.9994           0
   67367 WT4  2696 TIP3 H1   HT     0.417000        1.0080           0
   67368 WT4  2696 TIP3 H2   HT     0.417000        1.0080           0
   67369 WT4  2697 TIP3 OH2  OT    -0.834000       15.9994           0
   67370 WT4  2697 TIP3 H1   HT     0.417000        1.0080           0
   67371 WT4  2697 TIP3 H2   HT     0.417000        1.0080           0
   67372 WT4  2698 TIP3 OH2  OT    -0.834000       15.9994           0
   67373 WT4  2698 TIP3 H1   HT     0.417000        1.0080           0
   67374 WT4  2698 TIP3 H2   HT     0.417000        1.0080           0
   67375 WT4  2699 TIP3 OH2  OT    -0.834000       15.9994           0
   67376 WT4  2699 TIP3 H1   HT     0.417000        1.0080           0
   67377 WT4  2699 TIP3 H2   HT     0.417000        1.0080           0
   67378 WT4  2701 TIP3 OH2  OT    -0.834000       15.9994           0
   67379 WT4  2701 TIP3 H1   HT     0.417000        1.0080           0
   67380 WT4  2701 TIP3 H2   HT     0.417000        1.0080           0
   67381 WT4  2703 TIP3 OH2  OT    -0.834000       15.9994           0
   67382 WT4  2703 TIP3 H1   HT     0.417000        1.0080           0
   67383 WT4  2703 TIP3 H2   HT     0.417000        1.0080           0
   67384 WT4  2709 TIP3 OH2  OT    -0.834000       15.9994           0
   67385 WT4  2709 TIP3 H1   HT     0.417000        1.0080           0
   67386 WT4  2709 TIP3 H2   HT     0.417000        1.0080           0
   67387 WT4  2710 TIP3 OH2  OT    -0.834000       15.9994           0
   67388 WT4  2710 TIP3 H1   HT     0.417000        1.0080           0
   67389 WT4  2710 TIP3 H2   HT     0.417000        1.0080           0
   67390 WT4  2713 TIP3 OH2  OT    -0.834000       15.9994           0
   67391 WT4  2713 TIP3 H1   HT     0.417000        1.0080           0
   67392 WT4  2713 TIP3 H2   HT     0.417000        1.0080           0
   67393 WT4  2714 TIP3 OH2  OT    -0.834000       15.9994           0
   67394 WT4  2714 TIP3 H1   HT     0.417000        1.0080           0
   67395 WT4  2714 TIP3 H2   HT     0.417000        1.0080           0
   67396 WT4  2715 TIP3 OH2  OT    -0.834000       15.9994           0
   67397 WT4  2715 TIP3 H1   HT     0.417000        1.0080           0
   67398 WT4  2715 TIP3 H2   HT     0.417000        1.0080           0
   67399 WT4  2717 TIP3 OH2  OT    -0.834000       15.9994           0
   67400 WT4  2717 TIP3 H1   HT     0.417000        1.0080           0
   67401 WT4  2717 TIP3 H2   HT     0.417000        1.0080           0
   67402 WT4  2718 TIP3 OH2  OT    -0.834000       15.9994           0
   67403 WT4  2718 TIP3 H1   HT     0.417000        1.0080           0
   67404 WT4  2718 TIP3 H2   HT     0.417000        1.0080           0
   67405 WT4  2719 TIP3 OH2  OT    -0.834000       15.9994           0
   67406 WT4  2719 TIP3 H1   HT     0.417000        1.0080           0
   67407 WT4  2719 TIP3 H2   HT     0.417000        1.0080           0
   67408 WT4  2720 TIP3 OH2  OT    -0.834000       15.9994           0
   67409 WT4  2720 TIP3 H1   HT     0.417000        1.0080           0
   67410 WT4  2720 TIP3 H2   HT     0.417000        1.0080           0
   67411 WT4  2721 TIP3 OH2  OT    -0.834000       15.9994           0
   67412 WT4  2721 TIP3 H1   HT     0.417000        1.0080           0
   67413 WT4  2721 TIP3 H2   HT     0.417000        1.0080           0
   67414 WT4  2722 TIP3 OH2  OT    -0.834000       15.9994           0
   67415 WT4  2722 TIP3 H1   HT     0.417000        1.0080           0
   67416 WT4  2722 TIP3 H2   HT     0.417000        1.0080           0
   67417 WT4  2723 TIP3 OH2  OT    -0.834000       15.9994           0
   67418 WT4  2723 TIP3 H1   HT     0.417000        1.0080           0
   67419 WT4  2723 TIP3 H2   HT     0.417000        1.0080           0
   67420 WT4  2724 TIP3 OH2  OT    -0.834000       15.9994           0
   67421 WT4  2724 TIP3 H1   HT     0.417000        1.0080           0
   67422 WT4  2724 TIP3 H2   HT     0.417000        1.0080           0
   67423 WT4  2732 TIP3 OH2  OT    -0.834000       15.9994           0
   67424 WT4  2732 TIP3 H1   HT     0.417000        1.0080           0
   67425 WT4  2732 TIP3 H2   HT     0.417000        1.0080           0
   67426 WT4  2734 TIP3 OH2  OT    -0.834000       15.9994           0
   67427 WT4  2734 TIP3 H1   HT     0.417000        1.0080           0
   67428 WT4  2734 TIP3 H2   HT     0.417000        1.0080           0
   67429 WT4  2735 TIP3 OH2  OT    -0.834000       15.9994           0
   67430 WT4  2735 TIP3 H1   HT     0.417000        1.0080           0
   67431 WT4  2735 TIP3 H2   HT     0.417000        1.0080           0
   67432 WT4  2736 TIP3 OH2  OT    -0.834000       15.9994           0
   67433 WT4  2736 TIP3 H1   HT     0.417000        1.0080           0
   67434 WT4  2736 TIP3 H2   HT     0.417000        1.0080           0
   67435 WT4  2737 TIP3 OH2  OT    -0.834000       15.9994           0
   67436 WT4  2737 TIP3 H1   HT     0.417000        1.0080           0
   67437 WT4  2737 TIP3 H2   HT     0.417000        1.0080           0
   67438 WT4  2738 TIP3 OH2  OT    -0.834000       15.9994           0
   67439 WT4  2738 TIP3 H1   HT     0.417000        1.0080           0
   67440 WT4  2738 TIP3 H2   HT     0.417000        1.0080           0
   67441 WT4  2739 TIP3 OH2  OT    -0.834000       15.9994           0
   67442 WT4  2739 TIP3 H1   HT     0.417000        1.0080           0
   67443 WT4  2739 TIP3 H2   HT     0.417000        1.0080           0
   67444 WT4  2740 TIP3 OH2  OT    -0.834000       15.9994           0
   67445 WT4  2740 TIP3 H1   HT     0.417000        1.0080           0
   67446 WT4  2740 TIP3 H2   HT     0.417000        1.0080           0
   67447 WT4  2741 TIP3 OH2  OT    -0.834000       15.9994           0
   67448 WT4  2741 TIP3 H1   HT     0.417000        1.0080           0
   67449 WT4  2741 TIP3 H2   HT     0.417000        1.0080           0
   67450 WT4  2743 TIP3 OH2  OT    -0.834000       15.9994           0
   67451 WT4  2743 TIP3 H1   HT     0.417000        1.0080           0
   67452 WT4  2743 TIP3 H2   HT     0.417000        1.0080           0
   67453 WT4  2746 TIP3 OH2  OT    -0.834000       15.9994           0
   67454 WT4  2746 TIP3 H1   HT     0.417000        1.0080           0
   67455 WT4  2746 TIP3 H2   HT     0.417000        1.0080           0
   67456 WT4  2753 TIP3 OH2  OT    -0.834000       15.9994           0
   67457 WT4  2753 TIP3 H1   HT     0.417000        1.0080           0
   67458 WT4  2753 TIP3 H2   HT     0.417000        1.0080           0
   67459 WT4  2754 TIP3 OH2  OT    -0.834000       15.9994           0
   67460 WT4  2754 TIP3 H1   HT     0.417000        1.0080           0
   67461 WT4  2754 TIP3 H2   HT     0.417000        1.0080           0
   67462 WT4  2755 TIP3 OH2  OT    -0.834000       15.9994           0
   67463 WT4  2755 TIP3 H1   HT     0.417000        1.0080           0
   67464 WT4  2755 TIP3 H2   HT     0.417000        1.0080           0
   67465 WT4  2756 TIP3 OH2  OT    -0.834000       15.9994           0
   67466 WT4  2756 TIP3 H1   HT     0.417000        1.0080           0
   67467 WT4  2756 TIP3 H2   HT     0.417000        1.0080           0
   67468 WT4  2757 TIP3 OH2  OT    -0.834000       15.9994           0
   67469 WT4  2757 TIP3 H1   HT     0.417000        1.0080           0
   67470 WT4  2757 TIP3 H2   HT     0.417000        1.0080           0
   67471 WT4  2758 TIP3 OH2  OT    -0.834000       15.9994           0
   67472 WT4  2758 TIP3 H1   HT     0.417000        1.0080           0
   67473 WT4  2758 TIP3 H2   HT     0.417000        1.0080           0
   67474 WT4  2760 TIP3 OH2  OT    -0.834000       15.9994           0
   67475 WT4  2760 TIP3 H1   HT     0.417000        1.0080           0
   67476 WT4  2760 TIP3 H2   HT     0.417000        1.0080           0
   67477 WT4  2761 TIP3 OH2  OT    -0.834000       15.9994           0
   67478 WT4  2761 TIP3 H1   HT     0.417000        1.0080           0
   67479 WT4  2761 TIP3 H2   HT     0.417000        1.0080           0
   67480 WT4  2762 TIP3 OH2  OT    -0.834000       15.9994           0
   67481 WT4  2762 TIP3 H1   HT     0.417000        1.0080           0
   67482 WT4  2762 TIP3 H2   HT     0.417000        1.0080           0
   67483 WT4  2767 TIP3 OH2  OT    -0.834000       15.9994           0
   67484 WT4  2767 TIP3 H1   HT     0.417000        1.0080           0
   67485 WT4  2767 TIP3 H2   HT     0.417000        1.0080           0
   67486 WT4  2771 TIP3 OH2  OT    -0.834000       15.9994           0
   67487 WT4  2771 TIP3 H1   HT     0.417000        1.0080           0
   67488 WT4  2771 TIP3 H2   HT     0.417000        1.0080           0
   67489 WT4  2773 TIP3 OH2  OT    -0.834000       15.9994           0
   67490 WT4  2773 TIP3 H1   HT     0.417000        1.0080           0
   67491 WT4  2773 TIP3 H2   HT     0.417000        1.0080           0
   67492 WT4  2774 TIP3 OH2  OT    -0.834000       15.9994           0
   67493 WT4  2774 TIP3 H1   HT     0.417000        1.0080           0
   67494 WT4  2774 TIP3 H2   HT     0.417000        1.0080           0
   67495 WT4  2775 TIP3 OH2  OT    -0.834000       15.9994           0
   67496 WT4  2775 TIP3 H1   HT     0.417000        1.0080           0
   67497 WT4  2775 TIP3 H2   HT     0.417000        1.0080           0
   67498 WT4  2776 TIP3 OH2  OT    -0.834000       15.9994           0
   67499 WT4  2776 TIP3 H1   HT     0.417000        1.0080           0
   67500 WT4  2776 TIP3 H2   HT     0.417000        1.0080           0
   67501 WT4  2777 TIP3 OH2  OT    -0.834000       15.9994           0
   67502 WT4  2777 TIP3 H1   HT     0.417000        1.0080           0
   67503 WT4  2777 TIP3 H2   HT     0.417000        1.0080           0
   67504 WT4  2778 TIP3 OH2  OT    -0.834000       15.9994           0
   67505 WT4  2778 TIP3 H1   HT     0.417000        1.0080           0
   67506 WT4  2778 TIP3 H2   HT     0.417000        1.0080           0
   67507 WT4  2779 TIP3 OH2  OT    -0.834000       15.9994           0
   67508 WT4  2779 TIP3 H1   HT     0.417000        1.0080           0
   67509 WT4  2779 TIP3 H2   HT     0.417000        1.0080           0
   67510 WT4  2780 TIP3 OH2  OT    -0.834000       15.9994           0
   67511 WT4  2780 TIP3 H1   HT     0.417000        1.0080           0
   67512 WT4  2780 TIP3 H2   HT     0.417000        1.0080           0
   67513 WT4  2781 TIP3 OH2  OT    -0.834000       15.9994           0
   67514 WT4  2781 TIP3 H1   HT     0.417000        1.0080           0
   67515 WT4  2781 TIP3 H2   HT     0.417000        1.0080           0
   67516 WT4  2782 TIP3 OH2  OT    -0.834000       15.9994           0
   67517 WT4  2782 TIP3 H1   HT     0.417000        1.0080           0
   67518 WT4  2782 TIP3 H2   HT     0.417000        1.0080           0
   67519 WT4  2783 TIP3 OH2  OT    -0.834000       15.9994           0
   67520 WT4  2783 TIP3 H1   HT     0.417000        1.0080           0
   67521 WT4  2783 TIP3 H2   HT     0.417000        1.0080           0
   67522 WT4  2784 TIP3 OH2  OT    -0.834000       15.9994           0
   67523 WT4  2784 TIP3 H1   HT     0.417000        1.0080           0
   67524 WT4  2784 TIP3 H2   HT     0.417000        1.0080           0
   67525 WT4  2785 TIP3 OH2  OT    -0.834000       15.9994           0
   67526 WT4  2785 TIP3 H1   HT     0.417000        1.0080           0
   67527 WT4  2785 TIP3 H2   HT     0.417000        1.0080           0
   67528 WT4  2790 TIP3 OH2  OT    -0.834000       15.9994           0
   67529 WT4  2790 TIP3 H1   HT     0.417000        1.0080           0
   67530 WT4  2790 TIP3 H2   HT     0.417000        1.0080           0
   67531 WT4  2793 TIP3 OH2  OT    -0.834000       15.9994           0
   67532 WT4  2793 TIP3 H1   HT     0.417000        1.0080           0
   67533 WT4  2793 TIP3 H2   HT     0.417000        1.0080           0
   67534 WT4  2794 TIP3 OH2  OT    -0.834000       15.9994           0
   67535 WT4  2794 TIP3 H1   HT     0.417000        1.0080           0
   67536 WT4  2794 TIP3 H2   HT     0.417000        1.0080           0
   67537 WT4  2795 TIP3 OH2  OT    -0.834000       15.9994           0
   67538 WT4  2795 TIP3 H1   HT     0.417000        1.0080           0
   67539 WT4  2795 TIP3 H2   HT     0.417000        1.0080           0
   67540 WT4  2796 TIP3 OH2  OT    -0.834000       15.9994           0
   67541 WT4  2796 TIP3 H1   HT     0.417000        1.0080           0
   67542 WT4  2796 TIP3 H2   HT     0.417000        1.0080           0
   67543 WT4  2797 TIP3 OH2  OT    -0.834000       15.9994           0
   67544 WT4  2797 TIP3 H1   HT     0.417000        1.0080           0
   67545 WT4  2797 TIP3 H2   HT     0.417000        1.0080           0
   67546 WT4  2799 TIP3 OH2  OT    -0.834000       15.9994           0
   67547 WT4  2799 TIP3 H1   HT     0.417000        1.0080           0
   67548 WT4  2799 TIP3 H2   HT     0.417000        1.0080           0
   67549 WT4  2800 TIP3 OH2  OT    -0.834000       15.9994           0
   67550 WT4  2800 TIP3 H1   HT     0.417000        1.0080           0
   67551 WT4  2800 TIP3 H2   HT     0.417000        1.0080           0
   67552 WT4  2801 TIP3 OH2  OT    -0.834000       15.9994           0
   67553 WT4  2801 TIP3 H1   HT     0.417000        1.0080           0
   67554 WT4  2801 TIP3 H2   HT     0.417000        1.0080           0
   67555 WT4  2802 TIP3 OH2  OT    -0.834000       15.9994           0
   67556 WT4  2802 TIP3 H1   HT     0.417000        1.0080           0
   67557 WT4  2802 TIP3 H2   HT     0.417000        1.0080           0
   67558 WT4  2803 TIP3 OH2  OT    -0.834000       15.9994           0
   67559 WT4  2803 TIP3 H1   HT     0.417000        1.0080           0
   67560 WT4  2803 TIP3 H2   HT     0.417000        1.0080           0
   67561 WT4  2806 TIP3 OH2  OT    -0.834000       15.9994           0
   67562 WT4  2806 TIP3 H1   HT     0.417000        1.0080           0
   67563 WT4  2806 TIP3 H2   HT     0.417000        1.0080           0
   67564 WT4  2814 TIP3 OH2  OT    -0.834000       15.9994           0
   67565 WT4  2814 TIP3 H1   HT     0.417000        1.0080           0
   67566 WT4  2814 TIP3 H2   HT     0.417000        1.0080           0
   67567 WT4  2815 TIP3 OH2  OT    -0.834000       15.9994           0
   67568 WT4  2815 TIP3 H1   HT     0.417000        1.0080           0
   67569 WT4  2815 TIP3 H2   HT     0.417000        1.0080           0
   67570 WT4  2817 TIP3 OH2  OT    -0.834000       15.9994           0
   67571 WT4  2817 TIP3 H1   HT     0.417000        1.0080           0
   67572 WT4  2817 TIP3 H2   HT     0.417000        1.0080           0
   67573 WT4  2818 TIP3 OH2  OT    -0.834000       15.9994           0
   67574 WT4  2818 TIP3 H1   HT     0.417000        1.0080           0
   67575 WT4  2818 TIP3 H2   HT     0.417000        1.0080           0
   67576 WT4  2819 TIP3 OH2  OT    -0.834000       15.9994           0
   67577 WT4  2819 TIP3 H1   HT     0.417000        1.0080           0
   67578 WT4  2819 TIP3 H2   HT     0.417000        1.0080           0
   67579 WT4  2820 TIP3 OH2  OT    -0.834000       15.9994           0
   67580 WT4  2820 TIP3 H1   HT     0.417000        1.0080           0
   67581 WT4  2820 TIP3 H2   HT     0.417000        1.0080           0
   67582 WT4  2821 TIP3 OH2  OT    -0.834000       15.9994           0
   67583 WT4  2821 TIP3 H1   HT     0.417000        1.0080           0
   67584 WT4  2821 TIP3 H2   HT     0.417000        1.0080           0
   67585 WT4  2822 TIP3 OH2  OT    -0.834000       15.9994           0
   67586 WT4  2822 TIP3 H1   HT     0.417000        1.0080           0
   67587 WT4  2822 TIP3 H2   HT     0.417000        1.0080           0
   67588 WT4  2823 TIP3 OH2  OT    -0.834000       15.9994           0
   67589 WT4  2823 TIP3 H1   HT     0.417000        1.0080           0
   67590 WT4  2823 TIP3 H2   HT     0.417000        1.0080           0
   67591 WT4  2824 TIP3 OH2  OT    -0.834000       15.9994           0
   67592 WT4  2824 TIP3 H1   HT     0.417000        1.0080           0
   67593 WT4  2824 TIP3 H2   HT     0.417000        1.0080           0
   67594 WT4  2825 TIP3 OH2  OT    -0.834000       15.9994           0
   67595 WT4  2825 TIP3 H1   HT     0.417000        1.0080           0
   67596 WT4  2825 TIP3 H2   HT     0.417000        1.0080           0
   67597 WT4  2826 TIP3 OH2  OT    -0.834000       15.9994           0
   67598 WT4  2826 TIP3 H1   HT     0.417000        1.0080           0
   67599 WT4  2826 TIP3 H2   HT     0.417000        1.0080           0
   67600 WT4  2827 TIP3 OH2  OT    -0.834000       15.9994           0
   67601 WT4  2827 TIP3 H1   HT     0.417000        1.0080           0
   67602 WT4  2827 TIP3 H2   HT     0.417000        1.0080           0
   67603 WT4  2829 TIP3 OH2  OT    -0.834000       15.9994           0
   67604 WT4  2829 TIP3 H1   HT     0.417000        1.0080           0
   67605 WT4  2829 TIP3 H2   HT     0.417000        1.0080           0
   67606 WT4  2830 TIP3 OH2  OT    -0.834000       15.9994           0
   67607 WT4  2830 TIP3 H1   HT     0.417000        1.0080           0
   67608 WT4  2830 TIP3 H2   HT     0.417000        1.0080           0
   67609 WT4  2831 TIP3 OH2  OT    -0.834000       15.9994           0
   67610 WT4  2831 TIP3 H1   HT     0.417000        1.0080           0
   67611 WT4  2831 TIP3 H2   HT     0.417000        1.0080           0
   67612 WT4  2832 TIP3 OH2  OT    -0.834000       15.9994           0
   67613 WT4  2832 TIP3 H1   HT     0.417000        1.0080           0
   67614 WT4  2832 TIP3 H2   HT     0.417000        1.0080           0
   67615 WT4  2839 TIP3 OH2  OT    -0.834000       15.9994           0
   67616 WT4  2839 TIP3 H1   HT     0.417000        1.0080           0
   67617 WT4  2839 TIP3 H2   HT     0.417000        1.0080           0
   67618 WT4  2840 TIP3 OH2  OT    -0.834000       15.9994           0
   67619 WT4  2840 TIP3 H1   HT     0.417000        1.0080           0
   67620 WT4  2840 TIP3 H2   HT     0.417000        1.0080           0
   67621 WT4  2841 TIP3 OH2  OT    -0.834000       15.9994           0
   67622 WT4  2841 TIP3 H1   HT     0.417000        1.0080           0
   67623 WT4  2841 TIP3 H2   HT     0.417000        1.0080           0
   67624 WT4  2842 TIP3 OH2  OT    -0.834000       15.9994           0
   67625 WT4  2842 TIP3 H1   HT     0.417000        1.0080           0
   67626 WT4  2842 TIP3 H2   HT     0.417000        1.0080           0
   67627 WT4  2843 TIP3 OH2  OT    -0.834000       15.9994           0
   67628 WT4  2843 TIP3 H1   HT     0.417000        1.0080           0
   67629 WT4  2843 TIP3 H2   HT     0.417000        1.0080           0
   67630 WT4  2844 TIP3 OH2  OT    -0.834000       15.9994           0
   67631 WT4  2844 TIP3 H1   HT     0.417000        1.0080           0
   67632 WT4  2844 TIP3 H2   HT     0.417000        1.0080           0
   67633 WT4  2845 TIP3 OH2  OT    -0.834000       15.9994           0
   67634 WT4  2845 TIP3 H1   HT     0.417000        1.0080           0
   67635 WT4  2845 TIP3 H2   HT     0.417000        1.0080           0
   67636 WT4  2847 TIP3 OH2  OT    -0.834000       15.9994           0
   67637 WT4  2847 TIP3 H1   HT     0.417000        1.0080           0
   67638 WT4  2847 TIP3 H2   HT     0.417000        1.0080           0
   67639 WT4  2848 TIP3 OH2  OT    -0.834000       15.9994           0
   67640 WT4  2848 TIP3 H1   HT     0.417000        1.0080           0
   67641 WT4  2848 TIP3 H2   HT     0.417000        1.0080           0
   67642 WT4  2853 TIP3 OH2  OT    -0.834000       15.9994           0
   67643 WT4  2853 TIP3 H1   HT     0.417000        1.0080           0
   67644 WT4  2853 TIP3 H2   HT     0.417000        1.0080           0
   67645 WT4  2857 TIP3 OH2  OT    -0.834000       15.9994           0
   67646 WT4  2857 TIP3 H1   HT     0.417000        1.0080           0
   67647 WT4  2857 TIP3 H2   HT     0.417000        1.0080           0
   67648 WT4  2858 TIP3 OH2  OT    -0.834000       15.9994           0
   67649 WT4  2858 TIP3 H1   HT     0.417000        1.0080           0
   67650 WT4  2858 TIP3 H2   HT     0.417000        1.0080           0
   67651 WT4  2859 TIP3 OH2  OT    -0.834000       15.9994           0
   67652 WT4  2859 TIP3 H1   HT     0.417000        1.0080           0
   67653 WT4  2859 TIP3 H2   HT     0.417000        1.0080           0
   67654 WT4  2860 TIP3 OH2  OT    -0.834000       15.9994           0
   67655 WT4  2860 TIP3 H1   HT     0.417000        1.0080           0
   67656 WT4  2860 TIP3 H2   HT     0.417000        1.0080           0
   67657 WT4  2862 TIP3 OH2  OT    -0.834000       15.9994           0
   67658 WT4  2862 TIP3 H1   HT     0.417000        1.0080           0
   67659 WT4  2862 TIP3 H2   HT     0.417000        1.0080           0
   67660 WT4  2865 TIP3 OH2  OT    -0.834000       15.9994           0
   67661 WT4  2865 TIP3 H1   HT     0.417000        1.0080           0
   67662 WT4  2865 TIP3 H2   HT     0.417000        1.0080           0
   67663 WT4  2866 TIP3 OH2  OT    -0.834000       15.9994           0
   67664 WT4  2866 TIP3 H1   HT     0.417000        1.0080           0
   67665 WT4  2866 TIP3 H2   HT     0.417000        1.0080           0
   67666 WT4  2867 TIP3 OH2  OT    -0.834000       15.9994           0
   67667 WT4  2867 TIP3 H1   HT     0.417000        1.0080           0
   67668 WT4  2867 TIP3 H2   HT     0.417000        1.0080           0
   67669 WT4  2877 TIP3 OH2  OT    -0.834000       15.9994           0
   67670 WT4  2877 TIP3 H1   HT     0.417000        1.0080           0
   67671 WT4  2877 TIP3 H2   HT     0.417000        1.0080           0
   67672 WT4  2878 TIP3 OH2  OT    -0.834000       15.9994           0
   67673 WT4  2878 TIP3 H1   HT     0.417000        1.0080           0
   67674 WT4  2878 TIP3 H2   HT     0.417000        1.0080           0
   67675 WT4  2882 TIP3 OH2  OT    -0.834000       15.9994           0
   67676 WT4  2882 TIP3 H1   HT     0.417000        1.0080           0
   67677 WT4  2882 TIP3 H2   HT     0.417000        1.0080           0
   67678 WT4  2883 TIP3 OH2  OT    -0.834000       15.9994           0
   67679 WT4  2883 TIP3 H1   HT     0.417000        1.0080           0
   67680 WT4  2883 TIP3 H2   HT     0.417000        1.0080           0
   67681 WT4  2884 TIP3 OH2  OT    -0.834000       15.9994           0
   67682 WT4  2884 TIP3 H1   HT     0.417000        1.0080           0
   67683 WT4  2884 TIP3 H2   HT     0.417000        1.0080           0
   67684 WT4  2885 TIP3 OH2  OT    -0.834000       15.9994           0
   67685 WT4  2885 TIP3 H1   HT     0.417000        1.0080           0
   67686 WT4  2885 TIP3 H2   HT     0.417000        1.0080           0
   67687 WT4  2886 TIP3 OH2  OT    -0.834000       15.9994           0
   67688 WT4  2886 TIP3 H1   HT     0.417000        1.0080           0
   67689 WT4  2886 TIP3 H2   HT     0.417000        1.0080           0
   67690 WT4  2888 TIP3 OH2  OT    -0.834000       15.9994           0
   67691 WT4  2888 TIP3 H1   HT     0.417000        1.0080           0
   67692 WT4  2888 TIP3 H2   HT     0.417000        1.0080           0
   67693 WT4  2890 TIP3 OH2  OT    -0.834000       15.9994           0
   67694 WT4  2890 TIP3 H1   HT     0.417000        1.0080           0
   67695 WT4  2890 TIP3 H2   HT     0.417000        1.0080           0
   67696 WT4  2891 TIP3 OH2  OT    -0.834000       15.9994           0
   67697 WT4  2891 TIP3 H1   HT     0.417000        1.0080           0
   67698 WT4  2891 TIP3 H2   HT     0.417000        1.0080           0
   67699 WT4  2893 TIP3 OH2  OT    -0.834000       15.9994           0
   67700 WT4  2893 TIP3 H1   HT     0.417000        1.0080           0
   67701 WT4  2893 TIP3 H2   HT     0.417000        1.0080           0
   67702 WT4  2900 TIP3 OH2  OT    -0.834000       15.9994           0
   67703 WT4  2900 TIP3 H1   HT     0.417000        1.0080           0
   67704 WT4  2900 TIP3 H2   HT     0.417000        1.0080           0
   67705 WT4  2901 TIP3 OH2  OT    -0.834000       15.9994           0
   67706 WT4  2901 TIP3 H1   HT     0.417000        1.0080           0
   67707 WT4  2901 TIP3 H2   HT     0.417000        1.0080           0
   67708 WT4  2903 TIP3 OH2  OT    -0.834000       15.9994           0
   67709 WT4  2903 TIP3 H1   HT     0.417000        1.0080           0
   67710 WT4  2903 TIP3 H2   HT     0.417000        1.0080           0
   67711 WT4  2904 TIP3 OH2  OT    -0.834000       15.9994           0
   67712 WT4  2904 TIP3 H1   HT     0.417000        1.0080           0
   67713 WT4  2904 TIP3 H2   HT     0.417000        1.0080           0
   67714 WT4  2906 TIP3 OH2  OT    -0.834000       15.9994           0
   67715 WT4  2906 TIP3 H1   HT     0.417000        1.0080           0
   67716 WT4  2906 TIP3 H2   HT     0.417000        1.0080           0
   67717 WT4  2907 TIP3 OH2  OT    -0.834000       15.9994           0
   67718 WT4  2907 TIP3 H1   HT     0.417000        1.0080           0
   67719 WT4  2907 TIP3 H2   HT     0.417000        1.0080           0
   67720 WT4  2909 TIP3 OH2  OT    -0.834000       15.9994           0
   67721 WT4  2909 TIP3 H1   HT     0.417000        1.0080           0
   67722 WT4  2909 TIP3 H2   HT     0.417000        1.0080           0
   67723 WT4  2911 TIP3 OH2  OT    -0.834000       15.9994           0
   67724 WT4  2911 TIP3 H1   HT     0.417000        1.0080           0
   67725 WT4  2911 TIP3 H2   HT     0.417000        1.0080           0
   67726 WT4  2913 TIP3 OH2  OT    -0.834000       15.9994           0
   67727 WT4  2913 TIP3 H1   HT     0.417000        1.0080           0
   67728 WT4  2913 TIP3 H2   HT     0.417000        1.0080           0
   67729 WT4  2918 TIP3 OH2  OT    -0.834000       15.9994           0
   67730 WT4  2918 TIP3 H1   HT     0.417000        1.0080           0
   67731 WT4  2918 TIP3 H2   HT     0.417000        1.0080           0
   67732 WT4  2919 TIP3 OH2  OT    -0.834000       15.9994           0
   67733 WT4  2919 TIP3 H1   HT     0.417000        1.0080           0
   67734 WT4  2919 TIP3 H2   HT     0.417000        1.0080           0
   67735 WT4  2922 TIP3 OH2  OT    -0.834000       15.9994           0
   67736 WT4  2922 TIP3 H1   HT     0.417000        1.0080           0
   67737 WT4  2922 TIP3 H2   HT     0.417000        1.0080           0
   67738 WT4  2923 TIP3 OH2  OT    -0.834000       15.9994           0
   67739 WT4  2923 TIP3 H1   HT     0.417000        1.0080           0
   67740 WT4  2923 TIP3 H2   HT     0.417000        1.0080           0
   67741 WT4  2925 TIP3 OH2  OT    -0.834000       15.9994           0
   67742 WT4  2925 TIP3 H1   HT     0.417000        1.0080           0
   67743 WT4  2925 TIP3 H2   HT     0.417000        1.0080           0
   67744 WT4  2926 TIP3 OH2  OT    -0.834000       15.9994           0
   67745 WT4  2926 TIP3 H1   HT     0.417000        1.0080           0
   67746 WT4  2926 TIP3 H2   HT     0.417000        1.0080           0
   67747 WT4  2927 TIP3 OH2  OT    -0.834000       15.9994           0
   67748 WT4  2927 TIP3 H1   HT     0.417000        1.0080           0
   67749 WT4  2927 TIP3 H2   HT     0.417000        1.0080           0
   67750 WT4  2928 TIP3 OH2  OT    -0.834000       15.9994           0
   67751 WT4  2928 TIP3 H1   HT     0.417000        1.0080           0
   67752 WT4  2928 TIP3 H2   HT     0.417000        1.0080           0
   67753 WT4  2930 TIP3 OH2  OT    -0.834000       15.9994           0
   67754 WT4  2930 TIP3 H1   HT     0.417000        1.0080           0
   67755 WT4  2930 TIP3 H2   HT     0.417000        1.0080           0
   67756 WT4  2941 TIP3 OH2  OT    -0.834000       15.9994           0
   67757 WT4  2941 TIP3 H1   HT     0.417000        1.0080           0
   67758 WT4  2941 TIP3 H2   HT     0.417000        1.0080           0
   67759 WT4  2943 TIP3 OH2  OT    -0.834000       15.9994           0
   67760 WT4  2943 TIP3 H1   HT     0.417000        1.0080           0
   67761 WT4  2943 TIP3 H2   HT     0.417000        1.0080           0
   67762 WT4  2944 TIP3 OH2  OT    -0.834000       15.9994           0
   67763 WT4  2944 TIP3 H1   HT     0.417000        1.0080           0
   67764 WT4  2944 TIP3 H2   HT     0.417000        1.0080           0
   67765 WT4  2946 TIP3 OH2  OT    -0.834000       15.9994           0
   67766 WT4  2946 TIP3 H1   HT     0.417000        1.0080           0
   67767 WT4  2946 TIP3 H2   HT     0.417000        1.0080           0
   67768 WT4  2963 TIP3 OH2  OT    -0.834000       15.9994           0
   67769 WT4  2963 TIP3 H1   HT     0.417000        1.0080           0
   67770 WT4  2963 TIP3 H2   HT     0.417000        1.0080           0
   67771 WT4  2965 TIP3 OH2  OT    -0.834000       15.9994           0
   67772 WT4  2965 TIP3 H1   HT     0.417000        1.0080           0
   67773 WT4  2965 TIP3 H2   HT     0.417000        1.0080           0
   67774 WT4  2967 TIP3 OH2  OT    -0.834000       15.9994           0
   67775 WT4  2967 TIP3 H1   HT     0.417000        1.0080           0
   67776 WT4  2967 TIP3 H2   HT     0.417000        1.0080           0
   67777 WT4  2968 TIP3 OH2  OT    -0.834000       15.9994           0
   67778 WT4  2968 TIP3 H1   HT     0.417000        1.0080           0
   67779 WT4  2968 TIP3 H2   HT     0.417000        1.0080           0
   67780 WT4  2972 TIP3 OH2  OT    -0.834000       15.9994           0
   67781 WT4  2972 TIP3 H1   HT     0.417000        1.0080           0
   67782 WT4  2972 TIP3 H2   HT     0.417000        1.0080           0
   67783 WT4  2975 TIP3 OH2  OT    -0.834000       15.9994           0
   67784 WT4  2975 TIP3 H1   HT     0.417000        1.0080           0
   67785 WT4  2975 TIP3 H2   HT     0.417000        1.0080           0
   67786 WT4  2979 TIP3 OH2  OT    -0.834000       15.9994           0
   67787 WT4  2979 TIP3 H1   HT     0.417000        1.0080           0
   67788 WT4  2979 TIP3 H2   HT     0.417000        1.0080           0
   67789 WT4  2991 TIP3 OH2  OT    -0.834000       15.9994           0
   67790 WT4  2991 TIP3 H1   HT     0.417000        1.0080           0
   67791 WT4  2991 TIP3 H2   HT     0.417000        1.0080           0
   67792 WT4  2994 TIP3 OH2  OT    -0.834000       15.9994           0
   67793 WT4  2994 TIP3 H1   HT     0.417000        1.0080           0
   67794 WT4  2994 TIP3 H2   HT     0.417000        1.0080           0
   67795 WT4  3010 TIP3 OH2  OT    -0.834000       15.9994           0
   67796 WT4  3010 TIP3 H1   HT     0.417000        1.0080           0
   67797 WT4  3010 TIP3 H2   HT     0.417000        1.0080           0
   67798 WT4  3012 TIP3 OH2  OT    -0.834000       15.9994           0
   67799 WT4  3012 TIP3 H1   HT     0.417000        1.0080           0
   67800 WT4  3012 TIP3 H2   HT     0.417000        1.0080           0
   67801 WT4  3016 TIP3 OH2  OT    -0.834000       15.9994           0
   67802 WT4  3016 TIP3 H1   HT     0.417000        1.0080           0
   67803 WT4  3016 TIP3 H2   HT     0.417000        1.0080           0
   67804 WT4  3027 TIP3 OH2  OT    -0.834000       15.9994           0
   67805 WT4  3027 TIP3 H1   HT     0.417000        1.0080           0
   67806 WT4  3027 TIP3 H2   HT     0.417000        1.0080           0
   67807 WT4  3030 TIP3 OH2  OT    -0.834000       15.9994           0
   67808 WT4  3030 TIP3 H1   HT     0.417000        1.0080           0
   67809 WT4  3030 TIP3 H2   HT     0.417000        1.0080           0
   67810 WT4  3033 TIP3 OH2  OT    -0.834000       15.9994           0
   67811 WT4  3033 TIP3 H1   HT     0.417000        1.0080           0
   67812 WT4  3033 TIP3 H2   HT     0.417000        1.0080           0
   67813 WT4  3036 TIP3 OH2  OT    -0.834000       15.9994           0
   67814 WT4  3036 TIP3 H1   HT     0.417000        1.0080           0
   67815 WT4  3036 TIP3 H2   HT     0.417000        1.0080           0
   67816 WT4  3037 TIP3 OH2  OT    -0.834000       15.9994           0
   67817 WT4  3037 TIP3 H1   HT     0.417000        1.0080           0
   67818 WT4  3037 TIP3 H2   HT     0.417000        1.0080           0
   67819 WT4  3046 TIP3 OH2  OT    -0.834000       15.9994           0
   67820 WT4  3046 TIP3 H1   HT     0.417000        1.0080           0
   67821 WT4  3046 TIP3 H2   HT     0.417000        1.0080           0
   67822 WT4  3049 TIP3 OH2  OT    -0.834000       15.9994           0
   67823 WT4  3049 TIP3 H1   HT     0.417000        1.0080           0
   67824 WT4  3049 TIP3 H2   HT     0.417000        1.0080           0
   67825 WT4  3050 TIP3 OH2  OT    -0.834000       15.9994           0
   67826 WT4  3050 TIP3 H1   HT     0.417000        1.0080           0
   67827 WT4  3050 TIP3 H2   HT     0.417000        1.0080           0
   67828 WT4  3053 TIP3 OH2  OT    -0.834000       15.9994           0
   67829 WT4  3053 TIP3 H1   HT     0.417000        1.0080           0
   67830 WT4  3053 TIP3 H2   HT     0.417000        1.0080           0
   67831 WT4  3057 TIP3 OH2  OT    -0.834000       15.9994           0
   67832 WT4  3057 TIP3 H1   HT     0.417000        1.0080           0
   67833 WT4  3057 TIP3 H2   HT     0.417000        1.0080           0
   67834 WT4  3058 TIP3 OH2  OT    -0.834000       15.9994           0
   67835 WT4  3058 TIP3 H1   HT     0.417000        1.0080           0
   67836 WT4  3058 TIP3 H2   HT     0.417000        1.0080           0
   67837 WT4  3068 TIP3 OH2  OT    -0.834000       15.9994           0
   67838 WT4  3068 TIP3 H1   HT     0.417000        1.0080           0
   67839 WT4  3068 TIP3 H2   HT     0.417000        1.0080           0
   67840 WT4  3070 TIP3 OH2  OT    -0.834000       15.9994           0
   67841 WT4  3070 TIP3 H1   HT     0.417000        1.0080           0
   67842 WT4  3070 TIP3 H2   HT     0.417000        1.0080           0
   67843 WT4  3071 TIP3 OH2  OT    -0.834000       15.9994           0
   67844 WT4  3071 TIP3 H1   HT     0.417000        1.0080           0
   67845 WT4  3071 TIP3 H2   HT     0.417000        1.0080           0
   67846 WT4  3072 TIP3 OH2  OT    -0.834000       15.9994           0
   67847 WT4  3072 TIP3 H1   HT     0.417000        1.0080           0
   67848 WT4  3072 TIP3 H2   HT     0.417000        1.0080           0
   67849 WT4  3073 TIP3 OH2  OT    -0.834000       15.9994           0
   67850 WT4  3073 TIP3 H1   HT     0.417000        1.0080           0
   67851 WT4  3073 TIP3 H2   HT     0.417000        1.0080           0
   67852 WT4  3075 TIP3 OH2  OT    -0.834000       15.9994           0
   67853 WT4  3075 TIP3 H1   HT     0.417000        1.0080           0
   67854 WT4  3075 TIP3 H2   HT     0.417000        1.0080           0
   67855 WT4  3079 TIP3 OH2  OT    -0.834000       15.9994           0
   67856 WT4  3079 TIP3 H1   HT     0.417000        1.0080           0
   67857 WT4  3079 TIP3 H2   HT     0.417000        1.0080           0
   67858 WT4  3080 TIP3 OH2  OT    -0.834000       15.9994           0
   67859 WT4  3080 TIP3 H1   HT     0.417000        1.0080           0
   67860 WT4  3080 TIP3 H2   HT     0.417000        1.0080           0
   67861 WT4  3081 TIP3 OH2  OT    -0.834000       15.9994           0
   67862 WT4  3081 TIP3 H1   HT     0.417000        1.0080           0
   67863 WT4  3081 TIP3 H2   HT     0.417000        1.0080           0
   67864 WT4  3085 TIP3 OH2  OT    -0.834000       15.9994           0
   67865 WT4  3085 TIP3 H1   HT     0.417000        1.0080           0
   67866 WT4  3085 TIP3 H2   HT     0.417000        1.0080           0
   67867 WT4  3086 TIP3 OH2  OT    -0.834000       15.9994           0
   67868 WT4  3086 TIP3 H1   HT     0.417000        1.0080           0
   67869 WT4  3086 TIP3 H2   HT     0.417000        1.0080           0
   67870 WT4  3091 TIP3 OH2  OT    -0.834000       15.9994           0
   67871 WT4  3091 TIP3 H1   HT     0.417000        1.0080           0
   67872 WT4  3091 TIP3 H2   HT     0.417000        1.0080           0
   67873 WT4  3092 TIP3 OH2  OT    -0.834000       15.9994           0
   67874 WT4  3092 TIP3 H1   HT     0.417000        1.0080           0
   67875 WT4  3092 TIP3 H2   HT     0.417000        1.0080           0
   67876 WT4  3095 TIP3 OH2  OT    -0.834000       15.9994           0
   67877 WT4  3095 TIP3 H1   HT     0.417000        1.0080           0
   67878 WT4  3095 TIP3 H2   HT     0.417000        1.0080           0
   67879 WT4  3096 TIP3 OH2  OT    -0.834000       15.9994           0
   67880 WT4  3096 TIP3 H1   HT     0.417000        1.0080           0
   67881 WT4  3096 TIP3 H2   HT     0.417000        1.0080           0
   67882 WT4  3097 TIP3 OH2  OT    -0.834000       15.9994           0
   67883 WT4  3097 TIP3 H1   HT     0.417000        1.0080           0
   67884 WT4  3097 TIP3 H2   HT     0.417000        1.0080           0
   67885 WT4  3101 TIP3 OH2  OT    -0.834000       15.9994           0
   67886 WT4  3101 TIP3 H1   HT     0.417000        1.0080           0
   67887 WT4  3101 TIP3 H2   HT     0.417000        1.0080           0
   67888 WT4  3102 TIP3 OH2  OT    -0.834000       15.9994           0
   67889 WT4  3102 TIP3 H1   HT     0.417000        1.0080           0
   67890 WT4  3102 TIP3 H2   HT     0.417000        1.0080           0
   67891 WT4  3104 TIP3 OH2  OT    -0.834000       15.9994           0
   67892 WT4  3104 TIP3 H1   HT     0.417000        1.0080           0
   67893 WT4  3104 TIP3 H2   HT     0.417000        1.0080           0
   67894 WT4  3108 TIP3 OH2  OT    -0.834000       15.9994           0
   67895 WT4  3108 TIP3 H1   HT     0.417000        1.0080           0
   67896 WT4  3108 TIP3 H2   HT     0.417000        1.0080           0
   67897 WT4  3109 TIP3 OH2  OT    -0.834000       15.9994           0
   67898 WT4  3109 TIP3 H1   HT     0.417000        1.0080           0
   67899 WT4  3109 TIP3 H2   HT     0.417000        1.0080           0
   67900 WT4  3111 TIP3 OH2  OT    -0.834000       15.9994           0
   67901 WT4  3111 TIP3 H1   HT     0.417000        1.0080           0
   67902 WT4  3111 TIP3 H2   HT     0.417000        1.0080           0
   67903 WT4  3112 TIP3 OH2  OT    -0.834000       15.9994           0
   67904 WT4  3112 TIP3 H1   HT     0.417000        1.0080           0
   67905 WT4  3112 TIP3 H2   HT     0.417000        1.0080           0
   67906 WT4  3113 TIP3 OH2  OT    -0.834000       15.9994           0
   67907 WT4  3113 TIP3 H1   HT     0.417000        1.0080           0
   67908 WT4  3113 TIP3 H2   HT     0.417000        1.0080           0
   67909 WT4  3114 TIP3 OH2  OT    -0.834000       15.9994           0
   67910 WT4  3114 TIP3 H1   HT     0.417000        1.0080           0
   67911 WT4  3114 TIP3 H2   HT     0.417000        1.0080           0
   67912 WT4  3115 TIP3 OH2  OT    -0.834000       15.9994           0
   67913 WT4  3115 TIP3 H1   HT     0.417000        1.0080           0
   67914 WT4  3115 TIP3 H2   HT     0.417000        1.0080           0
   67915 WT4  3116 TIP3 OH2  OT    -0.834000       15.9994           0
   67916 WT4  3116 TIP3 H1   HT     0.417000        1.0080           0
   67917 WT4  3116 TIP3 H2   HT     0.417000        1.0080           0
   67918 WT4  3117 TIP3 OH2  OT    -0.834000       15.9994           0
   67919 WT4  3117 TIP3 H1   HT     0.417000        1.0080           0
   67920 WT4  3117 TIP3 H2   HT     0.417000        1.0080           0
   67921 WT4  3119 TIP3 OH2  OT    -0.834000       15.9994           0
   67922 WT4  3119 TIP3 H1   HT     0.417000        1.0080           0
   67923 WT4  3119 TIP3 H2   HT     0.417000        1.0080           0
   67924 WT4  3120 TIP3 OH2  OT    -0.834000       15.9994           0
   67925 WT4  3120 TIP3 H1   HT     0.417000        1.0080           0
   67926 WT4  3120 TIP3 H2   HT     0.417000        1.0080           0
   67927 WT4  3121 TIP3 OH2  OT    -0.834000       15.9994           0
   67928 WT4  3121 TIP3 H1   HT     0.417000        1.0080           0
   67929 WT4  3121 TIP3 H2   HT     0.417000        1.0080           0
   67930 WT4  3129 TIP3 OH2  OT    -0.834000       15.9994           0
   67931 WT4  3129 TIP3 H1   HT     0.417000        1.0080           0
   67932 WT4  3129 TIP3 H2   HT     0.417000        1.0080           0
   67933 WT4  3131 TIP3 OH2  OT    -0.834000       15.9994           0
   67934 WT4  3131 TIP3 H1   HT     0.417000        1.0080           0
   67935 WT4  3131 TIP3 H2   HT     0.417000        1.0080           0
   67936 WT4  3133 TIP3 OH2  OT    -0.834000       15.9994           0
   67937 WT4  3133 TIP3 H1   HT     0.417000        1.0080           0
   67938 WT4  3133 TIP3 H2   HT     0.417000        1.0080           0
   67939 WT4  3134 TIP3 OH2  OT    -0.834000       15.9994           0
   67940 WT4  3134 TIP3 H1   HT     0.417000        1.0080           0
   67941 WT4  3134 TIP3 H2   HT     0.417000        1.0080           0
   67942 WT4  3136 TIP3 OH2  OT    -0.834000       15.9994           0
   67943 WT4  3136 TIP3 H1   HT     0.417000        1.0080           0
   67944 WT4  3136 TIP3 H2   HT     0.417000        1.0080           0
   67945 WT4  3138 TIP3 OH2  OT    -0.834000       15.9994           0
   67946 WT4  3138 TIP3 H1   HT     0.417000        1.0080           0
   67947 WT4  3138 TIP3 H2   HT     0.417000        1.0080           0
   67948 WT4  3139 TIP3 OH2  OT    -0.834000       15.9994           0
   67949 WT4  3139 TIP3 H1   HT     0.417000        1.0080           0
   67950 WT4  3139 TIP3 H2   HT     0.417000        1.0080           0
   67951 WT4  3140 TIP3 OH2  OT    -0.834000       15.9994           0
   67952 WT4  3140 TIP3 H1   HT     0.417000        1.0080           0
   67953 WT4  3140 TIP3 H2   HT     0.417000        1.0080           0
   67954 WT4  3141 TIP3 OH2  OT    -0.834000       15.9994           0
   67955 WT4  3141 TIP3 H1   HT     0.417000        1.0080           0
   67956 WT4  3141 TIP3 H2   HT     0.417000        1.0080           0
   67957 WT4  3142 TIP3 OH2  OT    -0.834000       15.9994           0
   67958 WT4  3142 TIP3 H1   HT     0.417000        1.0080           0
   67959 WT4  3142 TIP3 H2   HT     0.417000        1.0080           0
   67960 WT4  3143 TIP3 OH2  OT    -0.834000       15.9994           0
   67961 WT4  3143 TIP3 H1   HT     0.417000        1.0080           0
   67962 WT4  3143 TIP3 H2   HT     0.417000        1.0080           0
   67963 WT4  3145 TIP3 OH2  OT    -0.834000       15.9994           0
   67964 WT4  3145 TIP3 H1   HT     0.417000        1.0080           0
   67965 WT4  3145 TIP3 H2   HT     0.417000        1.0080           0
   67966 WT4  3150 TIP3 OH2  OT    -0.834000       15.9994           0
   67967 WT4  3150 TIP3 H1   HT     0.417000        1.0080           0
   67968 WT4  3150 TIP3 H2   HT     0.417000        1.0080           0
   67969 WT4  3151 TIP3 OH2  OT    -0.834000       15.9994           0
   67970 WT4  3151 TIP3 H1   HT     0.417000        1.0080           0
   67971 WT4  3151 TIP3 H2   HT     0.417000        1.0080           0
   67972 WT4  3152 TIP3 OH2  OT    -0.834000       15.9994           0
   67973 WT4  3152 TIP3 H1   HT     0.417000        1.0080           0
   67974 WT4  3152 TIP3 H2   HT     0.417000        1.0080           0
   67975 WT4  3154 TIP3 OH2  OT    -0.834000       15.9994           0
   67976 WT4  3154 TIP3 H1   HT     0.417000        1.0080           0
   67977 WT4  3154 TIP3 H2   HT     0.417000        1.0080           0
   67978 WT4  3155 TIP3 OH2  OT    -0.834000       15.9994           0
   67979 WT4  3155 TIP3 H1   HT     0.417000        1.0080           0
   67980 WT4  3155 TIP3 H2   HT     0.417000        1.0080           0
   67981 WT4  3156 TIP3 OH2  OT    -0.834000       15.9994           0
   67982 WT4  3156 TIP3 H1   HT     0.417000        1.0080           0
   67983 WT4  3156 TIP3 H2   HT     0.417000        1.0080           0
   67984 WT4  3157 TIP3 OH2  OT    -0.834000       15.9994           0
   67985 WT4  3157 TIP3 H1   HT     0.417000        1.0080           0
   67986 WT4  3157 TIP3 H2   HT     0.417000        1.0080           0
   67987 WT4  3158 TIP3 OH2  OT    -0.834000       15.9994           0
   67988 WT4  3158 TIP3 H1   HT     0.417000        1.0080           0
   67989 WT4  3158 TIP3 H2   HT     0.417000        1.0080           0
   67990 WT4  3159 TIP3 OH2  OT    -0.834000       15.9994           0
   67991 WT4  3159 TIP3 H1   HT     0.417000        1.0080           0
   67992 WT4  3159 TIP3 H2   HT     0.417000        1.0080           0
   67993 WT4  3160 TIP3 OH2  OT    -0.834000       15.9994           0
   67994 WT4  3160 TIP3 H1   HT     0.417000        1.0080           0
   67995 WT4  3160 TIP3 H2   HT     0.417000        1.0080           0
   67996 WT4  3161 TIP3 OH2  OT    -0.834000       15.9994           0
   67997 WT4  3161 TIP3 H1   HT     0.417000        1.0080           0
   67998 WT4  3161 TIP3 H2   HT     0.417000        1.0080           0
   67999 WT4  3162 TIP3 OH2  OT    -0.834000       15.9994           0
   68000 WT4  3162 TIP3 H1   HT     0.417000        1.0080           0
   68001 WT4  3162 TIP3 H2   HT     0.417000        1.0080           0
   68002 WT4  3173 TIP3 OH2  OT    -0.834000       15.9994           0
   68003 WT4  3173 TIP3 H1   HT     0.417000        1.0080           0
   68004 WT4  3173 TIP3 H2   HT     0.417000        1.0080           0
   68005 WT4  3174 TIP3 OH2  OT    -0.834000       15.9994           0
   68006 WT4  3174 TIP3 H1   HT     0.417000        1.0080           0
   68007 WT4  3174 TIP3 H2   HT     0.417000        1.0080           0
   68008 WT4  3175 TIP3 OH2  OT    -0.834000       15.9994           0
   68009 WT4  3175 TIP3 H1   HT     0.417000        1.0080           0
   68010 WT4  3175 TIP3 H2   HT     0.417000        1.0080           0
   68011 WT4  3176 TIP3 OH2  OT    -0.834000       15.9994           0
   68012 WT4  3176 TIP3 H1   HT     0.417000        1.0080           0
   68013 WT4  3176 TIP3 H2   HT     0.417000        1.0080           0
   68014 WT4  3177 TIP3 OH2  OT    -0.834000       15.9994           0
   68015 WT4  3177 TIP3 H1   HT     0.417000        1.0080           0
   68016 WT4  3177 TIP3 H2   HT     0.417000        1.0080           0
   68017 WT4  3178 TIP3 OH2  OT    -0.834000       15.9994           0
   68018 WT4  3178 TIP3 H1   HT     0.417000        1.0080           0
   68019 WT4  3178 TIP3 H2   HT     0.417000        1.0080           0
   68020 WT4  3179 TIP3 OH2  OT    -0.834000       15.9994           0
   68021 WT4  3179 TIP3 H1   HT     0.417000        1.0080           0
   68022 WT4  3179 TIP3 H2   HT     0.417000        1.0080           0
   68023 WT4  3180 TIP3 OH2  OT    -0.834000       15.9994           0
   68024 WT4  3180 TIP3 H1   HT     0.417000        1.0080           0
   68025 WT4  3180 TIP3 H2   HT     0.417000        1.0080           0
   68026 WT4  3181 TIP3 OH2  OT    -0.834000       15.9994           0
   68027 WT4  3181 TIP3 H1   HT     0.417000        1.0080           0
   68028 WT4  3181 TIP3 H2   HT     0.417000        1.0080           0
   68029 WT4  3182 TIP3 OH2  OT    -0.834000       15.9994           0
   68030 WT4  3182 TIP3 H1   HT     0.417000        1.0080           0
   68031 WT4  3182 TIP3 H2   HT     0.417000        1.0080           0
   68032 WT4  3183 TIP3 OH2  OT    -0.834000       15.9994           0
   68033 WT4  3183 TIP3 H1   HT     0.417000        1.0080           0
   68034 WT4  3183 TIP3 H2   HT     0.417000        1.0080           0
   68035 WT4  3184 TIP3 OH2  OT    -0.834000       15.9994           0
   68036 WT4  3184 TIP3 H1   HT     0.417000        1.0080           0
   68037 WT4  3184 TIP3 H2   HT     0.417000        1.0080           0
   68038 WT4  3187 TIP3 OH2  OT    -0.834000       15.9994           0
   68039 WT4  3187 TIP3 H1   HT     0.417000        1.0080           0
   68040 WT4  3187 TIP3 H2   HT     0.417000        1.0080           0
   68041 WT4  3189 TIP3 OH2  OT    -0.834000       15.9994           0
   68042 WT4  3189 TIP3 H1   HT     0.417000        1.0080           0
   68043 WT4  3189 TIP3 H2   HT     0.417000        1.0080           0
   68044 WT4  3192 TIP3 OH2  OT    -0.834000       15.9994           0
   68045 WT4  3192 TIP3 H1   HT     0.417000        1.0080           0
   68046 WT4  3192 TIP3 H2   HT     0.417000        1.0080           0
   68047 WT4  3193 TIP3 OH2  OT    -0.834000       15.9994           0
   68048 WT4  3193 TIP3 H1   HT     0.417000        1.0080           0
   68049 WT4  3193 TIP3 H2   HT     0.417000        1.0080           0
   68050 WT4  3195 TIP3 OH2  OT    -0.834000       15.9994           0
   68051 WT4  3195 TIP3 H1   HT     0.417000        1.0080           0
   68052 WT4  3195 TIP3 H2   HT     0.417000        1.0080           0
   68053 WT4  3196 TIP3 OH2  OT    -0.834000       15.9994           0
   68054 WT4  3196 TIP3 H1   HT     0.417000        1.0080           0
   68055 WT4  3196 TIP3 H2   HT     0.417000        1.0080           0
   68056 WT4  3197 TIP3 OH2  OT    -0.834000       15.9994           0
   68057 WT4  3197 TIP3 H1   HT     0.417000        1.0080           0
   68058 WT4  3197 TIP3 H2   HT     0.417000        1.0080           0
   68059 WT4  3198 TIP3 OH2  OT    -0.834000       15.9994           0
   68060 WT4  3198 TIP3 H1   HT     0.417000        1.0080           0
   68061 WT4  3198 TIP3 H2   HT     0.417000        1.0080           0
   68062 WT4  3199 TIP3 OH2  OT    -0.834000       15.9994           0
   68063 WT4  3199 TIP3 H1   HT     0.417000        1.0080           0
   68064 WT4  3199 TIP3 H2   HT     0.417000        1.0080           0
   68065 WT4  3200 TIP3 OH2  OT    -0.834000       15.9994           0
   68066 WT4  3200 TIP3 H1   HT     0.417000        1.0080           0
   68067 WT4  3200 TIP3 H2   HT     0.417000        1.0080           0
   68068 WT4  3201 TIP3 OH2  OT    -0.834000       15.9994           0
   68069 WT4  3201 TIP3 H1   HT     0.417000        1.0080           0
   68070 WT4  3201 TIP3 H2   HT     0.417000        1.0080           0
   68071 WT4  3203 TIP3 OH2  OT    -0.834000       15.9994           0
   68072 WT4  3203 TIP3 H1   HT     0.417000        1.0080           0
   68073 WT4  3203 TIP3 H2   HT     0.417000        1.0080           0
   68074 WT4  3204 TIP3 OH2  OT    -0.834000       15.9994           0
   68075 WT4  3204 TIP3 H1   HT     0.417000        1.0080           0
   68076 WT4  3204 TIP3 H2   HT     0.417000        1.0080           0
   68077 WT4  3205 TIP3 OH2  OT    -0.834000       15.9994           0
   68078 WT4  3205 TIP3 H1   HT     0.417000        1.0080           0
   68079 WT4  3205 TIP3 H2   HT     0.417000        1.0080           0
   68080 WT4  3210 TIP3 OH2  OT    -0.834000       15.9994           0
   68081 WT4  3210 TIP3 H1   HT     0.417000        1.0080           0
   68082 WT4  3210 TIP3 H2   HT     0.417000        1.0080           0
   68083 WT4  3214 TIP3 OH2  OT    -0.834000       15.9994           0
   68084 WT4  3214 TIP3 H1   HT     0.417000        1.0080           0
   68085 WT4  3214 TIP3 H2   HT     0.417000        1.0080           0
   68086 WT4  3215 TIP3 OH2  OT    -0.834000       15.9994           0
   68087 WT4  3215 TIP3 H1   HT     0.417000        1.0080           0
   68088 WT4  3215 TIP3 H2   HT     0.417000        1.0080           0
   68089 WT4  3216 TIP3 OH2  OT    -0.834000       15.9994           0
   68090 WT4  3216 TIP3 H1   HT     0.417000        1.0080           0
   68091 WT4  3216 TIP3 H2   HT     0.417000        1.0080           0
   68092 WT4  3218 TIP3 OH2  OT    -0.834000       15.9994           0
   68093 WT4  3218 TIP3 H1   HT     0.417000        1.0080           0
   68094 WT4  3218 TIP3 H2   HT     0.417000        1.0080           0
   68095 WT4  3219 TIP3 OH2  OT    -0.834000       15.9994           0
   68096 WT4  3219 TIP3 H1   HT     0.417000        1.0080           0
   68097 WT4  3219 TIP3 H2   HT     0.417000        1.0080           0
   68098 WT4  3220 TIP3 OH2  OT    -0.834000       15.9994           0
   68099 WT4  3220 TIP3 H1   HT     0.417000        1.0080           0
   68100 WT4  3220 TIP3 H2   HT     0.417000        1.0080           0
   68101 WT4  3221 TIP3 OH2  OT    -0.834000       15.9994           0
   68102 WT4  3221 TIP3 H1   HT     0.417000        1.0080           0
   68103 WT4  3221 TIP3 H2   HT     0.417000        1.0080           0
   68104 WT4  3222 TIP3 OH2  OT    -0.834000       15.9994           0
   68105 WT4  3222 TIP3 H1   HT     0.417000        1.0080           0
   68106 WT4  3222 TIP3 H2   HT     0.417000        1.0080           0
   68107 WT4  3223 TIP3 OH2  OT    -0.834000       15.9994           0
   68108 WT4  3223 TIP3 H1   HT     0.417000        1.0080           0
   68109 WT4  3223 TIP3 H2   HT     0.417000        1.0080           0
   68110 WT4  3224 TIP3 OH2  OT    -0.834000       15.9994           0
   68111 WT4  3224 TIP3 H1   HT     0.417000        1.0080           0
   68112 WT4  3224 TIP3 H2   HT     0.417000        1.0080           0
   68113 WT4  3225 TIP3 OH2  OT    -0.834000       15.9994           0
   68114 WT4  3225 TIP3 H1   HT     0.417000        1.0080           0
   68115 WT4  3225 TIP3 H2   HT     0.417000        1.0080           0
   68116 WT4  3226 TIP3 OH2  OT    -0.834000       15.9994           0
   68117 WT4  3226 TIP3 H1   HT     0.417000        1.0080           0
   68118 WT4  3226 TIP3 H2   HT     0.417000        1.0080           0
   68119 WT4  3227 TIP3 OH2  OT    -0.834000       15.9994           0
   68120 WT4  3227 TIP3 H1   HT     0.417000        1.0080           0
   68121 WT4  3227 TIP3 H2   HT     0.417000        1.0080           0
   68122 WT4  3228 TIP3 OH2  OT    -0.834000       15.9994           0
   68123 WT4  3228 TIP3 H1   HT     0.417000        1.0080           0
   68124 WT4  3228 TIP3 H2   HT     0.417000        1.0080           0
   68125 WT4  3229 TIP3 OH2  OT    -0.834000       15.9994           0
   68126 WT4  3229 TIP3 H1   HT     0.417000        1.0080           0
   68127 WT4  3229 TIP3 H2   HT     0.417000        1.0080           0
   68128 WT4  3233 TIP3 OH2  OT    -0.834000       15.9994           0
   68129 WT4  3233 TIP3 H1   HT     0.417000        1.0080           0
   68130 WT4  3233 TIP3 H2   HT     0.417000        1.0080           0
   68131 WT4  3234 TIP3 OH2  OT    -0.834000       15.9994           0
   68132 WT4  3234 TIP3 H1   HT     0.417000        1.0080           0
   68133 WT4  3234 TIP3 H2   HT     0.417000        1.0080           0
   68134 WT4  3236 TIP3 OH2  OT    -0.834000       15.9994           0
   68135 WT4  3236 TIP3 H1   HT     0.417000        1.0080           0
   68136 WT4  3236 TIP3 H2   HT     0.417000        1.0080           0
   68137 WT4  3237 TIP3 OH2  OT    -0.834000       15.9994           0
   68138 WT4  3237 TIP3 H1   HT     0.417000        1.0080           0
   68139 WT4  3237 TIP3 H2   HT     0.417000        1.0080           0
   68140 WT4  3238 TIP3 OH2  OT    -0.834000       15.9994           0
   68141 WT4  3238 TIP3 H1   HT     0.417000        1.0080           0
   68142 WT4  3238 TIP3 H2   HT     0.417000        1.0080           0
   68143 WT4  3239 TIP3 OH2  OT    -0.834000       15.9994           0
   68144 WT4  3239 TIP3 H1   HT     0.417000        1.0080           0
   68145 WT4  3239 TIP3 H2   HT     0.417000        1.0080           0
   68146 WT4  3240 TIP3 OH2  OT    -0.834000       15.9994           0
   68147 WT4  3240 TIP3 H1   HT     0.417000        1.0080           0
   68148 WT4  3240 TIP3 H2   HT     0.417000        1.0080           0
   68149 WT4  3241 TIP3 OH2  OT    -0.834000       15.9994           0
   68150 WT4  3241 TIP3 H1   HT     0.417000        1.0080           0
   68151 WT4  3241 TIP3 H2   HT     0.417000        1.0080           0
   68152 WT4  3242 TIP3 OH2  OT    -0.834000       15.9994           0
   68153 WT4  3242 TIP3 H1   HT     0.417000        1.0080           0
   68154 WT4  3242 TIP3 H2   HT     0.417000        1.0080           0
   68155 WT4  3243 TIP3 OH2  OT    -0.834000       15.9994           0
   68156 WT4  3243 TIP3 H1   HT     0.417000        1.0080           0
   68157 WT4  3243 TIP3 H2   HT     0.417000        1.0080           0
   68158 WT4  3244 TIP3 OH2  OT    -0.834000       15.9994           0
   68159 WT4  3244 TIP3 H1   HT     0.417000        1.0080           0
   68160 WT4  3244 TIP3 H2   HT     0.417000        1.0080           0
   68161 WT4  3245 TIP3 OH2  OT    -0.834000       15.9994           0
   68162 WT4  3245 TIP3 H1   HT     0.417000        1.0080           0
   68163 WT4  3245 TIP3 H2   HT     0.417000        1.0080           0
   68164 WT4  3246 TIP3 OH2  OT    -0.834000       15.9994           0
   68165 WT4  3246 TIP3 H1   HT     0.417000        1.0080           0
   68166 WT4  3246 TIP3 H2   HT     0.417000        1.0080           0
   68167 WT4  3247 TIP3 OH2  OT    -0.834000       15.9994           0
   68168 WT4  3247 TIP3 H1   HT     0.417000        1.0080           0
   68169 WT4  3247 TIP3 H2   HT     0.417000        1.0080           0
   68170 WT4  3249 TIP3 OH2  OT    -0.834000       15.9994           0
   68171 WT4  3249 TIP3 H1   HT     0.417000        1.0080           0
   68172 WT4  3249 TIP3 H2   HT     0.417000        1.0080           0
   68173 WT4  3257 TIP3 OH2  OT    -0.834000       15.9994           0
   68174 WT4  3257 TIP3 H1   HT     0.417000        1.0080           0
   68175 WT4  3257 TIP3 H2   HT     0.417000        1.0080           0
   68176 WT4  3258 TIP3 OH2  OT    -0.834000       15.9994           0
   68177 WT4  3258 TIP3 H1   HT     0.417000        1.0080           0
   68178 WT4  3258 TIP3 H2   HT     0.417000        1.0080           0
   68179 WT4  3261 TIP3 OH2  OT    -0.834000       15.9994           0
   68180 WT4  3261 TIP3 H1   HT     0.417000        1.0080           0
   68181 WT4  3261 TIP3 H2   HT     0.417000        1.0080           0
   68182 WT4  3262 TIP3 OH2  OT    -0.834000       15.9994           0
   68183 WT4  3262 TIP3 H1   HT     0.417000        1.0080           0
   68184 WT4  3262 TIP3 H2   HT     0.417000        1.0080           0
   68185 WT4  3263 TIP3 OH2  OT    -0.834000       15.9994           0
   68186 WT4  3263 TIP3 H1   HT     0.417000        1.0080           0
   68187 WT4  3263 TIP3 H2   HT     0.417000        1.0080           0
   68188 WT4  3264 TIP3 OH2  OT    -0.834000       15.9994           0
   68189 WT4  3264 TIP3 H1   HT     0.417000        1.0080           0
   68190 WT4  3264 TIP3 H2   HT     0.417000        1.0080           0
   68191 WT4  3265 TIP3 OH2  OT    -0.834000       15.9994           0
   68192 WT4  3265 TIP3 H1   HT     0.417000        1.0080           0
   68193 WT4  3265 TIP3 H2   HT     0.417000        1.0080           0
   68194 WT4  3266 TIP3 OH2  OT    -0.834000       15.9994           0
   68195 WT4  3266 TIP3 H1   HT     0.417000        1.0080           0
   68196 WT4  3266 TIP3 H2   HT     0.417000        1.0080           0
   68197 WT4  3267 TIP3 OH2  OT    -0.834000       15.9994           0
   68198 WT4  3267 TIP3 H1   HT     0.417000        1.0080           0
   68199 WT4  3267 TIP3 H2   HT     0.417000        1.0080           0
   68200 WT4  3269 TIP3 OH2  OT    -0.834000       15.9994           0
   68201 WT4  3269 TIP3 H1   HT     0.417000        1.0080           0
   68202 WT4  3269 TIP3 H2   HT     0.417000        1.0080           0
   68203 WT4  3270 TIP3 OH2  OT    -0.834000       15.9994           0
   68204 WT4  3270 TIP3 H1   HT     0.417000        1.0080           0
   68205 WT4  3270 TIP3 H2   HT     0.417000        1.0080           0
   68206 WT4  3272 TIP3 OH2  OT    -0.834000       15.9994           0
   68207 WT4  3272 TIP3 H1   HT     0.417000        1.0080           0
   68208 WT4  3272 TIP3 H2   HT     0.417000        1.0080           0
   68209 WT4  3274 TIP3 OH2  OT    -0.834000       15.9994           0
   68210 WT4  3274 TIP3 H1   HT     0.417000        1.0080           0
   68211 WT4  3274 TIP3 H2   HT     0.417000        1.0080           0
   68212 WT4  3275 TIP3 OH2  OT    -0.834000       15.9994           0
   68213 WT4  3275 TIP3 H1   HT     0.417000        1.0080           0
   68214 WT4  3275 TIP3 H2   HT     0.417000        1.0080           0
   68215 WT4  3276 TIP3 OH2  OT    -0.834000       15.9994           0
   68216 WT4  3276 TIP3 H1   HT     0.417000        1.0080           0
   68217 WT4  3276 TIP3 H2   HT     0.417000        1.0080           0
   68218 WT4  3277 TIP3 OH2  OT    -0.834000       15.9994           0
   68219 WT4  3277 TIP3 H1   HT     0.417000        1.0080           0
   68220 WT4  3277 TIP3 H2   HT     0.417000        1.0080           0
   68221 WT4  3278 TIP3 OH2  OT    -0.834000       15.9994           0
   68222 WT4  3278 TIP3 H1   HT     0.417000        1.0080           0
   68223 WT4  3278 TIP3 H2   HT     0.417000        1.0080           0
   68224 WT4  3280 TIP3 OH2  OT    -0.834000       15.9994           0
   68225 WT4  3280 TIP3 H1   HT     0.417000        1.0080           0
   68226 WT4  3280 TIP3 H2   HT     0.417000        1.0080           0
   68227 WT4  3282 TIP3 OH2  OT    -0.834000       15.9994           0
   68228 WT4  3282 TIP3 H1   HT     0.417000        1.0080           0
   68229 WT4  3282 TIP3 H2   HT     0.417000        1.0080           0
   68230 WT4  3283 TIP3 OH2  OT    -0.834000       15.9994           0
   68231 WT4  3283 TIP3 H1   HT     0.417000        1.0080           0
   68232 WT4  3283 TIP3 H2   HT     0.417000        1.0080           0
   68233 WT4  3284 TIP3 OH2  OT    -0.834000       15.9994           0
   68234 WT4  3284 TIP3 H1   HT     0.417000        1.0080           0
   68235 WT4  3284 TIP3 H2   HT     0.417000        1.0080           0
   68236 WT4  3285 TIP3 OH2  OT    -0.834000       15.9994           0
   68237 WT4  3285 TIP3 H1   HT     0.417000        1.0080           0
   68238 WT4  3285 TIP3 H2   HT     0.417000        1.0080           0
   68239 WT4  3286 TIP3 OH2  OT    -0.834000       15.9994           0
   68240 WT4  3286 TIP3 H1   HT     0.417000        1.0080           0
   68241 WT4  3286 TIP3 H2   HT     0.417000        1.0080           0
   68242 WT4  3287 TIP3 OH2  OT    -0.834000       15.9994           0
   68243 WT4  3287 TIP3 H1   HT     0.417000        1.0080           0
   68244 WT4  3287 TIP3 H2   HT     0.417000        1.0080           0
   68245 WT4  3288 TIP3 OH2  OT    -0.834000       15.9994           0
   68246 WT4  3288 TIP3 H1   HT     0.417000        1.0080           0
   68247 WT4  3288 TIP3 H2   HT     0.417000        1.0080           0
   68248 WT4  3291 TIP3 OH2  OT    -0.834000       15.9994           0
   68249 WT4  3291 TIP3 H1   HT     0.417000        1.0080           0
   68250 WT4  3291 TIP3 H2   HT     0.417000        1.0080           0
   68251 WT4  3293 TIP3 OH2  OT    -0.834000       15.9994           0
   68252 WT4  3293 TIP3 H1   HT     0.417000        1.0080           0
   68253 WT4  3293 TIP3 H2   HT     0.417000        1.0080           0
   68254 WT4  3296 TIP3 OH2  OT    -0.834000       15.9994           0
   68255 WT4  3296 TIP3 H1   HT     0.417000        1.0080           0
   68256 WT4  3296 TIP3 H2   HT     0.417000        1.0080           0
   68257 WT4  3298 TIP3 OH2  OT    -0.834000       15.9994           0
   68258 WT4  3298 TIP3 H1   HT     0.417000        1.0080           0
   68259 WT4  3298 TIP3 H2   HT     0.417000        1.0080           0
   68260 WT4  3301 TIP3 OH2  OT    -0.834000       15.9994           0
   68261 WT4  3301 TIP3 H1   HT     0.417000        1.0080           0
   68262 WT4  3301 TIP3 H2   HT     0.417000        1.0080           0
   68263 WT4  3302 TIP3 OH2  OT    -0.834000       15.9994           0
   68264 WT4  3302 TIP3 H1   HT     0.417000        1.0080           0
   68265 WT4  3302 TIP3 H2   HT     0.417000        1.0080           0
   68266 WT4  3303 TIP3 OH2  OT    -0.834000       15.9994           0
   68267 WT4  3303 TIP3 H1   HT     0.417000        1.0080           0
   68268 WT4  3303 TIP3 H2   HT     0.417000        1.0080           0
   68269 WT4  3304 TIP3 OH2  OT    -0.834000       15.9994           0
   68270 WT4  3304 TIP3 H1   HT     0.417000        1.0080           0
   68271 WT4  3304 TIP3 H2   HT     0.417000        1.0080           0
   68272 WT4  3305 TIP3 OH2  OT    -0.834000       15.9994           0
   68273 WT4  3305 TIP3 H1   HT     0.417000        1.0080           0
   68274 WT4  3305 TIP3 H2   HT     0.417000        1.0080           0
   68275 WT4  3306 TIP3 OH2  OT    -0.834000       15.9994           0
   68276 WT4  3306 TIP3 H1   HT     0.417000        1.0080           0
   68277 WT4  3306 TIP3 H2   HT     0.417000        1.0080           0
   68278 WT4  3307 TIP3 OH2  OT    -0.834000       15.9994           0
   68279 WT4  3307 TIP3 H1   HT     0.417000        1.0080           0
   68280 WT4  3307 TIP3 H2   HT     0.417000        1.0080           0
   68281 WT4  3308 TIP3 OH2  OT    -0.834000       15.9994           0
   68282 WT4  3308 TIP3 H1   HT     0.417000        1.0080           0
   68283 WT4  3308 TIP3 H2   HT     0.417000        1.0080           0
   68284 WT4  3310 TIP3 OH2  OT    -0.834000       15.9994           0
   68285 WT4  3310 TIP3 H1   HT     0.417000        1.0080           0
   68286 WT4  3310 TIP3 H2   HT     0.417000        1.0080           0
   68287 WT4  3312 TIP3 OH2  OT    -0.834000       15.9994           0
   68288 WT4  3312 TIP3 H1   HT     0.417000        1.0080           0
   68289 WT4  3312 TIP3 H2   HT     0.417000        1.0080           0
   68290 WT4  3317 TIP3 OH2  OT    -0.834000       15.9994           0
   68291 WT4  3317 TIP3 H1   HT     0.417000        1.0080           0
   68292 WT4  3317 TIP3 H2   HT     0.417000        1.0080           0
   68293 WT4  3319 TIP3 OH2  OT    -0.834000       15.9994           0
   68294 WT4  3319 TIP3 H1   HT     0.417000        1.0080           0
   68295 WT4  3319 TIP3 H2   HT     0.417000        1.0080           0
   68296 WT4  3321 TIP3 OH2  OT    -0.834000       15.9994           0
   68297 WT4  3321 TIP3 H1   HT     0.417000        1.0080           0
   68298 WT4  3321 TIP3 H2   HT     0.417000        1.0080           0
   68299 WT4  3322 TIP3 OH2  OT    -0.834000       15.9994           0
   68300 WT4  3322 TIP3 H1   HT     0.417000        1.0080           0
   68301 WT4  3322 TIP3 H2   HT     0.417000        1.0080           0
   68302 WT4  3323 TIP3 OH2  OT    -0.834000       15.9994           0
   68303 WT4  3323 TIP3 H1   HT     0.417000        1.0080           0
   68304 WT4  3323 TIP3 H2   HT     0.417000        1.0080           0
   68305 WT4  3325 TIP3 OH2  OT    -0.834000       15.9994           0
   68306 WT4  3325 TIP3 H1   HT     0.417000        1.0080           0
   68307 WT4  3325 TIP3 H2   HT     0.417000        1.0080           0
   68308 WT4  3326 TIP3 OH2  OT    -0.834000       15.9994           0
   68309 WT4  3326 TIP3 H1   HT     0.417000        1.0080           0
   68310 WT4  3326 TIP3 H2   HT     0.417000        1.0080           0
   68311 WT4  3327 TIP3 OH2  OT    -0.834000       15.9994           0
   68312 WT4  3327 TIP3 H1   HT     0.417000        1.0080           0
   68313 WT4  3327 TIP3 H2   HT     0.417000        1.0080           0
   68314 WT4  3329 TIP3 OH2  OT    -0.834000       15.9994           0
   68315 WT4  3329 TIP3 H1   HT     0.417000        1.0080           0
   68316 WT4  3329 TIP3 H2   HT     0.417000        1.0080           0
   68317 WT4  3330 TIP3 OH2  OT    -0.834000       15.9994           0
   68318 WT4  3330 TIP3 H1   HT     0.417000        1.0080           0
   68319 WT4  3330 TIP3 H2   HT     0.417000        1.0080           0
   68320 WT4  3331 TIP3 OH2  OT    -0.834000       15.9994           0
   68321 WT4  3331 TIP3 H1   HT     0.417000        1.0080           0
   68322 WT4  3331 TIP3 H2   HT     0.417000        1.0080           0
   68323 WT4  3332 TIP3 OH2  OT    -0.834000       15.9994           0
   68324 WT4  3332 TIP3 H1   HT     0.417000        1.0080           0
   68325 WT4  3332 TIP3 H2   HT     0.417000        1.0080           0
   68326 WT4  3341 TIP3 OH2  OT    -0.834000       15.9994           0
   68327 WT4  3341 TIP3 H1   HT     0.417000        1.0080           0
   68328 WT4  3341 TIP3 H2   HT     0.417000        1.0080           0
   68329 WT4  3342 TIP3 OH2  OT    -0.834000       15.9994           0
   68330 WT4  3342 TIP3 H1   HT     0.417000        1.0080           0
   68331 WT4  3342 TIP3 H2   HT     0.417000        1.0080           0
   68332 WT4  3344 TIP3 OH2  OT    -0.834000       15.9994           0
   68333 WT4  3344 TIP3 H1   HT     0.417000        1.0080           0
   68334 WT4  3344 TIP3 H2   HT     0.417000        1.0080           0
   68335 WT4  3345 TIP3 OH2  OT    -0.834000       15.9994           0
   68336 WT4  3345 TIP3 H1   HT     0.417000        1.0080           0
   68337 WT4  3345 TIP3 H2   HT     0.417000        1.0080           0
   68338 WT4  3346 TIP3 OH2  OT    -0.834000       15.9994           0
   68339 WT4  3346 TIP3 H1   HT     0.417000        1.0080           0
   68340 WT4  3346 TIP3 H2   HT     0.417000        1.0080           0
   68341 WT4  3347 TIP3 OH2  OT    -0.834000       15.9994           0
   68342 WT4  3347 TIP3 H1   HT     0.417000        1.0080           0
   68343 WT4  3347 TIP3 H2   HT     0.417000        1.0080           0
   68344 WT4  3348 TIP3 OH2  OT    -0.834000       15.9994           0
   68345 WT4  3348 TIP3 H1   HT     0.417000        1.0080           0
   68346 WT4  3348 TIP3 H2   HT     0.417000        1.0080           0
   68347 WT4  3349 TIP3 OH2  OT    -0.834000       15.9994           0
   68348 WT4  3349 TIP3 H1   HT     0.417000        1.0080           0
   68349 WT4  3349 TIP3 H2   HT     0.417000        1.0080           0
   68350 WT4  3353 TIP3 OH2  OT    -0.834000       15.9994           0
   68351 WT4  3353 TIP3 H1   HT     0.417000        1.0080           0
   68352 WT4  3353 TIP3 H2   HT     0.417000        1.0080           0
   68353 WT4  3354 TIP3 OH2  OT    -0.834000       15.9994           0
   68354 WT4  3354 TIP3 H1   HT     0.417000        1.0080           0
   68355 WT4  3354 TIP3 H2   HT     0.417000        1.0080           0
   68356 WT4  3355 TIP3 OH2  OT    -0.834000       15.9994           0
   68357 WT4  3355 TIP3 H1   HT     0.417000        1.0080           0
   68358 WT4  3355 TIP3 H2   HT     0.417000        1.0080           0
   68359 WT4  3360 TIP3 OH2  OT    -0.834000       15.9994           0
   68360 WT4  3360 TIP3 H1   HT     0.417000        1.0080           0
   68361 WT4  3360 TIP3 H2   HT     0.417000        1.0080           0
   68362 WT4  3361 TIP3 OH2  OT    -0.834000       15.9994           0
   68363 WT4  3361 TIP3 H1   HT     0.417000        1.0080           0
   68364 WT4  3361 TIP3 H2   HT     0.417000        1.0080           0
   68365 WT4  3362 TIP3 OH2  OT    -0.834000       15.9994           0
   68366 WT4  3362 TIP3 H1   HT     0.417000        1.0080           0
   68367 WT4  3362 TIP3 H2   HT     0.417000        1.0080           0
   68368 WT4  3364 TIP3 OH2  OT    -0.834000       15.9994           0
   68369 WT4  3364 TIP3 H1   HT     0.417000        1.0080           0
   68370 WT4  3364 TIP3 H2   HT     0.417000        1.0080           0
   68371 WT4  3365 TIP3 OH2  OT    -0.834000       15.9994           0
   68372 WT4  3365 TIP3 H1   HT     0.417000        1.0080           0
   68373 WT4  3365 TIP3 H2   HT     0.417000        1.0080           0
   68374 WT4  3366 TIP3 OH2  OT    -0.834000       15.9994           0
   68375 WT4  3366 TIP3 H1   HT     0.417000        1.0080           0
   68376 WT4  3366 TIP3 H2   HT     0.417000        1.0080           0
   68377 WT4  3367 TIP3 OH2  OT    -0.834000       15.9994           0
   68378 WT4  3367 TIP3 H1   HT     0.417000        1.0080           0
   68379 WT4  3367 TIP3 H2   HT     0.417000        1.0080           0
   68380 WT4  3369 TIP3 OH2  OT    -0.834000       15.9994           0
   68381 WT4  3369 TIP3 H1   HT     0.417000        1.0080           0
   68382 WT4  3369 TIP3 H2   HT     0.417000        1.0080           0
   68383 WT4  3371 TIP3 OH2  OT    -0.834000       15.9994           0
   68384 WT4  3371 TIP3 H1   HT     0.417000        1.0080           0
   68385 WT4  3371 TIP3 H2   HT     0.417000        1.0080           0
   68386 WT4  3373 TIP3 OH2  OT    -0.834000       15.9994           0
   68387 WT4  3373 TIP3 H1   HT     0.417000        1.0080           0
   68388 WT4  3373 TIP3 H2   HT     0.417000        1.0080           0
   68389 WT4  3381 TIP3 OH2  OT    -0.834000       15.9994           0
   68390 WT4  3381 TIP3 H1   HT     0.417000        1.0080           0
   68391 WT4  3381 TIP3 H2   HT     0.417000        1.0080           0
   68392 WT4  3382 TIP3 OH2  OT    -0.834000       15.9994           0
   68393 WT4  3382 TIP3 H1   HT     0.417000        1.0080           0
   68394 WT4  3382 TIP3 H2   HT     0.417000        1.0080           0
   68395 WT4  3386 TIP3 OH2  OT    -0.834000       15.9994           0
   68396 WT4  3386 TIP3 H1   HT     0.417000        1.0080           0
   68397 WT4  3386 TIP3 H2   HT     0.417000        1.0080           0
   68398 WT4  3387 TIP3 OH2  OT    -0.834000       15.9994           0
   68399 WT4  3387 TIP3 H1   HT     0.417000        1.0080           0
   68400 WT4  3387 TIP3 H2   HT     0.417000        1.0080           0
   68401 WT4  3390 TIP3 OH2  OT    -0.834000       15.9994           0
   68402 WT4  3390 TIP3 H1   HT     0.417000        1.0080           0
   68403 WT4  3390 TIP3 H2   HT     0.417000        1.0080           0
   68404 WT4  3401 TIP3 OH2  OT    -0.834000       15.9994           0
   68405 WT4  3401 TIP3 H1   HT     0.417000        1.0080           0
   68406 WT4  3401 TIP3 H2   HT     0.417000        1.0080           0
   68407 WT4  3402 TIP3 OH2  OT    -0.834000       15.9994           0
   68408 WT4  3402 TIP3 H1   HT     0.417000        1.0080           0
   68409 WT4  3402 TIP3 H2   HT     0.417000        1.0080           0
   68410 WT4  3406 TIP3 OH2  OT    -0.834000       15.9994           0
   68411 WT4  3406 TIP3 H1   HT     0.417000        1.0080           0
   68412 WT4  3406 TIP3 H2   HT     0.417000        1.0080           0
   68413 WT4  3407 TIP3 OH2  OT    -0.834000       15.9994           0
   68414 WT4  3407 TIP3 H1   HT     0.417000        1.0080           0
   68415 WT4  3407 TIP3 H2   HT     0.417000        1.0080           0
   68416 WT4  3408 TIP3 OH2  OT    -0.834000       15.9994           0
   68417 WT4  3408 TIP3 H1   HT     0.417000        1.0080           0
   68418 WT4  3408 TIP3 H2   HT     0.417000        1.0080           0
   68419 WT4  3415 TIP3 OH2  OT    -0.834000       15.9994           0
   68420 WT4  3415 TIP3 H1   HT     0.417000        1.0080           0
   68421 WT4  3415 TIP3 H2   HT     0.417000        1.0080           0
   68422 WT4  3426 TIP3 OH2  OT    -0.834000       15.9994           0
   68423 WT4  3426 TIP3 H1   HT     0.417000        1.0080           0
   68424 WT4  3426 TIP3 H2   HT     0.417000        1.0080           0
   68425 WT4  3427 TIP3 OH2  OT    -0.834000       15.9994           0
   68426 WT4  3427 TIP3 H1   HT     0.417000        1.0080           0
   68427 WT4  3427 TIP3 H2   HT     0.417000        1.0080           0
   68428 WT4  3429 TIP3 OH2  OT    -0.834000       15.9994           0
   68429 WT4  3429 TIP3 H1   HT     0.417000        1.0080           0
   68430 WT4  3429 TIP3 H2   HT     0.417000        1.0080           0
   68431 WT4  3430 TIP3 OH2  OT    -0.834000       15.9994           0
   68432 WT4  3430 TIP3 H1   HT     0.417000        1.0080           0
   68433 WT4  3430 TIP3 H2   HT     0.417000        1.0080           0
   68434 WT4  3434 TIP3 OH2  OT    -0.834000       15.9994           0
   68435 WT4  3434 TIP3 H1   HT     0.417000        1.0080           0
   68436 WT4  3434 TIP3 H2   HT     0.417000        1.0080           0
   68437 WT4  3442 TIP3 OH2  OT    -0.834000       15.9994           0
   68438 WT4  3442 TIP3 H1   HT     0.417000        1.0080           0
   68439 WT4  3442 TIP3 H2   HT     0.417000        1.0080           0
   68440 WT4  3447 TIP3 OH2  OT    -0.834000       15.9994           0
   68441 WT4  3447 TIP3 H1   HT     0.417000        1.0080           0
   68442 WT4  3447 TIP3 H2   HT     0.417000        1.0080           0
   68443 WT4  3450 TIP3 OH2  OT    -0.834000       15.9994           0
   68444 WT4  3450 TIP3 H1   HT     0.417000        1.0080           0
   68445 WT4  3450 TIP3 H2   HT     0.417000        1.0080           0
   68446 WT4  3473 TIP3 OH2  OT    -0.834000       15.9994           0
   68447 WT4  3473 TIP3 H1   HT     0.417000        1.0080           0
   68448 WT4  3473 TIP3 H2   HT     0.417000        1.0080           0
   68449 WT4  3474 TIP3 OH2  OT    -0.834000       15.9994           0
   68450 WT4  3474 TIP3 H1   HT     0.417000        1.0080           0
   68451 WT4  3474 TIP3 H2   HT     0.417000        1.0080           0
   68452 WT4  3476 TIP3 OH2  OT    -0.834000       15.9994           0
   68453 WT4  3476 TIP3 H1   HT     0.417000        1.0080           0
   68454 WT4  3476 TIP3 H2   HT     0.417000        1.0080           0
   68455 WT4  3480 TIP3 OH2  OT    -0.834000       15.9994           0
   68456 WT4  3480 TIP3 H1   HT     0.417000        1.0080           0
   68457 WT4  3480 TIP3 H2   HT     0.417000        1.0080           0
   68458 WT4  3484 TIP3 OH2  OT    -0.834000       15.9994           0
   68459 WT4  3484 TIP3 H1   HT     0.417000        1.0080           0
   68460 WT4  3484 TIP3 H2   HT     0.417000        1.0080           0
   68461 WT4  3496 TIP3 OH2  OT    -0.834000       15.9994           0
   68462 WT4  3496 TIP3 H1   HT     0.417000        1.0080           0
   68463 WT4  3496 TIP3 H2   HT     0.417000        1.0080           0
   68464 WT4  3504 TIP3 OH2  OT    -0.834000       15.9994           0
   68465 WT4  3504 TIP3 H1   HT     0.417000        1.0080           0
   68466 WT4  3504 TIP3 H2   HT     0.417000        1.0080           0
   68467 WT4  3511 TIP3 OH2  OT    -0.834000       15.9994           0
   68468 WT4  3511 TIP3 H1   HT     0.417000        1.0080           0
   68469 WT4  3511 TIP3 H2   HT     0.417000        1.0080           0
   68470 WT4  3513 TIP3 OH2  OT    -0.834000       15.9994           0
   68471 WT4  3513 TIP3 H1   HT     0.417000        1.0080           0
   68472 WT4  3513 TIP3 H2   HT     0.417000        1.0080           0
   68473 WT4  3514 TIP3 OH2  OT    -0.834000       15.9994           0
   68474 WT4  3514 TIP3 H1   HT     0.417000        1.0080           0
   68475 WT4  3514 TIP3 H2   HT     0.417000        1.0080           0
   68476 WT4  3517 TIP3 OH2  OT    -0.834000       15.9994           0
   68477 WT4  3517 TIP3 H1   HT     0.417000        1.0080           0
   68478 WT4  3517 TIP3 H2   HT     0.417000        1.0080           0
   68479 WT4  3526 TIP3 OH2  OT    -0.834000       15.9994           0
   68480 WT4  3526 TIP3 H1   HT     0.417000        1.0080           0
   68481 WT4  3526 TIP3 H2   HT     0.417000        1.0080           0
   68482 WT4  3527 TIP3 OH2  OT    -0.834000       15.9994           0
   68483 WT4  3527 TIP3 H1   HT     0.417000        1.0080           0
   68484 WT4  3527 TIP3 H2   HT     0.417000        1.0080           0
   68485 WT4  3533 TIP3 OH2  OT    -0.834000       15.9994           0
   68486 WT4  3533 TIP3 H1   HT     0.417000        1.0080           0
   68487 WT4  3533 TIP3 H2   HT     0.417000        1.0080           0
   68488 WT4  3534 TIP3 OH2  OT    -0.834000       15.9994           0
   68489 WT4  3534 TIP3 H1   HT     0.417000        1.0080           0
   68490 WT4  3534 TIP3 H2   HT     0.417000        1.0080           0
   68491 WT4  3537 TIP3 OH2  OT    -0.834000       15.9994           0
   68492 WT4  3537 TIP3 H1   HT     0.417000        1.0080           0
   68493 WT4  3537 TIP3 H2   HT     0.417000        1.0080           0
   68494 WT4  3545 TIP3 OH2  OT    -0.834000       15.9994           0
   68495 WT4  3545 TIP3 H1   HT     0.417000        1.0080           0
   68496 WT4  3545 TIP3 H2   HT     0.417000        1.0080           0
   68497 WT4  3548 TIP3 OH2  OT    -0.834000       15.9994           0
   68498 WT4  3548 TIP3 H1   HT     0.417000        1.0080           0
   68499 WT4  3548 TIP3 H2   HT     0.417000        1.0080           0
   68500 WT4  3555 TIP3 OH2  OT    -0.834000       15.9994           0
   68501 WT4  3555 TIP3 H1   HT     0.417000        1.0080           0
   68502 WT4  3555 TIP3 H2   HT     0.417000        1.0080           0
   68503 WT4  3556 TIP3 OH2  OT    -0.834000       15.9994           0
   68504 WT4  3556 TIP3 H1   HT     0.417000        1.0080           0
   68505 WT4  3556 TIP3 H2   HT     0.417000        1.0080           0
   68506 WT4  3557 TIP3 OH2  OT    -0.834000       15.9994           0
   68507 WT4  3557 TIP3 H1   HT     0.417000        1.0080           0
   68508 WT4  3557 TIP3 H2   HT     0.417000        1.0080           0
   68509 WT4  3558 TIP3 OH2  OT    -0.834000       15.9994           0
   68510 WT4  3558 TIP3 H1   HT     0.417000        1.0080           0
   68511 WT4  3558 TIP3 H2   HT     0.417000        1.0080           0
   68512 WT4  3560 TIP3 OH2  OT    -0.834000       15.9994           0
   68513 WT4  3560 TIP3 H1   HT     0.417000        1.0080           0
   68514 WT4  3560 TIP3 H2   HT     0.417000        1.0080           0
   68515 WT4  3561 TIP3 OH2  OT    -0.834000       15.9994           0
   68516 WT4  3561 TIP3 H1   HT     0.417000        1.0080           0
   68517 WT4  3561 TIP3 H2   HT     0.417000        1.0080           0
   68518 WT4  3562 TIP3 OH2  OT    -0.834000       15.9994           0
   68519 WT4  3562 TIP3 H1   HT     0.417000        1.0080           0
   68520 WT4  3562 TIP3 H2   HT     0.417000        1.0080           0
   68521 WT4  3563 TIP3 OH2  OT    -0.834000       15.9994           0
   68522 WT4  3563 TIP3 H1   HT     0.417000        1.0080           0
   68523 WT4  3563 TIP3 H2   HT     0.417000        1.0080           0
   68524 WT4  3569 TIP3 OH2  OT    -0.834000       15.9994           0
   68525 WT4  3569 TIP3 H1   HT     0.417000        1.0080           0
   68526 WT4  3569 TIP3 H2   HT     0.417000        1.0080           0
   68527 WT4  3573 TIP3 OH2  OT    -0.834000       15.9994           0
   68528 WT4  3573 TIP3 H1   HT     0.417000        1.0080           0
   68529 WT4  3573 TIP3 H2   HT     0.417000        1.0080           0
   68530 WT4  3575 TIP3 OH2  OT    -0.834000       15.9994           0
   68531 WT4  3575 TIP3 H1   HT     0.417000        1.0080           0
   68532 WT4  3575 TIP3 H2   HT     0.417000        1.0080           0
   68533 WT4  3576 TIP3 OH2  OT    -0.834000       15.9994           0
   68534 WT4  3576 TIP3 H1   HT     0.417000        1.0080           0
   68535 WT4  3576 TIP3 H2   HT     0.417000        1.0080           0
   68536 WT4  3578 TIP3 OH2  OT    -0.834000       15.9994           0
   68537 WT4  3578 TIP3 H1   HT     0.417000        1.0080           0
   68538 WT4  3578 TIP3 H2   HT     0.417000        1.0080           0
   68539 WT4  3579 TIP3 OH2  OT    -0.834000       15.9994           0
   68540 WT4  3579 TIP3 H1   HT     0.417000        1.0080           0
   68541 WT4  3579 TIP3 H2   HT     0.417000        1.0080           0
   68542 WT4  3580 TIP3 OH2  OT    -0.834000       15.9994           0
   68543 WT4  3580 TIP3 H1   HT     0.417000        1.0080           0
   68544 WT4  3580 TIP3 H2   HT     0.417000        1.0080           0
   68545 WT4  3582 TIP3 OH2  OT    -0.834000       15.9994           0
   68546 WT4  3582 TIP3 H1   HT     0.417000        1.0080           0
   68547 WT4  3582 TIP3 H2   HT     0.417000        1.0080           0
   68548 WT4  3583 TIP3 OH2  OT    -0.834000       15.9994           0
   68549 WT4  3583 TIP3 H1   HT     0.417000        1.0080           0
   68550 WT4  3583 TIP3 H2   HT     0.417000        1.0080           0
   68551 WT4  3586 TIP3 OH2  OT    -0.834000       15.9994           0
   68552 WT4  3586 TIP3 H1   HT     0.417000        1.0080           0
   68553 WT4  3586 TIP3 H2   HT     0.417000        1.0080           0
   68554 WT4  3592 TIP3 OH2  OT    -0.834000       15.9994           0
   68555 WT4  3592 TIP3 H1   HT     0.417000        1.0080           0
   68556 WT4  3592 TIP3 H2   HT     0.417000        1.0080           0
   68557 WT4  3593 TIP3 OH2  OT    -0.834000       15.9994           0
   68558 WT4  3593 TIP3 H1   HT     0.417000        1.0080           0
   68559 WT4  3593 TIP3 H2   HT     0.417000        1.0080           0
   68560 WT4  3595 TIP3 OH2  OT    -0.834000       15.9994           0
   68561 WT4  3595 TIP3 H1   HT     0.417000        1.0080           0
   68562 WT4  3595 TIP3 H2   HT     0.417000        1.0080           0
   68563 WT4  3596 TIP3 OH2  OT    -0.834000       15.9994           0
   68564 WT4  3596 TIP3 H1   HT     0.417000        1.0080           0
   68565 WT4  3596 TIP3 H2   HT     0.417000        1.0080           0
   68566 WT4  3597 TIP3 OH2  OT    -0.834000       15.9994           0
   68567 WT4  3597 TIP3 H1   HT     0.417000        1.0080           0
   68568 WT4  3597 TIP3 H2   HT     0.417000        1.0080           0
   68569 WT4  3598 TIP3 OH2  OT    -0.834000       15.9994           0
   68570 WT4  3598 TIP3 H1   HT     0.417000        1.0080           0
   68571 WT4  3598 TIP3 H2   HT     0.417000        1.0080           0
   68572 WT4  3599 TIP3 OH2  OT    -0.834000       15.9994           0
   68573 WT4  3599 TIP3 H1   HT     0.417000        1.0080           0
   68574 WT4  3599 TIP3 H2   HT     0.417000        1.0080           0
   68575 WT4  3600 TIP3 OH2  OT    -0.834000       15.9994           0
   68576 WT4  3600 TIP3 H1   HT     0.417000        1.0080           0
   68577 WT4  3600 TIP3 H2   HT     0.417000        1.0080           0
   68578 WT4  3601 TIP3 OH2  OT    -0.834000       15.9994           0
   68579 WT4  3601 TIP3 H1   HT     0.417000        1.0080           0
   68580 WT4  3601 TIP3 H2   HT     0.417000        1.0080           0
   68581 WT4  3602 TIP3 OH2  OT    -0.834000       15.9994           0
   68582 WT4  3602 TIP3 H1   HT     0.417000        1.0080           0
   68583 WT4  3602 TIP3 H2   HT     0.417000        1.0080           0
   68584 WT4  3603 TIP3 OH2  OT    -0.834000       15.9994           0
   68585 WT4  3603 TIP3 H1   HT     0.417000        1.0080           0
   68586 WT4  3603 TIP3 H2   HT     0.417000        1.0080           0
   68587 WT4  3604 TIP3 OH2  OT    -0.834000       15.9994           0
   68588 WT4  3604 TIP3 H1   HT     0.417000        1.0080           0
   68589 WT4  3604 TIP3 H2   HT     0.417000        1.0080           0
   68590 WT4  3612 TIP3 OH2  OT    -0.834000       15.9994           0
   68591 WT4  3612 TIP3 H1   HT     0.417000        1.0080           0
   68592 WT4  3612 TIP3 H2   HT     0.417000        1.0080           0
   68593 WT4  3614 TIP3 OH2  OT    -0.834000       15.9994           0
   68594 WT4  3614 TIP3 H1   HT     0.417000        1.0080           0
   68595 WT4  3614 TIP3 H2   HT     0.417000        1.0080           0
   68596 WT4  3615 TIP3 OH2  OT    -0.834000       15.9994           0
   68597 WT4  3615 TIP3 H1   HT     0.417000        1.0080           0
   68598 WT4  3615 TIP3 H2   HT     0.417000        1.0080           0
   68599 WT4  3616 TIP3 OH2  OT    -0.834000       15.9994           0
   68600 WT4  3616 TIP3 H1   HT     0.417000        1.0080           0
   68601 WT4  3616 TIP3 H2   HT     0.417000        1.0080           0
   68602 WT4  3617 TIP3 OH2  OT    -0.834000       15.9994           0
   68603 WT4  3617 TIP3 H1   HT     0.417000        1.0080           0
   68604 WT4  3617 TIP3 H2   HT     0.417000        1.0080           0
   68605 WT4  3618 TIP3 OH2  OT    -0.834000       15.9994           0
   68606 WT4  3618 TIP3 H1   HT     0.417000        1.0080           0
   68607 WT4  3618 TIP3 H2   HT     0.417000        1.0080           0
   68608 WT4  3619 TIP3 OH2  OT    -0.834000       15.9994           0
   68609 WT4  3619 TIP3 H1   HT     0.417000        1.0080           0
   68610 WT4  3619 TIP3 H2   HT     0.417000        1.0080           0
   68611 WT4  3620 TIP3 OH2  OT    -0.834000       15.9994           0
   68612 WT4  3620 TIP3 H1   HT     0.417000        1.0080           0
   68613 WT4  3620 TIP3 H2   HT     0.417000        1.0080           0
   68614 WT4  3621 TIP3 OH2  OT    -0.834000       15.9994           0
   68615 WT4  3621 TIP3 H1   HT     0.417000        1.0080           0
   68616 WT4  3621 TIP3 H2   HT     0.417000        1.0080           0
   68617 WT4  3622 TIP3 OH2  OT    -0.834000       15.9994           0
   68618 WT4  3622 TIP3 H1   HT     0.417000        1.0080           0
   68619 WT4  3622 TIP3 H2   HT     0.417000        1.0080           0
   68620 WT4  3623 TIP3 OH2  OT    -0.834000       15.9994           0
   68621 WT4  3623 TIP3 H1   HT     0.417000        1.0080           0
   68622 WT4  3623 TIP3 H2   HT     0.417000        1.0080           0
   68623 WT4  3625 TIP3 OH2  OT    -0.834000       15.9994           0
   68624 WT4  3625 TIP3 H1   HT     0.417000        1.0080           0
   68625 WT4  3625 TIP3 H2   HT     0.417000        1.0080           0
   68626 WT4  3626 TIP3 OH2  OT    -0.834000       15.9994           0
   68627 WT4  3626 TIP3 H1   HT     0.417000        1.0080           0
   68628 WT4  3626 TIP3 H2   HT     0.417000        1.0080           0
   68629 WT4  3627 TIP3 OH2  OT    -0.834000       15.9994           0
   68630 WT4  3627 TIP3 H1   HT     0.417000        1.0080           0
   68631 WT4  3627 TIP3 H2   HT     0.417000        1.0080           0
   68632 WT4  3628 TIP3 OH2  OT    -0.834000       15.9994           0
   68633 WT4  3628 TIP3 H1   HT     0.417000        1.0080           0
   68634 WT4  3628 TIP3 H2   HT     0.417000        1.0080           0
   68635 WT4  3633 TIP3 OH2  OT    -0.834000       15.9994           0
   68636 WT4  3633 TIP3 H1   HT     0.417000        1.0080           0
   68637 WT4  3633 TIP3 H2   HT     0.417000        1.0080           0
   68638 WT4  3634 TIP3 OH2  OT    -0.834000       15.9994           0
   68639 WT4  3634 TIP3 H1   HT     0.417000        1.0080           0
   68640 WT4  3634 TIP3 H2   HT     0.417000        1.0080           0
   68641 WT4  3636 TIP3 OH2  OT    -0.834000       15.9994           0
   68642 WT4  3636 TIP3 H1   HT     0.417000        1.0080           0
   68643 WT4  3636 TIP3 H2   HT     0.417000        1.0080           0
   68644 WT4  3638 TIP3 OH2  OT    -0.834000       15.9994           0
   68645 WT4  3638 TIP3 H1   HT     0.417000        1.0080           0
   68646 WT4  3638 TIP3 H2   HT     0.417000        1.0080           0
   68647 WT4  3639 TIP3 OH2  OT    -0.834000       15.9994           0
   68648 WT4  3639 TIP3 H1   HT     0.417000        1.0080           0
   68649 WT4  3639 TIP3 H2   HT     0.417000        1.0080           0
   68650 WT4  3640 TIP3 OH2  OT    -0.834000       15.9994           0
   68651 WT4  3640 TIP3 H1   HT     0.417000        1.0080           0
   68652 WT4  3640 TIP3 H2   HT     0.417000        1.0080           0
   68653 WT4  3641 TIP3 OH2  OT    -0.834000       15.9994           0
   68654 WT4  3641 TIP3 H1   HT     0.417000        1.0080           0
   68655 WT4  3641 TIP3 H2   HT     0.417000        1.0080           0
   68656 WT4  3642 TIP3 OH2  OT    -0.834000       15.9994           0
   68657 WT4  3642 TIP3 H1   HT     0.417000        1.0080           0
   68658 WT4  3642 TIP3 H2   HT     0.417000        1.0080           0
   68659 WT4  3643 TIP3 OH2  OT    -0.834000       15.9994           0
   68660 WT4  3643 TIP3 H1   HT     0.417000        1.0080           0
   68661 WT4  3643 TIP3 H2   HT     0.417000        1.0080           0
   68662 WT4  3645 TIP3 OH2  OT    -0.834000       15.9994           0
   68663 WT4  3645 TIP3 H1   HT     0.417000        1.0080           0
   68664 WT4  3645 TIP3 H2   HT     0.417000        1.0080           0
   68665 WT4  3646 TIP3 OH2  OT    -0.834000       15.9994           0
   68666 WT4  3646 TIP3 H1   HT     0.417000        1.0080           0
   68667 WT4  3646 TIP3 H2   HT     0.417000        1.0080           0
   68668 WT4  3650 TIP3 OH2  OT    -0.834000       15.9994           0
   68669 WT4  3650 TIP3 H1   HT     0.417000        1.0080           0
   68670 WT4  3650 TIP3 H2   HT     0.417000        1.0080           0
   68671 WT4  3651 TIP3 OH2  OT    -0.834000       15.9994           0
   68672 WT4  3651 TIP3 H1   HT     0.417000        1.0080           0
   68673 WT4  3651 TIP3 H2   HT     0.417000        1.0080           0
   68674 WT4  3653 TIP3 OH2  OT    -0.834000       15.9994           0
   68675 WT4  3653 TIP3 H1   HT     0.417000        1.0080           0
   68676 WT4  3653 TIP3 H2   HT     0.417000        1.0080           0
   68677 WT4  3657 TIP3 OH2  OT    -0.834000       15.9994           0
   68678 WT4  3657 TIP3 H1   HT     0.417000        1.0080           0
   68679 WT4  3657 TIP3 H2   HT     0.417000        1.0080           0
   68680 WT4  3658 TIP3 OH2  OT    -0.834000       15.9994           0
   68681 WT4  3658 TIP3 H1   HT     0.417000        1.0080           0
   68682 WT4  3658 TIP3 H2   HT     0.417000        1.0080           0
   68683 WT4  3659 TIP3 OH2  OT    -0.834000       15.9994           0
   68684 WT4  3659 TIP3 H1   HT     0.417000        1.0080           0
   68685 WT4  3659 TIP3 H2   HT     0.417000        1.0080           0
   68686 WT4  3661 TIP3 OH2  OT    -0.834000       15.9994           0
   68687 WT4  3661 TIP3 H1   HT     0.417000        1.0080           0
   68688 WT4  3661 TIP3 H2   HT     0.417000        1.0080           0
   68689 WT4  3662 TIP3 OH2  OT    -0.834000       15.9994           0
   68690 WT4  3662 TIP3 H1   HT     0.417000        1.0080           0
   68691 WT4  3662 TIP3 H2   HT     0.417000        1.0080           0
   68692 WT4  3663 TIP3 OH2  OT    -0.834000       15.9994           0
   68693 WT4  3663 TIP3 H1   HT     0.417000        1.0080           0
   68694 WT4  3663 TIP3 H2   HT     0.417000        1.0080           0
   68695 WT4  3664 TIP3 OH2  OT    -0.834000       15.9994           0
   68696 WT4  3664 TIP3 H1   HT     0.417000        1.0080           0
   68697 WT4  3664 TIP3 H2   HT     0.417000        1.0080           0
   68698 WT4  3665 TIP3 OH2  OT    -0.834000       15.9994           0
   68699 WT4  3665 TIP3 H1   HT     0.417000        1.0080           0
   68700 WT4  3665 TIP3 H2   HT     0.417000        1.0080           0
   68701 WT4  3666 TIP3 OH2  OT    -0.834000       15.9994           0
   68702 WT4  3666 TIP3 H1   HT     0.417000        1.0080           0
   68703 WT4  3666 TIP3 H2   HT     0.417000        1.0080           0
   68704 WT4  3667 TIP3 OH2  OT    -0.834000       15.9994           0
   68705 WT4  3667 TIP3 H1   HT     0.417000        1.0080           0
   68706 WT4  3667 TIP3 H2   HT     0.417000        1.0080           0
   68707 WT4  3674 TIP3 OH2  OT    -0.834000       15.9994           0
   68708 WT4  3674 TIP3 H1   HT     0.417000        1.0080           0
   68709 WT4  3674 TIP3 H2   HT     0.417000        1.0080           0
   68710 WT4  3675 TIP3 OH2  OT    -0.834000       15.9994           0
   68711 WT4  3675 TIP3 H1   HT     0.417000        1.0080           0
   68712 WT4  3675 TIP3 H2   HT     0.417000        1.0080           0
   68713 WT4  3678 TIP3 OH2  OT    -0.834000       15.9994           0
   68714 WT4  3678 TIP3 H1   HT     0.417000        1.0080           0
   68715 WT4  3678 TIP3 H2   HT     0.417000        1.0080           0
   68716 WT4  3680 TIP3 OH2  OT    -0.834000       15.9994           0
   68717 WT4  3680 TIP3 H1   HT     0.417000        1.0080           0
   68718 WT4  3680 TIP3 H2   HT     0.417000        1.0080           0
   68719 WT4  3681 TIP3 OH2  OT    -0.834000       15.9994           0
   68720 WT4  3681 TIP3 H1   HT     0.417000        1.0080           0
   68721 WT4  3681 TIP3 H2   HT     0.417000        1.0080           0
   68722 WT4  3682 TIP3 OH2  OT    -0.834000       15.9994           0
   68723 WT4  3682 TIP3 H1   HT     0.417000        1.0080           0
   68724 WT4  3682 TIP3 H2   HT     0.417000        1.0080           0
   68725 WT4  3683 TIP3 OH2  OT    -0.834000       15.9994           0
   68726 WT4  3683 TIP3 H1   HT     0.417000        1.0080           0
   68727 WT4  3683 TIP3 H2   HT     0.417000        1.0080           0
   68728 WT4  3684 TIP3 OH2  OT    -0.834000       15.9994           0
   68729 WT4  3684 TIP3 H1   HT     0.417000        1.0080           0
   68730 WT4  3684 TIP3 H2   HT     0.417000        1.0080           0
   68731 WT4  3685 TIP3 OH2  OT    -0.834000       15.9994           0
   68732 WT4  3685 TIP3 H1   HT     0.417000        1.0080           0
   68733 WT4  3685 TIP3 H2   HT     0.417000        1.0080           0
   68734 WT4  3686 TIP3 OH2  OT    -0.834000       15.9994           0
   68735 WT4  3686 TIP3 H1   HT     0.417000        1.0080           0
   68736 WT4  3686 TIP3 H2   HT     0.417000        1.0080           0
   68737 WT4  3687 TIP3 OH2  OT    -0.834000       15.9994           0
   68738 WT4  3687 TIP3 H1   HT     0.417000        1.0080           0
   68739 WT4  3687 TIP3 H2   HT     0.417000        1.0080           0
   68740 WT4  3688 TIP3 OH2  OT    -0.834000       15.9994           0
   68741 WT4  3688 TIP3 H1   HT     0.417000        1.0080           0
   68742 WT4  3688 TIP3 H2   HT     0.417000        1.0080           0
   68743 WT4  3693 TIP3 OH2  OT    -0.834000       15.9994           0
   68744 WT4  3693 TIP3 H1   HT     0.417000        1.0080           0
   68745 WT4  3693 TIP3 H2   HT     0.417000        1.0080           0
   68746 WT4  3697 TIP3 OH2  OT    -0.834000       15.9994           0
   68747 WT4  3697 TIP3 H1   HT     0.417000        1.0080           0
   68748 WT4  3697 TIP3 H2   HT     0.417000        1.0080           0
   68749 WT4  3698 TIP3 OH2  OT    -0.834000       15.9994           0
   68750 WT4  3698 TIP3 H1   HT     0.417000        1.0080           0
   68751 WT4  3698 TIP3 H2   HT     0.417000        1.0080           0
   68752 WT4  3700 TIP3 OH2  OT    -0.834000       15.9994           0
   68753 WT4  3700 TIP3 H1   HT     0.417000        1.0080           0
   68754 WT4  3700 TIP3 H2   HT     0.417000        1.0080           0
   68755 WT4  3701 TIP3 OH2  OT    -0.834000       15.9994           0
   68756 WT4  3701 TIP3 H1   HT     0.417000        1.0080           0
   68757 WT4  3701 TIP3 H2   HT     0.417000        1.0080           0
   68758 WT4  3702 TIP3 OH2  OT    -0.834000       15.9994           0
   68759 WT4  3702 TIP3 H1   HT     0.417000        1.0080           0
   68760 WT4  3702 TIP3 H2   HT     0.417000        1.0080           0
   68761 WT4  3703 TIP3 OH2  OT    -0.834000       15.9994           0
   68762 WT4  3703 TIP3 H1   HT     0.417000        1.0080           0
   68763 WT4  3703 TIP3 H2   HT     0.417000        1.0080           0
   68764 WT4  3704 TIP3 OH2  OT    -0.834000       15.9994           0
   68765 WT4  3704 TIP3 H1   HT     0.417000        1.0080           0
   68766 WT4  3704 TIP3 H2   HT     0.417000        1.0080           0
   68767 WT4  3705 TIP3 OH2  OT    -0.834000       15.9994           0
   68768 WT4  3705 TIP3 H1   HT     0.417000        1.0080           0
   68769 WT4  3705 TIP3 H2   HT     0.417000        1.0080           0
   68770 WT4  3706 TIP3 OH2  OT    -0.834000       15.9994           0
   68771 WT4  3706 TIP3 H1   HT     0.417000        1.0080           0
   68772 WT4  3706 TIP3 H2   HT     0.417000        1.0080           0
   68773 WT4  3707 TIP3 OH2  OT    -0.834000       15.9994           0
   68774 WT4  3707 TIP3 H1   HT     0.417000        1.0080           0
   68775 WT4  3707 TIP3 H2   HT     0.417000        1.0080           0
   68776 WT4  3708 TIP3 OH2  OT    -0.834000       15.9994           0
   68777 WT4  3708 TIP3 H1   HT     0.417000        1.0080           0
   68778 WT4  3708 TIP3 H2   HT     0.417000        1.0080           0
   68779 WT4  3709 TIP3 OH2  OT    -0.834000       15.9994           0
   68780 WT4  3709 TIP3 H1   HT     0.417000        1.0080           0
   68781 WT4  3709 TIP3 H2   HT     0.417000        1.0080           0
   68782 WT4  3710 TIP3 OH2  OT    -0.834000       15.9994           0
   68783 WT4  3710 TIP3 H1   HT     0.417000        1.0080           0
   68784 WT4  3710 TIP3 H2   HT     0.417000        1.0080           0
   68785 WT4  3718 TIP3 OH2  OT    -0.834000       15.9994           0
   68786 WT4  3718 TIP3 H1   HT     0.417000        1.0080           0
   68787 WT4  3718 TIP3 H2   HT     0.417000        1.0080           0
   68788 WT4  3719 TIP3 OH2  OT    -0.834000       15.9994           0
   68789 WT4  3719 TIP3 H1   HT     0.417000        1.0080           0
   68790 WT4  3719 TIP3 H2   HT     0.417000        1.0080           0
   68791 WT4  3720 TIP3 OH2  OT    -0.834000       15.9994           0
   68792 WT4  3720 TIP3 H1   HT     0.417000        1.0080           0
   68793 WT4  3720 TIP3 H2   HT     0.417000        1.0080           0
   68794 WT4  3721 TIP3 OH2  OT    -0.834000       15.9994           0
   68795 WT4  3721 TIP3 H1   HT     0.417000        1.0080           0
   68796 WT4  3721 TIP3 H2   HT     0.417000        1.0080           0
   68797 WT4  3722 TIP3 OH2  OT    -0.834000       15.9994           0
   68798 WT4  3722 TIP3 H1   HT     0.417000        1.0080           0
   68799 WT4  3722 TIP3 H2   HT     0.417000        1.0080           0
   68800 WT4  3723 TIP3 OH2  OT    -0.834000       15.9994           0
   68801 WT4  3723 TIP3 H1   HT     0.417000        1.0080           0
   68802 WT4  3723 TIP3 H2   HT     0.417000        1.0080           0
   68803 WT4  3724 TIP3 OH2  OT    -0.834000       15.9994           0
   68804 WT4  3724 TIP3 H1   HT     0.417000        1.0080           0
   68805 WT4  3724 TIP3 H2   HT     0.417000        1.0080           0
   68806 WT4  3725 TIP3 OH2  OT    -0.834000       15.9994           0
   68807 WT4  3725 TIP3 H1   HT     0.417000        1.0080           0
   68808 WT4  3725 TIP3 H2   HT     0.417000        1.0080           0
   68809 WT4  3726 TIP3 OH2  OT    -0.834000       15.9994           0
   68810 WT4  3726 TIP3 H1   HT     0.417000        1.0080           0
   68811 WT4  3726 TIP3 H2   HT     0.417000        1.0080           0
   68812 WT4  3727 TIP3 OH2  OT    -0.834000       15.9994           0
   68813 WT4  3727 TIP3 H1   HT     0.417000        1.0080           0
   68814 WT4  3727 TIP3 H2   HT     0.417000        1.0080           0
   68815 WT4  3728 TIP3 OH2  OT    -0.834000       15.9994           0
   68816 WT4  3728 TIP3 H1   HT     0.417000        1.0080           0
   68817 WT4  3728 TIP3 H2   HT     0.417000        1.0080           0
   68818 WT4  3729 TIP3 OH2  OT    -0.834000       15.9994           0
   68819 WT4  3729 TIP3 H1   HT     0.417000        1.0080           0
   68820 WT4  3729 TIP3 H2   HT     0.417000        1.0080           0
   68821 WT4  3730 TIP3 OH2  OT    -0.834000       15.9994           0
   68822 WT4  3730 TIP3 H1   HT     0.417000        1.0080           0
   68823 WT4  3730 TIP3 H2   HT     0.417000        1.0080           0
   68824 WT4  3731 TIP3 OH2  OT    -0.834000       15.9994           0
   68825 WT4  3731 TIP3 H1   HT     0.417000        1.0080           0
   68826 WT4  3731 TIP3 H2   HT     0.417000        1.0080           0
   68827 WT4  3732 TIP3 OH2  OT    -0.834000       15.9994           0
   68828 WT4  3732 TIP3 H1   HT     0.417000        1.0080           0
   68829 WT4  3732 TIP3 H2   HT     0.417000        1.0080           0
   68830 WT4  3736 TIP3 OH2  OT    -0.834000       15.9994           0
   68831 WT4  3736 TIP3 H1   HT     0.417000        1.0080           0
   68832 WT4  3736 TIP3 H2   HT     0.417000        1.0080           0
   68833 WT4  3737 TIP3 OH2  OT    -0.834000       15.9994           0
   68834 WT4  3737 TIP3 H1   HT     0.417000        1.0080           0
   68835 WT4  3737 TIP3 H2   HT     0.417000        1.0080           0
   68836 WT4  3740 TIP3 OH2  OT    -0.834000       15.9994           0
   68837 WT4  3740 TIP3 H1   HT     0.417000        1.0080           0
   68838 WT4  3740 TIP3 H2   HT     0.417000        1.0080           0
   68839 WT4  3743 TIP3 OH2  OT    -0.834000       15.9994           0
   68840 WT4  3743 TIP3 H1   HT     0.417000        1.0080           0
   68841 WT4  3743 TIP3 H2   HT     0.417000        1.0080           0
   68842 WT4  3744 TIP3 OH2  OT    -0.834000       15.9994           0
   68843 WT4  3744 TIP3 H1   HT     0.417000        1.0080           0
   68844 WT4  3744 TIP3 H2   HT     0.417000        1.0080           0
   68845 WT4  3745 TIP3 OH2  OT    -0.834000       15.9994           0
   68846 WT4  3745 TIP3 H1   HT     0.417000        1.0080           0
   68847 WT4  3745 TIP3 H2   HT     0.417000        1.0080           0
   68848 WT4  3746 TIP3 OH2  OT    -0.834000       15.9994           0
   68849 WT4  3746 TIP3 H1   HT     0.417000        1.0080           0
   68850 WT4  3746 TIP3 H2   HT     0.417000        1.0080           0
   68851 WT4  3747 TIP3 OH2  OT    -0.834000       15.9994           0
   68852 WT4  3747 TIP3 H1   HT     0.417000        1.0080           0
   68853 WT4  3747 TIP3 H2   HT     0.417000        1.0080           0
   68854 WT4  3749 TIP3 OH2  OT    -0.834000       15.9994           0
   68855 WT4  3749 TIP3 H1   HT     0.417000        1.0080           0
   68856 WT4  3749 TIP3 H2   HT     0.417000        1.0080           0
   68857 WT4  3751 TIP3 OH2  OT    -0.834000       15.9994           0
   68858 WT4  3751 TIP3 H1   HT     0.417000        1.0080           0
   68859 WT4  3751 TIP3 H2   HT     0.417000        1.0080           0
   68860 WT4  3752 TIP3 OH2  OT    -0.834000       15.9994           0
   68861 WT4  3752 TIP3 H1   HT     0.417000        1.0080           0
   68862 WT4  3752 TIP3 H2   HT     0.417000        1.0080           0
   68863 WT4  3753 TIP3 OH2  OT    -0.834000       15.9994           0
   68864 WT4  3753 TIP3 H1   HT     0.417000        1.0080           0
   68865 WT4  3753 TIP3 H2   HT     0.417000        1.0080           0
   68866 WT4  3757 TIP3 OH2  OT    -0.834000       15.9994           0
   68867 WT4  3757 TIP3 H1   HT     0.417000        1.0080           0
   68868 WT4  3757 TIP3 H2   HT     0.417000        1.0080           0
   68869 WT4  3758 TIP3 OH2  OT    -0.834000       15.9994           0
   68870 WT4  3758 TIP3 H1   HT     0.417000        1.0080           0
   68871 WT4  3758 TIP3 H2   HT     0.417000        1.0080           0
   68872 WT4  3761 TIP3 OH2  OT    -0.834000       15.9994           0
   68873 WT4  3761 TIP3 H1   HT     0.417000        1.0080           0
   68874 WT4  3761 TIP3 H2   HT     0.417000        1.0080           0
   68875 WT4  3762 TIP3 OH2  OT    -0.834000       15.9994           0
   68876 WT4  3762 TIP3 H1   HT     0.417000        1.0080           0
   68877 WT4  3762 TIP3 H2   HT     0.417000        1.0080           0
   68878 WT4  3764 TIP3 OH2  OT    -0.834000       15.9994           0
   68879 WT4  3764 TIP3 H1   HT     0.417000        1.0080           0
   68880 WT4  3764 TIP3 H2   HT     0.417000        1.0080           0
   68881 WT4  3766 TIP3 OH2  OT    -0.834000       15.9994           0
   68882 WT4  3766 TIP3 H1   HT     0.417000        1.0080           0
   68883 WT4  3766 TIP3 H2   HT     0.417000        1.0080           0
   68884 WT4  3767 TIP3 OH2  OT    -0.834000       15.9994           0
   68885 WT4  3767 TIP3 H1   HT     0.417000        1.0080           0
   68886 WT4  3767 TIP3 H2   HT     0.417000        1.0080           0
   68887 WT4  3770 TIP3 OH2  OT    -0.834000       15.9994           0
   68888 WT4  3770 TIP3 H1   HT     0.417000        1.0080           0
   68889 WT4  3770 TIP3 H2   HT     0.417000        1.0080           0
   68890 WT4  3771 TIP3 OH2  OT    -0.834000       15.9994           0
   68891 WT4  3771 TIP3 H1   HT     0.417000        1.0080           0
   68892 WT4  3771 TIP3 H2   HT     0.417000        1.0080           0
   68893 WT4  3776 TIP3 OH2  OT    -0.834000       15.9994           0
   68894 WT4  3776 TIP3 H1   HT     0.417000        1.0080           0
   68895 WT4  3776 TIP3 H2   HT     0.417000        1.0080           0
   68896 WT4  3779 TIP3 OH2  OT    -0.834000       15.9994           0
   68897 WT4  3779 TIP3 H1   HT     0.417000        1.0080           0
   68898 WT4  3779 TIP3 H2   HT     0.417000        1.0080           0
   68899 WT4  3782 TIP3 OH2  OT    -0.834000       15.9994           0
   68900 WT4  3782 TIP3 H1   HT     0.417000        1.0080           0
   68901 WT4  3782 TIP3 H2   HT     0.417000        1.0080           0
   68902 WT4  3785 TIP3 OH2  OT    -0.834000       15.9994           0
   68903 WT4  3785 TIP3 H1   HT     0.417000        1.0080           0
   68904 WT4  3785 TIP3 H2   HT     0.417000        1.0080           0
   68905 WT4  3786 TIP3 OH2  OT    -0.834000       15.9994           0
   68906 WT4  3786 TIP3 H1   HT     0.417000        1.0080           0
   68907 WT4  3786 TIP3 H2   HT     0.417000        1.0080           0
   68908 WT4  3787 TIP3 OH2  OT    -0.834000       15.9994           0
   68909 WT4  3787 TIP3 H1   HT     0.417000        1.0080           0
   68910 WT4  3787 TIP3 H2   HT     0.417000        1.0080           0
   68911 WT4  3788 TIP3 OH2  OT    -0.834000       15.9994           0
   68912 WT4  3788 TIP3 H1   HT     0.417000        1.0080           0
   68913 WT4  3788 TIP3 H2   HT     0.417000        1.0080           0
   68914 WT4  3789 TIP3 OH2  OT    -0.834000       15.9994           0
   68915 WT4  3789 TIP3 H1   HT     0.417000        1.0080           0
   68916 WT4  3789 TIP3 H2   HT     0.417000        1.0080           0
   68917 WT4  3790 TIP3 OH2  OT    -0.834000       15.9994           0
   68918 WT4  3790 TIP3 H1   HT     0.417000        1.0080           0
   68919 WT4  3790 TIP3 H2   HT     0.417000        1.0080           0
   68920 WT4  3792 TIP3 OH2  OT    -0.834000       15.9994           0
   68921 WT4  3792 TIP3 H1   HT     0.417000        1.0080           0
   68922 WT4  3792 TIP3 H2   HT     0.417000        1.0080           0
   68923 WT4  3793 TIP3 OH2  OT    -0.834000       15.9994           0
   68924 WT4  3793 TIP3 H1   HT     0.417000        1.0080           0
   68925 WT4  3793 TIP3 H2   HT     0.417000        1.0080           0
   68926 WT4  3796 TIP3 OH2  OT    -0.834000       15.9994           0
   68927 WT4  3796 TIP3 H1   HT     0.417000        1.0080           0
   68928 WT4  3796 TIP3 H2   HT     0.417000        1.0080           0
   68929 WT4  3798 TIP3 OH2  OT    -0.834000       15.9994           0
   68930 WT4  3798 TIP3 H1   HT     0.417000        1.0080           0
   68931 WT4  3798 TIP3 H2   HT     0.417000        1.0080           0
   68932 WT4  3800 TIP3 OH2  OT    -0.834000       15.9994           0
   68933 WT4  3800 TIP3 H1   HT     0.417000        1.0080           0
   68934 WT4  3800 TIP3 H2   HT     0.417000        1.0080           0
   68935 WT4  3801 TIP3 OH2  OT    -0.834000       15.9994           0
   68936 WT4  3801 TIP3 H1   HT     0.417000        1.0080           0
   68937 WT4  3801 TIP3 H2   HT     0.417000        1.0080           0
   68938 WT4  3804 TIP3 OH2  OT    -0.834000       15.9994           0
   68939 WT4  3804 TIP3 H1   HT     0.417000        1.0080           0
   68940 WT4  3804 TIP3 H2   HT     0.417000        1.0080           0
   68941 WT4  3807 TIP3 OH2  OT    -0.834000       15.9994           0
   68942 WT4  3807 TIP3 H1   HT     0.417000        1.0080           0
   68943 WT4  3807 TIP3 H2   HT     0.417000        1.0080           0
   68944 WT4  3808 TIP3 OH2  OT    -0.834000       15.9994           0
   68945 WT4  3808 TIP3 H1   HT     0.417000        1.0080           0
   68946 WT4  3808 TIP3 H2   HT     0.417000        1.0080           0
   68947 WT4  3810 TIP3 OH2  OT    -0.834000       15.9994           0
   68948 WT4  3810 TIP3 H1   HT     0.417000        1.0080           0
   68949 WT4  3810 TIP3 H2   HT     0.417000        1.0080           0
   68950 WT4  3811 TIP3 OH2  OT    -0.834000       15.9994           0
   68951 WT4  3811 TIP3 H1   HT     0.417000        1.0080           0
   68952 WT4  3811 TIP3 H2   HT     0.417000        1.0080           0
   68953 WT4  3814 TIP3 OH2  OT    -0.834000       15.9994           0
   68954 WT4  3814 TIP3 H1   HT     0.417000        1.0080           0
   68955 WT4  3814 TIP3 H2   HT     0.417000        1.0080           0
   68956 WT4  3821 TIP3 OH2  OT    -0.834000       15.9994           0
   68957 WT4  3821 TIP3 H1   HT     0.417000        1.0080           0
   68958 WT4  3821 TIP3 H2   HT     0.417000        1.0080           0
   68959 WT4  3827 TIP3 OH2  OT    -0.834000       15.9994           0
   68960 WT4  3827 TIP3 H1   HT     0.417000        1.0080           0
   68961 WT4  3827 TIP3 H2   HT     0.417000        1.0080           0
   68962 WT4  3828 TIP3 OH2  OT    -0.834000       15.9994           0
   68963 WT4  3828 TIP3 H1   HT     0.417000        1.0080           0
   68964 WT4  3828 TIP3 H2   HT     0.417000        1.0080           0
   68965 WT4  3829 TIP3 OH2  OT    -0.834000       15.9994           0
   68966 WT4  3829 TIP3 H1   HT     0.417000        1.0080           0
   68967 WT4  3829 TIP3 H2   HT     0.417000        1.0080           0
   68968 WT4  3830 TIP3 OH2  OT    -0.834000       15.9994           0
   68969 WT4  3830 TIP3 H1   HT     0.417000        1.0080           0
   68970 WT4  3830 TIP3 H2   HT     0.417000        1.0080           0
   68971 WT4  3831 TIP3 OH2  OT    -0.834000       15.9994           0
   68972 WT4  3831 TIP3 H1   HT     0.417000        1.0080           0
   68973 WT4  3831 TIP3 H2   HT     0.417000        1.0080           0
   68974 WT4  3833 TIP3 OH2  OT    -0.834000       15.9994           0
   68975 WT4  3833 TIP3 H1   HT     0.417000        1.0080           0
   68976 WT4  3833 TIP3 H2   HT     0.417000        1.0080           0
   68977 WT4  3834 TIP3 OH2  OT    -0.834000       15.9994           0
   68978 WT4  3834 TIP3 H1   HT     0.417000        1.0080           0
   68979 WT4  3834 TIP3 H2   HT     0.417000        1.0080           0
   68980 WT4  3835 TIP3 OH2  OT    -0.834000       15.9994           0
   68981 WT4  3835 TIP3 H1   HT     0.417000        1.0080           0
   68982 WT4  3835 TIP3 H2   HT     0.417000        1.0080           0
   68983 WT4  3838 TIP3 OH2  OT    -0.834000       15.9994           0
   68984 WT4  3838 TIP3 H1   HT     0.417000        1.0080           0
   68985 WT4  3838 TIP3 H2   HT     0.417000        1.0080           0
   68986 WT4  3850 TIP3 OH2  OT    -0.834000       15.9994           0
   68987 WT4  3850 TIP3 H1   HT     0.417000        1.0080           0
   68988 WT4  3850 TIP3 H2   HT     0.417000        1.0080           0
   68989 WT4  3851 TIP3 OH2  OT    -0.834000       15.9994           0
   68990 WT4  3851 TIP3 H1   HT     0.417000        1.0080           0
   68991 WT4  3851 TIP3 H2   HT     0.417000        1.0080           0
   68992 WT4  3852 TIP3 OH2  OT    -0.834000       15.9994           0
   68993 WT4  3852 TIP3 H1   HT     0.417000        1.0080           0
   68994 WT4  3852 TIP3 H2   HT     0.417000        1.0080           0
   68995 WT4  3872 TIP3 OH2  OT    -0.834000       15.9994           0
   68996 WT4  3872 TIP3 H1   HT     0.417000        1.0080           0
   68997 WT4  3872 TIP3 H2   HT     0.417000        1.0080           0
   68998 WT4  3892 TIP3 OH2  OT    -0.834000       15.9994           0
   68999 WT4  3892 TIP3 H1   HT     0.417000        1.0080           0
   69000 WT4  3892 TIP3 H2   HT     0.417000        1.0080           0
   69001 WT4  3919 TIP3 OH2  OT    -0.834000       15.9994           0
   69002 WT4  3919 TIP3 H1   HT     0.417000        1.0080           0
   69003 WT4  3919 TIP3 H2   HT     0.417000        1.0080           0
   69004 WT4  3924 TIP3 OH2  OT    -0.834000       15.9994           0
   69005 WT4  3924 TIP3 H1   HT     0.417000        1.0080           0
   69006 WT4  3924 TIP3 H2   HT     0.417000        1.0080           0
   69007 WT4  3925 TIP3 OH2  OT    -0.834000       15.9994           0
   69008 WT4  3925 TIP3 H1   HT     0.417000        1.0080           0
   69009 WT4  3925 TIP3 H2   HT     0.417000        1.0080           0
   69010 WT4  3931 TIP3 OH2  OT    -0.834000       15.9994           0
   69011 WT4  3931 TIP3 H1   HT     0.417000        1.0080           0
   69012 WT4  3931 TIP3 H2   HT     0.417000        1.0080           0
   69013 WT4  3933 TIP3 OH2  OT    -0.834000       15.9994           0
   69014 WT4  3933 TIP3 H1   HT     0.417000        1.0080           0
   69015 WT4  3933 TIP3 H2   HT     0.417000        1.0080           0
   69016 WT4  3935 TIP3 OH2  OT    -0.834000       15.9994           0
   69017 WT4  3935 TIP3 H1   HT     0.417000        1.0080           0
   69018 WT4  3935 TIP3 H2   HT     0.417000        1.0080           0
   69019 WT4  3938 TIP3 OH2  OT    -0.834000       15.9994           0
   69020 WT4  3938 TIP3 H1   HT     0.417000        1.0080           0
   69021 WT4  3938 TIP3 H2   HT     0.417000        1.0080           0
   69022 WT4  3951 TIP3 OH2  OT    -0.834000       15.9994           0
   69023 WT4  3951 TIP3 H1   HT     0.417000        1.0080           0
   69024 WT4  3951 TIP3 H2   HT     0.417000        1.0080           0
   69025 WT4  3957 TIP3 OH2  OT    -0.834000       15.9994           0
   69026 WT4  3957 TIP3 H1   HT     0.417000        1.0080           0
   69027 WT4  3957 TIP3 H2   HT     0.417000        1.0080           0
   69028 WT4  3973 TIP3 OH2  OT    -0.834000       15.9994           0
   69029 WT4  3973 TIP3 H1   HT     0.417000        1.0080           0
   69030 WT4  3973 TIP3 H2   HT     0.417000        1.0080           0
   69031 WT4  3974 TIP3 OH2  OT    -0.834000       15.9994           0
   69032 WT4  3974 TIP3 H1   HT     0.417000        1.0080           0
   69033 WT4  3974 TIP3 H2   HT     0.417000        1.0080           0
   69034 WT4  3975 TIP3 OH2  OT    -0.834000       15.9994           0
   69035 WT4  3975 TIP3 H1   HT     0.417000        1.0080           0
   69036 WT4  3975 TIP3 H2   HT     0.417000        1.0080           0
   69037 WT4  3976 TIP3 OH2  OT    -0.834000       15.9994           0
   69038 WT4  3976 TIP3 H1   HT     0.417000        1.0080           0
   69039 WT4  3976 TIP3 H2   HT     0.417000        1.0080           0
   69040 WT4  3977 TIP3 OH2  OT    -0.834000       15.9994           0
   69041 WT4  3977 TIP3 H1   HT     0.417000        1.0080           0
   69042 WT4  3977 TIP3 H2   HT     0.417000        1.0080           0
   69043 WT4  3982 TIP3 OH2  OT    -0.834000       15.9994           0
   69044 WT4  3982 TIP3 H1   HT     0.417000        1.0080           0
   69045 WT4  3982 TIP3 H2   HT     0.417000        1.0080           0
   69046 WT4  3983 TIP3 OH2  OT    -0.834000       15.9994           0
   69047 WT4  3983 TIP3 H1   HT     0.417000        1.0080           0
   69048 WT4  3983 TIP3 H2   HT     0.417000        1.0080           0
   69049 WT4  3986 TIP3 OH2  OT    -0.834000       15.9994           0
   69050 WT4  3986 TIP3 H1   HT     0.417000        1.0080           0
   69051 WT4  3986 TIP3 H2   HT     0.417000        1.0080           0
   69052 WT4  3991 TIP3 OH2  OT    -0.834000       15.9994           0
   69053 WT4  3991 TIP3 H1   HT     0.417000        1.0080           0
   69054 WT4  3991 TIP3 H2   HT     0.417000        1.0080           0
   69055 WT4  3992 TIP3 OH2  OT    -0.834000       15.9994           0
   69056 WT4  3992 TIP3 H1   HT     0.417000        1.0080           0
   69057 WT4  3992 TIP3 H2   HT     0.417000        1.0080           0
   69058 WT4  3993 TIP3 OH2  OT    -0.834000       15.9994           0
   69059 WT4  3993 TIP3 H1   HT     0.417000        1.0080           0
   69060 WT4  3993 TIP3 H2   HT     0.417000        1.0080           0
   69061 WT4  3994 TIP3 OH2  OT    -0.834000       15.9994           0
   69062 WT4  3994 TIP3 H1   HT     0.417000        1.0080           0
   69063 WT4  3994 TIP3 H2   HT     0.417000        1.0080           0
   69064 WT4  3995 TIP3 OH2  OT    -0.834000       15.9994           0
   69065 WT4  3995 TIP3 H1   HT     0.417000        1.0080           0
   69066 WT4  3995 TIP3 H2   HT     0.417000        1.0080           0
   69067 WT4  3996 TIP3 OH2  OT    -0.834000       15.9994           0
   69068 WT4  3996 TIP3 H1   HT     0.417000        1.0080           0
   69069 WT4  3996 TIP3 H2   HT     0.417000        1.0080           0
   69070 WT4  3997 TIP3 OH2  OT    -0.834000       15.9994           0
   69071 WT4  3997 TIP3 H1   HT     0.417000        1.0080           0
   69072 WT4  3997 TIP3 H2   HT     0.417000        1.0080           0
   69073 WT4  3998 TIP3 OH2  OT    -0.834000       15.9994           0
   69074 WT4  3998 TIP3 H1   HT     0.417000        1.0080           0
   69075 WT4  3998 TIP3 H2   HT     0.417000        1.0080           0
   69076 WT4  3999 TIP3 OH2  OT    -0.834000       15.9994           0
   69077 WT4  3999 TIP3 H1   HT     0.417000        1.0080           0
   69078 WT4  3999 TIP3 H2   HT     0.417000        1.0080           0
   69079 WT4  4000 TIP3 OH2  OT    -0.834000       15.9994           0
   69080 WT4  4000 TIP3 H1   HT     0.417000        1.0080           0
   69081 WT4  4000 TIP3 H2   HT     0.417000        1.0080           0
   69082 WT4  4002 TIP3 OH2  OT    -0.834000       15.9994           0
   69083 WT4  4002 TIP3 H1   HT     0.417000        1.0080           0
   69084 WT4  4002 TIP3 H2   HT     0.417000        1.0080           0
   69085 WT4  4003 TIP3 OH2  OT    -0.834000       15.9994           0
   69086 WT4  4003 TIP3 H1   HT     0.417000        1.0080           0
   69087 WT4  4003 TIP3 H2   HT     0.417000        1.0080           0
   69088 WT4  4005 TIP3 OH2  OT    -0.834000       15.9994           0
   69089 WT4  4005 TIP3 H1   HT     0.417000        1.0080           0
   69090 WT4  4005 TIP3 H2   HT     0.417000        1.0080           0
   69091 WT4  4008 TIP3 OH2  OT    -0.834000       15.9994           0
   69092 WT4  4008 TIP3 H1   HT     0.417000        1.0080           0
   69093 WT4  4008 TIP3 H2   HT     0.417000        1.0080           0
   69094 WT4  4009 TIP3 OH2  OT    -0.834000       15.9994           0
   69095 WT4  4009 TIP3 H1   HT     0.417000        1.0080           0
   69096 WT4  4009 TIP3 H2   HT     0.417000        1.0080           0
   69097 WT4  4010 TIP3 OH2  OT    -0.834000       15.9994           0
   69098 WT4  4010 TIP3 H1   HT     0.417000        1.0080           0
   69099 WT4  4010 TIP3 H2   HT     0.417000        1.0080           0
   69100 WT4  4012 TIP3 OH2  OT    -0.834000       15.9994           0
   69101 WT4  4012 TIP3 H1   HT     0.417000        1.0080           0
   69102 WT4  4012 TIP3 H2   HT     0.417000        1.0080           0
   69103 WT4  4014 TIP3 OH2  OT    -0.834000       15.9994           0
   69104 WT4  4014 TIP3 H1   HT     0.417000        1.0080           0
   69105 WT4  4014 TIP3 H2   HT     0.417000        1.0080           0
   69106 WT4  4015 TIP3 OH2  OT    -0.834000       15.9994           0
   69107 WT4  4015 TIP3 H1   HT     0.417000        1.0080           0
   69108 WT4  4015 TIP3 H2   HT     0.417000        1.0080           0
   69109 WT4  4016 TIP3 OH2  OT    -0.834000       15.9994           0
   69110 WT4  4016 TIP3 H1   HT     0.417000        1.0080           0
   69111 WT4  4016 TIP3 H2   HT     0.417000        1.0080           0
   69112 WT4  4017 TIP3 OH2  OT    -0.834000       15.9994           0
   69113 WT4  4017 TIP3 H1   HT     0.417000        1.0080           0
   69114 WT4  4017 TIP3 H2   HT     0.417000        1.0080           0
   69115 WT4  4018 TIP3 OH2  OT    -0.834000       15.9994           0
   69116 WT4  4018 TIP3 H1   HT     0.417000        1.0080           0
   69117 WT4  4018 TIP3 H2   HT     0.417000        1.0080           0
   69118 WT4  4019 TIP3 OH2  OT    -0.834000       15.9994           0
   69119 WT4  4019 TIP3 H1   HT     0.417000        1.0080           0
   69120 WT4  4019 TIP3 H2   HT     0.417000        1.0080           0
   69121 WT4  4020 TIP3 OH2  OT    -0.834000       15.9994           0
   69122 WT4  4020 TIP3 H1   HT     0.417000        1.0080           0
   69123 WT4  4020 TIP3 H2   HT     0.417000        1.0080           0
   69124 WT4  4021 TIP3 OH2  OT    -0.834000       15.9994           0
   69125 WT4  4021 TIP3 H1   HT     0.417000        1.0080           0
   69126 WT4  4021 TIP3 H2   HT     0.417000        1.0080           0
   69127 WT4  4022 TIP3 OH2  OT    -0.834000       15.9994           0
   69128 WT4  4022 TIP3 H1   HT     0.417000        1.0080           0
   69129 WT4  4022 TIP3 H2   HT     0.417000        1.0080           0
   69130 WT4  4030 TIP3 OH2  OT    -0.834000       15.9994           0
   69131 WT4  4030 TIP3 H1   HT     0.417000        1.0080           0
   69132 WT4  4030 TIP3 H2   HT     0.417000        1.0080           0
   69133 WT4  4033 TIP3 OH2  OT    -0.834000       15.9994           0
   69134 WT4  4033 TIP3 H1   HT     0.417000        1.0080           0
   69135 WT4  4033 TIP3 H2   HT     0.417000        1.0080           0
   69136 WT4  4035 TIP3 OH2  OT    -0.834000       15.9994           0
   69137 WT4  4035 TIP3 H1   HT     0.417000        1.0080           0
   69138 WT4  4035 TIP3 H2   HT     0.417000        1.0080           0
   69139 WT4  4036 TIP3 OH2  OT    -0.834000       15.9994           0
   69140 WT4  4036 TIP3 H1   HT     0.417000        1.0080           0
   69141 WT4  4036 TIP3 H2   HT     0.417000        1.0080           0
   69142 WT4  4037 TIP3 OH2  OT    -0.834000       15.9994           0
   69143 WT4  4037 TIP3 H1   HT     0.417000        1.0080           0
   69144 WT4  4037 TIP3 H2   HT     0.417000        1.0080           0
   69145 WT4  4038 TIP3 OH2  OT    -0.834000       15.9994           0
   69146 WT4  4038 TIP3 H1   HT     0.417000        1.0080           0
   69147 WT4  4038 TIP3 H2   HT     0.417000        1.0080           0
   69148 WT4  4039 TIP3 OH2  OT    -0.834000       15.9994           0
   69149 WT4  4039 TIP3 H1   HT     0.417000        1.0080           0
   69150 WT4  4039 TIP3 H2   HT     0.417000        1.0080           0
   69151 WT4  4040 TIP3 OH2  OT    -0.834000       15.9994           0
   69152 WT4  4040 TIP3 H1   HT     0.417000        1.0080           0
   69153 WT4  4040 TIP3 H2   HT     0.417000        1.0080           0
   69154 WT4  4041 TIP3 OH2  OT    -0.834000       15.9994           0
   69155 WT4  4041 TIP3 H1   HT     0.417000        1.0080           0
   69156 WT4  4041 TIP3 H2   HT     0.417000        1.0080           0
   69157 WT4  4042 TIP3 OH2  OT    -0.834000       15.9994           0
   69158 WT4  4042 TIP3 H1   HT     0.417000        1.0080           0
   69159 WT4  4042 TIP3 H2   HT     0.417000        1.0080           0
   69160 WT4  4046 TIP3 OH2  OT    -0.834000       15.9994           0
   69161 WT4  4046 TIP3 H1   HT     0.417000        1.0080           0
   69162 WT4  4046 TIP3 H2   HT     0.417000        1.0080           0
   69163 WT4  4047 TIP3 OH2  OT    -0.834000       15.9994           0
   69164 WT4  4047 TIP3 H1   HT     0.417000        1.0080           0
   69165 WT4  4047 TIP3 H2   HT     0.417000        1.0080           0
   69166 WT4  4053 TIP3 OH2  OT    -0.834000       15.9994           0
   69167 WT4  4053 TIP3 H1   HT     0.417000        1.0080           0
   69168 WT4  4053 TIP3 H2   HT     0.417000        1.0080           0
   69169 WT4  4054 TIP3 OH2  OT    -0.834000       15.9994           0
   69170 WT4  4054 TIP3 H1   HT     0.417000        1.0080           0
   69171 WT4  4054 TIP3 H2   HT     0.417000        1.0080           0
   69172 WT4  4055 TIP3 OH2  OT    -0.834000       15.9994           0
   69173 WT4  4055 TIP3 H1   HT     0.417000        1.0080           0
   69174 WT4  4055 TIP3 H2   HT     0.417000        1.0080           0
   69175 WT4  4056 TIP3 OH2  OT    -0.834000       15.9994           0
   69176 WT4  4056 TIP3 H1   HT     0.417000        1.0080           0
   69177 WT4  4056 TIP3 H2   HT     0.417000        1.0080           0
   69178 WT4  4057 TIP3 OH2  OT    -0.834000       15.9994           0
   69179 WT4  4057 TIP3 H1   HT     0.417000        1.0080           0
   69180 WT4  4057 TIP3 H2   HT     0.417000        1.0080           0
   69181 WT4  4058 TIP3 OH2  OT    -0.834000       15.9994           0
   69182 WT4  4058 TIP3 H1   HT     0.417000        1.0080           0
   69183 WT4  4058 TIP3 H2   HT     0.417000        1.0080           0
   69184 WT4  4059 TIP3 OH2  OT    -0.834000       15.9994           0
   69185 WT4  4059 TIP3 H1   HT     0.417000        1.0080           0
   69186 WT4  4059 TIP3 H2   HT     0.417000        1.0080           0
   69187 WT4  4060 TIP3 OH2  OT    -0.834000       15.9994           0
   69188 WT4  4060 TIP3 H1   HT     0.417000        1.0080           0
   69189 WT4  4060 TIP3 H2   HT     0.417000        1.0080           0
   69190 WT4  4061 TIP3 OH2  OT    -0.834000       15.9994           0
   69191 WT4  4061 TIP3 H1   HT     0.417000        1.0080           0
   69192 WT4  4061 TIP3 H2   HT     0.417000        1.0080           0
   69193 WT4  4062 TIP3 OH2  OT    -0.834000       15.9994           0
   69194 WT4  4062 TIP3 H1   HT     0.417000        1.0080           0
   69195 WT4  4062 TIP3 H2   HT     0.417000        1.0080           0
   69196 WT4  4063 TIP3 OH2  OT    -0.834000       15.9994           0
   69197 WT4  4063 TIP3 H1   HT     0.417000        1.0080           0
   69198 WT4  4063 TIP3 H2   HT     0.417000        1.0080           0
   69199 WT4  4064 TIP3 OH2  OT    -0.834000       15.9994           0
   69200 WT4  4064 TIP3 H1   HT     0.417000        1.0080           0
   69201 WT4  4064 TIP3 H2   HT     0.417000        1.0080           0
   69202 WT4  4065 TIP3 OH2  OT    -0.834000       15.9994           0
   69203 WT4  4065 TIP3 H1   HT     0.417000        1.0080           0
   69204 WT4  4065 TIP3 H2   HT     0.417000        1.0080           0
   69205 WT4  4066 TIP3 OH2  OT    -0.834000       15.9994           0
   69206 WT4  4066 TIP3 H1   HT     0.417000        1.0080           0
   69207 WT4  4066 TIP3 H2   HT     0.417000        1.0080           0
   69208 WT4  4072 TIP3 OH2  OT    -0.834000       15.9994           0
   69209 WT4  4072 TIP3 H1   HT     0.417000        1.0080           0
   69210 WT4  4072 TIP3 H2   HT     0.417000        1.0080           0
   69211 WT4  4074 TIP3 OH2  OT    -0.834000       15.9994           0
   69212 WT4  4074 TIP3 H1   HT     0.417000        1.0080           0
   69213 WT4  4074 TIP3 H2   HT     0.417000        1.0080           0
   69214 WT4  4076 TIP3 OH2  OT    -0.834000       15.9994           0
   69215 WT4  4076 TIP3 H1   HT     0.417000        1.0080           0
   69216 WT4  4076 TIP3 H2   HT     0.417000        1.0080           0
   69217 WT4  4077 TIP3 OH2  OT    -0.834000       15.9994           0
   69218 WT4  4077 TIP3 H1   HT     0.417000        1.0080           0
   69219 WT4  4077 TIP3 H2   HT     0.417000        1.0080           0
   69220 WT4  4078 TIP3 OH2  OT    -0.834000       15.9994           0
   69221 WT4  4078 TIP3 H1   HT     0.417000        1.0080           0
   69222 WT4  4078 TIP3 H2   HT     0.417000        1.0080           0
   69223 WT4  4079 TIP3 OH2  OT    -0.834000       15.9994           0
   69224 WT4  4079 TIP3 H1   HT     0.417000        1.0080           0
   69225 WT4  4079 TIP3 H2   HT     0.417000        1.0080           0
   69226 WT4  4080 TIP3 OH2  OT    -0.834000       15.9994           0
   69227 WT4  4080 TIP3 H1   HT     0.417000        1.0080           0
   69228 WT4  4080 TIP3 H2   HT     0.417000        1.0080           0
   69229 WT4  4081 TIP3 OH2  OT    -0.834000       15.9994           0
   69230 WT4  4081 TIP3 H1   HT     0.417000        1.0080           0
   69231 WT4  4081 TIP3 H2   HT     0.417000        1.0080           0
   69232 WT4  4082 TIP3 OH2  OT    -0.834000       15.9994           0
   69233 WT4  4082 TIP3 H1   HT     0.417000        1.0080           0
   69234 WT4  4082 TIP3 H2   HT     0.417000        1.0080           0
   69235 WT4  4083 TIP3 OH2  OT    -0.834000       15.9994           0
   69236 WT4  4083 TIP3 H1   HT     0.417000        1.0080           0
   69237 WT4  4083 TIP3 H2   HT     0.417000        1.0080           0
   69238 WT4  4084 TIP3 OH2  OT    -0.834000       15.9994           0
   69239 WT4  4084 TIP3 H1   HT     0.417000        1.0080           0
   69240 WT4  4084 TIP3 H2   HT     0.417000        1.0080           0
   69241 WT4  4085 TIP3 OH2  OT    -0.834000       15.9994           0
   69242 WT4  4085 TIP3 H1   HT     0.417000        1.0080           0
   69243 WT4  4085 TIP3 H2   HT     0.417000        1.0080           0
   69244 WT4  4086 TIP3 OH2  OT    -0.834000       15.9994           0
   69245 WT4  4086 TIP3 H1   HT     0.417000        1.0080           0
   69246 WT4  4086 TIP3 H2   HT     0.417000        1.0080           0
   69247 WT4  4088 TIP3 OH2  OT    -0.834000       15.9994           0
   69248 WT4  4088 TIP3 H1   HT     0.417000        1.0080           0
   69249 WT4  4088 TIP3 H2   HT     0.417000        1.0080           0
   69250 WT4  4091 TIP3 OH2  OT    -0.834000       15.9994           0
   69251 WT4  4091 TIP3 H1   HT     0.417000        1.0080           0
   69252 WT4  4091 TIP3 H2   HT     0.417000        1.0080           0
   69253 WT4  4093 TIP3 OH2  OT    -0.834000       15.9994           0
   69254 WT4  4093 TIP3 H1   HT     0.417000        1.0080           0
   69255 WT4  4093 TIP3 H2   HT     0.417000        1.0080           0
   69256 WT4  4096 TIP3 OH2  OT    -0.834000       15.9994           0
   69257 WT4  4096 TIP3 H1   HT     0.417000        1.0080           0
   69258 WT4  4096 TIP3 H2   HT     0.417000        1.0080           0
   69259 WT4  4097 TIP3 OH2  OT    -0.834000       15.9994           0
   69260 WT4  4097 TIP3 H1   HT     0.417000        1.0080           0
   69261 WT4  4097 TIP3 H2   HT     0.417000        1.0080           0
   69262 WT4  4098 TIP3 OH2  OT    -0.834000       15.9994           0
   69263 WT4  4098 TIP3 H1   HT     0.417000        1.0080           0
   69264 WT4  4098 TIP3 H2   HT     0.417000        1.0080           0
   69265 WT4  4099 TIP3 OH2  OT    -0.834000       15.9994           0
   69266 WT4  4099 TIP3 H1   HT     0.417000        1.0080           0
   69267 WT4  4099 TIP3 H2   HT     0.417000        1.0080           0
   69268 WT4  4101 TIP3 OH2  OT    -0.834000       15.9994           0
   69269 WT4  4101 TIP3 H1   HT     0.417000        1.0080           0
   69270 WT4  4101 TIP3 H2   HT     0.417000        1.0080           0
   69271 WT4  4102 TIP3 OH2  OT    -0.834000       15.9994           0
   69272 WT4  4102 TIP3 H1   HT     0.417000        1.0080           0
   69273 WT4  4102 TIP3 H2   HT     0.417000        1.0080           0
   69274 WT4  4103 TIP3 OH2  OT    -0.834000       15.9994           0
   69275 WT4  4103 TIP3 H1   HT     0.417000        1.0080           0
   69276 WT4  4103 TIP3 H2   HT     0.417000        1.0080           0
   69277 WT4  4104 TIP3 OH2  OT    -0.834000       15.9994           0
   69278 WT4  4104 TIP3 H1   HT     0.417000        1.0080           0
   69279 WT4  4104 TIP3 H2   HT     0.417000        1.0080           0
   69280 WT4  4105 TIP3 OH2  OT    -0.834000       15.9994           0
   69281 WT4  4105 TIP3 H1   HT     0.417000        1.0080           0
   69282 WT4  4105 TIP3 H2   HT     0.417000        1.0080           0
   69283 WT4  4106 TIP3 OH2  OT    -0.834000       15.9994           0
   69284 WT4  4106 TIP3 H1   HT     0.417000        1.0080           0
   69285 WT4  4106 TIP3 H2   HT     0.417000        1.0080           0
   69286 WT4  4107 TIP3 OH2  OT    -0.834000       15.9994           0
   69287 WT4  4107 TIP3 H1   HT     0.417000        1.0080           0
   69288 WT4  4107 TIP3 H2   HT     0.417000        1.0080           0
   69289 WT4  4109 TIP3 OH2  OT    -0.834000       15.9994           0
   69290 WT4  4109 TIP3 H1   HT     0.417000        1.0080           0
   69291 WT4  4109 TIP3 H2   HT     0.417000        1.0080           0
   69292 WT4  4110 TIP3 OH2  OT    -0.834000       15.9994           0
   69293 WT4  4110 TIP3 H1   HT     0.417000        1.0080           0
   69294 WT4  4110 TIP3 H2   HT     0.417000        1.0080           0
   69295 WT4  4111 TIP3 OH2  OT    -0.834000       15.9994           0
   69296 WT4  4111 TIP3 H1   HT     0.417000        1.0080           0
   69297 WT4  4111 TIP3 H2   HT     0.417000        1.0080           0
   69298 WT4  4116 TIP3 OH2  OT    -0.834000       15.9994           0
   69299 WT4  4116 TIP3 H1   HT     0.417000        1.0080           0
   69300 WT4  4116 TIP3 H2   HT     0.417000        1.0080           0
   69301 WT4  4119 TIP3 OH2  OT    -0.834000       15.9994           0
   69302 WT4  4119 TIP3 H1   HT     0.417000        1.0080           0
   69303 WT4  4119 TIP3 H2   HT     0.417000        1.0080           0
   69304 WT4  4120 TIP3 OH2  OT    -0.834000       15.9994           0
   69305 WT4  4120 TIP3 H1   HT     0.417000        1.0080           0
   69306 WT4  4120 TIP3 H2   HT     0.417000        1.0080           0
   69307 WT4  4121 TIP3 OH2  OT    -0.834000       15.9994           0
   69308 WT4  4121 TIP3 H1   HT     0.417000        1.0080           0
   69309 WT4  4121 TIP3 H2   HT     0.417000        1.0080           0
   69310 WT4  4122 TIP3 OH2  OT    -0.834000       15.9994           0
   69311 WT4  4122 TIP3 H1   HT     0.417000        1.0080           0
   69312 WT4  4122 TIP3 H2   HT     0.417000        1.0080           0
   69313 WT4  4123 TIP3 OH2  OT    -0.834000       15.9994           0
   69314 WT4  4123 TIP3 H1   HT     0.417000        1.0080           0
   69315 WT4  4123 TIP3 H2   HT     0.417000        1.0080           0
   69316 WT4  4124 TIP3 OH2  OT    -0.834000       15.9994           0
   69317 WT4  4124 TIP3 H1   HT     0.417000        1.0080           0
   69318 WT4  4124 TIP3 H2   HT     0.417000        1.0080           0
   69319 WT4  4125 TIP3 OH2  OT    -0.834000       15.9994           0
   69320 WT4  4125 TIP3 H1   HT     0.417000        1.0080           0
   69321 WT4  4125 TIP3 H2   HT     0.417000        1.0080           0
   69322 WT4  4126 TIP3 OH2  OT    -0.834000       15.9994           0
   69323 WT4  4126 TIP3 H1   HT     0.417000        1.0080           0
   69324 WT4  4126 TIP3 H2   HT     0.417000        1.0080           0
   69325 WT4  4127 TIP3 OH2  OT    -0.834000       15.9994           0
   69326 WT4  4127 TIP3 H1   HT     0.417000        1.0080           0
   69327 WT4  4127 TIP3 H2   HT     0.417000        1.0080           0
   69328 WT4  4131 TIP3 OH2  OT    -0.834000       15.9994           0
   69329 WT4  4131 TIP3 H1   HT     0.417000        1.0080           0
   69330 WT4  4131 TIP3 H2   HT     0.417000        1.0080           0
   69331 WT4  4138 TIP3 OH2  OT    -0.834000       15.9994           0
   69332 WT4  4138 TIP3 H1   HT     0.417000        1.0080           0
   69333 WT4  4138 TIP3 H2   HT     0.417000        1.0080           0
   69334 WT4  4139 TIP3 OH2  OT    -0.834000       15.9994           0
   69335 WT4  4139 TIP3 H1   HT     0.417000        1.0080           0
   69336 WT4  4139 TIP3 H2   HT     0.417000        1.0080           0
   69337 WT4  4140 TIP3 OH2  OT    -0.834000       15.9994           0
   69338 WT4  4140 TIP3 H1   HT     0.417000        1.0080           0
   69339 WT4  4140 TIP3 H2   HT     0.417000        1.0080           0
   69340 WT4  4141 TIP3 OH2  OT    -0.834000       15.9994           0
   69341 WT4  4141 TIP3 H1   HT     0.417000        1.0080           0
   69342 WT4  4141 TIP3 H2   HT     0.417000        1.0080           0
   69343 WT4  4142 TIP3 OH2  OT    -0.834000       15.9994           0
   69344 WT4  4142 TIP3 H1   HT     0.417000        1.0080           0
   69345 WT4  4142 TIP3 H2   HT     0.417000        1.0080           0
   69346 WT4  4143 TIP3 OH2  OT    -0.834000       15.9994           0
   69347 WT4  4143 TIP3 H1   HT     0.417000        1.0080           0
   69348 WT4  4143 TIP3 H2   HT     0.417000        1.0080           0
   69349 WT4  4144 TIP3 OH2  OT    -0.834000       15.9994           0
   69350 WT4  4144 TIP3 H1   HT     0.417000        1.0080           0
   69351 WT4  4144 TIP3 H2   HT     0.417000        1.0080           0
   69352 WT4  4145 TIP3 OH2  OT    -0.834000       15.9994           0
   69353 WT4  4145 TIP3 H1   HT     0.417000        1.0080           0
   69354 WT4  4145 TIP3 H2   HT     0.417000        1.0080           0
   69355 WT4  4146 TIP3 OH2  OT    -0.834000       15.9994           0
   69356 WT4  4146 TIP3 H1   HT     0.417000        1.0080           0
   69357 WT4  4146 TIP3 H2   HT     0.417000        1.0080           0
   69358 WT4  4147 TIP3 OH2  OT    -0.834000       15.9994           0
   69359 WT4  4147 TIP3 H1   HT     0.417000        1.0080           0
   69360 WT4  4147 TIP3 H2   HT     0.417000        1.0080           0
   69361 WT4  4148 TIP3 OH2  OT    -0.834000       15.9994           0
   69362 WT4  4148 TIP3 H1   HT     0.417000        1.0080           0
   69363 WT4  4148 TIP3 H2   HT     0.417000        1.0080           0
   69364 WT4  4150 TIP3 OH2  OT    -0.834000       15.9994           0
   69365 WT4  4150 TIP3 H1   HT     0.417000        1.0080           0
   69366 WT4  4150 TIP3 H2   HT     0.417000        1.0080           0
   69367 WT4  4151 TIP3 OH2  OT    -0.834000       15.9994           0
   69368 WT4  4151 TIP3 H1   HT     0.417000        1.0080           0
   69369 WT4  4151 TIP3 H2   HT     0.417000        1.0080           0
   69370 WT4  4152 TIP3 OH2  OT    -0.834000       15.9994           0
   69371 WT4  4152 TIP3 H1   HT     0.417000        1.0080           0
   69372 WT4  4152 TIP3 H2   HT     0.417000        1.0080           0
   69373 WT4  4157 TIP3 OH2  OT    -0.834000       15.9994           0
   69374 WT4  4157 TIP3 H1   HT     0.417000        1.0080           0
   69375 WT4  4157 TIP3 H2   HT     0.417000        1.0080           0
   69376 WT4  4158 TIP3 OH2  OT    -0.834000       15.9994           0
   69377 WT4  4158 TIP3 H1   HT     0.417000        1.0080           0
   69378 WT4  4158 TIP3 H2   HT     0.417000        1.0080           0
   69379 WT4  4159 TIP3 OH2  OT    -0.834000       15.9994           0
   69380 WT4  4159 TIP3 H1   HT     0.417000        1.0080           0
   69381 WT4  4159 TIP3 H2   HT     0.417000        1.0080           0
   69382 WT4  4161 TIP3 OH2  OT    -0.834000       15.9994           0
   69383 WT4  4161 TIP3 H1   HT     0.417000        1.0080           0
   69384 WT4  4161 TIP3 H2   HT     0.417000        1.0080           0
   69385 WT4  4162 TIP3 OH2  OT    -0.834000       15.9994           0
   69386 WT4  4162 TIP3 H1   HT     0.417000        1.0080           0
   69387 WT4  4162 TIP3 H2   HT     0.417000        1.0080           0
   69388 WT4  4163 TIP3 OH2  OT    -0.834000       15.9994           0
   69389 WT4  4163 TIP3 H1   HT     0.417000        1.0080           0
   69390 WT4  4163 TIP3 H2   HT     0.417000        1.0080           0
   69391 WT4  4164 TIP3 OH2  OT    -0.834000       15.9994           0
   69392 WT4  4164 TIP3 H1   HT     0.417000        1.0080           0
   69393 WT4  4164 TIP3 H2   HT     0.417000        1.0080           0
   69394 WT4  4165 TIP3 OH2  OT    -0.834000       15.9994           0
   69395 WT4  4165 TIP3 H1   HT     0.417000        1.0080           0
   69396 WT4  4165 TIP3 H2   HT     0.417000        1.0080           0
   69397 WT4  4166 TIP3 OH2  OT    -0.834000       15.9994           0
   69398 WT4  4166 TIP3 H1   HT     0.417000        1.0080           0
   69399 WT4  4166 TIP3 H2   HT     0.417000        1.0080           0
   69400 WT4  4167 TIP3 OH2  OT    -0.834000       15.9994           0
   69401 WT4  4167 TIP3 H1   HT     0.417000        1.0080           0
   69402 WT4  4167 TIP3 H2   HT     0.417000        1.0080           0
   69403 WT4  4168 TIP3 OH2  OT    -0.834000       15.9994           0
   69404 WT4  4168 TIP3 H1   HT     0.417000        1.0080           0
   69405 WT4  4168 TIP3 H2   HT     0.417000        1.0080           0
   69406 WT4  4170 TIP3 OH2  OT    -0.834000       15.9994           0
   69407 WT4  4170 TIP3 H1   HT     0.417000        1.0080           0
   69408 WT4  4170 TIP3 H2   HT     0.417000        1.0080           0
   69409 WT4  4171 TIP3 OH2  OT    -0.834000       15.9994           0
   69410 WT4  4171 TIP3 H1   HT     0.417000        1.0080           0
   69411 WT4  4171 TIP3 H2   HT     0.417000        1.0080           0
   69412 WT4  4179 TIP3 OH2  OT    -0.834000       15.9994           0
   69413 WT4  4179 TIP3 H1   HT     0.417000        1.0080           0
   69414 WT4  4179 TIP3 H2   HT     0.417000        1.0080           0
   69415 WT4  4181 TIP3 OH2  OT    -0.834000       15.9994           0
   69416 WT4  4181 TIP3 H1   HT     0.417000        1.0080           0
   69417 WT4  4181 TIP3 H2   HT     0.417000        1.0080           0
   69418 WT4  4182 TIP3 OH2  OT    -0.834000       15.9994           0
   69419 WT4  4182 TIP3 H1   HT     0.417000        1.0080           0
   69420 WT4  4182 TIP3 H2   HT     0.417000        1.0080           0
   69421 WT4  4183 TIP3 OH2  OT    -0.834000       15.9994           0
   69422 WT4  4183 TIP3 H1   HT     0.417000        1.0080           0
   69423 WT4  4183 TIP3 H2   HT     0.417000        1.0080           0
   69424 WT4  4184 TIP3 OH2  OT    -0.834000       15.9994           0
   69425 WT4  4184 TIP3 H1   HT     0.417000        1.0080           0
   69426 WT4  4184 TIP3 H2   HT     0.417000        1.0080           0
   69427 WT4  4185 TIP3 OH2  OT    -0.834000       15.9994           0
   69428 WT4  4185 TIP3 H1   HT     0.417000        1.0080           0
   69429 WT4  4185 TIP3 H2   HT     0.417000        1.0080           0
   69430 WT4  4186 TIP3 OH2  OT    -0.834000       15.9994           0
   69431 WT4  4186 TIP3 H1   HT     0.417000        1.0080           0
   69432 WT4  4186 TIP3 H2   HT     0.417000        1.0080           0
   69433 WT4  4187 TIP3 OH2  OT    -0.834000       15.9994           0
   69434 WT4  4187 TIP3 H1   HT     0.417000        1.0080           0
   69435 WT4  4187 TIP3 H2   HT     0.417000        1.0080           0
   69436 WT4  4188 TIP3 OH2  OT    -0.834000       15.9994           0
   69437 WT4  4188 TIP3 H1   HT     0.417000        1.0080           0
   69438 WT4  4188 TIP3 H2   HT     0.417000        1.0080           0
   69439 WT4  4189 TIP3 OH2  OT    -0.834000       15.9994           0
   69440 WT4  4189 TIP3 H1   HT     0.417000        1.0080           0
   69441 WT4  4189 TIP3 H2   HT     0.417000        1.0080           0
   69442 WT4  4190 TIP3 OH2  OT    -0.834000       15.9994           0
   69443 WT4  4190 TIP3 H1   HT     0.417000        1.0080           0
   69444 WT4  4190 TIP3 H2   HT     0.417000        1.0080           0
   69445 WT4  4191 TIP3 OH2  OT    -0.834000       15.9994           0
   69446 WT4  4191 TIP3 H1   HT     0.417000        1.0080           0
   69447 WT4  4191 TIP3 H2   HT     0.417000        1.0080           0
   69448 WT4  4198 TIP3 OH2  OT    -0.834000       15.9994           0
   69449 WT4  4198 TIP3 H1   HT     0.417000        1.0080           0
   69450 WT4  4198 TIP3 H2   HT     0.417000        1.0080           0
   69451 WT4  4200 TIP3 OH2  OT    -0.834000       15.9994           0
   69452 WT4  4200 TIP3 H1   HT     0.417000        1.0080           0
   69453 WT4  4200 TIP3 H2   HT     0.417000        1.0080           0
   69454 WT4  4201 TIP3 OH2  OT    -0.834000       15.9994           0
   69455 WT4  4201 TIP3 H1   HT     0.417000        1.0080           0
   69456 WT4  4201 TIP3 H2   HT     0.417000        1.0080           0
   69457 WT4  4202 TIP3 OH2  OT    -0.834000       15.9994           0
   69458 WT4  4202 TIP3 H1   HT     0.417000        1.0080           0
   69459 WT4  4202 TIP3 H2   HT     0.417000        1.0080           0
   69460 WT4  4205 TIP3 OH2  OT    -0.834000       15.9994           0
   69461 WT4  4205 TIP3 H1   HT     0.417000        1.0080           0
   69462 WT4  4205 TIP3 H2   HT     0.417000        1.0080           0
   69463 WT4  4207 TIP3 OH2  OT    -0.834000       15.9994           0
   69464 WT4  4207 TIP3 H1   HT     0.417000        1.0080           0
   69465 WT4  4207 TIP3 H2   HT     0.417000        1.0080           0
   69466 WT4  4208 TIP3 OH2  OT    -0.834000       15.9994           0
   69467 WT4  4208 TIP3 H1   HT     0.417000        1.0080           0
   69468 WT4  4208 TIP3 H2   HT     0.417000        1.0080           0
   69469 WT4  4209 TIP3 OH2  OT    -0.834000       15.9994           0
   69470 WT4  4209 TIP3 H1   HT     0.417000        1.0080           0
   69471 WT4  4209 TIP3 H2   HT     0.417000        1.0080           0
   69472 WT4  4210 TIP3 OH2  OT    -0.834000       15.9994           0
   69473 WT4  4210 TIP3 H1   HT     0.417000        1.0080           0
   69474 WT4  4210 TIP3 H2   HT     0.417000        1.0080           0
   69475 WT4  4211 TIP3 OH2  OT    -0.834000       15.9994           0
   69476 WT4  4211 TIP3 H1   HT     0.417000        1.0080           0
   69477 WT4  4211 TIP3 H2   HT     0.417000        1.0080           0
   69478 WT4  4215 TIP3 OH2  OT    -0.834000       15.9994           0
   69479 WT4  4215 TIP3 H1   HT     0.417000        1.0080           0
   69480 WT4  4215 TIP3 H2   HT     0.417000        1.0080           0
   69481 WT4  4218 TIP3 OH2  OT    -0.834000       15.9994           0
   69482 WT4  4218 TIP3 H1   HT     0.417000        1.0080           0
   69483 WT4  4218 TIP3 H2   HT     0.417000        1.0080           0
   69484 WT4  4219 TIP3 OH2  OT    -0.834000       15.9994           0
   69485 WT4  4219 TIP3 H1   HT     0.417000        1.0080           0
   69486 WT4  4219 TIP3 H2   HT     0.417000        1.0080           0
   69487 WT4  4224 TIP3 OH2  OT    -0.834000       15.9994           0
   69488 WT4  4224 TIP3 H1   HT     0.417000        1.0080           0
   69489 WT4  4224 TIP3 H2   HT     0.417000        1.0080           0
   69490 WT4  4225 TIP3 OH2  OT    -0.834000       15.9994           0
   69491 WT4  4225 TIP3 H1   HT     0.417000        1.0080           0
   69492 WT4  4225 TIP3 H2   HT     0.417000        1.0080           0
   69493 WT4  4227 TIP3 OH2  OT    -0.834000       15.9994           0
   69494 WT4  4227 TIP3 H1   HT     0.417000        1.0080           0
   69495 WT4  4227 TIP3 H2   HT     0.417000        1.0080           0
   69496 WT4  4228 TIP3 OH2  OT    -0.834000       15.9994           0
   69497 WT4  4228 TIP3 H1   HT     0.417000        1.0080           0
   69498 WT4  4228 TIP3 H2   HT     0.417000        1.0080           0
   69499 WT4  4230 TIP3 OH2  OT    -0.834000       15.9994           0
   69500 WT4  4230 TIP3 H1   HT     0.417000        1.0080           0
   69501 WT4  4230 TIP3 H2   HT     0.417000        1.0080           0
   69502 WT4  4231 TIP3 OH2  OT    -0.834000       15.9994           0
   69503 WT4  4231 TIP3 H1   HT     0.417000        1.0080           0
   69504 WT4  4231 TIP3 H2   HT     0.417000        1.0080           0
   69505 WT4  4232 TIP3 OH2  OT    -0.834000       15.9994           0
   69506 WT4  4232 TIP3 H1   HT     0.417000        1.0080           0
   69507 WT4  4232 TIP3 H2   HT     0.417000        1.0080           0
   69508 WT4  4233 TIP3 OH2  OT    -0.834000       15.9994           0
   69509 WT4  4233 TIP3 H1   HT     0.417000        1.0080           0
   69510 WT4  4233 TIP3 H2   HT     0.417000        1.0080           0
   69511 WT4  4234 TIP3 OH2  OT    -0.834000       15.9994           0
   69512 WT4  4234 TIP3 H1   HT     0.417000        1.0080           0
   69513 WT4  4234 TIP3 H2   HT     0.417000        1.0080           0
   69514 WT4  4235 TIP3 OH2  OT    -0.834000       15.9994           0
   69515 WT4  4235 TIP3 H1   HT     0.417000        1.0080           0
   69516 WT4  4235 TIP3 H2   HT     0.417000        1.0080           0
   69517 WT4  4236 TIP3 OH2  OT    -0.834000       15.9994           0
   69518 WT4  4236 TIP3 H1   HT     0.417000        1.0080           0
   69519 WT4  4236 TIP3 H2   HT     0.417000        1.0080           0
   69520 WT4  4243 TIP3 OH2  OT    -0.834000       15.9994           0
   69521 WT4  4243 TIP3 H1   HT     0.417000        1.0080           0
   69522 WT4  4243 TIP3 H2   HT     0.417000        1.0080           0
   69523 WT4  4244 TIP3 OH2  OT    -0.834000       15.9994           0
   69524 WT4  4244 TIP3 H1   HT     0.417000        1.0080           0
   69525 WT4  4244 TIP3 H2   HT     0.417000        1.0080           0
   69526 WT4  4247 TIP3 OH2  OT    -0.834000       15.9994           0
   69527 WT4  4247 TIP3 H1   HT     0.417000        1.0080           0
   69528 WT4  4247 TIP3 H2   HT     0.417000        1.0080           0
   69529 WT4  4249 TIP3 OH2  OT    -0.834000       15.9994           0
   69530 WT4  4249 TIP3 H1   HT     0.417000        1.0080           0
   69531 WT4  4249 TIP3 H2   HT     0.417000        1.0080           0
   69532 WT4  4251 TIP3 OH2  OT    -0.834000       15.9994           0
   69533 WT4  4251 TIP3 H1   HT     0.417000        1.0080           0
   69534 WT4  4251 TIP3 H2   HT     0.417000        1.0080           0
   69535 WT4  4255 TIP3 OH2  OT    -0.834000       15.9994           0
   69536 WT4  4255 TIP3 H1   HT     0.417000        1.0080           0
   69537 WT4  4255 TIP3 H2   HT     0.417000        1.0080           0
   69538 WT4  4266 TIP3 OH2  OT    -0.834000       15.9994           0
   69539 WT4  4266 TIP3 H1   HT     0.417000        1.0080           0
   69540 WT4  4266 TIP3 H2   HT     0.417000        1.0080           0
   69541 WT4  4268 TIP3 OH2  OT    -0.834000       15.9994           0
   69542 WT4  4268 TIP3 H1   HT     0.417000        1.0080           0
   69543 WT4  4268 TIP3 H2   HT     0.417000        1.0080           0
   69544 WT4  4272 TIP3 OH2  OT    -0.834000       15.9994           0
   69545 WT4  4272 TIP3 H1   HT     0.417000        1.0080           0
   69546 WT4  4272 TIP3 H2   HT     0.417000        1.0080           0
   69547 WT4  4273 TIP3 OH2  OT    -0.834000       15.9994           0
   69548 WT4  4273 TIP3 H1   HT     0.417000        1.0080           0
   69549 WT4  4273 TIP3 H2   HT     0.417000        1.0080           0
   69550 WT4  4274 TIP3 OH2  OT    -0.834000       15.9994           0
   69551 WT4  4274 TIP3 H1   HT     0.417000        1.0080           0
   69552 WT4  4274 TIP3 H2   HT     0.417000        1.0080           0
   69553 WT4  4278 TIP3 OH2  OT    -0.834000       15.9994           0
   69554 WT4  4278 TIP3 H1   HT     0.417000        1.0080           0
   69555 WT4  4278 TIP3 H2   HT     0.417000        1.0080           0
   69556 WT4  4282 TIP3 OH2  OT    -0.834000       15.9994           0
   69557 WT4  4282 TIP3 H1   HT     0.417000        1.0080           0
   69558 WT4  4282 TIP3 H2   HT     0.417000        1.0080           0
   69559 WT4  4283 TIP3 OH2  OT    -0.834000       15.9994           0
   69560 WT4  4283 TIP3 H1   HT     0.417000        1.0080           0
   69561 WT4  4283 TIP3 H2   HT     0.417000        1.0080           0
   69562 WT4  4287 TIP3 OH2  OT    -0.834000       15.9994           0
   69563 WT4  4287 TIP3 H1   HT     0.417000        1.0080           0
   69564 WT4  4287 TIP3 H2   HT     0.417000        1.0080           0
   69565 WT4  4294 TIP3 OH2  OT    -0.834000       15.9994           0
   69566 WT4  4294 TIP3 H1   HT     0.417000        1.0080           0
   69567 WT4  4294 TIP3 H2   HT     0.417000        1.0080           0
   69568 WT4  4297 TIP3 OH2  OT    -0.834000       15.9994           0
   69569 WT4  4297 TIP3 H1   HT     0.417000        1.0080           0
   69570 WT4  4297 TIP3 H2   HT     0.417000        1.0080           0
   69571 WT4  4298 TIP3 OH2  OT    -0.834000       15.9994           0
   69572 WT4  4298 TIP3 H1   HT     0.417000        1.0080           0
   69573 WT4  4298 TIP3 H2   HT     0.417000        1.0080           0
   69574 WT4  4304 TIP3 OH2  OT    -0.834000       15.9994           0
   69575 WT4  4304 TIP3 H1   HT     0.417000        1.0080           0
   69576 WT4  4304 TIP3 H2   HT     0.417000        1.0080           0
   69577 WT4  4306 TIP3 OH2  OT    -0.834000       15.9994           0
   69578 WT4  4306 TIP3 H1   HT     0.417000        1.0080           0
   69579 WT4  4306 TIP3 H2   HT     0.417000        1.0080           0
   69580 WT4  4307 TIP3 OH2  OT    -0.834000       15.9994           0
   69581 WT4  4307 TIP3 H1   HT     0.417000        1.0080           0
   69582 WT4  4307 TIP3 H2   HT     0.417000        1.0080           0
   69583 WT4  4313 TIP3 OH2  OT    -0.834000       15.9994           0
   69584 WT4  4313 TIP3 H1   HT     0.417000        1.0080           0
   69585 WT4  4313 TIP3 H2   HT     0.417000        1.0080           0
   69586 WT4  4315 TIP3 OH2  OT    -0.834000       15.9994           0
   69587 WT4  4315 TIP3 H1   HT     0.417000        1.0080           0
   69588 WT4  4315 TIP3 H2   HT     0.417000        1.0080           0
   69589 WT4  4328 TIP3 OH2  OT    -0.834000       15.9994           0
   69590 WT4  4328 TIP3 H1   HT     0.417000        1.0080           0
   69591 WT4  4328 TIP3 H2   HT     0.417000        1.0080           0
   69592 WT4  4337 TIP3 OH2  OT    -0.834000       15.9994           0
   69593 WT4  4337 TIP3 H1   HT     0.417000        1.0080           0
   69594 WT4  4337 TIP3 H2   HT     0.417000        1.0080           0
   69595 WT4  4356 TIP3 OH2  OT    -0.834000       15.9994           0
   69596 WT4  4356 TIP3 H1   HT     0.417000        1.0080           0
   69597 WT4  4356 TIP3 H2   HT     0.417000        1.0080           0
   69598 WT4  4374 TIP3 OH2  OT    -0.834000       15.9994           0
   69599 WT4  4374 TIP3 H1   HT     0.417000        1.0080           0
   69600 WT4  4374 TIP3 H2   HT     0.417000        1.0080           0
   69601 WT4  4380 TIP3 OH2  OT    -0.834000       15.9994           0
   69602 WT4  4380 TIP3 H1   HT     0.417000        1.0080           0
   69603 WT4  4380 TIP3 H2   HT     0.417000        1.0080           0
   69604 WT4  4382 TIP3 OH2  OT    -0.834000       15.9994           0
   69605 WT4  4382 TIP3 H1   HT     0.417000        1.0080           0
   69606 WT4  4382 TIP3 H2   HT     0.417000        1.0080           0
   69607 WT4  4394 TIP3 OH2  OT    -0.834000       15.9994           0
   69608 WT4  4394 TIP3 H1   HT     0.417000        1.0080           0
   69609 WT4  4394 TIP3 H2   HT     0.417000        1.0080           0
   69610 WT4  4396 TIP3 OH2  OT    -0.834000       15.9994           0
   69611 WT4  4396 TIP3 H1   HT     0.417000        1.0080           0
   69612 WT4  4396 TIP3 H2   HT     0.417000        1.0080           0
   69613 WT4  4401 TIP3 OH2  OT    -0.834000       15.9994           0
   69614 WT4  4401 TIP3 H1   HT     0.417000        1.0080           0
   69615 WT4  4401 TIP3 H2   HT     0.417000        1.0080           0
   69616 WT4  4414 TIP3 OH2  OT    -0.834000       15.9994           0
   69617 WT4  4414 TIP3 H1   HT     0.417000        1.0080           0
   69618 WT4  4414 TIP3 H2   HT     0.417000        1.0080           0
   69619 WT4  4415 TIP3 OH2  OT    -0.834000       15.9994           0
   69620 WT4  4415 TIP3 H1   HT     0.417000        1.0080           0
   69621 WT4  4415 TIP3 H2   HT     0.417000        1.0080           0
   69622 WT4  4417 TIP3 OH2  OT    -0.834000       15.9994           0
   69623 WT4  4417 TIP3 H1   HT     0.417000        1.0080           0
   69624 WT4  4417 TIP3 H2   HT     0.417000        1.0080           0
   69625 WT4  4419 TIP3 OH2  OT    -0.834000       15.9994           0
   69626 WT4  4419 TIP3 H1   HT     0.417000        1.0080           0
   69627 WT4  4419 TIP3 H2   HT     0.417000        1.0080           0
   69628 WT4  4420 TIP3 OH2  OT    -0.834000       15.9994           0
   69629 WT4  4420 TIP3 H1   HT     0.417000        1.0080           0
   69630 WT4  4420 TIP3 H2   HT     0.417000        1.0080           0
   69631 WT4  4421 TIP3 OH2  OT    -0.834000       15.9994           0
   69632 WT4  4421 TIP3 H1   HT     0.417000        1.0080           0
   69633 WT4  4421 TIP3 H2   HT     0.417000        1.0080           0
   69634 WT4  4422 TIP3 OH2  OT    -0.834000       15.9994           0
   69635 WT4  4422 TIP3 H1   HT     0.417000        1.0080           0
   69636 WT4  4422 TIP3 H2   HT     0.417000        1.0080           0
   69637 WT4  4432 TIP3 OH2  OT    -0.834000       15.9994           0
   69638 WT4  4432 TIP3 H1   HT     0.417000        1.0080           0
   69639 WT4  4432 TIP3 H2   HT     0.417000        1.0080           0
   69640 WT4  4434 TIP3 OH2  OT    -0.834000       15.9994           0
   69641 WT4  4434 TIP3 H1   HT     0.417000        1.0080           0
   69642 WT4  4434 TIP3 H2   HT     0.417000        1.0080           0
   69643 WT4  4437 TIP3 OH2  OT    -0.834000       15.9994           0
   69644 WT4  4437 TIP3 H1   HT     0.417000        1.0080           0
   69645 WT4  4437 TIP3 H2   HT     0.417000        1.0080           0
   69646 WT4  4438 TIP3 OH2  OT    -0.834000       15.9994           0
   69647 WT4  4438 TIP3 H1   HT     0.417000        1.0080           0
   69648 WT4  4438 TIP3 H2   HT     0.417000        1.0080           0
   69649 WT4  4441 TIP3 OH2  OT    -0.834000       15.9994           0
   69650 WT4  4441 TIP3 H1   HT     0.417000        1.0080           0
   69651 WT4  4441 TIP3 H2   HT     0.417000        1.0080           0
   69652 WT4  4442 TIP3 OH2  OT    -0.834000       15.9994           0
   69653 WT4  4442 TIP3 H1   HT     0.417000        1.0080           0
   69654 WT4  4442 TIP3 H2   HT     0.417000        1.0080           0
   69655 WT4  4443 TIP3 OH2  OT    -0.834000       15.9994           0
   69656 WT4  4443 TIP3 H1   HT     0.417000        1.0080           0
   69657 WT4  4443 TIP3 H2   HT     0.417000        1.0080           0
   69658 WT4  4446 TIP3 OH2  OT    -0.834000       15.9994           0
   69659 WT4  4446 TIP3 H1   HT     0.417000        1.0080           0
   69660 WT4  4446 TIP3 H2   HT     0.417000        1.0080           0
   69661 WT4  4453 TIP3 OH2  OT    -0.834000       15.9994           0
   69662 WT4  4453 TIP3 H1   HT     0.417000        1.0080           0
   69663 WT4  4453 TIP3 H2   HT     0.417000        1.0080           0
   69664 WT4  4455 TIP3 OH2  OT    -0.834000       15.9994           0
   69665 WT4  4455 TIP3 H1   HT     0.417000        1.0080           0
   69666 WT4  4455 TIP3 H2   HT     0.417000        1.0080           0
   69667 WT4  4456 TIP3 OH2  OT    -0.834000       15.9994           0
   69668 WT4  4456 TIP3 H1   HT     0.417000        1.0080           0
   69669 WT4  4456 TIP3 H2   HT     0.417000        1.0080           0
   69670 WT4  4457 TIP3 OH2  OT    -0.834000       15.9994           0
   69671 WT4  4457 TIP3 H1   HT     0.417000        1.0080           0
   69672 WT4  4457 TIP3 H2   HT     0.417000        1.0080           0
   69673 WT4  4459 TIP3 OH2  OT    -0.834000       15.9994           0
   69674 WT4  4459 TIP3 H1   HT     0.417000        1.0080           0
   69675 WT4  4459 TIP3 H2   HT     0.417000        1.0080           0
   69676 WT4  4460 TIP3 OH2  OT    -0.834000       15.9994           0
   69677 WT4  4460 TIP3 H1   HT     0.417000        1.0080           0
   69678 WT4  4460 TIP3 H2   HT     0.417000        1.0080           0
   69679 WT4  4461 TIP3 OH2  OT    -0.834000       15.9994           0
   69680 WT4  4461 TIP3 H1   HT     0.417000        1.0080           0
   69681 WT4  4461 TIP3 H2   HT     0.417000        1.0080           0
   69682 WT4  4462 TIP3 OH2  OT    -0.834000       15.9994           0
   69683 WT4  4462 TIP3 H1   HT     0.417000        1.0080           0
   69684 WT4  4462 TIP3 H2   HT     0.417000        1.0080           0
   69685 WT4  4463 TIP3 OH2  OT    -0.834000       15.9994           0
   69686 WT4  4463 TIP3 H1   HT     0.417000        1.0080           0
   69687 WT4  4463 TIP3 H2   HT     0.417000        1.0080           0
   69688 WT4  4465 TIP3 OH2  OT    -0.834000       15.9994           0
   69689 WT4  4465 TIP3 H1   HT     0.417000        1.0080           0
   69690 WT4  4465 TIP3 H2   HT     0.417000        1.0080           0
   69691 WT4  4466 TIP3 OH2  OT    -0.834000       15.9994           0
   69692 WT4  4466 TIP3 H1   HT     0.417000        1.0080           0
   69693 WT4  4466 TIP3 H2   HT     0.417000        1.0080           0
   69694 WT4  4473 TIP3 OH2  OT    -0.834000       15.9994           0
   69695 WT4  4473 TIP3 H1   HT     0.417000        1.0080           0
   69696 WT4  4473 TIP3 H2   HT     0.417000        1.0080           0
   69697 WT4  4474 TIP3 OH2  OT    -0.834000       15.9994           0
   69698 WT4  4474 TIP3 H1   HT     0.417000        1.0080           0
   69699 WT4  4474 TIP3 H2   HT     0.417000        1.0080           0
   69700 WT4  4477 TIP3 OH2  OT    -0.834000       15.9994           0
   69701 WT4  4477 TIP3 H1   HT     0.417000        1.0080           0
   69702 WT4  4477 TIP3 H2   HT     0.417000        1.0080           0
   69703 WT4  4478 TIP3 OH2  OT    -0.834000       15.9994           0
   69704 WT4  4478 TIP3 H1   HT     0.417000        1.0080           0
   69705 WT4  4478 TIP3 H2   HT     0.417000        1.0080           0
   69706 WT4  4479 TIP3 OH2  OT    -0.834000       15.9994           0
   69707 WT4  4479 TIP3 H1   HT     0.417000        1.0080           0
   69708 WT4  4479 TIP3 H2   HT     0.417000        1.0080           0
   69709 WT4  4480 TIP3 OH2  OT    -0.834000       15.9994           0
   69710 WT4  4480 TIP3 H1   HT     0.417000        1.0080           0
   69711 WT4  4480 TIP3 H2   HT     0.417000        1.0080           0
   69712 WT4  4482 TIP3 OH2  OT    -0.834000       15.9994           0
   69713 WT4  4482 TIP3 H1   HT     0.417000        1.0080           0
   69714 WT4  4482 TIP3 H2   HT     0.417000        1.0080           0
   69715 WT4  4483 TIP3 OH2  OT    -0.834000       15.9994           0
   69716 WT4  4483 TIP3 H1   HT     0.417000        1.0080           0
   69717 WT4  4483 TIP3 H2   HT     0.417000        1.0080           0
   69718 WT4  4484 TIP3 OH2  OT    -0.834000       15.9994           0
   69719 WT4  4484 TIP3 H1   HT     0.417000        1.0080           0
   69720 WT4  4484 TIP3 H2   HT     0.417000        1.0080           0
   69721 WT4  4485 TIP3 OH2  OT    -0.834000       15.9994           0
   69722 WT4  4485 TIP3 H1   HT     0.417000        1.0080           0
   69723 WT4  4485 TIP3 H2   HT     0.417000        1.0080           0
   69724 WT4  4496 TIP3 OH2  OT    -0.834000       15.9994           0
   69725 WT4  4496 TIP3 H1   HT     0.417000        1.0080           0
   69726 WT4  4496 TIP3 H2   HT     0.417000        1.0080           0
   69727 WT4  4497 TIP3 OH2  OT    -0.834000       15.9994           0
   69728 WT4  4497 TIP3 H1   HT     0.417000        1.0080           0
   69729 WT4  4497 TIP3 H2   HT     0.417000        1.0080           0
   69730 WT4  4498 TIP3 OH2  OT    -0.834000       15.9994           0
   69731 WT4  4498 TIP3 H1   HT     0.417000        1.0080           0
   69732 WT4  4498 TIP3 H2   HT     0.417000        1.0080           0
   69733 WT4  4499 TIP3 OH2  OT    -0.834000       15.9994           0
   69734 WT4  4499 TIP3 H1   HT     0.417000        1.0080           0
   69735 WT4  4499 TIP3 H2   HT     0.417000        1.0080           0
   69736 WT4  4500 TIP3 OH2  OT    -0.834000       15.9994           0
   69737 WT4  4500 TIP3 H1   HT     0.417000        1.0080           0
   69738 WT4  4500 TIP3 H2   HT     0.417000        1.0080           0
   69739 WT4  4501 TIP3 OH2  OT    -0.834000       15.9994           0
   69740 WT4  4501 TIP3 H1   HT     0.417000        1.0080           0
   69741 WT4  4501 TIP3 H2   HT     0.417000        1.0080           0
   69742 WT4  4502 TIP3 OH2  OT    -0.834000       15.9994           0
   69743 WT4  4502 TIP3 H1   HT     0.417000        1.0080           0
   69744 WT4  4502 TIP3 H2   HT     0.417000        1.0080           0
   69745 WT4  4503 TIP3 OH2  OT    -0.834000       15.9994           0
   69746 WT4  4503 TIP3 H1   HT     0.417000        1.0080           0
   69747 WT4  4503 TIP3 H2   HT     0.417000        1.0080           0
   69748 WT4  4504 TIP3 OH2  OT    -0.834000       15.9994           0
   69749 WT4  4504 TIP3 H1   HT     0.417000        1.0080           0
   69750 WT4  4504 TIP3 H2   HT     0.417000        1.0080           0
   69751 WT4  4506 TIP3 OH2  OT    -0.834000       15.9994           0
   69752 WT4  4506 TIP3 H1   HT     0.417000        1.0080           0
   69753 WT4  4506 TIP3 H2   HT     0.417000        1.0080           0
   69754 WT4  4507 TIP3 OH2  OT    -0.834000       15.9994           0
   69755 WT4  4507 TIP3 H1   HT     0.417000        1.0080           0
   69756 WT4  4507 TIP3 H2   HT     0.417000        1.0080           0
   69757 WT4  4509 TIP3 OH2  OT    -0.834000       15.9994           0
   69758 WT4  4509 TIP3 H1   HT     0.417000        1.0080           0
   69759 WT4  4509 TIP3 H2   HT     0.417000        1.0080           0
   69760 WT4  4513 TIP3 OH2  OT    -0.834000       15.9994           0
   69761 WT4  4513 TIP3 H1   HT     0.417000        1.0080           0
   69762 WT4  4513 TIP3 H2   HT     0.417000        1.0080           0
   69763 WT4  4515 TIP3 OH2  OT    -0.834000       15.9994           0
   69764 WT4  4515 TIP3 H1   HT     0.417000        1.0080           0
   69765 WT4  4515 TIP3 H2   HT     0.417000        1.0080           0
   69766 WT4  4516 TIP3 OH2  OT    -0.834000       15.9994           0
   69767 WT4  4516 TIP3 H1   HT     0.417000        1.0080           0
   69768 WT4  4516 TIP3 H2   HT     0.417000        1.0080           0
   69769 WT4  4517 TIP3 OH2  OT    -0.834000       15.9994           0
   69770 WT4  4517 TIP3 H1   HT     0.417000        1.0080           0
   69771 WT4  4517 TIP3 H2   HT     0.417000        1.0080           0
   69772 WT4  4518 TIP3 OH2  OT    -0.834000       15.9994           0
   69773 WT4  4518 TIP3 H1   HT     0.417000        1.0080           0
   69774 WT4  4518 TIP3 H2   HT     0.417000        1.0080           0
   69775 WT4  4519 TIP3 OH2  OT    -0.834000       15.9994           0
   69776 WT4  4519 TIP3 H1   HT     0.417000        1.0080           0
   69777 WT4  4519 TIP3 H2   HT     0.417000        1.0080           0
   69778 WT4  4520 TIP3 OH2  OT    -0.834000       15.9994           0
   69779 WT4  4520 TIP3 H1   HT     0.417000        1.0080           0
   69780 WT4  4520 TIP3 H2   HT     0.417000        1.0080           0
   69781 WT4  4522 TIP3 OH2  OT    -0.834000       15.9994           0
   69782 WT4  4522 TIP3 H1   HT     0.417000        1.0080           0
   69783 WT4  4522 TIP3 H2   HT     0.417000        1.0080           0
   69784 WT4  4523 TIP3 OH2  OT    -0.834000       15.9994           0
   69785 WT4  4523 TIP3 H1   HT     0.417000        1.0080           0
   69786 WT4  4523 TIP3 H2   HT     0.417000        1.0080           0
   69787 WT4  4524 TIP3 OH2  OT    -0.834000       15.9994           0
   69788 WT4  4524 TIP3 H1   HT     0.417000        1.0080           0
   69789 WT4  4524 TIP3 H2   HT     0.417000        1.0080           0
   69790 WT4  4525 TIP3 OH2  OT    -0.834000       15.9994           0
   69791 WT4  4525 TIP3 H1   HT     0.417000        1.0080           0
   69792 WT4  4525 TIP3 H2   HT     0.417000        1.0080           0
   69793 WT4  4526 TIP3 OH2  OT    -0.834000       15.9994           0
   69794 WT4  4526 TIP3 H1   HT     0.417000        1.0080           0
   69795 WT4  4526 TIP3 H2   HT     0.417000        1.0080           0
   69796 WT4  4527 TIP3 OH2  OT    -0.834000       15.9994           0
   69797 WT4  4527 TIP3 H1   HT     0.417000        1.0080           0
   69798 WT4  4527 TIP3 H2   HT     0.417000        1.0080           0
   69799 WT4  4531 TIP3 OH2  OT    -0.834000       15.9994           0
   69800 WT4  4531 TIP3 H1   HT     0.417000        1.0080           0
   69801 WT4  4531 TIP3 H2   HT     0.417000        1.0080           0
   69802 WT4  4536 TIP3 OH2  OT    -0.834000       15.9994           0
   69803 WT4  4536 TIP3 H1   HT     0.417000        1.0080           0
   69804 WT4  4536 TIP3 H2   HT     0.417000        1.0080           0
   69805 WT4  4537 TIP3 OH2  OT    -0.834000       15.9994           0
   69806 WT4  4537 TIP3 H1   HT     0.417000        1.0080           0
   69807 WT4  4537 TIP3 H2   HT     0.417000        1.0080           0
   69808 WT4  4538 TIP3 OH2  OT    -0.834000       15.9994           0
   69809 WT4  4538 TIP3 H1   HT     0.417000        1.0080           0
   69810 WT4  4538 TIP3 H2   HT     0.417000        1.0080           0
   69811 WT4  4539 TIP3 OH2  OT    -0.834000       15.9994           0
   69812 WT4  4539 TIP3 H1   HT     0.417000        1.0080           0
   69813 WT4  4539 TIP3 H2   HT     0.417000        1.0080           0
   69814 WT4  4540 TIP3 OH2  OT    -0.834000       15.9994           0
   69815 WT4  4540 TIP3 H1   HT     0.417000        1.0080           0
   69816 WT4  4540 TIP3 H2   HT     0.417000        1.0080           0
   69817 WT4  4541 TIP3 OH2  OT    -0.834000       15.9994           0
   69818 WT4  4541 TIP3 H1   HT     0.417000        1.0080           0
   69819 WT4  4541 TIP3 H2   HT     0.417000        1.0080           0
   69820 WT4  4542 TIP3 OH2  OT    -0.834000       15.9994           0
   69821 WT4  4542 TIP3 H1   HT     0.417000        1.0080           0
   69822 WT4  4542 TIP3 H2   HT     0.417000        1.0080           0
   69823 WT4  4543 TIP3 OH2  OT    -0.834000       15.9994           0
   69824 WT4  4543 TIP3 H1   HT     0.417000        1.0080           0
   69825 WT4  4543 TIP3 H2   HT     0.417000        1.0080           0
   69826 WT4  4544 TIP3 OH2  OT    -0.834000       15.9994           0
   69827 WT4  4544 TIP3 H1   HT     0.417000        1.0080           0
   69828 WT4  4544 TIP3 H2   HT     0.417000        1.0080           0
   69829 WT4  4545 TIP3 OH2  OT    -0.834000       15.9994           0
   69830 WT4  4545 TIP3 H1   HT     0.417000        1.0080           0
   69831 WT4  4545 TIP3 H2   HT     0.417000        1.0080           0
   69832 WT4  4546 TIP3 OH2  OT    -0.834000       15.9994           0
   69833 WT4  4546 TIP3 H1   HT     0.417000        1.0080           0
   69834 WT4  4546 TIP3 H2   HT     0.417000        1.0080           0
   69835 WT4  4547 TIP3 OH2  OT    -0.834000       15.9994           0
   69836 WT4  4547 TIP3 H1   HT     0.417000        1.0080           0
   69837 WT4  4547 TIP3 H2   HT     0.417000        1.0080           0
   69838 WT4  4548 TIP3 OH2  OT    -0.834000       15.9994           0
   69839 WT4  4548 TIP3 H1   HT     0.417000        1.0080           0
   69840 WT4  4548 TIP3 H2   HT     0.417000        1.0080           0
   69841 WT4  4549 TIP3 OH2  OT    -0.834000       15.9994           0
   69842 WT4  4549 TIP3 H1   HT     0.417000        1.0080           0
   69843 WT4  4549 TIP3 H2   HT     0.417000        1.0080           0
   69844 WT4  4551 TIP3 OH2  OT    -0.834000       15.9994           0
   69845 WT4  4551 TIP3 H1   HT     0.417000        1.0080           0
   69846 WT4  4551 TIP3 H2   HT     0.417000        1.0080           0
   69847 WT4  4553 TIP3 OH2  OT    -0.834000       15.9994           0
   69848 WT4  4553 TIP3 H1   HT     0.417000        1.0080           0
   69849 WT4  4553 TIP3 H2   HT     0.417000        1.0080           0
   69850 WT4  4558 TIP3 OH2  OT    -0.834000       15.9994           0
   69851 WT4  4558 TIP3 H1   HT     0.417000        1.0080           0
   69852 WT4  4558 TIP3 H2   HT     0.417000        1.0080           0
   69853 WT4  4559 TIP3 OH2  OT    -0.834000       15.9994           0
   69854 WT4  4559 TIP3 H1   HT     0.417000        1.0080           0
   69855 WT4  4559 TIP3 H2   HT     0.417000        1.0080           0
   69856 WT4  4560 TIP3 OH2  OT    -0.834000       15.9994           0
   69857 WT4  4560 TIP3 H1   HT     0.417000        1.0080           0
   69858 WT4  4560 TIP3 H2   HT     0.417000        1.0080           0
   69859 WT4  4561 TIP3 OH2  OT    -0.834000       15.9994           0
   69860 WT4  4561 TIP3 H1   HT     0.417000        1.0080           0
   69861 WT4  4561 TIP3 H2   HT     0.417000        1.0080           0
   69862 WT4  4562 TIP3 OH2  OT    -0.834000       15.9994           0
   69863 WT4  4562 TIP3 H1   HT     0.417000        1.0080           0
   69864 WT4  4562 TIP3 H2   HT     0.417000        1.0080           0
   69865 WT4  4563 TIP3 OH2  OT    -0.834000       15.9994           0
   69866 WT4  4563 TIP3 H1   HT     0.417000        1.0080           0
   69867 WT4  4563 TIP3 H2   HT     0.417000        1.0080           0
   69868 WT4  4564 TIP3 OH2  OT    -0.834000       15.9994           0
   69869 WT4  4564 TIP3 H1   HT     0.417000        1.0080           0
   69870 WT4  4564 TIP3 H2   HT     0.417000        1.0080           0
   69871 WT4  4565 TIP3 OH2  OT    -0.834000       15.9994           0
   69872 WT4  4565 TIP3 H1   HT     0.417000        1.0080           0
   69873 WT4  4565 TIP3 H2   HT     0.417000        1.0080           0
   69874 WT4  4566 TIP3 OH2  OT    -0.834000       15.9994           0
   69875 WT4  4566 TIP3 H1   HT     0.417000        1.0080           0
   69876 WT4  4566 TIP3 H2   HT     0.417000        1.0080           0
   69877 WT4  4567 TIP3 OH2  OT    -0.834000       15.9994           0
   69878 WT4  4567 TIP3 H1   HT     0.417000        1.0080           0
   69879 WT4  4567 TIP3 H2   HT     0.417000        1.0080           0
   69880 WT4  4568 TIP3 OH2  OT    -0.834000       15.9994           0
   69881 WT4  4568 TIP3 H1   HT     0.417000        1.0080           0
   69882 WT4  4568 TIP3 H2   HT     0.417000        1.0080           0
   69883 WT4  4569 TIP3 OH2  OT    -0.834000       15.9994           0
   69884 WT4  4569 TIP3 H1   HT     0.417000        1.0080           0
   69885 WT4  4569 TIP3 H2   HT     0.417000        1.0080           0
   69886 WT4  4574 TIP3 OH2  OT    -0.834000       15.9994           0
   69887 WT4  4574 TIP3 H1   HT     0.417000        1.0080           0
   69888 WT4  4574 TIP3 H2   HT     0.417000        1.0080           0
   69889 WT4  4578 TIP3 OH2  OT    -0.834000       15.9994           0
   69890 WT4  4578 TIP3 H1   HT     0.417000        1.0080           0
   69891 WT4  4578 TIP3 H2   HT     0.417000        1.0080           0
   69892 WT4  4581 TIP3 OH2  OT    -0.834000       15.9994           0
   69893 WT4  4581 TIP3 H1   HT     0.417000        1.0080           0
   69894 WT4  4581 TIP3 H2   HT     0.417000        1.0080           0
   69895 WT4  4582 TIP3 OH2  OT    -0.834000       15.9994           0
   69896 WT4  4582 TIP3 H1   HT     0.417000        1.0080           0
   69897 WT4  4582 TIP3 H2   HT     0.417000        1.0080           0
   69898 WT4  4583 TIP3 OH2  OT    -0.834000       15.9994           0
   69899 WT4  4583 TIP3 H1   HT     0.417000        1.0080           0
   69900 WT4  4583 TIP3 H2   HT     0.417000        1.0080           0
   69901 WT4  4584 TIP3 OH2  OT    -0.834000       15.9994           0
   69902 WT4  4584 TIP3 H1   HT     0.417000        1.0080           0
   69903 WT4  4584 TIP3 H2   HT     0.417000        1.0080           0
   69904 WT4  4585 TIP3 OH2  OT    -0.834000       15.9994           0
   69905 WT4  4585 TIP3 H1   HT     0.417000        1.0080           0
   69906 WT4  4585 TIP3 H2   HT     0.417000        1.0080           0
   69907 WT4  4586 TIP3 OH2  OT    -0.834000       15.9994           0
   69908 WT4  4586 TIP3 H1   HT     0.417000        1.0080           0
   69909 WT4  4586 TIP3 H2   HT     0.417000        1.0080           0
   69910 WT4  4587 TIP3 OH2  OT    -0.834000       15.9994           0
   69911 WT4  4587 TIP3 H1   HT     0.417000        1.0080           0
   69912 WT4  4587 TIP3 H2   HT     0.417000        1.0080           0
   69913 WT4  4588 TIP3 OH2  OT    -0.834000       15.9994           0
   69914 WT4  4588 TIP3 H1   HT     0.417000        1.0080           0
   69915 WT4  4588 TIP3 H2   HT     0.417000        1.0080           0
   69916 WT4  4592 TIP3 OH2  OT    -0.834000       15.9994           0
   69917 WT4  4592 TIP3 H1   HT     0.417000        1.0080           0
   69918 WT4  4592 TIP3 H2   HT     0.417000        1.0080           0
   69919 WT4  4593 TIP3 OH2  OT    -0.834000       15.9994           0
   69920 WT4  4593 TIP3 H1   HT     0.417000        1.0080           0
   69921 WT4  4593 TIP3 H2   HT     0.417000        1.0080           0
   69922 WT4  4599 TIP3 OH2  OT    -0.834000       15.9994           0
   69923 WT4  4599 TIP3 H1   HT     0.417000        1.0080           0
   69924 WT4  4599 TIP3 H2   HT     0.417000        1.0080           0
   69925 WT4  4600 TIP3 OH2  OT    -0.834000       15.9994           0
   69926 WT4  4600 TIP3 H1   HT     0.417000        1.0080           0
   69927 WT4  4600 TIP3 H2   HT     0.417000        1.0080           0
   69928 WT4  4602 TIP3 OH2  OT    -0.834000       15.9994           0
   69929 WT4  4602 TIP3 H1   HT     0.417000        1.0080           0
   69930 WT4  4602 TIP3 H2   HT     0.417000        1.0080           0
   69931 WT4  4605 TIP3 OH2  OT    -0.834000       15.9994           0
   69932 WT4  4605 TIP3 H1   HT     0.417000        1.0080           0
   69933 WT4  4605 TIP3 H2   HT     0.417000        1.0080           0
   69934 WT4  4606 TIP3 OH2  OT    -0.834000       15.9994           0
   69935 WT4  4606 TIP3 H1   HT     0.417000        1.0080           0
   69936 WT4  4606 TIP3 H2   HT     0.417000        1.0080           0
   69937 WT4  4607 TIP3 OH2  OT    -0.834000       15.9994           0
   69938 WT4  4607 TIP3 H1   HT     0.417000        1.0080           0
   69939 WT4  4607 TIP3 H2   HT     0.417000        1.0080           0
   69940 WT4  4608 TIP3 OH2  OT    -0.834000       15.9994           0
   69941 WT4  4608 TIP3 H1   HT     0.417000        1.0080           0
   69942 WT4  4608 TIP3 H2   HT     0.417000        1.0080           0
   69943 WT4  4609 TIP3 OH2  OT    -0.834000       15.9994           0
   69944 WT4  4609 TIP3 H1   HT     0.417000        1.0080           0
   69945 WT4  4609 TIP3 H2   HT     0.417000        1.0080           0
   69946 WT4  4610 TIP3 OH2  OT    -0.834000       15.9994           0
   69947 WT4  4610 TIP3 H1   HT     0.417000        1.0080           0
   69948 WT4  4610 TIP3 H2   HT     0.417000        1.0080           0
   69949 WT4  4611 TIP3 OH2  OT    -0.834000       15.9994           0
   69950 WT4  4611 TIP3 H1   HT     0.417000        1.0080           0
   69951 WT4  4611 TIP3 H2   HT     0.417000        1.0080           0
   69952 WT4  4619 TIP3 OH2  OT    -0.834000       15.9994           0
   69953 WT4  4619 TIP3 H1   HT     0.417000        1.0080           0
   69954 WT4  4619 TIP3 H2   HT     0.417000        1.0080           0
   69955 WT4  4621 TIP3 OH2  OT    -0.834000       15.9994           0
   69956 WT4  4621 TIP3 H1   HT     0.417000        1.0080           0
   69957 WT4  4621 TIP3 H2   HT     0.417000        1.0080           0
   69958 WT4  4622 TIP3 OH2  OT    -0.834000       15.9994           0
   69959 WT4  4622 TIP3 H1   HT     0.417000        1.0080           0
   69960 WT4  4622 TIP3 H2   HT     0.417000        1.0080           0
   69961 WT4  4623 TIP3 OH2  OT    -0.834000       15.9994           0
   69962 WT4  4623 TIP3 H1   HT     0.417000        1.0080           0
   69963 WT4  4623 TIP3 H2   HT     0.417000        1.0080           0
   69964 WT4  4624 TIP3 OH2  OT    -0.834000       15.9994           0
   69965 WT4  4624 TIP3 H1   HT     0.417000        1.0080           0
   69966 WT4  4624 TIP3 H2   HT     0.417000        1.0080           0
   69967 WT4  4625 TIP3 OH2  OT    -0.834000       15.9994           0
   69968 WT4  4625 TIP3 H1   HT     0.417000        1.0080           0
   69969 WT4  4625 TIP3 H2   HT     0.417000        1.0080           0
   69970 WT4  4626 TIP3 OH2  OT    -0.834000       15.9994           0
   69971 WT4  4626 TIP3 H1   HT     0.417000        1.0080           0
   69972 WT4  4626 TIP3 H2   HT     0.417000        1.0080           0
   69973 WT4  4627 TIP3 OH2  OT    -0.834000       15.9994           0
   69974 WT4  4627 TIP3 H1   HT     0.417000        1.0080           0
   69975 WT4  4627 TIP3 H2   HT     0.417000        1.0080           0
   69976 WT4  4628 TIP3 OH2  OT    -0.834000       15.9994           0
   69977 WT4  4628 TIP3 H1   HT     0.417000        1.0080           0
   69978 WT4  4628 TIP3 H2   HT     0.417000        1.0080           0
   69979 WT4  4630 TIP3 OH2  OT    -0.834000       15.9994           0
   69980 WT4  4630 TIP3 H1   HT     0.417000        1.0080           0
   69981 WT4  4630 TIP3 H2   HT     0.417000        1.0080           0
   69982 WT4  4631 TIP3 OH2  OT    -0.834000       15.9994           0
   69983 WT4  4631 TIP3 H1   HT     0.417000        1.0080           0
   69984 WT4  4631 TIP3 H2   HT     0.417000        1.0080           0
   69985 WT4  4632 TIP3 OH2  OT    -0.834000       15.9994           0
   69986 WT4  4632 TIP3 H1   HT     0.417000        1.0080           0
   69987 WT4  4632 TIP3 H2   HT     0.417000        1.0080           0
   69988 WT4  4633 TIP3 OH2  OT    -0.834000       15.9994           0
   69989 WT4  4633 TIP3 H1   HT     0.417000        1.0080           0
   69990 WT4  4633 TIP3 H2   HT     0.417000        1.0080           0
   69991 WT4  4634 TIP3 OH2  OT    -0.834000       15.9994           0
   69992 WT4  4634 TIP3 H1   HT     0.417000        1.0080           0
   69993 WT4  4634 TIP3 H2   HT     0.417000        1.0080           0
   69994 WT4  4641 TIP3 OH2  OT    -0.834000       15.9994           0
   69995 WT4  4641 TIP3 H1   HT     0.417000        1.0080           0
   69996 WT4  4641 TIP3 H2   HT     0.417000        1.0080           0
   69997 WT4  4644 TIP3 OH2  OT    -0.834000       15.9994           0
   69998 WT4  4644 TIP3 H1   HT     0.417000        1.0080           0
   69999 WT4  4644 TIP3 H2   HT     0.417000        1.0080           0
   70000 WT4  4647 TIP3 OH2  OT    -0.834000       15.9994           0
   70001 WT4  4647 TIP3 H1   HT     0.417000        1.0080           0
   70002 WT4  4647 TIP3 H2   HT     0.417000        1.0080           0
   70003 WT4  4648 TIP3 OH2  OT    -0.834000       15.9994           0
   70004 WT4  4648 TIP3 H1   HT     0.417000        1.0080           0
   70005 WT4  4648 TIP3 H2   HT     0.417000        1.0080           0
   70006 WT4  4649 TIP3 OH2  OT    -0.834000       15.9994           0
   70007 WT4  4649 TIP3 H1   HT     0.417000        1.0080           0
   70008 WT4  4649 TIP3 H2   HT     0.417000        1.0080           0
   70009 WT4  4650 TIP3 OH2  OT    -0.834000       15.9994           0
   70010 WT4  4650 TIP3 H1   HT     0.417000        1.0080           0
   70011 WT4  4650 TIP3 H2   HT     0.417000        1.0080           0
   70012 WT4  4651 TIP3 OH2  OT    -0.834000       15.9994           0
   70013 WT4  4651 TIP3 H1   HT     0.417000        1.0080           0
   70014 WT4  4651 TIP3 H2   HT     0.417000        1.0080           0
   70015 WT4  4652 TIP3 OH2  OT    -0.834000       15.9994           0
   70016 WT4  4652 TIP3 H1   HT     0.417000        1.0080           0
   70017 WT4  4652 TIP3 H2   HT     0.417000        1.0080           0
   70018 WT4  4653 TIP3 OH2  OT    -0.834000       15.9994           0
   70019 WT4  4653 TIP3 H1   HT     0.417000        1.0080           0
   70020 WT4  4653 TIP3 H2   HT     0.417000        1.0080           0
   70021 WT4  4654 TIP3 OH2  OT    -0.834000       15.9994           0
   70022 WT4  4654 TIP3 H1   HT     0.417000        1.0080           0
   70023 WT4  4654 TIP3 H2   HT     0.417000        1.0080           0
   70024 WT4  4655 TIP3 OH2  OT    -0.834000       15.9994           0
   70025 WT4  4655 TIP3 H1   HT     0.417000        1.0080           0
   70026 WT4  4655 TIP3 H2   HT     0.417000        1.0080           0
   70027 WT4  4661 TIP3 OH2  OT    -0.834000       15.9994           0
   70028 WT4  4661 TIP3 H1   HT     0.417000        1.0080           0
   70029 WT4  4661 TIP3 H2   HT     0.417000        1.0080           0
   70030 WT4  4663 TIP3 OH2  OT    -0.834000       15.9994           0
   70031 WT4  4663 TIP3 H1   HT     0.417000        1.0080           0
   70032 WT4  4663 TIP3 H2   HT     0.417000        1.0080           0
   70033 WT4  4665 TIP3 OH2  OT    -0.834000       15.9994           0
   70034 WT4  4665 TIP3 H1   HT     0.417000        1.0080           0
   70035 WT4  4665 TIP3 H2   HT     0.417000        1.0080           0
   70036 WT4  4666 TIP3 OH2  OT    -0.834000       15.9994           0
   70037 WT4  4666 TIP3 H1   HT     0.417000        1.0080           0
   70038 WT4  4666 TIP3 H2   HT     0.417000        1.0080           0
   70039 WT4  4667 TIP3 OH2  OT    -0.834000       15.9994           0
   70040 WT4  4667 TIP3 H1   HT     0.417000        1.0080           0
   70041 WT4  4667 TIP3 H2   HT     0.417000        1.0080           0
   70042 WT4  4668 TIP3 OH2  OT    -0.834000       15.9994           0
   70043 WT4  4668 TIP3 H1   HT     0.417000        1.0080           0
   70044 WT4  4668 TIP3 H2   HT     0.417000        1.0080           0
   70045 WT4  4669 TIP3 OH2  OT    -0.834000       15.9994           0
   70046 WT4  4669 TIP3 H1   HT     0.417000        1.0080           0
   70047 WT4  4669 TIP3 H2   HT     0.417000        1.0080           0
   70048 WT4  4670 TIP3 OH2  OT    -0.834000       15.9994           0
   70049 WT4  4670 TIP3 H1   HT     0.417000        1.0080           0
   70050 WT4  4670 TIP3 H2   HT     0.417000        1.0080           0
   70051 WT4  4671 TIP3 OH2  OT    -0.834000       15.9994           0
   70052 WT4  4671 TIP3 H1   HT     0.417000        1.0080           0
   70053 WT4  4671 TIP3 H2   HT     0.417000        1.0080           0
   70054 WT4  4672 TIP3 OH2  OT    -0.834000       15.9994           0
   70055 WT4  4672 TIP3 H1   HT     0.417000        1.0080           0
   70056 WT4  4672 TIP3 H2   HT     0.417000        1.0080           0
   70057 WT4  4674 TIP3 OH2  OT    -0.834000       15.9994           0
   70058 WT4  4674 TIP3 H1   HT     0.417000        1.0080           0
   70059 WT4  4674 TIP3 H2   HT     0.417000        1.0080           0
   70060 WT4  4676 TIP3 OH2  OT    -0.834000       15.9994           0
   70061 WT4  4676 TIP3 H1   HT     0.417000        1.0080           0
   70062 WT4  4676 TIP3 H2   HT     0.417000        1.0080           0
   70063 WT4  4677 TIP3 OH2  OT    -0.834000       15.9994           0
   70064 WT4  4677 TIP3 H1   HT     0.417000        1.0080           0
   70065 WT4  4677 TIP3 H2   HT     0.417000        1.0080           0
   70066 WT4  4685 TIP3 OH2  OT    -0.834000       15.9994           0
   70067 WT4  4685 TIP3 H1   HT     0.417000        1.0080           0
   70068 WT4  4685 TIP3 H2   HT     0.417000        1.0080           0
   70069 WT4  4687 TIP3 OH2  OT    -0.834000       15.9994           0
   70070 WT4  4687 TIP3 H1   HT     0.417000        1.0080           0
   70071 WT4  4687 TIP3 H2   HT     0.417000        1.0080           0
   70072 WT4  4689 TIP3 OH2  OT    -0.834000       15.9994           0
   70073 WT4  4689 TIP3 H1   HT     0.417000        1.0080           0
   70074 WT4  4689 TIP3 H2   HT     0.417000        1.0080           0
   70075 WT4  4691 TIP3 OH2  OT    -0.834000       15.9994           0
   70076 WT4  4691 TIP3 H1   HT     0.417000        1.0080           0
   70077 WT4  4691 TIP3 H2   HT     0.417000        1.0080           0
   70078 WT4  4692 TIP3 OH2  OT    -0.834000       15.9994           0
   70079 WT4  4692 TIP3 H1   HT     0.417000        1.0080           0
   70080 WT4  4692 TIP3 H2   HT     0.417000        1.0080           0
   70081 WT4  4695 TIP3 OH2  OT    -0.834000       15.9994           0
   70082 WT4  4695 TIP3 H1   HT     0.417000        1.0080           0
   70083 WT4  4695 TIP3 H2   HT     0.417000        1.0080           0
   70084 WT4  4696 TIP3 OH2  OT    -0.834000       15.9994           0
   70085 WT4  4696 TIP3 H1   HT     0.417000        1.0080           0
   70086 WT4  4696 TIP3 H2   HT     0.417000        1.0080           0
   70087 WT4  4706 TIP3 OH2  OT    -0.834000       15.9994           0
   70088 WT4  4706 TIP3 H1   HT     0.417000        1.0080           0
   70089 WT4  4706 TIP3 H2   HT     0.417000        1.0080           0
   70090 WT4  4710 TIP3 OH2  OT    -0.834000       15.9994           0
   70091 WT4  4710 TIP3 H1   HT     0.417000        1.0080           0
   70092 WT4  4710 TIP3 H2   HT     0.417000        1.0080           0
   70093 WT4  4712 TIP3 OH2  OT    -0.834000       15.9994           0
   70094 WT4  4712 TIP3 H1   HT     0.417000        1.0080           0
   70095 WT4  4712 TIP3 H2   HT     0.417000        1.0080           0
   70096 WT4  4713 TIP3 OH2  OT    -0.834000       15.9994           0
   70097 WT4  4713 TIP3 H1   HT     0.417000        1.0080           0
   70098 WT4  4713 TIP3 H2   HT     0.417000        1.0080           0
   70099 WT4  4715 TIP3 OH2  OT    -0.834000       15.9994           0
   70100 WT4  4715 TIP3 H1   HT     0.417000        1.0080           0
   70101 WT4  4715 TIP3 H2   HT     0.417000        1.0080           0
   70102 WT4  4725 TIP3 OH2  OT    -0.834000       15.9994           0
   70103 WT4  4725 TIP3 H1   HT     0.417000        1.0080           0
   70104 WT4  4725 TIP3 H2   HT     0.417000        1.0080           0
   70105 WT4  4732 TIP3 OH2  OT    -0.834000       15.9994           0
   70106 WT4  4732 TIP3 H1   HT     0.417000        1.0080           0
   70107 WT4  4732 TIP3 H2   HT     0.417000        1.0080           0
   70108 WT4  4735 TIP3 OH2  OT    -0.834000       15.9994           0
   70109 WT4  4735 TIP3 H1   HT     0.417000        1.0080           0
   70110 WT4  4735 TIP3 H2   HT     0.417000        1.0080           0
   70111 WT4  4751 TIP3 OH2  OT    -0.834000       15.9994           0
   70112 WT4  4751 TIP3 H1   HT     0.417000        1.0080           0
   70113 WT4  4751 TIP3 H2   HT     0.417000        1.0080           0
   70114 WT4  4778 TIP3 OH2  OT    -0.834000       15.9994           0
   70115 WT4  4778 TIP3 H1   HT     0.417000        1.0080           0
   70116 WT4  4778 TIP3 H2   HT     0.417000        1.0080           0
   70117 WT4  4787 TIP3 OH2  OT    -0.834000       15.9994           0
   70118 WT4  4787 TIP3 H1   HT     0.417000        1.0080           0
   70119 WT4  4787 TIP3 H2   HT     0.417000        1.0080           0
   70120 WT4  4791 TIP3 OH2  OT    -0.834000       15.9994           0
   70121 WT4  4791 TIP3 H1   HT     0.417000        1.0080           0
   70122 WT4  4791 TIP3 H2   HT     0.417000        1.0080           0
   70123 WT4  4797 TIP3 OH2  OT    -0.834000       15.9994           0
   70124 WT4  4797 TIP3 H1   HT     0.417000        1.0080           0
   70125 WT4  4797 TIP3 H2   HT     0.417000        1.0080           0
   70126 WT4  4798 TIP3 OH2  OT    -0.834000       15.9994           0
   70127 WT4  4798 TIP3 H1   HT     0.417000        1.0080           0
   70128 WT4  4798 TIP3 H2   HT     0.417000        1.0080           0
   70129 WT4  4799 TIP3 OH2  OT    -0.834000       15.9994           0
   70130 WT4  4799 TIP3 H1   HT     0.417000        1.0080           0
   70131 WT4  4799 TIP3 H2   HT     0.417000        1.0080           0
   70132 WT4  4800 TIP3 OH2  OT    -0.834000       15.9994           0
   70133 WT4  4800 TIP3 H1   HT     0.417000        1.0080           0
   70134 WT4  4800 TIP3 H2   HT     0.417000        1.0080           0
   70135 WT4  4801 TIP3 OH2  OT    -0.834000       15.9994           0
   70136 WT4  4801 TIP3 H1   HT     0.417000        1.0080           0
   70137 WT4  4801 TIP3 H2   HT     0.417000        1.0080           0
   70138 WT4  4809 TIP3 OH2  OT    -0.834000       15.9994           0
   70139 WT4  4809 TIP3 H1   HT     0.417000        1.0080           0
   70140 WT4  4809 TIP3 H2   HT     0.417000        1.0080           0
   70141 WT4  4814 TIP3 OH2  OT    -0.834000       15.9994           0
   70142 WT4  4814 TIP3 H1   HT     0.417000        1.0080           0
   70143 WT4  4814 TIP3 H2   HT     0.417000        1.0080           0
   70144 WT4  4815 TIP3 OH2  OT    -0.834000       15.9994           0
   70145 WT4  4815 TIP3 H1   HT     0.417000        1.0080           0
   70146 WT4  4815 TIP3 H2   HT     0.417000        1.0080           0
   70147 WT4  4820 TIP3 OH2  OT    -0.834000       15.9994           0
   70148 WT4  4820 TIP3 H1   HT     0.417000        1.0080           0
   70149 WT4  4820 TIP3 H2   HT     0.417000        1.0080           0
   70150 WT4  4821 TIP3 OH2  OT    -0.834000       15.9994           0
   70151 WT4  4821 TIP3 H1   HT     0.417000        1.0080           0
   70152 WT4  4821 TIP3 H2   HT     0.417000        1.0080           0
   70153 WT4  4822 TIP3 OH2  OT    -0.834000       15.9994           0
   70154 WT4  4822 TIP3 H1   HT     0.417000        1.0080           0
   70155 WT4  4822 TIP3 H2   HT     0.417000        1.0080           0
   70156 WT4  4834 TIP3 OH2  OT    -0.834000       15.9994           0
   70157 WT4  4834 TIP3 H1   HT     0.417000        1.0080           0
   70158 WT4  4834 TIP3 H2   HT     0.417000        1.0080           0
   70159 WT4  4835 TIP3 OH2  OT    -0.834000       15.9994           0
   70160 WT4  4835 TIP3 H1   HT     0.417000        1.0080           0
   70161 WT4  4835 TIP3 H2   HT     0.417000        1.0080           0
   70162 WT4  4836 TIP3 OH2  OT    -0.834000       15.9994           0
   70163 WT4  4836 TIP3 H1   HT     0.417000        1.0080           0
   70164 WT4  4836 TIP3 H2   HT     0.417000        1.0080           0
   70165 WT4  4837 TIP3 OH2  OT    -0.834000       15.9994           0
   70166 WT4  4837 TIP3 H1   HT     0.417000        1.0080           0
   70167 WT4  4837 TIP3 H2   HT     0.417000        1.0080           0
   70168 WT4  4844 TIP3 OH2  OT    -0.834000       15.9994           0
   70169 WT4  4844 TIP3 H1   HT     0.417000        1.0080           0
   70170 WT4  4844 TIP3 H2   HT     0.417000        1.0080           0
   70171 WT4  4849 TIP3 OH2  OT    -0.834000       15.9994           0
   70172 WT4  4849 TIP3 H1   HT     0.417000        1.0080           0
   70173 WT4  4849 TIP3 H2   HT     0.417000        1.0080           0
   70174 WT4  4851 TIP3 OH2  OT    -0.834000       15.9994           0
   70175 WT4  4851 TIP3 H1   HT     0.417000        1.0080           0
   70176 WT4  4851 TIP3 H2   HT     0.417000        1.0080           0
   70177 WT4  4853 TIP3 OH2  OT    -0.834000       15.9994           0
   70178 WT4  4853 TIP3 H1   HT     0.417000        1.0080           0
   70179 WT4  4853 TIP3 H2   HT     0.417000        1.0080           0
   70180 WT4  4855 TIP3 OH2  OT    -0.834000       15.9994           0
   70181 WT4  4855 TIP3 H1   HT     0.417000        1.0080           0
   70182 WT4  4855 TIP3 H2   HT     0.417000        1.0080           0
   70183 WT4  4856 TIP3 OH2  OT    -0.834000       15.9994           0
   70184 WT4  4856 TIP3 H1   HT     0.417000        1.0080           0
   70185 WT4  4856 TIP3 H2   HT     0.417000        1.0080           0
   70186 WT4  4857 TIP3 OH2  OT    -0.834000       15.9994           0
   70187 WT4  4857 TIP3 H1   HT     0.417000        1.0080           0
   70188 WT4  4857 TIP3 H2   HT     0.417000        1.0080           0
   70189 WT4  4858 TIP3 OH2  OT    -0.834000       15.9994           0
   70190 WT4  4858 TIP3 H1   HT     0.417000        1.0080           0
   70191 WT4  4858 TIP3 H2   HT     0.417000        1.0080           0
   70192 WT4  4861 TIP3 OH2  OT    -0.834000       15.9994           0
   70193 WT4  4861 TIP3 H1   HT     0.417000        1.0080           0
   70194 WT4  4861 TIP3 H2   HT     0.417000        1.0080           0
   70195 WT4  4863 TIP3 OH2  OT    -0.834000       15.9994           0
   70196 WT4  4863 TIP3 H1   HT     0.417000        1.0080           0
   70197 WT4  4863 TIP3 H2   HT     0.417000        1.0080           0
   70198 WT4  4864 TIP3 OH2  OT    -0.834000       15.9994           0
   70199 WT4  4864 TIP3 H1   HT     0.417000        1.0080           0
   70200 WT4  4864 TIP3 H2   HT     0.417000        1.0080           0
   70201 WT4  4866 TIP3 OH2  OT    -0.834000       15.9994           0
   70202 WT4  4866 TIP3 H1   HT     0.417000        1.0080           0
   70203 WT4  4866 TIP3 H2   HT     0.417000        1.0080           0
   70204 WT4  4872 TIP3 OH2  OT    -0.834000       15.9994           0
   70205 WT4  4872 TIP3 H1   HT     0.417000        1.0080           0
   70206 WT4  4872 TIP3 H2   HT     0.417000        1.0080           0
   70207 WT4  4875 TIP3 OH2  OT    -0.834000       15.9994           0
   70208 WT4  4875 TIP3 H1   HT     0.417000        1.0080           0
   70209 WT4  4875 TIP3 H2   HT     0.417000        1.0080           0
   70210 WT4  4877 TIP3 OH2  OT    -0.834000       15.9994           0
   70211 WT4  4877 TIP3 H1   HT     0.417000        1.0080           0
   70212 WT4  4877 TIP3 H2   HT     0.417000        1.0080           0
   70213 WT4  4880 TIP3 OH2  OT    -0.834000       15.9994           0
   70214 WT4  4880 TIP3 H1   HT     0.417000        1.0080           0
   70215 WT4  4880 TIP3 H2   HT     0.417000        1.0080           0
   70216 WT4  4881 TIP3 OH2  OT    -0.834000       15.9994           0
   70217 WT4  4881 TIP3 H1   HT     0.417000        1.0080           0
   70218 WT4  4881 TIP3 H2   HT     0.417000        1.0080           0
   70219 WT4  4882 TIP3 OH2  OT    -0.834000       15.9994           0
   70220 WT4  4882 TIP3 H1   HT     0.417000        1.0080           0
   70221 WT4  4882 TIP3 H2   HT     0.417000        1.0080           0
   70222 WT4  4884 TIP3 OH2  OT    -0.834000       15.9994           0
   70223 WT4  4884 TIP3 H1   HT     0.417000        1.0080           0
   70224 WT4  4884 TIP3 H2   HT     0.417000        1.0080           0
   70225 WT4  4887 TIP3 OH2  OT    -0.834000       15.9994           0
   70226 WT4  4887 TIP3 H1   HT     0.417000        1.0080           0
   70227 WT4  4887 TIP3 H2   HT     0.417000        1.0080           0
   70228 WT4  4893 TIP3 OH2  OT    -0.834000       15.9994           0
   70229 WT4  4893 TIP3 H1   HT     0.417000        1.0080           0
   70230 WT4  4893 TIP3 H2   HT     0.417000        1.0080           0
   70231 WT4  4896 TIP3 OH2  OT    -0.834000       15.9994           0
   70232 WT4  4896 TIP3 H1   HT     0.417000        1.0080           0
   70233 WT4  4896 TIP3 H2   HT     0.417000        1.0080           0
   70234 WT4  4897 TIP3 OH2  OT    -0.834000       15.9994           0
   70235 WT4  4897 TIP3 H1   HT     0.417000        1.0080           0
   70236 WT4  4897 TIP3 H2   HT     0.417000        1.0080           0
   70237 WT4  4898 TIP3 OH2  OT    -0.834000       15.9994           0
   70238 WT4  4898 TIP3 H1   HT     0.417000        1.0080           0
   70239 WT4  4898 TIP3 H2   HT     0.417000        1.0080           0
   70240 WT4  4899 TIP3 OH2  OT    -0.834000       15.9994           0
   70241 WT4  4899 TIP3 H1   HT     0.417000        1.0080           0
   70242 WT4  4899 TIP3 H2   HT     0.417000        1.0080           0
   70243 WT4  4901 TIP3 OH2  OT    -0.834000       15.9994           0
   70244 WT4  4901 TIP3 H1   HT     0.417000        1.0080           0
   70245 WT4  4901 TIP3 H2   HT     0.417000        1.0080           0
   70246 WT4  4902 TIP3 OH2  OT    -0.834000       15.9994           0
   70247 WT4  4902 TIP3 H1   HT     0.417000        1.0080           0
   70248 WT4  4902 TIP3 H2   HT     0.417000        1.0080           0
   70249 WT4  4903 TIP3 OH2  OT    -0.834000       15.9994           0
   70250 WT4  4903 TIP3 H1   HT     0.417000        1.0080           0
   70251 WT4  4903 TIP3 H2   HT     0.417000        1.0080           0
   70252 WT4  4905 TIP3 OH2  OT    -0.834000       15.9994           0
   70253 WT4  4905 TIP3 H1   HT     0.417000        1.0080           0
   70254 WT4  4905 TIP3 H2   HT     0.417000        1.0080           0
   70255 WT4  4906 TIP3 OH2  OT    -0.834000       15.9994           0
   70256 WT4  4906 TIP3 H1   HT     0.417000        1.0080           0
   70257 WT4  4906 TIP3 H2   HT     0.417000        1.0080           0
   70258 WT4  4908 TIP3 OH2  OT    -0.834000       15.9994           0
   70259 WT4  4908 TIP3 H1   HT     0.417000        1.0080           0
   70260 WT4  4908 TIP3 H2   HT     0.417000        1.0080           0
   70261 WT4  4911 TIP3 OH2  OT    -0.834000       15.9994           0
   70262 WT4  4911 TIP3 H1   HT     0.417000        1.0080           0
   70263 WT4  4911 TIP3 H2   HT     0.417000        1.0080           0
   70264 WT4  4914 TIP3 OH2  OT    -0.834000       15.9994           0
   70265 WT4  4914 TIP3 H1   HT     0.417000        1.0080           0
   70266 WT4  4914 TIP3 H2   HT     0.417000        1.0080           0
   70267 WT4  4915 TIP3 OH2  OT    -0.834000       15.9994           0
   70268 WT4  4915 TIP3 H1   HT     0.417000        1.0080           0
   70269 WT4  4915 TIP3 H2   HT     0.417000        1.0080           0
   70270 WT4  4916 TIP3 OH2  OT    -0.834000       15.9994           0
   70271 WT4  4916 TIP3 H1   HT     0.417000        1.0080           0
   70272 WT4  4916 TIP3 H2   HT     0.417000        1.0080           0
   70273 WT4  4919 TIP3 OH2  OT    -0.834000       15.9994           0
   70274 WT4  4919 TIP3 H1   HT     0.417000        1.0080           0
   70275 WT4  4919 TIP3 H2   HT     0.417000        1.0080           0
   70276 WT4  4920 TIP3 OH2  OT    -0.834000       15.9994           0
   70277 WT4  4920 TIP3 H1   HT     0.417000        1.0080           0
   70278 WT4  4920 TIP3 H2   HT     0.417000        1.0080           0
   70279 WT4  4922 TIP3 OH2  OT    -0.834000       15.9994           0
   70280 WT4  4922 TIP3 H1   HT     0.417000        1.0080           0
   70281 WT4  4922 TIP3 H2   HT     0.417000        1.0080           0
   70282 WT4  4924 TIP3 OH2  OT    -0.834000       15.9994           0
   70283 WT4  4924 TIP3 H1   HT     0.417000        1.0080           0
   70284 WT4  4924 TIP3 H2   HT     0.417000        1.0080           0
   70285 WT4  4925 TIP3 OH2  OT    -0.834000       15.9994           0
   70286 WT4  4925 TIP3 H1   HT     0.417000        1.0080           0
   70287 WT4  4925 TIP3 H2   HT     0.417000        1.0080           0
   70288 WT4  4926 TIP3 OH2  OT    -0.834000       15.9994           0
   70289 WT4  4926 TIP3 H1   HT     0.417000        1.0080           0
   70290 WT4  4926 TIP3 H2   HT     0.417000        1.0080           0
   70291 WT4  4927 TIP3 OH2  OT    -0.834000       15.9994           0
   70292 WT4  4927 TIP3 H1   HT     0.417000        1.0080           0
   70293 WT4  4927 TIP3 H2   HT     0.417000        1.0080           0
   70294 WT4  4933 TIP3 OH2  OT    -0.834000       15.9994           0
   70295 WT4  4933 TIP3 H1   HT     0.417000        1.0080           0
   70296 WT4  4933 TIP3 H2   HT     0.417000        1.0080           0
   70297 WT4  4934 TIP3 OH2  OT    -0.834000       15.9994           0
   70298 WT4  4934 TIP3 H1   HT     0.417000        1.0080           0
   70299 WT4  4934 TIP3 H2   HT     0.417000        1.0080           0
   70300 WT4  4935 TIP3 OH2  OT    -0.834000       15.9994           0
   70301 WT4  4935 TIP3 H1   HT     0.417000        1.0080           0
   70302 WT4  4935 TIP3 H2   HT     0.417000        1.0080           0
   70303 WT4  4936 TIP3 OH2  OT    -0.834000       15.9994           0
   70304 WT4  4936 TIP3 H1   HT     0.417000        1.0080           0
   70305 WT4  4936 TIP3 H2   HT     0.417000        1.0080           0
   70306 WT4  4937 TIP3 OH2  OT    -0.834000       15.9994           0
   70307 WT4  4937 TIP3 H1   HT     0.417000        1.0080           0
   70308 WT4  4937 TIP3 H2   HT     0.417000        1.0080           0
   70309 WT4  4939 TIP3 OH2  OT    -0.834000       15.9994           0
   70310 WT4  4939 TIP3 H1   HT     0.417000        1.0080           0
   70311 WT4  4939 TIP3 H2   HT     0.417000        1.0080           0
   70312 WT4  4941 TIP3 OH2  OT    -0.834000       15.9994           0
   70313 WT4  4941 TIP3 H1   HT     0.417000        1.0080           0
   70314 WT4  4941 TIP3 H2   HT     0.417000        1.0080           0
   70315 WT4  4942 TIP3 OH2  OT    -0.834000       15.9994           0
   70316 WT4  4942 TIP3 H1   HT     0.417000        1.0080           0
   70317 WT4  4942 TIP3 H2   HT     0.417000        1.0080           0
   70318 WT4  4944 TIP3 OH2  OT    -0.834000       15.9994           0
   70319 WT4  4944 TIP3 H1   HT     0.417000        1.0080           0
   70320 WT4  4944 TIP3 H2   HT     0.417000        1.0080           0
   70321 WT4  4945 TIP3 OH2  OT    -0.834000       15.9994           0
   70322 WT4  4945 TIP3 H1   HT     0.417000        1.0080           0
   70323 WT4  4945 TIP3 H2   HT     0.417000        1.0080           0
   70324 WT4  4946 TIP3 OH2  OT    -0.834000       15.9994           0
   70325 WT4  4946 TIP3 H1   HT     0.417000        1.0080           0
   70326 WT4  4946 TIP3 H2   HT     0.417000        1.0080           0
   70327 WT4  4947 TIP3 OH2  OT    -0.834000       15.9994           0
   70328 WT4  4947 TIP3 H1   HT     0.417000        1.0080           0
   70329 WT4  4947 TIP3 H2   HT     0.417000        1.0080           0
   70330 WT4  4956 TIP3 OH2  OT    -0.834000       15.9994           0
   70331 WT4  4956 TIP3 H1   HT     0.417000        1.0080           0
   70332 WT4  4956 TIP3 H2   HT     0.417000        1.0080           0
   70333 WT4  4957 TIP3 OH2  OT    -0.834000       15.9994           0
   70334 WT4  4957 TIP3 H1   HT     0.417000        1.0080           0
   70335 WT4  4957 TIP3 H2   HT     0.417000        1.0080           0
   70336 WT4  4961 TIP3 OH2  OT    -0.834000       15.9994           0
   70337 WT4  4961 TIP3 H1   HT     0.417000        1.0080           0
   70338 WT4  4961 TIP3 H2   HT     0.417000        1.0080           0
   70339 WT4  4962 TIP3 OH2  OT    -0.834000       15.9994           0
   70340 WT4  4962 TIP3 H1   HT     0.417000        1.0080           0
   70341 WT4  4962 TIP3 H2   HT     0.417000        1.0080           0
   70342 WT4  4963 TIP3 OH2  OT    -0.834000       15.9994           0
   70343 WT4  4963 TIP3 H1   HT     0.417000        1.0080           0
   70344 WT4  4963 TIP3 H2   HT     0.417000        1.0080           0
   70345 WT4  4964 TIP3 OH2  OT    -0.834000       15.9994           0
   70346 WT4  4964 TIP3 H1   HT     0.417000        1.0080           0
   70347 WT4  4964 TIP3 H2   HT     0.417000        1.0080           0
   70348 WT4  4965 TIP3 OH2  OT    -0.834000       15.9994           0
   70349 WT4  4965 TIP3 H1   HT     0.417000        1.0080           0
   70350 WT4  4965 TIP3 H2   HT     0.417000        1.0080           0
   70351 WT4  4966 TIP3 OH2  OT    -0.834000       15.9994           0
   70352 WT4  4966 TIP3 H1   HT     0.417000        1.0080           0
   70353 WT4  4966 TIP3 H2   HT     0.417000        1.0080           0
   70354 WT4  4967 TIP3 OH2  OT    -0.834000       15.9994           0
   70355 WT4  4967 TIP3 H1   HT     0.417000        1.0080           0
   70356 WT4  4967 TIP3 H2   HT     0.417000        1.0080           0
   70357 WT4  4968 TIP3 OH2  OT    -0.834000       15.9994           0
   70358 WT4  4968 TIP3 H1   HT     0.417000        1.0080           0
   70359 WT4  4968 TIP3 H2   HT     0.417000        1.0080           0
   70360 WT4  4971 TIP3 OH2  OT    -0.834000       15.9994           0
   70361 WT4  4971 TIP3 H1   HT     0.417000        1.0080           0
   70362 WT4  4971 TIP3 H2   HT     0.417000        1.0080           0
   70363 WT4  4978 TIP3 OH2  OT    -0.834000       15.9994           0
   70364 WT4  4978 TIP3 H1   HT     0.417000        1.0080           0
   70365 WT4  4978 TIP3 H2   HT     0.417000        1.0080           0
   70366 WT4  4979 TIP3 OH2  OT    -0.834000       15.9994           0
   70367 WT4  4979 TIP3 H1   HT     0.417000        1.0080           0
   70368 WT4  4979 TIP3 H2   HT     0.417000        1.0080           0
   70369 WT4  4980 TIP3 OH2  OT    -0.834000       15.9994           0
   70370 WT4  4980 TIP3 H1   HT     0.417000        1.0080           0
   70371 WT4  4980 TIP3 H2   HT     0.417000        1.0080           0
   70372 WT4  4981 TIP3 OH2  OT    -0.834000       15.9994           0
   70373 WT4  4981 TIP3 H1   HT     0.417000        1.0080           0
   70374 WT4  4981 TIP3 H2   HT     0.417000        1.0080           0
   70375 WT4  4982 TIP3 OH2  OT    -0.834000       15.9994           0
   70376 WT4  4982 TIP3 H1   HT     0.417000        1.0080           0
   70377 WT4  4982 TIP3 H2   HT     0.417000        1.0080           0
   70378 WT4  4983 TIP3 OH2  OT    -0.834000       15.9994           0
   70379 WT4  4983 TIP3 H1   HT     0.417000        1.0080           0
   70380 WT4  4983 TIP3 H2   HT     0.417000        1.0080           0
   70381 WT4  4984 TIP3 OH2  OT    -0.834000       15.9994           0
   70382 WT4  4984 TIP3 H1   HT     0.417000        1.0080           0
   70383 WT4  4984 TIP3 H2   HT     0.417000        1.0080           0
   70384 WT4  4985 TIP3 OH2  OT    -0.834000       15.9994           0
   70385 WT4  4985 TIP3 H1   HT     0.417000        1.0080           0
   70386 WT4  4985 TIP3 H2   HT     0.417000        1.0080           0
   70387 WT4  4986 TIP3 OH2  OT    -0.834000       15.9994           0
   70388 WT4  4986 TIP3 H1   HT     0.417000        1.0080           0
   70389 WT4  4986 TIP3 H2   HT     0.417000        1.0080           0
   70390 WT4  4987 TIP3 OH2  OT    -0.834000       15.9994           0
   70391 WT4  4987 TIP3 H1   HT     0.417000        1.0080           0
   70392 WT4  4987 TIP3 H2   HT     0.417000        1.0080           0
   70393 WT4  4988 TIP3 OH2  OT    -0.834000       15.9994           0
   70394 WT4  4988 TIP3 H1   HT     0.417000        1.0080           0
   70395 WT4  4988 TIP3 H2   HT     0.417000        1.0080           0
   70396 WT4  4993 TIP3 OH2  OT    -0.834000       15.9994           0
   70397 WT4  4993 TIP3 H1   HT     0.417000        1.0080           0
   70398 WT4  4993 TIP3 H2   HT     0.417000        1.0080           0
   70399 WT4  4996 TIP3 OH2  OT    -0.834000       15.9994           0
   70400 WT4  4996 TIP3 H1   HT     0.417000        1.0080           0
   70401 WT4  4996 TIP3 H2   HT     0.417000        1.0080           0
   70402 WT4  4998 TIP3 OH2  OT    -0.834000       15.9994           0
   70403 WT4  4998 TIP3 H1   HT     0.417000        1.0080           0
   70404 WT4  4998 TIP3 H2   HT     0.417000        1.0080           0
   70405 WT4  4999 TIP3 OH2  OT    -0.834000       15.9994           0
   70406 WT4  4999 TIP3 H1   HT     0.417000        1.0080           0
   70407 WT4  4999 TIP3 H2   HT     0.417000        1.0080           0
   70408 WT4  5000 TIP3 OH2  OT    -0.834000       15.9994           0
   70409 WT4  5000 TIP3 H1   HT     0.417000        1.0080           0
   70410 WT4  5000 TIP3 H2   HT     0.417000        1.0080           0
   70411 WT4  5001 TIP3 OH2  OT    -0.834000       15.9994           0
   70412 WT4  5001 TIP3 H1   HT     0.417000        1.0080           0
   70413 WT4  5001 TIP3 H2   HT     0.417000        1.0080           0
   70414 WT4  5002 TIP3 OH2  OT    -0.834000       15.9994           0
   70415 WT4  5002 TIP3 H1   HT     0.417000        1.0080           0
   70416 WT4  5002 TIP3 H2   HT     0.417000        1.0080           0
   70417 WT4  5003 TIP3 OH2  OT    -0.834000       15.9994           0
   70418 WT4  5003 TIP3 H1   HT     0.417000        1.0080           0
   70419 WT4  5003 TIP3 H2   HT     0.417000        1.0080           0
   70420 WT4  5004 TIP3 OH2  OT    -0.834000       15.9994           0
   70421 WT4  5004 TIP3 H1   HT     0.417000        1.0080           0
   70422 WT4  5004 TIP3 H2   HT     0.417000        1.0080           0
   70423 WT4  5005 TIP3 OH2  OT    -0.834000       15.9994           0
   70424 WT4  5005 TIP3 H1   HT     0.417000        1.0080           0
   70425 WT4  5005 TIP3 H2   HT     0.417000        1.0080           0
   70426 WT4  5006 TIP3 OH2  OT    -0.834000       15.9994           0
   70427 WT4  5006 TIP3 H1   HT     0.417000        1.0080           0
   70428 WT4  5006 TIP3 H2   HT     0.417000        1.0080           0
   70429 WT4  5007 TIP3 OH2  OT    -0.834000       15.9994           0
   70430 WT4  5007 TIP3 H1   HT     0.417000        1.0080           0
   70431 WT4  5007 TIP3 H2   HT     0.417000        1.0080           0
   70432 WT4  5008 TIP3 OH2  OT    -0.834000       15.9994           0
   70433 WT4  5008 TIP3 H1   HT     0.417000        1.0080           0
   70434 WT4  5008 TIP3 H2   HT     0.417000        1.0080           0
   70435 WT4  5009 TIP3 OH2  OT    -0.834000       15.9994           0
   70436 WT4  5009 TIP3 H1   HT     0.417000        1.0080           0
   70437 WT4  5009 TIP3 H2   HT     0.417000        1.0080           0
   70438 WT4  5010 TIP3 OH2  OT    -0.834000       15.9994           0
   70439 WT4  5010 TIP3 H1   HT     0.417000        1.0080           0
   70440 WT4  5010 TIP3 H2   HT     0.417000        1.0080           0
   70441 WT4  5012 TIP3 OH2  OT    -0.834000       15.9994           0
   70442 WT4  5012 TIP3 H1   HT     0.417000        1.0080           0
   70443 WT4  5012 TIP3 H2   HT     0.417000        1.0080           0
   70444 WT4  5013 TIP3 OH2  OT    -0.834000       15.9994           0
   70445 WT4  5013 TIP3 H1   HT     0.417000        1.0080           0
   70446 WT4  5013 TIP3 H2   HT     0.417000        1.0080           0
   70447 WT4  5019 TIP3 OH2  OT    -0.834000       15.9994           0
   70448 WT4  5019 TIP3 H1   HT     0.417000        1.0080           0
   70449 WT4  5019 TIP3 H2   HT     0.417000        1.0080           0
   70450 WT4  5021 TIP3 OH2  OT    -0.834000       15.9994           0
   70451 WT4  5021 TIP3 H1   HT     0.417000        1.0080           0
   70452 WT4  5021 TIP3 H2   HT     0.417000        1.0080           0
   70453 WT4  5023 TIP3 OH2  OT    -0.834000       15.9994           0
   70454 WT4  5023 TIP3 H1   HT     0.417000        1.0080           0
   70455 WT4  5023 TIP3 H2   HT     0.417000        1.0080           0
   70456 WT4  5024 TIP3 OH2  OT    -0.834000       15.9994           0
   70457 WT4  5024 TIP3 H1   HT     0.417000        1.0080           0
   70458 WT4  5024 TIP3 H2   HT     0.417000        1.0080           0
   70459 WT4  5025 TIP3 OH2  OT    -0.834000       15.9994           0
   70460 WT4  5025 TIP3 H1   HT     0.417000        1.0080           0
   70461 WT4  5025 TIP3 H2   HT     0.417000        1.0080           0
   70462 WT4  5026 TIP3 OH2  OT    -0.834000       15.9994           0
   70463 WT4  5026 TIP3 H1   HT     0.417000        1.0080           0
   70464 WT4  5026 TIP3 H2   HT     0.417000        1.0080           0
   70465 WT4  5027 TIP3 OH2  OT    -0.834000       15.9994           0
   70466 WT4  5027 TIP3 H1   HT     0.417000        1.0080           0
   70467 WT4  5027 TIP3 H2   HT     0.417000        1.0080           0
   70468 WT4  5028 TIP3 OH2  OT    -0.834000       15.9994           0
   70469 WT4  5028 TIP3 H1   HT     0.417000        1.0080           0
   70470 WT4  5028 TIP3 H2   HT     0.417000        1.0080           0
   70471 WT4  5029 TIP3 OH2  OT    -0.834000       15.9994           0
   70472 WT4  5029 TIP3 H1   HT     0.417000        1.0080           0
   70473 WT4  5029 TIP3 H2   HT     0.417000        1.0080           0
   70474 WT4  5030 TIP3 OH2  OT    -0.834000       15.9994           0
   70475 WT4  5030 TIP3 H1   HT     0.417000        1.0080           0
   70476 WT4  5030 TIP3 H2   HT     0.417000        1.0080           0
   70477 WT4  5040 TIP3 OH2  OT    -0.834000       15.9994           0
   70478 WT4  5040 TIP3 H1   HT     0.417000        1.0080           0
   70479 WT4  5040 TIP3 H2   HT     0.417000        1.0080           0
   70480 WT4  5042 TIP3 OH2  OT    -0.834000       15.9994           0
   70481 WT4  5042 TIP3 H1   HT     0.417000        1.0080           0
   70482 WT4  5042 TIP3 H2   HT     0.417000        1.0080           0
   70483 WT4  5043 TIP3 OH2  OT    -0.834000       15.9994           0
   70484 WT4  5043 TIP3 H1   HT     0.417000        1.0080           0
   70485 WT4  5043 TIP3 H2   HT     0.417000        1.0080           0
   70486 WT4  5044 TIP3 OH2  OT    -0.834000       15.9994           0
   70487 WT4  5044 TIP3 H1   HT     0.417000        1.0080           0
   70488 WT4  5044 TIP3 H2   HT     0.417000        1.0080           0
   70489 WT4  5045 TIP3 OH2  OT    -0.834000       15.9994           0
   70490 WT4  5045 TIP3 H1   HT     0.417000        1.0080           0
   70491 WT4  5045 TIP3 H2   HT     0.417000        1.0080           0
   70492 WT4  5046 TIP3 OH2  OT    -0.834000       15.9994           0
   70493 WT4  5046 TIP3 H1   HT     0.417000        1.0080           0
   70494 WT4  5046 TIP3 H2   HT     0.417000        1.0080           0
   70495 WT4  5047 TIP3 OH2  OT    -0.834000       15.9994           0
   70496 WT4  5047 TIP3 H1   HT     0.417000        1.0080           0
   70497 WT4  5047 TIP3 H2   HT     0.417000        1.0080           0
   70498 WT4  5048 TIP3 OH2  OT    -0.834000       15.9994           0
   70499 WT4  5048 TIP3 H1   HT     0.417000        1.0080           0
   70500 WT4  5048 TIP3 H2   HT     0.417000        1.0080           0
   70501 WT4  5049 TIP3 OH2  OT    -0.834000       15.9994           0
   70502 WT4  5049 TIP3 H1   HT     0.417000        1.0080           0
   70503 WT4  5049 TIP3 H2   HT     0.417000        1.0080           0
   70504 WT4  5050 TIP3 OH2  OT    -0.834000       15.9994           0
   70505 WT4  5050 TIP3 H1   HT     0.417000        1.0080           0
   70506 WT4  5050 TIP3 H2   HT     0.417000        1.0080           0
   70507 WT4  5051 TIP3 OH2  OT    -0.834000       15.9994           0
   70508 WT4  5051 TIP3 H1   HT     0.417000        1.0080           0
   70509 WT4  5051 TIP3 H2   HT     0.417000        1.0080           0
   70510 WT4  5053 TIP3 OH2  OT    -0.834000       15.9994           0
   70511 WT4  5053 TIP3 H1   HT     0.417000        1.0080           0
   70512 WT4  5053 TIP3 H2   HT     0.417000        1.0080           0
   70513 WT4  5056 TIP3 OH2  OT    -0.834000       15.9994           0
   70514 WT4  5056 TIP3 H1   HT     0.417000        1.0080           0
   70515 WT4  5056 TIP3 H2   HT     0.417000        1.0080           0
   70516 WT4  5060 TIP3 OH2  OT    -0.834000       15.9994           0
   70517 WT4  5060 TIP3 H1   HT     0.417000        1.0080           0
   70518 WT4  5060 TIP3 H2   HT     0.417000        1.0080           0
   70519 WT4  5061 TIP3 OH2  OT    -0.834000       15.9994           0
   70520 WT4  5061 TIP3 H1   HT     0.417000        1.0080           0
   70521 WT4  5061 TIP3 H2   HT     0.417000        1.0080           0
   70522 WT4  5062 TIP3 OH2  OT    -0.834000       15.9994           0
   70523 WT4  5062 TIP3 H1   HT     0.417000        1.0080           0
   70524 WT4  5062 TIP3 H2   HT     0.417000        1.0080           0
   70525 WT4  5063 TIP3 OH2  OT    -0.834000       15.9994           0
   70526 WT4  5063 TIP3 H1   HT     0.417000        1.0080           0
   70527 WT4  5063 TIP3 H2   HT     0.417000        1.0080           0
   70528 WT4  5064 TIP3 OH2  OT    -0.834000       15.9994           0
   70529 WT4  5064 TIP3 H1   HT     0.417000        1.0080           0
   70530 WT4  5064 TIP3 H2   HT     0.417000        1.0080           0
   70531 WT4  5065 TIP3 OH2  OT    -0.834000       15.9994           0
   70532 WT4  5065 TIP3 H1   HT     0.417000        1.0080           0
   70533 WT4  5065 TIP3 H2   HT     0.417000        1.0080           0
   70534 WT4  5066 TIP3 OH2  OT    -0.834000       15.9994           0
   70535 WT4  5066 TIP3 H1   HT     0.417000        1.0080           0
   70536 WT4  5066 TIP3 H2   HT     0.417000        1.0080           0
   70537 WT4  5067 TIP3 OH2  OT    -0.834000       15.9994           0
   70538 WT4  5067 TIP3 H1   HT     0.417000        1.0080           0
   70539 WT4  5067 TIP3 H2   HT     0.417000        1.0080           0
   70540 WT4  5068 TIP3 OH2  OT    -0.834000       15.9994           0
   70541 WT4  5068 TIP3 H1   HT     0.417000        1.0080           0
   70542 WT4  5068 TIP3 H2   HT     0.417000        1.0080           0
   70543 WT4  5069 TIP3 OH2  OT    -0.834000       15.9994           0
   70544 WT4  5069 TIP3 H1   HT     0.417000        1.0080           0
   70545 WT4  5069 TIP3 H2   HT     0.417000        1.0080           0
   70546 WT4  5070 TIP3 OH2  OT    -0.834000       15.9994           0
   70547 WT4  5070 TIP3 H1   HT     0.417000        1.0080           0
   70548 WT4  5070 TIP3 H2   HT     0.417000        1.0080           0
   70549 WT4  5075 TIP3 OH2  OT    -0.834000       15.9994           0
   70550 WT4  5075 TIP3 H1   HT     0.417000        1.0080           0
   70551 WT4  5075 TIP3 H2   HT     0.417000        1.0080           0
   70552 WT4  5076 TIP3 OH2  OT    -0.834000       15.9994           0
   70553 WT4  5076 TIP3 H1   HT     0.417000        1.0080           0
   70554 WT4  5076 TIP3 H2   HT     0.417000        1.0080           0
   70555 WT4  5085 TIP3 OH2  OT    -0.834000       15.9994           0
   70556 WT4  5085 TIP3 H1   HT     0.417000        1.0080           0
   70557 WT4  5085 TIP3 H2   HT     0.417000        1.0080           0
   70558 WT4  5086 TIP3 OH2  OT    -0.834000       15.9994           0
   70559 WT4  5086 TIP3 H1   HT     0.417000        1.0080           0
   70560 WT4  5086 TIP3 H2   HT     0.417000        1.0080           0
   70561 WT4  5087 TIP3 OH2  OT    -0.834000       15.9994           0
   70562 WT4  5087 TIP3 H1   HT     0.417000        1.0080           0
   70563 WT4  5087 TIP3 H2   HT     0.417000        1.0080           0
   70564 WT4  5088 TIP3 OH2  OT    -0.834000       15.9994           0
   70565 WT4  5088 TIP3 H1   HT     0.417000        1.0080           0
   70566 WT4  5088 TIP3 H2   HT     0.417000        1.0080           0
   70567 WT4  5089 TIP3 OH2  OT    -0.834000       15.9994           0
   70568 WT4  5089 TIP3 H1   HT     0.417000        1.0080           0
   70569 WT4  5089 TIP3 H2   HT     0.417000        1.0080           0
   70570 WT4  5091 TIP3 OH2  OT    -0.834000       15.9994           0
   70571 WT4  5091 TIP3 H1   HT     0.417000        1.0080           0
   70572 WT4  5091 TIP3 H2   HT     0.417000        1.0080           0
   70573 WT4  5092 TIP3 OH2  OT    -0.834000       15.9994           0
   70574 WT4  5092 TIP3 H1   HT     0.417000        1.0080           0
   70575 WT4  5092 TIP3 H2   HT     0.417000        1.0080           0
   70576 WT4  5093 TIP3 OH2  OT    -0.834000       15.9994           0
   70577 WT4  5093 TIP3 H1   HT     0.417000        1.0080           0
   70578 WT4  5093 TIP3 H2   HT     0.417000        1.0080           0
   70579 WT4  5097 TIP3 OH2  OT    -0.834000       15.9994           0
   70580 WT4  5097 TIP3 H1   HT     0.417000        1.0080           0
   70581 WT4  5097 TIP3 H2   HT     0.417000        1.0080           0
   70582 WT4  5098 TIP3 OH2  OT    -0.834000       15.9994           0
   70583 WT4  5098 TIP3 H1   HT     0.417000        1.0080           0
   70584 WT4  5098 TIP3 H2   HT     0.417000        1.0080           0
   70585 WT4  5106 TIP3 OH2  OT    -0.834000       15.9994           0
   70586 WT4  5106 TIP3 H1   HT     0.417000        1.0080           0
   70587 WT4  5106 TIP3 H2   HT     0.417000        1.0080           0
   70588 WT4  5108 TIP3 OH2  OT    -0.834000       15.9994           0
   70589 WT4  5108 TIP3 H1   HT     0.417000        1.0080           0
   70590 WT4  5108 TIP3 H2   HT     0.417000        1.0080           0
   70591 WT4  5110 TIP3 OH2  OT    -0.834000       15.9994           0
   70592 WT4  5110 TIP3 H1   HT     0.417000        1.0080           0
   70593 WT4  5110 TIP3 H2   HT     0.417000        1.0080           0
   70594 WT4  5114 TIP3 OH2  OT    -0.834000       15.9994           0
   70595 WT4  5114 TIP3 H1   HT     0.417000        1.0080           0
   70596 WT4  5114 TIP3 H2   HT     0.417000        1.0080           0
   70597 WT4  5115 TIP3 OH2  OT    -0.834000       15.9994           0
   70598 WT4  5115 TIP3 H1   HT     0.417000        1.0080           0
   70599 WT4  5115 TIP3 H2   HT     0.417000        1.0080           0
   70600 WT4  5117 TIP3 OH2  OT    -0.834000       15.9994           0
   70601 WT4  5117 TIP3 H1   HT     0.417000        1.0080           0
   70602 WT4  5117 TIP3 H2   HT     0.417000        1.0080           0
   70603 WT4  5118 TIP3 OH2  OT    -0.834000       15.9994           0
   70604 WT4  5118 TIP3 H1   HT     0.417000        1.0080           0
   70605 WT4  5118 TIP3 H2   HT     0.417000        1.0080           0
   70606 WT4  5125 TIP3 OH2  OT    -0.834000       15.9994           0
   70607 WT4  5125 TIP3 H1   HT     0.417000        1.0080           0
   70608 WT4  5125 TIP3 H2   HT     0.417000        1.0080           0
   70609 WT4  5127 TIP3 OH2  OT    -0.834000       15.9994           0
   70610 WT4  5127 TIP3 H1   HT     0.417000        1.0080           0
   70611 WT4  5127 TIP3 H2   HT     0.417000        1.0080           0
   70612 WT4  5133 TIP3 OH2  OT    -0.834000       15.9994           0
   70613 WT4  5133 TIP3 H1   HT     0.417000        1.0080           0
   70614 WT4  5133 TIP3 H2   HT     0.417000        1.0080           0
   70615 WT4  5134 TIP3 OH2  OT    -0.834000       15.9994           0
   70616 WT4  5134 TIP3 H1   HT     0.417000        1.0080           0
   70617 WT4  5134 TIP3 H2   HT     0.417000        1.0080           0
   70618 WT4  5135 TIP3 OH2  OT    -0.834000       15.9994           0
   70619 WT4  5135 TIP3 H1   HT     0.417000        1.0080           0
   70620 WT4  5135 TIP3 H2   HT     0.417000        1.0080           0
   70621 WT4  5140 TIP3 OH2  OT    -0.834000       15.9994           0
   70622 WT4  5140 TIP3 H1   HT     0.417000        1.0080           0
   70623 WT4  5140 TIP3 H2   HT     0.417000        1.0080           0
   70624 WT4  5151 TIP3 OH2  OT    -0.834000       15.9994           0
   70625 WT4  5151 TIP3 H1   HT     0.417000        1.0080           0
   70626 WT4  5151 TIP3 H2   HT     0.417000        1.0080           0
   70627 WT4  5155 TIP3 OH2  OT    -0.834000       15.9994           0
   70628 WT4  5155 TIP3 H1   HT     0.417000        1.0080           0
   70629 WT4  5155 TIP3 H2   HT     0.417000        1.0080           0
   70630 WT4  5157 TIP3 OH2  OT    -0.834000       15.9994           0
   70631 WT4  5157 TIP3 H1   HT     0.417000        1.0080           0
   70632 WT4  5157 TIP3 H2   HT     0.417000        1.0080           0
   70633 WT4  5158 TIP3 OH2  OT    -0.834000       15.9994           0
   70634 WT4  5158 TIP3 H1   HT     0.417000        1.0080           0
   70635 WT4  5158 TIP3 H2   HT     0.417000        1.0080           0
   70636 WT4  5161 TIP3 OH2  OT    -0.834000       15.9994           0
   70637 WT4  5161 TIP3 H1   HT     0.417000        1.0080           0
   70638 WT4  5161 TIP3 H2   HT     0.417000        1.0080           0
   70639 WT4  5162 TIP3 OH2  OT    -0.834000       15.9994           0
   70640 WT4  5162 TIP3 H1   HT     0.417000        1.0080           0
   70641 WT4  5162 TIP3 H2   HT     0.417000        1.0080           0
   70642 WT4  5164 TIP3 OH2  OT    -0.834000       15.9994           0
   70643 WT4  5164 TIP3 H1   HT     0.417000        1.0080           0
   70644 WT4  5164 TIP3 H2   HT     0.417000        1.0080           0
   70645 WT4  5165 TIP3 OH2  OT    -0.834000       15.9994           0
   70646 WT4  5165 TIP3 H1   HT     0.417000        1.0080           0
   70647 WT4  5165 TIP3 H2   HT     0.417000        1.0080           0
   70648 WT4  5166 TIP3 OH2  OT    -0.834000       15.9994           0
   70649 WT4  5166 TIP3 H1   HT     0.417000        1.0080           0
   70650 WT4  5166 TIP3 H2   HT     0.417000        1.0080           0
   70651 WT4  5175 TIP3 OH2  OT    -0.834000       15.9994           0
   70652 WT4  5175 TIP3 H1   HT     0.417000        1.0080           0
   70653 WT4  5175 TIP3 H2   HT     0.417000        1.0080           0
   70654 WT4  5176 TIP3 OH2  OT    -0.834000       15.9994           0
   70655 WT4  5176 TIP3 H1   HT     0.417000        1.0080           0
   70656 WT4  5176 TIP3 H2   HT     0.417000        1.0080           0
   70657 WT4  5193 TIP3 OH2  OT    -0.834000       15.9994           0
   70658 WT4  5193 TIP3 H1   HT     0.417000        1.0080           0
   70659 WT4  5193 TIP3 H2   HT     0.417000        1.0080           0
   70660 WT4  5195 TIP3 OH2  OT    -0.834000       15.9994           0
   70661 WT4  5195 TIP3 H1   HT     0.417000        1.0080           0
   70662 WT4  5195 TIP3 H2   HT     0.417000        1.0080           0
   70663 WT4  5196 TIP3 OH2  OT    -0.834000       15.9994           0
   70664 WT4  5196 TIP3 H1   HT     0.417000        1.0080           0
   70665 WT4  5196 TIP3 H2   HT     0.417000        1.0080           0
   70666 WT4  5234 TIP3 OH2  OT    -0.834000       15.9994           0
   70667 WT4  5234 TIP3 H1   HT     0.417000        1.0080           0
   70668 WT4  5234 TIP3 H2   HT     0.417000        1.0080           0
   70669 WT4  5241 TIP3 OH2  OT    -0.834000       15.9994           0
   70670 WT4  5241 TIP3 H1   HT     0.417000        1.0080           0
   70671 WT4  5241 TIP3 H2   HT     0.417000        1.0080           0
   70672 WT4  5251 TIP3 OH2  OT    -0.834000       15.9994           0
   70673 WT4  5251 TIP3 H1   HT     0.417000        1.0080           0
   70674 WT4  5251 TIP3 H2   HT     0.417000        1.0080           0
   70675 WT4  5259 TIP3 OH2  OT    -0.834000       15.9994           0
   70676 WT4  5259 TIP3 H1   HT     0.417000        1.0080           0
   70677 WT4  5259 TIP3 H2   HT     0.417000        1.0080           0
   70678 WT4  5260 TIP3 OH2  OT    -0.834000       15.9994           0
   70679 WT4  5260 TIP3 H1   HT     0.417000        1.0080           0
   70680 WT4  5260 TIP3 H2   HT     0.417000        1.0080           0
   70681 WT4  5267 TIP3 OH2  OT    -0.834000       15.9994           0
   70682 WT4  5267 TIP3 H1   HT     0.417000        1.0080           0
   70683 WT4  5267 TIP3 H2   HT     0.417000        1.0080           0
   70684 WT4  5271 TIP3 OH2  OT    -0.834000       15.9994           0
   70685 WT4  5271 TIP3 H1   HT     0.417000        1.0080           0
   70686 WT4  5271 TIP3 H2   HT     0.417000        1.0080           0
   70687 WT4  5272 TIP3 OH2  OT    -0.834000       15.9994           0
   70688 WT4  5272 TIP3 H1   HT     0.417000        1.0080           0
   70689 WT4  5272 TIP3 H2   HT     0.417000        1.0080           0
   70690 WT4  5296 TIP3 OH2  OT    -0.834000       15.9994           0
   70691 WT4  5296 TIP3 H1   HT     0.417000        1.0080           0
   70692 WT4  5296 TIP3 H2   HT     0.417000        1.0080           0
   70693 WT4  5298 TIP3 OH2  OT    -0.834000       15.9994           0
   70694 WT4  5298 TIP3 H1   HT     0.417000        1.0080           0
   70695 WT4  5298 TIP3 H2   HT     0.417000        1.0080           0
   70696 WT4  5302 TIP3 OH2  OT    -0.834000       15.9994           0
   70697 WT4  5302 TIP3 H1   HT     0.417000        1.0080           0
   70698 WT4  5302 TIP3 H2   HT     0.417000        1.0080           0
   70699 WT4  5304 TIP3 OH2  OT    -0.834000       15.9994           0
   70700 WT4  5304 TIP3 H1   HT     0.417000        1.0080           0
   70701 WT4  5304 TIP3 H2   HT     0.417000        1.0080           0
   70702 WT4  5306 TIP3 OH2  OT    -0.834000       15.9994           0
   70703 WT4  5306 TIP3 H1   HT     0.417000        1.0080           0
   70704 WT4  5306 TIP3 H2   HT     0.417000        1.0080           0
   70705 WT4  5317 TIP3 OH2  OT    -0.834000       15.9994           0
   70706 WT4  5317 TIP3 H1   HT     0.417000        1.0080           0
   70707 WT4  5317 TIP3 H2   HT     0.417000        1.0080           0
   70708 WT4  5318 TIP3 OH2  OT    -0.834000       15.9994           0
   70709 WT4  5318 TIP3 H1   HT     0.417000        1.0080           0
   70710 WT4  5318 TIP3 H2   HT     0.417000        1.0080           0
   70711 WT4  5319 TIP3 OH2  OT    -0.834000       15.9994           0
   70712 WT4  5319 TIP3 H1   HT     0.417000        1.0080           0
   70713 WT4  5319 TIP3 H2   HT     0.417000        1.0080           0
   70714 WT4  5320 TIP3 OH2  OT    -0.834000       15.9994           0
   70715 WT4  5320 TIP3 H1   HT     0.417000        1.0080           0
   70716 WT4  5320 TIP3 H2   HT     0.417000        1.0080           0
   70717 WT4  5322 TIP3 OH2  OT    -0.834000       15.9994           0
   70718 WT4  5322 TIP3 H1   HT     0.417000        1.0080           0
   70719 WT4  5322 TIP3 H2   HT     0.417000        1.0080           0
   70720 WT4  5323 TIP3 OH2  OT    -0.834000       15.9994           0
   70721 WT4  5323 TIP3 H1   HT     0.417000        1.0080           0
   70722 WT4  5323 TIP3 H2   HT     0.417000        1.0080           0
   70723 WT4  5325 TIP3 OH2  OT    -0.834000       15.9994           0
   70724 WT4  5325 TIP3 H1   HT     0.417000        1.0080           0
   70725 WT4  5325 TIP3 H2   HT     0.417000        1.0080           0
   70726 WT4  5327 TIP3 OH2  OT    -0.834000       15.9994           0
   70727 WT4  5327 TIP3 H1   HT     0.417000        1.0080           0
   70728 WT4  5327 TIP3 H2   HT     0.417000        1.0080           0
   70729 WT4  5332 TIP3 OH2  OT    -0.834000       15.9994           0
   70730 WT4  5332 TIP3 H1   HT     0.417000        1.0080           0
   70731 WT4  5332 TIP3 H2   HT     0.417000        1.0080           0
   70732 WT4  5341 TIP3 OH2  OT    -0.834000       15.9994           0
   70733 WT4  5341 TIP3 H1   HT     0.417000        1.0080           0
   70734 WT4  5341 TIP3 H2   HT     0.417000        1.0080           0
   70735 WT4  5343 TIP3 OH2  OT    -0.834000       15.9994           0
   70736 WT4  5343 TIP3 H1   HT     0.417000        1.0080           0
   70737 WT4  5343 TIP3 H2   HT     0.417000        1.0080           0
   70738 WT4  5344 TIP3 OH2  OT    -0.834000       15.9994           0
   70739 WT4  5344 TIP3 H1   HT     0.417000        1.0080           0
   70740 WT4  5344 TIP3 H2   HT     0.417000        1.0080           0
   70741 WT4  5348 TIP3 OH2  OT    -0.834000       15.9994           0
   70742 WT4  5348 TIP3 H1   HT     0.417000        1.0080           0
   70743 WT4  5348 TIP3 H2   HT     0.417000        1.0080           0
   70744 WT4  5349 TIP3 OH2  OT    -0.834000       15.9994           0
   70745 WT4  5349 TIP3 H1   HT     0.417000        1.0080           0
   70746 WT4  5349 TIP3 H2   HT     0.417000        1.0080           0
   70747 WT4  5355 TIP3 OH2  OT    -0.834000       15.9994           0
   70748 WT4  5355 TIP3 H1   HT     0.417000        1.0080           0
   70749 WT4  5355 TIP3 H2   HT     0.417000        1.0080           0
   70750 WT4  5356 TIP3 OH2  OT    -0.834000       15.9994           0
   70751 WT4  5356 TIP3 H1   HT     0.417000        1.0080           0
   70752 WT4  5356 TIP3 H2   HT     0.417000        1.0080           0
   70753 WT4  5357 TIP3 OH2  OT    -0.834000       15.9994           0
   70754 WT4  5357 TIP3 H1   HT     0.417000        1.0080           0
   70755 WT4  5357 TIP3 H2   HT     0.417000        1.0080           0
   70756 WT4  5358 TIP3 OH2  OT    -0.834000       15.9994           0
   70757 WT4  5358 TIP3 H1   HT     0.417000        1.0080           0
   70758 WT4  5358 TIP3 H2   HT     0.417000        1.0080           0
   70759 WT4  5359 TIP3 OH2  OT    -0.834000       15.9994           0
   70760 WT4  5359 TIP3 H1   HT     0.417000        1.0080           0
   70761 WT4  5359 TIP3 H2   HT     0.417000        1.0080           0
   70762 WT4  5360 TIP3 OH2  OT    -0.834000       15.9994           0
   70763 WT4  5360 TIP3 H1   HT     0.417000        1.0080           0
   70764 WT4  5360 TIP3 H2   HT     0.417000        1.0080           0
   70765 WT4  5363 TIP3 OH2  OT    -0.834000       15.9994           0
   70766 WT4  5363 TIP3 H1   HT     0.417000        1.0080           0
   70767 WT4  5363 TIP3 H2   HT     0.417000        1.0080           0
   70768 WT4  5364 TIP3 OH2  OT    -0.834000       15.9994           0
   70769 WT4  5364 TIP3 H1   HT     0.417000        1.0080           0
   70770 WT4  5364 TIP3 H2   HT     0.417000        1.0080           0
   70771 WT4  5365 TIP3 OH2  OT    -0.834000       15.9994           0
   70772 WT4  5365 TIP3 H1   HT     0.417000        1.0080           0
   70773 WT4  5365 TIP3 H2   HT     0.417000        1.0080           0
   70774 WT4  5366 TIP3 OH2  OT    -0.834000       15.9994           0
   70775 WT4  5366 TIP3 H1   HT     0.417000        1.0080           0
   70776 WT4  5366 TIP3 H2   HT     0.417000        1.0080           0
   70777 WT4  5368 TIP3 OH2  OT    -0.834000       15.9994           0
   70778 WT4  5368 TIP3 H1   HT     0.417000        1.0080           0
   70779 WT4  5368 TIP3 H2   HT     0.417000        1.0080           0
   70780 WT4  5369 TIP3 OH2  OT    -0.834000       15.9994           0
   70781 WT4  5369 TIP3 H1   HT     0.417000        1.0080           0
   70782 WT4  5369 TIP3 H2   HT     0.417000        1.0080           0
   70783 WT4  5370 TIP3 OH2  OT    -0.834000       15.9994           0
   70784 WT4  5370 TIP3 H1   HT     0.417000        1.0080           0
   70785 WT4  5370 TIP3 H2   HT     0.417000        1.0080           0
   70786 WT4  5371 TIP3 OH2  OT    -0.834000       15.9994           0
   70787 WT4  5371 TIP3 H1   HT     0.417000        1.0080           0
   70788 WT4  5371 TIP3 H2   HT     0.417000        1.0080           0
   70789 WT4  5375 TIP3 OH2  OT    -0.834000       15.9994           0
   70790 WT4  5375 TIP3 H1   HT     0.417000        1.0080           0
   70791 WT4  5375 TIP3 H2   HT     0.417000        1.0080           0
   70792 WT4  5377 TIP3 OH2  OT    -0.834000       15.9994           0
   70793 WT4  5377 TIP3 H1   HT     0.417000        1.0080           0
   70794 WT4  5377 TIP3 H2   HT     0.417000        1.0080           0
   70795 WT4  5378 TIP3 OH2  OT    -0.834000       15.9994           0
   70796 WT4  5378 TIP3 H1   HT     0.417000        1.0080           0
   70797 WT4  5378 TIP3 H2   HT     0.417000        1.0080           0
   70798 WT4  5379 TIP3 OH2  OT    -0.834000       15.9994           0
   70799 WT4  5379 TIP3 H1   HT     0.417000        1.0080           0
   70800 WT4  5379 TIP3 H2   HT     0.417000        1.0080           0
   70801 WT4  5380 TIP3 OH2  OT    -0.834000       15.9994           0
   70802 WT4  5380 TIP3 H1   HT     0.417000        1.0080           0
   70803 WT4  5380 TIP3 H2   HT     0.417000        1.0080           0
   70804 WT4  5381 TIP3 OH2  OT    -0.834000       15.9994           0
   70805 WT4  5381 TIP3 H1   HT     0.417000        1.0080           0
   70806 WT4  5381 TIP3 H2   HT     0.417000        1.0080           0
   70807 WT4  5382 TIP3 OH2  OT    -0.834000       15.9994           0
   70808 WT4  5382 TIP3 H1   HT     0.417000        1.0080           0
   70809 WT4  5382 TIP3 H2   HT     0.417000        1.0080           0
   70810 WT4  5383 TIP3 OH2  OT    -0.834000       15.9994           0
   70811 WT4  5383 TIP3 H1   HT     0.417000        1.0080           0
   70812 WT4  5383 TIP3 H2   HT     0.417000        1.0080           0
   70813 WT4  5384 TIP3 OH2  OT    -0.834000       15.9994           0
   70814 WT4  5384 TIP3 H1   HT     0.417000        1.0080           0
   70815 WT4  5384 TIP3 H2   HT     0.417000        1.0080           0
   70816 WT4  5385 TIP3 OH2  OT    -0.834000       15.9994           0
   70817 WT4  5385 TIP3 H1   HT     0.417000        1.0080           0
   70818 WT4  5385 TIP3 H2   HT     0.417000        1.0080           0
   70819 WT4  5389 TIP3 OH2  OT    -0.834000       15.9994           0
   70820 WT4  5389 TIP3 H1   HT     0.417000        1.0080           0
   70821 WT4  5389 TIP3 H2   HT     0.417000        1.0080           0
   70822 WT4  5390 TIP3 OH2  OT    -0.834000       15.9994           0
   70823 WT4  5390 TIP3 H1   HT     0.417000        1.0080           0
   70824 WT4  5390 TIP3 H2   HT     0.417000        1.0080           0
   70825 WT4  5392 TIP3 OH2  OT    -0.834000       15.9994           0
   70826 WT4  5392 TIP3 H1   HT     0.417000        1.0080           0
   70827 WT4  5392 TIP3 H2   HT     0.417000        1.0080           0
   70828 WT4  5393 TIP3 OH2  OT    -0.834000       15.9994           0
   70829 WT4  5393 TIP3 H1   HT     0.417000        1.0080           0
   70830 WT4  5393 TIP3 H2   HT     0.417000        1.0080           0
   70831 WT4  5396 TIP3 OH2  OT    -0.834000       15.9994           0
   70832 WT4  5396 TIP3 H1   HT     0.417000        1.0080           0
   70833 WT4  5396 TIP3 H2   HT     0.417000        1.0080           0
   70834 WT4  5399 TIP3 OH2  OT    -0.834000       15.9994           0
   70835 WT4  5399 TIP3 H1   HT     0.417000        1.0080           0
   70836 WT4  5399 TIP3 H2   HT     0.417000        1.0080           0
   70837 WT4  5400 TIP3 OH2  OT    -0.834000       15.9994           0
   70838 WT4  5400 TIP3 H1   HT     0.417000        1.0080           0
   70839 WT4  5400 TIP3 H2   HT     0.417000        1.0080           0
   70840 WT4  5401 TIP3 OH2  OT    -0.834000       15.9994           0
   70841 WT4  5401 TIP3 H1   HT     0.417000        1.0080           0
   70842 WT4  5401 TIP3 H2   HT     0.417000        1.0080           0
   70843 WT4  5402 TIP3 OH2  OT    -0.834000       15.9994           0
   70844 WT4  5402 TIP3 H1   HT     0.417000        1.0080           0
   70845 WT4  5402 TIP3 H2   HT     0.417000        1.0080           0
   70846 WT4  5403 TIP3 OH2  OT    -0.834000       15.9994           0
   70847 WT4  5403 TIP3 H1   HT     0.417000        1.0080           0
   70848 WT4  5403 TIP3 H2   HT     0.417000        1.0080           0
   70849 WT4  5404 TIP3 OH2  OT    -0.834000       15.9994           0
   70850 WT4  5404 TIP3 H1   HT     0.417000        1.0080           0
   70851 WT4  5404 TIP3 H2   HT     0.417000        1.0080           0
   70852 WT4  5406 TIP3 OH2  OT    -0.834000       15.9994           0
   70853 WT4  5406 TIP3 H1   HT     0.417000        1.0080           0
   70854 WT4  5406 TIP3 H2   HT     0.417000        1.0080           0
   70855 WT4  5408 TIP3 OH2  OT    -0.834000       15.9994           0
   70856 WT4  5408 TIP3 H1   HT     0.417000        1.0080           0
   70857 WT4  5408 TIP3 H2   HT     0.417000        1.0080           0
   70858 WT4  5409 TIP3 OH2  OT    -0.834000       15.9994           0
   70859 WT4  5409 TIP3 H1   HT     0.417000        1.0080           0
   70860 WT4  5409 TIP3 H2   HT     0.417000        1.0080           0
   70861 WT4  5410 TIP3 OH2  OT    -0.834000       15.9994           0
   70862 WT4  5410 TIP3 H1   HT     0.417000        1.0080           0
   70863 WT4  5410 TIP3 H2   HT     0.417000        1.0080           0
   70864 WT4  5411 TIP3 OH2  OT    -0.834000       15.9994           0
   70865 WT4  5411 TIP3 H1   HT     0.417000        1.0080           0
   70866 WT4  5411 TIP3 H2   HT     0.417000        1.0080           0
   70867 WT4  5412 TIP3 OH2  OT    -0.834000       15.9994           0
   70868 WT4  5412 TIP3 H1   HT     0.417000        1.0080           0
   70869 WT4  5412 TIP3 H2   HT     0.417000        1.0080           0
   70870 WT4  5418 TIP3 OH2  OT    -0.834000       15.9994           0
   70871 WT4  5418 TIP3 H1   HT     0.417000        1.0080           0
   70872 WT4  5418 TIP3 H2   HT     0.417000        1.0080           0
   70873 WT4  5419 TIP3 OH2  OT    -0.834000       15.9994           0
   70874 WT4  5419 TIP3 H1   HT     0.417000        1.0080           0
   70875 WT4  5419 TIP3 H2   HT     0.417000        1.0080           0
   70876 WT4  5420 TIP3 OH2  OT    -0.834000       15.9994           0
   70877 WT4  5420 TIP3 H1   HT     0.417000        1.0080           0
   70878 WT4  5420 TIP3 H2   HT     0.417000        1.0080           0
   70879 WT4  5421 TIP3 OH2  OT    -0.834000       15.9994           0
   70880 WT4  5421 TIP3 H1   HT     0.417000        1.0080           0
   70881 WT4  5421 TIP3 H2   HT     0.417000        1.0080           0
   70882 WT4  5422 TIP3 OH2  OT    -0.834000       15.9994           0
   70883 WT4  5422 TIP3 H1   HT     0.417000        1.0080           0
   70884 WT4  5422 TIP3 H2   HT     0.417000        1.0080           0
   70885 WT4  5423 TIP3 OH2  OT    -0.834000       15.9994           0
   70886 WT4  5423 TIP3 H1   HT     0.417000        1.0080           0
   70887 WT4  5423 TIP3 H2   HT     0.417000        1.0080           0
   70888 WT4  5424 TIP3 OH2  OT    -0.834000       15.9994           0
   70889 WT4  5424 TIP3 H1   HT     0.417000        1.0080           0
   70890 WT4  5424 TIP3 H2   HT     0.417000        1.0080           0
   70891 WT4  5425 TIP3 OH2  OT    -0.834000       15.9994           0
   70892 WT4  5425 TIP3 H1   HT     0.417000        1.0080           0
   70893 WT4  5425 TIP3 H2   HT     0.417000        1.0080           0
   70894 WT4  5426 TIP3 OH2  OT    -0.834000       15.9994           0
   70895 WT4  5426 TIP3 H1   HT     0.417000        1.0080           0
   70896 WT4  5426 TIP3 H2   HT     0.417000        1.0080           0
   70897 WT4  5427 TIP3 OH2  OT    -0.834000       15.9994           0
   70898 WT4  5427 TIP3 H1   HT     0.417000        1.0080           0
   70899 WT4  5427 TIP3 H2   HT     0.417000        1.0080           0
   70900 WT4  5428 TIP3 OH2  OT    -0.834000       15.9994           0
   70901 WT4  5428 TIP3 H1   HT     0.417000        1.0080           0
   70902 WT4  5428 TIP3 H2   HT     0.417000        1.0080           0
   70903 WT4  5429 TIP3 OH2  OT    -0.834000       15.9994           0
   70904 WT4  5429 TIP3 H1   HT     0.417000        1.0080           0
   70905 WT4  5429 TIP3 H2   HT     0.417000        1.0080           0
   70906 WT4  5430 TIP3 OH2  OT    -0.834000       15.9994           0
   70907 WT4  5430 TIP3 H1   HT     0.417000        1.0080           0
   70908 WT4  5430 TIP3 H2   HT     0.417000        1.0080           0
   70909 WT4  5431 TIP3 OH2  OT    -0.834000       15.9994           0
   70910 WT4  5431 TIP3 H1   HT     0.417000        1.0080           0
   70911 WT4  5431 TIP3 H2   HT     0.417000        1.0080           0
   70912 WT4  5434 TIP3 OH2  OT    -0.834000       15.9994           0
   70913 WT4  5434 TIP3 H1   HT     0.417000        1.0080           0
   70914 WT4  5434 TIP3 H2   HT     0.417000        1.0080           0
   70915 WT4  5440 TIP3 OH2  OT    -0.834000       15.9994           0
   70916 WT4  5440 TIP3 H1   HT     0.417000        1.0080           0
   70917 WT4  5440 TIP3 H2   HT     0.417000        1.0080           0
   70918 WT4  5442 TIP3 OH2  OT    -0.834000       15.9994           0
   70919 WT4  5442 TIP3 H1   HT     0.417000        1.0080           0
   70920 WT4  5442 TIP3 H2   HT     0.417000        1.0080           0
   70921 WT4  5443 TIP3 OH2  OT    -0.834000       15.9994           0
   70922 WT4  5443 TIP3 H1   HT     0.417000        1.0080           0
   70923 WT4  5443 TIP3 H2   HT     0.417000        1.0080           0
   70924 WT4  5444 TIP3 OH2  OT    -0.834000       15.9994           0
   70925 WT4  5444 TIP3 H1   HT     0.417000        1.0080           0
   70926 WT4  5444 TIP3 H2   HT     0.417000        1.0080           0
   70927 WT4  5445 TIP3 OH2  OT    -0.834000       15.9994           0
   70928 WT4  5445 TIP3 H1   HT     0.417000        1.0080           0
   70929 WT4  5445 TIP3 H2   HT     0.417000        1.0080           0
   70930 WT4  5446 TIP3 OH2  OT    -0.834000       15.9994           0
   70931 WT4  5446 TIP3 H1   HT     0.417000        1.0080           0
   70932 WT4  5446 TIP3 H2   HT     0.417000        1.0080           0
   70933 WT4  5447 TIP3 OH2  OT    -0.834000       15.9994           0
   70934 WT4  5447 TIP3 H1   HT     0.417000        1.0080           0
   70935 WT4  5447 TIP3 H2   HT     0.417000        1.0080           0
   70936 WT4  5448 TIP3 OH2  OT    -0.834000       15.9994           0
   70937 WT4  5448 TIP3 H1   HT     0.417000        1.0080           0
   70938 WT4  5448 TIP3 H2   HT     0.417000        1.0080           0
   70939 WT4  5449 TIP3 OH2  OT    -0.834000       15.9994           0
   70940 WT4  5449 TIP3 H1   HT     0.417000        1.0080           0
   70941 WT4  5449 TIP3 H2   HT     0.417000        1.0080           0
   70942 WT4  5450 TIP3 OH2  OT    -0.834000       15.9994           0
   70943 WT4  5450 TIP3 H1   HT     0.417000        1.0080           0
   70944 WT4  5450 TIP3 H2   HT     0.417000        1.0080           0
   70945 WT4  5451 TIP3 OH2  OT    -0.834000       15.9994           0
   70946 WT4  5451 TIP3 H1   HT     0.417000        1.0080           0
   70947 WT4  5451 TIP3 H2   HT     0.417000        1.0080           0
   70948 WT4  5452 TIP3 OH2  OT    -0.834000       15.9994           0
   70949 WT4  5452 TIP3 H1   HT     0.417000        1.0080           0
   70950 WT4  5452 TIP3 H2   HT     0.417000        1.0080           0
   70951 WT4  5454 TIP3 OH2  OT    -0.834000       15.9994           0
   70952 WT4  5454 TIP3 H1   HT     0.417000        1.0080           0
   70953 WT4  5454 TIP3 H2   HT     0.417000        1.0080           0
   70954 WT4  5455 TIP3 OH2  OT    -0.834000       15.9994           0
   70955 WT4  5455 TIP3 H1   HT     0.417000        1.0080           0
   70956 WT4  5455 TIP3 H2   HT     0.417000        1.0080           0
   70957 WT4  5456 TIP3 OH2  OT    -0.834000       15.9994           0
   70958 WT4  5456 TIP3 H1   HT     0.417000        1.0080           0
   70959 WT4  5456 TIP3 H2   HT     0.417000        1.0080           0
   70960 WT4  5460 TIP3 OH2  OT    -0.834000       15.9994           0
   70961 WT4  5460 TIP3 H1   HT     0.417000        1.0080           0
   70962 WT4  5460 TIP3 H2   HT     0.417000        1.0080           0
   70963 WT4  5461 TIP3 OH2  OT    -0.834000       15.9994           0
   70964 WT4  5461 TIP3 H1   HT     0.417000        1.0080           0
   70965 WT4  5461 TIP3 H2   HT     0.417000        1.0080           0
   70966 WT4  5462 TIP3 OH2  OT    -0.834000       15.9994           0
   70967 WT4  5462 TIP3 H1   HT     0.417000        1.0080           0
   70968 WT4  5462 TIP3 H2   HT     0.417000        1.0080           0
   70969 WT4  5463 TIP3 OH2  OT    -0.834000       15.9994           0
   70970 WT4  5463 TIP3 H1   HT     0.417000        1.0080           0
   70971 WT4  5463 TIP3 H2   HT     0.417000        1.0080           0
   70972 WT4  5464 TIP3 OH2  OT    -0.834000       15.9994           0
   70973 WT4  5464 TIP3 H1   HT     0.417000        1.0080           0
   70974 WT4  5464 TIP3 H2   HT     0.417000        1.0080           0
   70975 WT4  5465 TIP3 OH2  OT    -0.834000       15.9994           0
   70976 WT4  5465 TIP3 H1   HT     0.417000        1.0080           0
   70977 WT4  5465 TIP3 H2   HT     0.417000        1.0080           0
   70978 WT4  5466 TIP3 OH2  OT    -0.834000       15.9994           0
   70979 WT4  5466 TIP3 H1   HT     0.417000        1.0080           0
   70980 WT4  5466 TIP3 H2   HT     0.417000        1.0080           0
   70981 WT4  5467 TIP3 OH2  OT    -0.834000       15.9994           0
   70982 WT4  5467 TIP3 H1   HT     0.417000        1.0080           0
   70983 WT4  5467 TIP3 H2   HT     0.417000        1.0080           0
   70984 WT4  5468 TIP3 OH2  OT    -0.834000       15.9994           0
   70985 WT4  5468 TIP3 H1   HT     0.417000        1.0080           0
   70986 WT4  5468 TIP3 H2   HT     0.417000        1.0080           0
   70987 WT4  5469 TIP3 OH2  OT    -0.834000       15.9994           0
   70988 WT4  5469 TIP3 H1   HT     0.417000        1.0080           0
   70989 WT4  5469 TIP3 H2   HT     0.417000        1.0080           0
   70990 WT4  5470 TIP3 OH2  OT    -0.834000       15.9994           0
   70991 WT4  5470 TIP3 H1   HT     0.417000        1.0080           0
   70992 WT4  5470 TIP3 H2   HT     0.417000        1.0080           0
   70993 WT4  5471 TIP3 OH2  OT    -0.834000       15.9994           0
   70994 WT4  5471 TIP3 H1   HT     0.417000        1.0080           0
   70995 WT4  5471 TIP3 H2   HT     0.417000        1.0080           0
   70996 WT4  5472 TIP3 OH2  OT    -0.834000       15.9994           0
   70997 WT4  5472 TIP3 H1   HT     0.417000        1.0080           0
   70998 WT4  5472 TIP3 H2   HT     0.417000        1.0080           0
   70999 WT4  5473 TIP3 OH2  OT    -0.834000       15.9994           0
   71000 WT4  5473 TIP3 H1   HT     0.417000        1.0080           0
   71001 WT4  5473 TIP3 H2   HT     0.417000        1.0080           0
   71002 WT4  5476 TIP3 OH2  OT    -0.834000       15.9994           0
   71003 WT4  5476 TIP3 H1   HT     0.417000        1.0080           0
   71004 WT4  5476 TIP3 H2   HT     0.417000        1.0080           0
   71005 WT4  5481 TIP3 OH2  OT    -0.834000       15.9994           0
   71006 WT4  5481 TIP3 H1   HT     0.417000        1.0080           0
   71007 WT4  5481 TIP3 H2   HT     0.417000        1.0080           0
   71008 WT4  5482 TIP3 OH2  OT    -0.834000       15.9994           0
   71009 WT4  5482 TIP3 H1   HT     0.417000        1.0080           0
   71010 WT4  5482 TIP3 H2   HT     0.417000        1.0080           0
   71011 WT4  5483 TIP3 OH2  OT    -0.834000       15.9994           0
   71012 WT4  5483 TIP3 H1   HT     0.417000        1.0080           0
   71013 WT4  5483 TIP3 H2   HT     0.417000        1.0080           0
   71014 WT4  5484 TIP3 OH2  OT    -0.834000       15.9994           0
   71015 WT4  5484 TIP3 H1   HT     0.417000        1.0080           0
   71016 WT4  5484 TIP3 H2   HT     0.417000        1.0080           0
   71017 WT4  5485 TIP3 OH2  OT    -0.834000       15.9994           0
   71018 WT4  5485 TIP3 H1   HT     0.417000        1.0080           0
   71019 WT4  5485 TIP3 H2   HT     0.417000        1.0080           0
   71020 WT4  5486 TIP3 OH2  OT    -0.834000       15.9994           0
   71021 WT4  5486 TIP3 H1   HT     0.417000        1.0080           0
   71022 WT4  5486 TIP3 H2   HT     0.417000        1.0080           0
   71023 WT4  5487 TIP3 OH2  OT    -0.834000       15.9994           0
   71024 WT4  5487 TIP3 H1   HT     0.417000        1.0080           0
   71025 WT4  5487 TIP3 H2   HT     0.417000        1.0080           0
   71026 WT4  5488 TIP3 OH2  OT    -0.834000       15.9994           0
   71027 WT4  5488 TIP3 H1   HT     0.417000        1.0080           0
   71028 WT4  5488 TIP3 H2   HT     0.417000        1.0080           0
   71029 WT4  5489 TIP3 OH2  OT    -0.834000       15.9994           0
   71030 WT4  5489 TIP3 H1   HT     0.417000        1.0080           0
   71031 WT4  5489 TIP3 H2   HT     0.417000        1.0080           0
   71032 WT4  5490 TIP3 OH2  OT    -0.834000       15.9994           0
   71033 WT4  5490 TIP3 H1   HT     0.417000        1.0080           0
   71034 WT4  5490 TIP3 H2   HT     0.417000        1.0080           0
   71035 WT4  5491 TIP3 OH2  OT    -0.834000       15.9994           0
   71036 WT4  5491 TIP3 H1   HT     0.417000        1.0080           0
   71037 WT4  5491 TIP3 H2   HT     0.417000        1.0080           0
   71038 WT4  5492 TIP3 OH2  OT    -0.834000       15.9994           0
   71039 WT4  5492 TIP3 H1   HT     0.417000        1.0080           0
   71040 WT4  5492 TIP3 H2   HT     0.417000        1.0080           0
   71041 WT4  5493 TIP3 OH2  OT    -0.834000       15.9994           0
   71042 WT4  5493 TIP3 H1   HT     0.417000        1.0080           0
   71043 WT4  5493 TIP3 H2   HT     0.417000        1.0080           0
   71044 WT4  5497 TIP3 OH2  OT    -0.834000       15.9994           0
   71045 WT4  5497 TIP3 H1   HT     0.417000        1.0080           0
   71046 WT4  5497 TIP3 H2   HT     0.417000        1.0080           0
   71047 WT4  5501 TIP3 OH2  OT    -0.834000       15.9994           0
   71048 WT4  5501 TIP3 H1   HT     0.417000        1.0080           0
   71049 WT4  5501 TIP3 H2   HT     0.417000        1.0080           0
   71050 WT4  5504 TIP3 OH2  OT    -0.834000       15.9994           0
   71051 WT4  5504 TIP3 H1   HT     0.417000        1.0080           0
   71052 WT4  5504 TIP3 H2   HT     0.417000        1.0080           0
   71053 WT4  5505 TIP3 OH2  OT    -0.834000       15.9994           0
   71054 WT4  5505 TIP3 H1   HT     0.417000        1.0080           0
   71055 WT4  5505 TIP3 H2   HT     0.417000        1.0080           0
   71056 WT4  5506 TIP3 OH2  OT    -0.834000       15.9994           0
   71057 WT4  5506 TIP3 H1   HT     0.417000        1.0080           0
   71058 WT4  5506 TIP3 H2   HT     0.417000        1.0080           0
   71059 WT4  5507 TIP3 OH2  OT    -0.834000       15.9994           0
   71060 WT4  5507 TIP3 H1   HT     0.417000        1.0080           0
   71061 WT4  5507 TIP3 H2   HT     0.417000        1.0080           0
   71062 WT4  5508 TIP3 OH2  OT    -0.834000       15.9994           0
   71063 WT4  5508 TIP3 H1   HT     0.417000        1.0080           0
   71064 WT4  5508 TIP3 H2   HT     0.417000        1.0080           0
   71065 WT4  5511 TIP3 OH2  OT    -0.834000       15.9994           0
   71066 WT4  5511 TIP3 H1   HT     0.417000        1.0080           0
   71067 WT4  5511 TIP3 H2   HT     0.417000        1.0080           0
   71068 WT4  5512 TIP3 OH2  OT    -0.834000       15.9994           0
   71069 WT4  5512 TIP3 H1   HT     0.417000        1.0080           0
   71070 WT4  5512 TIP3 H2   HT     0.417000        1.0080           0
   71071 WT4  5513 TIP3 OH2  OT    -0.834000       15.9994           0
   71072 WT4  5513 TIP3 H1   HT     0.417000        1.0080           0
   71073 WT4  5513 TIP3 H2   HT     0.417000        1.0080           0
   71074 WT4  5514 TIP3 OH2  OT    -0.834000       15.9994           0
   71075 WT4  5514 TIP3 H1   HT     0.417000        1.0080           0
   71076 WT4  5514 TIP3 H2   HT     0.417000        1.0080           0
   71077 WT4  5520 TIP3 OH2  OT    -0.834000       15.9994           0
   71078 WT4  5520 TIP3 H1   HT     0.417000        1.0080           0
   71079 WT4  5520 TIP3 H2   HT     0.417000        1.0080           0
   71080 WT4  5522 TIP3 OH2  OT    -0.834000       15.9994           0
   71081 WT4  5522 TIP3 H1   HT     0.417000        1.0080           0
   71082 WT4  5522 TIP3 H2   HT     0.417000        1.0080           0
   71083 WT4  5526 TIP3 OH2  OT    -0.834000       15.9994           0
   71084 WT4  5526 TIP3 H1   HT     0.417000        1.0080           0
   71085 WT4  5526 TIP3 H2   HT     0.417000        1.0080           0
   71086 WT4  5527 TIP3 OH2  OT    -0.834000       15.9994           0
   71087 WT4  5527 TIP3 H1   HT     0.417000        1.0080           0
   71088 WT4  5527 TIP3 H2   HT     0.417000        1.0080           0
   71089 WT4  5528 TIP3 OH2  OT    -0.834000       15.9994           0
   71090 WT4  5528 TIP3 H1   HT     0.417000        1.0080           0
   71091 WT4  5528 TIP3 H2   HT     0.417000        1.0080           0
   71092 WT4  5529 TIP3 OH2  OT    -0.834000       15.9994           0
   71093 WT4  5529 TIP3 H1   HT     0.417000        1.0080           0
   71094 WT4  5529 TIP3 H2   HT     0.417000        1.0080           0
   71095 WT4  5530 TIP3 OH2  OT    -0.834000       15.9994           0
   71096 WT4  5530 TIP3 H1   HT     0.417000        1.0080           0
   71097 WT4  5530 TIP3 H2   HT     0.417000        1.0080           0
   71098 WT4  5531 TIP3 OH2  OT    -0.834000       15.9994           0
   71099 WT4  5531 TIP3 H1   HT     0.417000        1.0080           0
   71100 WT4  5531 TIP3 H2   HT     0.417000        1.0080           0
   71101 WT4  5532 TIP3 OH2  OT    -0.834000       15.9994           0
   71102 WT4  5532 TIP3 H1   HT     0.417000        1.0080           0
   71103 WT4  5532 TIP3 H2   HT     0.417000        1.0080           0
   71104 WT4  5533 TIP3 OH2  OT    -0.834000       15.9994           0
   71105 WT4  5533 TIP3 H1   HT     0.417000        1.0080           0
   71106 WT4  5533 TIP3 H2   HT     0.417000        1.0080           0
   71107 WT4  5535 TIP3 OH2  OT    -0.834000       15.9994           0
   71108 WT4  5535 TIP3 H1   HT     0.417000        1.0080           0
   71109 WT4  5535 TIP3 H2   HT     0.417000        1.0080           0
   71110 WT4  5537 TIP3 OH2  OT    -0.834000       15.9994           0
   71111 WT4  5537 TIP3 H1   HT     0.417000        1.0080           0
   71112 WT4  5537 TIP3 H2   HT     0.417000        1.0080           0
   71113 WT4  5545 TIP3 OH2  OT    -0.834000       15.9994           0
   71114 WT4  5545 TIP3 H1   HT     0.417000        1.0080           0
   71115 WT4  5545 TIP3 H2   HT     0.417000        1.0080           0
   71116 WT4  5547 TIP3 OH2  OT    -0.834000       15.9994           0
   71117 WT4  5547 TIP3 H1   HT     0.417000        1.0080           0
   71118 WT4  5547 TIP3 H2   HT     0.417000        1.0080           0
   71119 WT4  5549 TIP3 OH2  OT    -0.834000       15.9994           0
   71120 WT4  5549 TIP3 H1   HT     0.417000        1.0080           0
   71121 WT4  5549 TIP3 H2   HT     0.417000        1.0080           0
   71122 WT4  5550 TIP3 OH2  OT    -0.834000       15.9994           0
   71123 WT4  5550 TIP3 H1   HT     0.417000        1.0080           0
   71124 WT4  5550 TIP3 H2   HT     0.417000        1.0080           0
   71125 WT4  5551 TIP3 OH2  OT    -0.834000       15.9994           0
   71126 WT4  5551 TIP3 H1   HT     0.417000        1.0080           0
   71127 WT4  5551 TIP3 H2   HT     0.417000        1.0080           0
   71128 WT4  5552 TIP3 OH2  OT    -0.834000       15.9994           0
   71129 WT4  5552 TIP3 H1   HT     0.417000        1.0080           0
   71130 WT4  5552 TIP3 H2   HT     0.417000        1.0080           0
   71131 WT4  5553 TIP3 OH2  OT    -0.834000       15.9994           0
   71132 WT4  5553 TIP3 H1   HT     0.417000        1.0080           0
   71133 WT4  5553 TIP3 H2   HT     0.417000        1.0080           0
   71134 WT4  5555 TIP3 OH2  OT    -0.834000       15.9994           0
   71135 WT4  5555 TIP3 H1   HT     0.417000        1.0080           0
   71136 WT4  5555 TIP3 H2   HT     0.417000        1.0080           0
   71137 WT4  5556 TIP3 OH2  OT    -0.834000       15.9994           0
   71138 WT4  5556 TIP3 H1   HT     0.417000        1.0080           0
   71139 WT4  5556 TIP3 H2   HT     0.417000        1.0080           0
   71140 WT4  5557 TIP3 OH2  OT    -0.834000       15.9994           0
   71141 WT4  5557 TIP3 H1   HT     0.417000        1.0080           0
   71142 WT4  5557 TIP3 H2   HT     0.417000        1.0080           0
   71143 WT4  5559 TIP3 OH2  OT    -0.834000       15.9994           0
   71144 WT4  5559 TIP3 H1   HT     0.417000        1.0080           0
   71145 WT4  5559 TIP3 H2   HT     0.417000        1.0080           0
   71146 WT4  5560 TIP3 OH2  OT    -0.834000       15.9994           0
   71147 WT4  5560 TIP3 H1   HT     0.417000        1.0080           0
   71148 WT4  5560 TIP3 H2   HT     0.417000        1.0080           0
   71149 WT4  5566 TIP3 OH2  OT    -0.834000       15.9994           0
   71150 WT4  5566 TIP3 H1   HT     0.417000        1.0080           0
   71151 WT4  5566 TIP3 H2   HT     0.417000        1.0080           0
   71152 WT4  5568 TIP3 OH2  OT    -0.834000       15.9994           0
   71153 WT4  5568 TIP3 H1   HT     0.417000        1.0080           0
   71154 WT4  5568 TIP3 H2   HT     0.417000        1.0080           0
   71155 WT4  5570 TIP3 OH2  OT    -0.834000       15.9994           0
   71156 WT4  5570 TIP3 H1   HT     0.417000        1.0080           0
   71157 WT4  5570 TIP3 H2   HT     0.417000        1.0080           0
   71158 WT4  5571 TIP3 OH2  OT    -0.834000       15.9994           0
   71159 WT4  5571 TIP3 H1   HT     0.417000        1.0080           0
   71160 WT4  5571 TIP3 H2   HT     0.417000        1.0080           0
   71161 WT4  5572 TIP3 OH2  OT    -0.834000       15.9994           0
   71162 WT4  5572 TIP3 H1   HT     0.417000        1.0080           0
   71163 WT4  5572 TIP3 H2   HT     0.417000        1.0080           0
   71164 WT4  5575 TIP3 OH2  OT    -0.834000       15.9994           0
   71165 WT4  5575 TIP3 H1   HT     0.417000        1.0080           0
   71166 WT4  5575 TIP3 H2   HT     0.417000        1.0080           0
   71167 WT4  5577 TIP3 OH2  OT    -0.834000       15.9994           0
   71168 WT4  5577 TIP3 H1   HT     0.417000        1.0080           0
   71169 WT4  5577 TIP3 H2   HT     0.417000        1.0080           0
   71170 WT4  5579 TIP3 OH2  OT    -0.834000       15.9994           0
   71171 WT4  5579 TIP3 H1   HT     0.417000        1.0080           0
   71172 WT4  5579 TIP3 H2   HT     0.417000        1.0080           0
   71173 WT4  5585 TIP3 OH2  OT    -0.834000       15.9994           0
   71174 WT4  5585 TIP3 H1   HT     0.417000        1.0080           0
   71175 WT4  5585 TIP3 H2   HT     0.417000        1.0080           0
   71176 WT4  5591 TIP3 OH2  OT    -0.834000       15.9994           0
   71177 WT4  5591 TIP3 H1   HT     0.417000        1.0080           0
   71178 WT4  5591 TIP3 H2   HT     0.417000        1.0080           0
   71179 WT4  5594 TIP3 OH2  OT    -0.834000       15.9994           0
   71180 WT4  5594 TIP3 H1   HT     0.417000        1.0080           0
   71181 WT4  5594 TIP3 H2   HT     0.417000        1.0080           0
   71182 WT4  5596 TIP3 OH2  OT    -0.834000       15.9994           0
   71183 WT4  5596 TIP3 H1   HT     0.417000        1.0080           0
   71184 WT4  5596 TIP3 H2   HT     0.417000        1.0080           0
   71185 WT4  5607 TIP3 OH2  OT    -0.834000       15.9994           0
   71186 WT4  5607 TIP3 H1   HT     0.417000        1.0080           0
   71187 WT4  5607 TIP3 H2   HT     0.417000        1.0080           0
   71188 WT4  5609 TIP3 OH2  OT    -0.834000       15.9994           0
   71189 WT4  5609 TIP3 H1   HT     0.417000        1.0080           0
   71190 WT4  5609 TIP3 H2   HT     0.417000        1.0080           0
   71191 WT4  5610 TIP3 OH2  OT    -0.834000       15.9994           0
   71192 WT4  5610 TIP3 H1   HT     0.417000        1.0080           0
   71193 WT4  5610 TIP3 H2   HT     0.417000        1.0080           0
   71194 WT4  5612 TIP3 OH2  OT    -0.834000       15.9994           0
   71195 WT4  5612 TIP3 H1   HT     0.417000        1.0080           0
   71196 WT4  5612 TIP3 H2   HT     0.417000        1.0080           0
   71197 WT4  5613 TIP3 OH2  OT    -0.834000       15.9994           0
   71198 WT4  5613 TIP3 H1   HT     0.417000        1.0080           0
   71199 WT4  5613 TIP3 H2   HT     0.417000        1.0080           0
   71200 WT4  5628 TIP3 OH2  OT    -0.834000       15.9994           0
   71201 WT4  5628 TIP3 H1   HT     0.417000        1.0080           0
   71202 WT4  5628 TIP3 H2   HT     0.417000        1.0080           0
   71203 WT4  5638 TIP3 OH2  OT    -0.834000       15.9994           0
   71204 WT4  5638 TIP3 H1   HT     0.417000        1.0080           0
   71205 WT4  5638 TIP3 H2   HT     0.417000        1.0080           0
   71206 WT4  5650 TIP3 OH2  OT    -0.834000       15.9994           0
   71207 WT4  5650 TIP3 H1   HT     0.417000        1.0080           0
   71208 WT4  5650 TIP3 H2   HT     0.417000        1.0080           0
   71209 WT4  5654 TIP3 OH2  OT    -0.834000       15.9994           0
   71210 WT4  5654 TIP3 H1   HT     0.417000        1.0080           0
   71211 WT4  5654 TIP3 H2   HT     0.417000        1.0080           0
   71212 WT4  5658 TIP3 OH2  OT    -0.834000       15.9994           0
   71213 WT4  5658 TIP3 H1   HT     0.417000        1.0080           0
   71214 WT4  5658 TIP3 H2   HT     0.417000        1.0080           0
   71215 WT4  5669 TIP3 OH2  OT    -0.834000       15.9994           0
   71216 WT4  5669 TIP3 H1   HT     0.417000        1.0080           0
   71217 WT4  5669 TIP3 H2   HT     0.417000        1.0080           0
   71218 WT4  5676 TIP3 OH2  OT    -0.834000       15.9994           0
   71219 WT4  5676 TIP3 H1   HT     0.417000        1.0080           0
   71220 WT4  5676 TIP3 H2   HT     0.417000        1.0080           0
   71221 WT4  5678 TIP3 OH2  OT    -0.834000       15.9994           0
   71222 WT4  5678 TIP3 H1   HT     0.417000        1.0080           0
   71223 WT4  5678 TIP3 H2   HT     0.417000        1.0080           0
   71224 WT4  5679 TIP3 OH2  OT    -0.834000       15.9994           0
   71225 WT4  5679 TIP3 H1   HT     0.417000        1.0080           0
   71226 WT4  5679 TIP3 H2   HT     0.417000        1.0080           0
   71227 WT4  5690 TIP3 OH2  OT    -0.834000       15.9994           0
   71228 WT4  5690 TIP3 H1   HT     0.417000        1.0080           0
   71229 WT4  5690 TIP3 H2   HT     0.417000        1.0080           0
   71230 WT4  5692 TIP3 OH2  OT    -0.834000       15.9994           0
   71231 WT4  5692 TIP3 H1   HT     0.417000        1.0080           0
   71232 WT4  5692 TIP3 H2   HT     0.417000        1.0080           0
   71233 WT4  5697 TIP3 OH2  OT    -0.834000       15.9994           0
   71234 WT4  5697 TIP3 H1   HT     0.417000        1.0080           0
   71235 WT4  5697 TIP3 H2   HT     0.417000        1.0080           0
   71236 WT4  5704 TIP3 OH2  OT    -0.834000       15.9994           0
   71237 WT4  5704 TIP3 H1   HT     0.417000        1.0080           0
   71238 WT4  5704 TIP3 H2   HT     0.417000        1.0080           0
   71239 WT4  5706 TIP3 OH2  OT    -0.834000       15.9994           0
   71240 WT4  5706 TIP3 H1   HT     0.417000        1.0080           0
   71241 WT4  5706 TIP3 H2   HT     0.417000        1.0080           0
   71242 WT4  5710 TIP3 OH2  OT    -0.834000       15.9994           0
   71243 WT4  5710 TIP3 H1   HT     0.417000        1.0080           0
   71244 WT4  5710 TIP3 H2   HT     0.417000        1.0080           0
   71245 WT4  5711 TIP3 OH2  OT    -0.834000       15.9994           0
   71246 WT4  5711 TIP3 H1   HT     0.417000        1.0080           0
   71247 WT4  5711 TIP3 H2   HT     0.417000        1.0080           0
   71248 WT4  5713 TIP3 OH2  OT    -0.834000       15.9994           0
   71249 WT4  5713 TIP3 H1   HT     0.417000        1.0080           0
   71250 WT4  5713 TIP3 H2   HT     0.417000        1.0080           0
   71251 WT4  5714 TIP3 OH2  OT    -0.834000       15.9994           0
   71252 WT4  5714 TIP3 H1   HT     0.417000        1.0080           0
   71253 WT4  5714 TIP3 H2   HT     0.417000        1.0080           0
   71254 WT4  5715 TIP3 OH2  OT    -0.834000       15.9994           0
   71255 WT4  5715 TIP3 H1   HT     0.417000        1.0080           0
   71256 WT4  5715 TIP3 H2   HT     0.417000        1.0080           0
   71257 WT4  5719 TIP3 OH2  OT    -0.834000       15.9994           0
   71258 WT4  5719 TIP3 H1   HT     0.417000        1.0080           0
   71259 WT4  5719 TIP3 H2   HT     0.417000        1.0080           0
   71260 WT4  5720 TIP3 OH2  OT    -0.834000       15.9994           0
   71261 WT4  5720 TIP3 H1   HT     0.417000        1.0080           0
   71262 WT4  5720 TIP3 H2   HT     0.417000        1.0080           0
   71263 WT4  5722 TIP3 OH2  OT    -0.834000       15.9994           0
   71264 WT4  5722 TIP3 H1   HT     0.417000        1.0080           0
   71265 WT4  5722 TIP3 H2   HT     0.417000        1.0080           0
   71266 WT4  5723 TIP3 OH2  OT    -0.834000       15.9994           0
   71267 WT4  5723 TIP3 H1   HT     0.417000        1.0080           0
   71268 WT4  5723 TIP3 H2   HT     0.417000        1.0080           0
   71269 WT4  5727 TIP3 OH2  OT    -0.834000       15.9994           0
   71270 WT4  5727 TIP3 H1   HT     0.417000        1.0080           0
   71271 WT4  5727 TIP3 H2   HT     0.417000        1.0080           0
   71272 WT4  5734 TIP3 OH2  OT    -0.834000       15.9994           0
   71273 WT4  5734 TIP3 H1   HT     0.417000        1.0080           0
   71274 WT4  5734 TIP3 H2   HT     0.417000        1.0080           0
   71275 WT4  5736 TIP3 OH2  OT    -0.834000       15.9994           0
   71276 WT4  5736 TIP3 H1   HT     0.417000        1.0080           0
   71277 WT4  5736 TIP3 H2   HT     0.417000        1.0080           0
   71278 WT4  5738 TIP3 OH2  OT    -0.834000       15.9994           0
   71279 WT4  5738 TIP3 H1   HT     0.417000        1.0080           0
   71280 WT4  5738 TIP3 H2   HT     0.417000        1.0080           0
   71281 WT4  5741 TIP3 OH2  OT    -0.834000       15.9994           0
   71282 WT4  5741 TIP3 H1   HT     0.417000        1.0080           0
   71283 WT4  5741 TIP3 H2   HT     0.417000        1.0080           0
   71284 WT4  5744 TIP3 OH2  OT    -0.834000       15.9994           0
   71285 WT4  5744 TIP3 H1   HT     0.417000        1.0080           0
   71286 WT4  5744 TIP3 H2   HT     0.417000        1.0080           0
   71287 WT4  5755 TIP3 OH2  OT    -0.834000       15.9994           0
   71288 WT4  5755 TIP3 H1   HT     0.417000        1.0080           0
   71289 WT4  5755 TIP3 H2   HT     0.417000        1.0080           0
   71290 WT4  5756 TIP3 OH2  OT    -0.834000       15.9994           0
   71291 WT4  5756 TIP3 H1   HT     0.417000        1.0080           0
   71292 WT4  5756 TIP3 H2   HT     0.417000        1.0080           0
   71293 WT4  5758 TIP3 OH2  OT    -0.834000       15.9994           0
   71294 WT4  5758 TIP3 H1   HT     0.417000        1.0080           0
   71295 WT4  5758 TIP3 H2   HT     0.417000        1.0080           0
   71296 WT4  5760 TIP3 OH2  OT    -0.834000       15.9994           0
   71297 WT4  5760 TIP3 H1   HT     0.417000        1.0080           0
   71298 WT4  5760 TIP3 H2   HT     0.417000        1.0080           0
   71299 WT4  5762 TIP3 OH2  OT    -0.834000       15.9994           0
   71300 WT4  5762 TIP3 H1   HT     0.417000        1.0080           0
   71301 WT4  5762 TIP3 H2   HT     0.417000        1.0080           0
   71302 WT4  5764 TIP3 OH2  OT    -0.834000       15.9994           0
   71303 WT4  5764 TIP3 H1   HT     0.417000        1.0080           0
   71304 WT4  5764 TIP3 H2   HT     0.417000        1.0080           0
   71305 WT4  5765 TIP3 OH2  OT    -0.834000       15.9994           0
   71306 WT4  5765 TIP3 H1   HT     0.417000        1.0080           0
   71307 WT4  5765 TIP3 H2   HT     0.417000        1.0080           0
   71308 WT4  5768 TIP3 OH2  OT    -0.834000       15.9994           0
   71309 WT4  5768 TIP3 H1   HT     0.417000        1.0080           0
   71310 WT4  5768 TIP3 H2   HT     0.417000        1.0080           0
   71311 WT4  5777 TIP3 OH2  OT    -0.834000       15.9994           0
   71312 WT4  5777 TIP3 H1   HT     0.417000        1.0080           0
   71313 WT4  5777 TIP3 H2   HT     0.417000        1.0080           0
   71314 WT4  5778 TIP3 OH2  OT    -0.834000       15.9994           0
   71315 WT4  5778 TIP3 H1   HT     0.417000        1.0080           0
   71316 WT4  5778 TIP3 H2   HT     0.417000        1.0080           0
   71317 WT4  5779 TIP3 OH2  OT    -0.834000       15.9994           0
   71318 WT4  5779 TIP3 H1   HT     0.417000        1.0080           0
   71319 WT4  5779 TIP3 H2   HT     0.417000        1.0080           0
   71320 WT4  5780 TIP3 OH2  OT    -0.834000       15.9994           0
   71321 WT4  5780 TIP3 H1   HT     0.417000        1.0080           0
   71322 WT4  5780 TIP3 H2   HT     0.417000        1.0080           0
   71323 WT4  5781 TIP3 OH2  OT    -0.834000       15.9994           0
   71324 WT4  5781 TIP3 H1   HT     0.417000        1.0080           0
   71325 WT4  5781 TIP3 H2   HT     0.417000        1.0080           0
   71326 WT4  5782 TIP3 OH2  OT    -0.834000       15.9994           0
   71327 WT4  5782 TIP3 H1   HT     0.417000        1.0080           0
   71328 WT4  5782 TIP3 H2   HT     0.417000        1.0080           0
   71329 WT4  5783 TIP3 OH2  OT    -0.834000       15.9994           0
   71330 WT4  5783 TIP3 H1   HT     0.417000        1.0080           0
   71331 WT4  5783 TIP3 H2   HT     0.417000        1.0080           0
   71332 WT4  5784 TIP3 OH2  OT    -0.834000       15.9994           0
   71333 WT4  5784 TIP3 H1   HT     0.417000        1.0080           0
   71334 WT4  5784 TIP3 H2   HT     0.417000        1.0080           0
   71335 WT4  5785 TIP3 OH2  OT    -0.834000       15.9994           0
   71336 WT4  5785 TIP3 H1   HT     0.417000        1.0080           0
   71337 WT4  5785 TIP3 H2   HT     0.417000        1.0080           0
   71338 WT4  5786 TIP3 OH2  OT    -0.834000       15.9994           0
   71339 WT4  5786 TIP3 H1   HT     0.417000        1.0080           0
   71340 WT4  5786 TIP3 H2   HT     0.417000        1.0080           0
   71341 WT4  5787 TIP3 OH2  OT    -0.834000       15.9994           0
   71342 WT4  5787 TIP3 H1   HT     0.417000        1.0080           0
   71343 WT4  5787 TIP3 H2   HT     0.417000        1.0080           0
   71344 WT4  5788 TIP3 OH2  OT    -0.834000       15.9994           0
   71345 WT4  5788 TIP3 H1   HT     0.417000        1.0080           0
   71346 WT4  5788 TIP3 H2   HT     0.417000        1.0080           0
   71347 WT4  5791 TIP3 OH2  OT    -0.834000       15.9994           0
   71348 WT4  5791 TIP3 H1   HT     0.417000        1.0080           0
   71349 WT4  5791 TIP3 H2   HT     0.417000        1.0080           0
   71350 WT4  5797 TIP3 OH2  OT    -0.834000       15.9994           0
   71351 WT4  5797 TIP3 H1   HT     0.417000        1.0080           0
   71352 WT4  5797 TIP3 H2   HT     0.417000        1.0080           0
   71353 WT4  5798 TIP3 OH2  OT    -0.834000       15.9994           0
   71354 WT4  5798 TIP3 H1   HT     0.417000        1.0080           0
   71355 WT4  5798 TIP3 H2   HT     0.417000        1.0080           0
   71356 WT4  5799 TIP3 OH2  OT    -0.834000       15.9994           0
   71357 WT4  5799 TIP3 H1   HT     0.417000        1.0080           0
   71358 WT4  5799 TIP3 H2   HT     0.417000        1.0080           0
   71359 WT4  5800 TIP3 OH2  OT    -0.834000       15.9994           0
   71360 WT4  5800 TIP3 H1   HT     0.417000        1.0080           0
   71361 WT4  5800 TIP3 H2   HT     0.417000        1.0080           0
   71362 WT4  5801 TIP3 OH2  OT    -0.834000       15.9994           0
   71363 WT4  5801 TIP3 H1   HT     0.417000        1.0080           0
   71364 WT4  5801 TIP3 H2   HT     0.417000        1.0080           0
   71365 WT4  5802 TIP3 OH2  OT    -0.834000       15.9994           0
   71366 WT4  5802 TIP3 H1   HT     0.417000        1.0080           0
   71367 WT4  5802 TIP3 H2   HT     0.417000        1.0080           0
   71368 WT4  5803 TIP3 OH2  OT    -0.834000       15.9994           0
   71369 WT4  5803 TIP3 H1   HT     0.417000        1.0080           0
   71370 WT4  5803 TIP3 H2   HT     0.417000        1.0080           0
   71371 WT4  5804 TIP3 OH2  OT    -0.834000       15.9994           0
   71372 WT4  5804 TIP3 H1   HT     0.417000        1.0080           0
   71373 WT4  5804 TIP3 H2   HT     0.417000        1.0080           0
   71374 WT4  5805 TIP3 OH2  OT    -0.834000       15.9994           0
   71375 WT4  5805 TIP3 H1   HT     0.417000        1.0080           0
   71376 WT4  5805 TIP3 H2   HT     0.417000        1.0080           0
   71377 WT4  5806 TIP3 OH2  OT    -0.834000       15.9994           0
   71378 WT4  5806 TIP3 H1   HT     0.417000        1.0080           0
   71379 WT4  5806 TIP3 H2   HT     0.417000        1.0080           0
   71380 WT4  5807 TIP3 OH2  OT    -0.834000       15.9994           0
   71381 WT4  5807 TIP3 H1   HT     0.417000        1.0080           0
   71382 WT4  5807 TIP3 H2   HT     0.417000        1.0080           0
   71383 WT4  5808 TIP3 OH2  OT    -0.834000       15.9994           0
   71384 WT4  5808 TIP3 H1   HT     0.417000        1.0080           0
   71385 WT4  5808 TIP3 H2   HT     0.417000        1.0080           0
   71386 WT4  5812 TIP3 OH2  OT    -0.834000       15.9994           0
   71387 WT4  5812 TIP3 H1   HT     0.417000        1.0080           0
   71388 WT4  5812 TIP3 H2   HT     0.417000        1.0080           0
   71389 WT4  5818 TIP3 OH2  OT    -0.834000       15.9994           0
   71390 WT4  5818 TIP3 H1   HT     0.417000        1.0080           0
   71391 WT4  5818 TIP3 H2   HT     0.417000        1.0080           0
   71392 WT4  5819 TIP3 OH2  OT    -0.834000       15.9994           0
   71393 WT4  5819 TIP3 H1   HT     0.417000        1.0080           0
   71394 WT4  5819 TIP3 H2   HT     0.417000        1.0080           0
   71395 WT4  5820 TIP3 OH2  OT    -0.834000       15.9994           0
   71396 WT4  5820 TIP3 H1   HT     0.417000        1.0080           0
   71397 WT4  5820 TIP3 H2   HT     0.417000        1.0080           0
   71398 WT4  5821 TIP3 OH2  OT    -0.834000       15.9994           0
   71399 WT4  5821 TIP3 H1   HT     0.417000        1.0080           0
   71400 WT4  5821 TIP3 H2   HT     0.417000        1.0080           0
   71401 WT4  5823 TIP3 OH2  OT    -0.834000       15.9994           0
   71402 WT4  5823 TIP3 H1   HT     0.417000        1.0080           0
   71403 WT4  5823 TIP3 H2   HT     0.417000        1.0080           0
   71404 WT4  5824 TIP3 OH2  OT    -0.834000       15.9994           0
   71405 WT4  5824 TIP3 H1   HT     0.417000        1.0080           0
   71406 WT4  5824 TIP3 H2   HT     0.417000        1.0080           0
   71407 WT4  5826 TIP3 OH2  OT    -0.834000       15.9994           0
   71408 WT4  5826 TIP3 H1   HT     0.417000        1.0080           0
   71409 WT4  5826 TIP3 H2   HT     0.417000        1.0080           0
   71410 WT4  5827 TIP3 OH2  OT    -0.834000       15.9994           0
   71411 WT4  5827 TIP3 H1   HT     0.417000        1.0080           0
   71412 WT4  5827 TIP3 H2   HT     0.417000        1.0080           0
   71413 WT4  5828 TIP3 OH2  OT    -0.834000       15.9994           0
   71414 WT4  5828 TIP3 H1   HT     0.417000        1.0080           0
   71415 WT4  5828 TIP3 H2   HT     0.417000        1.0080           0
   71416 WT4  5829 TIP3 OH2  OT    -0.834000       15.9994           0
   71417 WT4  5829 TIP3 H1   HT     0.417000        1.0080           0
   71418 WT4  5829 TIP3 H2   HT     0.417000        1.0080           0
   71419 WT4  5832 TIP3 OH2  OT    -0.834000       15.9994           0
   71420 WT4  5832 TIP3 H1   HT     0.417000        1.0080           0
   71421 WT4  5832 TIP3 H2   HT     0.417000        1.0080           0
   71422 WT4  5834 TIP3 OH2  OT    -0.834000       15.9994           0
   71423 WT4  5834 TIP3 H1   HT     0.417000        1.0080           0
   71424 WT4  5834 TIP3 H2   HT     0.417000        1.0080           0
   71425 WT4  5836 TIP3 OH2  OT    -0.834000       15.9994           0
   71426 WT4  5836 TIP3 H1   HT     0.417000        1.0080           0
   71427 WT4  5836 TIP3 H2   HT     0.417000        1.0080           0
   71428 WT4  5837 TIP3 OH2  OT    -0.834000       15.9994           0
   71429 WT4  5837 TIP3 H1   HT     0.417000        1.0080           0
   71430 WT4  5837 TIP3 H2   HT     0.417000        1.0080           0
   71431 WT4  5840 TIP3 OH2  OT    -0.834000       15.9994           0
   71432 WT4  5840 TIP3 H1   HT     0.417000        1.0080           0
   71433 WT4  5840 TIP3 H2   HT     0.417000        1.0080           0
   71434 WT4  5841 TIP3 OH2  OT    -0.834000       15.9994           0
   71435 WT4  5841 TIP3 H1   HT     0.417000        1.0080           0
   71436 WT4  5841 TIP3 H2   HT     0.417000        1.0080           0
   71437 WT4  5842 TIP3 OH2  OT    -0.834000       15.9994           0
   71438 WT4  5842 TIP3 H1   HT     0.417000        1.0080           0
   71439 WT4  5842 TIP3 H2   HT     0.417000        1.0080           0
   71440 WT4  5843 TIP3 OH2  OT    -0.834000       15.9994           0
   71441 WT4  5843 TIP3 H1   HT     0.417000        1.0080           0
   71442 WT4  5843 TIP3 H2   HT     0.417000        1.0080           0
   71443 WT4  5844 TIP3 OH2  OT    -0.834000       15.9994           0
   71444 WT4  5844 TIP3 H1   HT     0.417000        1.0080           0
   71445 WT4  5844 TIP3 H2   HT     0.417000        1.0080           0
   71446 WT4  5845 TIP3 OH2  OT    -0.834000       15.9994           0
   71447 WT4  5845 TIP3 H1   HT     0.417000        1.0080           0
   71448 WT4  5845 TIP3 H2   HT     0.417000        1.0080           0
   71449 WT4  5846 TIP3 OH2  OT    -0.834000       15.9994           0
   71450 WT4  5846 TIP3 H1   HT     0.417000        1.0080           0
   71451 WT4  5846 TIP3 H2   HT     0.417000        1.0080           0
   71452 WT4  5847 TIP3 OH2  OT    -0.834000       15.9994           0
   71453 WT4  5847 TIP3 H1   HT     0.417000        1.0080           0
   71454 WT4  5847 TIP3 H2   HT     0.417000        1.0080           0
   71455 WT4  5848 TIP3 OH2  OT    -0.834000       15.9994           0
   71456 WT4  5848 TIP3 H1   HT     0.417000        1.0080           0
   71457 WT4  5848 TIP3 H2   HT     0.417000        1.0080           0
   71458 WT4  5849 TIP3 OH2  OT    -0.834000       15.9994           0
   71459 WT4  5849 TIP3 H1   HT     0.417000        1.0080           0
   71460 WT4  5849 TIP3 H2   HT     0.417000        1.0080           0
   71461 WT4  5859 TIP3 OH2  OT    -0.834000       15.9994           0
   71462 WT4  5859 TIP3 H1   HT     0.417000        1.0080           0
   71463 WT4  5859 TIP3 H2   HT     0.417000        1.0080           0
   71464 WT4  5860 TIP3 OH2  OT    -0.834000       15.9994           0
   71465 WT4  5860 TIP3 H1   HT     0.417000        1.0080           0
   71466 WT4  5860 TIP3 H2   HT     0.417000        1.0080           0
   71467 WT4  5861 TIP3 OH2  OT    -0.834000       15.9994           0
   71468 WT4  5861 TIP3 H1   HT     0.417000        1.0080           0
   71469 WT4  5861 TIP3 H2   HT     0.417000        1.0080           0
   71470 WT4  5862 TIP3 OH2  OT    -0.834000       15.9994           0
   71471 WT4  5862 TIP3 H1   HT     0.417000        1.0080           0
   71472 WT4  5862 TIP3 H2   HT     0.417000        1.0080           0
   71473 WT4  5863 TIP3 OH2  OT    -0.834000       15.9994           0
   71474 WT4  5863 TIP3 H1   HT     0.417000        1.0080           0
   71475 WT4  5863 TIP3 H2   HT     0.417000        1.0080           0
   71476 WT4  5864 TIP3 OH2  OT    -0.834000       15.9994           0
   71477 WT4  5864 TIP3 H1   HT     0.417000        1.0080           0
   71478 WT4  5864 TIP3 H2   HT     0.417000        1.0080           0
   71479 WT4  5865 TIP3 OH2  OT    -0.834000       15.9994           0
   71480 WT4  5865 TIP3 H1   HT     0.417000        1.0080           0
   71481 WT4  5865 TIP3 H2   HT     0.417000        1.0080           0
   71482 WT4  5866 TIP3 OH2  OT    -0.834000       15.9994           0
   71483 WT4  5866 TIP3 H1   HT     0.417000        1.0080           0
   71484 WT4  5866 TIP3 H2   HT     0.417000        1.0080           0
   71485 WT4  5867 TIP3 OH2  OT    -0.834000       15.9994           0
   71486 WT4  5867 TIP3 H1   HT     0.417000        1.0080           0
   71487 WT4  5867 TIP3 H2   HT     0.417000        1.0080           0
   71488 WT4  5868 TIP3 OH2  OT    -0.834000       15.9994           0
   71489 WT4  5868 TIP3 H1   HT     0.417000        1.0080           0
   71490 WT4  5868 TIP3 H2   HT     0.417000        1.0080           0
   71491 WT4  5869 TIP3 OH2  OT    -0.834000       15.9994           0
   71492 WT4  5869 TIP3 H1   HT     0.417000        1.0080           0
   71493 WT4  5869 TIP3 H2   HT     0.417000        1.0080           0
   71494 WT4  5870 TIP3 OH2  OT    -0.834000       15.9994           0
   71495 WT4  5870 TIP3 H1   HT     0.417000        1.0080           0
   71496 WT4  5870 TIP3 H2   HT     0.417000        1.0080           0
   71497 WT4  5871 TIP3 OH2  OT    -0.834000       15.9994           0
   71498 WT4  5871 TIP3 H1   HT     0.417000        1.0080           0
   71499 WT4  5871 TIP3 H2   HT     0.417000        1.0080           0
   71500 WT4  5872 TIP3 OH2  OT    -0.834000       15.9994           0
   71501 WT4  5872 TIP3 H1   HT     0.417000        1.0080           0
   71502 WT4  5872 TIP3 H2   HT     0.417000        1.0080           0
   71503 WT4  5873 TIP3 OH2  OT    -0.834000       15.9994           0
   71504 WT4  5873 TIP3 H1   HT     0.417000        1.0080           0
   71505 WT4  5873 TIP3 H2   HT     0.417000        1.0080           0
   71506 WT4  5881 TIP3 OH2  OT    -0.834000       15.9994           0
   71507 WT4  5881 TIP3 H1   HT     0.417000        1.0080           0
   71508 WT4  5881 TIP3 H2   HT     0.417000        1.0080           0
   71509 WT4  5883 TIP3 OH2  OT    -0.834000       15.9994           0
   71510 WT4  5883 TIP3 H1   HT     0.417000        1.0080           0
   71511 WT4  5883 TIP3 H2   HT     0.417000        1.0080           0
   71512 WT4  5884 TIP3 OH2  OT    -0.834000       15.9994           0
   71513 WT4  5884 TIP3 H1   HT     0.417000        1.0080           0
   71514 WT4  5884 TIP3 H2   HT     0.417000        1.0080           0
   71515 WT4  5886 TIP3 OH2  OT    -0.834000       15.9994           0
   71516 WT4  5886 TIP3 H1   HT     0.417000        1.0080           0
   71517 WT4  5886 TIP3 H2   HT     0.417000        1.0080           0
   71518 WT4  5887 TIP3 OH2  OT    -0.834000       15.9994           0
   71519 WT4  5887 TIP3 H1   HT     0.417000        1.0080           0
   71520 WT4  5887 TIP3 H2   HT     0.417000        1.0080           0
   71521 WT4  5888 TIP3 OH2  OT    -0.834000       15.9994           0
   71522 WT4  5888 TIP3 H1   HT     0.417000        1.0080           0
   71523 WT4  5888 TIP3 H2   HT     0.417000        1.0080           0
   71524 WT4  5889 TIP3 OH2  OT    -0.834000       15.9994           0
   71525 WT4  5889 TIP3 H1   HT     0.417000        1.0080           0
   71526 WT4  5889 TIP3 H2   HT     0.417000        1.0080           0
   71527 WT4  5890 TIP3 OH2  OT    -0.834000       15.9994           0
   71528 WT4  5890 TIP3 H1   HT     0.417000        1.0080           0
   71529 WT4  5890 TIP3 H2   HT     0.417000        1.0080           0
   71530 WT4  5891 TIP3 OH2  OT    -0.834000       15.9994           0
   71531 WT4  5891 TIP3 H1   HT     0.417000        1.0080           0
   71532 WT4  5891 TIP3 H2   HT     0.417000        1.0080           0
   71533 WT4  5893 TIP3 OH2  OT    -0.834000       15.9994           0
   71534 WT4  5893 TIP3 H1   HT     0.417000        1.0080           0
   71535 WT4  5893 TIP3 H2   HT     0.417000        1.0080           0
   71536 WT4  5897 TIP3 OH2  OT    -0.834000       15.9994           0
   71537 WT4  5897 TIP3 H1   HT     0.417000        1.0080           0
   71538 WT4  5897 TIP3 H2   HT     0.417000        1.0080           0
   71539 WT4  5899 TIP3 OH2  OT    -0.834000       15.9994           0
   71540 WT4  5899 TIP3 H1   HT     0.417000        1.0080           0
   71541 WT4  5899 TIP3 H2   HT     0.417000        1.0080           0
   71542 WT4  5901 TIP3 OH2  OT    -0.834000       15.9994           0
   71543 WT4  5901 TIP3 H1   HT     0.417000        1.0080           0
   71544 WT4  5901 TIP3 H2   HT     0.417000        1.0080           0
   71545 WT4  5903 TIP3 OH2  OT    -0.834000       15.9994           0
   71546 WT4  5903 TIP3 H1   HT     0.417000        1.0080           0
   71547 WT4  5903 TIP3 H2   HT     0.417000        1.0080           0
   71548 WT4  5904 TIP3 OH2  OT    -0.834000       15.9994           0
   71549 WT4  5904 TIP3 H1   HT     0.417000        1.0080           0
   71550 WT4  5904 TIP3 H2   HT     0.417000        1.0080           0
   71551 WT4  5905 TIP3 OH2  OT    -0.834000       15.9994           0
   71552 WT4  5905 TIP3 H1   HT     0.417000        1.0080           0
   71553 WT4  5905 TIP3 H2   HT     0.417000        1.0080           0
   71554 WT4  5906 TIP3 OH2  OT    -0.834000       15.9994           0
   71555 WT4  5906 TIP3 H1   HT     0.417000        1.0080           0
   71556 WT4  5906 TIP3 H2   HT     0.417000        1.0080           0
   71557 WT4  5907 TIP3 OH2  OT    -0.834000       15.9994           0
   71558 WT4  5907 TIP3 H1   HT     0.417000        1.0080           0
   71559 WT4  5907 TIP3 H2   HT     0.417000        1.0080           0
   71560 WT4  5908 TIP3 OH2  OT    -0.834000       15.9994           0
   71561 WT4  5908 TIP3 H1   HT     0.417000        1.0080           0
   71562 WT4  5908 TIP3 H2   HT     0.417000        1.0080           0
   71563 WT4  5909 TIP3 OH2  OT    -0.834000       15.9994           0
   71564 WT4  5909 TIP3 H1   HT     0.417000        1.0080           0
   71565 WT4  5909 TIP3 H2   HT     0.417000        1.0080           0
   71566 WT4  5910 TIP3 OH2  OT    -0.834000       15.9994           0
   71567 WT4  5910 TIP3 H1   HT     0.417000        1.0080           0
   71568 WT4  5910 TIP3 H2   HT     0.417000        1.0080           0
   71569 WT4  5911 TIP3 OH2  OT    -0.834000       15.9994           0
   71570 WT4  5911 TIP3 H1   HT     0.417000        1.0080           0
   71571 WT4  5911 TIP3 H2   HT     0.417000        1.0080           0
   71572 WT4  5912 TIP3 OH2  OT    -0.834000       15.9994           0
   71573 WT4  5912 TIP3 H1   HT     0.417000        1.0080           0
   71574 WT4  5912 TIP3 H2   HT     0.417000        1.0080           0
   71575 WT4  5913 TIP3 OH2  OT    -0.834000       15.9994           0
   71576 WT4  5913 TIP3 H1   HT     0.417000        1.0080           0
   71577 WT4  5913 TIP3 H2   HT     0.417000        1.0080           0
   71578 WT4  5914 TIP3 OH2  OT    -0.834000       15.9994           0
   71579 WT4  5914 TIP3 H1   HT     0.417000        1.0080           0
   71580 WT4  5914 TIP3 H2   HT     0.417000        1.0080           0
   71581 WT4  5916 TIP3 OH2  OT    -0.834000       15.9994           0
   71582 WT4  5916 TIP3 H1   HT     0.417000        1.0080           0
   71583 WT4  5916 TIP3 H2   HT     0.417000        1.0080           0
   71584 WT4  5920 TIP3 OH2  OT    -0.834000       15.9994           0
   71585 WT4  5920 TIP3 H1   HT     0.417000        1.0080           0
   71586 WT4  5920 TIP3 H2   HT     0.417000        1.0080           0
   71587 WT4  5924 TIP3 OH2  OT    -0.834000       15.9994           0
   71588 WT4  5924 TIP3 H1   HT     0.417000        1.0080           0
   71589 WT4  5924 TIP3 H2   HT     0.417000        1.0080           0
   71590 WT4  5925 TIP3 OH2  OT    -0.834000       15.9994           0
   71591 WT4  5925 TIP3 H1   HT     0.417000        1.0080           0
   71592 WT4  5925 TIP3 H2   HT     0.417000        1.0080           0
   71593 WT4  5926 TIP3 OH2  OT    -0.834000       15.9994           0
   71594 WT4  5926 TIP3 H1   HT     0.417000        1.0080           0
   71595 WT4  5926 TIP3 H2   HT     0.417000        1.0080           0
   71596 WT4  5927 TIP3 OH2  OT    -0.834000       15.9994           0
   71597 WT4  5927 TIP3 H1   HT     0.417000        1.0080           0
   71598 WT4  5927 TIP3 H2   HT     0.417000        1.0080           0
   71599 WT4  5929 TIP3 OH2  OT    -0.834000       15.9994           0
   71600 WT4  5929 TIP3 H1   HT     0.417000        1.0080           0
   71601 WT4  5929 TIP3 H2   HT     0.417000        1.0080           0
   71602 WT4  5930 TIP3 OH2  OT    -0.834000       15.9994           0
   71603 WT4  5930 TIP3 H1   HT     0.417000        1.0080           0
   71604 WT4  5930 TIP3 H2   HT     0.417000        1.0080           0
   71605 WT4  5931 TIP3 OH2  OT    -0.834000       15.9994           0
   71606 WT4  5931 TIP3 H1   HT     0.417000        1.0080           0
   71607 WT4  5931 TIP3 H2   HT     0.417000        1.0080           0
   71608 WT4  5932 TIP3 OH2  OT    -0.834000       15.9994           0
   71609 WT4  5932 TIP3 H1   HT     0.417000        1.0080           0
   71610 WT4  5932 TIP3 H2   HT     0.417000        1.0080           0
   71611 WT4  5933 TIP3 OH2  OT    -0.834000       15.9994           0
   71612 WT4  5933 TIP3 H1   HT     0.417000        1.0080           0
   71613 WT4  5933 TIP3 H2   HT     0.417000        1.0080           0
   71614 WT4  5934 TIP3 OH2  OT    -0.834000       15.9994           0
   71615 WT4  5934 TIP3 H1   HT     0.417000        1.0080           0
   71616 WT4  5934 TIP3 H2   HT     0.417000        1.0080           0
   71617 WT4  5935 TIP3 OH2  OT    -0.834000       15.9994           0
   71618 WT4  5935 TIP3 H1   HT     0.417000        1.0080           0
   71619 WT4  5935 TIP3 H2   HT     0.417000        1.0080           0
   71620 WT4  5937 TIP3 OH2  OT    -0.834000       15.9994           0
   71621 WT4  5937 TIP3 H1   HT     0.417000        1.0080           0
   71622 WT4  5937 TIP3 H2   HT     0.417000        1.0080           0
   71623 WT4  5941 TIP3 OH2  OT    -0.834000       15.9994           0
   71624 WT4  5941 TIP3 H1   HT     0.417000        1.0080           0
   71625 WT4  5941 TIP3 H2   HT     0.417000        1.0080           0
   71626 WT4  5945 TIP3 OH2  OT    -0.834000       15.9994           0
   71627 WT4  5945 TIP3 H1   HT     0.417000        1.0080           0
   71628 WT4  5945 TIP3 H2   HT     0.417000        1.0080           0
   71629 WT4  5946 TIP3 OH2  OT    -0.834000       15.9994           0
   71630 WT4  5946 TIP3 H1   HT     0.417000        1.0080           0
   71631 WT4  5946 TIP3 H2   HT     0.417000        1.0080           0
   71632 WT4  5947 TIP3 OH2  OT    -0.834000       15.9994           0
   71633 WT4  5947 TIP3 H1   HT     0.417000        1.0080           0
   71634 WT4  5947 TIP3 H2   HT     0.417000        1.0080           0
   71635 WT4  5948 TIP3 OH2  OT    -0.834000       15.9994           0
   71636 WT4  5948 TIP3 H1   HT     0.417000        1.0080           0
   71637 WT4  5948 TIP3 H2   HT     0.417000        1.0080           0
   71638 WT4  5949 TIP3 OH2  OT    -0.834000       15.9994           0
   71639 WT4  5949 TIP3 H1   HT     0.417000        1.0080           0
   71640 WT4  5949 TIP3 H2   HT     0.417000        1.0080           0
   71641 WT4  5951 TIP3 OH2  OT    -0.834000       15.9994           0
   71642 WT4  5951 TIP3 H1   HT     0.417000        1.0080           0
   71643 WT4  5951 TIP3 H2   HT     0.417000        1.0080           0
   71644 WT4  5952 TIP3 OH2  OT    -0.834000       15.9994           0
   71645 WT4  5952 TIP3 H1   HT     0.417000        1.0080           0
   71646 WT4  5952 TIP3 H2   HT     0.417000        1.0080           0
   71647 WT4  5953 TIP3 OH2  OT    -0.834000       15.9994           0
   71648 WT4  5953 TIP3 H1   HT     0.417000        1.0080           0
   71649 WT4  5953 TIP3 H2   HT     0.417000        1.0080           0
   71650 WT4  5954 TIP3 OH2  OT    -0.834000       15.9994           0
   71651 WT4  5954 TIP3 H1   HT     0.417000        1.0080           0
   71652 WT4  5954 TIP3 H2   HT     0.417000        1.0080           0
   71653 WT4  5955 TIP3 OH2  OT    -0.834000       15.9994           0
   71654 WT4  5955 TIP3 H1   HT     0.417000        1.0080           0
   71655 WT4  5955 TIP3 H2   HT     0.417000        1.0080           0
   71656 WT4  5959 TIP3 OH2  OT    -0.834000       15.9994           0
   71657 WT4  5959 TIP3 H1   HT     0.417000        1.0080           0
   71658 WT4  5959 TIP3 H2   HT     0.417000        1.0080           0
   71659 WT4  5964 TIP3 OH2  OT    -0.834000       15.9994           0
   71660 WT4  5964 TIP3 H1   HT     0.417000        1.0080           0
   71661 WT4  5964 TIP3 H2   HT     0.417000        1.0080           0
   71662 WT4  5965 TIP3 OH2  OT    -0.834000       15.9994           0
   71663 WT4  5965 TIP3 H1   HT     0.417000        1.0080           0
   71664 WT4  5965 TIP3 H2   HT     0.417000        1.0080           0
   71665 WT4  5967 TIP3 OH2  OT    -0.834000       15.9994           0
   71666 WT4  5967 TIP3 H1   HT     0.417000        1.0080           0
   71667 WT4  5967 TIP3 H2   HT     0.417000        1.0080           0
   71668 WT4  5968 TIP3 OH2  OT    -0.834000       15.9994           0
   71669 WT4  5968 TIP3 H1   HT     0.417000        1.0080           0
   71670 WT4  5968 TIP3 H2   HT     0.417000        1.0080           0
   71671 WT4  5971 TIP3 OH2  OT    -0.834000       15.9994           0
   71672 WT4  5971 TIP3 H1   HT     0.417000        1.0080           0
   71673 WT4  5971 TIP3 H2   HT     0.417000        1.0080           0
   71674 WT4  5972 TIP3 OH2  OT    -0.834000       15.9994           0
   71675 WT4  5972 TIP3 H1   HT     0.417000        1.0080           0
   71676 WT4  5972 TIP3 H2   HT     0.417000        1.0080           0
   71677 WT4  5973 TIP3 OH2  OT    -0.834000       15.9994           0
   71678 WT4  5973 TIP3 H1   HT     0.417000        1.0080           0
   71679 WT4  5973 TIP3 H2   HT     0.417000        1.0080           0
   71680 WT4  5974 TIP3 OH2  OT    -0.834000       15.9994           0
   71681 WT4  5974 TIP3 H1   HT     0.417000        1.0080           0
   71682 WT4  5974 TIP3 H2   HT     0.417000        1.0080           0
   71683 WT4  5975 TIP3 OH2  OT    -0.834000       15.9994           0
   71684 WT4  5975 TIP3 H1   HT     0.417000        1.0080           0
   71685 WT4  5975 TIP3 H2   HT     0.417000        1.0080           0
   71686 WT4  5977 TIP3 OH2  OT    -0.834000       15.9994           0
   71687 WT4  5977 TIP3 H1   HT     0.417000        1.0080           0
   71688 WT4  5977 TIP3 H2   HT     0.417000        1.0080           0
   71689 WT4  5978 TIP3 OH2  OT    -0.834000       15.9994           0
   71690 WT4  5978 TIP3 H1   HT     0.417000        1.0080           0
   71691 WT4  5978 TIP3 H2   HT     0.417000        1.0080           0
   71692 WT4  5981 TIP3 OH2  OT    -0.834000       15.9994           0
   71693 WT4  5981 TIP3 H1   HT     0.417000        1.0080           0
   71694 WT4  5981 TIP3 H2   HT     0.417000        1.0080           0
   71695 WT4  5984 TIP3 OH2  OT    -0.834000       15.9994           0
   71696 WT4  5984 TIP3 H1   HT     0.417000        1.0080           0
   71697 WT4  5984 TIP3 H2   HT     0.417000        1.0080           0
   71698 WT4  5986 TIP3 OH2  OT    -0.834000       15.9994           0
   71699 WT4  5986 TIP3 H1   HT     0.417000        1.0080           0
   71700 WT4  5986 TIP3 H2   HT     0.417000        1.0080           0
   71701 WT4  5988 TIP3 OH2  OT    -0.834000       15.9994           0
   71702 WT4  5988 TIP3 H1   HT     0.417000        1.0080           0
   71703 WT4  5988 TIP3 H2   HT     0.417000        1.0080           0
   71704 WT4  5989 TIP3 OH2  OT    -0.834000       15.9994           0
   71705 WT4  5989 TIP3 H1   HT     0.417000        1.0080           0
   71706 WT4  5989 TIP3 H2   HT     0.417000        1.0080           0
   71707 WT4  5992 TIP3 OH2  OT    -0.834000       15.9994           0
   71708 WT4  5992 TIP3 H1   HT     0.417000        1.0080           0
   71709 WT4  5992 TIP3 H2   HT     0.417000        1.0080           0
   71710 WT4  5993 TIP3 OH2  OT    -0.834000       15.9994           0
   71711 WT4  5993 TIP3 H1   HT     0.417000        1.0080           0
   71712 WT4  5993 TIP3 H2   HT     0.417000        1.0080           0
   71713 WT4  5994 TIP3 OH2  OT    -0.834000       15.9994           0
   71714 WT4  5994 TIP3 H1   HT     0.417000        1.0080           0
   71715 WT4  5994 TIP3 H2   HT     0.417000        1.0080           0
   71716 WT4  5996 TIP3 OH2  OT    -0.834000       15.9994           0
   71717 WT4  5996 TIP3 H1   HT     0.417000        1.0080           0
   71718 WT4  5996 TIP3 H2   HT     0.417000        1.0080           0
   71719 WT4  5997 TIP3 OH2  OT    -0.834000       15.9994           0
   71720 WT4  5997 TIP3 H1   HT     0.417000        1.0080           0
   71721 WT4  5997 TIP3 H2   HT     0.417000        1.0080           0
   71722 WT4  6000 TIP3 OH2  OT    -0.834000       15.9994           0
   71723 WT4  6000 TIP3 H1   HT     0.417000        1.0080           0
   71724 WT4  6000 TIP3 H2   HT     0.417000        1.0080           0
   71725 WT4  6004 TIP3 OH2  OT    -0.834000       15.9994           0
   71726 WT4  6004 TIP3 H1   HT     0.417000        1.0080           0
   71727 WT4  6004 TIP3 H2   HT     0.417000        1.0080           0
   71728 WT4  6006 TIP3 OH2  OT    -0.834000       15.9994           0
   71729 WT4  6006 TIP3 H1   HT     0.417000        1.0080           0
   71730 WT4  6006 TIP3 H2   HT     0.417000        1.0080           0
   71731 WT4  6008 TIP3 OH2  OT    -0.834000       15.9994           0
   71732 WT4  6008 TIP3 H1   HT     0.417000        1.0080           0
   71733 WT4  6008 TIP3 H2   HT     0.417000        1.0080           0
   71734 WT4  6012 TIP3 OH2  OT    -0.834000       15.9994           0
   71735 WT4  6012 TIP3 H1   HT     0.417000        1.0080           0
   71736 WT4  6012 TIP3 H2   HT     0.417000        1.0080           0
   71737 WT4  6014 TIP3 OH2  OT    -0.834000       15.9994           0
   71738 WT4  6014 TIP3 H1   HT     0.417000        1.0080           0
   71739 WT4  6014 TIP3 H2   HT     0.417000        1.0080           0
   71740 WT4  6016 TIP3 OH2  OT    -0.834000       15.9994           0
   71741 WT4  6016 TIP3 H1   HT     0.417000        1.0080           0
   71742 WT4  6016 TIP3 H2   HT     0.417000        1.0080           0
   71743 WT4  6017 TIP3 OH2  OT    -0.834000       15.9994           0
   71744 WT4  6017 TIP3 H1   HT     0.417000        1.0080           0
   71745 WT4  6017 TIP3 H2   HT     0.417000        1.0080           0
   71746 WT4  6019 TIP3 OH2  OT    -0.834000       15.9994           0
   71747 WT4  6019 TIP3 H1   HT     0.417000        1.0080           0
   71748 WT4  6019 TIP3 H2   HT     0.417000        1.0080           0
   71749 WT4  6021 TIP3 OH2  OT    -0.834000       15.9994           0
   71750 WT4  6021 TIP3 H1   HT     0.417000        1.0080           0
   71751 WT4  6021 TIP3 H2   HT     0.417000        1.0080           0
   71752 WT4  6029 TIP3 OH2  OT    -0.834000       15.9994           0
   71753 WT4  6029 TIP3 H1   HT     0.417000        1.0080           0
   71754 WT4  6029 TIP3 H2   HT     0.417000        1.0080           0
   71755 WT4  6036 TIP3 OH2  OT    -0.834000       15.9994           0
   71756 WT4  6036 TIP3 H1   HT     0.417000        1.0080           0
   71757 WT4  6036 TIP3 H2   HT     0.417000        1.0080           0
   71758 WT4  6038 TIP3 OH2  OT    -0.834000       15.9994           0
   71759 WT4  6038 TIP3 H1   HT     0.417000        1.0080           0
   71760 WT4  6038 TIP3 H2   HT     0.417000        1.0080           0
   71761 WT4  6039 TIP3 OH2  OT    -0.834000       15.9994           0
   71762 WT4  6039 TIP3 H1   HT     0.417000        1.0080           0
   71763 WT4  6039 TIP3 H2   HT     0.417000        1.0080           0
   71764 WT4  6042 TIP3 OH2  OT    -0.834000       15.9994           0
   71765 WT4  6042 TIP3 H1   HT     0.417000        1.0080           0
   71766 WT4  6042 TIP3 H2   HT     0.417000        1.0080           0
   71767 WT4  6046 TIP3 OH2  OT    -0.834000       15.9994           0
   71768 WT4  6046 TIP3 H1   HT     0.417000        1.0080           0
   71769 WT4  6046 TIP3 H2   HT     0.417000        1.0080           0
   71770 WT4  6048 TIP3 OH2  OT    -0.834000       15.9994           0
   71771 WT4  6048 TIP3 H1   HT     0.417000        1.0080           0
   71772 WT4  6048 TIP3 H2   HT     0.417000        1.0080           0
   71773 WT4  6057 TIP3 OH2  OT    -0.834000       15.9994           0
   71774 WT4  6057 TIP3 H1   HT     0.417000        1.0080           0
   71775 WT4  6057 TIP3 H2   HT     0.417000        1.0080           0
   71776 WT4  6060 TIP3 OH2  OT    -0.834000       15.9994           0
   71777 WT4  6060 TIP3 H1   HT     0.417000        1.0080           0
   71778 WT4  6060 TIP3 H2   HT     0.417000        1.0080           0
   71779 WT4  6072 TIP3 OH2  OT    -0.834000       15.9994           0
   71780 WT4  6072 TIP3 H1   HT     0.417000        1.0080           0
   71781 WT4  6072 TIP3 H2   HT     0.417000        1.0080           0
   71782 WT4  6080 TIP3 OH2  OT    -0.834000       15.9994           0
   71783 WT4  6080 TIP3 H1   HT     0.417000        1.0080           0
   71784 WT4  6080 TIP3 H2   HT     0.417000        1.0080           0
   71785 WT4  6091 TIP3 OH2  OT    -0.834000       15.9994           0
   71786 WT4  6091 TIP3 H1   HT     0.417000        1.0080           0
   71787 WT4  6091 TIP3 H2   HT     0.417000        1.0080           0
   71788 WT4  6096 TIP3 OH2  OT    -0.834000       15.9994           0
   71789 WT4  6096 TIP3 H1   HT     0.417000        1.0080           0
   71790 WT4  6096 TIP3 H2   HT     0.417000        1.0080           0
   71791 WT4  6110 TIP3 OH2  OT    -0.834000       15.9994           0
   71792 WT4  6110 TIP3 H1   HT     0.417000        1.0080           0
   71793 WT4  6110 TIP3 H2   HT     0.417000        1.0080           0
   71794 WT4  6117 TIP3 OH2  OT    -0.834000       15.9994           0
   71795 WT4  6117 TIP3 H1   HT     0.417000        1.0080           0
   71796 WT4  6117 TIP3 H2   HT     0.417000        1.0080           0
   71797 WT4  6122 TIP3 OH2  OT    -0.834000       15.9994           0
   71798 WT4  6122 TIP3 H1   HT     0.417000        1.0080           0
   71799 WT4  6122 TIP3 H2   HT     0.417000        1.0080           0
   71800 WT4  6124 TIP3 OH2  OT    -0.834000       15.9994           0
   71801 WT4  6124 TIP3 H1   HT     0.417000        1.0080           0
   71802 WT4  6124 TIP3 H2   HT     0.417000        1.0080           0
   71803 WT4  6134 TIP3 OH2  OT    -0.834000       15.9994           0
   71804 WT4  6134 TIP3 H1   HT     0.417000        1.0080           0
   71805 WT4  6134 TIP3 H2   HT     0.417000        1.0080           0
   71806 WT4  6136 TIP3 OH2  OT    -0.834000       15.9994           0
   71807 WT4  6136 TIP3 H1   HT     0.417000        1.0080           0
   71808 WT4  6136 TIP3 H2   HT     0.417000        1.0080           0
   71809 WT4  6138 TIP3 OH2  OT    -0.834000       15.9994           0
   71810 WT4  6138 TIP3 H1   HT     0.417000        1.0080           0
   71811 WT4  6138 TIP3 H2   HT     0.417000        1.0080           0
   71812 WT4  6139 TIP3 OH2  OT    -0.834000       15.9994           0
   71813 WT4  6139 TIP3 H1   HT     0.417000        1.0080           0
   71814 WT4  6139 TIP3 H2   HT     0.417000        1.0080           0
   71815 WT4  6157 TIP3 OH2  OT    -0.834000       15.9994           0
   71816 WT4  6157 TIP3 H1   HT     0.417000        1.0080           0
   71817 WT4  6157 TIP3 H2   HT     0.417000        1.0080           0
   71818 WT4  6158 TIP3 OH2  OT    -0.834000       15.9994           0
   71819 WT4  6158 TIP3 H1   HT     0.417000        1.0080           0
   71820 WT4  6158 TIP3 H2   HT     0.417000        1.0080           0
   71821 WT4  6163 TIP3 OH2  OT    -0.834000       15.9994           0
   71822 WT4  6163 TIP3 H1   HT     0.417000        1.0080           0
   71823 WT4  6163 TIP3 H2   HT     0.417000        1.0080           0
   71824 WT4  6166 TIP3 OH2  OT    -0.834000       15.9994           0
   71825 WT4  6166 TIP3 H1   HT     0.417000        1.0080           0
   71826 WT4  6166 TIP3 H2   HT     0.417000        1.0080           0
   71827 WT4  6176 TIP3 OH2  OT    -0.834000       15.9994           0
   71828 WT4  6176 TIP3 H1   HT     0.417000        1.0080           0
   71829 WT4  6176 TIP3 H2   HT     0.417000        1.0080           0
   71830 WT4  6177 TIP3 OH2  OT    -0.834000       15.9994           0
   71831 WT4  6177 TIP3 H1   HT     0.417000        1.0080           0
   71832 WT4  6177 TIP3 H2   HT     0.417000        1.0080           0
   71833 WT4  6178 TIP3 OH2  OT    -0.834000       15.9994           0
   71834 WT4  6178 TIP3 H1   HT     0.417000        1.0080           0
   71835 WT4  6178 TIP3 H2   HT     0.417000        1.0080           0
   71836 WT4  6179 TIP3 OH2  OT    -0.834000       15.9994           0
   71837 WT4  6179 TIP3 H1   HT     0.417000        1.0080           0
   71838 WT4  6179 TIP3 H2   HT     0.417000        1.0080           0
   71839 WT4  6180 TIP3 OH2  OT    -0.834000       15.9994           0
   71840 WT4  6180 TIP3 H1   HT     0.417000        1.0080           0
   71841 WT4  6180 TIP3 H2   HT     0.417000        1.0080           0
   71842 WT4  6181 TIP3 OH2  OT    -0.834000       15.9994           0
   71843 WT4  6181 TIP3 H1   HT     0.417000        1.0080           0
   71844 WT4  6181 TIP3 H2   HT     0.417000        1.0080           0
   71845 WT4  6183 TIP3 OH2  OT    -0.834000       15.9994           0
   71846 WT4  6183 TIP3 H1   HT     0.417000        1.0080           0
   71847 WT4  6183 TIP3 H2   HT     0.417000        1.0080           0
   71848 WT4  6184 TIP3 OH2  OT    -0.834000       15.9994           0
   71849 WT4  6184 TIP3 H1   HT     0.417000        1.0080           0
   71850 WT4  6184 TIP3 H2   HT     0.417000        1.0080           0
   71851 WT4  6187 TIP3 OH2  OT    -0.834000       15.9994           0
   71852 WT4  6187 TIP3 H1   HT     0.417000        1.0080           0
   71853 WT4  6187 TIP3 H2   HT     0.417000        1.0080           0
   71854 WT4  6188 TIP3 OH2  OT    -0.834000       15.9994           0
   71855 WT4  6188 TIP3 H1   HT     0.417000        1.0080           0
   71856 WT4  6188 TIP3 H2   HT     0.417000        1.0080           0
   71857 WT4  6192 TIP3 OH2  OT    -0.834000       15.9994           0
   71858 WT4  6192 TIP3 H1   HT     0.417000        1.0080           0
   71859 WT4  6192 TIP3 H2   HT     0.417000        1.0080           0
   71860 WT4  6193 TIP3 OH2  OT    -0.834000       15.9994           0
   71861 WT4  6193 TIP3 H1   HT     0.417000        1.0080           0
   71862 WT4  6193 TIP3 H2   HT     0.417000        1.0080           0
   71863 WT4  6195 TIP3 OH2  OT    -0.834000       15.9994           0
   71864 WT4  6195 TIP3 H1   HT     0.417000        1.0080           0
   71865 WT4  6195 TIP3 H2   HT     0.417000        1.0080           0
   71866 WT4  6198 TIP3 OH2  OT    -0.834000       15.9994           0
   71867 WT4  6198 TIP3 H1   HT     0.417000        1.0080           0
   71868 WT4  6198 TIP3 H2   HT     0.417000        1.0080           0
   71869 WT4  6200 TIP3 OH2  OT    -0.834000       15.9994           0
   71870 WT4  6200 TIP3 H1   HT     0.417000        1.0080           0
   71871 WT4  6200 TIP3 H2   HT     0.417000        1.0080           0
   71872 WT4  6202 TIP3 OH2  OT    -0.834000       15.9994           0
   71873 WT4  6202 TIP3 H1   HT     0.417000        1.0080           0
   71874 WT4  6202 TIP3 H2   HT     0.417000        1.0080           0
   71875 WT4  6203 TIP3 OH2  OT    -0.834000       15.9994           0
   71876 WT4  6203 TIP3 H1   HT     0.417000        1.0080           0
   71877 WT4  6203 TIP3 H2   HT     0.417000        1.0080           0
   71878 WT4  6204 TIP3 OH2  OT    -0.834000       15.9994           0
   71879 WT4  6204 TIP3 H1   HT     0.417000        1.0080           0
   71880 WT4  6204 TIP3 H2   HT     0.417000        1.0080           0
   71881 WT4  6205 TIP3 OH2  OT    -0.834000       15.9994           0
   71882 WT4  6205 TIP3 H1   HT     0.417000        1.0080           0
   71883 WT4  6205 TIP3 H2   HT     0.417000        1.0080           0
   71884 WT4  6207 TIP3 OH2  OT    -0.834000       15.9994           0
   71885 WT4  6207 TIP3 H1   HT     0.417000        1.0080           0
   71886 WT4  6207 TIP3 H2   HT     0.417000        1.0080           0
   71887 WT4  6208 TIP3 OH2  OT    -0.834000       15.9994           0
   71888 WT4  6208 TIP3 H1   HT     0.417000        1.0080           0
   71889 WT4  6208 TIP3 H2   HT     0.417000        1.0080           0
   71890 WT4  6212 TIP3 OH2  OT    -0.834000       15.9994           0
   71891 WT4  6212 TIP3 H1   HT     0.417000        1.0080           0
   71892 WT4  6212 TIP3 H2   HT     0.417000        1.0080           0
   71893 WT4  6215 TIP3 OH2  OT    -0.834000       15.9994           0
   71894 WT4  6215 TIP3 H1   HT     0.417000        1.0080           0
   71895 WT4  6215 TIP3 H2   HT     0.417000        1.0080           0
   71896 WT4  6216 TIP3 OH2  OT    -0.834000       15.9994           0
   71897 WT4  6216 TIP3 H1   HT     0.417000        1.0080           0
   71898 WT4  6216 TIP3 H2   HT     0.417000        1.0080           0
   71899 WT4  6218 TIP3 OH2  OT    -0.834000       15.9994           0
   71900 WT4  6218 TIP3 H1   HT     0.417000        1.0080           0
   71901 WT4  6218 TIP3 H2   HT     0.417000        1.0080           0
   71902 WT4  6219 TIP3 OH2  OT    -0.834000       15.9994           0
   71903 WT4  6219 TIP3 H1   HT     0.417000        1.0080           0
   71904 WT4  6219 TIP3 H2   HT     0.417000        1.0080           0
   71905 WT4  6220 TIP3 OH2  OT    -0.834000       15.9994           0
   71906 WT4  6220 TIP3 H1   HT     0.417000        1.0080           0
   71907 WT4  6220 TIP3 H2   HT     0.417000        1.0080           0
   71908 WT4  6221 TIP3 OH2  OT    -0.834000       15.9994           0
   71909 WT4  6221 TIP3 H1   HT     0.417000        1.0080           0
   71910 WT4  6221 TIP3 H2   HT     0.417000        1.0080           0
   71911 WT4  6224 TIP3 OH2  OT    -0.834000       15.9994           0
   71912 WT4  6224 TIP3 H1   HT     0.417000        1.0080           0
   71913 WT4  6224 TIP3 H2   HT     0.417000        1.0080           0
   71914 WT4  6225 TIP3 OH2  OT    -0.834000       15.9994           0
   71915 WT4  6225 TIP3 H1   HT     0.417000        1.0080           0
   71916 WT4  6225 TIP3 H2   HT     0.417000        1.0080           0
   71917 WT4  6227 TIP3 OH2  OT    -0.834000       15.9994           0
   71918 WT4  6227 TIP3 H1   HT     0.417000        1.0080           0
   71919 WT4  6227 TIP3 H2   HT     0.417000        1.0080           0
   71920 WT4  6228 TIP3 OH2  OT    -0.834000       15.9994           0
   71921 WT4  6228 TIP3 H1   HT     0.417000        1.0080           0
   71922 WT4  6228 TIP3 H2   HT     0.417000        1.0080           0
   71923 WT4  6229 TIP3 OH2  OT    -0.834000       15.9994           0
   71924 WT4  6229 TIP3 H1   HT     0.417000        1.0080           0
   71925 WT4  6229 TIP3 H2   HT     0.417000        1.0080           0
   71926 WT4  6230 TIP3 OH2  OT    -0.834000       15.9994           0
   71927 WT4  6230 TIP3 H1   HT     0.417000        1.0080           0
   71928 WT4  6230 TIP3 H2   HT     0.417000        1.0080           0
   71929 WT4  6231 TIP3 OH2  OT    -0.834000       15.9994           0
   71930 WT4  6231 TIP3 H1   HT     0.417000        1.0080           0
   71931 WT4  6231 TIP3 H2   HT     0.417000        1.0080           0
   71932 WT4  6233 TIP3 OH2  OT    -0.834000       15.9994           0
   71933 WT4  6233 TIP3 H1   HT     0.417000        1.0080           0
   71934 WT4  6233 TIP3 H2   HT     0.417000        1.0080           0
   71935 WT4  6238 TIP3 OH2  OT    -0.834000       15.9994           0
   71936 WT4  6238 TIP3 H1   HT     0.417000        1.0080           0
   71937 WT4  6238 TIP3 H2   HT     0.417000        1.0080           0
   71938 WT4  6240 TIP3 OH2  OT    -0.834000       15.9994           0
   71939 WT4  6240 TIP3 H1   HT     0.417000        1.0080           0
   71940 WT4  6240 TIP3 H2   HT     0.417000        1.0080           0
   71941 WT4  6241 TIP3 OH2  OT    -0.834000       15.9994           0
   71942 WT4  6241 TIP3 H1   HT     0.417000        1.0080           0
   71943 WT4  6241 TIP3 H2   HT     0.417000        1.0080           0
   71944 WT4  6242 TIP3 OH2  OT    -0.834000       15.9994           0
   71945 WT4  6242 TIP3 H1   HT     0.417000        1.0080           0
   71946 WT4  6242 TIP3 H2   HT     0.417000        1.0080           0
   71947 WT4  6243 TIP3 OH2  OT    -0.834000       15.9994           0
   71948 WT4  6243 TIP3 H1   HT     0.417000        1.0080           0
   71949 WT4  6243 TIP3 H2   HT     0.417000        1.0080           0
   71950 WT4  6245 TIP3 OH2  OT    -0.834000       15.9994           0
   71951 WT4  6245 TIP3 H1   HT     0.417000        1.0080           0
   71952 WT4  6245 TIP3 H2   HT     0.417000        1.0080           0
   71953 WT4  6246 TIP3 OH2  OT    -0.834000       15.9994           0
   71954 WT4  6246 TIP3 H1   HT     0.417000        1.0080           0
   71955 WT4  6246 TIP3 H2   HT     0.417000        1.0080           0
   71956 WT4  6247 TIP3 OH2  OT    -0.834000       15.9994           0
   71957 WT4  6247 TIP3 H1   HT     0.417000        1.0080           0
   71958 WT4  6247 TIP3 H2   HT     0.417000        1.0080           0
   71959 WT4  6248 TIP3 OH2  OT    -0.834000       15.9994           0
   71960 WT4  6248 TIP3 H1   HT     0.417000        1.0080           0
   71961 WT4  6248 TIP3 H2   HT     0.417000        1.0080           0
   71962 WT4  6249 TIP3 OH2  OT    -0.834000       15.9994           0
   71963 WT4  6249 TIP3 H1   HT     0.417000        1.0080           0
   71964 WT4  6249 TIP3 H2   HT     0.417000        1.0080           0
   71965 WT4  6250 TIP3 OH2  OT    -0.834000       15.9994           0
   71966 WT4  6250 TIP3 H1   HT     0.417000        1.0080           0
   71967 WT4  6250 TIP3 H2   HT     0.417000        1.0080           0
   71968 WT4  6252 TIP3 OH2  OT    -0.834000       15.9994           0
   71969 WT4  6252 TIP3 H1   HT     0.417000        1.0080           0
   71970 WT4  6252 TIP3 H2   HT     0.417000        1.0080           0
   71971 WT4  6256 TIP3 OH2  OT    -0.834000       15.9994           0
   71972 WT4  6256 TIP3 H1   HT     0.417000        1.0080           0
   71973 WT4  6256 TIP3 H2   HT     0.417000        1.0080           0
   71974 WT4  6258 TIP3 OH2  OT    -0.834000       15.9994           0
   71975 WT4  6258 TIP3 H1   HT     0.417000        1.0080           0
   71976 WT4  6258 TIP3 H2   HT     0.417000        1.0080           0
   71977 WT4  6259 TIP3 OH2  OT    -0.834000       15.9994           0
   71978 WT4  6259 TIP3 H1   HT     0.417000        1.0080           0
   71979 WT4  6259 TIP3 H2   HT     0.417000        1.0080           0
   71980 WT4  6261 TIP3 OH2  OT    -0.834000       15.9994           0
   71981 WT4  6261 TIP3 H1   HT     0.417000        1.0080           0
   71982 WT4  6261 TIP3 H2   HT     0.417000        1.0080           0
   71983 WT4  6262 TIP3 OH2  OT    -0.834000       15.9994           0
   71984 WT4  6262 TIP3 H1   HT     0.417000        1.0080           0
   71985 WT4  6262 TIP3 H2   HT     0.417000        1.0080           0
   71986 WT4  6263 TIP3 OH2  OT    -0.834000       15.9994           0
   71987 WT4  6263 TIP3 H1   HT     0.417000        1.0080           0
   71988 WT4  6263 TIP3 H2   HT     0.417000        1.0080           0
   71989 WT4  6264 TIP3 OH2  OT    -0.834000       15.9994           0
   71990 WT4  6264 TIP3 H1   HT     0.417000        1.0080           0
   71991 WT4  6264 TIP3 H2   HT     0.417000        1.0080           0
   71992 WT4  6265 TIP3 OH2  OT    -0.834000       15.9994           0
   71993 WT4  6265 TIP3 H1   HT     0.417000        1.0080           0
   71994 WT4  6265 TIP3 H2   HT     0.417000        1.0080           0
   71995 WT4  6266 TIP3 OH2  OT    -0.834000       15.9994           0
   71996 WT4  6266 TIP3 H1   HT     0.417000        1.0080           0
   71997 WT4  6266 TIP3 H2   HT     0.417000        1.0080           0
   71998 WT4  6267 TIP3 OH2  OT    -0.834000       15.9994           0
   71999 WT4  6267 TIP3 H1   HT     0.417000        1.0080           0
   72000 WT4  6267 TIP3 H2   HT     0.417000        1.0080           0
   72001 WT4  6268 TIP3 OH2  OT    -0.834000       15.9994           0
   72002 WT4  6268 TIP3 H1   HT     0.417000        1.0080           0
   72003 WT4  6268 TIP3 H2   HT     0.417000        1.0080           0
   72004 WT4  6269 TIP3 OH2  OT    -0.834000       15.9994           0
   72005 WT4  6269 TIP3 H1   HT     0.417000        1.0080           0
   72006 WT4  6269 TIP3 H2   HT     0.417000        1.0080           0
   72007 WT4  6270 TIP3 OH2  OT    -0.834000       15.9994           0
   72008 WT4  6270 TIP3 H1   HT     0.417000        1.0080           0
   72009 WT4  6270 TIP3 H2   HT     0.417000        1.0080           0
   72010 WT4  6273 TIP3 OH2  OT    -0.834000       15.9994           0
   72011 WT4  6273 TIP3 H1   HT     0.417000        1.0080           0
   72012 WT4  6273 TIP3 H2   HT     0.417000        1.0080           0
   72013 WT4  6274 TIP3 OH2  OT    -0.834000       15.9994           0
   72014 WT4  6274 TIP3 H1   HT     0.417000        1.0080           0
   72015 WT4  6274 TIP3 H2   HT     0.417000        1.0080           0
   72016 WT4  6281 TIP3 OH2  OT    -0.834000       15.9994           0
   72017 WT4  6281 TIP3 H1   HT     0.417000        1.0080           0
   72018 WT4  6281 TIP3 H2   HT     0.417000        1.0080           0
   72019 WT4  6283 TIP3 OH2  OT    -0.834000       15.9994           0
   72020 WT4  6283 TIP3 H1   HT     0.417000        1.0080           0
   72021 WT4  6283 TIP3 H2   HT     0.417000        1.0080           0
   72022 WT4  6284 TIP3 OH2  OT    -0.834000       15.9994           0
   72023 WT4  6284 TIP3 H1   HT     0.417000        1.0080           0
   72024 WT4  6284 TIP3 H2   HT     0.417000        1.0080           0
   72025 WT4  6285 TIP3 OH2  OT    -0.834000       15.9994           0
   72026 WT4  6285 TIP3 H1   HT     0.417000        1.0080           0
   72027 WT4  6285 TIP3 H2   HT     0.417000        1.0080           0
   72028 WT4  6286 TIP3 OH2  OT    -0.834000       15.9994           0
   72029 WT4  6286 TIP3 H1   HT     0.417000        1.0080           0
   72030 WT4  6286 TIP3 H2   HT     0.417000        1.0080           0
   72031 WT4  6287 TIP3 OH2  OT    -0.834000       15.9994           0
   72032 WT4  6287 TIP3 H1   HT     0.417000        1.0080           0
   72033 WT4  6287 TIP3 H2   HT     0.417000        1.0080           0
   72034 WT4  6288 TIP3 OH2  OT    -0.834000       15.9994           0
   72035 WT4  6288 TIP3 H1   HT     0.417000        1.0080           0
   72036 WT4  6288 TIP3 H2   HT     0.417000        1.0080           0
   72037 WT4  6289 TIP3 OH2  OT    -0.834000       15.9994           0
   72038 WT4  6289 TIP3 H1   HT     0.417000        1.0080           0
   72039 WT4  6289 TIP3 H2   HT     0.417000        1.0080           0
   72040 WT4  6290 TIP3 OH2  OT    -0.834000       15.9994           0
   72041 WT4  6290 TIP3 H1   HT     0.417000        1.0080           0
   72042 WT4  6290 TIP3 H2   HT     0.417000        1.0080           0
   72043 WT4  6291 TIP3 OH2  OT    -0.834000       15.9994           0
   72044 WT4  6291 TIP3 H1   HT     0.417000        1.0080           0
   72045 WT4  6291 TIP3 H2   HT     0.417000        1.0080           0
   72046 WT4  6293 TIP3 OH2  OT    -0.834000       15.9994           0
   72047 WT4  6293 TIP3 H1   HT     0.417000        1.0080           0
   72048 WT4  6293 TIP3 H2   HT     0.417000        1.0080           0
   72049 WT4  6297 TIP3 OH2  OT    -0.834000       15.9994           0
   72050 WT4  6297 TIP3 H1   HT     0.417000        1.0080           0
   72051 WT4  6297 TIP3 H2   HT     0.417000        1.0080           0
   72052 WT4  6300 TIP3 OH2  OT    -0.834000       15.9994           0
   72053 WT4  6300 TIP3 H1   HT     0.417000        1.0080           0
   72054 WT4  6300 TIP3 H2   HT     0.417000        1.0080           0
   72055 WT4  6302 TIP3 OH2  OT    -0.834000       15.9994           0
   72056 WT4  6302 TIP3 H1   HT     0.417000        1.0080           0
   72057 WT4  6302 TIP3 H2   HT     0.417000        1.0080           0
   72058 WT4  6303 TIP3 OH2  OT    -0.834000       15.9994           0
   72059 WT4  6303 TIP3 H1   HT     0.417000        1.0080           0
   72060 WT4  6303 TIP3 H2   HT     0.417000        1.0080           0
   72061 WT4  6304 TIP3 OH2  OT    -0.834000       15.9994           0
   72062 WT4  6304 TIP3 H1   HT     0.417000        1.0080           0
   72063 WT4  6304 TIP3 H2   HT     0.417000        1.0080           0
   72064 WT4  6305 TIP3 OH2  OT    -0.834000       15.9994           0
   72065 WT4  6305 TIP3 H1   HT     0.417000        1.0080           0
   72066 WT4  6305 TIP3 H2   HT     0.417000        1.0080           0
   72067 WT4  6306 TIP3 OH2  OT    -0.834000       15.9994           0
   72068 WT4  6306 TIP3 H1   HT     0.417000        1.0080           0
   72069 WT4  6306 TIP3 H2   HT     0.417000        1.0080           0
   72070 WT4  6307 TIP3 OH2  OT    -0.834000       15.9994           0
   72071 WT4  6307 TIP3 H1   HT     0.417000        1.0080           0
   72072 WT4  6307 TIP3 H2   HT     0.417000        1.0080           0
   72073 WT4  6308 TIP3 OH2  OT    -0.834000       15.9994           0
   72074 WT4  6308 TIP3 H1   HT     0.417000        1.0080           0
   72075 WT4  6308 TIP3 H2   HT     0.417000        1.0080           0
   72076 WT4  6309 TIP3 OH2  OT    -0.834000       15.9994           0
   72077 WT4  6309 TIP3 H1   HT     0.417000        1.0080           0
   72078 WT4  6309 TIP3 H2   HT     0.417000        1.0080           0
   72079 WT4  6310 TIP3 OH2  OT    -0.834000       15.9994           0
   72080 WT4  6310 TIP3 H1   HT     0.417000        1.0080           0
   72081 WT4  6310 TIP3 H2   HT     0.417000        1.0080           0
   72082 WT4  6311 TIP3 OH2  OT    -0.834000       15.9994           0
   72083 WT4  6311 TIP3 H1   HT     0.417000        1.0080           0
   72084 WT4  6311 TIP3 H2   HT     0.417000        1.0080           0
   72085 WT4  6313 TIP3 OH2  OT    -0.834000       15.9994           0
   72086 WT4  6313 TIP3 H1   HT     0.417000        1.0080           0
   72087 WT4  6313 TIP3 H2   HT     0.417000        1.0080           0
   72088 WT4  6314 TIP3 OH2  OT    -0.834000       15.9994           0
   72089 WT4  6314 TIP3 H1   HT     0.417000        1.0080           0
   72090 WT4  6314 TIP3 H2   HT     0.417000        1.0080           0
   72091 WT4  6315 TIP3 OH2  OT    -0.834000       15.9994           0
   72092 WT4  6315 TIP3 H1   HT     0.417000        1.0080           0
   72093 WT4  6315 TIP3 H2   HT     0.417000        1.0080           0
   72094 WT4  6319 TIP3 OH2  OT    -0.834000       15.9994           0
   72095 WT4  6319 TIP3 H1   HT     0.417000        1.0080           0
   72096 WT4  6319 TIP3 H2   HT     0.417000        1.0080           0
   72097 WT4  6321 TIP3 OH2  OT    -0.834000       15.9994           0
   72098 WT4  6321 TIP3 H1   HT     0.417000        1.0080           0
   72099 WT4  6321 TIP3 H2   HT     0.417000        1.0080           0
   72100 WT4  6322 TIP3 OH2  OT    -0.834000       15.9994           0
   72101 WT4  6322 TIP3 H1   HT     0.417000        1.0080           0
   72102 WT4  6322 TIP3 H2   HT     0.417000        1.0080           0
   72103 WT4  6323 TIP3 OH2  OT    -0.834000       15.9994           0
   72104 WT4  6323 TIP3 H1   HT     0.417000        1.0080           0
   72105 WT4  6323 TIP3 H2   HT     0.417000        1.0080           0
   72106 WT4  6324 TIP3 OH2  OT    -0.834000       15.9994           0
   72107 WT4  6324 TIP3 H1   HT     0.417000        1.0080           0
   72108 WT4  6324 TIP3 H2   HT     0.417000        1.0080           0
   72109 WT4  6325 TIP3 OH2  OT    -0.834000       15.9994           0
   72110 WT4  6325 TIP3 H1   HT     0.417000        1.0080           0
   72111 WT4  6325 TIP3 H2   HT     0.417000        1.0080           0
   72112 WT4  6326 TIP3 OH2  OT    -0.834000       15.9994           0
   72113 WT4  6326 TIP3 H1   HT     0.417000        1.0080           0
   72114 WT4  6326 TIP3 H2   HT     0.417000        1.0080           0
   72115 WT4  6327 TIP3 OH2  OT    -0.834000       15.9994           0
   72116 WT4  6327 TIP3 H1   HT     0.417000        1.0080           0
   72117 WT4  6327 TIP3 H2   HT     0.417000        1.0080           0
   72118 WT4  6328 TIP3 OH2  OT    -0.834000       15.9994           0
   72119 WT4  6328 TIP3 H1   HT     0.417000        1.0080           0
   72120 WT4  6328 TIP3 H2   HT     0.417000        1.0080           0
   72121 WT4  6329 TIP3 OH2  OT    -0.834000       15.9994           0
   72122 WT4  6329 TIP3 H1   HT     0.417000        1.0080           0
   72123 WT4  6329 TIP3 H2   HT     0.417000        1.0080           0
   72124 WT4  6330 TIP3 OH2  OT    -0.834000       15.9994           0
   72125 WT4  6330 TIP3 H1   HT     0.417000        1.0080           0
   72126 WT4  6330 TIP3 H2   HT     0.417000        1.0080           0
   72127 WT4  6331 TIP3 OH2  OT    -0.834000       15.9994           0
   72128 WT4  6331 TIP3 H1   HT     0.417000        1.0080           0
   72129 WT4  6331 TIP3 H2   HT     0.417000        1.0080           0
   72130 WT4  6332 TIP3 OH2  OT    -0.834000       15.9994           0
   72131 WT4  6332 TIP3 H1   HT     0.417000        1.0080           0
   72132 WT4  6332 TIP3 H2   HT     0.417000        1.0080           0
   72133 WT4  6333 TIP3 OH2  OT    -0.834000       15.9994           0
   72134 WT4  6333 TIP3 H1   HT     0.417000        1.0080           0
   72135 WT4  6333 TIP3 H2   HT     0.417000        1.0080           0
   72136 WT4  6334 TIP3 OH2  OT    -0.834000       15.9994           0
   72137 WT4  6334 TIP3 H1   HT     0.417000        1.0080           0
   72138 WT4  6334 TIP3 H2   HT     0.417000        1.0080           0
   72139 WT4  6339 TIP3 OH2  OT    -0.834000       15.9994           0
   72140 WT4  6339 TIP3 H1   HT     0.417000        1.0080           0
   72141 WT4  6339 TIP3 H2   HT     0.417000        1.0080           0
   72142 WT4  6341 TIP3 OH2  OT    -0.834000       15.9994           0
   72143 WT4  6341 TIP3 H1   HT     0.417000        1.0080           0
   72144 WT4  6341 TIP3 H2   HT     0.417000        1.0080           0
   72145 WT4  6345 TIP3 OH2  OT    -0.834000       15.9994           0
   72146 WT4  6345 TIP3 H1   HT     0.417000        1.0080           0
   72147 WT4  6345 TIP3 H2   HT     0.417000        1.0080           0
   72148 WT4  6347 TIP3 OH2  OT    -0.834000       15.9994           0
   72149 WT4  6347 TIP3 H1   HT     0.417000        1.0080           0
   72150 WT4  6347 TIP3 H2   HT     0.417000        1.0080           0
   72151 WT4  6348 TIP3 OH2  OT    -0.834000       15.9994           0
   72152 WT4  6348 TIP3 H1   HT     0.417000        1.0080           0
   72153 WT4  6348 TIP3 H2   HT     0.417000        1.0080           0
   72154 WT4  6349 TIP3 OH2  OT    -0.834000       15.9994           0
   72155 WT4  6349 TIP3 H1   HT     0.417000        1.0080           0
   72156 WT4  6349 TIP3 H2   HT     0.417000        1.0080           0
   72157 WT4  6351 TIP3 OH2  OT    -0.834000       15.9994           0
   72158 WT4  6351 TIP3 H1   HT     0.417000        1.0080           0
   72159 WT4  6351 TIP3 H2   HT     0.417000        1.0080           0
   72160 WT4  6352 TIP3 OH2  OT    -0.834000       15.9994           0
   72161 WT4  6352 TIP3 H1   HT     0.417000        1.0080           0
   72162 WT4  6352 TIP3 H2   HT     0.417000        1.0080           0
   72163 WT4  6353 TIP3 OH2  OT    -0.834000       15.9994           0
   72164 WT4  6353 TIP3 H1   HT     0.417000        1.0080           0
   72165 WT4  6353 TIP3 H2   HT     0.417000        1.0080           0
   72166 WT4  6354 TIP3 OH2  OT    -0.834000       15.9994           0
   72167 WT4  6354 TIP3 H1   HT     0.417000        1.0080           0
   72168 WT4  6354 TIP3 H2   HT     0.417000        1.0080           0
   72169 WT4  6356 TIP3 OH2  OT    -0.834000       15.9994           0
   72170 WT4  6356 TIP3 H1   HT     0.417000        1.0080           0
   72171 WT4  6356 TIP3 H2   HT     0.417000        1.0080           0
   72172 WT4  6357 TIP3 OH2  OT    -0.834000       15.9994           0
   72173 WT4  6357 TIP3 H1   HT     0.417000        1.0080           0
   72174 WT4  6357 TIP3 H2   HT     0.417000        1.0080           0
   72175 WT4  6359 TIP3 OH2  OT    -0.834000       15.9994           0
   72176 WT4  6359 TIP3 H1   HT     0.417000        1.0080           0
   72177 WT4  6359 TIP3 H2   HT     0.417000        1.0080           0
   72178 WT4  6364 TIP3 OH2  OT    -0.834000       15.9994           0
   72179 WT4  6364 TIP3 H1   HT     0.417000        1.0080           0
   72180 WT4  6364 TIP3 H2   HT     0.417000        1.0080           0
   72181 WT4  6366 TIP3 OH2  OT    -0.834000       15.9994           0
   72182 WT4  6366 TIP3 H1   HT     0.417000        1.0080           0
   72183 WT4  6366 TIP3 H2   HT     0.417000        1.0080           0
   72184 WT4  6367 TIP3 OH2  OT    -0.834000       15.9994           0
   72185 WT4  6367 TIP3 H1   HT     0.417000        1.0080           0
   72186 WT4  6367 TIP3 H2   HT     0.417000        1.0080           0
   72187 WT4  6369 TIP3 OH2  OT    -0.834000       15.9994           0
   72188 WT4  6369 TIP3 H1   HT     0.417000        1.0080           0
   72189 WT4  6369 TIP3 H2   HT     0.417000        1.0080           0
   72190 WT4  6370 TIP3 OH2  OT    -0.834000       15.9994           0
   72191 WT4  6370 TIP3 H1   HT     0.417000        1.0080           0
   72192 WT4  6370 TIP3 H2   HT     0.417000        1.0080           0
   72193 WT4  6371 TIP3 OH2  OT    -0.834000       15.9994           0
   72194 WT4  6371 TIP3 H1   HT     0.417000        1.0080           0
   72195 WT4  6371 TIP3 H2   HT     0.417000        1.0080           0
   72196 WT4  6372 TIP3 OH2  OT    -0.834000       15.9994           0
   72197 WT4  6372 TIP3 H1   HT     0.417000        1.0080           0
   72198 WT4  6372 TIP3 H2   HT     0.417000        1.0080           0
   72199 WT4  6373 TIP3 OH2  OT    -0.834000       15.9994           0
   72200 WT4  6373 TIP3 H1   HT     0.417000        1.0080           0
   72201 WT4  6373 TIP3 H2   HT     0.417000        1.0080           0
   72202 WT4  6374 TIP3 OH2  OT    -0.834000       15.9994           0
   72203 WT4  6374 TIP3 H1   HT     0.417000        1.0080           0
   72204 WT4  6374 TIP3 H2   HT     0.417000        1.0080           0
   72205 WT4  6375 TIP3 OH2  OT    -0.834000       15.9994           0
   72206 WT4  6375 TIP3 H1   HT     0.417000        1.0080           0
   72207 WT4  6375 TIP3 H2   HT     0.417000        1.0080           0
   72208 WT4  6381 TIP3 OH2  OT    -0.834000       15.9994           0
   72209 WT4  6381 TIP3 H1   HT     0.417000        1.0080           0
   72210 WT4  6381 TIP3 H2   HT     0.417000        1.0080           0
   72211 WT4  6385 TIP3 OH2  OT    -0.834000       15.9994           0
   72212 WT4  6385 TIP3 H1   HT     0.417000        1.0080           0
   72213 WT4  6385 TIP3 H2   HT     0.417000        1.0080           0
   72214 WT4  6388 TIP3 OH2  OT    -0.834000       15.9994           0
   72215 WT4  6388 TIP3 H1   HT     0.417000        1.0080           0
   72216 WT4  6388 TIP3 H2   HT     0.417000        1.0080           0
   72217 WT4  6389 TIP3 OH2  OT    -0.834000       15.9994           0
   72218 WT4  6389 TIP3 H1   HT     0.417000        1.0080           0
   72219 WT4  6389 TIP3 H2   HT     0.417000        1.0080           0
   72220 WT4  6390 TIP3 OH2  OT    -0.834000       15.9994           0
   72221 WT4  6390 TIP3 H1   HT     0.417000        1.0080           0
   72222 WT4  6390 TIP3 H2   HT     0.417000        1.0080           0
   72223 WT4  6391 TIP3 OH2  OT    -0.834000       15.9994           0
   72224 WT4  6391 TIP3 H1   HT     0.417000        1.0080           0
   72225 WT4  6391 TIP3 H2   HT     0.417000        1.0080           0
   72226 WT4  6392 TIP3 OH2  OT    -0.834000       15.9994           0
   72227 WT4  6392 TIP3 H1   HT     0.417000        1.0080           0
   72228 WT4  6392 TIP3 H2   HT     0.417000        1.0080           0
   72229 WT4  6393 TIP3 OH2  OT    -0.834000       15.9994           0
   72230 WT4  6393 TIP3 H1   HT     0.417000        1.0080           0
   72231 WT4  6393 TIP3 H2   HT     0.417000        1.0080           0
   72232 WT4  6394 TIP3 OH2  OT    -0.834000       15.9994           0
   72233 WT4  6394 TIP3 H1   HT     0.417000        1.0080           0
   72234 WT4  6394 TIP3 H2   HT     0.417000        1.0080           0
   72235 WT4  6395 TIP3 OH2  OT    -0.834000       15.9994           0
   72236 WT4  6395 TIP3 H1   HT     0.417000        1.0080           0
   72237 WT4  6395 TIP3 H2   HT     0.417000        1.0080           0
   72238 WT4  6396 TIP3 OH2  OT    -0.834000       15.9994           0
   72239 WT4  6396 TIP3 H1   HT     0.417000        1.0080           0
   72240 WT4  6396 TIP3 H2   HT     0.417000        1.0080           0
   72241 WT4  6397 TIP3 OH2  OT    -0.834000       15.9994           0
   72242 WT4  6397 TIP3 H1   HT     0.417000        1.0080           0
   72243 WT4  6397 TIP3 H2   HT     0.417000        1.0080           0
   72244 WT4  6398 TIP3 OH2  OT    -0.834000       15.9994           0
   72245 WT4  6398 TIP3 H1   HT     0.417000        1.0080           0
   72246 WT4  6398 TIP3 H2   HT     0.417000        1.0080           0
   72247 WT4  6402 TIP3 OH2  OT    -0.834000       15.9994           0
   72248 WT4  6402 TIP3 H1   HT     0.417000        1.0080           0
   72249 WT4  6402 TIP3 H2   HT     0.417000        1.0080           0
   72250 WT4  6403 TIP3 OH2  OT    -0.834000       15.9994           0
   72251 WT4  6403 TIP3 H1   HT     0.417000        1.0080           0
   72252 WT4  6403 TIP3 H2   HT     0.417000        1.0080           0
   72253 WT4  6404 TIP3 OH2  OT    -0.834000       15.9994           0
   72254 WT4  6404 TIP3 H1   HT     0.417000        1.0080           0
   72255 WT4  6404 TIP3 H2   HT     0.417000        1.0080           0
   72256 WT4  6407 TIP3 OH2  OT    -0.834000       15.9994           0
   72257 WT4  6407 TIP3 H1   HT     0.417000        1.0080           0
   72258 WT4  6407 TIP3 H2   HT     0.417000        1.0080           0
   72259 WT4  6408 TIP3 OH2  OT    -0.834000       15.9994           0
   72260 WT4  6408 TIP3 H1   HT     0.417000        1.0080           0
   72261 WT4  6408 TIP3 H2   HT     0.417000        1.0080           0
   72262 WT4  6409 TIP3 OH2  OT    -0.834000       15.9994           0
   72263 WT4  6409 TIP3 H1   HT     0.417000        1.0080           0
   72264 WT4  6409 TIP3 H2   HT     0.417000        1.0080           0
   72265 WT4  6410 TIP3 OH2  OT    -0.834000       15.9994           0
   72266 WT4  6410 TIP3 H1   HT     0.417000        1.0080           0
   72267 WT4  6410 TIP3 H2   HT     0.417000        1.0080           0
   72268 WT4  6411 TIP3 OH2  OT    -0.834000       15.9994           0
   72269 WT4  6411 TIP3 H1   HT     0.417000        1.0080           0
   72270 WT4  6411 TIP3 H2   HT     0.417000        1.0080           0
   72271 WT4  6412 TIP3 OH2  OT    -0.834000       15.9994           0
   72272 WT4  6412 TIP3 H1   HT     0.417000        1.0080           0
   72273 WT4  6412 TIP3 H2   HT     0.417000        1.0080           0
   72274 WT4  6413 TIP3 OH2  OT    -0.834000       15.9994           0
   72275 WT4  6413 TIP3 H1   HT     0.417000        1.0080           0
   72276 WT4  6413 TIP3 H2   HT     0.417000        1.0080           0
   72277 WT4  6414 TIP3 OH2  OT    -0.834000       15.9994           0
   72278 WT4  6414 TIP3 H1   HT     0.417000        1.0080           0
   72279 WT4  6414 TIP3 H2   HT     0.417000        1.0080           0
   72280 WT4  6415 TIP3 OH2  OT    -0.834000       15.9994           0
   72281 WT4  6415 TIP3 H1   HT     0.417000        1.0080           0
   72282 WT4  6415 TIP3 H2   HT     0.417000        1.0080           0
   72283 WT4  6416 TIP3 OH2  OT    -0.834000       15.9994           0
   72284 WT4  6416 TIP3 H1   HT     0.417000        1.0080           0
   72285 WT4  6416 TIP3 H2   HT     0.417000        1.0080           0
   72286 WT4  6417 TIP3 OH2  OT    -0.834000       15.9994           0
   72287 WT4  6417 TIP3 H1   HT     0.417000        1.0080           0
   72288 WT4  6417 TIP3 H2   HT     0.417000        1.0080           0
   72289 WT4  6419 TIP3 OH2  OT    -0.834000       15.9994           0
   72290 WT4  6419 TIP3 H1   HT     0.417000        1.0080           0
   72291 WT4  6419 TIP3 H2   HT     0.417000        1.0080           0
   72292 WT4  6425 TIP3 OH2  OT    -0.834000       15.9994           0
   72293 WT4  6425 TIP3 H1   HT     0.417000        1.0080           0
   72294 WT4  6425 TIP3 H2   HT     0.417000        1.0080           0
   72295 WT4  6428 TIP3 OH2  OT    -0.834000       15.9994           0
   72296 WT4  6428 TIP3 H1   HT     0.417000        1.0080           0
   72297 WT4  6428 TIP3 H2   HT     0.417000        1.0080           0
   72298 WT4  6429 TIP3 OH2  OT    -0.834000       15.9994           0
   72299 WT4  6429 TIP3 H1   HT     0.417000        1.0080           0
   72300 WT4  6429 TIP3 H2   HT     0.417000        1.0080           0
   72301 WT4  6434 TIP3 OH2  OT    -0.834000       15.9994           0
   72302 WT4  6434 TIP3 H1   HT     0.417000        1.0080           0
   72303 WT4  6434 TIP3 H2   HT     0.417000        1.0080           0
   72304 WT4  6435 TIP3 OH2  OT    -0.834000       15.9994           0
   72305 WT4  6435 TIP3 H1   HT     0.417000        1.0080           0
   72306 WT4  6435 TIP3 H2   HT     0.417000        1.0080           0
   72307 WT4  6436 TIP3 OH2  OT    -0.834000       15.9994           0
   72308 WT4  6436 TIP3 H1   HT     0.417000        1.0080           0
   72309 WT4  6436 TIP3 H2   HT     0.417000        1.0080           0
   72310 WT4  6439 TIP3 OH2  OT    -0.834000       15.9994           0
   72311 WT4  6439 TIP3 H1   HT     0.417000        1.0080           0
   72312 WT4  6439 TIP3 H2   HT     0.417000        1.0080           0
   72313 WT4  6440 TIP3 OH2  OT    -0.834000       15.9994           0
   72314 WT4  6440 TIP3 H1   HT     0.417000        1.0080           0
   72315 WT4  6440 TIP3 H2   HT     0.417000        1.0080           0
   72316 WT4  6445 TIP3 OH2  OT    -0.834000       15.9994           0
   72317 WT4  6445 TIP3 H1   HT     0.417000        1.0080           0
   72318 WT4  6445 TIP3 H2   HT     0.417000        1.0080           0
   72319 WT4  6448 TIP3 OH2  OT    -0.834000       15.9994           0
   72320 WT4  6448 TIP3 H1   HT     0.417000        1.0080           0
   72321 WT4  6448 TIP3 H2   HT     0.417000        1.0080           0
   72322 WT4  6452 TIP3 OH2  OT    -0.834000       15.9994           0
   72323 WT4  6452 TIP3 H1   HT     0.417000        1.0080           0
   72324 WT4  6452 TIP3 H2   HT     0.417000        1.0080           0
   72325 WT4  6453 TIP3 OH2  OT    -0.834000       15.9994           0
   72326 WT4  6453 TIP3 H1   HT     0.417000        1.0080           0
   72327 WT4  6453 TIP3 H2   HT     0.417000        1.0080           0
   72328 WT4  6456 TIP3 OH2  OT    -0.834000       15.9994           0
   72329 WT4  6456 TIP3 H1   HT     0.417000        1.0080           0
   72330 WT4  6456 TIP3 H2   HT     0.417000        1.0080           0
   72331 WT4  6459 TIP3 OH2  OT    -0.834000       15.9994           0
   72332 WT4  6459 TIP3 H1   HT     0.417000        1.0080           0
   72333 WT4  6459 TIP3 H2   HT     0.417000        1.0080           0
   72334 WT4  6464 TIP3 OH2  OT    -0.834000       15.9994           0
   72335 WT4  6464 TIP3 H1   HT     0.417000        1.0080           0
   72336 WT4  6464 TIP3 H2   HT     0.417000        1.0080           0
   72337 WT4  6469 TIP3 OH2  OT    -0.834000       15.9994           0
   72338 WT4  6469 TIP3 H1   HT     0.417000        1.0080           0
   72339 WT4  6469 TIP3 H2   HT     0.417000        1.0080           0
   72340 WT4  6475 TIP3 OH2  OT    -0.834000       15.9994           0
   72341 WT4  6475 TIP3 H1   HT     0.417000        1.0080           0
   72342 WT4  6475 TIP3 H2   HT     0.417000        1.0080           0
   72343 WT4  6478 TIP3 OH2  OT    -0.834000       15.9994           0
   72344 WT4  6478 TIP3 H1   HT     0.417000        1.0080           0
   72345 WT4  6478 TIP3 H2   HT     0.417000        1.0080           0
   72346 WT4  6481 TIP3 OH2  OT    -0.834000       15.9994           0
   72347 WT4  6481 TIP3 H1   HT     0.417000        1.0080           0
   72348 WT4  6481 TIP3 H2   HT     0.417000        1.0080           0
   72349 WT4  6483 TIP3 OH2  OT    -0.834000       15.9994           0
   72350 WT4  6483 TIP3 H1   HT     0.417000        1.0080           0
   72351 WT4  6483 TIP3 H2   HT     0.417000        1.0080           0
   72352 WT4  6491 TIP3 OH2  OT    -0.834000       15.9994           0
   72353 WT4  6491 TIP3 H1   HT     0.417000        1.0080           0
   72354 WT4  6491 TIP3 H2   HT     0.417000        1.0080           0
   72355 WT4  6492 TIP3 OH2  OT    -0.834000       15.9994           0
   72356 WT4  6492 TIP3 H1   HT     0.417000        1.0080           0
   72357 WT4  6492 TIP3 H2   HT     0.417000        1.0080           0
   72358 WT4  6496 TIP3 OH2  OT    -0.834000       15.9994           0
   72359 WT4  6496 TIP3 H1   HT     0.417000        1.0080           0
   72360 WT4  6496 TIP3 H2   HT     0.417000        1.0080           0
   72361 WT4  6499 TIP3 OH2  OT    -0.834000       15.9994           0
   72362 WT4  6499 TIP3 H1   HT     0.417000        1.0080           0
   72363 WT4  6499 TIP3 H2   HT     0.417000        1.0080           0
   72364 WT4  6502 TIP3 OH2  OT    -0.834000       15.9994           0
   72365 WT4  6502 TIP3 H1   HT     0.417000        1.0080           0
   72366 WT4  6502 TIP3 H2   HT     0.417000        1.0080           0
   72367 WT4  6505 TIP3 OH2  OT    -0.834000       15.9994           0
   72368 WT4  6505 TIP3 H1   HT     0.417000        1.0080           0
   72369 WT4  6505 TIP3 H2   HT     0.417000        1.0080           0
   72370 WT4  6517 TIP3 OH2  OT    -0.834000       15.9994           0
   72371 WT4  6517 TIP3 H1   HT     0.417000        1.0080           0
   72372 WT4  6517 TIP3 H2   HT     0.417000        1.0080           0
   72373 WT4  6518 TIP3 OH2  OT    -0.834000       15.9994           0
   72374 WT4  6518 TIP3 H1   HT     0.417000        1.0080           0
   72375 WT4  6518 TIP3 H2   HT     0.417000        1.0080           0
   72376 WT4  6519 TIP3 OH2  OT    -0.834000       15.9994           0
   72377 WT4  6519 TIP3 H1   HT     0.417000        1.0080           0
   72378 WT4  6519 TIP3 H2   HT     0.417000        1.0080           0
   72379 WT4  6523 TIP3 OH2  OT    -0.834000       15.9994           0
   72380 WT4  6523 TIP3 H1   HT     0.417000        1.0080           0
   72381 WT4  6523 TIP3 H2   HT     0.417000        1.0080           0
   72382 WT4  6536 TIP3 OH2  OT    -0.834000       15.9994           0
   72383 WT4  6536 TIP3 H1   HT     0.417000        1.0080           0
   72384 WT4  6536 TIP3 H2   HT     0.417000        1.0080           0
   72385 WT4  6547 TIP3 OH2  OT    -0.834000       15.9994           0
   72386 WT4  6547 TIP3 H1   HT     0.417000        1.0080           0
   72387 WT4  6547 TIP3 H2   HT     0.417000        1.0080           0
   72388 WT4  6551 TIP3 OH2  OT    -0.834000       15.9994           0
   72389 WT4  6551 TIP3 H1   HT     0.417000        1.0080           0
   72390 WT4  6551 TIP3 H2   HT     0.417000        1.0080           0
   72391 WT4  6555 TIP3 OH2  OT    -0.834000       15.9994           0
   72392 WT4  6555 TIP3 H1   HT     0.417000        1.0080           0
   72393 WT4  6555 TIP3 H2   HT     0.417000        1.0080           0
   72394 WT4  6560 TIP3 OH2  OT    -0.834000       15.9994           0
   72395 WT4  6560 TIP3 H1   HT     0.417000        1.0080           0
   72396 WT4  6560 TIP3 H2   HT     0.417000        1.0080           0
   72397 WT4  6561 TIP3 OH2  OT    -0.834000       15.9994           0
   72398 WT4  6561 TIP3 H1   HT     0.417000        1.0080           0
   72399 WT4  6561 TIP3 H2   HT     0.417000        1.0080           0
   72400 WT4  6575 TIP3 OH2  OT    -0.834000       15.9994           0
   72401 WT4  6575 TIP3 H1   HT     0.417000        1.0080           0
   72402 WT4  6575 TIP3 H2   HT     0.417000        1.0080           0
   72403 WT4  6577 TIP3 OH2  OT    -0.834000       15.9994           0
   72404 WT4  6577 TIP3 H1   HT     0.417000        1.0080           0
   72405 WT4  6577 TIP3 H2   HT     0.417000        1.0080           0
   72406 WT4  6578 TIP3 OH2  OT    -0.834000       15.9994           0
   72407 WT4  6578 TIP3 H1   HT     0.417000        1.0080           0
   72408 WT4  6578 TIP3 H2   HT     0.417000        1.0080           0
   72409 WT4  6579 TIP3 OH2  OT    -0.834000       15.9994           0
   72410 WT4  6579 TIP3 H1   HT     0.417000        1.0080           0
   72411 WT4  6579 TIP3 H2   HT     0.417000        1.0080           0
   72412 WT4  6583 TIP3 OH2  OT    -0.834000       15.9994           0
   72413 WT4  6583 TIP3 H1   HT     0.417000        1.0080           0
   72414 WT4  6583 TIP3 H2   HT     0.417000        1.0080           0
   72415 WT4  6588 TIP3 OH2  OT    -0.834000       15.9994           0
   72416 WT4  6588 TIP3 H1   HT     0.417000        1.0080           0
   72417 WT4  6588 TIP3 H2   HT     0.417000        1.0080           0
   72418 WT4  6595 TIP3 OH2  OT    -0.834000       15.9994           0
   72419 WT4  6595 TIP3 H1   HT     0.417000        1.0080           0
   72420 WT4  6595 TIP3 H2   HT     0.417000        1.0080           0
   72421 WT4  6597 TIP3 OH2  OT    -0.834000       15.9994           0
   72422 WT4  6597 TIP3 H1   HT     0.417000        1.0080           0
   72423 WT4  6597 TIP3 H2   HT     0.417000        1.0080           0
   72424 WT4  6601 TIP3 OH2  OT    -0.834000       15.9994           0
   72425 WT4  6601 TIP3 H1   HT     0.417000        1.0080           0
   72426 WT4  6601 TIP3 H2   HT     0.417000        1.0080           0
   72427 WT4  6602 TIP3 OH2  OT    -0.834000       15.9994           0
   72428 WT4  6602 TIP3 H1   HT     0.417000        1.0080           0
   72429 WT4  6602 TIP3 H2   HT     0.417000        1.0080           0
   72430 WT4  6603 TIP3 OH2  OT    -0.834000       15.9994           0
   72431 WT4  6603 TIP3 H1   HT     0.417000        1.0080           0
   72432 WT4  6603 TIP3 H2   HT     0.417000        1.0080           0
   72433 WT4  6604 TIP3 OH2  OT    -0.834000       15.9994           0
   72434 WT4  6604 TIP3 H1   HT     0.417000        1.0080           0
   72435 WT4  6604 TIP3 H2   HT     0.417000        1.0080           0
   72436 WT4  6606 TIP3 OH2  OT    -0.834000       15.9994           0
   72437 WT4  6606 TIP3 H1   HT     0.417000        1.0080           0
   72438 WT4  6606 TIP3 H2   HT     0.417000        1.0080           0
   72439 WT4  6615 TIP3 OH2  OT    -0.834000       15.9994           0
   72440 WT4  6615 TIP3 H1   HT     0.417000        1.0080           0
   72441 WT4  6615 TIP3 H2   HT     0.417000        1.0080           0
   72442 WT4  6616 TIP3 OH2  OT    -0.834000       15.9994           0
   72443 WT4  6616 TIP3 H1   HT     0.417000        1.0080           0
   72444 WT4  6616 TIP3 H2   HT     0.417000        1.0080           0
   72445 WT4  6618 TIP3 OH2  OT    -0.834000       15.9994           0
   72446 WT4  6618 TIP3 H1   HT     0.417000        1.0080           0
   72447 WT4  6618 TIP3 H2   HT     0.417000        1.0080           0
   72448 WT4  6620 TIP3 OH2  OT    -0.834000       15.9994           0
   72449 WT4  6620 TIP3 H1   HT     0.417000        1.0080           0
   72450 WT4  6620 TIP3 H2   HT     0.417000        1.0080           0
   72451 WT4  6621 TIP3 OH2  OT    -0.834000       15.9994           0
   72452 WT4  6621 TIP3 H1   HT     0.417000        1.0080           0
   72453 WT4  6621 TIP3 H2   HT     0.417000        1.0080           0
   72454 WT4  6623 TIP3 OH2  OT    -0.834000       15.9994           0
   72455 WT4  6623 TIP3 H1   HT     0.417000        1.0080           0
   72456 WT4  6623 TIP3 H2   HT     0.417000        1.0080           0
   72457 WT4  6625 TIP3 OH2  OT    -0.834000       15.9994           0
   72458 WT4  6625 TIP3 H1   HT     0.417000        1.0080           0
   72459 WT4  6625 TIP3 H2   HT     0.417000        1.0080           0
   72460 WT4  6627 TIP3 OH2  OT    -0.834000       15.9994           0
   72461 WT4  6627 TIP3 H1   HT     0.417000        1.0080           0
   72462 WT4  6627 TIP3 H2   HT     0.417000        1.0080           0
   72463 WT4  6628 TIP3 OH2  OT    -0.834000       15.9994           0
   72464 WT4  6628 TIP3 H1   HT     0.417000        1.0080           0
   72465 WT4  6628 TIP3 H2   HT     0.417000        1.0080           0
   72466 WT4  6629 TIP3 OH2  OT    -0.834000       15.9994           0
   72467 WT4  6629 TIP3 H1   HT     0.417000        1.0080           0
   72468 WT4  6629 TIP3 H2   HT     0.417000        1.0080           0
   72469 WT4  6637 TIP3 OH2  OT    -0.834000       15.9994           0
   72470 WT4  6637 TIP3 H1   HT     0.417000        1.0080           0
   72471 WT4  6637 TIP3 H2   HT     0.417000        1.0080           0
   72472 WT4  6639 TIP3 OH2  OT    -0.834000       15.9994           0
   72473 WT4  6639 TIP3 H1   HT     0.417000        1.0080           0
   72474 WT4  6639 TIP3 H2   HT     0.417000        1.0080           0
   72475 WT4  6640 TIP3 OH2  OT    -0.834000       15.9994           0
   72476 WT4  6640 TIP3 H1   HT     0.417000        1.0080           0
   72477 WT4  6640 TIP3 H2   HT     0.417000        1.0080           0
   72478 WT4  6641 TIP3 OH2  OT    -0.834000       15.9994           0
   72479 WT4  6641 TIP3 H1   HT     0.417000        1.0080           0
   72480 WT4  6641 TIP3 H2   HT     0.417000        1.0080           0
   72481 WT4  6643 TIP3 OH2  OT    -0.834000       15.9994           0
   72482 WT4  6643 TIP3 H1   HT     0.417000        1.0080           0
   72483 WT4  6643 TIP3 H2   HT     0.417000        1.0080           0
   72484 WT4  6644 TIP3 OH2  OT    -0.834000       15.9994           0
   72485 WT4  6644 TIP3 H1   HT     0.417000        1.0080           0
   72486 WT4  6644 TIP3 H2   HT     0.417000        1.0080           0
   72487 WT4  6645 TIP3 OH2  OT    -0.834000       15.9994           0
   72488 WT4  6645 TIP3 H1   HT     0.417000        1.0080           0
   72489 WT4  6645 TIP3 H2   HT     0.417000        1.0080           0
   72490 WT4  6647 TIP3 OH2  OT    -0.834000       15.9994           0
   72491 WT4  6647 TIP3 H1   HT     0.417000        1.0080           0
   72492 WT4  6647 TIP3 H2   HT     0.417000        1.0080           0
   72493 WT4  6657 TIP3 OH2  OT    -0.834000       15.9994           0
   72494 WT4  6657 TIP3 H1   HT     0.417000        1.0080           0
   72495 WT4  6657 TIP3 H2   HT     0.417000        1.0080           0
   72496 WT4  6659 TIP3 OH2  OT    -0.834000       15.9994           0
   72497 WT4  6659 TIP3 H1   HT     0.417000        1.0080           0
   72498 WT4  6659 TIP3 H2   HT     0.417000        1.0080           0
   72499 WT4  6660 TIP3 OH2  OT    -0.834000       15.9994           0
   72500 WT4  6660 TIP3 H1   HT     0.417000        1.0080           0
   72501 WT4  6660 TIP3 H2   HT     0.417000        1.0080           0
   72502 WT4  6661 TIP3 OH2  OT    -0.834000       15.9994           0
   72503 WT4  6661 TIP3 H1   HT     0.417000        1.0080           0
   72504 WT4  6661 TIP3 H2   HT     0.417000        1.0080           0
   72505 WT4  6662 TIP3 OH2  OT    -0.834000       15.9994           0
   72506 WT4  6662 TIP3 H1   HT     0.417000        1.0080           0
   72507 WT4  6662 TIP3 H2   HT     0.417000        1.0080           0
   72508 WT4  6663 TIP3 OH2  OT    -0.834000       15.9994           0
   72509 WT4  6663 TIP3 H1   HT     0.417000        1.0080           0
   72510 WT4  6663 TIP3 H2   HT     0.417000        1.0080           0
   72511 WT4  6664 TIP3 OH2  OT    -0.834000       15.9994           0
   72512 WT4  6664 TIP3 H1   HT     0.417000        1.0080           0
   72513 WT4  6664 TIP3 H2   HT     0.417000        1.0080           0
   72514 WT4  6665 TIP3 OH2  OT    -0.834000       15.9994           0
   72515 WT4  6665 TIP3 H1   HT     0.417000        1.0080           0
   72516 WT4  6665 TIP3 H2   HT     0.417000        1.0080           0
   72517 WT4  6666 TIP3 OH2  OT    -0.834000       15.9994           0
   72518 WT4  6666 TIP3 H1   HT     0.417000        1.0080           0
   72519 WT4  6666 TIP3 H2   HT     0.417000        1.0080           0
   72520 WT4  6667 TIP3 OH2  OT    -0.834000       15.9994           0
   72521 WT4  6667 TIP3 H1   HT     0.417000        1.0080           0
   72522 WT4  6667 TIP3 H2   HT     0.417000        1.0080           0
   72523 WT4  6668 TIP3 OH2  OT    -0.834000       15.9994           0
   72524 WT4  6668 TIP3 H1   HT     0.417000        1.0080           0
   72525 WT4  6668 TIP3 H2   HT     0.417000        1.0080           0
   72526 WT4  6669 TIP3 OH2  OT    -0.834000       15.9994           0
   72527 WT4  6669 TIP3 H1   HT     0.417000        1.0080           0
   72528 WT4  6669 TIP3 H2   HT     0.417000        1.0080           0
   72529 WT4  6670 TIP3 OH2  OT    -0.834000       15.9994           0
   72530 WT4  6670 TIP3 H1   HT     0.417000        1.0080           0
   72531 WT4  6670 TIP3 H2   HT     0.417000        1.0080           0
   72532 WT4  6671 TIP3 OH2  OT    -0.834000       15.9994           0
   72533 WT4  6671 TIP3 H1   HT     0.417000        1.0080           0
   72534 WT4  6671 TIP3 H2   HT     0.417000        1.0080           0
   72535 WT4  6672 TIP3 OH2  OT    -0.834000       15.9994           0
   72536 WT4  6672 TIP3 H1   HT     0.417000        1.0080           0
   72537 WT4  6672 TIP3 H2   HT     0.417000        1.0080           0
   72538 WT4  6673 TIP3 OH2  OT    -0.834000       15.9994           0
   72539 WT4  6673 TIP3 H1   HT     0.417000        1.0080           0
   72540 WT4  6673 TIP3 H2   HT     0.417000        1.0080           0
   72541 WT4  6679 TIP3 OH2  OT    -0.834000       15.9994           0
   72542 WT4  6679 TIP3 H1   HT     0.417000        1.0080           0
   72543 WT4  6679 TIP3 H2   HT     0.417000        1.0080           0
   72544 WT4  6681 TIP3 OH2  OT    -0.834000       15.9994           0
   72545 WT4  6681 TIP3 H1   HT     0.417000        1.0080           0
   72546 WT4  6681 TIP3 H2   HT     0.417000        1.0080           0
   72547 WT4  6683 TIP3 OH2  OT    -0.834000       15.9994           0
   72548 WT4  6683 TIP3 H1   HT     0.417000        1.0080           0
   72549 WT4  6683 TIP3 H2   HT     0.417000        1.0080           0
   72550 WT4  6684 TIP3 OH2  OT    -0.834000       15.9994           0
   72551 WT4  6684 TIP3 H1   HT     0.417000        1.0080           0
   72552 WT4  6684 TIP3 H2   HT     0.417000        1.0080           0
   72553 WT4  6685 TIP3 OH2  OT    -0.834000       15.9994           0
   72554 WT4  6685 TIP3 H1   HT     0.417000        1.0080           0
   72555 WT4  6685 TIP3 H2   HT     0.417000        1.0080           0
   72556 WT4  6686 TIP3 OH2  OT    -0.834000       15.9994           0
   72557 WT4  6686 TIP3 H1   HT     0.417000        1.0080           0
   72558 WT4  6686 TIP3 H2   HT     0.417000        1.0080           0
   72559 WT4  6687 TIP3 OH2  OT    -0.834000       15.9994           0
   72560 WT4  6687 TIP3 H1   HT     0.417000        1.0080           0
   72561 WT4  6687 TIP3 H2   HT     0.417000        1.0080           0
   72562 WT4  6690 TIP3 OH2  OT    -0.834000       15.9994           0
   72563 WT4  6690 TIP3 H1   HT     0.417000        1.0080           0
   72564 WT4  6690 TIP3 H2   HT     0.417000        1.0080           0
   72565 WT4  6692 TIP3 OH2  OT    -0.834000       15.9994           0
   72566 WT4  6692 TIP3 H1   HT     0.417000        1.0080           0
   72567 WT4  6692 TIP3 H2   HT     0.417000        1.0080           0
   72568 WT4  6693 TIP3 OH2  OT    -0.834000       15.9994           0
   72569 WT4  6693 TIP3 H1   HT     0.417000        1.0080           0
   72570 WT4  6693 TIP3 H2   HT     0.417000        1.0080           0
   72571 WT4  6698 TIP3 OH2  OT    -0.834000       15.9994           0
   72572 WT4  6698 TIP3 H1   HT     0.417000        1.0080           0
   72573 WT4  6698 TIP3 H2   HT     0.417000        1.0080           0
   72574 WT4  6700 TIP3 OH2  OT    -0.834000       15.9994           0
   72575 WT4  6700 TIP3 H1   HT     0.417000        1.0080           0
   72576 WT4  6700 TIP3 H2   HT     0.417000        1.0080           0
   72577 WT4  6701 TIP3 OH2  OT    -0.834000       15.9994           0
   72578 WT4  6701 TIP3 H1   HT     0.417000        1.0080           0
   72579 WT4  6701 TIP3 H2   HT     0.417000        1.0080           0
   72580 WT4  6703 TIP3 OH2  OT    -0.834000       15.9994           0
   72581 WT4  6703 TIP3 H1   HT     0.417000        1.0080           0
   72582 WT4  6703 TIP3 H2   HT     0.417000        1.0080           0
   72583 WT4  6704 TIP3 OH2  OT    -0.834000       15.9994           0
   72584 WT4  6704 TIP3 H1   HT     0.417000        1.0080           0
   72585 WT4  6704 TIP3 H2   HT     0.417000        1.0080           0
   72586 WT4  6705 TIP3 OH2  OT    -0.834000       15.9994           0
   72587 WT4  6705 TIP3 H1   HT     0.417000        1.0080           0
   72588 WT4  6705 TIP3 H2   HT     0.417000        1.0080           0
   72589 WT4  6706 TIP3 OH2  OT    -0.834000       15.9994           0
   72590 WT4  6706 TIP3 H1   HT     0.417000        1.0080           0
   72591 WT4  6706 TIP3 H2   HT     0.417000        1.0080           0
   72592 WT4  6707 TIP3 OH2  OT    -0.834000       15.9994           0
   72593 WT4  6707 TIP3 H1   HT     0.417000        1.0080           0
   72594 WT4  6707 TIP3 H2   HT     0.417000        1.0080           0
   72595 WT4  6708 TIP3 OH2  OT    -0.834000       15.9994           0
   72596 WT4  6708 TIP3 H1   HT     0.417000        1.0080           0
   72597 WT4  6708 TIP3 H2   HT     0.417000        1.0080           0
   72598 WT4  6709 TIP3 OH2  OT    -0.834000       15.9994           0
   72599 WT4  6709 TIP3 H1   HT     0.417000        1.0080           0
   72600 WT4  6709 TIP3 H2   HT     0.417000        1.0080           0
   72601 WT4  6710 TIP3 OH2  OT    -0.834000       15.9994           0
   72602 WT4  6710 TIP3 H1   HT     0.417000        1.0080           0
   72603 WT4  6710 TIP3 H2   HT     0.417000        1.0080           0
   72604 WT4  6714 TIP3 OH2  OT    -0.834000       15.9994           0
   72605 WT4  6714 TIP3 H1   HT     0.417000        1.0080           0
   72606 WT4  6714 TIP3 H2   HT     0.417000        1.0080           0
   72607 WT4  6721 TIP3 OH2  OT    -0.834000       15.9994           0
   72608 WT4  6721 TIP3 H1   HT     0.417000        1.0080           0
   72609 WT4  6721 TIP3 H2   HT     0.417000        1.0080           0
   72610 WT4  6722 TIP3 OH2  OT    -0.834000       15.9994           0
   72611 WT4  6722 TIP3 H1   HT     0.417000        1.0080           0
   72612 WT4  6722 TIP3 H2   HT     0.417000        1.0080           0
   72613 WT4  6725 TIP3 OH2  OT    -0.834000       15.9994           0
   72614 WT4  6725 TIP3 H1   HT     0.417000        1.0080           0
   72615 WT4  6725 TIP3 H2   HT     0.417000        1.0080           0
   72616 WT4  6726 TIP3 OH2  OT    -0.834000       15.9994           0
   72617 WT4  6726 TIP3 H1   HT     0.417000        1.0080           0
   72618 WT4  6726 TIP3 H2   HT     0.417000        1.0080           0
   72619 WT4  6727 TIP3 OH2  OT    -0.834000       15.9994           0
   72620 WT4  6727 TIP3 H1   HT     0.417000        1.0080           0
   72621 WT4  6727 TIP3 H2   HT     0.417000        1.0080           0
   72622 WT4  6728 TIP3 OH2  OT    -0.834000       15.9994           0
   72623 WT4  6728 TIP3 H1   HT     0.417000        1.0080           0
   72624 WT4  6728 TIP3 H2   HT     0.417000        1.0080           0
   72625 WT4  6729 TIP3 OH2  OT    -0.834000       15.9994           0
   72626 WT4  6729 TIP3 H1   HT     0.417000        1.0080           0
   72627 WT4  6729 TIP3 H2   HT     0.417000        1.0080           0
   72628 WT4  6730 TIP3 OH2  OT    -0.834000       15.9994           0
   72629 WT4  6730 TIP3 H1   HT     0.417000        1.0080           0
   72630 WT4  6730 TIP3 H2   HT     0.417000        1.0080           0
   72631 WT4  6731 TIP3 OH2  OT    -0.834000       15.9994           0
   72632 WT4  6731 TIP3 H1   HT     0.417000        1.0080           0
   72633 WT4  6731 TIP3 H2   HT     0.417000        1.0080           0
   72634 WT4  6732 TIP3 OH2  OT    -0.834000       15.9994           0
   72635 WT4  6732 TIP3 H1   HT     0.417000        1.0080           0
   72636 WT4  6732 TIP3 H2   HT     0.417000        1.0080           0
   72637 WT4  6733 TIP3 OH2  OT    -0.834000       15.9994           0
   72638 WT4  6733 TIP3 H1   HT     0.417000        1.0080           0
   72639 WT4  6733 TIP3 H2   HT     0.417000        1.0080           0
   72640 WT4  6734 TIP3 OH2  OT    -0.834000       15.9994           0
   72641 WT4  6734 TIP3 H1   HT     0.417000        1.0080           0
   72642 WT4  6734 TIP3 H2   HT     0.417000        1.0080           0
   72643 WT4  6736 TIP3 OH2  OT    -0.834000       15.9994           0
   72644 WT4  6736 TIP3 H1   HT     0.417000        1.0080           0
   72645 WT4  6736 TIP3 H2   HT     0.417000        1.0080           0
   72646 WT4  6740 TIP3 OH2  OT    -0.834000       15.9994           0
   72647 WT4  6740 TIP3 H1   HT     0.417000        1.0080           0
   72648 WT4  6740 TIP3 H2   HT     0.417000        1.0080           0
   72649 WT4  6742 TIP3 OH2  OT    -0.834000       15.9994           0
   72650 WT4  6742 TIP3 H1   HT     0.417000        1.0080           0
   72651 WT4  6742 TIP3 H2   HT     0.417000        1.0080           0
   72652 WT4  6743 TIP3 OH2  OT    -0.834000       15.9994           0
   72653 WT4  6743 TIP3 H1   HT     0.417000        1.0080           0
   72654 WT4  6743 TIP3 H2   HT     0.417000        1.0080           0
   72655 WT4  6748 TIP3 OH2  OT    -0.834000       15.9994           0
   72656 WT4  6748 TIP3 H1   HT     0.417000        1.0080           0
   72657 WT4  6748 TIP3 H2   HT     0.417000        1.0080           0
   72658 WT4  6750 TIP3 OH2  OT    -0.834000       15.9994           0
   72659 WT4  6750 TIP3 H1   HT     0.417000        1.0080           0
   72660 WT4  6750 TIP3 H2   HT     0.417000        1.0080           0
   72661 WT4  6751 TIP3 OH2  OT    -0.834000       15.9994           0
   72662 WT4  6751 TIP3 H1   HT     0.417000        1.0080           0
   72663 WT4  6751 TIP3 H2   HT     0.417000        1.0080           0
   72664 WT4  6762 TIP3 OH2  OT    -0.834000       15.9994           0
   72665 WT4  6762 TIP3 H1   HT     0.417000        1.0080           0
   72666 WT4  6762 TIP3 H2   HT     0.417000        1.0080           0
   72667 WT4  6763 TIP3 OH2  OT    -0.834000       15.9994           0
   72668 WT4  6763 TIP3 H1   HT     0.417000        1.0080           0
   72669 WT4  6763 TIP3 H2   HT     0.417000        1.0080           0
   72670 WT4  6765 TIP3 OH2  OT    -0.834000       15.9994           0
   72671 WT4  6765 TIP3 H1   HT     0.417000        1.0080           0
   72672 WT4  6765 TIP3 H2   HT     0.417000        1.0080           0
   72673 WT4  6767 TIP3 OH2  OT    -0.834000       15.9994           0
   72674 WT4  6767 TIP3 H1   HT     0.417000        1.0080           0
   72675 WT4  6767 TIP3 H2   HT     0.417000        1.0080           0
   72676 WT4  6768 TIP3 OH2  OT    -0.834000       15.9994           0
   72677 WT4  6768 TIP3 H1   HT     0.417000        1.0080           0
   72678 WT4  6768 TIP3 H2   HT     0.417000        1.0080           0
   72679 WT4  6769 TIP3 OH2  OT    -0.834000       15.9994           0
   72680 WT4  6769 TIP3 H1   HT     0.417000        1.0080           0
   72681 WT4  6769 TIP3 H2   HT     0.417000        1.0080           0
   72682 WT4  6770 TIP3 OH2  OT    -0.834000       15.9994           0
   72683 WT4  6770 TIP3 H1   HT     0.417000        1.0080           0
   72684 WT4  6770 TIP3 H2   HT     0.417000        1.0080           0
   72685 WT4  6771 TIP3 OH2  OT    -0.834000       15.9994           0
   72686 WT4  6771 TIP3 H1   HT     0.417000        1.0080           0
   72687 WT4  6771 TIP3 H2   HT     0.417000        1.0080           0
   72688 WT4  6772 TIP3 OH2  OT    -0.834000       15.9994           0
   72689 WT4  6772 TIP3 H1   HT     0.417000        1.0080           0
   72690 WT4  6772 TIP3 H2   HT     0.417000        1.0080           0
   72691 WT4  6773 TIP3 OH2  OT    -0.834000       15.9994           0
   72692 WT4  6773 TIP3 H1   HT     0.417000        1.0080           0
   72693 WT4  6773 TIP3 H2   HT     0.417000        1.0080           0
   72694 WT4  6774 TIP3 OH2  OT    -0.834000       15.9994           0
   72695 WT4  6774 TIP3 H1   HT     0.417000        1.0080           0
   72696 WT4  6774 TIP3 H2   HT     0.417000        1.0080           0
   72697 WT4  6775 TIP3 OH2  OT    -0.834000       15.9994           0
   72698 WT4  6775 TIP3 H1   HT     0.417000        1.0080           0
   72699 WT4  6775 TIP3 H2   HT     0.417000        1.0080           0
   72700 WT4  6777 TIP3 OH2  OT    -0.834000       15.9994           0
   72701 WT4  6777 TIP3 H1   HT     0.417000        1.0080           0
   72702 WT4  6777 TIP3 H2   HT     0.417000        1.0080           0
   72703 WT4  6786 TIP3 OH2  OT    -0.834000       15.9994           0
   72704 WT4  6786 TIP3 H1   HT     0.417000        1.0080           0
   72705 WT4  6786 TIP3 H2   HT     0.417000        1.0080           0
   72706 WT4  6788 TIP3 OH2  OT    -0.834000       15.9994           0
   72707 WT4  6788 TIP3 H1   HT     0.417000        1.0080           0
   72708 WT4  6788 TIP3 H2   HT     0.417000        1.0080           0
   72709 WT4  6789 TIP3 OH2  OT    -0.834000       15.9994           0
   72710 WT4  6789 TIP3 H1   HT     0.417000        1.0080           0
   72711 WT4  6789 TIP3 H2   HT     0.417000        1.0080           0
   72712 WT4  6790 TIP3 OH2  OT    -0.834000       15.9994           0
   72713 WT4  6790 TIP3 H1   HT     0.417000        1.0080           0
   72714 WT4  6790 TIP3 H2   HT     0.417000        1.0080           0
   72715 WT4  6791 TIP3 OH2  OT    -0.834000       15.9994           0
   72716 WT4  6791 TIP3 H1   HT     0.417000        1.0080           0
   72717 WT4  6791 TIP3 H2   HT     0.417000        1.0080           0
   72718 WT4  6792 TIP3 OH2  OT    -0.834000       15.9994           0
   72719 WT4  6792 TIP3 H1   HT     0.417000        1.0080           0
   72720 WT4  6792 TIP3 H2   HT     0.417000        1.0080           0
   72721 WT4  6793 TIP3 OH2  OT    -0.834000       15.9994           0
   72722 WT4  6793 TIP3 H1   HT     0.417000        1.0080           0
   72723 WT4  6793 TIP3 H2   HT     0.417000        1.0080           0
   72724 WT4  6794 TIP3 OH2  OT    -0.834000       15.9994           0
   72725 WT4  6794 TIP3 H1   HT     0.417000        1.0080           0
   72726 WT4  6794 TIP3 H2   HT     0.417000        1.0080           0
   72727 WT4  6795 TIP3 OH2  OT    -0.834000       15.9994           0
   72728 WT4  6795 TIP3 H1   HT     0.417000        1.0080           0
   72729 WT4  6795 TIP3 H2   HT     0.417000        1.0080           0
   72730 WT4  6798 TIP3 OH2  OT    -0.834000       15.9994           0
   72731 WT4  6798 TIP3 H1   HT     0.417000        1.0080           0
   72732 WT4  6798 TIP3 H2   HT     0.417000        1.0080           0
   72733 WT4  6801 TIP3 OH2  OT    -0.834000       15.9994           0
   72734 WT4  6801 TIP3 H1   HT     0.417000        1.0080           0
   72735 WT4  6801 TIP3 H2   HT     0.417000        1.0080           0
   72736 WT4  6802 TIP3 OH2  OT    -0.834000       15.9994           0
   72737 WT4  6802 TIP3 H1   HT     0.417000        1.0080           0
   72738 WT4  6802 TIP3 H2   HT     0.417000        1.0080           0
   72739 WT4  6803 TIP3 OH2  OT    -0.834000       15.9994           0
   72740 WT4  6803 TIP3 H1   HT     0.417000        1.0080           0
   72741 WT4  6803 TIP3 H2   HT     0.417000        1.0080           0
   72742 WT4  6807 TIP3 OH2  OT    -0.834000       15.9994           0
   72743 WT4  6807 TIP3 H1   HT     0.417000        1.0080           0
   72744 WT4  6807 TIP3 H2   HT     0.417000        1.0080           0
   72745 WT4  6808 TIP3 OH2  OT    -0.834000       15.9994           0
   72746 WT4  6808 TIP3 H1   HT     0.417000        1.0080           0
   72747 WT4  6808 TIP3 H2   HT     0.417000        1.0080           0
   72748 WT4  6809 TIP3 OH2  OT    -0.834000       15.9994           0
   72749 WT4  6809 TIP3 H1   HT     0.417000        1.0080           0
   72750 WT4  6809 TIP3 H2   HT     0.417000        1.0080           0
   72751 WT4  6810 TIP3 OH2  OT    -0.834000       15.9994           0
   72752 WT4  6810 TIP3 H1   HT     0.417000        1.0080           0
   72753 WT4  6810 TIP3 H2   HT     0.417000        1.0080           0
   72754 WT4  6812 TIP3 OH2  OT    -0.834000       15.9994           0
   72755 WT4  6812 TIP3 H1   HT     0.417000        1.0080           0
   72756 WT4  6812 TIP3 H2   HT     0.417000        1.0080           0
   72757 WT4  6813 TIP3 OH2  OT    -0.834000       15.9994           0
   72758 WT4  6813 TIP3 H1   HT     0.417000        1.0080           0
   72759 WT4  6813 TIP3 H2   HT     0.417000        1.0080           0
   72760 WT4  6816 TIP3 OH2  OT    -0.834000       15.9994           0
   72761 WT4  6816 TIP3 H1   HT     0.417000        1.0080           0
   72762 WT4  6816 TIP3 H2   HT     0.417000        1.0080           0
   72763 WT4  6817 TIP3 OH2  OT    -0.834000       15.9994           0
   72764 WT4  6817 TIP3 H1   HT     0.417000        1.0080           0
   72765 WT4  6817 TIP3 H2   HT     0.417000        1.0080           0
   72766 WT4  6819 TIP3 OH2  OT    -0.834000       15.9994           0
   72767 WT4  6819 TIP3 H1   HT     0.417000        1.0080           0
   72768 WT4  6819 TIP3 H2   HT     0.417000        1.0080           0
   72769 WT4  6820 TIP3 OH2  OT    -0.834000       15.9994           0
   72770 WT4  6820 TIP3 H1   HT     0.417000        1.0080           0
   72771 WT4  6820 TIP3 H2   HT     0.417000        1.0080           0
   72772 WT4  6823 TIP3 OH2  OT    -0.834000       15.9994           0
   72773 WT4  6823 TIP3 H1   HT     0.417000        1.0080           0
   72774 WT4  6823 TIP3 H2   HT     0.417000        1.0080           0
   72775 WT4  6825 TIP3 OH2  OT    -0.834000       15.9994           0
   72776 WT4  6825 TIP3 H1   HT     0.417000        1.0080           0
   72777 WT4  6825 TIP3 H2   HT     0.417000        1.0080           0
   72778 WT4  6826 TIP3 OH2  OT    -0.834000       15.9994           0
   72779 WT4  6826 TIP3 H1   HT     0.417000        1.0080           0
   72780 WT4  6826 TIP3 H2   HT     0.417000        1.0080           0
   72781 WT4  6827 TIP3 OH2  OT    -0.834000       15.9994           0
   72782 WT4  6827 TIP3 H1   HT     0.417000        1.0080           0
   72783 WT4  6827 TIP3 H2   HT     0.417000        1.0080           0
   72784 WT4  6828 TIP3 OH2  OT    -0.834000       15.9994           0
   72785 WT4  6828 TIP3 H1   HT     0.417000        1.0080           0
   72786 WT4  6828 TIP3 H2   HT     0.417000        1.0080           0
   72787 WT4  6829 TIP3 OH2  OT    -0.834000       15.9994           0
   72788 WT4  6829 TIP3 H1   HT     0.417000        1.0080           0
   72789 WT4  6829 TIP3 H2   HT     0.417000        1.0080           0
   72790 WT4  6831 TIP3 OH2  OT    -0.834000       15.9994           0
   72791 WT4  6831 TIP3 H1   HT     0.417000        1.0080           0
   72792 WT4  6831 TIP3 H2   HT     0.417000        1.0080           0
   72793 WT4  6832 TIP3 OH2  OT    -0.834000       15.9994           0
   72794 WT4  6832 TIP3 H1   HT     0.417000        1.0080           0
   72795 WT4  6832 TIP3 H2   HT     0.417000        1.0080           0
   72796 WT4  6834 TIP3 OH2  OT    -0.834000       15.9994           0
   72797 WT4  6834 TIP3 H1   HT     0.417000        1.0080           0
   72798 WT4  6834 TIP3 H2   HT     0.417000        1.0080           0
   72799 WT4  6835 TIP3 OH2  OT    -0.834000       15.9994           0
   72800 WT4  6835 TIP3 H1   HT     0.417000        1.0080           0
   72801 WT4  6835 TIP3 H2   HT     0.417000        1.0080           0
   72802 WT4  6846 TIP3 OH2  OT    -0.834000       15.9994           0
   72803 WT4  6846 TIP3 H1   HT     0.417000        1.0080           0
   72804 WT4  6846 TIP3 H2   HT     0.417000        1.0080           0
   72805 WT4  6848 TIP3 OH2  OT    -0.834000       15.9994           0
   72806 WT4  6848 TIP3 H1   HT     0.417000        1.0080           0
   72807 WT4  6848 TIP3 H2   HT     0.417000        1.0080           0
   72808 WT4  6849 TIP3 OH2  OT    -0.834000       15.9994           0
   72809 WT4  6849 TIP3 H1   HT     0.417000        1.0080           0
   72810 WT4  6849 TIP3 H2   HT     0.417000        1.0080           0
   72811 WT4  6850 TIP3 OH2  OT    -0.834000       15.9994           0
   72812 WT4  6850 TIP3 H1   HT     0.417000        1.0080           0
   72813 WT4  6850 TIP3 H2   HT     0.417000        1.0080           0
   72814 WT4  6851 TIP3 OH2  OT    -0.834000       15.9994           0
   72815 WT4  6851 TIP3 H1   HT     0.417000        1.0080           0
   72816 WT4  6851 TIP3 H2   HT     0.417000        1.0080           0
   72817 WT4  6853 TIP3 OH2  OT    -0.834000       15.9994           0
   72818 WT4  6853 TIP3 H1   HT     0.417000        1.0080           0
   72819 WT4  6853 TIP3 H2   HT     0.417000        1.0080           0
   72820 WT4  6854 TIP3 OH2  OT    -0.834000       15.9994           0
   72821 WT4  6854 TIP3 H1   HT     0.417000        1.0080           0
   72822 WT4  6854 TIP3 H2   HT     0.417000        1.0080           0
   72823 WT4  6855 TIP3 OH2  OT    -0.834000       15.9994           0
   72824 WT4  6855 TIP3 H1   HT     0.417000        1.0080           0
   72825 WT4  6855 TIP3 H2   HT     0.417000        1.0080           0
   72826 WT4  6856 TIP3 OH2  OT    -0.834000       15.9994           0
   72827 WT4  6856 TIP3 H1   HT     0.417000        1.0080           0
   72828 WT4  6856 TIP3 H2   HT     0.417000        1.0080           0
   72829 WT4  6857 TIP3 OH2  OT    -0.834000       15.9994           0
   72830 WT4  6857 TIP3 H1   HT     0.417000        1.0080           0
   72831 WT4  6857 TIP3 H2   HT     0.417000        1.0080           0
   72832 WT4  6858 TIP3 OH2  OT    -0.834000       15.9994           0
   72833 WT4  6858 TIP3 H1   HT     0.417000        1.0080           0
   72834 WT4  6858 TIP3 H2   HT     0.417000        1.0080           0
   72835 WT4  6859 TIP3 OH2  OT    -0.834000       15.9994           0
   72836 WT4  6859 TIP3 H1   HT     0.417000        1.0080           0
   72837 WT4  6859 TIP3 H2   HT     0.417000        1.0080           0
   72838 WT4  6863 TIP3 OH2  OT    -0.834000       15.9994           0
   72839 WT4  6863 TIP3 H1   HT     0.417000        1.0080           0
   72840 WT4  6863 TIP3 H2   HT     0.417000        1.0080           0
   72841 WT4  6866 TIP3 OH2  OT    -0.834000       15.9994           0
   72842 WT4  6866 TIP3 H1   HT     0.417000        1.0080           0
   72843 WT4  6866 TIP3 H2   HT     0.417000        1.0080           0
   72844 WT4  6867 TIP3 OH2  OT    -0.834000       15.9994           0
   72845 WT4  6867 TIP3 H1   HT     0.417000        1.0080           0
   72846 WT4  6867 TIP3 H2   HT     0.417000        1.0080           0
   72847 WT4  6869 TIP3 OH2  OT    -0.834000       15.9994           0
   72848 WT4  6869 TIP3 H1   HT     0.417000        1.0080           0
   72849 WT4  6869 TIP3 H2   HT     0.417000        1.0080           0
   72850 WT4  6870 TIP3 OH2  OT    -0.834000       15.9994           0
   72851 WT4  6870 TIP3 H1   HT     0.417000        1.0080           0
   72852 WT4  6870 TIP3 H2   HT     0.417000        1.0080           0
   72853 WT4  6872 TIP3 OH2  OT    -0.834000       15.9994           0
   72854 WT4  6872 TIP3 H1   HT     0.417000        1.0080           0
   72855 WT4  6872 TIP3 H2   HT     0.417000        1.0080           0
   72856 WT4  6874 TIP3 OH2  OT    -0.834000       15.9994           0
   72857 WT4  6874 TIP3 H1   HT     0.417000        1.0080           0
   72858 WT4  6874 TIP3 H2   HT     0.417000        1.0080           0
   72859 WT4  6875 TIP3 OH2  OT    -0.834000       15.9994           0
   72860 WT4  6875 TIP3 H1   HT     0.417000        1.0080           0
   72861 WT4  6875 TIP3 H2   HT     0.417000        1.0080           0
   72862 WT4  6876 TIP3 OH2  OT    -0.834000       15.9994           0
   72863 WT4  6876 TIP3 H1   HT     0.417000        1.0080           0
   72864 WT4  6876 TIP3 H2   HT     0.417000        1.0080           0
   72865 WT4  6877 TIP3 OH2  OT    -0.834000       15.9994           0
   72866 WT4  6877 TIP3 H1   HT     0.417000        1.0080           0
   72867 WT4  6877 TIP3 H2   HT     0.417000        1.0080           0
   72868 WT4  6878 TIP3 OH2  OT    -0.834000       15.9994           0
   72869 WT4  6878 TIP3 H1   HT     0.417000        1.0080           0
   72870 WT4  6878 TIP3 H2   HT     0.417000        1.0080           0
   72871 WT4  6879 TIP3 OH2  OT    -0.834000       15.9994           0
   72872 WT4  6879 TIP3 H1   HT     0.417000        1.0080           0
   72873 WT4  6879 TIP3 H2   HT     0.417000        1.0080           0
   72874 WT4  6880 TIP3 OH2  OT    -0.834000       15.9994           0
   72875 WT4  6880 TIP3 H1   HT     0.417000        1.0080           0
   72876 WT4  6880 TIP3 H2   HT     0.417000        1.0080           0
   72877 WT4  6882 TIP3 OH2  OT    -0.834000       15.9994           0
   72878 WT4  6882 TIP3 H1   HT     0.417000        1.0080           0
   72879 WT4  6882 TIP3 H2   HT     0.417000        1.0080           0
   72880 WT4  6887 TIP3 OH2  OT    -0.834000       15.9994           0
   72881 WT4  6887 TIP3 H1   HT     0.417000        1.0080           0
   72882 WT4  6887 TIP3 H2   HT     0.417000        1.0080           0
   72883 WT4  6892 TIP3 OH2  OT    -0.834000       15.9994           0
   72884 WT4  6892 TIP3 H1   HT     0.417000        1.0080           0
   72885 WT4  6892 TIP3 H2   HT     0.417000        1.0080           0
   72886 WT4  6895 TIP3 OH2  OT    -0.834000       15.9994           0
   72887 WT4  6895 TIP3 H1   HT     0.417000        1.0080           0
   72888 WT4  6895 TIP3 H2   HT     0.417000        1.0080           0
   72889 WT4  6896 TIP3 OH2  OT    -0.834000       15.9994           0
   72890 WT4  6896 TIP3 H1   HT     0.417000        1.0080           0
   72891 WT4  6896 TIP3 H2   HT     0.417000        1.0080           0
   72892 WT4  6897 TIP3 OH2  OT    -0.834000       15.9994           0
   72893 WT4  6897 TIP3 H1   HT     0.417000        1.0080           0
   72894 WT4  6897 TIP3 H2   HT     0.417000        1.0080           0
   72895 WT4  6898 TIP3 OH2  OT    -0.834000       15.9994           0
   72896 WT4  6898 TIP3 H1   HT     0.417000        1.0080           0
   72897 WT4  6898 TIP3 H2   HT     0.417000        1.0080           0
   72898 WT4  6899 TIP3 OH2  OT    -0.834000       15.9994           0
   72899 WT4  6899 TIP3 H1   HT     0.417000        1.0080           0
   72900 WT4  6899 TIP3 H2   HT     0.417000        1.0080           0
   72901 WT4  6901 TIP3 OH2  OT    -0.834000       15.9994           0
   72902 WT4  6901 TIP3 H1   HT     0.417000        1.0080           0
   72903 WT4  6901 TIP3 H2   HT     0.417000        1.0080           0
   72904 WT4  6902 TIP3 OH2  OT    -0.834000       15.9994           0
   72905 WT4  6902 TIP3 H1   HT     0.417000        1.0080           0
   72906 WT4  6902 TIP3 H2   HT     0.417000        1.0080           0
   72907 WT4  6905 TIP3 OH2  OT    -0.834000       15.9994           0
   72908 WT4  6905 TIP3 H1   HT     0.417000        1.0080           0
   72909 WT4  6905 TIP3 H2   HT     0.417000        1.0080           0
   72910 WT4  6911 TIP3 OH2  OT    -0.834000       15.9994           0
   72911 WT4  6911 TIP3 H1   HT     0.417000        1.0080           0
   72912 WT4  6911 TIP3 H2   HT     0.417000        1.0080           0
   72913 WT4  6914 TIP3 OH2  OT    -0.834000       15.9994           0
   72914 WT4  6914 TIP3 H1   HT     0.417000        1.0080           0
   72915 WT4  6914 TIP3 H2   HT     0.417000        1.0080           0
   72916 WT4  6915 TIP3 OH2  OT    -0.834000       15.9994           0
   72917 WT4  6915 TIP3 H1   HT     0.417000        1.0080           0
   72918 WT4  6915 TIP3 H2   HT     0.417000        1.0080           0
   72919 WT4  6916 TIP3 OH2  OT    -0.834000       15.9994           0
   72920 WT4  6916 TIP3 H1   HT     0.417000        1.0080           0
   72921 WT4  6916 TIP3 H2   HT     0.417000        1.0080           0
   72922 WT4  6917 TIP3 OH2  OT    -0.834000       15.9994           0
   72923 WT4  6917 TIP3 H1   HT     0.417000        1.0080           0
   72924 WT4  6917 TIP3 H2   HT     0.417000        1.0080           0
   72925 WT4  6921 TIP3 OH2  OT    -0.834000       15.9994           0
   72926 WT4  6921 TIP3 H1   HT     0.417000        1.0080           0
   72927 WT4  6921 TIP3 H2   HT     0.417000        1.0080           0
   72928 WT4  6926 TIP3 OH2  OT    -0.834000       15.9994           0
   72929 WT4  6926 TIP3 H1   HT     0.417000        1.0080           0
   72930 WT4  6926 TIP3 H2   HT     0.417000        1.0080           0
   72931 WT4  6934 TIP3 OH2  OT    -0.834000       15.9994           0
   72932 WT4  6934 TIP3 H1   HT     0.417000        1.0080           0
   72933 WT4  6934 TIP3 H2   HT     0.417000        1.0080           0
   72934 WT4  6941 TIP3 OH2  OT    -0.834000       15.9994           0
   72935 WT4  6941 TIP3 H1   HT     0.417000        1.0080           0
   72936 WT4  6941 TIP3 H2   HT     0.417000        1.0080           0
   72937 WT4  6944 TIP3 OH2  OT    -0.834000       15.9994           0
   72938 WT4  6944 TIP3 H1   HT     0.417000        1.0080           0
   72939 WT4  6944 TIP3 H2   HT     0.417000        1.0080           0
   72940 WT4  6947 TIP3 OH2  OT    -0.834000       15.9994           0
   72941 WT4  6947 TIP3 H1   HT     0.417000        1.0080           0
   72942 WT4  6947 TIP3 H2   HT     0.417000        1.0080           0
   72943 WT4  6952 TIP3 OH2  OT    -0.834000       15.9994           0
   72944 WT4  6952 TIP3 H1   HT     0.417000        1.0080           0
   72945 WT4  6952 TIP3 H2   HT     0.417000        1.0080           0
   72946 WT4  6953 TIP3 OH2  OT    -0.834000       15.9994           0
   72947 WT4  6953 TIP3 H1   HT     0.417000        1.0080           0
   72948 WT4  6953 TIP3 H2   HT     0.417000        1.0080           0
   72949 WT4  6955 TIP3 OH2  OT    -0.834000       15.9994           0
   72950 WT4  6955 TIP3 H1   HT     0.417000        1.0080           0
   72951 WT4  6955 TIP3 H2   HT     0.417000        1.0080           0
   72952 WT4  6962 TIP3 OH2  OT    -0.834000       15.9994           0
   72953 WT4  6962 TIP3 H1   HT     0.417000        1.0080           0
   72954 WT4  6962 TIP3 H2   HT     0.417000        1.0080           0
   72955 WT4  6975 TIP3 OH2  OT    -0.834000       15.9994           0
   72956 WT4  6975 TIP3 H1   HT     0.417000        1.0080           0
   72957 WT4  6975 TIP3 H2   HT     0.417000        1.0080           0
   72958 WT4  6979 TIP3 OH2  OT    -0.834000       15.9994           0
   72959 WT4  6979 TIP3 H1   HT     0.417000        1.0080           0
   72960 WT4  6979 TIP3 H2   HT     0.417000        1.0080           0
   72961 WT4  6999 TIP3 OH2  OT    -0.834000       15.9994           0
   72962 WT4  6999 TIP3 H1   HT     0.417000        1.0080           0
   72963 WT4  6999 TIP3 H2   HT     0.417000        1.0080           0
   72964 WT4  7001 TIP3 OH2  OT    -0.834000       15.9994           0
   72965 WT4  7001 TIP3 H1   HT     0.417000        1.0080           0
   72966 WT4  7001 TIP3 H2   HT     0.417000        1.0080           0
   72967 WT4  7017 TIP3 OH2  OT    -0.834000       15.9994           0
   72968 WT4  7017 TIP3 H1   HT     0.417000        1.0080           0
   72969 WT4  7017 TIP3 H2   HT     0.417000        1.0080           0
   72970 WT4  7019 TIP3 OH2  OT    -0.834000       15.9994           0
   72971 WT4  7019 TIP3 H1   HT     0.417000        1.0080           0
   72972 WT4  7019 TIP3 H2   HT     0.417000        1.0080           0
   72973 WT4  7020 TIP3 OH2  OT    -0.834000       15.9994           0
   72974 WT4  7020 TIP3 H1   HT     0.417000        1.0080           0
   72975 WT4  7020 TIP3 H2   HT     0.417000        1.0080           0
   72976 WT4  7021 TIP3 OH2  OT    -0.834000       15.9994           0
   72977 WT4  7021 TIP3 H1   HT     0.417000        1.0080           0
   72978 WT4  7021 TIP3 H2   HT     0.417000        1.0080           0
   72979 WT4  7023 TIP3 OH2  OT    -0.834000       15.9994           0
   72980 WT4  7023 TIP3 H1   HT     0.417000        1.0080           0
   72981 WT4  7023 TIP3 H2   HT     0.417000        1.0080           0
   72982 WT4  7027 TIP3 OH2  OT    -0.834000       15.9994           0
   72983 WT4  7027 TIP3 H1   HT     0.417000        1.0080           0
   72984 WT4  7027 TIP3 H2   HT     0.417000        1.0080           0
   72985 WT4  7029 TIP3 OH2  OT    -0.834000       15.9994           0
   72986 WT4  7029 TIP3 H1   HT     0.417000        1.0080           0
   72987 WT4  7029 TIP3 H2   HT     0.417000        1.0080           0
   72988 WT4  7040 TIP3 OH2  OT    -0.834000       15.9994           0
   72989 WT4  7040 TIP3 H1   HT     0.417000        1.0080           0
   72990 WT4  7040 TIP3 H2   HT     0.417000        1.0080           0
   72991 WT4  7041 TIP3 OH2  OT    -0.834000       15.9994           0
   72992 WT4  7041 TIP3 H1   HT     0.417000        1.0080           0
   72993 WT4  7041 TIP3 H2   HT     0.417000        1.0080           0
   72994 WT4  7042 TIP3 OH2  OT    -0.834000       15.9994           0
   72995 WT4  7042 TIP3 H1   HT     0.417000        1.0080           0
   72996 WT4  7042 TIP3 H2   HT     0.417000        1.0080           0
   72997 WT4  7043 TIP3 OH2  OT    -0.834000       15.9994           0
   72998 WT4  7043 TIP3 H1   HT     0.417000        1.0080           0
   72999 WT4  7043 TIP3 H2   HT     0.417000        1.0080           0
   73000 WT4  7050 TIP3 OH2  OT    -0.834000       15.9994           0
   73001 WT4  7050 TIP3 H1   HT     0.417000        1.0080           0
   73002 WT4  7050 TIP3 H2   HT     0.417000        1.0080           0
   73003 WT4  7052 TIP3 OH2  OT    -0.834000       15.9994           0
   73004 WT4  7052 TIP3 H1   HT     0.417000        1.0080           0
   73005 WT4  7052 TIP3 H2   HT     0.417000        1.0080           0
   73006 WT4  7058 TIP3 OH2  OT    -0.834000       15.9994           0
   73007 WT4  7058 TIP3 H1   HT     0.417000        1.0080           0
   73008 WT4  7058 TIP3 H2   HT     0.417000        1.0080           0
   73009 WT4  7059 TIP3 OH2  OT    -0.834000       15.9994           0
   73010 WT4  7059 TIP3 H1   HT     0.417000        1.0080           0
   73011 WT4  7059 TIP3 H2   HT     0.417000        1.0080           0
   73012 WT4  7062 TIP3 OH2  OT    -0.834000       15.9994           0
   73013 WT4  7062 TIP3 H1   HT     0.417000        1.0080           0
   73014 WT4  7062 TIP3 H2   HT     0.417000        1.0080           0
   73015 WT4  7063 TIP3 OH2  OT    -0.834000       15.9994           0
   73016 WT4  7063 TIP3 H1   HT     0.417000        1.0080           0
   73017 WT4  7063 TIP3 H2   HT     0.417000        1.0080           0
   73018 WT4  7065 TIP3 OH2  OT    -0.834000       15.9994           0
   73019 WT4  7065 TIP3 H1   HT     0.417000        1.0080           0
   73020 WT4  7065 TIP3 H2   HT     0.417000        1.0080           0
   73021 WT4  7067 TIP3 OH2  OT    -0.834000       15.9994           0
   73022 WT4  7067 TIP3 H1   HT     0.417000        1.0080           0
   73023 WT4  7067 TIP3 H2   HT     0.417000        1.0080           0
   73024 WT4  7068 TIP3 OH2  OT    -0.834000       15.9994           0
   73025 WT4  7068 TIP3 H1   HT     0.417000        1.0080           0
   73026 WT4  7068 TIP3 H2   HT     0.417000        1.0080           0
   73027 WT4  7073 TIP3 OH2  OT    -0.834000       15.9994           0
   73028 WT4  7073 TIP3 H1   HT     0.417000        1.0080           0
   73029 WT4  7073 TIP3 H2   HT     0.417000        1.0080           0
   73030 WT4  7076 TIP3 OH2  OT    -0.834000       15.9994           0
   73031 WT4  7076 TIP3 H1   HT     0.417000        1.0080           0
   73032 WT4  7076 TIP3 H2   HT     0.417000        1.0080           0
   73033 WT4  7078 TIP3 OH2  OT    -0.834000       15.9994           0
   73034 WT4  7078 TIP3 H1   HT     0.417000        1.0080           0
   73035 WT4  7078 TIP3 H2   HT     0.417000        1.0080           0
   73036 WT4  7081 TIP3 OH2  OT    -0.834000       15.9994           0
   73037 WT4  7081 TIP3 H1   HT     0.417000        1.0080           0
   73038 WT4  7081 TIP3 H2   HT     0.417000        1.0080           0
   73039 WT4  7083 TIP3 OH2  OT    -0.834000       15.9994           0
   73040 WT4  7083 TIP3 H1   HT     0.417000        1.0080           0
   73041 WT4  7083 TIP3 H2   HT     0.417000        1.0080           0
   73042 WT4  7085 TIP3 OH2  OT    -0.834000       15.9994           0
   73043 WT4  7085 TIP3 H1   HT     0.417000        1.0080           0
   73044 WT4  7085 TIP3 H2   HT     0.417000        1.0080           0
   73045 WT4  7086 TIP3 OH2  OT    -0.834000       15.9994           0
   73046 WT4  7086 TIP3 H1   HT     0.417000        1.0080           0
   73047 WT4  7086 TIP3 H2   HT     0.417000        1.0080           0
   73048 WT4  7089 TIP3 OH2  OT    -0.834000       15.9994           0
   73049 WT4  7089 TIP3 H1   HT     0.417000        1.0080           0
   73050 WT4  7089 TIP3 H2   HT     0.417000        1.0080           0
   73051 WT4  7099 TIP3 OH2  OT    -0.834000       15.9994           0
   73052 WT4  7099 TIP3 H1   HT     0.417000        1.0080           0
   73053 WT4  7099 TIP3 H2   HT     0.417000        1.0080           0
   73054 WT4  7100 TIP3 OH2  OT    -0.834000       15.9994           0
   73055 WT4  7100 TIP3 H1   HT     0.417000        1.0080           0
   73056 WT4  7100 TIP3 H2   HT     0.417000        1.0080           0
   73057 WT4  7101 TIP3 OH2  OT    -0.834000       15.9994           0
   73058 WT4  7101 TIP3 H1   HT     0.417000        1.0080           0
   73059 WT4  7101 TIP3 H2   HT     0.417000        1.0080           0
   73060 WT4  7102 TIP3 OH2  OT    -0.834000       15.9994           0
   73061 WT4  7102 TIP3 H1   HT     0.417000        1.0080           0
   73062 WT4  7102 TIP3 H2   HT     0.417000        1.0080           0
   73063 WT4  7103 TIP3 OH2  OT    -0.834000       15.9994           0
   73064 WT4  7103 TIP3 H1   HT     0.417000        1.0080           0
   73065 WT4  7103 TIP3 H2   HT     0.417000        1.0080           0
   73066 WT4  7104 TIP3 OH2  OT    -0.834000       15.9994           0
   73067 WT4  7104 TIP3 H1   HT     0.417000        1.0080           0
   73068 WT4  7104 TIP3 H2   HT     0.417000        1.0080           0
   73069 WT4  7105 TIP3 OH2  OT    -0.834000       15.9994           0
   73070 WT4  7105 TIP3 H1   HT     0.417000        1.0080           0
   73071 WT4  7105 TIP3 H2   HT     0.417000        1.0080           0
   73072 WT4  7106 TIP3 OH2  OT    -0.834000       15.9994           0
   73073 WT4  7106 TIP3 H1   HT     0.417000        1.0080           0
   73074 WT4  7106 TIP3 H2   HT     0.417000        1.0080           0
   73075 WT4  7109 TIP3 OH2  OT    -0.834000       15.9994           0
   73076 WT4  7109 TIP3 H1   HT     0.417000        1.0080           0
   73077 WT4  7109 TIP3 H2   HT     0.417000        1.0080           0
   73078 WT4  7110 TIP3 OH2  OT    -0.834000       15.9994           0
   73079 WT4  7110 TIP3 H1   HT     0.417000        1.0080           0
   73080 WT4  7110 TIP3 H2   HT     0.417000        1.0080           0
   73081 WT4  7111 TIP3 OH2  OT    -0.834000       15.9994           0
   73082 WT4  7111 TIP3 H1   HT     0.417000        1.0080           0
   73083 WT4  7111 TIP3 H2   HT     0.417000        1.0080           0
   73084 WT4  7112 TIP3 OH2  OT    -0.834000       15.9994           0
   73085 WT4  7112 TIP3 H1   HT     0.417000        1.0080           0
   73086 WT4  7112 TIP3 H2   HT     0.417000        1.0080           0
   73087 WT4  7120 TIP3 OH2  OT    -0.834000       15.9994           0
   73088 WT4  7120 TIP3 H1   HT     0.417000        1.0080           0
   73089 WT4  7120 TIP3 H2   HT     0.417000        1.0080           0
   73090 WT4  7121 TIP3 OH2  OT    -0.834000       15.9994           0
   73091 WT4  7121 TIP3 H1   HT     0.417000        1.0080           0
   73092 WT4  7121 TIP3 H2   HT     0.417000        1.0080           0
   73093 WT4  7122 TIP3 OH2  OT    -0.834000       15.9994           0
   73094 WT4  7122 TIP3 H1   HT     0.417000        1.0080           0
   73095 WT4  7122 TIP3 H2   HT     0.417000        1.0080           0
   73096 WT4  7123 TIP3 OH2  OT    -0.834000       15.9994           0
   73097 WT4  7123 TIP3 H1   HT     0.417000        1.0080           0
   73098 WT4  7123 TIP3 H2   HT     0.417000        1.0080           0
   73099 WT4  7125 TIP3 OH2  OT    -0.834000       15.9994           0
   73100 WT4  7125 TIP3 H1   HT     0.417000        1.0080           0
   73101 WT4  7125 TIP3 H2   HT     0.417000        1.0080           0
   73102 WT4  7126 TIP3 OH2  OT    -0.834000       15.9994           0
   73103 WT4  7126 TIP3 H1   HT     0.417000        1.0080           0
   73104 WT4  7126 TIP3 H2   HT     0.417000        1.0080           0
   73105 WT4  7127 TIP3 OH2  OT    -0.834000       15.9994           0
   73106 WT4  7127 TIP3 H1   HT     0.417000        1.0080           0
   73107 WT4  7127 TIP3 H2   HT     0.417000        1.0080           0
   73108 WT4  7128 TIP3 OH2  OT    -0.834000       15.9994           0
   73109 WT4  7128 TIP3 H1   HT     0.417000        1.0080           0
   73110 WT4  7128 TIP3 H2   HT     0.417000        1.0080           0
   73111 WT4  7130 TIP3 OH2  OT    -0.834000       15.9994           0
   73112 WT4  7130 TIP3 H1   HT     0.417000        1.0080           0
   73113 WT4  7130 TIP3 H2   HT     0.417000        1.0080           0
   73114 WT4  7132 TIP3 OH2  OT    -0.834000       15.9994           0
   73115 WT4  7132 TIP3 H1   HT     0.417000        1.0080           0
   73116 WT4  7132 TIP3 H2   HT     0.417000        1.0080           0
   73117 WT4  7133 TIP3 OH2  OT    -0.834000       15.9994           0
   73118 WT4  7133 TIP3 H1   HT     0.417000        1.0080           0
   73119 WT4  7133 TIP3 H2   HT     0.417000        1.0080           0
   73120 WT4  7141 TIP3 OH2  OT    -0.834000       15.9994           0
   73121 WT4  7141 TIP3 H1   HT     0.417000        1.0080           0
   73122 WT4  7141 TIP3 H2   HT     0.417000        1.0080           0
   73123 WT4  7142 TIP3 OH2  OT    -0.834000       15.9994           0
   73124 WT4  7142 TIP3 H1   HT     0.417000        1.0080           0
   73125 WT4  7142 TIP3 H2   HT     0.417000        1.0080           0
   73126 WT4  7143 TIP3 OH2  OT    -0.834000       15.9994           0
   73127 WT4  7143 TIP3 H1   HT     0.417000        1.0080           0
   73128 WT4  7143 TIP3 H2   HT     0.417000        1.0080           0
   73129 WT4  7144 TIP3 OH2  OT    -0.834000       15.9994           0
   73130 WT4  7144 TIP3 H1   HT     0.417000        1.0080           0
   73131 WT4  7144 TIP3 H2   HT     0.417000        1.0080           0
   73132 WT4  7145 TIP3 OH2  OT    -0.834000       15.9994           0
   73133 WT4  7145 TIP3 H1   HT     0.417000        1.0080           0
   73134 WT4  7145 TIP3 H2   HT     0.417000        1.0080           0
   73135 WT4  7146 TIP3 OH2  OT    -0.834000       15.9994           0
   73136 WT4  7146 TIP3 H1   HT     0.417000        1.0080           0
   73137 WT4  7146 TIP3 H2   HT     0.417000        1.0080           0
   73138 WT4  7147 TIP3 OH2  OT    -0.834000       15.9994           0
   73139 WT4  7147 TIP3 H1   HT     0.417000        1.0080           0
   73140 WT4  7147 TIP3 H2   HT     0.417000        1.0080           0
   73141 WT4  7148 TIP3 OH2  OT    -0.834000       15.9994           0
   73142 WT4  7148 TIP3 H1   HT     0.417000        1.0080           0
   73143 WT4  7148 TIP3 H2   HT     0.417000        1.0080           0
   73144 WT4  7149 TIP3 OH2  OT    -0.834000       15.9994           0
   73145 WT4  7149 TIP3 H1   HT     0.417000        1.0080           0
   73146 WT4  7149 TIP3 H2   HT     0.417000        1.0080           0
   73147 WT4  7150 TIP3 OH2  OT    -0.834000       15.9994           0
   73148 WT4  7150 TIP3 H1   HT     0.417000        1.0080           0
   73149 WT4  7150 TIP3 H2   HT     0.417000        1.0080           0
   73150 WT4  7151 TIP3 OH2  OT    -0.834000       15.9994           0
   73151 WT4  7151 TIP3 H1   HT     0.417000        1.0080           0
   73152 WT4  7151 TIP3 H2   HT     0.417000        1.0080           0
   73153 WT4  7152 TIP3 OH2  OT    -0.834000       15.9994           0
   73154 WT4  7152 TIP3 H1   HT     0.417000        1.0080           0
   73155 WT4  7152 TIP3 H2   HT     0.417000        1.0080           0
   73156 WT4  7153 TIP3 OH2  OT    -0.834000       15.9994           0
   73157 WT4  7153 TIP3 H1   HT     0.417000        1.0080           0
   73158 WT4  7153 TIP3 H2   HT     0.417000        1.0080           0
   73159 WT4  7154 TIP3 OH2  OT    -0.834000       15.9994           0
   73160 WT4  7154 TIP3 H1   HT     0.417000        1.0080           0
   73161 WT4  7154 TIP3 H2   HT     0.417000        1.0080           0
   73162 WT4  7161 TIP3 OH2  OT    -0.834000       15.9994           0
   73163 WT4  7161 TIP3 H1   HT     0.417000        1.0080           0
   73164 WT4  7161 TIP3 H2   HT     0.417000        1.0080           0
   73165 WT4  7166 TIP3 OH2  OT    -0.834000       15.9994           0
   73166 WT4  7166 TIP3 H1   HT     0.417000        1.0080           0
   73167 WT4  7166 TIP3 H2   HT     0.417000        1.0080           0
   73168 WT4  7167 TIP3 OH2  OT    -0.834000       15.9994           0
   73169 WT4  7167 TIP3 H1   HT     0.417000        1.0080           0
   73170 WT4  7167 TIP3 H2   HT     0.417000        1.0080           0
   73171 WT4  7168 TIP3 OH2  OT    -0.834000       15.9994           0
   73172 WT4  7168 TIP3 H1   HT     0.417000        1.0080           0
   73173 WT4  7168 TIP3 H2   HT     0.417000        1.0080           0
   73174 WT4  7169 TIP3 OH2  OT    -0.834000       15.9994           0
   73175 WT4  7169 TIP3 H1   HT     0.417000        1.0080           0
   73176 WT4  7169 TIP3 H2   HT     0.417000        1.0080           0
   73177 WT4  7170 TIP3 OH2  OT    -0.834000       15.9994           0
   73178 WT4  7170 TIP3 H1   HT     0.417000        1.0080           0
   73179 WT4  7170 TIP3 H2   HT     0.417000        1.0080           0
   73180 WT4  7171 TIP3 OH2  OT    -0.834000       15.9994           0
   73181 WT4  7171 TIP3 H1   HT     0.417000        1.0080           0
   73182 WT4  7171 TIP3 H2   HT     0.417000        1.0080           0
   73183 WT4  7172 TIP3 OH2  OT    -0.834000       15.9994           0
   73184 WT4  7172 TIP3 H1   HT     0.417000        1.0080           0
   73185 WT4  7172 TIP3 H2   HT     0.417000        1.0080           0
   73186 WT4  7173 TIP3 OH2  OT    -0.834000       15.9994           0
   73187 WT4  7173 TIP3 H1   HT     0.417000        1.0080           0
   73188 WT4  7173 TIP3 H2   HT     0.417000        1.0080           0
   73189 WT4  7174 TIP3 OH2  OT    -0.834000       15.9994           0
   73190 WT4  7174 TIP3 H1   HT     0.417000        1.0080           0
   73191 WT4  7174 TIP3 H2   HT     0.417000        1.0080           0
   73192 WT4  7175 TIP3 OH2  OT    -0.834000       15.9994           0
   73193 WT4  7175 TIP3 H1   HT     0.417000        1.0080           0
   73194 WT4  7175 TIP3 H2   HT     0.417000        1.0080           0
   73195 WT4  7176 TIP3 OH2  OT    -0.834000       15.9994           0
   73196 WT4  7176 TIP3 H1   HT     0.417000        1.0080           0
   73197 WT4  7176 TIP3 H2   HT     0.417000        1.0080           0
   73198 WT4  7178 TIP3 OH2  OT    -0.834000       15.9994           0
   73199 WT4  7178 TIP3 H1   HT     0.417000        1.0080           0
   73200 WT4  7178 TIP3 H2   HT     0.417000        1.0080           0
   73201 WT4  7179 TIP3 OH2  OT    -0.834000       15.9994           0
   73202 WT4  7179 TIP3 H1   HT     0.417000        1.0080           0
   73203 WT4  7179 TIP3 H2   HT     0.417000        1.0080           0
   73204 WT4  7181 TIP3 OH2  OT    -0.834000       15.9994           0
   73205 WT4  7181 TIP3 H1   HT     0.417000        1.0080           0
   73206 WT4  7181 TIP3 H2   HT     0.417000        1.0080           0
   73207 WT4  7182 TIP3 OH2  OT    -0.834000       15.9994           0
   73208 WT4  7182 TIP3 H1   HT     0.417000        1.0080           0
   73209 WT4  7182 TIP3 H2   HT     0.417000        1.0080           0
   73210 WT4  7183 TIP3 OH2  OT    -0.834000       15.9994           0
   73211 WT4  7183 TIP3 H1   HT     0.417000        1.0080           0
   73212 WT4  7183 TIP3 H2   HT     0.417000        1.0080           0
   73213 WT4  7184 TIP3 OH2  OT    -0.834000       15.9994           0
   73214 WT4  7184 TIP3 H1   HT     0.417000        1.0080           0
   73215 WT4  7184 TIP3 H2   HT     0.417000        1.0080           0
   73216 WT4  7185 TIP3 OH2  OT    -0.834000       15.9994           0
   73217 WT4  7185 TIP3 H1   HT     0.417000        1.0080           0
   73218 WT4  7185 TIP3 H2   HT     0.417000        1.0080           0
   73219 WT4  7186 TIP3 OH2  OT    -0.834000       15.9994           0
   73220 WT4  7186 TIP3 H1   HT     0.417000        1.0080           0
   73221 WT4  7186 TIP3 H2   HT     0.417000        1.0080           0
   73222 WT4  7187 TIP3 OH2  OT    -0.834000       15.9994           0
   73223 WT4  7187 TIP3 H1   HT     0.417000        1.0080           0
   73224 WT4  7187 TIP3 H2   HT     0.417000        1.0080           0
   73225 WT4  7188 TIP3 OH2  OT    -0.834000       15.9994           0
   73226 WT4  7188 TIP3 H1   HT     0.417000        1.0080           0
   73227 WT4  7188 TIP3 H2   HT     0.417000        1.0080           0
   73228 WT4  7189 TIP3 OH2  OT    -0.834000       15.9994           0
   73229 WT4  7189 TIP3 H1   HT     0.417000        1.0080           0
   73230 WT4  7189 TIP3 H2   HT     0.417000        1.0080           0
   73231 WT4  7190 TIP3 OH2  OT    -0.834000       15.9994           0
   73232 WT4  7190 TIP3 H1   HT     0.417000        1.0080           0
   73233 WT4  7190 TIP3 H2   HT     0.417000        1.0080           0
   73234 WT4  7192 TIP3 OH2  OT    -0.834000       15.9994           0
   73235 WT4  7192 TIP3 H1   HT     0.417000        1.0080           0
   73236 WT4  7192 TIP3 H2   HT     0.417000        1.0080           0
   73237 WT4  7193 TIP3 OH2  OT    -0.834000       15.9994           0
   73238 WT4  7193 TIP3 H1   HT     0.417000        1.0080           0
   73239 WT4  7193 TIP3 H2   HT     0.417000        1.0080           0
   73240 WT4  7194 TIP3 OH2  OT    -0.834000       15.9994           0
   73241 WT4  7194 TIP3 H1   HT     0.417000        1.0080           0
   73242 WT4  7194 TIP3 H2   HT     0.417000        1.0080           0
   73243 WT4  7195 TIP3 OH2  OT    -0.834000       15.9994           0
   73244 WT4  7195 TIP3 H1   HT     0.417000        1.0080           0
   73245 WT4  7195 TIP3 H2   HT     0.417000        1.0080           0
   73246 WT4  7196 TIP3 OH2  OT    -0.834000       15.9994           0
   73247 WT4  7196 TIP3 H1   HT     0.417000        1.0080           0
   73248 WT4  7196 TIP3 H2   HT     0.417000        1.0080           0
   73249 WT4  7197 TIP3 OH2  OT    -0.834000       15.9994           0
   73250 WT4  7197 TIP3 H1   HT     0.417000        1.0080           0
   73251 WT4  7197 TIP3 H2   HT     0.417000        1.0080           0
   73252 WT4  7198 TIP3 OH2  OT    -0.834000       15.9994           0
   73253 WT4  7198 TIP3 H1   HT     0.417000        1.0080           0
   73254 WT4  7198 TIP3 H2   HT     0.417000        1.0080           0
   73255 WT4  7200 TIP3 OH2  OT    -0.834000       15.9994           0
   73256 WT4  7200 TIP3 H1   HT     0.417000        1.0080           0
   73257 WT4  7200 TIP3 H2   HT     0.417000        1.0080           0
   73258 WT4  7201 TIP3 OH2  OT    -0.834000       15.9994           0
   73259 WT4  7201 TIP3 H1   HT     0.417000        1.0080           0
   73260 WT4  7201 TIP3 H2   HT     0.417000        1.0080           0
   73261 WT4  7203 TIP3 OH2  OT    -0.834000       15.9994           0
   73262 WT4  7203 TIP3 H1   HT     0.417000        1.0080           0
   73263 WT4  7203 TIP3 H2   HT     0.417000        1.0080           0
   73264 WT4  7204 TIP3 OH2  OT    -0.834000       15.9994           0
   73265 WT4  7204 TIP3 H1   HT     0.417000        1.0080           0
   73266 WT4  7204 TIP3 H2   HT     0.417000        1.0080           0
   73267 WT4  7206 TIP3 OH2  OT    -0.834000       15.9994           0
   73268 WT4  7206 TIP3 H1   HT     0.417000        1.0080           0
   73269 WT4  7206 TIP3 H2   HT     0.417000        1.0080           0
   73270 WT4  7207 TIP3 OH2  OT    -0.834000       15.9994           0
   73271 WT4  7207 TIP3 H1   HT     0.417000        1.0080           0
   73272 WT4  7207 TIP3 H2   HT     0.417000        1.0080           0
   73273 WT4  7208 TIP3 OH2  OT    -0.834000       15.9994           0
   73274 WT4  7208 TIP3 H1   HT     0.417000        1.0080           0
   73275 WT4  7208 TIP3 H2   HT     0.417000        1.0080           0
   73276 WT4  7209 TIP3 OH2  OT    -0.834000       15.9994           0
   73277 WT4  7209 TIP3 H1   HT     0.417000        1.0080           0
   73278 WT4  7209 TIP3 H2   HT     0.417000        1.0080           0
   73279 WT4  7210 TIP3 OH2  OT    -0.834000       15.9994           0
   73280 WT4  7210 TIP3 H1   HT     0.417000        1.0080           0
   73281 WT4  7210 TIP3 H2   HT     0.417000        1.0080           0
   73282 WT4  7211 TIP3 OH2  OT    -0.834000       15.9994           0
   73283 WT4  7211 TIP3 H1   HT     0.417000        1.0080           0
   73284 WT4  7211 TIP3 H2   HT     0.417000        1.0080           0
   73285 WT4  7212 TIP3 OH2  OT    -0.834000       15.9994           0
   73286 WT4  7212 TIP3 H1   HT     0.417000        1.0080           0
   73287 WT4  7212 TIP3 H2   HT     0.417000        1.0080           0
   73288 WT4  7213 TIP3 OH2  OT    -0.834000       15.9994           0
   73289 WT4  7213 TIP3 H1   HT     0.417000        1.0080           0
   73290 WT4  7213 TIP3 H2   HT     0.417000        1.0080           0
   73291 WT4  7215 TIP3 OH2  OT    -0.834000       15.9994           0
   73292 WT4  7215 TIP3 H1   HT     0.417000        1.0080           0
   73293 WT4  7215 TIP3 H2   HT     0.417000        1.0080           0
   73294 WT4  7216 TIP3 OH2  OT    -0.834000       15.9994           0
   73295 WT4  7216 TIP3 H1   HT     0.417000        1.0080           0
   73296 WT4  7216 TIP3 H2   HT     0.417000        1.0080           0
   73297 WT4  7222 TIP3 OH2  OT    -0.834000       15.9994           0
   73298 WT4  7222 TIP3 H1   HT     0.417000        1.0080           0
   73299 WT4  7222 TIP3 H2   HT     0.417000        1.0080           0
   73300 WT4  7226 TIP3 OH2  OT    -0.834000       15.9994           0
   73301 WT4  7226 TIP3 H1   HT     0.417000        1.0080           0
   73302 WT4  7226 TIP3 H2   HT     0.417000        1.0080           0
   73303 WT4  7227 TIP3 OH2  OT    -0.834000       15.9994           0
   73304 WT4  7227 TIP3 H1   HT     0.417000        1.0080           0
   73305 WT4  7227 TIP3 H2   HT     0.417000        1.0080           0
   73306 WT4  7228 TIP3 OH2  OT    -0.834000       15.9994           0
   73307 WT4  7228 TIP3 H1   HT     0.417000        1.0080           0
   73308 WT4  7228 TIP3 H2   HT     0.417000        1.0080           0
   73309 WT4  7229 TIP3 OH2  OT    -0.834000       15.9994           0
   73310 WT4  7229 TIP3 H1   HT     0.417000        1.0080           0
   73311 WT4  7229 TIP3 H2   HT     0.417000        1.0080           0
   73312 WT4  7230 TIP3 OH2  OT    -0.834000       15.9994           0
   73313 WT4  7230 TIP3 H1   HT     0.417000        1.0080           0
   73314 WT4  7230 TIP3 H2   HT     0.417000        1.0080           0
   73315 WT4  7231 TIP3 OH2  OT    -0.834000       15.9994           0
   73316 WT4  7231 TIP3 H1   HT     0.417000        1.0080           0
   73317 WT4  7231 TIP3 H2   HT     0.417000        1.0080           0
   73318 WT4  7232 TIP3 OH2  OT    -0.834000       15.9994           0
   73319 WT4  7232 TIP3 H1   HT     0.417000        1.0080           0
   73320 WT4  7232 TIP3 H2   HT     0.417000        1.0080           0
   73321 WT4  7233 TIP3 OH2  OT    -0.834000       15.9994           0
   73322 WT4  7233 TIP3 H1   HT     0.417000        1.0080           0
   73323 WT4  7233 TIP3 H2   HT     0.417000        1.0080           0
   73324 WT4  7234 TIP3 OH2  OT    -0.834000       15.9994           0
   73325 WT4  7234 TIP3 H1   HT     0.417000        1.0080           0
   73326 WT4  7234 TIP3 H2   HT     0.417000        1.0080           0
   73327 WT4  7235 TIP3 OH2  OT    -0.834000       15.9994           0
   73328 WT4  7235 TIP3 H1   HT     0.417000        1.0080           0
   73329 WT4  7235 TIP3 H2   HT     0.417000        1.0080           0
   73330 WT4  7236 TIP3 OH2  OT    -0.834000       15.9994           0
   73331 WT4  7236 TIP3 H1   HT     0.417000        1.0080           0
   73332 WT4  7236 TIP3 H2   HT     0.417000        1.0080           0
   73333 WT4  7237 TIP3 OH2  OT    -0.834000       15.9994           0
   73334 WT4  7237 TIP3 H1   HT     0.417000        1.0080           0
   73335 WT4  7237 TIP3 H2   HT     0.417000        1.0080           0
   73336 WT4  7238 TIP3 OH2  OT    -0.834000       15.9994           0
   73337 WT4  7238 TIP3 H1   HT     0.417000        1.0080           0
   73338 WT4  7238 TIP3 H2   HT     0.417000        1.0080           0
   73339 WT4  7239 TIP3 OH2  OT    -0.834000       15.9994           0
   73340 WT4  7239 TIP3 H1   HT     0.417000        1.0080           0
   73341 WT4  7239 TIP3 H2   HT     0.417000        1.0080           0
   73342 WT4  7246 TIP3 OH2  OT    -0.834000       15.9994           0
   73343 WT4  7246 TIP3 H1   HT     0.417000        1.0080           0
   73344 WT4  7246 TIP3 H2   HT     0.417000        1.0080           0
   73345 WT4  7247 TIP3 OH2  OT    -0.834000       15.9994           0
   73346 WT4  7247 TIP3 H1   HT     0.417000        1.0080           0
   73347 WT4  7247 TIP3 H2   HT     0.417000        1.0080           0
   73348 WT4  7248 TIP3 OH2  OT    -0.834000       15.9994           0
   73349 WT4  7248 TIP3 H1   HT     0.417000        1.0080           0
   73350 WT4  7248 TIP3 H2   HT     0.417000        1.0080           0
   73351 WT4  7249 TIP3 OH2  OT    -0.834000       15.9994           0
   73352 WT4  7249 TIP3 H1   HT     0.417000        1.0080           0
   73353 WT4  7249 TIP3 H2   HT     0.417000        1.0080           0
   73354 WT4  7250 TIP3 OH2  OT    -0.834000       15.9994           0
   73355 WT4  7250 TIP3 H1   HT     0.417000        1.0080           0
   73356 WT4  7250 TIP3 H2   HT     0.417000        1.0080           0
   73357 WT4  7251 TIP3 OH2  OT    -0.834000       15.9994           0
   73358 WT4  7251 TIP3 H1   HT     0.417000        1.0080           0
   73359 WT4  7251 TIP3 H2   HT     0.417000        1.0080           0
   73360 WT4  7252 TIP3 OH2  OT    -0.834000       15.9994           0
   73361 WT4  7252 TIP3 H1   HT     0.417000        1.0080           0
   73362 WT4  7252 TIP3 H2   HT     0.417000        1.0080           0
   73363 WT4  7253 TIP3 OH2  OT    -0.834000       15.9994           0
   73364 WT4  7253 TIP3 H1   HT     0.417000        1.0080           0
   73365 WT4  7253 TIP3 H2   HT     0.417000        1.0080           0
   73366 WT4  7254 TIP3 OH2  OT    -0.834000       15.9994           0
   73367 WT4  7254 TIP3 H1   HT     0.417000        1.0080           0
   73368 WT4  7254 TIP3 H2   HT     0.417000        1.0080           0
   73369 WT4  7257 TIP3 OH2  OT    -0.834000       15.9994           0
   73370 WT4  7257 TIP3 H1   HT     0.417000        1.0080           0
   73371 WT4  7257 TIP3 H2   HT     0.417000        1.0080           0
   73372 WT4  7259 TIP3 OH2  OT    -0.834000       15.9994           0
   73373 WT4  7259 TIP3 H1   HT     0.417000        1.0080           0
   73374 WT4  7259 TIP3 H2   HT     0.417000        1.0080           0
   73375 WT4  7260 TIP3 OH2  OT    -0.834000       15.9994           0
   73376 WT4  7260 TIP3 H1   HT     0.417000        1.0080           0
   73377 WT4  7260 TIP3 H2   HT     0.417000        1.0080           0
   73378 WT4  7262 TIP3 OH2  OT    -0.834000       15.9994           0
   73379 WT4  7262 TIP3 H1   HT     0.417000        1.0080           0
   73380 WT4  7262 TIP3 H2   HT     0.417000        1.0080           0
   73381 WT4  7264 TIP3 OH2  OT    -0.834000       15.9994           0
   73382 WT4  7264 TIP3 H1   HT     0.417000        1.0080           0
   73383 WT4  7264 TIP3 H2   HT     0.417000        1.0080           0
   73384 WT4  7265 TIP3 OH2  OT    -0.834000       15.9994           0
   73385 WT4  7265 TIP3 H1   HT     0.417000        1.0080           0
   73386 WT4  7265 TIP3 H2   HT     0.417000        1.0080           0
   73387 WT4  7267 TIP3 OH2  OT    -0.834000       15.9994           0
   73388 WT4  7267 TIP3 H1   HT     0.417000        1.0080           0
   73389 WT4  7267 TIP3 H2   HT     0.417000        1.0080           0
   73390 WT4  7268 TIP3 OH2  OT    -0.834000       15.9994           0
   73391 WT4  7268 TIP3 H1   HT     0.417000        1.0080           0
   73392 WT4  7268 TIP3 H2   HT     0.417000        1.0080           0
   73393 WT4  7269 TIP3 OH2  OT    -0.834000       15.9994           0
   73394 WT4  7269 TIP3 H1   HT     0.417000        1.0080           0
   73395 WT4  7269 TIP3 H2   HT     0.417000        1.0080           0
   73396 WT4  7270 TIP3 OH2  OT    -0.834000       15.9994           0
   73397 WT4  7270 TIP3 H1   HT     0.417000        1.0080           0
   73398 WT4  7270 TIP3 H2   HT     0.417000        1.0080           0
   73399 WT4  7272 TIP3 OH2  OT    -0.834000       15.9994           0
   73400 WT4  7272 TIP3 H1   HT     0.417000        1.0080           0
   73401 WT4  7272 TIP3 H2   HT     0.417000        1.0080           0
   73402 WT4  7273 TIP3 OH2  OT    -0.834000       15.9994           0
   73403 WT4  7273 TIP3 H1   HT     0.417000        1.0080           0
   73404 WT4  7273 TIP3 H2   HT     0.417000        1.0080           0
   73405 WT4  7275 TIP3 OH2  OT    -0.834000       15.9994           0
   73406 WT4  7275 TIP3 H1   HT     0.417000        1.0080           0
   73407 WT4  7275 TIP3 H2   HT     0.417000        1.0080           0
   73408 WT4  7276 TIP3 OH2  OT    -0.834000       15.9994           0
   73409 WT4  7276 TIP3 H1   HT     0.417000        1.0080           0
   73410 WT4  7276 TIP3 H2   HT     0.417000        1.0080           0
   73411 WT4  7277 TIP3 OH2  OT    -0.834000       15.9994           0
   73412 WT4  7277 TIP3 H1   HT     0.417000        1.0080           0
   73413 WT4  7277 TIP3 H2   HT     0.417000        1.0080           0
   73414 WT4  7279 TIP3 OH2  OT    -0.834000       15.9994           0
   73415 WT4  7279 TIP3 H1   HT     0.417000        1.0080           0
   73416 WT4  7279 TIP3 H2   HT     0.417000        1.0080           0
   73417 WT4  7280 TIP3 OH2  OT    -0.834000       15.9994           0
   73418 WT4  7280 TIP3 H1   HT     0.417000        1.0080           0
   73419 WT4  7280 TIP3 H2   HT     0.417000        1.0080           0
   73420 WT4  7282 TIP3 OH2  OT    -0.834000       15.9994           0
   73421 WT4  7282 TIP3 H1   HT     0.417000        1.0080           0
   73422 WT4  7282 TIP3 H2   HT     0.417000        1.0080           0
   73423 WT4  7287 TIP3 OH2  OT    -0.834000       15.9994           0
   73424 WT4  7287 TIP3 H1   HT     0.417000        1.0080           0
   73425 WT4  7287 TIP3 H2   HT     0.417000        1.0080           0
   73426 WT4  7291 TIP3 OH2  OT    -0.834000       15.9994           0
   73427 WT4  7291 TIP3 H1   HT     0.417000        1.0080           0
   73428 WT4  7291 TIP3 H2   HT     0.417000        1.0080           0
   73429 WT4  7295 TIP3 OH2  OT    -0.834000       15.9994           0
   73430 WT4  7295 TIP3 H1   HT     0.417000        1.0080           0
   73431 WT4  7295 TIP3 H2   HT     0.417000        1.0080           0
   73432 WT4  7296 TIP3 OH2  OT    -0.834000       15.9994           0
   73433 WT4  7296 TIP3 H1   HT     0.417000        1.0080           0
   73434 WT4  7296 TIP3 H2   HT     0.417000        1.0080           0
   73435 WT4  7297 TIP3 OH2  OT    -0.834000       15.9994           0
   73436 WT4  7297 TIP3 H1   HT     0.417000        1.0080           0
   73437 WT4  7297 TIP3 H2   HT     0.417000        1.0080           0
   73438 WT4  7298 TIP3 OH2  OT    -0.834000       15.9994           0
   73439 WT4  7298 TIP3 H1   HT     0.417000        1.0080           0
   73440 WT4  7298 TIP3 H2   HT     0.417000        1.0080           0
   73441 WT4  7299 TIP3 OH2  OT    -0.834000       15.9994           0
   73442 WT4  7299 TIP3 H1   HT     0.417000        1.0080           0
   73443 WT4  7299 TIP3 H2   HT     0.417000        1.0080           0
   73444 WT4  7300 TIP3 OH2  OT    -0.834000       15.9994           0
   73445 WT4  7300 TIP3 H1   HT     0.417000        1.0080           0
   73446 WT4  7300 TIP3 H2   HT     0.417000        1.0080           0
   73447 WT4  7301 TIP3 OH2  OT    -0.834000       15.9994           0
   73448 WT4  7301 TIP3 H1   HT     0.417000        1.0080           0
   73449 WT4  7301 TIP3 H2   HT     0.417000        1.0080           0
   73450 WT4  7302 TIP3 OH2  OT    -0.834000       15.9994           0
   73451 WT4  7302 TIP3 H1   HT     0.417000        1.0080           0
   73452 WT4  7302 TIP3 H2   HT     0.417000        1.0080           0
   73453 WT4  7303 TIP3 OH2  OT    -0.834000       15.9994           0
   73454 WT4  7303 TIP3 H1   HT     0.417000        1.0080           0
   73455 WT4  7303 TIP3 H2   HT     0.417000        1.0080           0
   73456 WT4  7305 TIP3 OH2  OT    -0.834000       15.9994           0
   73457 WT4  7305 TIP3 H1   HT     0.417000        1.0080           0
   73458 WT4  7305 TIP3 H2   HT     0.417000        1.0080           0
   73459 WT4  7311 TIP3 OH2  OT    -0.834000       15.9994           0
   73460 WT4  7311 TIP3 H1   HT     0.417000        1.0080           0
   73461 WT4  7311 TIP3 H2   HT     0.417000        1.0080           0
   73462 WT4  7312 TIP3 OH2  OT    -0.834000       15.9994           0
   73463 WT4  7312 TIP3 H1   HT     0.417000        1.0080           0
   73464 WT4  7312 TIP3 H2   HT     0.417000        1.0080           0
   73465 WT4  7313 TIP3 OH2  OT    -0.834000       15.9994           0
   73466 WT4  7313 TIP3 H1   HT     0.417000        1.0080           0
   73467 WT4  7313 TIP3 H2   HT     0.417000        1.0080           0
   73468 WT4  7314 TIP3 OH2  OT    -0.834000       15.9994           0
   73469 WT4  7314 TIP3 H1   HT     0.417000        1.0080           0
   73470 WT4  7314 TIP3 H2   HT     0.417000        1.0080           0
   73471 WT4  7316 TIP3 OH2  OT    -0.834000       15.9994           0
   73472 WT4  7316 TIP3 H1   HT     0.417000        1.0080           0
   73473 WT4  7316 TIP3 H2   HT     0.417000        1.0080           0
   73474 WT4  7317 TIP3 OH2  OT    -0.834000       15.9994           0
   73475 WT4  7317 TIP3 H1   HT     0.417000        1.0080           0
   73476 WT4  7317 TIP3 H2   HT     0.417000        1.0080           0
   73477 WT4  7318 TIP3 OH2  OT    -0.834000       15.9994           0
   73478 WT4  7318 TIP3 H1   HT     0.417000        1.0080           0
   73479 WT4  7318 TIP3 H2   HT     0.417000        1.0080           0
   73480 WT4  7324 TIP3 OH2  OT    -0.834000       15.9994           0
   73481 WT4  7324 TIP3 H1   HT     0.417000        1.0080           0
   73482 WT4  7324 TIP3 H2   HT     0.417000        1.0080           0
   73483 WT4  7326 TIP3 OH2  OT    -0.834000       15.9994           0
   73484 WT4  7326 TIP3 H1   HT     0.417000        1.0080           0
   73485 WT4  7326 TIP3 H2   HT     0.417000        1.0080           0
   73486 WT4  7328 TIP3 OH2  OT    -0.834000       15.9994           0
   73487 WT4  7328 TIP3 H1   HT     0.417000        1.0080           0
   73488 WT4  7328 TIP3 H2   HT     0.417000        1.0080           0
   73489 WT4  7331 TIP3 OH2  OT    -0.834000       15.9994           0
   73490 WT4  7331 TIP3 H1   HT     0.417000        1.0080           0
   73491 WT4  7331 TIP3 H2   HT     0.417000        1.0080           0
   73492 WT4  7333 TIP3 OH2  OT    -0.834000       15.9994           0
   73493 WT4  7333 TIP3 H1   HT     0.417000        1.0080           0
   73494 WT4  7333 TIP3 H2   HT     0.417000        1.0080           0
   73495 WT4  7335 TIP3 OH2  OT    -0.834000       15.9994           0
   73496 WT4  7335 TIP3 H1   HT     0.417000        1.0080           0
   73497 WT4  7335 TIP3 H2   HT     0.417000        1.0080           0
   73498 WT4  7336 TIP3 OH2  OT    -0.834000       15.9994           0
   73499 WT4  7336 TIP3 H1   HT     0.417000        1.0080           0
   73500 WT4  7336 TIP3 H2   HT     0.417000        1.0080           0
   73501 WT4  7337 TIP3 OH2  OT    -0.834000       15.9994           0
   73502 WT4  7337 TIP3 H1   HT     0.417000        1.0080           0
   73503 WT4  7337 TIP3 H2   HT     0.417000        1.0080           0
   73504 WT4  7338 TIP3 OH2  OT    -0.834000       15.9994           0
   73505 WT4  7338 TIP3 H1   HT     0.417000        1.0080           0
   73506 WT4  7338 TIP3 H2   HT     0.417000        1.0080           0
   73507 WT4  7339 TIP3 OH2  OT    -0.834000       15.9994           0
   73508 WT4  7339 TIP3 H1   HT     0.417000        1.0080           0
   73509 WT4  7339 TIP3 H2   HT     0.417000        1.0080           0
   73510 WT4  7340 TIP3 OH2  OT    -0.834000       15.9994           0
   73511 WT4  7340 TIP3 H1   HT     0.417000        1.0080           0
   73512 WT4  7340 TIP3 H2   HT     0.417000        1.0080           0
   73513 WT4  7343 TIP3 OH2  OT    -0.834000       15.9994           0
   73514 WT4  7343 TIP3 H1   HT     0.417000        1.0080           0
   73515 WT4  7343 TIP3 H2   HT     0.417000        1.0080           0
   73516 WT4  7352 TIP3 OH2  OT    -0.834000       15.9994           0
   73517 WT4  7352 TIP3 H1   HT     0.417000        1.0080           0
   73518 WT4  7352 TIP3 H2   HT     0.417000        1.0080           0
   73519 WT4  7354 TIP3 OH2  OT    -0.834000       15.9994           0
   73520 WT4  7354 TIP3 H1   HT     0.417000        1.0080           0
   73521 WT4  7354 TIP3 H2   HT     0.417000        1.0080           0
   73522 WT4  7356 TIP3 OH2  OT    -0.834000       15.9994           0
   73523 WT4  7356 TIP3 H1   HT     0.417000        1.0080           0
   73524 WT4  7356 TIP3 H2   HT     0.417000        1.0080           0
   73525 WT4  7358 TIP3 OH2  OT    -0.834000       15.9994           0
   73526 WT4  7358 TIP3 H1   HT     0.417000        1.0080           0
   73527 WT4  7358 TIP3 H2   HT     0.417000        1.0080           0
   73528 WT4  7361 TIP3 OH2  OT    -0.834000       15.9994           0
   73529 WT4  7361 TIP3 H1   HT     0.417000        1.0080           0
   73530 WT4  7361 TIP3 H2   HT     0.417000        1.0080           0
   73531 WT4  7364 TIP3 OH2  OT    -0.834000       15.9994           0
   73532 WT4  7364 TIP3 H1   HT     0.417000        1.0080           0
   73533 WT4  7364 TIP3 H2   HT     0.417000        1.0080           0
   73534 WT4  7370 TIP3 OH2  OT    -0.834000       15.9994           0
   73535 WT4  7370 TIP3 H1   HT     0.417000        1.0080           0
   73536 WT4  7370 TIP3 H2   HT     0.417000        1.0080           0
   73537 WT4  7371 TIP3 OH2  OT    -0.834000       15.9994           0
   73538 WT4  7371 TIP3 H1   HT     0.417000        1.0080           0
   73539 WT4  7371 TIP3 H2   HT     0.417000        1.0080           0
   73540 WT4  7374 TIP3 OH2  OT    -0.834000       15.9994           0
   73541 WT4  7374 TIP3 H1   HT     0.417000        1.0080           0
   73542 WT4  7374 TIP3 H2   HT     0.417000        1.0080           0
   73543 WT4  7378 TIP3 OH2  OT    -0.834000       15.9994           0
   73544 WT4  7378 TIP3 H1   HT     0.417000        1.0080           0
   73545 WT4  7378 TIP3 H2   HT     0.417000        1.0080           0
   73546 WT4  7382 TIP3 OH2  OT    -0.834000       15.9994           0
   73547 WT4  7382 TIP3 H1   HT     0.417000        1.0080           0
   73548 WT4  7382 TIP3 H2   HT     0.417000        1.0080           0
   73549 WT4  7395 TIP3 OH2  OT    -0.834000       15.9994           0
   73550 WT4  7395 TIP3 H1   HT     0.417000        1.0080           0
   73551 WT4  7395 TIP3 H2   HT     0.417000        1.0080           0
   73552 WT4  7398 TIP3 OH2  OT    -0.834000       15.9994           0
   73553 WT4  7398 TIP3 H1   HT     0.417000        1.0080           0
   73554 WT4  7398 TIP3 H2   HT     0.417000        1.0080           0
   73555 WT4  7401 TIP3 OH2  OT    -0.834000       15.9994           0
   73556 WT4  7401 TIP3 H1   HT     0.417000        1.0080           0
   73557 WT4  7401 TIP3 H2   HT     0.417000        1.0080           0
   73558 WT4  7408 TIP3 OH2  OT    -0.834000       15.9994           0
   73559 WT4  7408 TIP3 H1   HT     0.417000        1.0080           0
   73560 WT4  7408 TIP3 H2   HT     0.417000        1.0080           0
   73561 WT4  7415 TIP3 OH2  OT    -0.834000       15.9994           0
   73562 WT4  7415 TIP3 H1   HT     0.417000        1.0080           0
   73563 WT4  7415 TIP3 H2   HT     0.417000        1.0080           0
   73564 WT4  7418 TIP3 OH2  OT    -0.834000       15.9994           0
   73565 WT4  7418 TIP3 H1   HT     0.417000        1.0080           0
   73566 WT4  7418 TIP3 H2   HT     0.417000        1.0080           0
   73567 WT4  7422 TIP3 OH2  OT    -0.834000       15.9994           0
   73568 WT4  7422 TIP3 H1   HT     0.417000        1.0080           0
   73569 WT4  7422 TIP3 H2   HT     0.417000        1.0080           0
   73570 WT4  7430 TIP3 OH2  OT    -0.834000       15.9994           0
   73571 WT4  7430 TIP3 H1   HT     0.417000        1.0080           0
   73572 WT4  7430 TIP3 H2   HT     0.417000        1.0080           0
   73573 WT4  7431 TIP3 OH2  OT    -0.834000       15.9994           0
   73574 WT4  7431 TIP3 H1   HT     0.417000        1.0080           0
   73575 WT4  7431 TIP3 H2   HT     0.417000        1.0080           0
   73576 WT4  7435 TIP3 OH2  OT    -0.834000       15.9994           0
   73577 WT4  7435 TIP3 H1   HT     0.417000        1.0080           0
   73578 WT4  7435 TIP3 H2   HT     0.417000        1.0080           0
   73579 WT4  7437 TIP3 OH2  OT    -0.834000       15.9994           0
   73580 WT4  7437 TIP3 H1   HT     0.417000        1.0080           0
   73581 WT4  7437 TIP3 H2   HT     0.417000        1.0080           0
   73582 WT4  7439 TIP3 OH2  OT    -0.834000       15.9994           0
   73583 WT4  7439 TIP3 H1   HT     0.417000        1.0080           0
   73584 WT4  7439 TIP3 H2   HT     0.417000        1.0080           0
   73585 WT4  7443 TIP3 OH2  OT    -0.834000       15.9994           0
   73586 WT4  7443 TIP3 H1   HT     0.417000        1.0080           0
   73587 WT4  7443 TIP3 H2   HT     0.417000        1.0080           0
   73588 WT4  7444 TIP3 OH2  OT    -0.834000       15.9994           0
   73589 WT4  7444 TIP3 H1   HT     0.417000        1.0080           0
   73590 WT4  7444 TIP3 H2   HT     0.417000        1.0080           0
   73591 WT4  7451 TIP3 OH2  OT    -0.834000       15.9994           0
   73592 WT4  7451 TIP3 H1   HT     0.417000        1.0080           0
   73593 WT4  7451 TIP3 H2   HT     0.417000        1.0080           0
   73594 WT4  7455 TIP3 OH2  OT    -0.834000       15.9994           0
   73595 WT4  7455 TIP3 H1   HT     0.417000        1.0080           0
   73596 WT4  7455 TIP3 H2   HT     0.417000        1.0080           0
   73597 WT4  7461 TIP3 OH2  OT    -0.834000       15.9994           0
   73598 WT4  7461 TIP3 H1   HT     0.417000        1.0080           0
   73599 WT4  7461 TIP3 H2   HT     0.417000        1.0080           0
   73600 WT4  7471 TIP3 OH2  OT    -0.834000       15.9994           0
   73601 WT4  7471 TIP3 H1   HT     0.417000        1.0080           0
   73602 WT4  7471 TIP3 H2   HT     0.417000        1.0080           0
   73603 WT4  7479 TIP3 OH2  OT    -0.834000       15.9994           0
   73604 WT4  7479 TIP3 H1   HT     0.417000        1.0080           0
   73605 WT4  7479 TIP3 H2   HT     0.417000        1.0080           0
   73606 WT4  7480 TIP3 OH2  OT    -0.834000       15.9994           0
   73607 WT4  7480 TIP3 H1   HT     0.417000        1.0080           0
   73608 WT4  7480 TIP3 H2   HT     0.417000        1.0080           0
   73609 WT4  7481 TIP3 OH2  OT    -0.834000       15.9994           0
   73610 WT4  7481 TIP3 H1   HT     0.417000        1.0080           0
   73611 WT4  7481 TIP3 H2   HT     0.417000        1.0080           0
   73612 WT4  7483 TIP3 OH2  OT    -0.834000       15.9994           0
   73613 WT4  7483 TIP3 H1   HT     0.417000        1.0080           0
   73614 WT4  7483 TIP3 H2   HT     0.417000        1.0080           0
   73615 WT4  7486 TIP3 OH2  OT    -0.834000       15.9994           0
   73616 WT4  7486 TIP3 H1   HT     0.417000        1.0080           0
   73617 WT4  7486 TIP3 H2   HT     0.417000        1.0080           0
   73618 WT4  7490 TIP3 OH2  OT    -0.834000       15.9994           0
   73619 WT4  7490 TIP3 H1   HT     0.417000        1.0080           0
   73620 WT4  7490 TIP3 H2   HT     0.417000        1.0080           0
   73621 WT4  7493 TIP3 OH2  OT    -0.834000       15.9994           0
   73622 WT4  7493 TIP3 H1   HT     0.417000        1.0080           0
   73623 WT4  7493 TIP3 H2   HT     0.417000        1.0080           0
   73624 WT4  7498 TIP3 OH2  OT    -0.834000       15.9994           0
   73625 WT4  7498 TIP3 H1   HT     0.417000        1.0080           0
   73626 WT4  7498 TIP3 H2   HT     0.417000        1.0080           0
   73627 WT4  7500 TIP3 OH2  OT    -0.834000       15.9994           0
   73628 WT4  7500 TIP3 H1   HT     0.417000        1.0080           0
   73629 WT4  7500 TIP3 H2   HT     0.417000        1.0080           0
   73630 WT4  7501 TIP3 OH2  OT    -0.834000       15.9994           0
   73631 WT4  7501 TIP3 H1   HT     0.417000        1.0080           0
   73632 WT4  7501 TIP3 H2   HT     0.417000        1.0080           0
   73633 WT4  7503 TIP3 OH2  OT    -0.834000       15.9994           0
   73634 WT4  7503 TIP3 H1   HT     0.417000        1.0080           0
   73635 WT4  7503 TIP3 H2   HT     0.417000        1.0080           0
   73636 WT4  7504 TIP3 OH2  OT    -0.834000       15.9994           0
   73637 WT4  7504 TIP3 H1   HT     0.417000        1.0080           0
   73638 WT4  7504 TIP3 H2   HT     0.417000        1.0080           0
   73639 WT4  7505 TIP3 OH2  OT    -0.834000       15.9994           0
   73640 WT4  7505 TIP3 H1   HT     0.417000        1.0080           0
   73641 WT4  7505 TIP3 H2   HT     0.417000        1.0080           0
   73642 WT4  7506 TIP3 OH2  OT    -0.834000       15.9994           0
   73643 WT4  7506 TIP3 H1   HT     0.417000        1.0080           0
   73644 WT4  7506 TIP3 H2   HT     0.417000        1.0080           0
   73645 WT4  7507 TIP3 OH2  OT    -0.834000       15.9994           0
   73646 WT4  7507 TIP3 H1   HT     0.417000        1.0080           0
   73647 WT4  7507 TIP3 H2   HT     0.417000        1.0080           0
   73648 WT4  7509 TIP3 OH2  OT    -0.834000       15.9994           0
   73649 WT4  7509 TIP3 H1   HT     0.417000        1.0080           0
   73650 WT4  7509 TIP3 H2   HT     0.417000        1.0080           0
   73651 WT4  7510 TIP3 OH2  OT    -0.834000       15.9994           0
   73652 WT4  7510 TIP3 H1   HT     0.417000        1.0080           0
   73653 WT4  7510 TIP3 H2   HT     0.417000        1.0080           0
   73654 WT4  7519 TIP3 OH2  OT    -0.834000       15.9994           0
   73655 WT4  7519 TIP3 H1   HT     0.417000        1.0080           0
   73656 WT4  7519 TIP3 H2   HT     0.417000        1.0080           0
   73657 WT4  7522 TIP3 OH2  OT    -0.834000       15.9994           0
   73658 WT4  7522 TIP3 H1   HT     0.417000        1.0080           0
   73659 WT4  7522 TIP3 H2   HT     0.417000        1.0080           0
   73660 WT4  7523 TIP3 OH2  OT    -0.834000       15.9994           0
   73661 WT4  7523 TIP3 H1   HT     0.417000        1.0080           0
   73662 WT4  7523 TIP3 H2   HT     0.417000        1.0080           0
   73663 WT4  7524 TIP3 OH2  OT    -0.834000       15.9994           0
   73664 WT4  7524 TIP3 H1   HT     0.417000        1.0080           0
   73665 WT4  7524 TIP3 H2   HT     0.417000        1.0080           0
   73666 WT4  7525 TIP3 OH2  OT    -0.834000       15.9994           0
   73667 WT4  7525 TIP3 H1   HT     0.417000        1.0080           0
   73668 WT4  7525 TIP3 H2   HT     0.417000        1.0080           0
   73669 WT4  7526 TIP3 OH2  OT    -0.834000       15.9994           0
   73670 WT4  7526 TIP3 H1   HT     0.417000        1.0080           0
   73671 WT4  7526 TIP3 H2   HT     0.417000        1.0080           0
   73672 WT4  7527 TIP3 OH2  OT    -0.834000       15.9994           0
   73673 WT4  7527 TIP3 H1   HT     0.417000        1.0080           0
   73674 WT4  7527 TIP3 H2   HT     0.417000        1.0080           0
   73675 WT4  7528 TIP3 OH2  OT    -0.834000       15.9994           0
   73676 WT4  7528 TIP3 H1   HT     0.417000        1.0080           0
   73677 WT4  7528 TIP3 H2   HT     0.417000        1.0080           0
   73678 WT4  7529 TIP3 OH2  OT    -0.834000       15.9994           0
   73679 WT4  7529 TIP3 H1   HT     0.417000        1.0080           0
   73680 WT4  7529 TIP3 H2   HT     0.417000        1.0080           0
   73681 WT4  7531 TIP3 OH2  OT    -0.834000       15.9994           0
   73682 WT4  7531 TIP3 H1   HT     0.417000        1.0080           0
   73683 WT4  7531 TIP3 H2   HT     0.417000        1.0080           0
   73684 WT4  7532 TIP3 OH2  OT    -0.834000       15.9994           0
   73685 WT4  7532 TIP3 H1   HT     0.417000        1.0080           0
   73686 WT4  7532 TIP3 H2   HT     0.417000        1.0080           0
   73687 WT4  7541 TIP3 OH2  OT    -0.834000       15.9994           0
   73688 WT4  7541 TIP3 H1   HT     0.417000        1.0080           0
   73689 WT4  7541 TIP3 H2   HT     0.417000        1.0080           0
   73690 WT4  7544 TIP3 OH2  OT    -0.834000       15.9994           0
   73691 WT4  7544 TIP3 H1   HT     0.417000        1.0080           0
   73692 WT4  7544 TIP3 H2   HT     0.417000        1.0080           0
   73693 WT4  7545 TIP3 OH2  OT    -0.834000       15.9994           0
   73694 WT4  7545 TIP3 H1   HT     0.417000        1.0080           0
   73695 WT4  7545 TIP3 H2   HT     0.417000        1.0080           0
   73696 WT4  7546 TIP3 OH2  OT    -0.834000       15.9994           0
   73697 WT4  7546 TIP3 H1   HT     0.417000        1.0080           0
   73698 WT4  7546 TIP3 H2   HT     0.417000        1.0080           0
   73699 WT4  7547 TIP3 OH2  OT    -0.834000       15.9994           0
   73700 WT4  7547 TIP3 H1   HT     0.417000        1.0080           0
   73701 WT4  7547 TIP3 H2   HT     0.417000        1.0080           0
   73702 WT4  7551 TIP3 OH2  OT    -0.834000       15.9994           0
   73703 WT4  7551 TIP3 H1   HT     0.417000        1.0080           0
   73704 WT4  7551 TIP3 H2   HT     0.417000        1.0080           0
   73705 WT4  7552 TIP3 OH2  OT    -0.834000       15.9994           0
   73706 WT4  7552 TIP3 H1   HT     0.417000        1.0080           0
   73707 WT4  7552 TIP3 H2   HT     0.417000        1.0080           0
   73708 WT4  7553 TIP3 OH2  OT    -0.834000       15.9994           0
   73709 WT4  7553 TIP3 H1   HT     0.417000        1.0080           0
   73710 WT4  7553 TIP3 H2   HT     0.417000        1.0080           0
   73711 WT4  7557 TIP3 OH2  OT    -0.834000       15.9994           0
   73712 WT4  7557 TIP3 H1   HT     0.417000        1.0080           0
   73713 WT4  7557 TIP3 H2   HT     0.417000        1.0080           0
   73714 WT4  7559 TIP3 OH2  OT    -0.834000       15.9994           0
   73715 WT4  7559 TIP3 H1   HT     0.417000        1.0080           0
   73716 WT4  7559 TIP3 H2   HT     0.417000        1.0080           0
   73717 WT4  7561 TIP3 OH2  OT    -0.834000       15.9994           0
   73718 WT4  7561 TIP3 H1   HT     0.417000        1.0080           0
   73719 WT4  7561 TIP3 H2   HT     0.417000        1.0080           0
   73720 WT4  7563 TIP3 OH2  OT    -0.834000       15.9994           0
   73721 WT4  7563 TIP3 H1   HT     0.417000        1.0080           0
   73722 WT4  7563 TIP3 H2   HT     0.417000        1.0080           0
   73723 WT4  7567 TIP3 OH2  OT    -0.834000       15.9994           0
   73724 WT4  7567 TIP3 H1   HT     0.417000        1.0080           0
   73725 WT4  7567 TIP3 H2   HT     0.417000        1.0080           0
   73726 WT4  7568 TIP3 OH2  OT    -0.834000       15.9994           0
   73727 WT4  7568 TIP3 H1   HT     0.417000        1.0080           0
   73728 WT4  7568 TIP3 H2   HT     0.417000        1.0080           0
   73729 WT4  7570 TIP3 OH2  OT    -0.834000       15.9994           0
   73730 WT4  7570 TIP3 H1   HT     0.417000        1.0080           0
   73731 WT4  7570 TIP3 H2   HT     0.417000        1.0080           0
   73732 WT4  7571 TIP3 OH2  OT    -0.834000       15.9994           0
   73733 WT4  7571 TIP3 H1   HT     0.417000        1.0080           0
   73734 WT4  7571 TIP3 H2   HT     0.417000        1.0080           0
   73735 WT4  7572 TIP3 OH2  OT    -0.834000       15.9994           0
   73736 WT4  7572 TIP3 H1   HT     0.417000        1.0080           0
   73737 WT4  7572 TIP3 H2   HT     0.417000        1.0080           0
   73738 WT4  7573 TIP3 OH2  OT    -0.834000       15.9994           0
   73739 WT4  7573 TIP3 H1   HT     0.417000        1.0080           0
   73740 WT4  7573 TIP3 H2   HT     0.417000        1.0080           0
   73741 WT4  7574 TIP3 OH2  OT    -0.834000       15.9994           0
   73742 WT4  7574 TIP3 H1   HT     0.417000        1.0080           0
   73743 WT4  7574 TIP3 H2   HT     0.417000        1.0080           0
   73744 WT4  7582 TIP3 OH2  OT    -0.834000       15.9994           0
   73745 WT4  7582 TIP3 H1   HT     0.417000        1.0080           0
   73746 WT4  7582 TIP3 H2   HT     0.417000        1.0080           0
   73747 WT4  7584 TIP3 OH2  OT    -0.834000       15.9994           0
   73748 WT4  7584 TIP3 H1   HT     0.417000        1.0080           0
   73749 WT4  7584 TIP3 H2   HT     0.417000        1.0080           0
   73750 WT4  7586 TIP3 OH2  OT    -0.834000       15.9994           0
   73751 WT4  7586 TIP3 H1   HT     0.417000        1.0080           0
   73752 WT4  7586 TIP3 H2   HT     0.417000        1.0080           0
   73753 WT4  7587 TIP3 OH2  OT    -0.834000       15.9994           0
   73754 WT4  7587 TIP3 H1   HT     0.417000        1.0080           0
   73755 WT4  7587 TIP3 H2   HT     0.417000        1.0080           0
   73756 WT4  7589 TIP3 OH2  OT    -0.834000       15.9994           0
   73757 WT4  7589 TIP3 H1   HT     0.417000        1.0080           0
   73758 WT4  7589 TIP3 H2   HT     0.417000        1.0080           0
   73759 WT4  7590 TIP3 OH2  OT    -0.834000       15.9994           0
   73760 WT4  7590 TIP3 H1   HT     0.417000        1.0080           0
   73761 WT4  7590 TIP3 H2   HT     0.417000        1.0080           0
   73762 WT4  7591 TIP3 OH2  OT    -0.834000       15.9994           0
   73763 WT4  7591 TIP3 H1   HT     0.417000        1.0080           0
   73764 WT4  7591 TIP3 H2   HT     0.417000        1.0080           0
   73765 WT4  7592 TIP3 OH2  OT    -0.834000       15.9994           0
   73766 WT4  7592 TIP3 H1   HT     0.417000        1.0080           0
   73767 WT4  7592 TIP3 H2   HT     0.417000        1.0080           0
   73768 WT4  7593 TIP3 OH2  OT    -0.834000       15.9994           0
   73769 WT4  7593 TIP3 H1   HT     0.417000        1.0080           0
   73770 WT4  7593 TIP3 H2   HT     0.417000        1.0080           0
   73771 WT4  7594 TIP3 OH2  OT    -0.834000       15.9994           0
   73772 WT4  7594 TIP3 H1   HT     0.417000        1.0080           0
   73773 WT4  7594 TIP3 H2   HT     0.417000        1.0080           0
   73774 WT4  7597 TIP3 OH2  OT    -0.834000       15.9994           0
   73775 WT4  7597 TIP3 H1   HT     0.417000        1.0080           0
   73776 WT4  7597 TIP3 H2   HT     0.417000        1.0080           0
   73777 WT4  7602 TIP3 OH2  OT    -0.834000       15.9994           0
   73778 WT4  7602 TIP3 H1   HT     0.417000        1.0080           0
   73779 WT4  7602 TIP3 H2   HT     0.417000        1.0080           0
   73780 WT4  7603 TIP3 OH2  OT    -0.834000       15.9994           0
   73781 WT4  7603 TIP3 H1   HT     0.417000        1.0080           0
   73782 WT4  7603 TIP3 H2   HT     0.417000        1.0080           0
   73783 WT4  7605 TIP3 OH2  OT    -0.834000       15.9994           0
   73784 WT4  7605 TIP3 H1   HT     0.417000        1.0080           0
   73785 WT4  7605 TIP3 H2   HT     0.417000        1.0080           0
   73786 WT4  7606 TIP3 OH2  OT    -0.834000       15.9994           0
   73787 WT4  7606 TIP3 H1   HT     0.417000        1.0080           0
   73788 WT4  7606 TIP3 H2   HT     0.417000        1.0080           0
   73789 WT4  7608 TIP3 OH2  OT    -0.834000       15.9994           0
   73790 WT4  7608 TIP3 H1   HT     0.417000        1.0080           0
   73791 WT4  7608 TIP3 H2   HT     0.417000        1.0080           0
   73792 WT4  7609 TIP3 OH2  OT    -0.834000       15.9994           0
   73793 WT4  7609 TIP3 H1   HT     0.417000        1.0080           0
   73794 WT4  7609 TIP3 H2   HT     0.417000        1.0080           0
   73795 WT4  7610 TIP3 OH2  OT    -0.834000       15.9994           0
   73796 WT4  7610 TIP3 H1   HT     0.417000        1.0080           0
   73797 WT4  7610 TIP3 H2   HT     0.417000        1.0080           0
   73798 WT4  7611 TIP3 OH2  OT    -0.834000       15.9994           0
   73799 WT4  7611 TIP3 H1   HT     0.417000        1.0080           0
   73800 WT4  7611 TIP3 H2   HT     0.417000        1.0080           0
   73801 WT4  7612 TIP3 OH2  OT    -0.834000       15.9994           0
   73802 WT4  7612 TIP3 H1   HT     0.417000        1.0080           0
   73803 WT4  7612 TIP3 H2   HT     0.417000        1.0080           0
   73804 WT4  7613 TIP3 OH2  OT    -0.834000       15.9994           0
   73805 WT4  7613 TIP3 H1   HT     0.417000        1.0080           0
   73806 WT4  7613 TIP3 H2   HT     0.417000        1.0080           0
   73807 WT4  7615 TIP3 OH2  OT    -0.834000       15.9994           0
   73808 WT4  7615 TIP3 H1   HT     0.417000        1.0080           0
   73809 WT4  7615 TIP3 H2   HT     0.417000        1.0080           0
   73810 WT4  7616 TIP3 OH2  OT    -0.834000       15.9994           0
   73811 WT4  7616 TIP3 H1   HT     0.417000        1.0080           0
   73812 WT4  7616 TIP3 H2   HT     0.417000        1.0080           0
   73813 WT4  7617 TIP3 OH2  OT    -0.834000       15.9994           0
   73814 WT4  7617 TIP3 H1   HT     0.417000        1.0080           0
   73815 WT4  7617 TIP3 H2   HT     0.417000        1.0080           0
   73816 WT4  7625 TIP3 OH2  OT    -0.834000       15.9994           0
   73817 WT4  7625 TIP3 H1   HT     0.417000        1.0080           0
   73818 WT4  7625 TIP3 H2   HT     0.417000        1.0080           0
   73819 WT4  7626 TIP3 OH2  OT    -0.834000       15.9994           0
   73820 WT4  7626 TIP3 H1   HT     0.417000        1.0080           0
   73821 WT4  7626 TIP3 H2   HT     0.417000        1.0080           0
   73822 WT4  7627 TIP3 OH2  OT    -0.834000       15.9994           0
   73823 WT4  7627 TIP3 H1   HT     0.417000        1.0080           0
   73824 WT4  7627 TIP3 H2   HT     0.417000        1.0080           0
   73825 WT4  7628 TIP3 OH2  OT    -0.834000       15.9994           0
   73826 WT4  7628 TIP3 H1   HT     0.417000        1.0080           0
   73827 WT4  7628 TIP3 H2   HT     0.417000        1.0080           0
   73828 WT4  7629 TIP3 OH2  OT    -0.834000       15.9994           0
   73829 WT4  7629 TIP3 H1   HT     0.417000        1.0080           0
   73830 WT4  7629 TIP3 H2   HT     0.417000        1.0080           0
   73831 WT4  7630 TIP3 OH2  OT    -0.834000       15.9994           0
   73832 WT4  7630 TIP3 H1   HT     0.417000        1.0080           0
   73833 WT4  7630 TIP3 H2   HT     0.417000        1.0080           0
   73834 WT4  7631 TIP3 OH2  OT    -0.834000       15.9994           0
   73835 WT4  7631 TIP3 H1   HT     0.417000        1.0080           0
   73836 WT4  7631 TIP3 H2   HT     0.417000        1.0080           0
   73837 WT4  7632 TIP3 OH2  OT    -0.834000       15.9994           0
   73838 WT4  7632 TIP3 H1   HT     0.417000        1.0080           0
   73839 WT4  7632 TIP3 H2   HT     0.417000        1.0080           0
   73840 WT4  7633 TIP3 OH2  OT    -0.834000       15.9994           0
   73841 WT4  7633 TIP3 H1   HT     0.417000        1.0080           0
   73842 WT4  7633 TIP3 H2   HT     0.417000        1.0080           0
   73843 WT4  7634 TIP3 OH2  OT    -0.834000       15.9994           0
   73844 WT4  7634 TIP3 H1   HT     0.417000        1.0080           0
   73845 WT4  7634 TIP3 H2   HT     0.417000        1.0080           0
   73846 WT4  7635 TIP3 OH2  OT    -0.834000       15.9994           0
   73847 WT4  7635 TIP3 H1   HT     0.417000        1.0080           0
   73848 WT4  7635 TIP3 H2   HT     0.417000        1.0080           0
   73849 WT4  7637 TIP3 OH2  OT    -0.834000       15.9994           0
   73850 WT4  7637 TIP3 H1   HT     0.417000        1.0080           0
   73851 WT4  7637 TIP3 H2   HT     0.417000        1.0080           0
   73852 WT4  7638 TIP3 OH2  OT    -0.834000       15.9994           0
   73853 WT4  7638 TIP3 H1   HT     0.417000        1.0080           0
   73854 WT4  7638 TIP3 H2   HT     0.417000        1.0080           0
   73855 WT4  7643 TIP3 OH2  OT    -0.834000       15.9994           0
   73856 WT4  7643 TIP3 H1   HT     0.417000        1.0080           0
   73857 WT4  7643 TIP3 H2   HT     0.417000        1.0080           0
   73858 WT4  7644 TIP3 OH2  OT    -0.834000       15.9994           0
   73859 WT4  7644 TIP3 H1   HT     0.417000        1.0080           0
   73860 WT4  7644 TIP3 H2   HT     0.417000        1.0080           0
   73861 WT4  7645 TIP3 OH2  OT    -0.834000       15.9994           0
   73862 WT4  7645 TIP3 H1   HT     0.417000        1.0080           0
   73863 WT4  7645 TIP3 H2   HT     0.417000        1.0080           0
   73864 WT4  7646 TIP3 OH2  OT    -0.834000       15.9994           0
   73865 WT4  7646 TIP3 H1   HT     0.417000        1.0080           0
   73866 WT4  7646 TIP3 H2   HT     0.417000        1.0080           0
   73867 WT4  7647 TIP3 OH2  OT    -0.834000       15.9994           0
   73868 WT4  7647 TIP3 H1   HT     0.417000        1.0080           0
   73869 WT4  7647 TIP3 H2   HT     0.417000        1.0080           0
   73870 WT4  7648 TIP3 OH2  OT    -0.834000       15.9994           0
   73871 WT4  7648 TIP3 H1   HT     0.417000        1.0080           0
   73872 WT4  7648 TIP3 H2   HT     0.417000        1.0080           0
   73873 WT4  7649 TIP3 OH2  OT    -0.834000       15.9994           0
   73874 WT4  7649 TIP3 H1   HT     0.417000        1.0080           0
   73875 WT4  7649 TIP3 H2   HT     0.417000        1.0080           0
   73876 WT4  7650 TIP3 OH2  OT    -0.834000       15.9994           0
   73877 WT4  7650 TIP3 H1   HT     0.417000        1.0080           0
   73878 WT4  7650 TIP3 H2   HT     0.417000        1.0080           0
   73879 WT4  7651 TIP3 OH2  OT    -0.834000       15.9994           0
   73880 WT4  7651 TIP3 H1   HT     0.417000        1.0080           0
   73881 WT4  7651 TIP3 H2   HT     0.417000        1.0080           0
   73882 WT4  7652 TIP3 OH2  OT    -0.834000       15.9994           0
   73883 WT4  7652 TIP3 H1   HT     0.417000        1.0080           0
   73884 WT4  7652 TIP3 H2   HT     0.417000        1.0080           0
   73885 WT4  7653 TIP3 OH2  OT    -0.834000       15.9994           0
   73886 WT4  7653 TIP3 H1   HT     0.417000        1.0080           0
   73887 WT4  7653 TIP3 H2   HT     0.417000        1.0080           0
   73888 WT4  7655 TIP3 OH2  OT    -0.834000       15.9994           0
   73889 WT4  7655 TIP3 H1   HT     0.417000        1.0080           0
   73890 WT4  7655 TIP3 H2   HT     0.417000        1.0080           0
   73891 WT4  7656 TIP3 OH2  OT    -0.834000       15.9994           0
   73892 WT4  7656 TIP3 H1   HT     0.417000        1.0080           0
   73893 WT4  7656 TIP3 H2   HT     0.417000        1.0080           0
   73894 WT4  7657 TIP3 OH2  OT    -0.834000       15.9994           0
   73895 WT4  7657 TIP3 H1   HT     0.417000        1.0080           0
   73896 WT4  7657 TIP3 H2   HT     0.417000        1.0080           0
   73897 WT4  7661 TIP3 OH2  OT    -0.834000       15.9994           0
   73898 WT4  7661 TIP3 H1   HT     0.417000        1.0080           0
   73899 WT4  7661 TIP3 H2   HT     0.417000        1.0080           0
   73900 WT4  7662 TIP3 OH2  OT    -0.834000       15.9994           0
   73901 WT4  7662 TIP3 H1   HT     0.417000        1.0080           0
   73902 WT4  7662 TIP3 H2   HT     0.417000        1.0080           0
   73903 WT4  7663 TIP3 OH2  OT    -0.834000       15.9994           0
   73904 WT4  7663 TIP3 H1   HT     0.417000        1.0080           0
   73905 WT4  7663 TIP3 H2   HT     0.417000        1.0080           0
   73906 WT4  7668 TIP3 OH2  OT    -0.834000       15.9994           0
   73907 WT4  7668 TIP3 H1   HT     0.417000        1.0080           0
   73908 WT4  7668 TIP3 H2   HT     0.417000        1.0080           0
   73909 WT4  7669 TIP3 OH2  OT    -0.834000       15.9994           0
   73910 WT4  7669 TIP3 H1   HT     0.417000        1.0080           0
   73911 WT4  7669 TIP3 H2   HT     0.417000        1.0080           0
   73912 WT4  7670 TIP3 OH2  OT    -0.834000       15.9994           0
   73913 WT4  7670 TIP3 H1   HT     0.417000        1.0080           0
   73914 WT4  7670 TIP3 H2   HT     0.417000        1.0080           0
   73915 WT4  7671 TIP3 OH2  OT    -0.834000       15.9994           0
   73916 WT4  7671 TIP3 H1   HT     0.417000        1.0080           0
   73917 WT4  7671 TIP3 H2   HT     0.417000        1.0080           0
   73918 WT4  7672 TIP3 OH2  OT    -0.834000       15.9994           0
   73919 WT4  7672 TIP3 H1   HT     0.417000        1.0080           0
   73920 WT4  7672 TIP3 H2   HT     0.417000        1.0080           0
   73921 WT4  7673 TIP3 OH2  OT    -0.834000       15.9994           0
   73922 WT4  7673 TIP3 H1   HT     0.417000        1.0080           0
   73923 WT4  7673 TIP3 H2   HT     0.417000        1.0080           0
   73924 WT4  7674 TIP3 OH2  OT    -0.834000       15.9994           0
   73925 WT4  7674 TIP3 H1   HT     0.417000        1.0080           0
   73926 WT4  7674 TIP3 H2   HT     0.417000        1.0080           0
   73927 WT4  7675 TIP3 OH2  OT    -0.834000       15.9994           0
   73928 WT4  7675 TIP3 H1   HT     0.417000        1.0080           0
   73929 WT4  7675 TIP3 H2   HT     0.417000        1.0080           0
   73930 WT4  7676 TIP3 OH2  OT    -0.834000       15.9994           0
   73931 WT4  7676 TIP3 H1   HT     0.417000        1.0080           0
   73932 WT4  7676 TIP3 H2   HT     0.417000        1.0080           0
   73933 WT4  7678 TIP3 OH2  OT    -0.834000       15.9994           0
   73934 WT4  7678 TIP3 H1   HT     0.417000        1.0080           0
   73935 WT4  7678 TIP3 H2   HT     0.417000        1.0080           0
   73936 WT4  7679 TIP3 OH2  OT    -0.834000       15.9994           0
   73937 WT4  7679 TIP3 H1   HT     0.417000        1.0080           0
   73938 WT4  7679 TIP3 H2   HT     0.417000        1.0080           0
   73939 WT4  7680 TIP3 OH2  OT    -0.834000       15.9994           0
   73940 WT4  7680 TIP3 H1   HT     0.417000        1.0080           0
   73941 WT4  7680 TIP3 H2   HT     0.417000        1.0080           0
   73942 WT4  7681 TIP3 OH2  OT    -0.834000       15.9994           0
   73943 WT4  7681 TIP3 H1   HT     0.417000        1.0080           0
   73944 WT4  7681 TIP3 H2   HT     0.417000        1.0080           0
   73945 WT4  7682 TIP3 OH2  OT    -0.834000       15.9994           0
   73946 WT4  7682 TIP3 H1   HT     0.417000        1.0080           0
   73947 WT4  7682 TIP3 H2   HT     0.417000        1.0080           0
   73948 WT4  7686 TIP3 OH2  OT    -0.834000       15.9994           0
   73949 WT4  7686 TIP3 H1   HT     0.417000        1.0080           0
   73950 WT4  7686 TIP3 H2   HT     0.417000        1.0080           0
   73951 WT4  7688 TIP3 OH2  OT    -0.834000       15.9994           0
   73952 WT4  7688 TIP3 H1   HT     0.417000        1.0080           0
   73953 WT4  7688 TIP3 H2   HT     0.417000        1.0080           0
   73954 WT4  7689 TIP3 OH2  OT    -0.834000       15.9994           0
   73955 WT4  7689 TIP3 H1   HT     0.417000        1.0080           0
   73956 WT4  7689 TIP3 H2   HT     0.417000        1.0080           0
   73957 WT4  7690 TIP3 OH2  OT    -0.834000       15.9994           0
   73958 WT4  7690 TIP3 H1   HT     0.417000        1.0080           0
   73959 WT4  7690 TIP3 H2   HT     0.417000        1.0080           0
   73960 WT4  7691 TIP3 OH2  OT    -0.834000       15.9994           0
   73961 WT4  7691 TIP3 H1   HT     0.417000        1.0080           0
   73962 WT4  7691 TIP3 H2   HT     0.417000        1.0080           0
   73963 WT4  7693 TIP3 OH2  OT    -0.834000       15.9994           0
   73964 WT4  7693 TIP3 H1   HT     0.417000        1.0080           0
   73965 WT4  7693 TIP3 H2   HT     0.417000        1.0080           0
   73966 WT4  7694 TIP3 OH2  OT    -0.834000       15.9994           0
   73967 WT4  7694 TIP3 H1   HT     0.417000        1.0080           0
   73968 WT4  7694 TIP3 H2   HT     0.417000        1.0080           0
   73969 WT4  7695 TIP3 OH2  OT    -0.834000       15.9994           0
   73970 WT4  7695 TIP3 H1   HT     0.417000        1.0080           0
   73971 WT4  7695 TIP3 H2   HT     0.417000        1.0080           0
   73972 WT4  7696 TIP3 OH2  OT    -0.834000       15.9994           0
   73973 WT4  7696 TIP3 H1   HT     0.417000        1.0080           0
   73974 WT4  7696 TIP3 H2   HT     0.417000        1.0080           0
   73975 WT4  7697 TIP3 OH2  OT    -0.834000       15.9994           0
   73976 WT4  7697 TIP3 H1   HT     0.417000        1.0080           0
   73977 WT4  7697 TIP3 H2   HT     0.417000        1.0080           0
   73978 WT4  7699 TIP3 OH2  OT    -0.834000       15.9994           0
   73979 WT4  7699 TIP3 H1   HT     0.417000        1.0080           0
   73980 WT4  7699 TIP3 H2   HT     0.417000        1.0080           0
   73981 WT4  7700 TIP3 OH2  OT    -0.834000       15.9994           0
   73982 WT4  7700 TIP3 H1   HT     0.417000        1.0080           0
   73983 WT4  7700 TIP3 H2   HT     0.417000        1.0080           0
   73984 WT4  7701 TIP3 OH2  OT    -0.834000       15.9994           0
   73985 WT4  7701 TIP3 H1   HT     0.417000        1.0080           0
   73986 WT4  7701 TIP3 H2   HT     0.417000        1.0080           0
   73987 WT4  7702 TIP3 OH2  OT    -0.834000       15.9994           0
   73988 WT4  7702 TIP3 H1   HT     0.417000        1.0080           0
   73989 WT4  7702 TIP3 H2   HT     0.417000        1.0080           0
   73990 WT4  7705 TIP3 OH2  OT    -0.834000       15.9994           0
   73991 WT4  7705 TIP3 H1   HT     0.417000        1.0080           0
   73992 WT4  7705 TIP3 H2   HT     0.417000        1.0080           0
   73993 WT4  7707 TIP3 OH2  OT    -0.834000       15.9994           0
   73994 WT4  7707 TIP3 H1   HT     0.417000        1.0080           0
   73995 WT4  7707 TIP3 H2   HT     0.417000        1.0080           0
   73996 WT4  7708 TIP3 OH2  OT    -0.834000       15.9994           0
   73997 WT4  7708 TIP3 H1   HT     0.417000        1.0080           0
   73998 WT4  7708 TIP3 H2   HT     0.417000        1.0080           0
   73999 WT4  7710 TIP3 OH2  OT    -0.834000       15.9994           0
   74000 WT4  7710 TIP3 H1   HT     0.417000        1.0080           0
   74001 WT4  7710 TIP3 H2   HT     0.417000        1.0080           0
   74002 WT4  7711 TIP3 OH2  OT    -0.834000       15.9994           0
   74003 WT4  7711 TIP3 H1   HT     0.417000        1.0080           0
   74004 WT4  7711 TIP3 H2   HT     0.417000        1.0080           0
   74005 WT4  7712 TIP3 OH2  OT    -0.834000       15.9994           0
   74006 WT4  7712 TIP3 H1   HT     0.417000        1.0080           0
   74007 WT4  7712 TIP3 H2   HT     0.417000        1.0080           0
   74008 WT4  7713 TIP3 OH2  OT    -0.834000       15.9994           0
   74009 WT4  7713 TIP3 H1   HT     0.417000        1.0080           0
   74010 WT4  7713 TIP3 H2   HT     0.417000        1.0080           0
   74011 WT4  7714 TIP3 OH2  OT    -0.834000       15.9994           0
   74012 WT4  7714 TIP3 H1   HT     0.417000        1.0080           0
   74013 WT4  7714 TIP3 H2   HT     0.417000        1.0080           0
   74014 WT4  7715 TIP3 OH2  OT    -0.834000       15.9994           0
   74015 WT4  7715 TIP3 H1   HT     0.417000        1.0080           0
   74016 WT4  7715 TIP3 H2   HT     0.417000        1.0080           0
   74017 WT4  7716 TIP3 OH2  OT    -0.834000       15.9994           0
   74018 WT4  7716 TIP3 H1   HT     0.417000        1.0080           0
   74019 WT4  7716 TIP3 H2   HT     0.417000        1.0080           0
   74020 WT4  7717 TIP3 OH2  OT    -0.834000       15.9994           0
   74021 WT4  7717 TIP3 H1   HT     0.417000        1.0080           0
   74022 WT4  7717 TIP3 H2   HT     0.417000        1.0080           0
   74023 WT4  7718 TIP3 OH2  OT    -0.834000       15.9994           0
   74024 WT4  7718 TIP3 H1   HT     0.417000        1.0080           0
   74025 WT4  7718 TIP3 H2   HT     0.417000        1.0080           0
   74026 WT4  7720 TIP3 OH2  OT    -0.834000       15.9994           0
   74027 WT4  7720 TIP3 H1   HT     0.417000        1.0080           0
   74028 WT4  7720 TIP3 H2   HT     0.417000        1.0080           0
   74029 WT4  7730 TIP3 OH2  OT    -0.834000       15.9994           0
   74030 WT4  7730 TIP3 H1   HT     0.417000        1.0080           0
   74031 WT4  7730 TIP3 H2   HT     0.417000        1.0080           0
   74032 WT4  7731 TIP3 OH2  OT    -0.834000       15.9994           0
   74033 WT4  7731 TIP3 H1   HT     0.417000        1.0080           0
   74034 WT4  7731 TIP3 H2   HT     0.417000        1.0080           0
   74035 WT4  7733 TIP3 OH2  OT    -0.834000       15.9994           0
   74036 WT4  7733 TIP3 H1   HT     0.417000        1.0080           0
   74037 WT4  7733 TIP3 H2   HT     0.417000        1.0080           0
   74038 WT4  7734 TIP3 OH2  OT    -0.834000       15.9994           0
   74039 WT4  7734 TIP3 H1   HT     0.417000        1.0080           0
   74040 WT4  7734 TIP3 H2   HT     0.417000        1.0080           0
   74041 WT4  7735 TIP3 OH2  OT    -0.834000       15.9994           0
   74042 WT4  7735 TIP3 H1   HT     0.417000        1.0080           0
   74043 WT4  7735 TIP3 H2   HT     0.417000        1.0080           0
   74044 WT4  7736 TIP3 OH2  OT    -0.834000       15.9994           0
   74045 WT4  7736 TIP3 H1   HT     0.417000        1.0080           0
   74046 WT4  7736 TIP3 H2   HT     0.417000        1.0080           0
   74047 WT4  7737 TIP3 OH2  OT    -0.834000       15.9994           0
   74048 WT4  7737 TIP3 H1   HT     0.417000        1.0080           0
   74049 WT4  7737 TIP3 H2   HT     0.417000        1.0080           0
   74050 WT4  7739 TIP3 OH2  OT    -0.834000       15.9994           0
   74051 WT4  7739 TIP3 H1   HT     0.417000        1.0080           0
   74052 WT4  7739 TIP3 H2   HT     0.417000        1.0080           0
   74053 WT4  7741 TIP3 OH2  OT    -0.834000       15.9994           0
   74054 WT4  7741 TIP3 H1   HT     0.417000        1.0080           0
   74055 WT4  7741 TIP3 H2   HT     0.417000        1.0080           0
   74056 WT4  7742 TIP3 OH2  OT    -0.834000       15.9994           0
   74057 WT4  7742 TIP3 H1   HT     0.417000        1.0080           0
   74058 WT4  7742 TIP3 H2   HT     0.417000        1.0080           0
   74059 WT4  7744 TIP3 OH2  OT    -0.834000       15.9994           0
   74060 WT4  7744 TIP3 H1   HT     0.417000        1.0080           0
   74061 WT4  7744 TIP3 H2   HT     0.417000        1.0080           0
   74062 WT4  7748 TIP3 OH2  OT    -0.834000       15.9994           0
   74063 WT4  7748 TIP3 H1   HT     0.417000        1.0080           0
   74064 WT4  7748 TIP3 H2   HT     0.417000        1.0080           0
   74065 WT4  7750 TIP3 OH2  OT    -0.834000       15.9994           0
   74066 WT4  7750 TIP3 H1   HT     0.417000        1.0080           0
   74067 WT4  7750 TIP3 H2   HT     0.417000        1.0080           0
   74068 WT4  7751 TIP3 OH2  OT    -0.834000       15.9994           0
   74069 WT4  7751 TIP3 H1   HT     0.417000        1.0080           0
   74070 WT4  7751 TIP3 H2   HT     0.417000        1.0080           0
   74071 WT4  7752 TIP3 OH2  OT    -0.834000       15.9994           0
   74072 WT4  7752 TIP3 H1   HT     0.417000        1.0080           0
   74073 WT4  7752 TIP3 H2   HT     0.417000        1.0080           0
   74074 WT4  7753 TIP3 OH2  OT    -0.834000       15.9994           0
   74075 WT4  7753 TIP3 H1   HT     0.417000        1.0080           0
   74076 WT4  7753 TIP3 H2   HT     0.417000        1.0080           0
   74077 WT4  7754 TIP3 OH2  OT    -0.834000       15.9994           0
   74078 WT4  7754 TIP3 H1   HT     0.417000        1.0080           0
   74079 WT4  7754 TIP3 H2   HT     0.417000        1.0080           0
   74080 WT4  7755 TIP3 OH2  OT    -0.834000       15.9994           0
   74081 WT4  7755 TIP3 H1   HT     0.417000        1.0080           0
   74082 WT4  7755 TIP3 H2   HT     0.417000        1.0080           0
   74083 WT4  7756 TIP3 OH2  OT    -0.834000       15.9994           0
   74084 WT4  7756 TIP3 H1   HT     0.417000        1.0080           0
   74085 WT4  7756 TIP3 H2   HT     0.417000        1.0080           0
   74086 WT4  7757 TIP3 OH2  OT    -0.834000       15.9994           0
   74087 WT4  7757 TIP3 H1   HT     0.417000        1.0080           0
   74088 WT4  7757 TIP3 H2   HT     0.417000        1.0080           0
   74089 WT4  7759 TIP3 OH2  OT    -0.834000       15.9994           0
   74090 WT4  7759 TIP3 H1   HT     0.417000        1.0080           0
   74091 WT4  7759 TIP3 H2   HT     0.417000        1.0080           0
   74092 WT4  7760 TIP3 OH2  OT    -0.834000       15.9994           0
   74093 WT4  7760 TIP3 H1   HT     0.417000        1.0080           0
   74094 WT4  7760 TIP3 H2   HT     0.417000        1.0080           0
   74095 WT4  7763 TIP3 OH2  OT    -0.834000       15.9994           0
   74096 WT4  7763 TIP3 H1   HT     0.417000        1.0080           0
   74097 WT4  7763 TIP3 H2   HT     0.417000        1.0080           0
   74098 WT4  7764 TIP3 OH2  OT    -0.834000       15.9994           0
   74099 WT4  7764 TIP3 H1   HT     0.417000        1.0080           0
   74100 WT4  7764 TIP3 H2   HT     0.417000        1.0080           0
   74101 WT4  7772 TIP3 OH2  OT    -0.834000       15.9994           0
   74102 WT4  7772 TIP3 H1   HT     0.417000        1.0080           0
   74103 WT4  7772 TIP3 H2   HT     0.417000        1.0080           0
   74104 WT4  7773 TIP3 OH2  OT    -0.834000       15.9994           0
   74105 WT4  7773 TIP3 H1   HT     0.417000        1.0080           0
   74106 WT4  7773 TIP3 H2   HT     0.417000        1.0080           0
   74107 WT4  7774 TIP3 OH2  OT    -0.834000       15.9994           0
   74108 WT4  7774 TIP3 H1   HT     0.417000        1.0080           0
   74109 WT4  7774 TIP3 H2   HT     0.417000        1.0080           0
   74110 WT4  7775 TIP3 OH2  OT    -0.834000       15.9994           0
   74111 WT4  7775 TIP3 H1   HT     0.417000        1.0080           0
   74112 WT4  7775 TIP3 H2   HT     0.417000        1.0080           0
   74113 WT4  7776 TIP3 OH2  OT    -0.834000       15.9994           0
   74114 WT4  7776 TIP3 H1   HT     0.417000        1.0080           0
   74115 WT4  7776 TIP3 H2   HT     0.417000        1.0080           0
   74116 WT4  7777 TIP3 OH2  OT    -0.834000       15.9994           0
   74117 WT4  7777 TIP3 H1   HT     0.417000        1.0080           0
   74118 WT4  7777 TIP3 H2   HT     0.417000        1.0080           0
   74119 WT4  7781 TIP3 OH2  OT    -0.834000       15.9994           0
   74120 WT4  7781 TIP3 H1   HT     0.417000        1.0080           0
   74121 WT4  7781 TIP3 H2   HT     0.417000        1.0080           0
   74122 WT4  7782 TIP3 OH2  OT    -0.834000       15.9994           0
   74123 WT4  7782 TIP3 H1   HT     0.417000        1.0080           0
   74124 WT4  7782 TIP3 H2   HT     0.417000        1.0080           0
   74125 WT4  7791 TIP3 OH2  OT    -0.834000       15.9994           0
   74126 WT4  7791 TIP3 H1   HT     0.417000        1.0080           0
   74127 WT4  7791 TIP3 H2   HT     0.417000        1.0080           0
   74128 WT4  7793 TIP3 OH2  OT    -0.834000       15.9994           0
   74129 WT4  7793 TIP3 H1   HT     0.417000        1.0080           0
   74130 WT4  7793 TIP3 H2   HT     0.417000        1.0080           0
   74131 WT4  7796 TIP3 OH2  OT    -0.834000       15.9994           0
   74132 WT4  7796 TIP3 H1   HT     0.417000        1.0080           0
   74133 WT4  7796 TIP3 H2   HT     0.417000        1.0080           0
   74134 WT4  7797 TIP3 OH2  OT    -0.834000       15.9994           0
   74135 WT4  7797 TIP3 H1   HT     0.417000        1.0080           0
   74136 WT4  7797 TIP3 H2   HT     0.417000        1.0080           0
   74137 WT4  7798 TIP3 OH2  OT    -0.834000       15.9994           0
   74138 WT4  7798 TIP3 H1   HT     0.417000        1.0080           0
   74139 WT4  7798 TIP3 H2   HT     0.417000        1.0080           0
   74140 WT4  7802 TIP3 OH2  OT    -0.834000       15.9994           0
   74141 WT4  7802 TIP3 H1   HT     0.417000        1.0080           0
   74142 WT4  7802 TIP3 H2   HT     0.417000        1.0080           0
   74143 WT4  7811 TIP3 OH2  OT    -0.834000       15.9994           0
   74144 WT4  7811 TIP3 H1   HT     0.417000        1.0080           0
   74145 WT4  7811 TIP3 H2   HT     0.417000        1.0080           0
   74146 WT4  7815 TIP3 OH2  OT    -0.834000       15.9994           0
   74147 WT4  7815 TIP3 H1   HT     0.417000        1.0080           0
   74148 WT4  7815 TIP3 H2   HT     0.417000        1.0080           0
   74149 WT4  7816 TIP3 OH2  OT    -0.834000       15.9994           0
   74150 WT4  7816 TIP3 H1   HT     0.417000        1.0080           0
   74151 WT4  7816 TIP3 H2   HT     0.417000        1.0080           0
   74152 WT4  7820 TIP3 OH2  OT    -0.834000       15.9994           0
   74153 WT4  7820 TIP3 H1   HT     0.417000        1.0080           0
   74154 WT4  7820 TIP3 H2   HT     0.417000        1.0080           0
   74155 WT4  7822 TIP3 OH2  OT    -0.834000       15.9994           0
   74156 WT4  7822 TIP3 H1   HT     0.417000        1.0080           0
   74157 WT4  7822 TIP3 H2   HT     0.417000        1.0080           0
   74158 WT4  7835 TIP3 OH2  OT    -0.834000       15.9994           0
   74159 WT4  7835 TIP3 H1   HT     0.417000        1.0080           0
   74160 WT4  7835 TIP3 H2   HT     0.417000        1.0080           0
   74161 WT4  7839 TIP3 OH2  OT    -0.834000       15.9994           0
   74162 WT4  7839 TIP3 H1   HT     0.417000        1.0080           0
   74163 WT4  7839 TIP3 H2   HT     0.417000        1.0080           0
   74164 WT4  7843 TIP3 OH2  OT    -0.834000       15.9994           0
   74165 WT4  7843 TIP3 H1   HT     0.417000        1.0080           0
   74166 WT4  7843 TIP3 H2   HT     0.417000        1.0080           0
   74167 WT4  7848 TIP3 OH2  OT    -0.834000       15.9994           0
   74168 WT4  7848 TIP3 H1   HT     0.417000        1.0080           0
   74169 WT4  7848 TIP3 H2   HT     0.417000        1.0080           0
   74170 WT4  7849 TIP3 OH2  OT    -0.834000       15.9994           0
   74171 WT4  7849 TIP3 H1   HT     0.417000        1.0080           0
   74172 WT4  7849 TIP3 H2   HT     0.417000        1.0080           0
   74173 WT4  7853 TIP3 OH2  OT    -0.834000       15.9994           0
   74174 WT4  7853 TIP3 H1   HT     0.417000        1.0080           0
   74175 WT4  7853 TIP3 H2   HT     0.417000        1.0080           0
   74176 WT4  7860 TIP3 OH2  OT    -0.834000       15.9994           0
   74177 WT4  7860 TIP3 H1   HT     0.417000        1.0080           0
   74178 WT4  7860 TIP3 H2   HT     0.417000        1.0080           0
   74179 WT4  7869 TIP3 OH2  OT    -0.834000       15.9994           0
   74180 WT4  7869 TIP3 H1   HT     0.417000        1.0080           0
   74181 WT4  7869 TIP3 H2   HT     0.417000        1.0080           0
   74182 WT4  7872 TIP3 OH2  OT    -0.834000       15.9994           0
   74183 WT4  7872 TIP3 H1   HT     0.417000        1.0080           0
   74184 WT4  7872 TIP3 H2   HT     0.417000        1.0080           0
   74185 WT4  7873 TIP3 OH2  OT    -0.834000       15.9994           0
   74186 WT4  7873 TIP3 H1   HT     0.417000        1.0080           0
   74187 WT4  7873 TIP3 H2   HT     0.417000        1.0080           0
   74188 WT4  7882 TIP3 OH2  OT    -0.834000       15.9994           0
   74189 WT4  7882 TIP3 H1   HT     0.417000        1.0080           0
   74190 WT4  7882 TIP3 H2   HT     0.417000        1.0080           0
   74191 WT4  7883 TIP3 OH2  OT    -0.834000       15.9994           0
   74192 WT4  7883 TIP3 H1   HT     0.417000        1.0080           0
   74193 WT4  7883 TIP3 H2   HT     0.417000        1.0080           0
   74194 WT4  7886 TIP3 OH2  OT    -0.834000       15.9994           0
   74195 WT4  7886 TIP3 H1   HT     0.417000        1.0080           0
   74196 WT4  7886 TIP3 H2   HT     0.417000        1.0080           0
   74197 WT4  7894 TIP3 OH2  OT    -0.834000       15.9994           0
   74198 WT4  7894 TIP3 H1   HT     0.417000        1.0080           0
   74199 WT4  7894 TIP3 H2   HT     0.417000        1.0080           0
   74200 WT4  7895 TIP3 OH2  OT    -0.834000       15.9994           0
   74201 WT4  7895 TIP3 H1   HT     0.417000        1.0080           0
   74202 WT4  7895 TIP3 H2   HT     0.417000        1.0080           0
   74203 WT4  7896 TIP3 OH2  OT    -0.834000       15.9994           0
   74204 WT4  7896 TIP3 H1   HT     0.417000        1.0080           0
   74205 WT4  7896 TIP3 H2   HT     0.417000        1.0080           0
   74206 WT4  7902 TIP3 OH2  OT    -0.834000       15.9994           0
   74207 WT4  7902 TIP3 H1   HT     0.417000        1.0080           0
   74208 WT4  7902 TIP3 H2   HT     0.417000        1.0080           0
   74209 WT4  7904 TIP3 OH2  OT    -0.834000       15.9994           0
   74210 WT4  7904 TIP3 H1   HT     0.417000        1.0080           0
   74211 WT4  7904 TIP3 H2   HT     0.417000        1.0080           0
   74212 WT4  7908 TIP3 OH2  OT    -0.834000       15.9994           0
   74213 WT4  7908 TIP3 H1   HT     0.417000        1.0080           0
   74214 WT4  7908 TIP3 H2   HT     0.417000        1.0080           0
   74215 WT4  7922 TIP3 OH2  OT    -0.834000       15.9994           0
   74216 WT4  7922 TIP3 H1   HT     0.417000        1.0080           0
   74217 WT4  7922 TIP3 H2   HT     0.417000        1.0080           0
   74218 WT4  7923 TIP3 OH2  OT    -0.834000       15.9994           0
   74219 WT4  7923 TIP3 H1   HT     0.417000        1.0080           0
   74220 WT4  7923 TIP3 H2   HT     0.417000        1.0080           0
   74221 WT4  7924 TIP3 OH2  OT    -0.834000       15.9994           0
   74222 WT4  7924 TIP3 H1   HT     0.417000        1.0080           0
   74223 WT4  7924 TIP3 H2   HT     0.417000        1.0080           0
   74224 WT4  7926 TIP3 OH2  OT    -0.834000       15.9994           0
   74225 WT4  7926 TIP3 H1   HT     0.417000        1.0080           0
   74226 WT4  7926 TIP3 H2   HT     0.417000        1.0080           0
   74227 WT4  7927 TIP3 OH2  OT    -0.834000       15.9994           0
   74228 WT4  7927 TIP3 H1   HT     0.417000        1.0080           0
   74229 WT4  7927 TIP3 H2   HT     0.417000        1.0080           0
   74230 WT4  7929 TIP3 OH2  OT    -0.834000       15.9994           0
   74231 WT4  7929 TIP3 H1   HT     0.417000        1.0080           0
   74232 WT4  7929 TIP3 H2   HT     0.417000        1.0080           0
   74233 WT4  7930 TIP3 OH2  OT    -0.834000       15.9994           0
   74234 WT4  7930 TIP3 H1   HT     0.417000        1.0080           0
   74235 WT4  7930 TIP3 H2   HT     0.417000        1.0080           0
   74236 WT4  7931 TIP3 OH2  OT    -0.834000       15.9994           0
   74237 WT4  7931 TIP3 H1   HT     0.417000        1.0080           0
   74238 WT4  7931 TIP3 H2   HT     0.417000        1.0080           0
   74239 WT4  7933 TIP3 OH2  OT    -0.834000       15.9994           0
   74240 WT4  7933 TIP3 H1   HT     0.417000        1.0080           0
   74241 WT4  7933 TIP3 H2   HT     0.417000        1.0080           0
   74242 WT4  7938 TIP3 OH2  OT    -0.834000       15.9994           0
   74243 WT4  7938 TIP3 H1   HT     0.417000        1.0080           0
   74244 WT4  7938 TIP3 H2   HT     0.417000        1.0080           0
   74245 WT4  7939 TIP3 OH2  OT    -0.834000       15.9994           0
   74246 WT4  7939 TIP3 H1   HT     0.417000        1.0080           0
   74247 WT4  7939 TIP3 H2   HT     0.417000        1.0080           0
   74248 WT4  7941 TIP3 OH2  OT    -0.834000       15.9994           0
   74249 WT4  7941 TIP3 H1   HT     0.417000        1.0080           0
   74250 WT4  7941 TIP3 H2   HT     0.417000        1.0080           0
   74251 WT4  7942 TIP3 OH2  OT    -0.834000       15.9994           0
   74252 WT4  7942 TIP3 H1   HT     0.417000        1.0080           0
   74253 WT4  7942 TIP3 H2   HT     0.417000        1.0080           0
   74254 WT4  7943 TIP3 OH2  OT    -0.834000       15.9994           0
   74255 WT4  7943 TIP3 H1   HT     0.417000        1.0080           0
   74256 WT4  7943 TIP3 H2   HT     0.417000        1.0080           0
   74257 WT4  7945 TIP3 OH2  OT    -0.834000       15.9994           0
   74258 WT4  7945 TIP3 H1   HT     0.417000        1.0080           0
   74259 WT4  7945 TIP3 H2   HT     0.417000        1.0080           0
   74260 WT4  7947 TIP3 OH2  OT    -0.834000       15.9994           0
   74261 WT4  7947 TIP3 H1   HT     0.417000        1.0080           0
   74262 WT4  7947 TIP3 H2   HT     0.417000        1.0080           0
   74263 WT4  7948 TIP3 OH2  OT    -0.834000       15.9994           0
   74264 WT4  7948 TIP3 H1   HT     0.417000        1.0080           0
   74265 WT4  7948 TIP3 H2   HT     0.417000        1.0080           0
   74266 WT4  7949 TIP3 OH2  OT    -0.834000       15.9994           0
   74267 WT4  7949 TIP3 H1   HT     0.417000        1.0080           0
   74268 WT4  7949 TIP3 H2   HT     0.417000        1.0080           0
   74269 WT4  7950 TIP3 OH2  OT    -0.834000       15.9994           0
   74270 WT4  7950 TIP3 H1   HT     0.417000        1.0080           0
   74271 WT4  7950 TIP3 H2   HT     0.417000        1.0080           0
   74272 WT4  7951 TIP3 OH2  OT    -0.834000       15.9994           0
   74273 WT4  7951 TIP3 H1   HT     0.417000        1.0080           0
   74274 WT4  7951 TIP3 H2   HT     0.417000        1.0080           0
   74275 WT4  7952 TIP3 OH2  OT    -0.834000       15.9994           0
   74276 WT4  7952 TIP3 H1   HT     0.417000        1.0080           0
   74277 WT4  7952 TIP3 H2   HT     0.417000        1.0080           0
   74278 WT4  7961 TIP3 OH2  OT    -0.834000       15.9994           0
   74279 WT4  7961 TIP3 H1   HT     0.417000        1.0080           0
   74280 WT4  7961 TIP3 H2   HT     0.417000        1.0080           0
   74281 WT4  7962 TIP3 OH2  OT    -0.834000       15.9994           0
   74282 WT4  7962 TIP3 H1   HT     0.417000        1.0080           0
   74283 WT4  7962 TIP3 H2   HT     0.417000        1.0080           0
   74284 WT4  7963 TIP3 OH2  OT    -0.834000       15.9994           0
   74285 WT4  7963 TIP3 H1   HT     0.417000        1.0080           0
   74286 WT4  7963 TIP3 H2   HT     0.417000        1.0080           0
   74287 WT4  7964 TIP3 OH2  OT    -0.834000       15.9994           0
   74288 WT4  7964 TIP3 H1   HT     0.417000        1.0080           0
   74289 WT4  7964 TIP3 H2   HT     0.417000        1.0080           0
   74290 WT4  7965 TIP3 OH2  OT    -0.834000       15.9994           0
   74291 WT4  7965 TIP3 H1   HT     0.417000        1.0080           0
   74292 WT4  7965 TIP3 H2   HT     0.417000        1.0080           0
   74293 WT4  7966 TIP3 OH2  OT    -0.834000       15.9994           0
   74294 WT4  7966 TIP3 H1   HT     0.417000        1.0080           0
   74295 WT4  7966 TIP3 H2   HT     0.417000        1.0080           0
   74296 WT4  7967 TIP3 OH2  OT    -0.834000       15.9994           0
   74297 WT4  7967 TIP3 H1   HT     0.417000        1.0080           0
   74298 WT4  7967 TIP3 H2   HT     0.417000        1.0080           0
   74299 WT4  7969 TIP3 OH2  OT    -0.834000       15.9994           0
   74300 WT4  7969 TIP3 H1   HT     0.417000        1.0080           0
   74301 WT4  7969 TIP3 H2   HT     0.417000        1.0080           0
   74302 WT4  7970 TIP3 OH2  OT    -0.834000       15.9994           0
   74303 WT4  7970 TIP3 H1   HT     0.417000        1.0080           0
   74304 WT4  7970 TIP3 H2   HT     0.417000        1.0080           0
   74305 WT4  7973 TIP3 OH2  OT    -0.834000       15.9994           0
   74306 WT4  7973 TIP3 H1   HT     0.417000        1.0080           0
   74307 WT4  7973 TIP3 H2   HT     0.417000        1.0080           0
   74308 WT4  7974 TIP3 OH2  OT    -0.834000       15.9994           0
   74309 WT4  7974 TIP3 H1   HT     0.417000        1.0080           0
   74310 WT4  7974 TIP3 H2   HT     0.417000        1.0080           0
   74311 WT4  7981 TIP3 OH2  OT    -0.834000       15.9994           0
   74312 WT4  7981 TIP3 H1   HT     0.417000        1.0080           0
   74313 WT4  7981 TIP3 H2   HT     0.417000        1.0080           0
   74314 WT4  7982 TIP3 OH2  OT    -0.834000       15.9994           0
   74315 WT4  7982 TIP3 H1   HT     0.417000        1.0080           0
   74316 WT4  7982 TIP3 H2   HT     0.417000        1.0080           0
   74317 WT4  7983 TIP3 OH2  OT    -0.834000       15.9994           0
   74318 WT4  7983 TIP3 H1   HT     0.417000        1.0080           0
   74319 WT4  7983 TIP3 H2   HT     0.417000        1.0080           0
   74320 WT4  7984 TIP3 OH2  OT    -0.834000       15.9994           0
   74321 WT4  7984 TIP3 H1   HT     0.417000        1.0080           0
   74322 WT4  7984 TIP3 H2   HT     0.417000        1.0080           0
   74323 WT4  7985 TIP3 OH2  OT    -0.834000       15.9994           0
   74324 WT4  7985 TIP3 H1   HT     0.417000        1.0080           0
   74325 WT4  7985 TIP3 H2   HT     0.417000        1.0080           0
   74326 WT4  7986 TIP3 OH2  OT    -0.834000       15.9994           0
   74327 WT4  7986 TIP3 H1   HT     0.417000        1.0080           0
   74328 WT4  7986 TIP3 H2   HT     0.417000        1.0080           0
   74329 WT4  7987 TIP3 OH2  OT    -0.834000       15.9994           0
   74330 WT4  7987 TIP3 H1   HT     0.417000        1.0080           0
   74331 WT4  7987 TIP3 H2   HT     0.417000        1.0080           0
   74332 WT4  7988 TIP3 OH2  OT    -0.834000       15.9994           0
   74333 WT4  7988 TIP3 H1   HT     0.417000        1.0080           0
   74334 WT4  7988 TIP3 H2   HT     0.417000        1.0080           0
   74335 WT4  7989 TIP3 OH2  OT    -0.834000       15.9994           0
   74336 WT4  7989 TIP3 H1   HT     0.417000        1.0080           0
   74337 WT4  7989 TIP3 H2   HT     0.417000        1.0080           0
   74338 WT4  7990 TIP3 OH2  OT    -0.834000       15.9994           0
   74339 WT4  7990 TIP3 H1   HT     0.417000        1.0080           0
   74340 WT4  7990 TIP3 H2   HT     0.417000        1.0080           0
   74341 WT4  7991 TIP3 OH2  OT    -0.834000       15.9994           0
   74342 WT4  7991 TIP3 H1   HT     0.417000        1.0080           0
   74343 WT4  7991 TIP3 H2   HT     0.417000        1.0080           0
   74344 WT4  7992 TIP3 OH2  OT    -0.834000       15.9994           0
   74345 WT4  7992 TIP3 H1   HT     0.417000        1.0080           0
   74346 WT4  7992 TIP3 H2   HT     0.417000        1.0080           0
   74347 WT4  7993 TIP3 OH2  OT    -0.834000       15.9994           0
   74348 WT4  7993 TIP3 H1   HT     0.417000        1.0080           0
   74349 WT4  7993 TIP3 H2   HT     0.417000        1.0080           0
   74350 WT4  7996 TIP3 OH2  OT    -0.834000       15.9994           0
   74351 WT4  7996 TIP3 H1   HT     0.417000        1.0080           0
   74352 WT4  7996 TIP3 H2   HT     0.417000        1.0080           0
   74353 WT4  8003 TIP3 OH2  OT    -0.834000       15.9994           0
   74354 WT4  8003 TIP3 H1   HT     0.417000        1.0080           0
   74355 WT4  8003 TIP3 H2   HT     0.417000        1.0080           0
   74356 WT4  8004 TIP3 OH2  OT    -0.834000       15.9994           0
   74357 WT4  8004 TIP3 H1   HT     0.417000        1.0080           0
   74358 WT4  8004 TIP3 H2   HT     0.417000        1.0080           0
   74359 WT4  8005 TIP3 OH2  OT    -0.834000       15.9994           0
   74360 WT4  8005 TIP3 H1   HT     0.417000        1.0080           0
   74361 WT4  8005 TIP3 H2   HT     0.417000        1.0080           0
   74362 WT4  8006 TIP3 OH2  OT    -0.834000       15.9994           0
   74363 WT4  8006 TIP3 H1   HT     0.417000        1.0080           0
   74364 WT4  8006 TIP3 H2   HT     0.417000        1.0080           0
   74365 WT4  8007 TIP3 OH2  OT    -0.834000       15.9994           0
   74366 WT4  8007 TIP3 H1   HT     0.417000        1.0080           0
   74367 WT4  8007 TIP3 H2   HT     0.417000        1.0080           0
   74368 WT4  8008 TIP3 OH2  OT    -0.834000       15.9994           0
   74369 WT4  8008 TIP3 H1   HT     0.417000        1.0080           0
   74370 WT4  8008 TIP3 H2   HT     0.417000        1.0080           0
   74371 WT4  8009 TIP3 OH2  OT    -0.834000       15.9994           0
   74372 WT4  8009 TIP3 H1   HT     0.417000        1.0080           0
   74373 WT4  8009 TIP3 H2   HT     0.417000        1.0080           0
   74374 WT4  8010 TIP3 OH2  OT    -0.834000       15.9994           0
   74375 WT4  8010 TIP3 H1   HT     0.417000        1.0080           0
   74376 WT4  8010 TIP3 H2   HT     0.417000        1.0080           0
   74377 WT4  8011 TIP3 OH2  OT    -0.834000       15.9994           0
   74378 WT4  8011 TIP3 H1   HT     0.417000        1.0080           0
   74379 WT4  8011 TIP3 H2   HT     0.417000        1.0080           0
   74380 WT4  8013 TIP3 OH2  OT    -0.834000       15.9994           0
   74381 WT4  8013 TIP3 H1   HT     0.417000        1.0080           0
   74382 WT4  8013 TIP3 H2   HT     0.417000        1.0080           0
   74383 WT4  8014 TIP3 OH2  OT    -0.834000       15.9994           0
   74384 WT4  8014 TIP3 H1   HT     0.417000        1.0080           0
   74385 WT4  8014 TIP3 H2   HT     0.417000        1.0080           0
   74386 WT4  8016 TIP3 OH2  OT    -0.834000       15.9994           0
   74387 WT4  8016 TIP3 H1   HT     0.417000        1.0080           0
   74388 WT4  8016 TIP3 H2   HT     0.417000        1.0080           0
   74389 WT4  8019 TIP3 OH2  OT    -0.834000       15.9994           0
   74390 WT4  8019 TIP3 H1   HT     0.417000        1.0080           0
   74391 WT4  8019 TIP3 H2   HT     0.417000        1.0080           0
   74392 WT4  8022 TIP3 OH2  OT    -0.834000       15.9994           0
   74393 WT4  8022 TIP3 H1   HT     0.417000        1.0080           0
   74394 WT4  8022 TIP3 H2   HT     0.417000        1.0080           0
   74395 WT4  8023 TIP3 OH2  OT    -0.834000       15.9994           0
   74396 WT4  8023 TIP3 H1   HT     0.417000        1.0080           0
   74397 WT4  8023 TIP3 H2   HT     0.417000        1.0080           0
   74398 WT4  8024 TIP3 OH2  OT    -0.834000       15.9994           0
   74399 WT4  8024 TIP3 H1   HT     0.417000        1.0080           0
   74400 WT4  8024 TIP3 H2   HT     0.417000        1.0080           0
   74401 WT4  8026 TIP3 OH2  OT    -0.834000       15.9994           0
   74402 WT4  8026 TIP3 H1   HT     0.417000        1.0080           0
   74403 WT4  8026 TIP3 H2   HT     0.417000        1.0080           0
   74404 WT4  8027 TIP3 OH2  OT    -0.834000       15.9994           0
   74405 WT4  8027 TIP3 H1   HT     0.417000        1.0080           0
   74406 WT4  8027 TIP3 H2   HT     0.417000        1.0080           0
   74407 WT4  8028 TIP3 OH2  OT    -0.834000       15.9994           0
   74408 WT4  8028 TIP3 H1   HT     0.417000        1.0080           0
   74409 WT4  8028 TIP3 H2   HT     0.417000        1.0080           0
   74410 WT4  8029 TIP3 OH2  OT    -0.834000       15.9994           0
   74411 WT4  8029 TIP3 H1   HT     0.417000        1.0080           0
   74412 WT4  8029 TIP3 H2   HT     0.417000        1.0080           0
   74413 WT4  8030 TIP3 OH2  OT    -0.834000       15.9994           0
   74414 WT4  8030 TIP3 H1   HT     0.417000        1.0080           0
   74415 WT4  8030 TIP3 H2   HT     0.417000        1.0080           0
   74416 WT4  8032 TIP3 OH2  OT    -0.834000       15.9994           0
   74417 WT4  8032 TIP3 H1   HT     0.417000        1.0080           0
   74418 WT4  8032 TIP3 H2   HT     0.417000        1.0080           0
   74419 WT4  8035 TIP3 OH2  OT    -0.834000       15.9994           0
   74420 WT4  8035 TIP3 H1   HT     0.417000        1.0080           0
   74421 WT4  8035 TIP3 H2   HT     0.417000        1.0080           0
   74422 WT4  8036 TIP3 OH2  OT    -0.834000       15.9994           0
   74423 WT4  8036 TIP3 H1   HT     0.417000        1.0080           0
   74424 WT4  8036 TIP3 H2   HT     0.417000        1.0080           0
   74425 WT4  8037 TIP3 OH2  OT    -0.834000       15.9994           0
   74426 WT4  8037 TIP3 H1   HT     0.417000        1.0080           0
   74427 WT4  8037 TIP3 H2   HT     0.417000        1.0080           0
   74428 WT4  8040 TIP3 OH2  OT    -0.834000       15.9994           0
   74429 WT4  8040 TIP3 H1   HT     0.417000        1.0080           0
   74430 WT4  8040 TIP3 H2   HT     0.417000        1.0080           0
   74431 WT4  8041 TIP3 OH2  OT    -0.834000       15.9994           0
   74432 WT4  8041 TIP3 H1   HT     0.417000        1.0080           0
   74433 WT4  8041 TIP3 H2   HT     0.417000        1.0080           0
   74434 WT4  8045 TIP3 OH2  OT    -0.834000       15.9994           0
   74435 WT4  8045 TIP3 H1   HT     0.417000        1.0080           0
   74436 WT4  8045 TIP3 H2   HT     0.417000        1.0080           0
   74437 WT4  8046 TIP3 OH2  OT    -0.834000       15.9994           0
   74438 WT4  8046 TIP3 H1   HT     0.417000        1.0080           0
   74439 WT4  8046 TIP3 H2   HT     0.417000        1.0080           0
   74440 WT4  8047 TIP3 OH2  OT    -0.834000       15.9994           0
   74441 WT4  8047 TIP3 H1   HT     0.417000        1.0080           0
   74442 WT4  8047 TIP3 H2   HT     0.417000        1.0080           0
   74443 WT4  8049 TIP3 OH2  OT    -0.834000       15.9994           0
   74444 WT4  8049 TIP3 H1   HT     0.417000        1.0080           0
   74445 WT4  8049 TIP3 H2   HT     0.417000        1.0080           0
   74446 WT4  8050 TIP3 OH2  OT    -0.834000       15.9994           0
   74447 WT4  8050 TIP3 H1   HT     0.417000        1.0080           0
   74448 WT4  8050 TIP3 H2   HT     0.417000        1.0080           0
   74449 WT4  8051 TIP3 OH2  OT    -0.834000       15.9994           0
   74450 WT4  8051 TIP3 H1   HT     0.417000        1.0080           0
   74451 WT4  8051 TIP3 H2   HT     0.417000        1.0080           0
   74452 WT4  8052 TIP3 OH2  OT    -0.834000       15.9994           0
   74453 WT4  8052 TIP3 H1   HT     0.417000        1.0080           0
   74454 WT4  8052 TIP3 H2   HT     0.417000        1.0080           0
   74455 WT4  8053 TIP3 OH2  OT    -0.834000       15.9994           0
   74456 WT4  8053 TIP3 H1   HT     0.417000        1.0080           0
   74457 WT4  8053 TIP3 H2   HT     0.417000        1.0080           0
   74458 WT4  8054 TIP3 OH2  OT    -0.834000       15.9994           0
   74459 WT4  8054 TIP3 H1   HT     0.417000        1.0080           0
   74460 WT4  8054 TIP3 H2   HT     0.417000        1.0080           0
   74461 WT4  8055 TIP3 OH2  OT    -0.834000       15.9994           0
   74462 WT4  8055 TIP3 H1   HT     0.417000        1.0080           0
   74463 WT4  8055 TIP3 H2   HT     0.417000        1.0080           0
   74464 WT4  8056 TIP3 OH2  OT    -0.834000       15.9994           0
   74465 WT4  8056 TIP3 H1   HT     0.417000        1.0080           0
   74466 WT4  8056 TIP3 H2   HT     0.417000        1.0080           0
   74467 WT4  8057 TIP3 OH2  OT    -0.834000       15.9994           0
   74468 WT4  8057 TIP3 H1   HT     0.417000        1.0080           0
   74469 WT4  8057 TIP3 H2   HT     0.417000        1.0080           0
   74470 WT4  8058 TIP3 OH2  OT    -0.834000       15.9994           0
   74471 WT4  8058 TIP3 H1   HT     0.417000        1.0080           0
   74472 WT4  8058 TIP3 H2   HT     0.417000        1.0080           0
   74473 WT4  8061 TIP3 OH2  OT    -0.834000       15.9994           0
   74474 WT4  8061 TIP3 H1   HT     0.417000        1.0080           0
   74475 WT4  8061 TIP3 H2   HT     0.417000        1.0080           0
   74476 WT4  8063 TIP3 OH2  OT    -0.834000       15.9994           0
   74477 WT4  8063 TIP3 H1   HT     0.417000        1.0080           0
   74478 WT4  8063 TIP3 H2   HT     0.417000        1.0080           0
   74479 WT4  8064 TIP3 OH2  OT    -0.834000       15.9994           0
   74480 WT4  8064 TIP3 H1   HT     0.417000        1.0080           0
   74481 WT4  8064 TIP3 H2   HT     0.417000        1.0080           0
   74482 WT4  8067 TIP3 OH2  OT    -0.834000       15.9994           0
   74483 WT4  8067 TIP3 H1   HT     0.417000        1.0080           0
   74484 WT4  8067 TIP3 H2   HT     0.417000        1.0080           0
   74485 WT4  8068 TIP3 OH2  OT    -0.834000       15.9994           0
   74486 WT4  8068 TIP3 H1   HT     0.417000        1.0080           0
   74487 WT4  8068 TIP3 H2   HT     0.417000        1.0080           0
   74488 WT4  8069 TIP3 OH2  OT    -0.834000       15.9994           0
   74489 WT4  8069 TIP3 H1   HT     0.417000        1.0080           0
   74490 WT4  8069 TIP3 H2   HT     0.417000        1.0080           0
   74491 WT4  8070 TIP3 OH2  OT    -0.834000       15.9994           0
   74492 WT4  8070 TIP3 H1   HT     0.417000        1.0080           0
   74493 WT4  8070 TIP3 H2   HT     0.417000        1.0080           0
   74494 WT4  8071 TIP3 OH2  OT    -0.834000       15.9994           0
   74495 WT4  8071 TIP3 H1   HT     0.417000        1.0080           0
   74496 WT4  8071 TIP3 H2   HT     0.417000        1.0080           0
   74497 WT4  8072 TIP3 OH2  OT    -0.834000       15.9994           0
   74498 WT4  8072 TIP3 H1   HT     0.417000        1.0080           0
   74499 WT4  8072 TIP3 H2   HT     0.417000        1.0080           0
   74500 WT4  8073 TIP3 OH2  OT    -0.834000       15.9994           0
   74501 WT4  8073 TIP3 H1   HT     0.417000        1.0080           0
   74502 WT4  8073 TIP3 H2   HT     0.417000        1.0080           0
   74503 WT4  8074 TIP3 OH2  OT    -0.834000       15.9994           0
   74504 WT4  8074 TIP3 H1   HT     0.417000        1.0080           0
   74505 WT4  8074 TIP3 H2   HT     0.417000        1.0080           0
   74506 WT4  8075 TIP3 OH2  OT    -0.834000       15.9994           0
   74507 WT4  8075 TIP3 H1   HT     0.417000        1.0080           0
   74508 WT4  8075 TIP3 H2   HT     0.417000        1.0080           0
   74509 WT4  8076 TIP3 OH2  OT    -0.834000       15.9994           0
   74510 WT4  8076 TIP3 H1   HT     0.417000        1.0080           0
   74511 WT4  8076 TIP3 H2   HT     0.417000        1.0080           0
   74512 WT4  8078 TIP3 OH2  OT    -0.834000       15.9994           0
   74513 WT4  8078 TIP3 H1   HT     0.417000        1.0080           0
   74514 WT4  8078 TIP3 H2   HT     0.417000        1.0080           0
   74515 WT4  8084 TIP3 OH2  OT    -0.834000       15.9994           0
   74516 WT4  8084 TIP3 H1   HT     0.417000        1.0080           0
   74517 WT4  8084 TIP3 H2   HT     0.417000        1.0080           0
   74518 WT4  8085 TIP3 OH2  OT    -0.834000       15.9994           0
   74519 WT4  8085 TIP3 H1   HT     0.417000        1.0080           0
   74520 WT4  8085 TIP3 H2   HT     0.417000        1.0080           0
   74521 WT4  8087 TIP3 OH2  OT    -0.834000       15.9994           0
   74522 WT4  8087 TIP3 H1   HT     0.417000        1.0080           0
   74523 WT4  8087 TIP3 H2   HT     0.417000        1.0080           0
   74524 WT4  8088 TIP3 OH2  OT    -0.834000       15.9994           0
   74525 WT4  8088 TIP3 H1   HT     0.417000        1.0080           0
   74526 WT4  8088 TIP3 H2   HT     0.417000        1.0080           0
   74527 WT4  8089 TIP3 OH2  OT    -0.834000       15.9994           0
   74528 WT4  8089 TIP3 H1   HT     0.417000        1.0080           0
   74529 WT4  8089 TIP3 H2   HT     0.417000        1.0080           0
   74530 WT4  8090 TIP3 OH2  OT    -0.834000       15.9994           0
   74531 WT4  8090 TIP3 H1   HT     0.417000        1.0080           0
   74532 WT4  8090 TIP3 H2   HT     0.417000        1.0080           0
   74533 WT4  8091 TIP3 OH2  OT    -0.834000       15.9994           0
   74534 WT4  8091 TIP3 H1   HT     0.417000        1.0080           0
   74535 WT4  8091 TIP3 H2   HT     0.417000        1.0080           0
   74536 WT4  8092 TIP3 OH2  OT    -0.834000       15.9994           0
   74537 WT4  8092 TIP3 H1   HT     0.417000        1.0080           0
   74538 WT4  8092 TIP3 H2   HT     0.417000        1.0080           0
   74539 WT4  8093 TIP3 OH2  OT    -0.834000       15.9994           0
   74540 WT4  8093 TIP3 H1   HT     0.417000        1.0080           0
   74541 WT4  8093 TIP3 H2   HT     0.417000        1.0080           0
   74542 WT4  8094 TIP3 OH2  OT    -0.834000       15.9994           0
   74543 WT4  8094 TIP3 H1   HT     0.417000        1.0080           0
   74544 WT4  8094 TIP3 H2   HT     0.417000        1.0080           0
   74545 WT4  8095 TIP3 OH2  OT    -0.834000       15.9994           0
   74546 WT4  8095 TIP3 H1   HT     0.417000        1.0080           0
   74547 WT4  8095 TIP3 H2   HT     0.417000        1.0080           0
   74548 WT4  8096 TIP3 OH2  OT    -0.834000       15.9994           0
   74549 WT4  8096 TIP3 H1   HT     0.417000        1.0080           0
   74550 WT4  8096 TIP3 H2   HT     0.417000        1.0080           0
   74551 WT4  8097 TIP3 OH2  OT    -0.834000       15.9994           0
   74552 WT4  8097 TIP3 H1   HT     0.417000        1.0080           0
   74553 WT4  8097 TIP3 H2   HT     0.417000        1.0080           0
   74554 WT4  8098 TIP3 OH2  OT    -0.834000       15.9994           0
   74555 WT4  8098 TIP3 H1   HT     0.417000        1.0080           0
   74556 WT4  8098 TIP3 H2   HT     0.417000        1.0080           0
   74557 WT4  8099 TIP3 OH2  OT    -0.834000       15.9994           0
   74558 WT4  8099 TIP3 H1   HT     0.417000        1.0080           0
   74559 WT4  8099 TIP3 H2   HT     0.417000        1.0080           0
   74560 WT4  8101 TIP3 OH2  OT    -0.834000       15.9994           0
   74561 WT4  8101 TIP3 H1   HT     0.417000        1.0080           0
   74562 WT4  8101 TIP3 H2   HT     0.417000        1.0080           0
   74563 WT4  8104 TIP3 OH2  OT    -0.834000       15.9994           0
   74564 WT4  8104 TIP3 H1   HT     0.417000        1.0080           0
   74565 WT4  8104 TIP3 H2   HT     0.417000        1.0080           0
   74566 WT4  8106 TIP3 OH2  OT    -0.834000       15.9994           0
   74567 WT4  8106 TIP3 H1   HT     0.417000        1.0080           0
   74568 WT4  8106 TIP3 H2   HT     0.417000        1.0080           0
   74569 WT4  8107 TIP3 OH2  OT    -0.834000       15.9994           0
   74570 WT4  8107 TIP3 H1   HT     0.417000        1.0080           0
   74571 WT4  8107 TIP3 H2   HT     0.417000        1.0080           0
   74572 WT4  8109 TIP3 OH2  OT    -0.834000       15.9994           0
   74573 WT4  8109 TIP3 H1   HT     0.417000        1.0080           0
   74574 WT4  8109 TIP3 H2   HT     0.417000        1.0080           0
   74575 WT4  8110 TIP3 OH2  OT    -0.834000       15.9994           0
   74576 WT4  8110 TIP3 H1   HT     0.417000        1.0080           0
   74577 WT4  8110 TIP3 H2   HT     0.417000        1.0080           0
   74578 WT4  8111 TIP3 OH2  OT    -0.834000       15.9994           0
   74579 WT4  8111 TIP3 H1   HT     0.417000        1.0080           0
   74580 WT4  8111 TIP3 H2   HT     0.417000        1.0080           0
   74581 WT4  8112 TIP3 OH2  OT    -0.834000       15.9994           0
   74582 WT4  8112 TIP3 H1   HT     0.417000        1.0080           0
   74583 WT4  8112 TIP3 H2   HT     0.417000        1.0080           0
   74584 WT4  8113 TIP3 OH2  OT    -0.834000       15.9994           0
   74585 WT4  8113 TIP3 H1   HT     0.417000        1.0080           0
   74586 WT4  8113 TIP3 H2   HT     0.417000        1.0080           0
   74587 WT4  8114 TIP3 OH2  OT    -0.834000       15.9994           0
   74588 WT4  8114 TIP3 H1   HT     0.417000        1.0080           0
   74589 WT4  8114 TIP3 H2   HT     0.417000        1.0080           0
   74590 WT4  8115 TIP3 OH2  OT    -0.834000       15.9994           0
   74591 WT4  8115 TIP3 H1   HT     0.417000        1.0080           0
   74592 WT4  8115 TIP3 H2   HT     0.417000        1.0080           0
   74593 WT4  8116 TIP3 OH2  OT    -0.834000       15.9994           0
   74594 WT4  8116 TIP3 H1   HT     0.417000        1.0080           0
   74595 WT4  8116 TIP3 H2   HT     0.417000        1.0080           0
   74596 WT4  8117 TIP3 OH2  OT    -0.834000       15.9994           0
   74597 WT4  8117 TIP3 H1   HT     0.417000        1.0080           0
   74598 WT4  8117 TIP3 H2   HT     0.417000        1.0080           0
   74599 WT4  8118 TIP3 OH2  OT    -0.834000       15.9994           0
   74600 WT4  8118 TIP3 H1   HT     0.417000        1.0080           0
   74601 WT4  8118 TIP3 H2   HT     0.417000        1.0080           0
   74602 WT4  8119 TIP3 OH2  OT    -0.834000       15.9994           0
   74603 WT4  8119 TIP3 H1   HT     0.417000        1.0080           0
   74604 WT4  8119 TIP3 H2   HT     0.417000        1.0080           0
   74605 WT4  8126 TIP3 OH2  OT    -0.834000       15.9994           0
   74606 WT4  8126 TIP3 H1   HT     0.417000        1.0080           0
   74607 WT4  8126 TIP3 H2   HT     0.417000        1.0080           0
   74608 WT4  8129 TIP3 OH2  OT    -0.834000       15.9994           0
   74609 WT4  8129 TIP3 H1   HT     0.417000        1.0080           0
   74610 WT4  8129 TIP3 H2   HT     0.417000        1.0080           0
   74611 WT4  8131 TIP3 OH2  OT    -0.834000       15.9994           0
   74612 WT4  8131 TIP3 H1   HT     0.417000        1.0080           0
   74613 WT4  8131 TIP3 H2   HT     0.417000        1.0080           0
   74614 WT4  8132 TIP3 OH2  OT    -0.834000       15.9994           0
   74615 WT4  8132 TIP3 H1   HT     0.417000        1.0080           0
   74616 WT4  8132 TIP3 H2   HT     0.417000        1.0080           0
   74617 WT4  8133 TIP3 OH2  OT    -0.834000       15.9994           0
   74618 WT4  8133 TIP3 H1   HT     0.417000        1.0080           0
   74619 WT4  8133 TIP3 H2   HT     0.417000        1.0080           0
   74620 WT4  8135 TIP3 OH2  OT    -0.834000       15.9994           0
   74621 WT4  8135 TIP3 H1   HT     0.417000        1.0080           0
   74622 WT4  8135 TIP3 H2   HT     0.417000        1.0080           0
   74623 WT4  8136 TIP3 OH2  OT    -0.834000       15.9994           0
   74624 WT4  8136 TIP3 H1   HT     0.417000        1.0080           0
   74625 WT4  8136 TIP3 H2   HT     0.417000        1.0080           0
   74626 WT4  8137 TIP3 OH2  OT    -0.834000       15.9994           0
   74627 WT4  8137 TIP3 H1   HT     0.417000        1.0080           0
   74628 WT4  8137 TIP3 H2   HT     0.417000        1.0080           0
   74629 WT4  8138 TIP3 OH2  OT    -0.834000       15.9994           0
   74630 WT4  8138 TIP3 H1   HT     0.417000        1.0080           0
   74631 WT4  8138 TIP3 H2   HT     0.417000        1.0080           0
   74632 WT4  8140 TIP3 OH2  OT    -0.834000       15.9994           0
   74633 WT4  8140 TIP3 H1   HT     0.417000        1.0080           0
   74634 WT4  8140 TIP3 H2   HT     0.417000        1.0080           0
   74635 WT4  8147 TIP3 OH2  OT    -0.834000       15.9994           0
   74636 WT4  8147 TIP3 H1   HT     0.417000        1.0080           0
   74637 WT4  8147 TIP3 H2   HT     0.417000        1.0080           0
   74638 WT4  8150 TIP3 OH2  OT    -0.834000       15.9994           0
   74639 WT4  8150 TIP3 H1   HT     0.417000        1.0080           0
   74640 WT4  8150 TIP3 H2   HT     0.417000        1.0080           0
   74641 WT4  8153 TIP3 OH2  OT    -0.834000       15.9994           0
   74642 WT4  8153 TIP3 H1   HT     0.417000        1.0080           0
   74643 WT4  8153 TIP3 H2   HT     0.417000        1.0080           0
   74644 WT4  8154 TIP3 OH2  OT    -0.834000       15.9994           0
   74645 WT4  8154 TIP3 H1   HT     0.417000        1.0080           0
   74646 WT4  8154 TIP3 H2   HT     0.417000        1.0080           0
   74647 WT4  8155 TIP3 OH2  OT    -0.834000       15.9994           0
   74648 WT4  8155 TIP3 H1   HT     0.417000        1.0080           0
   74649 WT4  8155 TIP3 H2   HT     0.417000        1.0080           0
   74650 WT4  8156 TIP3 OH2  OT    -0.834000       15.9994           0
   74651 WT4  8156 TIP3 H1   HT     0.417000        1.0080           0
   74652 WT4  8156 TIP3 H2   HT     0.417000        1.0080           0
   74653 WT4  8157 TIP3 OH2  OT    -0.834000       15.9994           0
   74654 WT4  8157 TIP3 H1   HT     0.417000        1.0080           0
   74655 WT4  8157 TIP3 H2   HT     0.417000        1.0080           0
   74656 WT4  8158 TIP3 OH2  OT    -0.834000       15.9994           0
   74657 WT4  8158 TIP3 H1   HT     0.417000        1.0080           0
   74658 WT4  8158 TIP3 H2   HT     0.417000        1.0080           0
   74659 WT4  8159 TIP3 OH2  OT    -0.834000       15.9994           0
   74660 WT4  8159 TIP3 H1   HT     0.417000        1.0080           0
   74661 WT4  8159 TIP3 H2   HT     0.417000        1.0080           0
   74662 WT4  8169 TIP3 OH2  OT    -0.834000       15.9994           0
   74663 WT4  8169 TIP3 H1   HT     0.417000        1.0080           0
   74664 WT4  8169 TIP3 H2   HT     0.417000        1.0080           0
   74665 WT4  8171 TIP3 OH2  OT    -0.834000       15.9994           0
   74666 WT4  8171 TIP3 H1   HT     0.417000        1.0080           0
   74667 WT4  8171 TIP3 H2   HT     0.417000        1.0080           0
   74668 WT4  8172 TIP3 OH2  OT    -0.834000       15.9994           0
   74669 WT4  8172 TIP3 H1   HT     0.417000        1.0080           0
   74670 WT4  8172 TIP3 H2   HT     0.417000        1.0080           0
   74671 WT4  8174 TIP3 OH2  OT    -0.834000       15.9994           0
   74672 WT4  8174 TIP3 H1   HT     0.417000        1.0080           0
   74673 WT4  8174 TIP3 H2   HT     0.417000        1.0080           0
   74674 WT4  8175 TIP3 OH2  OT    -0.834000       15.9994           0
   74675 WT4  8175 TIP3 H1   HT     0.417000        1.0080           0
   74676 WT4  8175 TIP3 H2   HT     0.417000        1.0080           0
   74677 WT4  8176 TIP3 OH2  OT    -0.834000       15.9994           0
   74678 WT4  8176 TIP3 H1   HT     0.417000        1.0080           0
   74679 WT4  8176 TIP3 H2   HT     0.417000        1.0080           0
   74680 WT4  8178 TIP3 OH2  OT    -0.834000       15.9994           0
   74681 WT4  8178 TIP3 H1   HT     0.417000        1.0080           0
   74682 WT4  8178 TIP3 H2   HT     0.417000        1.0080           0
   74683 WT4  8180 TIP3 OH2  OT    -0.834000       15.9994           0
   74684 WT4  8180 TIP3 H1   HT     0.417000        1.0080           0
   74685 WT4  8180 TIP3 H2   HT     0.417000        1.0080           0
   74686 WT4  8182 TIP3 OH2  OT    -0.834000       15.9994           0
   74687 WT4  8182 TIP3 H1   HT     0.417000        1.0080           0
   74688 WT4  8182 TIP3 H2   HT     0.417000        1.0080           0
   74689 WT4  8184 TIP3 OH2  OT    -0.834000       15.9994           0
   74690 WT4  8184 TIP3 H1   HT     0.417000        1.0080           0
   74691 WT4  8184 TIP3 H2   HT     0.417000        1.0080           0
   74692 WT4  8185 TIP3 OH2  OT    -0.834000       15.9994           0
   74693 WT4  8185 TIP3 H1   HT     0.417000        1.0080           0
   74694 WT4  8185 TIP3 H2   HT     0.417000        1.0080           0
   74695 WT4  8186 TIP3 OH2  OT    -0.834000       15.9994           0
   74696 WT4  8186 TIP3 H1   HT     0.417000        1.0080           0
   74697 WT4  8186 TIP3 H2   HT     0.417000        1.0080           0
   74698 WT4  8189 TIP3 OH2  OT    -0.834000       15.9994           0
   74699 WT4  8189 TIP3 H1   HT     0.417000        1.0080           0
   74700 WT4  8189 TIP3 H2   HT     0.417000        1.0080           0
   74701 WT4  8192 TIP3 OH2  OT    -0.834000       15.9994           0
   74702 WT4  8192 TIP3 H1   HT     0.417000        1.0080           0
   74703 WT4  8192 TIP3 H2   HT     0.417000        1.0080           0
   74704 WT4  8193 TIP3 OH2  OT    -0.834000       15.9994           0
   74705 WT4  8193 TIP3 H1   HT     0.417000        1.0080           0
   74706 WT4  8193 TIP3 H2   HT     0.417000        1.0080           0
   74707 WT4  8194 TIP3 OH2  OT    -0.834000       15.9994           0
   74708 WT4  8194 TIP3 H1   HT     0.417000        1.0080           0
   74709 WT4  8194 TIP3 H2   HT     0.417000        1.0080           0
   74710 WT4  8196 TIP3 OH2  OT    -0.834000       15.9994           0
   74711 WT4  8196 TIP3 H1   HT     0.417000        1.0080           0
   74712 WT4  8196 TIP3 H2   HT     0.417000        1.0080           0
   74713 WT4  8197 TIP3 OH2  OT    -0.834000       15.9994           0
   74714 WT4  8197 TIP3 H1   HT     0.417000        1.0080           0
   74715 WT4  8197 TIP3 H2   HT     0.417000        1.0080           0
   74716 WT4  8198 TIP3 OH2  OT    -0.834000       15.9994           0
   74717 WT4  8198 TIP3 H1   HT     0.417000        1.0080           0
   74718 WT4  8198 TIP3 H2   HT     0.417000        1.0080           0
   74719 WT4  8199 TIP3 OH2  OT    -0.834000       15.9994           0
   74720 WT4  8199 TIP3 H1   HT     0.417000        1.0080           0
   74721 WT4  8199 TIP3 H2   HT     0.417000        1.0080           0
   74722 WT4  8200 TIP3 OH2  OT    -0.834000       15.9994           0
   74723 WT4  8200 TIP3 H1   HT     0.417000        1.0080           0
   74724 WT4  8200 TIP3 H2   HT     0.417000        1.0080           0
   74725 WT4  8201 TIP3 OH2  OT    -0.834000       15.9994           0
   74726 WT4  8201 TIP3 H1   HT     0.417000        1.0080           0
   74727 WT4  8201 TIP3 H2   HT     0.417000        1.0080           0
   74728 WT4  8203 TIP3 OH2  OT    -0.834000       15.9994           0
   74729 WT4  8203 TIP3 H1   HT     0.417000        1.0080           0
   74730 WT4  8203 TIP3 H2   HT     0.417000        1.0080           0
   74731 WT4  8206 TIP3 OH2  OT    -0.834000       15.9994           0
   74732 WT4  8206 TIP3 H1   HT     0.417000        1.0080           0
   74733 WT4  8206 TIP3 H2   HT     0.417000        1.0080           0
   74734 WT4  8207 TIP3 OH2  OT    -0.834000       15.9994           0
   74735 WT4  8207 TIP3 H1   HT     0.417000        1.0080           0
   74736 WT4  8207 TIP3 H2   HT     0.417000        1.0080           0
   74737 WT4  8210 TIP3 OH2  OT    -0.834000       15.9994           0
   74738 WT4  8210 TIP3 H1   HT     0.417000        1.0080           0
   74739 WT4  8210 TIP3 H2   HT     0.417000        1.0080           0
   74740 WT4  8211 TIP3 OH2  OT    -0.834000       15.9994           0
   74741 WT4  8211 TIP3 H1   HT     0.417000        1.0080           0
   74742 WT4  8211 TIP3 H2   HT     0.417000        1.0080           0
   74743 WT4  8215 TIP3 OH2  OT    -0.834000       15.9994           0
   74744 WT4  8215 TIP3 H1   HT     0.417000        1.0080           0
   74745 WT4  8215 TIP3 H2   HT     0.417000        1.0080           0
   74746 WT4  8219 TIP3 OH2  OT    -0.834000       15.9994           0
   74747 WT4  8219 TIP3 H1   HT     0.417000        1.0080           0
   74748 WT4  8219 TIP3 H2   HT     0.417000        1.0080           0
   74749 WT4  8222 TIP3 OH2  OT    -0.834000       15.9994           0
   74750 WT4  8222 TIP3 H1   HT     0.417000        1.0080           0
   74751 WT4  8222 TIP3 H2   HT     0.417000        1.0080           0
   74752 WT4  8223 TIP3 OH2  OT    -0.834000       15.9994           0
   74753 WT4  8223 TIP3 H1   HT     0.417000        1.0080           0
   74754 WT4  8223 TIP3 H2   HT     0.417000        1.0080           0
   74755 WT4  8237 TIP3 OH2  OT    -0.834000       15.9994           0
   74756 WT4  8237 TIP3 H1   HT     0.417000        1.0080           0
   74757 WT4  8237 TIP3 H2   HT     0.417000        1.0080           0
   74758 WT4  8242 TIP3 OH2  OT    -0.834000       15.9994           0
   74759 WT4  8242 TIP3 H1   HT     0.417000        1.0080           0
   74760 WT4  8242 TIP3 H2   HT     0.417000        1.0080           0
   74761 WT4  8243 TIP3 OH2  OT    -0.834000       15.9994           0
   74762 WT4  8243 TIP3 H1   HT     0.417000        1.0080           0
   74763 WT4  8243 TIP3 H2   HT     0.417000        1.0080           0
   74764 WT4  8247 TIP3 OH2  OT    -0.834000       15.9994           0
   74765 WT4  8247 TIP3 H1   HT     0.417000        1.0080           0
   74766 WT4  8247 TIP3 H2   HT     0.417000        1.0080           0
   74767 WT4  8261 TIP3 OH2  OT    -0.834000       15.9994           0
   74768 WT4  8261 TIP3 H1   HT     0.417000        1.0080           0
   74769 WT4  8261 TIP3 H2   HT     0.417000        1.0080           0
   74770 WT4  8263 TIP3 OH2  OT    -0.834000       15.9994           0
   74771 WT4  8263 TIP3 H1   HT     0.417000        1.0080           0
   74772 WT4  8263 TIP3 H2   HT     0.417000        1.0080           0
   74773 WT4  8265 TIP3 OH2  OT    -0.834000       15.9994           0
   74774 WT4  8265 TIP3 H1   HT     0.417000        1.0080           0
   74775 WT4  8265 TIP3 H2   HT     0.417000        1.0080           0
   74776 WT4  8266 TIP3 OH2  OT    -0.834000       15.9994           0
   74777 WT4  8266 TIP3 H1   HT     0.417000        1.0080           0
   74778 WT4  8266 TIP3 H2   HT     0.417000        1.0080           0
   74779 WT4  8267 TIP3 OH2  OT    -0.834000       15.9994           0
   74780 WT4  8267 TIP3 H1   HT     0.417000        1.0080           0
   74781 WT4  8267 TIP3 H2   HT     0.417000        1.0080           0
   74782 WT4  8282 TIP3 OH2  OT    -0.834000       15.9994           0
   74783 WT4  8282 TIP3 H1   HT     0.417000        1.0080           0
   74784 WT4  8282 TIP3 H2   HT     0.417000        1.0080           0
   74785 WT4  8284 TIP3 OH2  OT    -0.834000       15.9994           0
   74786 WT4  8284 TIP3 H1   HT     0.417000        1.0080           0
   74787 WT4  8284 TIP3 H2   HT     0.417000        1.0080           0
   74788 WT4  8290 TIP3 OH2  OT    -0.834000       15.9994           0
   74789 WT4  8290 TIP3 H1   HT     0.417000        1.0080           0
   74790 WT4  8290 TIP3 H2   HT     0.417000        1.0080           0
   74791 WT4  8301 TIP3 OH2  OT    -0.834000       15.9994           0
   74792 WT4  8301 TIP3 H1   HT     0.417000        1.0080           0
   74793 WT4  8301 TIP3 H2   HT     0.417000        1.0080           0
   74794 WT4  8304 TIP3 OH2  OT    -0.834000       15.9994           0
   74795 WT4  8304 TIP3 H1   HT     0.417000        1.0080           0
   74796 WT4  8304 TIP3 H2   HT     0.417000        1.0080           0
   74797 WT4  8309 TIP3 OH2  OT    -0.834000       15.9994           0
   74798 WT4  8309 TIP3 H1   HT     0.417000        1.0080           0
   74799 WT4  8309 TIP3 H2   HT     0.417000        1.0080           0
   74800 WT4  8319 TIP3 OH2  OT    -0.834000       15.9994           0
   74801 WT4  8319 TIP3 H1   HT     0.417000        1.0080           0
   74802 WT4  8319 TIP3 H2   HT     0.417000        1.0080           0
   74803 WT4  8322 TIP3 OH2  OT    -0.834000       15.9994           0
   74804 WT4  8322 TIP3 H1   HT     0.417000        1.0080           0
   74805 WT4  8322 TIP3 H2   HT     0.417000        1.0080           0
   74806 WT4  8324 TIP3 OH2  OT    -0.834000       15.9994           0
   74807 WT4  8324 TIP3 H1   HT     0.417000        1.0080           0
   74808 WT4  8324 TIP3 H2   HT     0.417000        1.0080           0
   74809 WT4  8326 TIP3 OH2  OT    -0.834000       15.9994           0
   74810 WT4  8326 TIP3 H1   HT     0.417000        1.0080           0
   74811 WT4  8326 TIP3 H2   HT     0.417000        1.0080           0
   74812 WT4  8327 TIP3 OH2  OT    -0.834000       15.9994           0
   74813 WT4  8327 TIP3 H1   HT     0.417000        1.0080           0
   74814 WT4  8327 TIP3 H2   HT     0.417000        1.0080           0
   74815 WT4  8339 TIP3 OH2  OT    -0.834000       15.9994           0
   74816 WT4  8339 TIP3 H1   HT     0.417000        1.0080           0
   74817 WT4  8339 TIP3 H2   HT     0.417000        1.0080           0
   74818 WT4  8342 TIP3 OH2  OT    -0.834000       15.9994           0
   74819 WT4  8342 TIP3 H1   HT     0.417000        1.0080           0
   74820 WT4  8342 TIP3 H2   HT     0.417000        1.0080           0
   74821 WT4  8345 TIP3 OH2  OT    -0.834000       15.9994           0
   74822 WT4  8345 TIP3 H1   HT     0.417000        1.0080           0
   74823 WT4  8345 TIP3 H2   HT     0.417000        1.0080           0
   74824 WT4  8348 TIP3 OH2  OT    -0.834000       15.9994           0
   74825 WT4  8348 TIP3 H1   HT     0.417000        1.0080           0
   74826 WT4  8348 TIP3 H2   HT     0.417000        1.0080           0
   74827 WT4  8349 TIP3 OH2  OT    -0.834000       15.9994           0
   74828 WT4  8349 TIP3 H1   HT     0.417000        1.0080           0
   74829 WT4  8349 TIP3 H2   HT     0.417000        1.0080           0
   74830 WT4  8354 TIP3 OH2  OT    -0.834000       15.9994           0
   74831 WT4  8354 TIP3 H1   HT     0.417000        1.0080           0
   74832 WT4  8354 TIP3 H2   HT     0.417000        1.0080           0
   74833 WT4  8364 TIP3 OH2  OT    -0.834000       15.9994           0
   74834 WT4  8364 TIP3 H1   HT     0.417000        1.0080           0
   74835 WT4  8364 TIP3 H2   HT     0.417000        1.0080           0
   74836 WT4  8365 TIP3 OH2  OT    -0.834000       15.9994           0
   74837 WT4  8365 TIP3 H1   HT     0.417000        1.0080           0
   74838 WT4  8365 TIP3 H2   HT     0.417000        1.0080           0
   74839 WT4  8369 TIP3 OH2  OT    -0.834000       15.9994           0
   74840 WT4  8369 TIP3 H1   HT     0.417000        1.0080           0
   74841 WT4  8369 TIP3 H2   HT     0.417000        1.0080           0
   74842 WT4  8370 TIP3 OH2  OT    -0.834000       15.9994           0
   74843 WT4  8370 TIP3 H1   HT     0.417000        1.0080           0
   74844 WT4  8370 TIP3 H2   HT     0.417000        1.0080           0
   74845 WT4  8377 TIP3 OH2  OT    -0.834000       15.9994           0
   74846 WT4  8377 TIP3 H1   HT     0.417000        1.0080           0
   74847 WT4  8377 TIP3 H2   HT     0.417000        1.0080           0
   74848 WT4  8378 TIP3 OH2  OT    -0.834000       15.9994           0
   74849 WT4  8378 TIP3 H1   HT     0.417000        1.0080           0
   74850 WT4  8378 TIP3 H2   HT     0.417000        1.0080           0
   74851 WT4  8381 TIP3 OH2  OT    -0.834000       15.9994           0
   74852 WT4  8381 TIP3 H1   HT     0.417000        1.0080           0
   74853 WT4  8381 TIP3 H2   HT     0.417000        1.0080           0
   74854 WT4  8382 TIP3 OH2  OT    -0.834000       15.9994           0
   74855 WT4  8382 TIP3 H1   HT     0.417000        1.0080           0
   74856 WT4  8382 TIP3 H2   HT     0.417000        1.0080           0
   74857 WT4  8384 TIP3 OH2  OT    -0.834000       15.9994           0
   74858 WT4  8384 TIP3 H1   HT     0.417000        1.0080           0
   74859 WT4  8384 TIP3 H2   HT     0.417000        1.0080           0
   74860 WT4  8386 TIP3 OH2  OT    -0.834000       15.9994           0
   74861 WT4  8386 TIP3 H1   HT     0.417000        1.0080           0
   74862 WT4  8386 TIP3 H2   HT     0.417000        1.0080           0
   74863 WT4  8388 TIP3 OH2  OT    -0.834000       15.9994           0
   74864 WT4  8388 TIP3 H1   HT     0.417000        1.0080           0
   74865 WT4  8388 TIP3 H2   HT     0.417000        1.0080           0
   74866 WT4  8389 TIP3 OH2  OT    -0.834000       15.9994           0
   74867 WT4  8389 TIP3 H1   HT     0.417000        1.0080           0
   74868 WT4  8389 TIP3 H2   HT     0.417000        1.0080           0
   74869 WT4  8392 TIP3 OH2  OT    -0.834000       15.9994           0
   74870 WT4  8392 TIP3 H1   HT     0.417000        1.0080           0
   74871 WT4  8392 TIP3 H2   HT     0.417000        1.0080           0
   74872 WT4  8394 TIP3 OH2  OT    -0.834000       15.9994           0
   74873 WT4  8394 TIP3 H1   HT     0.417000        1.0080           0
   74874 WT4  8394 TIP3 H2   HT     0.417000        1.0080           0
   74875 WT4  8403 TIP3 OH2  OT    -0.834000       15.9994           0
   74876 WT4  8403 TIP3 H1   HT     0.417000        1.0080           0
   74877 WT4  8403 TIP3 H2   HT     0.417000        1.0080           0
   74878 WT4  8404 TIP3 OH2  OT    -0.834000       15.9994           0
   74879 WT4  8404 TIP3 H1   HT     0.417000        1.0080           0
   74880 WT4  8404 TIP3 H2   HT     0.417000        1.0080           0
   74881 WT4  8406 TIP3 OH2  OT    -0.834000       15.9994           0
   74882 WT4  8406 TIP3 H1   HT     0.417000        1.0080           0
   74883 WT4  8406 TIP3 H2   HT     0.417000        1.0080           0
   74884 WT4  8408 TIP3 OH2  OT    -0.834000       15.9994           0
   74885 WT4  8408 TIP3 H1   HT     0.417000        1.0080           0
   74886 WT4  8408 TIP3 H2   HT     0.417000        1.0080           0
   74887 WT4  8409 TIP3 OH2  OT    -0.834000       15.9994           0
   74888 WT4  8409 TIP3 H1   HT     0.417000        1.0080           0
   74889 WT4  8409 TIP3 H2   HT     0.417000        1.0080           0
   74890 WT4  8410 TIP3 OH2  OT    -0.834000       15.9994           0
   74891 WT4  8410 TIP3 H1   HT     0.417000        1.0080           0
   74892 WT4  8410 TIP3 H2   HT     0.417000        1.0080           0
   74893 WT4  8411 TIP3 OH2  OT    -0.834000       15.9994           0
   74894 WT4  8411 TIP3 H1   HT     0.417000        1.0080           0
   74895 WT4  8411 TIP3 H2   HT     0.417000        1.0080           0
   74896 WT4  8412 TIP3 OH2  OT    -0.834000       15.9994           0
   74897 WT4  8412 TIP3 H1   HT     0.417000        1.0080           0
   74898 WT4  8412 TIP3 H2   HT     0.417000        1.0080           0
   74899 WT4  8413 TIP3 OH2  OT    -0.834000       15.9994           0
   74900 WT4  8413 TIP3 H1   HT     0.417000        1.0080           0
   74901 WT4  8413 TIP3 H2   HT     0.417000        1.0080           0
   74902 WT4  8415 TIP3 OH2  OT    -0.834000       15.9994           0
   74903 WT4  8415 TIP3 H1   HT     0.417000        1.0080           0
   74904 WT4  8415 TIP3 H2   HT     0.417000        1.0080           0
   74905 WT4  8421 TIP3 OH2  OT    -0.834000       15.9994           0
   74906 WT4  8421 TIP3 H1   HT     0.417000        1.0080           0
   74907 WT4  8421 TIP3 H2   HT     0.417000        1.0080           0
   74908 WT4  8425 TIP3 OH2  OT    -0.834000       15.9994           0
   74909 WT4  8425 TIP3 H1   HT     0.417000        1.0080           0
   74910 WT4  8425 TIP3 H2   HT     0.417000        1.0080           0
   74911 WT4  8426 TIP3 OH2  OT    -0.834000       15.9994           0
   74912 WT4  8426 TIP3 H1   HT     0.417000        1.0080           0
   74913 WT4  8426 TIP3 H2   HT     0.417000        1.0080           0
   74914 WT4  8427 TIP3 OH2  OT    -0.834000       15.9994           0
   74915 WT4  8427 TIP3 H1   HT     0.417000        1.0080           0
   74916 WT4  8427 TIP3 H2   HT     0.417000        1.0080           0
   74917 WT4  8428 TIP3 OH2  OT    -0.834000       15.9994           0
   74918 WT4  8428 TIP3 H1   HT     0.417000        1.0080           0
   74919 WT4  8428 TIP3 H2   HT     0.417000        1.0080           0
   74920 WT4  8429 TIP3 OH2  OT    -0.834000       15.9994           0
   74921 WT4  8429 TIP3 H1   HT     0.417000        1.0080           0
   74922 WT4  8429 TIP3 H2   HT     0.417000        1.0080           0
   74923 WT4  8430 TIP3 OH2  OT    -0.834000       15.9994           0
   74924 WT4  8430 TIP3 H1   HT     0.417000        1.0080           0
   74925 WT4  8430 TIP3 H2   HT     0.417000        1.0080           0
   74926 WT4  8431 TIP3 OH2  OT    -0.834000       15.9994           0
   74927 WT4  8431 TIP3 H1   HT     0.417000        1.0080           0
   74928 WT4  8431 TIP3 H2   HT     0.417000        1.0080           0
   74929 WT4  8432 TIP3 OH2  OT    -0.834000       15.9994           0
   74930 WT4  8432 TIP3 H1   HT     0.417000        1.0080           0
   74931 WT4  8432 TIP3 H2   HT     0.417000        1.0080           0
   74932 WT4  8433 TIP3 OH2  OT    -0.834000       15.9994           0
   74933 WT4  8433 TIP3 H1   HT     0.417000        1.0080           0
   74934 WT4  8433 TIP3 H2   HT     0.417000        1.0080           0
   74935 WT4  8435 TIP3 OH2  OT    -0.834000       15.9994           0
   74936 WT4  8435 TIP3 H1   HT     0.417000        1.0080           0
   74937 WT4  8435 TIP3 H2   HT     0.417000        1.0080           0
   74938 WT4  8436 TIP3 OH2  OT    -0.834000       15.9994           0
   74939 WT4  8436 TIP3 H1   HT     0.417000        1.0080           0
   74940 WT4  8436 TIP3 H2   HT     0.417000        1.0080           0
   74941 WT4  8441 TIP3 OH2  OT    -0.834000       15.9994           0
   74942 WT4  8441 TIP3 H1   HT     0.417000        1.0080           0
   74943 WT4  8441 TIP3 H2   HT     0.417000        1.0080           0
   74944 WT4  8442 TIP3 OH2  OT    -0.834000       15.9994           0
   74945 WT4  8442 TIP3 H1   HT     0.417000        1.0080           0
   74946 WT4  8442 TIP3 H2   HT     0.417000        1.0080           0
   74947 WT4  8444 TIP3 OH2  OT    -0.834000       15.9994           0
   74948 WT4  8444 TIP3 H1   HT     0.417000        1.0080           0
   74949 WT4  8444 TIP3 H2   HT     0.417000        1.0080           0
   74950 WT4  8445 TIP3 OH2  OT    -0.834000       15.9994           0
   74951 WT4  8445 TIP3 H1   HT     0.417000        1.0080           0
   74952 WT4  8445 TIP3 H2   HT     0.417000        1.0080           0
   74953 WT4  8446 TIP3 OH2  OT    -0.834000       15.9994           0
   74954 WT4  8446 TIP3 H1   HT     0.417000        1.0080           0
   74955 WT4  8446 TIP3 H2   HT     0.417000        1.0080           0
   74956 WT4  8447 TIP3 OH2  OT    -0.834000       15.9994           0
   74957 WT4  8447 TIP3 H1   HT     0.417000        1.0080           0
   74958 WT4  8447 TIP3 H2   HT     0.417000        1.0080           0
   74959 WT4  8448 TIP3 OH2  OT    -0.834000       15.9994           0
   74960 WT4  8448 TIP3 H1   HT     0.417000        1.0080           0
   74961 WT4  8448 TIP3 H2   HT     0.417000        1.0080           0
   74962 WT4  8449 TIP3 OH2  OT    -0.834000       15.9994           0
   74963 WT4  8449 TIP3 H1   HT     0.417000        1.0080           0
   74964 WT4  8449 TIP3 H2   HT     0.417000        1.0080           0
   74965 WT4  8450 TIP3 OH2  OT    -0.834000       15.9994           0
   74966 WT4  8450 TIP3 H1   HT     0.417000        1.0080           0
   74967 WT4  8450 TIP3 H2   HT     0.417000        1.0080           0
   74968 WT4  8451 TIP3 OH2  OT    -0.834000       15.9994           0
   74969 WT4  8451 TIP3 H1   HT     0.417000        1.0080           0
   74970 WT4  8451 TIP3 H2   HT     0.417000        1.0080           0
   74971 WT4  8453 TIP3 OH2  OT    -0.834000       15.9994           0
   74972 WT4  8453 TIP3 H1   HT     0.417000        1.0080           0
   74973 WT4  8453 TIP3 H2   HT     0.417000        1.0080           0
   74974 WT4  8455 TIP3 OH2  OT    -0.834000       15.9994           0
   74975 WT4  8455 TIP3 H1   HT     0.417000        1.0080           0
   74976 WT4  8455 TIP3 H2   HT     0.417000        1.0080           0
   74977 WT4  8456 TIP3 OH2  OT    -0.834000       15.9994           0
   74978 WT4  8456 TIP3 H1   HT     0.417000        1.0080           0
   74979 WT4  8456 TIP3 H2   HT     0.417000        1.0080           0
   74980 WT4  8457 TIP3 OH2  OT    -0.834000       15.9994           0
   74981 WT4  8457 TIP3 H1   HT     0.417000        1.0080           0
   74982 WT4  8457 TIP3 H2   HT     0.417000        1.0080           0
   74983 WT4  8462 TIP3 OH2  OT    -0.834000       15.9994           0
   74984 WT4  8462 TIP3 H1   HT     0.417000        1.0080           0
   74985 WT4  8462 TIP3 H2   HT     0.417000        1.0080           0
   74986 WT4  8463 TIP3 OH2  OT    -0.834000       15.9994           0
   74987 WT4  8463 TIP3 H1   HT     0.417000        1.0080           0
   74988 WT4  8463 TIP3 H2   HT     0.417000        1.0080           0
   74989 WT4  8465 TIP3 OH2  OT    -0.834000       15.9994           0
   74990 WT4  8465 TIP3 H1   HT     0.417000        1.0080           0
   74991 WT4  8465 TIP3 H2   HT     0.417000        1.0080           0
   74992 WT4  8466 TIP3 OH2  OT    -0.834000       15.9994           0
   74993 WT4  8466 TIP3 H1   HT     0.417000        1.0080           0
   74994 WT4  8466 TIP3 H2   HT     0.417000        1.0080           0
   74995 WT4  8468 TIP3 OH2  OT    -0.834000       15.9994           0
   74996 WT4  8468 TIP3 H1   HT     0.417000        1.0080           0
   74997 WT4  8468 TIP3 H2   HT     0.417000        1.0080           0
   74998 WT4  8469 TIP3 OH2  OT    -0.834000       15.9994           0
   74999 WT4  8469 TIP3 H1   HT     0.417000        1.0080           0
   75000 WT4  8469 TIP3 H2   HT     0.417000        1.0080           0
   75001 WT4  8470 TIP3 OH2  OT    -0.834000       15.9994           0
   75002 WT4  8470 TIP3 H1   HT     0.417000        1.0080           0
   75003 WT4  8470 TIP3 H2   HT     0.417000        1.0080           0
   75004 WT4  8472 TIP3 OH2  OT    -0.834000       15.9994           0
   75005 WT4  8472 TIP3 H1   HT     0.417000        1.0080           0
   75006 WT4  8472 TIP3 H2   HT     0.417000        1.0080           0
   75007 WT4  8473 TIP3 OH2  OT    -0.834000       15.9994           0
   75008 WT4  8473 TIP3 H1   HT     0.417000        1.0080           0
   75009 WT4  8473 TIP3 H2   HT     0.417000        1.0080           0
   75010 WT4  8474 TIP3 OH2  OT    -0.834000       15.9994           0
   75011 WT4  8474 TIP3 H1   HT     0.417000        1.0080           0
   75012 WT4  8474 TIP3 H2   HT     0.417000        1.0080           0
   75013 WT4  8475 TIP3 OH2  OT    -0.834000       15.9994           0
   75014 WT4  8475 TIP3 H1   HT     0.417000        1.0080           0
   75015 WT4  8475 TIP3 H2   HT     0.417000        1.0080           0
   75016 WT4  8476 TIP3 OH2  OT    -0.834000       15.9994           0
   75017 WT4  8476 TIP3 H1   HT     0.417000        1.0080           0
   75018 WT4  8476 TIP3 H2   HT     0.417000        1.0080           0
   75019 WT4  8477 TIP3 OH2  OT    -0.834000       15.9994           0
   75020 WT4  8477 TIP3 H1   HT     0.417000        1.0080           0
   75021 WT4  8477 TIP3 H2   HT     0.417000        1.0080           0
   75022 WT4  8480 TIP3 OH2  OT    -0.834000       15.9994           0
   75023 WT4  8480 TIP3 H1   HT     0.417000        1.0080           0
   75024 WT4  8480 TIP3 H2   HT     0.417000        1.0080           0
   75025 WT4  8486 TIP3 OH2  OT    -0.834000       15.9994           0
   75026 WT4  8486 TIP3 H1   HT     0.417000        1.0080           0
   75027 WT4  8486 TIP3 H2   HT     0.417000        1.0080           0
   75028 WT4  8487 TIP3 OH2  OT    -0.834000       15.9994           0
   75029 WT4  8487 TIP3 H1   HT     0.417000        1.0080           0
   75030 WT4  8487 TIP3 H2   HT     0.417000        1.0080           0
   75031 WT4  8489 TIP3 OH2  OT    -0.834000       15.9994           0
   75032 WT4  8489 TIP3 H1   HT     0.417000        1.0080           0
   75033 WT4  8489 TIP3 H2   HT     0.417000        1.0080           0
   75034 WT4  8490 TIP3 OH2  OT    -0.834000       15.9994           0
   75035 WT4  8490 TIP3 H1   HT     0.417000        1.0080           0
   75036 WT4  8490 TIP3 H2   HT     0.417000        1.0080           0
   75037 WT4  8491 TIP3 OH2  OT    -0.834000       15.9994           0
   75038 WT4  8491 TIP3 H1   HT     0.417000        1.0080           0
   75039 WT4  8491 TIP3 H2   HT     0.417000        1.0080           0
   75040 WT4  8492 TIP3 OH2  OT    -0.834000       15.9994           0
   75041 WT4  8492 TIP3 H1   HT     0.417000        1.0080           0
   75042 WT4  8492 TIP3 H2   HT     0.417000        1.0080           0
   75043 WT4  8493 TIP3 OH2  OT    -0.834000       15.9994           0
   75044 WT4  8493 TIP3 H1   HT     0.417000        1.0080           0
   75045 WT4  8493 TIP3 H2   HT     0.417000        1.0080           0
   75046 WT4  8494 TIP3 OH2  OT    -0.834000       15.9994           0
   75047 WT4  8494 TIP3 H1   HT     0.417000        1.0080           0
   75048 WT4  8494 TIP3 H2   HT     0.417000        1.0080           0
   75049 WT4  8495 TIP3 OH2  OT    -0.834000       15.9994           0
   75050 WT4  8495 TIP3 H1   HT     0.417000        1.0080           0
   75051 WT4  8495 TIP3 H2   HT     0.417000        1.0080           0
   75052 WT4  8499 TIP3 OH2  OT    -0.834000       15.9994           0
   75053 WT4  8499 TIP3 H1   HT     0.417000        1.0080           0
   75054 WT4  8499 TIP3 H2   HT     0.417000        1.0080           0
   75055 WT4  8504 TIP3 OH2  OT    -0.834000       15.9994           0
   75056 WT4  8504 TIP3 H1   HT     0.417000        1.0080           0
   75057 WT4  8504 TIP3 H2   HT     0.417000        1.0080           0
   75058 WT4  8505 TIP3 OH2  OT    -0.834000       15.9994           0
   75059 WT4  8505 TIP3 H1   HT     0.417000        1.0080           0
   75060 WT4  8505 TIP3 H2   HT     0.417000        1.0080           0
   75061 WT4  8506 TIP3 OH2  OT    -0.834000       15.9994           0
   75062 WT4  8506 TIP3 H1   HT     0.417000        1.0080           0
   75063 WT4  8506 TIP3 H2   HT     0.417000        1.0080           0
   75064 WT4  8507 TIP3 OH2  OT    -0.834000       15.9994           0
   75065 WT4  8507 TIP3 H1   HT     0.417000        1.0080           0
   75066 WT4  8507 TIP3 H2   HT     0.417000        1.0080           0
   75067 WT4  8508 TIP3 OH2  OT    -0.834000       15.9994           0
   75068 WT4  8508 TIP3 H1   HT     0.417000        1.0080           0
   75069 WT4  8508 TIP3 H2   HT     0.417000        1.0080           0
   75070 WT4  8509 TIP3 OH2  OT    -0.834000       15.9994           0
   75071 WT4  8509 TIP3 H1   HT     0.417000        1.0080           0
   75072 WT4  8509 TIP3 H2   HT     0.417000        1.0080           0
   75073 WT4  8511 TIP3 OH2  OT    -0.834000       15.9994           0
   75074 WT4  8511 TIP3 H1   HT     0.417000        1.0080           0
   75075 WT4  8511 TIP3 H2   HT     0.417000        1.0080           0
   75076 WT4  8512 TIP3 OH2  OT    -0.834000       15.9994           0
   75077 WT4  8512 TIP3 H1   HT     0.417000        1.0080           0
   75078 WT4  8512 TIP3 H2   HT     0.417000        1.0080           0
   75079 WT4  8513 TIP3 OH2  OT    -0.834000       15.9994           0
   75080 WT4  8513 TIP3 H1   HT     0.417000        1.0080           0
   75081 WT4  8513 TIP3 H2   HT     0.417000        1.0080           0
   75082 WT4  8514 TIP3 OH2  OT    -0.834000       15.9994           0
   75083 WT4  8514 TIP3 H1   HT     0.417000        1.0080           0
   75084 WT4  8514 TIP3 H2   HT     0.417000        1.0080           0
   75085 WT4  8515 TIP3 OH2  OT    -0.834000       15.9994           0
   75086 WT4  8515 TIP3 H1   HT     0.417000        1.0080           0
   75087 WT4  8515 TIP3 H2   HT     0.417000        1.0080           0
   75088 WT4  8516 TIP3 OH2  OT    -0.834000       15.9994           0
   75089 WT4  8516 TIP3 H1   HT     0.417000        1.0080           0
   75090 WT4  8516 TIP3 H2   HT     0.417000        1.0080           0
   75091 WT4  8517 TIP3 OH2  OT    -0.834000       15.9994           0
   75092 WT4  8517 TIP3 H1   HT     0.417000        1.0080           0
   75093 WT4  8517 TIP3 H2   HT     0.417000        1.0080           0
   75094 WT4  8519 TIP3 OH2  OT    -0.834000       15.9994           0
   75095 WT4  8519 TIP3 H1   HT     0.417000        1.0080           0
   75096 WT4  8519 TIP3 H2   HT     0.417000        1.0080           0
   75097 WT4  8520 TIP3 OH2  OT    -0.834000       15.9994           0
   75098 WT4  8520 TIP3 H1   HT     0.417000        1.0080           0
   75099 WT4  8520 TIP3 H2   HT     0.417000        1.0080           0
   75100 WT4  8528 TIP3 OH2  OT    -0.834000       15.9994           0
   75101 WT4  8528 TIP3 H1   HT     0.417000        1.0080           0
   75102 WT4  8528 TIP3 H2   HT     0.417000        1.0080           0
   75103 WT4  8529 TIP3 OH2  OT    -0.834000       15.9994           0
   75104 WT4  8529 TIP3 H1   HT     0.417000        1.0080           0
   75105 WT4  8529 TIP3 H2   HT     0.417000        1.0080           0
   75106 WT4  8530 TIP3 OH2  OT    -0.834000       15.9994           0
   75107 WT4  8530 TIP3 H1   HT     0.417000        1.0080           0
   75108 WT4  8530 TIP3 H2   HT     0.417000        1.0080           0
   75109 WT4  8531 TIP3 OH2  OT    -0.834000       15.9994           0
   75110 WT4  8531 TIP3 H1   HT     0.417000        1.0080           0
   75111 WT4  8531 TIP3 H2   HT     0.417000        1.0080           0
   75112 WT4  8532 TIP3 OH2  OT    -0.834000       15.9994           0
   75113 WT4  8532 TIP3 H1   HT     0.417000        1.0080           0
   75114 WT4  8532 TIP3 H2   HT     0.417000        1.0080           0
   75115 WT4  8533 TIP3 OH2  OT    -0.834000       15.9994           0
   75116 WT4  8533 TIP3 H1   HT     0.417000        1.0080           0
   75117 WT4  8533 TIP3 H2   HT     0.417000        1.0080           0
   75118 WT4  8534 TIP3 OH2  OT    -0.834000       15.9994           0
   75119 WT4  8534 TIP3 H1   HT     0.417000        1.0080           0
   75120 WT4  8534 TIP3 H2   HT     0.417000        1.0080           0
   75121 WT4  8535 TIP3 OH2  OT    -0.834000       15.9994           0
   75122 WT4  8535 TIP3 H1   HT     0.417000        1.0080           0
   75123 WT4  8535 TIP3 H2   HT     0.417000        1.0080           0
   75124 WT4  8536 TIP3 OH2  OT    -0.834000       15.9994           0
   75125 WT4  8536 TIP3 H1   HT     0.417000        1.0080           0
   75126 WT4  8536 TIP3 H2   HT     0.417000        1.0080           0
   75127 WT4  8538 TIP3 OH2  OT    -0.834000       15.9994           0
   75128 WT4  8538 TIP3 H1   HT     0.417000        1.0080           0
   75129 WT4  8538 TIP3 H2   HT     0.417000        1.0080           0
   75130 WT4  8539 TIP3 OH2  OT    -0.834000       15.9994           0
   75131 WT4  8539 TIP3 H1   HT     0.417000        1.0080           0
   75132 WT4  8539 TIP3 H2   HT     0.417000        1.0080           0
   75133 WT4  8541 TIP3 OH2  OT    -0.834000       15.9994           0
   75134 WT4  8541 TIP3 H1   HT     0.417000        1.0080           0
   75135 WT4  8541 TIP3 H2   HT     0.417000        1.0080           0
   75136 WT4  8543 TIP3 OH2  OT    -0.834000       15.9994           0
   75137 WT4  8543 TIP3 H1   HT     0.417000        1.0080           0
   75138 WT4  8543 TIP3 H2   HT     0.417000        1.0080           0
   75139 WT4  8544 TIP3 OH2  OT    -0.834000       15.9994           0
   75140 WT4  8544 TIP3 H1   HT     0.417000        1.0080           0
   75141 WT4  8544 TIP3 H2   HT     0.417000        1.0080           0
   75142 WT4  8545 TIP3 OH2  OT    -0.834000       15.9994           0
   75143 WT4  8545 TIP3 H1   HT     0.417000        1.0080           0
   75144 WT4  8545 TIP3 H2   HT     0.417000        1.0080           0
   75145 WT4  8548 TIP3 OH2  OT    -0.834000       15.9994           0
   75146 WT4  8548 TIP3 H1   HT     0.417000        1.0080           0
   75147 WT4  8548 TIP3 H2   HT     0.417000        1.0080           0
   75148 WT4  8549 TIP3 OH2  OT    -0.834000       15.9994           0
   75149 WT4  8549 TIP3 H1   HT     0.417000        1.0080           0
   75150 WT4  8549 TIP3 H2   HT     0.417000        1.0080           0
   75151 WT4  8550 TIP3 OH2  OT    -0.834000       15.9994           0
   75152 WT4  8550 TIP3 H1   HT     0.417000        1.0080           0
   75153 WT4  8550 TIP3 H2   HT     0.417000        1.0080           0
   75154 WT4  8551 TIP3 OH2  OT    -0.834000       15.9994           0
   75155 WT4  8551 TIP3 H1   HT     0.417000        1.0080           0
   75156 WT4  8551 TIP3 H2   HT     0.417000        1.0080           0
   75157 WT4  8553 TIP3 OH2  OT    -0.834000       15.9994           0
   75158 WT4  8553 TIP3 H1   HT     0.417000        1.0080           0
   75159 WT4  8553 TIP3 H2   HT     0.417000        1.0080           0
   75160 WT4  8554 TIP3 OH2  OT    -0.834000       15.9994           0
   75161 WT4  8554 TIP3 H1   HT     0.417000        1.0080           0
   75162 WT4  8554 TIP3 H2   HT     0.417000        1.0080           0
   75163 WT4  8555 TIP3 OH2  OT    -0.834000       15.9994           0
   75164 WT4  8555 TIP3 H1   HT     0.417000        1.0080           0
   75165 WT4  8555 TIP3 H2   HT     0.417000        1.0080           0
   75166 WT4  8556 TIP3 OH2  OT    -0.834000       15.9994           0
   75167 WT4  8556 TIP3 H1   HT     0.417000        1.0080           0
   75168 WT4  8556 TIP3 H2   HT     0.417000        1.0080           0
   75169 WT4  8557 TIP3 OH2  OT    -0.834000       15.9994           0
   75170 WT4  8557 TIP3 H1   HT     0.417000        1.0080           0
   75171 WT4  8557 TIP3 H2   HT     0.417000        1.0080           0
   75172 WT4  8558 TIP3 OH2  OT    -0.834000       15.9994           0
   75173 WT4  8558 TIP3 H1   HT     0.417000        1.0080           0
   75174 WT4  8558 TIP3 H2   HT     0.417000        1.0080           0
   75175 WT4  8559 TIP3 OH2  OT    -0.834000       15.9994           0
   75176 WT4  8559 TIP3 H1   HT     0.417000        1.0080           0
   75177 WT4  8559 TIP3 H2   HT     0.417000        1.0080           0
   75178 WT4  8562 TIP3 OH2  OT    -0.834000       15.9994           0
   75179 WT4  8562 TIP3 H1   HT     0.417000        1.0080           0
   75180 WT4  8562 TIP3 H2   HT     0.417000        1.0080           0
   75181 WT4  8563 TIP3 OH2  OT    -0.834000       15.9994           0
   75182 WT4  8563 TIP3 H1   HT     0.417000        1.0080           0
   75183 WT4  8563 TIP3 H2   HT     0.417000        1.0080           0
   75184 WT4  8564 TIP3 OH2  OT    -0.834000       15.9994           0
   75185 WT4  8564 TIP3 H1   HT     0.417000        1.0080           0
   75186 WT4  8564 TIP3 H2   HT     0.417000        1.0080           0
   75187 WT4  8566 TIP3 OH2  OT    -0.834000       15.9994           0
   75188 WT4  8566 TIP3 H1   HT     0.417000        1.0080           0
   75189 WT4  8566 TIP3 H2   HT     0.417000        1.0080           0
   75190 WT4  8571 TIP3 OH2  OT    -0.834000       15.9994           0
   75191 WT4  8571 TIP3 H1   HT     0.417000        1.0080           0
   75192 WT4  8571 TIP3 H2   HT     0.417000        1.0080           0
   75193 WT4  8572 TIP3 OH2  OT    -0.834000       15.9994           0
   75194 WT4  8572 TIP3 H1   HT     0.417000        1.0080           0
   75195 WT4  8572 TIP3 H2   HT     0.417000        1.0080           0
   75196 WT4  8573 TIP3 OH2  OT    -0.834000       15.9994           0
   75197 WT4  8573 TIP3 H1   HT     0.417000        1.0080           0
   75198 WT4  8573 TIP3 H2   HT     0.417000        1.0080           0
   75199 WT4  8574 TIP3 OH2  OT    -0.834000       15.9994           0
   75200 WT4  8574 TIP3 H1   HT     0.417000        1.0080           0
   75201 WT4  8574 TIP3 H2   HT     0.417000        1.0080           0
   75202 WT4  8575 TIP3 OH2  OT    -0.834000       15.9994           0
   75203 WT4  8575 TIP3 H1   HT     0.417000        1.0080           0
   75204 WT4  8575 TIP3 H2   HT     0.417000        1.0080           0
   75205 WT4  8576 TIP3 OH2  OT    -0.834000       15.9994           0
   75206 WT4  8576 TIP3 H1   HT     0.417000        1.0080           0
   75207 WT4  8576 TIP3 H2   HT     0.417000        1.0080           0
   75208 WT4  8577 TIP3 OH2  OT    -0.834000       15.9994           0
   75209 WT4  8577 TIP3 H1   HT     0.417000        1.0080           0
   75210 WT4  8577 TIP3 H2   HT     0.417000        1.0080           0
   75211 WT4  8578 TIP3 OH2  OT    -0.834000       15.9994           0
   75212 WT4  8578 TIP3 H1   HT     0.417000        1.0080           0
   75213 WT4  8578 TIP3 H2   HT     0.417000        1.0080           0
   75214 WT4  8579 TIP3 OH2  OT    -0.834000       15.9994           0
   75215 WT4  8579 TIP3 H1   HT     0.417000        1.0080           0
   75216 WT4  8579 TIP3 H2   HT     0.417000        1.0080           0
   75217 WT4  8580 TIP3 OH2  OT    -0.834000       15.9994           0
   75218 WT4  8580 TIP3 H1   HT     0.417000        1.0080           0
   75219 WT4  8580 TIP3 H2   HT     0.417000        1.0080           0
   75220 WT4  8582 TIP3 OH2  OT    -0.834000       15.9994           0
   75221 WT4  8582 TIP3 H1   HT     0.417000        1.0080           0
   75222 WT4  8582 TIP3 H2   HT     0.417000        1.0080           0
   75223 WT4  8583 TIP3 OH2  OT    -0.834000       15.9994           0
   75224 WT4  8583 TIP3 H1   HT     0.417000        1.0080           0
   75225 WT4  8583 TIP3 H2   HT     0.417000        1.0080           0
   75226 WT4  8590 TIP3 OH2  OT    -0.834000       15.9994           0
   75227 WT4  8590 TIP3 H1   HT     0.417000        1.0080           0
   75228 WT4  8590 TIP3 H2   HT     0.417000        1.0080           0
   75229 WT4  8591 TIP3 OH2  OT    -0.834000       15.9994           0
   75230 WT4  8591 TIP3 H1   HT     0.417000        1.0080           0
   75231 WT4  8591 TIP3 H2   HT     0.417000        1.0080           0
   75232 WT4  8592 TIP3 OH2  OT    -0.834000       15.9994           0
   75233 WT4  8592 TIP3 H1   HT     0.417000        1.0080           0
   75234 WT4  8592 TIP3 H2   HT     0.417000        1.0080           0
   75235 WT4  8593 TIP3 OH2  OT    -0.834000       15.9994           0
   75236 WT4  8593 TIP3 H1   HT     0.417000        1.0080           0
   75237 WT4  8593 TIP3 H2   HT     0.417000        1.0080           0
   75238 WT4  8594 TIP3 OH2  OT    -0.834000       15.9994           0
   75239 WT4  8594 TIP3 H1   HT     0.417000        1.0080           0
   75240 WT4  8594 TIP3 H2   HT     0.417000        1.0080           0
   75241 WT4  8595 TIP3 OH2  OT    -0.834000       15.9994           0
   75242 WT4  8595 TIP3 H1   HT     0.417000        1.0080           0
   75243 WT4  8595 TIP3 H2   HT     0.417000        1.0080           0
   75244 WT4  8596 TIP3 OH2  OT    -0.834000       15.9994           0
   75245 WT4  8596 TIP3 H1   HT     0.417000        1.0080           0
   75246 WT4  8596 TIP3 H2   HT     0.417000        1.0080           0
   75247 WT4  8598 TIP3 OH2  OT    -0.834000       15.9994           0
   75248 WT4  8598 TIP3 H1   HT     0.417000        1.0080           0
   75249 WT4  8598 TIP3 H2   HT     0.417000        1.0080           0
   75250 WT4  8599 TIP3 OH2  OT    -0.834000       15.9994           0
   75251 WT4  8599 TIP3 H1   HT     0.417000        1.0080           0
   75252 WT4  8599 TIP3 H2   HT     0.417000        1.0080           0
   75253 WT4  8600 TIP3 OH2  OT    -0.834000       15.9994           0
   75254 WT4  8600 TIP3 H1   HT     0.417000        1.0080           0
   75255 WT4  8600 TIP3 H2   HT     0.417000        1.0080           0
   75256 WT4  8601 TIP3 OH2  OT    -0.834000       15.9994           0
   75257 WT4  8601 TIP3 H1   HT     0.417000        1.0080           0
   75258 WT4  8601 TIP3 H2   HT     0.417000        1.0080           0
   75259 WT4  8602 TIP3 OH2  OT    -0.834000       15.9994           0
   75260 WT4  8602 TIP3 H1   HT     0.417000        1.0080           0
   75261 WT4  8602 TIP3 H2   HT     0.417000        1.0080           0
   75262 WT4  8611 TIP3 OH2  OT    -0.834000       15.9994           0
   75263 WT4  8611 TIP3 H1   HT     0.417000        1.0080           0
   75264 WT4  8611 TIP3 H2   HT     0.417000        1.0080           0
   75265 WT4  8613 TIP3 OH2  OT    -0.834000       15.9994           0
   75266 WT4  8613 TIP3 H1   HT     0.417000        1.0080           0
   75267 WT4  8613 TIP3 H2   HT     0.417000        1.0080           0
   75268 WT4  8614 TIP3 OH2  OT    -0.834000       15.9994           0
   75269 WT4  8614 TIP3 H1   HT     0.417000        1.0080           0
   75270 WT4  8614 TIP3 H2   HT     0.417000        1.0080           0
   75271 WT4  8615 TIP3 OH2  OT    -0.834000       15.9994           0
   75272 WT4  8615 TIP3 H1   HT     0.417000        1.0080           0
   75273 WT4  8615 TIP3 H2   HT     0.417000        1.0080           0
   75274 WT4  8616 TIP3 OH2  OT    -0.834000       15.9994           0
   75275 WT4  8616 TIP3 H1   HT     0.417000        1.0080           0
   75276 WT4  8616 TIP3 H2   HT     0.417000        1.0080           0
   75277 WT4  8617 TIP3 OH2  OT    -0.834000       15.9994           0
   75278 WT4  8617 TIP3 H1   HT     0.417000        1.0080           0
   75279 WT4  8617 TIP3 H2   HT     0.417000        1.0080           0
   75280 WT4  8618 TIP3 OH2  OT    -0.834000       15.9994           0
   75281 WT4  8618 TIP3 H1   HT     0.417000        1.0080           0
   75282 WT4  8618 TIP3 H2   HT     0.417000        1.0080           0
   75283 WT4  8619 TIP3 OH2  OT    -0.834000       15.9994           0
   75284 WT4  8619 TIP3 H1   HT     0.417000        1.0080           0
   75285 WT4  8619 TIP3 H2   HT     0.417000        1.0080           0
   75286 WT4  8620 TIP3 OH2  OT    -0.834000       15.9994           0
   75287 WT4  8620 TIP3 H1   HT     0.417000        1.0080           0
   75288 WT4  8620 TIP3 H2   HT     0.417000        1.0080           0
   75289 WT4  8621 TIP3 OH2  OT    -0.834000       15.9994           0
   75290 WT4  8621 TIP3 H1   HT     0.417000        1.0080           0
   75291 WT4  8621 TIP3 H2   HT     0.417000        1.0080           0
   75292 WT4  8622 TIP3 OH2  OT    -0.834000       15.9994           0
   75293 WT4  8622 TIP3 H1   HT     0.417000        1.0080           0
   75294 WT4  8622 TIP3 H2   HT     0.417000        1.0080           0
   75295 WT4  8624 TIP3 OH2  OT    -0.834000       15.9994           0
   75296 WT4  8624 TIP3 H1   HT     0.417000        1.0080           0
   75297 WT4  8624 TIP3 H2   HT     0.417000        1.0080           0
   75298 WT4  8631 TIP3 OH2  OT    -0.834000       15.9994           0
   75299 WT4  8631 TIP3 H1   HT     0.417000        1.0080           0
   75300 WT4  8631 TIP3 H2   HT     0.417000        1.0080           0
   75301 WT4  8632 TIP3 OH2  OT    -0.834000       15.9994           0
   75302 WT4  8632 TIP3 H1   HT     0.417000        1.0080           0
   75303 WT4  8632 TIP3 H2   HT     0.417000        1.0080           0
   75304 WT4  8633 TIP3 OH2  OT    -0.834000       15.9994           0
   75305 WT4  8633 TIP3 H1   HT     0.417000        1.0080           0
   75306 WT4  8633 TIP3 H2   HT     0.417000        1.0080           0
   75307 WT4  8634 TIP3 OH2  OT    -0.834000       15.9994           0
   75308 WT4  8634 TIP3 H1   HT     0.417000        1.0080           0
   75309 WT4  8634 TIP3 H2   HT     0.417000        1.0080           0
   75310 WT4  8637 TIP3 OH2  OT    -0.834000       15.9994           0
   75311 WT4  8637 TIP3 H1   HT     0.417000        1.0080           0
   75312 WT4  8637 TIP3 H2   HT     0.417000        1.0080           0
   75313 WT4  8638 TIP3 OH2  OT    -0.834000       15.9994           0
   75314 WT4  8638 TIP3 H1   HT     0.417000        1.0080           0
   75315 WT4  8638 TIP3 H2   HT     0.417000        1.0080           0
   75316 WT4  8639 TIP3 OH2  OT    -0.834000       15.9994           0
   75317 WT4  8639 TIP3 H1   HT     0.417000        1.0080           0
   75318 WT4  8639 TIP3 H2   HT     0.417000        1.0080           0
   75319 WT4  8640 TIP3 OH2  OT    -0.834000       15.9994           0
   75320 WT4  8640 TIP3 H1   HT     0.417000        1.0080           0
   75321 WT4  8640 TIP3 H2   HT     0.417000        1.0080           0
   75322 WT4  8641 TIP3 OH2  OT    -0.834000       15.9994           0
   75323 WT4  8641 TIP3 H1   HT     0.417000        1.0080           0
   75324 WT4  8641 TIP3 H2   HT     0.417000        1.0080           0
   75325 WT4  8642 TIP3 OH2  OT    -0.834000       15.9994           0
   75326 WT4  8642 TIP3 H1   HT     0.417000        1.0080           0
   75327 WT4  8642 TIP3 H2   HT     0.417000        1.0080           0
   75328 WT4  8643 TIP3 OH2  OT    -0.834000       15.9994           0
   75329 WT4  8643 TIP3 H1   HT     0.417000        1.0080           0
   75330 WT4  8643 TIP3 H2   HT     0.417000        1.0080           0
   75331 WT4  8644 TIP3 OH2  OT    -0.834000       15.9994           0
   75332 WT4  8644 TIP3 H1   HT     0.417000        1.0080           0
   75333 WT4  8644 TIP3 H2   HT     0.417000        1.0080           0
   75334 WT4  8645 TIP3 OH2  OT    -0.834000       15.9994           0
   75335 WT4  8645 TIP3 H1   HT     0.417000        1.0080           0
   75336 WT4  8645 TIP3 H2   HT     0.417000        1.0080           0
   75337 WT4  8646 TIP3 OH2  OT    -0.834000       15.9994           0
   75338 WT4  8646 TIP3 H1   HT     0.417000        1.0080           0
   75339 WT4  8646 TIP3 H2   HT     0.417000        1.0080           0
   75340 WT4  8647 TIP3 OH2  OT    -0.834000       15.9994           0
   75341 WT4  8647 TIP3 H1   HT     0.417000        1.0080           0
   75342 WT4  8647 TIP3 H2   HT     0.417000        1.0080           0
   75343 WT4  8653 TIP3 OH2  OT    -0.834000       15.9994           0
   75344 WT4  8653 TIP3 H1   HT     0.417000        1.0080           0
   75345 WT4  8653 TIP3 H2   HT     0.417000        1.0080           0
   75346 WT4  8654 TIP3 OH2  OT    -0.834000       15.9994           0
   75347 WT4  8654 TIP3 H1   HT     0.417000        1.0080           0
   75348 WT4  8654 TIP3 H2   HT     0.417000        1.0080           0
   75349 WT4  8658 TIP3 OH2  OT    -0.834000       15.9994           0
   75350 WT4  8658 TIP3 H1   HT     0.417000        1.0080           0
   75351 WT4  8658 TIP3 H2   HT     0.417000        1.0080           0
   75352 WT4  8659 TIP3 OH2  OT    -0.834000       15.9994           0
   75353 WT4  8659 TIP3 H1   HT     0.417000        1.0080           0
   75354 WT4  8659 TIP3 H2   HT     0.417000        1.0080           0
   75355 WT4  8660 TIP3 OH2  OT    -0.834000       15.9994           0
   75356 WT4  8660 TIP3 H1   HT     0.417000        1.0080           0
   75357 WT4  8660 TIP3 H2   HT     0.417000        1.0080           0
   75358 WT4  8662 TIP3 OH2  OT    -0.834000       15.9994           0
   75359 WT4  8662 TIP3 H1   HT     0.417000        1.0080           0
   75360 WT4  8662 TIP3 H2   HT     0.417000        1.0080           0
   75361 WT4  8665 TIP3 OH2  OT    -0.834000       15.9994           0
   75362 WT4  8665 TIP3 H1   HT     0.417000        1.0080           0
   75363 WT4  8665 TIP3 H2   HT     0.417000        1.0080           0
   75364 WT4  8667 TIP3 OH2  OT    -0.834000       15.9994           0
   75365 WT4  8667 TIP3 H1   HT     0.417000        1.0080           0
   75366 WT4  8667 TIP3 H2   HT     0.417000        1.0080           0
   75367 WT4  8668 TIP3 OH2  OT    -0.834000       15.9994           0
   75368 WT4  8668 TIP3 H1   HT     0.417000        1.0080           0
   75369 WT4  8668 TIP3 H2   HT     0.417000        1.0080           0
   75370 WT4  8670 TIP3 OH2  OT    -0.834000       15.9994           0
   75371 WT4  8670 TIP3 H1   HT     0.417000        1.0080           0
   75372 WT4  8670 TIP3 H2   HT     0.417000        1.0080           0
   75373 WT4  8675 TIP3 OH2  OT    -0.834000       15.9994           0
   75374 WT4  8675 TIP3 H1   HT     0.417000        1.0080           0
   75375 WT4  8675 TIP3 H2   HT     0.417000        1.0080           0
   75376 WT4  8676 TIP3 OH2  OT    -0.834000       15.9994           0
   75377 WT4  8676 TIP3 H1   HT     0.417000        1.0080           0
   75378 WT4  8676 TIP3 H2   HT     0.417000        1.0080           0
   75379 WT4  8679 TIP3 OH2  OT    -0.834000       15.9994           0
   75380 WT4  8679 TIP3 H1   HT     0.417000        1.0080           0
   75381 WT4  8679 TIP3 H2   HT     0.417000        1.0080           0
   75382 WT4  8681 TIP3 OH2  OT    -0.834000       15.9994           0
   75383 WT4  8681 TIP3 H1   HT     0.417000        1.0080           0
   75384 WT4  8681 TIP3 H2   HT     0.417000        1.0080           0
   75385 WT4  8682 TIP3 OH2  OT    -0.834000       15.9994           0
   75386 WT4  8682 TIP3 H1   HT     0.417000        1.0080           0
   75387 WT4  8682 TIP3 H2   HT     0.417000        1.0080           0
   75388 WT4  8683 TIP3 OH2  OT    -0.834000       15.9994           0
   75389 WT4  8683 TIP3 H1   HT     0.417000        1.0080           0
   75390 WT4  8683 TIP3 H2   HT     0.417000        1.0080           0
   75391 WT4  8687 TIP3 OH2  OT    -0.834000       15.9994           0
   75392 WT4  8687 TIP3 H1   HT     0.417000        1.0080           0
   75393 WT4  8687 TIP3 H2   HT     0.417000        1.0080           0
   75394 WT4  8700 TIP3 OH2  OT    -0.834000       15.9994           0
   75395 WT4  8700 TIP3 H1   HT     0.417000        1.0080           0
   75396 WT4  8700 TIP3 H2   HT     0.417000        1.0080           0
   75397 WT4  8703 TIP3 OH2  OT    -0.834000       15.9994           0
   75398 WT4  8703 TIP3 H1   HT     0.417000        1.0080           0
   75399 WT4  8703 TIP3 H2   HT     0.417000        1.0080           0
   75400 WT4  8704 TIP3 OH2  OT    -0.834000       15.9994           0
   75401 WT4  8704 TIP3 H1   HT     0.417000        1.0080           0
   75402 WT4  8704 TIP3 H2   HT     0.417000        1.0080           0
   75403 WT4  8719 TIP3 OH2  OT    -0.834000       15.9994           0
   75404 WT4  8719 TIP3 H1   HT     0.417000        1.0080           0
   75405 WT4  8719 TIP3 H2   HT     0.417000        1.0080           0
   75406 WT4  8721 TIP3 OH2  OT    -0.834000       15.9994           0
   75407 WT4  8721 TIP3 H1   HT     0.417000        1.0080           0
   75408 WT4  8721 TIP3 H2   HT     0.417000        1.0080           0
   75409 WT4  8748 TIP3 OH2  OT    -0.834000       15.9994           0
   75410 WT4  8748 TIP3 H1   HT     0.417000        1.0080           0
   75411 WT4  8748 TIP3 H2   HT     0.417000        1.0080           0
   75412 WT4  8760 TIP3 OH2  OT    -0.834000       15.9994           0
   75413 WT4  8760 TIP3 H1   HT     0.417000        1.0080           0
   75414 WT4  8760 TIP3 H2   HT     0.417000        1.0080           0
   75415 WT4  8777 TIP3 OH2  OT    -0.834000       15.9994           0
   75416 WT4  8777 TIP3 H1   HT     0.417000        1.0080           0
   75417 WT4  8777 TIP3 H2   HT     0.417000        1.0080           0
   75418 WT4  8779 TIP3 OH2  OT    -0.834000       15.9994           0
   75419 WT4  8779 TIP3 H1   HT     0.417000        1.0080           0
   75420 WT4  8779 TIP3 H2   HT     0.417000        1.0080           0
   75421 WT4  8780 TIP3 OH2  OT    -0.834000       15.9994           0
   75422 WT4  8780 TIP3 H1   HT     0.417000        1.0080           0
   75423 WT4  8780 TIP3 H2   HT     0.417000        1.0080           0
   75424 WT4  8790 TIP3 OH2  OT    -0.834000       15.9994           0
   75425 WT4  8790 TIP3 H1   HT     0.417000        1.0080           0
   75426 WT4  8790 TIP3 H2   HT     0.417000        1.0080           0
   75427 WT4  8792 TIP3 OH2  OT    -0.834000       15.9994           0
   75428 WT4  8792 TIP3 H1   HT     0.417000        1.0080           0
   75429 WT4  8792 TIP3 H2   HT     0.417000        1.0080           0
   75430 WT4  8794 TIP3 OH2  OT    -0.834000       15.9994           0
   75431 WT4  8794 TIP3 H1   HT     0.417000        1.0080           0
   75432 WT4  8794 TIP3 H2   HT     0.417000        1.0080           0
   75433 WT4  8801 TIP3 OH2  OT    -0.834000       15.9994           0
   75434 WT4  8801 TIP3 H1   HT     0.417000        1.0080           0
   75435 WT4  8801 TIP3 H2   HT     0.417000        1.0080           0
   75436 WT4  8802 TIP3 OH2  OT    -0.834000       15.9994           0
   75437 WT4  8802 TIP3 H1   HT     0.417000        1.0080           0
   75438 WT4  8802 TIP3 H2   HT     0.417000        1.0080           0
   75439 WT4  8803 TIP3 OH2  OT    -0.834000       15.9994           0
   75440 WT4  8803 TIP3 H1   HT     0.417000        1.0080           0
   75441 WT4  8803 TIP3 H2   HT     0.417000        1.0080           0
   75442 WT4  8807 TIP3 OH2  OT    -0.834000       15.9994           0
   75443 WT4  8807 TIP3 H1   HT     0.417000        1.0080           0
   75444 WT4  8807 TIP3 H2   HT     0.417000        1.0080           0
   75445 WT4  8813 TIP3 OH2  OT    -0.834000       15.9994           0
   75446 WT4  8813 TIP3 H1   HT     0.417000        1.0080           0
   75447 WT4  8813 TIP3 H2   HT     0.417000        1.0080           0
   75448 WT4  8820 TIP3 OH2  OT    -0.834000       15.9994           0
   75449 WT4  8820 TIP3 H1   HT     0.417000        1.0080           0
   75450 WT4  8820 TIP3 H2   HT     0.417000        1.0080           0
   75451 WT4  8822 TIP3 OH2  OT    -0.834000       15.9994           0
   75452 WT4  8822 TIP3 H1   HT     0.417000        1.0080           0
   75453 WT4  8822 TIP3 H2   HT     0.417000        1.0080           0
   75454 WT4  8823 TIP3 OH2  OT    -0.834000       15.9994           0
   75455 WT4  8823 TIP3 H1   HT     0.417000        1.0080           0
   75456 WT4  8823 TIP3 H2   HT     0.417000        1.0080           0
   75457 WT4  8829 TIP3 OH2  OT    -0.834000       15.9994           0
   75458 WT4  8829 TIP3 H1   HT     0.417000        1.0080           0
   75459 WT4  8829 TIP3 H2   HT     0.417000        1.0080           0
   75460 WT4  8830 TIP3 OH2  OT    -0.834000       15.9994           0
   75461 WT4  8830 TIP3 H1   HT     0.417000        1.0080           0
   75462 WT4  8830 TIP3 H2   HT     0.417000        1.0080           0
   75463 WT4  8831 TIP3 OH2  OT    -0.834000       15.9994           0
   75464 WT4  8831 TIP3 H1   HT     0.417000        1.0080           0
   75465 WT4  8831 TIP3 H2   HT     0.417000        1.0080           0
   75466 WT4  8833 TIP3 OH2  OT    -0.834000       15.9994           0
   75467 WT4  8833 TIP3 H1   HT     0.417000        1.0080           0
   75468 WT4  8833 TIP3 H2   HT     0.417000        1.0080           0
   75469 WT4  8836 TIP3 OH2  OT    -0.834000       15.9994           0
   75470 WT4  8836 TIP3 H1   HT     0.417000        1.0080           0
   75471 WT4  8836 TIP3 H2   HT     0.417000        1.0080           0
   75472 WT4  8842 TIP3 OH2  OT    -0.834000       15.9994           0
   75473 WT4  8842 TIP3 H1   HT     0.417000        1.0080           0
   75474 WT4  8842 TIP3 H2   HT     0.417000        1.0080           0
   75475 WT4  8843 TIP3 OH2  OT    -0.834000       15.9994           0
   75476 WT4  8843 TIP3 H1   HT     0.417000        1.0080           0
   75477 WT4  8843 TIP3 H2   HT     0.417000        1.0080           0
   75478 WT4  8844 TIP3 OH2  OT    -0.834000       15.9994           0
   75479 WT4  8844 TIP3 H1   HT     0.417000        1.0080           0
   75480 WT4  8844 TIP3 H2   HT     0.417000        1.0080           0
   75481 WT4  8845 TIP3 OH2  OT    -0.834000       15.9994           0
   75482 WT4  8845 TIP3 H1   HT     0.417000        1.0080           0
   75483 WT4  8845 TIP3 H2   HT     0.417000        1.0080           0
   75484 WT4  8846 TIP3 OH2  OT    -0.834000       15.9994           0
   75485 WT4  8846 TIP3 H1   HT     0.417000        1.0080           0
   75486 WT4  8846 TIP3 H2   HT     0.417000        1.0080           0
   75487 WT4  8847 TIP3 OH2  OT    -0.834000       15.9994           0
   75488 WT4  8847 TIP3 H1   HT     0.417000        1.0080           0
   75489 WT4  8847 TIP3 H2   HT     0.417000        1.0080           0
   75490 WT4  8848 TIP3 OH2  OT    -0.834000       15.9994           0
   75491 WT4  8848 TIP3 H1   HT     0.417000        1.0080           0
   75492 WT4  8848 TIP3 H2   HT     0.417000        1.0080           0
   75493 WT4  8849 TIP3 OH2  OT    -0.834000       15.9994           0
   75494 WT4  8849 TIP3 H1   HT     0.417000        1.0080           0
   75495 WT4  8849 TIP3 H2   HT     0.417000        1.0080           0
   75496 WT4  8850 TIP3 OH2  OT    -0.834000       15.9994           0
   75497 WT4  8850 TIP3 H1   HT     0.417000        1.0080           0
   75498 WT4  8850 TIP3 H2   HT     0.417000        1.0080           0
   75499 WT4  8852 TIP3 OH2  OT    -0.834000       15.9994           0
   75500 WT4  8852 TIP3 H1   HT     0.417000        1.0080           0
   75501 WT4  8852 TIP3 H2   HT     0.417000        1.0080           0
   75502 WT4  8856 TIP3 OH2  OT    -0.834000       15.9994           0
   75503 WT4  8856 TIP3 H1   HT     0.417000        1.0080           0
   75504 WT4  8856 TIP3 H2   HT     0.417000        1.0080           0
   75505 WT4  8863 TIP3 OH2  OT    -0.834000       15.9994           0
   75506 WT4  8863 TIP3 H1   HT     0.417000        1.0080           0
   75507 WT4  8863 TIP3 H2   HT     0.417000        1.0080           0
   75508 WT4  8865 TIP3 OH2  OT    -0.834000       15.9994           0
   75509 WT4  8865 TIP3 H1   HT     0.417000        1.0080           0
   75510 WT4  8865 TIP3 H2   HT     0.417000        1.0080           0
   75511 WT4  8866 TIP3 OH2  OT    -0.834000       15.9994           0
   75512 WT4  8866 TIP3 H1   HT     0.417000        1.0080           0
   75513 WT4  8866 TIP3 H2   HT     0.417000        1.0080           0
   75514 WT4  8867 TIP3 OH2  OT    -0.834000       15.9994           0
   75515 WT4  8867 TIP3 H1   HT     0.417000        1.0080           0
   75516 WT4  8867 TIP3 H2   HT     0.417000        1.0080           0
   75517 WT4  8869 TIP3 OH2  OT    -0.834000       15.9994           0
   75518 WT4  8869 TIP3 H1   HT     0.417000        1.0080           0
   75519 WT4  8869 TIP3 H2   HT     0.417000        1.0080           0
   75520 WT4  8870 TIP3 OH2  OT    -0.834000       15.9994           0
   75521 WT4  8870 TIP3 H1   HT     0.417000        1.0080           0
   75522 WT4  8870 TIP3 H2   HT     0.417000        1.0080           0
   75523 WT4  8871 TIP3 OH2  OT    -0.834000       15.9994           0
   75524 WT4  8871 TIP3 H1   HT     0.417000        1.0080           0
   75525 WT4  8871 TIP3 H2   HT     0.417000        1.0080           0
   75526 WT4  8878 TIP3 OH2  OT    -0.834000       15.9994           0
   75527 WT4  8878 TIP3 H1   HT     0.417000        1.0080           0
   75528 WT4  8878 TIP3 H2   HT     0.417000        1.0080           0
   75529 WT4  8883 TIP3 OH2  OT    -0.834000       15.9994           0
   75530 WT4  8883 TIP3 H1   HT     0.417000        1.0080           0
   75531 WT4  8883 TIP3 H2   HT     0.417000        1.0080           0
   75532 WT4  8884 TIP3 OH2  OT    -0.834000       15.9994           0
   75533 WT4  8884 TIP3 H1   HT     0.417000        1.0080           0
   75534 WT4  8884 TIP3 H2   HT     0.417000        1.0080           0
   75535 WT4  8885 TIP3 OH2  OT    -0.834000       15.9994           0
   75536 WT4  8885 TIP3 H1   HT     0.417000        1.0080           0
   75537 WT4  8885 TIP3 H2   HT     0.417000        1.0080           0
   75538 WT4  8886 TIP3 OH2  OT    -0.834000       15.9994           0
   75539 WT4  8886 TIP3 H1   HT     0.417000        1.0080           0
   75540 WT4  8886 TIP3 H2   HT     0.417000        1.0080           0
   75541 WT4  8887 TIP3 OH2  OT    -0.834000       15.9994           0
   75542 WT4  8887 TIP3 H1   HT     0.417000        1.0080           0
   75543 WT4  8887 TIP3 H2   HT     0.417000        1.0080           0
   75544 WT4  8888 TIP3 OH2  OT    -0.834000       15.9994           0
   75545 WT4  8888 TIP3 H1   HT     0.417000        1.0080           0
   75546 WT4  8888 TIP3 H2   HT     0.417000        1.0080           0
   75547 WT4  8893 TIP3 OH2  OT    -0.834000       15.9994           0
   75548 WT4  8893 TIP3 H1   HT     0.417000        1.0080           0
   75549 WT4  8893 TIP3 H2   HT     0.417000        1.0080           0
   75550 WT4  8894 TIP3 OH2  OT    -0.834000       15.9994           0
   75551 WT4  8894 TIP3 H1   HT     0.417000        1.0080           0
   75552 WT4  8894 TIP3 H2   HT     0.417000        1.0080           0
   75553 WT4  8895 TIP3 OH2  OT    -0.834000       15.9994           0
   75554 WT4  8895 TIP3 H1   HT     0.417000        1.0080           0
   75555 WT4  8895 TIP3 H2   HT     0.417000        1.0080           0
   75556 WT4  8896 TIP3 OH2  OT    -0.834000       15.9994           0
   75557 WT4  8896 TIP3 H1   HT     0.417000        1.0080           0
   75558 WT4  8896 TIP3 H2   HT     0.417000        1.0080           0
   75559 WT4  8897 TIP3 OH2  OT    -0.834000       15.9994           0
   75560 WT4  8897 TIP3 H1   HT     0.417000        1.0080           0
   75561 WT4  8897 TIP3 H2   HT     0.417000        1.0080           0
   75562 WT4  8898 TIP3 OH2  OT    -0.834000       15.9994           0
   75563 WT4  8898 TIP3 H1   HT     0.417000        1.0080           0
   75564 WT4  8898 TIP3 H2   HT     0.417000        1.0080           0
   75565 WT4  8901 TIP3 OH2  OT    -0.834000       15.9994           0
   75566 WT4  8901 TIP3 H1   HT     0.417000        1.0080           0
   75567 WT4  8901 TIP3 H2   HT     0.417000        1.0080           0
   75568 WT4  8903 TIP3 OH2  OT    -0.834000       15.9994           0
   75569 WT4  8903 TIP3 H1   HT     0.417000        1.0080           0
   75570 WT4  8903 TIP3 H2   HT     0.417000        1.0080           0
   75571 WT4  8905 TIP3 OH2  OT    -0.834000       15.9994           0
   75572 WT4  8905 TIP3 H1   HT     0.417000        1.0080           0
   75573 WT4  8905 TIP3 H2   HT     0.417000        1.0080           0
   75574 WT4  8908 TIP3 OH2  OT    -0.834000       15.9994           0
   75575 WT4  8908 TIP3 H1   HT     0.417000        1.0080           0
   75576 WT4  8908 TIP3 H2   HT     0.417000        1.0080           0
   75577 WT4  8910 TIP3 OH2  OT    -0.834000       15.9994           0
   75578 WT4  8910 TIP3 H1   HT     0.417000        1.0080           0
   75579 WT4  8910 TIP3 H2   HT     0.417000        1.0080           0
   75580 WT4  8911 TIP3 OH2  OT    -0.834000       15.9994           0
   75581 WT4  8911 TIP3 H1   HT     0.417000        1.0080           0
   75582 WT4  8911 TIP3 H2   HT     0.417000        1.0080           0
   75583 WT4  8912 TIP3 OH2  OT    -0.834000       15.9994           0
   75584 WT4  8912 TIP3 H1   HT     0.417000        1.0080           0
   75585 WT4  8912 TIP3 H2   HT     0.417000        1.0080           0
   75586 WT4  8913 TIP3 OH2  OT    -0.834000       15.9994           0
   75587 WT4  8913 TIP3 H1   HT     0.417000        1.0080           0
   75588 WT4  8913 TIP3 H2   HT     0.417000        1.0080           0
   75589 WT4  8914 TIP3 OH2  OT    -0.834000       15.9994           0
   75590 WT4  8914 TIP3 H1   HT     0.417000        1.0080           0
   75591 WT4  8914 TIP3 H2   HT     0.417000        1.0080           0
   75592 WT4  8915 TIP3 OH2  OT    -0.834000       15.9994           0
   75593 WT4  8915 TIP3 H1   HT     0.417000        1.0080           0
   75594 WT4  8915 TIP3 H2   HT     0.417000        1.0080           0
   75595 WT4  8917 TIP3 OH2  OT    -0.834000       15.9994           0
   75596 WT4  8917 TIP3 H1   HT     0.417000        1.0080           0
   75597 WT4  8917 TIP3 H2   HT     0.417000        1.0080           0
   75598 WT4  8918 TIP3 OH2  OT    -0.834000       15.9994           0
   75599 WT4  8918 TIP3 H1   HT     0.417000        1.0080           0
   75600 WT4  8918 TIP3 H2   HT     0.417000        1.0080           0
   75601 WT4  8925 TIP3 OH2  OT    -0.834000       15.9994           0
   75602 WT4  8925 TIP3 H1   HT     0.417000        1.0080           0
   75603 WT4  8925 TIP3 H2   HT     0.417000        1.0080           0
   75604 WT4  8926 TIP3 OH2  OT    -0.834000       15.9994           0
   75605 WT4  8926 TIP3 H1   HT     0.417000        1.0080           0
   75606 WT4  8926 TIP3 H2   HT     0.417000        1.0080           0
   75607 WT4  8927 TIP3 OH2  OT    -0.834000       15.9994           0
   75608 WT4  8927 TIP3 H1   HT     0.417000        1.0080           0
   75609 WT4  8927 TIP3 H2   HT     0.417000        1.0080           0
   75610 WT4  8928 TIP3 OH2  OT    -0.834000       15.9994           0
   75611 WT4  8928 TIP3 H1   HT     0.417000        1.0080           0
   75612 WT4  8928 TIP3 H2   HT     0.417000        1.0080           0
   75613 WT4  8929 TIP3 OH2  OT    -0.834000       15.9994           0
   75614 WT4  8929 TIP3 H1   HT     0.417000        1.0080           0
   75615 WT4  8929 TIP3 H2   HT     0.417000        1.0080           0
   75616 WT4  8930 TIP3 OH2  OT    -0.834000       15.9994           0
   75617 WT4  8930 TIP3 H1   HT     0.417000        1.0080           0
   75618 WT4  8930 TIP3 H2   HT     0.417000        1.0080           0
   75619 WT4  8931 TIP3 OH2  OT    -0.834000       15.9994           0
   75620 WT4  8931 TIP3 H1   HT     0.417000        1.0080           0
   75621 WT4  8931 TIP3 H2   HT     0.417000        1.0080           0
   75622 WT4  8932 TIP3 OH2  OT    -0.834000       15.9994           0
   75623 WT4  8932 TIP3 H1   HT     0.417000        1.0080           0
   75624 WT4  8932 TIP3 H2   HT     0.417000        1.0080           0
   75625 WT4  8933 TIP3 OH2  OT    -0.834000       15.9994           0
   75626 WT4  8933 TIP3 H1   HT     0.417000        1.0080           0
   75627 WT4  8933 TIP3 H2   HT     0.417000        1.0080           0
   75628 WT4  8934 TIP3 OH2  OT    -0.834000       15.9994           0
   75629 WT4  8934 TIP3 H1   HT     0.417000        1.0080           0
   75630 WT4  8934 TIP3 H2   HT     0.417000        1.0080           0
   75631 WT4  8935 TIP3 OH2  OT    -0.834000       15.9994           0
   75632 WT4  8935 TIP3 H1   HT     0.417000        1.0080           0
   75633 WT4  8935 TIP3 H2   HT     0.417000        1.0080           0
   75634 WT4  8937 TIP3 OH2  OT    -0.834000       15.9994           0
   75635 WT4  8937 TIP3 H1   HT     0.417000        1.0080           0
   75636 WT4  8937 TIP3 H2   HT     0.417000        1.0080           0
   75637 WT4  8939 TIP3 OH2  OT    -0.834000       15.9994           0
   75638 WT4  8939 TIP3 H1   HT     0.417000        1.0080           0
   75639 WT4  8939 TIP3 H2   HT     0.417000        1.0080           0
   75640 WT4  8940 TIP3 OH2  OT    -0.834000       15.9994           0
   75641 WT4  8940 TIP3 H1   HT     0.417000        1.0080           0
   75642 WT4  8940 TIP3 H2   HT     0.417000        1.0080           0
   75643 WT4  8941 TIP3 OH2  OT    -0.834000       15.9994           0
   75644 WT4  8941 TIP3 H1   HT     0.417000        1.0080           0
   75645 WT4  8941 TIP3 H2   HT     0.417000        1.0080           0
   75646 WT4  8944 TIP3 OH2  OT    -0.834000       15.9994           0
   75647 WT4  8944 TIP3 H1   HT     0.417000        1.0080           0
   75648 WT4  8944 TIP3 H2   HT     0.417000        1.0080           0
   75649 WT4  8949 TIP3 OH2  OT    -0.834000       15.9994           0
   75650 WT4  8949 TIP3 H1   HT     0.417000        1.0080           0
   75651 WT4  8949 TIP3 H2   HT     0.417000        1.0080           0
   75652 WT4  8950 TIP3 OH2  OT    -0.834000       15.9994           0
   75653 WT4  8950 TIP3 H1   HT     0.417000        1.0080           0
   75654 WT4  8950 TIP3 H2   HT     0.417000        1.0080           0
   75655 WT4  8951 TIP3 OH2  OT    -0.834000       15.9994           0
   75656 WT4  8951 TIP3 H1   HT     0.417000        1.0080           0
   75657 WT4  8951 TIP3 H2   HT     0.417000        1.0080           0
   75658 WT4  8952 TIP3 OH2  OT    -0.834000       15.9994           0
   75659 WT4  8952 TIP3 H1   HT     0.417000        1.0080           0
   75660 WT4  8952 TIP3 H2   HT     0.417000        1.0080           0
   75661 WT4  8953 TIP3 OH2  OT    -0.834000       15.9994           0
   75662 WT4  8953 TIP3 H1   HT     0.417000        1.0080           0
   75663 WT4  8953 TIP3 H2   HT     0.417000        1.0080           0
   75664 WT4  8954 TIP3 OH2  OT    -0.834000       15.9994           0
   75665 WT4  8954 TIP3 H1   HT     0.417000        1.0080           0
   75666 WT4  8954 TIP3 H2   HT     0.417000        1.0080           0
   75667 WT4  8956 TIP3 OH2  OT    -0.834000       15.9994           0
   75668 WT4  8956 TIP3 H1   HT     0.417000        1.0080           0
   75669 WT4  8956 TIP3 H2   HT     0.417000        1.0080           0
   75670 WT4  8957 TIP3 OH2  OT    -0.834000       15.9994           0
   75671 WT4  8957 TIP3 H1   HT     0.417000        1.0080           0
   75672 WT4  8957 TIP3 H2   HT     0.417000        1.0080           0
   75673 WT4  8958 TIP3 OH2  OT    -0.834000       15.9994           0
   75674 WT4  8958 TIP3 H1   HT     0.417000        1.0080           0
   75675 WT4  8958 TIP3 H2   HT     0.417000        1.0080           0
   75676 WT4  8960 TIP3 OH2  OT    -0.834000       15.9994           0
   75677 WT4  8960 TIP3 H1   HT     0.417000        1.0080           0
   75678 WT4  8960 TIP3 H2   HT     0.417000        1.0080           0
   75679 WT4  8961 TIP3 OH2  OT    -0.834000       15.9994           0
   75680 WT4  8961 TIP3 H1   HT     0.417000        1.0080           0
   75681 WT4  8961 TIP3 H2   HT     0.417000        1.0080           0
   75682 WT4  8967 TIP3 OH2  OT    -0.834000       15.9994           0
   75683 WT4  8967 TIP3 H1   HT     0.417000        1.0080           0
   75684 WT4  8967 TIP3 H2   HT     0.417000        1.0080           0
   75685 WT4  8969 TIP3 OH2  OT    -0.834000       15.9994           0
   75686 WT4  8969 TIP3 H1   HT     0.417000        1.0080           0
   75687 WT4  8969 TIP3 H2   HT     0.417000        1.0080           0
   75688 WT4  8970 TIP3 OH2  OT    -0.834000       15.9994           0
   75689 WT4  8970 TIP3 H1   HT     0.417000        1.0080           0
   75690 WT4  8970 TIP3 H2   HT     0.417000        1.0080           0
   75691 WT4  8971 TIP3 OH2  OT    -0.834000       15.9994           0
   75692 WT4  8971 TIP3 H1   HT     0.417000        1.0080           0
   75693 WT4  8971 TIP3 H2   HT     0.417000        1.0080           0
   75694 WT4  8972 TIP3 OH2  OT    -0.834000       15.9994           0
   75695 WT4  8972 TIP3 H1   HT     0.417000        1.0080           0
   75696 WT4  8972 TIP3 H2   HT     0.417000        1.0080           0
   75697 WT4  8973 TIP3 OH2  OT    -0.834000       15.9994           0
   75698 WT4  8973 TIP3 H1   HT     0.417000        1.0080           0
   75699 WT4  8973 TIP3 H2   HT     0.417000        1.0080           0
   75700 WT4  8974 TIP3 OH2  OT    -0.834000       15.9994           0
   75701 WT4  8974 TIP3 H1   HT     0.417000        1.0080           0
   75702 WT4  8974 TIP3 H2   HT     0.417000        1.0080           0
   75703 WT4  8975 TIP3 OH2  OT    -0.834000       15.9994           0
   75704 WT4  8975 TIP3 H1   HT     0.417000        1.0080           0
   75705 WT4  8975 TIP3 H2   HT     0.417000        1.0080           0
   75706 WT4  8976 TIP3 OH2  OT    -0.834000       15.9994           0
   75707 WT4  8976 TIP3 H1   HT     0.417000        1.0080           0
   75708 WT4  8976 TIP3 H2   HT     0.417000        1.0080           0
   75709 WT4  8977 TIP3 OH2  OT    -0.834000       15.9994           0
   75710 WT4  8977 TIP3 H1   HT     0.417000        1.0080           0
   75711 WT4  8977 TIP3 H2   HT     0.417000        1.0080           0
   75712 WT4  8978 TIP3 OH2  OT    -0.834000       15.9994           0
   75713 WT4  8978 TIP3 H1   HT     0.417000        1.0080           0
   75714 WT4  8978 TIP3 H2   HT     0.417000        1.0080           0
   75715 WT4  8979 TIP3 OH2  OT    -0.834000       15.9994           0
   75716 WT4  8979 TIP3 H1   HT     0.417000        1.0080           0
   75717 WT4  8979 TIP3 H2   HT     0.417000        1.0080           0
   75718 WT4  8981 TIP3 OH2  OT    -0.834000       15.9994           0
   75719 WT4  8981 TIP3 H1   HT     0.417000        1.0080           0
   75720 WT4  8981 TIP3 H2   HT     0.417000        1.0080           0
   75721 WT4  8988 TIP3 OH2  OT    -0.834000       15.9994           0
   75722 WT4  8988 TIP3 H1   HT     0.417000        1.0080           0
   75723 WT4  8988 TIP3 H2   HT     0.417000        1.0080           0
   75724 WT4  8990 TIP3 OH2  OT    -0.834000       15.9994           0
   75725 WT4  8990 TIP3 H1   HT     0.417000        1.0080           0
   75726 WT4  8990 TIP3 H2   HT     0.417000        1.0080           0
   75727 WT4  8991 TIP3 OH2  OT    -0.834000       15.9994           0
   75728 WT4  8991 TIP3 H1   HT     0.417000        1.0080           0
   75729 WT4  8991 TIP3 H2   HT     0.417000        1.0080           0
   75730 WT4  8992 TIP3 OH2  OT    -0.834000       15.9994           0
   75731 WT4  8992 TIP3 H1   HT     0.417000        1.0080           0
   75732 WT4  8992 TIP3 H2   HT     0.417000        1.0080           0
   75733 WT4  8993 TIP3 OH2  OT    -0.834000       15.9994           0
   75734 WT4  8993 TIP3 H1   HT     0.417000        1.0080           0
   75735 WT4  8993 TIP3 H2   HT     0.417000        1.0080           0
   75736 WT4  8994 TIP3 OH2  OT    -0.834000       15.9994           0
   75737 WT4  8994 TIP3 H1   HT     0.417000        1.0080           0
   75738 WT4  8994 TIP3 H2   HT     0.417000        1.0080           0
   75739 WT4  8995 TIP3 OH2  OT    -0.834000       15.9994           0
   75740 WT4  8995 TIP3 H1   HT     0.417000        1.0080           0
   75741 WT4  8995 TIP3 H2   HT     0.417000        1.0080           0
   75742 WT4  8996 TIP3 OH2  OT    -0.834000       15.9994           0
   75743 WT4  8996 TIP3 H1   HT     0.417000        1.0080           0
   75744 WT4  8996 TIP3 H2   HT     0.417000        1.0080           0
   75745 WT4  8997 TIP3 OH2  OT    -0.834000       15.9994           0
   75746 WT4  8997 TIP3 H1   HT     0.417000        1.0080           0
   75747 WT4  8997 TIP3 H2   HT     0.417000        1.0080           0
   75748 WT4  8998 TIP3 OH2  OT    -0.834000       15.9994           0
   75749 WT4  8998 TIP3 H1   HT     0.417000        1.0080           0
   75750 WT4  8998 TIP3 H2   HT     0.417000        1.0080           0
   75751 WT4  8999 TIP3 OH2  OT    -0.834000       15.9994           0
   75752 WT4  8999 TIP3 H1   HT     0.417000        1.0080           0
   75753 WT4  8999 TIP3 H2   HT     0.417000        1.0080           0
   75754 WT4  9000 TIP3 OH2  OT    -0.834000       15.9994           0
   75755 WT4  9000 TIP3 H1   HT     0.417000        1.0080           0
   75756 WT4  9000 TIP3 H2   HT     0.417000        1.0080           0
   75757 WT4  9001 TIP3 OH2  OT    -0.834000       15.9994           0
   75758 WT4  9001 TIP3 H1   HT     0.417000        1.0080           0
   75759 WT4  9001 TIP3 H2   HT     0.417000        1.0080           0
   75760 WT4  9002 TIP3 OH2  OT    -0.834000       15.9994           0
   75761 WT4  9002 TIP3 H1   HT     0.417000        1.0080           0
   75762 WT4  9002 TIP3 H2   HT     0.417000        1.0080           0
   75763 WT4  9008 TIP3 OH2  OT    -0.834000       15.9994           0
   75764 WT4  9008 TIP3 H1   HT     0.417000        1.0080           0
   75765 WT4  9008 TIP3 H2   HT     0.417000        1.0080           0
   75766 WT4  9009 TIP3 OH2  OT    -0.834000       15.9994           0
   75767 WT4  9009 TIP3 H1   HT     0.417000        1.0080           0
   75768 WT4  9009 TIP3 H2   HT     0.417000        1.0080           0
   75769 WT4  9013 TIP3 OH2  OT    -0.834000       15.9994           0
   75770 WT4  9013 TIP3 H1   HT     0.417000        1.0080           0
   75771 WT4  9013 TIP3 H2   HT     0.417000        1.0080           0
   75772 WT4  9014 TIP3 OH2  OT    -0.834000       15.9994           0
   75773 WT4  9014 TIP3 H1   HT     0.417000        1.0080           0
   75774 WT4  9014 TIP3 H2   HT     0.417000        1.0080           0
   75775 WT4  9015 TIP3 OH2  OT    -0.834000       15.9994           0
   75776 WT4  9015 TIP3 H1   HT     0.417000        1.0080           0
   75777 WT4  9015 TIP3 H2   HT     0.417000        1.0080           0
   75778 WT4  9016 TIP3 OH2  OT    -0.834000       15.9994           0
   75779 WT4  9016 TIP3 H1   HT     0.417000        1.0080           0
   75780 WT4  9016 TIP3 H2   HT     0.417000        1.0080           0
   75781 WT4  9017 TIP3 OH2  OT    -0.834000       15.9994           0
   75782 WT4  9017 TIP3 H1   HT     0.417000        1.0080           0
   75783 WT4  9017 TIP3 H2   HT     0.417000        1.0080           0
   75784 WT4  9018 TIP3 OH2  OT    -0.834000       15.9994           0
   75785 WT4  9018 TIP3 H1   HT     0.417000        1.0080           0
   75786 WT4  9018 TIP3 H2   HT     0.417000        1.0080           0
   75787 WT4  9019 TIP3 OH2  OT    -0.834000       15.9994           0
   75788 WT4  9019 TIP3 H1   HT     0.417000        1.0080           0
   75789 WT4  9019 TIP3 H2   HT     0.417000        1.0080           0
   75790 WT4  9020 TIP3 OH2  OT    -0.834000       15.9994           0
   75791 WT4  9020 TIP3 H1   HT     0.417000        1.0080           0
   75792 WT4  9020 TIP3 H2   HT     0.417000        1.0080           0
   75793 WT4  9021 TIP3 OH2  OT    -0.834000       15.9994           0
   75794 WT4  9021 TIP3 H1   HT     0.417000        1.0080           0
   75795 WT4  9021 TIP3 H2   HT     0.417000        1.0080           0
   75796 WT4  9023 TIP3 OH2  OT    -0.834000       15.9994           0
   75797 WT4  9023 TIP3 H1   HT     0.417000        1.0080           0
   75798 WT4  9023 TIP3 H2   HT     0.417000        1.0080           0
   75799 WT4  9024 TIP3 OH2  OT    -0.834000       15.9994           0
   75800 WT4  9024 TIP3 H1   HT     0.417000        1.0080           0
   75801 WT4  9024 TIP3 H2   HT     0.417000        1.0080           0
   75802 WT4  9026 TIP3 OH2  OT    -0.834000       15.9994           0
   75803 WT4  9026 TIP3 H1   HT     0.417000        1.0080           0
   75804 WT4  9026 TIP3 H2   HT     0.417000        1.0080           0
   75805 WT4  9031 TIP3 OH2  OT    -0.834000       15.9994           0
   75806 WT4  9031 TIP3 H1   HT     0.417000        1.0080           0
   75807 WT4  9031 TIP3 H2   HT     0.417000        1.0080           0
   75808 WT4  9033 TIP3 OH2  OT    -0.834000       15.9994           0
   75809 WT4  9033 TIP3 H1   HT     0.417000        1.0080           0
   75810 WT4  9033 TIP3 H2   HT     0.417000        1.0080           0
   75811 WT4  9034 TIP3 OH2  OT    -0.834000       15.9994           0
   75812 WT4  9034 TIP3 H1   HT     0.417000        1.0080           0
   75813 WT4  9034 TIP3 H2   HT     0.417000        1.0080           0
   75814 WT4  9035 TIP3 OH2  OT    -0.834000       15.9994           0
   75815 WT4  9035 TIP3 H1   HT     0.417000        1.0080           0
   75816 WT4  9035 TIP3 H2   HT     0.417000        1.0080           0
   75817 WT4  9036 TIP3 OH2  OT    -0.834000       15.9994           0
   75818 WT4  9036 TIP3 H1   HT     0.417000        1.0080           0
   75819 WT4  9036 TIP3 H2   HT     0.417000        1.0080           0
   75820 WT4  9037 TIP3 OH2  OT    -0.834000       15.9994           0
   75821 WT4  9037 TIP3 H1   HT     0.417000        1.0080           0
   75822 WT4  9037 TIP3 H2   HT     0.417000        1.0080           0
   75823 WT4  9038 TIP3 OH2  OT    -0.834000       15.9994           0
   75824 WT4  9038 TIP3 H1   HT     0.417000        1.0080           0
   75825 WT4  9038 TIP3 H2   HT     0.417000        1.0080           0
   75826 WT4  9039 TIP3 OH2  OT    -0.834000       15.9994           0
   75827 WT4  9039 TIP3 H1   HT     0.417000        1.0080           0
   75828 WT4  9039 TIP3 H2   HT     0.417000        1.0080           0
   75829 WT4  9040 TIP3 OH2  OT    -0.834000       15.9994           0
   75830 WT4  9040 TIP3 H1   HT     0.417000        1.0080           0
   75831 WT4  9040 TIP3 H2   HT     0.417000        1.0080           0
   75832 WT4  9041 TIP3 OH2  OT    -0.834000       15.9994           0
   75833 WT4  9041 TIP3 H1   HT     0.417000        1.0080           0
   75834 WT4  9041 TIP3 H2   HT     0.417000        1.0080           0
   75835 WT4  9042 TIP3 OH2  OT    -0.834000       15.9994           0
   75836 WT4  9042 TIP3 H1   HT     0.417000        1.0080           0
   75837 WT4  9042 TIP3 H2   HT     0.417000        1.0080           0
   75838 WT4  9043 TIP3 OH2  OT    -0.834000       15.9994           0
   75839 WT4  9043 TIP3 H1   HT     0.417000        1.0080           0
   75840 WT4  9043 TIP3 H2   HT     0.417000        1.0080           0
   75841 WT4  9045 TIP3 OH2  OT    -0.834000       15.9994           0
   75842 WT4  9045 TIP3 H1   HT     0.417000        1.0080           0
   75843 WT4  9045 TIP3 H2   HT     0.417000        1.0080           0
   75844 WT4  9047 TIP3 OH2  OT    -0.834000       15.9994           0
   75845 WT4  9047 TIP3 H1   HT     0.417000        1.0080           0
   75846 WT4  9047 TIP3 H2   HT     0.417000        1.0080           0
   75847 WT4  9054 TIP3 OH2  OT    -0.834000       15.9994           0
   75848 WT4  9054 TIP3 H1   HT     0.417000        1.0080           0
   75849 WT4  9054 TIP3 H2   HT     0.417000        1.0080           0
   75850 WT4  9055 TIP3 OH2  OT    -0.834000       15.9994           0
   75851 WT4  9055 TIP3 H1   HT     0.417000        1.0080           0
   75852 WT4  9055 TIP3 H2   HT     0.417000        1.0080           0
   75853 WT4  9056 TIP3 OH2  OT    -0.834000       15.9994           0
   75854 WT4  9056 TIP3 H1   HT     0.417000        1.0080           0
   75855 WT4  9056 TIP3 H2   HT     0.417000        1.0080           0
   75856 WT4  9057 TIP3 OH2  OT    -0.834000       15.9994           0
   75857 WT4  9057 TIP3 H1   HT     0.417000        1.0080           0
   75858 WT4  9057 TIP3 H2   HT     0.417000        1.0080           0
   75859 WT4  9058 TIP3 OH2  OT    -0.834000       15.9994           0
   75860 WT4  9058 TIP3 H1   HT     0.417000        1.0080           0
   75861 WT4  9058 TIP3 H2   HT     0.417000        1.0080           0
   75862 WT4  9059 TIP3 OH2  OT    -0.834000       15.9994           0
   75863 WT4  9059 TIP3 H1   HT     0.417000        1.0080           0
   75864 WT4  9059 TIP3 H2   HT     0.417000        1.0080           0
   75865 WT4  9060 TIP3 OH2  OT    -0.834000       15.9994           0
   75866 WT4  9060 TIP3 H1   HT     0.417000        1.0080           0
   75867 WT4  9060 TIP3 H2   HT     0.417000        1.0080           0
   75868 WT4  9061 TIP3 OH2  OT    -0.834000       15.9994           0
   75869 WT4  9061 TIP3 H1   HT     0.417000        1.0080           0
   75870 WT4  9061 TIP3 H2   HT     0.417000        1.0080           0
   75871 WT4  9062 TIP3 OH2  OT    -0.834000       15.9994           0
   75872 WT4  9062 TIP3 H1   HT     0.417000        1.0080           0
   75873 WT4  9062 TIP3 H2   HT     0.417000        1.0080           0
   75874 WT4  9066 TIP3 OH2  OT    -0.834000       15.9994           0
   75875 WT4  9066 TIP3 H1   HT     0.417000        1.0080           0
   75876 WT4  9066 TIP3 H2   HT     0.417000        1.0080           0
   75877 WT4  9072 TIP3 OH2  OT    -0.834000       15.9994           0
   75878 WT4  9072 TIP3 H1   HT     0.417000        1.0080           0
   75879 WT4  9072 TIP3 H2   HT     0.417000        1.0080           0
   75880 WT4  9075 TIP3 OH2  OT    -0.834000       15.9994           0
   75881 WT4  9075 TIP3 H1   HT     0.417000        1.0080           0
   75882 WT4  9075 TIP3 H2   HT     0.417000        1.0080           0
   75883 WT4  9078 TIP3 OH2  OT    -0.834000       15.9994           0
   75884 WT4  9078 TIP3 H1   HT     0.417000        1.0080           0
   75885 WT4  9078 TIP3 H2   HT     0.417000        1.0080           0
   75886 WT4  9079 TIP3 OH2  OT    -0.834000       15.9994           0
   75887 WT4  9079 TIP3 H1   HT     0.417000        1.0080           0
   75888 WT4  9079 TIP3 H2   HT     0.417000        1.0080           0
   75889 WT4  9081 TIP3 OH2  OT    -0.834000       15.9994           0
   75890 WT4  9081 TIP3 H1   HT     0.417000        1.0080           0
   75891 WT4  9081 TIP3 H2   HT     0.417000        1.0080           0
   75892 WT4  9082 TIP3 OH2  OT    -0.834000       15.9994           0
   75893 WT4  9082 TIP3 H1   HT     0.417000        1.0080           0
   75894 WT4  9082 TIP3 H2   HT     0.417000        1.0080           0
   75895 WT4  9084 TIP3 OH2  OT    -0.834000       15.9994           0
   75896 WT4  9084 TIP3 H1   HT     0.417000        1.0080           0
   75897 WT4  9084 TIP3 H2   HT     0.417000        1.0080           0
   75898 WT4  9085 TIP3 OH2  OT    -0.834000       15.9994           0
   75899 WT4  9085 TIP3 H1   HT     0.417000        1.0080           0
   75900 WT4  9085 TIP3 H2   HT     0.417000        1.0080           0
   75901 WT4  9086 TIP3 OH2  OT    -0.834000       15.9994           0
   75902 WT4  9086 TIP3 H1   HT     0.417000        1.0080           0
   75903 WT4  9086 TIP3 H2   HT     0.417000        1.0080           0
   75904 WT4  9093 TIP3 OH2  OT    -0.834000       15.9994           0
   75905 WT4  9093 TIP3 H1   HT     0.417000        1.0080           0
   75906 WT4  9093 TIP3 H2   HT     0.417000        1.0080           0
   75907 WT4  9094 TIP3 OH2  OT    -0.834000       15.9994           0
   75908 WT4  9094 TIP3 H1   HT     0.417000        1.0080           0
   75909 WT4  9094 TIP3 H2   HT     0.417000        1.0080           0
   75910 WT4  9096 TIP3 OH2  OT    -0.834000       15.9994           0
   75911 WT4  9096 TIP3 H1   HT     0.417000        1.0080           0
   75912 WT4  9096 TIP3 H2   HT     0.417000        1.0080           0
   75913 WT4  9098 TIP3 OH2  OT    -0.834000       15.9994           0
   75914 WT4  9098 TIP3 H1   HT     0.417000        1.0080           0
   75915 WT4  9098 TIP3 H2   HT     0.417000        1.0080           0
   75916 WT4  9099 TIP3 OH2  OT    -0.834000       15.9994           0
   75917 WT4  9099 TIP3 H1   HT     0.417000        1.0080           0
   75918 WT4  9099 TIP3 H2   HT     0.417000        1.0080           0
   75919 WT4  9100 TIP3 OH2  OT    -0.834000       15.9994           0
   75920 WT4  9100 TIP3 H1   HT     0.417000        1.0080           0
   75921 WT4  9100 TIP3 H2   HT     0.417000        1.0080           0
   75922 WT4  9101 TIP3 OH2  OT    -0.834000       15.9994           0
   75923 WT4  9101 TIP3 H1   HT     0.417000        1.0080           0
   75924 WT4  9101 TIP3 H2   HT     0.417000        1.0080           0
   75925 WT4  9102 TIP3 OH2  OT    -0.834000       15.9994           0
   75926 WT4  9102 TIP3 H1   HT     0.417000        1.0080           0
   75927 WT4  9102 TIP3 H2   HT     0.417000        1.0080           0
   75928 WT4  9103 TIP3 OH2  OT    -0.834000       15.9994           0
   75929 WT4  9103 TIP3 H1   HT     0.417000        1.0080           0
   75930 WT4  9103 TIP3 H2   HT     0.417000        1.0080           0
   75931 WT4  9105 TIP3 OH2  OT    -0.834000       15.9994           0
   75932 WT4  9105 TIP3 H1   HT     0.417000        1.0080           0
   75933 WT4  9105 TIP3 H2   HT     0.417000        1.0080           0
   75934 WT4  9107 TIP3 OH2  OT    -0.834000       15.9994           0
   75935 WT4  9107 TIP3 H1   HT     0.417000        1.0080           0
   75936 WT4  9107 TIP3 H2   HT     0.417000        1.0080           0
   75937 WT4  9117 TIP3 OH2  OT    -0.834000       15.9994           0
   75938 WT4  9117 TIP3 H1   HT     0.417000        1.0080           0
   75939 WT4  9117 TIP3 H2   HT     0.417000        1.0080           0
   75940 WT4  9121 TIP3 OH2  OT    -0.834000       15.9994           0
   75941 WT4  9121 TIP3 H1   HT     0.417000        1.0080           0
   75942 WT4  9121 TIP3 H2   HT     0.417000        1.0080           0
   75943 WT4  9122 TIP3 OH2  OT    -0.834000       15.9994           0
   75944 WT4  9122 TIP3 H1   HT     0.417000        1.0080           0
   75945 WT4  9122 TIP3 H2   HT     0.417000        1.0080           0
   75946 WT4  9126 TIP3 OH2  OT    -0.834000       15.9994           0
   75947 WT4  9126 TIP3 H1   HT     0.417000        1.0080           0
   75948 WT4  9126 TIP3 H2   HT     0.417000        1.0080           0
   75949 WT4  9127 TIP3 OH2  OT    -0.834000       15.9994           0
   75950 WT4  9127 TIP3 H1   HT     0.417000        1.0080           0
   75951 WT4  9127 TIP3 H2   HT     0.417000        1.0080           0
   75952 WT4  9128 TIP3 OH2  OT    -0.834000       15.9994           0
   75953 WT4  9128 TIP3 H1   HT     0.417000        1.0080           0
   75954 WT4  9128 TIP3 H2   HT     0.417000        1.0080           0
   75955 WT4  9138 TIP3 OH2  OT    -0.834000       15.9994           0
   75956 WT4  9138 TIP3 H1   HT     0.417000        1.0080           0
   75957 WT4  9138 TIP3 H2   HT     0.417000        1.0080           0
   75958 WT4  9139 TIP3 OH2  OT    -0.834000       15.9994           0
   75959 WT4  9139 TIP3 H1   HT     0.417000        1.0080           0
   75960 WT4  9139 TIP3 H2   HT     0.417000        1.0080           0
   75961 WT4  9140 TIP3 OH2  OT    -0.834000       15.9994           0
   75962 WT4  9140 TIP3 H1   HT     0.417000        1.0080           0
   75963 WT4  9140 TIP3 H2   HT     0.417000        1.0080           0
   75964 WT4  9144 TIP3 OH2  OT    -0.834000       15.9994           0
   75965 WT4  9144 TIP3 H1   HT     0.417000        1.0080           0
   75966 WT4  9144 TIP3 H2   HT     0.417000        1.0080           0
   75967 WT4  9146 TIP3 OH2  OT    -0.834000       15.9994           0
   75968 WT4  9146 TIP3 H1   HT     0.417000        1.0080           0
   75969 WT4  9146 TIP3 H2   HT     0.417000        1.0080           0
   75970 WT4  9151 TIP3 OH2  OT    -0.834000       15.9994           0
   75971 WT4  9151 TIP3 H1   HT     0.417000        1.0080           0
   75972 WT4  9151 TIP3 H2   HT     0.417000        1.0080           0
   75973 WT4  9159 TIP3 OH2  OT    -0.834000       15.9994           0
   75974 WT4  9159 TIP3 H1   HT     0.417000        1.0080           0
   75975 WT4  9159 TIP3 H2   HT     0.417000        1.0080           0
   75976 WT4  9165 TIP3 OH2  OT    -0.834000       15.9994           0
   75977 WT4  9165 TIP3 H1   HT     0.417000        1.0080           0
   75978 WT4  9165 TIP3 H2   HT     0.417000        1.0080           0
   75979 WT4  9168 TIP3 OH2  OT    -0.834000       15.9994           0
   75980 WT4  9168 TIP3 H1   HT     0.417000        1.0080           0
   75981 WT4  9168 TIP3 H2   HT     0.417000        1.0080           0
   75982 WT4  9170 TIP3 OH2  OT    -0.834000       15.9994           0
   75983 WT4  9170 TIP3 H1   HT     0.417000        1.0080           0
   75984 WT4  9170 TIP3 H2   HT     0.417000        1.0080           0
   75985 WT4  9188 TIP3 OH2  OT    -0.834000       15.9994           0
   75986 WT4  9188 TIP3 H1   HT     0.417000        1.0080           0
   75987 WT4  9188 TIP3 H2   HT     0.417000        1.0080           0
   75988 WT4  9190 TIP3 OH2  OT    -0.834000       15.9994           0
   75989 WT4  9190 TIP3 H1   HT     0.417000        1.0080           0
   75990 WT4  9190 TIP3 H2   HT     0.417000        1.0080           0
   75991 WT4  9201 TIP3 OH2  OT    -0.834000       15.9994           0
   75992 WT4  9201 TIP3 H1   HT     0.417000        1.0080           0
   75993 WT4  9201 TIP3 H2   HT     0.417000        1.0080           0
   75994 WT4  9212 TIP3 OH2  OT    -0.834000       15.9994           0
   75995 WT4  9212 TIP3 H1   HT     0.417000        1.0080           0
   75996 WT4  9212 TIP3 H2   HT     0.417000        1.0080           0
   75997 WT4  9214 TIP3 OH2  OT    -0.834000       15.9994           0
   75998 WT4  9214 TIP3 H1   HT     0.417000        1.0080           0
   75999 WT4  9214 TIP3 H2   HT     0.417000        1.0080           0
   76000 WT4  9224 TIP3 OH2  OT    -0.834000       15.9994           0
   76001 WT4  9224 TIP3 H1   HT     0.417000        1.0080           0
   76002 WT4  9224 TIP3 H2   HT     0.417000        1.0080           0
   76003 WT4  9226 TIP3 OH2  OT    -0.834000       15.9994           0
   76004 WT4  9226 TIP3 H1   HT     0.417000        1.0080           0
   76005 WT4  9226 TIP3 H2   HT     0.417000        1.0080           0
   76006 WT4  9230 TIP3 OH2  OT    -0.834000       15.9994           0
   76007 WT4  9230 TIP3 H1   HT     0.417000        1.0080           0
   76008 WT4  9230 TIP3 H2   HT     0.417000        1.0080           0
   76009 WT4  9231 TIP3 OH2  OT    -0.834000       15.9994           0
   76010 WT4  9231 TIP3 H1   HT     0.417000        1.0080           0
   76011 WT4  9231 TIP3 H2   HT     0.417000        1.0080           0
   76012 WT4  9234 TIP3 OH2  OT    -0.834000       15.9994           0
   76013 WT4  9234 TIP3 H1   HT     0.417000        1.0080           0
   76014 WT4  9234 TIP3 H2   HT     0.417000        1.0080           0
   76015 WT4  9241 TIP3 OH2  OT    -0.834000       15.9994           0
   76016 WT4  9241 TIP3 H1   HT     0.417000        1.0080           0
   76017 WT4  9241 TIP3 H2   HT     0.417000        1.0080           0
   76018 WT4  9243 TIP3 OH2  OT    -0.834000       15.9994           0
   76019 WT4  9243 TIP3 H1   HT     0.417000        1.0080           0
   76020 WT4  9243 TIP3 H2   HT     0.417000        1.0080           0
   76021 WT4  9246 TIP3 OH2  OT    -0.834000       15.9994           0
   76022 WT4  9246 TIP3 H1   HT     0.417000        1.0080           0
   76023 WT4  9246 TIP3 H2   HT     0.417000        1.0080           0
   76024 WT4  9250 TIP3 OH2  OT    -0.834000       15.9994           0
   76025 WT4  9250 TIP3 H1   HT     0.417000        1.0080           0
   76026 WT4  9250 TIP3 H2   HT     0.417000        1.0080           0
   76027 WT4  9252 TIP3 OH2  OT    -0.834000       15.9994           0
   76028 WT4  9252 TIP3 H1   HT     0.417000        1.0080           0
   76029 WT4  9252 TIP3 H2   HT     0.417000        1.0080           0
   76030 WT4  9255 TIP3 OH2  OT    -0.834000       15.9994           0
   76031 WT4  9255 TIP3 H1   HT     0.417000        1.0080           0
   76032 WT4  9255 TIP3 H2   HT     0.417000        1.0080           0
   76033 WT4  9261 TIP3 OH2  OT    -0.834000       15.9994           0
   76034 WT4  9261 TIP3 H1   HT     0.417000        1.0080           0
   76035 WT4  9261 TIP3 H2   HT     0.417000        1.0080           0
   76036 WT5  2    TIP3 OH2  OT    -0.834000       15.9994           0
   76037 WT5  2    TIP3 H1   HT     0.417000        1.0080           0
   76038 WT5  2    TIP3 H2   HT     0.417000        1.0080           0
   76039 WT5  3    TIP3 OH2  OT    -0.834000       15.9994           0
   76040 WT5  3    TIP3 H1   HT     0.417000        1.0080           0
   76041 WT5  3    TIP3 H2   HT     0.417000        1.0080           0
   76042 WT5  5    TIP3 OH2  OT    -0.834000       15.9994           0
   76043 WT5  5    TIP3 H1   HT     0.417000        1.0080           0
   76044 WT5  5    TIP3 H2   HT     0.417000        1.0080           0
   76045 WT5  7    TIP3 OH2  OT    -0.834000       15.9994           0
   76046 WT5  7    TIP3 H1   HT     0.417000        1.0080           0
   76047 WT5  7    TIP3 H2   HT     0.417000        1.0080           0
   76048 WT5  8    TIP3 OH2  OT    -0.834000       15.9994           0
   76049 WT5  8    TIP3 H1   HT     0.417000        1.0080           0
   76050 WT5  8    TIP3 H2   HT     0.417000        1.0080           0
   76051 WT5  14   TIP3 OH2  OT    -0.834000       15.9994           0
   76052 WT5  14   TIP3 H1   HT     0.417000        1.0080           0
   76053 WT5  14   TIP3 H2   HT     0.417000        1.0080           0
   76054 WT5  15   TIP3 OH2  OT    -0.834000       15.9994           0
   76055 WT5  15   TIP3 H1   HT     0.417000        1.0080           0
   76056 WT5  15   TIP3 H2   HT     0.417000        1.0080           0
   76057 WT5  17   TIP3 OH2  OT    -0.834000       15.9994           0
   76058 WT5  17   TIP3 H1   HT     0.417000        1.0080           0
   76059 WT5  17   TIP3 H2   HT     0.417000        1.0080           0
   76060 WT5  19   TIP3 OH2  OT    -0.834000       15.9994           0
   76061 WT5  19   TIP3 H1   HT     0.417000        1.0080           0
   76062 WT5  19   TIP3 H2   HT     0.417000        1.0080           0
   76063 WT5  21   TIP3 OH2  OT    -0.834000       15.9994           0
   76064 WT5  21   TIP3 H1   HT     0.417000        1.0080           0
   76065 WT5  21   TIP3 H2   HT     0.417000        1.0080           0
   76066 WT5  26   TIP3 OH2  OT    -0.834000       15.9994           0
   76067 WT5  26   TIP3 H1   HT     0.417000        1.0080           0
   76068 WT5  26   TIP3 H2   HT     0.417000        1.0080           0
   76069 WT5  29   TIP3 OH2  OT    -0.834000       15.9994           0
   76070 WT5  29   TIP3 H1   HT     0.417000        1.0080           0
   76071 WT5  29   TIP3 H2   HT     0.417000        1.0080           0
   76072 WT5  30   TIP3 OH2  OT    -0.834000       15.9994           0
   76073 WT5  30   TIP3 H1   HT     0.417000        1.0080           0
   76074 WT5  30   TIP3 H2   HT     0.417000        1.0080           0
   76075 WT5  40   TIP3 OH2  OT    -0.834000       15.9994           0
   76076 WT5  40   TIP3 H1   HT     0.417000        1.0080           0
   76077 WT5  40   TIP3 H2   HT     0.417000        1.0080           0
   76078 WT5  41   TIP3 OH2  OT    -0.834000       15.9994           0
   76079 WT5  41   TIP3 H1   HT     0.417000        1.0080           0
   76080 WT5  41   TIP3 H2   HT     0.417000        1.0080           0
   76081 WT5  42   TIP3 OH2  OT    -0.834000       15.9994           0
   76082 WT5  42   TIP3 H1   HT     0.417000        1.0080           0
   76083 WT5  42   TIP3 H2   HT     0.417000        1.0080           0
   76084 WT5  44   TIP3 OH2  OT    -0.834000       15.9994           0
   76085 WT5  44   TIP3 H1   HT     0.417000        1.0080           0
   76086 WT5  44   TIP3 H2   HT     0.417000        1.0080           0
   76087 WT5  46   TIP3 OH2  OT    -0.834000       15.9994           0
   76088 WT5  46   TIP3 H1   HT     0.417000        1.0080           0
   76089 WT5  46   TIP3 H2   HT     0.417000        1.0080           0
   76090 WT5  47   TIP3 OH2  OT    -0.834000       15.9994           0
   76091 WT5  47   TIP3 H1   HT     0.417000        1.0080           0
   76092 WT5  47   TIP3 H2   HT     0.417000        1.0080           0
   76093 WT5  48   TIP3 OH2  OT    -0.834000       15.9994           0
   76094 WT5  48   TIP3 H1   HT     0.417000        1.0080           0
   76095 WT5  48   TIP3 H2   HT     0.417000        1.0080           0
   76096 WT5  49   TIP3 OH2  OT    -0.834000       15.9994           0
   76097 WT5  49   TIP3 H1   HT     0.417000        1.0080           0
   76098 WT5  49   TIP3 H2   HT     0.417000        1.0080           0
   76099 WT5  52   TIP3 OH2  OT    -0.834000       15.9994           0
   76100 WT5  52   TIP3 H1   HT     0.417000        1.0080           0
   76101 WT5  52   TIP3 H2   HT     0.417000        1.0080           0
   76102 WT5  53   TIP3 OH2  OT    -0.834000       15.9994           0
   76103 WT5  53   TIP3 H1   HT     0.417000        1.0080           0
   76104 WT5  53   TIP3 H2   HT     0.417000        1.0080           0
   76105 WT5  55   TIP3 OH2  OT    -0.834000       15.9994           0
   76106 WT5  55   TIP3 H1   HT     0.417000        1.0080           0
   76107 WT5  55   TIP3 H2   HT     0.417000        1.0080           0
   76108 WT5  56   TIP3 OH2  OT    -0.834000       15.9994           0
   76109 WT5  56   TIP3 H1   HT     0.417000        1.0080           0
   76110 WT5  56   TIP3 H2   HT     0.417000        1.0080           0
   76111 WT5  61   TIP3 OH2  OT    -0.834000       15.9994           0
   76112 WT5  61   TIP3 H1   HT     0.417000        1.0080           0
   76113 WT5  61   TIP3 H2   HT     0.417000        1.0080           0
   76114 WT5  64   TIP3 OH2  OT    -0.834000       15.9994           0
   76115 WT5  64   TIP3 H1   HT     0.417000        1.0080           0
   76116 WT5  64   TIP3 H2   HT     0.417000        1.0080           0
   76117 WT5  65   TIP3 OH2  OT    -0.834000       15.9994           0
   76118 WT5  65   TIP3 H1   HT     0.417000        1.0080           0
   76119 WT5  65   TIP3 H2   HT     0.417000        1.0080           0
   76120 WT5  67   TIP3 OH2  OT    -0.834000       15.9994           0
   76121 WT5  67   TIP3 H1   HT     0.417000        1.0080           0
   76122 WT5  67   TIP3 H2   HT     0.417000        1.0080           0
   76123 WT5  68   TIP3 OH2  OT    -0.834000       15.9994           0
   76124 WT5  68   TIP3 H1   HT     0.417000        1.0080           0
   76125 WT5  68   TIP3 H2   HT     0.417000        1.0080           0
   76126 WT5  71   TIP3 OH2  OT    -0.834000       15.9994           0
   76127 WT5  71   TIP3 H1   HT     0.417000        1.0080           0
   76128 WT5  71   TIP3 H2   HT     0.417000        1.0080           0
   76129 WT5  75   TIP3 OH2  OT    -0.834000       15.9994           0
   76130 WT5  75   TIP3 H1   HT     0.417000        1.0080           0
   76131 WT5  75   TIP3 H2   HT     0.417000        1.0080           0
   76132 WT5  76   TIP3 OH2  OT    -0.834000       15.9994           0
   76133 WT5  76   TIP3 H1   HT     0.417000        1.0080           0
   76134 WT5  76   TIP3 H2   HT     0.417000        1.0080           0
   76135 WT5  77   TIP3 OH2  OT    -0.834000       15.9994           0
   76136 WT5  77   TIP3 H1   HT     0.417000        1.0080           0
   76137 WT5  77   TIP3 H2   HT     0.417000        1.0080           0
   76138 WT5  81   TIP3 OH2  OT    -0.834000       15.9994           0
   76139 WT5  81   TIP3 H1   HT     0.417000        1.0080           0
   76140 WT5  81   TIP3 H2   HT     0.417000        1.0080           0
   76141 WT5  85   TIP3 OH2  OT    -0.834000       15.9994           0
   76142 WT5  85   TIP3 H1   HT     0.417000        1.0080           0
   76143 WT5  85   TIP3 H2   HT     0.417000        1.0080           0
   76144 WT5  86   TIP3 OH2  OT    -0.834000       15.9994           0
   76145 WT5  86   TIP3 H1   HT     0.417000        1.0080           0
   76146 WT5  86   TIP3 H2   HT     0.417000        1.0080           0
   76147 WT5  87   TIP3 OH2  OT    -0.834000       15.9994           0
   76148 WT5  87   TIP3 H1   HT     0.417000        1.0080           0
   76149 WT5  87   TIP3 H2   HT     0.417000        1.0080           0
   76150 WT5  88   TIP3 OH2  OT    -0.834000       15.9994           0
   76151 WT5  88   TIP3 H1   HT     0.417000        1.0080           0
   76152 WT5  88   TIP3 H2   HT     0.417000        1.0080           0
   76153 WT5  89   TIP3 OH2  OT    -0.834000       15.9994           0
   76154 WT5  89   TIP3 H1   HT     0.417000        1.0080           0
   76155 WT5  89   TIP3 H2   HT     0.417000        1.0080           0
   76156 WT5  90   TIP3 OH2  OT    -0.834000       15.9994           0
   76157 WT5  90   TIP3 H1   HT     0.417000        1.0080           0
   76158 WT5  90   TIP3 H2   HT     0.417000        1.0080           0
   76159 WT5  94   TIP3 OH2  OT    -0.834000       15.9994           0
   76160 WT5  94   TIP3 H1   HT     0.417000        1.0080           0
   76161 WT5  94   TIP3 H2   HT     0.417000        1.0080           0
   76162 WT5  95   TIP3 OH2  OT    -0.834000       15.9994           0
   76163 WT5  95   TIP3 H1   HT     0.417000        1.0080           0
   76164 WT5  95   TIP3 H2   HT     0.417000        1.0080           0
   76165 WT5  96   TIP3 OH2  OT    -0.834000       15.9994           0
   76166 WT5  96   TIP3 H1   HT     0.417000        1.0080           0
   76167 WT5  96   TIP3 H2   HT     0.417000        1.0080           0
   76168 WT5  97   TIP3 OH2  OT    -0.834000       15.9994           0
   76169 WT5  97   TIP3 H1   HT     0.417000        1.0080           0
   76170 WT5  97   TIP3 H2   HT     0.417000        1.0080           0
   76171 WT5  98   TIP3 OH2  OT    -0.834000       15.9994           0
   76172 WT5  98   TIP3 H1   HT     0.417000        1.0080           0
   76173 WT5  98   TIP3 H2   HT     0.417000        1.0080           0
   76174 WT5  99   TIP3 OH2  OT    -0.834000       15.9994           0
   76175 WT5  99   TIP3 H1   HT     0.417000        1.0080           0
   76176 WT5  99   TIP3 H2   HT     0.417000        1.0080           0
   76177 WT5  105  TIP3 OH2  OT    -0.834000       15.9994           0
   76178 WT5  105  TIP3 H1   HT     0.417000        1.0080           0
   76179 WT5  105  TIP3 H2   HT     0.417000        1.0080           0
   76180 WT5  108  TIP3 OH2  OT    -0.834000       15.9994           0
   76181 WT5  108  TIP3 H1   HT     0.417000        1.0080           0
   76182 WT5  108  TIP3 H2   HT     0.417000        1.0080           0
   76183 WT5  111  TIP3 OH2  OT    -0.834000       15.9994           0
   76184 WT5  111  TIP3 H1   HT     0.417000        1.0080           0
   76185 WT5  111  TIP3 H2   HT     0.417000        1.0080           0
   76186 WT5  112  TIP3 OH2  OT    -0.834000       15.9994           0
   76187 WT5  112  TIP3 H1   HT     0.417000        1.0080           0
   76188 WT5  112  TIP3 H2   HT     0.417000        1.0080           0
   76189 WT5  113  TIP3 OH2  OT    -0.834000       15.9994           0
   76190 WT5  113  TIP3 H1   HT     0.417000        1.0080           0
   76191 WT5  113  TIP3 H2   HT     0.417000        1.0080           0
   76192 WT5  115  TIP3 OH2  OT    -0.834000       15.9994           0
   76193 WT5  115  TIP3 H1   HT     0.417000        1.0080           0
   76194 WT5  115  TIP3 H2   HT     0.417000        1.0080           0
   76195 WT5  116  TIP3 OH2  OT    -0.834000       15.9994           0
   76196 WT5  116  TIP3 H1   HT     0.417000        1.0080           0
   76197 WT5  116  TIP3 H2   HT     0.417000        1.0080           0
   76198 WT5  122  TIP3 OH2  OT    -0.834000       15.9994           0
   76199 WT5  122  TIP3 H1   HT     0.417000        1.0080           0
   76200 WT5  122  TIP3 H2   HT     0.417000        1.0080           0
   76201 WT5  123  TIP3 OH2  OT    -0.834000       15.9994           0
   76202 WT5  123  TIP3 H1   HT     0.417000        1.0080           0
   76203 WT5  123  TIP3 H2   HT     0.417000        1.0080           0
   76204 WT5  124  TIP3 OH2  OT    -0.834000       15.9994           0
   76205 WT5  124  TIP3 H1   HT     0.417000        1.0080           0
   76206 WT5  124  TIP3 H2   HT     0.417000        1.0080           0
   76207 WT5  125  TIP3 OH2  OT    -0.834000       15.9994           0
   76208 WT5  125  TIP3 H1   HT     0.417000        1.0080           0
   76209 WT5  125  TIP3 H2   HT     0.417000        1.0080           0
   76210 WT5  126  TIP3 OH2  OT    -0.834000       15.9994           0
   76211 WT5  126  TIP3 H1   HT     0.417000        1.0080           0
   76212 WT5  126  TIP3 H2   HT     0.417000        1.0080           0
   76213 WT5  127  TIP3 OH2  OT    -0.834000       15.9994           0
   76214 WT5  127  TIP3 H1   HT     0.417000        1.0080           0
   76215 WT5  127  TIP3 H2   HT     0.417000        1.0080           0
   76216 WT5  128  TIP3 OH2  OT    -0.834000       15.9994           0
   76217 WT5  128  TIP3 H1   HT     0.417000        1.0080           0
   76218 WT5  128  TIP3 H2   HT     0.417000        1.0080           0
   76219 WT5  129  TIP3 OH2  OT    -0.834000       15.9994           0
   76220 WT5  129  TIP3 H1   HT     0.417000        1.0080           0
   76221 WT5  129  TIP3 H2   HT     0.417000        1.0080           0
   76222 WT5  130  TIP3 OH2  OT    -0.834000       15.9994           0
   76223 WT5  130  TIP3 H1   HT     0.417000        1.0080           0
   76224 WT5  130  TIP3 H2   HT     0.417000        1.0080           0
   76225 WT5  131  TIP3 OH2  OT    -0.834000       15.9994           0
   76226 WT5  131  TIP3 H1   HT     0.417000        1.0080           0
   76227 WT5  131  TIP3 H2   HT     0.417000        1.0080           0
   76228 WT5  133  TIP3 OH2  OT    -0.834000       15.9994           0
   76229 WT5  133  TIP3 H1   HT     0.417000        1.0080           0
   76230 WT5  133  TIP3 H2   HT     0.417000        1.0080           0
   76231 WT5  134  TIP3 OH2  OT    -0.834000       15.9994           0
   76232 WT5  134  TIP3 H1   HT     0.417000        1.0080           0
   76233 WT5  134  TIP3 H2   HT     0.417000        1.0080           0
   76234 WT5  135  TIP3 OH2  OT    -0.834000       15.9994           0
   76235 WT5  135  TIP3 H1   HT     0.417000        1.0080           0
   76236 WT5  135  TIP3 H2   HT     0.417000        1.0080           0
   76237 WT5  137  TIP3 OH2  OT    -0.834000       15.9994           0
   76238 WT5  137  TIP3 H1   HT     0.417000        1.0080           0
   76239 WT5  137  TIP3 H2   HT     0.417000        1.0080           0
   76240 WT5  141  TIP3 OH2  OT    -0.834000       15.9994           0
   76241 WT5  141  TIP3 H1   HT     0.417000        1.0080           0
   76242 WT5  141  TIP3 H2   HT     0.417000        1.0080           0
   76243 WT5  145  TIP3 OH2  OT    -0.834000       15.9994           0
   76244 WT5  145  TIP3 H1   HT     0.417000        1.0080           0
   76245 WT5  145  TIP3 H2   HT     0.417000        1.0080           0
   76246 WT5  146  TIP3 OH2  OT    -0.834000       15.9994           0
   76247 WT5  146  TIP3 H1   HT     0.417000        1.0080           0
   76248 WT5  146  TIP3 H2   HT     0.417000        1.0080           0
   76249 WT5  147  TIP3 OH2  OT    -0.834000       15.9994           0
   76250 WT5  147  TIP3 H1   HT     0.417000        1.0080           0
   76251 WT5  147  TIP3 H2   HT     0.417000        1.0080           0
   76252 WT5  149  TIP3 OH2  OT    -0.834000       15.9994           0
   76253 WT5  149  TIP3 H1   HT     0.417000        1.0080           0
   76254 WT5  149  TIP3 H2   HT     0.417000        1.0080           0
   76255 WT5  150  TIP3 OH2  OT    -0.834000       15.9994           0
   76256 WT5  150  TIP3 H1   HT     0.417000        1.0080           0
   76257 WT5  150  TIP3 H2   HT     0.417000        1.0080           0
   76258 WT5  152  TIP3 OH2  OT    -0.834000       15.9994           0
   76259 WT5  152  TIP3 H1   HT     0.417000        1.0080           0
   76260 WT5  152  TIP3 H2   HT     0.417000        1.0080           0
   76261 WT5  153  TIP3 OH2  OT    -0.834000       15.9994           0
   76262 WT5  153  TIP3 H1   HT     0.417000        1.0080           0
   76263 WT5  153  TIP3 H2   HT     0.417000        1.0080           0
   76264 WT5  155  TIP3 OH2  OT    -0.834000       15.9994           0
   76265 WT5  155  TIP3 H1   HT     0.417000        1.0080           0
   76266 WT5  155  TIP3 H2   HT     0.417000        1.0080           0
   76267 WT5  156  TIP3 OH2  OT    -0.834000       15.9994           0
   76268 WT5  156  TIP3 H1   HT     0.417000        1.0080           0
   76269 WT5  156  TIP3 H2   HT     0.417000        1.0080           0
   76270 WT5  162  TIP3 OH2  OT    -0.834000       15.9994           0
   76271 WT5  162  TIP3 H1   HT     0.417000        1.0080           0
   76272 WT5  162  TIP3 H2   HT     0.417000        1.0080           0
   76273 WT5  163  TIP3 OH2  OT    -0.834000       15.9994           0
   76274 WT5  163  TIP3 H1   HT     0.417000        1.0080           0
   76275 WT5  163  TIP3 H2   HT     0.417000        1.0080           0
   76276 WT5  167  TIP3 OH2  OT    -0.834000       15.9994           0
   76277 WT5  167  TIP3 H1   HT     0.417000        1.0080           0
   76278 WT5  167  TIP3 H2   HT     0.417000        1.0080           0
   76279 WT5  168  TIP3 OH2  OT    -0.834000       15.9994           0
   76280 WT5  168  TIP3 H1   HT     0.417000        1.0080           0
   76281 WT5  168  TIP3 H2   HT     0.417000        1.0080           0
   76282 WT5  169  TIP3 OH2  OT    -0.834000       15.9994           0
   76283 WT5  169  TIP3 H1   HT     0.417000        1.0080           0
   76284 WT5  169  TIP3 H2   HT     0.417000        1.0080           0
   76285 WT5  172  TIP3 OH2  OT    -0.834000       15.9994           0
   76286 WT5  172  TIP3 H1   HT     0.417000        1.0080           0
   76287 WT5  172  TIP3 H2   HT     0.417000        1.0080           0
   76288 WT5  174  TIP3 OH2  OT    -0.834000       15.9994           0
   76289 WT5  174  TIP3 H1   HT     0.417000        1.0080           0
   76290 WT5  174  TIP3 H2   HT     0.417000        1.0080           0
   76291 WT5  175  TIP3 OH2  OT    -0.834000       15.9994           0
   76292 WT5  175  TIP3 H1   HT     0.417000        1.0080           0
   76293 WT5  175  TIP3 H2   HT     0.417000        1.0080           0
   76294 WT5  177  TIP3 OH2  OT    -0.834000       15.9994           0
   76295 WT5  177  TIP3 H1   HT     0.417000        1.0080           0
   76296 WT5  177  TIP3 H2   HT     0.417000        1.0080           0
   76297 WT5  178  TIP3 OH2  OT    -0.834000       15.9994           0
   76298 WT5  178  TIP3 H1   HT     0.417000        1.0080           0
   76299 WT5  178  TIP3 H2   HT     0.417000        1.0080           0
   76300 WT5  179  TIP3 OH2  OT    -0.834000       15.9994           0
   76301 WT5  179  TIP3 H1   HT     0.417000        1.0080           0
   76302 WT5  179  TIP3 H2   HT     0.417000        1.0080           0
   76303 WT5  180  TIP3 OH2  OT    -0.834000       15.9994           0
   76304 WT5  180  TIP3 H1   HT     0.417000        1.0080           0
   76305 WT5  180  TIP3 H2   HT     0.417000        1.0080           0
   76306 WT5  190  TIP3 OH2  OT    -0.834000       15.9994           0
   76307 WT5  190  TIP3 H1   HT     0.417000        1.0080           0
   76308 WT5  190  TIP3 H2   HT     0.417000        1.0080           0
   76309 WT5  191  TIP3 OH2  OT    -0.834000       15.9994           0
   76310 WT5  191  TIP3 H1   HT     0.417000        1.0080           0
   76311 WT5  191  TIP3 H2   HT     0.417000        1.0080           0
   76312 WT5  194  TIP3 OH2  OT    -0.834000       15.9994           0
   76313 WT5  194  TIP3 H1   HT     0.417000        1.0080           0
   76314 WT5  194  TIP3 H2   HT     0.417000        1.0080           0
   76315 WT5  195  TIP3 OH2  OT    -0.834000       15.9994           0
   76316 WT5  195  TIP3 H1   HT     0.417000        1.0080           0
   76317 WT5  195  TIP3 H2   HT     0.417000        1.0080           0
   76318 WT5  196  TIP3 OH2  OT    -0.834000       15.9994           0
   76319 WT5  196  TIP3 H1   HT     0.417000        1.0080           0
   76320 WT5  196  TIP3 H2   HT     0.417000        1.0080           0
   76321 WT5  197  TIP3 OH2  OT    -0.834000       15.9994           0
   76322 WT5  197  TIP3 H1   HT     0.417000        1.0080           0
   76323 WT5  197  TIP3 H2   HT     0.417000        1.0080           0
   76324 WT5  198  TIP3 OH2  OT    -0.834000       15.9994           0
   76325 WT5  198  TIP3 H1   HT     0.417000        1.0080           0
   76326 WT5  198  TIP3 H2   HT     0.417000        1.0080           0
   76327 WT5  200  TIP3 OH2  OT    -0.834000       15.9994           0
   76328 WT5  200  TIP3 H1   HT     0.417000        1.0080           0
   76329 WT5  200  TIP3 H2   HT     0.417000        1.0080           0
   76330 WT5  201  TIP3 OH2  OT    -0.834000       15.9994           0
   76331 WT5  201  TIP3 H1   HT     0.417000        1.0080           0
   76332 WT5  201  TIP3 H2   HT     0.417000        1.0080           0
   76333 WT5  202  TIP3 OH2  OT    -0.834000       15.9994           0
   76334 WT5  202  TIP3 H1   HT     0.417000        1.0080           0
   76335 WT5  202  TIP3 H2   HT     0.417000        1.0080           0
   76336 WT5  205  TIP3 OH2  OT    -0.834000       15.9994           0
   76337 WT5  205  TIP3 H1   HT     0.417000        1.0080           0
   76338 WT5  205  TIP3 H2   HT     0.417000        1.0080           0
   76339 WT5  206  TIP3 OH2  OT    -0.834000       15.9994           0
   76340 WT5  206  TIP3 H1   HT     0.417000        1.0080           0
   76341 WT5  206  TIP3 H2   HT     0.417000        1.0080           0
   76342 WT5  210  TIP3 OH2  OT    -0.834000       15.9994           0
   76343 WT5  210  TIP3 H1   HT     0.417000        1.0080           0
   76344 WT5  210  TIP3 H2   HT     0.417000        1.0080           0
   76345 WT5  212  TIP3 OH2  OT    -0.834000       15.9994           0
   76346 WT5  212  TIP3 H1   HT     0.417000        1.0080           0
   76347 WT5  212  TIP3 H2   HT     0.417000        1.0080           0
   76348 WT5  213  TIP3 OH2  OT    -0.834000       15.9994           0
   76349 WT5  213  TIP3 H1   HT     0.417000        1.0080           0
   76350 WT5  213  TIP3 H2   HT     0.417000        1.0080           0
   76351 WT5  218  TIP3 OH2  OT    -0.834000       15.9994           0
   76352 WT5  218  TIP3 H1   HT     0.417000        1.0080           0
   76353 WT5  218  TIP3 H2   HT     0.417000        1.0080           0
   76354 WT5  222  TIP3 OH2  OT    -0.834000       15.9994           0
   76355 WT5  222  TIP3 H1   HT     0.417000        1.0080           0
   76356 WT5  222  TIP3 H2   HT     0.417000        1.0080           0
   76357 WT5  224  TIP3 OH2  OT    -0.834000       15.9994           0
   76358 WT5  224  TIP3 H1   HT     0.417000        1.0080           0
   76359 WT5  224  TIP3 H2   HT     0.417000        1.0080           0
   76360 WT5  225  TIP3 OH2  OT    -0.834000       15.9994           0
   76361 WT5  225  TIP3 H1   HT     0.417000        1.0080           0
   76362 WT5  225  TIP3 H2   HT     0.417000        1.0080           0
   76363 WT5  227  TIP3 OH2  OT    -0.834000       15.9994           0
   76364 WT5  227  TIP3 H1   HT     0.417000        1.0080           0
   76365 WT5  227  TIP3 H2   HT     0.417000        1.0080           0
   76366 WT5  231  TIP3 OH2  OT    -0.834000       15.9994           0
   76367 WT5  231  TIP3 H1   HT     0.417000        1.0080           0
   76368 WT5  231  TIP3 H2   HT     0.417000        1.0080           0
   76369 WT5  232  TIP3 OH2  OT    -0.834000       15.9994           0
   76370 WT5  232  TIP3 H1   HT     0.417000        1.0080           0
   76371 WT5  232  TIP3 H2   HT     0.417000        1.0080           0
   76372 WT5  234  TIP3 OH2  OT    -0.834000       15.9994           0
   76373 WT5  234  TIP3 H1   HT     0.417000        1.0080           0
   76374 WT5  234  TIP3 H2   HT     0.417000        1.0080           0
   76375 WT5  237  TIP3 OH2  OT    -0.834000       15.9994           0
   76376 WT5  237  TIP3 H1   HT     0.417000        1.0080           0
   76377 WT5  237  TIP3 H2   HT     0.417000        1.0080           0
   76378 WT5  238  TIP3 OH2  OT    -0.834000       15.9994           0
   76379 WT5  238  TIP3 H1   HT     0.417000        1.0080           0
   76380 WT5  238  TIP3 H2   HT     0.417000        1.0080           0
   76381 WT5  239  TIP3 OH2  OT    -0.834000       15.9994           0
   76382 WT5  239  TIP3 H1   HT     0.417000        1.0080           0
   76383 WT5  239  TIP3 H2   HT     0.417000        1.0080           0
   76384 WT5  242  TIP3 OH2  OT    -0.834000       15.9994           0
   76385 WT5  242  TIP3 H1   HT     0.417000        1.0080           0
   76386 WT5  242  TIP3 H2   HT     0.417000        1.0080           0
   76387 WT5  251  TIP3 OH2  OT    -0.834000       15.9994           0
   76388 WT5  251  TIP3 H1   HT     0.417000        1.0080           0
   76389 WT5  251  TIP3 H2   HT     0.417000        1.0080           0
   76390 WT5  252  TIP3 OH2  OT    -0.834000       15.9994           0
   76391 WT5  252  TIP3 H1   HT     0.417000        1.0080           0
   76392 WT5  252  TIP3 H2   HT     0.417000        1.0080           0
   76393 WT5  253  TIP3 OH2  OT    -0.834000       15.9994           0
   76394 WT5  253  TIP3 H1   HT     0.417000        1.0080           0
   76395 WT5  253  TIP3 H2   HT     0.417000        1.0080           0
   76396 WT5  254  TIP3 OH2  OT    -0.834000       15.9994           0
   76397 WT5  254  TIP3 H1   HT     0.417000        1.0080           0
   76398 WT5  254  TIP3 H2   HT     0.417000        1.0080           0
   76399 WT5  255  TIP3 OH2  OT    -0.834000       15.9994           0
   76400 WT5  255  TIP3 H1   HT     0.417000        1.0080           0
   76401 WT5  255  TIP3 H2   HT     0.417000        1.0080           0
   76402 WT5  257  TIP3 OH2  OT    -0.834000       15.9994           0
   76403 WT5  257  TIP3 H1   HT     0.417000        1.0080           0
   76404 WT5  257  TIP3 H2   HT     0.417000        1.0080           0
   76405 WT5  258  TIP3 OH2  OT    -0.834000       15.9994           0
   76406 WT5  258  TIP3 H1   HT     0.417000        1.0080           0
   76407 WT5  258  TIP3 H2   HT     0.417000        1.0080           0
   76408 WT5  259  TIP3 OH2  OT    -0.834000       15.9994           0
   76409 WT5  259  TIP3 H1   HT     0.417000        1.0080           0
   76410 WT5  259  TIP3 H2   HT     0.417000        1.0080           0
   76411 WT5  261  TIP3 OH2  OT    -0.834000       15.9994           0
   76412 WT5  261  TIP3 H1   HT     0.417000        1.0080           0
   76413 WT5  261  TIP3 H2   HT     0.417000        1.0080           0
   76414 WT5  262  TIP3 OH2  OT    -0.834000       15.9994           0
   76415 WT5  262  TIP3 H1   HT     0.417000        1.0080           0
   76416 WT5  262  TIP3 H2   HT     0.417000        1.0080           0
   76417 WT5  267  TIP3 OH2  OT    -0.834000       15.9994           0
   76418 WT5  267  TIP3 H1   HT     0.417000        1.0080           0
   76419 WT5  267  TIP3 H2   HT     0.417000        1.0080           0
   76420 WT5  269  TIP3 OH2  OT    -0.834000       15.9994           0
   76421 WT5  269  TIP3 H1   HT     0.417000        1.0080           0
   76422 WT5  269  TIP3 H2   HT     0.417000        1.0080           0
   76423 WT5  281  TIP3 OH2  OT    -0.834000       15.9994           0
   76424 WT5  281  TIP3 H1   HT     0.417000        1.0080           0
   76425 WT5  281  TIP3 H2   HT     0.417000        1.0080           0
   76426 WT5  283  TIP3 OH2  OT    -0.834000       15.9994           0
   76427 WT5  283  TIP3 H1   HT     0.417000        1.0080           0
   76428 WT5  283  TIP3 H2   HT     0.417000        1.0080           0
   76429 WT5  284  TIP3 OH2  OT    -0.834000       15.9994           0
   76430 WT5  284  TIP3 H1   HT     0.417000        1.0080           0
   76431 WT5  284  TIP3 H2   HT     0.417000        1.0080           0
   76432 WT5  285  TIP3 OH2  OT    -0.834000       15.9994           0
   76433 WT5  285  TIP3 H1   HT     0.417000        1.0080           0
   76434 WT5  285  TIP3 H2   HT     0.417000        1.0080           0
   76435 WT5  295  TIP3 OH2  OT    -0.834000       15.9994           0
   76436 WT5  295  TIP3 H1   HT     0.417000        1.0080           0
   76437 WT5  295  TIP3 H2   HT     0.417000        1.0080           0
   76438 WT5  302  TIP3 OH2  OT    -0.834000       15.9994           0
   76439 WT5  302  TIP3 H1   HT     0.417000        1.0080           0
   76440 WT5  302  TIP3 H2   HT     0.417000        1.0080           0
   76441 WT5  303  TIP3 OH2  OT    -0.834000       15.9994           0
   76442 WT5  303  TIP3 H1   HT     0.417000        1.0080           0
   76443 WT5  303  TIP3 H2   HT     0.417000        1.0080           0
   76444 WT5  305  TIP3 OH2  OT    -0.834000       15.9994           0
   76445 WT5  305  TIP3 H1   HT     0.417000        1.0080           0
   76446 WT5  305  TIP3 H2   HT     0.417000        1.0080           0
   76447 WT5  306  TIP3 OH2  OT    -0.834000       15.9994           0
   76448 WT5  306  TIP3 H1   HT     0.417000        1.0080           0
   76449 WT5  306  TIP3 H2   HT     0.417000        1.0080           0
   76450 WT5  307  TIP3 OH2  OT    -0.834000       15.9994           0
   76451 WT5  307  TIP3 H1   HT     0.417000        1.0080           0
   76452 WT5  307  TIP3 H2   HT     0.417000        1.0080           0
   76453 WT5  309  TIP3 OH2  OT    -0.834000       15.9994           0
   76454 WT5  309  TIP3 H1   HT     0.417000        1.0080           0
   76455 WT5  309  TIP3 H2   HT     0.417000        1.0080           0
   76456 WT5  310  TIP3 OH2  OT    -0.834000       15.9994           0
   76457 WT5  310  TIP3 H1   HT     0.417000        1.0080           0
   76458 WT5  310  TIP3 H2   HT     0.417000        1.0080           0
   76459 WT5  311  TIP3 OH2  OT    -0.834000       15.9994           0
   76460 WT5  311  TIP3 H1   HT     0.417000        1.0080           0
   76461 WT5  311  TIP3 H2   HT     0.417000        1.0080           0
   76462 WT5  313  TIP3 OH2  OT    -0.834000       15.9994           0
   76463 WT5  313  TIP3 H1   HT     0.417000        1.0080           0
   76464 WT5  313  TIP3 H2   HT     0.417000        1.0080           0
   76465 WT5  314  TIP3 OH2  OT    -0.834000       15.9994           0
   76466 WT5  314  TIP3 H1   HT     0.417000        1.0080           0
   76467 WT5  314  TIP3 H2   HT     0.417000        1.0080           0
   76468 WT5  316  TIP3 OH2  OT    -0.834000       15.9994           0
   76469 WT5  316  TIP3 H1   HT     0.417000        1.0080           0
   76470 WT5  316  TIP3 H2   HT     0.417000        1.0080           0
   76471 WT5  317  TIP3 OH2  OT    -0.834000       15.9994           0
   76472 WT5  317  TIP3 H1   HT     0.417000        1.0080           0
   76473 WT5  317  TIP3 H2   HT     0.417000        1.0080           0
   76474 WT5  322  TIP3 OH2  OT    -0.834000       15.9994           0
   76475 WT5  322  TIP3 H1   HT     0.417000        1.0080           0
   76476 WT5  322  TIP3 H2   HT     0.417000        1.0080           0
   76477 WT5  323  TIP3 OH2  OT    -0.834000       15.9994           0
   76478 WT5  323  TIP3 H1   HT     0.417000        1.0080           0
   76479 WT5  323  TIP3 H2   HT     0.417000        1.0080           0
   76480 WT5  325  TIP3 OH2  OT    -0.834000       15.9994           0
   76481 WT5  325  TIP3 H1   HT     0.417000        1.0080           0
   76482 WT5  325  TIP3 H2   HT     0.417000        1.0080           0
   76483 WT5  326  TIP3 OH2  OT    -0.834000       15.9994           0
   76484 WT5  326  TIP3 H1   HT     0.417000        1.0080           0
   76485 WT5  326  TIP3 H2   HT     0.417000        1.0080           0
   76486 WT5  327  TIP3 OH2  OT    -0.834000       15.9994           0
   76487 WT5  327  TIP3 H1   HT     0.417000        1.0080           0
   76488 WT5  327  TIP3 H2   HT     0.417000        1.0080           0
   76489 WT5  328  TIP3 OH2  OT    -0.834000       15.9994           0
   76490 WT5  328  TIP3 H1   HT     0.417000        1.0080           0
   76491 WT5  328  TIP3 H2   HT     0.417000        1.0080           0
   76492 WT5  329  TIP3 OH2  OT    -0.834000       15.9994           0
   76493 WT5  329  TIP3 H1   HT     0.417000        1.0080           0
   76494 WT5  329  TIP3 H2   HT     0.417000        1.0080           0
   76495 WT5  332  TIP3 OH2  OT    -0.834000       15.9994           0
   76496 WT5  332  TIP3 H1   HT     0.417000        1.0080           0
   76497 WT5  332  TIP3 H2   HT     0.417000        1.0080           0
   76498 WT5  335  TIP3 OH2  OT    -0.834000       15.9994           0
   76499 WT5  335  TIP3 H1   HT     0.417000        1.0080           0
   76500 WT5  335  TIP3 H2   HT     0.417000        1.0080           0
   76501 WT5  336  TIP3 OH2  OT    -0.834000       15.9994           0
   76502 WT5  336  TIP3 H1   HT     0.417000        1.0080           0
   76503 WT5  336  TIP3 H2   HT     0.417000        1.0080           0
   76504 WT5  338  TIP3 OH2  OT    -0.834000       15.9994           0
   76505 WT5  338  TIP3 H1   HT     0.417000        1.0080           0
   76506 WT5  338  TIP3 H2   HT     0.417000        1.0080           0
   76507 WT5  344  TIP3 OH2  OT    -0.834000       15.9994           0
   76508 WT5  344  TIP3 H1   HT     0.417000        1.0080           0
   76509 WT5  344  TIP3 H2   HT     0.417000        1.0080           0
   76510 WT5  346  TIP3 OH2  OT    -0.834000       15.9994           0
   76511 WT5  346  TIP3 H1   HT     0.417000        1.0080           0
   76512 WT5  346  TIP3 H2   HT     0.417000        1.0080           0
   76513 WT5  347  TIP3 OH2  OT    -0.834000       15.9994           0
   76514 WT5  347  TIP3 H1   HT     0.417000        1.0080           0
   76515 WT5  347  TIP3 H2   HT     0.417000        1.0080           0
   76516 WT5  348  TIP3 OH2  OT    -0.834000       15.9994           0
   76517 WT5  348  TIP3 H1   HT     0.417000        1.0080           0
   76518 WT5  348  TIP3 H2   HT     0.417000        1.0080           0
   76519 WT5  349  TIP3 OH2  OT    -0.834000       15.9994           0
   76520 WT5  349  TIP3 H1   HT     0.417000        1.0080           0
   76521 WT5  349  TIP3 H2   HT     0.417000        1.0080           0
   76522 WT5  356  TIP3 OH2  OT    -0.834000       15.9994           0
   76523 WT5  356  TIP3 H1   HT     0.417000        1.0080           0
   76524 WT5  356  TIP3 H2   HT     0.417000        1.0080           0
   76525 WT5  359  TIP3 OH2  OT    -0.834000       15.9994           0
   76526 WT5  359  TIP3 H1   HT     0.417000        1.0080           0
   76527 WT5  359  TIP3 H2   HT     0.417000        1.0080           0
   76528 WT5  361  TIP3 OH2  OT    -0.834000       15.9994           0
   76529 WT5  361  TIP3 H1   HT     0.417000        1.0080           0
   76530 WT5  361  TIP3 H2   HT     0.417000        1.0080           0
   76531 WT5  362  TIP3 OH2  OT    -0.834000       15.9994           0
   76532 WT5  362  TIP3 H1   HT     0.417000        1.0080           0
   76533 WT5  362  TIP3 H2   HT     0.417000        1.0080           0
   76534 WT5  364  TIP3 OH2  OT    -0.834000       15.9994           0
   76535 WT5  364  TIP3 H1   HT     0.417000        1.0080           0
   76536 WT5  364  TIP3 H2   HT     0.417000        1.0080           0
   76537 WT5  365  TIP3 OH2  OT    -0.834000       15.9994           0
   76538 WT5  365  TIP3 H1   HT     0.417000        1.0080           0
   76539 WT5  365  TIP3 H2   HT     0.417000        1.0080           0
   76540 WT5  366  TIP3 OH2  OT    -0.834000       15.9994           0
   76541 WT5  366  TIP3 H1   HT     0.417000        1.0080           0
   76542 WT5  366  TIP3 H2   HT     0.417000        1.0080           0
   76543 WT5  367  TIP3 OH2  OT    -0.834000       15.9994           0
   76544 WT5  367  TIP3 H1   HT     0.417000        1.0080           0
   76545 WT5  367  TIP3 H2   HT     0.417000        1.0080           0
   76546 WT5  368  TIP3 OH2  OT    -0.834000       15.9994           0
   76547 WT5  368  TIP3 H1   HT     0.417000        1.0080           0
   76548 WT5  368  TIP3 H2   HT     0.417000        1.0080           0
   76549 WT5  369  TIP3 OH2  OT    -0.834000       15.9994           0
   76550 WT5  369  TIP3 H1   HT     0.417000        1.0080           0
   76551 WT5  369  TIP3 H2   HT     0.417000        1.0080           0
   76552 WT5  371  TIP3 OH2  OT    -0.834000       15.9994           0
   76553 WT5  371  TIP3 H1   HT     0.417000        1.0080           0
   76554 WT5  371  TIP3 H2   HT     0.417000        1.0080           0
   76555 WT5  372  TIP3 OH2  OT    -0.834000       15.9994           0
   76556 WT5  372  TIP3 H1   HT     0.417000        1.0080           0
   76557 WT5  372  TIP3 H2   HT     0.417000        1.0080           0
   76558 WT5  378  TIP3 OH2  OT    -0.834000       15.9994           0
   76559 WT5  378  TIP3 H1   HT     0.417000        1.0080           0
   76560 WT5  378  TIP3 H2   HT     0.417000        1.0080           0
   76561 WT5  379  TIP3 OH2  OT    -0.834000       15.9994           0
   76562 WT5  379  TIP3 H1   HT     0.417000        1.0080           0
   76563 WT5  379  TIP3 H2   HT     0.417000        1.0080           0
   76564 WT5  380  TIP3 OH2  OT    -0.834000       15.9994           0
   76565 WT5  380  TIP3 H1   HT     0.417000        1.0080           0
   76566 WT5  380  TIP3 H2   HT     0.417000        1.0080           0
   76567 WT5  384  TIP3 OH2  OT    -0.834000       15.9994           0
   76568 WT5  384  TIP3 H1   HT     0.417000        1.0080           0
   76569 WT5  384  TIP3 H2   HT     0.417000        1.0080           0
   76570 WT5  387  TIP3 OH2  OT    -0.834000       15.9994           0
   76571 WT5  387  TIP3 H1   HT     0.417000        1.0080           0
   76572 WT5  387  TIP3 H2   HT     0.417000        1.0080           0
   76573 WT5  388  TIP3 OH2  OT    -0.834000       15.9994           0
   76574 WT5  388  TIP3 H1   HT     0.417000        1.0080           0
   76575 WT5  388  TIP3 H2   HT     0.417000        1.0080           0
   76576 WT5  389  TIP3 OH2  OT    -0.834000       15.9994           0
   76577 WT5  389  TIP3 H1   HT     0.417000        1.0080           0
   76578 WT5  389  TIP3 H2   HT     0.417000        1.0080           0
   76579 WT5  390  TIP3 OH2  OT    -0.834000       15.9994           0
   76580 WT5  390  TIP3 H1   HT     0.417000        1.0080           0
   76581 WT5  390  TIP3 H2   HT     0.417000        1.0080           0
   76582 WT5  391  TIP3 OH2  OT    -0.834000       15.9994           0
   76583 WT5  391  TIP3 H1   HT     0.417000        1.0080           0
   76584 WT5  391  TIP3 H2   HT     0.417000        1.0080           0
   76585 WT5  392  TIP3 OH2  OT    -0.834000       15.9994           0
   76586 WT5  392  TIP3 H1   HT     0.417000        1.0080           0
   76587 WT5  392  TIP3 H2   HT     0.417000        1.0080           0
   76588 WT5  393  TIP3 OH2  OT    -0.834000       15.9994           0
   76589 WT5  393  TIP3 H1   HT     0.417000        1.0080           0
   76590 WT5  393  TIP3 H2   HT     0.417000        1.0080           0
   76591 WT5  397  TIP3 OH2  OT    -0.834000       15.9994           0
   76592 WT5  397  TIP3 H1   HT     0.417000        1.0080           0
   76593 WT5  397  TIP3 H2   HT     0.417000        1.0080           0
   76594 WT5  399  TIP3 OH2  OT    -0.834000       15.9994           0
   76595 WT5  399  TIP3 H1   HT     0.417000        1.0080           0
   76596 WT5  399  TIP3 H2   HT     0.417000        1.0080           0
   76597 WT5  401  TIP3 OH2  OT    -0.834000       15.9994           0
   76598 WT5  401  TIP3 H1   HT     0.417000        1.0080           0
   76599 WT5  401  TIP3 H2   HT     0.417000        1.0080           0
   76600 WT5  402  TIP3 OH2  OT    -0.834000       15.9994           0
   76601 WT5  402  TIP3 H1   HT     0.417000        1.0080           0
   76602 WT5  402  TIP3 H2   HT     0.417000        1.0080           0
   76603 WT5  403  TIP3 OH2  OT    -0.834000       15.9994           0
   76604 WT5  403  TIP3 H1   HT     0.417000        1.0080           0
   76605 WT5  403  TIP3 H2   HT     0.417000        1.0080           0
   76606 WT5  404  TIP3 OH2  OT    -0.834000       15.9994           0
   76607 WT5  404  TIP3 H1   HT     0.417000        1.0080           0
   76608 WT5  404  TIP3 H2   HT     0.417000        1.0080           0
   76609 WT5  409  TIP3 OH2  OT    -0.834000       15.9994           0
   76610 WT5  409  TIP3 H1   HT     0.417000        1.0080           0
   76611 WT5  409  TIP3 H2   HT     0.417000        1.0080           0
   76612 WT5  411  TIP3 OH2  OT    -0.834000       15.9994           0
   76613 WT5  411  TIP3 H1   HT     0.417000        1.0080           0
   76614 WT5  411  TIP3 H2   HT     0.417000        1.0080           0
   76615 WT5  419  TIP3 OH2  OT    -0.834000       15.9994           0
   76616 WT5  419  TIP3 H1   HT     0.417000        1.0080           0
   76617 WT5  419  TIP3 H2   HT     0.417000        1.0080           0
   76618 WT5  422  TIP3 OH2  OT    -0.834000       15.9994           0
   76619 WT5  422  TIP3 H1   HT     0.417000        1.0080           0
   76620 WT5  422  TIP3 H2   HT     0.417000        1.0080           0
   76621 WT5  424  TIP3 OH2  OT    -0.834000       15.9994           0
   76622 WT5  424  TIP3 H1   HT     0.417000        1.0080           0
   76623 WT5  424  TIP3 H2   HT     0.417000        1.0080           0
   76624 WT5  425  TIP3 OH2  OT    -0.834000       15.9994           0
   76625 WT5  425  TIP3 H1   HT     0.417000        1.0080           0
   76626 WT5  425  TIP3 H2   HT     0.417000        1.0080           0
   76627 WT5  427  TIP3 OH2  OT    -0.834000       15.9994           0
   76628 WT5  427  TIP3 H1   HT     0.417000        1.0080           0
   76629 WT5  427  TIP3 H2   HT     0.417000        1.0080           0
   76630 WT5  431  TIP3 OH2  OT    -0.834000       15.9994           0
   76631 WT5  431  TIP3 H1   HT     0.417000        1.0080           0
   76632 WT5  431  TIP3 H2   HT     0.417000        1.0080           0
   76633 WT5  432  TIP3 OH2  OT    -0.834000       15.9994           0
   76634 WT5  432  TIP3 H1   HT     0.417000        1.0080           0
   76635 WT5  432  TIP3 H2   HT     0.417000        1.0080           0
   76636 WT5  433  TIP3 OH2  OT    -0.834000       15.9994           0
   76637 WT5  433  TIP3 H1   HT     0.417000        1.0080           0
   76638 WT5  433  TIP3 H2   HT     0.417000        1.0080           0
   76639 WT5  437  TIP3 OH2  OT    -0.834000       15.9994           0
   76640 WT5  437  TIP3 H1   HT     0.417000        1.0080           0
   76641 WT5  437  TIP3 H2   HT     0.417000        1.0080           0
   76642 WT5  438  TIP3 OH2  OT    -0.834000       15.9994           0
   76643 WT5  438  TIP3 H1   HT     0.417000        1.0080           0
   76644 WT5  438  TIP3 H2   HT     0.417000        1.0080           0
   76645 WT5  443  TIP3 OH2  OT    -0.834000       15.9994           0
   76646 WT5  443  TIP3 H1   HT     0.417000        1.0080           0
   76647 WT5  443  TIP3 H2   HT     0.417000        1.0080           0
   76648 WT5  448  TIP3 OH2  OT    -0.834000       15.9994           0
   76649 WT5  448  TIP3 H1   HT     0.417000        1.0080           0
   76650 WT5  448  TIP3 H2   HT     0.417000        1.0080           0
   76651 WT5  450  TIP3 OH2  OT    -0.834000       15.9994           0
   76652 WT5  450  TIP3 H1   HT     0.417000        1.0080           0
   76653 WT5  450  TIP3 H2   HT     0.417000        1.0080           0
   76654 WT5  452  TIP3 OH2  OT    -0.834000       15.9994           0
   76655 WT5  452  TIP3 H1   HT     0.417000        1.0080           0
   76656 WT5  452  TIP3 H2   HT     0.417000        1.0080           0
   76657 WT5  456  TIP3 OH2  OT    -0.834000       15.9994           0
   76658 WT5  456  TIP3 H1   HT     0.417000        1.0080           0
   76659 WT5  456  TIP3 H2   HT     0.417000        1.0080           0
   76660 WT5  457  TIP3 OH2  OT    -0.834000       15.9994           0
   76661 WT5  457  TIP3 H1   HT     0.417000        1.0080           0
   76662 WT5  457  TIP3 H2   HT     0.417000        1.0080           0
   76663 WT5  460  TIP3 OH2  OT    -0.834000       15.9994           0
   76664 WT5  460  TIP3 H1   HT     0.417000        1.0080           0
   76665 WT5  460  TIP3 H2   HT     0.417000        1.0080           0
   76666 WT5  461  TIP3 OH2  OT    -0.834000       15.9994           0
   76667 WT5  461  TIP3 H1   HT     0.417000        1.0080           0
   76668 WT5  461  TIP3 H2   HT     0.417000        1.0080           0
   76669 WT5  463  TIP3 OH2  OT    -0.834000       15.9994           0
   76670 WT5  463  TIP3 H1   HT     0.417000        1.0080           0
   76671 WT5  463  TIP3 H2   HT     0.417000        1.0080           0
   76672 WT5  464  TIP3 OH2  OT    -0.834000       15.9994           0
   76673 WT5  464  TIP3 H1   HT     0.417000        1.0080           0
   76674 WT5  464  TIP3 H2   HT     0.417000        1.0080           0
   76675 WT5  465  TIP3 OH2  OT    -0.834000       15.9994           0
   76676 WT5  465  TIP3 H1   HT     0.417000        1.0080           0
   76677 WT5  465  TIP3 H2   HT     0.417000        1.0080           0
   76678 WT5  466  TIP3 OH2  OT    -0.834000       15.9994           0
   76679 WT5  466  TIP3 H1   HT     0.417000        1.0080           0
   76680 WT5  466  TIP3 H2   HT     0.417000        1.0080           0
   76681 WT5  468  TIP3 OH2  OT    -0.834000       15.9994           0
   76682 WT5  468  TIP3 H1   HT     0.417000        1.0080           0
   76683 WT5  468  TIP3 H2   HT     0.417000        1.0080           0
   76684 WT5  469  TIP3 OH2  OT    -0.834000       15.9994           0
   76685 WT5  469  TIP3 H1   HT     0.417000        1.0080           0
   76686 WT5  469  TIP3 H2   HT     0.417000        1.0080           0
   76687 WT5  470  TIP3 OH2  OT    -0.834000       15.9994           0
   76688 WT5  470  TIP3 H1   HT     0.417000        1.0080           0
   76689 WT5  470  TIP3 H2   HT     0.417000        1.0080           0
   76690 WT5  471  TIP3 OH2  OT    -0.834000       15.9994           0
   76691 WT5  471  TIP3 H1   HT     0.417000        1.0080           0
   76692 WT5  471  TIP3 H2   HT     0.417000        1.0080           0
   76693 WT5  472  TIP3 OH2  OT    -0.834000       15.9994           0
   76694 WT5  472  TIP3 H1   HT     0.417000        1.0080           0
   76695 WT5  472  TIP3 H2   HT     0.417000        1.0080           0
   76696 WT5  476  TIP3 OH2  OT    -0.834000       15.9994           0
   76697 WT5  476  TIP3 H1   HT     0.417000        1.0080           0
   76698 WT5  476  TIP3 H2   HT     0.417000        1.0080           0
   76699 WT5  479  TIP3 OH2  OT    -0.834000       15.9994           0
   76700 WT5  479  TIP3 H1   HT     0.417000        1.0080           0
   76701 WT5  479  TIP3 H2   HT     0.417000        1.0080           0
   76702 WT5  480  TIP3 OH2  OT    -0.834000       15.9994           0
   76703 WT5  480  TIP3 H1   HT     0.417000        1.0080           0
   76704 WT5  480  TIP3 H2   HT     0.417000        1.0080           0
   76705 WT5  481  TIP3 OH2  OT    -0.834000       15.9994           0
   76706 WT5  481  TIP3 H1   HT     0.417000        1.0080           0
   76707 WT5  481  TIP3 H2   HT     0.417000        1.0080           0
   76708 WT5  482  TIP3 OH2  OT    -0.834000       15.9994           0
   76709 WT5  482  TIP3 H1   HT     0.417000        1.0080           0
   76710 WT5  482  TIP3 H2   HT     0.417000        1.0080           0
   76711 WT5  483  TIP3 OH2  OT    -0.834000       15.9994           0
   76712 WT5  483  TIP3 H1   HT     0.417000        1.0080           0
   76713 WT5  483  TIP3 H2   HT     0.417000        1.0080           0
   76714 WT5  484  TIP3 OH2  OT    -0.834000       15.9994           0
   76715 WT5  484  TIP3 H1   HT     0.417000        1.0080           0
   76716 WT5  484  TIP3 H2   HT     0.417000        1.0080           0
   76717 WT5  485  TIP3 OH2  OT    -0.834000       15.9994           0
   76718 WT5  485  TIP3 H1   HT     0.417000        1.0080           0
   76719 WT5  485  TIP3 H2   HT     0.417000        1.0080           0
   76720 WT5  486  TIP3 OH2  OT    -0.834000       15.9994           0
   76721 WT5  486  TIP3 H1   HT     0.417000        1.0080           0
   76722 WT5  486  TIP3 H2   HT     0.417000        1.0080           0
   76723 WT5  487  TIP3 OH2  OT    -0.834000       15.9994           0
   76724 WT5  487  TIP3 H1   HT     0.417000        1.0080           0
   76725 WT5  487  TIP3 H2   HT     0.417000        1.0080           0
   76726 WT5  489  TIP3 OH2  OT    -0.834000       15.9994           0
   76727 WT5  489  TIP3 H1   HT     0.417000        1.0080           0
   76728 WT5  489  TIP3 H2   HT     0.417000        1.0080           0
   76729 WT5  490  TIP3 OH2  OT    -0.834000       15.9994           0
   76730 WT5  490  TIP3 H1   HT     0.417000        1.0080           0
   76731 WT5  490  TIP3 H2   HT     0.417000        1.0080           0
   76732 WT5  491  TIP3 OH2  OT    -0.834000       15.9994           0
   76733 WT5  491  TIP3 H1   HT     0.417000        1.0080           0
   76734 WT5  491  TIP3 H2   HT     0.417000        1.0080           0
   76735 WT5  493  TIP3 OH2  OT    -0.834000       15.9994           0
   76736 WT5  493  TIP3 H1   HT     0.417000        1.0080           0
   76737 WT5  493  TIP3 H2   HT     0.417000        1.0080           0
   76738 WT5  494  TIP3 OH2  OT    -0.834000       15.9994           0
   76739 WT5  494  TIP3 H1   HT     0.417000        1.0080           0
   76740 WT5  494  TIP3 H2   HT     0.417000        1.0080           0
   76741 WT5  495  TIP3 OH2  OT    -0.834000       15.9994           0
   76742 WT5  495  TIP3 H1   HT     0.417000        1.0080           0
   76743 WT5  495  TIP3 H2   HT     0.417000        1.0080           0
   76744 WT5  496  TIP3 OH2  OT    -0.834000       15.9994           0
   76745 WT5  496  TIP3 H1   HT     0.417000        1.0080           0
   76746 WT5  496  TIP3 H2   HT     0.417000        1.0080           0
   76747 WT5  498  TIP3 OH2  OT    -0.834000       15.9994           0
   76748 WT5  498  TIP3 H1   HT     0.417000        1.0080           0
   76749 WT5  498  TIP3 H2   HT     0.417000        1.0080           0
   76750 WT5  500  TIP3 OH2  OT    -0.834000       15.9994           0
   76751 WT5  500  TIP3 H1   HT     0.417000        1.0080           0
   76752 WT5  500  TIP3 H2   HT     0.417000        1.0080           0
   76753 WT5  502  TIP3 OH2  OT    -0.834000       15.9994           0
   76754 WT5  502  TIP3 H1   HT     0.417000        1.0080           0
   76755 WT5  502  TIP3 H2   HT     0.417000        1.0080           0
   76756 WT5  503  TIP3 OH2  OT    -0.834000       15.9994           0
   76757 WT5  503  TIP3 H1   HT     0.417000        1.0080           0
   76758 WT5  503  TIP3 H2   HT     0.417000        1.0080           0
   76759 WT5  506  TIP3 OH2  OT    -0.834000       15.9994           0
   76760 WT5  506  TIP3 H1   HT     0.417000        1.0080           0
   76761 WT5  506  TIP3 H2   HT     0.417000        1.0080           0
   76762 WT5  507  TIP3 OH2  OT    -0.834000       15.9994           0
   76763 WT5  507  TIP3 H1   HT     0.417000        1.0080           0
   76764 WT5  507  TIP3 H2   HT     0.417000        1.0080           0
   76765 WT5  508  TIP3 OH2  OT    -0.834000       15.9994           0
   76766 WT5  508  TIP3 H1   HT     0.417000        1.0080           0
   76767 WT5  508  TIP3 H2   HT     0.417000        1.0080           0
   76768 WT5  509  TIP3 OH2  OT    -0.834000       15.9994           0
   76769 WT5  509  TIP3 H1   HT     0.417000        1.0080           0
   76770 WT5  509  TIP3 H2   HT     0.417000        1.0080           0
   76771 WT5  511  TIP3 OH2  OT    -0.834000       15.9994           0
   76772 WT5  511  TIP3 H1   HT     0.417000        1.0080           0
   76773 WT5  511  TIP3 H2   HT     0.417000        1.0080           0
   76774 WT5  512  TIP3 OH2  OT    -0.834000       15.9994           0
   76775 WT5  512  TIP3 H1   HT     0.417000        1.0080           0
   76776 WT5  512  TIP3 H2   HT     0.417000        1.0080           0
   76777 WT5  514  TIP3 OH2  OT    -0.834000       15.9994           0
   76778 WT5  514  TIP3 H1   HT     0.417000        1.0080           0
   76779 WT5  514  TIP3 H2   HT     0.417000        1.0080           0
   76780 WT5  515  TIP3 OH2  OT    -0.834000       15.9994           0
   76781 WT5  515  TIP3 H1   HT     0.417000        1.0080           0
   76782 WT5  515  TIP3 H2   HT     0.417000        1.0080           0
   76783 WT5  516  TIP3 OH2  OT    -0.834000       15.9994           0
   76784 WT5  516  TIP3 H1   HT     0.417000        1.0080           0
   76785 WT5  516  TIP3 H2   HT     0.417000        1.0080           0
   76786 WT5  517  TIP3 OH2  OT    -0.834000       15.9994           0
   76787 WT5  517  TIP3 H1   HT     0.417000        1.0080           0
   76788 WT5  517  TIP3 H2   HT     0.417000        1.0080           0
   76789 WT5  520  TIP3 OH2  OT    -0.834000       15.9994           0
   76790 WT5  520  TIP3 H1   HT     0.417000        1.0080           0
   76791 WT5  520  TIP3 H2   HT     0.417000        1.0080           0
   76792 WT5  521  TIP3 OH2  OT    -0.834000       15.9994           0
   76793 WT5  521  TIP3 H1   HT     0.417000        1.0080           0
   76794 WT5  521  TIP3 H2   HT     0.417000        1.0080           0
   76795 WT5  523  TIP3 OH2  OT    -0.834000       15.9994           0
   76796 WT5  523  TIP3 H1   HT     0.417000        1.0080           0
   76797 WT5  523  TIP3 H2   HT     0.417000        1.0080           0
   76798 WT5  524  TIP3 OH2  OT    -0.834000       15.9994           0
   76799 WT5  524  TIP3 H1   HT     0.417000        1.0080           0
   76800 WT5  524  TIP3 H2   HT     0.417000        1.0080           0
   76801 WT5  526  TIP3 OH2  OT    -0.834000       15.9994           0
   76802 WT5  526  TIP3 H1   HT     0.417000        1.0080           0
   76803 WT5  526  TIP3 H2   HT     0.417000        1.0080           0
   76804 WT5  527  TIP3 OH2  OT    -0.834000       15.9994           0
   76805 WT5  527  TIP3 H1   HT     0.417000        1.0080           0
   76806 WT5  527  TIP3 H2   HT     0.417000        1.0080           0
   76807 WT5  528  TIP3 OH2  OT    -0.834000       15.9994           0
   76808 WT5  528  TIP3 H1   HT     0.417000        1.0080           0
   76809 WT5  528  TIP3 H2   HT     0.417000        1.0080           0
   76810 WT5  529  TIP3 OH2  OT    -0.834000       15.9994           0
   76811 WT5  529  TIP3 H1   HT     0.417000        1.0080           0
   76812 WT5  529  TIP3 H2   HT     0.417000        1.0080           0
   76813 WT5  533  TIP3 OH2  OT    -0.834000       15.9994           0
   76814 WT5  533  TIP3 H1   HT     0.417000        1.0080           0
   76815 WT5  533  TIP3 H2   HT     0.417000        1.0080           0
   76816 WT5  534  TIP3 OH2  OT    -0.834000       15.9994           0
   76817 WT5  534  TIP3 H1   HT     0.417000        1.0080           0
   76818 WT5  534  TIP3 H2   HT     0.417000        1.0080           0
   76819 WT5  538  TIP3 OH2  OT    -0.834000       15.9994           0
   76820 WT5  538  TIP3 H1   HT     0.417000        1.0080           0
   76821 WT5  538  TIP3 H2   HT     0.417000        1.0080           0
   76822 WT5  540  TIP3 OH2  OT    -0.834000       15.9994           0
   76823 WT5  540  TIP3 H1   HT     0.417000        1.0080           0
   76824 WT5  540  TIP3 H2   HT     0.417000        1.0080           0
   76825 WT5  541  TIP3 OH2  OT    -0.834000       15.9994           0
   76826 WT5  541  TIP3 H1   HT     0.417000        1.0080           0
   76827 WT5  541  TIP3 H2   HT     0.417000        1.0080           0
   76828 WT5  543  TIP3 OH2  OT    -0.834000       15.9994           0
   76829 WT5  543  TIP3 H1   HT     0.417000        1.0080           0
   76830 WT5  543  TIP3 H2   HT     0.417000        1.0080           0
   76831 WT5  548  TIP3 OH2  OT    -0.834000       15.9994           0
   76832 WT5  548  TIP3 H1   HT     0.417000        1.0080           0
   76833 WT5  548  TIP3 H2   HT     0.417000        1.0080           0
   76834 WT5  549  TIP3 OH2  OT    -0.834000       15.9994           0
   76835 WT5  549  TIP3 H1   HT     0.417000        1.0080           0
   76836 WT5  549  TIP3 H2   HT     0.417000        1.0080           0
   76837 WT5  550  TIP3 OH2  OT    -0.834000       15.9994           0
   76838 WT5  550  TIP3 H1   HT     0.417000        1.0080           0
   76839 WT5  550  TIP3 H2   HT     0.417000        1.0080           0
   76840 WT5  551  TIP3 OH2  OT    -0.834000       15.9994           0
   76841 WT5  551  TIP3 H1   HT     0.417000        1.0080           0
   76842 WT5  551  TIP3 H2   HT     0.417000        1.0080           0
   76843 WT5  552  TIP3 OH2  OT    -0.834000       15.9994           0
   76844 WT5  552  TIP3 H1   HT     0.417000        1.0080           0
   76845 WT5  552  TIP3 H2   HT     0.417000        1.0080           0
   76846 WT5  553  TIP3 OH2  OT    -0.834000       15.9994           0
   76847 WT5  553  TIP3 H1   HT     0.417000        1.0080           0
   76848 WT5  553  TIP3 H2   HT     0.417000        1.0080           0
   76849 WT5  554  TIP3 OH2  OT    -0.834000       15.9994           0
   76850 WT5  554  TIP3 H1   HT     0.417000        1.0080           0
   76851 WT5  554  TIP3 H2   HT     0.417000        1.0080           0
   76852 WT5  555  TIP3 OH2  OT    -0.834000       15.9994           0
   76853 WT5  555  TIP3 H1   HT     0.417000        1.0080           0
   76854 WT5  555  TIP3 H2   HT     0.417000        1.0080           0
   76855 WT5  556  TIP3 OH2  OT    -0.834000       15.9994           0
   76856 WT5  556  TIP3 H1   HT     0.417000        1.0080           0
   76857 WT5  556  TIP3 H2   HT     0.417000        1.0080           0
   76858 WT5  558  TIP3 OH2  OT    -0.834000       15.9994           0
   76859 WT5  558  TIP3 H1   HT     0.417000        1.0080           0
   76860 WT5  558  TIP3 H2   HT     0.417000        1.0080           0
   76861 WT5  562  TIP3 OH2  OT    -0.834000       15.9994           0
   76862 WT5  562  TIP3 H1   HT     0.417000        1.0080           0
   76863 WT5  562  TIP3 H2   HT     0.417000        1.0080           0
   76864 WT5  568  TIP3 OH2  OT    -0.834000       15.9994           0
   76865 WT5  568  TIP3 H1   HT     0.417000        1.0080           0
   76866 WT5  568  TIP3 H2   HT     0.417000        1.0080           0
   76867 WT5  570  TIP3 OH2  OT    -0.834000       15.9994           0
   76868 WT5  570  TIP3 H1   HT     0.417000        1.0080           0
   76869 WT5  570  TIP3 H2   HT     0.417000        1.0080           0
   76870 WT5  571  TIP3 OH2  OT    -0.834000       15.9994           0
   76871 WT5  571  TIP3 H1   HT     0.417000        1.0080           0
   76872 WT5  571  TIP3 H2   HT     0.417000        1.0080           0
   76873 WT5  573  TIP3 OH2  OT    -0.834000       15.9994           0
   76874 WT5  573  TIP3 H1   HT     0.417000        1.0080           0
   76875 WT5  573  TIP3 H2   HT     0.417000        1.0080           0
   76876 WT5  575  TIP3 OH2  OT    -0.834000       15.9994           0
   76877 WT5  575  TIP3 H1   HT     0.417000        1.0080           0
   76878 WT5  575  TIP3 H2   HT     0.417000        1.0080           0
   76879 WT5  576  TIP3 OH2  OT    -0.834000       15.9994           0
   76880 WT5  576  TIP3 H1   HT     0.417000        1.0080           0
   76881 WT5  576  TIP3 H2   HT     0.417000        1.0080           0
   76882 WT5  578  TIP3 OH2  OT    -0.834000       15.9994           0
   76883 WT5  578  TIP3 H1   HT     0.417000        1.0080           0
   76884 WT5  578  TIP3 H2   HT     0.417000        1.0080           0
   76885 WT5  579  TIP3 OH2  OT    -0.834000       15.9994           0
   76886 WT5  579  TIP3 H1   HT     0.417000        1.0080           0
   76887 WT5  579  TIP3 H2   HT     0.417000        1.0080           0
   76888 WT5  580  TIP3 OH2  OT    -0.834000       15.9994           0
   76889 WT5  580  TIP3 H1   HT     0.417000        1.0080           0
   76890 WT5  580  TIP3 H2   HT     0.417000        1.0080           0
   76891 WT5  581  TIP3 OH2  OT    -0.834000       15.9994           0
   76892 WT5  581  TIP3 H1   HT     0.417000        1.0080           0
   76893 WT5  581  TIP3 H2   HT     0.417000        1.0080           0
   76894 WT5  584  TIP3 OH2  OT    -0.834000       15.9994           0
   76895 WT5  584  TIP3 H1   HT     0.417000        1.0080           0
   76896 WT5  584  TIP3 H2   HT     0.417000        1.0080           0
   76897 WT5  585  TIP3 OH2  OT    -0.834000       15.9994           0
   76898 WT5  585  TIP3 H1   HT     0.417000        1.0080           0
   76899 WT5  585  TIP3 H2   HT     0.417000        1.0080           0
   76900 WT5  587  TIP3 OH2  OT    -0.834000       15.9994           0
   76901 WT5  587  TIP3 H1   HT     0.417000        1.0080           0
   76902 WT5  587  TIP3 H2   HT     0.417000        1.0080           0
   76903 WT5  588  TIP3 OH2  OT    -0.834000       15.9994           0
   76904 WT5  588  TIP3 H1   HT     0.417000        1.0080           0
   76905 WT5  588  TIP3 H2   HT     0.417000        1.0080           0
   76906 WT5  589  TIP3 OH2  OT    -0.834000       15.9994           0
   76907 WT5  589  TIP3 H1   HT     0.417000        1.0080           0
   76908 WT5  589  TIP3 H2   HT     0.417000        1.0080           0
   76909 WT5  590  TIP3 OH2  OT    -0.834000       15.9994           0
   76910 WT5  590  TIP3 H1   HT     0.417000        1.0080           0
   76911 WT5  590  TIP3 H2   HT     0.417000        1.0080           0
   76912 WT5  591  TIP3 OH2  OT    -0.834000       15.9994           0
   76913 WT5  591  TIP3 H1   HT     0.417000        1.0080           0
   76914 WT5  591  TIP3 H2   HT     0.417000        1.0080           0
   76915 WT5  592  TIP3 OH2  OT    -0.834000       15.9994           0
   76916 WT5  592  TIP3 H1   HT     0.417000        1.0080           0
   76917 WT5  592  TIP3 H2   HT     0.417000        1.0080           0
   76918 WT5  593  TIP3 OH2  OT    -0.834000       15.9994           0
   76919 WT5  593  TIP3 H1   HT     0.417000        1.0080           0
   76920 WT5  593  TIP3 H2   HT     0.417000        1.0080           0
   76921 WT5  594  TIP3 OH2  OT    -0.834000       15.9994           0
   76922 WT5  594  TIP3 H1   HT     0.417000        1.0080           0
   76923 WT5  594  TIP3 H2   HT     0.417000        1.0080           0
   76924 WT5  595  TIP3 OH2  OT    -0.834000       15.9994           0
   76925 WT5  595  TIP3 H1   HT     0.417000        1.0080           0
   76926 WT5  595  TIP3 H2   HT     0.417000        1.0080           0
   76927 WT5  598  TIP3 OH2  OT    -0.834000       15.9994           0
   76928 WT5  598  TIP3 H1   HT     0.417000        1.0080           0
   76929 WT5  598  TIP3 H2   HT     0.417000        1.0080           0
   76930 WT5  599  TIP3 OH2  OT    -0.834000       15.9994           0
   76931 WT5  599  TIP3 H1   HT     0.417000        1.0080           0
   76932 WT5  599  TIP3 H2   HT     0.417000        1.0080           0
   76933 WT5  600  TIP3 OH2  OT    -0.834000       15.9994           0
   76934 WT5  600  TIP3 H1   HT     0.417000        1.0080           0
   76935 WT5  600  TIP3 H2   HT     0.417000        1.0080           0
   76936 WT5  601  TIP3 OH2  OT    -0.834000       15.9994           0
   76937 WT5  601  TIP3 H1   HT     0.417000        1.0080           0
   76938 WT5  601  TIP3 H2   HT     0.417000        1.0080           0
   76939 WT5  602  TIP3 OH2  OT    -0.834000       15.9994           0
   76940 WT5  602  TIP3 H1   HT     0.417000        1.0080           0
   76941 WT5  602  TIP3 H2   HT     0.417000        1.0080           0
   76942 WT5  603  TIP3 OH2  OT    -0.834000       15.9994           0
   76943 WT5  603  TIP3 H1   HT     0.417000        1.0080           0
   76944 WT5  603  TIP3 H2   HT     0.417000        1.0080           0
   76945 WT5  604  TIP3 OH2  OT    -0.834000       15.9994           0
   76946 WT5  604  TIP3 H1   HT     0.417000        1.0080           0
   76947 WT5  604  TIP3 H2   HT     0.417000        1.0080           0
   76948 WT5  606  TIP3 OH2  OT    -0.834000       15.9994           0
   76949 WT5  606  TIP3 H1   HT     0.417000        1.0080           0
   76950 WT5  606  TIP3 H2   HT     0.417000        1.0080           0
   76951 WT5  607  TIP3 OH2  OT    -0.834000       15.9994           0
   76952 WT5  607  TIP3 H1   HT     0.417000        1.0080           0
   76953 WT5  607  TIP3 H2   HT     0.417000        1.0080           0
   76954 WT5  609  TIP3 OH2  OT    -0.834000       15.9994           0
   76955 WT5  609  TIP3 H1   HT     0.417000        1.0080           0
   76956 WT5  609  TIP3 H2   HT     0.417000        1.0080           0
   76957 WT5  610  TIP3 OH2  OT    -0.834000       15.9994           0
   76958 WT5  610  TIP3 H1   HT     0.417000        1.0080           0
   76959 WT5  610  TIP3 H2   HT     0.417000        1.0080           0
   76960 WT5  611  TIP3 OH2  OT    -0.834000       15.9994           0
   76961 WT5  611  TIP3 H1   HT     0.417000        1.0080           0
   76962 WT5  611  TIP3 H2   HT     0.417000        1.0080           0
   76963 WT5  612  TIP3 OH2  OT    -0.834000       15.9994           0
   76964 WT5  612  TIP3 H1   HT     0.417000        1.0080           0
   76965 WT5  612  TIP3 H2   HT     0.417000        1.0080           0
   76966 WT5  613  TIP3 OH2  OT    -0.834000       15.9994           0
   76967 WT5  613  TIP3 H1   HT     0.417000        1.0080           0
   76968 WT5  613  TIP3 H2   HT     0.417000        1.0080           0
   76969 WT5  615  TIP3 OH2  OT    -0.834000       15.9994           0
   76970 WT5  615  TIP3 H1   HT     0.417000        1.0080           0
   76971 WT5  615  TIP3 H2   HT     0.417000        1.0080           0
   76972 WT5  616  TIP3 OH2  OT    -0.834000       15.9994           0
   76973 WT5  616  TIP3 H1   HT     0.417000        1.0080           0
   76974 WT5  616  TIP3 H2   HT     0.417000        1.0080           0
   76975 WT5  618  TIP3 OH2  OT    -0.834000       15.9994           0
   76976 WT5  618  TIP3 H1   HT     0.417000        1.0080           0
   76977 WT5  618  TIP3 H2   HT     0.417000        1.0080           0
   76978 WT5  619  TIP3 OH2  OT    -0.834000       15.9994           0
   76979 WT5  619  TIP3 H1   HT     0.417000        1.0080           0
   76980 WT5  619  TIP3 H2   HT     0.417000        1.0080           0
   76981 WT5  623  TIP3 OH2  OT    -0.834000       15.9994           0
   76982 WT5  623  TIP3 H1   HT     0.417000        1.0080           0
   76983 WT5  623  TIP3 H2   HT     0.417000        1.0080           0
   76984 WT5  624  TIP3 OH2  OT    -0.834000       15.9994           0
   76985 WT5  624  TIP3 H1   HT     0.417000        1.0080           0
   76986 WT5  624  TIP3 H2   HT     0.417000        1.0080           0
   76987 WT5  626  TIP3 OH2  OT    -0.834000       15.9994           0
   76988 WT5  626  TIP3 H1   HT     0.417000        1.0080           0
   76989 WT5  626  TIP3 H2   HT     0.417000        1.0080           0
   76990 WT5  630  TIP3 OH2  OT    -0.834000       15.9994           0
   76991 WT5  630  TIP3 H1   HT     0.417000        1.0080           0
   76992 WT5  630  TIP3 H2   HT     0.417000        1.0080           0
   76993 WT5  632  TIP3 OH2  OT    -0.834000       15.9994           0
   76994 WT5  632  TIP3 H1   HT     0.417000        1.0080           0
   76995 WT5  632  TIP3 H2   HT     0.417000        1.0080           0
   76996 WT5  634  TIP3 OH2  OT    -0.834000       15.9994           0
   76997 WT5  634  TIP3 H1   HT     0.417000        1.0080           0
   76998 WT5  634  TIP3 H2   HT     0.417000        1.0080           0
   76999 WT5  635  TIP3 OH2  OT    -0.834000       15.9994           0
   77000 WT5  635  TIP3 H1   HT     0.417000        1.0080           0
   77001 WT5  635  TIP3 H2   HT     0.417000        1.0080           0
   77002 WT5  636  TIP3 OH2  OT    -0.834000       15.9994           0
   77003 WT5  636  TIP3 H1   HT     0.417000        1.0080           0
   77004 WT5  636  TIP3 H2   HT     0.417000        1.0080           0
   77005 WT5  637  TIP3 OH2  OT    -0.834000       15.9994           0
   77006 WT5  637  TIP3 H1   HT     0.417000        1.0080           0
   77007 WT5  637  TIP3 H2   HT     0.417000        1.0080           0
   77008 WT5  638  TIP3 OH2  OT    -0.834000       15.9994           0
   77009 WT5  638  TIP3 H1   HT     0.417000        1.0080           0
   77010 WT5  638  TIP3 H2   HT     0.417000        1.0080           0
   77011 WT5  639  TIP3 OH2  OT    -0.834000       15.9994           0
   77012 WT5  639  TIP3 H1   HT     0.417000        1.0080           0
   77013 WT5  639  TIP3 H2   HT     0.417000        1.0080           0
   77014 WT5  640  TIP3 OH2  OT    -0.834000       15.9994           0
   77015 WT5  640  TIP3 H1   HT     0.417000        1.0080           0
   77016 WT5  640  TIP3 H2   HT     0.417000        1.0080           0
   77017 WT5  642  TIP3 OH2  OT    -0.834000       15.9994           0
   77018 WT5  642  TIP3 H1   HT     0.417000        1.0080           0
   77019 WT5  642  TIP3 H2   HT     0.417000        1.0080           0
   77020 WT5  643  TIP3 OH2  OT    -0.834000       15.9994           0
   77021 WT5  643  TIP3 H1   HT     0.417000        1.0080           0
   77022 WT5  643  TIP3 H2   HT     0.417000        1.0080           0
   77023 WT5  644  TIP3 OH2  OT    -0.834000       15.9994           0
   77024 WT5  644  TIP3 H1   HT     0.417000        1.0080           0
   77025 WT5  644  TIP3 H2   HT     0.417000        1.0080           0
   77026 WT5  649  TIP3 OH2  OT    -0.834000       15.9994           0
   77027 WT5  649  TIP3 H1   HT     0.417000        1.0080           0
   77028 WT5  649  TIP3 H2   HT     0.417000        1.0080           0
   77029 WT5  651  TIP3 OH2  OT    -0.834000       15.9994           0
   77030 WT5  651  TIP3 H1   HT     0.417000        1.0080           0
   77031 WT5  651  TIP3 H2   HT     0.417000        1.0080           0
   77032 WT5  653  TIP3 OH2  OT    -0.834000       15.9994           0
   77033 WT5  653  TIP3 H1   HT     0.417000        1.0080           0
   77034 WT5  653  TIP3 H2   HT     0.417000        1.0080           0
   77035 WT5  657  TIP3 OH2  OT    -0.834000       15.9994           0
   77036 WT5  657  TIP3 H1   HT     0.417000        1.0080           0
   77037 WT5  657  TIP3 H2   HT     0.417000        1.0080           0
   77038 WT5  659  TIP3 OH2  OT    -0.834000       15.9994           0
   77039 WT5  659  TIP3 H1   HT     0.417000        1.0080           0
   77040 WT5  659  TIP3 H2   HT     0.417000        1.0080           0
   77041 WT5  662  TIP3 OH2  OT    -0.834000       15.9994           0
   77042 WT5  662  TIP3 H1   HT     0.417000        1.0080           0
   77043 WT5  662  TIP3 H2   HT     0.417000        1.0080           0
   77044 WT5  666  TIP3 OH2  OT    -0.834000       15.9994           0
   77045 WT5  666  TIP3 H1   HT     0.417000        1.0080           0
   77046 WT5  666  TIP3 H2   HT     0.417000        1.0080           0
   77047 WT5  667  TIP3 OH2  OT    -0.834000       15.9994           0
   77048 WT5  667  TIP3 H1   HT     0.417000        1.0080           0
   77049 WT5  667  TIP3 H2   HT     0.417000        1.0080           0
   77050 WT5  670  TIP3 OH2  OT    -0.834000       15.9994           0
   77051 WT5  670  TIP3 H1   HT     0.417000        1.0080           0
   77052 WT5  670  TIP3 H2   HT     0.417000        1.0080           0
   77053 WT5  674  TIP3 OH2  OT    -0.834000       15.9994           0
   77054 WT5  674  TIP3 H1   HT     0.417000        1.0080           0
   77055 WT5  674  TIP3 H2   HT     0.417000        1.0080           0
   77056 WT5  675  TIP3 OH2  OT    -0.834000       15.9994           0
   77057 WT5  675  TIP3 H1   HT     0.417000        1.0080           0
   77058 WT5  675  TIP3 H2   HT     0.417000        1.0080           0
   77059 WT5  676  TIP3 OH2  OT    -0.834000       15.9994           0
   77060 WT5  676  TIP3 H1   HT     0.417000        1.0080           0
   77061 WT5  676  TIP3 H2   HT     0.417000        1.0080           0
   77062 WT5  677  TIP3 OH2  OT    -0.834000       15.9994           0
   77063 WT5  677  TIP3 H1   HT     0.417000        1.0080           0
   77064 WT5  677  TIP3 H2   HT     0.417000        1.0080           0
   77065 WT5  678  TIP3 OH2  OT    -0.834000       15.9994           0
   77066 WT5  678  TIP3 H1   HT     0.417000        1.0080           0
   77067 WT5  678  TIP3 H2   HT     0.417000        1.0080           0
   77068 WT5  679  TIP3 OH2  OT    -0.834000       15.9994           0
   77069 WT5  679  TIP3 H1   HT     0.417000        1.0080           0
   77070 WT5  679  TIP3 H2   HT     0.417000        1.0080           0
   77071 WT5  680  TIP3 OH2  OT    -0.834000       15.9994           0
   77072 WT5  680  TIP3 H1   HT     0.417000        1.0080           0
   77073 WT5  680  TIP3 H2   HT     0.417000        1.0080           0
   77074 WT5  682  TIP3 OH2  OT    -0.834000       15.9994           0
   77075 WT5  682  TIP3 H1   HT     0.417000        1.0080           0
   77076 WT5  682  TIP3 H2   HT     0.417000        1.0080           0
   77077 WT5  684  TIP3 OH2  OT    -0.834000       15.9994           0
   77078 WT5  684  TIP3 H1   HT     0.417000        1.0080           0
   77079 WT5  684  TIP3 H2   HT     0.417000        1.0080           0
   77080 WT5  686  TIP3 OH2  OT    -0.834000       15.9994           0
   77081 WT5  686  TIP3 H1   HT     0.417000        1.0080           0
   77082 WT5  686  TIP3 H2   HT     0.417000        1.0080           0
   77083 WT5  687  TIP3 OH2  OT    -0.834000       15.9994           0
   77084 WT5  687  TIP3 H1   HT     0.417000        1.0080           0
   77085 WT5  687  TIP3 H2   HT     0.417000        1.0080           0
   77086 WT5  688  TIP3 OH2  OT    -0.834000       15.9994           0
   77087 WT5  688  TIP3 H1   HT     0.417000        1.0080           0
   77088 WT5  688  TIP3 H2   HT     0.417000        1.0080           0
   77089 WT5  699  TIP3 OH2  OT    -0.834000       15.9994           0
   77090 WT5  699  TIP3 H1   HT     0.417000        1.0080           0
   77091 WT5  699  TIP3 H2   HT     0.417000        1.0080           0
   77092 WT5  700  TIP3 OH2  OT    -0.834000       15.9994           0
   77093 WT5  700  TIP3 H1   HT     0.417000        1.0080           0
   77094 WT5  700  TIP3 H2   HT     0.417000        1.0080           0
   77095 WT5  701  TIP3 OH2  OT    -0.834000       15.9994           0
   77096 WT5  701  TIP3 H1   HT     0.417000        1.0080           0
   77097 WT5  701  TIP3 H2   HT     0.417000        1.0080           0
   77098 WT5  702  TIP3 OH2  OT    -0.834000       15.9994           0
   77099 WT5  702  TIP3 H1   HT     0.417000        1.0080           0
   77100 WT5  702  TIP3 H2   HT     0.417000        1.0080           0
   77101 WT5  703  TIP3 OH2  OT    -0.834000       15.9994           0
   77102 WT5  703  TIP3 H1   HT     0.417000        1.0080           0
   77103 WT5  703  TIP3 H2   HT     0.417000        1.0080           0
   77104 WT5  704  TIP3 OH2  OT    -0.834000       15.9994           0
   77105 WT5  704  TIP3 H1   HT     0.417000        1.0080           0
   77106 WT5  704  TIP3 H2   HT     0.417000        1.0080           0
   77107 WT5  706  TIP3 OH2  OT    -0.834000       15.9994           0
   77108 WT5  706  TIP3 H1   HT     0.417000        1.0080           0
   77109 WT5  706  TIP3 H2   HT     0.417000        1.0080           0
   77110 WT5  707  TIP3 OH2  OT    -0.834000       15.9994           0
   77111 WT5  707  TIP3 H1   HT     0.417000        1.0080           0
   77112 WT5  707  TIP3 H2   HT     0.417000        1.0080           0
   77113 WT5  708  TIP3 OH2  OT    -0.834000       15.9994           0
   77114 WT5  708  TIP3 H1   HT     0.417000        1.0080           0
   77115 WT5  708  TIP3 H2   HT     0.417000        1.0080           0
   77116 WT5  710  TIP3 OH2  OT    -0.834000       15.9994           0
   77117 WT5  710  TIP3 H1   HT     0.417000        1.0080           0
   77118 WT5  710  TIP3 H2   HT     0.417000        1.0080           0
   77119 WT5  711  TIP3 OH2  OT    -0.834000       15.9994           0
   77120 WT5  711  TIP3 H1   HT     0.417000        1.0080           0
   77121 WT5  711  TIP3 H2   HT     0.417000        1.0080           0
   77122 WT5  712  TIP3 OH2  OT    -0.834000       15.9994           0
   77123 WT5  712  TIP3 H1   HT     0.417000        1.0080           0
   77124 WT5  712  TIP3 H2   HT     0.417000        1.0080           0
   77125 WT5  713  TIP3 OH2  OT    -0.834000       15.9994           0
   77126 WT5  713  TIP3 H1   HT     0.417000        1.0080           0
   77127 WT5  713  TIP3 H2   HT     0.417000        1.0080           0
   77128 WT5  715  TIP3 OH2  OT    -0.834000       15.9994           0
   77129 WT5  715  TIP3 H1   HT     0.417000        1.0080           0
   77130 WT5  715  TIP3 H2   HT     0.417000        1.0080           0
   77131 WT5  717  TIP3 OH2  OT    -0.834000       15.9994           0
   77132 WT5  717  TIP3 H1   HT     0.417000        1.0080           0
   77133 WT5  717  TIP3 H2   HT     0.417000        1.0080           0
   77134 WT5  721  TIP3 OH2  OT    -0.834000       15.9994           0
   77135 WT5  721  TIP3 H1   HT     0.417000        1.0080           0
   77136 WT5  721  TIP3 H2   HT     0.417000        1.0080           0
   77137 WT5  722  TIP3 OH2  OT    -0.834000       15.9994           0
   77138 WT5  722  TIP3 H1   HT     0.417000        1.0080           0
   77139 WT5  722  TIP3 H2   HT     0.417000        1.0080           0
   77140 WT5  725  TIP3 OH2  OT    -0.834000       15.9994           0
   77141 WT5  725  TIP3 H1   HT     0.417000        1.0080           0
   77142 WT5  725  TIP3 H2   HT     0.417000        1.0080           0
   77143 WT5  726  TIP3 OH2  OT    -0.834000       15.9994           0
   77144 WT5  726  TIP3 H1   HT     0.417000        1.0080           0
   77145 WT5  726  TIP3 H2   HT     0.417000        1.0080           0
   77146 WT5  733  TIP3 OH2  OT    -0.834000       15.9994           0
   77147 WT5  733  TIP3 H1   HT     0.417000        1.0080           0
   77148 WT5  733  TIP3 H2   HT     0.417000        1.0080           0
   77149 WT5  736  TIP3 OH2  OT    -0.834000       15.9994           0
   77150 WT5  736  TIP3 H1   HT     0.417000        1.0080           0
   77151 WT5  736  TIP3 H2   HT     0.417000        1.0080           0
   77152 WT5  737  TIP3 OH2  OT    -0.834000       15.9994           0
   77153 WT5  737  TIP3 H1   HT     0.417000        1.0080           0
   77154 WT5  737  TIP3 H2   HT     0.417000        1.0080           0
   77155 WT5  738  TIP3 OH2  OT    -0.834000       15.9994           0
   77156 WT5  738  TIP3 H1   HT     0.417000        1.0080           0
   77157 WT5  738  TIP3 H2   HT     0.417000        1.0080           0
   77158 WT5  740  TIP3 OH2  OT    -0.834000       15.9994           0
   77159 WT5  740  TIP3 H1   HT     0.417000        1.0080           0
   77160 WT5  740  TIP3 H2   HT     0.417000        1.0080           0
   77161 WT5  741  TIP3 OH2  OT    -0.834000       15.9994           0
   77162 WT5  741  TIP3 H1   HT     0.417000        1.0080           0
   77163 WT5  741  TIP3 H2   HT     0.417000        1.0080           0
   77164 WT5  743  TIP3 OH2  OT    -0.834000       15.9994           0
   77165 WT5  743  TIP3 H1   HT     0.417000        1.0080           0
   77166 WT5  743  TIP3 H2   HT     0.417000        1.0080           0
   77167 WT5  744  TIP3 OH2  OT    -0.834000       15.9994           0
   77168 WT5  744  TIP3 H1   HT     0.417000        1.0080           0
   77169 WT5  744  TIP3 H2   HT     0.417000        1.0080           0
   77170 WT5  745  TIP3 OH2  OT    -0.834000       15.9994           0
   77171 WT5  745  TIP3 H1   HT     0.417000        1.0080           0
   77172 WT5  745  TIP3 H2   HT     0.417000        1.0080           0
   77173 WT5  747  TIP3 OH2  OT    -0.834000       15.9994           0
   77174 WT5  747  TIP3 H1   HT     0.417000        1.0080           0
   77175 WT5  747  TIP3 H2   HT     0.417000        1.0080           0
   77176 WT5  748  TIP3 OH2  OT    -0.834000       15.9994           0
   77177 WT5  748  TIP3 H1   HT     0.417000        1.0080           0
   77178 WT5  748  TIP3 H2   HT     0.417000        1.0080           0
   77179 WT5  749  TIP3 OH2  OT    -0.834000       15.9994           0
   77180 WT5  749  TIP3 H1   HT     0.417000        1.0080           0
   77181 WT5  749  TIP3 H2   HT     0.417000        1.0080           0
   77182 WT5  750  TIP3 OH2  OT    -0.834000       15.9994           0
   77183 WT5  750  TIP3 H1   HT     0.417000        1.0080           0
   77184 WT5  750  TIP3 H2   HT     0.417000        1.0080           0
   77185 WT5  755  TIP3 OH2  OT    -0.834000       15.9994           0
   77186 WT5  755  TIP3 H1   HT     0.417000        1.0080           0
   77187 WT5  755  TIP3 H2   HT     0.417000        1.0080           0
   77188 WT5  756  TIP3 OH2  OT    -0.834000       15.9994           0
   77189 WT5  756  TIP3 H1   HT     0.417000        1.0080           0
   77190 WT5  756  TIP3 H2   HT     0.417000        1.0080           0
   77191 WT5  757  TIP3 OH2  OT    -0.834000       15.9994           0
   77192 WT5  757  TIP3 H1   HT     0.417000        1.0080           0
   77193 WT5  757  TIP3 H2   HT     0.417000        1.0080           0
   77194 WT5  759  TIP3 OH2  OT    -0.834000       15.9994           0
   77195 WT5  759  TIP3 H1   HT     0.417000        1.0080           0
   77196 WT5  759  TIP3 H2   HT     0.417000        1.0080           0
   77197 WT5  761  TIP3 OH2  OT    -0.834000       15.9994           0
   77198 WT5  761  TIP3 H1   HT     0.417000        1.0080           0
   77199 WT5  761  TIP3 H2   HT     0.417000        1.0080           0
   77200 WT5  763  TIP3 OH2  OT    -0.834000       15.9994           0
   77201 WT5  763  TIP3 H1   HT     0.417000        1.0080           0
   77202 WT5  763  TIP3 H2   HT     0.417000        1.0080           0
   77203 WT5  765  TIP3 OH2  OT    -0.834000       15.9994           0
   77204 WT5  765  TIP3 H1   HT     0.417000        1.0080           0
   77205 WT5  765  TIP3 H2   HT     0.417000        1.0080           0
   77206 WT5  766  TIP3 OH2  OT    -0.834000       15.9994           0
   77207 WT5  766  TIP3 H1   HT     0.417000        1.0080           0
   77208 WT5  766  TIP3 H2   HT     0.417000        1.0080           0
   77209 WT5  767  TIP3 OH2  OT    -0.834000       15.9994           0
   77210 WT5  767  TIP3 H1   HT     0.417000        1.0080           0
   77211 WT5  767  TIP3 H2   HT     0.417000        1.0080           0
   77212 WT5  768  TIP3 OH2  OT    -0.834000       15.9994           0
   77213 WT5  768  TIP3 H1   HT     0.417000        1.0080           0
   77214 WT5  768  TIP3 H2   HT     0.417000        1.0080           0
   77215 WT5  771  TIP3 OH2  OT    -0.834000       15.9994           0
   77216 WT5  771  TIP3 H1   HT     0.417000        1.0080           0
   77217 WT5  771  TIP3 H2   HT     0.417000        1.0080           0
   77218 WT5  772  TIP3 OH2  OT    -0.834000       15.9994           0
   77219 WT5  772  TIP3 H1   HT     0.417000        1.0080           0
   77220 WT5  772  TIP3 H2   HT     0.417000        1.0080           0
   77221 WT5  773  TIP3 OH2  OT    -0.834000       15.9994           0
   77222 WT5  773  TIP3 H1   HT     0.417000        1.0080           0
   77223 WT5  773  TIP3 H2   HT     0.417000        1.0080           0
   77224 WT5  774  TIP3 OH2  OT    -0.834000       15.9994           0
   77225 WT5  774  TIP3 H1   HT     0.417000        1.0080           0
   77226 WT5  774  TIP3 H2   HT     0.417000        1.0080           0
   77227 WT5  775  TIP3 OH2  OT    -0.834000       15.9994           0
   77228 WT5  775  TIP3 H1   HT     0.417000        1.0080           0
   77229 WT5  775  TIP3 H2   HT     0.417000        1.0080           0
   77230 WT5  777  TIP3 OH2  OT    -0.834000       15.9994           0
   77231 WT5  777  TIP3 H1   HT     0.417000        1.0080           0
   77232 WT5  777  TIP3 H2   HT     0.417000        1.0080           0
   77233 WT5  778  TIP3 OH2  OT    -0.834000       15.9994           0
   77234 WT5  778  TIP3 H1   HT     0.417000        1.0080           0
   77235 WT5  778  TIP3 H2   HT     0.417000        1.0080           0
   77236 WT5  779  TIP3 OH2  OT    -0.834000       15.9994           0
   77237 WT5  779  TIP3 H1   HT     0.417000        1.0080           0
   77238 WT5  779  TIP3 H2   HT     0.417000        1.0080           0
   77239 WT5  781  TIP3 OH2  OT    -0.834000       15.9994           0
   77240 WT5  781  TIP3 H1   HT     0.417000        1.0080           0
   77241 WT5  781  TIP3 H2   HT     0.417000        1.0080           0
   77242 WT5  782  TIP3 OH2  OT    -0.834000       15.9994           0
   77243 WT5  782  TIP3 H1   HT     0.417000        1.0080           0
   77244 WT5  782  TIP3 H2   HT     0.417000        1.0080           0
   77245 WT5  783  TIP3 OH2  OT    -0.834000       15.9994           0
   77246 WT5  783  TIP3 H1   HT     0.417000        1.0080           0
   77247 WT5  783  TIP3 H2   HT     0.417000        1.0080           0
   77248 WT5  785  TIP3 OH2  OT    -0.834000       15.9994           0
   77249 WT5  785  TIP3 H1   HT     0.417000        1.0080           0
   77250 WT5  785  TIP3 H2   HT     0.417000        1.0080           0
   77251 WT5  786  TIP3 OH2  OT    -0.834000       15.9994           0
   77252 WT5  786  TIP3 H1   HT     0.417000        1.0080           0
   77253 WT5  786  TIP3 H2   HT     0.417000        1.0080           0
   77254 WT5  787  TIP3 OH2  OT    -0.834000       15.9994           0
   77255 WT5  787  TIP3 H1   HT     0.417000        1.0080           0
   77256 WT5  787  TIP3 H2   HT     0.417000        1.0080           0
   77257 WT5  788  TIP3 OH2  OT    -0.834000       15.9994           0
   77258 WT5  788  TIP3 H1   HT     0.417000        1.0080           0
   77259 WT5  788  TIP3 H2   HT     0.417000        1.0080           0
   77260 WT5  792  TIP3 OH2  OT    -0.834000       15.9994           0
   77261 WT5  792  TIP3 H1   HT     0.417000        1.0080           0
   77262 WT5  792  TIP3 H2   HT     0.417000        1.0080           0
   77263 WT5  793  TIP3 OH2  OT    -0.834000       15.9994           0
   77264 WT5  793  TIP3 H1   HT     0.417000        1.0080           0
   77265 WT5  793  TIP3 H2   HT     0.417000        1.0080           0
   77266 WT5  796  TIP3 OH2  OT    -0.834000       15.9994           0
   77267 WT5  796  TIP3 H1   HT     0.417000        1.0080           0
   77268 WT5  796  TIP3 H2   HT     0.417000        1.0080           0
   77269 WT5  801  TIP3 OH2  OT    -0.834000       15.9994           0
   77270 WT5  801  TIP3 H1   HT     0.417000        1.0080           0
   77271 WT5  801  TIP3 H2   HT     0.417000        1.0080           0
   77272 WT5  803  TIP3 OH2  OT    -0.834000       15.9994           0
   77273 WT5  803  TIP3 H1   HT     0.417000        1.0080           0
   77274 WT5  803  TIP3 H2   HT     0.417000        1.0080           0
   77275 WT5  804  TIP3 OH2  OT    -0.834000       15.9994           0
   77276 WT5  804  TIP3 H1   HT     0.417000        1.0080           0
   77277 WT5  804  TIP3 H2   HT     0.417000        1.0080           0
   77278 WT5  806  TIP3 OH2  OT    -0.834000       15.9994           0
   77279 WT5  806  TIP3 H1   HT     0.417000        1.0080           0
   77280 WT5  806  TIP3 H2   HT     0.417000        1.0080           0
   77281 WT5  807  TIP3 OH2  OT    -0.834000       15.9994           0
   77282 WT5  807  TIP3 H1   HT     0.417000        1.0080           0
   77283 WT5  807  TIP3 H2   HT     0.417000        1.0080           0
   77284 WT5  808  TIP3 OH2  OT    -0.834000       15.9994           0
   77285 WT5  808  TIP3 H1   HT     0.417000        1.0080           0
   77286 WT5  808  TIP3 H2   HT     0.417000        1.0080           0
   77287 WT5  809  TIP3 OH2  OT    -0.834000       15.9994           0
   77288 WT5  809  TIP3 H1   HT     0.417000        1.0080           0
   77289 WT5  809  TIP3 H2   HT     0.417000        1.0080           0
   77290 WT5  810  TIP3 OH2  OT    -0.834000       15.9994           0
   77291 WT5  810  TIP3 H1   HT     0.417000        1.0080           0
   77292 WT5  810  TIP3 H2   HT     0.417000        1.0080           0
   77293 WT5  811  TIP3 OH2  OT    -0.834000       15.9994           0
   77294 WT5  811  TIP3 H1   HT     0.417000        1.0080           0
   77295 WT5  811  TIP3 H2   HT     0.417000        1.0080           0
   77296 WT5  812  TIP3 OH2  OT    -0.834000       15.9994           0
   77297 WT5  812  TIP3 H1   HT     0.417000        1.0080           0
   77298 WT5  812  TIP3 H2   HT     0.417000        1.0080           0
   77299 WT5  813  TIP3 OH2  OT    -0.834000       15.9994           0
   77300 WT5  813  TIP3 H1   HT     0.417000        1.0080           0
   77301 WT5  813  TIP3 H2   HT     0.417000        1.0080           0
   77302 WT5  814  TIP3 OH2  OT    -0.834000       15.9994           0
   77303 WT5  814  TIP3 H1   HT     0.417000        1.0080           0
   77304 WT5  814  TIP3 H2   HT     0.417000        1.0080           0
   77305 WT5  815  TIP3 OH2  OT    -0.834000       15.9994           0
   77306 WT5  815  TIP3 H1   HT     0.417000        1.0080           0
   77307 WT5  815  TIP3 H2   HT     0.417000        1.0080           0
   77308 WT5  817  TIP3 OH2  OT    -0.834000       15.9994           0
   77309 WT5  817  TIP3 H1   HT     0.417000        1.0080           0
   77310 WT5  817  TIP3 H2   HT     0.417000        1.0080           0
   77311 WT5  818  TIP3 OH2  OT    -0.834000       15.9994           0
   77312 WT5  818  TIP3 H1   HT     0.417000        1.0080           0
   77313 WT5  818  TIP3 H2   HT     0.417000        1.0080           0
   77314 WT5  819  TIP3 OH2  OT    -0.834000       15.9994           0
   77315 WT5  819  TIP3 H1   HT     0.417000        1.0080           0
   77316 WT5  819  TIP3 H2   HT     0.417000        1.0080           0
   77317 WT5  821  TIP3 OH2  OT    -0.834000       15.9994           0
   77318 WT5  821  TIP3 H1   HT     0.417000        1.0080           0
   77319 WT5  821  TIP3 H2   HT     0.417000        1.0080           0
   77320 WT5  822  TIP3 OH2  OT    -0.834000       15.9994           0
   77321 WT5  822  TIP3 H1   HT     0.417000        1.0080           0
   77322 WT5  822  TIP3 H2   HT     0.417000        1.0080           0
   77323 WT5  824  TIP3 OH2  OT    -0.834000       15.9994           0
   77324 WT5  824  TIP3 H1   HT     0.417000        1.0080           0
   77325 WT5  824  TIP3 H2   HT     0.417000        1.0080           0
   77326 WT5  827  TIP3 OH2  OT    -0.834000       15.9994           0
   77327 WT5  827  TIP3 H1   HT     0.417000        1.0080           0
   77328 WT5  827  TIP3 H2   HT     0.417000        1.0080           0
   77329 WT5  828  TIP3 OH2  OT    -0.834000       15.9994           0
   77330 WT5  828  TIP3 H1   HT     0.417000        1.0080           0
   77331 WT5  828  TIP3 H2   HT     0.417000        1.0080           0
   77332 WT5  829  TIP3 OH2  OT    -0.834000       15.9994           0
   77333 WT5  829  TIP3 H1   HT     0.417000        1.0080           0
   77334 WT5  829  TIP3 H2   HT     0.417000        1.0080           0
   77335 WT5  830  TIP3 OH2  OT    -0.834000       15.9994           0
   77336 WT5  830  TIP3 H1   HT     0.417000        1.0080           0
   77337 WT5  830  TIP3 H2   HT     0.417000        1.0080           0
   77338 WT5  831  TIP3 OH2  OT    -0.834000       15.9994           0
   77339 WT5  831  TIP3 H1   HT     0.417000        1.0080           0
   77340 WT5  831  TIP3 H2   HT     0.417000        1.0080           0
   77341 WT5  832  TIP3 OH2  OT    -0.834000       15.9994           0
   77342 WT5  832  TIP3 H1   HT     0.417000        1.0080           0
   77343 WT5  832  TIP3 H2   HT     0.417000        1.0080           0
   77344 WT5  833  TIP3 OH2  OT    -0.834000       15.9994           0
   77345 WT5  833  TIP3 H1   HT     0.417000        1.0080           0
   77346 WT5  833  TIP3 H2   HT     0.417000        1.0080           0
   77347 WT5  834  TIP3 OH2  OT    -0.834000       15.9994           0
   77348 WT5  834  TIP3 H1   HT     0.417000        1.0080           0
   77349 WT5  834  TIP3 H2   HT     0.417000        1.0080           0
   77350 WT5  835  TIP3 OH2  OT    -0.834000       15.9994           0
   77351 WT5  835  TIP3 H1   HT     0.417000        1.0080           0
   77352 WT5  835  TIP3 H2   HT     0.417000        1.0080           0
   77353 WT5  836  TIP3 OH2  OT    -0.834000       15.9994           0
   77354 WT5  836  TIP3 H1   HT     0.417000        1.0080           0
   77355 WT5  836  TIP3 H2   HT     0.417000        1.0080           0
   77356 WT5  842  TIP3 OH2  OT    -0.834000       15.9994           0
   77357 WT5  842  TIP3 H1   HT     0.417000        1.0080           0
   77358 WT5  842  TIP3 H2   HT     0.417000        1.0080           0
   77359 WT5  843  TIP3 OH2  OT    -0.834000       15.9994           0
   77360 WT5  843  TIP3 H1   HT     0.417000        1.0080           0
   77361 WT5  843  TIP3 H2   HT     0.417000        1.0080           0
   77362 WT5  846  TIP3 OH2  OT    -0.834000       15.9994           0
   77363 WT5  846  TIP3 H1   HT     0.417000        1.0080           0
   77364 WT5  846  TIP3 H2   HT     0.417000        1.0080           0
   77365 WT5  847  TIP3 OH2  OT    -0.834000       15.9994           0
   77366 WT5  847  TIP3 H1   HT     0.417000        1.0080           0
   77367 WT5  847  TIP3 H2   HT     0.417000        1.0080           0
   77368 WT5  849  TIP3 OH2  OT    -0.834000       15.9994           0
   77369 WT5  849  TIP3 H1   HT     0.417000        1.0080           0
   77370 WT5  849  TIP3 H2   HT     0.417000        1.0080           0
   77371 WT5  850  TIP3 OH2  OT    -0.834000       15.9994           0
   77372 WT5  850  TIP3 H1   HT     0.417000        1.0080           0
   77373 WT5  850  TIP3 H2   HT     0.417000        1.0080           0
   77374 WT5  851  TIP3 OH2  OT    -0.834000       15.9994           0
   77375 WT5  851  TIP3 H1   HT     0.417000        1.0080           0
   77376 WT5  851  TIP3 H2   HT     0.417000        1.0080           0
   77377 WT5  852  TIP3 OH2  OT    -0.834000       15.9994           0
   77378 WT5  852  TIP3 H1   HT     0.417000        1.0080           0
   77379 WT5  852  TIP3 H2   HT     0.417000        1.0080           0
   77380 WT5  854  TIP3 OH2  OT    -0.834000       15.9994           0
   77381 WT5  854  TIP3 H1   HT     0.417000        1.0080           0
   77382 WT5  854  TIP3 H2   HT     0.417000        1.0080           0
   77383 WT5  855  TIP3 OH2  OT    -0.834000       15.9994           0
   77384 WT5  855  TIP3 H1   HT     0.417000        1.0080           0
   77385 WT5  855  TIP3 H2   HT     0.417000        1.0080           0
   77386 WT5  857  TIP3 OH2  OT    -0.834000       15.9994           0
   77387 WT5  857  TIP3 H1   HT     0.417000        1.0080           0
   77388 WT5  857  TIP3 H2   HT     0.417000        1.0080           0
   77389 WT5  859  TIP3 OH2  OT    -0.834000       15.9994           0
   77390 WT5  859  TIP3 H1   HT     0.417000        1.0080           0
   77391 WT5  859  TIP3 H2   HT     0.417000        1.0080           0
   77392 WT5  861  TIP3 OH2  OT    -0.834000       15.9994           0
   77393 WT5  861  TIP3 H1   HT     0.417000        1.0080           0
   77394 WT5  861  TIP3 H2   HT     0.417000        1.0080           0
   77395 WT5  862  TIP3 OH2  OT    -0.834000       15.9994           0
   77396 WT5  862  TIP3 H1   HT     0.417000        1.0080           0
   77397 WT5  862  TIP3 H2   HT     0.417000        1.0080           0
   77398 WT5  864  TIP3 OH2  OT    -0.834000       15.9994           0
   77399 WT5  864  TIP3 H1   HT     0.417000        1.0080           0
   77400 WT5  864  TIP3 H2   HT     0.417000        1.0080           0
   77401 WT5  865  TIP3 OH2  OT    -0.834000       15.9994           0
   77402 WT5  865  TIP3 H1   HT     0.417000        1.0080           0
   77403 WT5  865  TIP3 H2   HT     0.417000        1.0080           0
   77404 WT5  867  TIP3 OH2  OT    -0.834000       15.9994           0
   77405 WT5  867  TIP3 H1   HT     0.417000        1.0080           0
   77406 WT5  867  TIP3 H2   HT     0.417000        1.0080           0
   77407 WT5  868  TIP3 OH2  OT    -0.834000       15.9994           0
   77408 WT5  868  TIP3 H1   HT     0.417000        1.0080           0
   77409 WT5  868  TIP3 H2   HT     0.417000        1.0080           0
   77410 WT5  869  TIP3 OH2  OT    -0.834000       15.9994           0
   77411 WT5  869  TIP3 H1   HT     0.417000        1.0080           0
   77412 WT5  869  TIP3 H2   HT     0.417000        1.0080           0
   77413 WT5  870  TIP3 OH2  OT    -0.834000       15.9994           0
   77414 WT5  870  TIP3 H1   HT     0.417000        1.0080           0
   77415 WT5  870  TIP3 H2   HT     0.417000        1.0080           0
   77416 WT5  873  TIP3 OH2  OT    -0.834000       15.9994           0
   77417 WT5  873  TIP3 H1   HT     0.417000        1.0080           0
   77418 WT5  873  TIP3 H2   HT     0.417000        1.0080           0
   77419 WT5  875  TIP3 OH2  OT    -0.834000       15.9994           0
   77420 WT5  875  TIP3 H1   HT     0.417000        1.0080           0
   77421 WT5  875  TIP3 H2   HT     0.417000        1.0080           0
   77422 WT5  876  TIP3 OH2  OT    -0.834000       15.9994           0
   77423 WT5  876  TIP3 H1   HT     0.417000        1.0080           0
   77424 WT5  876  TIP3 H2   HT     0.417000        1.0080           0
   77425 WT5  878  TIP3 OH2  OT    -0.834000       15.9994           0
   77426 WT5  878  TIP3 H1   HT     0.417000        1.0080           0
   77427 WT5  878  TIP3 H2   HT     0.417000        1.0080           0
   77428 WT5  880  TIP3 OH2  OT    -0.834000       15.9994           0
   77429 WT5  880  TIP3 H1   HT     0.417000        1.0080           0
   77430 WT5  880  TIP3 H2   HT     0.417000        1.0080           0
   77431 WT5  883  TIP3 OH2  OT    -0.834000       15.9994           0
   77432 WT5  883  TIP3 H1   HT     0.417000        1.0080           0
   77433 WT5  883  TIP3 H2   HT     0.417000        1.0080           0
   77434 WT5  884  TIP3 OH2  OT    -0.834000       15.9994           0
   77435 WT5  884  TIP3 H1   HT     0.417000        1.0080           0
   77436 WT5  884  TIP3 H2   HT     0.417000        1.0080           0
   77437 WT5  885  TIP3 OH2  OT    -0.834000       15.9994           0
   77438 WT5  885  TIP3 H1   HT     0.417000        1.0080           0
   77439 WT5  885  TIP3 H2   HT     0.417000        1.0080           0
   77440 WT5  887  TIP3 OH2  OT    -0.834000       15.9994           0
   77441 WT5  887  TIP3 H1   HT     0.417000        1.0080           0
   77442 WT5  887  TIP3 H2   HT     0.417000        1.0080           0
   77443 WT5  889  TIP3 OH2  OT    -0.834000       15.9994           0
   77444 WT5  889  TIP3 H1   HT     0.417000        1.0080           0
   77445 WT5  889  TIP3 H2   HT     0.417000        1.0080           0
   77446 WT5  891  TIP3 OH2  OT    -0.834000       15.9994           0
   77447 WT5  891  TIP3 H1   HT     0.417000        1.0080           0
   77448 WT5  891  TIP3 H2   HT     0.417000        1.0080           0
   77449 WT5  892  TIP3 OH2  OT    -0.834000       15.9994           0
   77450 WT5  892  TIP3 H1   HT     0.417000        1.0080           0
   77451 WT5  892  TIP3 H2   HT     0.417000        1.0080           0
   77452 WT5  894  TIP3 OH2  OT    -0.834000       15.9994           0
   77453 WT5  894  TIP3 H1   HT     0.417000        1.0080           0
   77454 WT5  894  TIP3 H2   HT     0.417000        1.0080           0
   77455 WT5  895  TIP3 OH2  OT    -0.834000       15.9994           0
   77456 WT5  895  TIP3 H1   HT     0.417000        1.0080           0
   77457 WT5  895  TIP3 H2   HT     0.417000        1.0080           0
   77458 WT5  897  TIP3 OH2  OT    -0.834000       15.9994           0
   77459 WT5  897  TIP3 H1   HT     0.417000        1.0080           0
   77460 WT5  897  TIP3 H2   HT     0.417000        1.0080           0
   77461 WT5  898  TIP3 OH2  OT    -0.834000       15.9994           0
   77462 WT5  898  TIP3 H1   HT     0.417000        1.0080           0
   77463 WT5  898  TIP3 H2   HT     0.417000        1.0080           0
   77464 WT5  899  TIP3 OH2  OT    -0.834000       15.9994           0
   77465 WT5  899  TIP3 H1   HT     0.417000        1.0080           0
   77466 WT5  899  TIP3 H2   HT     0.417000        1.0080           0
   77467 WT5  900  TIP3 OH2  OT    -0.834000       15.9994           0
   77468 WT5  900  TIP3 H1   HT     0.417000        1.0080           0
   77469 WT5  900  TIP3 H2   HT     0.417000        1.0080           0
   77470 WT5  901  TIP3 OH2  OT    -0.834000       15.9994           0
   77471 WT5  901  TIP3 H1   HT     0.417000        1.0080           0
   77472 WT5  901  TIP3 H2   HT     0.417000        1.0080           0
   77473 WT5  902  TIP3 OH2  OT    -0.834000       15.9994           0
   77474 WT5  902  TIP3 H1   HT     0.417000        1.0080           0
   77475 WT5  902  TIP3 H2   HT     0.417000        1.0080           0
   77476 WT5  905  TIP3 OH2  OT    -0.834000       15.9994           0
   77477 WT5  905  TIP3 H1   HT     0.417000        1.0080           0
   77478 WT5  905  TIP3 H2   HT     0.417000        1.0080           0
   77479 WT5  906  TIP3 OH2  OT    -0.834000       15.9994           0
   77480 WT5  906  TIP3 H1   HT     0.417000        1.0080           0
   77481 WT5  906  TIP3 H2   HT     0.417000        1.0080           0
   77482 WT5  907  TIP3 OH2  OT    -0.834000       15.9994           0
   77483 WT5  907  TIP3 H1   HT     0.417000        1.0080           0
   77484 WT5  907  TIP3 H2   HT     0.417000        1.0080           0
   77485 WT5  908  TIP3 OH2  OT    -0.834000       15.9994           0
   77486 WT5  908  TIP3 H1   HT     0.417000        1.0080           0
   77487 WT5  908  TIP3 H2   HT     0.417000        1.0080           0
   77488 WT5  909  TIP3 OH2  OT    -0.834000       15.9994           0
   77489 WT5  909  TIP3 H1   HT     0.417000        1.0080           0
   77490 WT5  909  TIP3 H2   HT     0.417000        1.0080           0
   77491 WT5  911  TIP3 OH2  OT    -0.834000       15.9994           0
   77492 WT5  911  TIP3 H1   HT     0.417000        1.0080           0
   77493 WT5  911  TIP3 H2   HT     0.417000        1.0080           0
   77494 WT5  912  TIP3 OH2  OT    -0.834000       15.9994           0
   77495 WT5  912  TIP3 H1   HT     0.417000        1.0080           0
   77496 WT5  912  TIP3 H2   HT     0.417000        1.0080           0
   77497 WT5  913  TIP3 OH2  OT    -0.834000       15.9994           0
   77498 WT5  913  TIP3 H1   HT     0.417000        1.0080           0
   77499 WT5  913  TIP3 H2   HT     0.417000        1.0080           0
   77500 WT5  914  TIP3 OH2  OT    -0.834000       15.9994           0
   77501 WT5  914  TIP3 H1   HT     0.417000        1.0080           0
   77502 WT5  914  TIP3 H2   HT     0.417000        1.0080           0
   77503 WT5  915  TIP3 OH2  OT    -0.834000       15.9994           0
   77504 WT5  915  TIP3 H1   HT     0.417000        1.0080           0
   77505 WT5  915  TIP3 H2   HT     0.417000        1.0080           0
   77506 WT5  916  TIP3 OH2  OT    -0.834000       15.9994           0
   77507 WT5  916  TIP3 H1   HT     0.417000        1.0080           0
   77508 WT5  916  TIP3 H2   HT     0.417000        1.0080           0
   77509 WT5  917  TIP3 OH2  OT    -0.834000       15.9994           0
   77510 WT5  917  TIP3 H1   HT     0.417000        1.0080           0
   77511 WT5  917  TIP3 H2   HT     0.417000        1.0080           0
   77512 WT5  920  TIP3 OH2  OT    -0.834000       15.9994           0
   77513 WT5  920  TIP3 H1   HT     0.417000        1.0080           0
   77514 WT5  920  TIP3 H2   HT     0.417000        1.0080           0
   77515 WT5  921  TIP3 OH2  OT    -0.834000       15.9994           0
   77516 WT5  921  TIP3 H1   HT     0.417000        1.0080           0
   77517 WT5  921  TIP3 H2   HT     0.417000        1.0080           0
   77518 WT5  922  TIP3 OH2  OT    -0.834000       15.9994           0
   77519 WT5  922  TIP3 H1   HT     0.417000        1.0080           0
   77520 WT5  922  TIP3 H2   HT     0.417000        1.0080           0
   77521 WT5  923  TIP3 OH2  OT    -0.834000       15.9994           0
   77522 WT5  923  TIP3 H1   HT     0.417000        1.0080           0
   77523 WT5  923  TIP3 H2   HT     0.417000        1.0080           0
   77524 WT5  924  TIP3 OH2  OT    -0.834000       15.9994           0
   77525 WT5  924  TIP3 H1   HT     0.417000        1.0080           0
   77526 WT5  924  TIP3 H2   HT     0.417000        1.0080           0
   77527 WT5  925  TIP3 OH2  OT    -0.834000       15.9994           0
   77528 WT5  925  TIP3 H1   HT     0.417000        1.0080           0
   77529 WT5  925  TIP3 H2   HT     0.417000        1.0080           0
   77530 WT5  926  TIP3 OH2  OT    -0.834000       15.9994           0
   77531 WT5  926  TIP3 H1   HT     0.417000        1.0080           0
   77532 WT5  926  TIP3 H2   HT     0.417000        1.0080           0
   77533 WT5  927  TIP3 OH2  OT    -0.834000       15.9994           0
   77534 WT5  927  TIP3 H1   HT     0.417000        1.0080           0
   77535 WT5  927  TIP3 H2   HT     0.417000        1.0080           0
   77536 WT5  928  TIP3 OH2  OT    -0.834000       15.9994           0
   77537 WT5  928  TIP3 H1   HT     0.417000        1.0080           0
   77538 WT5  928  TIP3 H2   HT     0.417000        1.0080           0
   77539 WT5  929  TIP3 OH2  OT    -0.834000       15.9994           0
   77540 WT5  929  TIP3 H1   HT     0.417000        1.0080           0
   77541 WT5  929  TIP3 H2   HT     0.417000        1.0080           0
   77542 WT5  930  TIP3 OH2  OT    -0.834000       15.9994           0
   77543 WT5  930  TIP3 H1   HT     0.417000        1.0080           0
   77544 WT5  930  TIP3 H2   HT     0.417000        1.0080           0
   77545 WT5  931  TIP3 OH2  OT    -0.834000       15.9994           0
   77546 WT5  931  TIP3 H1   HT     0.417000        1.0080           0
   77547 WT5  931  TIP3 H2   HT     0.417000        1.0080           0
   77548 WT5  932  TIP3 OH2  OT    -0.834000       15.9994           0
   77549 WT5  932  TIP3 H1   HT     0.417000        1.0080           0
   77550 WT5  932  TIP3 H2   HT     0.417000        1.0080           0
   77551 WT5  933  TIP3 OH2  OT    -0.834000       15.9994           0
   77552 WT5  933  TIP3 H1   HT     0.417000        1.0080           0
   77553 WT5  933  TIP3 H2   HT     0.417000        1.0080           0
   77554 WT5  934  TIP3 OH2  OT    -0.834000       15.9994           0
   77555 WT5  934  TIP3 H1   HT     0.417000        1.0080           0
   77556 WT5  934  TIP3 H2   HT     0.417000        1.0080           0
   77557 WT5  935  TIP3 OH2  OT    -0.834000       15.9994           0
   77558 WT5  935  TIP3 H1   HT     0.417000        1.0080           0
   77559 WT5  935  TIP3 H2   HT     0.417000        1.0080           0
   77560 WT5  936  TIP3 OH2  OT    -0.834000       15.9994           0
   77561 WT5  936  TIP3 H1   HT     0.417000        1.0080           0
   77562 WT5  936  TIP3 H2   HT     0.417000        1.0080           0
   77563 WT5  937  TIP3 OH2  OT    -0.834000       15.9994           0
   77564 WT5  937  TIP3 H1   HT     0.417000        1.0080           0
   77565 WT5  937  TIP3 H2   HT     0.417000        1.0080           0
   77566 WT5  940  TIP3 OH2  OT    -0.834000       15.9994           0
   77567 WT5  940  TIP3 H1   HT     0.417000        1.0080           0
   77568 WT5  940  TIP3 H2   HT     0.417000        1.0080           0
   77569 WT5  941  TIP3 OH2  OT    -0.834000       15.9994           0
   77570 WT5  941  TIP3 H1   HT     0.417000        1.0080           0
   77571 WT5  941  TIP3 H2   HT     0.417000        1.0080           0
   77572 WT5  942  TIP3 OH2  OT    -0.834000       15.9994           0
   77573 WT5  942  TIP3 H1   HT     0.417000        1.0080           0
   77574 WT5  942  TIP3 H2   HT     0.417000        1.0080           0
   77575 WT5  944  TIP3 OH2  OT    -0.834000       15.9994           0
   77576 WT5  944  TIP3 H1   HT     0.417000        1.0080           0
   77577 WT5  944  TIP3 H2   HT     0.417000        1.0080           0
   77578 WT5  946  TIP3 OH2  OT    -0.834000       15.9994           0
   77579 WT5  946  TIP3 H1   HT     0.417000        1.0080           0
   77580 WT5  946  TIP3 H2   HT     0.417000        1.0080           0
   77581 WT5  947  TIP3 OH2  OT    -0.834000       15.9994           0
   77582 WT5  947  TIP3 H1   HT     0.417000        1.0080           0
   77583 WT5  947  TIP3 H2   HT     0.417000        1.0080           0
   77584 WT5  948  TIP3 OH2  OT    -0.834000       15.9994           0
   77585 WT5  948  TIP3 H1   HT     0.417000        1.0080           0
   77586 WT5  948  TIP3 H2   HT     0.417000        1.0080           0
   77587 WT5  949  TIP3 OH2  OT    -0.834000       15.9994           0
   77588 WT5  949  TIP3 H1   HT     0.417000        1.0080           0
   77589 WT5  949  TIP3 H2   HT     0.417000        1.0080           0
   77590 WT5  950  TIP3 OH2  OT    -0.834000       15.9994           0
   77591 WT5  950  TIP3 H1   HT     0.417000        1.0080           0
   77592 WT5  950  TIP3 H2   HT     0.417000        1.0080           0
   77593 WT5  951  TIP3 OH2  OT    -0.834000       15.9994           0
   77594 WT5  951  TIP3 H1   HT     0.417000        1.0080           0
   77595 WT5  951  TIP3 H2   HT     0.417000        1.0080           0
   77596 WT5  952  TIP3 OH2  OT    -0.834000       15.9994           0
   77597 WT5  952  TIP3 H1   HT     0.417000        1.0080           0
   77598 WT5  952  TIP3 H2   HT     0.417000        1.0080           0
   77599 WT5  953  TIP3 OH2  OT    -0.834000       15.9994           0
   77600 WT5  953  TIP3 H1   HT     0.417000        1.0080           0
   77601 WT5  953  TIP3 H2   HT     0.417000        1.0080           0
   77602 WT5  954  TIP3 OH2  OT    -0.834000       15.9994           0
   77603 WT5  954  TIP3 H1   HT     0.417000        1.0080           0
   77604 WT5  954  TIP3 H2   HT     0.417000        1.0080           0
   77605 WT5  955  TIP3 OH2  OT    -0.834000       15.9994           0
   77606 WT5  955  TIP3 H1   HT     0.417000        1.0080           0
   77607 WT5  955  TIP3 H2   HT     0.417000        1.0080           0
   77608 WT5  957  TIP3 OH2  OT    -0.834000       15.9994           0
   77609 WT5  957  TIP3 H1   HT     0.417000        1.0080           0
   77610 WT5  957  TIP3 H2   HT     0.417000        1.0080           0
   77611 WT5  958  TIP3 OH2  OT    -0.834000       15.9994           0
   77612 WT5  958  TIP3 H1   HT     0.417000        1.0080           0
   77613 WT5  958  TIP3 H2   HT     0.417000        1.0080           0
   77614 WT5  961  TIP3 OH2  OT    -0.834000       15.9994           0
   77615 WT5  961  TIP3 H1   HT     0.417000        1.0080           0
   77616 WT5  961  TIP3 H2   HT     0.417000        1.0080           0
   77617 WT5  962  TIP3 OH2  OT    -0.834000       15.9994           0
   77618 WT5  962  TIP3 H1   HT     0.417000        1.0080           0
   77619 WT5  962  TIP3 H2   HT     0.417000        1.0080           0
   77620 WT5  964  TIP3 OH2  OT    -0.834000       15.9994           0
   77621 WT5  964  TIP3 H1   HT     0.417000        1.0080           0
   77622 WT5  964  TIP3 H2   HT     0.417000        1.0080           0
   77623 WT5  966  TIP3 OH2  OT    -0.834000       15.9994           0
   77624 WT5  966  TIP3 H1   HT     0.417000        1.0080           0
   77625 WT5  966  TIP3 H2   HT     0.417000        1.0080           0
   77626 WT5  968  TIP3 OH2  OT    -0.834000       15.9994           0
   77627 WT5  968  TIP3 H1   HT     0.417000        1.0080           0
   77628 WT5  968  TIP3 H2   HT     0.417000        1.0080           0
   77629 WT5  969  TIP3 OH2  OT    -0.834000       15.9994           0
   77630 WT5  969  TIP3 H1   HT     0.417000        1.0080           0
   77631 WT5  969  TIP3 H2   HT     0.417000        1.0080           0
   77632 WT5  970  TIP3 OH2  OT    -0.834000       15.9994           0
   77633 WT5  970  TIP3 H1   HT     0.417000        1.0080           0
   77634 WT5  970  TIP3 H2   HT     0.417000        1.0080           0
   77635 WT5  972  TIP3 OH2  OT    -0.834000       15.9994           0
   77636 WT5  972  TIP3 H1   HT     0.417000        1.0080           0
   77637 WT5  972  TIP3 H2   HT     0.417000        1.0080           0
   77638 WT5  973  TIP3 OH2  OT    -0.834000       15.9994           0
   77639 WT5  973  TIP3 H1   HT     0.417000        1.0080           0
   77640 WT5  973  TIP3 H2   HT     0.417000        1.0080           0
   77641 WT5  974  TIP3 OH2  OT    -0.834000       15.9994           0
   77642 WT5  974  TIP3 H1   HT     0.417000        1.0080           0
   77643 WT5  974  TIP3 H2   HT     0.417000        1.0080           0
   77644 WT5  975  TIP3 OH2  OT    -0.834000       15.9994           0
   77645 WT5  975  TIP3 H1   HT     0.417000        1.0080           0
   77646 WT5  975  TIP3 H2   HT     0.417000        1.0080           0
   77647 WT5  977  TIP3 OH2  OT    -0.834000       15.9994           0
   77648 WT5  977  TIP3 H1   HT     0.417000        1.0080           0
   77649 WT5  977  TIP3 H2   HT     0.417000        1.0080           0
   77650 WT5  978  TIP3 OH2  OT    -0.834000       15.9994           0
   77651 WT5  978  TIP3 H1   HT     0.417000        1.0080           0
   77652 WT5  978  TIP3 H2   HT     0.417000        1.0080           0
   77653 WT5  981  TIP3 OH2  OT    -0.834000       15.9994           0
   77654 WT5  981  TIP3 H1   HT     0.417000        1.0080           0
   77655 WT5  981  TIP3 H2   HT     0.417000        1.0080           0
   77656 WT5  982  TIP3 OH2  OT    -0.834000       15.9994           0
   77657 WT5  982  TIP3 H1   HT     0.417000        1.0080           0
   77658 WT5  982  TIP3 H2   HT     0.417000        1.0080           0
   77659 WT5  983  TIP3 OH2  OT    -0.834000       15.9994           0
   77660 WT5  983  TIP3 H1   HT     0.417000        1.0080           0
   77661 WT5  983  TIP3 H2   HT     0.417000        1.0080           0
   77662 WT5  985  TIP3 OH2  OT    -0.834000       15.9994           0
   77663 WT5  985  TIP3 H1   HT     0.417000        1.0080           0
   77664 WT5  985  TIP3 H2   HT     0.417000        1.0080           0
   77665 WT5  988  TIP3 OH2  OT    -0.834000       15.9994           0
   77666 WT5  988  TIP3 H1   HT     0.417000        1.0080           0
   77667 WT5  988  TIP3 H2   HT     0.417000        1.0080           0
   77668 WT5  989  TIP3 OH2  OT    -0.834000       15.9994           0
   77669 WT5  989  TIP3 H1   HT     0.417000        1.0080           0
   77670 WT5  989  TIP3 H2   HT     0.417000        1.0080           0
   77671 WT5  990  TIP3 OH2  OT    -0.834000       15.9994           0
   77672 WT5  990  TIP3 H1   HT     0.417000        1.0080           0
   77673 WT5  990  TIP3 H2   HT     0.417000        1.0080           0
   77674 WT5  991  TIP3 OH2  OT    -0.834000       15.9994           0
   77675 WT5  991  TIP3 H1   HT     0.417000        1.0080           0
   77676 WT5  991  TIP3 H2   HT     0.417000        1.0080           0
   77677 WT5  992  TIP3 OH2  OT    -0.834000       15.9994           0
   77678 WT5  992  TIP3 H1   HT     0.417000        1.0080           0
   77679 WT5  992  TIP3 H2   HT     0.417000        1.0080           0
   77680 WT5  994  TIP3 OH2  OT    -0.834000       15.9994           0
   77681 WT5  994  TIP3 H1   HT     0.417000        1.0080           0
   77682 WT5  994  TIP3 H2   HT     0.417000        1.0080           0
   77683 WT5  995  TIP3 OH2  OT    -0.834000       15.9994           0
   77684 WT5  995  TIP3 H1   HT     0.417000        1.0080           0
   77685 WT5  995  TIP3 H2   HT     0.417000        1.0080           0
   77686 WT5  996  TIP3 OH2  OT    -0.834000       15.9994           0
   77687 WT5  996  TIP3 H1   HT     0.417000        1.0080           0
   77688 WT5  996  TIP3 H2   HT     0.417000        1.0080           0
   77689 WT5  998  TIP3 OH2  OT    -0.834000       15.9994           0
   77690 WT5  998  TIP3 H1   HT     0.417000        1.0080           0
   77691 WT5  998  TIP3 H2   HT     0.417000        1.0080           0
   77692 WT5  999  TIP3 OH2  OT    -0.834000       15.9994           0
   77693 WT5  999  TIP3 H1   HT     0.417000        1.0080           0
   77694 WT5  999  TIP3 H2   HT     0.417000        1.0080           0
   77695 WT5  1002 TIP3 OH2  OT    -0.834000       15.9994           0
   77696 WT5  1002 TIP3 H1   HT     0.417000        1.0080           0
   77697 WT5  1002 TIP3 H2   HT     0.417000        1.0080           0
   77698 WT5  1004 TIP3 OH2  OT    -0.834000       15.9994           0
   77699 WT5  1004 TIP3 H1   HT     0.417000        1.0080           0
   77700 WT5  1004 TIP3 H2   HT     0.417000        1.0080           0
   77701 WT5  1006 TIP3 OH2  OT    -0.834000       15.9994           0
   77702 WT5  1006 TIP3 H1   HT     0.417000        1.0080           0
   77703 WT5  1006 TIP3 H2   HT     0.417000        1.0080           0
   77704 WT5  1007 TIP3 OH2  OT    -0.834000       15.9994           0
   77705 WT5  1007 TIP3 H1   HT     0.417000        1.0080           0
   77706 WT5  1007 TIP3 H2   HT     0.417000        1.0080           0
   77707 WT5  1008 TIP3 OH2  OT    -0.834000       15.9994           0
   77708 WT5  1008 TIP3 H1   HT     0.417000        1.0080           0
   77709 WT5  1008 TIP3 H2   HT     0.417000        1.0080           0
   77710 WT5  1009 TIP3 OH2  OT    -0.834000       15.9994           0
   77711 WT5  1009 TIP3 H1   HT     0.417000        1.0080           0
   77712 WT5  1009 TIP3 H2   HT     0.417000        1.0080           0
   77713 WT5  1011 TIP3 OH2  OT    -0.834000       15.9994           0
   77714 WT5  1011 TIP3 H1   HT     0.417000        1.0080           0
   77715 WT5  1011 TIP3 H2   HT     0.417000        1.0080           0
   77716 WT5  1013 TIP3 OH2  OT    -0.834000       15.9994           0
   77717 WT5  1013 TIP3 H1   HT     0.417000        1.0080           0
   77718 WT5  1013 TIP3 H2   HT     0.417000        1.0080           0
   77719 WT5  1014 TIP3 OH2  OT    -0.834000       15.9994           0
   77720 WT5  1014 TIP3 H1   HT     0.417000        1.0080           0
   77721 WT5  1014 TIP3 H2   HT     0.417000        1.0080           0
   77722 WT5  1015 TIP3 OH2  OT    -0.834000       15.9994           0
   77723 WT5  1015 TIP3 H1   HT     0.417000        1.0080           0
   77724 WT5  1015 TIP3 H2   HT     0.417000        1.0080           0
   77725 WT5  1017 TIP3 OH2  OT    -0.834000       15.9994           0
   77726 WT5  1017 TIP3 H1   HT     0.417000        1.0080           0
   77727 WT5  1017 TIP3 H2   HT     0.417000        1.0080           0
   77728 WT5  1018 TIP3 OH2  OT    -0.834000       15.9994           0
   77729 WT5  1018 TIP3 H1   HT     0.417000        1.0080           0
   77730 WT5  1018 TIP3 H2   HT     0.417000        1.0080           0
   77731 WT5  1019 TIP3 OH2  OT    -0.834000       15.9994           0
   77732 WT5  1019 TIP3 H1   HT     0.417000        1.0080           0
   77733 WT5  1019 TIP3 H2   HT     0.417000        1.0080           0
   77734 WT5  1020 TIP3 OH2  OT    -0.834000       15.9994           0
   77735 WT5  1020 TIP3 H1   HT     0.417000        1.0080           0
   77736 WT5  1020 TIP3 H2   HT     0.417000        1.0080           0
   77737 WT5  1022 TIP3 OH2  OT    -0.834000       15.9994           0
   77738 WT5  1022 TIP3 H1   HT     0.417000        1.0080           0
   77739 WT5  1022 TIP3 H2   HT     0.417000        1.0080           0
   77740 WT5  1023 TIP3 OH2  OT    -0.834000       15.9994           0
   77741 WT5  1023 TIP3 H1   HT     0.417000        1.0080           0
   77742 WT5  1023 TIP3 H2   HT     0.417000        1.0080           0
   77743 WT5  1024 TIP3 OH2  OT    -0.834000       15.9994           0
   77744 WT5  1024 TIP3 H1   HT     0.417000        1.0080           0
   77745 WT5  1024 TIP3 H2   HT     0.417000        1.0080           0
   77746 WT5  1027 TIP3 OH2  OT    -0.834000       15.9994           0
   77747 WT5  1027 TIP3 H1   HT     0.417000        1.0080           0
   77748 WT5  1027 TIP3 H2   HT     0.417000        1.0080           0
   77749 WT5  1030 TIP3 OH2  OT    -0.834000       15.9994           0
   77750 WT5  1030 TIP3 H1   HT     0.417000        1.0080           0
   77751 WT5  1030 TIP3 H2   HT     0.417000        1.0080           0
   77752 WT5  1032 TIP3 OH2  OT    -0.834000       15.9994           0
   77753 WT5  1032 TIP3 H1   HT     0.417000        1.0080           0
   77754 WT5  1032 TIP3 H2   HT     0.417000        1.0080           0
   77755 WT5  1033 TIP3 OH2  OT    -0.834000       15.9994           0
   77756 WT5  1033 TIP3 H1   HT     0.417000        1.0080           0
   77757 WT5  1033 TIP3 H2   HT     0.417000        1.0080           0
   77758 WT5  1034 TIP3 OH2  OT    -0.834000       15.9994           0
   77759 WT5  1034 TIP3 H1   HT     0.417000        1.0080           0
   77760 WT5  1034 TIP3 H2   HT     0.417000        1.0080           0
   77761 WT5  1039 TIP3 OH2  OT    -0.834000       15.9994           0
   77762 WT5  1039 TIP3 H1   HT     0.417000        1.0080           0
   77763 WT5  1039 TIP3 H2   HT     0.417000        1.0080           0
   77764 WT5  1040 TIP3 OH2  OT    -0.834000       15.9994           0
   77765 WT5  1040 TIP3 H1   HT     0.417000        1.0080           0
   77766 WT5  1040 TIP3 H2   HT     0.417000        1.0080           0
   77767 WT5  1042 TIP3 OH2  OT    -0.834000       15.9994           0
   77768 WT5  1042 TIP3 H1   HT     0.417000        1.0080           0
   77769 WT5  1042 TIP3 H2   HT     0.417000        1.0080           0
   77770 WT5  1043 TIP3 OH2  OT    -0.834000       15.9994           0
   77771 WT5  1043 TIP3 H1   HT     0.417000        1.0080           0
   77772 WT5  1043 TIP3 H2   HT     0.417000        1.0080           0
   77773 WT5  1045 TIP3 OH2  OT    -0.834000       15.9994           0
   77774 WT5  1045 TIP3 H1   HT     0.417000        1.0080           0
   77775 WT5  1045 TIP3 H2   HT     0.417000        1.0080           0
   77776 WT5  1047 TIP3 OH2  OT    -0.834000       15.9994           0
   77777 WT5  1047 TIP3 H1   HT     0.417000        1.0080           0
   77778 WT5  1047 TIP3 H2   HT     0.417000        1.0080           0
   77779 WT5  1048 TIP3 OH2  OT    -0.834000       15.9994           0
   77780 WT5  1048 TIP3 H1   HT     0.417000        1.0080           0
   77781 WT5  1048 TIP3 H2   HT     0.417000        1.0080           0
   77782 WT5  1050 TIP3 OH2  OT    -0.834000       15.9994           0
   77783 WT5  1050 TIP3 H1   HT     0.417000        1.0080           0
   77784 WT5  1050 TIP3 H2   HT     0.417000        1.0080           0
   77785 WT5  1052 TIP3 OH2  OT    -0.834000       15.9994           0
   77786 WT5  1052 TIP3 H1   HT     0.417000        1.0080           0
   77787 WT5  1052 TIP3 H2   HT     0.417000        1.0080           0
   77788 WT5  1053 TIP3 OH2  OT    -0.834000       15.9994           0
   77789 WT5  1053 TIP3 H1   HT     0.417000        1.0080           0
   77790 WT5  1053 TIP3 H2   HT     0.417000        1.0080           0
   77791 WT5  1054 TIP3 OH2  OT    -0.834000       15.9994           0
   77792 WT5  1054 TIP3 H1   HT     0.417000        1.0080           0
   77793 WT5  1054 TIP3 H2   HT     0.417000        1.0080           0
   77794 WT5  1055 TIP3 OH2  OT    -0.834000       15.9994           0
   77795 WT5  1055 TIP3 H1   HT     0.417000        1.0080           0
   77796 WT5  1055 TIP3 H2   HT     0.417000        1.0080           0
   77797 WT5  1056 TIP3 OH2  OT    -0.834000       15.9994           0
   77798 WT5  1056 TIP3 H1   HT     0.417000        1.0080           0
   77799 WT5  1056 TIP3 H2   HT     0.417000        1.0080           0
   77800 WT5  1057 TIP3 OH2  OT    -0.834000       15.9994           0
   77801 WT5  1057 TIP3 H1   HT     0.417000        1.0080           0
   77802 WT5  1057 TIP3 H2   HT     0.417000        1.0080           0
   77803 WT5  1058 TIP3 OH2  OT    -0.834000       15.9994           0
   77804 WT5  1058 TIP3 H1   HT     0.417000        1.0080           0
   77805 WT5  1058 TIP3 H2   HT     0.417000        1.0080           0
   77806 WT5  1059 TIP3 OH2  OT    -0.834000       15.9994           0
   77807 WT5  1059 TIP3 H1   HT     0.417000        1.0080           0
   77808 WT5  1059 TIP3 H2   HT     0.417000        1.0080           0
   77809 WT5  1060 TIP3 OH2  OT    -0.834000       15.9994           0
   77810 WT5  1060 TIP3 H1   HT     0.417000        1.0080           0
   77811 WT5  1060 TIP3 H2   HT     0.417000        1.0080           0
   77812 WT5  1061 TIP3 OH2  OT    -0.834000       15.9994           0
   77813 WT5  1061 TIP3 H1   HT     0.417000        1.0080           0
   77814 WT5  1061 TIP3 H2   HT     0.417000        1.0080           0
   77815 WT5  1062 TIP3 OH2  OT    -0.834000       15.9994           0
   77816 WT5  1062 TIP3 H1   HT     0.417000        1.0080           0
   77817 WT5  1062 TIP3 H2   HT     0.417000        1.0080           0
   77818 WT5  1063 TIP3 OH2  OT    -0.834000       15.9994           0
   77819 WT5  1063 TIP3 H1   HT     0.417000        1.0080           0
   77820 WT5  1063 TIP3 H2   HT     0.417000        1.0080           0
   77821 WT5  1064 TIP3 OH2  OT    -0.834000       15.9994           0
   77822 WT5  1064 TIP3 H1   HT     0.417000        1.0080           0
   77823 WT5  1064 TIP3 H2   HT     0.417000        1.0080           0
   77824 WT5  1065 TIP3 OH2  OT    -0.834000       15.9994           0
   77825 WT5  1065 TIP3 H1   HT     0.417000        1.0080           0
   77826 WT5  1065 TIP3 H2   HT     0.417000        1.0080           0
   77827 WT5  1066 TIP3 OH2  OT    -0.834000       15.9994           0
   77828 WT5  1066 TIP3 H1   HT     0.417000        1.0080           0
   77829 WT5  1066 TIP3 H2   HT     0.417000        1.0080           0
   77830 WT5  1068 TIP3 OH2  OT    -0.834000       15.9994           0
   77831 WT5  1068 TIP3 H1   HT     0.417000        1.0080           0
   77832 WT5  1068 TIP3 H2   HT     0.417000        1.0080           0
   77833 WT5  1069 TIP3 OH2  OT    -0.834000       15.9994           0
   77834 WT5  1069 TIP3 H1   HT     0.417000        1.0080           0
   77835 WT5  1069 TIP3 H2   HT     0.417000        1.0080           0
   77836 WT5  1071 TIP3 OH2  OT    -0.834000       15.9994           0
   77837 WT5  1071 TIP3 H1   HT     0.417000        1.0080           0
   77838 WT5  1071 TIP3 H2   HT     0.417000        1.0080           0
   77839 WT5  1072 TIP3 OH2  OT    -0.834000       15.9994           0
   77840 WT5  1072 TIP3 H1   HT     0.417000        1.0080           0
   77841 WT5  1072 TIP3 H2   HT     0.417000        1.0080           0
   77842 WT5  1073 TIP3 OH2  OT    -0.834000       15.9994           0
   77843 WT5  1073 TIP3 H1   HT     0.417000        1.0080           0
   77844 WT5  1073 TIP3 H2   HT     0.417000        1.0080           0
   77845 WT5  1074 TIP3 OH2  OT    -0.834000       15.9994           0
   77846 WT5  1074 TIP3 H1   HT     0.417000        1.0080           0
   77847 WT5  1074 TIP3 H2   HT     0.417000        1.0080           0
   77848 WT5  1076 TIP3 OH2  OT    -0.834000       15.9994           0
   77849 WT5  1076 TIP3 H1   HT     0.417000        1.0080           0
   77850 WT5  1076 TIP3 H2   HT     0.417000        1.0080           0
   77851 WT5  1077 TIP3 OH2  OT    -0.834000       15.9994           0
   77852 WT5  1077 TIP3 H1   HT     0.417000        1.0080           0
   77853 WT5  1077 TIP3 H2   HT     0.417000        1.0080           0
   77854 WT5  1078 TIP3 OH2  OT    -0.834000       15.9994           0
   77855 WT5  1078 TIP3 H1   HT     0.417000        1.0080           0
   77856 WT5  1078 TIP3 H2   HT     0.417000        1.0080           0
   77857 WT5  1079 TIP3 OH2  OT    -0.834000       15.9994           0
   77858 WT5  1079 TIP3 H1   HT     0.417000        1.0080           0
   77859 WT5  1079 TIP3 H2   HT     0.417000        1.0080           0
   77860 WT5  1080 TIP3 OH2  OT    -0.834000       15.9994           0
   77861 WT5  1080 TIP3 H1   HT     0.417000        1.0080           0
   77862 WT5  1080 TIP3 H2   HT     0.417000        1.0080           0
   77863 WT5  1081 TIP3 OH2  OT    -0.834000       15.9994           0
   77864 WT5  1081 TIP3 H1   HT     0.417000        1.0080           0
   77865 WT5  1081 TIP3 H2   HT     0.417000        1.0080           0
   77866 WT5  1082 TIP3 OH2  OT    -0.834000       15.9994           0
   77867 WT5  1082 TIP3 H1   HT     0.417000        1.0080           0
   77868 WT5  1082 TIP3 H2   HT     0.417000        1.0080           0
   77869 WT5  1083 TIP3 OH2  OT    -0.834000       15.9994           0
   77870 WT5  1083 TIP3 H1   HT     0.417000        1.0080           0
   77871 WT5  1083 TIP3 H2   HT     0.417000        1.0080           0
   77872 WT5  1085 TIP3 OH2  OT    -0.834000       15.9994           0
   77873 WT5  1085 TIP3 H1   HT     0.417000        1.0080           0
   77874 WT5  1085 TIP3 H2   HT     0.417000        1.0080           0
   77875 WT5  1087 TIP3 OH2  OT    -0.834000       15.9994           0
   77876 WT5  1087 TIP3 H1   HT     0.417000        1.0080           0
   77877 WT5  1087 TIP3 H2   HT     0.417000        1.0080           0
   77878 WT5  1088 TIP3 OH2  OT    -0.834000       15.9994           0
   77879 WT5  1088 TIP3 H1   HT     0.417000        1.0080           0
   77880 WT5  1088 TIP3 H2   HT     0.417000        1.0080           0
   77881 WT5  1090 TIP3 OH2  OT    -0.834000       15.9994           0
   77882 WT5  1090 TIP3 H1   HT     0.417000        1.0080           0
   77883 WT5  1090 TIP3 H2   HT     0.417000        1.0080           0
   77884 WT5  1095 TIP3 OH2  OT    -0.834000       15.9994           0
   77885 WT5  1095 TIP3 H1   HT     0.417000        1.0080           0
   77886 WT5  1095 TIP3 H2   HT     0.417000        1.0080           0
   77887 WT5  1096 TIP3 OH2  OT    -0.834000       15.9994           0
   77888 WT5  1096 TIP3 H1   HT     0.417000        1.0080           0
   77889 WT5  1096 TIP3 H2   HT     0.417000        1.0080           0
   77890 WT5  1097 TIP3 OH2  OT    -0.834000       15.9994           0
   77891 WT5  1097 TIP3 H1   HT     0.417000        1.0080           0
   77892 WT5  1097 TIP3 H2   HT     0.417000        1.0080           0
   77893 WT5  1098 TIP3 OH2  OT    -0.834000       15.9994           0
   77894 WT5  1098 TIP3 H1   HT     0.417000        1.0080           0
   77895 WT5  1098 TIP3 H2   HT     0.417000        1.0080           0
   77896 WT5  1099 TIP3 OH2  OT    -0.834000       15.9994           0
   77897 WT5  1099 TIP3 H1   HT     0.417000        1.0080           0
   77898 WT5  1099 TIP3 H2   HT     0.417000        1.0080           0
   77899 WT5  1100 TIP3 OH2  OT    -0.834000       15.9994           0
   77900 WT5  1100 TIP3 H1   HT     0.417000        1.0080           0
   77901 WT5  1100 TIP3 H2   HT     0.417000        1.0080           0
   77902 WT5  1101 TIP3 OH2  OT    -0.834000       15.9994           0
   77903 WT5  1101 TIP3 H1   HT     0.417000        1.0080           0
   77904 WT5  1101 TIP3 H2   HT     0.417000        1.0080           0
   77905 WT5  1102 TIP3 OH2  OT    -0.834000       15.9994           0
   77906 WT5  1102 TIP3 H1   HT     0.417000        1.0080           0
   77907 WT5  1102 TIP3 H2   HT     0.417000        1.0080           0
   77908 WT5  1103 TIP3 OH2  OT    -0.834000       15.9994           0
   77909 WT5  1103 TIP3 H1   HT     0.417000        1.0080           0
   77910 WT5  1103 TIP3 H2   HT     0.417000        1.0080           0
   77911 WT5  1104 TIP3 OH2  OT    -0.834000       15.9994           0
   77912 WT5  1104 TIP3 H1   HT     0.417000        1.0080           0
   77913 WT5  1104 TIP3 H2   HT     0.417000        1.0080           0
   77914 WT5  1105 TIP3 OH2  OT    -0.834000       15.9994           0
   77915 WT5  1105 TIP3 H1   HT     0.417000        1.0080           0
   77916 WT5  1105 TIP3 H2   HT     0.417000        1.0080           0
   77917 WT5  1107 TIP3 OH2  OT    -0.834000       15.9994           0
   77918 WT5  1107 TIP3 H1   HT     0.417000        1.0080           0
   77919 WT5  1107 TIP3 H2   HT     0.417000        1.0080           0
   77920 WT5  1112 TIP3 OH2  OT    -0.834000       15.9994           0
   77921 WT5  1112 TIP3 H1   HT     0.417000        1.0080           0
   77922 WT5  1112 TIP3 H2   HT     0.417000        1.0080           0
   77923 WT5  1113 TIP3 OH2  OT    -0.834000       15.9994           0
   77924 WT5  1113 TIP3 H1   HT     0.417000        1.0080           0
   77925 WT5  1113 TIP3 H2   HT     0.417000        1.0080           0
   77926 WT5  1115 TIP3 OH2  OT    -0.834000       15.9994           0
   77927 WT5  1115 TIP3 H1   HT     0.417000        1.0080           0
   77928 WT5  1115 TIP3 H2   HT     0.417000        1.0080           0
   77929 WT5  1116 TIP3 OH2  OT    -0.834000       15.9994           0
   77930 WT5  1116 TIP3 H1   HT     0.417000        1.0080           0
   77931 WT5  1116 TIP3 H2   HT     0.417000        1.0080           0
   77932 WT5  1117 TIP3 OH2  OT    -0.834000       15.9994           0
   77933 WT5  1117 TIP3 H1   HT     0.417000        1.0080           0
   77934 WT5  1117 TIP3 H2   HT     0.417000        1.0080           0
   77935 WT5  1118 TIP3 OH2  OT    -0.834000       15.9994           0
   77936 WT5  1118 TIP3 H1   HT     0.417000        1.0080           0
   77937 WT5  1118 TIP3 H2   HT     0.417000        1.0080           0
   77938 WT5  1120 TIP3 OH2  OT    -0.834000       15.9994           0
   77939 WT5  1120 TIP3 H1   HT     0.417000        1.0080           0
   77940 WT5  1120 TIP3 H2   HT     0.417000        1.0080           0
   77941 WT5  1121 TIP3 OH2  OT    -0.834000       15.9994           0
   77942 WT5  1121 TIP3 H1   HT     0.417000        1.0080           0
   77943 WT5  1121 TIP3 H2   HT     0.417000        1.0080           0
   77944 WT5  1122 TIP3 OH2  OT    -0.834000       15.9994           0
   77945 WT5  1122 TIP3 H1   HT     0.417000        1.0080           0
   77946 WT5  1122 TIP3 H2   HT     0.417000        1.0080           0
   77947 WT5  1123 TIP3 OH2  OT    -0.834000       15.9994           0
   77948 WT5  1123 TIP3 H1   HT     0.417000        1.0080           0
   77949 WT5  1123 TIP3 H2   HT     0.417000        1.0080           0
   77950 WT5  1125 TIP3 OH2  OT    -0.834000       15.9994           0
   77951 WT5  1125 TIP3 H1   HT     0.417000        1.0080           0
   77952 WT5  1125 TIP3 H2   HT     0.417000        1.0080           0
   77953 WT5  1127 TIP3 OH2  OT    -0.834000       15.9994           0
   77954 WT5  1127 TIP3 H1   HT     0.417000        1.0080           0
   77955 WT5  1127 TIP3 H2   HT     0.417000        1.0080           0
   77956 WT5  1128 TIP3 OH2  OT    -0.834000       15.9994           0
   77957 WT5  1128 TIP3 H1   HT     0.417000        1.0080           0
   77958 WT5  1128 TIP3 H2   HT     0.417000        1.0080           0
   77959 WT5  1129 TIP3 OH2  OT    -0.834000       15.9994           0
   77960 WT5  1129 TIP3 H1   HT     0.417000        1.0080           0
   77961 WT5  1129 TIP3 H2   HT     0.417000        1.0080           0
   77962 WT5  1132 TIP3 OH2  OT    -0.834000       15.9994           0
   77963 WT5  1132 TIP3 H1   HT     0.417000        1.0080           0
   77964 WT5  1132 TIP3 H2   HT     0.417000        1.0080           0
   77965 WT5  1133 TIP3 OH2  OT    -0.834000       15.9994           0
   77966 WT5  1133 TIP3 H1   HT     0.417000        1.0080           0
   77967 WT5  1133 TIP3 H2   HT     0.417000        1.0080           0
   77968 WT5  1134 TIP3 OH2  OT    -0.834000       15.9994           0
   77969 WT5  1134 TIP3 H1   HT     0.417000        1.0080           0
   77970 WT5  1134 TIP3 H2   HT     0.417000        1.0080           0
   77971 WT5  1135 TIP3 OH2  OT    -0.834000       15.9994           0
   77972 WT5  1135 TIP3 H1   HT     0.417000        1.0080           0
   77973 WT5  1135 TIP3 H2   HT     0.417000        1.0080           0
   77974 WT5  1136 TIP3 OH2  OT    -0.834000       15.9994           0
   77975 WT5  1136 TIP3 H1   HT     0.417000        1.0080           0
   77976 WT5  1136 TIP3 H2   HT     0.417000        1.0080           0
   77977 WT5  1138 TIP3 OH2  OT    -0.834000       15.9994           0
   77978 WT5  1138 TIP3 H1   HT     0.417000        1.0080           0
   77979 WT5  1138 TIP3 H2   HT     0.417000        1.0080           0
   77980 WT5  1139 TIP3 OH2  OT    -0.834000       15.9994           0
   77981 WT5  1139 TIP3 H1   HT     0.417000        1.0080           0
   77982 WT5  1139 TIP3 H2   HT     0.417000        1.0080           0
   77983 WT5  1140 TIP3 OH2  OT    -0.834000       15.9994           0
   77984 WT5  1140 TIP3 H1   HT     0.417000        1.0080           0
   77985 WT5  1140 TIP3 H2   HT     0.417000        1.0080           0
   77986 WT5  1142 TIP3 OH2  OT    -0.834000       15.9994           0
   77987 WT5  1142 TIP3 H1   HT     0.417000        1.0080           0
   77988 WT5  1142 TIP3 H2   HT     0.417000        1.0080           0
   77989 WT5  1143 TIP3 OH2  OT    -0.834000       15.9994           0
   77990 WT5  1143 TIP3 H1   HT     0.417000        1.0080           0
   77991 WT5  1143 TIP3 H2   HT     0.417000        1.0080           0
   77992 WT5  1144 TIP3 OH2  OT    -0.834000       15.9994           0
   77993 WT5  1144 TIP3 H1   HT     0.417000        1.0080           0
   77994 WT5  1144 TIP3 H2   HT     0.417000        1.0080           0
   77995 WT5  1145 TIP3 OH2  OT    -0.834000       15.9994           0
   77996 WT5  1145 TIP3 H1   HT     0.417000        1.0080           0
   77997 WT5  1145 TIP3 H2   HT     0.417000        1.0080           0
   77998 WT5  1147 TIP3 OH2  OT    -0.834000       15.9994           0
   77999 WT5  1147 TIP3 H1   HT     0.417000        1.0080           0
   78000 WT5  1147 TIP3 H2   HT     0.417000        1.0080           0
   78001 WT5  1148 TIP3 OH2  OT    -0.834000       15.9994           0
   78002 WT5  1148 TIP3 H1   HT     0.417000        1.0080           0
   78003 WT5  1148 TIP3 H2   HT     0.417000        1.0080           0
   78004 WT5  1150 TIP3 OH2  OT    -0.834000       15.9994           0
   78005 WT5  1150 TIP3 H1   HT     0.417000        1.0080           0
   78006 WT5  1150 TIP3 H2   HT     0.417000        1.0080           0
   78007 WT5  1151 TIP3 OH2  OT    -0.834000       15.9994           0
   78008 WT5  1151 TIP3 H1   HT     0.417000        1.0080           0
   78009 WT5  1151 TIP3 H2   HT     0.417000        1.0080           0
   78010 WT5  1153 TIP3 OH2  OT    -0.834000       15.9994           0
   78011 WT5  1153 TIP3 H1   HT     0.417000        1.0080           0
   78012 WT5  1153 TIP3 H2   HT     0.417000        1.0080           0
   78013 WT5  1155 TIP3 OH2  OT    -0.834000       15.9994           0
   78014 WT5  1155 TIP3 H1   HT     0.417000        1.0080           0
   78015 WT5  1155 TIP3 H2   HT     0.417000        1.0080           0
   78016 WT5  1156 TIP3 OH2  OT    -0.834000       15.9994           0
   78017 WT5  1156 TIP3 H1   HT     0.417000        1.0080           0
   78018 WT5  1156 TIP3 H2   HT     0.417000        1.0080           0
   78019 WT5  1157 TIP3 OH2  OT    -0.834000       15.9994           0
   78020 WT5  1157 TIP3 H1   HT     0.417000        1.0080           0
   78021 WT5  1157 TIP3 H2   HT     0.417000        1.0080           0
   78022 WT5  1158 TIP3 OH2  OT    -0.834000       15.9994           0
   78023 WT5  1158 TIP3 H1   HT     0.417000        1.0080           0
   78024 WT5  1158 TIP3 H2   HT     0.417000        1.0080           0
   78025 WT5  1160 TIP3 OH2  OT    -0.834000       15.9994           0
   78026 WT5  1160 TIP3 H1   HT     0.417000        1.0080           0
   78027 WT5  1160 TIP3 H2   HT     0.417000        1.0080           0
   78028 WT5  1161 TIP3 OH2  OT    -0.834000       15.9994           0
   78029 WT5  1161 TIP3 H1   HT     0.417000        1.0080           0
   78030 WT5  1161 TIP3 H2   HT     0.417000        1.0080           0
   78031 WT5  1162 TIP3 OH2  OT    -0.834000       15.9994           0
   78032 WT5  1162 TIP3 H1   HT     0.417000        1.0080           0
   78033 WT5  1162 TIP3 H2   HT     0.417000        1.0080           0
   78034 WT5  1163 TIP3 OH2  OT    -0.834000       15.9994           0
   78035 WT5  1163 TIP3 H1   HT     0.417000        1.0080           0
   78036 WT5  1163 TIP3 H2   HT     0.417000        1.0080           0
   78037 WT5  1164 TIP3 OH2  OT    -0.834000       15.9994           0
   78038 WT5  1164 TIP3 H1   HT     0.417000        1.0080           0
   78039 WT5  1164 TIP3 H2   HT     0.417000        1.0080           0
   78040 WT5  1166 TIP3 OH2  OT    -0.834000       15.9994           0
   78041 WT5  1166 TIP3 H1   HT     0.417000        1.0080           0
   78042 WT5  1166 TIP3 H2   HT     0.417000        1.0080           0
   78043 WT5  1167 TIP3 OH2  OT    -0.834000       15.9994           0
   78044 WT5  1167 TIP3 H1   HT     0.417000        1.0080           0
   78045 WT5  1167 TIP3 H2   HT     0.417000        1.0080           0
   78046 WT5  1168 TIP3 OH2  OT    -0.834000       15.9994           0
   78047 WT5  1168 TIP3 H1   HT     0.417000        1.0080           0
   78048 WT5  1168 TIP3 H2   HT     0.417000        1.0080           0
   78049 WT5  1172 TIP3 OH2  OT    -0.834000       15.9994           0
   78050 WT5  1172 TIP3 H1   HT     0.417000        1.0080           0
   78051 WT5  1172 TIP3 H2   HT     0.417000        1.0080           0
   78052 WT5  1173 TIP3 OH2  OT    -0.834000       15.9994           0
   78053 WT5  1173 TIP3 H1   HT     0.417000        1.0080           0
   78054 WT5  1173 TIP3 H2   HT     0.417000        1.0080           0
   78055 WT5  1176 TIP3 OH2  OT    -0.834000       15.9994           0
   78056 WT5  1176 TIP3 H1   HT     0.417000        1.0080           0
   78057 WT5  1176 TIP3 H2   HT     0.417000        1.0080           0
   78058 WT5  1177 TIP3 OH2  OT    -0.834000       15.9994           0
   78059 WT5  1177 TIP3 H1   HT     0.417000        1.0080           0
   78060 WT5  1177 TIP3 H2   HT     0.417000        1.0080           0
   78061 WT5  1178 TIP3 OH2  OT    -0.834000       15.9994           0
   78062 WT5  1178 TIP3 H1   HT     0.417000        1.0080           0
   78063 WT5  1178 TIP3 H2   HT     0.417000        1.0080           0
   78064 WT5  1179 TIP3 OH2  OT    -0.834000       15.9994           0
   78065 WT5  1179 TIP3 H1   HT     0.417000        1.0080           0
   78066 WT5  1179 TIP3 H2   HT     0.417000        1.0080           0
   78067 WT5  1180 TIP3 OH2  OT    -0.834000       15.9994           0
   78068 WT5  1180 TIP3 H1   HT     0.417000        1.0080           0
   78069 WT5  1180 TIP3 H2   HT     0.417000        1.0080           0
   78070 WT5  1181 TIP3 OH2  OT    -0.834000       15.9994           0
   78071 WT5  1181 TIP3 H1   HT     0.417000        1.0080           0
   78072 WT5  1181 TIP3 H2   HT     0.417000        1.0080           0
   78073 WT5  1182 TIP3 OH2  OT    -0.834000       15.9994           0
   78074 WT5  1182 TIP3 H1   HT     0.417000        1.0080           0
   78075 WT5  1182 TIP3 H2   HT     0.417000        1.0080           0
   78076 WT5  1183 TIP3 OH2  OT    -0.834000       15.9994           0
   78077 WT5  1183 TIP3 H1   HT     0.417000        1.0080           0
   78078 WT5  1183 TIP3 H2   HT     0.417000        1.0080           0
   78079 WT5  1184 TIP3 OH2  OT    -0.834000       15.9994           0
   78080 WT5  1184 TIP3 H1   HT     0.417000        1.0080           0
   78081 WT5  1184 TIP3 H2   HT     0.417000        1.0080           0
   78082 WT5  1186 TIP3 OH2  OT    -0.834000       15.9994           0
   78083 WT5  1186 TIP3 H1   HT     0.417000        1.0080           0
   78084 WT5  1186 TIP3 H2   HT     0.417000        1.0080           0
   78085 WT5  1187 TIP3 OH2  OT    -0.834000       15.9994           0
   78086 WT5  1187 TIP3 H1   HT     0.417000        1.0080           0
   78087 WT5  1187 TIP3 H2   HT     0.417000        1.0080           0
   78088 WT5  1188 TIP3 OH2  OT    -0.834000       15.9994           0
   78089 WT5  1188 TIP3 H1   HT     0.417000        1.0080           0
   78090 WT5  1188 TIP3 H2   HT     0.417000        1.0080           0
   78091 WT5  1192 TIP3 OH2  OT    -0.834000       15.9994           0
   78092 WT5  1192 TIP3 H1   HT     0.417000        1.0080           0
   78093 WT5  1192 TIP3 H2   HT     0.417000        1.0080           0
   78094 WT5  1193 TIP3 OH2  OT    -0.834000       15.9994           0
   78095 WT5  1193 TIP3 H1   HT     0.417000        1.0080           0
   78096 WT5  1193 TIP3 H2   HT     0.417000        1.0080           0
   78097 WT5  1194 TIP3 OH2  OT    -0.834000       15.9994           0
   78098 WT5  1194 TIP3 H1   HT     0.417000        1.0080           0
   78099 WT5  1194 TIP3 H2   HT     0.417000        1.0080           0
   78100 WT5  1195 TIP3 OH2  OT    -0.834000       15.9994           0
   78101 WT5  1195 TIP3 H1   HT     0.417000        1.0080           0
   78102 WT5  1195 TIP3 H2   HT     0.417000        1.0080           0
   78103 WT5  1197 TIP3 OH2  OT    -0.834000       15.9994           0
   78104 WT5  1197 TIP3 H1   HT     0.417000        1.0080           0
   78105 WT5  1197 TIP3 H2   HT     0.417000        1.0080           0
   78106 WT5  1199 TIP3 OH2  OT    -0.834000       15.9994           0
   78107 WT5  1199 TIP3 H1   HT     0.417000        1.0080           0
   78108 WT5  1199 TIP3 H2   HT     0.417000        1.0080           0
   78109 WT5  1200 TIP3 OH2  OT    -0.834000       15.9994           0
   78110 WT5  1200 TIP3 H1   HT     0.417000        1.0080           0
   78111 WT5  1200 TIP3 H2   HT     0.417000        1.0080           0
   78112 WT5  1201 TIP3 OH2  OT    -0.834000       15.9994           0
   78113 WT5  1201 TIP3 H1   HT     0.417000        1.0080           0
   78114 WT5  1201 TIP3 H2   HT     0.417000        1.0080           0
   78115 WT5  1202 TIP3 OH2  OT    -0.834000       15.9994           0
   78116 WT5  1202 TIP3 H1   HT     0.417000        1.0080           0
   78117 WT5  1202 TIP3 H2   HT     0.417000        1.0080           0
   78118 WT5  1204 TIP3 OH2  OT    -0.834000       15.9994           0
   78119 WT5  1204 TIP3 H1   HT     0.417000        1.0080           0
   78120 WT5  1204 TIP3 H2   HT     0.417000        1.0080           0
   78121 WT5  1206 TIP3 OH2  OT    -0.834000       15.9994           0
   78122 WT5  1206 TIP3 H1   HT     0.417000        1.0080           0
   78123 WT5  1206 TIP3 H2   HT     0.417000        1.0080           0
   78124 WT5  1207 TIP3 OH2  OT    -0.834000       15.9994           0
   78125 WT5  1207 TIP3 H1   HT     0.417000        1.0080           0
   78126 WT5  1207 TIP3 H2   HT     0.417000        1.0080           0
   78127 WT5  1208 TIP3 OH2  OT    -0.834000       15.9994           0
   78128 WT5  1208 TIP3 H1   HT     0.417000        1.0080           0
   78129 WT5  1208 TIP3 H2   HT     0.417000        1.0080           0
   78130 WT5  1209 TIP3 OH2  OT    -0.834000       15.9994           0
   78131 WT5  1209 TIP3 H1   HT     0.417000        1.0080           0
   78132 WT5  1209 TIP3 H2   HT     0.417000        1.0080           0
   78133 WT5  1210 TIP3 OH2  OT    -0.834000       15.9994           0
   78134 WT5  1210 TIP3 H1   HT     0.417000        1.0080           0
   78135 WT5  1210 TIP3 H2   HT     0.417000        1.0080           0
   78136 WT5  1211 TIP3 OH2  OT    -0.834000       15.9994           0
   78137 WT5  1211 TIP3 H1   HT     0.417000        1.0080           0
   78138 WT5  1211 TIP3 H2   HT     0.417000        1.0080           0
   78139 WT5  1212 TIP3 OH2  OT    -0.834000       15.9994           0
   78140 WT5  1212 TIP3 H1   HT     0.417000        1.0080           0
   78141 WT5  1212 TIP3 H2   HT     0.417000        1.0080           0
   78142 WT5  1214 TIP3 OH2  OT    -0.834000       15.9994           0
   78143 WT5  1214 TIP3 H1   HT     0.417000        1.0080           0
   78144 WT5  1214 TIP3 H2   HT     0.417000        1.0080           0
   78145 WT5  1215 TIP3 OH2  OT    -0.834000       15.9994           0
   78146 WT5  1215 TIP3 H1   HT     0.417000        1.0080           0
   78147 WT5  1215 TIP3 H2   HT     0.417000        1.0080           0
   78148 WT5  1217 TIP3 OH2  OT    -0.834000       15.9994           0
   78149 WT5  1217 TIP3 H1   HT     0.417000        1.0080           0
   78150 WT5  1217 TIP3 H2   HT     0.417000        1.0080           0
   78151 WT5  1218 TIP3 OH2  OT    -0.834000       15.9994           0
   78152 WT5  1218 TIP3 H1   HT     0.417000        1.0080           0
   78153 WT5  1218 TIP3 H2   HT     0.417000        1.0080           0
   78154 WT5  1219 TIP3 OH2  OT    -0.834000       15.9994           0
   78155 WT5  1219 TIP3 H1   HT     0.417000        1.0080           0
   78156 WT5  1219 TIP3 H2   HT     0.417000        1.0080           0
   78157 WT5  1220 TIP3 OH2  OT    -0.834000       15.9994           0
   78158 WT5  1220 TIP3 H1   HT     0.417000        1.0080           0
   78159 WT5  1220 TIP3 H2   HT     0.417000        1.0080           0
   78160 WT5  1222 TIP3 OH2  OT    -0.834000       15.9994           0
   78161 WT5  1222 TIP3 H1   HT     0.417000        1.0080           0
   78162 WT5  1222 TIP3 H2   HT     0.417000        1.0080           0
   78163 WT5  1223 TIP3 OH2  OT    -0.834000       15.9994           0
   78164 WT5  1223 TIP3 H1   HT     0.417000        1.0080           0
   78165 WT5  1223 TIP3 H2   HT     0.417000        1.0080           0
   78166 WT5  1224 TIP3 OH2  OT    -0.834000       15.9994           0
   78167 WT5  1224 TIP3 H1   HT     0.417000        1.0080           0
   78168 WT5  1224 TIP3 H2   HT     0.417000        1.0080           0
   78169 WT5  1225 TIP3 OH2  OT    -0.834000       15.9994           0
   78170 WT5  1225 TIP3 H1   HT     0.417000        1.0080           0
   78171 WT5  1225 TIP3 H2   HT     0.417000        1.0080           0
   78172 WT5  1226 TIP3 OH2  OT    -0.834000       15.9994           0
   78173 WT5  1226 TIP3 H1   HT     0.417000        1.0080           0
   78174 WT5  1226 TIP3 H2   HT     0.417000        1.0080           0
   78175 WT5  1229 TIP3 OH2  OT    -0.834000       15.9994           0
   78176 WT5  1229 TIP3 H1   HT     0.417000        1.0080           0
   78177 WT5  1229 TIP3 H2   HT     0.417000        1.0080           0
   78178 WT5  1230 TIP3 OH2  OT    -0.834000       15.9994           0
   78179 WT5  1230 TIP3 H1   HT     0.417000        1.0080           0
   78180 WT5  1230 TIP3 H2   HT     0.417000        1.0080           0
   78181 WT5  1231 TIP3 OH2  OT    -0.834000       15.9994           0
   78182 WT5  1231 TIP3 H1   HT     0.417000        1.0080           0
   78183 WT5  1231 TIP3 H2   HT     0.417000        1.0080           0
   78184 WT5  1232 TIP3 OH2  OT    -0.834000       15.9994           0
   78185 WT5  1232 TIP3 H1   HT     0.417000        1.0080           0
   78186 WT5  1232 TIP3 H2   HT     0.417000        1.0080           0
   78187 WT5  1234 TIP3 OH2  OT    -0.834000       15.9994           0
   78188 WT5  1234 TIP3 H1   HT     0.417000        1.0080           0
   78189 WT5  1234 TIP3 H2   HT     0.417000        1.0080           0
   78190 WT5  1237 TIP3 OH2  OT    -0.834000       15.9994           0
   78191 WT5  1237 TIP3 H1   HT     0.417000        1.0080           0
   78192 WT5  1237 TIP3 H2   HT     0.417000        1.0080           0
   78193 WT5  1238 TIP3 OH2  OT    -0.834000       15.9994           0
   78194 WT5  1238 TIP3 H1   HT     0.417000        1.0080           0
   78195 WT5  1238 TIP3 H2   HT     0.417000        1.0080           0
   78196 WT5  1240 TIP3 OH2  OT    -0.834000       15.9994           0
   78197 WT5  1240 TIP3 H1   HT     0.417000        1.0080           0
   78198 WT5  1240 TIP3 H2   HT     0.417000        1.0080           0
   78199 WT5  1242 TIP3 OH2  OT    -0.834000       15.9994           0
   78200 WT5  1242 TIP3 H1   HT     0.417000        1.0080           0
   78201 WT5  1242 TIP3 H2   HT     0.417000        1.0080           0
   78202 WT5  1244 TIP3 OH2  OT    -0.834000       15.9994           0
   78203 WT5  1244 TIP3 H1   HT     0.417000        1.0080           0
   78204 WT5  1244 TIP3 H2   HT     0.417000        1.0080           0
   78205 WT5  1245 TIP3 OH2  OT    -0.834000       15.9994           0
   78206 WT5  1245 TIP3 H1   HT     0.417000        1.0080           0
   78207 WT5  1245 TIP3 H2   HT     0.417000        1.0080           0
   78208 WT5  1247 TIP3 OH2  OT    -0.834000       15.9994           0
   78209 WT5  1247 TIP3 H1   HT     0.417000        1.0080           0
   78210 WT5  1247 TIP3 H2   HT     0.417000        1.0080           0
   78211 WT5  1248 TIP3 OH2  OT    -0.834000       15.9994           0
   78212 WT5  1248 TIP3 H1   HT     0.417000        1.0080           0
   78213 WT5  1248 TIP3 H2   HT     0.417000        1.0080           0
   78214 WT5  1249 TIP3 OH2  OT    -0.834000       15.9994           0
   78215 WT5  1249 TIP3 H1   HT     0.417000        1.0080           0
   78216 WT5  1249 TIP3 H2   HT     0.417000        1.0080           0
   78217 WT5  1251 TIP3 OH2  OT    -0.834000       15.9994           0
   78218 WT5  1251 TIP3 H1   HT     0.417000        1.0080           0
   78219 WT5  1251 TIP3 H2   HT     0.417000        1.0080           0
   78220 WT5  1252 TIP3 OH2  OT    -0.834000       15.9994           0
   78221 WT5  1252 TIP3 H1   HT     0.417000        1.0080           0
   78222 WT5  1252 TIP3 H2   HT     0.417000        1.0080           0
   78223 WT5  1255 TIP3 OH2  OT    -0.834000       15.9994           0
   78224 WT5  1255 TIP3 H1   HT     0.417000        1.0080           0
   78225 WT5  1255 TIP3 H2   HT     0.417000        1.0080           0
   78226 WT5  1256 TIP3 OH2  OT    -0.834000       15.9994           0
   78227 WT5  1256 TIP3 H1   HT     0.417000        1.0080           0
   78228 WT5  1256 TIP3 H2   HT     0.417000        1.0080           0
   78229 WT5  1257 TIP3 OH2  OT    -0.834000       15.9994           0
   78230 WT5  1257 TIP3 H1   HT     0.417000        1.0080           0
   78231 WT5  1257 TIP3 H2   HT     0.417000        1.0080           0
   78232 WT5  1258 TIP3 OH2  OT    -0.834000       15.9994           0
   78233 WT5  1258 TIP3 H1   HT     0.417000        1.0080           0
   78234 WT5  1258 TIP3 H2   HT     0.417000        1.0080           0
   78235 WT5  1259 TIP3 OH2  OT    -0.834000       15.9994           0
   78236 WT5  1259 TIP3 H1   HT     0.417000        1.0080           0
   78237 WT5  1259 TIP3 H2   HT     0.417000        1.0080           0
   78238 WT5  1261 TIP3 OH2  OT    -0.834000       15.9994           0
   78239 WT5  1261 TIP3 H1   HT     0.417000        1.0080           0
   78240 WT5  1261 TIP3 H2   HT     0.417000        1.0080           0
   78241 WT5  1262 TIP3 OH2  OT    -0.834000       15.9994           0
   78242 WT5  1262 TIP3 H1   HT     0.417000        1.0080           0
   78243 WT5  1262 TIP3 H2   HT     0.417000        1.0080           0
   78244 WT5  1263 TIP3 OH2  OT    -0.834000       15.9994           0
   78245 WT5  1263 TIP3 H1   HT     0.417000        1.0080           0
   78246 WT5  1263 TIP3 H2   HT     0.417000        1.0080           0
   78247 WT5  1265 TIP3 OH2  OT    -0.834000       15.9994           0
   78248 WT5  1265 TIP3 H1   HT     0.417000        1.0080           0
   78249 WT5  1265 TIP3 H2   HT     0.417000        1.0080           0
   78250 WT5  1266 TIP3 OH2  OT    -0.834000       15.9994           0
   78251 WT5  1266 TIP3 H1   HT     0.417000        1.0080           0
   78252 WT5  1266 TIP3 H2   HT     0.417000        1.0080           0
   78253 WT5  1267 TIP3 OH2  OT    -0.834000       15.9994           0
   78254 WT5  1267 TIP3 H1   HT     0.417000        1.0080           0
   78255 WT5  1267 TIP3 H2   HT     0.417000        1.0080           0
   78256 WT5  1269 TIP3 OH2  OT    -0.834000       15.9994           0
   78257 WT5  1269 TIP3 H1   HT     0.417000        1.0080           0
   78258 WT5  1269 TIP3 H2   HT     0.417000        1.0080           0
   78259 WT5  1270 TIP3 OH2  OT    -0.834000       15.9994           0
   78260 WT5  1270 TIP3 H1   HT     0.417000        1.0080           0
   78261 WT5  1270 TIP3 H2   HT     0.417000        1.0080           0
   78262 WT5  1271 TIP3 OH2  OT    -0.834000       15.9994           0
   78263 WT5  1271 TIP3 H1   HT     0.417000        1.0080           0
   78264 WT5  1271 TIP3 H2   HT     0.417000        1.0080           0
   78265 WT5  1272 TIP3 OH2  OT    -0.834000       15.9994           0
   78266 WT5  1272 TIP3 H1   HT     0.417000        1.0080           0
   78267 WT5  1272 TIP3 H2   HT     0.417000        1.0080           0
   78268 WT5  1273 TIP3 OH2  OT    -0.834000       15.9994           0
   78269 WT5  1273 TIP3 H1   HT     0.417000        1.0080           0
   78270 WT5  1273 TIP3 H2   HT     0.417000        1.0080           0
   78271 WT5  1274 TIP3 OH2  OT    -0.834000       15.9994           0
   78272 WT5  1274 TIP3 H1   HT     0.417000        1.0080           0
   78273 WT5  1274 TIP3 H2   HT     0.417000        1.0080           0
   78274 WT5  1277 TIP3 OH2  OT    -0.834000       15.9994           0
   78275 WT5  1277 TIP3 H1   HT     0.417000        1.0080           0
   78276 WT5  1277 TIP3 H2   HT     0.417000        1.0080           0
   78277 WT5  1278 TIP3 OH2  OT    -0.834000       15.9994           0
   78278 WT5  1278 TIP3 H1   HT     0.417000        1.0080           0
   78279 WT5  1278 TIP3 H2   HT     0.417000        1.0080           0
   78280 WT5  1280 TIP3 OH2  OT    -0.834000       15.9994           0
   78281 WT5  1280 TIP3 H1   HT     0.417000        1.0080           0
   78282 WT5  1280 TIP3 H2   HT     0.417000        1.0080           0
   78283 WT5  1281 TIP3 OH2  OT    -0.834000       15.9994           0
   78284 WT5  1281 TIP3 H1   HT     0.417000        1.0080           0
   78285 WT5  1281 TIP3 H2   HT     0.417000        1.0080           0
   78286 WT5  1284 TIP3 OH2  OT    -0.834000       15.9994           0
   78287 WT5  1284 TIP3 H1   HT     0.417000        1.0080           0
   78288 WT5  1284 TIP3 H2   HT     0.417000        1.0080           0
   78289 WT5  1285 TIP3 OH2  OT    -0.834000       15.9994           0
   78290 WT5  1285 TIP3 H1   HT     0.417000        1.0080           0
   78291 WT5  1285 TIP3 H2   HT     0.417000        1.0080           0
   78292 WT5  1287 TIP3 OH2  OT    -0.834000       15.9994           0
   78293 WT5  1287 TIP3 H1   HT     0.417000        1.0080           0
   78294 WT5  1287 TIP3 H2   HT     0.417000        1.0080           0
   78295 WT5  1289 TIP3 OH2  OT    -0.834000       15.9994           0
   78296 WT5  1289 TIP3 H1   HT     0.417000        1.0080           0
   78297 WT5  1289 TIP3 H2   HT     0.417000        1.0080           0
   78298 WT5  1290 TIP3 OH2  OT    -0.834000       15.9994           0
   78299 WT5  1290 TIP3 H1   HT     0.417000        1.0080           0
   78300 WT5  1290 TIP3 H2   HT     0.417000        1.0080           0
   78301 WT5  1291 TIP3 OH2  OT    -0.834000       15.9994           0
   78302 WT5  1291 TIP3 H1   HT     0.417000        1.0080           0
   78303 WT5  1291 TIP3 H2   HT     0.417000        1.0080           0
   78304 WT5  1293 TIP3 OH2  OT    -0.834000       15.9994           0
   78305 WT5  1293 TIP3 H1   HT     0.417000        1.0080           0
   78306 WT5  1293 TIP3 H2   HT     0.417000        1.0080           0
   78307 WT5  1294 TIP3 OH2  OT    -0.834000       15.9994           0
   78308 WT5  1294 TIP3 H1   HT     0.417000        1.0080           0
   78309 WT5  1294 TIP3 H2   HT     0.417000        1.0080           0
   78310 WT5  1295 TIP3 OH2  OT    -0.834000       15.9994           0
   78311 WT5  1295 TIP3 H1   HT     0.417000        1.0080           0
   78312 WT5  1295 TIP3 H2   HT     0.417000        1.0080           0
   78313 WT5  1297 TIP3 OH2  OT    -0.834000       15.9994           0
   78314 WT5  1297 TIP3 H1   HT     0.417000        1.0080           0
   78315 WT5  1297 TIP3 H2   HT     0.417000        1.0080           0
   78316 WT5  1298 TIP3 OH2  OT    -0.834000       15.9994           0
   78317 WT5  1298 TIP3 H1   HT     0.417000        1.0080           0
   78318 WT5  1298 TIP3 H2   HT     0.417000        1.0080           0
   78319 WT5  1300 TIP3 OH2  OT    -0.834000       15.9994           0
   78320 WT5  1300 TIP3 H1   HT     0.417000        1.0080           0
   78321 WT5  1300 TIP3 H2   HT     0.417000        1.0080           0
   78322 WT5  1301 TIP3 OH2  OT    -0.834000       15.9994           0
   78323 WT5  1301 TIP3 H1   HT     0.417000        1.0080           0
   78324 WT5  1301 TIP3 H2   HT     0.417000        1.0080           0
   78325 WT5  1302 TIP3 OH2  OT    -0.834000       15.9994           0
   78326 WT5  1302 TIP3 H1   HT     0.417000        1.0080           0
   78327 WT5  1302 TIP3 H2   HT     0.417000        1.0080           0
   78328 WT5  1303 TIP3 OH2  OT    -0.834000       15.9994           0
   78329 WT5  1303 TIP3 H1   HT     0.417000        1.0080           0
   78330 WT5  1303 TIP3 H2   HT     0.417000        1.0080           0
   78331 WT5  1306 TIP3 OH2  OT    -0.834000       15.9994           0
   78332 WT5  1306 TIP3 H1   HT     0.417000        1.0080           0
   78333 WT5  1306 TIP3 H2   HT     0.417000        1.0080           0
   78334 WT5  1307 TIP3 OH2  OT    -0.834000       15.9994           0
   78335 WT5  1307 TIP3 H1   HT     0.417000        1.0080           0
   78336 WT5  1307 TIP3 H2   HT     0.417000        1.0080           0
   78337 WT5  1308 TIP3 OH2  OT    -0.834000       15.9994           0
   78338 WT5  1308 TIP3 H1   HT     0.417000        1.0080           0
   78339 WT5  1308 TIP3 H2   HT     0.417000        1.0080           0
   78340 WT5  1309 TIP3 OH2  OT    -0.834000       15.9994           0
   78341 WT5  1309 TIP3 H1   HT     0.417000        1.0080           0
   78342 WT5  1309 TIP3 H2   HT     0.417000        1.0080           0
   78343 WT5  1311 TIP3 OH2  OT    -0.834000       15.9994           0
   78344 WT5  1311 TIP3 H1   HT     0.417000        1.0080           0
   78345 WT5  1311 TIP3 H2   HT     0.417000        1.0080           0
   78346 WT5  1312 TIP3 OH2  OT    -0.834000       15.9994           0
   78347 WT5  1312 TIP3 H1   HT     0.417000        1.0080           0
   78348 WT5  1312 TIP3 H2   HT     0.417000        1.0080           0
   78349 WT5  1313 TIP3 OH2  OT    -0.834000       15.9994           0
   78350 WT5  1313 TIP3 H1   HT     0.417000        1.0080           0
   78351 WT5  1313 TIP3 H2   HT     0.417000        1.0080           0
   78352 WT5  1315 TIP3 OH2  OT    -0.834000       15.9994           0
   78353 WT5  1315 TIP3 H1   HT     0.417000        1.0080           0
   78354 WT5  1315 TIP3 H2   HT     0.417000        1.0080           0
   78355 WT5  1316 TIP3 OH2  OT    -0.834000       15.9994           0
   78356 WT5  1316 TIP3 H1   HT     0.417000        1.0080           0
   78357 WT5  1316 TIP3 H2   HT     0.417000        1.0080           0
   78358 WT5  1317 TIP3 OH2  OT    -0.834000       15.9994           0
   78359 WT5  1317 TIP3 H1   HT     0.417000        1.0080           0
   78360 WT5  1317 TIP3 H2   HT     0.417000        1.0080           0
   78361 WT5  1318 TIP3 OH2  OT    -0.834000       15.9994           0
   78362 WT5  1318 TIP3 H1   HT     0.417000        1.0080           0
   78363 WT5  1318 TIP3 H2   HT     0.417000        1.0080           0
   78364 WT5  1320 TIP3 OH2  OT    -0.834000       15.9994           0
   78365 WT5  1320 TIP3 H1   HT     0.417000        1.0080           0
   78366 WT5  1320 TIP3 H2   HT     0.417000        1.0080           0
   78367 WT5  1323 TIP3 OH2  OT    -0.834000       15.9994           0
   78368 WT5  1323 TIP3 H1   HT     0.417000        1.0080           0
   78369 WT5  1323 TIP3 H2   HT     0.417000        1.0080           0
   78370 WT5  1324 TIP3 OH2  OT    -0.834000       15.9994           0
   78371 WT5  1324 TIP3 H1   HT     0.417000        1.0080           0
   78372 WT5  1324 TIP3 H2   HT     0.417000        1.0080           0
   78373 WT5  1326 TIP3 OH2  OT    -0.834000       15.9994           0
   78374 WT5  1326 TIP3 H1   HT     0.417000        1.0080           0
   78375 WT5  1326 TIP3 H2   HT     0.417000        1.0080           0
   78376 WT5  1327 TIP3 OH2  OT    -0.834000       15.9994           0
   78377 WT5  1327 TIP3 H1   HT     0.417000        1.0080           0
   78378 WT5  1327 TIP3 H2   HT     0.417000        1.0080           0
   78379 WT5  1328 TIP3 OH2  OT    -0.834000       15.9994           0
   78380 WT5  1328 TIP3 H1   HT     0.417000        1.0080           0
   78381 WT5  1328 TIP3 H2   HT     0.417000        1.0080           0
   78382 WT5  1329 TIP3 OH2  OT    -0.834000       15.9994           0
   78383 WT5  1329 TIP3 H1   HT     0.417000        1.0080           0
   78384 WT5  1329 TIP3 H2   HT     0.417000        1.0080           0
   78385 WT5  1330 TIP3 OH2  OT    -0.834000       15.9994           0
   78386 WT5  1330 TIP3 H1   HT     0.417000        1.0080           0
   78387 WT5  1330 TIP3 H2   HT     0.417000        1.0080           0
   78388 WT5  1332 TIP3 OH2  OT    -0.834000       15.9994           0
   78389 WT5  1332 TIP3 H1   HT     0.417000        1.0080           0
   78390 WT5  1332 TIP3 H2   HT     0.417000        1.0080           0
   78391 WT5  1333 TIP3 OH2  OT    -0.834000       15.9994           0
   78392 WT5  1333 TIP3 H1   HT     0.417000        1.0080           0
   78393 WT5  1333 TIP3 H2   HT     0.417000        1.0080           0
   78394 WT5  1334 TIP3 OH2  OT    -0.834000       15.9994           0
   78395 WT5  1334 TIP3 H1   HT     0.417000        1.0080           0
   78396 WT5  1334 TIP3 H2   HT     0.417000        1.0080           0
   78397 WT5  1335 TIP3 OH2  OT    -0.834000       15.9994           0
   78398 WT5  1335 TIP3 H1   HT     0.417000        1.0080           0
   78399 WT5  1335 TIP3 H2   HT     0.417000        1.0080           0
   78400 WT5  1336 TIP3 OH2  OT    -0.834000       15.9994           0
   78401 WT5  1336 TIP3 H1   HT     0.417000        1.0080           0
   78402 WT5  1336 TIP3 H2   HT     0.417000        1.0080           0
   78403 WT5  1337 TIP3 OH2  OT    -0.834000       15.9994           0
   78404 WT5  1337 TIP3 H1   HT     0.417000        1.0080           0
   78405 WT5  1337 TIP3 H2   HT     0.417000        1.0080           0
   78406 WT5  1338 TIP3 OH2  OT    -0.834000       15.9994           0
   78407 WT5  1338 TIP3 H1   HT     0.417000        1.0080           0
   78408 WT5  1338 TIP3 H2   HT     0.417000        1.0080           0
   78409 WT5  1340 TIP3 OH2  OT    -0.834000       15.9994           0
   78410 WT5  1340 TIP3 H1   HT     0.417000        1.0080           0
   78411 WT5  1340 TIP3 H2   HT     0.417000        1.0080           0
   78412 WT5  1344 TIP3 OH2  OT    -0.834000       15.9994           0
   78413 WT5  1344 TIP3 H1   HT     0.417000        1.0080           0
   78414 WT5  1344 TIP3 H2   HT     0.417000        1.0080           0
   78415 WT5  1345 TIP3 OH2  OT    -0.834000       15.9994           0
   78416 WT5  1345 TIP3 H1   HT     0.417000        1.0080           0
   78417 WT5  1345 TIP3 H2   HT     0.417000        1.0080           0
   78418 WT5  1346 TIP3 OH2  OT    -0.834000       15.9994           0
   78419 WT5  1346 TIP3 H1   HT     0.417000        1.0080           0
   78420 WT5  1346 TIP3 H2   HT     0.417000        1.0080           0
   78421 WT5  1347 TIP3 OH2  OT    -0.834000       15.9994           0
   78422 WT5  1347 TIP3 H1   HT     0.417000        1.0080           0
   78423 WT5  1347 TIP3 H2   HT     0.417000        1.0080           0
   78424 WT5  1348 TIP3 OH2  OT    -0.834000       15.9994           0
   78425 WT5  1348 TIP3 H1   HT     0.417000        1.0080           0
   78426 WT5  1348 TIP3 H2   HT     0.417000        1.0080           0
   78427 WT5  1349 TIP3 OH2  OT    -0.834000       15.9994           0
   78428 WT5  1349 TIP3 H1   HT     0.417000        1.0080           0
   78429 WT5  1349 TIP3 H2   HT     0.417000        1.0080           0
   78430 WT5  1352 TIP3 OH2  OT    -0.834000       15.9994           0
   78431 WT5  1352 TIP3 H1   HT     0.417000        1.0080           0
   78432 WT5  1352 TIP3 H2   HT     0.417000        1.0080           0
   78433 WT5  1353 TIP3 OH2  OT    -0.834000       15.9994           0
   78434 WT5  1353 TIP3 H1   HT     0.417000        1.0080           0
   78435 WT5  1353 TIP3 H2   HT     0.417000        1.0080           0
   78436 WT5  1354 TIP3 OH2  OT    -0.834000       15.9994           0
   78437 WT5  1354 TIP3 H1   HT     0.417000        1.0080           0
   78438 WT5  1354 TIP3 H2   HT     0.417000        1.0080           0
   78439 WT5  1355 TIP3 OH2  OT    -0.834000       15.9994           0
   78440 WT5  1355 TIP3 H1   HT     0.417000        1.0080           0
   78441 WT5  1355 TIP3 H2   HT     0.417000        1.0080           0
   78442 WT5  1356 TIP3 OH2  OT    -0.834000       15.9994           0
   78443 WT5  1356 TIP3 H1   HT     0.417000        1.0080           0
   78444 WT5  1356 TIP3 H2   HT     0.417000        1.0080           0
   78445 WT5  1357 TIP3 OH2  OT    -0.834000       15.9994           0
   78446 WT5  1357 TIP3 H1   HT     0.417000        1.0080           0
   78447 WT5  1357 TIP3 H2   HT     0.417000        1.0080           0
   78448 WT5  1358 TIP3 OH2  OT    -0.834000       15.9994           0
   78449 WT5  1358 TIP3 H1   HT     0.417000        1.0080           0
   78450 WT5  1358 TIP3 H2   HT     0.417000        1.0080           0
   78451 WT5  1361 TIP3 OH2  OT    -0.834000       15.9994           0
   78452 WT5  1361 TIP3 H1   HT     0.417000        1.0080           0
   78453 WT5  1361 TIP3 H2   HT     0.417000        1.0080           0
   78454 WT5  1362 TIP3 OH2  OT    -0.834000       15.9994           0
   78455 WT5  1362 TIP3 H1   HT     0.417000        1.0080           0
   78456 WT5  1362 TIP3 H2   HT     0.417000        1.0080           0
   78457 WT5  1364 TIP3 OH2  OT    -0.834000       15.9994           0
   78458 WT5  1364 TIP3 H1   HT     0.417000        1.0080           0
   78459 WT5  1364 TIP3 H2   HT     0.417000        1.0080           0
   78460 WT5  1365 TIP3 OH2  OT    -0.834000       15.9994           0
   78461 WT5  1365 TIP3 H1   HT     0.417000        1.0080           0
   78462 WT5  1365 TIP3 H2   HT     0.417000        1.0080           0
   78463 WT5  1367 TIP3 OH2  OT    -0.834000       15.9994           0
   78464 WT5  1367 TIP3 H1   HT     0.417000        1.0080           0
   78465 WT5  1367 TIP3 H2   HT     0.417000        1.0080           0
   78466 WT5  1368 TIP3 OH2  OT    -0.834000       15.9994           0
   78467 WT5  1368 TIP3 H1   HT     0.417000        1.0080           0
   78468 WT5  1368 TIP3 H2   HT     0.417000        1.0080           0
   78469 WT5  1369 TIP3 OH2  OT    -0.834000       15.9994           0
   78470 WT5  1369 TIP3 H1   HT     0.417000        1.0080           0
   78471 WT5  1369 TIP3 H2   HT     0.417000        1.0080           0
   78472 WT5  1370 TIP3 OH2  OT    -0.834000       15.9994           0
   78473 WT5  1370 TIP3 H1   HT     0.417000        1.0080           0
   78474 WT5  1370 TIP3 H2   HT     0.417000        1.0080           0
   78475 WT5  1371 TIP3 OH2  OT    -0.834000       15.9994           0
   78476 WT5  1371 TIP3 H1   HT     0.417000        1.0080           0
   78477 WT5  1371 TIP3 H2   HT     0.417000        1.0080           0
   78478 WT5  1372 TIP3 OH2  OT    -0.834000       15.9994           0
   78479 WT5  1372 TIP3 H1   HT     0.417000        1.0080           0
   78480 WT5  1372 TIP3 H2   HT     0.417000        1.0080           0
   78481 WT5  1373 TIP3 OH2  OT    -0.834000       15.9994           0
   78482 WT5  1373 TIP3 H1   HT     0.417000        1.0080           0
   78483 WT5  1373 TIP3 H2   HT     0.417000        1.0080           0
   78484 WT5  1374 TIP3 OH2  OT    -0.834000       15.9994           0
   78485 WT5  1374 TIP3 H1   HT     0.417000        1.0080           0
   78486 WT5  1374 TIP3 H2   HT     0.417000        1.0080           0
   78487 WT5  1376 TIP3 OH2  OT    -0.834000       15.9994           0
   78488 WT5  1376 TIP3 H1   HT     0.417000        1.0080           0
   78489 WT5  1376 TIP3 H2   HT     0.417000        1.0080           0
   78490 WT5  1380 TIP3 OH2  OT    -0.834000       15.9994           0
   78491 WT5  1380 TIP3 H1   HT     0.417000        1.0080           0
   78492 WT5  1380 TIP3 H2   HT     0.417000        1.0080           0
   78493 WT5  1381 TIP3 OH2  OT    -0.834000       15.9994           0
   78494 WT5  1381 TIP3 H1   HT     0.417000        1.0080           0
   78495 WT5  1381 TIP3 H2   HT     0.417000        1.0080           0
   78496 WT5  1384 TIP3 OH2  OT    -0.834000       15.9994           0
   78497 WT5  1384 TIP3 H1   HT     0.417000        1.0080           0
   78498 WT5  1384 TIP3 H2   HT     0.417000        1.0080           0
   78499 WT5  1385 TIP3 OH2  OT    -0.834000       15.9994           0
   78500 WT5  1385 TIP3 H1   HT     0.417000        1.0080           0
   78501 WT5  1385 TIP3 H2   HT     0.417000        1.0080           0
   78502 WT5  1387 TIP3 OH2  OT    -0.834000       15.9994           0
   78503 WT5  1387 TIP3 H1   HT     0.417000        1.0080           0
   78504 WT5  1387 TIP3 H2   HT     0.417000        1.0080           0
   78505 WT5  1388 TIP3 OH2  OT    -0.834000       15.9994           0
   78506 WT5  1388 TIP3 H1   HT     0.417000        1.0080           0
   78507 WT5  1388 TIP3 H2   HT     0.417000        1.0080           0
   78508 WT5  1389 TIP3 OH2  OT    -0.834000       15.9994           0
   78509 WT5  1389 TIP3 H1   HT     0.417000        1.0080           0
   78510 WT5  1389 TIP3 H2   HT     0.417000        1.0080           0
   78511 WT5  1390 TIP3 OH2  OT    -0.834000       15.9994           0
   78512 WT5  1390 TIP3 H1   HT     0.417000        1.0080           0
   78513 WT5  1390 TIP3 H2   HT     0.417000        1.0080           0
   78514 WT5  1392 TIP3 OH2  OT    -0.834000       15.9994           0
   78515 WT5  1392 TIP3 H1   HT     0.417000        1.0080           0
   78516 WT5  1392 TIP3 H2   HT     0.417000        1.0080           0
   78517 WT5  1394 TIP3 OH2  OT    -0.834000       15.9994           0
   78518 WT5  1394 TIP3 H1   HT     0.417000        1.0080           0
   78519 WT5  1394 TIP3 H2   HT     0.417000        1.0080           0
   78520 WT5  1395 TIP3 OH2  OT    -0.834000       15.9994           0
   78521 WT5  1395 TIP3 H1   HT     0.417000        1.0080           0
   78522 WT5  1395 TIP3 H2   HT     0.417000        1.0080           0
   78523 WT5  1396 TIP3 OH2  OT    -0.834000       15.9994           0
   78524 WT5  1396 TIP3 H1   HT     0.417000        1.0080           0
   78525 WT5  1396 TIP3 H2   HT     0.417000        1.0080           0
   78526 WT5  1398 TIP3 OH2  OT    -0.834000       15.9994           0
   78527 WT5  1398 TIP3 H1   HT     0.417000        1.0080           0
   78528 WT5  1398 TIP3 H2   HT     0.417000        1.0080           0
   78529 WT5  1400 TIP3 OH2  OT    -0.834000       15.9994           0
   78530 WT5  1400 TIP3 H1   HT     0.417000        1.0080           0
   78531 WT5  1400 TIP3 H2   HT     0.417000        1.0080           0
   78532 WT5  1401 TIP3 OH2  OT    -0.834000       15.9994           0
   78533 WT5  1401 TIP3 H1   HT     0.417000        1.0080           0
   78534 WT5  1401 TIP3 H2   HT     0.417000        1.0080           0
   78535 WT5  1402 TIP3 OH2  OT    -0.834000       15.9994           0
   78536 WT5  1402 TIP3 H1   HT     0.417000        1.0080           0
   78537 WT5  1402 TIP3 H2   HT     0.417000        1.0080           0
   78538 WT5  1404 TIP3 OH2  OT    -0.834000       15.9994           0
   78539 WT5  1404 TIP3 H1   HT     0.417000        1.0080           0
   78540 WT5  1404 TIP3 H2   HT     0.417000        1.0080           0
   78541 WT5  1405 TIP3 OH2  OT    -0.834000       15.9994           0
   78542 WT5  1405 TIP3 H1   HT     0.417000        1.0080           0
   78543 WT5  1405 TIP3 H2   HT     0.417000        1.0080           0
   78544 WT5  1407 TIP3 OH2  OT    -0.834000       15.9994           0
   78545 WT5  1407 TIP3 H1   HT     0.417000        1.0080           0
   78546 WT5  1407 TIP3 H2   HT     0.417000        1.0080           0
   78547 WT5  1408 TIP3 OH2  OT    -0.834000       15.9994           0
   78548 WT5  1408 TIP3 H1   HT     0.417000        1.0080           0
   78549 WT5  1408 TIP3 H2   HT     0.417000        1.0080           0
   78550 WT5  1410 TIP3 OH2  OT    -0.834000       15.9994           0
   78551 WT5  1410 TIP3 H1   HT     0.417000        1.0080           0
   78552 WT5  1410 TIP3 H2   HT     0.417000        1.0080           0
   78553 WT5  1411 TIP3 OH2  OT    -0.834000       15.9994           0
   78554 WT5  1411 TIP3 H1   HT     0.417000        1.0080           0
   78555 WT5  1411 TIP3 H2   HT     0.417000        1.0080           0
   78556 WT5  1412 TIP3 OH2  OT    -0.834000       15.9994           0
   78557 WT5  1412 TIP3 H1   HT     0.417000        1.0080           0
   78558 WT5  1412 TIP3 H2   HT     0.417000        1.0080           0
   78559 WT5  1413 TIP3 OH2  OT    -0.834000       15.9994           0
   78560 WT5  1413 TIP3 H1   HT     0.417000        1.0080           0
   78561 WT5  1413 TIP3 H2   HT     0.417000        1.0080           0
   78562 WT5  1414 TIP3 OH2  OT    -0.834000       15.9994           0
   78563 WT5  1414 TIP3 H1   HT     0.417000        1.0080           0
   78564 WT5  1414 TIP3 H2   HT     0.417000        1.0080           0
   78565 WT5  1415 TIP3 OH2  OT    -0.834000       15.9994           0
   78566 WT5  1415 TIP3 H1   HT     0.417000        1.0080           0
   78567 WT5  1415 TIP3 H2   HT     0.417000        1.0080           0
   78568 WT5  1416 TIP3 OH2  OT    -0.834000       15.9994           0
   78569 WT5  1416 TIP3 H1   HT     0.417000        1.0080           0
   78570 WT5  1416 TIP3 H2   HT     0.417000        1.0080           0
   78571 WT5  1417 TIP3 OH2  OT    -0.834000       15.9994           0
   78572 WT5  1417 TIP3 H1   HT     0.417000        1.0080           0
   78573 WT5  1417 TIP3 H2   HT     0.417000        1.0080           0
   78574 WT5  1418 TIP3 OH2  OT    -0.834000       15.9994           0
   78575 WT5  1418 TIP3 H1   HT     0.417000        1.0080           0
   78576 WT5  1418 TIP3 H2   HT     0.417000        1.0080           0
   78577 WT5  1419 TIP3 OH2  OT    -0.834000       15.9994           0
   78578 WT5  1419 TIP3 H1   HT     0.417000        1.0080           0
   78579 WT5  1419 TIP3 H2   HT     0.417000        1.0080           0
   78580 WT5  1420 TIP3 OH2  OT    -0.834000       15.9994           0
   78581 WT5  1420 TIP3 H1   HT     0.417000        1.0080           0
   78582 WT5  1420 TIP3 H2   HT     0.417000        1.0080           0
   78583 WT5  1421 TIP3 OH2  OT    -0.834000       15.9994           0
   78584 WT5  1421 TIP3 H1   HT     0.417000        1.0080           0
   78585 WT5  1421 TIP3 H2   HT     0.417000        1.0080           0
   78586 WT5  1424 TIP3 OH2  OT    -0.834000       15.9994           0
   78587 WT5  1424 TIP3 H1   HT     0.417000        1.0080           0
   78588 WT5  1424 TIP3 H2   HT     0.417000        1.0080           0
   78589 WT5  1428 TIP3 OH2  OT    -0.834000       15.9994           0
   78590 WT5  1428 TIP3 H1   HT     0.417000        1.0080           0
   78591 WT5  1428 TIP3 H2   HT     0.417000        1.0080           0
   78592 WT5  1429 TIP3 OH2  OT    -0.834000       15.9994           0
   78593 WT5  1429 TIP3 H1   HT     0.417000        1.0080           0
   78594 WT5  1429 TIP3 H2   HT     0.417000        1.0080           0
   78595 WT5  1430 TIP3 OH2  OT    -0.834000       15.9994           0
   78596 WT5  1430 TIP3 H1   HT     0.417000        1.0080           0
   78597 WT5  1430 TIP3 H2   HT     0.417000        1.0080           0
   78598 WT5  1431 TIP3 OH2  OT    -0.834000       15.9994           0
   78599 WT5  1431 TIP3 H1   HT     0.417000        1.0080           0
   78600 WT5  1431 TIP3 H2   HT     0.417000        1.0080           0
   78601 WT5  1432 TIP3 OH2  OT    -0.834000       15.9994           0
   78602 WT5  1432 TIP3 H1   HT     0.417000        1.0080           0
   78603 WT5  1432 TIP3 H2   HT     0.417000        1.0080           0
   78604 WT5  1433 TIP3 OH2  OT    -0.834000       15.9994           0
   78605 WT5  1433 TIP3 H1   HT     0.417000        1.0080           0
   78606 WT5  1433 TIP3 H2   HT     0.417000        1.0080           0
   78607 WT5  1435 TIP3 OH2  OT    -0.834000       15.9994           0
   78608 WT5  1435 TIP3 H1   HT     0.417000        1.0080           0
   78609 WT5  1435 TIP3 H2   HT     0.417000        1.0080           0
   78610 WT5  1436 TIP3 OH2  OT    -0.834000       15.9994           0
   78611 WT5  1436 TIP3 H1   HT     0.417000        1.0080           0
   78612 WT5  1436 TIP3 H2   HT     0.417000        1.0080           0
   78613 WT5  1437 TIP3 OH2  OT    -0.834000       15.9994           0
   78614 WT5  1437 TIP3 H1   HT     0.417000        1.0080           0
   78615 WT5  1437 TIP3 H2   HT     0.417000        1.0080           0
   78616 WT5  1439 TIP3 OH2  OT    -0.834000       15.9994           0
   78617 WT5  1439 TIP3 H1   HT     0.417000        1.0080           0
   78618 WT5  1439 TIP3 H2   HT     0.417000        1.0080           0
   78619 WT5  1440 TIP3 OH2  OT    -0.834000       15.9994           0
   78620 WT5  1440 TIP3 H1   HT     0.417000        1.0080           0
   78621 WT5  1440 TIP3 H2   HT     0.417000        1.0080           0
   78622 WT5  1442 TIP3 OH2  OT    -0.834000       15.9994           0
   78623 WT5  1442 TIP3 H1   HT     0.417000        1.0080           0
   78624 WT5  1442 TIP3 H2   HT     0.417000        1.0080           0
   78625 WT5  1443 TIP3 OH2  OT    -0.834000       15.9994           0
   78626 WT5  1443 TIP3 H1   HT     0.417000        1.0080           0
   78627 WT5  1443 TIP3 H2   HT     0.417000        1.0080           0
   78628 WT5  1444 TIP3 OH2  OT    -0.834000       15.9994           0
   78629 WT5  1444 TIP3 H1   HT     0.417000        1.0080           0
   78630 WT5  1444 TIP3 H2   HT     0.417000        1.0080           0
   78631 WT5  1445 TIP3 OH2  OT    -0.834000       15.9994           0
   78632 WT5  1445 TIP3 H1   HT     0.417000        1.0080           0
   78633 WT5  1445 TIP3 H2   HT     0.417000        1.0080           0
   78634 WT5  1447 TIP3 OH2  OT    -0.834000       15.9994           0
   78635 WT5  1447 TIP3 H1   HT     0.417000        1.0080           0
   78636 WT5  1447 TIP3 H2   HT     0.417000        1.0080           0
   78637 WT5  1448 TIP3 OH2  OT    -0.834000       15.9994           0
   78638 WT5  1448 TIP3 H1   HT     0.417000        1.0080           0
   78639 WT5  1448 TIP3 H2   HT     0.417000        1.0080           0
   78640 WT5  1450 TIP3 OH2  OT    -0.834000       15.9994           0
   78641 WT5  1450 TIP3 H1   HT     0.417000        1.0080           0
   78642 WT5  1450 TIP3 H2   HT     0.417000        1.0080           0
   78643 WT5  1451 TIP3 OH2  OT    -0.834000       15.9994           0
   78644 WT5  1451 TIP3 H1   HT     0.417000        1.0080           0
   78645 WT5  1451 TIP3 H2   HT     0.417000        1.0080           0
   78646 WT5  1453 TIP3 OH2  OT    -0.834000       15.9994           0
   78647 WT5  1453 TIP3 H1   HT     0.417000        1.0080           0
   78648 WT5  1453 TIP3 H2   HT     0.417000        1.0080           0
   78649 WT5  1454 TIP3 OH2  OT    -0.834000       15.9994           0
   78650 WT5  1454 TIP3 H1   HT     0.417000        1.0080           0
   78651 WT5  1454 TIP3 H2   HT     0.417000        1.0080           0
   78652 WT5  1455 TIP3 OH2  OT    -0.834000       15.9994           0
   78653 WT5  1455 TIP3 H1   HT     0.417000        1.0080           0
   78654 WT5  1455 TIP3 H2   HT     0.417000        1.0080           0
   78655 WT5  1456 TIP3 OH2  OT    -0.834000       15.9994           0
   78656 WT5  1456 TIP3 H1   HT     0.417000        1.0080           0
   78657 WT5  1456 TIP3 H2   HT     0.417000        1.0080           0
   78658 WT5  1457 TIP3 OH2  OT    -0.834000       15.9994           0
   78659 WT5  1457 TIP3 H1   HT     0.417000        1.0080           0
   78660 WT5  1457 TIP3 H2   HT     0.417000        1.0080           0
   78661 WT5  1458 TIP3 OH2  OT    -0.834000       15.9994           0
   78662 WT5  1458 TIP3 H1   HT     0.417000        1.0080           0
   78663 WT5  1458 TIP3 H2   HT     0.417000        1.0080           0
   78664 WT5  1459 TIP3 OH2  OT    -0.834000       15.9994           0
   78665 WT5  1459 TIP3 H1   HT     0.417000        1.0080           0
   78666 WT5  1459 TIP3 H2   HT     0.417000        1.0080           0
   78667 WT5  1460 TIP3 OH2  OT    -0.834000       15.9994           0
   78668 WT5  1460 TIP3 H1   HT     0.417000        1.0080           0
   78669 WT5  1460 TIP3 H2   HT     0.417000        1.0080           0
   78670 WT5  1461 TIP3 OH2  OT    -0.834000       15.9994           0
   78671 WT5  1461 TIP3 H1   HT     0.417000        1.0080           0
   78672 WT5  1461 TIP3 H2   HT     0.417000        1.0080           0
   78673 WT5  1463 TIP3 OH2  OT    -0.834000       15.9994           0
   78674 WT5  1463 TIP3 H1   HT     0.417000        1.0080           0
   78675 WT5  1463 TIP3 H2   HT     0.417000        1.0080           0
   78676 WT5  1464 TIP3 OH2  OT    -0.834000       15.9994           0
   78677 WT5  1464 TIP3 H1   HT     0.417000        1.0080           0
   78678 WT5  1464 TIP3 H2   HT     0.417000        1.0080           0
   78679 WT5  1465 TIP3 OH2  OT    -0.834000       15.9994           0
   78680 WT5  1465 TIP3 H1   HT     0.417000        1.0080           0
   78681 WT5  1465 TIP3 H2   HT     0.417000        1.0080           0
   78682 WT5  1466 TIP3 OH2  OT    -0.834000       15.9994           0
   78683 WT5  1466 TIP3 H1   HT     0.417000        1.0080           0
   78684 WT5  1466 TIP3 H2   HT     0.417000        1.0080           0
   78685 WT5  1468 TIP3 OH2  OT    -0.834000       15.9994           0
   78686 WT5  1468 TIP3 H1   HT     0.417000        1.0080           0
   78687 WT5  1468 TIP3 H2   HT     0.417000        1.0080           0
   78688 WT5  1469 TIP3 OH2  OT    -0.834000       15.9994           0
   78689 WT5  1469 TIP3 H1   HT     0.417000        1.0080           0
   78690 WT5  1469 TIP3 H2   HT     0.417000        1.0080           0
   78691 WT5  1471 TIP3 OH2  OT    -0.834000       15.9994           0
   78692 WT5  1471 TIP3 H1   HT     0.417000        1.0080           0
   78693 WT5  1471 TIP3 H2   HT     0.417000        1.0080           0
   78694 WT5  1472 TIP3 OH2  OT    -0.834000       15.9994           0
   78695 WT5  1472 TIP3 H1   HT     0.417000        1.0080           0
   78696 WT5  1472 TIP3 H2   HT     0.417000        1.0080           0
   78697 WT5  1473 TIP3 OH2  OT    -0.834000       15.9994           0
   78698 WT5  1473 TIP3 H1   HT     0.417000        1.0080           0
   78699 WT5  1473 TIP3 H2   HT     0.417000        1.0080           0
   78700 WT5  1474 TIP3 OH2  OT    -0.834000       15.9994           0
   78701 WT5  1474 TIP3 H1   HT     0.417000        1.0080           0
   78702 WT5  1474 TIP3 H2   HT     0.417000        1.0080           0
   78703 WT5  1475 TIP3 OH2  OT    -0.834000       15.9994           0
   78704 WT5  1475 TIP3 H1   HT     0.417000        1.0080           0
   78705 WT5  1475 TIP3 H2   HT     0.417000        1.0080           0
   78706 WT5  1476 TIP3 OH2  OT    -0.834000       15.9994           0
   78707 WT5  1476 TIP3 H1   HT     0.417000        1.0080           0
   78708 WT5  1476 TIP3 H2   HT     0.417000        1.0080           0
   78709 WT5  1477 TIP3 OH2  OT    -0.834000       15.9994           0
   78710 WT5  1477 TIP3 H1   HT     0.417000        1.0080           0
   78711 WT5  1477 TIP3 H2   HT     0.417000        1.0080           0
   78712 WT5  1478 TIP3 OH2  OT    -0.834000       15.9994           0
   78713 WT5  1478 TIP3 H1   HT     0.417000        1.0080           0
   78714 WT5  1478 TIP3 H2   HT     0.417000        1.0080           0
   78715 WT5  1479 TIP3 OH2  OT    -0.834000       15.9994           0
   78716 WT5  1479 TIP3 H1   HT     0.417000        1.0080           0
   78717 WT5  1479 TIP3 H2   HT     0.417000        1.0080           0
   78718 WT5  1480 TIP3 OH2  OT    -0.834000       15.9994           0
   78719 WT5  1480 TIP3 H1   HT     0.417000        1.0080           0
   78720 WT5  1480 TIP3 H2   HT     0.417000        1.0080           0
   78721 WT5  1481 TIP3 OH2  OT    -0.834000       15.9994           0
   78722 WT5  1481 TIP3 H1   HT     0.417000        1.0080           0
   78723 WT5  1481 TIP3 H2   HT     0.417000        1.0080           0
   78724 WT5  1483 TIP3 OH2  OT    -0.834000       15.9994           0
   78725 WT5  1483 TIP3 H1   HT     0.417000        1.0080           0
   78726 WT5  1483 TIP3 H2   HT     0.417000        1.0080           0
   78727 WT5  1485 TIP3 OH2  OT    -0.834000       15.9994           0
   78728 WT5  1485 TIP3 H1   HT     0.417000        1.0080           0
   78729 WT5  1485 TIP3 H2   HT     0.417000        1.0080           0
   78730 WT5  1486 TIP3 OH2  OT    -0.834000       15.9994           0
   78731 WT5  1486 TIP3 H1   HT     0.417000        1.0080           0
   78732 WT5  1486 TIP3 H2   HT     0.417000        1.0080           0
   78733 WT5  1487 TIP3 OH2  OT    -0.834000       15.9994           0
   78734 WT5  1487 TIP3 H1   HT     0.417000        1.0080           0
   78735 WT5  1487 TIP3 H2   HT     0.417000        1.0080           0
   78736 WT5  1488 TIP3 OH2  OT    -0.834000       15.9994           0
   78737 WT5  1488 TIP3 H1   HT     0.417000        1.0080           0
   78738 WT5  1488 TIP3 H2   HT     0.417000        1.0080           0
   78739 WT5  1489 TIP3 OH2  OT    -0.834000       15.9994           0
   78740 WT5  1489 TIP3 H1   HT     0.417000        1.0080           0
   78741 WT5  1489 TIP3 H2   HT     0.417000        1.0080           0
   78742 WT5  1490 TIP3 OH2  OT    -0.834000       15.9994           0
   78743 WT5  1490 TIP3 H1   HT     0.417000        1.0080           0
   78744 WT5  1490 TIP3 H2   HT     0.417000        1.0080           0
   78745 WT5  1491 TIP3 OH2  OT    -0.834000       15.9994           0
   78746 WT5  1491 TIP3 H1   HT     0.417000        1.0080           0
   78747 WT5  1491 TIP3 H2   HT     0.417000        1.0080           0
   78748 WT5  1492 TIP3 OH2  OT    -0.834000       15.9994           0
   78749 WT5  1492 TIP3 H1   HT     0.417000        1.0080           0
   78750 WT5  1492 TIP3 H2   HT     0.417000        1.0080           0
   78751 WT5  1493 TIP3 OH2  OT    -0.834000       15.9994           0
   78752 WT5  1493 TIP3 H1   HT     0.417000        1.0080           0
   78753 WT5  1493 TIP3 H2   HT     0.417000        1.0080           0
   78754 WT5  1494 TIP3 OH2  OT    -0.834000       15.9994           0
   78755 WT5  1494 TIP3 H1   HT     0.417000        1.0080           0
   78756 WT5  1494 TIP3 H2   HT     0.417000        1.0080           0
   78757 WT5  1497 TIP3 OH2  OT    -0.834000       15.9994           0
   78758 WT5  1497 TIP3 H1   HT     0.417000        1.0080           0
   78759 WT5  1497 TIP3 H2   HT     0.417000        1.0080           0
   78760 WT5  1498 TIP3 OH2  OT    -0.834000       15.9994           0
   78761 WT5  1498 TIP3 H1   HT     0.417000        1.0080           0
   78762 WT5  1498 TIP3 H2   HT     0.417000        1.0080           0
   78763 WT5  1499 TIP3 OH2  OT    -0.834000       15.9994           0
   78764 WT5  1499 TIP3 H1   HT     0.417000        1.0080           0
   78765 WT5  1499 TIP3 H2   HT     0.417000        1.0080           0
   78766 WT5  1500 TIP3 OH2  OT    -0.834000       15.9994           0
   78767 WT5  1500 TIP3 H1   HT     0.417000        1.0080           0
   78768 WT5  1500 TIP3 H2   HT     0.417000        1.0080           0
   78769 WT5  1501 TIP3 OH2  OT    -0.834000       15.9994           0
   78770 WT5  1501 TIP3 H1   HT     0.417000        1.0080           0
   78771 WT5  1501 TIP3 H2   HT     0.417000        1.0080           0
   78772 WT5  1502 TIP3 OH2  OT    -0.834000       15.9994           0
   78773 WT5  1502 TIP3 H1   HT     0.417000        1.0080           0
   78774 WT5  1502 TIP3 H2   HT     0.417000        1.0080           0
   78775 WT5  1504 TIP3 OH2  OT    -0.834000       15.9994           0
   78776 WT5  1504 TIP3 H1   HT     0.417000        1.0080           0
   78777 WT5  1504 TIP3 H2   HT     0.417000        1.0080           0
   78778 WT5  1505 TIP3 OH2  OT    -0.834000       15.9994           0
   78779 WT5  1505 TIP3 H1   HT     0.417000        1.0080           0
   78780 WT5  1505 TIP3 H2   HT     0.417000        1.0080           0
   78781 WT5  1506 TIP3 OH2  OT    -0.834000       15.9994           0
   78782 WT5  1506 TIP3 H1   HT     0.417000        1.0080           0
   78783 WT5  1506 TIP3 H2   HT     0.417000        1.0080           0
   78784 WT5  1507 TIP3 OH2  OT    -0.834000       15.9994           0
   78785 WT5  1507 TIP3 H1   HT     0.417000        1.0080           0
   78786 WT5  1507 TIP3 H2   HT     0.417000        1.0080           0
   78787 WT5  1508 TIP3 OH2  OT    -0.834000       15.9994           0
   78788 WT5  1508 TIP3 H1   HT     0.417000        1.0080           0
   78789 WT5  1508 TIP3 H2   HT     0.417000        1.0080           0
   78790 WT5  1509 TIP3 OH2  OT    -0.834000       15.9994           0
   78791 WT5  1509 TIP3 H1   HT     0.417000        1.0080           0
   78792 WT5  1509 TIP3 H2   HT     0.417000        1.0080           0
   78793 WT5  1511 TIP3 OH2  OT    -0.834000       15.9994           0
   78794 WT5  1511 TIP3 H1   HT     0.417000        1.0080           0
   78795 WT5  1511 TIP3 H2   HT     0.417000        1.0080           0
   78796 WT5  1512 TIP3 OH2  OT    -0.834000       15.9994           0
   78797 WT5  1512 TIP3 H1   HT     0.417000        1.0080           0
   78798 WT5  1512 TIP3 H2   HT     0.417000        1.0080           0
   78799 WT5  1514 TIP3 OH2  OT    -0.834000       15.9994           0
   78800 WT5  1514 TIP3 H1   HT     0.417000        1.0080           0
   78801 WT5  1514 TIP3 H2   HT     0.417000        1.0080           0
   78802 WT5  1515 TIP3 OH2  OT    -0.834000       15.9994           0
   78803 WT5  1515 TIP3 H1   HT     0.417000        1.0080           0
   78804 WT5  1515 TIP3 H2   HT     0.417000        1.0080           0
   78805 WT5  1516 TIP3 OH2  OT    -0.834000       15.9994           0
   78806 WT5  1516 TIP3 H1   HT     0.417000        1.0080           0
   78807 WT5  1516 TIP3 H2   HT     0.417000        1.0080           0
   78808 WT5  1518 TIP3 OH2  OT    -0.834000       15.9994           0
   78809 WT5  1518 TIP3 H1   HT     0.417000        1.0080           0
   78810 WT5  1518 TIP3 H2   HT     0.417000        1.0080           0
   78811 WT5  1519 TIP3 OH2  OT    -0.834000       15.9994           0
   78812 WT5  1519 TIP3 H1   HT     0.417000        1.0080           0
   78813 WT5  1519 TIP3 H2   HT     0.417000        1.0080           0
   78814 WT5  1520 TIP3 OH2  OT    -0.834000       15.9994           0
   78815 WT5  1520 TIP3 H1   HT     0.417000        1.0080           0
   78816 WT5  1520 TIP3 H2   HT     0.417000        1.0080           0
   78817 WT5  1522 TIP3 OH2  OT    -0.834000       15.9994           0
   78818 WT5  1522 TIP3 H1   HT     0.417000        1.0080           0
   78819 WT5  1522 TIP3 H2   HT     0.417000        1.0080           0
   78820 WT5  1523 TIP3 OH2  OT    -0.834000       15.9994           0
   78821 WT5  1523 TIP3 H1   HT     0.417000        1.0080           0
   78822 WT5  1523 TIP3 H2   HT     0.417000        1.0080           0
   78823 WT5  1524 TIP3 OH2  OT    -0.834000       15.9994           0
   78824 WT5  1524 TIP3 H1   HT     0.417000        1.0080           0
   78825 WT5  1524 TIP3 H2   HT     0.417000        1.0080           0
   78826 WT5  1526 TIP3 OH2  OT    -0.834000       15.9994           0
   78827 WT5  1526 TIP3 H1   HT     0.417000        1.0080           0
   78828 WT5  1526 TIP3 H2   HT     0.417000        1.0080           0
   78829 WT5  1527 TIP3 OH2  OT    -0.834000       15.9994           0
   78830 WT5  1527 TIP3 H1   HT     0.417000        1.0080           0
   78831 WT5  1527 TIP3 H2   HT     0.417000        1.0080           0
   78832 WT5  1528 TIP3 OH2  OT    -0.834000       15.9994           0
   78833 WT5  1528 TIP3 H1   HT     0.417000        1.0080           0
   78834 WT5  1528 TIP3 H2   HT     0.417000        1.0080           0
   78835 WT5  1529 TIP3 OH2  OT    -0.834000       15.9994           0
   78836 WT5  1529 TIP3 H1   HT     0.417000        1.0080           0
   78837 WT5  1529 TIP3 H2   HT     0.417000        1.0080           0
   78838 WT5  1531 TIP3 OH2  OT    -0.834000       15.9994           0
   78839 WT5  1531 TIP3 H1   HT     0.417000        1.0080           0
   78840 WT5  1531 TIP3 H2   HT     0.417000        1.0080           0
   78841 WT5  1532 TIP3 OH2  OT    -0.834000       15.9994           0
   78842 WT5  1532 TIP3 H1   HT     0.417000        1.0080           0
   78843 WT5  1532 TIP3 H2   HT     0.417000        1.0080           0
   78844 WT5  1534 TIP3 OH2  OT    -0.834000       15.9994           0
   78845 WT5  1534 TIP3 H1   HT     0.417000        1.0080           0
   78846 WT5  1534 TIP3 H2   HT     0.417000        1.0080           0
   78847 WT5  1536 TIP3 OH2  OT    -0.834000       15.9994           0
   78848 WT5  1536 TIP3 H1   HT     0.417000        1.0080           0
   78849 WT5  1536 TIP3 H2   HT     0.417000        1.0080           0
   78850 WT5  1537 TIP3 OH2  OT    -0.834000       15.9994           0
   78851 WT5  1537 TIP3 H1   HT     0.417000        1.0080           0
   78852 WT5  1537 TIP3 H2   HT     0.417000        1.0080           0
   78853 WT5  1538 TIP3 OH2  OT    -0.834000       15.9994           0
   78854 WT5  1538 TIP3 H1   HT     0.417000        1.0080           0
   78855 WT5  1538 TIP3 H2   HT     0.417000        1.0080           0
   78856 WT5  1540 TIP3 OH2  OT    -0.834000       15.9994           0
   78857 WT5  1540 TIP3 H1   HT     0.417000        1.0080           0
   78858 WT5  1540 TIP3 H2   HT     0.417000        1.0080           0
   78859 WT5  1542 TIP3 OH2  OT    -0.834000       15.9994           0
   78860 WT5  1542 TIP3 H1   HT     0.417000        1.0080           0
   78861 WT5  1542 TIP3 H2   HT     0.417000        1.0080           0
   78862 WT5  1543 TIP3 OH2  OT    -0.834000       15.9994           0
   78863 WT5  1543 TIP3 H1   HT     0.417000        1.0080           0
   78864 WT5  1543 TIP3 H2   HT     0.417000        1.0080           0
   78865 WT5  1544 TIP3 OH2  OT    -0.834000       15.9994           0
   78866 WT5  1544 TIP3 H1   HT     0.417000        1.0080           0
   78867 WT5  1544 TIP3 H2   HT     0.417000        1.0080           0
   78868 WT5  1545 TIP3 OH2  OT    -0.834000       15.9994           0
   78869 WT5  1545 TIP3 H1   HT     0.417000        1.0080           0
   78870 WT5  1545 TIP3 H2   HT     0.417000        1.0080           0
   78871 WT5  1546 TIP3 OH2  OT    -0.834000       15.9994           0
   78872 WT5  1546 TIP3 H1   HT     0.417000        1.0080           0
   78873 WT5  1546 TIP3 H2   HT     0.417000        1.0080           0
   78874 WT5  1547 TIP3 OH2  OT    -0.834000       15.9994           0
   78875 WT5  1547 TIP3 H1   HT     0.417000        1.0080           0
   78876 WT5  1547 TIP3 H2   HT     0.417000        1.0080           0
   78877 WT5  1548 TIP3 OH2  OT    -0.834000       15.9994           0
   78878 WT5  1548 TIP3 H1   HT     0.417000        1.0080           0
   78879 WT5  1548 TIP3 H2   HT     0.417000        1.0080           0
   78880 WT5  1549 TIP3 OH2  OT    -0.834000       15.9994           0
   78881 WT5  1549 TIP3 H1   HT     0.417000        1.0080           0
   78882 WT5  1549 TIP3 H2   HT     0.417000        1.0080           0
   78883 WT5  1552 TIP3 OH2  OT    -0.834000       15.9994           0
   78884 WT5  1552 TIP3 H1   HT     0.417000        1.0080           0
   78885 WT5  1552 TIP3 H2   HT     0.417000        1.0080           0
   78886 WT5  1554 TIP3 OH2  OT    -0.834000       15.9994           0
   78887 WT5  1554 TIP3 H1   HT     0.417000        1.0080           0
   78888 WT5  1554 TIP3 H2   HT     0.417000        1.0080           0
   78889 WT5  1555 TIP3 OH2  OT    -0.834000       15.9994           0
   78890 WT5  1555 TIP3 H1   HT     0.417000        1.0080           0
   78891 WT5  1555 TIP3 H2   HT     0.417000        1.0080           0
   78892 WT5  1557 TIP3 OH2  OT    -0.834000       15.9994           0
   78893 WT5  1557 TIP3 H1   HT     0.417000        1.0080           0
   78894 WT5  1557 TIP3 H2   HT     0.417000        1.0080           0
   78895 WT5  1559 TIP3 OH2  OT    -0.834000       15.9994           0
   78896 WT5  1559 TIP3 H1   HT     0.417000        1.0080           0
   78897 WT5  1559 TIP3 H2   HT     0.417000        1.0080           0
   78898 WT5  1560 TIP3 OH2  OT    -0.834000       15.9994           0
   78899 WT5  1560 TIP3 H1   HT     0.417000        1.0080           0
   78900 WT5  1560 TIP3 H2   HT     0.417000        1.0080           0
   78901 WT5  1562 TIP3 OH2  OT    -0.834000       15.9994           0
   78902 WT5  1562 TIP3 H1   HT     0.417000        1.0080           0
   78903 WT5  1562 TIP3 H2   HT     0.417000        1.0080           0
   78904 WT5  1563 TIP3 OH2  OT    -0.834000       15.9994           0
   78905 WT5  1563 TIP3 H1   HT     0.417000        1.0080           0
   78906 WT5  1563 TIP3 H2   HT     0.417000        1.0080           0
   78907 WT5  1565 TIP3 OH2  OT    -0.834000       15.9994           0
   78908 WT5  1565 TIP3 H1   HT     0.417000        1.0080           0
   78909 WT5  1565 TIP3 H2   HT     0.417000        1.0080           0
   78910 WT5  1566 TIP3 OH2  OT    -0.834000       15.9994           0
   78911 WT5  1566 TIP3 H1   HT     0.417000        1.0080           0
   78912 WT5  1566 TIP3 H2   HT     0.417000        1.0080           0
   78913 WT5  1567 TIP3 OH2  OT    -0.834000       15.9994           0
   78914 WT5  1567 TIP3 H1   HT     0.417000        1.0080           0
   78915 WT5  1567 TIP3 H2   HT     0.417000        1.0080           0
   78916 WT5  1568 TIP3 OH2  OT    -0.834000       15.9994           0
   78917 WT5  1568 TIP3 H1   HT     0.417000        1.0080           0
   78918 WT5  1568 TIP3 H2   HT     0.417000        1.0080           0
   78919 WT5  1569 TIP3 OH2  OT    -0.834000       15.9994           0
   78920 WT5  1569 TIP3 H1   HT     0.417000        1.0080           0
   78921 WT5  1569 TIP3 H2   HT     0.417000        1.0080           0
   78922 WT5  1570 TIP3 OH2  OT    -0.834000       15.9994           0
   78923 WT5  1570 TIP3 H1   HT     0.417000        1.0080           0
   78924 WT5  1570 TIP3 H2   HT     0.417000        1.0080           0
   78925 WT5  1572 TIP3 OH2  OT    -0.834000       15.9994           0
   78926 WT5  1572 TIP3 H1   HT     0.417000        1.0080           0
   78927 WT5  1572 TIP3 H2   HT     0.417000        1.0080           0
   78928 WT5  1573 TIP3 OH2  OT    -0.834000       15.9994           0
   78929 WT5  1573 TIP3 H1   HT     0.417000        1.0080           0
   78930 WT5  1573 TIP3 H2   HT     0.417000        1.0080           0
   78931 WT5  1574 TIP3 OH2  OT    -0.834000       15.9994           0
   78932 WT5  1574 TIP3 H1   HT     0.417000        1.0080           0
   78933 WT5  1574 TIP3 H2   HT     0.417000        1.0080           0
   78934 WT5  1575 TIP3 OH2  OT    -0.834000       15.9994           0
   78935 WT5  1575 TIP3 H1   HT     0.417000        1.0080           0
   78936 WT5  1575 TIP3 H2   HT     0.417000        1.0080           0
   78937 WT5  1576 TIP3 OH2  OT    -0.834000       15.9994           0
   78938 WT5  1576 TIP3 H1   HT     0.417000        1.0080           0
   78939 WT5  1576 TIP3 H2   HT     0.417000        1.0080           0
   78940 WT5  1577 TIP3 OH2  OT    -0.834000       15.9994           0
   78941 WT5  1577 TIP3 H1   HT     0.417000        1.0080           0
   78942 WT5  1577 TIP3 H2   HT     0.417000        1.0080           0
   78943 WT5  1578 TIP3 OH2  OT    -0.834000       15.9994           0
   78944 WT5  1578 TIP3 H1   HT     0.417000        1.0080           0
   78945 WT5  1578 TIP3 H2   HT     0.417000        1.0080           0
   78946 WT5  1579 TIP3 OH2  OT    -0.834000       15.9994           0
   78947 WT5  1579 TIP3 H1   HT     0.417000        1.0080           0
   78948 WT5  1579 TIP3 H2   HT     0.417000        1.0080           0
   78949 WT5  1580 TIP3 OH2  OT    -0.834000       15.9994           0
   78950 WT5  1580 TIP3 H1   HT     0.417000        1.0080           0
   78951 WT5  1580 TIP3 H2   HT     0.417000        1.0080           0
   78952 WT5  1581 TIP3 OH2  OT    -0.834000       15.9994           0
   78953 WT5  1581 TIP3 H1   HT     0.417000        1.0080           0
   78954 WT5  1581 TIP3 H2   HT     0.417000        1.0080           0
   78955 WT5  1582 TIP3 OH2  OT    -0.834000       15.9994           0
   78956 WT5  1582 TIP3 H1   HT     0.417000        1.0080           0
   78957 WT5  1582 TIP3 H2   HT     0.417000        1.0080           0
   78958 WT5  1583 TIP3 OH2  OT    -0.834000       15.9994           0
   78959 WT5  1583 TIP3 H1   HT     0.417000        1.0080           0
   78960 WT5  1583 TIP3 H2   HT     0.417000        1.0080           0
   78961 WT5  1584 TIP3 OH2  OT    -0.834000       15.9994           0
   78962 WT5  1584 TIP3 H1   HT     0.417000        1.0080           0
   78963 WT5  1584 TIP3 H2   HT     0.417000        1.0080           0
   78964 WT5  1586 TIP3 OH2  OT    -0.834000       15.9994           0
   78965 WT5  1586 TIP3 H1   HT     0.417000        1.0080           0
   78966 WT5  1586 TIP3 H2   HT     0.417000        1.0080           0
   78967 WT5  1587 TIP3 OH2  OT    -0.834000       15.9994           0
   78968 WT5  1587 TIP3 H1   HT     0.417000        1.0080           0
   78969 WT5  1587 TIP3 H2   HT     0.417000        1.0080           0
   78970 WT5  1588 TIP3 OH2  OT    -0.834000       15.9994           0
   78971 WT5  1588 TIP3 H1   HT     0.417000        1.0080           0
   78972 WT5  1588 TIP3 H2   HT     0.417000        1.0080           0
   78973 WT5  1589 TIP3 OH2  OT    -0.834000       15.9994           0
   78974 WT5  1589 TIP3 H1   HT     0.417000        1.0080           0
   78975 WT5  1589 TIP3 H2   HT     0.417000        1.0080           0
   78976 WT5  1590 TIP3 OH2  OT    -0.834000       15.9994           0
   78977 WT5  1590 TIP3 H1   HT     0.417000        1.0080           0
   78978 WT5  1590 TIP3 H2   HT     0.417000        1.0080           0
   78979 WT5  1591 TIP3 OH2  OT    -0.834000       15.9994           0
   78980 WT5  1591 TIP3 H1   HT     0.417000        1.0080           0
   78981 WT5  1591 TIP3 H2   HT     0.417000        1.0080           0
   78982 WT5  1592 TIP3 OH2  OT    -0.834000       15.9994           0
   78983 WT5  1592 TIP3 H1   HT     0.417000        1.0080           0
   78984 WT5  1592 TIP3 H2   HT     0.417000        1.0080           0
   78985 WT5  1593 TIP3 OH2  OT    -0.834000       15.9994           0
   78986 WT5  1593 TIP3 H1   HT     0.417000        1.0080           0
   78987 WT5  1593 TIP3 H2   HT     0.417000        1.0080           0
   78988 WT5  1595 TIP3 OH2  OT    -0.834000       15.9994           0
   78989 WT5  1595 TIP3 H1   HT     0.417000        1.0080           0
   78990 WT5  1595 TIP3 H2   HT     0.417000        1.0080           0
   78991 WT5  1597 TIP3 OH2  OT    -0.834000       15.9994           0
   78992 WT5  1597 TIP3 H1   HT     0.417000        1.0080           0
   78993 WT5  1597 TIP3 H2   HT     0.417000        1.0080           0
   78994 WT5  1598 TIP3 OH2  OT    -0.834000       15.9994           0
   78995 WT5  1598 TIP3 H1   HT     0.417000        1.0080           0
   78996 WT5  1598 TIP3 H2   HT     0.417000        1.0080           0
   78997 WT5  1599 TIP3 OH2  OT    -0.834000       15.9994           0
   78998 WT5  1599 TIP3 H1   HT     0.417000        1.0080           0
   78999 WT5  1599 TIP3 H2   HT     0.417000        1.0080           0
   79000 WT5  1600 TIP3 OH2  OT    -0.834000       15.9994           0
   79001 WT5  1600 TIP3 H1   HT     0.417000        1.0080           0
   79002 WT5  1600 TIP3 H2   HT     0.417000        1.0080           0
   79003 WT5  1601 TIP3 OH2  OT    -0.834000       15.9994           0
   79004 WT5  1601 TIP3 H1   HT     0.417000        1.0080           0
   79005 WT5  1601 TIP3 H2   HT     0.417000        1.0080           0
   79006 WT5  1602 TIP3 OH2  OT    -0.834000       15.9994           0
   79007 WT5  1602 TIP3 H1   HT     0.417000        1.0080           0
   79008 WT5  1602 TIP3 H2   HT     0.417000        1.0080           0
   79009 WT5  1603 TIP3 OH2  OT    -0.834000       15.9994           0
   79010 WT5  1603 TIP3 H1   HT     0.417000        1.0080           0
   79011 WT5  1603 TIP3 H2   HT     0.417000        1.0080           0
   79012 WT5  1604 TIP3 OH2  OT    -0.834000       15.9994           0
   79013 WT5  1604 TIP3 H1   HT     0.417000        1.0080           0
   79014 WT5  1604 TIP3 H2   HT     0.417000        1.0080           0
   79015 WT5  1605 TIP3 OH2  OT    -0.834000       15.9994           0
   79016 WT5  1605 TIP3 H1   HT     0.417000        1.0080           0
   79017 WT5  1605 TIP3 H2   HT     0.417000        1.0080           0
   79018 WT5  1607 TIP3 OH2  OT    -0.834000       15.9994           0
   79019 WT5  1607 TIP3 H1   HT     0.417000        1.0080           0
   79020 WT5  1607 TIP3 H2   HT     0.417000        1.0080           0
   79021 WT5  1608 TIP3 OH2  OT    -0.834000       15.9994           0
   79022 WT5  1608 TIP3 H1   HT     0.417000        1.0080           0
   79023 WT5  1608 TIP3 H2   HT     0.417000        1.0080           0
   79024 WT5  1609 TIP3 OH2  OT    -0.834000       15.9994           0
   79025 WT5  1609 TIP3 H1   HT     0.417000        1.0080           0
   79026 WT5  1609 TIP3 H2   HT     0.417000        1.0080           0
   79027 WT5  1610 TIP3 OH2  OT    -0.834000       15.9994           0
   79028 WT5  1610 TIP3 H1   HT     0.417000        1.0080           0
   79029 WT5  1610 TIP3 H2   HT     0.417000        1.0080           0
   79030 WT5  1611 TIP3 OH2  OT    -0.834000       15.9994           0
   79031 WT5  1611 TIP3 H1   HT     0.417000        1.0080           0
   79032 WT5  1611 TIP3 H2   HT     0.417000        1.0080           0
   79033 WT5  1612 TIP3 OH2  OT    -0.834000       15.9994           0
   79034 WT5  1612 TIP3 H1   HT     0.417000        1.0080           0
   79035 WT5  1612 TIP3 H2   HT     0.417000        1.0080           0
   79036 WT5  1615 TIP3 OH2  OT    -0.834000       15.9994           0
   79037 WT5  1615 TIP3 H1   HT     0.417000        1.0080           0
   79038 WT5  1615 TIP3 H2   HT     0.417000        1.0080           0
   79039 WT5  1616 TIP3 OH2  OT    -0.834000       15.9994           0
   79040 WT5  1616 TIP3 H1   HT     0.417000        1.0080           0
   79041 WT5  1616 TIP3 H2   HT     0.417000        1.0080           0
   79042 WT5  1617 TIP3 OH2  OT    -0.834000       15.9994           0
   79043 WT5  1617 TIP3 H1   HT     0.417000        1.0080           0
   79044 WT5  1617 TIP3 H2   HT     0.417000        1.0080           0
   79045 WT5  1618 TIP3 OH2  OT    -0.834000       15.9994           0
   79046 WT5  1618 TIP3 H1   HT     0.417000        1.0080           0
   79047 WT5  1618 TIP3 H2   HT     0.417000        1.0080           0
   79048 WT5  1620 TIP3 OH2  OT    -0.834000       15.9994           0
   79049 WT5  1620 TIP3 H1   HT     0.417000        1.0080           0
   79050 WT5  1620 TIP3 H2   HT     0.417000        1.0080           0
   79051 WT5  1622 TIP3 OH2  OT    -0.834000       15.9994           0
   79052 WT5  1622 TIP3 H1   HT     0.417000        1.0080           0
   79053 WT5  1622 TIP3 H2   HT     0.417000        1.0080           0
   79054 WT5  1623 TIP3 OH2  OT    -0.834000       15.9994           0
   79055 WT5  1623 TIP3 H1   HT     0.417000        1.0080           0
   79056 WT5  1623 TIP3 H2   HT     0.417000        1.0080           0
   79057 WT5  1624 TIP3 OH2  OT    -0.834000       15.9994           0
   79058 WT5  1624 TIP3 H1   HT     0.417000        1.0080           0
   79059 WT5  1624 TIP3 H2   HT     0.417000        1.0080           0
   79060 WT5  1625 TIP3 OH2  OT    -0.834000       15.9994           0
   79061 WT5  1625 TIP3 H1   HT     0.417000        1.0080           0
   79062 WT5  1625 TIP3 H2   HT     0.417000        1.0080           0
   79063 WT5  1626 TIP3 OH2  OT    -0.834000       15.9994           0
   79064 WT5  1626 TIP3 H1   HT     0.417000        1.0080           0
   79065 WT5  1626 TIP3 H2   HT     0.417000        1.0080           0
   79066 WT5  1627 TIP3 OH2  OT    -0.834000       15.9994           0
   79067 WT5  1627 TIP3 H1   HT     0.417000        1.0080           0
   79068 WT5  1627 TIP3 H2   HT     0.417000        1.0080           0
   79069 WT5  1628 TIP3 OH2  OT    -0.834000       15.9994           0
   79070 WT5  1628 TIP3 H1   HT     0.417000        1.0080           0
   79071 WT5  1628 TIP3 H2   HT     0.417000        1.0080           0
   79072 WT5  1629 TIP3 OH2  OT    -0.834000       15.9994           0
   79073 WT5  1629 TIP3 H1   HT     0.417000        1.0080           0
   79074 WT5  1629 TIP3 H2   HT     0.417000        1.0080           0
   79075 WT5  1631 TIP3 OH2  OT    -0.834000       15.9994           0
   79076 WT5  1631 TIP3 H1   HT     0.417000        1.0080           0
   79077 WT5  1631 TIP3 H2   HT     0.417000        1.0080           0
   79078 WT5  1632 TIP3 OH2  OT    -0.834000       15.9994           0
   79079 WT5  1632 TIP3 H1   HT     0.417000        1.0080           0
   79080 WT5  1632 TIP3 H2   HT     0.417000        1.0080           0
   79081 WT5  1634 TIP3 OH2  OT    -0.834000       15.9994           0
   79082 WT5  1634 TIP3 H1   HT     0.417000        1.0080           0
   79083 WT5  1634 TIP3 H2   HT     0.417000        1.0080           0
   79084 WT5  1635 TIP3 OH2  OT    -0.834000       15.9994           0
   79085 WT5  1635 TIP3 H1   HT     0.417000        1.0080           0
   79086 WT5  1635 TIP3 H2   HT     0.417000        1.0080           0
   79087 WT5  1636 TIP3 OH2  OT    -0.834000       15.9994           0
   79088 WT5  1636 TIP3 H1   HT     0.417000        1.0080           0
   79089 WT5  1636 TIP3 H2   HT     0.417000        1.0080           0
   79090 WT5  1638 TIP3 OH2  OT    -0.834000       15.9994           0
   79091 WT5  1638 TIP3 H1   HT     0.417000        1.0080           0
   79092 WT5  1638 TIP3 H2   HT     0.417000        1.0080           0
   79093 WT5  1639 TIP3 OH2  OT    -0.834000       15.9994           0
   79094 WT5  1639 TIP3 H1   HT     0.417000        1.0080           0
   79095 WT5  1639 TIP3 H2   HT     0.417000        1.0080           0
   79096 WT5  1641 TIP3 OH2  OT    -0.834000       15.9994           0
   79097 WT5  1641 TIP3 H1   HT     0.417000        1.0080           0
   79098 WT5  1641 TIP3 H2   HT     0.417000        1.0080           0
   79099 WT5  1642 TIP3 OH2  OT    -0.834000       15.9994           0
   79100 WT5  1642 TIP3 H1   HT     0.417000        1.0080           0
   79101 WT5  1642 TIP3 H2   HT     0.417000        1.0080           0
   79102 WT5  1643 TIP3 OH2  OT    -0.834000       15.9994           0
   79103 WT5  1643 TIP3 H1   HT     0.417000        1.0080           0
   79104 WT5  1643 TIP3 H2   HT     0.417000        1.0080           0
   79105 WT5  1644 TIP3 OH2  OT    -0.834000       15.9994           0
   79106 WT5  1644 TIP3 H1   HT     0.417000        1.0080           0
   79107 WT5  1644 TIP3 H2   HT     0.417000        1.0080           0
   79108 WT5  1645 TIP3 OH2  OT    -0.834000       15.9994           0
   79109 WT5  1645 TIP3 H1   HT     0.417000        1.0080           0
   79110 WT5  1645 TIP3 H2   HT     0.417000        1.0080           0
   79111 WT5  1646 TIP3 OH2  OT    -0.834000       15.9994           0
   79112 WT5  1646 TIP3 H1   HT     0.417000        1.0080           0
   79113 WT5  1646 TIP3 H2   HT     0.417000        1.0080           0
   79114 WT5  1647 TIP3 OH2  OT    -0.834000       15.9994           0
   79115 WT5  1647 TIP3 H1   HT     0.417000        1.0080           0
   79116 WT5  1647 TIP3 H2   HT     0.417000        1.0080           0
   79117 WT5  1648 TIP3 OH2  OT    -0.834000       15.9994           0
   79118 WT5  1648 TIP3 H1   HT     0.417000        1.0080           0
   79119 WT5  1648 TIP3 H2   HT     0.417000        1.0080           0
   79120 WT5  1649 TIP3 OH2  OT    -0.834000       15.9994           0
   79121 WT5  1649 TIP3 H1   HT     0.417000        1.0080           0
   79122 WT5  1649 TIP3 H2   HT     0.417000        1.0080           0
   79123 WT5  1651 TIP3 OH2  OT    -0.834000       15.9994           0
   79124 WT5  1651 TIP3 H1   HT     0.417000        1.0080           0
   79125 WT5  1651 TIP3 H2   HT     0.417000        1.0080           0
   79126 WT5  1653 TIP3 OH2  OT    -0.834000       15.9994           0
   79127 WT5  1653 TIP3 H1   HT     0.417000        1.0080           0
   79128 WT5  1653 TIP3 H2   HT     0.417000        1.0080           0
   79129 WT5  1654 TIP3 OH2  OT    -0.834000       15.9994           0
   79130 WT5  1654 TIP3 H1   HT     0.417000        1.0080           0
   79131 WT5  1654 TIP3 H2   HT     0.417000        1.0080           0
   79132 WT5  1655 TIP3 OH2  OT    -0.834000       15.9994           0
   79133 WT5  1655 TIP3 H1   HT     0.417000        1.0080           0
   79134 WT5  1655 TIP3 H2   HT     0.417000        1.0080           0
   79135 WT5  1656 TIP3 OH2  OT    -0.834000       15.9994           0
   79136 WT5  1656 TIP3 H1   HT     0.417000        1.0080           0
   79137 WT5  1656 TIP3 H2   HT     0.417000        1.0080           0
   79138 WT5  1658 TIP3 OH2  OT    -0.834000       15.9994           0
   79139 WT5  1658 TIP3 H1   HT     0.417000        1.0080           0
   79140 WT5  1658 TIP3 H2   HT     0.417000        1.0080           0
   79141 WT5  1659 TIP3 OH2  OT    -0.834000       15.9994           0
   79142 WT5  1659 TIP3 H1   HT     0.417000        1.0080           0
   79143 WT5  1659 TIP3 H2   HT     0.417000        1.0080           0
   79144 WT5  1661 TIP3 OH2  OT    -0.834000       15.9994           0
   79145 WT5  1661 TIP3 H1   HT     0.417000        1.0080           0
   79146 WT5  1661 TIP3 H2   HT     0.417000        1.0080           0
   79147 WT5  1663 TIP3 OH2  OT    -0.834000       15.9994           0
   79148 WT5  1663 TIP3 H1   HT     0.417000        1.0080           0
   79149 WT5  1663 TIP3 H2   HT     0.417000        1.0080           0
   79150 WT5  1664 TIP3 OH2  OT    -0.834000       15.9994           0
   79151 WT5  1664 TIP3 H1   HT     0.417000        1.0080           0
   79152 WT5  1664 TIP3 H2   HT     0.417000        1.0080           0
   79153 WT5  1666 TIP3 OH2  OT    -0.834000       15.9994           0
   79154 WT5  1666 TIP3 H1   HT     0.417000        1.0080           0
   79155 WT5  1666 TIP3 H2   HT     0.417000        1.0080           0
   79156 WT5  1667 TIP3 OH2  OT    -0.834000       15.9994           0
   79157 WT5  1667 TIP3 H1   HT     0.417000        1.0080           0
   79158 WT5  1667 TIP3 H2   HT     0.417000        1.0080           0
   79159 WT5  1668 TIP3 OH2  OT    -0.834000       15.9994           0
   79160 WT5  1668 TIP3 H1   HT     0.417000        1.0080           0
   79161 WT5  1668 TIP3 H2   HT     0.417000        1.0080           0
   79162 WT5  1670 TIP3 OH2  OT    -0.834000       15.9994           0
   79163 WT5  1670 TIP3 H1   HT     0.417000        1.0080           0
   79164 WT5  1670 TIP3 H2   HT     0.417000        1.0080           0
   79165 WT5  1671 TIP3 OH2  OT    -0.834000       15.9994           0
   79166 WT5  1671 TIP3 H1   HT     0.417000        1.0080           0
   79167 WT5  1671 TIP3 H2   HT     0.417000        1.0080           0
   79168 WT5  1674 TIP3 OH2  OT    -0.834000       15.9994           0
   79169 WT5  1674 TIP3 H1   HT     0.417000        1.0080           0
   79170 WT5  1674 TIP3 H2   HT     0.417000        1.0080           0
   79171 WT5  1675 TIP3 OH2  OT    -0.834000       15.9994           0
   79172 WT5  1675 TIP3 H1   HT     0.417000        1.0080           0
   79173 WT5  1675 TIP3 H2   HT     0.417000        1.0080           0
   79174 WT5  1678 TIP3 OH2  OT    -0.834000       15.9994           0
   79175 WT5  1678 TIP3 H1   HT     0.417000        1.0080           0
   79176 WT5  1678 TIP3 H2   HT     0.417000        1.0080           0
   79177 WT5  1680 TIP3 OH2  OT    -0.834000       15.9994           0
   79178 WT5  1680 TIP3 H1   HT     0.417000        1.0080           0
   79179 WT5  1680 TIP3 H2   HT     0.417000        1.0080           0
   79180 WT5  1681 TIP3 OH2  OT    -0.834000       15.9994           0
   79181 WT5  1681 TIP3 H1   HT     0.417000        1.0080           0
   79182 WT5  1681 TIP3 H2   HT     0.417000        1.0080           0
   79183 WT5  1682 TIP3 OH2  OT    -0.834000       15.9994           0
   79184 WT5  1682 TIP3 H1   HT     0.417000        1.0080           0
   79185 WT5  1682 TIP3 H2   HT     0.417000        1.0080           0
   79186 WT5  1683 TIP3 OH2  OT    -0.834000       15.9994           0
   79187 WT5  1683 TIP3 H1   HT     0.417000        1.0080           0
   79188 WT5  1683 TIP3 H2   HT     0.417000        1.0080           0
   79189 WT5  1686 TIP3 OH2  OT    -0.834000       15.9994           0
   79190 WT5  1686 TIP3 H1   HT     0.417000        1.0080           0
   79191 WT5  1686 TIP3 H2   HT     0.417000        1.0080           0
   79192 WT5  1687 TIP3 OH2  OT    -0.834000       15.9994           0
   79193 WT5  1687 TIP3 H1   HT     0.417000        1.0080           0
   79194 WT5  1687 TIP3 H2   HT     0.417000        1.0080           0
   79195 WT5  1688 TIP3 OH2  OT    -0.834000       15.9994           0
   79196 WT5  1688 TIP3 H1   HT     0.417000        1.0080           0
   79197 WT5  1688 TIP3 H2   HT     0.417000        1.0080           0
   79198 WT5  1689 TIP3 OH2  OT    -0.834000       15.9994           0
   79199 WT5  1689 TIP3 H1   HT     0.417000        1.0080           0
   79200 WT5  1689 TIP3 H2   HT     0.417000        1.0080           0
   79201 WT5  1691 TIP3 OH2  OT    -0.834000       15.9994           0
   79202 WT5  1691 TIP3 H1   HT     0.417000        1.0080           0
   79203 WT5  1691 TIP3 H2   HT     0.417000        1.0080           0
   79204 WT5  1692 TIP3 OH2  OT    -0.834000       15.9994           0
   79205 WT5  1692 TIP3 H1   HT     0.417000        1.0080           0
   79206 WT5  1692 TIP3 H2   HT     0.417000        1.0080           0
   79207 WT5  1693 TIP3 OH2  OT    -0.834000       15.9994           0
   79208 WT5  1693 TIP3 H1   HT     0.417000        1.0080           0
   79209 WT5  1693 TIP3 H2   HT     0.417000        1.0080           0
   79210 WT5  1695 TIP3 OH2  OT    -0.834000       15.9994           0
   79211 WT5  1695 TIP3 H1   HT     0.417000        1.0080           0
   79212 WT5  1695 TIP3 H2   HT     0.417000        1.0080           0
   79213 WT5  1698 TIP3 OH2  OT    -0.834000       15.9994           0
   79214 WT5  1698 TIP3 H1   HT     0.417000        1.0080           0
   79215 WT5  1698 TIP3 H2   HT     0.417000        1.0080           0
   79216 WT5  1699 TIP3 OH2  OT    -0.834000       15.9994           0
   79217 WT5  1699 TIP3 H1   HT     0.417000        1.0080           0
   79218 WT5  1699 TIP3 H2   HT     0.417000        1.0080           0
   79219 WT5  1701 TIP3 OH2  OT    -0.834000       15.9994           0
   79220 WT5  1701 TIP3 H1   HT     0.417000        1.0080           0
   79221 WT5  1701 TIP3 H2   HT     0.417000        1.0080           0
   79222 WT5  1702 TIP3 OH2  OT    -0.834000       15.9994           0
   79223 WT5  1702 TIP3 H1   HT     0.417000        1.0080           0
   79224 WT5  1702 TIP3 H2   HT     0.417000        1.0080           0
   79225 WT5  1703 TIP3 OH2  OT    -0.834000       15.9994           0
   79226 WT5  1703 TIP3 H1   HT     0.417000        1.0080           0
   79227 WT5  1703 TIP3 H2   HT     0.417000        1.0080           0
   79228 WT5  1704 TIP3 OH2  OT    -0.834000       15.9994           0
   79229 WT5  1704 TIP3 H1   HT     0.417000        1.0080           0
   79230 WT5  1704 TIP3 H2   HT     0.417000        1.0080           0
   79231 WT5  1705 TIP3 OH2  OT    -0.834000       15.9994           0
   79232 WT5  1705 TIP3 H1   HT     0.417000        1.0080           0
   79233 WT5  1705 TIP3 H2   HT     0.417000        1.0080           0
   79234 WT5  1706 TIP3 OH2  OT    -0.834000       15.9994           0
   79235 WT5  1706 TIP3 H1   HT     0.417000        1.0080           0
   79236 WT5  1706 TIP3 H2   HT     0.417000        1.0080           0
   79237 WT5  1707 TIP3 OH2  OT    -0.834000       15.9994           0
   79238 WT5  1707 TIP3 H1   HT     0.417000        1.0080           0
   79239 WT5  1707 TIP3 H2   HT     0.417000        1.0080           0
   79240 WT5  1708 TIP3 OH2  OT    -0.834000       15.9994           0
   79241 WT5  1708 TIP3 H1   HT     0.417000        1.0080           0
   79242 WT5  1708 TIP3 H2   HT     0.417000        1.0080           0
   79243 WT5  1709 TIP3 OH2  OT    -0.834000       15.9994           0
   79244 WT5  1709 TIP3 H1   HT     0.417000        1.0080           0
   79245 WT5  1709 TIP3 H2   HT     0.417000        1.0080           0
   79246 WT5  1711 TIP3 OH2  OT    -0.834000       15.9994           0
   79247 WT5  1711 TIP3 H1   HT     0.417000        1.0080           0
   79248 WT5  1711 TIP3 H2   HT     0.417000        1.0080           0
   79249 WT5  1713 TIP3 OH2  OT    -0.834000       15.9994           0
   79250 WT5  1713 TIP3 H1   HT     0.417000        1.0080           0
   79251 WT5  1713 TIP3 H2   HT     0.417000        1.0080           0
   79252 WT5  1714 TIP3 OH2  OT    -0.834000       15.9994           0
   79253 WT5  1714 TIP3 H1   HT     0.417000        1.0080           0
   79254 WT5  1714 TIP3 H2   HT     0.417000        1.0080           0
   79255 WT5  1715 TIP3 OH2  OT    -0.834000       15.9994           0
   79256 WT5  1715 TIP3 H1   HT     0.417000        1.0080           0
   79257 WT5  1715 TIP3 H2   HT     0.417000        1.0080           0
   79258 WT5  1718 TIP3 OH2  OT    -0.834000       15.9994           0
   79259 WT5  1718 TIP3 H1   HT     0.417000        1.0080           0
   79260 WT5  1718 TIP3 H2   HT     0.417000        1.0080           0
   79261 WT5  1719 TIP3 OH2  OT    -0.834000       15.9994           0
   79262 WT5  1719 TIP3 H1   HT     0.417000        1.0080           0
   79263 WT5  1719 TIP3 H2   HT     0.417000        1.0080           0
   79264 WT5  1722 TIP3 OH2  OT    -0.834000       15.9994           0
   79265 WT5  1722 TIP3 H1   HT     0.417000        1.0080           0
   79266 WT5  1722 TIP3 H2   HT     0.417000        1.0080           0
   79267 WT5  1723 TIP3 OH2  OT    -0.834000       15.9994           0
   79268 WT5  1723 TIP3 H1   HT     0.417000        1.0080           0
   79269 WT5  1723 TIP3 H2   HT     0.417000        1.0080           0
   79270 WT5  1724 TIP3 OH2  OT    -0.834000       15.9994           0
   79271 WT5  1724 TIP3 H1   HT     0.417000        1.0080           0
   79272 WT5  1724 TIP3 H2   HT     0.417000        1.0080           0
   79273 WT5  1725 TIP3 OH2  OT    -0.834000       15.9994           0
   79274 WT5  1725 TIP3 H1   HT     0.417000        1.0080           0
   79275 WT5  1725 TIP3 H2   HT     0.417000        1.0080           0
   79276 WT5  1727 TIP3 OH2  OT    -0.834000       15.9994           0
   79277 WT5  1727 TIP3 H1   HT     0.417000        1.0080           0
   79278 WT5  1727 TIP3 H2   HT     0.417000        1.0080           0
   79279 WT5  1728 TIP3 OH2  OT    -0.834000       15.9994           0
   79280 WT5  1728 TIP3 H1   HT     0.417000        1.0080           0
   79281 WT5  1728 TIP3 H2   HT     0.417000        1.0080           0
   79282 WT5  1729 TIP3 OH2  OT    -0.834000       15.9994           0
   79283 WT5  1729 TIP3 H1   HT     0.417000        1.0080           0
   79284 WT5  1729 TIP3 H2   HT     0.417000        1.0080           0
   79285 WT5  1730 TIP3 OH2  OT    -0.834000       15.9994           0
   79286 WT5  1730 TIP3 H1   HT     0.417000        1.0080           0
   79287 WT5  1730 TIP3 H2   HT     0.417000        1.0080           0
   79288 WT5  1731 TIP3 OH2  OT    -0.834000       15.9994           0
   79289 WT5  1731 TIP3 H1   HT     0.417000        1.0080           0
   79290 WT5  1731 TIP3 H2   HT     0.417000        1.0080           0
   79291 WT5  1732 TIP3 OH2  OT    -0.834000       15.9994           0
   79292 WT5  1732 TIP3 H1   HT     0.417000        1.0080           0
   79293 WT5  1732 TIP3 H2   HT     0.417000        1.0080           0
   79294 WT5  1733 TIP3 OH2  OT    -0.834000       15.9994           0
   79295 WT5  1733 TIP3 H1   HT     0.417000        1.0080           0
   79296 WT5  1733 TIP3 H2   HT     0.417000        1.0080           0
   79297 WT5  1734 TIP3 OH2  OT    -0.834000       15.9994           0
   79298 WT5  1734 TIP3 H1   HT     0.417000        1.0080           0
   79299 WT5  1734 TIP3 H2   HT     0.417000        1.0080           0
   79300 WT5  1735 TIP3 OH2  OT    -0.834000       15.9994           0
   79301 WT5  1735 TIP3 H1   HT     0.417000        1.0080           0
   79302 WT5  1735 TIP3 H2   HT     0.417000        1.0080           0
   79303 WT5  1737 TIP3 OH2  OT    -0.834000       15.9994           0
   79304 WT5  1737 TIP3 H1   HT     0.417000        1.0080           0
   79305 WT5  1737 TIP3 H2   HT     0.417000        1.0080           0
   79306 WT5  1738 TIP3 OH2  OT    -0.834000       15.9994           0
   79307 WT5  1738 TIP3 H1   HT     0.417000        1.0080           0
   79308 WT5  1738 TIP3 H2   HT     0.417000        1.0080           0
   79309 WT5  1739 TIP3 OH2  OT    -0.834000       15.9994           0
   79310 WT5  1739 TIP3 H1   HT     0.417000        1.0080           0
   79311 WT5  1739 TIP3 H2   HT     0.417000        1.0080           0
   79312 WT5  1743 TIP3 OH2  OT    -0.834000       15.9994           0
   79313 WT5  1743 TIP3 H1   HT     0.417000        1.0080           0
   79314 WT5  1743 TIP3 H2   HT     0.417000        1.0080           0
   79315 WT5  1744 TIP3 OH2  OT    -0.834000       15.9994           0
   79316 WT5  1744 TIP3 H1   HT     0.417000        1.0080           0
   79317 WT5  1744 TIP3 H2   HT     0.417000        1.0080           0
   79318 WT5  1745 TIP3 OH2  OT    -0.834000       15.9994           0
   79319 WT5  1745 TIP3 H1   HT     0.417000        1.0080           0
   79320 WT5  1745 TIP3 H2   HT     0.417000        1.0080           0
   79321 WT5  1746 TIP3 OH2  OT    -0.834000       15.9994           0
   79322 WT5  1746 TIP3 H1   HT     0.417000        1.0080           0
   79323 WT5  1746 TIP3 H2   HT     0.417000        1.0080           0
   79324 WT5  1749 TIP3 OH2  OT    -0.834000       15.9994           0
   79325 WT5  1749 TIP3 H1   HT     0.417000        1.0080           0
   79326 WT5  1749 TIP3 H2   HT     0.417000        1.0080           0
   79327 WT5  1750 TIP3 OH2  OT    -0.834000       15.9994           0
   79328 WT5  1750 TIP3 H1   HT     0.417000        1.0080           0
   79329 WT5  1750 TIP3 H2   HT     0.417000        1.0080           0
   79330 WT5  1751 TIP3 OH2  OT    -0.834000       15.9994           0
   79331 WT5  1751 TIP3 H1   HT     0.417000        1.0080           0
   79332 WT5  1751 TIP3 H2   HT     0.417000        1.0080           0
   79333 WT5  1752 TIP3 OH2  OT    -0.834000       15.9994           0
   79334 WT5  1752 TIP3 H1   HT     0.417000        1.0080           0
   79335 WT5  1752 TIP3 H2   HT     0.417000        1.0080           0
   79336 WT5  1753 TIP3 OH2  OT    -0.834000       15.9994           0
   79337 WT5  1753 TIP3 H1   HT     0.417000        1.0080           0
   79338 WT5  1753 TIP3 H2   HT     0.417000        1.0080           0
   79339 WT5  1754 TIP3 OH2  OT    -0.834000       15.9994           0
   79340 WT5  1754 TIP3 H1   HT     0.417000        1.0080           0
   79341 WT5  1754 TIP3 H2   HT     0.417000        1.0080           0
   79342 WT5  1755 TIP3 OH2  OT    -0.834000       15.9994           0
   79343 WT5  1755 TIP3 H1   HT     0.417000        1.0080           0
   79344 WT5  1755 TIP3 H2   HT     0.417000        1.0080           0
   79345 WT5  1756 TIP3 OH2  OT    -0.834000       15.9994           0
   79346 WT5  1756 TIP3 H1   HT     0.417000        1.0080           0
   79347 WT5  1756 TIP3 H2   HT     0.417000        1.0080           0
   79348 WT5  1757 TIP3 OH2  OT    -0.834000       15.9994           0
   79349 WT5  1757 TIP3 H1   HT     0.417000        1.0080           0
   79350 WT5  1757 TIP3 H2   HT     0.417000        1.0080           0
   79351 WT5  1758 TIP3 OH2  OT    -0.834000       15.9994           0
   79352 WT5  1758 TIP3 H1   HT     0.417000        1.0080           0
   79353 WT5  1758 TIP3 H2   HT     0.417000        1.0080           0
   79354 WT5  1762 TIP3 OH2  OT    -0.834000       15.9994           0
   79355 WT5  1762 TIP3 H1   HT     0.417000        1.0080           0
   79356 WT5  1762 TIP3 H2   HT     0.417000        1.0080           0
   79357 WT5  1764 TIP3 OH2  OT    -0.834000       15.9994           0
   79358 WT5  1764 TIP3 H1   HT     0.417000        1.0080           0
   79359 WT5  1764 TIP3 H2   HT     0.417000        1.0080           0
   79360 WT5  1765 TIP3 OH2  OT    -0.834000       15.9994           0
   79361 WT5  1765 TIP3 H1   HT     0.417000        1.0080           0
   79362 WT5  1765 TIP3 H2   HT     0.417000        1.0080           0
   79363 WT5  1766 TIP3 OH2  OT    -0.834000       15.9994           0
   79364 WT5  1766 TIP3 H1   HT     0.417000        1.0080           0
   79365 WT5  1766 TIP3 H2   HT     0.417000        1.0080           0
   79366 WT5  1767 TIP3 OH2  OT    -0.834000       15.9994           0
   79367 WT5  1767 TIP3 H1   HT     0.417000        1.0080           0
   79368 WT5  1767 TIP3 H2   HT     0.417000        1.0080           0
   79369 WT5  1769 TIP3 OH2  OT    -0.834000       15.9994           0
   79370 WT5  1769 TIP3 H1   HT     0.417000        1.0080           0
   79371 WT5  1769 TIP3 H2   HT     0.417000        1.0080           0
   79372 WT5  1770 TIP3 OH2  OT    -0.834000       15.9994           0
   79373 WT5  1770 TIP3 H1   HT     0.417000        1.0080           0
   79374 WT5  1770 TIP3 H2   HT     0.417000        1.0080           0
   79375 WT5  1771 TIP3 OH2  OT    -0.834000       15.9994           0
   79376 WT5  1771 TIP3 H1   HT     0.417000        1.0080           0
   79377 WT5  1771 TIP3 H2   HT     0.417000        1.0080           0
   79378 WT5  1772 TIP3 OH2  OT    -0.834000       15.9994           0
   79379 WT5  1772 TIP3 H1   HT     0.417000        1.0080           0
   79380 WT5  1772 TIP3 H2   HT     0.417000        1.0080           0
   79381 WT5  1773 TIP3 OH2  OT    -0.834000       15.9994           0
   79382 WT5  1773 TIP3 H1   HT     0.417000        1.0080           0
   79383 WT5  1773 TIP3 H2   HT     0.417000        1.0080           0
   79384 WT5  1774 TIP3 OH2  OT    -0.834000       15.9994           0
   79385 WT5  1774 TIP3 H1   HT     0.417000        1.0080           0
   79386 WT5  1774 TIP3 H2   HT     0.417000        1.0080           0
   79387 WT5  1775 TIP3 OH2  OT    -0.834000       15.9994           0
   79388 WT5  1775 TIP3 H1   HT     0.417000        1.0080           0
   79389 WT5  1775 TIP3 H2   HT     0.417000        1.0080           0
   79390 WT5  1776 TIP3 OH2  OT    -0.834000       15.9994           0
   79391 WT5  1776 TIP3 H1   HT     0.417000        1.0080           0
   79392 WT5  1776 TIP3 H2   HT     0.417000        1.0080           0
   79393 WT5  1777 TIP3 OH2  OT    -0.834000       15.9994           0
   79394 WT5  1777 TIP3 H1   HT     0.417000        1.0080           0
   79395 WT5  1777 TIP3 H2   HT     0.417000        1.0080           0
   79396 WT5  1778 TIP3 OH2  OT    -0.834000       15.9994           0
   79397 WT5  1778 TIP3 H1   HT     0.417000        1.0080           0
   79398 WT5  1778 TIP3 H2   HT     0.417000        1.0080           0
   79399 WT5  1779 TIP3 OH2  OT    -0.834000       15.9994           0
   79400 WT5  1779 TIP3 H1   HT     0.417000        1.0080           0
   79401 WT5  1779 TIP3 H2   HT     0.417000        1.0080           0
   79402 WT5  1780 TIP3 OH2  OT    -0.834000       15.9994           0
   79403 WT5  1780 TIP3 H1   HT     0.417000        1.0080           0
   79404 WT5  1780 TIP3 H2   HT     0.417000        1.0080           0
   79405 WT5  1781 TIP3 OH2  OT    -0.834000       15.9994           0
   79406 WT5  1781 TIP3 H1   HT     0.417000        1.0080           0
   79407 WT5  1781 TIP3 H2   HT     0.417000        1.0080           0
   79408 WT5  1782 TIP3 OH2  OT    -0.834000       15.9994           0
   79409 WT5  1782 TIP3 H1   HT     0.417000        1.0080           0
   79410 WT5  1782 TIP3 H2   HT     0.417000        1.0080           0
   79411 WT5  1783 TIP3 OH2  OT    -0.834000       15.9994           0
   79412 WT5  1783 TIP3 H1   HT     0.417000        1.0080           0
   79413 WT5  1783 TIP3 H2   HT     0.417000        1.0080           0
   79414 WT5  1784 TIP3 OH2  OT    -0.834000       15.9994           0
   79415 WT5  1784 TIP3 H1   HT     0.417000        1.0080           0
   79416 WT5  1784 TIP3 H2   HT     0.417000        1.0080           0
   79417 WT5  1785 TIP3 OH2  OT    -0.834000       15.9994           0
   79418 WT5  1785 TIP3 H1   HT     0.417000        1.0080           0
   79419 WT5  1785 TIP3 H2   HT     0.417000        1.0080           0
   79420 WT5  1786 TIP3 OH2  OT    -0.834000       15.9994           0
   79421 WT5  1786 TIP3 H1   HT     0.417000        1.0080           0
   79422 WT5  1786 TIP3 H2   HT     0.417000        1.0080           0
   79423 WT5  1787 TIP3 OH2  OT    -0.834000       15.9994           0
   79424 WT5  1787 TIP3 H1   HT     0.417000        1.0080           0
   79425 WT5  1787 TIP3 H2   HT     0.417000        1.0080           0
   79426 WT5  1788 TIP3 OH2  OT    -0.834000       15.9994           0
   79427 WT5  1788 TIP3 H1   HT     0.417000        1.0080           0
   79428 WT5  1788 TIP3 H2   HT     0.417000        1.0080           0
   79429 WT5  1789 TIP3 OH2  OT    -0.834000       15.9994           0
   79430 WT5  1789 TIP3 H1   HT     0.417000        1.0080           0
   79431 WT5  1789 TIP3 H2   HT     0.417000        1.0080           0
   79432 WT5  1790 TIP3 OH2  OT    -0.834000       15.9994           0
   79433 WT5  1790 TIP3 H1   HT     0.417000        1.0080           0
   79434 WT5  1790 TIP3 H2   HT     0.417000        1.0080           0
   79435 WT5  1791 TIP3 OH2  OT    -0.834000       15.9994           0
   79436 WT5  1791 TIP3 H1   HT     0.417000        1.0080           0
   79437 WT5  1791 TIP3 H2   HT     0.417000        1.0080           0
   79438 WT5  1792 TIP3 OH2  OT    -0.834000       15.9994           0
   79439 WT5  1792 TIP3 H1   HT     0.417000        1.0080           0
   79440 WT5  1792 TIP3 H2   HT     0.417000        1.0080           0
   79441 WT5  1793 TIP3 OH2  OT    -0.834000       15.9994           0
   79442 WT5  1793 TIP3 H1   HT     0.417000        1.0080           0
   79443 WT5  1793 TIP3 H2   HT     0.417000        1.0080           0
   79444 WT5  1794 TIP3 OH2  OT    -0.834000       15.9994           0
   79445 WT5  1794 TIP3 H1   HT     0.417000        1.0080           0
   79446 WT5  1794 TIP3 H2   HT     0.417000        1.0080           0
   79447 WT5  1795 TIP3 OH2  OT    -0.834000       15.9994           0
   79448 WT5  1795 TIP3 H1   HT     0.417000        1.0080           0
   79449 WT5  1795 TIP3 H2   HT     0.417000        1.0080           0
   79450 WT5  1796 TIP3 OH2  OT    -0.834000       15.9994           0
   79451 WT5  1796 TIP3 H1   HT     0.417000        1.0080           0
   79452 WT5  1796 TIP3 H2   HT     0.417000        1.0080           0
   79453 WT5  1797 TIP3 OH2  OT    -0.834000       15.9994           0
   79454 WT5  1797 TIP3 H1   HT     0.417000        1.0080           0
   79455 WT5  1797 TIP3 H2   HT     0.417000        1.0080           0
   79456 WT5  1798 TIP3 OH2  OT    -0.834000       15.9994           0
   79457 WT5  1798 TIP3 H1   HT     0.417000        1.0080           0
   79458 WT5  1798 TIP3 H2   HT     0.417000        1.0080           0
   79459 WT5  1799 TIP3 OH2  OT    -0.834000       15.9994           0
   79460 WT5  1799 TIP3 H1   HT     0.417000        1.0080           0
   79461 WT5  1799 TIP3 H2   HT     0.417000        1.0080           0
   79462 WT5  1800 TIP3 OH2  OT    -0.834000       15.9994           0
   79463 WT5  1800 TIP3 H1   HT     0.417000        1.0080           0
   79464 WT5  1800 TIP3 H2   HT     0.417000        1.0080           0
   79465 WT5  1805 TIP3 OH2  OT    -0.834000       15.9994           0
   79466 WT5  1805 TIP3 H1   HT     0.417000        1.0080           0
   79467 WT5  1805 TIP3 H2   HT     0.417000        1.0080           0
   79468 WT5  1806 TIP3 OH2  OT    -0.834000       15.9994           0
   79469 WT5  1806 TIP3 H1   HT     0.417000        1.0080           0
   79470 WT5  1806 TIP3 H2   HT     0.417000        1.0080           0
   79471 WT5  1808 TIP3 OH2  OT    -0.834000       15.9994           0
   79472 WT5  1808 TIP3 H1   HT     0.417000        1.0080           0
   79473 WT5  1808 TIP3 H2   HT     0.417000        1.0080           0
   79474 WT5  1810 TIP3 OH2  OT    -0.834000       15.9994           0
   79475 WT5  1810 TIP3 H1   HT     0.417000        1.0080           0
   79476 WT5  1810 TIP3 H2   HT     0.417000        1.0080           0
   79477 WT5  1811 TIP3 OH2  OT    -0.834000       15.9994           0
   79478 WT5  1811 TIP3 H1   HT     0.417000        1.0080           0
   79479 WT5  1811 TIP3 H2   HT     0.417000        1.0080           0
   79480 WT5  1812 TIP3 OH2  OT    -0.834000       15.9994           0
   79481 WT5  1812 TIP3 H1   HT     0.417000        1.0080           0
   79482 WT5  1812 TIP3 H2   HT     0.417000        1.0080           0
   79483 WT5  1813 TIP3 OH2  OT    -0.834000       15.9994           0
   79484 WT5  1813 TIP3 H1   HT     0.417000        1.0080           0
   79485 WT5  1813 TIP3 H2   HT     0.417000        1.0080           0
   79486 WT5  1814 TIP3 OH2  OT    -0.834000       15.9994           0
   79487 WT5  1814 TIP3 H1   HT     0.417000        1.0080           0
   79488 WT5  1814 TIP3 H2   HT     0.417000        1.0080           0
   79489 WT5  1815 TIP3 OH2  OT    -0.834000       15.9994           0
   79490 WT5  1815 TIP3 H1   HT     0.417000        1.0080           0
   79491 WT5  1815 TIP3 H2   HT     0.417000        1.0080           0
   79492 WT5  1816 TIP3 OH2  OT    -0.834000       15.9994           0
   79493 WT5  1816 TIP3 H1   HT     0.417000        1.0080           0
   79494 WT5  1816 TIP3 H2   HT     0.417000        1.0080           0
   79495 WT5  1817 TIP3 OH2  OT    -0.834000       15.9994           0
   79496 WT5  1817 TIP3 H1   HT     0.417000        1.0080           0
   79497 WT5  1817 TIP3 H2   HT     0.417000        1.0080           0
   79498 WT5  1818 TIP3 OH2  OT    -0.834000       15.9994           0
   79499 WT5  1818 TIP3 H1   HT     0.417000        1.0080           0
   79500 WT5  1818 TIP3 H2   HT     0.417000        1.0080           0
   79501 WT5  1819 TIP3 OH2  OT    -0.834000       15.9994           0
   79502 WT5  1819 TIP3 H1   HT     0.417000        1.0080           0
   79503 WT5  1819 TIP3 H2   HT     0.417000        1.0080           0
   79504 WT5  1820 TIP3 OH2  OT    -0.834000       15.9994           0
   79505 WT5  1820 TIP3 H1   HT     0.417000        1.0080           0
   79506 WT5  1820 TIP3 H2   HT     0.417000        1.0080           0
   79507 WT5  1821 TIP3 OH2  OT    -0.834000       15.9994           0
   79508 WT5  1821 TIP3 H1   HT     0.417000        1.0080           0
   79509 WT5  1821 TIP3 H2   HT     0.417000        1.0080           0
   79510 WT5  1822 TIP3 OH2  OT    -0.834000       15.9994           0
   79511 WT5  1822 TIP3 H1   HT     0.417000        1.0080           0
   79512 WT5  1822 TIP3 H2   HT     0.417000        1.0080           0
   79513 WT5  1824 TIP3 OH2  OT    -0.834000       15.9994           0
   79514 WT5  1824 TIP3 H1   HT     0.417000        1.0080           0
   79515 WT5  1824 TIP3 H2   HT     0.417000        1.0080           0
   79516 WT5  1825 TIP3 OH2  OT    -0.834000       15.9994           0
   79517 WT5  1825 TIP3 H1   HT     0.417000        1.0080           0
   79518 WT5  1825 TIP3 H2   HT     0.417000        1.0080           0
   79519 WT5  1826 TIP3 OH2  OT    -0.834000       15.9994           0
   79520 WT5  1826 TIP3 H1   HT     0.417000        1.0080           0
   79521 WT5  1826 TIP3 H2   HT     0.417000        1.0080           0
   79522 WT5  1827 TIP3 OH2  OT    -0.834000       15.9994           0
   79523 WT5  1827 TIP3 H1   HT     0.417000        1.0080           0
   79524 WT5  1827 TIP3 H2   HT     0.417000        1.0080           0
   79525 WT5  1829 TIP3 OH2  OT    -0.834000       15.9994           0
   79526 WT5  1829 TIP3 H1   HT     0.417000        1.0080           0
   79527 WT5  1829 TIP3 H2   HT     0.417000        1.0080           0
   79528 WT5  1830 TIP3 OH2  OT    -0.834000       15.9994           0
   79529 WT5  1830 TIP3 H1   HT     0.417000        1.0080           0
   79530 WT5  1830 TIP3 H2   HT     0.417000        1.0080           0
   79531 WT5  1831 TIP3 OH2  OT    -0.834000       15.9994           0
   79532 WT5  1831 TIP3 H1   HT     0.417000        1.0080           0
   79533 WT5  1831 TIP3 H2   HT     0.417000        1.0080           0
   79534 WT5  1832 TIP3 OH2  OT    -0.834000       15.9994           0
   79535 WT5  1832 TIP3 H1   HT     0.417000        1.0080           0
   79536 WT5  1832 TIP3 H2   HT     0.417000        1.0080           0
   79537 WT5  1833 TIP3 OH2  OT    -0.834000       15.9994           0
   79538 WT5  1833 TIP3 H1   HT     0.417000        1.0080           0
   79539 WT5  1833 TIP3 H2   HT     0.417000        1.0080           0
   79540 WT5  1834 TIP3 OH2  OT    -0.834000       15.9994           0
   79541 WT5  1834 TIP3 H1   HT     0.417000        1.0080           0
   79542 WT5  1834 TIP3 H2   HT     0.417000        1.0080           0
   79543 WT5  1835 TIP3 OH2  OT    -0.834000       15.9994           0
   79544 WT5  1835 TIP3 H1   HT     0.417000        1.0080           0
   79545 WT5  1835 TIP3 H2   HT     0.417000        1.0080           0
   79546 WT5  1837 TIP3 OH2  OT    -0.834000       15.9994           0
   79547 WT5  1837 TIP3 H1   HT     0.417000        1.0080           0
   79548 WT5  1837 TIP3 H2   HT     0.417000        1.0080           0
   79549 WT5  1838 TIP3 OH2  OT    -0.834000       15.9994           0
   79550 WT5  1838 TIP3 H1   HT     0.417000        1.0080           0
   79551 WT5  1838 TIP3 H2   HT     0.417000        1.0080           0
   79552 WT5  1839 TIP3 OH2  OT    -0.834000       15.9994           0
   79553 WT5  1839 TIP3 H1   HT     0.417000        1.0080           0
   79554 WT5  1839 TIP3 H2   HT     0.417000        1.0080           0
   79555 WT5  1840 TIP3 OH2  OT    -0.834000       15.9994           0
   79556 WT5  1840 TIP3 H1   HT     0.417000        1.0080           0
   79557 WT5  1840 TIP3 H2   HT     0.417000        1.0080           0
   79558 WT5  1841 TIP3 OH2  OT    -0.834000       15.9994           0
   79559 WT5  1841 TIP3 H1   HT     0.417000        1.0080           0
   79560 WT5  1841 TIP3 H2   HT     0.417000        1.0080           0
   79561 WT5  1842 TIP3 OH2  OT    -0.834000       15.9994           0
   79562 WT5  1842 TIP3 H1   HT     0.417000        1.0080           0
   79563 WT5  1842 TIP3 H2   HT     0.417000        1.0080           0
   79564 WT5  1843 TIP3 OH2  OT    -0.834000       15.9994           0
   79565 WT5  1843 TIP3 H1   HT     0.417000        1.0080           0
   79566 WT5  1843 TIP3 H2   HT     0.417000        1.0080           0
   79567 WT5  1844 TIP3 OH2  OT    -0.834000       15.9994           0
   79568 WT5  1844 TIP3 H1   HT     0.417000        1.0080           0
   79569 WT5  1844 TIP3 H2   HT     0.417000        1.0080           0
   79570 WT5  1846 TIP3 OH2  OT    -0.834000       15.9994           0
   79571 WT5  1846 TIP3 H1   HT     0.417000        1.0080           0
   79572 WT5  1846 TIP3 H2   HT     0.417000        1.0080           0
   79573 WT5  1847 TIP3 OH2  OT    -0.834000       15.9994           0
   79574 WT5  1847 TIP3 H1   HT     0.417000        1.0080           0
   79575 WT5  1847 TIP3 H2   HT     0.417000        1.0080           0
   79576 WT5  1849 TIP3 OH2  OT    -0.834000       15.9994           0
   79577 WT5  1849 TIP3 H1   HT     0.417000        1.0080           0
   79578 WT5  1849 TIP3 H2   HT     0.417000        1.0080           0
   79579 WT5  1850 TIP3 OH2  OT    -0.834000       15.9994           0
   79580 WT5  1850 TIP3 H1   HT     0.417000        1.0080           0
   79581 WT5  1850 TIP3 H2   HT     0.417000        1.0080           0
   79582 WT5  1851 TIP3 OH2  OT    -0.834000       15.9994           0
   79583 WT5  1851 TIP3 H1   HT     0.417000        1.0080           0
   79584 WT5  1851 TIP3 H2   HT     0.417000        1.0080           0
   79585 WT5  1852 TIP3 OH2  OT    -0.834000       15.9994           0
   79586 WT5  1852 TIP3 H1   HT     0.417000        1.0080           0
   79587 WT5  1852 TIP3 H2   HT     0.417000        1.0080           0
   79588 WT5  1853 TIP3 OH2  OT    -0.834000       15.9994           0
   79589 WT5  1853 TIP3 H1   HT     0.417000        1.0080           0
   79590 WT5  1853 TIP3 H2   HT     0.417000        1.0080           0
   79591 WT5  1854 TIP3 OH2  OT    -0.834000       15.9994           0
   79592 WT5  1854 TIP3 H1   HT     0.417000        1.0080           0
   79593 WT5  1854 TIP3 H2   HT     0.417000        1.0080           0
   79594 WT5  1856 TIP3 OH2  OT    -0.834000       15.9994           0
   79595 WT5  1856 TIP3 H1   HT     0.417000        1.0080           0
   79596 WT5  1856 TIP3 H2   HT     0.417000        1.0080           0
   79597 WT5  1857 TIP3 OH2  OT    -0.834000       15.9994           0
   79598 WT5  1857 TIP3 H1   HT     0.417000        1.0080           0
   79599 WT5  1857 TIP3 H2   HT     0.417000        1.0080           0
   79600 WT5  1858 TIP3 OH2  OT    -0.834000       15.9994           0
   79601 WT5  1858 TIP3 H1   HT     0.417000        1.0080           0
   79602 WT5  1858 TIP3 H2   HT     0.417000        1.0080           0
   79603 WT5  1859 TIP3 OH2  OT    -0.834000       15.9994           0
   79604 WT5  1859 TIP3 H1   HT     0.417000        1.0080           0
   79605 WT5  1859 TIP3 H2   HT     0.417000        1.0080           0
   79606 WT5  1860 TIP3 OH2  OT    -0.834000       15.9994           0
   79607 WT5  1860 TIP3 H1   HT     0.417000        1.0080           0
   79608 WT5  1860 TIP3 H2   HT     0.417000        1.0080           0
   79609 WT5  1861 TIP3 OH2  OT    -0.834000       15.9994           0
   79610 WT5  1861 TIP3 H1   HT     0.417000        1.0080           0
   79611 WT5  1861 TIP3 H2   HT     0.417000        1.0080           0
   79612 WT5  1862 TIP3 OH2  OT    -0.834000       15.9994           0
   79613 WT5  1862 TIP3 H1   HT     0.417000        1.0080           0
   79614 WT5  1862 TIP3 H2   HT     0.417000        1.0080           0
   79615 WT5  1863 TIP3 OH2  OT    -0.834000       15.9994           0
   79616 WT5  1863 TIP3 H1   HT     0.417000        1.0080           0
   79617 WT5  1863 TIP3 H2   HT     0.417000        1.0080           0
   79618 WT5  1864 TIP3 OH2  OT    -0.834000       15.9994           0
   79619 WT5  1864 TIP3 H1   HT     0.417000        1.0080           0
   79620 WT5  1864 TIP3 H2   HT     0.417000        1.0080           0
   79621 WT5  1866 TIP3 OH2  OT    -0.834000       15.9994           0
   79622 WT5  1866 TIP3 H1   HT     0.417000        1.0080           0
   79623 WT5  1866 TIP3 H2   HT     0.417000        1.0080           0
   79624 WT5  1869 TIP3 OH2  OT    -0.834000       15.9994           0
   79625 WT5  1869 TIP3 H1   HT     0.417000        1.0080           0
   79626 WT5  1869 TIP3 H2   HT     0.417000        1.0080           0
   79627 WT5  1870 TIP3 OH2  OT    -0.834000       15.9994           0
   79628 WT5  1870 TIP3 H1   HT     0.417000        1.0080           0
   79629 WT5  1870 TIP3 H2   HT     0.417000        1.0080           0
   79630 WT5  1871 TIP3 OH2  OT    -0.834000       15.9994           0
   79631 WT5  1871 TIP3 H1   HT     0.417000        1.0080           0
   79632 WT5  1871 TIP3 H2   HT     0.417000        1.0080           0
   79633 WT5  1872 TIP3 OH2  OT    -0.834000       15.9994           0
   79634 WT5  1872 TIP3 H1   HT     0.417000        1.0080           0
   79635 WT5  1872 TIP3 H2   HT     0.417000        1.0080           0
   79636 WT5  1873 TIP3 OH2  OT    -0.834000       15.9994           0
   79637 WT5  1873 TIP3 H1   HT     0.417000        1.0080           0
   79638 WT5  1873 TIP3 H2   HT     0.417000        1.0080           0
   79639 WT5  1874 TIP3 OH2  OT    -0.834000       15.9994           0
   79640 WT5  1874 TIP3 H1   HT     0.417000        1.0080           0
   79641 WT5  1874 TIP3 H2   HT     0.417000        1.0080           0
   79642 WT5  1875 TIP3 OH2  OT    -0.834000       15.9994           0
   79643 WT5  1875 TIP3 H1   HT     0.417000        1.0080           0
   79644 WT5  1875 TIP3 H2   HT     0.417000        1.0080           0
   79645 WT5  1876 TIP3 OH2  OT    -0.834000       15.9994           0
   79646 WT5  1876 TIP3 H1   HT     0.417000        1.0080           0
   79647 WT5  1876 TIP3 H2   HT     0.417000        1.0080           0
   79648 WT5  1877 TIP3 OH2  OT    -0.834000       15.9994           0
   79649 WT5  1877 TIP3 H1   HT     0.417000        1.0080           0
   79650 WT5  1877 TIP3 H2   HT     0.417000        1.0080           0
   79651 WT5  1878 TIP3 OH2  OT    -0.834000       15.9994           0
   79652 WT5  1878 TIP3 H1   HT     0.417000        1.0080           0
   79653 WT5  1878 TIP3 H2   HT     0.417000        1.0080           0
   79654 WT5  1879 TIP3 OH2  OT    -0.834000       15.9994           0
   79655 WT5  1879 TIP3 H1   HT     0.417000        1.0080           0
   79656 WT5  1879 TIP3 H2   HT     0.417000        1.0080           0
   79657 WT5  1880 TIP3 OH2  OT    -0.834000       15.9994           0
   79658 WT5  1880 TIP3 H1   HT     0.417000        1.0080           0
   79659 WT5  1880 TIP3 H2   HT     0.417000        1.0080           0
   79660 WT5  1881 TIP3 OH2  OT    -0.834000       15.9994           0
   79661 WT5  1881 TIP3 H1   HT     0.417000        1.0080           0
   79662 WT5  1881 TIP3 H2   HT     0.417000        1.0080           0
   79663 WT5  1882 TIP3 OH2  OT    -0.834000       15.9994           0
   79664 WT5  1882 TIP3 H1   HT     0.417000        1.0080           0
   79665 WT5  1882 TIP3 H2   HT     0.417000        1.0080           0
   79666 WT5  1883 TIP3 OH2  OT    -0.834000       15.9994           0
   79667 WT5  1883 TIP3 H1   HT     0.417000        1.0080           0
   79668 WT5  1883 TIP3 H2   HT     0.417000        1.0080           0
   79669 WT5  1885 TIP3 OH2  OT    -0.834000       15.9994           0
   79670 WT5  1885 TIP3 H1   HT     0.417000        1.0080           0
   79671 WT5  1885 TIP3 H2   HT     0.417000        1.0080           0
   79672 WT5  1887 TIP3 OH2  OT    -0.834000       15.9994           0
   79673 WT5  1887 TIP3 H1   HT     0.417000        1.0080           0
   79674 WT5  1887 TIP3 H2   HT     0.417000        1.0080           0
   79675 WT5  1888 TIP3 OH2  OT    -0.834000       15.9994           0
   79676 WT5  1888 TIP3 H1   HT     0.417000        1.0080           0
   79677 WT5  1888 TIP3 H2   HT     0.417000        1.0080           0
   79678 WT5  1890 TIP3 OH2  OT    -0.834000       15.9994           0
   79679 WT5  1890 TIP3 H1   HT     0.417000        1.0080           0
   79680 WT5  1890 TIP3 H2   HT     0.417000        1.0080           0
   79681 WT5  1891 TIP3 OH2  OT    -0.834000       15.9994           0
   79682 WT5  1891 TIP3 H1   HT     0.417000        1.0080           0
   79683 WT5  1891 TIP3 H2   HT     0.417000        1.0080           0
   79684 WT5  1892 TIP3 OH2  OT    -0.834000       15.9994           0
   79685 WT5  1892 TIP3 H1   HT     0.417000        1.0080           0
   79686 WT5  1892 TIP3 H2   HT     0.417000        1.0080           0
   79687 WT5  1893 TIP3 OH2  OT    -0.834000       15.9994           0
   79688 WT5  1893 TIP3 H1   HT     0.417000        1.0080           0
   79689 WT5  1893 TIP3 H2   HT     0.417000        1.0080           0
   79690 WT5  1894 TIP3 OH2  OT    -0.834000       15.9994           0
   79691 WT5  1894 TIP3 H1   HT     0.417000        1.0080           0
   79692 WT5  1894 TIP3 H2   HT     0.417000        1.0080           0
   79693 WT5  1895 TIP3 OH2  OT    -0.834000       15.9994           0
   79694 WT5  1895 TIP3 H1   HT     0.417000        1.0080           0
   79695 WT5  1895 TIP3 H2   HT     0.417000        1.0080           0
   79696 WT5  1896 TIP3 OH2  OT    -0.834000       15.9994           0
   79697 WT5  1896 TIP3 H1   HT     0.417000        1.0080           0
   79698 WT5  1896 TIP3 H2   HT     0.417000        1.0080           0
   79699 WT5  1897 TIP3 OH2  OT    -0.834000       15.9994           0
   79700 WT5  1897 TIP3 H1   HT     0.417000        1.0080           0
   79701 WT5  1897 TIP3 H2   HT     0.417000        1.0080           0
   79702 WT5  1898 TIP3 OH2  OT    -0.834000       15.9994           0
   79703 WT5  1898 TIP3 H1   HT     0.417000        1.0080           0
   79704 WT5  1898 TIP3 H2   HT     0.417000        1.0080           0
   79705 WT5  1899 TIP3 OH2  OT    -0.834000       15.9994           0
   79706 WT5  1899 TIP3 H1   HT     0.417000        1.0080           0
   79707 WT5  1899 TIP3 H2   HT     0.417000        1.0080           0
   79708 WT5  1900 TIP3 OH2  OT    -0.834000       15.9994           0
   79709 WT5  1900 TIP3 H1   HT     0.417000        1.0080           0
   79710 WT5  1900 TIP3 H2   HT     0.417000        1.0080           0
   79711 WT5  1902 TIP3 OH2  OT    -0.834000       15.9994           0
   79712 WT5  1902 TIP3 H1   HT     0.417000        1.0080           0
   79713 WT5  1902 TIP3 H2   HT     0.417000        1.0080           0
   79714 WT5  1903 TIP3 OH2  OT    -0.834000       15.9994           0
   79715 WT5  1903 TIP3 H1   HT     0.417000        1.0080           0
   79716 WT5  1903 TIP3 H2   HT     0.417000        1.0080           0
   79717 WT5  1904 TIP3 OH2  OT    -0.834000       15.9994           0
   79718 WT5  1904 TIP3 H1   HT     0.417000        1.0080           0
   79719 WT5  1904 TIP3 H2   HT     0.417000        1.0080           0
   79720 WT5  1905 TIP3 OH2  OT    -0.834000       15.9994           0
   79721 WT5  1905 TIP3 H1   HT     0.417000        1.0080           0
   79722 WT5  1905 TIP3 H2   HT     0.417000        1.0080           0
   79723 WT5  1906 TIP3 OH2  OT    -0.834000       15.9994           0
   79724 WT5  1906 TIP3 H1   HT     0.417000        1.0080           0
   79725 WT5  1906 TIP3 H2   HT     0.417000        1.0080           0
   79726 WT5  1907 TIP3 OH2  OT    -0.834000       15.9994           0
   79727 WT5  1907 TIP3 H1   HT     0.417000        1.0080           0
   79728 WT5  1907 TIP3 H2   HT     0.417000        1.0080           0
   79729 WT5  1909 TIP3 OH2  OT    -0.834000       15.9994           0
   79730 WT5  1909 TIP3 H1   HT     0.417000        1.0080           0
   79731 WT5  1909 TIP3 H2   HT     0.417000        1.0080           0
   79732 WT5  1911 TIP3 OH2  OT    -0.834000       15.9994           0
   79733 WT5  1911 TIP3 H1   HT     0.417000        1.0080           0
   79734 WT5  1911 TIP3 H2   HT     0.417000        1.0080           0
   79735 WT5  1912 TIP3 OH2  OT    -0.834000       15.9994           0
   79736 WT5  1912 TIP3 H1   HT     0.417000        1.0080           0
   79737 WT5  1912 TIP3 H2   HT     0.417000        1.0080           0
   79738 WT5  1913 TIP3 OH2  OT    -0.834000       15.9994           0
   79739 WT5  1913 TIP3 H1   HT     0.417000        1.0080           0
   79740 WT5  1913 TIP3 H2   HT     0.417000        1.0080           0
   79741 WT5  1914 TIP3 OH2  OT    -0.834000       15.9994           0
   79742 WT5  1914 TIP3 H1   HT     0.417000        1.0080           0
   79743 WT5  1914 TIP3 H2   HT     0.417000        1.0080           0
   79744 WT5  1915 TIP3 OH2  OT    -0.834000       15.9994           0
   79745 WT5  1915 TIP3 H1   HT     0.417000        1.0080           0
   79746 WT5  1915 TIP3 H2   HT     0.417000        1.0080           0
   79747 WT5  1916 TIP3 OH2  OT    -0.834000       15.9994           0
   79748 WT5  1916 TIP3 H1   HT     0.417000        1.0080           0
   79749 WT5  1916 TIP3 H2   HT     0.417000        1.0080           0
   79750 WT5  1918 TIP3 OH2  OT    -0.834000       15.9994           0
   79751 WT5  1918 TIP3 H1   HT     0.417000        1.0080           0
   79752 WT5  1918 TIP3 H2   HT     0.417000        1.0080           0
   79753 WT5  1919 TIP3 OH2  OT    -0.834000       15.9994           0
   79754 WT5  1919 TIP3 H1   HT     0.417000        1.0080           0
   79755 WT5  1919 TIP3 H2   HT     0.417000        1.0080           0
   79756 WT5  1920 TIP3 OH2  OT    -0.834000       15.9994           0
   79757 WT5  1920 TIP3 H1   HT     0.417000        1.0080           0
   79758 WT5  1920 TIP3 H2   HT     0.417000        1.0080           0
   79759 WT5  1921 TIP3 OH2  OT    -0.834000       15.9994           0
   79760 WT5  1921 TIP3 H1   HT     0.417000        1.0080           0
   79761 WT5  1921 TIP3 H2   HT     0.417000        1.0080           0
   79762 WT5  1922 TIP3 OH2  OT    -0.834000       15.9994           0
   79763 WT5  1922 TIP3 H1   HT     0.417000        1.0080           0
   79764 WT5  1922 TIP3 H2   HT     0.417000        1.0080           0
   79765 WT5  1923 TIP3 OH2  OT    -0.834000       15.9994           0
   79766 WT5  1923 TIP3 H1   HT     0.417000        1.0080           0
   79767 WT5  1923 TIP3 H2   HT     0.417000        1.0080           0
   79768 WT5  1924 TIP3 OH2  OT    -0.834000       15.9994           0
   79769 WT5  1924 TIP3 H1   HT     0.417000        1.0080           0
   79770 WT5  1924 TIP3 H2   HT     0.417000        1.0080           0
   79771 WT5  1925 TIP3 OH2  OT    -0.834000       15.9994           0
   79772 WT5  1925 TIP3 H1   HT     0.417000        1.0080           0
   79773 WT5  1925 TIP3 H2   HT     0.417000        1.0080           0
   79774 WT5  1926 TIP3 OH2  OT    -0.834000       15.9994           0
   79775 WT5  1926 TIP3 H1   HT     0.417000        1.0080           0
   79776 WT5  1926 TIP3 H2   HT     0.417000        1.0080           0
   79777 WT5  1930 TIP3 OH2  OT    -0.834000       15.9994           0
   79778 WT5  1930 TIP3 H1   HT     0.417000        1.0080           0
   79779 WT5  1930 TIP3 H2   HT     0.417000        1.0080           0
   79780 WT5  1932 TIP3 OH2  OT    -0.834000       15.9994           0
   79781 WT5  1932 TIP3 H1   HT     0.417000        1.0080           0
   79782 WT5  1932 TIP3 H2   HT     0.417000        1.0080           0
   79783 WT5  1934 TIP3 OH2  OT    -0.834000       15.9994           0
   79784 WT5  1934 TIP3 H1   HT     0.417000        1.0080           0
   79785 WT5  1934 TIP3 H2   HT     0.417000        1.0080           0
   79786 WT5  1935 TIP3 OH2  OT    -0.834000       15.9994           0
   79787 WT5  1935 TIP3 H1   HT     0.417000        1.0080           0
   79788 WT5  1935 TIP3 H2   HT     0.417000        1.0080           0
   79789 WT5  1936 TIP3 OH2  OT    -0.834000       15.9994           0
   79790 WT5  1936 TIP3 H1   HT     0.417000        1.0080           0
   79791 WT5  1936 TIP3 H2   HT     0.417000        1.0080           0
   79792 WT5  1937 TIP3 OH2  OT    -0.834000       15.9994           0
   79793 WT5  1937 TIP3 H1   HT     0.417000        1.0080           0
   79794 WT5  1937 TIP3 H2   HT     0.417000        1.0080           0
   79795 WT5  1938 TIP3 OH2  OT    -0.834000       15.9994           0
   79796 WT5  1938 TIP3 H1   HT     0.417000        1.0080           0
   79797 WT5  1938 TIP3 H2   HT     0.417000        1.0080           0
   79798 WT5  1939 TIP3 OH2  OT    -0.834000       15.9994           0
   79799 WT5  1939 TIP3 H1   HT     0.417000        1.0080           0
   79800 WT5  1939 TIP3 H2   HT     0.417000        1.0080           0
   79801 WT5  1940 TIP3 OH2  OT    -0.834000       15.9994           0
   79802 WT5  1940 TIP3 H1   HT     0.417000        1.0080           0
   79803 WT5  1940 TIP3 H2   HT     0.417000        1.0080           0
   79804 WT5  1941 TIP3 OH2  OT    -0.834000       15.9994           0
   79805 WT5  1941 TIP3 H1   HT     0.417000        1.0080           0
   79806 WT5  1941 TIP3 H2   HT     0.417000        1.0080           0
   79807 WT5  1942 TIP3 OH2  OT    -0.834000       15.9994           0
   79808 WT5  1942 TIP3 H1   HT     0.417000        1.0080           0
   79809 WT5  1942 TIP3 H2   HT     0.417000        1.0080           0
   79810 WT5  1943 TIP3 OH2  OT    -0.834000       15.9994           0
   79811 WT5  1943 TIP3 H1   HT     0.417000        1.0080           0
   79812 WT5  1943 TIP3 H2   HT     0.417000        1.0080           0
   79813 WT5  1944 TIP3 OH2  OT    -0.834000       15.9994           0
   79814 WT5  1944 TIP3 H1   HT     0.417000        1.0080           0
   79815 WT5  1944 TIP3 H2   HT     0.417000        1.0080           0
   79816 WT5  1945 TIP3 OH2  OT    -0.834000       15.9994           0
   79817 WT5  1945 TIP3 H1   HT     0.417000        1.0080           0
   79818 WT5  1945 TIP3 H2   HT     0.417000        1.0080           0
   79819 WT5  1946 TIP3 OH2  OT    -0.834000       15.9994           0
   79820 WT5  1946 TIP3 H1   HT     0.417000        1.0080           0
   79821 WT5  1946 TIP3 H2   HT     0.417000        1.0080           0
   79822 WT5  1947 TIP3 OH2  OT    -0.834000       15.9994           0
   79823 WT5  1947 TIP3 H1   HT     0.417000        1.0080           0
   79824 WT5  1947 TIP3 H2   HT     0.417000        1.0080           0
   79825 WT5  1948 TIP3 OH2  OT    -0.834000       15.9994           0
   79826 WT5  1948 TIP3 H1   HT     0.417000        1.0080           0
   79827 WT5  1948 TIP3 H2   HT     0.417000        1.0080           0
   79828 WT5  1949 TIP3 OH2  OT    -0.834000       15.9994           0
   79829 WT5  1949 TIP3 H1   HT     0.417000        1.0080           0
   79830 WT5  1949 TIP3 H2   HT     0.417000        1.0080           0
   79831 WT5  1950 TIP3 OH2  OT    -0.834000       15.9994           0
   79832 WT5  1950 TIP3 H1   HT     0.417000        1.0080           0
   79833 WT5  1950 TIP3 H2   HT     0.417000        1.0080           0
   79834 WT5  1952 TIP3 OH2  OT    -0.834000       15.9994           0
   79835 WT5  1952 TIP3 H1   HT     0.417000        1.0080           0
   79836 WT5  1952 TIP3 H2   HT     0.417000        1.0080           0
   79837 WT5  1953 TIP3 OH2  OT    -0.834000       15.9994           0
   79838 WT5  1953 TIP3 H1   HT     0.417000        1.0080           0
   79839 WT5  1953 TIP3 H2   HT     0.417000        1.0080           0
   79840 WT5  1954 TIP3 OH2  OT    -0.834000       15.9994           0
   79841 WT5  1954 TIP3 H1   HT     0.417000        1.0080           0
   79842 WT5  1954 TIP3 H2   HT     0.417000        1.0080           0
   79843 WT5  1955 TIP3 OH2  OT    -0.834000       15.9994           0
   79844 WT5  1955 TIP3 H1   HT     0.417000        1.0080           0
   79845 WT5  1955 TIP3 H2   HT     0.417000        1.0080           0
   79846 WT5  1956 TIP3 OH2  OT    -0.834000       15.9994           0
   79847 WT5  1956 TIP3 H1   HT     0.417000        1.0080           0
   79848 WT5  1956 TIP3 H2   HT     0.417000        1.0080           0
   79849 WT5  1957 TIP3 OH2  OT    -0.834000       15.9994           0
   79850 WT5  1957 TIP3 H1   HT     0.417000        1.0080           0
   79851 WT5  1957 TIP3 H2   HT     0.417000        1.0080           0
   79852 WT5  1958 TIP3 OH2  OT    -0.834000       15.9994           0
   79853 WT5  1958 TIP3 H1   HT     0.417000        1.0080           0
   79854 WT5  1958 TIP3 H2   HT     0.417000        1.0080           0
   79855 WT5  1960 TIP3 OH2  OT    -0.834000       15.9994           0
   79856 WT5  1960 TIP3 H1   HT     0.417000        1.0080           0
   79857 WT5  1960 TIP3 H2   HT     0.417000        1.0080           0
   79858 WT5  1961 TIP3 OH2  OT    -0.834000       15.9994           0
   79859 WT5  1961 TIP3 H1   HT     0.417000        1.0080           0
   79860 WT5  1961 TIP3 H2   HT     0.417000        1.0080           0
   79861 WT5  1962 TIP3 OH2  OT    -0.834000       15.9994           0
   79862 WT5  1962 TIP3 H1   HT     0.417000        1.0080           0
   79863 WT5  1962 TIP3 H2   HT     0.417000        1.0080           0
   79864 WT5  1963 TIP3 OH2  OT    -0.834000       15.9994           0
   79865 WT5  1963 TIP3 H1   HT     0.417000        1.0080           0
   79866 WT5  1963 TIP3 H2   HT     0.417000        1.0080           0
   79867 WT5  1964 TIP3 OH2  OT    -0.834000       15.9994           0
   79868 WT5  1964 TIP3 H1   HT     0.417000        1.0080           0
   79869 WT5  1964 TIP3 H2   HT     0.417000        1.0080           0
   79870 WT5  1965 TIP3 OH2  OT    -0.834000       15.9994           0
   79871 WT5  1965 TIP3 H1   HT     0.417000        1.0080           0
   79872 WT5  1965 TIP3 H2   HT     0.417000        1.0080           0
   79873 WT5  1966 TIP3 OH2  OT    -0.834000       15.9994           0
   79874 WT5  1966 TIP3 H1   HT     0.417000        1.0080           0
   79875 WT5  1966 TIP3 H2   HT     0.417000        1.0080           0
   79876 WT5  1967 TIP3 OH2  OT    -0.834000       15.9994           0
   79877 WT5  1967 TIP3 H1   HT     0.417000        1.0080           0
   79878 WT5  1967 TIP3 H2   HT     0.417000        1.0080           0
   79879 WT5  1968 TIP3 OH2  OT    -0.834000       15.9994           0
   79880 WT5  1968 TIP3 H1   HT     0.417000        1.0080           0
   79881 WT5  1968 TIP3 H2   HT     0.417000        1.0080           0
   79882 WT5  1969 TIP3 OH2  OT    -0.834000       15.9994           0
   79883 WT5  1969 TIP3 H1   HT     0.417000        1.0080           0
   79884 WT5  1969 TIP3 H2   HT     0.417000        1.0080           0
   79885 WT5  1970 TIP3 OH2  OT    -0.834000       15.9994           0
   79886 WT5  1970 TIP3 H1   HT     0.417000        1.0080           0
   79887 WT5  1970 TIP3 H2   HT     0.417000        1.0080           0
   79888 WT5  1972 TIP3 OH2  OT    -0.834000       15.9994           0
   79889 WT5  1972 TIP3 H1   HT     0.417000        1.0080           0
   79890 WT5  1972 TIP3 H2   HT     0.417000        1.0080           0
   79891 WT5  1973 TIP3 OH2  OT    -0.834000       15.9994           0
   79892 WT5  1973 TIP3 H1   HT     0.417000        1.0080           0
   79893 WT5  1973 TIP3 H2   HT     0.417000        1.0080           0
   79894 WT5  1975 TIP3 OH2  OT    -0.834000       15.9994           0
   79895 WT5  1975 TIP3 H1   HT     0.417000        1.0080           0
   79896 WT5  1975 TIP3 H2   HT     0.417000        1.0080           0
   79897 WT5  1977 TIP3 OH2  OT    -0.834000       15.9994           0
   79898 WT5  1977 TIP3 H1   HT     0.417000        1.0080           0
   79899 WT5  1977 TIP3 H2   HT     0.417000        1.0080           0
   79900 WT5  1978 TIP3 OH2  OT    -0.834000       15.9994           0
   79901 WT5  1978 TIP3 H1   HT     0.417000        1.0080           0
   79902 WT5  1978 TIP3 H2   HT     0.417000        1.0080           0
   79903 WT5  1979 TIP3 OH2  OT    -0.834000       15.9994           0
   79904 WT5  1979 TIP3 H1   HT     0.417000        1.0080           0
   79905 WT5  1979 TIP3 H2   HT     0.417000        1.0080           0
   79906 WT5  1980 TIP3 OH2  OT    -0.834000       15.9994           0
   79907 WT5  1980 TIP3 H1   HT     0.417000        1.0080           0
   79908 WT5  1980 TIP3 H2   HT     0.417000        1.0080           0
   79909 WT5  1981 TIP3 OH2  OT    -0.834000       15.9994           0
   79910 WT5  1981 TIP3 H1   HT     0.417000        1.0080           0
   79911 WT5  1981 TIP3 H2   HT     0.417000        1.0080           0
   79912 WT5  1982 TIP3 OH2  OT    -0.834000       15.9994           0
   79913 WT5  1982 TIP3 H1   HT     0.417000        1.0080           0
   79914 WT5  1982 TIP3 H2   HT     0.417000        1.0080           0
   79915 WT5  1984 TIP3 OH2  OT    -0.834000       15.9994           0
   79916 WT5  1984 TIP3 H1   HT     0.417000        1.0080           0
   79917 WT5  1984 TIP3 H2   HT     0.417000        1.0080           0
   79918 WT5  1985 TIP3 OH2  OT    -0.834000       15.9994           0
   79919 WT5  1985 TIP3 H1   HT     0.417000        1.0080           0
   79920 WT5  1985 TIP3 H2   HT     0.417000        1.0080           0
   79921 WT5  1986 TIP3 OH2  OT    -0.834000       15.9994           0
   79922 WT5  1986 TIP3 H1   HT     0.417000        1.0080           0
   79923 WT5  1986 TIP3 H2   HT     0.417000        1.0080           0
   79924 WT5  1987 TIP3 OH2  OT    -0.834000       15.9994           0
   79925 WT5  1987 TIP3 H1   HT     0.417000        1.0080           0
   79926 WT5  1987 TIP3 H2   HT     0.417000        1.0080           0
   79927 WT5  1988 TIP3 OH2  OT    -0.834000       15.9994           0
   79928 WT5  1988 TIP3 H1   HT     0.417000        1.0080           0
   79929 WT5  1988 TIP3 H2   HT     0.417000        1.0080           0
   79930 WT5  1989 TIP3 OH2  OT    -0.834000       15.9994           0
   79931 WT5  1989 TIP3 H1   HT     0.417000        1.0080           0
   79932 WT5  1989 TIP3 H2   HT     0.417000        1.0080           0
   79933 WT5  1991 TIP3 OH2  OT    -0.834000       15.9994           0
   79934 WT5  1991 TIP3 H1   HT     0.417000        1.0080           0
   79935 WT5  1991 TIP3 H2   HT     0.417000        1.0080           0
   79936 WT5  1993 TIP3 OH2  OT    -0.834000       15.9994           0
   79937 WT5  1993 TIP3 H1   HT     0.417000        1.0080           0
   79938 WT5  1993 TIP3 H2   HT     0.417000        1.0080           0
   79939 WT5  1994 TIP3 OH2  OT    -0.834000       15.9994           0
   79940 WT5  1994 TIP3 H1   HT     0.417000        1.0080           0
   79941 WT5  1994 TIP3 H2   HT     0.417000        1.0080           0
   79942 WT5  1996 TIP3 OH2  OT    -0.834000       15.9994           0
   79943 WT5  1996 TIP3 H1   HT     0.417000        1.0080           0
   79944 WT5  1996 TIP3 H2   HT     0.417000        1.0080           0
   79945 WT5  1998 TIP3 OH2  OT    -0.834000       15.9994           0
   79946 WT5  1998 TIP3 H1   HT     0.417000        1.0080           0
   79947 WT5  1998 TIP3 H2   HT     0.417000        1.0080           0
   79948 WT5  1999 TIP3 OH2  OT    -0.834000       15.9994           0
   79949 WT5  1999 TIP3 H1   HT     0.417000        1.0080           0
   79950 WT5  1999 TIP3 H2   HT     0.417000        1.0080           0
   79951 WT5  2000 TIP3 OH2  OT    -0.834000       15.9994           0
   79952 WT5  2000 TIP3 H1   HT     0.417000        1.0080           0
   79953 WT5  2000 TIP3 H2   HT     0.417000        1.0080           0
   79954 WT5  2001 TIP3 OH2  OT    -0.834000       15.9994           0
   79955 WT5  2001 TIP3 H1   HT     0.417000        1.0080           0
   79956 WT5  2001 TIP3 H2   HT     0.417000        1.0080           0
   79957 WT5  2002 TIP3 OH2  OT    -0.834000       15.9994           0
   79958 WT5  2002 TIP3 H1   HT     0.417000        1.0080           0
   79959 WT5  2002 TIP3 H2   HT     0.417000        1.0080           0
   79960 WT5  2003 TIP3 OH2  OT    -0.834000       15.9994           0
   79961 WT5  2003 TIP3 H1   HT     0.417000        1.0080           0
   79962 WT5  2003 TIP3 H2   HT     0.417000        1.0080           0
   79963 WT5  2004 TIP3 OH2  OT    -0.834000       15.9994           0
   79964 WT5  2004 TIP3 H1   HT     0.417000        1.0080           0
   79965 WT5  2004 TIP3 H2   HT     0.417000        1.0080           0
   79966 WT5  2005 TIP3 OH2  OT    -0.834000       15.9994           0
   79967 WT5  2005 TIP3 H1   HT     0.417000        1.0080           0
   79968 WT5  2005 TIP3 H2   HT     0.417000        1.0080           0
   79969 WT5  2007 TIP3 OH2  OT    -0.834000       15.9994           0
   79970 WT5  2007 TIP3 H1   HT     0.417000        1.0080           0
   79971 WT5  2007 TIP3 H2   HT     0.417000        1.0080           0
   79972 WT5  2008 TIP3 OH2  OT    -0.834000       15.9994           0
   79973 WT5  2008 TIP3 H1   HT     0.417000        1.0080           0
   79974 WT5  2008 TIP3 H2   HT     0.417000        1.0080           0
   79975 WT5  2009 TIP3 OH2  OT    -0.834000       15.9994           0
   79976 WT5  2009 TIP3 H1   HT     0.417000        1.0080           0
   79977 WT5  2009 TIP3 H2   HT     0.417000        1.0080           0
   79978 WT5  2010 TIP3 OH2  OT    -0.834000       15.9994           0
   79979 WT5  2010 TIP3 H1   HT     0.417000        1.0080           0
   79980 WT5  2010 TIP3 H2   HT     0.417000        1.0080           0
   79981 WT5  2011 TIP3 OH2  OT    -0.834000       15.9994           0
   79982 WT5  2011 TIP3 H1   HT     0.417000        1.0080           0
   79983 WT5  2011 TIP3 H2   HT     0.417000        1.0080           0
   79984 WT5  2013 TIP3 OH2  OT    -0.834000       15.9994           0
   79985 WT5  2013 TIP3 H1   HT     0.417000        1.0080           0
   79986 WT5  2013 TIP3 H2   HT     0.417000        1.0080           0
   79987 WT5  2014 TIP3 OH2  OT    -0.834000       15.9994           0
   79988 WT5  2014 TIP3 H1   HT     0.417000        1.0080           0
   79989 WT5  2014 TIP3 H2   HT     0.417000        1.0080           0
   79990 WT5  2015 TIP3 OH2  OT    -0.834000       15.9994           0
   79991 WT5  2015 TIP3 H1   HT     0.417000        1.0080           0
   79992 WT5  2015 TIP3 H2   HT     0.417000        1.0080           0
   79993 WT5  2016 TIP3 OH2  OT    -0.834000       15.9994           0
   79994 WT5  2016 TIP3 H1   HT     0.417000        1.0080           0
   79995 WT5  2016 TIP3 H2   HT     0.417000        1.0080           0
   79996 WT5  2017 TIP3 OH2  OT    -0.834000       15.9994           0
   79997 WT5  2017 TIP3 H1   HT     0.417000        1.0080           0
   79998 WT5  2017 TIP3 H2   HT     0.417000        1.0080           0
   79999 WT5  2018 TIP3 OH2  OT    -0.834000       15.9994           0
   80000 WT5  2018 TIP3 H1   HT     0.417000        1.0080           0
   80001 WT5  2018 TIP3 H2   HT     0.417000        1.0080           0
   80002 WT5  2019 TIP3 OH2  OT    -0.834000       15.9994           0
   80003 WT5  2019 TIP3 H1   HT     0.417000        1.0080           0
   80004 WT5  2019 TIP3 H2   HT     0.417000        1.0080           0
   80005 WT5  2020 TIP3 OH2  OT    -0.834000       15.9994           0
   80006 WT5  2020 TIP3 H1   HT     0.417000        1.0080           0
   80007 WT5  2020 TIP3 H2   HT     0.417000        1.0080           0
   80008 WT5  2021 TIP3 OH2  OT    -0.834000       15.9994           0
   80009 WT5  2021 TIP3 H1   HT     0.417000        1.0080           0
   80010 WT5  2021 TIP3 H2   HT     0.417000        1.0080           0
   80011 WT5  2022 TIP3 OH2  OT    -0.834000       15.9994           0
   80012 WT5  2022 TIP3 H1   HT     0.417000        1.0080           0
   80013 WT5  2022 TIP3 H2   HT     0.417000        1.0080           0
   80014 WT5  2023 TIP3 OH2  OT    -0.834000       15.9994           0
   80015 WT5  2023 TIP3 H1   HT     0.417000        1.0080           0
   80016 WT5  2023 TIP3 H2   HT     0.417000        1.0080           0
   80017 WT5  2024 TIP3 OH2  OT    -0.834000       15.9994           0
   80018 WT5  2024 TIP3 H1   HT     0.417000        1.0080           0
   80019 WT5  2024 TIP3 H2   HT     0.417000        1.0080           0
   80020 WT5  2025 TIP3 OH2  OT    -0.834000       15.9994           0
   80021 WT5  2025 TIP3 H1   HT     0.417000        1.0080           0
   80022 WT5  2025 TIP3 H2   HT     0.417000        1.0080           0
   80023 WT5  2026 TIP3 OH2  OT    -0.834000       15.9994           0
   80024 WT5  2026 TIP3 H1   HT     0.417000        1.0080           0
   80025 WT5  2026 TIP3 H2   HT     0.417000        1.0080           0
   80026 WT5  2027 TIP3 OH2  OT    -0.834000       15.9994           0
   80027 WT5  2027 TIP3 H1   HT     0.417000        1.0080           0
   80028 WT5  2027 TIP3 H2   HT     0.417000        1.0080           0
   80029 WT5  2028 TIP3 OH2  OT    -0.834000       15.9994           0
   80030 WT5  2028 TIP3 H1   HT     0.417000        1.0080           0
   80031 WT5  2028 TIP3 H2   HT     0.417000        1.0080           0
   80032 WT5  2029 TIP3 OH2  OT    -0.834000       15.9994           0
   80033 WT5  2029 TIP3 H1   HT     0.417000        1.0080           0
   80034 WT5  2029 TIP3 H2   HT     0.417000        1.0080           0
   80035 WT5  2030 TIP3 OH2  OT    -0.834000       15.9994           0
   80036 WT5  2030 TIP3 H1   HT     0.417000        1.0080           0
   80037 WT5  2030 TIP3 H2   HT     0.417000        1.0080           0
   80038 WT5  2031 TIP3 OH2  OT    -0.834000       15.9994           0
   80039 WT5  2031 TIP3 H1   HT     0.417000        1.0080           0
   80040 WT5  2031 TIP3 H2   HT     0.417000        1.0080           0
   80041 WT5  2032 TIP3 OH2  OT    -0.834000       15.9994           0
   80042 WT5  2032 TIP3 H1   HT     0.417000        1.0080           0
   80043 WT5  2032 TIP3 H2   HT     0.417000        1.0080           0
   80044 WT5  2033 TIP3 OH2  OT    -0.834000       15.9994           0
   80045 WT5  2033 TIP3 H1   HT     0.417000        1.0080           0
   80046 WT5  2033 TIP3 H2   HT     0.417000        1.0080           0
   80047 WT5  2037 TIP3 OH2  OT    -0.834000       15.9994           0
   80048 WT5  2037 TIP3 H1   HT     0.417000        1.0080           0
   80049 WT5  2037 TIP3 H2   HT     0.417000        1.0080           0
   80050 WT5  2038 TIP3 OH2  OT    -0.834000       15.9994           0
   80051 WT5  2038 TIP3 H1   HT     0.417000        1.0080           0
   80052 WT5  2038 TIP3 H2   HT     0.417000        1.0080           0
   80053 WT5  2039 TIP3 OH2  OT    -0.834000       15.9994           0
   80054 WT5  2039 TIP3 H1   HT     0.417000        1.0080           0
   80055 WT5  2039 TIP3 H2   HT     0.417000        1.0080           0
   80056 WT5  2040 TIP3 OH2  OT    -0.834000       15.9994           0
   80057 WT5  2040 TIP3 H1   HT     0.417000        1.0080           0
   80058 WT5  2040 TIP3 H2   HT     0.417000        1.0080           0
   80059 WT5  2041 TIP3 OH2  OT    -0.834000       15.9994           0
   80060 WT5  2041 TIP3 H1   HT     0.417000        1.0080           0
   80061 WT5  2041 TIP3 H2   HT     0.417000        1.0080           0
   80062 WT5  2042 TIP3 OH2  OT    -0.834000       15.9994           0
   80063 WT5  2042 TIP3 H1   HT     0.417000        1.0080           0
   80064 WT5  2042 TIP3 H2   HT     0.417000        1.0080           0
   80065 WT5  2043 TIP3 OH2  OT    -0.834000       15.9994           0
   80066 WT5  2043 TIP3 H1   HT     0.417000        1.0080           0
   80067 WT5  2043 TIP3 H2   HT     0.417000        1.0080           0
   80068 WT5  2044 TIP3 OH2  OT    -0.834000       15.9994           0
   80069 WT5  2044 TIP3 H1   HT     0.417000        1.0080           0
   80070 WT5  2044 TIP3 H2   HT     0.417000        1.0080           0
   80071 WT5  2045 TIP3 OH2  OT    -0.834000       15.9994           0
   80072 WT5  2045 TIP3 H1   HT     0.417000        1.0080           0
   80073 WT5  2045 TIP3 H2   HT     0.417000        1.0080           0
   80074 WT5  2046 TIP3 OH2  OT    -0.834000       15.9994           0
   80075 WT5  2046 TIP3 H1   HT     0.417000        1.0080           0
   80076 WT5  2046 TIP3 H2   HT     0.417000        1.0080           0
   80077 WT5  2047 TIP3 OH2  OT    -0.834000       15.9994           0
   80078 WT5  2047 TIP3 H1   HT     0.417000        1.0080           0
   80079 WT5  2047 TIP3 H2   HT     0.417000        1.0080           0
   80080 WT5  2048 TIP3 OH2  OT    -0.834000       15.9994           0
   80081 WT5  2048 TIP3 H1   HT     0.417000        1.0080           0
   80082 WT5  2048 TIP3 H2   HT     0.417000        1.0080           0
   80083 WT5  2049 TIP3 OH2  OT    -0.834000       15.9994           0
   80084 WT5  2049 TIP3 H1   HT     0.417000        1.0080           0
   80085 WT5  2049 TIP3 H2   HT     0.417000        1.0080           0
   80086 WT5  2050 TIP3 OH2  OT    -0.834000       15.9994           0
   80087 WT5  2050 TIP3 H1   HT     0.417000        1.0080           0
   80088 WT5  2050 TIP3 H2   HT     0.417000        1.0080           0
   80089 WT5  2052 TIP3 OH2  OT    -0.834000       15.9994           0
   80090 WT5  2052 TIP3 H1   HT     0.417000        1.0080           0
   80091 WT5  2052 TIP3 H2   HT     0.417000        1.0080           0
   80092 WT5  2053 TIP3 OH2  OT    -0.834000       15.9994           0
   80093 WT5  2053 TIP3 H1   HT     0.417000        1.0080           0
   80094 WT5  2053 TIP3 H2   HT     0.417000        1.0080           0
   80095 WT5  2054 TIP3 OH2  OT    -0.834000       15.9994           0
   80096 WT5  2054 TIP3 H1   HT     0.417000        1.0080           0
   80097 WT5  2054 TIP3 H2   HT     0.417000        1.0080           0
   80098 WT5  2055 TIP3 OH2  OT    -0.834000       15.9994           0
   80099 WT5  2055 TIP3 H1   HT     0.417000        1.0080           0
   80100 WT5  2055 TIP3 H2   HT     0.417000        1.0080           0
   80101 WT5  2056 TIP3 OH2  OT    -0.834000       15.9994           0
   80102 WT5  2056 TIP3 H1   HT     0.417000        1.0080           0
   80103 WT5  2056 TIP3 H2   HT     0.417000        1.0080           0
   80104 WT5  2057 TIP3 OH2  OT    -0.834000       15.9994           0
   80105 WT5  2057 TIP3 H1   HT     0.417000        1.0080           0
   80106 WT5  2057 TIP3 H2   HT     0.417000        1.0080           0
   80107 WT5  2058 TIP3 OH2  OT    -0.834000       15.9994           0
   80108 WT5  2058 TIP3 H1   HT     0.417000        1.0080           0
   80109 WT5  2058 TIP3 H2   HT     0.417000        1.0080           0
   80110 WT5  2059 TIP3 OH2  OT    -0.834000       15.9994           0
   80111 WT5  2059 TIP3 H1   HT     0.417000        1.0080           0
   80112 WT5  2059 TIP3 H2   HT     0.417000        1.0080           0
   80113 WT5  2060 TIP3 OH2  OT    -0.834000       15.9994           0
   80114 WT5  2060 TIP3 H1   HT     0.417000        1.0080           0
   80115 WT5  2060 TIP3 H2   HT     0.417000        1.0080           0
   80116 WT5  2061 TIP3 OH2  OT    -0.834000       15.9994           0
   80117 WT5  2061 TIP3 H1   HT     0.417000        1.0080           0
   80118 WT5  2061 TIP3 H2   HT     0.417000        1.0080           0
   80119 WT5  2062 TIP3 OH2  OT    -0.834000       15.9994           0
   80120 WT5  2062 TIP3 H1   HT     0.417000        1.0080           0
   80121 WT5  2062 TIP3 H2   HT     0.417000        1.0080           0
   80122 WT5  2063 TIP3 OH2  OT    -0.834000       15.9994           0
   80123 WT5  2063 TIP3 H1   HT     0.417000        1.0080           0
   80124 WT5  2063 TIP3 H2   HT     0.417000        1.0080           0
   80125 WT5  2064 TIP3 OH2  OT    -0.834000       15.9994           0
   80126 WT5  2064 TIP3 H1   HT     0.417000        1.0080           0
   80127 WT5  2064 TIP3 H2   HT     0.417000        1.0080           0
   80128 WT5  2065 TIP3 OH2  OT    -0.834000       15.9994           0
   80129 WT5  2065 TIP3 H1   HT     0.417000        1.0080           0
   80130 WT5  2065 TIP3 H2   HT     0.417000        1.0080           0
   80131 WT5  2066 TIP3 OH2  OT    -0.834000       15.9994           0
   80132 WT5  2066 TIP3 H1   HT     0.417000        1.0080           0
   80133 WT5  2066 TIP3 H2   HT     0.417000        1.0080           0
   80134 WT5  2067 TIP3 OH2  OT    -0.834000       15.9994           0
   80135 WT5  2067 TIP3 H1   HT     0.417000        1.0080           0
   80136 WT5  2067 TIP3 H2   HT     0.417000        1.0080           0
   80137 WT5  2068 TIP3 OH2  OT    -0.834000       15.9994           0
   80138 WT5  2068 TIP3 H1   HT     0.417000        1.0080           0
   80139 WT5  2068 TIP3 H2   HT     0.417000        1.0080           0
   80140 WT5  2069 TIP3 OH2  OT    -0.834000       15.9994           0
   80141 WT5  2069 TIP3 H1   HT     0.417000        1.0080           0
   80142 WT5  2069 TIP3 H2   HT     0.417000        1.0080           0
   80143 WT5  2070 TIP3 OH2  OT    -0.834000       15.9994           0
   80144 WT5  2070 TIP3 H1   HT     0.417000        1.0080           0
   80145 WT5  2070 TIP3 H2   HT     0.417000        1.0080           0
   80146 WT5  2072 TIP3 OH2  OT    -0.834000       15.9994           0
   80147 WT5  2072 TIP3 H1   HT     0.417000        1.0080           0
   80148 WT5  2072 TIP3 H2   HT     0.417000        1.0080           0
   80149 WT5  2073 TIP3 OH2  OT    -0.834000       15.9994           0
   80150 WT5  2073 TIP3 H1   HT     0.417000        1.0080           0
   80151 WT5  2073 TIP3 H2   HT     0.417000        1.0080           0
   80152 WT5  2074 TIP3 OH2  OT    -0.834000       15.9994           0
   80153 WT5  2074 TIP3 H1   HT     0.417000        1.0080           0
   80154 WT5  2074 TIP3 H2   HT     0.417000        1.0080           0
   80155 WT5  2075 TIP3 OH2  OT    -0.834000       15.9994           0
   80156 WT5  2075 TIP3 H1   HT     0.417000        1.0080           0
   80157 WT5  2075 TIP3 H2   HT     0.417000        1.0080           0
   80158 WT5  2077 TIP3 OH2  OT    -0.834000       15.9994           0
   80159 WT5  2077 TIP3 H1   HT     0.417000        1.0080           0
   80160 WT5  2077 TIP3 H2   HT     0.417000        1.0080           0
   80161 WT5  2079 TIP3 OH2  OT    -0.834000       15.9994           0
   80162 WT5  2079 TIP3 H1   HT     0.417000        1.0080           0
   80163 WT5  2079 TIP3 H2   HT     0.417000        1.0080           0
   80164 WT5  2080 TIP3 OH2  OT    -0.834000       15.9994           0
   80165 WT5  2080 TIP3 H1   HT     0.417000        1.0080           0
   80166 WT5  2080 TIP3 H2   HT     0.417000        1.0080           0
   80167 WT5  2081 TIP3 OH2  OT    -0.834000       15.9994           0
   80168 WT5  2081 TIP3 H1   HT     0.417000        1.0080           0
   80169 WT5  2081 TIP3 H2   HT     0.417000        1.0080           0
   80170 WT5  2082 TIP3 OH2  OT    -0.834000       15.9994           0
   80171 WT5  2082 TIP3 H1   HT     0.417000        1.0080           0
   80172 WT5  2082 TIP3 H2   HT     0.417000        1.0080           0
   80173 WT5  2083 TIP3 OH2  OT    -0.834000       15.9994           0
   80174 WT5  2083 TIP3 H1   HT     0.417000        1.0080           0
   80175 WT5  2083 TIP3 H2   HT     0.417000        1.0080           0
   80176 WT5  2084 TIP3 OH2  OT    -0.834000       15.9994           0
   80177 WT5  2084 TIP3 H1   HT     0.417000        1.0080           0
   80178 WT5  2084 TIP3 H2   HT     0.417000        1.0080           0
   80179 WT5  2085 TIP3 OH2  OT    -0.834000       15.9994           0
   80180 WT5  2085 TIP3 H1   HT     0.417000        1.0080           0
   80181 WT5  2085 TIP3 H2   HT     0.417000        1.0080           0
   80182 WT5  2086 TIP3 OH2  OT    -0.834000       15.9994           0
   80183 WT5  2086 TIP3 H1   HT     0.417000        1.0080           0
   80184 WT5  2086 TIP3 H2   HT     0.417000        1.0080           0
   80185 WT5  2087 TIP3 OH2  OT    -0.834000       15.9994           0
   80186 WT5  2087 TIP3 H1   HT     0.417000        1.0080           0
   80187 WT5  2087 TIP3 H2   HT     0.417000        1.0080           0
   80188 WT5  2088 TIP3 OH2  OT    -0.834000       15.9994           0
   80189 WT5  2088 TIP3 H1   HT     0.417000        1.0080           0
   80190 WT5  2088 TIP3 H2   HT     0.417000        1.0080           0
   80191 WT5  2089 TIP3 OH2  OT    -0.834000       15.9994           0
   80192 WT5  2089 TIP3 H1   HT     0.417000        1.0080           0
   80193 WT5  2089 TIP3 H2   HT     0.417000        1.0080           0
   80194 WT5  2090 TIP3 OH2  OT    -0.834000       15.9994           0
   80195 WT5  2090 TIP3 H1   HT     0.417000        1.0080           0
   80196 WT5  2090 TIP3 H2   HT     0.417000        1.0080           0
   80197 WT5  2091 TIP3 OH2  OT    -0.834000       15.9994           0
   80198 WT5  2091 TIP3 H1   HT     0.417000        1.0080           0
   80199 WT5  2091 TIP3 H2   HT     0.417000        1.0080           0
   80200 WT5  2092 TIP3 OH2  OT    -0.834000       15.9994           0
   80201 WT5  2092 TIP3 H1   HT     0.417000        1.0080           0
   80202 WT5  2092 TIP3 H2   HT     0.417000        1.0080           0
   80203 WT5  2093 TIP3 OH2  OT    -0.834000       15.9994           0
   80204 WT5  2093 TIP3 H1   HT     0.417000        1.0080           0
   80205 WT5  2093 TIP3 H2   HT     0.417000        1.0080           0
   80206 WT5  2095 TIP3 OH2  OT    -0.834000       15.9994           0
   80207 WT5  2095 TIP3 H1   HT     0.417000        1.0080           0
   80208 WT5  2095 TIP3 H2   HT     0.417000        1.0080           0
   80209 WT5  2096 TIP3 OH2  OT    -0.834000       15.9994           0
   80210 WT5  2096 TIP3 H1   HT     0.417000        1.0080           0
   80211 WT5  2096 TIP3 H2   HT     0.417000        1.0080           0
   80212 WT5  2097 TIP3 OH2  OT    -0.834000       15.9994           0
   80213 WT5  2097 TIP3 H1   HT     0.417000        1.0080           0
   80214 WT5  2097 TIP3 H2   HT     0.417000        1.0080           0
   80215 WT5  2098 TIP3 OH2  OT    -0.834000       15.9994           0
   80216 WT5  2098 TIP3 H1   HT     0.417000        1.0080           0
   80217 WT5  2098 TIP3 H2   HT     0.417000        1.0080           0
   80218 WT5  2099 TIP3 OH2  OT    -0.834000       15.9994           0
   80219 WT5  2099 TIP3 H1   HT     0.417000        1.0080           0
   80220 WT5  2099 TIP3 H2   HT     0.417000        1.0080           0
   80221 WT5  2102 TIP3 OH2  OT    -0.834000       15.9994           0
   80222 WT5  2102 TIP3 H1   HT     0.417000        1.0080           0
   80223 WT5  2102 TIP3 H2   HT     0.417000        1.0080           0
   80224 WT5  2103 TIP3 OH2  OT    -0.834000       15.9994           0
   80225 WT5  2103 TIP3 H1   HT     0.417000        1.0080           0
   80226 WT5  2103 TIP3 H2   HT     0.417000        1.0080           0
   80227 WT5  2104 TIP3 OH2  OT    -0.834000       15.9994           0
   80228 WT5  2104 TIP3 H1   HT     0.417000        1.0080           0
   80229 WT5  2104 TIP3 H2   HT     0.417000        1.0080           0
   80230 WT5  2105 TIP3 OH2  OT    -0.834000       15.9994           0
   80231 WT5  2105 TIP3 H1   HT     0.417000        1.0080           0
   80232 WT5  2105 TIP3 H2   HT     0.417000        1.0080           0
   80233 WT5  2106 TIP3 OH2  OT    -0.834000       15.9994           0
   80234 WT5  2106 TIP3 H1   HT     0.417000        1.0080           0
   80235 WT5  2106 TIP3 H2   HT     0.417000        1.0080           0
   80236 WT5  2107 TIP3 OH2  OT    -0.834000       15.9994           0
   80237 WT5  2107 TIP3 H1   HT     0.417000        1.0080           0
   80238 WT5  2107 TIP3 H2   HT     0.417000        1.0080           0
   80239 WT5  2108 TIP3 OH2  OT    -0.834000       15.9994           0
   80240 WT5  2108 TIP3 H1   HT     0.417000        1.0080           0
   80241 WT5  2108 TIP3 H2   HT     0.417000        1.0080           0
   80242 WT5  2109 TIP3 OH2  OT    -0.834000       15.9994           0
   80243 WT5  2109 TIP3 H1   HT     0.417000        1.0080           0
   80244 WT5  2109 TIP3 H2   HT     0.417000        1.0080           0
   80245 WT5  2110 TIP3 OH2  OT    -0.834000       15.9994           0
   80246 WT5  2110 TIP3 H1   HT     0.417000        1.0080           0
   80247 WT5  2110 TIP3 H2   HT     0.417000        1.0080           0
   80248 WT5  2111 TIP3 OH2  OT    -0.834000       15.9994           0
   80249 WT5  2111 TIP3 H1   HT     0.417000        1.0080           0
   80250 WT5  2111 TIP3 H2   HT     0.417000        1.0080           0
   80251 WT5  2112 TIP3 OH2  OT    -0.834000       15.9994           0
   80252 WT5  2112 TIP3 H1   HT     0.417000        1.0080           0
   80253 WT5  2112 TIP3 H2   HT     0.417000        1.0080           0
   80254 WT5  2113 TIP3 OH2  OT    -0.834000       15.9994           0
   80255 WT5  2113 TIP3 H1   HT     0.417000        1.0080           0
   80256 WT5  2113 TIP3 H2   HT     0.417000        1.0080           0
   80257 WT5  2114 TIP3 OH2  OT    -0.834000       15.9994           0
   80258 WT5  2114 TIP3 H1   HT     0.417000        1.0080           0
   80259 WT5  2114 TIP3 H2   HT     0.417000        1.0080           0
   80260 WT5  2115 TIP3 OH2  OT    -0.834000       15.9994           0
   80261 WT5  2115 TIP3 H1   HT     0.417000        1.0080           0
   80262 WT5  2115 TIP3 H2   HT     0.417000        1.0080           0
   80263 WT5  2116 TIP3 OH2  OT    -0.834000       15.9994           0
   80264 WT5  2116 TIP3 H1   HT     0.417000        1.0080           0
   80265 WT5  2116 TIP3 H2   HT     0.417000        1.0080           0
   80266 WT5  2117 TIP3 OH2  OT    -0.834000       15.9994           0
   80267 WT5  2117 TIP3 H1   HT     0.417000        1.0080           0
   80268 WT5  2117 TIP3 H2   HT     0.417000        1.0080           0
   80269 WT5  2118 TIP3 OH2  OT    -0.834000       15.9994           0
   80270 WT5  2118 TIP3 H1   HT     0.417000        1.0080           0
   80271 WT5  2118 TIP3 H2   HT     0.417000        1.0080           0
   80272 WT5  2120 TIP3 OH2  OT    -0.834000       15.9994           0
   80273 WT5  2120 TIP3 H1   HT     0.417000        1.0080           0
   80274 WT5  2120 TIP3 H2   HT     0.417000        1.0080           0
   80275 WT5  2122 TIP3 OH2  OT    -0.834000       15.9994           0
   80276 WT5  2122 TIP3 H1   HT     0.417000        1.0080           0
   80277 WT5  2122 TIP3 H2   HT     0.417000        1.0080           0
   80278 WT5  2123 TIP3 OH2  OT    -0.834000       15.9994           0
   80279 WT5  2123 TIP3 H1   HT     0.417000        1.0080           0
   80280 WT5  2123 TIP3 H2   HT     0.417000        1.0080           0
   80281 WT5  2124 TIP3 OH2  OT    -0.834000       15.9994           0
   80282 WT5  2124 TIP3 H1   HT     0.417000        1.0080           0
   80283 WT5  2124 TIP3 H2   HT     0.417000        1.0080           0
   80284 WT5  2125 TIP3 OH2  OT    -0.834000       15.9994           0
   80285 WT5  2125 TIP3 H1   HT     0.417000        1.0080           0
   80286 WT5  2125 TIP3 H2   HT     0.417000        1.0080           0
   80287 WT5  2126 TIP3 OH2  OT    -0.834000       15.9994           0
   80288 WT5  2126 TIP3 H1   HT     0.417000        1.0080           0
   80289 WT5  2126 TIP3 H2   HT     0.417000        1.0080           0
   80290 WT5  2127 TIP3 OH2  OT    -0.834000       15.9994           0
   80291 WT5  2127 TIP3 H1   HT     0.417000        1.0080           0
   80292 WT5  2127 TIP3 H2   HT     0.417000        1.0080           0
   80293 WT5  2128 TIP3 OH2  OT    -0.834000       15.9994           0
   80294 WT5  2128 TIP3 H1   HT     0.417000        1.0080           0
   80295 WT5  2128 TIP3 H2   HT     0.417000        1.0080           0
   80296 WT5  2129 TIP3 OH2  OT    -0.834000       15.9994           0
   80297 WT5  2129 TIP3 H1   HT     0.417000        1.0080           0
   80298 WT5  2129 TIP3 H2   HT     0.417000        1.0080           0
   80299 WT5  2131 TIP3 OH2  OT    -0.834000       15.9994           0
   80300 WT5  2131 TIP3 H1   HT     0.417000        1.0080           0
   80301 WT5  2131 TIP3 H2   HT     0.417000        1.0080           0
   80302 WT5  2132 TIP3 OH2  OT    -0.834000       15.9994           0
   80303 WT5  2132 TIP3 H1   HT     0.417000        1.0080           0
   80304 WT5  2132 TIP3 H2   HT     0.417000        1.0080           0
   80305 WT5  2133 TIP3 OH2  OT    -0.834000       15.9994           0
   80306 WT5  2133 TIP3 H1   HT     0.417000        1.0080           0
   80307 WT5  2133 TIP3 H2   HT     0.417000        1.0080           0
   80308 WT5  2134 TIP3 OH2  OT    -0.834000       15.9994           0
   80309 WT5  2134 TIP3 H1   HT     0.417000        1.0080           0
   80310 WT5  2134 TIP3 H2   HT     0.417000        1.0080           0
   80311 WT5  2135 TIP3 OH2  OT    -0.834000       15.9994           0
   80312 WT5  2135 TIP3 H1   HT     0.417000        1.0080           0
   80313 WT5  2135 TIP3 H2   HT     0.417000        1.0080           0
   80314 WT5  2136 TIP3 OH2  OT    -0.834000       15.9994           0
   80315 WT5  2136 TIP3 H1   HT     0.417000        1.0080           0
   80316 WT5  2136 TIP3 H2   HT     0.417000        1.0080           0
   80317 WT5  2137 TIP3 OH2  OT    -0.834000       15.9994           0
   80318 WT5  2137 TIP3 H1   HT     0.417000        1.0080           0
   80319 WT5  2137 TIP3 H2   HT     0.417000        1.0080           0
   80320 WT5  2138 TIP3 OH2  OT    -0.834000       15.9994           0
   80321 WT5  2138 TIP3 H1   HT     0.417000        1.0080           0
   80322 WT5  2138 TIP3 H2   HT     0.417000        1.0080           0
   80323 WT5  2140 TIP3 OH2  OT    -0.834000       15.9994           0
   80324 WT5  2140 TIP3 H1   HT     0.417000        1.0080           0
   80325 WT5  2140 TIP3 H2   HT     0.417000        1.0080           0
   80326 WT5  2141 TIP3 OH2  OT    -0.834000       15.9994           0
   80327 WT5  2141 TIP3 H1   HT     0.417000        1.0080           0
   80328 WT5  2141 TIP3 H2   HT     0.417000        1.0080           0
   80329 WT5  2142 TIP3 OH2  OT    -0.834000       15.9994           0
   80330 WT5  2142 TIP3 H1   HT     0.417000        1.0080           0
   80331 WT5  2142 TIP3 H2   HT     0.417000        1.0080           0
   80332 WT5  2143 TIP3 OH2  OT    -0.834000       15.9994           0
   80333 WT5  2143 TIP3 H1   HT     0.417000        1.0080           0
   80334 WT5  2143 TIP3 H2   HT     0.417000        1.0080           0
   80335 WT5  2145 TIP3 OH2  OT    -0.834000       15.9994           0
   80336 WT5  2145 TIP3 H1   HT     0.417000        1.0080           0
   80337 WT5  2145 TIP3 H2   HT     0.417000        1.0080           0
   80338 WT5  2146 TIP3 OH2  OT    -0.834000       15.9994           0
   80339 WT5  2146 TIP3 H1   HT     0.417000        1.0080           0
   80340 WT5  2146 TIP3 H2   HT     0.417000        1.0080           0
   80341 WT5  2147 TIP3 OH2  OT    -0.834000       15.9994           0
   80342 WT5  2147 TIP3 H1   HT     0.417000        1.0080           0
   80343 WT5  2147 TIP3 H2   HT     0.417000        1.0080           0
   80344 WT5  2148 TIP3 OH2  OT    -0.834000       15.9994           0
   80345 WT5  2148 TIP3 H1   HT     0.417000        1.0080           0
   80346 WT5  2148 TIP3 H2   HT     0.417000        1.0080           0
   80347 WT5  2150 TIP3 OH2  OT    -0.834000       15.9994           0
   80348 WT5  2150 TIP3 H1   HT     0.417000        1.0080           0
   80349 WT5  2150 TIP3 H2   HT     0.417000        1.0080           0
   80350 WT5  2151 TIP3 OH2  OT    -0.834000       15.9994           0
   80351 WT5  2151 TIP3 H1   HT     0.417000        1.0080           0
   80352 WT5  2151 TIP3 H2   HT     0.417000        1.0080           0
   80353 WT5  2152 TIP3 OH2  OT    -0.834000       15.9994           0
   80354 WT5  2152 TIP3 H1   HT     0.417000        1.0080           0
   80355 WT5  2152 TIP3 H2   HT     0.417000        1.0080           0
   80356 WT5  2153 TIP3 OH2  OT    -0.834000       15.9994           0
   80357 WT5  2153 TIP3 H1   HT     0.417000        1.0080           0
   80358 WT5  2153 TIP3 H2   HT     0.417000        1.0080           0
   80359 WT5  2154 TIP3 OH2  OT    -0.834000       15.9994           0
   80360 WT5  2154 TIP3 H1   HT     0.417000        1.0080           0
   80361 WT5  2154 TIP3 H2   HT     0.417000        1.0080           0
   80362 WT5  2155 TIP3 OH2  OT    -0.834000       15.9994           0
   80363 WT5  2155 TIP3 H1   HT     0.417000        1.0080           0
   80364 WT5  2155 TIP3 H2   HT     0.417000        1.0080           0
   80365 WT5  2156 TIP3 OH2  OT    -0.834000       15.9994           0
   80366 WT5  2156 TIP3 H1   HT     0.417000        1.0080           0
   80367 WT5  2156 TIP3 H2   HT     0.417000        1.0080           0
   80368 WT5  2158 TIP3 OH2  OT    -0.834000       15.9994           0
   80369 WT5  2158 TIP3 H1   HT     0.417000        1.0080           0
   80370 WT5  2158 TIP3 H2   HT     0.417000        1.0080           0
   80371 WT5  2159 TIP3 OH2  OT    -0.834000       15.9994           0
   80372 WT5  2159 TIP3 H1   HT     0.417000        1.0080           0
   80373 WT5  2159 TIP3 H2   HT     0.417000        1.0080           0
   80374 WT5  2160 TIP3 OH2  OT    -0.834000       15.9994           0
   80375 WT5  2160 TIP3 H1   HT     0.417000        1.0080           0
   80376 WT5  2160 TIP3 H2   HT     0.417000        1.0080           0
   80377 WT5  2161 TIP3 OH2  OT    -0.834000       15.9994           0
   80378 WT5  2161 TIP3 H1   HT     0.417000        1.0080           0
   80379 WT5  2161 TIP3 H2   HT     0.417000        1.0080           0
   80380 WT5  2162 TIP3 OH2  OT    -0.834000       15.9994           0
   80381 WT5  2162 TIP3 H1   HT     0.417000        1.0080           0
   80382 WT5  2162 TIP3 H2   HT     0.417000        1.0080           0
   80383 WT5  2163 TIP3 OH2  OT    -0.834000       15.9994           0
   80384 WT5  2163 TIP3 H1   HT     0.417000        1.0080           0
   80385 WT5  2163 TIP3 H2   HT     0.417000        1.0080           0
   80386 WT5  2165 TIP3 OH2  OT    -0.834000       15.9994           0
   80387 WT5  2165 TIP3 H1   HT     0.417000        1.0080           0
   80388 WT5  2165 TIP3 H2   HT     0.417000        1.0080           0
   80389 WT5  2166 TIP3 OH2  OT    -0.834000       15.9994           0
   80390 WT5  2166 TIP3 H1   HT     0.417000        1.0080           0
   80391 WT5  2166 TIP3 H2   HT     0.417000        1.0080           0
   80392 WT5  2167 TIP3 OH2  OT    -0.834000       15.9994           0
   80393 WT5  2167 TIP3 H1   HT     0.417000        1.0080           0
   80394 WT5  2167 TIP3 H2   HT     0.417000        1.0080           0
   80395 WT5  2168 TIP3 OH2  OT    -0.834000       15.9994           0
   80396 WT5  2168 TIP3 H1   HT     0.417000        1.0080           0
   80397 WT5  2168 TIP3 H2   HT     0.417000        1.0080           0
   80398 WT5  2169 TIP3 OH2  OT    -0.834000       15.9994           0
   80399 WT5  2169 TIP3 H1   HT     0.417000        1.0080           0
   80400 WT5  2169 TIP3 H2   HT     0.417000        1.0080           0
   80401 WT5  2170 TIP3 OH2  OT    -0.834000       15.9994           0
   80402 WT5  2170 TIP3 H1   HT     0.417000        1.0080           0
   80403 WT5  2170 TIP3 H2   HT     0.417000        1.0080           0
   80404 WT5  2171 TIP3 OH2  OT    -0.834000       15.9994           0
   80405 WT5  2171 TIP3 H1   HT     0.417000        1.0080           0
   80406 WT5  2171 TIP3 H2   HT     0.417000        1.0080           0
   80407 WT5  2172 TIP3 OH2  OT    -0.834000       15.9994           0
   80408 WT5  2172 TIP3 H1   HT     0.417000        1.0080           0
   80409 WT5  2172 TIP3 H2   HT     0.417000        1.0080           0
   80410 WT5  2173 TIP3 OH2  OT    -0.834000       15.9994           0
   80411 WT5  2173 TIP3 H1   HT     0.417000        1.0080           0
   80412 WT5  2173 TIP3 H2   HT     0.417000        1.0080           0
   80413 WT5  2175 TIP3 OH2  OT    -0.834000       15.9994           0
   80414 WT5  2175 TIP3 H1   HT     0.417000        1.0080           0
   80415 WT5  2175 TIP3 H2   HT     0.417000        1.0080           0
   80416 WT5  2176 TIP3 OH2  OT    -0.834000       15.9994           0
   80417 WT5  2176 TIP3 H1   HT     0.417000        1.0080           0
   80418 WT5  2176 TIP3 H2   HT     0.417000        1.0080           0
   80419 WT5  2177 TIP3 OH2  OT    -0.834000       15.9994           0
   80420 WT5  2177 TIP3 H1   HT     0.417000        1.0080           0
   80421 WT5  2177 TIP3 H2   HT     0.417000        1.0080           0
   80422 WT5  2178 TIP3 OH2  OT    -0.834000       15.9994           0
   80423 WT5  2178 TIP3 H1   HT     0.417000        1.0080           0
   80424 WT5  2178 TIP3 H2   HT     0.417000        1.0080           0
   80425 WT5  2179 TIP3 OH2  OT    -0.834000       15.9994           0
   80426 WT5  2179 TIP3 H1   HT     0.417000        1.0080           0
   80427 WT5  2179 TIP3 H2   HT     0.417000        1.0080           0
   80428 WT5  2180 TIP3 OH2  OT    -0.834000       15.9994           0
   80429 WT5  2180 TIP3 H1   HT     0.417000        1.0080           0
   80430 WT5  2180 TIP3 H2   HT     0.417000        1.0080           0
   80431 WT5  2183 TIP3 OH2  OT    -0.834000       15.9994           0
   80432 WT5  2183 TIP3 H1   HT     0.417000        1.0080           0
   80433 WT5  2183 TIP3 H2   HT     0.417000        1.0080           0
   80434 WT5  2185 TIP3 OH2  OT    -0.834000       15.9994           0
   80435 WT5  2185 TIP3 H1   HT     0.417000        1.0080           0
   80436 WT5  2185 TIP3 H2   HT     0.417000        1.0080           0
   80437 WT5  2186 TIP3 OH2  OT    -0.834000       15.9994           0
   80438 WT5  2186 TIP3 H1   HT     0.417000        1.0080           0
   80439 WT5  2186 TIP3 H2   HT     0.417000        1.0080           0
   80440 WT5  2187 TIP3 OH2  OT    -0.834000       15.9994           0
   80441 WT5  2187 TIP3 H1   HT     0.417000        1.0080           0
   80442 WT5  2187 TIP3 H2   HT     0.417000        1.0080           0
   80443 WT5  2188 TIP3 OH2  OT    -0.834000       15.9994           0
   80444 WT5  2188 TIP3 H1   HT     0.417000        1.0080           0
   80445 WT5  2188 TIP3 H2   HT     0.417000        1.0080           0
   80446 WT5  2189 TIP3 OH2  OT    -0.834000       15.9994           0
   80447 WT5  2189 TIP3 H1   HT     0.417000        1.0080           0
   80448 WT5  2189 TIP3 H2   HT     0.417000        1.0080           0
   80449 WT5  2190 TIP3 OH2  OT    -0.834000       15.9994           0
   80450 WT5  2190 TIP3 H1   HT     0.417000        1.0080           0
   80451 WT5  2190 TIP3 H2   HT     0.417000        1.0080           0
   80452 WT5  2193 TIP3 OH2  OT    -0.834000       15.9994           0
   80453 WT5  2193 TIP3 H1   HT     0.417000        1.0080           0
   80454 WT5  2193 TIP3 H2   HT     0.417000        1.0080           0
   80455 WT5  2194 TIP3 OH2  OT    -0.834000       15.9994           0
   80456 WT5  2194 TIP3 H1   HT     0.417000        1.0080           0
   80457 WT5  2194 TIP3 H2   HT     0.417000        1.0080           0
   80458 WT5  2195 TIP3 OH2  OT    -0.834000       15.9994           0
   80459 WT5  2195 TIP3 H1   HT     0.417000        1.0080           0
   80460 WT5  2195 TIP3 H2   HT     0.417000        1.0080           0
   80461 WT5  2197 TIP3 OH2  OT    -0.834000       15.9994           0
   80462 WT5  2197 TIP3 H1   HT     0.417000        1.0080           0
   80463 WT5  2197 TIP3 H2   HT     0.417000        1.0080           0
   80464 WT5  2198 TIP3 OH2  OT    -0.834000       15.9994           0
   80465 WT5  2198 TIP3 H1   HT     0.417000        1.0080           0
   80466 WT5  2198 TIP3 H2   HT     0.417000        1.0080           0
   80467 WT5  2200 TIP3 OH2  OT    -0.834000       15.9994           0
   80468 WT5  2200 TIP3 H1   HT     0.417000        1.0080           0
   80469 WT5  2200 TIP3 H2   HT     0.417000        1.0080           0
   80470 WT5  2201 TIP3 OH2  OT    -0.834000       15.9994           0
   80471 WT5  2201 TIP3 H1   HT     0.417000        1.0080           0
   80472 WT5  2201 TIP3 H2   HT     0.417000        1.0080           0
   80473 WT5  2202 TIP3 OH2  OT    -0.834000       15.9994           0
   80474 WT5  2202 TIP3 H1   HT     0.417000        1.0080           0
   80475 WT5  2202 TIP3 H2   HT     0.417000        1.0080           0
   80476 WT5  2204 TIP3 OH2  OT    -0.834000       15.9994           0
   80477 WT5  2204 TIP3 H1   HT     0.417000        1.0080           0
   80478 WT5  2204 TIP3 H2   HT     0.417000        1.0080           0
   80479 WT5  2205 TIP3 OH2  OT    -0.834000       15.9994           0
   80480 WT5  2205 TIP3 H1   HT     0.417000        1.0080           0
   80481 WT5  2205 TIP3 H2   HT     0.417000        1.0080           0
   80482 WT5  2206 TIP3 OH2  OT    -0.834000       15.9994           0
   80483 WT5  2206 TIP3 H1   HT     0.417000        1.0080           0
   80484 WT5  2206 TIP3 H2   HT     0.417000        1.0080           0
   80485 WT5  2207 TIP3 OH2  OT    -0.834000       15.9994           0
   80486 WT5  2207 TIP3 H1   HT     0.417000        1.0080           0
   80487 WT5  2207 TIP3 H2   HT     0.417000        1.0080           0
   80488 WT5  2208 TIP3 OH2  OT    -0.834000       15.9994           0
   80489 WT5  2208 TIP3 H1   HT     0.417000        1.0080           0
   80490 WT5  2208 TIP3 H2   HT     0.417000        1.0080           0
   80491 WT5  2209 TIP3 OH2  OT    -0.834000       15.9994           0
   80492 WT5  2209 TIP3 H1   HT     0.417000        1.0080           0
   80493 WT5  2209 TIP3 H2   HT     0.417000        1.0080           0
   80494 WT5  2210 TIP3 OH2  OT    -0.834000       15.9994           0
   80495 WT5  2210 TIP3 H1   HT     0.417000        1.0080           0
   80496 WT5  2210 TIP3 H2   HT     0.417000        1.0080           0
   80497 WT5  2211 TIP3 OH2  OT    -0.834000       15.9994           0
   80498 WT5  2211 TIP3 H1   HT     0.417000        1.0080           0
   80499 WT5  2211 TIP3 H2   HT     0.417000        1.0080           0
   80500 WT5  2212 TIP3 OH2  OT    -0.834000       15.9994           0
   80501 WT5  2212 TIP3 H1   HT     0.417000        1.0080           0
   80502 WT5  2212 TIP3 H2   HT     0.417000        1.0080           0
   80503 WT5  2213 TIP3 OH2  OT    -0.834000       15.9994           0
   80504 WT5  2213 TIP3 H1   HT     0.417000        1.0080           0
   80505 WT5  2213 TIP3 H2   HT     0.417000        1.0080           0
   80506 WT5  2214 TIP3 OH2  OT    -0.834000       15.9994           0
   80507 WT5  2214 TIP3 H1   HT     0.417000        1.0080           0
   80508 WT5  2214 TIP3 H2   HT     0.417000        1.0080           0
   80509 WT5  2215 TIP3 OH2  OT    -0.834000       15.9994           0
   80510 WT5  2215 TIP3 H1   HT     0.417000        1.0080           0
   80511 WT5  2215 TIP3 H2   HT     0.417000        1.0080           0
   80512 WT5  2216 TIP3 OH2  OT    -0.834000       15.9994           0
   80513 WT5  2216 TIP3 H1   HT     0.417000        1.0080           0
   80514 WT5  2216 TIP3 H2   HT     0.417000        1.0080           0
   80515 WT5  2218 TIP3 OH2  OT    -0.834000       15.9994           0
   80516 WT5  2218 TIP3 H1   HT     0.417000        1.0080           0
   80517 WT5  2218 TIP3 H2   HT     0.417000        1.0080           0
   80518 WT5  2219 TIP3 OH2  OT    -0.834000       15.9994           0
   80519 WT5  2219 TIP3 H1   HT     0.417000        1.0080           0
   80520 WT5  2219 TIP3 H2   HT     0.417000        1.0080           0
   80521 WT5  2220 TIP3 OH2  OT    -0.834000       15.9994           0
   80522 WT5  2220 TIP3 H1   HT     0.417000        1.0080           0
   80523 WT5  2220 TIP3 H2   HT     0.417000        1.0080           0
   80524 WT5  2223 TIP3 OH2  OT    -0.834000       15.9994           0
   80525 WT5  2223 TIP3 H1   HT     0.417000        1.0080           0
   80526 WT5  2223 TIP3 H2   HT     0.417000        1.0080           0
   80527 WT5  2224 TIP3 OH2  OT    -0.834000       15.9994           0
   80528 WT5  2224 TIP3 H1   HT     0.417000        1.0080           0
   80529 WT5  2224 TIP3 H2   HT     0.417000        1.0080           0
   80530 WT5  2225 TIP3 OH2  OT    -0.834000       15.9994           0
   80531 WT5  2225 TIP3 H1   HT     0.417000        1.0080           0
   80532 WT5  2225 TIP3 H2   HT     0.417000        1.0080           0
   80533 WT5  2227 TIP3 OH2  OT    -0.834000       15.9994           0
   80534 WT5  2227 TIP3 H1   HT     0.417000        1.0080           0
   80535 WT5  2227 TIP3 H2   HT     0.417000        1.0080           0
   80536 WT5  2228 TIP3 OH2  OT    -0.834000       15.9994           0
   80537 WT5  2228 TIP3 H1   HT     0.417000        1.0080           0
   80538 WT5  2228 TIP3 H2   HT     0.417000        1.0080           0
   80539 WT5  2229 TIP3 OH2  OT    -0.834000       15.9994           0
   80540 WT5  2229 TIP3 H1   HT     0.417000        1.0080           0
   80541 WT5  2229 TIP3 H2   HT     0.417000        1.0080           0
   80542 WT5  2230 TIP3 OH2  OT    -0.834000       15.9994           0
   80543 WT5  2230 TIP3 H1   HT     0.417000        1.0080           0
   80544 WT5  2230 TIP3 H2   HT     0.417000        1.0080           0
   80545 WT5  2231 TIP3 OH2  OT    -0.834000       15.9994           0
   80546 WT5  2231 TIP3 H1   HT     0.417000        1.0080           0
   80547 WT5  2231 TIP3 H2   HT     0.417000        1.0080           0
   80548 WT5  2232 TIP3 OH2  OT    -0.834000       15.9994           0
   80549 WT5  2232 TIP3 H1   HT     0.417000        1.0080           0
   80550 WT5  2232 TIP3 H2   HT     0.417000        1.0080           0
   80551 WT5  2233 TIP3 OH2  OT    -0.834000       15.9994           0
   80552 WT5  2233 TIP3 H1   HT     0.417000        1.0080           0
   80553 WT5  2233 TIP3 H2   HT     0.417000        1.0080           0
   80554 WT5  2234 TIP3 OH2  OT    -0.834000       15.9994           0
   80555 WT5  2234 TIP3 H1   HT     0.417000        1.0080           0
   80556 WT5  2234 TIP3 H2   HT     0.417000        1.0080           0
   80557 WT5  2235 TIP3 OH2  OT    -0.834000       15.9994           0
   80558 WT5  2235 TIP3 H1   HT     0.417000        1.0080           0
   80559 WT5  2235 TIP3 H2   HT     0.417000        1.0080           0
   80560 WT5  2236 TIP3 OH2  OT    -0.834000       15.9994           0
   80561 WT5  2236 TIP3 H1   HT     0.417000        1.0080           0
   80562 WT5  2236 TIP3 H2   HT     0.417000        1.0080           0
   80563 WT5  2237 TIP3 OH2  OT    -0.834000       15.9994           0
   80564 WT5  2237 TIP3 H1   HT     0.417000        1.0080           0
   80565 WT5  2237 TIP3 H2   HT     0.417000        1.0080           0
   80566 WT5  2238 TIP3 OH2  OT    -0.834000       15.9994           0
   80567 WT5  2238 TIP3 H1   HT     0.417000        1.0080           0
   80568 WT5  2238 TIP3 H2   HT     0.417000        1.0080           0
   80569 WT5  2239 TIP3 OH2  OT    -0.834000       15.9994           0
   80570 WT5  2239 TIP3 H1   HT     0.417000        1.0080           0
   80571 WT5  2239 TIP3 H2   HT     0.417000        1.0080           0
   80572 WT5  2240 TIP3 OH2  OT    -0.834000       15.9994           0
   80573 WT5  2240 TIP3 H1   HT     0.417000        1.0080           0
   80574 WT5  2240 TIP3 H2   HT     0.417000        1.0080           0
   80575 WT5  2241 TIP3 OH2  OT    -0.834000       15.9994           0
   80576 WT5  2241 TIP3 H1   HT     0.417000        1.0080           0
   80577 WT5  2241 TIP3 H2   HT     0.417000        1.0080           0
   80578 WT5  2242 TIP3 OH2  OT    -0.834000       15.9994           0
   80579 WT5  2242 TIP3 H1   HT     0.417000        1.0080           0
   80580 WT5  2242 TIP3 H2   HT     0.417000        1.0080           0
   80581 WT5  2244 TIP3 OH2  OT    -0.834000       15.9994           0
   80582 WT5  2244 TIP3 H1   HT     0.417000        1.0080           0
   80583 WT5  2244 TIP3 H2   HT     0.417000        1.0080           0
   80584 WT5  2245 TIP3 OH2  OT    -0.834000       15.9994           0
   80585 WT5  2245 TIP3 H1   HT     0.417000        1.0080           0
   80586 WT5  2245 TIP3 H2   HT     0.417000        1.0080           0
   80587 WT5  2247 TIP3 OH2  OT    -0.834000       15.9994           0
   80588 WT5  2247 TIP3 H1   HT     0.417000        1.0080           0
   80589 WT5  2247 TIP3 H2   HT     0.417000        1.0080           0
   80590 WT5  2249 TIP3 OH2  OT    -0.834000       15.9994           0
   80591 WT5  2249 TIP3 H1   HT     0.417000        1.0080           0
   80592 WT5  2249 TIP3 H2   HT     0.417000        1.0080           0
   80593 WT5  2250 TIP3 OH2  OT    -0.834000       15.9994           0
   80594 WT5  2250 TIP3 H1   HT     0.417000        1.0080           0
   80595 WT5  2250 TIP3 H2   HT     0.417000        1.0080           0
   80596 WT5  2251 TIP3 OH2  OT    -0.834000       15.9994           0
   80597 WT5  2251 TIP3 H1   HT     0.417000        1.0080           0
   80598 WT5  2251 TIP3 H2   HT     0.417000        1.0080           0
   80599 WT5  2252 TIP3 OH2  OT    -0.834000       15.9994           0
   80600 WT5  2252 TIP3 H1   HT     0.417000        1.0080           0
   80601 WT5  2252 TIP3 H2   HT     0.417000        1.0080           0
   80602 WT5  2253 TIP3 OH2  OT    -0.834000       15.9994           0
   80603 WT5  2253 TIP3 H1   HT     0.417000        1.0080           0
   80604 WT5  2253 TIP3 H2   HT     0.417000        1.0080           0
   80605 WT5  2254 TIP3 OH2  OT    -0.834000       15.9994           0
   80606 WT5  2254 TIP3 H1   HT     0.417000        1.0080           0
   80607 WT5  2254 TIP3 H2   HT     0.417000        1.0080           0
   80608 WT5  2255 TIP3 OH2  OT    -0.834000       15.9994           0
   80609 WT5  2255 TIP3 H1   HT     0.417000        1.0080           0
   80610 WT5  2255 TIP3 H2   HT     0.417000        1.0080           0
   80611 WT5  2256 TIP3 OH2  OT    -0.834000       15.9994           0
   80612 WT5  2256 TIP3 H1   HT     0.417000        1.0080           0
   80613 WT5  2256 TIP3 H2   HT     0.417000        1.0080           0
   80614 WT5  2257 TIP3 OH2  OT    -0.834000       15.9994           0
   80615 WT5  2257 TIP3 H1   HT     0.417000        1.0080           0
   80616 WT5  2257 TIP3 H2   HT     0.417000        1.0080           0
   80617 WT5  2258 TIP3 OH2  OT    -0.834000       15.9994           0
   80618 WT5  2258 TIP3 H1   HT     0.417000        1.0080           0
   80619 WT5  2258 TIP3 H2   HT     0.417000        1.0080           0
   80620 WT5  2259 TIP3 OH2  OT    -0.834000       15.9994           0
   80621 WT5  2259 TIP3 H1   HT     0.417000        1.0080           0
   80622 WT5  2259 TIP3 H2   HT     0.417000        1.0080           0
   80623 WT5  2260 TIP3 OH2  OT    -0.834000       15.9994           0
   80624 WT5  2260 TIP3 H1   HT     0.417000        1.0080           0
   80625 WT5  2260 TIP3 H2   HT     0.417000        1.0080           0
   80626 WT5  2261 TIP3 OH2  OT    -0.834000       15.9994           0
   80627 WT5  2261 TIP3 H1   HT     0.417000        1.0080           0
   80628 WT5  2261 TIP3 H2   HT     0.417000        1.0080           0
   80629 WT5  2262 TIP3 OH2  OT    -0.834000       15.9994           0
   80630 WT5  2262 TIP3 H1   HT     0.417000        1.0080           0
   80631 WT5  2262 TIP3 H2   HT     0.417000        1.0080           0
   80632 WT5  2264 TIP3 OH2  OT    -0.834000       15.9994           0
   80633 WT5  2264 TIP3 H1   HT     0.417000        1.0080           0
   80634 WT5  2264 TIP3 H2   HT     0.417000        1.0080           0
   80635 WT5  2265 TIP3 OH2  OT    -0.834000       15.9994           0
   80636 WT5  2265 TIP3 H1   HT     0.417000        1.0080           0
   80637 WT5  2265 TIP3 H2   HT     0.417000        1.0080           0
   80638 WT5  2267 TIP3 OH2  OT    -0.834000       15.9994           0
   80639 WT5  2267 TIP3 H1   HT     0.417000        1.0080           0
   80640 WT5  2267 TIP3 H2   HT     0.417000        1.0080           0
   80641 WT5  2269 TIP3 OH2  OT    -0.834000       15.9994           0
   80642 WT5  2269 TIP3 H1   HT     0.417000        1.0080           0
   80643 WT5  2269 TIP3 H2   HT     0.417000        1.0080           0
   80644 WT5  2270 TIP3 OH2  OT    -0.834000       15.9994           0
   80645 WT5  2270 TIP3 H1   HT     0.417000        1.0080           0
   80646 WT5  2270 TIP3 H2   HT     0.417000        1.0080           0
   80647 WT5  2271 TIP3 OH2  OT    -0.834000       15.9994           0
   80648 WT5  2271 TIP3 H1   HT     0.417000        1.0080           0
   80649 WT5  2271 TIP3 H2   HT     0.417000        1.0080           0
   80650 WT5  2272 TIP3 OH2  OT    -0.834000       15.9994           0
   80651 WT5  2272 TIP3 H1   HT     0.417000        1.0080           0
   80652 WT5  2272 TIP3 H2   HT     0.417000        1.0080           0
   80653 WT5  2273 TIP3 OH2  OT    -0.834000       15.9994           0
   80654 WT5  2273 TIP3 H1   HT     0.417000        1.0080           0
   80655 WT5  2273 TIP3 H2   HT     0.417000        1.0080           0
   80656 WT5  2274 TIP3 OH2  OT    -0.834000       15.9994           0
   80657 WT5  2274 TIP3 H1   HT     0.417000        1.0080           0
   80658 WT5  2274 TIP3 H2   HT     0.417000        1.0080           0
   80659 WT5  2275 TIP3 OH2  OT    -0.834000       15.9994           0
   80660 WT5  2275 TIP3 H1   HT     0.417000        1.0080           0
   80661 WT5  2275 TIP3 H2   HT     0.417000        1.0080           0
   80662 WT5  2276 TIP3 OH2  OT    -0.834000       15.9994           0
   80663 WT5  2276 TIP3 H1   HT     0.417000        1.0080           0
   80664 WT5  2276 TIP3 H2   HT     0.417000        1.0080           0
   80665 WT5  2277 TIP3 OH2  OT    -0.834000       15.9994           0
   80666 WT5  2277 TIP3 H1   HT     0.417000        1.0080           0
   80667 WT5  2277 TIP3 H2   HT     0.417000        1.0080           0
   80668 WT5  2278 TIP3 OH2  OT    -0.834000       15.9994           0
   80669 WT5  2278 TIP3 H1   HT     0.417000        1.0080           0
   80670 WT5  2278 TIP3 H2   HT     0.417000        1.0080           0
   80671 WT5  2280 TIP3 OH2  OT    -0.834000       15.9994           0
   80672 WT5  2280 TIP3 H1   HT     0.417000        1.0080           0
   80673 WT5  2280 TIP3 H2   HT     0.417000        1.0080           0
   80674 WT5  2281 TIP3 OH2  OT    -0.834000       15.9994           0
   80675 WT5  2281 TIP3 H1   HT     0.417000        1.0080           0
   80676 WT5  2281 TIP3 H2   HT     0.417000        1.0080           0
   80677 WT5  2282 TIP3 OH2  OT    -0.834000       15.9994           0
   80678 WT5  2282 TIP3 H1   HT     0.417000        1.0080           0
   80679 WT5  2282 TIP3 H2   HT     0.417000        1.0080           0
   80680 WT5  2283 TIP3 OH2  OT    -0.834000       15.9994           0
   80681 WT5  2283 TIP3 H1   HT     0.417000        1.0080           0
   80682 WT5  2283 TIP3 H2   HT     0.417000        1.0080           0
   80683 WT5  2284 TIP3 OH2  OT    -0.834000       15.9994           0
   80684 WT5  2284 TIP3 H1   HT     0.417000        1.0080           0
   80685 WT5  2284 TIP3 H2   HT     0.417000        1.0080           0
   80686 WT5  2285 TIP3 OH2  OT    -0.834000       15.9994           0
   80687 WT5  2285 TIP3 H1   HT     0.417000        1.0080           0
   80688 WT5  2285 TIP3 H2   HT     0.417000        1.0080           0
   80689 WT5  2286 TIP3 OH2  OT    -0.834000       15.9994           0
   80690 WT5  2286 TIP3 H1   HT     0.417000        1.0080           0
   80691 WT5  2286 TIP3 H2   HT     0.417000        1.0080           0
   80692 WT5  2288 TIP3 OH2  OT    -0.834000       15.9994           0
   80693 WT5  2288 TIP3 H1   HT     0.417000        1.0080           0
   80694 WT5  2288 TIP3 H2   HT     0.417000        1.0080           0
   80695 WT5  2289 TIP3 OH2  OT    -0.834000       15.9994           0
   80696 WT5  2289 TIP3 H1   HT     0.417000        1.0080           0
   80697 WT5  2289 TIP3 H2   HT     0.417000        1.0080           0
   80698 WT5  2290 TIP3 OH2  OT    -0.834000       15.9994           0
   80699 WT5  2290 TIP3 H1   HT     0.417000        1.0080           0
   80700 WT5  2290 TIP3 H2   HT     0.417000        1.0080           0
   80701 WT5  2291 TIP3 OH2  OT    -0.834000       15.9994           0
   80702 WT5  2291 TIP3 H1   HT     0.417000        1.0080           0
   80703 WT5  2291 TIP3 H2   HT     0.417000        1.0080           0
   80704 WT5  2292 TIP3 OH2  OT    -0.834000       15.9994           0
   80705 WT5  2292 TIP3 H1   HT     0.417000        1.0080           0
   80706 WT5  2292 TIP3 H2   HT     0.417000        1.0080           0
   80707 WT5  2293 TIP3 OH2  OT    -0.834000       15.9994           0
   80708 WT5  2293 TIP3 H1   HT     0.417000        1.0080           0
   80709 WT5  2293 TIP3 H2   HT     0.417000        1.0080           0
   80710 WT5  2294 TIP3 OH2  OT    -0.834000       15.9994           0
   80711 WT5  2294 TIP3 H1   HT     0.417000        1.0080           0
   80712 WT5  2294 TIP3 H2   HT     0.417000        1.0080           0
   80713 WT5  2295 TIP3 OH2  OT    -0.834000       15.9994           0
   80714 WT5  2295 TIP3 H1   HT     0.417000        1.0080           0
   80715 WT5  2295 TIP3 H2   HT     0.417000        1.0080           0
   80716 WT5  2296 TIP3 OH2  OT    -0.834000       15.9994           0
   80717 WT5  2296 TIP3 H1   HT     0.417000        1.0080           0
   80718 WT5  2296 TIP3 H2   HT     0.417000        1.0080           0
   80719 WT5  2297 TIP3 OH2  OT    -0.834000       15.9994           0
   80720 WT5  2297 TIP3 H1   HT     0.417000        1.0080           0
   80721 WT5  2297 TIP3 H2   HT     0.417000        1.0080           0
   80722 WT5  2298 TIP3 OH2  OT    -0.834000       15.9994           0
   80723 WT5  2298 TIP3 H1   HT     0.417000        1.0080           0
   80724 WT5  2298 TIP3 H2   HT     0.417000        1.0080           0
   80725 WT5  2299 TIP3 OH2  OT    -0.834000       15.9994           0
   80726 WT5  2299 TIP3 H1   HT     0.417000        1.0080           0
   80727 WT5  2299 TIP3 H2   HT     0.417000        1.0080           0
   80728 WT5  2300 TIP3 OH2  OT    -0.834000       15.9994           0
   80729 WT5  2300 TIP3 H1   HT     0.417000        1.0080           0
   80730 WT5  2300 TIP3 H2   HT     0.417000        1.0080           0
   80731 WT5  2301 TIP3 OH2  OT    -0.834000       15.9994           0
   80732 WT5  2301 TIP3 H1   HT     0.417000        1.0080           0
   80733 WT5  2301 TIP3 H2   HT     0.417000        1.0080           0
   80734 WT5  2302 TIP3 OH2  OT    -0.834000       15.9994           0
   80735 WT5  2302 TIP3 H1   HT     0.417000        1.0080           0
   80736 WT5  2302 TIP3 H2   HT     0.417000        1.0080           0
   80737 WT5  2303 TIP3 OH2  OT    -0.834000       15.9994           0
   80738 WT5  2303 TIP3 H1   HT     0.417000        1.0080           0
   80739 WT5  2303 TIP3 H2   HT     0.417000        1.0080           0
   80740 WT5  2305 TIP3 OH2  OT    -0.834000       15.9994           0
   80741 WT5  2305 TIP3 H1   HT     0.417000        1.0080           0
   80742 WT5  2305 TIP3 H2   HT     0.417000        1.0080           0
   80743 WT5  2306 TIP3 OH2  OT    -0.834000       15.9994           0
   80744 WT5  2306 TIP3 H1   HT     0.417000        1.0080           0
   80745 WT5  2306 TIP3 H2   HT     0.417000        1.0080           0
   80746 WT5  2308 TIP3 OH2  OT    -0.834000       15.9994           0
   80747 WT5  2308 TIP3 H1   HT     0.417000        1.0080           0
   80748 WT5  2308 TIP3 H2   HT     0.417000        1.0080           0
   80749 WT5  2309 TIP3 OH2  OT    -0.834000       15.9994           0
   80750 WT5  2309 TIP3 H1   HT     0.417000        1.0080           0
   80751 WT5  2309 TIP3 H2   HT     0.417000        1.0080           0
   80752 WT5  2310 TIP3 OH2  OT    -0.834000       15.9994           0
   80753 WT5  2310 TIP3 H1   HT     0.417000        1.0080           0
   80754 WT5  2310 TIP3 H2   HT     0.417000        1.0080           0
   80755 WT5  2311 TIP3 OH2  OT    -0.834000       15.9994           0
   80756 WT5  2311 TIP3 H1   HT     0.417000        1.0080           0
   80757 WT5  2311 TIP3 H2   HT     0.417000        1.0080           0
   80758 WT5  2313 TIP3 OH2  OT    -0.834000       15.9994           0
   80759 WT5  2313 TIP3 H1   HT     0.417000        1.0080           0
   80760 WT5  2313 TIP3 H2   HT     0.417000        1.0080           0
   80761 WT5  2315 TIP3 OH2  OT    -0.834000       15.9994           0
   80762 WT5  2315 TIP3 H1   HT     0.417000        1.0080           0
   80763 WT5  2315 TIP3 H2   HT     0.417000        1.0080           0
   80764 WT5  2316 TIP3 OH2  OT    -0.834000       15.9994           0
   80765 WT5  2316 TIP3 H1   HT     0.417000        1.0080           0
   80766 WT5  2316 TIP3 H2   HT     0.417000        1.0080           0
   80767 WT5  2317 TIP3 OH2  OT    -0.834000       15.9994           0
   80768 WT5  2317 TIP3 H1   HT     0.417000        1.0080           0
   80769 WT5  2317 TIP3 H2   HT     0.417000        1.0080           0
   80770 WT5  2318 TIP3 OH2  OT    -0.834000       15.9994           0
   80771 WT5  2318 TIP3 H1   HT     0.417000        1.0080           0
   80772 WT5  2318 TIP3 H2   HT     0.417000        1.0080           0
   80773 WT5  2319 TIP3 OH2  OT    -0.834000       15.9994           0
   80774 WT5  2319 TIP3 H1   HT     0.417000        1.0080           0
   80775 WT5  2319 TIP3 H2   HT     0.417000        1.0080           0
   80776 WT5  2320 TIP3 OH2  OT    -0.834000       15.9994           0
   80777 WT5  2320 TIP3 H1   HT     0.417000        1.0080           0
   80778 WT5  2320 TIP3 H2   HT     0.417000        1.0080           0
   80779 WT5  2321 TIP3 OH2  OT    -0.834000       15.9994           0
   80780 WT5  2321 TIP3 H1   HT     0.417000        1.0080           0
   80781 WT5  2321 TIP3 H2   HT     0.417000        1.0080           0
   80782 WT5  2322 TIP3 OH2  OT    -0.834000       15.9994           0
   80783 WT5  2322 TIP3 H1   HT     0.417000        1.0080           0
   80784 WT5  2322 TIP3 H2   HT     0.417000        1.0080           0
   80785 WT5  2323 TIP3 OH2  OT    -0.834000       15.9994           0
   80786 WT5  2323 TIP3 H1   HT     0.417000        1.0080           0
   80787 WT5  2323 TIP3 H2   HT     0.417000        1.0080           0
   80788 WT5  2324 TIP3 OH2  OT    -0.834000       15.9994           0
   80789 WT5  2324 TIP3 H1   HT     0.417000        1.0080           0
   80790 WT5  2324 TIP3 H2   HT     0.417000        1.0080           0
   80791 WT5  2325 TIP3 OH2  OT    -0.834000       15.9994           0
   80792 WT5  2325 TIP3 H1   HT     0.417000        1.0080           0
   80793 WT5  2325 TIP3 H2   HT     0.417000        1.0080           0
   80794 WT5  2326 TIP3 OH2  OT    -0.834000       15.9994           0
   80795 WT5  2326 TIP3 H1   HT     0.417000        1.0080           0
   80796 WT5  2326 TIP3 H2   HT     0.417000        1.0080           0
   80797 WT5  2327 TIP3 OH2  OT    -0.834000       15.9994           0
   80798 WT5  2327 TIP3 H1   HT     0.417000        1.0080           0
   80799 WT5  2327 TIP3 H2   HT     0.417000        1.0080           0
   80800 WT5  2328 TIP3 OH2  OT    -0.834000       15.9994           0
   80801 WT5  2328 TIP3 H1   HT     0.417000        1.0080           0
   80802 WT5  2328 TIP3 H2   HT     0.417000        1.0080           0
   80803 WT5  2329 TIP3 OH2  OT    -0.834000       15.9994           0
   80804 WT5  2329 TIP3 H1   HT     0.417000        1.0080           0
   80805 WT5  2329 TIP3 H2   HT     0.417000        1.0080           0
   80806 WT5  2332 TIP3 OH2  OT    -0.834000       15.9994           0
   80807 WT5  2332 TIP3 H1   HT     0.417000        1.0080           0
   80808 WT5  2332 TIP3 H2   HT     0.417000        1.0080           0
   80809 WT5  2333 TIP3 OH2  OT    -0.834000       15.9994           0
   80810 WT5  2333 TIP3 H1   HT     0.417000        1.0080           0
   80811 WT5  2333 TIP3 H2   HT     0.417000        1.0080           0
   80812 WT5  2334 TIP3 OH2  OT    -0.834000       15.9994           0
   80813 WT5  2334 TIP3 H1   HT     0.417000        1.0080           0
   80814 WT5  2334 TIP3 H2   HT     0.417000        1.0080           0
   80815 WT5  2335 TIP3 OH2  OT    -0.834000       15.9994           0
   80816 WT5  2335 TIP3 H1   HT     0.417000        1.0080           0
   80817 WT5  2335 TIP3 H2   HT     0.417000        1.0080           0
   80818 WT5  2336 TIP3 OH2  OT    -0.834000       15.9994           0
   80819 WT5  2336 TIP3 H1   HT     0.417000        1.0080           0
   80820 WT5  2336 TIP3 H2   HT     0.417000        1.0080           0
   80821 WT5  2337 TIP3 OH2  OT    -0.834000       15.9994           0
   80822 WT5  2337 TIP3 H1   HT     0.417000        1.0080           0
   80823 WT5  2337 TIP3 H2   HT     0.417000        1.0080           0
   80824 WT5  2338 TIP3 OH2  OT    -0.834000       15.9994           0
   80825 WT5  2338 TIP3 H1   HT     0.417000        1.0080           0
   80826 WT5  2338 TIP3 H2   HT     0.417000        1.0080           0
   80827 WT5  2339 TIP3 OH2  OT    -0.834000       15.9994           0
   80828 WT5  2339 TIP3 H1   HT     0.417000        1.0080           0
   80829 WT5  2339 TIP3 H2   HT     0.417000        1.0080           0
   80830 WT5  2340 TIP3 OH2  OT    -0.834000       15.9994           0
   80831 WT5  2340 TIP3 H1   HT     0.417000        1.0080           0
   80832 WT5  2340 TIP3 H2   HT     0.417000        1.0080           0
   80833 WT5  2341 TIP3 OH2  OT    -0.834000       15.9994           0
   80834 WT5  2341 TIP3 H1   HT     0.417000        1.0080           0
   80835 WT5  2341 TIP3 H2   HT     0.417000        1.0080           0
   80836 WT5  2342 TIP3 OH2  OT    -0.834000       15.9994           0
   80837 WT5  2342 TIP3 H1   HT     0.417000        1.0080           0
   80838 WT5  2342 TIP3 H2   HT     0.417000        1.0080           0
   80839 WT5  2343 TIP3 OH2  OT    -0.834000       15.9994           0
   80840 WT5  2343 TIP3 H1   HT     0.417000        1.0080           0
   80841 WT5  2343 TIP3 H2   HT     0.417000        1.0080           0
   80842 WT5  2344 TIP3 OH2  OT    -0.834000       15.9994           0
   80843 WT5  2344 TIP3 H1   HT     0.417000        1.0080           0
   80844 WT5  2344 TIP3 H2   HT     0.417000        1.0080           0
   80845 WT5  2345 TIP3 OH2  OT    -0.834000       15.9994           0
   80846 WT5  2345 TIP3 H1   HT     0.417000        1.0080           0
   80847 WT5  2345 TIP3 H2   HT     0.417000        1.0080           0
   80848 WT5  2346 TIP3 OH2  OT    -0.834000       15.9994           0
   80849 WT5  2346 TIP3 H1   HT     0.417000        1.0080           0
   80850 WT5  2346 TIP3 H2   HT     0.417000        1.0080           0
   80851 WT5  2347 TIP3 OH2  OT    -0.834000       15.9994           0
   80852 WT5  2347 TIP3 H1   HT     0.417000        1.0080           0
   80853 WT5  2347 TIP3 H2   HT     0.417000        1.0080           0
   80854 WT5  2348 TIP3 OH2  OT    -0.834000       15.9994           0
   80855 WT5  2348 TIP3 H1   HT     0.417000        1.0080           0
   80856 WT5  2348 TIP3 H2   HT     0.417000        1.0080           0
   80857 WT5  2349 TIP3 OH2  OT    -0.834000       15.9994           0
   80858 WT5  2349 TIP3 H1   HT     0.417000        1.0080           0
   80859 WT5  2349 TIP3 H2   HT     0.417000        1.0080           0
   80860 WT5  2350 TIP3 OH2  OT    -0.834000       15.9994           0
   80861 WT5  2350 TIP3 H1   HT     0.417000        1.0080           0
   80862 WT5  2350 TIP3 H2   HT     0.417000        1.0080           0
   80863 WT5  2351 TIP3 OH2  OT    -0.834000       15.9994           0
   80864 WT5  2351 TIP3 H1   HT     0.417000        1.0080           0
   80865 WT5  2351 TIP3 H2   HT     0.417000        1.0080           0
   80866 WT5  2352 TIP3 OH2  OT    -0.834000       15.9994           0
   80867 WT5  2352 TIP3 H1   HT     0.417000        1.0080           0
   80868 WT5  2352 TIP3 H2   HT     0.417000        1.0080           0
   80869 WT5  2354 TIP3 OH2  OT    -0.834000       15.9994           0
   80870 WT5  2354 TIP3 H1   HT     0.417000        1.0080           0
   80871 WT5  2354 TIP3 H2   HT     0.417000        1.0080           0
   80872 WT5  2355 TIP3 OH2  OT    -0.834000       15.9994           0
   80873 WT5  2355 TIP3 H1   HT     0.417000        1.0080           0
   80874 WT5  2355 TIP3 H2   HT     0.417000        1.0080           0
   80875 WT5  2357 TIP3 OH2  OT    -0.834000       15.9994           0
   80876 WT5  2357 TIP3 H1   HT     0.417000        1.0080           0
   80877 WT5  2357 TIP3 H2   HT     0.417000        1.0080           0
   80878 WT5  2358 TIP3 OH2  OT    -0.834000       15.9994           0
   80879 WT5  2358 TIP3 H1   HT     0.417000        1.0080           0
   80880 WT5  2358 TIP3 H2   HT     0.417000        1.0080           0
   80881 WT5  2359 TIP3 OH2  OT    -0.834000       15.9994           0
   80882 WT5  2359 TIP3 H1   HT     0.417000        1.0080           0
   80883 WT5  2359 TIP3 H2   HT     0.417000        1.0080           0
   80884 WT5  2360 TIP3 OH2  OT    -0.834000       15.9994           0
   80885 WT5  2360 TIP3 H1   HT     0.417000        1.0080           0
   80886 WT5  2360 TIP3 H2   HT     0.417000        1.0080           0
   80887 WT5  2361 TIP3 OH2  OT    -0.834000       15.9994           0
   80888 WT5  2361 TIP3 H1   HT     0.417000        1.0080           0
   80889 WT5  2361 TIP3 H2   HT     0.417000        1.0080           0
   80890 WT5  2362 TIP3 OH2  OT    -0.834000       15.9994           0
   80891 WT5  2362 TIP3 H1   HT     0.417000        1.0080           0
   80892 WT5  2362 TIP3 H2   HT     0.417000        1.0080           0
   80893 WT5  2363 TIP3 OH2  OT    -0.834000       15.9994           0
   80894 WT5  2363 TIP3 H1   HT     0.417000        1.0080           0
   80895 WT5  2363 TIP3 H2   HT     0.417000        1.0080           0
   80896 WT5  2364 TIP3 OH2  OT    -0.834000       15.9994           0
   80897 WT5  2364 TIP3 H1   HT     0.417000        1.0080           0
   80898 WT5  2364 TIP3 H2   HT     0.417000        1.0080           0
   80899 WT5  2365 TIP3 OH2  OT    -0.834000       15.9994           0
   80900 WT5  2365 TIP3 H1   HT     0.417000        1.0080           0
   80901 WT5  2365 TIP3 H2   HT     0.417000        1.0080           0
   80902 WT5  2366 TIP3 OH2  OT    -0.834000       15.9994           0
   80903 WT5  2366 TIP3 H1   HT     0.417000        1.0080           0
   80904 WT5  2366 TIP3 H2   HT     0.417000        1.0080           0
   80905 WT5  2367 TIP3 OH2  OT    -0.834000       15.9994           0
   80906 WT5  2367 TIP3 H1   HT     0.417000        1.0080           0
   80907 WT5  2367 TIP3 H2   HT     0.417000        1.0080           0
   80908 WT5  2368 TIP3 OH2  OT    -0.834000       15.9994           0
   80909 WT5  2368 TIP3 H1   HT     0.417000        1.0080           0
   80910 WT5  2368 TIP3 H2   HT     0.417000        1.0080           0
   80911 WT5  2369 TIP3 OH2  OT    -0.834000       15.9994           0
   80912 WT5  2369 TIP3 H1   HT     0.417000        1.0080           0
   80913 WT5  2369 TIP3 H2   HT     0.417000        1.0080           0
   80914 WT5  2371 TIP3 OH2  OT    -0.834000       15.9994           0
   80915 WT5  2371 TIP3 H1   HT     0.417000        1.0080           0
   80916 WT5  2371 TIP3 H2   HT     0.417000        1.0080           0
   80917 WT5  2372 TIP3 OH2  OT    -0.834000       15.9994           0
   80918 WT5  2372 TIP3 H1   HT     0.417000        1.0080           0
   80919 WT5  2372 TIP3 H2   HT     0.417000        1.0080           0
   80920 WT5  2373 TIP3 OH2  OT    -0.834000       15.9994           0
   80921 WT5  2373 TIP3 H1   HT     0.417000        1.0080           0
   80922 WT5  2373 TIP3 H2   HT     0.417000        1.0080           0
   80923 WT5  2374 TIP3 OH2  OT    -0.834000       15.9994           0
   80924 WT5  2374 TIP3 H1   HT     0.417000        1.0080           0
   80925 WT5  2374 TIP3 H2   HT     0.417000        1.0080           0
   80926 WT5  2375 TIP3 OH2  OT    -0.834000       15.9994           0
   80927 WT5  2375 TIP3 H1   HT     0.417000        1.0080           0
   80928 WT5  2375 TIP3 H2   HT     0.417000        1.0080           0
   80929 WT5  2376 TIP3 OH2  OT    -0.834000       15.9994           0
   80930 WT5  2376 TIP3 H1   HT     0.417000        1.0080           0
   80931 WT5  2376 TIP3 H2   HT     0.417000        1.0080           0
   80932 WT5  2377 TIP3 OH2  OT    -0.834000       15.9994           0
   80933 WT5  2377 TIP3 H1   HT     0.417000        1.0080           0
   80934 WT5  2377 TIP3 H2   HT     0.417000        1.0080           0
   80935 WT5  2379 TIP3 OH2  OT    -0.834000       15.9994           0
   80936 WT5  2379 TIP3 H1   HT     0.417000        1.0080           0
   80937 WT5  2379 TIP3 H2   HT     0.417000        1.0080           0
   80938 WT5  2380 TIP3 OH2  OT    -0.834000       15.9994           0
   80939 WT5  2380 TIP3 H1   HT     0.417000        1.0080           0
   80940 WT5  2380 TIP3 H2   HT     0.417000        1.0080           0
   80941 WT5  2381 TIP3 OH2  OT    -0.834000       15.9994           0
   80942 WT5  2381 TIP3 H1   HT     0.417000        1.0080           0
   80943 WT5  2381 TIP3 H2   HT     0.417000        1.0080           0
   80944 WT5  2382 TIP3 OH2  OT    -0.834000       15.9994           0
   80945 WT5  2382 TIP3 H1   HT     0.417000        1.0080           0
   80946 WT5  2382 TIP3 H2   HT     0.417000        1.0080           0
   80947 WT5  2383 TIP3 OH2  OT    -0.834000       15.9994           0
   80948 WT5  2383 TIP3 H1   HT     0.417000        1.0080           0
   80949 WT5  2383 TIP3 H2   HT     0.417000        1.0080           0
   80950 WT5  2384 TIP3 OH2  OT    -0.834000       15.9994           0
   80951 WT5  2384 TIP3 H1   HT     0.417000        1.0080           0
   80952 WT5  2384 TIP3 H2   HT     0.417000        1.0080           0
   80953 WT5  2385 TIP3 OH2  OT    -0.834000       15.9994           0
   80954 WT5  2385 TIP3 H1   HT     0.417000        1.0080           0
   80955 WT5  2385 TIP3 H2   HT     0.417000        1.0080           0
   80956 WT5  2386 TIP3 OH2  OT    -0.834000       15.9994           0
   80957 WT5  2386 TIP3 H1   HT     0.417000        1.0080           0
   80958 WT5  2386 TIP3 H2   HT     0.417000        1.0080           0
   80959 WT5  2387 TIP3 OH2  OT    -0.834000       15.9994           0
   80960 WT5  2387 TIP3 H1   HT     0.417000        1.0080           0
   80961 WT5  2387 TIP3 H2   HT     0.417000        1.0080           0
   80962 WT5  2388 TIP3 OH2  OT    -0.834000       15.9994           0
   80963 WT5  2388 TIP3 H1   HT     0.417000        1.0080           0
   80964 WT5  2388 TIP3 H2   HT     0.417000        1.0080           0
   80965 WT5  2390 TIP3 OH2  OT    -0.834000       15.9994           0
   80966 WT5  2390 TIP3 H1   HT     0.417000        1.0080           0
   80967 WT5  2390 TIP3 H2   HT     0.417000        1.0080           0
   80968 WT5  2392 TIP3 OH2  OT    -0.834000       15.9994           0
   80969 WT5  2392 TIP3 H1   HT     0.417000        1.0080           0
   80970 WT5  2392 TIP3 H2   HT     0.417000        1.0080           0
   80971 WT5  2393 TIP3 OH2  OT    -0.834000       15.9994           0
   80972 WT5  2393 TIP3 H1   HT     0.417000        1.0080           0
   80973 WT5  2393 TIP3 H2   HT     0.417000        1.0080           0
   80974 WT5  2394 TIP3 OH2  OT    -0.834000       15.9994           0
   80975 WT5  2394 TIP3 H1   HT     0.417000        1.0080           0
   80976 WT5  2394 TIP3 H2   HT     0.417000        1.0080           0
   80977 WT5  2395 TIP3 OH2  OT    -0.834000       15.9994           0
   80978 WT5  2395 TIP3 H1   HT     0.417000        1.0080           0
   80979 WT5  2395 TIP3 H2   HT     0.417000        1.0080           0
   80980 WT5  2397 TIP3 OH2  OT    -0.834000       15.9994           0
   80981 WT5  2397 TIP3 H1   HT     0.417000        1.0080           0
   80982 WT5  2397 TIP3 H2   HT     0.417000        1.0080           0
   80983 WT5  2398 TIP3 OH2  OT    -0.834000       15.9994           0
   80984 WT5  2398 TIP3 H1   HT     0.417000        1.0080           0
   80985 WT5  2398 TIP3 H2   HT     0.417000        1.0080           0
   80986 WT5  2399 TIP3 OH2  OT    -0.834000       15.9994           0
   80987 WT5  2399 TIP3 H1   HT     0.417000        1.0080           0
   80988 WT5  2399 TIP3 H2   HT     0.417000        1.0080           0
   80989 WT5  2400 TIP3 OH2  OT    -0.834000       15.9994           0
   80990 WT5  2400 TIP3 H1   HT     0.417000        1.0080           0
   80991 WT5  2400 TIP3 H2   HT     0.417000        1.0080           0
   80992 WT5  2401 TIP3 OH2  OT    -0.834000       15.9994           0
   80993 WT5  2401 TIP3 H1   HT     0.417000        1.0080           0
   80994 WT5  2401 TIP3 H2   HT     0.417000        1.0080           0
   80995 WT5  2402 TIP3 OH2  OT    -0.834000       15.9994           0
   80996 WT5  2402 TIP3 H1   HT     0.417000        1.0080           0
   80997 WT5  2402 TIP3 H2   HT     0.417000        1.0080           0
   80998 WT5  2403 TIP3 OH2  OT    -0.834000       15.9994           0
   80999 WT5  2403 TIP3 H1   HT     0.417000        1.0080           0
   81000 WT5  2403 TIP3 H2   HT     0.417000        1.0080           0
   81001 WT5  2404 TIP3 OH2  OT    -0.834000       15.9994           0
   81002 WT5  2404 TIP3 H1   HT     0.417000        1.0080           0
   81003 WT5  2404 TIP3 H2   HT     0.417000        1.0080           0
   81004 WT5  2405 TIP3 OH2  OT    -0.834000       15.9994           0
   81005 WT5  2405 TIP3 H1   HT     0.417000        1.0080           0
   81006 WT5  2405 TIP3 H2   HT     0.417000        1.0080           0
   81007 WT5  2406 TIP3 OH2  OT    -0.834000       15.9994           0
   81008 WT5  2406 TIP3 H1   HT     0.417000        1.0080           0
   81009 WT5  2406 TIP3 H2   HT     0.417000        1.0080           0
   81010 WT5  2407 TIP3 OH2  OT    -0.834000       15.9994           0
   81011 WT5  2407 TIP3 H1   HT     0.417000        1.0080           0
   81012 WT5  2407 TIP3 H2   HT     0.417000        1.0080           0
   81013 WT5  2408 TIP3 OH2  OT    -0.834000       15.9994           0
   81014 WT5  2408 TIP3 H1   HT     0.417000        1.0080           0
   81015 WT5  2408 TIP3 H2   HT     0.417000        1.0080           0
   81016 WT5  2409 TIP3 OH2  OT    -0.834000       15.9994           0
   81017 WT5  2409 TIP3 H1   HT     0.417000        1.0080           0
   81018 WT5  2409 TIP3 H2   HT     0.417000        1.0080           0
   81019 WT5  2411 TIP3 OH2  OT    -0.834000       15.9994           0
   81020 WT5  2411 TIP3 H1   HT     0.417000        1.0080           0
   81021 WT5  2411 TIP3 H2   HT     0.417000        1.0080           0
   81022 WT5  2412 TIP3 OH2  OT    -0.834000       15.9994           0
   81023 WT5  2412 TIP3 H1   HT     0.417000        1.0080           0
   81024 WT5  2412 TIP3 H2   HT     0.417000        1.0080           0
   81025 WT5  2415 TIP3 OH2  OT    -0.834000       15.9994           0
   81026 WT5  2415 TIP3 H1   HT     0.417000        1.0080           0
   81027 WT5  2415 TIP3 H2   HT     0.417000        1.0080           0
   81028 WT5  2416 TIP3 OH2  OT    -0.834000       15.9994           0
   81029 WT5  2416 TIP3 H1   HT     0.417000        1.0080           0
   81030 WT5  2416 TIP3 H2   HT     0.417000        1.0080           0
   81031 WT5  2417 TIP3 OH2  OT    -0.834000       15.9994           0
   81032 WT5  2417 TIP3 H1   HT     0.417000        1.0080           0
   81033 WT5  2417 TIP3 H2   HT     0.417000        1.0080           0
   81034 WT5  2418 TIP3 OH2  OT    -0.834000       15.9994           0
   81035 WT5  2418 TIP3 H1   HT     0.417000        1.0080           0
   81036 WT5  2418 TIP3 H2   HT     0.417000        1.0080           0
   81037 WT5  2419 TIP3 OH2  OT    -0.834000       15.9994           0
   81038 WT5  2419 TIP3 H1   HT     0.417000        1.0080           0
   81039 WT5  2419 TIP3 H2   HT     0.417000        1.0080           0
   81040 WT5  2420 TIP3 OH2  OT    -0.834000       15.9994           0
   81041 WT5  2420 TIP3 H1   HT     0.417000        1.0080           0
   81042 WT5  2420 TIP3 H2   HT     0.417000        1.0080           0
   81043 WT5  2421 TIP3 OH2  OT    -0.834000       15.9994           0
   81044 WT5  2421 TIP3 H1   HT     0.417000        1.0080           0
   81045 WT5  2421 TIP3 H2   HT     0.417000        1.0080           0
   81046 WT5  2422 TIP3 OH2  OT    -0.834000       15.9994           0
   81047 WT5  2422 TIP3 H1   HT     0.417000        1.0080           0
   81048 WT5  2422 TIP3 H2   HT     0.417000        1.0080           0
   81049 WT5  2424 TIP3 OH2  OT    -0.834000       15.9994           0
   81050 WT5  2424 TIP3 H1   HT     0.417000        1.0080           0
   81051 WT5  2424 TIP3 H2   HT     0.417000        1.0080           0
   81052 WT5  2425 TIP3 OH2  OT    -0.834000       15.9994           0
   81053 WT5  2425 TIP3 H1   HT     0.417000        1.0080           0
   81054 WT5  2425 TIP3 H2   HT     0.417000        1.0080           0
   81055 WT5  2427 TIP3 OH2  OT    -0.834000       15.9994           0
   81056 WT5  2427 TIP3 H1   HT     0.417000        1.0080           0
   81057 WT5  2427 TIP3 H2   HT     0.417000        1.0080           0
   81058 WT5  2428 TIP3 OH2  OT    -0.834000       15.9994           0
   81059 WT5  2428 TIP3 H1   HT     0.417000        1.0080           0
   81060 WT5  2428 TIP3 H2   HT     0.417000        1.0080           0
   81061 WT5  2429 TIP3 OH2  OT    -0.834000       15.9994           0
   81062 WT5  2429 TIP3 H1   HT     0.417000        1.0080           0
   81063 WT5  2429 TIP3 H2   HT     0.417000        1.0080           0
   81064 WT5  2430 TIP3 OH2  OT    -0.834000       15.9994           0
   81065 WT5  2430 TIP3 H1   HT     0.417000        1.0080           0
   81066 WT5  2430 TIP3 H2   HT     0.417000        1.0080           0
   81067 WT5  2431 TIP3 OH2  OT    -0.834000       15.9994           0
   81068 WT5  2431 TIP3 H1   HT     0.417000        1.0080           0
   81069 WT5  2431 TIP3 H2   HT     0.417000        1.0080           0
   81070 WT5  2432 TIP3 OH2  OT    -0.834000       15.9994           0
   81071 WT5  2432 TIP3 H1   HT     0.417000        1.0080           0
   81072 WT5  2432 TIP3 H2   HT     0.417000        1.0080           0
   81073 WT5  2434 TIP3 OH2  OT    -0.834000       15.9994           0
   81074 WT5  2434 TIP3 H1   HT     0.417000        1.0080           0
   81075 WT5  2434 TIP3 H2   HT     0.417000        1.0080           0
   81076 WT5  2436 TIP3 OH2  OT    -0.834000       15.9994           0
   81077 WT5  2436 TIP3 H1   HT     0.417000        1.0080           0
   81078 WT5  2436 TIP3 H2   HT     0.417000        1.0080           0
   81079 WT5  2437 TIP3 OH2  OT    -0.834000       15.9994           0
   81080 WT5  2437 TIP3 H1   HT     0.417000        1.0080           0
   81081 WT5  2437 TIP3 H2   HT     0.417000        1.0080           0
   81082 WT5  2439 TIP3 OH2  OT    -0.834000       15.9994           0
   81083 WT5  2439 TIP3 H1   HT     0.417000        1.0080           0
   81084 WT5  2439 TIP3 H2   HT     0.417000        1.0080           0
   81085 WT5  2440 TIP3 OH2  OT    -0.834000       15.9994           0
   81086 WT5  2440 TIP3 H1   HT     0.417000        1.0080           0
   81087 WT5  2440 TIP3 H2   HT     0.417000        1.0080           0
   81088 WT5  2441 TIP3 OH2  OT    -0.834000       15.9994           0
   81089 WT5  2441 TIP3 H1   HT     0.417000        1.0080           0
   81090 WT5  2441 TIP3 H2   HT     0.417000        1.0080           0
   81091 WT5  2442 TIP3 OH2  OT    -0.834000       15.9994           0
   81092 WT5  2442 TIP3 H1   HT     0.417000        1.0080           0
   81093 WT5  2442 TIP3 H2   HT     0.417000        1.0080           0
   81094 WT5  2443 TIP3 OH2  OT    -0.834000       15.9994           0
   81095 WT5  2443 TIP3 H1   HT     0.417000        1.0080           0
   81096 WT5  2443 TIP3 H2   HT     0.417000        1.0080           0
   81097 WT5  2444 TIP3 OH2  OT    -0.834000       15.9994           0
   81098 WT5  2444 TIP3 H1   HT     0.417000        1.0080           0
   81099 WT5  2444 TIP3 H2   HT     0.417000        1.0080           0
   81100 WT5  2445 TIP3 OH2  OT    -0.834000       15.9994           0
   81101 WT5  2445 TIP3 H1   HT     0.417000        1.0080           0
   81102 WT5  2445 TIP3 H2   HT     0.417000        1.0080           0
   81103 WT5  2446 TIP3 OH2  OT    -0.834000       15.9994           0
   81104 WT5  2446 TIP3 H1   HT     0.417000        1.0080           0
   81105 WT5  2446 TIP3 H2   HT     0.417000        1.0080           0
   81106 WT5  2447 TIP3 OH2  OT    -0.834000       15.9994           0
   81107 WT5  2447 TIP3 H1   HT     0.417000        1.0080           0
   81108 WT5  2447 TIP3 H2   HT     0.417000        1.0080           0
   81109 WT5  2448 TIP3 OH2  OT    -0.834000       15.9994           0
   81110 WT5  2448 TIP3 H1   HT     0.417000        1.0080           0
   81111 WT5  2448 TIP3 H2   HT     0.417000        1.0080           0
   81112 WT5  2450 TIP3 OH2  OT    -0.834000       15.9994           0
   81113 WT5  2450 TIP3 H1   HT     0.417000        1.0080           0
   81114 WT5  2450 TIP3 H2   HT     0.417000        1.0080           0
   81115 WT5  2452 TIP3 OH2  OT    -0.834000       15.9994           0
   81116 WT5  2452 TIP3 H1   HT     0.417000        1.0080           0
   81117 WT5  2452 TIP3 H2   HT     0.417000        1.0080           0
   81118 WT5  2453 TIP3 OH2  OT    -0.834000       15.9994           0
   81119 WT5  2453 TIP3 H1   HT     0.417000        1.0080           0
   81120 WT5  2453 TIP3 H2   HT     0.417000        1.0080           0
   81121 WT5  2454 TIP3 OH2  OT    -0.834000       15.9994           0
   81122 WT5  2454 TIP3 H1   HT     0.417000        1.0080           0
   81123 WT5  2454 TIP3 H2   HT     0.417000        1.0080           0
   81124 WT5  2455 TIP3 OH2  OT    -0.834000       15.9994           0
   81125 WT5  2455 TIP3 H1   HT     0.417000        1.0080           0
   81126 WT5  2455 TIP3 H2   HT     0.417000        1.0080           0
   81127 WT5  2458 TIP3 OH2  OT    -0.834000       15.9994           0
   81128 WT5  2458 TIP3 H1   HT     0.417000        1.0080           0
   81129 WT5  2458 TIP3 H2   HT     0.417000        1.0080           0
   81130 WT5  2459 TIP3 OH2  OT    -0.834000       15.9994           0
   81131 WT5  2459 TIP3 H1   HT     0.417000        1.0080           0
   81132 WT5  2459 TIP3 H2   HT     0.417000        1.0080           0
   81133 WT5  2460 TIP3 OH2  OT    -0.834000       15.9994           0
   81134 WT5  2460 TIP3 H1   HT     0.417000        1.0080           0
   81135 WT5  2460 TIP3 H2   HT     0.417000        1.0080           0
   81136 WT5  2461 TIP3 OH2  OT    -0.834000       15.9994           0
   81137 WT5  2461 TIP3 H1   HT     0.417000        1.0080           0
   81138 WT5  2461 TIP3 H2   HT     0.417000        1.0080           0
   81139 WT5  2462 TIP3 OH2  OT    -0.834000       15.9994           0
   81140 WT5  2462 TIP3 H1   HT     0.417000        1.0080           0
   81141 WT5  2462 TIP3 H2   HT     0.417000        1.0080           0
   81142 WT5  2463 TIP3 OH2  OT    -0.834000       15.9994           0
   81143 WT5  2463 TIP3 H1   HT     0.417000        1.0080           0
   81144 WT5  2463 TIP3 H2   HT     0.417000        1.0080           0
   81145 WT5  2464 TIP3 OH2  OT    -0.834000       15.9994           0
   81146 WT5  2464 TIP3 H1   HT     0.417000        1.0080           0
   81147 WT5  2464 TIP3 H2   HT     0.417000        1.0080           0
   81148 WT5  2465 TIP3 OH2  OT    -0.834000       15.9994           0
   81149 WT5  2465 TIP3 H1   HT     0.417000        1.0080           0
   81150 WT5  2465 TIP3 H2   HT     0.417000        1.0080           0
   81151 WT5  2466 TIP3 OH2  OT    -0.834000       15.9994           0
   81152 WT5  2466 TIP3 H1   HT     0.417000        1.0080           0
   81153 WT5  2466 TIP3 H2   HT     0.417000        1.0080           0
   81154 WT5  2467 TIP3 OH2  OT    -0.834000       15.9994           0
   81155 WT5  2467 TIP3 H1   HT     0.417000        1.0080           0
   81156 WT5  2467 TIP3 H2   HT     0.417000        1.0080           0
   81157 WT5  2468 TIP3 OH2  OT    -0.834000       15.9994           0
   81158 WT5  2468 TIP3 H1   HT     0.417000        1.0080           0
   81159 WT5  2468 TIP3 H2   HT     0.417000        1.0080           0
   81160 WT5  2469 TIP3 OH2  OT    -0.834000       15.9994           0
   81161 WT5  2469 TIP3 H1   HT     0.417000        1.0080           0
   81162 WT5  2469 TIP3 H2   HT     0.417000        1.0080           0
   81163 WT5  2471 TIP3 OH2  OT    -0.834000       15.9994           0
   81164 WT5  2471 TIP3 H1   HT     0.417000        1.0080           0
   81165 WT5  2471 TIP3 H2   HT     0.417000        1.0080           0
   81166 WT5  2472 TIP3 OH2  OT    -0.834000       15.9994           0
   81167 WT5  2472 TIP3 H1   HT     0.417000        1.0080           0
   81168 WT5  2472 TIP3 H2   HT     0.417000        1.0080           0
   81169 WT5  2473 TIP3 OH2  OT    -0.834000       15.9994           0
   81170 WT5  2473 TIP3 H1   HT     0.417000        1.0080           0
   81171 WT5  2473 TIP3 H2   HT     0.417000        1.0080           0
   81172 WT5  2474 TIP3 OH2  OT    -0.834000       15.9994           0
   81173 WT5  2474 TIP3 H1   HT     0.417000        1.0080           0
   81174 WT5  2474 TIP3 H2   HT     0.417000        1.0080           0
   81175 WT5  2478 TIP3 OH2  OT    -0.834000       15.9994           0
   81176 WT5  2478 TIP3 H1   HT     0.417000        1.0080           0
   81177 WT5  2478 TIP3 H2   HT     0.417000        1.0080           0
   81178 WT5  2479 TIP3 OH2  OT    -0.834000       15.9994           0
   81179 WT5  2479 TIP3 H1   HT     0.417000        1.0080           0
   81180 WT5  2479 TIP3 H2   HT     0.417000        1.0080           0
   81181 WT5  2480 TIP3 OH2  OT    -0.834000       15.9994           0
   81182 WT5  2480 TIP3 H1   HT     0.417000        1.0080           0
   81183 WT5  2480 TIP3 H2   HT     0.417000        1.0080           0
   81184 WT5  2481 TIP3 OH2  OT    -0.834000       15.9994           0
   81185 WT5  2481 TIP3 H1   HT     0.417000        1.0080           0
   81186 WT5  2481 TIP3 H2   HT     0.417000        1.0080           0
   81187 WT5  2482 TIP3 OH2  OT    -0.834000       15.9994           0
   81188 WT5  2482 TIP3 H1   HT     0.417000        1.0080           0
   81189 WT5  2482 TIP3 H2   HT     0.417000        1.0080           0
   81190 WT5  2483 TIP3 OH2  OT    -0.834000       15.9994           0
   81191 WT5  2483 TIP3 H1   HT     0.417000        1.0080           0
   81192 WT5  2483 TIP3 H2   HT     0.417000        1.0080           0
   81193 WT5  2484 TIP3 OH2  OT    -0.834000       15.9994           0
   81194 WT5  2484 TIP3 H1   HT     0.417000        1.0080           0
   81195 WT5  2484 TIP3 H2   HT     0.417000        1.0080           0
   81196 WT5  2485 TIP3 OH2  OT    -0.834000       15.9994           0
   81197 WT5  2485 TIP3 H1   HT     0.417000        1.0080           0
   81198 WT5  2485 TIP3 H2   HT     0.417000        1.0080           0
   81199 WT5  2486 TIP3 OH2  OT    -0.834000       15.9994           0
   81200 WT5  2486 TIP3 H1   HT     0.417000        1.0080           0
   81201 WT5  2486 TIP3 H2   HT     0.417000        1.0080           0
   81202 WT5  2487 TIP3 OH2  OT    -0.834000       15.9994           0
   81203 WT5  2487 TIP3 H1   HT     0.417000        1.0080           0
   81204 WT5  2487 TIP3 H2   HT     0.417000        1.0080           0
   81205 WT5  2488 TIP3 OH2  OT    -0.834000       15.9994           0
   81206 WT5  2488 TIP3 H1   HT     0.417000        1.0080           0
   81207 WT5  2488 TIP3 H2   HT     0.417000        1.0080           0
   81208 WT5  2489 TIP3 OH2  OT    -0.834000       15.9994           0
   81209 WT5  2489 TIP3 H1   HT     0.417000        1.0080           0
   81210 WT5  2489 TIP3 H2   HT     0.417000        1.0080           0
   81211 WT5  2491 TIP3 OH2  OT    -0.834000       15.9994           0
   81212 WT5  2491 TIP3 H1   HT     0.417000        1.0080           0
   81213 WT5  2491 TIP3 H2   HT     0.417000        1.0080           0
   81214 WT5  2492 TIP3 OH2  OT    -0.834000       15.9994           0
   81215 WT5  2492 TIP3 H1   HT     0.417000        1.0080           0
   81216 WT5  2492 TIP3 H2   HT     0.417000        1.0080           0
   81217 WT5  2494 TIP3 OH2  OT    -0.834000       15.9994           0
   81218 WT5  2494 TIP3 H1   HT     0.417000        1.0080           0
   81219 WT5  2494 TIP3 H2   HT     0.417000        1.0080           0
   81220 WT5  2495 TIP3 OH2  OT    -0.834000       15.9994           0
   81221 WT5  2495 TIP3 H1   HT     0.417000        1.0080           0
   81222 WT5  2495 TIP3 H2   HT     0.417000        1.0080           0
   81223 WT5  2497 TIP3 OH2  OT    -0.834000       15.9994           0
   81224 WT5  2497 TIP3 H1   HT     0.417000        1.0080           0
   81225 WT5  2497 TIP3 H2   HT     0.417000        1.0080           0
   81226 WT5  2498 TIP3 OH2  OT    -0.834000       15.9994           0
   81227 WT5  2498 TIP3 H1   HT     0.417000        1.0080           0
   81228 WT5  2498 TIP3 H2   HT     0.417000        1.0080           0
   81229 WT5  2500 TIP3 OH2  OT    -0.834000       15.9994           0
   81230 WT5  2500 TIP3 H1   HT     0.417000        1.0080           0
   81231 WT5  2500 TIP3 H2   HT     0.417000        1.0080           0
   81232 WT5  2501 TIP3 OH2  OT    -0.834000       15.9994           0
   81233 WT5  2501 TIP3 H1   HT     0.417000        1.0080           0
   81234 WT5  2501 TIP3 H2   HT     0.417000        1.0080           0
   81235 WT5  2502 TIP3 OH2  OT    -0.834000       15.9994           0
   81236 WT5  2502 TIP3 H1   HT     0.417000        1.0080           0
   81237 WT5  2502 TIP3 H2   HT     0.417000        1.0080           0
   81238 WT5  2503 TIP3 OH2  OT    -0.834000       15.9994           0
   81239 WT5  2503 TIP3 H1   HT     0.417000        1.0080           0
   81240 WT5  2503 TIP3 H2   HT     0.417000        1.0080           0
   81241 WT5  2504 TIP3 OH2  OT    -0.834000       15.9994           0
   81242 WT5  2504 TIP3 H1   HT     0.417000        1.0080           0
   81243 WT5  2504 TIP3 H2   HT     0.417000        1.0080           0
   81244 WT5  2505 TIP3 OH2  OT    -0.834000       15.9994           0
   81245 WT5  2505 TIP3 H1   HT     0.417000        1.0080           0
   81246 WT5  2505 TIP3 H2   HT     0.417000        1.0080           0
   81247 WT5  2506 TIP3 OH2  OT    -0.834000       15.9994           0
   81248 WT5  2506 TIP3 H1   HT     0.417000        1.0080           0
   81249 WT5  2506 TIP3 H2   HT     0.417000        1.0080           0
   81250 WT5  2507 TIP3 OH2  OT    -0.834000       15.9994           0
   81251 WT5  2507 TIP3 H1   HT     0.417000        1.0080           0
   81252 WT5  2507 TIP3 H2   HT     0.417000        1.0080           0
   81253 WT5  2508 TIP3 OH2  OT    -0.834000       15.9994           0
   81254 WT5  2508 TIP3 H1   HT     0.417000        1.0080           0
   81255 WT5  2508 TIP3 H2   HT     0.417000        1.0080           0
   81256 WT5  2509 TIP3 OH2  OT    -0.834000       15.9994           0
   81257 WT5  2509 TIP3 H1   HT     0.417000        1.0080           0
   81258 WT5  2509 TIP3 H2   HT     0.417000        1.0080           0
   81259 WT5  2510 TIP3 OH2  OT    -0.834000       15.9994           0
   81260 WT5  2510 TIP3 H1   HT     0.417000        1.0080           0
   81261 WT5  2510 TIP3 H2   HT     0.417000        1.0080           0
   81262 WT5  2511 TIP3 OH2  OT    -0.834000       15.9994           0
   81263 WT5  2511 TIP3 H1   HT     0.417000        1.0080           0
   81264 WT5  2511 TIP3 H2   HT     0.417000        1.0080           0
   81265 WT5  2512 TIP3 OH2  OT    -0.834000       15.9994           0
   81266 WT5  2512 TIP3 H1   HT     0.417000        1.0080           0
   81267 WT5  2512 TIP3 H2   HT     0.417000        1.0080           0
   81268 WT5  2513 TIP3 OH2  OT    -0.834000       15.9994           0
   81269 WT5  2513 TIP3 H1   HT     0.417000        1.0080           0
   81270 WT5  2513 TIP3 H2   HT     0.417000        1.0080           0
   81271 WT5  2514 TIP3 OH2  OT    -0.834000       15.9994           0
   81272 WT5  2514 TIP3 H1   HT     0.417000        1.0080           0
   81273 WT5  2514 TIP3 H2   HT     0.417000        1.0080           0
   81274 WT5  2515 TIP3 OH2  OT    -0.834000       15.9994           0
   81275 WT5  2515 TIP3 H1   HT     0.417000        1.0080           0
   81276 WT5  2515 TIP3 H2   HT     0.417000        1.0080           0
   81277 WT5  2516 TIP3 OH2  OT    -0.834000       15.9994           0
   81278 WT5  2516 TIP3 H1   HT     0.417000        1.0080           0
   81279 WT5  2516 TIP3 H2   HT     0.417000        1.0080           0
   81280 WT5  2518 TIP3 OH2  OT    -0.834000       15.9994           0
   81281 WT5  2518 TIP3 H1   HT     0.417000        1.0080           0
   81282 WT5  2518 TIP3 H2   HT     0.417000        1.0080           0
   81283 WT5  2519 TIP3 OH2  OT    -0.834000       15.9994           0
   81284 WT5  2519 TIP3 H1   HT     0.417000        1.0080           0
   81285 WT5  2519 TIP3 H2   HT     0.417000        1.0080           0
   81286 WT5  2520 TIP3 OH2  OT    -0.834000       15.9994           0
   81287 WT5  2520 TIP3 H1   HT     0.417000        1.0080           0
   81288 WT5  2520 TIP3 H2   HT     0.417000        1.0080           0
   81289 WT5  2521 TIP3 OH2  OT    -0.834000       15.9994           0
   81290 WT5  2521 TIP3 H1   HT     0.417000        1.0080           0
   81291 WT5  2521 TIP3 H2   HT     0.417000        1.0080           0
   81292 WT5  2522 TIP3 OH2  OT    -0.834000       15.9994           0
   81293 WT5  2522 TIP3 H1   HT     0.417000        1.0080           0
   81294 WT5  2522 TIP3 H2   HT     0.417000        1.0080           0
   81295 WT5  2523 TIP3 OH2  OT    -0.834000       15.9994           0
   81296 WT5  2523 TIP3 H1   HT     0.417000        1.0080           0
   81297 WT5  2523 TIP3 H2   HT     0.417000        1.0080           0
   81298 WT5  2524 TIP3 OH2  OT    -0.834000       15.9994           0
   81299 WT5  2524 TIP3 H1   HT     0.417000        1.0080           0
   81300 WT5  2524 TIP3 H2   HT     0.417000        1.0080           0
   81301 WT5  2525 TIP3 OH2  OT    -0.834000       15.9994           0
   81302 WT5  2525 TIP3 H1   HT     0.417000        1.0080           0
   81303 WT5  2525 TIP3 H2   HT     0.417000        1.0080           0
   81304 WT5  2526 TIP3 OH2  OT    -0.834000       15.9994           0
   81305 WT5  2526 TIP3 H1   HT     0.417000        1.0080           0
   81306 WT5  2526 TIP3 H2   HT     0.417000        1.0080           0
   81307 WT5  2527 TIP3 OH2  OT    -0.834000       15.9994           0
   81308 WT5  2527 TIP3 H1   HT     0.417000        1.0080           0
   81309 WT5  2527 TIP3 H2   HT     0.417000        1.0080           0
   81310 WT5  2528 TIP3 OH2  OT    -0.834000       15.9994           0
   81311 WT5  2528 TIP3 H1   HT     0.417000        1.0080           0
   81312 WT5  2528 TIP3 H2   HT     0.417000        1.0080           0
   81313 WT5  2529 TIP3 OH2  OT    -0.834000       15.9994           0
   81314 WT5  2529 TIP3 H1   HT     0.417000        1.0080           0
   81315 WT5  2529 TIP3 H2   HT     0.417000        1.0080           0
   81316 WT5  2531 TIP3 OH2  OT    -0.834000       15.9994           0
   81317 WT5  2531 TIP3 H1   HT     0.417000        1.0080           0
   81318 WT5  2531 TIP3 H2   HT     0.417000        1.0080           0
   81319 WT5  2532 TIP3 OH2  OT    -0.834000       15.9994           0
   81320 WT5  2532 TIP3 H1   HT     0.417000        1.0080           0
   81321 WT5  2532 TIP3 H2   HT     0.417000        1.0080           0
   81322 WT5  2533 TIP3 OH2  OT    -0.834000       15.9994           0
   81323 WT5  2533 TIP3 H1   HT     0.417000        1.0080           0
   81324 WT5  2533 TIP3 H2   HT     0.417000        1.0080           0
   81325 WT5  2534 TIP3 OH2  OT    -0.834000       15.9994           0
   81326 WT5  2534 TIP3 H1   HT     0.417000        1.0080           0
   81327 WT5  2534 TIP3 H2   HT     0.417000        1.0080           0
   81328 WT5  2537 TIP3 OH2  OT    -0.834000       15.9994           0
   81329 WT5  2537 TIP3 H1   HT     0.417000        1.0080           0
   81330 WT5  2537 TIP3 H2   HT     0.417000        1.0080           0
   81331 WT5  2538 TIP3 OH2  OT    -0.834000       15.9994           0
   81332 WT5  2538 TIP3 H1   HT     0.417000        1.0080           0
   81333 WT5  2538 TIP3 H2   HT     0.417000        1.0080           0
   81334 WT5  2539 TIP3 OH2  OT    -0.834000       15.9994           0
   81335 WT5  2539 TIP3 H1   HT     0.417000        1.0080           0
   81336 WT5  2539 TIP3 H2   HT     0.417000        1.0080           0
   81337 WT5  2540 TIP3 OH2  OT    -0.834000       15.9994           0
   81338 WT5  2540 TIP3 H1   HT     0.417000        1.0080           0
   81339 WT5  2540 TIP3 H2   HT     0.417000        1.0080           0
   81340 WT5  2541 TIP3 OH2  OT    -0.834000       15.9994           0
   81341 WT5  2541 TIP3 H1   HT     0.417000        1.0080           0
   81342 WT5  2541 TIP3 H2   HT     0.417000        1.0080           0
   81343 WT5  2542 TIP3 OH2  OT    -0.834000       15.9994           0
   81344 WT5  2542 TIP3 H1   HT     0.417000        1.0080           0
   81345 WT5  2542 TIP3 H2   HT     0.417000        1.0080           0
   81346 WT5  2543 TIP3 OH2  OT    -0.834000       15.9994           0
   81347 WT5  2543 TIP3 H1   HT     0.417000        1.0080           0
   81348 WT5  2543 TIP3 H2   HT     0.417000        1.0080           0
   81349 WT5  2544 TIP3 OH2  OT    -0.834000       15.9994           0
   81350 WT5  2544 TIP3 H1   HT     0.417000        1.0080           0
   81351 WT5  2544 TIP3 H2   HT     0.417000        1.0080           0
   81352 WT5  2545 TIP3 OH2  OT    -0.834000       15.9994           0
   81353 WT5  2545 TIP3 H1   HT     0.417000        1.0080           0
   81354 WT5  2545 TIP3 H2   HT     0.417000        1.0080           0
   81355 WT5  2546 TIP3 OH2  OT    -0.834000       15.9994           0
   81356 WT5  2546 TIP3 H1   HT     0.417000        1.0080           0
   81357 WT5  2546 TIP3 H2   HT     0.417000        1.0080           0
   81358 WT5  2547 TIP3 OH2  OT    -0.834000       15.9994           0
   81359 WT5  2547 TIP3 H1   HT     0.417000        1.0080           0
   81360 WT5  2547 TIP3 H2   HT     0.417000        1.0080           0
   81361 WT5  2548 TIP3 OH2  OT    -0.834000       15.9994           0
   81362 WT5  2548 TIP3 H1   HT     0.417000        1.0080           0
   81363 WT5  2548 TIP3 H2   HT     0.417000        1.0080           0
   81364 WT5  2549 TIP3 OH2  OT    -0.834000       15.9994           0
   81365 WT5  2549 TIP3 H1   HT     0.417000        1.0080           0
   81366 WT5  2549 TIP3 H2   HT     0.417000        1.0080           0
   81367 WT5  2550 TIP3 OH2  OT    -0.834000       15.9994           0
   81368 WT5  2550 TIP3 H1   HT     0.417000        1.0080           0
   81369 WT5  2550 TIP3 H2   HT     0.417000        1.0080           0
   81370 WT5  2551 TIP3 OH2  OT    -0.834000       15.9994           0
   81371 WT5  2551 TIP3 H1   HT     0.417000        1.0080           0
   81372 WT5  2551 TIP3 H2   HT     0.417000        1.0080           0
   81373 WT5  2552 TIP3 OH2  OT    -0.834000       15.9994           0
   81374 WT5  2552 TIP3 H1   HT     0.417000        1.0080           0
   81375 WT5  2552 TIP3 H2   HT     0.417000        1.0080           0
   81376 WT5  2553 TIP3 OH2  OT    -0.834000       15.9994           0
   81377 WT5  2553 TIP3 H1   HT     0.417000        1.0080           0
   81378 WT5  2553 TIP3 H2   HT     0.417000        1.0080           0
   81379 WT5  2554 TIP3 OH2  OT    -0.834000       15.9994           0
   81380 WT5  2554 TIP3 H1   HT     0.417000        1.0080           0
   81381 WT5  2554 TIP3 H2   HT     0.417000        1.0080           0
   81382 WT5  2555 TIP3 OH2  OT    -0.834000       15.9994           0
   81383 WT5  2555 TIP3 H1   HT     0.417000        1.0080           0
   81384 WT5  2555 TIP3 H2   HT     0.417000        1.0080           0
   81385 WT5  2556 TIP3 OH2  OT    -0.834000       15.9994           0
   81386 WT5  2556 TIP3 H1   HT     0.417000        1.0080           0
   81387 WT5  2556 TIP3 H2   HT     0.417000        1.0080           0
   81388 WT5  2557 TIP3 OH2  OT    -0.834000       15.9994           0
   81389 WT5  2557 TIP3 H1   HT     0.417000        1.0080           0
   81390 WT5  2557 TIP3 H2   HT     0.417000        1.0080           0
   81391 WT5  2558 TIP3 OH2  OT    -0.834000       15.9994           0
   81392 WT5  2558 TIP3 H1   HT     0.417000        1.0080           0
   81393 WT5  2558 TIP3 H2   HT     0.417000        1.0080           0
   81394 WT5  2561 TIP3 OH2  OT    -0.834000       15.9994           0
   81395 WT5  2561 TIP3 H1   HT     0.417000        1.0080           0
   81396 WT5  2561 TIP3 H2   HT     0.417000        1.0080           0
   81397 WT5  2563 TIP3 OH2  OT    -0.834000       15.9994           0
   81398 WT5  2563 TIP3 H1   HT     0.417000        1.0080           0
   81399 WT5  2563 TIP3 H2   HT     0.417000        1.0080           0
   81400 WT5  2564 TIP3 OH2  OT    -0.834000       15.9994           0
   81401 WT5  2564 TIP3 H1   HT     0.417000        1.0080           0
   81402 WT5  2564 TIP3 H2   HT     0.417000        1.0080           0
   81403 WT5  2565 TIP3 OH2  OT    -0.834000       15.9994           0
   81404 WT5  2565 TIP3 H1   HT     0.417000        1.0080           0
   81405 WT5  2565 TIP3 H2   HT     0.417000        1.0080           0
   81406 WT5  2567 TIP3 OH2  OT    -0.834000       15.9994           0
   81407 WT5  2567 TIP3 H1   HT     0.417000        1.0080           0
   81408 WT5  2567 TIP3 H2   HT     0.417000        1.0080           0
   81409 WT5  2568 TIP3 OH2  OT    -0.834000       15.9994           0
   81410 WT5  2568 TIP3 H1   HT     0.417000        1.0080           0
   81411 WT5  2568 TIP3 H2   HT     0.417000        1.0080           0
   81412 WT5  2569 TIP3 OH2  OT    -0.834000       15.9994           0
   81413 WT5  2569 TIP3 H1   HT     0.417000        1.0080           0
   81414 WT5  2569 TIP3 H2   HT     0.417000        1.0080           0
   81415 WT5  2570 TIP3 OH2  OT    -0.834000       15.9994           0
   81416 WT5  2570 TIP3 H1   HT     0.417000        1.0080           0
   81417 WT5  2570 TIP3 H2   HT     0.417000        1.0080           0
   81418 WT5  2571 TIP3 OH2  OT    -0.834000       15.9994           0
   81419 WT5  2571 TIP3 H1   HT     0.417000        1.0080           0
   81420 WT5  2571 TIP3 H2   HT     0.417000        1.0080           0
   81421 WT5  2572 TIP3 OH2  OT    -0.834000       15.9994           0
   81422 WT5  2572 TIP3 H1   HT     0.417000        1.0080           0
   81423 WT5  2572 TIP3 H2   HT     0.417000        1.0080           0
   81424 WT5  2573 TIP3 OH2  OT    -0.834000       15.9994           0
   81425 WT5  2573 TIP3 H1   HT     0.417000        1.0080           0
   81426 WT5  2573 TIP3 H2   HT     0.417000        1.0080           0
   81427 WT5  2574 TIP3 OH2  OT    -0.834000       15.9994           0
   81428 WT5  2574 TIP3 H1   HT     0.417000        1.0080           0
   81429 WT5  2574 TIP3 H2   HT     0.417000        1.0080           0
   81430 WT5  2575 TIP3 OH2  OT    -0.834000       15.9994           0
   81431 WT5  2575 TIP3 H1   HT     0.417000        1.0080           0
   81432 WT5  2575 TIP3 H2   HT     0.417000        1.0080           0
   81433 WT5  2576 TIP3 OH2  OT    -0.834000       15.9994           0
   81434 WT5  2576 TIP3 H1   HT     0.417000        1.0080           0
   81435 WT5  2576 TIP3 H2   HT     0.417000        1.0080           0
   81436 WT5  2577 TIP3 OH2  OT    -0.834000       15.9994           0
   81437 WT5  2577 TIP3 H1   HT     0.417000        1.0080           0
   81438 WT5  2577 TIP3 H2   HT     0.417000        1.0080           0
   81439 WT5  2578 TIP3 OH2  OT    -0.834000       15.9994           0
   81440 WT5  2578 TIP3 H1   HT     0.417000        1.0080           0
   81441 WT5  2578 TIP3 H2   HT     0.417000        1.0080           0
   81442 WT5  2579 TIP3 OH2  OT    -0.834000       15.9994           0
   81443 WT5  2579 TIP3 H1   HT     0.417000        1.0080           0
   81444 WT5  2579 TIP3 H2   HT     0.417000        1.0080           0
   81445 WT5  2580 TIP3 OH2  OT    -0.834000       15.9994           0
   81446 WT5  2580 TIP3 H1   HT     0.417000        1.0080           0
   81447 WT5  2580 TIP3 H2   HT     0.417000        1.0080           0
   81448 WT5  2581 TIP3 OH2  OT    -0.834000       15.9994           0
   81449 WT5  2581 TIP3 H1   HT     0.417000        1.0080           0
   81450 WT5  2581 TIP3 H2   HT     0.417000        1.0080           0
   81451 WT5  2582 TIP3 OH2  OT    -0.834000       15.9994           0
   81452 WT5  2582 TIP3 H1   HT     0.417000        1.0080           0
   81453 WT5  2582 TIP3 H2   HT     0.417000        1.0080           0
   81454 WT5  2584 TIP3 OH2  OT    -0.834000       15.9994           0
   81455 WT5  2584 TIP3 H1   HT     0.417000        1.0080           0
   81456 WT5  2584 TIP3 H2   HT     0.417000        1.0080           0
   81457 WT5  2585 TIP3 OH2  OT    -0.834000       15.9994           0
   81458 WT5  2585 TIP3 H1   HT     0.417000        1.0080           0
   81459 WT5  2585 TIP3 H2   HT     0.417000        1.0080           0
   81460 WT5  2587 TIP3 OH2  OT    -0.834000       15.9994           0
   81461 WT5  2587 TIP3 H1   HT     0.417000        1.0080           0
   81462 WT5  2587 TIP3 H2   HT     0.417000        1.0080           0
   81463 WT5  2588 TIP3 OH2  OT    -0.834000       15.9994           0
   81464 WT5  2588 TIP3 H1   HT     0.417000        1.0080           0
   81465 WT5  2588 TIP3 H2   HT     0.417000        1.0080           0
   81466 WT5  2589 TIP3 OH2  OT    -0.834000       15.9994           0
   81467 WT5  2589 TIP3 H1   HT     0.417000        1.0080           0
   81468 WT5  2589 TIP3 H2   HT     0.417000        1.0080           0
   81469 WT5  2590 TIP3 OH2  OT    -0.834000       15.9994           0
   81470 WT5  2590 TIP3 H1   HT     0.417000        1.0080           0
   81471 WT5  2590 TIP3 H2   HT     0.417000        1.0080           0
   81472 WT5  2591 TIP3 OH2  OT    -0.834000       15.9994           0
   81473 WT5  2591 TIP3 H1   HT     0.417000        1.0080           0
   81474 WT5  2591 TIP3 H2   HT     0.417000        1.0080           0
   81475 WT5  2592 TIP3 OH2  OT    -0.834000       15.9994           0
   81476 WT5  2592 TIP3 H1   HT     0.417000        1.0080           0
   81477 WT5  2592 TIP3 H2   HT     0.417000        1.0080           0
   81478 WT5  2593 TIP3 OH2  OT    -0.834000       15.9994           0
   81479 WT5  2593 TIP3 H1   HT     0.417000        1.0080           0
   81480 WT5  2593 TIP3 H2   HT     0.417000        1.0080           0
   81481 WT5  2594 TIP3 OH2  OT    -0.834000       15.9994           0
   81482 WT5  2594 TIP3 H1   HT     0.417000        1.0080           0
   81483 WT5  2594 TIP3 H2   HT     0.417000        1.0080           0
   81484 WT5  2595 TIP3 OH2  OT    -0.834000       15.9994           0
   81485 WT5  2595 TIP3 H1   HT     0.417000        1.0080           0
   81486 WT5  2595 TIP3 H2   HT     0.417000        1.0080           0
   81487 WT5  2596 TIP3 OH2  OT    -0.834000       15.9994           0
   81488 WT5  2596 TIP3 H1   HT     0.417000        1.0080           0
   81489 WT5  2596 TIP3 H2   HT     0.417000        1.0080           0
   81490 WT5  2598 TIP3 OH2  OT    -0.834000       15.9994           0
   81491 WT5  2598 TIP3 H1   HT     0.417000        1.0080           0
   81492 WT5  2598 TIP3 H2   HT     0.417000        1.0080           0
   81493 WT5  2599 TIP3 OH2  OT    -0.834000       15.9994           0
   81494 WT5  2599 TIP3 H1   HT     0.417000        1.0080           0
   81495 WT5  2599 TIP3 H2   HT     0.417000        1.0080           0
   81496 WT5  2602 TIP3 OH2  OT    -0.834000       15.9994           0
   81497 WT5  2602 TIP3 H1   HT     0.417000        1.0080           0
   81498 WT5  2602 TIP3 H2   HT     0.417000        1.0080           0
   81499 WT5  2603 TIP3 OH2  OT    -0.834000       15.9994           0
   81500 WT5  2603 TIP3 H1   HT     0.417000        1.0080           0
   81501 WT5  2603 TIP3 H2   HT     0.417000        1.0080           0
   81502 WT5  2605 TIP3 OH2  OT    -0.834000       15.9994           0
   81503 WT5  2605 TIP3 H1   HT     0.417000        1.0080           0
   81504 WT5  2605 TIP3 H2   HT     0.417000        1.0080           0
   81505 WT5  2606 TIP3 OH2  OT    -0.834000       15.9994           0
   81506 WT5  2606 TIP3 H1   HT     0.417000        1.0080           0
   81507 WT5  2606 TIP3 H2   HT     0.417000        1.0080           0
   81508 WT5  2607 TIP3 OH2  OT    -0.834000       15.9994           0
   81509 WT5  2607 TIP3 H1   HT     0.417000        1.0080           0
   81510 WT5  2607 TIP3 H2   HT     0.417000        1.0080           0
   81511 WT5  2608 TIP3 OH2  OT    -0.834000       15.9994           0
   81512 WT5  2608 TIP3 H1   HT     0.417000        1.0080           0
   81513 WT5  2608 TIP3 H2   HT     0.417000        1.0080           0
   81514 WT5  2609 TIP3 OH2  OT    -0.834000       15.9994           0
   81515 WT5  2609 TIP3 H1   HT     0.417000        1.0080           0
   81516 WT5  2609 TIP3 H2   HT     0.417000        1.0080           0
   81517 WT5  2610 TIP3 OH2  OT    -0.834000       15.9994           0
   81518 WT5  2610 TIP3 H1   HT     0.417000        1.0080           0
   81519 WT5  2610 TIP3 H2   HT     0.417000        1.0080           0
   81520 WT5  2611 TIP3 OH2  OT    -0.834000       15.9994           0
   81521 WT5  2611 TIP3 H1   HT     0.417000        1.0080           0
   81522 WT5  2611 TIP3 H2   HT     0.417000        1.0080           0
   81523 WT5  2612 TIP3 OH2  OT    -0.834000       15.9994           0
   81524 WT5  2612 TIP3 H1   HT     0.417000        1.0080           0
   81525 WT5  2612 TIP3 H2   HT     0.417000        1.0080           0
   81526 WT5  2613 TIP3 OH2  OT    -0.834000       15.9994           0
   81527 WT5  2613 TIP3 H1   HT     0.417000        1.0080           0
   81528 WT5  2613 TIP3 H2   HT     0.417000        1.0080           0
   81529 WT5  2614 TIP3 OH2  OT    -0.834000       15.9994           0
   81530 WT5  2614 TIP3 H1   HT     0.417000        1.0080           0
   81531 WT5  2614 TIP3 H2   HT     0.417000        1.0080           0
   81532 WT5  2615 TIP3 OH2  OT    -0.834000       15.9994           0
   81533 WT5  2615 TIP3 H1   HT     0.417000        1.0080           0
   81534 WT5  2615 TIP3 H2   HT     0.417000        1.0080           0
   81535 WT5  2616 TIP3 OH2  OT    -0.834000       15.9994           0
   81536 WT5  2616 TIP3 H1   HT     0.417000        1.0080           0
   81537 WT5  2616 TIP3 H2   HT     0.417000        1.0080           0
   81538 WT5  2617 TIP3 OH2  OT    -0.834000       15.9994           0
   81539 WT5  2617 TIP3 H1   HT     0.417000        1.0080           0
   81540 WT5  2617 TIP3 H2   HT     0.417000        1.0080           0
   81541 WT5  2618 TIP3 OH2  OT    -0.834000       15.9994           0
   81542 WT5  2618 TIP3 H1   HT     0.417000        1.0080           0
   81543 WT5  2618 TIP3 H2   HT     0.417000        1.0080           0
   81544 WT5  2619 TIP3 OH2  OT    -0.834000       15.9994           0
   81545 WT5  2619 TIP3 H1   HT     0.417000        1.0080           0
   81546 WT5  2619 TIP3 H2   HT     0.417000        1.0080           0
   81547 WT5  2620 TIP3 OH2  OT    -0.834000       15.9994           0
   81548 WT5  2620 TIP3 H1   HT     0.417000        1.0080           0
   81549 WT5  2620 TIP3 H2   HT     0.417000        1.0080           0
   81550 WT5  2622 TIP3 OH2  OT    -0.834000       15.9994           0
   81551 WT5  2622 TIP3 H1   HT     0.417000        1.0080           0
   81552 WT5  2622 TIP3 H2   HT     0.417000        1.0080           0
   81553 WT5  2623 TIP3 OH2  OT    -0.834000       15.9994           0
   81554 WT5  2623 TIP3 H1   HT     0.417000        1.0080           0
   81555 WT5  2623 TIP3 H2   HT     0.417000        1.0080           0
   81556 WT5  2626 TIP3 OH2  OT    -0.834000       15.9994           0
   81557 WT5  2626 TIP3 H1   HT     0.417000        1.0080           0
   81558 WT5  2626 TIP3 H2   HT     0.417000        1.0080           0
   81559 WT5  2627 TIP3 OH2  OT    -0.834000       15.9994           0
   81560 WT5  2627 TIP3 H1   HT     0.417000        1.0080           0
   81561 WT5  2627 TIP3 H2   HT     0.417000        1.0080           0
   81562 WT5  2628 TIP3 OH2  OT    -0.834000       15.9994           0
   81563 WT5  2628 TIP3 H1   HT     0.417000        1.0080           0
   81564 WT5  2628 TIP3 H2   HT     0.417000        1.0080           0
   81565 WT5  2629 TIP3 OH2  OT    -0.834000       15.9994           0
   81566 WT5  2629 TIP3 H1   HT     0.417000        1.0080           0
   81567 WT5  2629 TIP3 H2   HT     0.417000        1.0080           0
   81568 WT5  2631 TIP3 OH2  OT    -0.834000       15.9994           0
   81569 WT5  2631 TIP3 H1   HT     0.417000        1.0080           0
   81570 WT5  2631 TIP3 H2   HT     0.417000        1.0080           0
   81571 WT5  2632 TIP3 OH2  OT    -0.834000       15.9994           0
   81572 WT5  2632 TIP3 H1   HT     0.417000        1.0080           0
   81573 WT5  2632 TIP3 H2   HT     0.417000        1.0080           0
   81574 WT5  2633 TIP3 OH2  OT    -0.834000       15.9994           0
   81575 WT5  2633 TIP3 H1   HT     0.417000        1.0080           0
   81576 WT5  2633 TIP3 H2   HT     0.417000        1.0080           0
   81577 WT5  2634 TIP3 OH2  OT    -0.834000       15.9994           0
   81578 WT5  2634 TIP3 H1   HT     0.417000        1.0080           0
   81579 WT5  2634 TIP3 H2   HT     0.417000        1.0080           0
   81580 WT5  2635 TIP3 OH2  OT    -0.834000       15.9994           0
   81581 WT5  2635 TIP3 H1   HT     0.417000        1.0080           0
   81582 WT5  2635 TIP3 H2   HT     0.417000        1.0080           0
   81583 WT5  2636 TIP3 OH2  OT    -0.834000       15.9994           0
   81584 WT5  2636 TIP3 H1   HT     0.417000        1.0080           0
   81585 WT5  2636 TIP3 H2   HT     0.417000        1.0080           0
   81586 WT5  2637 TIP3 OH2  OT    -0.834000       15.9994           0
   81587 WT5  2637 TIP3 H1   HT     0.417000        1.0080           0
   81588 WT5  2637 TIP3 H2   HT     0.417000        1.0080           0
   81589 WT5  2638 TIP3 OH2  OT    -0.834000       15.9994           0
   81590 WT5  2638 TIP3 H1   HT     0.417000        1.0080           0
   81591 WT5  2638 TIP3 H2   HT     0.417000        1.0080           0
   81592 WT5  2640 TIP3 OH2  OT    -0.834000       15.9994           0
   81593 WT5  2640 TIP3 H1   HT     0.417000        1.0080           0
   81594 WT5  2640 TIP3 H2   HT     0.417000        1.0080           0
   81595 WT5  2644 TIP3 OH2  OT    -0.834000       15.9994           0
   81596 WT5  2644 TIP3 H1   HT     0.417000        1.0080           0
   81597 WT5  2644 TIP3 H2   HT     0.417000        1.0080           0
   81598 WT5  2645 TIP3 OH2  OT    -0.834000       15.9994           0
   81599 WT5  2645 TIP3 H1   HT     0.417000        1.0080           0
   81600 WT5  2645 TIP3 H2   HT     0.417000        1.0080           0
   81601 WT5  2646 TIP3 OH2  OT    -0.834000       15.9994           0
   81602 WT5  2646 TIP3 H1   HT     0.417000        1.0080           0
   81603 WT5  2646 TIP3 H2   HT     0.417000        1.0080           0
   81604 WT5  2647 TIP3 OH2  OT    -0.834000       15.9994           0
   81605 WT5  2647 TIP3 H1   HT     0.417000        1.0080           0
   81606 WT5  2647 TIP3 H2   HT     0.417000        1.0080           0
   81607 WT5  2648 TIP3 OH2  OT    -0.834000       15.9994           0
   81608 WT5  2648 TIP3 H1   HT     0.417000        1.0080           0
   81609 WT5  2648 TIP3 H2   HT     0.417000        1.0080           0
   81610 WT5  2649 TIP3 OH2  OT    -0.834000       15.9994           0
   81611 WT5  2649 TIP3 H1   HT     0.417000        1.0080           0
   81612 WT5  2649 TIP3 H2   HT     0.417000        1.0080           0
   81613 WT5  2650 TIP3 OH2  OT    -0.834000       15.9994           0
   81614 WT5  2650 TIP3 H1   HT     0.417000        1.0080           0
   81615 WT5  2650 TIP3 H2   HT     0.417000        1.0080           0
   81616 WT5  2651 TIP3 OH2  OT    -0.834000       15.9994           0
   81617 WT5  2651 TIP3 H1   HT     0.417000        1.0080           0
   81618 WT5  2651 TIP3 H2   HT     0.417000        1.0080           0
   81619 WT5  2653 TIP3 OH2  OT    -0.834000       15.9994           0
   81620 WT5  2653 TIP3 H1   HT     0.417000        1.0080           0
   81621 WT5  2653 TIP3 H2   HT     0.417000        1.0080           0
   81622 WT5  2654 TIP3 OH2  OT    -0.834000       15.9994           0
   81623 WT5  2654 TIP3 H1   HT     0.417000        1.0080           0
   81624 WT5  2654 TIP3 H2   HT     0.417000        1.0080           0
   81625 WT5  2655 TIP3 OH2  OT    -0.834000       15.9994           0
   81626 WT5  2655 TIP3 H1   HT     0.417000        1.0080           0
   81627 WT5  2655 TIP3 H2   HT     0.417000        1.0080           0
   81628 WT5  2656 TIP3 OH2  OT    -0.834000       15.9994           0
   81629 WT5  2656 TIP3 H1   HT     0.417000        1.0080           0
   81630 WT5  2656 TIP3 H2   HT     0.417000        1.0080           0
   81631 WT5  2657 TIP3 OH2  OT    -0.834000       15.9994           0
   81632 WT5  2657 TIP3 H1   HT     0.417000        1.0080           0
   81633 WT5  2657 TIP3 H2   HT     0.417000        1.0080           0
   81634 WT5  2658 TIP3 OH2  OT    -0.834000       15.9994           0
   81635 WT5  2658 TIP3 H1   HT     0.417000        1.0080           0
   81636 WT5  2658 TIP3 H2   HT     0.417000        1.0080           0
   81637 WT5  2659 TIP3 OH2  OT    -0.834000       15.9994           0
   81638 WT5  2659 TIP3 H1   HT     0.417000        1.0080           0
   81639 WT5  2659 TIP3 H2   HT     0.417000        1.0080           0
   81640 WT5  2662 TIP3 OH2  OT    -0.834000       15.9994           0
   81641 WT5  2662 TIP3 H1   HT     0.417000        1.0080           0
   81642 WT5  2662 TIP3 H2   HT     0.417000        1.0080           0
   81643 WT5  2663 TIP3 OH2  OT    -0.834000       15.9994           0
   81644 WT5  2663 TIP3 H1   HT     0.417000        1.0080           0
   81645 WT5  2663 TIP3 H2   HT     0.417000        1.0080           0
   81646 WT5  2665 TIP3 OH2  OT    -0.834000       15.9994           0
   81647 WT5  2665 TIP3 H1   HT     0.417000        1.0080           0
   81648 WT5  2665 TIP3 H2   HT     0.417000        1.0080           0
   81649 WT5  2667 TIP3 OH2  OT    -0.834000       15.9994           0
   81650 WT5  2667 TIP3 H1   HT     0.417000        1.0080           0
   81651 WT5  2667 TIP3 H2   HT     0.417000        1.0080           0
   81652 WT5  2668 TIP3 OH2  OT    -0.834000       15.9994           0
   81653 WT5  2668 TIP3 H1   HT     0.417000        1.0080           0
   81654 WT5  2668 TIP3 H2   HT     0.417000        1.0080           0
   81655 WT5  2669 TIP3 OH2  OT    -0.834000       15.9994           0
   81656 WT5  2669 TIP3 H1   HT     0.417000        1.0080           0
   81657 WT5  2669 TIP3 H2   HT     0.417000        1.0080           0
   81658 WT5  2670 TIP3 OH2  OT    -0.834000       15.9994           0
   81659 WT5  2670 TIP3 H1   HT     0.417000        1.0080           0
   81660 WT5  2670 TIP3 H2   HT     0.417000        1.0080           0
   81661 WT5  2672 TIP3 OH2  OT    -0.834000       15.9994           0
   81662 WT5  2672 TIP3 H1   HT     0.417000        1.0080           0
   81663 WT5  2672 TIP3 H2   HT     0.417000        1.0080           0
   81664 WT5  2673 TIP3 OH2  OT    -0.834000       15.9994           0
   81665 WT5  2673 TIP3 H1   HT     0.417000        1.0080           0
   81666 WT5  2673 TIP3 H2   HT     0.417000        1.0080           0
   81667 WT5  2674 TIP3 OH2  OT    -0.834000       15.9994           0
   81668 WT5  2674 TIP3 H1   HT     0.417000        1.0080           0
   81669 WT5  2674 TIP3 H2   HT     0.417000        1.0080           0
   81670 WT5  2675 TIP3 OH2  OT    -0.834000       15.9994           0
   81671 WT5  2675 TIP3 H1   HT     0.417000        1.0080           0
   81672 WT5  2675 TIP3 H2   HT     0.417000        1.0080           0
   81673 WT5  2676 TIP3 OH2  OT    -0.834000       15.9994           0
   81674 WT5  2676 TIP3 H1   HT     0.417000        1.0080           0
   81675 WT5  2676 TIP3 H2   HT     0.417000        1.0080           0
   81676 WT5  2677 TIP3 OH2  OT    -0.834000       15.9994           0
   81677 WT5  2677 TIP3 H1   HT     0.417000        1.0080           0
   81678 WT5  2677 TIP3 H2   HT     0.417000        1.0080           0
   81679 WT5  2678 TIP3 OH2  OT    -0.834000       15.9994           0
   81680 WT5  2678 TIP3 H1   HT     0.417000        1.0080           0
   81681 WT5  2678 TIP3 H2   HT     0.417000        1.0080           0
   81682 WT5  2679 TIP3 OH2  OT    -0.834000       15.9994           0
   81683 WT5  2679 TIP3 H1   HT     0.417000        1.0080           0
   81684 WT5  2679 TIP3 H2   HT     0.417000        1.0080           0
   81685 WT5  2680 TIP3 OH2  OT    -0.834000       15.9994           0
   81686 WT5  2680 TIP3 H1   HT     0.417000        1.0080           0
   81687 WT5  2680 TIP3 H2   HT     0.417000        1.0080           0
   81688 WT5  2681 TIP3 OH2  OT    -0.834000       15.9994           0
   81689 WT5  2681 TIP3 H1   HT     0.417000        1.0080           0
   81690 WT5  2681 TIP3 H2   HT     0.417000        1.0080           0
   81691 WT5  2682 TIP3 OH2  OT    -0.834000       15.9994           0
   81692 WT5  2682 TIP3 H1   HT     0.417000        1.0080           0
   81693 WT5  2682 TIP3 H2   HT     0.417000        1.0080           0
   81694 WT5  2683 TIP3 OH2  OT    -0.834000       15.9994           0
   81695 WT5  2683 TIP3 H1   HT     0.417000        1.0080           0
   81696 WT5  2683 TIP3 H2   HT     0.417000        1.0080           0
   81697 WT5  2684 TIP3 OH2  OT    -0.834000       15.9994           0
   81698 WT5  2684 TIP3 H1   HT     0.417000        1.0080           0
   81699 WT5  2684 TIP3 H2   HT     0.417000        1.0080           0
   81700 WT5  2686 TIP3 OH2  OT    -0.834000       15.9994           0
   81701 WT5  2686 TIP3 H1   HT     0.417000        1.0080           0
   81702 WT5  2686 TIP3 H2   HT     0.417000        1.0080           0
   81703 WT5  2688 TIP3 OH2  OT    -0.834000       15.9994           0
   81704 WT5  2688 TIP3 H1   HT     0.417000        1.0080           0
   81705 WT5  2688 TIP3 H2   HT     0.417000        1.0080           0
   81706 WT5  2689 TIP3 OH2  OT    -0.834000       15.9994           0
   81707 WT5  2689 TIP3 H1   HT     0.417000        1.0080           0
   81708 WT5  2689 TIP3 H2   HT     0.417000        1.0080           0
   81709 WT5  2690 TIP3 OH2  OT    -0.834000       15.9994           0
   81710 WT5  2690 TIP3 H1   HT     0.417000        1.0080           0
   81711 WT5  2690 TIP3 H2   HT     0.417000        1.0080           0
   81712 WT5  2691 TIP3 OH2  OT    -0.834000       15.9994           0
   81713 WT5  2691 TIP3 H1   HT     0.417000        1.0080           0
   81714 WT5  2691 TIP3 H2   HT     0.417000        1.0080           0
   81715 WT5  2692 TIP3 OH2  OT    -0.834000       15.9994           0
   81716 WT5  2692 TIP3 H1   HT     0.417000        1.0080           0
   81717 WT5  2692 TIP3 H2   HT     0.417000        1.0080           0
   81718 WT5  2693 TIP3 OH2  OT    -0.834000       15.9994           0
   81719 WT5  2693 TIP3 H1   HT     0.417000        1.0080           0
   81720 WT5  2693 TIP3 H2   HT     0.417000        1.0080           0
   81721 WT5  2694 TIP3 OH2  OT    -0.834000       15.9994           0
   81722 WT5  2694 TIP3 H1   HT     0.417000        1.0080           0
   81723 WT5  2694 TIP3 H2   HT     0.417000        1.0080           0
   81724 WT5  2695 TIP3 OH2  OT    -0.834000       15.9994           0
   81725 WT5  2695 TIP3 H1   HT     0.417000        1.0080           0
   81726 WT5  2695 TIP3 H2   HT     0.417000        1.0080           0
   81727 WT5  2696 TIP3 OH2  OT    -0.834000       15.9994           0
   81728 WT5  2696 TIP3 H1   HT     0.417000        1.0080           0
   81729 WT5  2696 TIP3 H2   HT     0.417000        1.0080           0
   81730 WT5  2697 TIP3 OH2  OT    -0.834000       15.9994           0
   81731 WT5  2697 TIP3 H1   HT     0.417000        1.0080           0
   81732 WT5  2697 TIP3 H2   HT     0.417000        1.0080           0
   81733 WT5  2698 TIP3 OH2  OT    -0.834000       15.9994           0
   81734 WT5  2698 TIP3 H1   HT     0.417000        1.0080           0
   81735 WT5  2698 TIP3 H2   HT     0.417000        1.0080           0
   81736 WT5  2699 TIP3 OH2  OT    -0.834000       15.9994           0
   81737 WT5  2699 TIP3 H1   HT     0.417000        1.0080           0
   81738 WT5  2699 TIP3 H2   HT     0.417000        1.0080           0
   81739 WT5  2700 TIP3 OH2  OT    -0.834000       15.9994           0
   81740 WT5  2700 TIP3 H1   HT     0.417000        1.0080           0
   81741 WT5  2700 TIP3 H2   HT     0.417000        1.0080           0
   81742 WT5  2701 TIP3 OH2  OT    -0.834000       15.9994           0
   81743 WT5  2701 TIP3 H1   HT     0.417000        1.0080           0
   81744 WT5  2701 TIP3 H2   HT     0.417000        1.0080           0
   81745 WT5  2702 TIP3 OH2  OT    -0.834000       15.9994           0
   81746 WT5  2702 TIP3 H1   HT     0.417000        1.0080           0
   81747 WT5  2702 TIP3 H2   HT     0.417000        1.0080           0
   81748 WT5  2703 TIP3 OH2  OT    -0.834000       15.9994           0
   81749 WT5  2703 TIP3 H1   HT     0.417000        1.0080           0
   81750 WT5  2703 TIP3 H2   HT     0.417000        1.0080           0
   81751 WT5  2704 TIP3 OH2  OT    -0.834000       15.9994           0
   81752 WT5  2704 TIP3 H1   HT     0.417000        1.0080           0
   81753 WT5  2704 TIP3 H2   HT     0.417000        1.0080           0
   81754 WT5  2705 TIP3 OH2  OT    -0.834000       15.9994           0
   81755 WT5  2705 TIP3 H1   HT     0.417000        1.0080           0
   81756 WT5  2705 TIP3 H2   HT     0.417000        1.0080           0
   81757 WT5  2707 TIP3 OH2  OT    -0.834000       15.9994           0
   81758 WT5  2707 TIP3 H1   HT     0.417000        1.0080           0
   81759 WT5  2707 TIP3 H2   HT     0.417000        1.0080           0
   81760 WT5  2708 TIP3 OH2  OT    -0.834000       15.9994           0
   81761 WT5  2708 TIP3 H1   HT     0.417000        1.0080           0
   81762 WT5  2708 TIP3 H2   HT     0.417000        1.0080           0
   81763 WT5  2709 TIP3 OH2  OT    -0.834000       15.9994           0
   81764 WT5  2709 TIP3 H1   HT     0.417000        1.0080           0
   81765 WT5  2709 TIP3 H2   HT     0.417000        1.0080           0
   81766 WT5  2710 TIP3 OH2  OT    -0.834000       15.9994           0
   81767 WT5  2710 TIP3 H1   HT     0.417000        1.0080           0
   81768 WT5  2710 TIP3 H2   HT     0.417000        1.0080           0
   81769 WT5  2711 TIP3 OH2  OT    -0.834000       15.9994           0
   81770 WT5  2711 TIP3 H1   HT     0.417000        1.0080           0
   81771 WT5  2711 TIP3 H2   HT     0.417000        1.0080           0
   81772 WT5  2712 TIP3 OH2  OT    -0.834000       15.9994           0
   81773 WT5  2712 TIP3 H1   HT     0.417000        1.0080           0
   81774 WT5  2712 TIP3 H2   HT     0.417000        1.0080           0
   81775 WT5  2713 TIP3 OH2  OT    -0.834000       15.9994           0
   81776 WT5  2713 TIP3 H1   HT     0.417000        1.0080           0
   81777 WT5  2713 TIP3 H2   HT     0.417000        1.0080           0
   81778 WT5  2714 TIP3 OH2  OT    -0.834000       15.9994           0
   81779 WT5  2714 TIP3 H1   HT     0.417000        1.0080           0
   81780 WT5  2714 TIP3 H2   HT     0.417000        1.0080           0
   81781 WT5  2715 TIP3 OH2  OT    -0.834000       15.9994           0
   81782 WT5  2715 TIP3 H1   HT     0.417000        1.0080           0
   81783 WT5  2715 TIP3 H2   HT     0.417000        1.0080           0
   81784 WT5  2716 TIP3 OH2  OT    -0.834000       15.9994           0
   81785 WT5  2716 TIP3 H1   HT     0.417000        1.0080           0
   81786 WT5  2716 TIP3 H2   HT     0.417000        1.0080           0
   81787 WT5  2717 TIP3 OH2  OT    -0.834000       15.9994           0
   81788 WT5  2717 TIP3 H1   HT     0.417000        1.0080           0
   81789 WT5  2717 TIP3 H2   HT     0.417000        1.0080           0
   81790 WT5  2718 TIP3 OH2  OT    -0.834000       15.9994           0
   81791 WT5  2718 TIP3 H1   HT     0.417000        1.0080           0
   81792 WT5  2718 TIP3 H2   HT     0.417000        1.0080           0
   81793 WT5  2719 TIP3 OH2  OT    -0.834000       15.9994           0
   81794 WT5  2719 TIP3 H1   HT     0.417000        1.0080           0
   81795 WT5  2719 TIP3 H2   HT     0.417000        1.0080           0
   81796 WT5  2720 TIP3 OH2  OT    -0.834000       15.9994           0
   81797 WT5  2720 TIP3 H1   HT     0.417000        1.0080           0
   81798 WT5  2720 TIP3 H2   HT     0.417000        1.0080           0
   81799 WT5  2721 TIP3 OH2  OT    -0.834000       15.9994           0
   81800 WT5  2721 TIP3 H1   HT     0.417000        1.0080           0
   81801 WT5  2721 TIP3 H2   HT     0.417000        1.0080           0
   81802 WT5  2722 TIP3 OH2  OT    -0.834000       15.9994           0
   81803 WT5  2722 TIP3 H1   HT     0.417000        1.0080           0
   81804 WT5  2722 TIP3 H2   HT     0.417000        1.0080           0
   81805 WT5  2723 TIP3 OH2  OT    -0.834000       15.9994           0
   81806 WT5  2723 TIP3 H1   HT     0.417000        1.0080           0
   81807 WT5  2723 TIP3 H2   HT     0.417000        1.0080           0
   81808 WT5  2724 TIP3 OH2  OT    -0.834000       15.9994           0
   81809 WT5  2724 TIP3 H1   HT     0.417000        1.0080           0
   81810 WT5  2724 TIP3 H2   HT     0.417000        1.0080           0
   81811 WT5  2728 TIP3 OH2  OT    -0.834000       15.9994           0
   81812 WT5  2728 TIP3 H1   HT     0.417000        1.0080           0
   81813 WT5  2728 TIP3 H2   HT     0.417000        1.0080           0
   81814 WT5  2730 TIP3 OH2  OT    -0.834000       15.9994           0
   81815 WT5  2730 TIP3 H1   HT     0.417000        1.0080           0
   81816 WT5  2730 TIP3 H2   HT     0.417000        1.0080           0
   81817 WT5  2731 TIP3 OH2  OT    -0.834000       15.9994           0
   81818 WT5  2731 TIP3 H1   HT     0.417000        1.0080           0
   81819 WT5  2731 TIP3 H2   HT     0.417000        1.0080           0
   81820 WT5  2732 TIP3 OH2  OT    -0.834000       15.9994           0
   81821 WT5  2732 TIP3 H1   HT     0.417000        1.0080           0
   81822 WT5  2732 TIP3 H2   HT     0.417000        1.0080           0
   81823 WT5  2733 TIP3 OH2  OT    -0.834000       15.9994           0
   81824 WT5  2733 TIP3 H1   HT     0.417000        1.0080           0
   81825 WT5  2733 TIP3 H2   HT     0.417000        1.0080           0
   81826 WT5  2734 TIP3 OH2  OT    -0.834000       15.9994           0
   81827 WT5  2734 TIP3 H1   HT     0.417000        1.0080           0
   81828 WT5  2734 TIP3 H2   HT     0.417000        1.0080           0
   81829 WT5  2735 TIP3 OH2  OT    -0.834000       15.9994           0
   81830 WT5  2735 TIP3 H1   HT     0.417000        1.0080           0
   81831 WT5  2735 TIP3 H2   HT     0.417000        1.0080           0
   81832 WT5  2736 TIP3 OH2  OT    -0.834000       15.9994           0
   81833 WT5  2736 TIP3 H1   HT     0.417000        1.0080           0
   81834 WT5  2736 TIP3 H2   HT     0.417000        1.0080           0
   81835 WT5  2737 TIP3 OH2  OT    -0.834000       15.9994           0
   81836 WT5  2737 TIP3 H1   HT     0.417000        1.0080           0
   81837 WT5  2737 TIP3 H2   HT     0.417000        1.0080           0
   81838 WT5  2738 TIP3 OH2  OT    -0.834000       15.9994           0
   81839 WT5  2738 TIP3 H1   HT     0.417000        1.0080           0
   81840 WT5  2738 TIP3 H2   HT     0.417000        1.0080           0
   81841 WT5  2739 TIP3 OH2  OT    -0.834000       15.9994           0
   81842 WT5  2739 TIP3 H1   HT     0.417000        1.0080           0
   81843 WT5  2739 TIP3 H2   HT     0.417000        1.0080           0
   81844 WT5  2740 TIP3 OH2  OT    -0.834000       15.9994           0
   81845 WT5  2740 TIP3 H1   HT     0.417000        1.0080           0
   81846 WT5  2740 TIP3 H2   HT     0.417000        1.0080           0
   81847 WT5  2741 TIP3 OH2  OT    -0.834000       15.9994           0
   81848 WT5  2741 TIP3 H1   HT     0.417000        1.0080           0
   81849 WT5  2741 TIP3 H2   HT     0.417000        1.0080           0
   81850 WT5  2743 TIP3 OH2  OT    -0.834000       15.9994           0
   81851 WT5  2743 TIP3 H1   HT     0.417000        1.0080           0
   81852 WT5  2743 TIP3 H2   HT     0.417000        1.0080           0
   81853 WT5  2744 TIP3 OH2  OT    -0.834000       15.9994           0
   81854 WT5  2744 TIP3 H1   HT     0.417000        1.0080           0
   81855 WT5  2744 TIP3 H2   HT     0.417000        1.0080           0
   81856 WT5  2746 TIP3 OH2  OT    -0.834000       15.9994           0
   81857 WT5  2746 TIP3 H1   HT     0.417000        1.0080           0
   81858 WT5  2746 TIP3 H2   HT     0.417000        1.0080           0
   81859 WT5  2749 TIP3 OH2  OT    -0.834000       15.9994           0
   81860 WT5  2749 TIP3 H1   HT     0.417000        1.0080           0
   81861 WT5  2749 TIP3 H2   HT     0.417000        1.0080           0
   81862 WT5  2750 TIP3 OH2  OT    -0.834000       15.9994           0
   81863 WT5  2750 TIP3 H1   HT     0.417000        1.0080           0
   81864 WT5  2750 TIP3 H2   HT     0.417000        1.0080           0
   81865 WT5  2752 TIP3 OH2  OT    -0.834000       15.9994           0
   81866 WT5  2752 TIP3 H1   HT     0.417000        1.0080           0
   81867 WT5  2752 TIP3 H2   HT     0.417000        1.0080           0
   81868 WT5  2753 TIP3 OH2  OT    -0.834000       15.9994           0
   81869 WT5  2753 TIP3 H1   HT     0.417000        1.0080           0
   81870 WT5  2753 TIP3 H2   HT     0.417000        1.0080           0
   81871 WT5  2754 TIP3 OH2  OT    -0.834000       15.9994           0
   81872 WT5  2754 TIP3 H1   HT     0.417000        1.0080           0
   81873 WT5  2754 TIP3 H2   HT     0.417000        1.0080           0
   81874 WT5  2755 TIP3 OH2  OT    -0.834000       15.9994           0
   81875 WT5  2755 TIP3 H1   HT     0.417000        1.0080           0
   81876 WT5  2755 TIP3 H2   HT     0.417000        1.0080           0
   81877 WT5  2756 TIP3 OH2  OT    -0.834000       15.9994           0
   81878 WT5  2756 TIP3 H1   HT     0.417000        1.0080           0
   81879 WT5  2756 TIP3 H2   HT     0.417000        1.0080           0
   81880 WT5  2757 TIP3 OH2  OT    -0.834000       15.9994           0
   81881 WT5  2757 TIP3 H1   HT     0.417000        1.0080           0
   81882 WT5  2757 TIP3 H2   HT     0.417000        1.0080           0
   81883 WT5  2758 TIP3 OH2  OT    -0.834000       15.9994           0
   81884 WT5  2758 TIP3 H1   HT     0.417000        1.0080           0
   81885 WT5  2758 TIP3 H2   HT     0.417000        1.0080           0
   81886 WT5  2759 TIP3 OH2  OT    -0.834000       15.9994           0
   81887 WT5  2759 TIP3 H1   HT     0.417000        1.0080           0
   81888 WT5  2759 TIP3 H2   HT     0.417000        1.0080           0
   81889 WT5  2760 TIP3 OH2  OT    -0.834000       15.9994           0
   81890 WT5  2760 TIP3 H1   HT     0.417000        1.0080           0
   81891 WT5  2760 TIP3 H2   HT     0.417000        1.0080           0
   81892 WT5  2761 TIP3 OH2  OT    -0.834000       15.9994           0
   81893 WT5  2761 TIP3 H1   HT     0.417000        1.0080           0
   81894 WT5  2761 TIP3 H2   HT     0.417000        1.0080           0
   81895 WT5  2762 TIP3 OH2  OT    -0.834000       15.9994           0
   81896 WT5  2762 TIP3 H1   HT     0.417000        1.0080           0
   81897 WT5  2762 TIP3 H2   HT     0.417000        1.0080           0
   81898 WT5  2765 TIP3 OH2  OT    -0.834000       15.9994           0
   81899 WT5  2765 TIP3 H1   HT     0.417000        1.0080           0
   81900 WT5  2765 TIP3 H2   HT     0.417000        1.0080           0
   81901 WT5  2766 TIP3 OH2  OT    -0.834000       15.9994           0
   81902 WT5  2766 TIP3 H1   HT     0.417000        1.0080           0
   81903 WT5  2766 TIP3 H2   HT     0.417000        1.0080           0
   81904 WT5  2767 TIP3 OH2  OT    -0.834000       15.9994           0
   81905 WT5  2767 TIP3 H1   HT     0.417000        1.0080           0
   81906 WT5  2767 TIP3 H2   HT     0.417000        1.0080           0
   81907 WT5  2768 TIP3 OH2  OT    -0.834000       15.9994           0
   81908 WT5  2768 TIP3 H1   HT     0.417000        1.0080           0
   81909 WT5  2768 TIP3 H2   HT     0.417000        1.0080           0
   81910 WT5  2769 TIP3 OH2  OT    -0.834000       15.9994           0
   81911 WT5  2769 TIP3 H1   HT     0.417000        1.0080           0
   81912 WT5  2769 TIP3 H2   HT     0.417000        1.0080           0
   81913 WT5  2771 TIP3 OH2  OT    -0.834000       15.9994           0
   81914 WT5  2771 TIP3 H1   HT     0.417000        1.0080           0
   81915 WT5  2771 TIP3 H2   HT     0.417000        1.0080           0
   81916 WT5  2772 TIP3 OH2  OT    -0.834000       15.9994           0
   81917 WT5  2772 TIP3 H1   HT     0.417000        1.0080           0
   81918 WT5  2772 TIP3 H2   HT     0.417000        1.0080           0
   81919 WT5  2774 TIP3 OH2  OT    -0.834000       15.9994           0
   81920 WT5  2774 TIP3 H1   HT     0.417000        1.0080           0
   81921 WT5  2774 TIP3 H2   HT     0.417000        1.0080           0
   81922 WT5  2775 TIP3 OH2  OT    -0.834000       15.9994           0
   81923 WT5  2775 TIP3 H1   HT     0.417000        1.0080           0
   81924 WT5  2775 TIP3 H2   HT     0.417000        1.0080           0
   81925 WT5  2776 TIP3 OH2  OT    -0.834000       15.9994           0
   81926 WT5  2776 TIP3 H1   HT     0.417000        1.0080           0
   81927 WT5  2776 TIP3 H2   HT     0.417000        1.0080           0
   81928 WT5  2777 TIP3 OH2  OT    -0.834000       15.9994           0
   81929 WT5  2777 TIP3 H1   HT     0.417000        1.0080           0
   81930 WT5  2777 TIP3 H2   HT     0.417000        1.0080           0
   81931 WT5  2778 TIP3 OH2  OT    -0.834000       15.9994           0
   81932 WT5  2778 TIP3 H1   HT     0.417000        1.0080           0
   81933 WT5  2778 TIP3 H2   HT     0.417000        1.0080           0
   81934 WT5  2779 TIP3 OH2  OT    -0.834000       15.9994           0
   81935 WT5  2779 TIP3 H1   HT     0.417000        1.0080           0
   81936 WT5  2779 TIP3 H2   HT     0.417000        1.0080           0
   81937 WT5  2780 TIP3 OH2  OT    -0.834000       15.9994           0
   81938 WT5  2780 TIP3 H1   HT     0.417000        1.0080           0
   81939 WT5  2780 TIP3 H2   HT     0.417000        1.0080           0
   81940 WT5  2781 TIP3 OH2  OT    -0.834000       15.9994           0
   81941 WT5  2781 TIP3 H1   HT     0.417000        1.0080           0
   81942 WT5  2781 TIP3 H2   HT     0.417000        1.0080           0
   81943 WT5  2782 TIP3 OH2  OT    -0.834000       15.9994           0
   81944 WT5  2782 TIP3 H1   HT     0.417000        1.0080           0
   81945 WT5  2782 TIP3 H2   HT     0.417000        1.0080           0
   81946 WT5  2783 TIP3 OH2  OT    -0.834000       15.9994           0
   81947 WT5  2783 TIP3 H1   HT     0.417000        1.0080           0
   81948 WT5  2783 TIP3 H2   HT     0.417000        1.0080           0
   81949 WT5  2784 TIP3 OH2  OT    -0.834000       15.9994           0
   81950 WT5  2784 TIP3 H1   HT     0.417000        1.0080           0
   81951 WT5  2784 TIP3 H2   HT     0.417000        1.0080           0
   81952 WT5  2785 TIP3 OH2  OT    -0.834000       15.9994           0
   81953 WT5  2785 TIP3 H1   HT     0.417000        1.0080           0
   81954 WT5  2785 TIP3 H2   HT     0.417000        1.0080           0
   81955 WT5  2786 TIP3 OH2  OT    -0.834000       15.9994           0
   81956 WT5  2786 TIP3 H1   HT     0.417000        1.0080           0
   81957 WT5  2786 TIP3 H2   HT     0.417000        1.0080           0
   81958 WT5  2787 TIP3 OH2  OT    -0.834000       15.9994           0
   81959 WT5  2787 TIP3 H1   HT     0.417000        1.0080           0
   81960 WT5  2787 TIP3 H2   HT     0.417000        1.0080           0
   81961 WT5  2790 TIP3 OH2  OT    -0.834000       15.9994           0
   81962 WT5  2790 TIP3 H1   HT     0.417000        1.0080           0
   81963 WT5  2790 TIP3 H2   HT     0.417000        1.0080           0
   81964 WT5  2794 TIP3 OH2  OT    -0.834000       15.9994           0
   81965 WT5  2794 TIP3 H1   HT     0.417000        1.0080           0
   81966 WT5  2794 TIP3 H2   HT     0.417000        1.0080           0
   81967 WT5  2795 TIP3 OH2  OT    -0.834000       15.9994           0
   81968 WT5  2795 TIP3 H1   HT     0.417000        1.0080           0
   81969 WT5  2795 TIP3 H2   HT     0.417000        1.0080           0
   81970 WT5  2796 TIP3 OH2  OT    -0.834000       15.9994           0
   81971 WT5  2796 TIP3 H1   HT     0.417000        1.0080           0
   81972 WT5  2796 TIP3 H2   HT     0.417000        1.0080           0
   81973 WT5  2797 TIP3 OH2  OT    -0.834000       15.9994           0
   81974 WT5  2797 TIP3 H1   HT     0.417000        1.0080           0
   81975 WT5  2797 TIP3 H2   HT     0.417000        1.0080           0
   81976 WT5  2798 TIP3 OH2  OT    -0.834000       15.9994           0
   81977 WT5  2798 TIP3 H1   HT     0.417000        1.0080           0
   81978 WT5  2798 TIP3 H2   HT     0.417000        1.0080           0
   81979 WT5  2799 TIP3 OH2  OT    -0.834000       15.9994           0
   81980 WT5  2799 TIP3 H1   HT     0.417000        1.0080           0
   81981 WT5  2799 TIP3 H2   HT     0.417000        1.0080           0
   81982 WT5  2800 TIP3 OH2  OT    -0.834000       15.9994           0
   81983 WT5  2800 TIP3 H1   HT     0.417000        1.0080           0
   81984 WT5  2800 TIP3 H2   HT     0.417000        1.0080           0
   81985 WT5  2801 TIP3 OH2  OT    -0.834000       15.9994           0
   81986 WT5  2801 TIP3 H1   HT     0.417000        1.0080           0
   81987 WT5  2801 TIP3 H2   HT     0.417000        1.0080           0
   81988 WT5  2802 TIP3 OH2  OT    -0.834000       15.9994           0
   81989 WT5  2802 TIP3 H1   HT     0.417000        1.0080           0
   81990 WT5  2802 TIP3 H2   HT     0.417000        1.0080           0
   81991 WT5  2803 TIP3 OH2  OT    -0.834000       15.9994           0
   81992 WT5  2803 TIP3 H1   HT     0.417000        1.0080           0
   81993 WT5  2803 TIP3 H2   HT     0.417000        1.0080           0
   81994 WT5  2804 TIP3 OH2  OT    -0.834000       15.9994           0
   81995 WT5  2804 TIP3 H1   HT     0.417000        1.0080           0
   81996 WT5  2804 TIP3 H2   HT     0.417000        1.0080           0
   81997 WT5  2805 TIP3 OH2  OT    -0.834000       15.9994           0
   81998 WT5  2805 TIP3 H1   HT     0.417000        1.0080           0
   81999 WT5  2805 TIP3 H2   HT     0.417000        1.0080           0
   82000 WT5  2806 TIP3 OH2  OT    -0.834000       15.9994           0
   82001 WT5  2806 TIP3 H1   HT     0.417000        1.0080           0
   82002 WT5  2806 TIP3 H2   HT     0.417000        1.0080           0
   82003 WT5  2807 TIP3 OH2  OT    -0.834000       15.9994           0
   82004 WT5  2807 TIP3 H1   HT     0.417000        1.0080           0
   82005 WT5  2807 TIP3 H2   HT     0.417000        1.0080           0
   82006 WT5  2808 TIP3 OH2  OT    -0.834000       15.9994           0
   82007 WT5  2808 TIP3 H1   HT     0.417000        1.0080           0
   82008 WT5  2808 TIP3 H2   HT     0.417000        1.0080           0
   82009 WT5  2809 TIP3 OH2  OT    -0.834000       15.9994           0
   82010 WT5  2809 TIP3 H1   HT     0.417000        1.0080           0
   82011 WT5  2809 TIP3 H2   HT     0.417000        1.0080           0
   82012 WT5  2810 TIP3 OH2  OT    -0.834000       15.9994           0
   82013 WT5  2810 TIP3 H1   HT     0.417000        1.0080           0
   82014 WT5  2810 TIP3 H2   HT     0.417000        1.0080           0
   82015 WT5  2811 TIP3 OH2  OT    -0.834000       15.9994           0
   82016 WT5  2811 TIP3 H1   HT     0.417000        1.0080           0
   82017 WT5  2811 TIP3 H2   HT     0.417000        1.0080           0
   82018 WT5  2815 TIP3 OH2  OT    -0.834000       15.9994           0
   82019 WT5  2815 TIP3 H1   HT     0.417000        1.0080           0
   82020 WT5  2815 TIP3 H2   HT     0.417000        1.0080           0
   82021 WT5  2816 TIP3 OH2  OT    -0.834000       15.9994           0
   82022 WT5  2816 TIP3 H1   HT     0.417000        1.0080           0
   82023 WT5  2816 TIP3 H2   HT     0.417000        1.0080           0
   82024 WT5  2817 TIP3 OH2  OT    -0.834000       15.9994           0
   82025 WT5  2817 TIP3 H1   HT     0.417000        1.0080           0
   82026 WT5  2817 TIP3 H2   HT     0.417000        1.0080           0
   82027 WT5  2818 TIP3 OH2  OT    -0.834000       15.9994           0
   82028 WT5  2818 TIP3 H1   HT     0.417000        1.0080           0
   82029 WT5  2818 TIP3 H2   HT     0.417000        1.0080           0
   82030 WT5  2819 TIP3 OH2  OT    -0.834000       15.9994           0
   82031 WT5  2819 TIP3 H1   HT     0.417000        1.0080           0
   82032 WT5  2819 TIP3 H2   HT     0.417000        1.0080           0
   82033 WT5  2820 TIP3 OH2  OT    -0.834000       15.9994           0
   82034 WT5  2820 TIP3 H1   HT     0.417000        1.0080           0
   82035 WT5  2820 TIP3 H2   HT     0.417000        1.0080           0
   82036 WT5  2821 TIP3 OH2  OT    -0.834000       15.9994           0
   82037 WT5  2821 TIP3 H1   HT     0.417000        1.0080           0
   82038 WT5  2821 TIP3 H2   HT     0.417000        1.0080           0
   82039 WT5  2822 TIP3 OH2  OT    -0.834000       15.9994           0
   82040 WT5  2822 TIP3 H1   HT     0.417000        1.0080           0
   82041 WT5  2822 TIP3 H2   HT     0.417000        1.0080           0
   82042 WT5  2823 TIP3 OH2  OT    -0.834000       15.9994           0
   82043 WT5  2823 TIP3 H1   HT     0.417000        1.0080           0
   82044 WT5  2823 TIP3 H2   HT     0.417000        1.0080           0
   82045 WT5  2824 TIP3 OH2  OT    -0.834000       15.9994           0
   82046 WT5  2824 TIP3 H1   HT     0.417000        1.0080           0
   82047 WT5  2824 TIP3 H2   HT     0.417000        1.0080           0
   82048 WT5  2825 TIP3 OH2  OT    -0.834000       15.9994           0
   82049 WT5  2825 TIP3 H1   HT     0.417000        1.0080           0
   82050 WT5  2825 TIP3 H2   HT     0.417000        1.0080           0
   82051 WT5  2826 TIP3 OH2  OT    -0.834000       15.9994           0
   82052 WT5  2826 TIP3 H1   HT     0.417000        1.0080           0
   82053 WT5  2826 TIP3 H2   HT     0.417000        1.0080           0
   82054 WT5  2827 TIP3 OH2  OT    -0.834000       15.9994           0
   82055 WT5  2827 TIP3 H1   HT     0.417000        1.0080           0
   82056 WT5  2827 TIP3 H2   HT     0.417000        1.0080           0
   82057 WT5  2829 TIP3 OH2  OT    -0.834000       15.9994           0
   82058 WT5  2829 TIP3 H1   HT     0.417000        1.0080           0
   82059 WT5  2829 TIP3 H2   HT     0.417000        1.0080           0
   82060 WT5  2830 TIP3 OH2  OT    -0.834000       15.9994           0
   82061 WT5  2830 TIP3 H1   HT     0.417000        1.0080           0
   82062 WT5  2830 TIP3 H2   HT     0.417000        1.0080           0
   82063 WT5  2831 TIP3 OH2  OT    -0.834000       15.9994           0
   82064 WT5  2831 TIP3 H1   HT     0.417000        1.0080           0
   82065 WT5  2831 TIP3 H2   HT     0.417000        1.0080           0
   82066 WT5  2832 TIP3 OH2  OT    -0.834000       15.9994           0
   82067 WT5  2832 TIP3 H1   HT     0.417000        1.0080           0
   82068 WT5  2832 TIP3 H2   HT     0.417000        1.0080           0
   82069 WT5  2834 TIP3 OH2  OT    -0.834000       15.9994           0
   82070 WT5  2834 TIP3 H1   HT     0.417000        1.0080           0
   82071 WT5  2834 TIP3 H2   HT     0.417000        1.0080           0
   82072 WT5  2836 TIP3 OH2  OT    -0.834000       15.9994           0
   82073 WT5  2836 TIP3 H1   HT     0.417000        1.0080           0
   82074 WT5  2836 TIP3 H2   HT     0.417000        1.0080           0
   82075 WT5  2837 TIP3 OH2  OT    -0.834000       15.9994           0
   82076 WT5  2837 TIP3 H1   HT     0.417000        1.0080           0
   82077 WT5  2837 TIP3 H2   HT     0.417000        1.0080           0
   82078 WT5  2838 TIP3 OH2  OT    -0.834000       15.9994           0
   82079 WT5  2838 TIP3 H1   HT     0.417000        1.0080           0
   82080 WT5  2838 TIP3 H2   HT     0.417000        1.0080           0
   82081 WT5  2839 TIP3 OH2  OT    -0.834000       15.9994           0
   82082 WT5  2839 TIP3 H1   HT     0.417000        1.0080           0
   82083 WT5  2839 TIP3 H2   HT     0.417000        1.0080           0
   82084 WT5  2840 TIP3 OH2  OT    -0.834000       15.9994           0
   82085 WT5  2840 TIP3 H1   HT     0.417000        1.0080           0
   82086 WT5  2840 TIP3 H2   HT     0.417000        1.0080           0
   82087 WT5  2841 TIP3 OH2  OT    -0.834000       15.9994           0
   82088 WT5  2841 TIP3 H1   HT     0.417000        1.0080           0
   82089 WT5  2841 TIP3 H2   HT     0.417000        1.0080           0
   82090 WT5  2842 TIP3 OH2  OT    -0.834000       15.9994           0
   82091 WT5  2842 TIP3 H1   HT     0.417000        1.0080           0
   82092 WT5  2842 TIP3 H2   HT     0.417000        1.0080           0
   82093 WT5  2843 TIP3 OH2  OT    -0.834000       15.9994           0
   82094 WT5  2843 TIP3 H1   HT     0.417000        1.0080           0
   82095 WT5  2843 TIP3 H2   HT     0.417000        1.0080           0
   82096 WT5  2844 TIP3 OH2  OT    -0.834000       15.9994           0
   82097 WT5  2844 TIP3 H1   HT     0.417000        1.0080           0
   82098 WT5  2844 TIP3 H2   HT     0.417000        1.0080           0
   82099 WT5  2845 TIP3 OH2  OT    -0.834000       15.9994           0
   82100 WT5  2845 TIP3 H1   HT     0.417000        1.0080           0
   82101 WT5  2845 TIP3 H2   HT     0.417000        1.0080           0
   82102 WT5  2846 TIP3 OH2  OT    -0.834000       15.9994           0
   82103 WT5  2846 TIP3 H1   HT     0.417000        1.0080           0
   82104 WT5  2846 TIP3 H2   HT     0.417000        1.0080           0
   82105 WT5  2847 TIP3 OH2  OT    -0.834000       15.9994           0
   82106 WT5  2847 TIP3 H1   HT     0.417000        1.0080           0
   82107 WT5  2847 TIP3 H2   HT     0.417000        1.0080           0
   82108 WT5  2848 TIP3 OH2  OT    -0.834000       15.9994           0
   82109 WT5  2848 TIP3 H1   HT     0.417000        1.0080           0
   82110 WT5  2848 TIP3 H2   HT     0.417000        1.0080           0
   82111 WT5  2850 TIP3 OH2  OT    -0.834000       15.9994           0
   82112 WT5  2850 TIP3 H1   HT     0.417000        1.0080           0
   82113 WT5  2850 TIP3 H2   HT     0.417000        1.0080           0
   82114 WT5  2852 TIP3 OH2  OT    -0.834000       15.9994           0
   82115 WT5  2852 TIP3 H1   HT     0.417000        1.0080           0
   82116 WT5  2852 TIP3 H2   HT     0.417000        1.0080           0
   82117 WT5  2853 TIP3 OH2  OT    -0.834000       15.9994           0
   82118 WT5  2853 TIP3 H1   HT     0.417000        1.0080           0
   82119 WT5  2853 TIP3 H2   HT     0.417000        1.0080           0
   82120 WT5  2854 TIP3 OH2  OT    -0.834000       15.9994           0
   82121 WT5  2854 TIP3 H1   HT     0.417000        1.0080           0
   82122 WT5  2854 TIP3 H2   HT     0.417000        1.0080           0
   82123 WT5  2855 TIP3 OH2  OT    -0.834000       15.9994           0
   82124 WT5  2855 TIP3 H1   HT     0.417000        1.0080           0
   82125 WT5  2855 TIP3 H2   HT     0.417000        1.0080           0
   82126 WT5  2856 TIP3 OH2  OT    -0.834000       15.9994           0
   82127 WT5  2856 TIP3 H1   HT     0.417000        1.0080           0
   82128 WT5  2856 TIP3 H2   HT     0.417000        1.0080           0
   82129 WT5  2857 TIP3 OH2  OT    -0.834000       15.9994           0
   82130 WT5  2857 TIP3 H1   HT     0.417000        1.0080           0
   82131 WT5  2857 TIP3 H2   HT     0.417000        1.0080           0
   82132 WT5  2858 TIP3 OH2  OT    -0.834000       15.9994           0
   82133 WT5  2858 TIP3 H1   HT     0.417000        1.0080           0
   82134 WT5  2858 TIP3 H2   HT     0.417000        1.0080           0
   82135 WT5  2859 TIP3 OH2  OT    -0.834000       15.9994           0
   82136 WT5  2859 TIP3 H1   HT     0.417000        1.0080           0
   82137 WT5  2859 TIP3 H2   HT     0.417000        1.0080           0
   82138 WT5  2860 TIP3 OH2  OT    -0.834000       15.9994           0
   82139 WT5  2860 TIP3 H1   HT     0.417000        1.0080           0
   82140 WT5  2860 TIP3 H2   HT     0.417000        1.0080           0
   82141 WT5  2861 TIP3 OH2  OT    -0.834000       15.9994           0
   82142 WT5  2861 TIP3 H1   HT     0.417000        1.0080           0
   82143 WT5  2861 TIP3 H2   HT     0.417000        1.0080           0
   82144 WT5  2862 TIP3 OH2  OT    -0.834000       15.9994           0
   82145 WT5  2862 TIP3 H1   HT     0.417000        1.0080           0
   82146 WT5  2862 TIP3 H2   HT     0.417000        1.0080           0
   82147 WT5  2863 TIP3 OH2  OT    -0.834000       15.9994           0
   82148 WT5  2863 TIP3 H1   HT     0.417000        1.0080           0
   82149 WT5  2863 TIP3 H2   HT     0.417000        1.0080           0
   82150 WT5  2864 TIP3 OH2  OT    -0.834000       15.9994           0
   82151 WT5  2864 TIP3 H1   HT     0.417000        1.0080           0
   82152 WT5  2864 TIP3 H2   HT     0.417000        1.0080           0
   82153 WT5  2865 TIP3 OH2  OT    -0.834000       15.9994           0
   82154 WT5  2865 TIP3 H1   HT     0.417000        1.0080           0
   82155 WT5  2865 TIP3 H2   HT     0.417000        1.0080           0
   82156 WT5  2866 TIP3 OH2  OT    -0.834000       15.9994           0
   82157 WT5  2866 TIP3 H1   HT     0.417000        1.0080           0
   82158 WT5  2866 TIP3 H2   HT     0.417000        1.0080           0
   82159 WT5  2867 TIP3 OH2  OT    -0.834000       15.9994           0
   82160 WT5  2867 TIP3 H1   HT     0.417000        1.0080           0
   82161 WT5  2867 TIP3 H2   HT     0.417000        1.0080           0
   82162 WT5  2868 TIP3 OH2  OT    -0.834000       15.9994           0
   82163 WT5  2868 TIP3 H1   HT     0.417000        1.0080           0
   82164 WT5  2868 TIP3 H2   HT     0.417000        1.0080           0
   82165 WT5  2869 TIP3 OH2  OT    -0.834000       15.9994           0
   82166 WT5  2869 TIP3 H1   HT     0.417000        1.0080           0
   82167 WT5  2869 TIP3 H2   HT     0.417000        1.0080           0
   82168 WT5  2871 TIP3 OH2  OT    -0.834000       15.9994           0
   82169 WT5  2871 TIP3 H1   HT     0.417000        1.0080           0
   82170 WT5  2871 TIP3 H2   HT     0.417000        1.0080           0
   82171 WT5  2873 TIP3 OH2  OT    -0.834000       15.9994           0
   82172 WT5  2873 TIP3 H1   HT     0.417000        1.0080           0
   82173 WT5  2873 TIP3 H2   HT     0.417000        1.0080           0
   82174 WT5  2874 TIP3 OH2  OT    -0.834000       15.9994           0
   82175 WT5  2874 TIP3 H1   HT     0.417000        1.0080           0
   82176 WT5  2874 TIP3 H2   HT     0.417000        1.0080           0
   82177 WT5  2877 TIP3 OH2  OT    -0.834000       15.9994           0
   82178 WT5  2877 TIP3 H1   HT     0.417000        1.0080           0
   82179 WT5  2877 TIP3 H2   HT     0.417000        1.0080           0
   82180 WT5  2878 TIP3 OH2  OT    -0.834000       15.9994           0
   82181 WT5  2878 TIP3 H1   HT     0.417000        1.0080           0
   82182 WT5  2878 TIP3 H2   HT     0.417000        1.0080           0
   82183 WT5  2880 TIP3 OH2  OT    -0.834000       15.9994           0
   82184 WT5  2880 TIP3 H1   HT     0.417000        1.0080           0
   82185 WT5  2880 TIP3 H2   HT     0.417000        1.0080           0
   82186 WT5  2881 TIP3 OH2  OT    -0.834000       15.9994           0
   82187 WT5  2881 TIP3 H1   HT     0.417000        1.0080           0
   82188 WT5  2881 TIP3 H2   HT     0.417000        1.0080           0
   82189 WT5  2882 TIP3 OH2  OT    -0.834000       15.9994           0
   82190 WT5  2882 TIP3 H1   HT     0.417000        1.0080           0
   82191 WT5  2882 TIP3 H2   HT     0.417000        1.0080           0
   82192 WT5  2883 TIP3 OH2  OT    -0.834000       15.9994           0
   82193 WT5  2883 TIP3 H1   HT     0.417000        1.0080           0
   82194 WT5  2883 TIP3 H2   HT     0.417000        1.0080           0
   82195 WT5  2884 TIP3 OH2  OT    -0.834000       15.9994           0
   82196 WT5  2884 TIP3 H1   HT     0.417000        1.0080           0
   82197 WT5  2884 TIP3 H2   HT     0.417000        1.0080           0
   82198 WT5  2885 TIP3 OH2  OT    -0.834000       15.9994           0
   82199 WT5  2885 TIP3 H1   HT     0.417000        1.0080           0
   82200 WT5  2885 TIP3 H2   HT     0.417000        1.0080           0
   82201 WT5  2886 TIP3 OH2  OT    -0.834000       15.9994           0
   82202 WT5  2886 TIP3 H1   HT     0.417000        1.0080           0
   82203 WT5  2886 TIP3 H2   HT     0.417000        1.0080           0
   82204 WT5  2887 TIP3 OH2  OT    -0.834000       15.9994           0
   82205 WT5  2887 TIP3 H1   HT     0.417000        1.0080           0
   82206 WT5  2887 TIP3 H2   HT     0.417000        1.0080           0
   82207 WT5  2888 TIP3 OH2  OT    -0.834000       15.9994           0
   82208 WT5  2888 TIP3 H1   HT     0.417000        1.0080           0
   82209 WT5  2888 TIP3 H2   HT     0.417000        1.0080           0
   82210 WT5  2889 TIP3 OH2  OT    -0.834000       15.9994           0
   82211 WT5  2889 TIP3 H1   HT     0.417000        1.0080           0
   82212 WT5  2889 TIP3 H2   HT     0.417000        1.0080           0
   82213 WT5  2890 TIP3 OH2  OT    -0.834000       15.9994           0
   82214 WT5  2890 TIP3 H1   HT     0.417000        1.0080           0
   82215 WT5  2890 TIP3 H2   HT     0.417000        1.0080           0
   82216 WT5  2891 TIP3 OH2  OT    -0.834000       15.9994           0
   82217 WT5  2891 TIP3 H1   HT     0.417000        1.0080           0
   82218 WT5  2891 TIP3 H2   HT     0.417000        1.0080           0
   82219 WT5  2893 TIP3 OH2  OT    -0.834000       15.9994           0
   82220 WT5  2893 TIP3 H1   HT     0.417000        1.0080           0
   82221 WT5  2893 TIP3 H2   HT     0.417000        1.0080           0
   82222 WT5  2894 TIP3 OH2  OT    -0.834000       15.9994           0
   82223 WT5  2894 TIP3 H1   HT     0.417000        1.0080           0
   82224 WT5  2894 TIP3 H2   HT     0.417000        1.0080           0
   82225 WT5  2897 TIP3 OH2  OT    -0.834000       15.9994           0
   82226 WT5  2897 TIP3 H1   HT     0.417000        1.0080           0
   82227 WT5  2897 TIP3 H2   HT     0.417000        1.0080           0
   82228 WT5  2898 TIP3 OH2  OT    -0.834000       15.9994           0
   82229 WT5  2898 TIP3 H1   HT     0.417000        1.0080           0
   82230 WT5  2898 TIP3 H2   HT     0.417000        1.0080           0
   82231 WT5  2899 TIP3 OH2  OT    -0.834000       15.9994           0
   82232 WT5  2899 TIP3 H1   HT     0.417000        1.0080           0
   82233 WT5  2899 TIP3 H2   HT     0.417000        1.0080           0
   82234 WT5  2900 TIP3 OH2  OT    -0.834000       15.9994           0
   82235 WT5  2900 TIP3 H1   HT     0.417000        1.0080           0
   82236 WT5  2900 TIP3 H2   HT     0.417000        1.0080           0
   82237 WT5  2901 TIP3 OH2  OT    -0.834000       15.9994           0
   82238 WT5  2901 TIP3 H1   HT     0.417000        1.0080           0
   82239 WT5  2901 TIP3 H2   HT     0.417000        1.0080           0
   82240 WT5  2902 TIP3 OH2  OT    -0.834000       15.9994           0
   82241 WT5  2902 TIP3 H1   HT     0.417000        1.0080           0
   82242 WT5  2902 TIP3 H2   HT     0.417000        1.0080           0
   82243 WT5  2903 TIP3 OH2  OT    -0.834000       15.9994           0
   82244 WT5  2903 TIP3 H1   HT     0.417000        1.0080           0
   82245 WT5  2903 TIP3 H2   HT     0.417000        1.0080           0
   82246 WT5  2904 TIP3 OH2  OT    -0.834000       15.9994           0
   82247 WT5  2904 TIP3 H1   HT     0.417000        1.0080           0
   82248 WT5  2904 TIP3 H2   HT     0.417000        1.0080           0
   82249 WT5  2905 TIP3 OH2  OT    -0.834000       15.9994           0
   82250 WT5  2905 TIP3 H1   HT     0.417000        1.0080           0
   82251 WT5  2905 TIP3 H2   HT     0.417000        1.0080           0
   82252 WT5  2906 TIP3 OH2  OT    -0.834000       15.9994           0
   82253 WT5  2906 TIP3 H1   HT     0.417000        1.0080           0
   82254 WT5  2906 TIP3 H2   HT     0.417000        1.0080           0
   82255 WT5  2907 TIP3 OH2  OT    -0.834000       15.9994           0
   82256 WT5  2907 TIP3 H1   HT     0.417000        1.0080           0
   82257 WT5  2907 TIP3 H2   HT     0.417000        1.0080           0
   82258 WT5  2908 TIP3 OH2  OT    -0.834000       15.9994           0
   82259 WT5  2908 TIP3 H1   HT     0.417000        1.0080           0
   82260 WT5  2908 TIP3 H2   HT     0.417000        1.0080           0
   82261 WT5  2909 TIP3 OH2  OT    -0.834000       15.9994           0
   82262 WT5  2909 TIP3 H1   HT     0.417000        1.0080           0
   82263 WT5  2909 TIP3 H2   HT     0.417000        1.0080           0
   82264 WT5  2910 TIP3 OH2  OT    -0.834000       15.9994           0
   82265 WT5  2910 TIP3 H1   HT     0.417000        1.0080           0
   82266 WT5  2910 TIP3 H2   HT     0.417000        1.0080           0
   82267 WT5  2911 TIP3 OH2  OT    -0.834000       15.9994           0
   82268 WT5  2911 TIP3 H1   HT     0.417000        1.0080           0
   82269 WT5  2911 TIP3 H2   HT     0.417000        1.0080           0
   82270 WT5  2913 TIP3 OH2  OT    -0.834000       15.9994           0
   82271 WT5  2913 TIP3 H1   HT     0.417000        1.0080           0
   82272 WT5  2913 TIP3 H2   HT     0.417000        1.0080           0
   82273 WT5  2914 TIP3 OH2  OT    -0.834000       15.9994           0
   82274 WT5  2914 TIP3 H1   HT     0.417000        1.0080           0
   82275 WT5  2914 TIP3 H2   HT     0.417000        1.0080           0
   82276 WT5  2915 TIP3 OH2  OT    -0.834000       15.9994           0
   82277 WT5  2915 TIP3 H1   HT     0.417000        1.0080           0
   82278 WT5  2915 TIP3 H2   HT     0.417000        1.0080           0
   82279 WT5  2916 TIP3 OH2  OT    -0.834000       15.9994           0
   82280 WT5  2916 TIP3 H1   HT     0.417000        1.0080           0
   82281 WT5  2916 TIP3 H2   HT     0.417000        1.0080           0
   82282 WT5  2917 TIP3 OH2  OT    -0.834000       15.9994           0
   82283 WT5  2917 TIP3 H1   HT     0.417000        1.0080           0
   82284 WT5  2917 TIP3 H2   HT     0.417000        1.0080           0
   82285 WT5  2918 TIP3 OH2  OT    -0.834000       15.9994           0
   82286 WT5  2918 TIP3 H1   HT     0.417000        1.0080           0
   82287 WT5  2918 TIP3 H2   HT     0.417000        1.0080           0
   82288 WT5  2919 TIP3 OH2  OT    -0.834000       15.9994           0
   82289 WT5  2919 TIP3 H1   HT     0.417000        1.0080           0
   82290 WT5  2919 TIP3 H2   HT     0.417000        1.0080           0
   82291 WT5  2920 TIP3 OH2  OT    -0.834000       15.9994           0
   82292 WT5  2920 TIP3 H1   HT     0.417000        1.0080           0
   82293 WT5  2920 TIP3 H2   HT     0.417000        1.0080           0
   82294 WT5  2921 TIP3 OH2  OT    -0.834000       15.9994           0
   82295 WT5  2921 TIP3 H1   HT     0.417000        1.0080           0
   82296 WT5  2921 TIP3 H2   HT     0.417000        1.0080           0
   82297 WT5  2922 TIP3 OH2  OT    -0.834000       15.9994           0
   82298 WT5  2922 TIP3 H1   HT     0.417000        1.0080           0
   82299 WT5  2922 TIP3 H2   HT     0.417000        1.0080           0
   82300 WT5  2923 TIP3 OH2  OT    -0.834000       15.9994           0
   82301 WT5  2923 TIP3 H1   HT     0.417000        1.0080           0
   82302 WT5  2923 TIP3 H2   HT     0.417000        1.0080           0
   82303 WT5  2924 TIP3 OH2  OT    -0.834000       15.9994           0
   82304 WT5  2924 TIP3 H1   HT     0.417000        1.0080           0
   82305 WT5  2924 TIP3 H2   HT     0.417000        1.0080           0
   82306 WT5  2925 TIP3 OH2  OT    -0.834000       15.9994           0
   82307 WT5  2925 TIP3 H1   HT     0.417000        1.0080           0
   82308 WT5  2925 TIP3 H2   HT     0.417000        1.0080           0
   82309 WT5  2926 TIP3 OH2  OT    -0.834000       15.9994           0
   82310 WT5  2926 TIP3 H1   HT     0.417000        1.0080           0
   82311 WT5  2926 TIP3 H2   HT     0.417000        1.0080           0
   82312 WT5  2927 TIP3 OH2  OT    -0.834000       15.9994           0
   82313 WT5  2927 TIP3 H1   HT     0.417000        1.0080           0
   82314 WT5  2927 TIP3 H2   HT     0.417000        1.0080           0
   82315 WT5  2928 TIP3 OH2  OT    -0.834000       15.9994           0
   82316 WT5  2928 TIP3 H1   HT     0.417000        1.0080           0
   82317 WT5  2928 TIP3 H2   HT     0.417000        1.0080           0
   82318 WT5  2929 TIP3 OH2  OT    -0.834000       15.9994           0
   82319 WT5  2929 TIP3 H1   HT     0.417000        1.0080           0
   82320 WT5  2929 TIP3 H2   HT     0.417000        1.0080           0
   82321 WT5  2930 TIP3 OH2  OT    -0.834000       15.9994           0
   82322 WT5  2930 TIP3 H1   HT     0.417000        1.0080           0
   82323 WT5  2930 TIP3 H2   HT     0.417000        1.0080           0
   82324 WT5  2931 TIP3 OH2  OT    -0.834000       15.9994           0
   82325 WT5  2931 TIP3 H1   HT     0.417000        1.0080           0
   82326 WT5  2931 TIP3 H2   HT     0.417000        1.0080           0
   82327 WT5  2932 TIP3 OH2  OT    -0.834000       15.9994           0
   82328 WT5  2932 TIP3 H1   HT     0.417000        1.0080           0
   82329 WT5  2932 TIP3 H2   HT     0.417000        1.0080           0
   82330 WT5  2933 TIP3 OH2  OT    -0.834000       15.9994           0
   82331 WT5  2933 TIP3 H1   HT     0.417000        1.0080           0
   82332 WT5  2933 TIP3 H2   HT     0.417000        1.0080           0
   82333 WT5  2934 TIP3 OH2  OT    -0.834000       15.9994           0
   82334 WT5  2934 TIP3 H1   HT     0.417000        1.0080           0
   82335 WT5  2934 TIP3 H2   HT     0.417000        1.0080           0
   82336 WT5  2935 TIP3 OH2  OT    -0.834000       15.9994           0
   82337 WT5  2935 TIP3 H1   HT     0.417000        1.0080           0
   82338 WT5  2935 TIP3 H2   HT     0.417000        1.0080           0
   82339 WT5  2936 TIP3 OH2  OT    -0.834000       15.9994           0
   82340 WT5  2936 TIP3 H1   HT     0.417000        1.0080           0
   82341 WT5  2936 TIP3 H2   HT     0.417000        1.0080           0
   82342 WT5  2937 TIP3 OH2  OT    -0.834000       15.9994           0
   82343 WT5  2937 TIP3 H1   HT     0.417000        1.0080           0
   82344 WT5  2937 TIP3 H2   HT     0.417000        1.0080           0
   82345 WT5  2938 TIP3 OH2  OT    -0.834000       15.9994           0
   82346 WT5  2938 TIP3 H1   HT     0.417000        1.0080           0
   82347 WT5  2938 TIP3 H2   HT     0.417000        1.0080           0
   82348 WT5  2941 TIP3 OH2  OT    -0.834000       15.9994           0
   82349 WT5  2941 TIP3 H1   HT     0.417000        1.0080           0
   82350 WT5  2941 TIP3 H2   HT     0.417000        1.0080           0
   82351 WT5  2943 TIP3 OH2  OT    -0.834000       15.9994           0
   82352 WT5  2943 TIP3 H1   HT     0.417000        1.0080           0
   82353 WT5  2943 TIP3 H2   HT     0.417000        1.0080           0
   82354 WT5  2944 TIP3 OH2  OT    -0.834000       15.9994           0
   82355 WT5  2944 TIP3 H1   HT     0.417000        1.0080           0
   82356 WT5  2944 TIP3 H2   HT     0.417000        1.0080           0
   82357 WT5  2945 TIP3 OH2  OT    -0.834000       15.9994           0
   82358 WT5  2945 TIP3 H1   HT     0.417000        1.0080           0
   82359 WT5  2945 TIP3 H2   HT     0.417000        1.0080           0
   82360 WT5  2946 TIP3 OH2  OT    -0.834000       15.9994           0
   82361 WT5  2946 TIP3 H1   HT     0.417000        1.0080           0
   82362 WT5  2946 TIP3 H2   HT     0.417000        1.0080           0
   82363 WT5  2947 TIP3 OH2  OT    -0.834000       15.9994           0
   82364 WT5  2947 TIP3 H1   HT     0.417000        1.0080           0
   82365 WT5  2947 TIP3 H2   HT     0.417000        1.0080           0
   82366 WT5  2948 TIP3 OH2  OT    -0.834000       15.9994           0
   82367 WT5  2948 TIP3 H1   HT     0.417000        1.0080           0
   82368 WT5  2948 TIP3 H2   HT     0.417000        1.0080           0
   82369 WT5  2949 TIP3 OH2  OT    -0.834000       15.9994           0
   82370 WT5  2949 TIP3 H1   HT     0.417000        1.0080           0
   82371 WT5  2949 TIP3 H2   HT     0.417000        1.0080           0
   82372 WT5  2951 TIP3 OH2  OT    -0.834000       15.9994           0
   82373 WT5  2951 TIP3 H1   HT     0.417000        1.0080           0
   82374 WT5  2951 TIP3 H2   HT     0.417000        1.0080           0
   82375 WT5  2952 TIP3 OH2  OT    -0.834000       15.9994           0
   82376 WT5  2952 TIP3 H1   HT     0.417000        1.0080           0
   82377 WT5  2952 TIP3 H2   HT     0.417000        1.0080           0
   82378 WT5  2953 TIP3 OH2  OT    -0.834000       15.9994           0
   82379 WT5  2953 TIP3 H1   HT     0.417000        1.0080           0
   82380 WT5  2953 TIP3 H2   HT     0.417000        1.0080           0
   82381 WT5  2955 TIP3 OH2  OT    -0.834000       15.9994           0
   82382 WT5  2955 TIP3 H1   HT     0.417000        1.0080           0
   82383 WT5  2955 TIP3 H2   HT     0.417000        1.0080           0
   82384 WT5  2957 TIP3 OH2  OT    -0.834000       15.9994           0
   82385 WT5  2957 TIP3 H1   HT     0.417000        1.0080           0
   82386 WT5  2957 TIP3 H2   HT     0.417000        1.0080           0
   82387 WT5  2960 TIP3 OH2  OT    -0.834000       15.9994           0
   82388 WT5  2960 TIP3 H1   HT     0.417000        1.0080           0
   82389 WT5  2960 TIP3 H2   HT     0.417000        1.0080           0
   82390 WT5  2961 TIP3 OH2  OT    -0.834000       15.9994           0
   82391 WT5  2961 TIP3 H1   HT     0.417000        1.0080           0
   82392 WT5  2961 TIP3 H2   HT     0.417000        1.0080           0
   82393 WT5  2962 TIP3 OH2  OT    -0.834000       15.9994           0
   82394 WT5  2962 TIP3 H1   HT     0.417000        1.0080           0
   82395 WT5  2962 TIP3 H2   HT     0.417000        1.0080           0
   82396 WT5  2963 TIP3 OH2  OT    -0.834000       15.9994           0
   82397 WT5  2963 TIP3 H1   HT     0.417000        1.0080           0
   82398 WT5  2963 TIP3 H2   HT     0.417000        1.0080           0
   82399 WT5  2964 TIP3 OH2  OT    -0.834000       15.9994           0
   82400 WT5  2964 TIP3 H1   HT     0.417000        1.0080           0
   82401 WT5  2964 TIP3 H2   HT     0.417000        1.0080           0
   82402 WT5  2965 TIP3 OH2  OT    -0.834000       15.9994           0
   82403 WT5  2965 TIP3 H1   HT     0.417000        1.0080           0
   82404 WT5  2965 TIP3 H2   HT     0.417000        1.0080           0
   82405 WT5  2966 TIP3 OH2  OT    -0.834000       15.9994           0
   82406 WT5  2966 TIP3 H1   HT     0.417000        1.0080           0
   82407 WT5  2966 TIP3 H2   HT     0.417000        1.0080           0
   82408 WT5  2967 TIP3 OH2  OT    -0.834000       15.9994           0
   82409 WT5  2967 TIP3 H1   HT     0.417000        1.0080           0
   82410 WT5  2967 TIP3 H2   HT     0.417000        1.0080           0
   82411 WT5  2968 TIP3 OH2  OT    -0.834000       15.9994           0
   82412 WT5  2968 TIP3 H1   HT     0.417000        1.0080           0
   82413 WT5  2968 TIP3 H2   HT     0.417000        1.0080           0
   82414 WT5  2969 TIP3 OH2  OT    -0.834000       15.9994           0
   82415 WT5  2969 TIP3 H1   HT     0.417000        1.0080           0
   82416 WT5  2969 TIP3 H2   HT     0.417000        1.0080           0
   82417 WT5  2970 TIP3 OH2  OT    -0.834000       15.9994           0
   82418 WT5  2970 TIP3 H1   HT     0.417000        1.0080           0
   82419 WT5  2970 TIP3 H2   HT     0.417000        1.0080           0
   82420 WT5  2971 TIP3 OH2  OT    -0.834000       15.9994           0
   82421 WT5  2971 TIP3 H1   HT     0.417000        1.0080           0
   82422 WT5  2971 TIP3 H2   HT     0.417000        1.0080           0
   82423 WT5  2972 TIP3 OH2  OT    -0.834000       15.9994           0
   82424 WT5  2972 TIP3 H1   HT     0.417000        1.0080           0
   82425 WT5  2972 TIP3 H2   HT     0.417000        1.0080           0
   82426 WT5  2973 TIP3 OH2  OT    -0.834000       15.9994           0
   82427 WT5  2973 TIP3 H1   HT     0.417000        1.0080           0
   82428 WT5  2973 TIP3 H2   HT     0.417000        1.0080           0
   82429 WT5  2974 TIP3 OH2  OT    -0.834000       15.9994           0
   82430 WT5  2974 TIP3 H1   HT     0.417000        1.0080           0
   82431 WT5  2974 TIP3 H2   HT     0.417000        1.0080           0
   82432 WT5  2975 TIP3 OH2  OT    -0.834000       15.9994           0
   82433 WT5  2975 TIP3 H1   HT     0.417000        1.0080           0
   82434 WT5  2975 TIP3 H2   HT     0.417000        1.0080           0
   82435 WT5  2977 TIP3 OH2  OT    -0.834000       15.9994           0
   82436 WT5  2977 TIP3 H1   HT     0.417000        1.0080           0
   82437 WT5  2977 TIP3 H2   HT     0.417000        1.0080           0
   82438 WT5  2978 TIP3 OH2  OT    -0.834000       15.9994           0
   82439 WT5  2978 TIP3 H1   HT     0.417000        1.0080           0
   82440 WT5  2978 TIP3 H2   HT     0.417000        1.0080           0
   82441 WT5  2979 TIP3 OH2  OT    -0.834000       15.9994           0
   82442 WT5  2979 TIP3 H1   HT     0.417000        1.0080           0
   82443 WT5  2979 TIP3 H2   HT     0.417000        1.0080           0
   82444 WT5  2980 TIP3 OH2  OT    -0.834000       15.9994           0
   82445 WT5  2980 TIP3 H1   HT     0.417000        1.0080           0
   82446 WT5  2980 TIP3 H2   HT     0.417000        1.0080           0
   82447 WT5  2981 TIP3 OH2  OT    -0.834000       15.9994           0
   82448 WT5  2981 TIP3 H1   HT     0.417000        1.0080           0
   82449 WT5  2981 TIP3 H2   HT     0.417000        1.0080           0
   82450 WT5  2982 TIP3 OH2  OT    -0.834000       15.9994           0
   82451 WT5  2982 TIP3 H1   HT     0.417000        1.0080           0
   82452 WT5  2982 TIP3 H2   HT     0.417000        1.0080           0
   82453 WT5  2983 TIP3 OH2  OT    -0.834000       15.9994           0
   82454 WT5  2983 TIP3 H1   HT     0.417000        1.0080           0
   82455 WT5  2983 TIP3 H2   HT     0.417000        1.0080           0
   82456 WT5  2984 TIP3 OH2  OT    -0.834000       15.9994           0
   82457 WT5  2984 TIP3 H1   HT     0.417000        1.0080           0
   82458 WT5  2984 TIP3 H2   HT     0.417000        1.0080           0
   82459 WT5  2985 TIP3 OH2  OT    -0.834000       15.9994           0
   82460 WT5  2985 TIP3 H1   HT     0.417000        1.0080           0
   82461 WT5  2985 TIP3 H2   HT     0.417000        1.0080           0
   82462 WT5  2986 TIP3 OH2  OT    -0.834000       15.9994           0
   82463 WT5  2986 TIP3 H1   HT     0.417000        1.0080           0
   82464 WT5  2986 TIP3 H2   HT     0.417000        1.0080           0
   82465 WT5  2987 TIP3 OH2  OT    -0.834000       15.9994           0
   82466 WT5  2987 TIP3 H1   HT     0.417000        1.0080           0
   82467 WT5  2987 TIP3 H2   HT     0.417000        1.0080           0
   82468 WT5  2988 TIP3 OH2  OT    -0.834000       15.9994           0
   82469 WT5  2988 TIP3 H1   HT     0.417000        1.0080           0
   82470 WT5  2988 TIP3 H2   HT     0.417000        1.0080           0
   82471 WT5  2989 TIP3 OH2  OT    -0.834000       15.9994           0
   82472 WT5  2989 TIP3 H1   HT     0.417000        1.0080           0
   82473 WT5  2989 TIP3 H2   HT     0.417000        1.0080           0
   82474 WT5  2990 TIP3 OH2  OT    -0.834000       15.9994           0
   82475 WT5  2990 TIP3 H1   HT     0.417000        1.0080           0
   82476 WT5  2990 TIP3 H2   HT     0.417000        1.0080           0
   82477 WT5  2991 TIP3 OH2  OT    -0.834000       15.9994           0
   82478 WT5  2991 TIP3 H1   HT     0.417000        1.0080           0
   82479 WT5  2991 TIP3 H2   HT     0.417000        1.0080           0
   82480 WT5  2992 TIP3 OH2  OT    -0.834000       15.9994           0
   82481 WT5  2992 TIP3 H1   HT     0.417000        1.0080           0
   82482 WT5  2992 TIP3 H2   HT     0.417000        1.0080           0
   82483 WT5  2993 TIP3 OH2  OT    -0.834000       15.9994           0
   82484 WT5  2993 TIP3 H1   HT     0.417000        1.0080           0
   82485 WT5  2993 TIP3 H2   HT     0.417000        1.0080           0
   82486 WT5  2994 TIP3 OH2  OT    -0.834000       15.9994           0
   82487 WT5  2994 TIP3 H1   HT     0.417000        1.0080           0
   82488 WT5  2994 TIP3 H2   HT     0.417000        1.0080           0
   82489 WT5  2995 TIP3 OH2  OT    -0.834000       15.9994           0
   82490 WT5  2995 TIP3 H1   HT     0.417000        1.0080           0
   82491 WT5  2995 TIP3 H2   HT     0.417000        1.0080           0
   82492 WT5  2996 TIP3 OH2  OT    -0.834000       15.9994           0
   82493 WT5  2996 TIP3 H1   HT     0.417000        1.0080           0
   82494 WT5  2996 TIP3 H2   HT     0.417000        1.0080           0
   82495 WT5  2997 TIP3 OH2  OT    -0.834000       15.9994           0
   82496 WT5  2997 TIP3 H1   HT     0.417000        1.0080           0
   82497 WT5  2997 TIP3 H2   HT     0.417000        1.0080           0
   82498 WT5  3000 TIP3 OH2  OT    -0.834000       15.9994           0
   82499 WT5  3000 TIP3 H1   HT     0.417000        1.0080           0
   82500 WT5  3000 TIP3 H2   HT     0.417000        1.0080           0
   82501 WT5  3002 TIP3 OH2  OT    -0.834000       15.9994           0
   82502 WT5  3002 TIP3 H1   HT     0.417000        1.0080           0
   82503 WT5  3002 TIP3 H2   HT     0.417000        1.0080           0
   82504 WT5  3003 TIP3 OH2  OT    -0.834000       15.9994           0
   82505 WT5  3003 TIP3 H1   HT     0.417000        1.0080           0
   82506 WT5  3003 TIP3 H2   HT     0.417000        1.0080           0
   82507 WT5  3005 TIP3 OH2  OT    -0.834000       15.9994           0
   82508 WT5  3005 TIP3 H1   HT     0.417000        1.0080           0
   82509 WT5  3005 TIP3 H2   HT     0.417000        1.0080           0
   82510 WT5  3006 TIP3 OH2  OT    -0.834000       15.9994           0
   82511 WT5  3006 TIP3 H1   HT     0.417000        1.0080           0
   82512 WT5  3006 TIP3 H2   HT     0.417000        1.0080           0
   82513 WT5  3007 TIP3 OH2  OT    -0.834000       15.9994           0
   82514 WT5  3007 TIP3 H1   HT     0.417000        1.0080           0
   82515 WT5  3007 TIP3 H2   HT     0.417000        1.0080           0
   82516 WT5  3008 TIP3 OH2  OT    -0.834000       15.9994           0
   82517 WT5  3008 TIP3 H1   HT     0.417000        1.0080           0
   82518 WT5  3008 TIP3 H2   HT     0.417000        1.0080           0
   82519 WT5  3009 TIP3 OH2  OT    -0.834000       15.9994           0
   82520 WT5  3009 TIP3 H1   HT     0.417000        1.0080           0
   82521 WT5  3009 TIP3 H2   HT     0.417000        1.0080           0
   82522 WT5  3010 TIP3 OH2  OT    -0.834000       15.9994           0
   82523 WT5  3010 TIP3 H1   HT     0.417000        1.0080           0
   82524 WT5  3010 TIP3 H2   HT     0.417000        1.0080           0
   82525 WT5  3011 TIP3 OH2  OT    -0.834000       15.9994           0
   82526 WT5  3011 TIP3 H1   HT     0.417000        1.0080           0
   82527 WT5  3011 TIP3 H2   HT     0.417000        1.0080           0
   82528 WT5  3012 TIP3 OH2  OT    -0.834000       15.9994           0
   82529 WT5  3012 TIP3 H1   HT     0.417000        1.0080           0
   82530 WT5  3012 TIP3 H2   HT     0.417000        1.0080           0
   82531 WT5  3013 TIP3 OH2  OT    -0.834000       15.9994           0
   82532 WT5  3013 TIP3 H1   HT     0.417000        1.0080           0
   82533 WT5  3013 TIP3 H2   HT     0.417000        1.0080           0
   82534 WT5  3014 TIP3 OH2  OT    -0.834000       15.9994           0
   82535 WT5  3014 TIP3 H1   HT     0.417000        1.0080           0
   82536 WT5  3014 TIP3 H2   HT     0.417000        1.0080           0
   82537 WT5  3015 TIP3 OH2  OT    -0.834000       15.9994           0
   82538 WT5  3015 TIP3 H1   HT     0.417000        1.0080           0
   82539 WT5  3015 TIP3 H2   HT     0.417000        1.0080           0
   82540 WT5  3016 TIP3 OH2  OT    -0.834000       15.9994           0
   82541 WT5  3016 TIP3 H1   HT     0.417000        1.0080           0
   82542 WT5  3016 TIP3 H2   HT     0.417000        1.0080           0
   82543 WT5  3017 TIP3 OH2  OT    -0.834000       15.9994           0
   82544 WT5  3017 TIP3 H1   HT     0.417000        1.0080           0
   82545 WT5  3017 TIP3 H2   HT     0.417000        1.0080           0
   82546 WT5  3018 TIP3 OH2  OT    -0.834000       15.9994           0
   82547 WT5  3018 TIP3 H1   HT     0.417000        1.0080           0
   82548 WT5  3018 TIP3 H2   HT     0.417000        1.0080           0
   82549 WT5  3019 TIP3 OH2  OT    -0.834000       15.9994           0
   82550 WT5  3019 TIP3 H1   HT     0.417000        1.0080           0
   82551 WT5  3019 TIP3 H2   HT     0.417000        1.0080           0
   82552 WT5  3020 TIP3 OH2  OT    -0.834000       15.9994           0
   82553 WT5  3020 TIP3 H1   HT     0.417000        1.0080           0
   82554 WT5  3020 TIP3 H2   HT     0.417000        1.0080           0
   82555 WT5  3022 TIP3 OH2  OT    -0.834000       15.9994           0
   82556 WT5  3022 TIP3 H1   HT     0.417000        1.0080           0
   82557 WT5  3022 TIP3 H2   HT     0.417000        1.0080           0
   82558 WT5  3023 TIP3 OH2  OT    -0.834000       15.9994           0
   82559 WT5  3023 TIP3 H1   HT     0.417000        1.0080           0
   82560 WT5  3023 TIP3 H2   HT     0.417000        1.0080           0
   82561 WT5  3024 TIP3 OH2  OT    -0.834000       15.9994           0
   82562 WT5  3024 TIP3 H1   HT     0.417000        1.0080           0
   82563 WT5  3024 TIP3 H2   HT     0.417000        1.0080           0
   82564 WT5  3026 TIP3 OH2  OT    -0.834000       15.9994           0
   82565 WT5  3026 TIP3 H1   HT     0.417000        1.0080           0
   82566 WT5  3026 TIP3 H2   HT     0.417000        1.0080           0
   82567 WT5  3027 TIP3 OH2  OT    -0.834000       15.9994           0
   82568 WT5  3027 TIP3 H1   HT     0.417000        1.0080           0
   82569 WT5  3027 TIP3 H2   HT     0.417000        1.0080           0
   82570 WT5  3028 TIP3 OH2  OT    -0.834000       15.9994           0
   82571 WT5  3028 TIP3 H1   HT     0.417000        1.0080           0
   82572 WT5  3028 TIP3 H2   HT     0.417000        1.0080           0
   82573 WT5  3029 TIP3 OH2  OT    -0.834000       15.9994           0
   82574 WT5  3029 TIP3 H1   HT     0.417000        1.0080           0
   82575 WT5  3029 TIP3 H2   HT     0.417000        1.0080           0
   82576 WT5  3030 TIP3 OH2  OT    -0.834000       15.9994           0
   82577 WT5  3030 TIP3 H1   HT     0.417000        1.0080           0
   82578 WT5  3030 TIP3 H2   HT     0.417000        1.0080           0
   82579 WT5  3031 TIP3 OH2  OT    -0.834000       15.9994           0
   82580 WT5  3031 TIP3 H1   HT     0.417000        1.0080           0
   82581 WT5  3031 TIP3 H2   HT     0.417000        1.0080           0
   82582 WT5  3032 TIP3 OH2  OT    -0.834000       15.9994           0
   82583 WT5  3032 TIP3 H1   HT     0.417000        1.0080           0
   82584 WT5  3032 TIP3 H2   HT     0.417000        1.0080           0
   82585 WT5  3033 TIP3 OH2  OT    -0.834000       15.9994           0
   82586 WT5  3033 TIP3 H1   HT     0.417000        1.0080           0
   82587 WT5  3033 TIP3 H2   HT     0.417000        1.0080           0
   82588 WT5  3034 TIP3 OH2  OT    -0.834000       15.9994           0
   82589 WT5  3034 TIP3 H1   HT     0.417000        1.0080           0
   82590 WT5  3034 TIP3 H2   HT     0.417000        1.0080           0
   82591 WT5  3035 TIP3 OH2  OT    -0.834000       15.9994           0
   82592 WT5  3035 TIP3 H1   HT     0.417000        1.0080           0
   82593 WT5  3035 TIP3 H2   HT     0.417000        1.0080           0
   82594 WT5  3037 TIP3 OH2  OT    -0.834000       15.9994           0
   82595 WT5  3037 TIP3 H1   HT     0.417000        1.0080           0
   82596 WT5  3037 TIP3 H2   HT     0.417000        1.0080           0
   82597 WT5  3038 TIP3 OH2  OT    -0.834000       15.9994           0
   82598 WT5  3038 TIP3 H1   HT     0.417000        1.0080           0
   82599 WT5  3038 TIP3 H2   HT     0.417000        1.0080           0
   82600 WT5  3039 TIP3 OH2  OT    -0.834000       15.9994           0
   82601 WT5  3039 TIP3 H1   HT     0.417000        1.0080           0
   82602 WT5  3039 TIP3 H2   HT     0.417000        1.0080           0
   82603 WT5  3040 TIP3 OH2  OT    -0.834000       15.9994           0
   82604 WT5  3040 TIP3 H1   HT     0.417000        1.0080           0
   82605 WT5  3040 TIP3 H2   HT     0.417000        1.0080           0
   82606 WT5  3042 TIP3 OH2  OT    -0.834000       15.9994           0
   82607 WT5  3042 TIP3 H1   HT     0.417000        1.0080           0
   82608 WT5  3042 TIP3 H2   HT     0.417000        1.0080           0
   82609 WT5  3046 TIP3 OH2  OT    -0.834000       15.9994           0
   82610 WT5  3046 TIP3 H1   HT     0.417000        1.0080           0
   82611 WT5  3046 TIP3 H2   HT     0.417000        1.0080           0
   82612 WT5  3048 TIP3 OH2  OT    -0.834000       15.9994           0
   82613 WT5  3048 TIP3 H1   HT     0.417000        1.0080           0
   82614 WT5  3048 TIP3 H2   HT     0.417000        1.0080           0
   82615 WT5  3049 TIP3 OH2  OT    -0.834000       15.9994           0
   82616 WT5  3049 TIP3 H1   HT     0.417000        1.0080           0
   82617 WT5  3049 TIP3 H2   HT     0.417000        1.0080           0
   82618 WT5  3050 TIP3 OH2  OT    -0.834000       15.9994           0
   82619 WT5  3050 TIP3 H1   HT     0.417000        1.0080           0
   82620 WT5  3050 TIP3 H2   HT     0.417000        1.0080           0
   82621 WT5  3051 TIP3 OH2  OT    -0.834000       15.9994           0
   82622 WT5  3051 TIP3 H1   HT     0.417000        1.0080           0
   82623 WT5  3051 TIP3 H2   HT     0.417000        1.0080           0
   82624 WT5  3052 TIP3 OH2  OT    -0.834000       15.9994           0
   82625 WT5  3052 TIP3 H1   HT     0.417000        1.0080           0
   82626 WT5  3052 TIP3 H2   HT     0.417000        1.0080           0
   82627 WT5  3053 TIP3 OH2  OT    -0.834000       15.9994           0
   82628 WT5  3053 TIP3 H1   HT     0.417000        1.0080           0
   82629 WT5  3053 TIP3 H2   HT     0.417000        1.0080           0
   82630 WT5  3054 TIP3 OH2  OT    -0.834000       15.9994           0
   82631 WT5  3054 TIP3 H1   HT     0.417000        1.0080           0
   82632 WT5  3054 TIP3 H2   HT     0.417000        1.0080           0
   82633 WT5  3055 TIP3 OH2  OT    -0.834000       15.9994           0
   82634 WT5  3055 TIP3 H1   HT     0.417000        1.0080           0
   82635 WT5  3055 TIP3 H2   HT     0.417000        1.0080           0
   82636 WT5  3056 TIP3 OH2  OT    -0.834000       15.9994           0
   82637 WT5  3056 TIP3 H1   HT     0.417000        1.0080           0
   82638 WT5  3056 TIP3 H2   HT     0.417000        1.0080           0
   82639 WT5  3057 TIP3 OH2  OT    -0.834000       15.9994           0
   82640 WT5  3057 TIP3 H1   HT     0.417000        1.0080           0
   82641 WT5  3057 TIP3 H2   HT     0.417000        1.0080           0
   82642 WT5  3060 TIP3 OH2  OT    -0.834000       15.9994           0
   82643 WT5  3060 TIP3 H1   HT     0.417000        1.0080           0
   82644 WT5  3060 TIP3 H2   HT     0.417000        1.0080           0
   82645 WT5  3061 TIP3 OH2  OT    -0.834000       15.9994           0
   82646 WT5  3061 TIP3 H1   HT     0.417000        1.0080           0
   82647 WT5  3061 TIP3 H2   HT     0.417000        1.0080           0
   82648 WT5  3062 TIP3 OH2  OT    -0.834000       15.9994           0
   82649 WT5  3062 TIP3 H1   HT     0.417000        1.0080           0
   82650 WT5  3062 TIP3 H2   HT     0.417000        1.0080           0
   82651 WT5  3063 TIP3 OH2  OT    -0.834000       15.9994           0
   82652 WT5  3063 TIP3 H1   HT     0.417000        1.0080           0
   82653 WT5  3063 TIP3 H2   HT     0.417000        1.0080           0
   82654 WT5  3065 TIP3 OH2  OT    -0.834000       15.9994           0
   82655 WT5  3065 TIP3 H1   HT     0.417000        1.0080           0
   82656 WT5  3065 TIP3 H2   HT     0.417000        1.0080           0
   82657 WT5  3067 TIP3 OH2  OT    -0.834000       15.9994           0
   82658 WT5  3067 TIP3 H1   HT     0.417000        1.0080           0
   82659 WT5  3067 TIP3 H2   HT     0.417000        1.0080           0
   82660 WT5  3069 TIP3 OH2  OT    -0.834000       15.9994           0
   82661 WT5  3069 TIP3 H1   HT     0.417000        1.0080           0
   82662 WT5  3069 TIP3 H2   HT     0.417000        1.0080           0
   82663 WT5  3070 TIP3 OH2  OT    -0.834000       15.9994           0
   82664 WT5  3070 TIP3 H1   HT     0.417000        1.0080           0
   82665 WT5  3070 TIP3 H2   HT     0.417000        1.0080           0
   82666 WT5  3071 TIP3 OH2  OT    -0.834000       15.9994           0
   82667 WT5  3071 TIP3 H1   HT     0.417000        1.0080           0
   82668 WT5  3071 TIP3 H2   HT     0.417000        1.0080           0
   82669 WT5  3072 TIP3 OH2  OT    -0.834000       15.9994           0
   82670 WT5  3072 TIP3 H1   HT     0.417000        1.0080           0
   82671 WT5  3072 TIP3 H2   HT     0.417000        1.0080           0
   82672 WT5  3073 TIP3 OH2  OT    -0.834000       15.9994           0
   82673 WT5  3073 TIP3 H1   HT     0.417000        1.0080           0
   82674 WT5  3073 TIP3 H2   HT     0.417000        1.0080           0
   82675 WT5  3074 TIP3 OH2  OT    -0.834000       15.9994           0
   82676 WT5  3074 TIP3 H1   HT     0.417000        1.0080           0
   82677 WT5  3074 TIP3 H2   HT     0.417000        1.0080           0
   82678 WT5  3075 TIP3 OH2  OT    -0.834000       15.9994           0
   82679 WT5  3075 TIP3 H1   HT     0.417000        1.0080           0
   82680 WT5  3075 TIP3 H2   HT     0.417000        1.0080           0
   82681 WT5  3076 TIP3 OH2  OT    -0.834000       15.9994           0
   82682 WT5  3076 TIP3 H1   HT     0.417000        1.0080           0
   82683 WT5  3076 TIP3 H2   HT     0.417000        1.0080           0
   82684 WT5  3078 TIP3 OH2  OT    -0.834000       15.9994           0
   82685 WT5  3078 TIP3 H1   HT     0.417000        1.0080           0
   82686 WT5  3078 TIP3 H2   HT     0.417000        1.0080           0
   82687 WT5  3079 TIP3 OH2  OT    -0.834000       15.9994           0
   82688 WT5  3079 TIP3 H1   HT     0.417000        1.0080           0
   82689 WT5  3079 TIP3 H2   HT     0.417000        1.0080           0
   82690 WT5  3080 TIP3 OH2  OT    -0.834000       15.9994           0
   82691 WT5  3080 TIP3 H1   HT     0.417000        1.0080           0
   82692 WT5  3080 TIP3 H2   HT     0.417000        1.0080           0
   82693 WT5  3081 TIP3 OH2  OT    -0.834000       15.9994           0
   82694 WT5  3081 TIP3 H1   HT     0.417000        1.0080           0
   82695 WT5  3081 TIP3 H2   HT     0.417000        1.0080           0
   82696 WT5  3082 TIP3 OH2  OT    -0.834000       15.9994           0
   82697 WT5  3082 TIP3 H1   HT     0.417000        1.0080           0
   82698 WT5  3082 TIP3 H2   HT     0.417000        1.0080           0
   82699 WT5  3083 TIP3 OH2  OT    -0.834000       15.9994           0
   82700 WT5  3083 TIP3 H1   HT     0.417000        1.0080           0
   82701 WT5  3083 TIP3 H2   HT     0.417000        1.0080           0
   82702 WT5  3084 TIP3 OH2  OT    -0.834000       15.9994           0
   82703 WT5  3084 TIP3 H1   HT     0.417000        1.0080           0
   82704 WT5  3084 TIP3 H2   HT     0.417000        1.0080           0
   82705 WT5  3085 TIP3 OH2  OT    -0.834000       15.9994           0
   82706 WT5  3085 TIP3 H1   HT     0.417000        1.0080           0
   82707 WT5  3085 TIP3 H2   HT     0.417000        1.0080           0
   82708 WT5  3086 TIP3 OH2  OT    -0.834000       15.9994           0
   82709 WT5  3086 TIP3 H1   HT     0.417000        1.0080           0
   82710 WT5  3086 TIP3 H2   HT     0.417000        1.0080           0
   82711 WT5  3087 TIP3 OH2  OT    -0.834000       15.9994           0
   82712 WT5  3087 TIP3 H1   HT     0.417000        1.0080           0
   82713 WT5  3087 TIP3 H2   HT     0.417000        1.0080           0
   82714 WT5  3088 TIP3 OH2  OT    -0.834000       15.9994           0
   82715 WT5  3088 TIP3 H1   HT     0.417000        1.0080           0
   82716 WT5  3088 TIP3 H2   HT     0.417000        1.0080           0
   82717 WT5  3089 TIP3 OH2  OT    -0.834000       15.9994           0
   82718 WT5  3089 TIP3 H1   HT     0.417000        1.0080           0
   82719 WT5  3089 TIP3 H2   HT     0.417000        1.0080           0
   82720 WT5  3090 TIP3 OH2  OT    -0.834000       15.9994           0
   82721 WT5  3090 TIP3 H1   HT     0.417000        1.0080           0
   82722 WT5  3090 TIP3 H2   HT     0.417000        1.0080           0
   82723 WT5  3091 TIP3 OH2  OT    -0.834000       15.9994           0
   82724 WT5  3091 TIP3 H1   HT     0.417000        1.0080           0
   82725 WT5  3091 TIP3 H2   HT     0.417000        1.0080           0
   82726 WT5  3092 TIP3 OH2  OT    -0.834000       15.9994           0
   82727 WT5  3092 TIP3 H1   HT     0.417000        1.0080           0
   82728 WT5  3092 TIP3 H2   HT     0.417000        1.0080           0
   82729 WT5  3093 TIP3 OH2  OT    -0.834000       15.9994           0
   82730 WT5  3093 TIP3 H1   HT     0.417000        1.0080           0
   82731 WT5  3093 TIP3 H2   HT     0.417000        1.0080           0
   82732 WT5  3094 TIP3 OH2  OT    -0.834000       15.9994           0
   82733 WT5  3094 TIP3 H1   HT     0.417000        1.0080           0
   82734 WT5  3094 TIP3 H2   HT     0.417000        1.0080           0
   82735 WT5  3095 TIP3 OH2  OT    -0.834000       15.9994           0
   82736 WT5  3095 TIP3 H1   HT     0.417000        1.0080           0
   82737 WT5  3095 TIP3 H2   HT     0.417000        1.0080           0
   82738 WT5  3096 TIP3 OH2  OT    -0.834000       15.9994           0
   82739 WT5  3096 TIP3 H1   HT     0.417000        1.0080           0
   82740 WT5  3096 TIP3 H2   HT     0.417000        1.0080           0
   82741 WT5  3097 TIP3 OH2  OT    -0.834000       15.9994           0
   82742 WT5  3097 TIP3 H1   HT     0.417000        1.0080           0
   82743 WT5  3097 TIP3 H2   HT     0.417000        1.0080           0
   82744 WT5  3098 TIP3 OH2  OT    -0.834000       15.9994           0
   82745 WT5  3098 TIP3 H1   HT     0.417000        1.0080           0
   82746 WT5  3098 TIP3 H2   HT     0.417000        1.0080           0
   82747 WT5  3100 TIP3 OH2  OT    -0.834000       15.9994           0
   82748 WT5  3100 TIP3 H1   HT     0.417000        1.0080           0
   82749 WT5  3100 TIP3 H2   HT     0.417000        1.0080           0
   82750 WT5  3102 TIP3 OH2  OT    -0.834000       15.9994           0
   82751 WT5  3102 TIP3 H1   HT     0.417000        1.0080           0
   82752 WT5  3102 TIP3 H2   HT     0.417000        1.0080           0
   82753 WT5  3103 TIP3 OH2  OT    -0.834000       15.9994           0
   82754 WT5  3103 TIP3 H1   HT     0.417000        1.0080           0
   82755 WT5  3103 TIP3 H2   HT     0.417000        1.0080           0
   82756 WT5  3104 TIP3 OH2  OT    -0.834000       15.9994           0
   82757 WT5  3104 TIP3 H1   HT     0.417000        1.0080           0
   82758 WT5  3104 TIP3 H2   HT     0.417000        1.0080           0
   82759 WT5  3106 TIP3 OH2  OT    -0.834000       15.9994           0
   82760 WT5  3106 TIP3 H1   HT     0.417000        1.0080           0
   82761 WT5  3106 TIP3 H2   HT     0.417000        1.0080           0
   82762 WT5  3107 TIP3 OH2  OT    -0.834000       15.9994           0
   82763 WT5  3107 TIP3 H1   HT     0.417000        1.0080           0
   82764 WT5  3107 TIP3 H2   HT     0.417000        1.0080           0
   82765 WT5  3108 TIP3 OH2  OT    -0.834000       15.9994           0
   82766 WT5  3108 TIP3 H1   HT     0.417000        1.0080           0
   82767 WT5  3108 TIP3 H2   HT     0.417000        1.0080           0
   82768 WT5  3109 TIP3 OH2  OT    -0.834000       15.9994           0
   82769 WT5  3109 TIP3 H1   HT     0.417000        1.0080           0
   82770 WT5  3109 TIP3 H2   HT     0.417000        1.0080           0
   82771 WT5  3110 TIP3 OH2  OT    -0.834000       15.9994           0
   82772 WT5  3110 TIP3 H1   HT     0.417000        1.0080           0
   82773 WT5  3110 TIP3 H2   HT     0.417000        1.0080           0
   82774 WT5  3111 TIP3 OH2  OT    -0.834000       15.9994           0
   82775 WT5  3111 TIP3 H1   HT     0.417000        1.0080           0
   82776 WT5  3111 TIP3 H2   HT     0.417000        1.0080           0
   82777 WT5  3112 TIP3 OH2  OT    -0.834000       15.9994           0
   82778 WT5  3112 TIP3 H1   HT     0.417000        1.0080           0
   82779 WT5  3112 TIP3 H2   HT     0.417000        1.0080           0
   82780 WT5  3113 TIP3 OH2  OT    -0.834000       15.9994           0
   82781 WT5  3113 TIP3 H1   HT     0.417000        1.0080           0
   82782 WT5  3113 TIP3 H2   HT     0.417000        1.0080           0
   82783 WT5  3114 TIP3 OH2  OT    -0.834000       15.9994           0
   82784 WT5  3114 TIP3 H1   HT     0.417000        1.0080           0
   82785 WT5  3114 TIP3 H2   HT     0.417000        1.0080           0
   82786 WT5  3115 TIP3 OH2  OT    -0.834000       15.9994           0
   82787 WT5  3115 TIP3 H1   HT     0.417000        1.0080           0
   82788 WT5  3115 TIP3 H2   HT     0.417000        1.0080           0
   82789 WT5  3116 TIP3 OH2  OT    -0.834000       15.9994           0
   82790 WT5  3116 TIP3 H1   HT     0.417000        1.0080           0
   82791 WT5  3116 TIP3 H2   HT     0.417000        1.0080           0
   82792 WT5  3118 TIP3 OH2  OT    -0.834000       15.9994           0
   82793 WT5  3118 TIP3 H1   HT     0.417000        1.0080           0
   82794 WT5  3118 TIP3 H2   HT     0.417000        1.0080           0
   82795 WT5  3119 TIP3 OH2  OT    -0.834000       15.9994           0
   82796 WT5  3119 TIP3 H1   HT     0.417000        1.0080           0
   82797 WT5  3119 TIP3 H2   HT     0.417000        1.0080           0
   82798 WT5  3120 TIP3 OH2  OT    -0.834000       15.9994           0
   82799 WT5  3120 TIP3 H1   HT     0.417000        1.0080           0
   82800 WT5  3120 TIP3 H2   HT     0.417000        1.0080           0
   82801 WT5  3121 TIP3 OH2  OT    -0.834000       15.9994           0
   82802 WT5  3121 TIP3 H1   HT     0.417000        1.0080           0
   82803 WT5  3121 TIP3 H2   HT     0.417000        1.0080           0
   82804 WT5  3122 TIP3 OH2  OT    -0.834000       15.9994           0
   82805 WT5  3122 TIP3 H1   HT     0.417000        1.0080           0
   82806 WT5  3122 TIP3 H2   HT     0.417000        1.0080           0
   82807 WT5  3128 TIP3 OH2  OT    -0.834000       15.9994           0
   82808 WT5  3128 TIP3 H1   HT     0.417000        1.0080           0
   82809 WT5  3128 TIP3 H2   HT     0.417000        1.0080           0
   82810 WT5  3129 TIP3 OH2  OT    -0.834000       15.9994           0
   82811 WT5  3129 TIP3 H1   HT     0.417000        1.0080           0
   82812 WT5  3129 TIP3 H2   HT     0.417000        1.0080           0
   82813 WT5  3131 TIP3 OH2  OT    -0.834000       15.9994           0
   82814 WT5  3131 TIP3 H1   HT     0.417000        1.0080           0
   82815 WT5  3131 TIP3 H2   HT     0.417000        1.0080           0
   82816 WT5  3132 TIP3 OH2  OT    -0.834000       15.9994           0
   82817 WT5  3132 TIP3 H1   HT     0.417000        1.0080           0
   82818 WT5  3132 TIP3 H2   HT     0.417000        1.0080           0
   82819 WT5  3134 TIP3 OH2  OT    -0.834000       15.9994           0
   82820 WT5  3134 TIP3 H1   HT     0.417000        1.0080           0
   82821 WT5  3134 TIP3 H2   HT     0.417000        1.0080           0
   82822 WT5  3136 TIP3 OH2  OT    -0.834000       15.9994           0
   82823 WT5  3136 TIP3 H1   HT     0.417000        1.0080           0
   82824 WT5  3136 TIP3 H2   HT     0.417000        1.0080           0
   82825 WT5  3137 TIP3 OH2  OT    -0.834000       15.9994           0
   82826 WT5  3137 TIP3 H1   HT     0.417000        1.0080           0
   82827 WT5  3137 TIP3 H2   HT     0.417000        1.0080           0
   82828 WT5  3138 TIP3 OH2  OT    -0.834000       15.9994           0
   82829 WT5  3138 TIP3 H1   HT     0.417000        1.0080           0
   82830 WT5  3138 TIP3 H2   HT     0.417000        1.0080           0
   82831 WT5  3139 TIP3 OH2  OT    -0.834000       15.9994           0
   82832 WT5  3139 TIP3 H1   HT     0.417000        1.0080           0
   82833 WT5  3139 TIP3 H2   HT     0.417000        1.0080           0
   82834 WT5  3140 TIP3 OH2  OT    -0.834000       15.9994           0
   82835 WT5  3140 TIP3 H1   HT     0.417000        1.0080           0
   82836 WT5  3140 TIP3 H2   HT     0.417000        1.0080           0
   82837 WT5  3142 TIP3 OH2  OT    -0.834000       15.9994           0
   82838 WT5  3142 TIP3 H1   HT     0.417000        1.0080           0
   82839 WT5  3142 TIP3 H2   HT     0.417000        1.0080           0
   82840 WT5  3143 TIP3 OH2  OT    -0.834000       15.9994           0
   82841 WT5  3143 TIP3 H1   HT     0.417000        1.0080           0
   82842 WT5  3143 TIP3 H2   HT     0.417000        1.0080           0
   82843 WT5  3144 TIP3 OH2  OT    -0.834000       15.9994           0
   82844 WT5  3144 TIP3 H1   HT     0.417000        1.0080           0
   82845 WT5  3144 TIP3 H2   HT     0.417000        1.0080           0
   82846 WT5  3145 TIP3 OH2  OT    -0.834000       15.9994           0
   82847 WT5  3145 TIP3 H1   HT     0.417000        1.0080           0
   82848 WT5  3145 TIP3 H2   HT     0.417000        1.0080           0
   82849 WT5  3148 TIP3 OH2  OT    -0.834000       15.9994           0
   82850 WT5  3148 TIP3 H1   HT     0.417000        1.0080           0
   82851 WT5  3148 TIP3 H2   HT     0.417000        1.0080           0
   82852 WT5  3150 TIP3 OH2  OT    -0.834000       15.9994           0
   82853 WT5  3150 TIP3 H1   HT     0.417000        1.0080           0
   82854 WT5  3150 TIP3 H2   HT     0.417000        1.0080           0
   82855 WT5  3152 TIP3 OH2  OT    -0.834000       15.9994           0
   82856 WT5  3152 TIP3 H1   HT     0.417000        1.0080           0
   82857 WT5  3152 TIP3 H2   HT     0.417000        1.0080           0
   82858 WT5  3153 TIP3 OH2  OT    -0.834000       15.9994           0
   82859 WT5  3153 TIP3 H1   HT     0.417000        1.0080           0
   82860 WT5  3153 TIP3 H2   HT     0.417000        1.0080           0
   82861 WT5  3154 TIP3 OH2  OT    -0.834000       15.9994           0
   82862 WT5  3154 TIP3 H1   HT     0.417000        1.0080           0
   82863 WT5  3154 TIP3 H2   HT     0.417000        1.0080           0
   82864 WT5  3155 TIP3 OH2  OT    -0.834000       15.9994           0
   82865 WT5  3155 TIP3 H1   HT     0.417000        1.0080           0
   82866 WT5  3155 TIP3 H2   HT     0.417000        1.0080           0
   82867 WT5  3156 TIP3 OH2  OT    -0.834000       15.9994           0
   82868 WT5  3156 TIP3 H1   HT     0.417000        1.0080           0
   82869 WT5  3156 TIP3 H2   HT     0.417000        1.0080           0
   82870 WT5  3157 TIP3 OH2  OT    -0.834000       15.9994           0
   82871 WT5  3157 TIP3 H1   HT     0.417000        1.0080           0
   82872 WT5  3157 TIP3 H2   HT     0.417000        1.0080           0
   82873 WT5  3158 TIP3 OH2  OT    -0.834000       15.9994           0
   82874 WT5  3158 TIP3 H1   HT     0.417000        1.0080           0
   82875 WT5  3158 TIP3 H2   HT     0.417000        1.0080           0
   82876 WT5  3159 TIP3 OH2  OT    -0.834000       15.9994           0
   82877 WT5  3159 TIP3 H1   HT     0.417000        1.0080           0
   82878 WT5  3159 TIP3 H2   HT     0.417000        1.0080           0
   82879 WT5  3160 TIP3 OH2  OT    -0.834000       15.9994           0
   82880 WT5  3160 TIP3 H1   HT     0.417000        1.0080           0
   82881 WT5  3160 TIP3 H2   HT     0.417000        1.0080           0
   82882 WT5  3161 TIP3 OH2  OT    -0.834000       15.9994           0
   82883 WT5  3161 TIP3 H1   HT     0.417000        1.0080           0
   82884 WT5  3161 TIP3 H2   HT     0.417000        1.0080           0
   82885 WT5  3163 TIP3 OH2  OT    -0.834000       15.9994           0
   82886 WT5  3163 TIP3 H1   HT     0.417000        1.0080           0
   82887 WT5  3163 TIP3 H2   HT     0.417000        1.0080           0
   82888 WT5  3164 TIP3 OH2  OT    -0.834000       15.9994           0
   82889 WT5  3164 TIP3 H1   HT     0.417000        1.0080           0
   82890 WT5  3164 TIP3 H2   HT     0.417000        1.0080           0
   82891 WT5  3165 TIP3 OH2  OT    -0.834000       15.9994           0
   82892 WT5  3165 TIP3 H1   HT     0.417000        1.0080           0
   82893 WT5  3165 TIP3 H2   HT     0.417000        1.0080           0
   82894 WT5  3166 TIP3 OH2  OT    -0.834000       15.9994           0
   82895 WT5  3166 TIP3 H1   HT     0.417000        1.0080           0
   82896 WT5  3166 TIP3 H2   HT     0.417000        1.0080           0
   82897 WT5  3167 TIP3 OH2  OT    -0.834000       15.9994           0
   82898 WT5  3167 TIP3 H1   HT     0.417000        1.0080           0
   82899 WT5  3167 TIP3 H2   HT     0.417000        1.0080           0
   82900 WT5  3169 TIP3 OH2  OT    -0.834000       15.9994           0
   82901 WT5  3169 TIP3 H1   HT     0.417000        1.0080           0
   82902 WT5  3169 TIP3 H2   HT     0.417000        1.0080           0
   82903 WT5  3171 TIP3 OH2  OT    -0.834000       15.9994           0
   82904 WT5  3171 TIP3 H1   HT     0.417000        1.0080           0
   82905 WT5  3171 TIP3 H2   HT     0.417000        1.0080           0
   82906 WT5  3172 TIP3 OH2  OT    -0.834000       15.9994           0
   82907 WT5  3172 TIP3 H1   HT     0.417000        1.0080           0
   82908 WT5  3172 TIP3 H2   HT     0.417000        1.0080           0
   82909 WT5  3173 TIP3 OH2  OT    -0.834000       15.9994           0
   82910 WT5  3173 TIP3 H1   HT     0.417000        1.0080           0
   82911 WT5  3173 TIP3 H2   HT     0.417000        1.0080           0
   82912 WT5  3174 TIP3 OH2  OT    -0.834000       15.9994           0
   82913 WT5  3174 TIP3 H1   HT     0.417000        1.0080           0
   82914 WT5  3174 TIP3 H2   HT     0.417000        1.0080           0
   82915 WT5  3175 TIP3 OH2  OT    -0.834000       15.9994           0
   82916 WT5  3175 TIP3 H1   HT     0.417000        1.0080           0
   82917 WT5  3175 TIP3 H2   HT     0.417000        1.0080           0
   82918 WT5  3176 TIP3 OH2  OT    -0.834000       15.9994           0
   82919 WT5  3176 TIP3 H1   HT     0.417000        1.0080           0
   82920 WT5  3176 TIP3 H2   HT     0.417000        1.0080           0
   82921 WT5  3177 TIP3 OH2  OT    -0.834000       15.9994           0
   82922 WT5  3177 TIP3 H1   HT     0.417000        1.0080           0
   82923 WT5  3177 TIP3 H2   HT     0.417000        1.0080           0
   82924 WT5  3178 TIP3 OH2  OT    -0.834000       15.9994           0
   82925 WT5  3178 TIP3 H1   HT     0.417000        1.0080           0
   82926 WT5  3178 TIP3 H2   HT     0.417000        1.0080           0
   82927 WT5  3179 TIP3 OH2  OT    -0.834000       15.9994           0
   82928 WT5  3179 TIP3 H1   HT     0.417000        1.0080           0
   82929 WT5  3179 TIP3 H2   HT     0.417000        1.0080           0
   82930 WT5  3180 TIP3 OH2  OT    -0.834000       15.9994           0
   82931 WT5  3180 TIP3 H1   HT     0.417000        1.0080           0
   82932 WT5  3180 TIP3 H2   HT     0.417000        1.0080           0
   82933 WT5  3181 TIP3 OH2  OT    -0.834000       15.9994           0
   82934 WT5  3181 TIP3 H1   HT     0.417000        1.0080           0
   82935 WT5  3181 TIP3 H2   HT     0.417000        1.0080           0
   82936 WT5  3182 TIP3 OH2  OT    -0.834000       15.9994           0
   82937 WT5  3182 TIP3 H1   HT     0.417000        1.0080           0
   82938 WT5  3182 TIP3 H2   HT     0.417000        1.0080           0
   82939 WT5  3183 TIP3 OH2  OT    -0.834000       15.9994           0
   82940 WT5  3183 TIP3 H1   HT     0.417000        1.0080           0
   82941 WT5  3183 TIP3 H2   HT     0.417000        1.0080           0
   82942 WT5  3184 TIP3 OH2  OT    -0.834000       15.9994           0
   82943 WT5  3184 TIP3 H1   HT     0.417000        1.0080           0
   82944 WT5  3184 TIP3 H2   HT     0.417000        1.0080           0
   82945 WT5  3185 TIP3 OH2  OT    -0.834000       15.9994           0
   82946 WT5  3185 TIP3 H1   HT     0.417000        1.0080           0
   82947 WT5  3185 TIP3 H2   HT     0.417000        1.0080           0
   82948 WT5  3186 TIP3 OH2  OT    -0.834000       15.9994           0
   82949 WT5  3186 TIP3 H1   HT     0.417000        1.0080           0
   82950 WT5  3186 TIP3 H2   HT     0.417000        1.0080           0
   82951 WT5  3187 TIP3 OH2  OT    -0.834000       15.9994           0
   82952 WT5  3187 TIP3 H1   HT     0.417000        1.0080           0
   82953 WT5  3187 TIP3 H2   HT     0.417000        1.0080           0
   82954 WT5  3189 TIP3 OH2  OT    -0.834000       15.9994           0
   82955 WT5  3189 TIP3 H1   HT     0.417000        1.0080           0
   82956 WT5  3189 TIP3 H2   HT     0.417000        1.0080           0
   82957 WT5  3190 TIP3 OH2  OT    -0.834000       15.9994           0
   82958 WT5  3190 TIP3 H1   HT     0.417000        1.0080           0
   82959 WT5  3190 TIP3 H2   HT     0.417000        1.0080           0
   82960 WT5  3191 TIP3 OH2  OT    -0.834000       15.9994           0
   82961 WT5  3191 TIP3 H1   HT     0.417000        1.0080           0
   82962 WT5  3191 TIP3 H2   HT     0.417000        1.0080           0
   82963 WT5  3192 TIP3 OH2  OT    -0.834000       15.9994           0
   82964 WT5  3192 TIP3 H1   HT     0.417000        1.0080           0
   82965 WT5  3192 TIP3 H2   HT     0.417000        1.0080           0
   82966 WT5  3193 TIP3 OH2  OT    -0.834000       15.9994           0
   82967 WT5  3193 TIP3 H1   HT     0.417000        1.0080           0
   82968 WT5  3193 TIP3 H2   HT     0.417000        1.0080           0
   82969 WT5  3194 TIP3 OH2  OT    -0.834000       15.9994           0
   82970 WT5  3194 TIP3 H1   HT     0.417000        1.0080           0
   82971 WT5  3194 TIP3 H2   HT     0.417000        1.0080           0
   82972 WT5  3195 TIP3 OH2  OT    -0.834000       15.9994           0
   82973 WT5  3195 TIP3 H1   HT     0.417000        1.0080           0
   82974 WT5  3195 TIP3 H2   HT     0.417000        1.0080           0
   82975 WT5  3196 TIP3 OH2  OT    -0.834000       15.9994           0
   82976 WT5  3196 TIP3 H1   HT     0.417000        1.0080           0
   82977 WT5  3196 TIP3 H2   HT     0.417000        1.0080           0
   82978 WT5  3197 TIP3 OH2  OT    -0.834000       15.9994           0
   82979 WT5  3197 TIP3 H1   HT     0.417000        1.0080           0
   82980 WT5  3197 TIP3 H2   HT     0.417000        1.0080           0
   82981 WT5  3198 TIP3 OH2  OT    -0.834000       15.9994           0
   82982 WT5  3198 TIP3 H1   HT     0.417000        1.0080           0
   82983 WT5  3198 TIP3 H2   HT     0.417000        1.0080           0
   82984 WT5  3199 TIP3 OH2  OT    -0.834000       15.9994           0
   82985 WT5  3199 TIP3 H1   HT     0.417000        1.0080           0
   82986 WT5  3199 TIP3 H2   HT     0.417000        1.0080           0
   82987 WT5  3200 TIP3 OH2  OT    -0.834000       15.9994           0
   82988 WT5  3200 TIP3 H1   HT     0.417000        1.0080           0
   82989 WT5  3200 TIP3 H2   HT     0.417000        1.0080           0
   82990 WT5  3201 TIP3 OH2  OT    -0.834000       15.9994           0
   82991 WT5  3201 TIP3 H1   HT     0.417000        1.0080           0
   82992 WT5  3201 TIP3 H2   HT     0.417000        1.0080           0
   82993 WT5  3202 TIP3 OH2  OT    -0.834000       15.9994           0
   82994 WT5  3202 TIP3 H1   HT     0.417000        1.0080           0
   82995 WT5  3202 TIP3 H2   HT     0.417000        1.0080           0
   82996 WT5  3203 TIP3 OH2  OT    -0.834000       15.9994           0
   82997 WT5  3203 TIP3 H1   HT     0.417000        1.0080           0
   82998 WT5  3203 TIP3 H2   HT     0.417000        1.0080           0
   82999 WT5  3204 TIP3 OH2  OT    -0.834000       15.9994           0
   83000 WT5  3204 TIP3 H1   HT     0.417000        1.0080           0
   83001 WT5  3204 TIP3 H2   HT     0.417000        1.0080           0
   83002 WT5  3205 TIP3 OH2  OT    -0.834000       15.9994           0
   83003 WT5  3205 TIP3 H1   HT     0.417000        1.0080           0
   83004 WT5  3205 TIP3 H2   HT     0.417000        1.0080           0
   83005 WT5  3207 TIP3 OH2  OT    -0.834000       15.9994           0
   83006 WT5  3207 TIP3 H1   HT     0.417000        1.0080           0
   83007 WT5  3207 TIP3 H2   HT     0.417000        1.0080           0
   83008 WT5  3208 TIP3 OH2  OT    -0.834000       15.9994           0
   83009 WT5  3208 TIP3 H1   HT     0.417000        1.0080           0
   83010 WT5  3208 TIP3 H2   HT     0.417000        1.0080           0
   83011 WT5  3209 TIP3 OH2  OT    -0.834000       15.9994           0
   83012 WT5  3209 TIP3 H1   HT     0.417000        1.0080           0
   83013 WT5  3209 TIP3 H2   HT     0.417000        1.0080           0
   83014 WT5  3210 TIP3 OH2  OT    -0.834000       15.9994           0
   83015 WT5  3210 TIP3 H1   HT     0.417000        1.0080           0
   83016 WT5  3210 TIP3 H2   HT     0.417000        1.0080           0
   83017 WT5  3211 TIP3 OH2  OT    -0.834000       15.9994           0
   83018 WT5  3211 TIP3 H1   HT     0.417000        1.0080           0
   83019 WT5  3211 TIP3 H2   HT     0.417000        1.0080           0
   83020 WT5  3212 TIP3 OH2  OT    -0.834000       15.9994           0
   83021 WT5  3212 TIP3 H1   HT     0.417000        1.0080           0
   83022 WT5  3212 TIP3 H2   HT     0.417000        1.0080           0
   83023 WT5  3214 TIP3 OH2  OT    -0.834000       15.9994           0
   83024 WT5  3214 TIP3 H1   HT     0.417000        1.0080           0
   83025 WT5  3214 TIP3 H2   HT     0.417000        1.0080           0
   83026 WT5  3215 TIP3 OH2  OT    -0.834000       15.9994           0
   83027 WT5  3215 TIP3 H1   HT     0.417000        1.0080           0
   83028 WT5  3215 TIP3 H2   HT     0.417000        1.0080           0
   83029 WT5  3216 TIP3 OH2  OT    -0.834000       15.9994           0
   83030 WT5  3216 TIP3 H1   HT     0.417000        1.0080           0
   83031 WT5  3216 TIP3 H2   HT     0.417000        1.0080           0
   83032 WT5  3217 TIP3 OH2  OT    -0.834000       15.9994           0
   83033 WT5  3217 TIP3 H1   HT     0.417000        1.0080           0
   83034 WT5  3217 TIP3 H2   HT     0.417000        1.0080           0
   83035 WT5  3218 TIP3 OH2  OT    -0.834000       15.9994           0
   83036 WT5  3218 TIP3 H1   HT     0.417000        1.0080           0
   83037 WT5  3218 TIP3 H2   HT     0.417000        1.0080           0
   83038 WT5  3219 TIP3 OH2  OT    -0.834000       15.9994           0
   83039 WT5  3219 TIP3 H1   HT     0.417000        1.0080           0
   83040 WT5  3219 TIP3 H2   HT     0.417000        1.0080           0
   83041 WT5  3220 TIP3 OH2  OT    -0.834000       15.9994           0
   83042 WT5  3220 TIP3 H1   HT     0.417000        1.0080           0
   83043 WT5  3220 TIP3 H2   HT     0.417000        1.0080           0
   83044 WT5  3221 TIP3 OH2  OT    -0.834000       15.9994           0
   83045 WT5  3221 TIP3 H1   HT     0.417000        1.0080           0
   83046 WT5  3221 TIP3 H2   HT     0.417000        1.0080           0
   83047 WT5  3222 TIP3 OH2  OT    -0.834000       15.9994           0
   83048 WT5  3222 TIP3 H1   HT     0.417000        1.0080           0
   83049 WT5  3222 TIP3 H2   HT     0.417000        1.0080           0
   83050 WT5  3223 TIP3 OH2  OT    -0.834000       15.9994           0
   83051 WT5  3223 TIP3 H1   HT     0.417000        1.0080           0
   83052 WT5  3223 TIP3 H2   HT     0.417000        1.0080           0
   83053 WT5  3224 TIP3 OH2  OT    -0.834000       15.9994           0
   83054 WT5  3224 TIP3 H1   HT     0.417000        1.0080           0
   83055 WT5  3224 TIP3 H2   HT     0.417000        1.0080           0
   83056 WT5  3225 TIP3 OH2  OT    -0.834000       15.9994           0
   83057 WT5  3225 TIP3 H1   HT     0.417000        1.0080           0
   83058 WT5  3225 TIP3 H2   HT     0.417000        1.0080           0
   83059 WT5  3226 TIP3 OH2  OT    -0.834000       15.9994           0
   83060 WT5  3226 TIP3 H1   HT     0.417000        1.0080           0
   83061 WT5  3226 TIP3 H2   HT     0.417000        1.0080           0
   83062 WT5  3227 TIP3 OH2  OT    -0.834000       15.9994           0
   83063 WT5  3227 TIP3 H1   HT     0.417000        1.0080           0
   83064 WT5  3227 TIP3 H2   HT     0.417000        1.0080           0
   83065 WT5  3228 TIP3 OH2  OT    -0.834000       15.9994           0
   83066 WT5  3228 TIP3 H1   HT     0.417000        1.0080           0
   83067 WT5  3228 TIP3 H2   HT     0.417000        1.0080           0
   83068 WT5  3229 TIP3 OH2  OT    -0.834000       15.9994           0
   83069 WT5  3229 TIP3 H1   HT     0.417000        1.0080           0
   83070 WT5  3229 TIP3 H2   HT     0.417000        1.0080           0
   83071 WT5  3232 TIP3 OH2  OT    -0.834000       15.9994           0
   83072 WT5  3232 TIP3 H1   HT     0.417000        1.0080           0
   83073 WT5  3232 TIP3 H2   HT     0.417000        1.0080           0
   83074 WT5  3233 TIP3 OH2  OT    -0.834000       15.9994           0
   83075 WT5  3233 TIP3 H1   HT     0.417000        1.0080           0
   83076 WT5  3233 TIP3 H2   HT     0.417000        1.0080           0
   83077 WT5  3234 TIP3 OH2  OT    -0.834000       15.9994           0
   83078 WT5  3234 TIP3 H1   HT     0.417000        1.0080           0
   83079 WT5  3234 TIP3 H2   HT     0.417000        1.0080           0
   83080 WT5  3235 TIP3 OH2  OT    -0.834000       15.9994           0
   83081 WT5  3235 TIP3 H1   HT     0.417000        1.0080           0
   83082 WT5  3235 TIP3 H2   HT     0.417000        1.0080           0
   83083 WT5  3236 TIP3 OH2  OT    -0.834000       15.9994           0
   83084 WT5  3236 TIP3 H1   HT     0.417000        1.0080           0
   83085 WT5  3236 TIP3 H2   HT     0.417000        1.0080           0
   83086 WT5  3237 TIP3 OH2  OT    -0.834000       15.9994           0
   83087 WT5  3237 TIP3 H1   HT     0.417000        1.0080           0
   83088 WT5  3237 TIP3 H2   HT     0.417000        1.0080           0
   83089 WT5  3238 TIP3 OH2  OT    -0.834000       15.9994           0
   83090 WT5  3238 TIP3 H1   HT     0.417000        1.0080           0
   83091 WT5  3238 TIP3 H2   HT     0.417000        1.0080           0
   83092 WT5  3239 TIP3 OH2  OT    -0.834000       15.9994           0
   83093 WT5  3239 TIP3 H1   HT     0.417000        1.0080           0
   83094 WT5  3239 TIP3 H2   HT     0.417000        1.0080           0
   83095 WT5  3240 TIP3 OH2  OT    -0.834000       15.9994           0
   83096 WT5  3240 TIP3 H1   HT     0.417000        1.0080           0
   83097 WT5  3240 TIP3 H2   HT     0.417000        1.0080           0
   83098 WT5  3241 TIP3 OH2  OT    -0.834000       15.9994           0
   83099 WT5  3241 TIP3 H1   HT     0.417000        1.0080           0
   83100 WT5  3241 TIP3 H2   HT     0.417000        1.0080           0
   83101 WT5  3242 TIP3 OH2  OT    -0.834000       15.9994           0
   83102 WT5  3242 TIP3 H1   HT     0.417000        1.0080           0
   83103 WT5  3242 TIP3 H2   HT     0.417000        1.0080           0
   83104 WT5  3243 TIP3 OH2  OT    -0.834000       15.9994           0
   83105 WT5  3243 TIP3 H1   HT     0.417000        1.0080           0
   83106 WT5  3243 TIP3 H2   HT     0.417000        1.0080           0
   83107 WT5  3244 TIP3 OH2  OT    -0.834000       15.9994           0
   83108 WT5  3244 TIP3 H1   HT     0.417000        1.0080           0
   83109 WT5  3244 TIP3 H2   HT     0.417000        1.0080           0
   83110 WT5  3245 TIP3 OH2  OT    -0.834000       15.9994           0
   83111 WT5  3245 TIP3 H1   HT     0.417000        1.0080           0
   83112 WT5  3245 TIP3 H2   HT     0.417000        1.0080           0
   83113 WT5  3246 TIP3 OH2  OT    -0.834000       15.9994           0
   83114 WT5  3246 TIP3 H1   HT     0.417000        1.0080           0
   83115 WT5  3246 TIP3 H2   HT     0.417000        1.0080           0
   83116 WT5  3247 TIP3 OH2  OT    -0.834000       15.9994           0
   83117 WT5  3247 TIP3 H1   HT     0.417000        1.0080           0
   83118 WT5  3247 TIP3 H2   HT     0.417000        1.0080           0
   83119 WT5  3248 TIP3 OH2  OT    -0.834000       15.9994           0
   83120 WT5  3248 TIP3 H1   HT     0.417000        1.0080           0
   83121 WT5  3248 TIP3 H2   HT     0.417000        1.0080           0
   83122 WT5  3249 TIP3 OH2  OT    -0.834000       15.9994           0
   83123 WT5  3249 TIP3 H1   HT     0.417000        1.0080           0
   83124 WT5  3249 TIP3 H2   HT     0.417000        1.0080           0
   83125 WT5  3250 TIP3 OH2  OT    -0.834000       15.9994           0
   83126 WT5  3250 TIP3 H1   HT     0.417000        1.0080           0
   83127 WT5  3250 TIP3 H2   HT     0.417000        1.0080           0
   83128 WT5  3251 TIP3 OH2  OT    -0.834000       15.9994           0
   83129 WT5  3251 TIP3 H1   HT     0.417000        1.0080           0
   83130 WT5  3251 TIP3 H2   HT     0.417000        1.0080           0
   83131 WT5  3252 TIP3 OH2  OT    -0.834000       15.9994           0
   83132 WT5  3252 TIP3 H1   HT     0.417000        1.0080           0
   83133 WT5  3252 TIP3 H2   HT     0.417000        1.0080           0
   83134 WT5  3253 TIP3 OH2  OT    -0.834000       15.9994           0
   83135 WT5  3253 TIP3 H1   HT     0.417000        1.0080           0
   83136 WT5  3253 TIP3 H2   HT     0.417000        1.0080           0
   83137 WT5  3254 TIP3 OH2  OT    -0.834000       15.9994           0
   83138 WT5  3254 TIP3 H1   HT     0.417000        1.0080           0
   83139 WT5  3254 TIP3 H2   HT     0.417000        1.0080           0
   83140 WT5  3257 TIP3 OH2  OT    -0.834000       15.9994           0
   83141 WT5  3257 TIP3 H1   HT     0.417000        1.0080           0
   83142 WT5  3257 TIP3 H2   HT     0.417000        1.0080           0
   83143 WT5  3258 TIP3 OH2  OT    -0.834000       15.9994           0
   83144 WT5  3258 TIP3 H1   HT     0.417000        1.0080           0
   83145 WT5  3258 TIP3 H2   HT     0.417000        1.0080           0
   83146 WT5  3259 TIP3 OH2  OT    -0.834000       15.9994           0
   83147 WT5  3259 TIP3 H1   HT     0.417000        1.0080           0
   83148 WT5  3259 TIP3 H2   HT     0.417000        1.0080           0
   83149 WT5  3260 TIP3 OH2  OT    -0.834000       15.9994           0
   83150 WT5  3260 TIP3 H1   HT     0.417000        1.0080           0
   83151 WT5  3260 TIP3 H2   HT     0.417000        1.0080           0
   83152 WT5  3261 TIP3 OH2  OT    -0.834000       15.9994           0
   83153 WT5  3261 TIP3 H1   HT     0.417000        1.0080           0
   83154 WT5  3261 TIP3 H2   HT     0.417000        1.0080           0
   83155 WT5  3262 TIP3 OH2  OT    -0.834000       15.9994           0
   83156 WT5  3262 TIP3 H1   HT     0.417000        1.0080           0
   83157 WT5  3262 TIP3 H2   HT     0.417000        1.0080           0
   83158 WT5  3263 TIP3 OH2  OT    -0.834000       15.9994           0
   83159 WT5  3263 TIP3 H1   HT     0.417000        1.0080           0
   83160 WT5  3263 TIP3 H2   HT     0.417000        1.0080           0
   83161 WT5  3264 TIP3 OH2  OT    -0.834000       15.9994           0
   83162 WT5  3264 TIP3 H1   HT     0.417000        1.0080           0
   83163 WT5  3264 TIP3 H2   HT     0.417000        1.0080           0
   83164 WT5  3265 TIP3 OH2  OT    -0.834000       15.9994           0
   83165 WT5  3265 TIP3 H1   HT     0.417000        1.0080           0
   83166 WT5  3265 TIP3 H2   HT     0.417000        1.0080           0
   83167 WT5  3266 TIP3 OH2  OT    -0.834000       15.9994           0
   83168 WT5  3266 TIP3 H1   HT     0.417000        1.0080           0
   83169 WT5  3266 TIP3 H2   HT     0.417000        1.0080           0
   83170 WT5  3267 TIP3 OH2  OT    -0.834000       15.9994           0
   83171 WT5  3267 TIP3 H1   HT     0.417000        1.0080           0
   83172 WT5  3267 TIP3 H2   HT     0.417000        1.0080           0
   83173 WT5  3268 TIP3 OH2  OT    -0.834000       15.9994           0
   83174 WT5  3268 TIP3 H1   HT     0.417000        1.0080           0
   83175 WT5  3268 TIP3 H2   HT     0.417000        1.0080           0
   83176 WT5  3269 TIP3 OH2  OT    -0.834000       15.9994           0
   83177 WT5  3269 TIP3 H1   HT     0.417000        1.0080           0
   83178 WT5  3269 TIP3 H2   HT     0.417000        1.0080           0
   83179 WT5  3270 TIP3 OH2  OT    -0.834000       15.9994           0
   83180 WT5  3270 TIP3 H1   HT     0.417000        1.0080           0
   83181 WT5  3270 TIP3 H2   HT     0.417000        1.0080           0
   83182 WT5  3271 TIP3 OH2  OT    -0.834000       15.9994           0
   83183 WT5  3271 TIP3 H1   HT     0.417000        1.0080           0
   83184 WT5  3271 TIP3 H2   HT     0.417000        1.0080           0
   83185 WT5  3272 TIP3 OH2  OT    -0.834000       15.9994           0
   83186 WT5  3272 TIP3 H1   HT     0.417000        1.0080           0
   83187 WT5  3272 TIP3 H2   HT     0.417000        1.0080           0
   83188 WT5  3273 TIP3 OH2  OT    -0.834000       15.9994           0
   83189 WT5  3273 TIP3 H1   HT     0.417000        1.0080           0
   83190 WT5  3273 TIP3 H2   HT     0.417000        1.0080           0
   83191 WT5  3274 TIP3 OH2  OT    -0.834000       15.9994           0
   83192 WT5  3274 TIP3 H1   HT     0.417000        1.0080           0
   83193 WT5  3274 TIP3 H2   HT     0.417000        1.0080           0
   83194 WT5  3276 TIP3 OH2  OT    -0.834000       15.9994           0
   83195 WT5  3276 TIP3 H1   HT     0.417000        1.0080           0
   83196 WT5  3276 TIP3 H2   HT     0.417000        1.0080           0
   83197 WT5  3277 TIP3 OH2  OT    -0.834000       15.9994           0
   83198 WT5  3277 TIP3 H1   HT     0.417000        1.0080           0
   83199 WT5  3277 TIP3 H2   HT     0.417000        1.0080           0
   83200 WT5  3278 TIP3 OH2  OT    -0.834000       15.9994           0
   83201 WT5  3278 TIP3 H1   HT     0.417000        1.0080           0
   83202 WT5  3278 TIP3 H2   HT     0.417000        1.0080           0
   83203 WT5  3279 TIP3 OH2  OT    -0.834000       15.9994           0
   83204 WT5  3279 TIP3 H1   HT     0.417000        1.0080           0
   83205 WT5  3279 TIP3 H2   HT     0.417000        1.0080           0
   83206 WT5  3280 TIP3 OH2  OT    -0.834000       15.9994           0
   83207 WT5  3280 TIP3 H1   HT     0.417000        1.0080           0
   83208 WT5  3280 TIP3 H2   HT     0.417000        1.0080           0
   83209 WT5  3281 TIP3 OH2  OT    -0.834000       15.9994           0
   83210 WT5  3281 TIP3 H1   HT     0.417000        1.0080           0
   83211 WT5  3281 TIP3 H2   HT     0.417000        1.0080           0
   83212 WT5  3282 TIP3 OH2  OT    -0.834000       15.9994           0
   83213 WT5  3282 TIP3 H1   HT     0.417000        1.0080           0
   83214 WT5  3282 TIP3 H2   HT     0.417000        1.0080           0
   83215 WT5  3283 TIP3 OH2  OT    -0.834000       15.9994           0
   83216 WT5  3283 TIP3 H1   HT     0.417000        1.0080           0
   83217 WT5  3283 TIP3 H2   HT     0.417000        1.0080           0
   83218 WT5  3284 TIP3 OH2  OT    -0.834000       15.9994           0
   83219 WT5  3284 TIP3 H1   HT     0.417000        1.0080           0
   83220 WT5  3284 TIP3 H2   HT     0.417000        1.0080           0
   83221 WT5  3285 TIP3 OH2  OT    -0.834000       15.9994           0
   83222 WT5  3285 TIP3 H1   HT     0.417000        1.0080           0
   83223 WT5  3285 TIP3 H2   HT     0.417000        1.0080           0
   83224 WT5  3286 TIP3 OH2  OT    -0.834000       15.9994           0
   83225 WT5  3286 TIP3 H1   HT     0.417000        1.0080           0
   83226 WT5  3286 TIP3 H2   HT     0.417000        1.0080           0
   83227 WT5  3287 TIP3 OH2  OT    -0.834000       15.9994           0
   83228 WT5  3287 TIP3 H1   HT     0.417000        1.0080           0
   83229 WT5  3287 TIP3 H2   HT     0.417000        1.0080           0
   83230 WT5  3288 TIP3 OH2  OT    -0.834000       15.9994           0
   83231 WT5  3288 TIP3 H1   HT     0.417000        1.0080           0
   83232 WT5  3288 TIP3 H2   HT     0.417000        1.0080           0
   83233 WT5  3289 TIP3 OH2  OT    -0.834000       15.9994           0
   83234 WT5  3289 TIP3 H1   HT     0.417000        1.0080           0
   83235 WT5  3289 TIP3 H2   HT     0.417000        1.0080           0
   83236 WT5  3290 TIP3 OH2  OT    -0.834000       15.9994           0
   83237 WT5  3290 TIP3 H1   HT     0.417000        1.0080           0
   83238 WT5  3290 TIP3 H2   HT     0.417000        1.0080           0
   83239 WT5  3291 TIP3 OH2  OT    -0.834000       15.9994           0
   83240 WT5  3291 TIP3 H1   HT     0.417000        1.0080           0
   83241 WT5  3291 TIP3 H2   HT     0.417000        1.0080           0
   83242 WT5  3292 TIP3 OH2  OT    -0.834000       15.9994           0
   83243 WT5  3292 TIP3 H1   HT     0.417000        1.0080           0
   83244 WT5  3292 TIP3 H2   HT     0.417000        1.0080           0
   83245 WT5  3293 TIP3 OH2  OT    -0.834000       15.9994           0
   83246 WT5  3293 TIP3 H1   HT     0.417000        1.0080           0
   83247 WT5  3293 TIP3 H2   HT     0.417000        1.0080           0
   83248 WT5  3294 TIP3 OH2  OT    -0.834000       15.9994           0
   83249 WT5  3294 TIP3 H1   HT     0.417000        1.0080           0
   83250 WT5  3294 TIP3 H2   HT     0.417000        1.0080           0
   83251 WT5  3295 TIP3 OH2  OT    -0.834000       15.9994           0
   83252 WT5  3295 TIP3 H1   HT     0.417000        1.0080           0
   83253 WT5  3295 TIP3 H2   HT     0.417000        1.0080           0
   83254 WT5  3296 TIP3 OH2  OT    -0.834000       15.9994           0
   83255 WT5  3296 TIP3 H1   HT     0.417000        1.0080           0
   83256 WT5  3296 TIP3 H2   HT     0.417000        1.0080           0
   83257 WT5  3297 TIP3 OH2  OT    -0.834000       15.9994           0
   83258 WT5  3297 TIP3 H1   HT     0.417000        1.0080           0
   83259 WT5  3297 TIP3 H2   HT     0.417000        1.0080           0
   83260 WT5  3298 TIP3 OH2  OT    -0.834000       15.9994           0
   83261 WT5  3298 TIP3 H1   HT     0.417000        1.0080           0
   83262 WT5  3298 TIP3 H2   HT     0.417000        1.0080           0
   83263 WT5  3299 TIP3 OH2  OT    -0.834000       15.9994           0
   83264 WT5  3299 TIP3 H1   HT     0.417000        1.0080           0
   83265 WT5  3299 TIP3 H2   HT     0.417000        1.0080           0
   83266 WT5  3300 TIP3 OH2  OT    -0.834000       15.9994           0
   83267 WT5  3300 TIP3 H1   HT     0.417000        1.0080           0
   83268 WT5  3300 TIP3 H2   HT     0.417000        1.0080           0
   83269 WT5  3301 TIP3 OH2  OT    -0.834000       15.9994           0
   83270 WT5  3301 TIP3 H1   HT     0.417000        1.0080           0
   83271 WT5  3301 TIP3 H2   HT     0.417000        1.0080           0
   83272 WT5  3302 TIP3 OH2  OT    -0.834000       15.9994           0
   83273 WT5  3302 TIP3 H1   HT     0.417000        1.0080           0
   83274 WT5  3302 TIP3 H2   HT     0.417000        1.0080           0
   83275 WT5  3303 TIP3 OH2  OT    -0.834000       15.9994           0
   83276 WT5  3303 TIP3 H1   HT     0.417000        1.0080           0
   83277 WT5  3303 TIP3 H2   HT     0.417000        1.0080           0
   83278 WT5  3304 TIP3 OH2  OT    -0.834000       15.9994           0
   83279 WT5  3304 TIP3 H1   HT     0.417000        1.0080           0
   83280 WT5  3304 TIP3 H2   HT     0.417000        1.0080           0
   83281 WT5  3305 TIP3 OH2  OT    -0.834000       15.9994           0
   83282 WT5  3305 TIP3 H1   HT     0.417000        1.0080           0
   83283 WT5  3305 TIP3 H2   HT     0.417000        1.0080           0
   83284 WT5  3306 TIP3 OH2  OT    -0.834000       15.9994           0
   83285 WT5  3306 TIP3 H1   HT     0.417000        1.0080           0
   83286 WT5  3306 TIP3 H2   HT     0.417000        1.0080           0
   83287 WT5  3307 TIP3 OH2  OT    -0.834000       15.9994           0
   83288 WT5  3307 TIP3 H1   HT     0.417000        1.0080           0
   83289 WT5  3307 TIP3 H2   HT     0.417000        1.0080           0
   83290 WT5  3308 TIP3 OH2  OT    -0.834000       15.9994           0
   83291 WT5  3308 TIP3 H1   HT     0.417000        1.0080           0
   83292 WT5  3308 TIP3 H2   HT     0.417000        1.0080           0
   83293 WT5  3309 TIP3 OH2  OT    -0.834000       15.9994           0
   83294 WT5  3309 TIP3 H1   HT     0.417000        1.0080           0
   83295 WT5  3309 TIP3 H2   HT     0.417000        1.0080           0
   83296 WT5  3310 TIP3 OH2  OT    -0.834000       15.9994           0
   83297 WT5  3310 TIP3 H1   HT     0.417000        1.0080           0
   83298 WT5  3310 TIP3 H2   HT     0.417000        1.0080           0
   83299 WT5  3311 TIP3 OH2  OT    -0.834000       15.9994           0
   83300 WT5  3311 TIP3 H1   HT     0.417000        1.0080           0
   83301 WT5  3311 TIP3 H2   HT     0.417000        1.0080           0
   83302 WT5  3312 TIP3 OH2  OT    -0.834000       15.9994           0
   83303 WT5  3312 TIP3 H1   HT     0.417000        1.0080           0
   83304 WT5  3312 TIP3 H2   HT     0.417000        1.0080           0
   83305 WT5  3313 TIP3 OH2  OT    -0.834000       15.9994           0
   83306 WT5  3313 TIP3 H1   HT     0.417000        1.0080           0
   83307 WT5  3313 TIP3 H2   HT     0.417000        1.0080           0
   83308 WT5  3314 TIP3 OH2  OT    -0.834000       15.9994           0
   83309 WT5  3314 TIP3 H1   HT     0.417000        1.0080           0
   83310 WT5  3314 TIP3 H2   HT     0.417000        1.0080           0
   83311 WT5  3315 TIP3 OH2  OT    -0.834000       15.9994           0
   83312 WT5  3315 TIP3 H1   HT     0.417000        1.0080           0
   83313 WT5  3315 TIP3 H2   HT     0.417000        1.0080           0
   83314 WT5  3316 TIP3 OH2  OT    -0.834000       15.9994           0
   83315 WT5  3316 TIP3 H1   HT     0.417000        1.0080           0
   83316 WT5  3316 TIP3 H2   HT     0.417000        1.0080           0
   83317 WT5  3317 TIP3 OH2  OT    -0.834000       15.9994           0
   83318 WT5  3317 TIP3 H1   HT     0.417000        1.0080           0
   83319 WT5  3317 TIP3 H2   HT     0.417000        1.0080           0
   83320 WT5  3319 TIP3 OH2  OT    -0.834000       15.9994           0
   83321 WT5  3319 TIP3 H1   HT     0.417000        1.0080           0
   83322 WT5  3319 TIP3 H2   HT     0.417000        1.0080           0
   83323 WT5  3320 TIP3 OH2  OT    -0.834000       15.9994           0
   83324 WT5  3320 TIP3 H1   HT     0.417000        1.0080           0
   83325 WT5  3320 TIP3 H2   HT     0.417000        1.0080           0
   83326 WT5  3321 TIP3 OH2  OT    -0.834000       15.9994           0
   83327 WT5  3321 TIP3 H1   HT     0.417000        1.0080           0
   83328 WT5  3321 TIP3 H2   HT     0.417000        1.0080           0
   83329 WT5  3322 TIP3 OH2  OT    -0.834000       15.9994           0
   83330 WT5  3322 TIP3 H1   HT     0.417000        1.0080           0
   83331 WT5  3322 TIP3 H2   HT     0.417000        1.0080           0
   83332 WT5  3323 TIP3 OH2  OT    -0.834000       15.9994           0
   83333 WT5  3323 TIP3 H1   HT     0.417000        1.0080           0
   83334 WT5  3323 TIP3 H2   HT     0.417000        1.0080           0
   83335 WT5  3324 TIP3 OH2  OT    -0.834000       15.9994           0
   83336 WT5  3324 TIP3 H1   HT     0.417000        1.0080           0
   83337 WT5  3324 TIP3 H2   HT     0.417000        1.0080           0
   83338 WT5  3325 TIP3 OH2  OT    -0.834000       15.9994           0
   83339 WT5  3325 TIP3 H1   HT     0.417000        1.0080           0
   83340 WT5  3325 TIP3 H2   HT     0.417000        1.0080           0
   83341 WT5  3326 TIP3 OH2  OT    -0.834000       15.9994           0
   83342 WT5  3326 TIP3 H1   HT     0.417000        1.0080           0
   83343 WT5  3326 TIP3 H2   HT     0.417000        1.0080           0
   83344 WT5  3327 TIP3 OH2  OT    -0.834000       15.9994           0
   83345 WT5  3327 TIP3 H1   HT     0.417000        1.0080           0
   83346 WT5  3327 TIP3 H2   HT     0.417000        1.0080           0
   83347 WT5  3328 TIP3 OH2  OT    -0.834000       15.9994           0
   83348 WT5  3328 TIP3 H1   HT     0.417000        1.0080           0
   83349 WT5  3328 TIP3 H2   HT     0.417000        1.0080           0
   83350 WT5  3329 TIP3 OH2  OT    -0.834000       15.9994           0
   83351 WT5  3329 TIP3 H1   HT     0.417000        1.0080           0
   83352 WT5  3329 TIP3 H2   HT     0.417000        1.0080           0
   83353 WT5  3330 TIP3 OH2  OT    -0.834000       15.9994           0
   83354 WT5  3330 TIP3 H1   HT     0.417000        1.0080           0
   83355 WT5  3330 TIP3 H2   HT     0.417000        1.0080           0
   83356 WT5  3331 TIP3 OH2  OT    -0.834000       15.9994           0
   83357 WT5  3331 TIP3 H1   HT     0.417000        1.0080           0
   83358 WT5  3331 TIP3 H2   HT     0.417000        1.0080           0
   83359 WT5  3333 TIP3 OH2  OT    -0.834000       15.9994           0
   83360 WT5  3333 TIP3 H1   HT     0.417000        1.0080           0
   83361 WT5  3333 TIP3 H2   HT     0.417000        1.0080           0
   83362 WT5  3334 TIP3 OH2  OT    -0.834000       15.9994           0
   83363 WT5  3334 TIP3 H1   HT     0.417000        1.0080           0
   83364 WT5  3334 TIP3 H2   HT     0.417000        1.0080           0
   83365 WT5  3335 TIP3 OH2  OT    -0.834000       15.9994           0
   83366 WT5  3335 TIP3 H1   HT     0.417000        1.0080           0
   83367 WT5  3335 TIP3 H2   HT     0.417000        1.0080           0
   83368 WT5  3337 TIP3 OH2  OT    -0.834000       15.9994           0
   83369 WT5  3337 TIP3 H1   HT     0.417000        1.0080           0
   83370 WT5  3337 TIP3 H2   HT     0.417000        1.0080           0
   83371 WT5  3339 TIP3 OH2  OT    -0.834000       15.9994           0
   83372 WT5  3339 TIP3 H1   HT     0.417000        1.0080           0
   83373 WT5  3339 TIP3 H2   HT     0.417000        1.0080           0
   83374 WT5  3341 TIP3 OH2  OT    -0.834000       15.9994           0
   83375 WT5  3341 TIP3 H1   HT     0.417000        1.0080           0
   83376 WT5  3341 TIP3 H2   HT     0.417000        1.0080           0
   83377 WT5  3342 TIP3 OH2  OT    -0.834000       15.9994           0
   83378 WT5  3342 TIP3 H1   HT     0.417000        1.0080           0
   83379 WT5  3342 TIP3 H2   HT     0.417000        1.0080           0
   83380 WT5  3343 TIP3 OH2  OT    -0.834000       15.9994           0
   83381 WT5  3343 TIP3 H1   HT     0.417000        1.0080           0
   83382 WT5  3343 TIP3 H2   HT     0.417000        1.0080           0
   83383 WT5  3344 TIP3 OH2  OT    -0.834000       15.9994           0
   83384 WT5  3344 TIP3 H1   HT     0.417000        1.0080           0
   83385 WT5  3344 TIP3 H2   HT     0.417000        1.0080           0
   83386 WT5  3345 TIP3 OH2  OT    -0.834000       15.9994           0
   83387 WT5  3345 TIP3 H1   HT     0.417000        1.0080           0
   83388 WT5  3345 TIP3 H2   HT     0.417000        1.0080           0
   83389 WT5  3346 TIP3 OH2  OT    -0.834000       15.9994           0
   83390 WT5  3346 TIP3 H1   HT     0.417000        1.0080           0
   83391 WT5  3346 TIP3 H2   HT     0.417000        1.0080           0
   83392 WT5  3347 TIP3 OH2  OT    -0.834000       15.9994           0
   83393 WT5  3347 TIP3 H1   HT     0.417000        1.0080           0
   83394 WT5  3347 TIP3 H2   HT     0.417000        1.0080           0
   83395 WT5  3348 TIP3 OH2  OT    -0.834000       15.9994           0
   83396 WT5  3348 TIP3 H1   HT     0.417000        1.0080           0
   83397 WT5  3348 TIP3 H2   HT     0.417000        1.0080           0
   83398 WT5  3349 TIP3 OH2  OT    -0.834000       15.9994           0
   83399 WT5  3349 TIP3 H1   HT     0.417000        1.0080           0
   83400 WT5  3349 TIP3 H2   HT     0.417000        1.0080           0
   83401 WT5  3351 TIP3 OH2  OT    -0.834000       15.9994           0
   83402 WT5  3351 TIP3 H1   HT     0.417000        1.0080           0
   83403 WT5  3351 TIP3 H2   HT     0.417000        1.0080           0
   83404 WT5  3352 TIP3 OH2  OT    -0.834000       15.9994           0
   83405 WT5  3352 TIP3 H1   HT     0.417000        1.0080           0
   83406 WT5  3352 TIP3 H2   HT     0.417000        1.0080           0
   83407 WT5  3353 TIP3 OH2  OT    -0.834000       15.9994           0
   83408 WT5  3353 TIP3 H1   HT     0.417000        1.0080           0
   83409 WT5  3353 TIP3 H2   HT     0.417000        1.0080           0
   83410 WT5  3354 TIP3 OH2  OT    -0.834000       15.9994           0
   83411 WT5  3354 TIP3 H1   HT     0.417000        1.0080           0
   83412 WT5  3354 TIP3 H2   HT     0.417000        1.0080           0
   83413 WT5  3355 TIP3 OH2  OT    -0.834000       15.9994           0
   83414 WT5  3355 TIP3 H1   HT     0.417000        1.0080           0
   83415 WT5  3355 TIP3 H2   HT     0.417000        1.0080           0
   83416 WT5  3356 TIP3 OH2  OT    -0.834000       15.9994           0
   83417 WT5  3356 TIP3 H1   HT     0.417000        1.0080           0
   83418 WT5  3356 TIP3 H2   HT     0.417000        1.0080           0
   83419 WT5  3358 TIP3 OH2  OT    -0.834000       15.9994           0
   83420 WT5  3358 TIP3 H1   HT     0.417000        1.0080           0
   83421 WT5  3358 TIP3 H2   HT     0.417000        1.0080           0
   83422 WT5  3359 TIP3 OH2  OT    -0.834000       15.9994           0
   83423 WT5  3359 TIP3 H1   HT     0.417000        1.0080           0
   83424 WT5  3359 TIP3 H2   HT     0.417000        1.0080           0
   83425 WT5  3360 TIP3 OH2  OT    -0.834000       15.9994           0
   83426 WT5  3360 TIP3 H1   HT     0.417000        1.0080           0
   83427 WT5  3360 TIP3 H2   HT     0.417000        1.0080           0
   83428 WT5  3361 TIP3 OH2  OT    -0.834000       15.9994           0
   83429 WT5  3361 TIP3 H1   HT     0.417000        1.0080           0
   83430 WT5  3361 TIP3 H2   HT     0.417000        1.0080           0
   83431 WT5  3362 TIP3 OH2  OT    -0.834000       15.9994           0
   83432 WT5  3362 TIP3 H1   HT     0.417000        1.0080           0
   83433 WT5  3362 TIP3 H2   HT     0.417000        1.0080           0
   83434 WT5  3363 TIP3 OH2  OT    -0.834000       15.9994           0
   83435 WT5  3363 TIP3 H1   HT     0.417000        1.0080           0
   83436 WT5  3363 TIP3 H2   HT     0.417000        1.0080           0
   83437 WT5  3364 TIP3 OH2  OT    -0.834000       15.9994           0
   83438 WT5  3364 TIP3 H1   HT     0.417000        1.0080           0
   83439 WT5  3364 TIP3 H2   HT     0.417000        1.0080           0
   83440 WT5  3365 TIP3 OH2  OT    -0.834000       15.9994           0
   83441 WT5  3365 TIP3 H1   HT     0.417000        1.0080           0
   83442 WT5  3365 TIP3 H2   HT     0.417000        1.0080           0
   83443 WT5  3366 TIP3 OH2  OT    -0.834000       15.9994           0
   83444 WT5  3366 TIP3 H1   HT     0.417000        1.0080           0
   83445 WT5  3366 TIP3 H2   HT     0.417000        1.0080           0
   83446 WT5  3367 TIP3 OH2  OT    -0.834000       15.9994           0
   83447 WT5  3367 TIP3 H1   HT     0.417000        1.0080           0
   83448 WT5  3367 TIP3 H2   HT     0.417000        1.0080           0
   83449 WT5  3368 TIP3 OH2  OT    -0.834000       15.9994           0
   83450 WT5  3368 TIP3 H1   HT     0.417000        1.0080           0
   83451 WT5  3368 TIP3 H2   HT     0.417000        1.0080           0
   83452 WT5  3369 TIP3 OH2  OT    -0.834000       15.9994           0
   83453 WT5  3369 TIP3 H1   HT     0.417000        1.0080           0
   83454 WT5  3369 TIP3 H2   HT     0.417000        1.0080           0
   83455 WT5  3370 TIP3 OH2  OT    -0.834000       15.9994           0
   83456 WT5  3370 TIP3 H1   HT     0.417000        1.0080           0
   83457 WT5  3370 TIP3 H2   HT     0.417000        1.0080           0
   83458 WT5  3371 TIP3 OH2  OT    -0.834000       15.9994           0
   83459 WT5  3371 TIP3 H1   HT     0.417000        1.0080           0
   83460 WT5  3371 TIP3 H2   HT     0.417000        1.0080           0
   83461 WT5  3372 TIP3 OH2  OT    -0.834000       15.9994           0
   83462 WT5  3372 TIP3 H1   HT     0.417000        1.0080           0
   83463 WT5  3372 TIP3 H2   HT     0.417000        1.0080           0
   83464 WT5  3373 TIP3 OH2  OT    -0.834000       15.9994           0
   83465 WT5  3373 TIP3 H1   HT     0.417000        1.0080           0
   83466 WT5  3373 TIP3 H2   HT     0.417000        1.0080           0
   83467 WT5  3374 TIP3 OH2  OT    -0.834000       15.9994           0
   83468 WT5  3374 TIP3 H1   HT     0.417000        1.0080           0
   83469 WT5  3374 TIP3 H2   HT     0.417000        1.0080           0
   83470 WT5  3375 TIP3 OH2  OT    -0.834000       15.9994           0
   83471 WT5  3375 TIP3 H1   HT     0.417000        1.0080           0
   83472 WT5  3375 TIP3 H2   HT     0.417000        1.0080           0
   83473 WT5  3377 TIP3 OH2  OT    -0.834000       15.9994           0
   83474 WT5  3377 TIP3 H1   HT     0.417000        1.0080           0
   83475 WT5  3377 TIP3 H2   HT     0.417000        1.0080           0
   83476 WT5  3378 TIP3 OH2  OT    -0.834000       15.9994           0
   83477 WT5  3378 TIP3 H1   HT     0.417000        1.0080           0
   83478 WT5  3378 TIP3 H2   HT     0.417000        1.0080           0
   83479 WT5  3381 TIP3 OH2  OT    -0.834000       15.9994           0
   83480 WT5  3381 TIP3 H1   HT     0.417000        1.0080           0
   83481 WT5  3381 TIP3 H2   HT     0.417000        1.0080           0
   83482 WT5  3382 TIP3 OH2  OT    -0.834000       15.9994           0
   83483 WT5  3382 TIP3 H1   HT     0.417000        1.0080           0
   83484 WT5  3382 TIP3 H2   HT     0.417000        1.0080           0
   83485 WT5  3383 TIP3 OH2  OT    -0.834000       15.9994           0
   83486 WT5  3383 TIP3 H1   HT     0.417000        1.0080           0
   83487 WT5  3383 TIP3 H2   HT     0.417000        1.0080           0
   83488 WT5  3384 TIP3 OH2  OT    -0.834000       15.9994           0
   83489 WT5  3384 TIP3 H1   HT     0.417000        1.0080           0
   83490 WT5  3384 TIP3 H2   HT     0.417000        1.0080           0
   83491 WT5  3385 TIP3 OH2  OT    -0.834000       15.9994           0
   83492 WT5  3385 TIP3 H1   HT     0.417000        1.0080           0
   83493 WT5  3385 TIP3 H2   HT     0.417000        1.0080           0
   83494 WT5  3386 TIP3 OH2  OT    -0.834000       15.9994           0
   83495 WT5  3386 TIP3 H1   HT     0.417000        1.0080           0
   83496 WT5  3386 TIP3 H2   HT     0.417000        1.0080           0
   83497 WT5  3387 TIP3 OH2  OT    -0.834000       15.9994           0
   83498 WT5  3387 TIP3 H1   HT     0.417000        1.0080           0
   83499 WT5  3387 TIP3 H2   HT     0.417000        1.0080           0
   83500 WT5  3388 TIP3 OH2  OT    -0.834000       15.9994           0
   83501 WT5  3388 TIP3 H1   HT     0.417000        1.0080           0
   83502 WT5  3388 TIP3 H2   HT     0.417000        1.0080           0
   83503 WT5  3389 TIP3 OH2  OT    -0.834000       15.9994           0
   83504 WT5  3389 TIP3 H1   HT     0.417000        1.0080           0
   83505 WT5  3389 TIP3 H2   HT     0.417000        1.0080           0
   83506 WT5  3390 TIP3 OH2  OT    -0.834000       15.9994           0
   83507 WT5  3390 TIP3 H1   HT     0.417000        1.0080           0
   83508 WT5  3390 TIP3 H2   HT     0.417000        1.0080           0
   83509 WT5  3391 TIP3 OH2  OT    -0.834000       15.9994           0
   83510 WT5  3391 TIP3 H1   HT     0.417000        1.0080           0
   83511 WT5  3391 TIP3 H2   HT     0.417000        1.0080           0
   83512 WT5  3393 TIP3 OH2  OT    -0.834000       15.9994           0
   83513 WT5  3393 TIP3 H1   HT     0.417000        1.0080           0
   83514 WT5  3393 TIP3 H2   HT     0.417000        1.0080           0
   83515 WT5  3394 TIP3 OH2  OT    -0.834000       15.9994           0
   83516 WT5  3394 TIP3 H1   HT     0.417000        1.0080           0
   83517 WT5  3394 TIP3 H2   HT     0.417000        1.0080           0
   83518 WT5  3395 TIP3 OH2  OT    -0.834000       15.9994           0
   83519 WT5  3395 TIP3 H1   HT     0.417000        1.0080           0
   83520 WT5  3395 TIP3 H2   HT     0.417000        1.0080           0
   83521 WT5  3396 TIP3 OH2  OT    -0.834000       15.9994           0
   83522 WT5  3396 TIP3 H1   HT     0.417000        1.0080           0
   83523 WT5  3396 TIP3 H2   HT     0.417000        1.0080           0
   83524 WT5  3397 TIP3 OH2  OT    -0.834000       15.9994           0
   83525 WT5  3397 TIP3 H1   HT     0.417000        1.0080           0
   83526 WT5  3397 TIP3 H2   HT     0.417000        1.0080           0
   83527 WT5  3400 TIP3 OH2  OT    -0.834000       15.9994           0
   83528 WT5  3400 TIP3 H1   HT     0.417000        1.0080           0
   83529 WT5  3400 TIP3 H2   HT     0.417000        1.0080           0
   83530 WT5  3401 TIP3 OH2  OT    -0.834000       15.9994           0
   83531 WT5  3401 TIP3 H1   HT     0.417000        1.0080           0
   83532 WT5  3401 TIP3 H2   HT     0.417000        1.0080           0
   83533 WT5  3402 TIP3 OH2  OT    -0.834000       15.9994           0
   83534 WT5  3402 TIP3 H1   HT     0.417000        1.0080           0
   83535 WT5  3402 TIP3 H2   HT     0.417000        1.0080           0
   83536 WT5  3403 TIP3 OH2  OT    -0.834000       15.9994           0
   83537 WT5  3403 TIP3 H1   HT     0.417000        1.0080           0
   83538 WT5  3403 TIP3 H2   HT     0.417000        1.0080           0
   83539 WT5  3404 TIP3 OH2  OT    -0.834000       15.9994           0
   83540 WT5  3404 TIP3 H1   HT     0.417000        1.0080           0
   83541 WT5  3404 TIP3 H2   HT     0.417000        1.0080           0
   83542 WT5  3405 TIP3 OH2  OT    -0.834000       15.9994           0
   83543 WT5  3405 TIP3 H1   HT     0.417000        1.0080           0
   83544 WT5  3405 TIP3 H2   HT     0.417000        1.0080           0
   83545 WT5  3406 TIP3 OH2  OT    -0.834000       15.9994           0
   83546 WT5  3406 TIP3 H1   HT     0.417000        1.0080           0
   83547 WT5  3406 TIP3 H2   HT     0.417000        1.0080           0
   83548 WT5  3407 TIP3 OH2  OT    -0.834000       15.9994           0
   83549 WT5  3407 TIP3 H1   HT     0.417000        1.0080           0
   83550 WT5  3407 TIP3 H2   HT     0.417000        1.0080           0
   83551 WT5  3408 TIP3 OH2  OT    -0.834000       15.9994           0
   83552 WT5  3408 TIP3 H1   HT     0.417000        1.0080           0
   83553 WT5  3408 TIP3 H2   HT     0.417000        1.0080           0
   83554 WT5  3409 TIP3 OH2  OT    -0.834000       15.9994           0
   83555 WT5  3409 TIP3 H1   HT     0.417000        1.0080           0
   83556 WT5  3409 TIP3 H2   HT     0.417000        1.0080           0
   83557 WT5  3410 TIP3 OH2  OT    -0.834000       15.9994           0
   83558 WT5  3410 TIP3 H1   HT     0.417000        1.0080           0
   83559 WT5  3410 TIP3 H2   HT     0.417000        1.0080           0
   83560 WT5  3411 TIP3 OH2  OT    -0.834000       15.9994           0
   83561 WT5  3411 TIP3 H1   HT     0.417000        1.0080           0
   83562 WT5  3411 TIP3 H2   HT     0.417000        1.0080           0
   83563 WT5  3412 TIP3 OH2  OT    -0.834000       15.9994           0
   83564 WT5  3412 TIP3 H1   HT     0.417000        1.0080           0
   83565 WT5  3412 TIP3 H2   HT     0.417000        1.0080           0
   83566 WT5  3413 TIP3 OH2  OT    -0.834000       15.9994           0
   83567 WT5  3413 TIP3 H1   HT     0.417000        1.0080           0
   83568 WT5  3413 TIP3 H2   HT     0.417000        1.0080           0
   83569 WT5  3414 TIP3 OH2  OT    -0.834000       15.9994           0
   83570 WT5  3414 TIP3 H1   HT     0.417000        1.0080           0
   83571 WT5  3414 TIP3 H2   HT     0.417000        1.0080           0
   83572 WT5  3415 TIP3 OH2  OT    -0.834000       15.9994           0
   83573 WT5  3415 TIP3 H1   HT     0.417000        1.0080           0
   83574 WT5  3415 TIP3 H2   HT     0.417000        1.0080           0
   83575 WT5  3417 TIP3 OH2  OT    -0.834000       15.9994           0
   83576 WT5  3417 TIP3 H1   HT     0.417000        1.0080           0
   83577 WT5  3417 TIP3 H2   HT     0.417000        1.0080           0
   83578 WT5  3418 TIP3 OH2  OT    -0.834000       15.9994           0
   83579 WT5  3418 TIP3 H1   HT     0.417000        1.0080           0
   83580 WT5  3418 TIP3 H2   HT     0.417000        1.0080           0
   83581 WT5  3419 TIP3 OH2  OT    -0.834000       15.9994           0
   83582 WT5  3419 TIP3 H1   HT     0.417000        1.0080           0
   83583 WT5  3419 TIP3 H2   HT     0.417000        1.0080           0
   83584 WT5  3420 TIP3 OH2  OT    -0.834000       15.9994           0
   83585 WT5  3420 TIP3 H1   HT     0.417000        1.0080           0
   83586 WT5  3420 TIP3 H2   HT     0.417000        1.0080           0
   83587 WT5  3422 TIP3 OH2  OT    -0.834000       15.9994           0
   83588 WT5  3422 TIP3 H1   HT     0.417000        1.0080           0
   83589 WT5  3422 TIP3 H2   HT     0.417000        1.0080           0
   83590 WT5  3424 TIP3 OH2  OT    -0.834000       15.9994           0
   83591 WT5  3424 TIP3 H1   HT     0.417000        1.0080           0
   83592 WT5  3424 TIP3 H2   HT     0.417000        1.0080           0
   83593 WT5  3425 TIP3 OH2  OT    -0.834000       15.9994           0
   83594 WT5  3425 TIP3 H1   HT     0.417000        1.0080           0
   83595 WT5  3425 TIP3 H2   HT     0.417000        1.0080           0
   83596 WT5  3426 TIP3 OH2  OT    -0.834000       15.9994           0
   83597 WT5  3426 TIP3 H1   HT     0.417000        1.0080           0
   83598 WT5  3426 TIP3 H2   HT     0.417000        1.0080           0
   83599 WT5  3427 TIP3 OH2  OT    -0.834000       15.9994           0
   83600 WT5  3427 TIP3 H1   HT     0.417000        1.0080           0
   83601 WT5  3427 TIP3 H2   HT     0.417000        1.0080           0
   83602 WT5  3428 TIP3 OH2  OT    -0.834000       15.9994           0
   83603 WT5  3428 TIP3 H1   HT     0.417000        1.0080           0
   83604 WT5  3428 TIP3 H2   HT     0.417000        1.0080           0
   83605 WT5  3429 TIP3 OH2  OT    -0.834000       15.9994           0
   83606 WT5  3429 TIP3 H1   HT     0.417000        1.0080           0
   83607 WT5  3429 TIP3 H2   HT     0.417000        1.0080           0
   83608 WT5  3430 TIP3 OH2  OT    -0.834000       15.9994           0
   83609 WT5  3430 TIP3 H1   HT     0.417000        1.0080           0
   83610 WT5  3430 TIP3 H2   HT     0.417000        1.0080           0
   83611 WT5  3431 TIP3 OH2  OT    -0.834000       15.9994           0
   83612 WT5  3431 TIP3 H1   HT     0.417000        1.0080           0
   83613 WT5  3431 TIP3 H2   HT     0.417000        1.0080           0
   83614 WT5  3432 TIP3 OH2  OT    -0.834000       15.9994           0
   83615 WT5  3432 TIP3 H1   HT     0.417000        1.0080           0
   83616 WT5  3432 TIP3 H2   HT     0.417000        1.0080           0
   83617 WT5  3433 TIP3 OH2  OT    -0.834000       15.9994           0
   83618 WT5  3433 TIP3 H1   HT     0.417000        1.0080           0
   83619 WT5  3433 TIP3 H2   HT     0.417000        1.0080           0
   83620 WT5  3434 TIP3 OH2  OT    -0.834000       15.9994           0
   83621 WT5  3434 TIP3 H1   HT     0.417000        1.0080           0
   83622 WT5  3434 TIP3 H2   HT     0.417000        1.0080           0
   83623 WT5  3435 TIP3 OH2  OT    -0.834000       15.9994           0
   83624 WT5  3435 TIP3 H1   HT     0.417000        1.0080           0
   83625 WT5  3435 TIP3 H2   HT     0.417000        1.0080           0
   83626 WT5  3437 TIP3 OH2  OT    -0.834000       15.9994           0
   83627 WT5  3437 TIP3 H1   HT     0.417000        1.0080           0
   83628 WT5  3437 TIP3 H2   HT     0.417000        1.0080           0
   83629 WT5  3438 TIP3 OH2  OT    -0.834000       15.9994           0
   83630 WT5  3438 TIP3 H1   HT     0.417000        1.0080           0
   83631 WT5  3438 TIP3 H2   HT     0.417000        1.0080           0
   83632 WT5  3439 TIP3 OH2  OT    -0.834000       15.9994           0
   83633 WT5  3439 TIP3 H1   HT     0.417000        1.0080           0
   83634 WT5  3439 TIP3 H2   HT     0.417000        1.0080           0
   83635 WT5  3440 TIP3 OH2  OT    -0.834000       15.9994           0
   83636 WT5  3440 TIP3 H1   HT     0.417000        1.0080           0
   83637 WT5  3440 TIP3 H2   HT     0.417000        1.0080           0
   83638 WT5  3441 TIP3 OH2  OT    -0.834000       15.9994           0
   83639 WT5  3441 TIP3 H1   HT     0.417000        1.0080           0
   83640 WT5  3441 TIP3 H2   HT     0.417000        1.0080           0
   83641 WT5  3442 TIP3 OH2  OT    -0.834000       15.9994           0
   83642 WT5  3442 TIP3 H1   HT     0.417000        1.0080           0
   83643 WT5  3442 TIP3 H2   HT     0.417000        1.0080           0
   83644 WT5  3444 TIP3 OH2  OT    -0.834000       15.9994           0
   83645 WT5  3444 TIP3 H1   HT     0.417000        1.0080           0
   83646 WT5  3444 TIP3 H2   HT     0.417000        1.0080           0
   83647 WT5  3445 TIP3 OH2  OT    -0.834000       15.9994           0
   83648 WT5  3445 TIP3 H1   HT     0.417000        1.0080           0
   83649 WT5  3445 TIP3 H2   HT     0.417000        1.0080           0
   83650 WT5  3446 TIP3 OH2  OT    -0.834000       15.9994           0
   83651 WT5  3446 TIP3 H1   HT     0.417000        1.0080           0
   83652 WT5  3446 TIP3 H2   HT     0.417000        1.0080           0
   83653 WT5  3447 TIP3 OH2  OT    -0.834000       15.9994           0
   83654 WT5  3447 TIP3 H1   HT     0.417000        1.0080           0
   83655 WT5  3447 TIP3 H2   HT     0.417000        1.0080           0
   83656 WT5  3448 TIP3 OH2  OT    -0.834000       15.9994           0
   83657 WT5  3448 TIP3 H1   HT     0.417000        1.0080           0
   83658 WT5  3448 TIP3 H2   HT     0.417000        1.0080           0
   83659 WT5  3449 TIP3 OH2  OT    -0.834000       15.9994           0
   83660 WT5  3449 TIP3 H1   HT     0.417000        1.0080           0
   83661 WT5  3449 TIP3 H2   HT     0.417000        1.0080           0
   83662 WT5  3450 TIP3 OH2  OT    -0.834000       15.9994           0
   83663 WT5  3450 TIP3 H1   HT     0.417000        1.0080           0
   83664 WT5  3450 TIP3 H2   HT     0.417000        1.0080           0
   83665 WT5  3451 TIP3 OH2  OT    -0.834000       15.9994           0
   83666 WT5  3451 TIP3 H1   HT     0.417000        1.0080           0
   83667 WT5  3451 TIP3 H2   HT     0.417000        1.0080           0
   83668 WT5  3452 TIP3 OH2  OT    -0.834000       15.9994           0
   83669 WT5  3452 TIP3 H1   HT     0.417000        1.0080           0
   83670 WT5  3452 TIP3 H2   HT     0.417000        1.0080           0
   83671 WT5  3453 TIP3 OH2  OT    -0.834000       15.9994           0
   83672 WT5  3453 TIP3 H1   HT     0.417000        1.0080           0
   83673 WT5  3453 TIP3 H2   HT     0.417000        1.0080           0
   83674 WT5  3454 TIP3 OH2  OT    -0.834000       15.9994           0
   83675 WT5  3454 TIP3 H1   HT     0.417000        1.0080           0
   83676 WT5  3454 TIP3 H2   HT     0.417000        1.0080           0
   83677 WT5  3455 TIP3 OH2  OT    -0.834000       15.9994           0
   83678 WT5  3455 TIP3 H1   HT     0.417000        1.0080           0
   83679 WT5  3455 TIP3 H2   HT     0.417000        1.0080           0
   83680 WT5  3456 TIP3 OH2  OT    -0.834000       15.9994           0
   83681 WT5  3456 TIP3 H1   HT     0.417000        1.0080           0
   83682 WT5  3456 TIP3 H2   HT     0.417000        1.0080           0
   83683 WT5  3457 TIP3 OH2  OT    -0.834000       15.9994           0
   83684 WT5  3457 TIP3 H1   HT     0.417000        1.0080           0
   83685 WT5  3457 TIP3 H2   HT     0.417000        1.0080           0
   83686 WT5  3459 TIP3 OH2  OT    -0.834000       15.9994           0
   83687 WT5  3459 TIP3 H1   HT     0.417000        1.0080           0
   83688 WT5  3459 TIP3 H2   HT     0.417000        1.0080           0
   83689 WT5  3460 TIP3 OH2  OT    -0.834000       15.9994           0
   83690 WT5  3460 TIP3 H1   HT     0.417000        1.0080           0
   83691 WT5  3460 TIP3 H2   HT     0.417000        1.0080           0
   83692 WT5  3461 TIP3 OH2  OT    -0.834000       15.9994           0
   83693 WT5  3461 TIP3 H1   HT     0.417000        1.0080           0
   83694 WT5  3461 TIP3 H2   HT     0.417000        1.0080           0
   83695 WT5  3462 TIP3 OH2  OT    -0.834000       15.9994           0
   83696 WT5  3462 TIP3 H1   HT     0.417000        1.0080           0
   83697 WT5  3462 TIP3 H2   HT     0.417000        1.0080           0
   83698 WT5  3463 TIP3 OH2  OT    -0.834000       15.9994           0
   83699 WT5  3463 TIP3 H1   HT     0.417000        1.0080           0
   83700 WT5  3463 TIP3 H2   HT     0.417000        1.0080           0
   83701 WT5  3464 TIP3 OH2  OT    -0.834000       15.9994           0
   83702 WT5  3464 TIP3 H1   HT     0.417000        1.0080           0
   83703 WT5  3464 TIP3 H2   HT     0.417000        1.0080           0
   83704 WT5  3465 TIP3 OH2  OT    -0.834000       15.9994           0
   83705 WT5  3465 TIP3 H1   HT     0.417000        1.0080           0
   83706 WT5  3465 TIP3 H2   HT     0.417000        1.0080           0
   83707 WT5  3466 TIP3 OH2  OT    -0.834000       15.9994           0
   83708 WT5  3466 TIP3 H1   HT     0.417000        1.0080           0
   83709 WT5  3466 TIP3 H2   HT     0.417000        1.0080           0
   83710 WT5  3467 TIP3 OH2  OT    -0.834000       15.9994           0
   83711 WT5  3467 TIP3 H1   HT     0.417000        1.0080           0
   83712 WT5  3467 TIP3 H2   HT     0.417000        1.0080           0
   83713 WT5  3468 TIP3 OH2  OT    -0.834000       15.9994           0
   83714 WT5  3468 TIP3 H1   HT     0.417000        1.0080           0
   83715 WT5  3468 TIP3 H2   HT     0.417000        1.0080           0
   83716 WT5  3469 TIP3 OH2  OT    -0.834000       15.9994           0
   83717 WT5  3469 TIP3 H1   HT     0.417000        1.0080           0
   83718 WT5  3469 TIP3 H2   HT     0.417000        1.0080           0
   83719 WT5  3470 TIP3 OH2  OT    -0.834000       15.9994           0
   83720 WT5  3470 TIP3 H1   HT     0.417000        1.0080           0
   83721 WT5  3470 TIP3 H2   HT     0.417000        1.0080           0
   83722 WT5  3471 TIP3 OH2  OT    -0.834000       15.9994           0
   83723 WT5  3471 TIP3 H1   HT     0.417000        1.0080           0
   83724 WT5  3471 TIP3 H2   HT     0.417000        1.0080           0
   83725 WT5  3472 TIP3 OH2  OT    -0.834000       15.9994           0
   83726 WT5  3472 TIP3 H1   HT     0.417000        1.0080           0
   83727 WT5  3472 TIP3 H2   HT     0.417000        1.0080           0
   83728 WT5  3473 TIP3 OH2  OT    -0.834000       15.9994           0
   83729 WT5  3473 TIP3 H1   HT     0.417000        1.0080           0
   83730 WT5  3473 TIP3 H2   HT     0.417000        1.0080           0
   83731 WT5  3474 TIP3 OH2  OT    -0.834000       15.9994           0
   83732 WT5  3474 TIP3 H1   HT     0.417000        1.0080           0
   83733 WT5  3474 TIP3 H2   HT     0.417000        1.0080           0
   83734 WT5  3475 TIP3 OH2  OT    -0.834000       15.9994           0
   83735 WT5  3475 TIP3 H1   HT     0.417000        1.0080           0
   83736 WT5  3475 TIP3 H2   HT     0.417000        1.0080           0
   83737 WT5  3476 TIP3 OH2  OT    -0.834000       15.9994           0
   83738 WT5  3476 TIP3 H1   HT     0.417000        1.0080           0
   83739 WT5  3476 TIP3 H2   HT     0.417000        1.0080           0
   83740 WT5  3477 TIP3 OH2  OT    -0.834000       15.9994           0
   83741 WT5  3477 TIP3 H1   HT     0.417000        1.0080           0
   83742 WT5  3477 TIP3 H2   HT     0.417000        1.0080           0
   83743 WT5  3478 TIP3 OH2  OT    -0.834000       15.9994           0
   83744 WT5  3478 TIP3 H1   HT     0.417000        1.0080           0
   83745 WT5  3478 TIP3 H2   HT     0.417000        1.0080           0
   83746 WT5  3479 TIP3 OH2  OT    -0.834000       15.9994           0
   83747 WT5  3479 TIP3 H1   HT     0.417000        1.0080           0
   83748 WT5  3479 TIP3 H2   HT     0.417000        1.0080           0
   83749 WT5  3483 TIP3 OH2  OT    -0.834000       15.9994           0
   83750 WT5  3483 TIP3 H1   HT     0.417000        1.0080           0
   83751 WT5  3483 TIP3 H2   HT     0.417000        1.0080           0
   83752 WT5  3484 TIP3 OH2  OT    -0.834000       15.9994           0
   83753 WT5  3484 TIP3 H1   HT     0.417000        1.0080           0
   83754 WT5  3484 TIP3 H2   HT     0.417000        1.0080           0
   83755 WT5  3485 TIP3 OH2  OT    -0.834000       15.9994           0
   83756 WT5  3485 TIP3 H1   HT     0.417000        1.0080           0
   83757 WT5  3485 TIP3 H2   HT     0.417000        1.0080           0
   83758 WT5  3486 TIP3 OH2  OT    -0.834000       15.9994           0
   83759 WT5  3486 TIP3 H1   HT     0.417000        1.0080           0
   83760 WT5  3486 TIP3 H2   HT     0.417000        1.0080           0
   83761 WT5  3487 TIP3 OH2  OT    -0.834000       15.9994           0
   83762 WT5  3487 TIP3 H1   HT     0.417000        1.0080           0
   83763 WT5  3487 TIP3 H2   HT     0.417000        1.0080           0
   83764 WT5  3488 TIP3 OH2  OT    -0.834000       15.9994           0
   83765 WT5  3488 TIP3 H1   HT     0.417000        1.0080           0
   83766 WT5  3488 TIP3 H2   HT     0.417000        1.0080           0
   83767 WT5  3489 TIP3 OH2  OT    -0.834000       15.9994           0
   83768 WT5  3489 TIP3 H1   HT     0.417000        1.0080           0
   83769 WT5  3489 TIP3 H2   HT     0.417000        1.0080           0
   83770 WT5  3490 TIP3 OH2  OT    -0.834000       15.9994           0
   83771 WT5  3490 TIP3 H1   HT     0.417000        1.0080           0
   83772 WT5  3490 TIP3 H2   HT     0.417000        1.0080           0
   83773 WT5  3491 TIP3 OH2  OT    -0.834000       15.9994           0
   83774 WT5  3491 TIP3 H1   HT     0.417000        1.0080           0
   83775 WT5  3491 TIP3 H2   HT     0.417000        1.0080           0
   83776 WT5  3492 TIP3 OH2  OT    -0.834000       15.9994           0
   83777 WT5  3492 TIP3 H1   HT     0.417000        1.0080           0
   83778 WT5  3492 TIP3 H2   HT     0.417000        1.0080           0
   83779 WT5  3493 TIP3 OH2  OT    -0.834000       15.9994           0
   83780 WT5  3493 TIP3 H1   HT     0.417000        1.0080           0
   83781 WT5  3493 TIP3 H2   HT     0.417000        1.0080           0
   83782 WT5  3494 TIP3 OH2  OT    -0.834000       15.9994           0
   83783 WT5  3494 TIP3 H1   HT     0.417000        1.0080           0
   83784 WT5  3494 TIP3 H2   HT     0.417000        1.0080           0
   83785 WT5  3495 TIP3 OH2  OT    -0.834000       15.9994           0
   83786 WT5  3495 TIP3 H1   HT     0.417000        1.0080           0
   83787 WT5  3495 TIP3 H2   HT     0.417000        1.0080           0
   83788 WT5  3496 TIP3 OH2  OT    -0.834000       15.9994           0
   83789 WT5  3496 TIP3 H1   HT     0.417000        1.0080           0
   83790 WT5  3496 TIP3 H2   HT     0.417000        1.0080           0
   83791 WT5  3497 TIP3 OH2  OT    -0.834000       15.9994           0
   83792 WT5  3497 TIP3 H1   HT     0.417000        1.0080           0
   83793 WT5  3497 TIP3 H2   HT     0.417000        1.0080           0
   83794 WT5  3498 TIP3 OH2  OT    -0.834000       15.9994           0
   83795 WT5  3498 TIP3 H1   HT     0.417000        1.0080           0
   83796 WT5  3498 TIP3 H2   HT     0.417000        1.0080           0
   83797 WT5  3499 TIP3 OH2  OT    -0.834000       15.9994           0
   83798 WT5  3499 TIP3 H1   HT     0.417000        1.0080           0
   83799 WT5  3499 TIP3 H2   HT     0.417000        1.0080           0
   83800 WT5  3500 TIP3 OH2  OT    -0.834000       15.9994           0
   83801 WT5  3500 TIP3 H1   HT     0.417000        1.0080           0
   83802 WT5  3500 TIP3 H2   HT     0.417000        1.0080           0
   83803 WT5  3501 TIP3 OH2  OT    -0.834000       15.9994           0
   83804 WT5  3501 TIP3 H1   HT     0.417000        1.0080           0
   83805 WT5  3501 TIP3 H2   HT     0.417000        1.0080           0
   83806 WT5  3502 TIP3 OH2  OT    -0.834000       15.9994           0
   83807 WT5  3502 TIP3 H1   HT     0.417000        1.0080           0
   83808 WT5  3502 TIP3 H2   HT     0.417000        1.0080           0
   83809 WT5  3503 TIP3 OH2  OT    -0.834000       15.9994           0
   83810 WT5  3503 TIP3 H1   HT     0.417000        1.0080           0
   83811 WT5  3503 TIP3 H2   HT     0.417000        1.0080           0
   83812 WT5  3504 TIP3 OH2  OT    -0.834000       15.9994           0
   83813 WT5  3504 TIP3 H1   HT     0.417000        1.0080           0
   83814 WT5  3504 TIP3 H2   HT     0.417000        1.0080           0
   83815 WT5  3506 TIP3 OH2  OT    -0.834000       15.9994           0
   83816 WT5  3506 TIP3 H1   HT     0.417000        1.0080           0
   83817 WT5  3506 TIP3 H2   HT     0.417000        1.0080           0
   83818 WT5  3507 TIP3 OH2  OT    -0.834000       15.9994           0
   83819 WT5  3507 TIP3 H1   HT     0.417000        1.0080           0
   83820 WT5  3507 TIP3 H2   HT     0.417000        1.0080           0
   83821 WT5  3508 TIP3 OH2  OT    -0.834000       15.9994           0
   83822 WT5  3508 TIP3 H1   HT     0.417000        1.0080           0
   83823 WT5  3508 TIP3 H2   HT     0.417000        1.0080           0
   83824 WT5  3509 TIP3 OH2  OT    -0.834000       15.9994           0
   83825 WT5  3509 TIP3 H1   HT     0.417000        1.0080           0
   83826 WT5  3509 TIP3 H2   HT     0.417000        1.0080           0
   83827 WT5  3510 TIP3 OH2  OT    -0.834000       15.9994           0
   83828 WT5  3510 TIP3 H1   HT     0.417000        1.0080           0
   83829 WT5  3510 TIP3 H2   HT     0.417000        1.0080           0
   83830 WT5  3511 TIP3 OH2  OT    -0.834000       15.9994           0
   83831 WT5  3511 TIP3 H1   HT     0.417000        1.0080           0
   83832 WT5  3511 TIP3 H2   HT     0.417000        1.0080           0
   83833 WT5  3512 TIP3 OH2  OT    -0.834000       15.9994           0
   83834 WT5  3512 TIP3 H1   HT     0.417000        1.0080           0
   83835 WT5  3512 TIP3 H2   HT     0.417000        1.0080           0
   83836 WT5  3513 TIP3 OH2  OT    -0.834000       15.9994           0
   83837 WT5  3513 TIP3 H1   HT     0.417000        1.0080           0
   83838 WT5  3513 TIP3 H2   HT     0.417000        1.0080           0
   83839 WT5  3515 TIP3 OH2  OT    -0.834000       15.9994           0
   83840 WT5  3515 TIP3 H1   HT     0.417000        1.0080           0
   83841 WT5  3515 TIP3 H2   HT     0.417000        1.0080           0
   83842 WT5  3516 TIP3 OH2  OT    -0.834000       15.9994           0
   83843 WT5  3516 TIP3 H1   HT     0.417000        1.0080           0
   83844 WT5  3516 TIP3 H2   HT     0.417000        1.0080           0
   83845 WT5  3517 TIP3 OH2  OT    -0.834000       15.9994           0
   83846 WT5  3517 TIP3 H1   HT     0.417000        1.0080           0
   83847 WT5  3517 TIP3 H2   HT     0.417000        1.0080           0
   83848 WT5  3518 TIP3 OH2  OT    -0.834000       15.9994           0
   83849 WT5  3518 TIP3 H1   HT     0.417000        1.0080           0
   83850 WT5  3518 TIP3 H2   HT     0.417000        1.0080           0
   83851 WT5  3519 TIP3 OH2  OT    -0.834000       15.9994           0
   83852 WT5  3519 TIP3 H1   HT     0.417000        1.0080           0
   83853 WT5  3519 TIP3 H2   HT     0.417000        1.0080           0
   83854 WT5  3520 TIP3 OH2  OT    -0.834000       15.9994           0
   83855 WT5  3520 TIP3 H1   HT     0.417000        1.0080           0
   83856 WT5  3520 TIP3 H2   HT     0.417000        1.0080           0
   83857 WT5  3521 TIP3 OH2  OT    -0.834000       15.9994           0
   83858 WT5  3521 TIP3 H1   HT     0.417000        1.0080           0
   83859 WT5  3521 TIP3 H2   HT     0.417000        1.0080           0
   83860 WT5  3522 TIP3 OH2  OT    -0.834000       15.9994           0
   83861 WT5  3522 TIP3 H1   HT     0.417000        1.0080           0
   83862 WT5  3522 TIP3 H2   HT     0.417000        1.0080           0
   83863 WT5  3523 TIP3 OH2  OT    -0.834000       15.9994           0
   83864 WT5  3523 TIP3 H1   HT     0.417000        1.0080           0
   83865 WT5  3523 TIP3 H2   HT     0.417000        1.0080           0
   83866 WT5  3525 TIP3 OH2  OT    -0.834000       15.9994           0
   83867 WT5  3525 TIP3 H1   HT     0.417000        1.0080           0
   83868 WT5  3525 TIP3 H2   HT     0.417000        1.0080           0
   83869 WT5  3526 TIP3 OH2  OT    -0.834000       15.9994           0
   83870 WT5  3526 TIP3 H1   HT     0.417000        1.0080           0
   83871 WT5  3526 TIP3 H2   HT     0.417000        1.0080           0
   83872 WT5  3527 TIP3 OH2  OT    -0.834000       15.9994           0
   83873 WT5  3527 TIP3 H1   HT     0.417000        1.0080           0
   83874 WT5  3527 TIP3 H2   HT     0.417000        1.0080           0
   83875 WT5  3528 TIP3 OH2  OT    -0.834000       15.9994           0
   83876 WT5  3528 TIP3 H1   HT     0.417000        1.0080           0
   83877 WT5  3528 TIP3 H2   HT     0.417000        1.0080           0
   83878 WT5  3530 TIP3 OH2  OT    -0.834000       15.9994           0
   83879 WT5  3530 TIP3 H1   HT     0.417000        1.0080           0
   83880 WT5  3530 TIP3 H2   HT     0.417000        1.0080           0
   83881 WT5  3531 TIP3 OH2  OT    -0.834000       15.9994           0
   83882 WT5  3531 TIP3 H1   HT     0.417000        1.0080           0
   83883 WT5  3531 TIP3 H2   HT     0.417000        1.0080           0
   83884 WT5  3532 TIP3 OH2  OT    -0.834000       15.9994           0
   83885 WT5  3532 TIP3 H1   HT     0.417000        1.0080           0
   83886 WT5  3532 TIP3 H2   HT     0.417000        1.0080           0
   83887 WT5  3533 TIP3 OH2  OT    -0.834000       15.9994           0
   83888 WT5  3533 TIP3 H1   HT     0.417000        1.0080           0
   83889 WT5  3533 TIP3 H2   HT     0.417000        1.0080           0
   83890 WT5  3534 TIP3 OH2  OT    -0.834000       15.9994           0
   83891 WT5  3534 TIP3 H1   HT     0.417000        1.0080           0
   83892 WT5  3534 TIP3 H2   HT     0.417000        1.0080           0
   83893 WT5  3535 TIP3 OH2  OT    -0.834000       15.9994           0
   83894 WT5  3535 TIP3 H1   HT     0.417000        1.0080           0
   83895 WT5  3535 TIP3 H2   HT     0.417000        1.0080           0
   83896 WT5  3536 TIP3 OH2  OT    -0.834000       15.9994           0
   83897 WT5  3536 TIP3 H1   HT     0.417000        1.0080           0
   83898 WT5  3536 TIP3 H2   HT     0.417000        1.0080           0
   83899 WT5  3537 TIP3 OH2  OT    -0.834000       15.9994           0
   83900 WT5  3537 TIP3 H1   HT     0.417000        1.0080           0
   83901 WT5  3537 TIP3 H2   HT     0.417000        1.0080           0
   83902 WT5  3538 TIP3 OH2  OT    -0.834000       15.9994           0
   83903 WT5  3538 TIP3 H1   HT     0.417000        1.0080           0
   83904 WT5  3538 TIP3 H2   HT     0.417000        1.0080           0
   83905 WT5  3539 TIP3 OH2  OT    -0.834000       15.9994           0
   83906 WT5  3539 TIP3 H1   HT     0.417000        1.0080           0
   83907 WT5  3539 TIP3 H2   HT     0.417000        1.0080           0
   83908 WT5  3540 TIP3 OH2  OT    -0.834000       15.9994           0
   83909 WT5  3540 TIP3 H1   HT     0.417000        1.0080           0
   83910 WT5  3540 TIP3 H2   HT     0.417000        1.0080           0
   83911 WT5  3541 TIP3 OH2  OT    -0.834000       15.9994           0
   83912 WT5  3541 TIP3 H1   HT     0.417000        1.0080           0
   83913 WT5  3541 TIP3 H2   HT     0.417000        1.0080           0
   83914 WT5  3542 TIP3 OH2  OT    -0.834000       15.9994           0
   83915 WT5  3542 TIP3 H1   HT     0.417000        1.0080           0
   83916 WT5  3542 TIP3 H2   HT     0.417000        1.0080           0
   83917 WT5  3544 TIP3 OH2  OT    -0.834000       15.9994           0
   83918 WT5  3544 TIP3 H1   HT     0.417000        1.0080           0
   83919 WT5  3544 TIP3 H2   HT     0.417000        1.0080           0
   83920 WT5  3545 TIP3 OH2  OT    -0.834000       15.9994           0
   83921 WT5  3545 TIP3 H1   HT     0.417000        1.0080           0
   83922 WT5  3545 TIP3 H2   HT     0.417000        1.0080           0
   83923 WT5  3548 TIP3 OH2  OT    -0.834000       15.9994           0
   83924 WT5  3548 TIP3 H1   HT     0.417000        1.0080           0
   83925 WT5  3548 TIP3 H2   HT     0.417000        1.0080           0
   83926 WT5  3549 TIP3 OH2  OT    -0.834000       15.9994           0
   83927 WT5  3549 TIP3 H1   HT     0.417000        1.0080           0
   83928 WT5  3549 TIP3 H2   HT     0.417000        1.0080           0
   83929 WT5  3550 TIP3 OH2  OT    -0.834000       15.9994           0
   83930 WT5  3550 TIP3 H1   HT     0.417000        1.0080           0
   83931 WT5  3550 TIP3 H2   HT     0.417000        1.0080           0
   83932 WT5  3551 TIP3 OH2  OT    -0.834000       15.9994           0
   83933 WT5  3551 TIP3 H1   HT     0.417000        1.0080           0
   83934 WT5  3551 TIP3 H2   HT     0.417000        1.0080           0
   83935 WT5  3552 TIP3 OH2  OT    -0.834000       15.9994           0
   83936 WT5  3552 TIP3 H1   HT     0.417000        1.0080           0
   83937 WT5  3552 TIP3 H2   HT     0.417000        1.0080           0
   83938 WT5  3553 TIP3 OH2  OT    -0.834000       15.9994           0
   83939 WT5  3553 TIP3 H1   HT     0.417000        1.0080           0
   83940 WT5  3553 TIP3 H2   HT     0.417000        1.0080           0
   83941 WT5  3554 TIP3 OH2  OT    -0.834000       15.9994           0
   83942 WT5  3554 TIP3 H1   HT     0.417000        1.0080           0
   83943 WT5  3554 TIP3 H2   HT     0.417000        1.0080           0
   83944 WT5  3555 TIP3 OH2  OT    -0.834000       15.9994           0
   83945 WT5  3555 TIP3 H1   HT     0.417000        1.0080           0
   83946 WT5  3555 TIP3 H2   HT     0.417000        1.0080           0
   83947 WT5  3556 TIP3 OH2  OT    -0.834000       15.9994           0
   83948 WT5  3556 TIP3 H1   HT     0.417000        1.0080           0
   83949 WT5  3556 TIP3 H2   HT     0.417000        1.0080           0
   83950 WT5  3557 TIP3 OH2  OT    -0.834000       15.9994           0
   83951 WT5  3557 TIP3 H1   HT     0.417000        1.0080           0
   83952 WT5  3557 TIP3 H2   HT     0.417000        1.0080           0
   83953 WT5  3558 TIP3 OH2  OT    -0.834000       15.9994           0
   83954 WT5  3558 TIP3 H1   HT     0.417000        1.0080           0
   83955 WT5  3558 TIP3 H2   HT     0.417000        1.0080           0
   83956 WT5  3559 TIP3 OH2  OT    -0.834000       15.9994           0
   83957 WT5  3559 TIP3 H1   HT     0.417000        1.0080           0
   83958 WT5  3559 TIP3 H2   HT     0.417000        1.0080           0
   83959 WT5  3560 TIP3 OH2  OT    -0.834000       15.9994           0
   83960 WT5  3560 TIP3 H1   HT     0.417000        1.0080           0
   83961 WT5  3560 TIP3 H2   HT     0.417000        1.0080           0
   83962 WT5  3561 TIP3 OH2  OT    -0.834000       15.9994           0
   83963 WT5  3561 TIP3 H1   HT     0.417000        1.0080           0
   83964 WT5  3561 TIP3 H2   HT     0.417000        1.0080           0
   83965 WT5  3562 TIP3 OH2  OT    -0.834000       15.9994           0
   83966 WT5  3562 TIP3 H1   HT     0.417000        1.0080           0
   83967 WT5  3562 TIP3 H2   HT     0.417000        1.0080           0
   83968 WT5  3563 TIP3 OH2  OT    -0.834000       15.9994           0
   83969 WT5  3563 TIP3 H1   HT     0.417000        1.0080           0
   83970 WT5  3563 TIP3 H2   HT     0.417000        1.0080           0
   83971 WT5  3564 TIP3 OH2  OT    -0.834000       15.9994           0
   83972 WT5  3564 TIP3 H1   HT     0.417000        1.0080           0
   83973 WT5  3564 TIP3 H2   HT     0.417000        1.0080           0
   83974 WT5  3565 TIP3 OH2  OT    -0.834000       15.9994           0
   83975 WT5  3565 TIP3 H1   HT     0.417000        1.0080           0
   83976 WT5  3565 TIP3 H2   HT     0.417000        1.0080           0
   83977 WT5  3569 TIP3 OH2  OT    -0.834000       15.9994           0
   83978 WT5  3569 TIP3 H1   HT     0.417000        1.0080           0
   83979 WT5  3569 TIP3 H2   HT     0.417000        1.0080           0
   83980 WT5  3570 TIP3 OH2  OT    -0.834000       15.9994           0
   83981 WT5  3570 TIP3 H1   HT     0.417000        1.0080           0
   83982 WT5  3570 TIP3 H2   HT     0.417000        1.0080           0
   83983 WT5  3572 TIP3 OH2  OT    -0.834000       15.9994           0
   83984 WT5  3572 TIP3 H1   HT     0.417000        1.0080           0
   83985 WT5  3572 TIP3 H2   HT     0.417000        1.0080           0
   83986 WT5  3573 TIP3 OH2  OT    -0.834000       15.9994           0
   83987 WT5  3573 TIP3 H1   HT     0.417000        1.0080           0
   83988 WT5  3573 TIP3 H2   HT     0.417000        1.0080           0
   83989 WT5  3574 TIP3 OH2  OT    -0.834000       15.9994           0
   83990 WT5  3574 TIP3 H1   HT     0.417000        1.0080           0
   83991 WT5  3574 TIP3 H2   HT     0.417000        1.0080           0
   83992 WT5  3575 TIP3 OH2  OT    -0.834000       15.9994           0
   83993 WT5  3575 TIP3 H1   HT     0.417000        1.0080           0
   83994 WT5  3575 TIP3 H2   HT     0.417000        1.0080           0
   83995 WT5  3576 TIP3 OH2  OT    -0.834000       15.9994           0
   83996 WT5  3576 TIP3 H1   HT     0.417000        1.0080           0
   83997 WT5  3576 TIP3 H2   HT     0.417000        1.0080           0
   83998 WT5  3577 TIP3 OH2  OT    -0.834000       15.9994           0
   83999 WT5  3577 TIP3 H1   HT     0.417000        1.0080           0
   84000 WT5  3577 TIP3 H2   HT     0.417000        1.0080           0
   84001 WT5  3578 TIP3 OH2  OT    -0.834000       15.9994           0
   84002 WT5  3578 TIP3 H1   HT     0.417000        1.0080           0
   84003 WT5  3578 TIP3 H2   HT     0.417000        1.0080           0
   84004 WT5  3579 TIP3 OH2  OT    -0.834000       15.9994           0
   84005 WT5  3579 TIP3 H1   HT     0.417000        1.0080           0
   84006 WT5  3579 TIP3 H2   HT     0.417000        1.0080           0
   84007 WT5  3580 TIP3 OH2  OT    -0.834000       15.9994           0
   84008 WT5  3580 TIP3 H1   HT     0.417000        1.0080           0
   84009 WT5  3580 TIP3 H2   HT     0.417000        1.0080           0
   84010 WT5  3581 TIP3 OH2  OT    -0.834000       15.9994           0
   84011 WT5  3581 TIP3 H1   HT     0.417000        1.0080           0
   84012 WT5  3581 TIP3 H2   HT     0.417000        1.0080           0
   84013 WT5  3582 TIP3 OH2  OT    -0.834000       15.9994           0
   84014 WT5  3582 TIP3 H1   HT     0.417000        1.0080           0
   84015 WT5  3582 TIP3 H2   HT     0.417000        1.0080           0
   84016 WT5  3583 TIP3 OH2  OT    -0.834000       15.9994           0
   84017 WT5  3583 TIP3 H1   HT     0.417000        1.0080           0
   84018 WT5  3583 TIP3 H2   HT     0.417000        1.0080           0
   84019 WT5  3585 TIP3 OH2  OT    -0.834000       15.9994           0
   84020 WT5  3585 TIP3 H1   HT     0.417000        1.0080           0
   84021 WT5  3585 TIP3 H2   HT     0.417000        1.0080           0
   84022 WT5  3586 TIP3 OH2  OT    -0.834000       15.9994           0
   84023 WT5  3586 TIP3 H1   HT     0.417000        1.0080           0
   84024 WT5  3586 TIP3 H2   HT     0.417000        1.0080           0
   84025 WT5  3587 TIP3 OH2  OT    -0.834000       15.9994           0
   84026 WT5  3587 TIP3 H1   HT     0.417000        1.0080           0
   84027 WT5  3587 TIP3 H2   HT     0.417000        1.0080           0
   84028 WT5  3588 TIP3 OH2  OT    -0.834000       15.9994           0
   84029 WT5  3588 TIP3 H1   HT     0.417000        1.0080           0
   84030 WT5  3588 TIP3 H2   HT     0.417000        1.0080           0
   84031 WT5  3589 TIP3 OH2  OT    -0.834000       15.9994           0
   84032 WT5  3589 TIP3 H1   HT     0.417000        1.0080           0
   84033 WT5  3589 TIP3 H2   HT     0.417000        1.0080           0
   84034 WT5  3590 TIP3 OH2  OT    -0.834000       15.9994           0
   84035 WT5  3590 TIP3 H1   HT     0.417000        1.0080           0
   84036 WT5  3590 TIP3 H2   HT     0.417000        1.0080           0
   84037 WT5  3591 TIP3 OH2  OT    -0.834000       15.9994           0
   84038 WT5  3591 TIP3 H1   HT     0.417000        1.0080           0
   84039 WT5  3591 TIP3 H2   HT     0.417000        1.0080           0
   84040 WT5  3592 TIP3 OH2  OT    -0.834000       15.9994           0
   84041 WT5  3592 TIP3 H1   HT     0.417000        1.0080           0
   84042 WT5  3592 TIP3 H2   HT     0.417000        1.0080           0
   84043 WT5  3593 TIP3 OH2  OT    -0.834000       15.9994           0
   84044 WT5  3593 TIP3 H1   HT     0.417000        1.0080           0
   84045 WT5  3593 TIP3 H2   HT     0.417000        1.0080           0
   84046 WT5  3594 TIP3 OH2  OT    -0.834000       15.9994           0
   84047 WT5  3594 TIP3 H1   HT     0.417000        1.0080           0
   84048 WT5  3594 TIP3 H2   HT     0.417000        1.0080           0
   84049 WT5  3595 TIP3 OH2  OT    -0.834000       15.9994           0
   84050 WT5  3595 TIP3 H1   HT     0.417000        1.0080           0
   84051 WT5  3595 TIP3 H2   HT     0.417000        1.0080           0
   84052 WT5  3596 TIP3 OH2  OT    -0.834000       15.9994           0
   84053 WT5  3596 TIP3 H1   HT     0.417000        1.0080           0
   84054 WT5  3596 TIP3 H2   HT     0.417000        1.0080           0
   84055 WT5  3597 TIP3 OH2  OT    -0.834000       15.9994           0
   84056 WT5  3597 TIP3 H1   HT     0.417000        1.0080           0
   84057 WT5  3597 TIP3 H2   HT     0.417000        1.0080           0
   84058 WT5  3598 TIP3 OH2  OT    -0.834000       15.9994           0
   84059 WT5  3598 TIP3 H1   HT     0.417000        1.0080           0
   84060 WT5  3598 TIP3 H2   HT     0.417000        1.0080           0
   84061 WT5  3599 TIP3 OH2  OT    -0.834000       15.9994           0
   84062 WT5  3599 TIP3 H1   HT     0.417000        1.0080           0
   84063 WT5  3599 TIP3 H2   HT     0.417000        1.0080           0
   84064 WT5  3600 TIP3 OH2  OT    -0.834000       15.9994           0
   84065 WT5  3600 TIP3 H1   HT     0.417000        1.0080           0
   84066 WT5  3600 TIP3 H2   HT     0.417000        1.0080           0
   84067 WT5  3601 TIP3 OH2  OT    -0.834000       15.9994           0
   84068 WT5  3601 TIP3 H1   HT     0.417000        1.0080           0
   84069 WT5  3601 TIP3 H2   HT     0.417000        1.0080           0
   84070 WT5  3602 TIP3 OH2  OT    -0.834000       15.9994           0
   84071 WT5  3602 TIP3 H1   HT     0.417000        1.0080           0
   84072 WT5  3602 TIP3 H2   HT     0.417000        1.0080           0
   84073 WT5  3603 TIP3 OH2  OT    -0.834000       15.9994           0
   84074 WT5  3603 TIP3 H1   HT     0.417000        1.0080           0
   84075 WT5  3603 TIP3 H2   HT     0.417000        1.0080           0
   84076 WT5  3604 TIP3 OH2  OT    -0.834000       15.9994           0
   84077 WT5  3604 TIP3 H1   HT     0.417000        1.0080           0
   84078 WT5  3604 TIP3 H2   HT     0.417000        1.0080           0
   84079 WT5  3607 TIP3 OH2  OT    -0.834000       15.9994           0
   84080 WT5  3607 TIP3 H1   HT     0.417000        1.0080           0
   84081 WT5  3607 TIP3 H2   HT     0.417000        1.0080           0
   84082 WT5  3608 TIP3 OH2  OT    -0.834000       15.9994           0
   84083 WT5  3608 TIP3 H1   HT     0.417000        1.0080           0
   84084 WT5  3608 TIP3 H2   HT     0.417000        1.0080           0
   84085 WT5  3610 TIP3 OH2  OT    -0.834000       15.9994           0
   84086 WT5  3610 TIP3 H1   HT     0.417000        1.0080           0
   84087 WT5  3610 TIP3 H2   HT     0.417000        1.0080           0
   84088 WT5  3611 TIP3 OH2  OT    -0.834000       15.9994           0
   84089 WT5  3611 TIP3 H1   HT     0.417000        1.0080           0
   84090 WT5  3611 TIP3 H2   HT     0.417000        1.0080           0
   84091 WT5  3612 TIP3 OH2  OT    -0.834000       15.9994           0
   84092 WT5  3612 TIP3 H1   HT     0.417000        1.0080           0
   84093 WT5  3612 TIP3 H2   HT     0.417000        1.0080           0
   84094 WT5  3613 TIP3 OH2  OT    -0.834000       15.9994           0
   84095 WT5  3613 TIP3 H1   HT     0.417000        1.0080           0
   84096 WT5  3613 TIP3 H2   HT     0.417000        1.0080           0
   84097 WT5  3614 TIP3 OH2  OT    -0.834000       15.9994           0
   84098 WT5  3614 TIP3 H1   HT     0.417000        1.0080           0
   84099 WT5  3614 TIP3 H2   HT     0.417000        1.0080           0
   84100 WT5  3615 TIP3 OH2  OT    -0.834000       15.9994           0
   84101 WT5  3615 TIP3 H1   HT     0.417000        1.0080           0
   84102 WT5  3615 TIP3 H2   HT     0.417000        1.0080           0
   84103 WT5  3616 TIP3 OH2  OT    -0.834000       15.9994           0
   84104 WT5  3616 TIP3 H1   HT     0.417000        1.0080           0
   84105 WT5  3616 TIP3 H2   HT     0.417000        1.0080           0
   84106 WT5  3617 TIP3 OH2  OT    -0.834000       15.9994           0
   84107 WT5  3617 TIP3 H1   HT     0.417000        1.0080           0
   84108 WT5  3617 TIP3 H2   HT     0.417000        1.0080           0
   84109 WT5  3618 TIP3 OH2  OT    -0.834000       15.9994           0
   84110 WT5  3618 TIP3 H1   HT     0.417000        1.0080           0
   84111 WT5  3618 TIP3 H2   HT     0.417000        1.0080           0
   84112 WT5  3620 TIP3 OH2  OT    -0.834000       15.9994           0
   84113 WT5  3620 TIP3 H1   HT     0.417000        1.0080           0
   84114 WT5  3620 TIP3 H2   HT     0.417000        1.0080           0
   84115 WT5  3621 TIP3 OH2  OT    -0.834000       15.9994           0
   84116 WT5  3621 TIP3 H1   HT     0.417000        1.0080           0
   84117 WT5  3621 TIP3 H2   HT     0.417000        1.0080           0
   84118 WT5  3622 TIP3 OH2  OT    -0.834000       15.9994           0
   84119 WT5  3622 TIP3 H1   HT     0.417000        1.0080           0
   84120 WT5  3622 TIP3 H2   HT     0.417000        1.0080           0
   84121 WT5  3623 TIP3 OH2  OT    -0.834000       15.9994           0
   84122 WT5  3623 TIP3 H1   HT     0.417000        1.0080           0
   84123 WT5  3623 TIP3 H2   HT     0.417000        1.0080           0
   84124 WT5  3624 TIP3 OH2  OT    -0.834000       15.9994           0
   84125 WT5  3624 TIP3 H1   HT     0.417000        1.0080           0
   84126 WT5  3624 TIP3 H2   HT     0.417000        1.0080           0
   84127 WT5  3625 TIP3 OH2  OT    -0.834000       15.9994           0
   84128 WT5  3625 TIP3 H1   HT     0.417000        1.0080           0
   84129 WT5  3625 TIP3 H2   HT     0.417000        1.0080           0
   84130 WT5  3626 TIP3 OH2  OT    -0.834000       15.9994           0
   84131 WT5  3626 TIP3 H1   HT     0.417000        1.0080           0
   84132 WT5  3626 TIP3 H2   HT     0.417000        1.0080           0
   84133 WT5  3627 TIP3 OH2  OT    -0.834000       15.9994           0
   84134 WT5  3627 TIP3 H1   HT     0.417000        1.0080           0
   84135 WT5  3627 TIP3 H2   HT     0.417000        1.0080           0
   84136 WT5  3628 TIP3 OH2  OT    -0.834000       15.9994           0
   84137 WT5  3628 TIP3 H1   HT     0.417000        1.0080           0
   84138 WT5  3628 TIP3 H2   HT     0.417000        1.0080           0
   84139 WT5  3629 TIP3 OH2  OT    -0.834000       15.9994           0
   84140 WT5  3629 TIP3 H1   HT     0.417000        1.0080           0
   84141 WT5  3629 TIP3 H2   HT     0.417000        1.0080           0
   84142 WT5  3630 TIP3 OH2  OT    -0.834000       15.9994           0
   84143 WT5  3630 TIP3 H1   HT     0.417000        1.0080           0
   84144 WT5  3630 TIP3 H2   HT     0.417000        1.0080           0
   84145 WT5  3632 TIP3 OH2  OT    -0.834000       15.9994           0
   84146 WT5  3632 TIP3 H1   HT     0.417000        1.0080           0
   84147 WT5  3632 TIP3 H2   HT     0.417000        1.0080           0
   84148 WT5  3633 TIP3 OH2  OT    -0.834000       15.9994           0
   84149 WT5  3633 TIP3 H1   HT     0.417000        1.0080           0
   84150 WT5  3633 TIP3 H2   HT     0.417000        1.0080           0
   84151 WT5  3634 TIP3 OH2  OT    -0.834000       15.9994           0
   84152 WT5  3634 TIP3 H1   HT     0.417000        1.0080           0
   84153 WT5  3634 TIP3 H2   HT     0.417000        1.0080           0
   84154 WT5  3636 TIP3 OH2  OT    -0.834000       15.9994           0
   84155 WT5  3636 TIP3 H1   HT     0.417000        1.0080           0
   84156 WT5  3636 TIP3 H2   HT     0.417000        1.0080           0
   84157 WT5  3638 TIP3 OH2  OT    -0.834000       15.9994           0
   84158 WT5  3638 TIP3 H1   HT     0.417000        1.0080           0
   84159 WT5  3638 TIP3 H2   HT     0.417000        1.0080           0
   84160 WT5  3639 TIP3 OH2  OT    -0.834000       15.9994           0
   84161 WT5  3639 TIP3 H1   HT     0.417000        1.0080           0
   84162 WT5  3639 TIP3 H2   HT     0.417000        1.0080           0
   84163 WT5  3640 TIP3 OH2  OT    -0.834000       15.9994           0
   84164 WT5  3640 TIP3 H1   HT     0.417000        1.0080           0
   84165 WT5  3640 TIP3 H2   HT     0.417000        1.0080           0
   84166 WT5  3641 TIP3 OH2  OT    -0.834000       15.9994           0
   84167 WT5  3641 TIP3 H1   HT     0.417000        1.0080           0
   84168 WT5  3641 TIP3 H2   HT     0.417000        1.0080           0
   84169 WT5  3642 TIP3 OH2  OT    -0.834000       15.9994           0
   84170 WT5  3642 TIP3 H1   HT     0.417000        1.0080           0
   84171 WT5  3642 TIP3 H2   HT     0.417000        1.0080           0
   84172 WT5  3643 TIP3 OH2  OT    -0.834000       15.9994           0
   84173 WT5  3643 TIP3 H1   HT     0.417000        1.0080           0
   84174 WT5  3643 TIP3 H2   HT     0.417000        1.0080           0
   84175 WT5  3644 TIP3 OH2  OT    -0.834000       15.9994           0
   84176 WT5  3644 TIP3 H1   HT     0.417000        1.0080           0
   84177 WT5  3644 TIP3 H2   HT     0.417000        1.0080           0
   84178 WT5  3645 TIP3 OH2  OT    -0.834000       15.9994           0
   84179 WT5  3645 TIP3 H1   HT     0.417000        1.0080           0
   84180 WT5  3645 TIP3 H2   HT     0.417000        1.0080           0
   84181 WT5  3646 TIP3 OH2  OT    -0.834000       15.9994           0
   84182 WT5  3646 TIP3 H1   HT     0.417000        1.0080           0
   84183 WT5  3646 TIP3 H2   HT     0.417000        1.0080           0
   84184 WT5  3647 TIP3 OH2  OT    -0.834000       15.9994           0
   84185 WT5  3647 TIP3 H1   HT     0.417000        1.0080           0
   84186 WT5  3647 TIP3 H2   HT     0.417000        1.0080           0
   84187 WT5  3648 TIP3 OH2  OT    -0.834000       15.9994           0
   84188 WT5  3648 TIP3 H1   HT     0.417000        1.0080           0
   84189 WT5  3648 TIP3 H2   HT     0.417000        1.0080           0
   84190 WT5  3650 TIP3 OH2  OT    -0.834000       15.9994           0
   84191 WT5  3650 TIP3 H1   HT     0.417000        1.0080           0
   84192 WT5  3650 TIP3 H2   HT     0.417000        1.0080           0
   84193 WT5  3651 TIP3 OH2  OT    -0.834000       15.9994           0
   84194 WT5  3651 TIP3 H1   HT     0.417000        1.0080           0
   84195 WT5  3651 TIP3 H2   HT     0.417000        1.0080           0
   84196 WT5  3653 TIP3 OH2  OT    -0.834000       15.9994           0
   84197 WT5  3653 TIP3 H1   HT     0.417000        1.0080           0
   84198 WT5  3653 TIP3 H2   HT     0.417000        1.0080           0
   84199 WT5  3654 TIP3 OH2  OT    -0.834000       15.9994           0
   84200 WT5  3654 TIP3 H1   HT     0.417000        1.0080           0
   84201 WT5  3654 TIP3 H2   HT     0.417000        1.0080           0
   84202 WT5  3655 TIP3 OH2  OT    -0.834000       15.9994           0
   84203 WT5  3655 TIP3 H1   HT     0.417000        1.0080           0
   84204 WT5  3655 TIP3 H2   HT     0.417000        1.0080           0
   84205 WT5  3657 TIP3 OH2  OT    -0.834000       15.9994           0
   84206 WT5  3657 TIP3 H1   HT     0.417000        1.0080           0
   84207 WT5  3657 TIP3 H2   HT     0.417000        1.0080           0
   84208 WT5  3658 TIP3 OH2  OT    -0.834000       15.9994           0
   84209 WT5  3658 TIP3 H1   HT     0.417000        1.0080           0
   84210 WT5  3658 TIP3 H2   HT     0.417000        1.0080           0
   84211 WT5  3659 TIP3 OH2  OT    -0.834000       15.9994           0
   84212 WT5  3659 TIP3 H1   HT     0.417000        1.0080           0
   84213 WT5  3659 TIP3 H2   HT     0.417000        1.0080           0
   84214 WT5  3660 TIP3 OH2  OT    -0.834000       15.9994           0
   84215 WT5  3660 TIP3 H1   HT     0.417000        1.0080           0
   84216 WT5  3660 TIP3 H2   HT     0.417000        1.0080           0
   84217 WT5  3661 TIP3 OH2  OT    -0.834000       15.9994           0
   84218 WT5  3661 TIP3 H1   HT     0.417000        1.0080           0
   84219 WT5  3661 TIP3 H2   HT     0.417000        1.0080           0
   84220 WT5  3663 TIP3 OH2  OT    -0.834000       15.9994           0
   84221 WT5  3663 TIP3 H1   HT     0.417000        1.0080           0
   84222 WT5  3663 TIP3 H2   HT     0.417000        1.0080           0
   84223 WT5  3664 TIP3 OH2  OT    -0.834000       15.9994           0
   84224 WT5  3664 TIP3 H1   HT     0.417000        1.0080           0
   84225 WT5  3664 TIP3 H2   HT     0.417000        1.0080           0
   84226 WT5  3665 TIP3 OH2  OT    -0.834000       15.9994           0
   84227 WT5  3665 TIP3 H1   HT     0.417000        1.0080           0
   84228 WT5  3665 TIP3 H2   HT     0.417000        1.0080           0
   84229 WT5  3666 TIP3 OH2  OT    -0.834000       15.9994           0
   84230 WT5  3666 TIP3 H1   HT     0.417000        1.0080           0
   84231 WT5  3666 TIP3 H2   HT     0.417000        1.0080           0
   84232 WT5  3667 TIP3 OH2  OT    -0.834000       15.9994           0
   84233 WT5  3667 TIP3 H1   HT     0.417000        1.0080           0
   84234 WT5  3667 TIP3 H2   HT     0.417000        1.0080           0
   84235 WT5  3668 TIP3 OH2  OT    -0.834000       15.9994           0
   84236 WT5  3668 TIP3 H1   HT     0.417000        1.0080           0
   84237 WT5  3668 TIP3 H2   HT     0.417000        1.0080           0
   84238 WT5  3670 TIP3 OH2  OT    -0.834000       15.9994           0
   84239 WT5  3670 TIP3 H1   HT     0.417000        1.0080           0
   84240 WT5  3670 TIP3 H2   HT     0.417000        1.0080           0
   84241 WT5  3671 TIP3 OH2  OT    -0.834000       15.9994           0
   84242 WT5  3671 TIP3 H1   HT     0.417000        1.0080           0
   84243 WT5  3671 TIP3 H2   HT     0.417000        1.0080           0
   84244 WT5  3673 TIP3 OH2  OT    -0.834000       15.9994           0
   84245 WT5  3673 TIP3 H1   HT     0.417000        1.0080           0
   84246 WT5  3673 TIP3 H2   HT     0.417000        1.0080           0
   84247 WT5  3674 TIP3 OH2  OT    -0.834000       15.9994           0
   84248 WT5  3674 TIP3 H1   HT     0.417000        1.0080           0
   84249 WT5  3674 TIP3 H2   HT     0.417000        1.0080           0
   84250 WT5  3675 TIP3 OH2  OT    -0.834000       15.9994           0
   84251 WT5  3675 TIP3 H1   HT     0.417000        1.0080           0
   84252 WT5  3675 TIP3 H2   HT     0.417000        1.0080           0
   84253 WT5  3677 TIP3 OH2  OT    -0.834000       15.9994           0
   84254 WT5  3677 TIP3 H1   HT     0.417000        1.0080           0
   84255 WT5  3677 TIP3 H2   HT     0.417000        1.0080           0
   84256 WT5  3678 TIP3 OH2  OT    -0.834000       15.9994           0
   84257 WT5  3678 TIP3 H1   HT     0.417000        1.0080           0
   84258 WT5  3678 TIP3 H2   HT     0.417000        1.0080           0
   84259 WT5  3679 TIP3 OH2  OT    -0.834000       15.9994           0
   84260 WT5  3679 TIP3 H1   HT     0.417000        1.0080           0
   84261 WT5  3679 TIP3 H2   HT     0.417000        1.0080           0
   84262 WT5  3680 TIP3 OH2  OT    -0.834000       15.9994           0
   84263 WT5  3680 TIP3 H1   HT     0.417000        1.0080           0
   84264 WT5  3680 TIP3 H2   HT     0.417000        1.0080           0
   84265 WT5  3681 TIP3 OH2  OT    -0.834000       15.9994           0
   84266 WT5  3681 TIP3 H1   HT     0.417000        1.0080           0
   84267 WT5  3681 TIP3 H2   HT     0.417000        1.0080           0
   84268 WT5  3682 TIP3 OH2  OT    -0.834000       15.9994           0
   84269 WT5  3682 TIP3 H1   HT     0.417000        1.0080           0
   84270 WT5  3682 TIP3 H2   HT     0.417000        1.0080           0
   84271 WT5  3683 TIP3 OH2  OT    -0.834000       15.9994           0
   84272 WT5  3683 TIP3 H1   HT     0.417000        1.0080           0
   84273 WT5  3683 TIP3 H2   HT     0.417000        1.0080           0
   84274 WT5  3684 TIP3 OH2  OT    -0.834000       15.9994           0
   84275 WT5  3684 TIP3 H1   HT     0.417000        1.0080           0
   84276 WT5  3684 TIP3 H2   HT     0.417000        1.0080           0
   84277 WT5  3685 TIP3 OH2  OT    -0.834000       15.9994           0
   84278 WT5  3685 TIP3 H1   HT     0.417000        1.0080           0
   84279 WT5  3685 TIP3 H2   HT     0.417000        1.0080           0
   84280 WT5  3686 TIP3 OH2  OT    -0.834000       15.9994           0
   84281 WT5  3686 TIP3 H1   HT     0.417000        1.0080           0
   84282 WT5  3686 TIP3 H2   HT     0.417000        1.0080           0
   84283 WT5  3687 TIP3 OH2  OT    -0.834000       15.9994           0
   84284 WT5  3687 TIP3 H1   HT     0.417000        1.0080           0
   84285 WT5  3687 TIP3 H2   HT     0.417000        1.0080           0
   84286 WT5  3688 TIP3 OH2  OT    -0.834000       15.9994           0
   84287 WT5  3688 TIP3 H1   HT     0.417000        1.0080           0
   84288 WT5  3688 TIP3 H2   HT     0.417000        1.0080           0
   84289 WT5  3689 TIP3 OH2  OT    -0.834000       15.9994           0
   84290 WT5  3689 TIP3 H1   HT     0.417000        1.0080           0
   84291 WT5  3689 TIP3 H2   HT     0.417000        1.0080           0
   84292 WT5  3690 TIP3 OH2  OT    -0.834000       15.9994           0
   84293 WT5  3690 TIP3 H1   HT     0.417000        1.0080           0
   84294 WT5  3690 TIP3 H2   HT     0.417000        1.0080           0
   84295 WT5  3691 TIP3 OH2  OT    -0.834000       15.9994           0
   84296 WT5  3691 TIP3 H1   HT     0.417000        1.0080           0
   84297 WT5  3691 TIP3 H2   HT     0.417000        1.0080           0
   84298 WT5  3692 TIP3 OH2  OT    -0.834000       15.9994           0
   84299 WT5  3692 TIP3 H1   HT     0.417000        1.0080           0
   84300 WT5  3692 TIP3 H2   HT     0.417000        1.0080           0
   84301 WT5  3693 TIP3 OH2  OT    -0.834000       15.9994           0
   84302 WT5  3693 TIP3 H1   HT     0.417000        1.0080           0
   84303 WT5  3693 TIP3 H2   HT     0.417000        1.0080           0
   84304 WT5  3694 TIP3 OH2  OT    -0.834000       15.9994           0
   84305 WT5  3694 TIP3 H1   HT     0.417000        1.0080           0
   84306 WT5  3694 TIP3 H2   HT     0.417000        1.0080           0
   84307 WT5  3695 TIP3 OH2  OT    -0.834000       15.9994           0
   84308 WT5  3695 TIP3 H1   HT     0.417000        1.0080           0
   84309 WT5  3695 TIP3 H2   HT     0.417000        1.0080           0
   84310 WT5  3696 TIP3 OH2  OT    -0.834000       15.9994           0
   84311 WT5  3696 TIP3 H1   HT     0.417000        1.0080           0
   84312 WT5  3696 TIP3 H2   HT     0.417000        1.0080           0
   84313 WT5  3697 TIP3 OH2  OT    -0.834000       15.9994           0
   84314 WT5  3697 TIP3 H1   HT     0.417000        1.0080           0
   84315 WT5  3697 TIP3 H2   HT     0.417000        1.0080           0
   84316 WT5  3698 TIP3 OH2  OT    -0.834000       15.9994           0
   84317 WT5  3698 TIP3 H1   HT     0.417000        1.0080           0
   84318 WT5  3698 TIP3 H2   HT     0.417000        1.0080           0
   84319 WT5  3699 TIP3 OH2  OT    -0.834000       15.9994           0
   84320 WT5  3699 TIP3 H1   HT     0.417000        1.0080           0
   84321 WT5  3699 TIP3 H2   HT     0.417000        1.0080           0
   84322 WT5  3700 TIP3 OH2  OT    -0.834000       15.9994           0
   84323 WT5  3700 TIP3 H1   HT     0.417000        1.0080           0
   84324 WT5  3700 TIP3 H2   HT     0.417000        1.0080           0
   84325 WT5  3701 TIP3 OH2  OT    -0.834000       15.9994           0
   84326 WT5  3701 TIP3 H1   HT     0.417000        1.0080           0
   84327 WT5  3701 TIP3 H2   HT     0.417000        1.0080           0
   84328 WT5  3702 TIP3 OH2  OT    -0.834000       15.9994           0
   84329 WT5  3702 TIP3 H1   HT     0.417000        1.0080           0
   84330 WT5  3702 TIP3 H2   HT     0.417000        1.0080           0
   84331 WT5  3703 TIP3 OH2  OT    -0.834000       15.9994           0
   84332 WT5  3703 TIP3 H1   HT     0.417000        1.0080           0
   84333 WT5  3703 TIP3 H2   HT     0.417000        1.0080           0
   84334 WT5  3704 TIP3 OH2  OT    -0.834000       15.9994           0
   84335 WT5  3704 TIP3 H1   HT     0.417000        1.0080           0
   84336 WT5  3704 TIP3 H2   HT     0.417000        1.0080           0
   84337 WT5  3705 TIP3 OH2  OT    -0.834000       15.9994           0
   84338 WT5  3705 TIP3 H1   HT     0.417000        1.0080           0
   84339 WT5  3705 TIP3 H2   HT     0.417000        1.0080           0
   84340 WT5  3706 TIP3 OH2  OT    -0.834000       15.9994           0
   84341 WT5  3706 TIP3 H1   HT     0.417000        1.0080           0
   84342 WT5  3706 TIP3 H2   HT     0.417000        1.0080           0
   84343 WT5  3707 TIP3 OH2  OT    -0.834000       15.9994           0
   84344 WT5  3707 TIP3 H1   HT     0.417000        1.0080           0
   84345 WT5  3707 TIP3 H2   HT     0.417000        1.0080           0
   84346 WT5  3708 TIP3 OH2  OT    -0.834000       15.9994           0
   84347 WT5  3708 TIP3 H1   HT     0.417000        1.0080           0
   84348 WT5  3708 TIP3 H2   HT     0.417000        1.0080           0
   84349 WT5  3709 TIP3 OH2  OT    -0.834000       15.9994           0
   84350 WT5  3709 TIP3 H1   HT     0.417000        1.0080           0
   84351 WT5  3709 TIP3 H2   HT     0.417000        1.0080           0
   84352 WT5  3710 TIP3 OH2  OT    -0.834000       15.9994           0
   84353 WT5  3710 TIP3 H1   HT     0.417000        1.0080           0
   84354 WT5  3710 TIP3 H2   HT     0.417000        1.0080           0
   84355 WT5  3713 TIP3 OH2  OT    -0.834000       15.9994           0
   84356 WT5  3713 TIP3 H1   HT     0.417000        1.0080           0
   84357 WT5  3713 TIP3 H2   HT     0.417000        1.0080           0
   84358 WT5  3716 TIP3 OH2  OT    -0.834000       15.9994           0
   84359 WT5  3716 TIP3 H1   HT     0.417000        1.0080           0
   84360 WT5  3716 TIP3 H2   HT     0.417000        1.0080           0
   84361 WT5  3718 TIP3 OH2  OT    -0.834000       15.9994           0
   84362 WT5  3718 TIP3 H1   HT     0.417000        1.0080           0
   84363 WT5  3718 TIP3 H2   HT     0.417000        1.0080           0
   84364 WT5  3719 TIP3 OH2  OT    -0.834000       15.9994           0
   84365 WT5  3719 TIP3 H1   HT     0.417000        1.0080           0
   84366 WT5  3719 TIP3 H2   HT     0.417000        1.0080           0
   84367 WT5  3720 TIP3 OH2  OT    -0.834000       15.9994           0
   84368 WT5  3720 TIP3 H1   HT     0.417000        1.0080           0
   84369 WT5  3720 TIP3 H2   HT     0.417000        1.0080           0
   84370 WT5  3721 TIP3 OH2  OT    -0.834000       15.9994           0
   84371 WT5  3721 TIP3 H1   HT     0.417000        1.0080           0
   84372 WT5  3721 TIP3 H2   HT     0.417000        1.0080           0
   84373 WT5  3722 TIP3 OH2  OT    -0.834000       15.9994           0
   84374 WT5  3722 TIP3 H1   HT     0.417000        1.0080           0
   84375 WT5  3722 TIP3 H2   HT     0.417000        1.0080           0
   84376 WT5  3723 TIP3 OH2  OT    -0.834000       15.9994           0
   84377 WT5  3723 TIP3 H1   HT     0.417000        1.0080           0
   84378 WT5  3723 TIP3 H2   HT     0.417000        1.0080           0
   84379 WT5  3724 TIP3 OH2  OT    -0.834000       15.9994           0
   84380 WT5  3724 TIP3 H1   HT     0.417000        1.0080           0
   84381 WT5  3724 TIP3 H2   HT     0.417000        1.0080           0
   84382 WT5  3725 TIP3 OH2  OT    -0.834000       15.9994           0
   84383 WT5  3725 TIP3 H1   HT     0.417000        1.0080           0
   84384 WT5  3725 TIP3 H2   HT     0.417000        1.0080           0
   84385 WT5  3726 TIP3 OH2  OT    -0.834000       15.9994           0
   84386 WT5  3726 TIP3 H1   HT     0.417000        1.0080           0
   84387 WT5  3726 TIP3 H2   HT     0.417000        1.0080           0
   84388 WT5  3727 TIP3 OH2  OT    -0.834000       15.9994           0
   84389 WT5  3727 TIP3 H1   HT     0.417000        1.0080           0
   84390 WT5  3727 TIP3 H2   HT     0.417000        1.0080           0
   84391 WT5  3728 TIP3 OH2  OT    -0.834000       15.9994           0
   84392 WT5  3728 TIP3 H1   HT     0.417000        1.0080           0
   84393 WT5  3728 TIP3 H2   HT     0.417000        1.0080           0
   84394 WT5  3729 TIP3 OH2  OT    -0.834000       15.9994           0
   84395 WT5  3729 TIP3 H1   HT     0.417000        1.0080           0
   84396 WT5  3729 TIP3 H2   HT     0.417000        1.0080           0
   84397 WT5  3730 TIP3 OH2  OT    -0.834000       15.9994           0
   84398 WT5  3730 TIP3 H1   HT     0.417000        1.0080           0
   84399 WT5  3730 TIP3 H2   HT     0.417000        1.0080           0
   84400 WT5  3731 TIP3 OH2  OT    -0.834000       15.9994           0
   84401 WT5  3731 TIP3 H1   HT     0.417000        1.0080           0
   84402 WT5  3731 TIP3 H2   HT     0.417000        1.0080           0
   84403 WT5  3732 TIP3 OH2  OT    -0.834000       15.9994           0
   84404 WT5  3732 TIP3 H1   HT     0.417000        1.0080           0
   84405 WT5  3732 TIP3 H2   HT     0.417000        1.0080           0
   84406 WT5  3733 TIP3 OH2  OT    -0.834000       15.9994           0
   84407 WT5  3733 TIP3 H1   HT     0.417000        1.0080           0
   84408 WT5  3733 TIP3 H2   HT     0.417000        1.0080           0
   84409 WT5  3734 TIP3 OH2  OT    -0.834000       15.9994           0
   84410 WT5  3734 TIP3 H1   HT     0.417000        1.0080           0
   84411 WT5  3734 TIP3 H2   HT     0.417000        1.0080           0
   84412 WT5  3735 TIP3 OH2  OT    -0.834000       15.9994           0
   84413 WT5  3735 TIP3 H1   HT     0.417000        1.0080           0
   84414 WT5  3735 TIP3 H2   HT     0.417000        1.0080           0
   84415 WT5  3736 TIP3 OH2  OT    -0.834000       15.9994           0
   84416 WT5  3736 TIP3 H1   HT     0.417000        1.0080           0
   84417 WT5  3736 TIP3 H2   HT     0.417000        1.0080           0
   84418 WT5  3737 TIP3 OH2  OT    -0.834000       15.9994           0
   84419 WT5  3737 TIP3 H1   HT     0.417000        1.0080           0
   84420 WT5  3737 TIP3 H2   HT     0.417000        1.0080           0
   84421 WT5  3739 TIP3 OH2  OT    -0.834000       15.9994           0
   84422 WT5  3739 TIP3 H1   HT     0.417000        1.0080           0
   84423 WT5  3739 TIP3 H2   HT     0.417000        1.0080           0
   84424 WT5  3740 TIP3 OH2  OT    -0.834000       15.9994           0
   84425 WT5  3740 TIP3 H1   HT     0.417000        1.0080           0
   84426 WT5  3740 TIP3 H2   HT     0.417000        1.0080           0
   84427 WT5  3742 TIP3 OH2  OT    -0.834000       15.9994           0
   84428 WT5  3742 TIP3 H1   HT     0.417000        1.0080           0
   84429 WT5  3742 TIP3 H2   HT     0.417000        1.0080           0
   84430 WT5  3743 TIP3 OH2  OT    -0.834000       15.9994           0
   84431 WT5  3743 TIP3 H1   HT     0.417000        1.0080           0
   84432 WT5  3743 TIP3 H2   HT     0.417000        1.0080           0
   84433 WT5  3744 TIP3 OH2  OT    -0.834000       15.9994           0
   84434 WT5  3744 TIP3 H1   HT     0.417000        1.0080           0
   84435 WT5  3744 TIP3 H2   HT     0.417000        1.0080           0
   84436 WT5  3745 TIP3 OH2  OT    -0.834000       15.9994           0
   84437 WT5  3745 TIP3 H1   HT     0.417000        1.0080           0
   84438 WT5  3745 TIP3 H2   HT     0.417000        1.0080           0
   84439 WT5  3746 TIP3 OH2  OT    -0.834000       15.9994           0
   84440 WT5  3746 TIP3 H1   HT     0.417000        1.0080           0
   84441 WT5  3746 TIP3 H2   HT     0.417000        1.0080           0
   84442 WT5  3747 TIP3 OH2  OT    -0.834000       15.9994           0
   84443 WT5  3747 TIP3 H1   HT     0.417000        1.0080           0
   84444 WT5  3747 TIP3 H2   HT     0.417000        1.0080           0
   84445 WT5  3748 TIP3 OH2  OT    -0.834000       15.9994           0
   84446 WT5  3748 TIP3 H1   HT     0.417000        1.0080           0
   84447 WT5  3748 TIP3 H2   HT     0.417000        1.0080           0
   84448 WT5  3749 TIP3 OH2  OT    -0.834000       15.9994           0
   84449 WT5  3749 TIP3 H1   HT     0.417000        1.0080           0
   84450 WT5  3749 TIP3 H2   HT     0.417000        1.0080           0
   84451 WT5  3750 TIP3 OH2  OT    -0.834000       15.9994           0
   84452 WT5  3750 TIP3 H1   HT     0.417000        1.0080           0
   84453 WT5  3750 TIP3 H2   HT     0.417000        1.0080           0
   84454 WT5  3751 TIP3 OH2  OT    -0.834000       15.9994           0
   84455 WT5  3751 TIP3 H1   HT     0.417000        1.0080           0
   84456 WT5  3751 TIP3 H2   HT     0.417000        1.0080           0
   84457 WT5  3752 TIP3 OH2  OT    -0.834000       15.9994           0
   84458 WT5  3752 TIP3 H1   HT     0.417000        1.0080           0
   84459 WT5  3752 TIP3 H2   HT     0.417000        1.0080           0
   84460 WT5  3753 TIP3 OH2  OT    -0.834000       15.9994           0
   84461 WT5  3753 TIP3 H1   HT     0.417000        1.0080           0
   84462 WT5  3753 TIP3 H2   HT     0.417000        1.0080           0
   84463 WT5  3754 TIP3 OH2  OT    -0.834000       15.9994           0
   84464 WT5  3754 TIP3 H1   HT     0.417000        1.0080           0
   84465 WT5  3754 TIP3 H2   HT     0.417000        1.0080           0
   84466 WT5  3756 TIP3 OH2  OT    -0.834000       15.9994           0
   84467 WT5  3756 TIP3 H1   HT     0.417000        1.0080           0
   84468 WT5  3756 TIP3 H2   HT     0.417000        1.0080           0
   84469 WT5  3757 TIP3 OH2  OT    -0.834000       15.9994           0
   84470 WT5  3757 TIP3 H1   HT     0.417000        1.0080           0
   84471 WT5  3757 TIP3 H2   HT     0.417000        1.0080           0
   84472 WT5  3758 TIP3 OH2  OT    -0.834000       15.9994           0
   84473 WT5  3758 TIP3 H1   HT     0.417000        1.0080           0
   84474 WT5  3758 TIP3 H2   HT     0.417000        1.0080           0
   84475 WT5  3759 TIP3 OH2  OT    -0.834000       15.9994           0
   84476 WT5  3759 TIP3 H1   HT     0.417000        1.0080           0
   84477 WT5  3759 TIP3 H2   HT     0.417000        1.0080           0
   84478 WT5  3760 TIP3 OH2  OT    -0.834000       15.9994           0
   84479 WT5  3760 TIP3 H1   HT     0.417000        1.0080           0
   84480 WT5  3760 TIP3 H2   HT     0.417000        1.0080           0
   84481 WT5  3761 TIP3 OH2  OT    -0.834000       15.9994           0
   84482 WT5  3761 TIP3 H1   HT     0.417000        1.0080           0
   84483 WT5  3761 TIP3 H2   HT     0.417000        1.0080           0
   84484 WT5  3762 TIP3 OH2  OT    -0.834000       15.9994           0
   84485 WT5  3762 TIP3 H1   HT     0.417000        1.0080           0
   84486 WT5  3762 TIP3 H2   HT     0.417000        1.0080           0
   84487 WT5  3763 TIP3 OH2  OT    -0.834000       15.9994           0
   84488 WT5  3763 TIP3 H1   HT     0.417000        1.0080           0
   84489 WT5  3763 TIP3 H2   HT     0.417000        1.0080           0
   84490 WT5  3764 TIP3 OH2  OT    -0.834000       15.9994           0
   84491 WT5  3764 TIP3 H1   HT     0.417000        1.0080           0
   84492 WT5  3764 TIP3 H2   HT     0.417000        1.0080           0
   84493 WT5  3765 TIP3 OH2  OT    -0.834000       15.9994           0
   84494 WT5  3765 TIP3 H1   HT     0.417000        1.0080           0
   84495 WT5  3765 TIP3 H2   HT     0.417000        1.0080           0
   84496 WT5  3766 TIP3 OH2  OT    -0.834000       15.9994           0
   84497 WT5  3766 TIP3 H1   HT     0.417000        1.0080           0
   84498 WT5  3766 TIP3 H2   HT     0.417000        1.0080           0
   84499 WT5  3767 TIP3 OH2  OT    -0.834000       15.9994           0
   84500 WT5  3767 TIP3 H1   HT     0.417000        1.0080           0
   84501 WT5  3767 TIP3 H2   HT     0.417000        1.0080           0
   84502 WT5  3768 TIP3 OH2  OT    -0.834000       15.9994           0
   84503 WT5  3768 TIP3 H1   HT     0.417000        1.0080           0
   84504 WT5  3768 TIP3 H2   HT     0.417000        1.0080           0
   84505 WT5  3769 TIP3 OH2  OT    -0.834000       15.9994           0
   84506 WT5  3769 TIP3 H1   HT     0.417000        1.0080           0
   84507 WT5  3769 TIP3 H2   HT     0.417000        1.0080           0
   84508 WT5  3770 TIP3 OH2  OT    -0.834000       15.9994           0
   84509 WT5  3770 TIP3 H1   HT     0.417000        1.0080           0
   84510 WT5  3770 TIP3 H2   HT     0.417000        1.0080           0
   84511 WT5  3771 TIP3 OH2  OT    -0.834000       15.9994           0
   84512 WT5  3771 TIP3 H1   HT     0.417000        1.0080           0
   84513 WT5  3771 TIP3 H2   HT     0.417000        1.0080           0
   84514 WT5  3772 TIP3 OH2  OT    -0.834000       15.9994           0
   84515 WT5  3772 TIP3 H1   HT     0.417000        1.0080           0
   84516 WT5  3772 TIP3 H2   HT     0.417000        1.0080           0
   84517 WT5  3773 TIP3 OH2  OT    -0.834000       15.9994           0
   84518 WT5  3773 TIP3 H1   HT     0.417000        1.0080           0
   84519 WT5  3773 TIP3 H2   HT     0.417000        1.0080           0
   84520 WT5  3774 TIP3 OH2  OT    -0.834000       15.9994           0
   84521 WT5  3774 TIP3 H1   HT     0.417000        1.0080           0
   84522 WT5  3774 TIP3 H2   HT     0.417000        1.0080           0
   84523 WT5  3776 TIP3 OH2  OT    -0.834000       15.9994           0
   84524 WT5  3776 TIP3 H1   HT     0.417000        1.0080           0
   84525 WT5  3776 TIP3 H2   HT     0.417000        1.0080           0
   84526 WT5  3777 TIP3 OH2  OT    -0.834000       15.9994           0
   84527 WT5  3777 TIP3 H1   HT     0.417000        1.0080           0
   84528 WT5  3777 TIP3 H2   HT     0.417000        1.0080           0
   84529 WT5  3778 TIP3 OH2  OT    -0.834000       15.9994           0
   84530 WT5  3778 TIP3 H1   HT     0.417000        1.0080           0
   84531 WT5  3778 TIP3 H2   HT     0.417000        1.0080           0
   84532 WT5  3780 TIP3 OH2  OT    -0.834000       15.9994           0
   84533 WT5  3780 TIP3 H1   HT     0.417000        1.0080           0
   84534 WT5  3780 TIP3 H2   HT     0.417000        1.0080           0
   84535 WT5  3781 TIP3 OH2  OT    -0.834000       15.9994           0
   84536 WT5  3781 TIP3 H1   HT     0.417000        1.0080           0
   84537 WT5  3781 TIP3 H2   HT     0.417000        1.0080           0
   84538 WT5  3782 TIP3 OH2  OT    -0.834000       15.9994           0
   84539 WT5  3782 TIP3 H1   HT     0.417000        1.0080           0
   84540 WT5  3782 TIP3 H2   HT     0.417000        1.0080           0
   84541 WT5  3783 TIP3 OH2  OT    -0.834000       15.9994           0
   84542 WT5  3783 TIP3 H1   HT     0.417000        1.0080           0
   84543 WT5  3783 TIP3 H2   HT     0.417000        1.0080           0
   84544 WT5  3784 TIP3 OH2  OT    -0.834000       15.9994           0
   84545 WT5  3784 TIP3 H1   HT     0.417000        1.0080           0
   84546 WT5  3784 TIP3 H2   HT     0.417000        1.0080           0
   84547 WT5  3785 TIP3 OH2  OT    -0.834000       15.9994           0
   84548 WT5  3785 TIP3 H1   HT     0.417000        1.0080           0
   84549 WT5  3785 TIP3 H2   HT     0.417000        1.0080           0
   84550 WT5  3786 TIP3 OH2  OT    -0.834000       15.9994           0
   84551 WT5  3786 TIP3 H1   HT     0.417000        1.0080           0
   84552 WT5  3786 TIP3 H2   HT     0.417000        1.0080           0
   84553 WT5  3787 TIP3 OH2  OT    -0.834000       15.9994           0
   84554 WT5  3787 TIP3 H1   HT     0.417000        1.0080           0
   84555 WT5  3787 TIP3 H2   HT     0.417000        1.0080           0
   84556 WT5  3788 TIP3 OH2  OT    -0.834000       15.9994           0
   84557 WT5  3788 TIP3 H1   HT     0.417000        1.0080           0
   84558 WT5  3788 TIP3 H2   HT     0.417000        1.0080           0
   84559 WT5  3789 TIP3 OH2  OT    -0.834000       15.9994           0
   84560 WT5  3789 TIP3 H1   HT     0.417000        1.0080           0
   84561 WT5  3789 TIP3 H2   HT     0.417000        1.0080           0
   84562 WT5  3790 TIP3 OH2  OT    -0.834000       15.9994           0
   84563 WT5  3790 TIP3 H1   HT     0.417000        1.0080           0
   84564 WT5  3790 TIP3 H2   HT     0.417000        1.0080           0
   84565 WT5  3791 TIP3 OH2  OT    -0.834000       15.9994           0
   84566 WT5  3791 TIP3 H1   HT     0.417000        1.0080           0
   84567 WT5  3791 TIP3 H2   HT     0.417000        1.0080           0
   84568 WT5  3792 TIP3 OH2  OT    -0.834000       15.9994           0
   84569 WT5  3792 TIP3 H1   HT     0.417000        1.0080           0
   84570 WT5  3792 TIP3 H2   HT     0.417000        1.0080           0
   84571 WT5  3793 TIP3 OH2  OT    -0.834000       15.9994           0
   84572 WT5  3793 TIP3 H1   HT     0.417000        1.0080           0
   84573 WT5  3793 TIP3 H2   HT     0.417000        1.0080           0
   84574 WT5  3794 TIP3 OH2  OT    -0.834000       15.9994           0
   84575 WT5  3794 TIP3 H1   HT     0.417000        1.0080           0
   84576 WT5  3794 TIP3 H2   HT     0.417000        1.0080           0
   84577 WT5  3795 TIP3 OH2  OT    -0.834000       15.9994           0
   84578 WT5  3795 TIP3 H1   HT     0.417000        1.0080           0
   84579 WT5  3795 TIP3 H2   HT     0.417000        1.0080           0
   84580 WT5  3796 TIP3 OH2  OT    -0.834000       15.9994           0
   84581 WT5  3796 TIP3 H1   HT     0.417000        1.0080           0
   84582 WT5  3796 TIP3 H2   HT     0.417000        1.0080           0
   84583 WT5  3798 TIP3 OH2  OT    -0.834000       15.9994           0
   84584 WT5  3798 TIP3 H1   HT     0.417000        1.0080           0
   84585 WT5  3798 TIP3 H2   HT     0.417000        1.0080           0
   84586 WT5  3799 TIP3 OH2  OT    -0.834000       15.9994           0
   84587 WT5  3799 TIP3 H1   HT     0.417000        1.0080           0
   84588 WT5  3799 TIP3 H2   HT     0.417000        1.0080           0
   84589 WT5  3800 TIP3 OH2  OT    -0.834000       15.9994           0
   84590 WT5  3800 TIP3 H1   HT     0.417000        1.0080           0
   84591 WT5  3800 TIP3 H2   HT     0.417000        1.0080           0
   84592 WT5  3801 TIP3 OH2  OT    -0.834000       15.9994           0
   84593 WT5  3801 TIP3 H1   HT     0.417000        1.0080           0
   84594 WT5  3801 TIP3 H2   HT     0.417000        1.0080           0
   84595 WT5  3802 TIP3 OH2  OT    -0.834000       15.9994           0
   84596 WT5  3802 TIP3 H1   HT     0.417000        1.0080           0
   84597 WT5  3802 TIP3 H2   HT     0.417000        1.0080           0
   84598 WT5  3803 TIP3 OH2  OT    -0.834000       15.9994           0
   84599 WT5  3803 TIP3 H1   HT     0.417000        1.0080           0
   84600 WT5  3803 TIP3 H2   HT     0.417000        1.0080           0
   84601 WT5  3804 TIP3 OH2  OT    -0.834000       15.9994           0
   84602 WT5  3804 TIP3 H1   HT     0.417000        1.0080           0
   84603 WT5  3804 TIP3 H2   HT     0.417000        1.0080           0
   84604 WT5  3805 TIP3 OH2  OT    -0.834000       15.9994           0
   84605 WT5  3805 TIP3 H1   HT     0.417000        1.0080           0
   84606 WT5  3805 TIP3 H2   HT     0.417000        1.0080           0
   84607 WT5  3806 TIP3 OH2  OT    -0.834000       15.9994           0
   84608 WT5  3806 TIP3 H1   HT     0.417000        1.0080           0
   84609 WT5  3806 TIP3 H2   HT     0.417000        1.0080           0
   84610 WT5  3807 TIP3 OH2  OT    -0.834000       15.9994           0
   84611 WT5  3807 TIP3 H1   HT     0.417000        1.0080           0
   84612 WT5  3807 TIP3 H2   HT     0.417000        1.0080           0
   84613 WT5  3808 TIP3 OH2  OT    -0.834000       15.9994           0
   84614 WT5  3808 TIP3 H1   HT     0.417000        1.0080           0
   84615 WT5  3808 TIP3 H2   HT     0.417000        1.0080           0
   84616 WT5  3809 TIP3 OH2  OT    -0.834000       15.9994           0
   84617 WT5  3809 TIP3 H1   HT     0.417000        1.0080           0
   84618 WT5  3809 TIP3 H2   HT     0.417000        1.0080           0
   84619 WT5  3811 TIP3 OH2  OT    -0.834000       15.9994           0
   84620 WT5  3811 TIP3 H1   HT     0.417000        1.0080           0
   84621 WT5  3811 TIP3 H2   HT     0.417000        1.0080           0
   84622 WT5  3812 TIP3 OH2  OT    -0.834000       15.9994           0
   84623 WT5  3812 TIP3 H1   HT     0.417000        1.0080           0
   84624 WT5  3812 TIP3 H2   HT     0.417000        1.0080           0
   84625 WT5  3813 TIP3 OH2  OT    -0.834000       15.9994           0
   84626 WT5  3813 TIP3 H1   HT     0.417000        1.0080           0
   84627 WT5  3813 TIP3 H2   HT     0.417000        1.0080           0
   84628 WT5  3814 TIP3 OH2  OT    -0.834000       15.9994           0
   84629 WT5  3814 TIP3 H1   HT     0.417000        1.0080           0
   84630 WT5  3814 TIP3 H2   HT     0.417000        1.0080           0
   84631 WT5  3815 TIP3 OH2  OT    -0.834000       15.9994           0
   84632 WT5  3815 TIP3 H1   HT     0.417000        1.0080           0
   84633 WT5  3815 TIP3 H2   HT     0.417000        1.0080           0
   84634 WT5  3816 TIP3 OH2  OT    -0.834000       15.9994           0
   84635 WT5  3816 TIP3 H1   HT     0.417000        1.0080           0
   84636 WT5  3816 TIP3 H2   HT     0.417000        1.0080           0
   84637 WT5  3817 TIP3 OH2  OT    -0.834000       15.9994           0
   84638 WT5  3817 TIP3 H1   HT     0.417000        1.0080           0
   84639 WT5  3817 TIP3 H2   HT     0.417000        1.0080           0
   84640 WT5  3818 TIP3 OH2  OT    -0.834000       15.9994           0
   84641 WT5  3818 TIP3 H1   HT     0.417000        1.0080           0
   84642 WT5  3818 TIP3 H2   HT     0.417000        1.0080           0
   84643 WT5  3819 TIP3 OH2  OT    -0.834000       15.9994           0
   84644 WT5  3819 TIP3 H1   HT     0.417000        1.0080           0
   84645 WT5  3819 TIP3 H2   HT     0.417000        1.0080           0
   84646 WT5  3820 TIP3 OH2  OT    -0.834000       15.9994           0
   84647 WT5  3820 TIP3 H1   HT     0.417000        1.0080           0
   84648 WT5  3820 TIP3 H2   HT     0.417000        1.0080           0
   84649 WT5  3821 TIP3 OH2  OT    -0.834000       15.9994           0
   84650 WT5  3821 TIP3 H1   HT     0.417000        1.0080           0
   84651 WT5  3821 TIP3 H2   HT     0.417000        1.0080           0
   84652 WT5  3822 TIP3 OH2  OT    -0.834000       15.9994           0
   84653 WT5  3822 TIP3 H1   HT     0.417000        1.0080           0
   84654 WT5  3822 TIP3 H2   HT     0.417000        1.0080           0
   84655 WT5  3823 TIP3 OH2  OT    -0.834000       15.9994           0
   84656 WT5  3823 TIP3 H1   HT     0.417000        1.0080           0
   84657 WT5  3823 TIP3 H2   HT     0.417000        1.0080           0
   84658 WT5  3824 TIP3 OH2  OT    -0.834000       15.9994           0
   84659 WT5  3824 TIP3 H1   HT     0.417000        1.0080           0
   84660 WT5  3824 TIP3 H2   HT     0.417000        1.0080           0
   84661 WT5  3825 TIP3 OH2  OT    -0.834000       15.9994           0
   84662 WT5  3825 TIP3 H1   HT     0.417000        1.0080           0
   84663 WT5  3825 TIP3 H2   HT     0.417000        1.0080           0
   84664 WT5  3826 TIP3 OH2  OT    -0.834000       15.9994           0
   84665 WT5  3826 TIP3 H1   HT     0.417000        1.0080           0
   84666 WT5  3826 TIP3 H2   HT     0.417000        1.0080           0
   84667 WT5  3827 TIP3 OH2  OT    -0.834000       15.9994           0
   84668 WT5  3827 TIP3 H1   HT     0.417000        1.0080           0
   84669 WT5  3827 TIP3 H2   HT     0.417000        1.0080           0
   84670 WT5  3828 TIP3 OH2  OT    -0.834000       15.9994           0
   84671 WT5  3828 TIP3 H1   HT     0.417000        1.0080           0
   84672 WT5  3828 TIP3 H2   HT     0.417000        1.0080           0
   84673 WT5  3829 TIP3 OH2  OT    -0.834000       15.9994           0
   84674 WT5  3829 TIP3 H1   HT     0.417000        1.0080           0
   84675 WT5  3829 TIP3 H2   HT     0.417000        1.0080           0
   84676 WT5  3830 TIP3 OH2  OT    -0.834000       15.9994           0
   84677 WT5  3830 TIP3 H1   HT     0.417000        1.0080           0
   84678 WT5  3830 TIP3 H2   HT     0.417000        1.0080           0
   84679 WT5  3831 TIP3 OH2  OT    -0.834000       15.9994           0
   84680 WT5  3831 TIP3 H1   HT     0.417000        1.0080           0
   84681 WT5  3831 TIP3 H2   HT     0.417000        1.0080           0
   84682 WT5  3833 TIP3 OH2  OT    -0.834000       15.9994           0
   84683 WT5  3833 TIP3 H1   HT     0.417000        1.0080           0
   84684 WT5  3833 TIP3 H2   HT     0.417000        1.0080           0
   84685 WT5  3834 TIP3 OH2  OT    -0.834000       15.9994           0
   84686 WT5  3834 TIP3 H1   HT     0.417000        1.0080           0
   84687 WT5  3834 TIP3 H2   HT     0.417000        1.0080           0
   84688 WT5  3836 TIP3 OH2  OT    -0.834000       15.9994           0
   84689 WT5  3836 TIP3 H1   HT     0.417000        1.0080           0
   84690 WT5  3836 TIP3 H2   HT     0.417000        1.0080           0
   84691 WT5  3838 TIP3 OH2  OT    -0.834000       15.9994           0
   84692 WT5  3838 TIP3 H1   HT     0.417000        1.0080           0
   84693 WT5  3838 TIP3 H2   HT     0.417000        1.0080           0
   84694 WT5  3839 TIP3 OH2  OT    -0.834000       15.9994           0
   84695 WT5  3839 TIP3 H1   HT     0.417000        1.0080           0
   84696 WT5  3839 TIP3 H2   HT     0.417000        1.0080           0
   84697 WT5  3840 TIP3 OH2  OT    -0.834000       15.9994           0
   84698 WT5  3840 TIP3 H1   HT     0.417000        1.0080           0
   84699 WT5  3840 TIP3 H2   HT     0.417000        1.0080           0
   84700 WT5  3841 TIP3 OH2  OT    -0.834000       15.9994           0
   84701 WT5  3841 TIP3 H1   HT     0.417000        1.0080           0
   84702 WT5  3841 TIP3 H2   HT     0.417000        1.0080           0
   84703 WT5  3843 TIP3 OH2  OT    -0.834000       15.9994           0
   84704 WT5  3843 TIP3 H1   HT     0.417000        1.0080           0
   84705 WT5  3843 TIP3 H2   HT     0.417000        1.0080           0
   84706 WT5  3844 TIP3 OH2  OT    -0.834000       15.9994           0
   84707 WT5  3844 TIP3 H1   HT     0.417000        1.0080           0
   84708 WT5  3844 TIP3 H2   HT     0.417000        1.0080           0
   84709 WT5  3845 TIP3 OH2  OT    -0.834000       15.9994           0
   84710 WT5  3845 TIP3 H1   HT     0.417000        1.0080           0
   84711 WT5  3845 TIP3 H2   HT     0.417000        1.0080           0
   84712 WT5  3846 TIP3 OH2  OT    -0.834000       15.9994           0
   84713 WT5  3846 TIP3 H1   HT     0.417000        1.0080           0
   84714 WT5  3846 TIP3 H2   HT     0.417000        1.0080           0
   84715 WT5  3847 TIP3 OH2  OT    -0.834000       15.9994           0
   84716 WT5  3847 TIP3 H1   HT     0.417000        1.0080           0
   84717 WT5  3847 TIP3 H2   HT     0.417000        1.0080           0
   84718 WT5  3848 TIP3 OH2  OT    -0.834000       15.9994           0
   84719 WT5  3848 TIP3 H1   HT     0.417000        1.0080           0
   84720 WT5  3848 TIP3 H2   HT     0.417000        1.0080           0
   84721 WT5  3849 TIP3 OH2  OT    -0.834000       15.9994           0
   84722 WT5  3849 TIP3 H1   HT     0.417000        1.0080           0
   84723 WT5  3849 TIP3 H2   HT     0.417000        1.0080           0
   84724 WT5  3850 TIP3 OH2  OT    -0.834000       15.9994           0
   84725 WT5  3850 TIP3 H1   HT     0.417000        1.0080           0
   84726 WT5  3850 TIP3 H2   HT     0.417000        1.0080           0
   84727 WT5  3851 TIP3 OH2  OT    -0.834000       15.9994           0
   84728 WT5  3851 TIP3 H1   HT     0.417000        1.0080           0
   84729 WT5  3851 TIP3 H2   HT     0.417000        1.0080           0
   84730 WT5  3852 TIP3 OH2  OT    -0.834000       15.9994           0
   84731 WT5  3852 TIP3 H1   HT     0.417000        1.0080           0
   84732 WT5  3852 TIP3 H2   HT     0.417000        1.0080           0
   84733 WT5  3853 TIP3 OH2  OT    -0.834000       15.9994           0
   84734 WT5  3853 TIP3 H1   HT     0.417000        1.0080           0
   84735 WT5  3853 TIP3 H2   HT     0.417000        1.0080           0
   84736 WT5  3854 TIP3 OH2  OT    -0.834000       15.9994           0
   84737 WT5  3854 TIP3 H1   HT     0.417000        1.0080           0
   84738 WT5  3854 TIP3 H2   HT     0.417000        1.0080           0
   84739 WT5  3855 TIP3 OH2  OT    -0.834000       15.9994           0
   84740 WT5  3855 TIP3 H1   HT     0.417000        1.0080           0
   84741 WT5  3855 TIP3 H2   HT     0.417000        1.0080           0
   84742 WT5  3857 TIP3 OH2  OT    -0.834000       15.9994           0
   84743 WT5  3857 TIP3 H1   HT     0.417000        1.0080           0
   84744 WT5  3857 TIP3 H2   HT     0.417000        1.0080           0
   84745 WT5  3858 TIP3 OH2  OT    -0.834000       15.9994           0
   84746 WT5  3858 TIP3 H1   HT     0.417000        1.0080           0
   84747 WT5  3858 TIP3 H2   HT     0.417000        1.0080           0
   84748 WT5  3859 TIP3 OH2  OT    -0.834000       15.9994           0
   84749 WT5  3859 TIP3 H1   HT     0.417000        1.0080           0
   84750 WT5  3859 TIP3 H2   HT     0.417000        1.0080           0
   84751 WT5  3860 TIP3 OH2  OT    -0.834000       15.9994           0
   84752 WT5  3860 TIP3 H1   HT     0.417000        1.0080           0
   84753 WT5  3860 TIP3 H2   HT     0.417000        1.0080           0
   84754 WT5  3861 TIP3 OH2  OT    -0.834000       15.9994           0
   84755 WT5  3861 TIP3 H1   HT     0.417000        1.0080           0
   84756 WT5  3861 TIP3 H2   HT     0.417000        1.0080           0
   84757 WT5  3862 TIP3 OH2  OT    -0.834000       15.9994           0
   84758 WT5  3862 TIP3 H1   HT     0.417000        1.0080           0
   84759 WT5  3862 TIP3 H2   HT     0.417000        1.0080           0
   84760 WT5  3863 TIP3 OH2  OT    -0.834000       15.9994           0
   84761 WT5  3863 TIP3 H1   HT     0.417000        1.0080           0
   84762 WT5  3863 TIP3 H2   HT     0.417000        1.0080           0
   84763 WT5  3864 TIP3 OH2  OT    -0.834000       15.9994           0
   84764 WT5  3864 TIP3 H1   HT     0.417000        1.0080           0
   84765 WT5  3864 TIP3 H2   HT     0.417000        1.0080           0
   84766 WT5  3865 TIP3 OH2  OT    -0.834000       15.9994           0
   84767 WT5  3865 TIP3 H1   HT     0.417000        1.0080           0
   84768 WT5  3865 TIP3 H2   HT     0.417000        1.0080           0
   84769 WT5  3866 TIP3 OH2  OT    -0.834000       15.9994           0
   84770 WT5  3866 TIP3 H1   HT     0.417000        1.0080           0
   84771 WT5  3866 TIP3 H2   HT     0.417000        1.0080           0
   84772 WT5  3867 TIP3 OH2  OT    -0.834000       15.9994           0
   84773 WT5  3867 TIP3 H1   HT     0.417000        1.0080           0
   84774 WT5  3867 TIP3 H2   HT     0.417000        1.0080           0
   84775 WT5  3868 TIP3 OH2  OT    -0.834000       15.9994           0
   84776 WT5  3868 TIP3 H1   HT     0.417000        1.0080           0
   84777 WT5  3868 TIP3 H2   HT     0.417000        1.0080           0
   84778 WT5  3869 TIP3 OH2  OT    -0.834000       15.9994           0
   84779 WT5  3869 TIP3 H1   HT     0.417000        1.0080           0
   84780 WT5  3869 TIP3 H2   HT     0.417000        1.0080           0
   84781 WT5  3870 TIP3 OH2  OT    -0.834000       15.9994           0
   84782 WT5  3870 TIP3 H1   HT     0.417000        1.0080           0
   84783 WT5  3870 TIP3 H2   HT     0.417000        1.0080           0
   84784 WT5  3871 TIP3 OH2  OT    -0.834000       15.9994           0
   84785 WT5  3871 TIP3 H1   HT     0.417000        1.0080           0
   84786 WT5  3871 TIP3 H2   HT     0.417000        1.0080           0
   84787 WT5  3872 TIP3 OH2  OT    -0.834000       15.9994           0
   84788 WT5  3872 TIP3 H1   HT     0.417000        1.0080           0
   84789 WT5  3872 TIP3 H2   HT     0.417000        1.0080           0
   84790 WT5  3873 TIP3 OH2  OT    -0.834000       15.9994           0
   84791 WT5  3873 TIP3 H1   HT     0.417000        1.0080           0
   84792 WT5  3873 TIP3 H2   HT     0.417000        1.0080           0
   84793 WT5  3874 TIP3 OH2  OT    -0.834000       15.9994           0
   84794 WT5  3874 TIP3 H1   HT     0.417000        1.0080           0
   84795 WT5  3874 TIP3 H2   HT     0.417000        1.0080           0
   84796 WT5  3875 TIP3 OH2  OT    -0.834000       15.9994           0
   84797 WT5  3875 TIP3 H1   HT     0.417000        1.0080           0
   84798 WT5  3875 TIP3 H2   HT     0.417000        1.0080           0
   84799 WT5  3876 TIP3 OH2  OT    -0.834000       15.9994           0
   84800 WT5  3876 TIP3 H1   HT     0.417000        1.0080           0
   84801 WT5  3876 TIP3 H2   HT     0.417000        1.0080           0
   84802 WT5  3878 TIP3 OH2  OT    -0.834000       15.9994           0
   84803 WT5  3878 TIP3 H1   HT     0.417000        1.0080           0
   84804 WT5  3878 TIP3 H2   HT     0.417000        1.0080           0
   84805 WT5  3879 TIP3 OH2  OT    -0.834000       15.9994           0
   84806 WT5  3879 TIP3 H1   HT     0.417000        1.0080           0
   84807 WT5  3879 TIP3 H2   HT     0.417000        1.0080           0
   84808 WT5  3880 TIP3 OH2  OT    -0.834000       15.9994           0
   84809 WT5  3880 TIP3 H1   HT     0.417000        1.0080           0
   84810 WT5  3880 TIP3 H2   HT     0.417000        1.0080           0
   84811 WT5  3882 TIP3 OH2  OT    -0.834000       15.9994           0
   84812 WT5  3882 TIP3 H1   HT     0.417000        1.0080           0
   84813 WT5  3882 TIP3 H2   HT     0.417000        1.0080           0
   84814 WT5  3883 TIP3 OH2  OT    -0.834000       15.9994           0
   84815 WT5  3883 TIP3 H1   HT     0.417000        1.0080           0
   84816 WT5  3883 TIP3 H2   HT     0.417000        1.0080           0
   84817 WT5  3884 TIP3 OH2  OT    -0.834000       15.9994           0
   84818 WT5  3884 TIP3 H1   HT     0.417000        1.0080           0
   84819 WT5  3884 TIP3 H2   HT     0.417000        1.0080           0
   84820 WT5  3885 TIP3 OH2  OT    -0.834000       15.9994           0
   84821 WT5  3885 TIP3 H1   HT     0.417000        1.0080           0
   84822 WT5  3885 TIP3 H2   HT     0.417000        1.0080           0
   84823 WT5  3886 TIP3 OH2  OT    -0.834000       15.9994           0
   84824 WT5  3886 TIP3 H1   HT     0.417000        1.0080           0
   84825 WT5  3886 TIP3 H2   HT     0.417000        1.0080           0
   84826 WT5  3887 TIP3 OH2  OT    -0.834000       15.9994           0
   84827 WT5  3887 TIP3 H1   HT     0.417000        1.0080           0
   84828 WT5  3887 TIP3 H2   HT     0.417000        1.0080           0
   84829 WT5  3888 TIP3 OH2  OT    -0.834000       15.9994           0
   84830 WT5  3888 TIP3 H1   HT     0.417000        1.0080           0
   84831 WT5  3888 TIP3 H2   HT     0.417000        1.0080           0
   84832 WT5  3889 TIP3 OH2  OT    -0.834000       15.9994           0
   84833 WT5  3889 TIP3 H1   HT     0.417000        1.0080           0
   84834 WT5  3889 TIP3 H2   HT     0.417000        1.0080           0
   84835 WT5  3890 TIP3 OH2  OT    -0.834000       15.9994           0
   84836 WT5  3890 TIP3 H1   HT     0.417000        1.0080           0
   84837 WT5  3890 TIP3 H2   HT     0.417000        1.0080           0
   84838 WT5  3891 TIP3 OH2  OT    -0.834000       15.9994           0
   84839 WT5  3891 TIP3 H1   HT     0.417000        1.0080           0
   84840 WT5  3891 TIP3 H2   HT     0.417000        1.0080           0
   84841 WT5  3892 TIP3 OH2  OT    -0.834000       15.9994           0
   84842 WT5  3892 TIP3 H1   HT     0.417000        1.0080           0
   84843 WT5  3892 TIP3 H2   HT     0.417000        1.0080           0
   84844 WT5  3893 TIP3 OH2  OT    -0.834000       15.9994           0
   84845 WT5  3893 TIP3 H1   HT     0.417000        1.0080           0
   84846 WT5  3893 TIP3 H2   HT     0.417000        1.0080           0
   84847 WT5  3894 TIP3 OH2  OT    -0.834000       15.9994           0
   84848 WT5  3894 TIP3 H1   HT     0.417000        1.0080           0
   84849 WT5  3894 TIP3 H2   HT     0.417000        1.0080           0
   84850 WT5  3895 TIP3 OH2  OT    -0.834000       15.9994           0
   84851 WT5  3895 TIP3 H1   HT     0.417000        1.0080           0
   84852 WT5  3895 TIP3 H2   HT     0.417000        1.0080           0
   84853 WT5  3897 TIP3 OH2  OT    -0.834000       15.9994           0
   84854 WT5  3897 TIP3 H1   HT     0.417000        1.0080           0
   84855 WT5  3897 TIP3 H2   HT     0.417000        1.0080           0
   84856 WT5  3898 TIP3 OH2  OT    -0.834000       15.9994           0
   84857 WT5  3898 TIP3 H1   HT     0.417000        1.0080           0
   84858 WT5  3898 TIP3 H2   HT     0.417000        1.0080           0
   84859 WT5  3899 TIP3 OH2  OT    -0.834000       15.9994           0
   84860 WT5  3899 TIP3 H1   HT     0.417000        1.0080           0
   84861 WT5  3899 TIP3 H2   HT     0.417000        1.0080           0
   84862 WT5  3900 TIP3 OH2  OT    -0.834000       15.9994           0
   84863 WT5  3900 TIP3 H1   HT     0.417000        1.0080           0
   84864 WT5  3900 TIP3 H2   HT     0.417000        1.0080           0
   84865 WT5  3901 TIP3 OH2  OT    -0.834000       15.9994           0
   84866 WT5  3901 TIP3 H1   HT     0.417000        1.0080           0
   84867 WT5  3901 TIP3 H2   HT     0.417000        1.0080           0
   84868 WT5  3903 TIP3 OH2  OT    -0.834000       15.9994           0
   84869 WT5  3903 TIP3 H1   HT     0.417000        1.0080           0
   84870 WT5  3903 TIP3 H2   HT     0.417000        1.0080           0
   84871 WT5  3905 TIP3 OH2  OT    -0.834000       15.9994           0
   84872 WT5  3905 TIP3 H1   HT     0.417000        1.0080           0
   84873 WT5  3905 TIP3 H2   HT     0.417000        1.0080           0
   84874 WT5  3906 TIP3 OH2  OT    -0.834000       15.9994           0
   84875 WT5  3906 TIP3 H1   HT     0.417000        1.0080           0
   84876 WT5  3906 TIP3 H2   HT     0.417000        1.0080           0
   84877 WT5  3907 TIP3 OH2  OT    -0.834000       15.9994           0
   84878 WT5  3907 TIP3 H1   HT     0.417000        1.0080           0
   84879 WT5  3907 TIP3 H2   HT     0.417000        1.0080           0
   84880 WT5  3908 TIP3 OH2  OT    -0.834000       15.9994           0
   84881 WT5  3908 TIP3 H1   HT     0.417000        1.0080           0
   84882 WT5  3908 TIP3 H2   HT     0.417000        1.0080           0
   84883 WT5  3909 TIP3 OH2  OT    -0.834000       15.9994           0
   84884 WT5  3909 TIP3 H1   HT     0.417000        1.0080           0
   84885 WT5  3909 TIP3 H2   HT     0.417000        1.0080           0
   84886 WT5  3910 TIP3 OH2  OT    -0.834000       15.9994           0
   84887 WT5  3910 TIP3 H1   HT     0.417000        1.0080           0
   84888 WT5  3910 TIP3 H2   HT     0.417000        1.0080           0
   84889 WT5  3911 TIP3 OH2  OT    -0.834000       15.9994           0
   84890 WT5  3911 TIP3 H1   HT     0.417000        1.0080           0
   84891 WT5  3911 TIP3 H2   HT     0.417000        1.0080           0
   84892 WT5  3912 TIP3 OH2  OT    -0.834000       15.9994           0
   84893 WT5  3912 TIP3 H1   HT     0.417000        1.0080           0
   84894 WT5  3912 TIP3 H2   HT     0.417000        1.0080           0
   84895 WT5  3913 TIP3 OH2  OT    -0.834000       15.9994           0
   84896 WT5  3913 TIP3 H1   HT     0.417000        1.0080           0
   84897 WT5  3913 TIP3 H2   HT     0.417000        1.0080           0
   84898 WT5  3914 TIP3 OH2  OT    -0.834000       15.9994           0
   84899 WT5  3914 TIP3 H1   HT     0.417000        1.0080           0
   84900 WT5  3914 TIP3 H2   HT     0.417000        1.0080           0
   84901 WT5  3915 TIP3 OH2  OT    -0.834000       15.9994           0
   84902 WT5  3915 TIP3 H1   HT     0.417000        1.0080           0
   84903 WT5  3915 TIP3 H2   HT     0.417000        1.0080           0
   84904 WT5  3916 TIP3 OH2  OT    -0.834000       15.9994           0
   84905 WT5  3916 TIP3 H1   HT     0.417000        1.0080           0
   84906 WT5  3916 TIP3 H2   HT     0.417000        1.0080           0
   84907 WT5  3917 TIP3 OH2  OT    -0.834000       15.9994           0
   84908 WT5  3917 TIP3 H1   HT     0.417000        1.0080           0
   84909 WT5  3917 TIP3 H2   HT     0.417000        1.0080           0
   84910 WT5  3918 TIP3 OH2  OT    -0.834000       15.9994           0
   84911 WT5  3918 TIP3 H1   HT     0.417000        1.0080           0
   84912 WT5  3918 TIP3 H2   HT     0.417000        1.0080           0
   84913 WT5  3919 TIP3 OH2  OT    -0.834000       15.9994           0
   84914 WT5  3919 TIP3 H1   HT     0.417000        1.0080           0
   84915 WT5  3919 TIP3 H2   HT     0.417000        1.0080           0
   84916 WT5  3920 TIP3 OH2  OT    -0.834000       15.9994           0
   84917 WT5  3920 TIP3 H1   HT     0.417000        1.0080           0
   84918 WT5  3920 TIP3 H2   HT     0.417000        1.0080           0
   84919 WT5  3921 TIP3 OH2  OT    -0.834000       15.9994           0
   84920 WT5  3921 TIP3 H1   HT     0.417000        1.0080           0
   84921 WT5  3921 TIP3 H2   HT     0.417000        1.0080           0
   84922 WT5  3922 TIP3 OH2  OT    -0.834000       15.9994           0
   84923 WT5  3922 TIP3 H1   HT     0.417000        1.0080           0
   84924 WT5  3922 TIP3 H2   HT     0.417000        1.0080           0
   84925 WT5  3924 TIP3 OH2  OT    -0.834000       15.9994           0
   84926 WT5  3924 TIP3 H1   HT     0.417000        1.0080           0
   84927 WT5  3924 TIP3 H2   HT     0.417000        1.0080           0
   84928 WT5  3925 TIP3 OH2  OT    -0.834000       15.9994           0
   84929 WT5  3925 TIP3 H1   HT     0.417000        1.0080           0
   84930 WT5  3925 TIP3 H2   HT     0.417000        1.0080           0
   84931 WT5  3926 TIP3 OH2  OT    -0.834000       15.9994           0
   84932 WT5  3926 TIP3 H1   HT     0.417000        1.0080           0
   84933 WT5  3926 TIP3 H2   HT     0.417000        1.0080           0
   84934 WT5  3928 TIP3 OH2  OT    -0.834000       15.9994           0
   84935 WT5  3928 TIP3 H1   HT     0.417000        1.0080           0
   84936 WT5  3928 TIP3 H2   HT     0.417000        1.0080           0
   84937 WT5  3929 TIP3 OH2  OT    -0.834000       15.9994           0
   84938 WT5  3929 TIP3 H1   HT     0.417000        1.0080           0
   84939 WT5  3929 TIP3 H2   HT     0.417000        1.0080           0
   84940 WT5  3930 TIP3 OH2  OT    -0.834000       15.9994           0
   84941 WT5  3930 TIP3 H1   HT     0.417000        1.0080           0
   84942 WT5  3930 TIP3 H2   HT     0.417000        1.0080           0
   84943 WT5  3931 TIP3 OH2  OT    -0.834000       15.9994           0
   84944 WT5  3931 TIP3 H1   HT     0.417000        1.0080           0
   84945 WT5  3931 TIP3 H2   HT     0.417000        1.0080           0
   84946 WT5  3932 TIP3 OH2  OT    -0.834000       15.9994           0
   84947 WT5  3932 TIP3 H1   HT     0.417000        1.0080           0
   84948 WT5  3932 TIP3 H2   HT     0.417000        1.0080           0
   84949 WT5  3933 TIP3 OH2  OT    -0.834000       15.9994           0
   84950 WT5  3933 TIP3 H1   HT     0.417000        1.0080           0
   84951 WT5  3933 TIP3 H2   HT     0.417000        1.0080           0
   84952 WT5  3934 TIP3 OH2  OT    -0.834000       15.9994           0
   84953 WT5  3934 TIP3 H1   HT     0.417000        1.0080           0
   84954 WT5  3934 TIP3 H2   HT     0.417000        1.0080           0
   84955 WT5  3935 TIP3 OH2  OT    -0.834000       15.9994           0
   84956 WT5  3935 TIP3 H1   HT     0.417000        1.0080           0
   84957 WT5  3935 TIP3 H2   HT     0.417000        1.0080           0
   84958 WT5  3936 TIP3 OH2  OT    -0.834000       15.9994           0
   84959 WT5  3936 TIP3 H1   HT     0.417000        1.0080           0
   84960 WT5  3936 TIP3 H2   HT     0.417000        1.0080           0
   84961 WT5  3937 TIP3 OH2  OT    -0.834000       15.9994           0
   84962 WT5  3937 TIP3 H1   HT     0.417000        1.0080           0
   84963 WT5  3937 TIP3 H2   HT     0.417000        1.0080           0
   84964 WT5  3938 TIP3 OH2  OT    -0.834000       15.9994           0
   84965 WT5  3938 TIP3 H1   HT     0.417000        1.0080           0
   84966 WT5  3938 TIP3 H2   HT     0.417000        1.0080           0
   84967 WT5  3939 TIP3 OH2  OT    -0.834000       15.9994           0
   84968 WT5  3939 TIP3 H1   HT     0.417000        1.0080           0
   84969 WT5  3939 TIP3 H2   HT     0.417000        1.0080           0
   84970 WT5  3940 TIP3 OH2  OT    -0.834000       15.9994           0
   84971 WT5  3940 TIP3 H1   HT     0.417000        1.0080           0
   84972 WT5  3940 TIP3 H2   HT     0.417000        1.0080           0
   84973 WT5  3941 TIP3 OH2  OT    -0.834000       15.9994           0
   84974 WT5  3941 TIP3 H1   HT     0.417000        1.0080           0
   84975 WT5  3941 TIP3 H2   HT     0.417000        1.0080           0
   84976 WT5  3943 TIP3 OH2  OT    -0.834000       15.9994           0
   84977 WT5  3943 TIP3 H1   HT     0.417000        1.0080           0
   84978 WT5  3943 TIP3 H2   HT     0.417000        1.0080           0
   84979 WT5  3944 TIP3 OH2  OT    -0.834000       15.9994           0
   84980 WT5  3944 TIP3 H1   HT     0.417000        1.0080           0
   84981 WT5  3944 TIP3 H2   HT     0.417000        1.0080           0
   84982 WT5  3945 TIP3 OH2  OT    -0.834000       15.9994           0
   84983 WT5  3945 TIP3 H1   HT     0.417000        1.0080           0
   84984 WT5  3945 TIP3 H2   HT     0.417000        1.0080           0
   84985 WT5  3946 TIP3 OH2  OT    -0.834000       15.9994           0
   84986 WT5  3946 TIP3 H1   HT     0.417000        1.0080           0
   84987 WT5  3946 TIP3 H2   HT     0.417000        1.0080           0
   84988 WT5  3947 TIP3 OH2  OT    -0.834000       15.9994           0
   84989 WT5  3947 TIP3 H1   HT     0.417000        1.0080           0
   84990 WT5  3947 TIP3 H2   HT     0.417000        1.0080           0
   84991 WT5  3948 TIP3 OH2  OT    -0.834000       15.9994           0
   84992 WT5  3948 TIP3 H1   HT     0.417000        1.0080           0
   84993 WT5  3948 TIP3 H2   HT     0.417000        1.0080           0
   84994 WT5  3949 TIP3 OH2  OT    -0.834000       15.9994           0
   84995 WT5  3949 TIP3 H1   HT     0.417000        1.0080           0
   84996 WT5  3949 TIP3 H2   HT     0.417000        1.0080           0
   84997 WT5  3950 TIP3 OH2  OT    -0.834000       15.9994           0
   84998 WT5  3950 TIP3 H1   HT     0.417000        1.0080           0
   84999 WT5  3950 TIP3 H2   HT     0.417000        1.0080           0
   85000 WT5  3951 TIP3 OH2  OT    -0.834000       15.9994           0
   85001 WT5  3951 TIP3 H1   HT     0.417000        1.0080           0
   85002 WT5  3951 TIP3 H2   HT     0.417000        1.0080           0
   85003 WT5  3953 TIP3 OH2  OT    -0.834000       15.9994           0
   85004 WT5  3953 TIP3 H1   HT     0.417000        1.0080           0
   85005 WT5  3953 TIP3 H2   HT     0.417000        1.0080           0
   85006 WT5  3954 TIP3 OH2  OT    -0.834000       15.9994           0
   85007 WT5  3954 TIP3 H1   HT     0.417000        1.0080           0
   85008 WT5  3954 TIP3 H2   HT     0.417000        1.0080           0
   85009 WT5  3955 TIP3 OH2  OT    -0.834000       15.9994           0
   85010 WT5  3955 TIP3 H1   HT     0.417000        1.0080           0
   85011 WT5  3955 TIP3 H2   HT     0.417000        1.0080           0
   85012 WT5  3956 TIP3 OH2  OT    -0.834000       15.9994           0
   85013 WT5  3956 TIP3 H1   HT     0.417000        1.0080           0
   85014 WT5  3956 TIP3 H2   HT     0.417000        1.0080           0
   85015 WT5  3957 TIP3 OH2  OT    -0.834000       15.9994           0
   85016 WT5  3957 TIP3 H1   HT     0.417000        1.0080           0
   85017 WT5  3957 TIP3 H2   HT     0.417000        1.0080           0
   85018 WT5  3958 TIP3 OH2  OT    -0.834000       15.9994           0
   85019 WT5  3958 TIP3 H1   HT     0.417000        1.0080           0
   85020 WT5  3958 TIP3 H2   HT     0.417000        1.0080           0
   85021 WT5  3959 TIP3 OH2  OT    -0.834000       15.9994           0
   85022 WT5  3959 TIP3 H1   HT     0.417000        1.0080           0
   85023 WT5  3959 TIP3 H2   HT     0.417000        1.0080           0
   85024 WT5  3960 TIP3 OH2  OT    -0.834000       15.9994           0
   85025 WT5  3960 TIP3 H1   HT     0.417000        1.0080           0
   85026 WT5  3960 TIP3 H2   HT     0.417000        1.0080           0
   85027 WT5  3961 TIP3 OH2  OT    -0.834000       15.9994           0
   85028 WT5  3961 TIP3 H1   HT     0.417000        1.0080           0
   85029 WT5  3961 TIP3 H2   HT     0.417000        1.0080           0
   85030 WT5  3962 TIP3 OH2  OT    -0.834000       15.9994           0
   85031 WT5  3962 TIP3 H1   HT     0.417000        1.0080           0
   85032 WT5  3962 TIP3 H2   HT     0.417000        1.0080           0
   85033 WT5  3963 TIP3 OH2  OT    -0.834000       15.9994           0
   85034 WT5  3963 TIP3 H1   HT     0.417000        1.0080           0
   85035 WT5  3963 TIP3 H2   HT     0.417000        1.0080           0
   85036 WT5  3964 TIP3 OH2  OT    -0.834000       15.9994           0
   85037 WT5  3964 TIP3 H1   HT     0.417000        1.0080           0
   85038 WT5  3964 TIP3 H2   HT     0.417000        1.0080           0
   85039 WT5  3965 TIP3 OH2  OT    -0.834000       15.9994           0
   85040 WT5  3965 TIP3 H1   HT     0.417000        1.0080           0
   85041 WT5  3965 TIP3 H2   HT     0.417000        1.0080           0
   85042 WT5  3967 TIP3 OH2  OT    -0.834000       15.9994           0
   85043 WT5  3967 TIP3 H1   HT     0.417000        1.0080           0
   85044 WT5  3967 TIP3 H2   HT     0.417000        1.0080           0
   85045 WT5  3968 TIP3 OH2  OT    -0.834000       15.9994           0
   85046 WT5  3968 TIP3 H1   HT     0.417000        1.0080           0
   85047 WT5  3968 TIP3 H2   HT     0.417000        1.0080           0
   85048 WT5  3969 TIP3 OH2  OT    -0.834000       15.9994           0
   85049 WT5  3969 TIP3 H1   HT     0.417000        1.0080           0
   85050 WT5  3969 TIP3 H2   HT     0.417000        1.0080           0
   85051 WT5  3970 TIP3 OH2  OT    -0.834000       15.9994           0
   85052 WT5  3970 TIP3 H1   HT     0.417000        1.0080           0
   85053 WT5  3970 TIP3 H2   HT     0.417000        1.0080           0
   85054 WT5  3971 TIP3 OH2  OT    -0.834000       15.9994           0
   85055 WT5  3971 TIP3 H1   HT     0.417000        1.0080           0
   85056 WT5  3971 TIP3 H2   HT     0.417000        1.0080           0
   85057 WT5  3972 TIP3 OH2  OT    -0.834000       15.9994           0
   85058 WT5  3972 TIP3 H1   HT     0.417000        1.0080           0
   85059 WT5  3972 TIP3 H2   HT     0.417000        1.0080           0
   85060 WT5  3974 TIP3 OH2  OT    -0.834000       15.9994           0
   85061 WT5  3974 TIP3 H1   HT     0.417000        1.0080           0
   85062 WT5  3974 TIP3 H2   HT     0.417000        1.0080           0
   85063 WT5  3975 TIP3 OH2  OT    -0.834000       15.9994           0
   85064 WT5  3975 TIP3 H1   HT     0.417000        1.0080           0
   85065 WT5  3975 TIP3 H2   HT     0.417000        1.0080           0
   85066 WT5  3976 TIP3 OH2  OT    -0.834000       15.9994           0
   85067 WT5  3976 TIP3 H1   HT     0.417000        1.0080           0
   85068 WT5  3976 TIP3 H2   HT     0.417000        1.0080           0
   85069 WT5  3977 TIP3 OH2  OT    -0.834000       15.9994           0
   85070 WT5  3977 TIP3 H1   HT     0.417000        1.0080           0
   85071 WT5  3977 TIP3 H2   HT     0.417000        1.0080           0
   85072 WT5  3978 TIP3 OH2  OT    -0.834000       15.9994           0
   85073 WT5  3978 TIP3 H1   HT     0.417000        1.0080           0
   85074 WT5  3978 TIP3 H2   HT     0.417000        1.0080           0
   85075 WT5  3979 TIP3 OH2  OT    -0.834000       15.9994           0
   85076 WT5  3979 TIP3 H1   HT     0.417000        1.0080           0
   85077 WT5  3979 TIP3 H2   HT     0.417000        1.0080           0
   85078 WT5  3980 TIP3 OH2  OT    -0.834000       15.9994           0
   85079 WT5  3980 TIP3 H1   HT     0.417000        1.0080           0
   85080 WT5  3980 TIP3 H2   HT     0.417000        1.0080           0
   85081 WT5  3981 TIP3 OH2  OT    -0.834000       15.9994           0
   85082 WT5  3981 TIP3 H1   HT     0.417000        1.0080           0
   85083 WT5  3981 TIP3 H2   HT     0.417000        1.0080           0
   85084 WT5  3982 TIP3 OH2  OT    -0.834000       15.9994           0
   85085 WT5  3982 TIP3 H1   HT     0.417000        1.0080           0
   85086 WT5  3982 TIP3 H2   HT     0.417000        1.0080           0
   85087 WT5  3983 TIP3 OH2  OT    -0.834000       15.9994           0
   85088 WT5  3983 TIP3 H1   HT     0.417000        1.0080           0
   85089 WT5  3983 TIP3 H2   HT     0.417000        1.0080           0
   85090 WT5  3985 TIP3 OH2  OT    -0.834000       15.9994           0
   85091 WT5  3985 TIP3 H1   HT     0.417000        1.0080           0
   85092 WT5  3985 TIP3 H2   HT     0.417000        1.0080           0
   85093 WT5  3986 TIP3 OH2  OT    -0.834000       15.9994           0
   85094 WT5  3986 TIP3 H1   HT     0.417000        1.0080           0
   85095 WT5  3986 TIP3 H2   HT     0.417000        1.0080           0
   85096 WT5  3990 TIP3 OH2  OT    -0.834000       15.9994           0
   85097 WT5  3990 TIP3 H1   HT     0.417000        1.0080           0
   85098 WT5  3990 TIP3 H2   HT     0.417000        1.0080           0
   85099 WT5  3991 TIP3 OH2  OT    -0.834000       15.9994           0
   85100 WT5  3991 TIP3 H1   HT     0.417000        1.0080           0
   85101 WT5  3991 TIP3 H2   HT     0.417000        1.0080           0
   85102 WT5  3992 TIP3 OH2  OT    -0.834000       15.9994           0
   85103 WT5  3992 TIP3 H1   HT     0.417000        1.0080           0
   85104 WT5  3992 TIP3 H2   HT     0.417000        1.0080           0
   85105 WT5  3993 TIP3 OH2  OT    -0.834000       15.9994           0
   85106 WT5  3993 TIP3 H1   HT     0.417000        1.0080           0
   85107 WT5  3993 TIP3 H2   HT     0.417000        1.0080           0
   85108 WT5  3995 TIP3 OH2  OT    -0.834000       15.9994           0
   85109 WT5  3995 TIP3 H1   HT     0.417000        1.0080           0
   85110 WT5  3995 TIP3 H2   HT     0.417000        1.0080           0
   85111 WT5  3996 TIP3 OH2  OT    -0.834000       15.9994           0
   85112 WT5  3996 TIP3 H1   HT     0.417000        1.0080           0
   85113 WT5  3996 TIP3 H2   HT     0.417000        1.0080           0
   85114 WT5  3997 TIP3 OH2  OT    -0.834000       15.9994           0
   85115 WT5  3997 TIP3 H1   HT     0.417000        1.0080           0
   85116 WT5  3997 TIP3 H2   HT     0.417000        1.0080           0
   85117 WT5  3998 TIP3 OH2  OT    -0.834000       15.9994           0
   85118 WT5  3998 TIP3 H1   HT     0.417000        1.0080           0
   85119 WT5  3998 TIP3 H2   HT     0.417000        1.0080           0
   85120 WT5  3999 TIP3 OH2  OT    -0.834000       15.9994           0
   85121 WT5  3999 TIP3 H1   HT     0.417000        1.0080           0
   85122 WT5  3999 TIP3 H2   HT     0.417000        1.0080           0
   85123 WT5  4000 TIP3 OH2  OT    -0.834000       15.9994           0
   85124 WT5  4000 TIP3 H1   HT     0.417000        1.0080           0
   85125 WT5  4000 TIP3 H2   HT     0.417000        1.0080           0
   85126 WT5  4001 TIP3 OH2  OT    -0.834000       15.9994           0
   85127 WT5  4001 TIP3 H1   HT     0.417000        1.0080           0
   85128 WT5  4001 TIP3 H2   HT     0.417000        1.0080           0
   85129 WT5  4002 TIP3 OH2  OT    -0.834000       15.9994           0
   85130 WT5  4002 TIP3 H1   HT     0.417000        1.0080           0
   85131 WT5  4002 TIP3 H2   HT     0.417000        1.0080           0
   85132 WT5  4004 TIP3 OH2  OT    -0.834000       15.9994           0
   85133 WT5  4004 TIP3 H1   HT     0.417000        1.0080           0
   85134 WT5  4004 TIP3 H2   HT     0.417000        1.0080           0
   85135 WT5  4006 TIP3 OH2  OT    -0.834000       15.9994           0
   85136 WT5  4006 TIP3 H1   HT     0.417000        1.0080           0
   85137 WT5  4006 TIP3 H2   HT     0.417000        1.0080           0
   85138 WT5  4007 TIP3 OH2  OT    -0.834000       15.9994           0
   85139 WT5  4007 TIP3 H1   HT     0.417000        1.0080           0
   85140 WT5  4007 TIP3 H2   HT     0.417000        1.0080           0
   85141 WT5  4008 TIP3 OH2  OT    -0.834000       15.9994           0
   85142 WT5  4008 TIP3 H1   HT     0.417000        1.0080           0
   85143 WT5  4008 TIP3 H2   HT     0.417000        1.0080           0
   85144 WT5  4009 TIP3 OH2  OT    -0.834000       15.9994           0
   85145 WT5  4009 TIP3 H1   HT     0.417000        1.0080           0
   85146 WT5  4009 TIP3 H2   HT     0.417000        1.0080           0
   85147 WT5  4010 TIP3 OH2  OT    -0.834000       15.9994           0
   85148 WT5  4010 TIP3 H1   HT     0.417000        1.0080           0
   85149 WT5  4010 TIP3 H2   HT     0.417000        1.0080           0
   85150 WT5  4011 TIP3 OH2  OT    -0.834000       15.9994           0
   85151 WT5  4011 TIP3 H1   HT     0.417000        1.0080           0
   85152 WT5  4011 TIP3 H2   HT     0.417000        1.0080           0
   85153 WT5  4012 TIP3 OH2  OT    -0.834000       15.9994           0
   85154 WT5  4012 TIP3 H1   HT     0.417000        1.0080           0
   85155 WT5  4012 TIP3 H2   HT     0.417000        1.0080           0
   85156 WT5  4013 TIP3 OH2  OT    -0.834000       15.9994           0
   85157 WT5  4013 TIP3 H1   HT     0.417000        1.0080           0
   85158 WT5  4013 TIP3 H2   HT     0.417000        1.0080           0
   85159 WT5  4014 TIP3 OH2  OT    -0.834000       15.9994           0
   85160 WT5  4014 TIP3 H1   HT     0.417000        1.0080           0
   85161 WT5  4014 TIP3 H2   HT     0.417000        1.0080           0
   85162 WT5  4015 TIP3 OH2  OT    -0.834000       15.9994           0
   85163 WT5  4015 TIP3 H1   HT     0.417000        1.0080           0
   85164 WT5  4015 TIP3 H2   HT     0.417000        1.0080           0
   85165 WT5  4016 TIP3 OH2  OT    -0.834000       15.9994           0
   85166 WT5  4016 TIP3 H1   HT     0.417000        1.0080           0
   85167 WT5  4016 TIP3 H2   HT     0.417000        1.0080           0
   85168 WT5  4017 TIP3 OH2  OT    -0.834000       15.9994           0
   85169 WT5  4017 TIP3 H1   HT     0.417000        1.0080           0
   85170 WT5  4017 TIP3 H2   HT     0.417000        1.0080           0
   85171 WT5  4018 TIP3 OH2  OT    -0.834000       15.9994           0
   85172 WT5  4018 TIP3 H1   HT     0.417000        1.0080           0
   85173 WT5  4018 TIP3 H2   HT     0.417000        1.0080           0
   85174 WT5  4019 TIP3 OH2  OT    -0.834000       15.9994           0
   85175 WT5  4019 TIP3 H1   HT     0.417000        1.0080           0
   85176 WT5  4019 TIP3 H2   HT     0.417000        1.0080           0
   85177 WT5  4020 TIP3 OH2  OT    -0.834000       15.9994           0
   85178 WT5  4020 TIP3 H1   HT     0.417000        1.0080           0
   85179 WT5  4020 TIP3 H2   HT     0.417000        1.0080           0
   85180 WT5  4021 TIP3 OH2  OT    -0.834000       15.9994           0
   85181 WT5  4021 TIP3 H1   HT     0.417000        1.0080           0
   85182 WT5  4021 TIP3 H2   HT     0.417000        1.0080           0
   85183 WT5  4022 TIP3 OH2  OT    -0.834000       15.9994           0
   85184 WT5  4022 TIP3 H1   HT     0.417000        1.0080           0
   85185 WT5  4022 TIP3 H2   HT     0.417000        1.0080           0
   85186 WT5  4023 TIP3 OH2  OT    -0.834000       15.9994           0
   85187 WT5  4023 TIP3 H1   HT     0.417000        1.0080           0
   85188 WT5  4023 TIP3 H2   HT     0.417000        1.0080           0
   85189 WT5  4024 TIP3 OH2  OT    -0.834000       15.9994           0
   85190 WT5  4024 TIP3 H1   HT     0.417000        1.0080           0
   85191 WT5  4024 TIP3 H2   HT     0.417000        1.0080           0
   85192 WT5  4025 TIP3 OH2  OT    -0.834000       15.9994           0
   85193 WT5  4025 TIP3 H1   HT     0.417000        1.0080           0
   85194 WT5  4025 TIP3 H2   HT     0.417000        1.0080           0
   85195 WT5  4026 TIP3 OH2  OT    -0.834000       15.9994           0
   85196 WT5  4026 TIP3 H1   HT     0.417000        1.0080           0
   85197 WT5  4026 TIP3 H2   HT     0.417000        1.0080           0
   85198 WT5  4027 TIP3 OH2  OT    -0.834000       15.9994           0
   85199 WT5  4027 TIP3 H1   HT     0.417000        1.0080           0
   85200 WT5  4027 TIP3 H2   HT     0.417000        1.0080           0
   85201 WT5  4029 TIP3 OH2  OT    -0.834000       15.9994           0
   85202 WT5  4029 TIP3 H1   HT     0.417000        1.0080           0
   85203 WT5  4029 TIP3 H2   HT     0.417000        1.0080           0
   85204 WT5  4030 TIP3 OH2  OT    -0.834000       15.9994           0
   85205 WT5  4030 TIP3 H1   HT     0.417000        1.0080           0
   85206 WT5  4030 TIP3 H2   HT     0.417000        1.0080           0
   85207 WT5  4033 TIP3 OH2  OT    -0.834000       15.9994           0
   85208 WT5  4033 TIP3 H1   HT     0.417000        1.0080           0
   85209 WT5  4033 TIP3 H2   HT     0.417000        1.0080           0
   85210 WT5  4034 TIP3 OH2  OT    -0.834000       15.9994           0
   85211 WT5  4034 TIP3 H1   HT     0.417000        1.0080           0
   85212 WT5  4034 TIP3 H2   HT     0.417000        1.0080           0
   85213 WT5  4035 TIP3 OH2  OT    -0.834000       15.9994           0
   85214 WT5  4035 TIP3 H1   HT     0.417000        1.0080           0
   85215 WT5  4035 TIP3 H2   HT     0.417000        1.0080           0
   85216 WT5  4036 TIP3 OH2  OT    -0.834000       15.9994           0
   85217 WT5  4036 TIP3 H1   HT     0.417000        1.0080           0
   85218 WT5  4036 TIP3 H2   HT     0.417000        1.0080           0
   85219 WT5  4037 TIP3 OH2  OT    -0.834000       15.9994           0
   85220 WT5  4037 TIP3 H1   HT     0.417000        1.0080           0
   85221 WT5  4037 TIP3 H2   HT     0.417000        1.0080           0
   85222 WT5  4038 TIP3 OH2  OT    -0.834000       15.9994           0
   85223 WT5  4038 TIP3 H1   HT     0.417000        1.0080           0
   85224 WT5  4038 TIP3 H2   HT     0.417000        1.0080           0
   85225 WT5  4039 TIP3 OH2  OT    -0.834000       15.9994           0
   85226 WT5  4039 TIP3 H1   HT     0.417000        1.0080           0
   85227 WT5  4039 TIP3 H2   HT     0.417000        1.0080           0
   85228 WT5  4040 TIP3 OH2  OT    -0.834000       15.9994           0
   85229 WT5  4040 TIP3 H1   HT     0.417000        1.0080           0
   85230 WT5  4040 TIP3 H2   HT     0.417000        1.0080           0
   85231 WT5  4041 TIP3 OH2  OT    -0.834000       15.9994           0
   85232 WT5  4041 TIP3 H1   HT     0.417000        1.0080           0
   85233 WT5  4041 TIP3 H2   HT     0.417000        1.0080           0
   85234 WT5  4043 TIP3 OH2  OT    -0.834000       15.9994           0
   85235 WT5  4043 TIP3 H1   HT     0.417000        1.0080           0
   85236 WT5  4043 TIP3 H2   HT     0.417000        1.0080           0
   85237 WT5  4044 TIP3 OH2  OT    -0.834000       15.9994           0
   85238 WT5  4044 TIP3 H1   HT     0.417000        1.0080           0
   85239 WT5  4044 TIP3 H2   HT     0.417000        1.0080           0
   85240 WT5  4045 TIP3 OH2  OT    -0.834000       15.9994           0
   85241 WT5  4045 TIP3 H1   HT     0.417000        1.0080           0
   85242 WT5  4045 TIP3 H2   HT     0.417000        1.0080           0
   85243 WT5  4046 TIP3 OH2  OT    -0.834000       15.9994           0
   85244 WT5  4046 TIP3 H1   HT     0.417000        1.0080           0
   85245 WT5  4046 TIP3 H2   HT     0.417000        1.0080           0
   85246 WT5  4047 TIP3 OH2  OT    -0.834000       15.9994           0
   85247 WT5  4047 TIP3 H1   HT     0.417000        1.0080           0
   85248 WT5  4047 TIP3 H2   HT     0.417000        1.0080           0
   85249 WT5  4048 TIP3 OH2  OT    -0.834000       15.9994           0
   85250 WT5  4048 TIP3 H1   HT     0.417000        1.0080           0
   85251 WT5  4048 TIP3 H2   HT     0.417000        1.0080           0
   85252 WT5  4050 TIP3 OH2  OT    -0.834000       15.9994           0
   85253 WT5  4050 TIP3 H1   HT     0.417000        1.0080           0
   85254 WT5  4050 TIP3 H2   HT     0.417000        1.0080           0
   85255 WT5  4051 TIP3 OH2  OT    -0.834000       15.9994           0
   85256 WT5  4051 TIP3 H1   HT     0.417000        1.0080           0
   85257 WT5  4051 TIP3 H2   HT     0.417000        1.0080           0
   85258 WT5  4053 TIP3 OH2  OT    -0.834000       15.9994           0
   85259 WT5  4053 TIP3 H1   HT     0.417000        1.0080           0
   85260 WT5  4053 TIP3 H2   HT     0.417000        1.0080           0
   85261 WT5  4054 TIP3 OH2  OT    -0.834000       15.9994           0
   85262 WT5  4054 TIP3 H1   HT     0.417000        1.0080           0
   85263 WT5  4054 TIP3 H2   HT     0.417000        1.0080           0
   85264 WT5  4055 TIP3 OH2  OT    -0.834000       15.9994           0
   85265 WT5  4055 TIP3 H1   HT     0.417000        1.0080           0
   85266 WT5  4055 TIP3 H2   HT     0.417000        1.0080           0
   85267 WT5  4056 TIP3 OH2  OT    -0.834000       15.9994           0
   85268 WT5  4056 TIP3 H1   HT     0.417000        1.0080           0
   85269 WT5  4056 TIP3 H2   HT     0.417000        1.0080           0
   85270 WT5  4057 TIP3 OH2  OT    -0.834000       15.9994           0
   85271 WT5  4057 TIP3 H1   HT     0.417000        1.0080           0
   85272 WT5  4057 TIP3 H2   HT     0.417000        1.0080           0
   85273 WT5  4059 TIP3 OH2  OT    -0.834000       15.9994           0
   85274 WT5  4059 TIP3 H1   HT     0.417000        1.0080           0
   85275 WT5  4059 TIP3 H2   HT     0.417000        1.0080           0
   85276 WT5  4060 TIP3 OH2  OT    -0.834000       15.9994           0
   85277 WT5  4060 TIP3 H1   HT     0.417000        1.0080           0
   85278 WT5  4060 TIP3 H2   HT     0.417000        1.0080           0
   85279 WT5  4062 TIP3 OH2  OT    -0.834000       15.9994           0
   85280 WT5  4062 TIP3 H1   HT     0.417000        1.0080           0
   85281 WT5  4062 TIP3 H2   HT     0.417000        1.0080           0
   85282 WT5  4063 TIP3 OH2  OT    -0.834000       15.9994           0
   85283 WT5  4063 TIP3 H1   HT     0.417000        1.0080           0
   85284 WT5  4063 TIP3 H2   HT     0.417000        1.0080           0
   85285 WT5  4064 TIP3 OH2  OT    -0.834000       15.9994           0
   85286 WT5  4064 TIP3 H1   HT     0.417000        1.0080           0
   85287 WT5  4064 TIP3 H2   HT     0.417000        1.0080           0
   85288 WT5  4065 TIP3 OH2  OT    -0.834000       15.9994           0
   85289 WT5  4065 TIP3 H1   HT     0.417000        1.0080           0
   85290 WT5  4065 TIP3 H2   HT     0.417000        1.0080           0
   85291 WT5  4066 TIP3 OH2  OT    -0.834000       15.9994           0
   85292 WT5  4066 TIP3 H1   HT     0.417000        1.0080           0
   85293 WT5  4066 TIP3 H2   HT     0.417000        1.0080           0
   85294 WT5  4067 TIP3 OH2  OT    -0.834000       15.9994           0
   85295 WT5  4067 TIP3 H1   HT     0.417000        1.0080           0
   85296 WT5  4067 TIP3 H2   HT     0.417000        1.0080           0
   85297 WT5  4068 TIP3 OH2  OT    -0.834000       15.9994           0
   85298 WT5  4068 TIP3 H1   HT     0.417000        1.0080           0
   85299 WT5  4068 TIP3 H2   HT     0.417000        1.0080           0
   85300 WT5  4071 TIP3 OH2  OT    -0.834000       15.9994           0
   85301 WT5  4071 TIP3 H1   HT     0.417000        1.0080           0
   85302 WT5  4071 TIP3 H2   HT     0.417000        1.0080           0
   85303 WT5  4072 TIP3 OH2  OT    -0.834000       15.9994           0
   85304 WT5  4072 TIP3 H1   HT     0.417000        1.0080           0
   85305 WT5  4072 TIP3 H2   HT     0.417000        1.0080           0
   85306 WT5  4073 TIP3 OH2  OT    -0.834000       15.9994           0
   85307 WT5  4073 TIP3 H1   HT     0.417000        1.0080           0
   85308 WT5  4073 TIP3 H2   HT     0.417000        1.0080           0
   85309 WT5  4074 TIP3 OH2  OT    -0.834000       15.9994           0
   85310 WT5  4074 TIP3 H1   HT     0.417000        1.0080           0
   85311 WT5  4074 TIP3 H2   HT     0.417000        1.0080           0
   85312 WT5  4075 TIP3 OH2  OT    -0.834000       15.9994           0
   85313 WT5  4075 TIP3 H1   HT     0.417000        1.0080           0
   85314 WT5  4075 TIP3 H2   HT     0.417000        1.0080           0
   85315 WT5  4076 TIP3 OH2  OT    -0.834000       15.9994           0
   85316 WT5  4076 TIP3 H1   HT     0.417000        1.0080           0
   85317 WT5  4076 TIP3 H2   HT     0.417000        1.0080           0
   85318 WT5  4077 TIP3 OH2  OT    -0.834000       15.9994           0
   85319 WT5  4077 TIP3 H1   HT     0.417000        1.0080           0
   85320 WT5  4077 TIP3 H2   HT     0.417000        1.0080           0
   85321 WT5  4079 TIP3 OH2  OT    -0.834000       15.9994           0
   85322 WT5  4079 TIP3 H1   HT     0.417000        1.0080           0
   85323 WT5  4079 TIP3 H2   HT     0.417000        1.0080           0
   85324 WT5  4080 TIP3 OH2  OT    -0.834000       15.9994           0
   85325 WT5  4080 TIP3 H1   HT     0.417000        1.0080           0
   85326 WT5  4080 TIP3 H2   HT     0.417000        1.0080           0
   85327 WT5  4081 TIP3 OH2  OT    -0.834000       15.9994           0
   85328 WT5  4081 TIP3 H1   HT     0.417000        1.0080           0
   85329 WT5  4081 TIP3 H2   HT     0.417000        1.0080           0
   85330 WT5  4082 TIP3 OH2  OT    -0.834000       15.9994           0
   85331 WT5  4082 TIP3 H1   HT     0.417000        1.0080           0
   85332 WT5  4082 TIP3 H2   HT     0.417000        1.0080           0
   85333 WT5  4083 TIP3 OH2  OT    -0.834000       15.9994           0
   85334 WT5  4083 TIP3 H1   HT     0.417000        1.0080           0
   85335 WT5  4083 TIP3 H2   HT     0.417000        1.0080           0
   85336 WT5  4084 TIP3 OH2  OT    -0.834000       15.9994           0
   85337 WT5  4084 TIP3 H1   HT     0.417000        1.0080           0
   85338 WT5  4084 TIP3 H2   HT     0.417000        1.0080           0
   85339 WT5  4085 TIP3 OH2  OT    -0.834000       15.9994           0
   85340 WT5  4085 TIP3 H1   HT     0.417000        1.0080           0
   85341 WT5  4085 TIP3 H2   HT     0.417000        1.0080           0
   85342 WT5  4086 TIP3 OH2  OT    -0.834000       15.9994           0
   85343 WT5  4086 TIP3 H1   HT     0.417000        1.0080           0
   85344 WT5  4086 TIP3 H2   HT     0.417000        1.0080           0
   85345 WT5  4087 TIP3 OH2  OT    -0.834000       15.9994           0
   85346 WT5  4087 TIP3 H1   HT     0.417000        1.0080           0
   85347 WT5  4087 TIP3 H2   HT     0.417000        1.0080           0
   85348 WT5  4088 TIP3 OH2  OT    -0.834000       15.9994           0
   85349 WT5  4088 TIP3 H1   HT     0.417000        1.0080           0
   85350 WT5  4088 TIP3 H2   HT     0.417000        1.0080           0
   85351 WT5  4089 TIP3 OH2  OT    -0.834000       15.9994           0
   85352 WT5  4089 TIP3 H1   HT     0.417000        1.0080           0
   85353 WT5  4089 TIP3 H2   HT     0.417000        1.0080           0
   85354 WT5  4091 TIP3 OH2  OT    -0.834000       15.9994           0
   85355 WT5  4091 TIP3 H1   HT     0.417000        1.0080           0
   85356 WT5  4091 TIP3 H2   HT     0.417000        1.0080           0
   85357 WT5  4092 TIP3 OH2  OT    -0.834000       15.9994           0
   85358 WT5  4092 TIP3 H1   HT     0.417000        1.0080           0
   85359 WT5  4092 TIP3 H2   HT     0.417000        1.0080           0
   85360 WT5  4093 TIP3 OH2  OT    -0.834000       15.9994           0
   85361 WT5  4093 TIP3 H1   HT     0.417000        1.0080           0
   85362 WT5  4093 TIP3 H2   HT     0.417000        1.0080           0
   85363 WT5  4095 TIP3 OH2  OT    -0.834000       15.9994           0
   85364 WT5  4095 TIP3 H1   HT     0.417000        1.0080           0
   85365 WT5  4095 TIP3 H2   HT     0.417000        1.0080           0
   85366 WT5  4096 TIP3 OH2  OT    -0.834000       15.9994           0
   85367 WT5  4096 TIP3 H1   HT     0.417000        1.0080           0
   85368 WT5  4096 TIP3 H2   HT     0.417000        1.0080           0
   85369 WT5  4097 TIP3 OH2  OT    -0.834000       15.9994           0
   85370 WT5  4097 TIP3 H1   HT     0.417000        1.0080           0
   85371 WT5  4097 TIP3 H2   HT     0.417000        1.0080           0
   85372 WT5  4098 TIP3 OH2  OT    -0.834000       15.9994           0
   85373 WT5  4098 TIP3 H1   HT     0.417000        1.0080           0
   85374 WT5  4098 TIP3 H2   HT     0.417000        1.0080           0
   85375 WT5  4099 TIP3 OH2  OT    -0.834000       15.9994           0
   85376 WT5  4099 TIP3 H1   HT     0.417000        1.0080           0
   85377 WT5  4099 TIP3 H2   HT     0.417000        1.0080           0
   85378 WT5  4100 TIP3 OH2  OT    -0.834000       15.9994           0
   85379 WT5  4100 TIP3 H1   HT     0.417000        1.0080           0
   85380 WT5  4100 TIP3 H2   HT     0.417000        1.0080           0
   85381 WT5  4101 TIP3 OH2  OT    -0.834000       15.9994           0
   85382 WT5  4101 TIP3 H1   HT     0.417000        1.0080           0
   85383 WT5  4101 TIP3 H2   HT     0.417000        1.0080           0
   85384 WT5  4102 TIP3 OH2  OT    -0.834000       15.9994           0
   85385 WT5  4102 TIP3 H1   HT     0.417000        1.0080           0
   85386 WT5  4102 TIP3 H2   HT     0.417000        1.0080           0
   85387 WT5  4103 TIP3 OH2  OT    -0.834000       15.9994           0
   85388 WT5  4103 TIP3 H1   HT     0.417000        1.0080           0
   85389 WT5  4103 TIP3 H2   HT     0.417000        1.0080           0
   85390 WT5  4104 TIP3 OH2  OT    -0.834000       15.9994           0
   85391 WT5  4104 TIP3 H1   HT     0.417000        1.0080           0
   85392 WT5  4104 TIP3 H2   HT     0.417000        1.0080           0
   85393 WT5  4105 TIP3 OH2  OT    -0.834000       15.9994           0
   85394 WT5  4105 TIP3 H1   HT     0.417000        1.0080           0
   85395 WT5  4105 TIP3 H2   HT     0.417000        1.0080           0
   85396 WT5  4106 TIP3 OH2  OT    -0.834000       15.9994           0
   85397 WT5  4106 TIP3 H1   HT     0.417000        1.0080           0
   85398 WT5  4106 TIP3 H2   HT     0.417000        1.0080           0
   85399 WT5  4107 TIP3 OH2  OT    -0.834000       15.9994           0
   85400 WT5  4107 TIP3 H1   HT     0.417000        1.0080           0
   85401 WT5  4107 TIP3 H2   HT     0.417000        1.0080           0
   85402 WT5  4108 TIP3 OH2  OT    -0.834000       15.9994           0
   85403 WT5  4108 TIP3 H1   HT     0.417000        1.0080           0
   85404 WT5  4108 TIP3 H2   HT     0.417000        1.0080           0
   85405 WT5  4109 TIP3 OH2  OT    -0.834000       15.9994           0
   85406 WT5  4109 TIP3 H1   HT     0.417000        1.0080           0
   85407 WT5  4109 TIP3 H2   HT     0.417000        1.0080           0
   85408 WT5  4110 TIP3 OH2  OT    -0.834000       15.9994           0
   85409 WT5  4110 TIP3 H1   HT     0.417000        1.0080           0
   85410 WT5  4110 TIP3 H2   HT     0.417000        1.0080           0
   85411 WT5  4111 TIP3 OH2  OT    -0.834000       15.9994           0
   85412 WT5  4111 TIP3 H1   HT     0.417000        1.0080           0
   85413 WT5  4111 TIP3 H2   HT     0.417000        1.0080           0
   85414 WT5  4114 TIP3 OH2  OT    -0.834000       15.9994           0
   85415 WT5  4114 TIP3 H1   HT     0.417000        1.0080           0
   85416 WT5  4114 TIP3 H2   HT     0.417000        1.0080           0
   85417 WT5  4116 TIP3 OH2  OT    -0.834000       15.9994           0
   85418 WT5  4116 TIP3 H1   HT     0.417000        1.0080           0
   85419 WT5  4116 TIP3 H2   HT     0.417000        1.0080           0
   85420 WT5  4117 TIP3 OH2  OT    -0.834000       15.9994           0
   85421 WT5  4117 TIP3 H1   HT     0.417000        1.0080           0
   85422 WT5  4117 TIP3 H2   HT     0.417000        1.0080           0
   85423 WT5  4118 TIP3 OH2  OT    -0.834000       15.9994           0
   85424 WT5  4118 TIP3 H1   HT     0.417000        1.0080           0
   85425 WT5  4118 TIP3 H2   HT     0.417000        1.0080           0
   85426 WT5  4119 TIP3 OH2  OT    -0.834000       15.9994           0
   85427 WT5  4119 TIP3 H1   HT     0.417000        1.0080           0
   85428 WT5  4119 TIP3 H2   HT     0.417000        1.0080           0
   85429 WT5  4120 TIP3 OH2  OT    -0.834000       15.9994           0
   85430 WT5  4120 TIP3 H1   HT     0.417000        1.0080           0
   85431 WT5  4120 TIP3 H2   HT     0.417000        1.0080           0
   85432 WT5  4121 TIP3 OH2  OT    -0.834000       15.9994           0
   85433 WT5  4121 TIP3 H1   HT     0.417000        1.0080           0
   85434 WT5  4121 TIP3 H2   HT     0.417000        1.0080           0
   85435 WT5  4122 TIP3 OH2  OT    -0.834000       15.9994           0
   85436 WT5  4122 TIP3 H1   HT     0.417000        1.0080           0
   85437 WT5  4122 TIP3 H2   HT     0.417000        1.0080           0
   85438 WT5  4123 TIP3 OH2  OT    -0.834000       15.9994           0
   85439 WT5  4123 TIP3 H1   HT     0.417000        1.0080           0
   85440 WT5  4123 TIP3 H2   HT     0.417000        1.0080           0
   85441 WT5  4124 TIP3 OH2  OT    -0.834000       15.9994           0
   85442 WT5  4124 TIP3 H1   HT     0.417000        1.0080           0
   85443 WT5  4124 TIP3 H2   HT     0.417000        1.0080           0
   85444 WT5  4126 TIP3 OH2  OT    -0.834000       15.9994           0
   85445 WT5  4126 TIP3 H1   HT     0.417000        1.0080           0
   85446 WT5  4126 TIP3 H2   HT     0.417000        1.0080           0
   85447 WT5  4127 TIP3 OH2  OT    -0.834000       15.9994           0
   85448 WT5  4127 TIP3 H1   HT     0.417000        1.0080           0
   85449 WT5  4127 TIP3 H2   HT     0.417000        1.0080           0
   85450 WT5  4128 TIP3 OH2  OT    -0.834000       15.9994           0
   85451 WT5  4128 TIP3 H1   HT     0.417000        1.0080           0
   85452 WT5  4128 TIP3 H2   HT     0.417000        1.0080           0
   85453 WT5  4129 TIP3 OH2  OT    -0.834000       15.9994           0
   85454 WT5  4129 TIP3 H1   HT     0.417000        1.0080           0
   85455 WT5  4129 TIP3 H2   HT     0.417000        1.0080           0
   85456 WT5  4131 TIP3 OH2  OT    -0.834000       15.9994           0
   85457 WT5  4131 TIP3 H1   HT     0.417000        1.0080           0
   85458 WT5  4131 TIP3 H2   HT     0.417000        1.0080           0
   85459 WT5  4133 TIP3 OH2  OT    -0.834000       15.9994           0
   85460 WT5  4133 TIP3 H1   HT     0.417000        1.0080           0
   85461 WT5  4133 TIP3 H2   HT     0.417000        1.0080           0
   85462 WT5  4136 TIP3 OH2  OT    -0.834000       15.9994           0
   85463 WT5  4136 TIP3 H1   HT     0.417000        1.0080           0
   85464 WT5  4136 TIP3 H2   HT     0.417000        1.0080           0
   85465 WT5  4138 TIP3 OH2  OT    -0.834000       15.9994           0
   85466 WT5  4138 TIP3 H1   HT     0.417000        1.0080           0
   85467 WT5  4138 TIP3 H2   HT     0.417000        1.0080           0
   85468 WT5  4139 TIP3 OH2  OT    -0.834000       15.9994           0
   85469 WT5  4139 TIP3 H1   HT     0.417000        1.0080           0
   85470 WT5  4139 TIP3 H2   HT     0.417000        1.0080           0
   85471 WT5  4140 TIP3 OH2  OT    -0.834000       15.9994           0
   85472 WT5  4140 TIP3 H1   HT     0.417000        1.0080           0
   85473 WT5  4140 TIP3 H2   HT     0.417000        1.0080           0
   85474 WT5  4141 TIP3 OH2  OT    -0.834000       15.9994           0
   85475 WT5  4141 TIP3 H1   HT     0.417000        1.0080           0
   85476 WT5  4141 TIP3 H2   HT     0.417000        1.0080           0
   85477 WT5  4142 TIP3 OH2  OT    -0.834000       15.9994           0
   85478 WT5  4142 TIP3 H1   HT     0.417000        1.0080           0
   85479 WT5  4142 TIP3 H2   HT     0.417000        1.0080           0
   85480 WT5  4143 TIP3 OH2  OT    -0.834000       15.9994           0
   85481 WT5  4143 TIP3 H1   HT     0.417000        1.0080           0
   85482 WT5  4143 TIP3 H2   HT     0.417000        1.0080           0
   85483 WT5  4144 TIP3 OH2  OT    -0.834000       15.9994           0
   85484 WT5  4144 TIP3 H1   HT     0.417000        1.0080           0
   85485 WT5  4144 TIP3 H2   HT     0.417000        1.0080           0
   85486 WT5  4145 TIP3 OH2  OT    -0.834000       15.9994           0
   85487 WT5  4145 TIP3 H1   HT     0.417000        1.0080           0
   85488 WT5  4145 TIP3 H2   HT     0.417000        1.0080           0
   85489 WT5  4147 TIP3 OH2  OT    -0.834000       15.9994           0
   85490 WT5  4147 TIP3 H1   HT     0.417000        1.0080           0
   85491 WT5  4147 TIP3 H2   HT     0.417000        1.0080           0
   85492 WT5  4148 TIP3 OH2  OT    -0.834000       15.9994           0
   85493 WT5  4148 TIP3 H1   HT     0.417000        1.0080           0
   85494 WT5  4148 TIP3 H2   HT     0.417000        1.0080           0
   85495 WT5  4149 TIP3 OH2  OT    -0.834000       15.9994           0
   85496 WT5  4149 TIP3 H1   HT     0.417000        1.0080           0
   85497 WT5  4149 TIP3 H2   HT     0.417000        1.0080           0
   85498 WT5  4150 TIP3 OH2  OT    -0.834000       15.9994           0
   85499 WT5  4150 TIP3 H1   HT     0.417000        1.0080           0
   85500 WT5  4150 TIP3 H2   HT     0.417000        1.0080           0
   85501 WT5  4151 TIP3 OH2  OT    -0.834000       15.9994           0
   85502 WT5  4151 TIP3 H1   HT     0.417000        1.0080           0
   85503 WT5  4151 TIP3 H2   HT     0.417000        1.0080           0
   85504 WT5  4152 TIP3 OH2  OT    -0.834000       15.9994           0
   85505 WT5  4152 TIP3 H1   HT     0.417000        1.0080           0
   85506 WT5  4152 TIP3 H2   HT     0.417000        1.0080           0
   85507 WT5  4154 TIP3 OH2  OT    -0.834000       15.9994           0
   85508 WT5  4154 TIP3 H1   HT     0.417000        1.0080           0
   85509 WT5  4154 TIP3 H2   HT     0.417000        1.0080           0
   85510 WT5  4155 TIP3 OH2  OT    -0.834000       15.9994           0
   85511 WT5  4155 TIP3 H1   HT     0.417000        1.0080           0
   85512 WT5  4155 TIP3 H2   HT     0.417000        1.0080           0
   85513 WT5  4156 TIP3 OH2  OT    -0.834000       15.9994           0
   85514 WT5  4156 TIP3 H1   HT     0.417000        1.0080           0
   85515 WT5  4156 TIP3 H2   HT     0.417000        1.0080           0
   85516 WT5  4157 TIP3 OH2  OT    -0.834000       15.9994           0
   85517 WT5  4157 TIP3 H1   HT     0.417000        1.0080           0
   85518 WT5  4157 TIP3 H2   HT     0.417000        1.0080           0
   85519 WT5  4158 TIP3 OH2  OT    -0.834000       15.9994           0
   85520 WT5  4158 TIP3 H1   HT     0.417000        1.0080           0
   85521 WT5  4158 TIP3 H2   HT     0.417000        1.0080           0
   85522 WT5  4159 TIP3 OH2  OT    -0.834000       15.9994           0
   85523 WT5  4159 TIP3 H1   HT     0.417000        1.0080           0
   85524 WT5  4159 TIP3 H2   HT     0.417000        1.0080           0
   85525 WT5  4160 TIP3 OH2  OT    -0.834000       15.9994           0
   85526 WT5  4160 TIP3 H1   HT     0.417000        1.0080           0
   85527 WT5  4160 TIP3 H2   HT     0.417000        1.0080           0
   85528 WT5  4161 TIP3 OH2  OT    -0.834000       15.9994           0
   85529 WT5  4161 TIP3 H1   HT     0.417000        1.0080           0
   85530 WT5  4161 TIP3 H2   HT     0.417000        1.0080           0
   85531 WT5  4162 TIP3 OH2  OT    -0.834000       15.9994           0
   85532 WT5  4162 TIP3 H1   HT     0.417000        1.0080           0
   85533 WT5  4162 TIP3 H2   HT     0.417000        1.0080           0
   85534 WT5  4163 TIP3 OH2  OT    -0.834000       15.9994           0
   85535 WT5  4163 TIP3 H1   HT     0.417000        1.0080           0
   85536 WT5  4163 TIP3 H2   HT     0.417000        1.0080           0
   85537 WT5  4164 TIP3 OH2  OT    -0.834000       15.9994           0
   85538 WT5  4164 TIP3 H1   HT     0.417000        1.0080           0
   85539 WT5  4164 TIP3 H2   HT     0.417000        1.0080           0
   85540 WT5  4165 TIP3 OH2  OT    -0.834000       15.9994           0
   85541 WT5  4165 TIP3 H1   HT     0.417000        1.0080           0
   85542 WT5  4165 TIP3 H2   HT     0.417000        1.0080           0
   85543 WT5  4166 TIP3 OH2  OT    -0.834000       15.9994           0
   85544 WT5  4166 TIP3 H1   HT     0.417000        1.0080           0
   85545 WT5  4166 TIP3 H2   HT     0.417000        1.0080           0
   85546 WT5  4167 TIP3 OH2  OT    -0.834000       15.9994           0
   85547 WT5  4167 TIP3 H1   HT     0.417000        1.0080           0
   85548 WT5  4167 TIP3 H2   HT     0.417000        1.0080           0
   85549 WT5  4168 TIP3 OH2  OT    -0.834000       15.9994           0
   85550 WT5  4168 TIP3 H1   HT     0.417000        1.0080           0
   85551 WT5  4168 TIP3 H2   HT     0.417000        1.0080           0
   85552 WT5  4170 TIP3 OH2  OT    -0.834000       15.9994           0
   85553 WT5  4170 TIP3 H1   HT     0.417000        1.0080           0
   85554 WT5  4170 TIP3 H2   HT     0.417000        1.0080           0
   85555 WT5  4171 TIP3 OH2  OT    -0.834000       15.9994           0
   85556 WT5  4171 TIP3 H1   HT     0.417000        1.0080           0
   85557 WT5  4171 TIP3 H2   HT     0.417000        1.0080           0
   85558 WT5  4172 TIP3 OH2  OT    -0.834000       15.9994           0
   85559 WT5  4172 TIP3 H1   HT     0.417000        1.0080           0
   85560 WT5  4172 TIP3 H2   HT     0.417000        1.0080           0
   85561 WT5  4174 TIP3 OH2  OT    -0.834000       15.9994           0
   85562 WT5  4174 TIP3 H1   HT     0.417000        1.0080           0
   85563 WT5  4174 TIP3 H2   HT     0.417000        1.0080           0
   85564 WT5  4175 TIP3 OH2  OT    -0.834000       15.9994           0
   85565 WT5  4175 TIP3 H1   HT     0.417000        1.0080           0
   85566 WT5  4175 TIP3 H2   HT     0.417000        1.0080           0
   85567 WT5  4176 TIP3 OH2  OT    -0.834000       15.9994           0
   85568 WT5  4176 TIP3 H1   HT     0.417000        1.0080           0
   85569 WT5  4176 TIP3 H2   HT     0.417000        1.0080           0
   85570 WT5  4177 TIP3 OH2  OT    -0.834000       15.9994           0
   85571 WT5  4177 TIP3 H1   HT     0.417000        1.0080           0
   85572 WT5  4177 TIP3 H2   HT     0.417000        1.0080           0
   85573 WT5  4179 TIP3 OH2  OT    -0.834000       15.9994           0
   85574 WT5  4179 TIP3 H1   HT     0.417000        1.0080           0
   85575 WT5  4179 TIP3 H2   HT     0.417000        1.0080           0
   85576 WT5  4181 TIP3 OH2  OT    -0.834000       15.9994           0
   85577 WT5  4181 TIP3 H1   HT     0.417000        1.0080           0
   85578 WT5  4181 TIP3 H2   HT     0.417000        1.0080           0
   85579 WT5  4182 TIP3 OH2  OT    -0.834000       15.9994           0
   85580 WT5  4182 TIP3 H1   HT     0.417000        1.0080           0
   85581 WT5  4182 TIP3 H2   HT     0.417000        1.0080           0
   85582 WT5  4183 TIP3 OH2  OT    -0.834000       15.9994           0
   85583 WT5  4183 TIP3 H1   HT     0.417000        1.0080           0
   85584 WT5  4183 TIP3 H2   HT     0.417000        1.0080           0
   85585 WT5  4184 TIP3 OH2  OT    -0.834000       15.9994           0
   85586 WT5  4184 TIP3 H1   HT     0.417000        1.0080           0
   85587 WT5  4184 TIP3 H2   HT     0.417000        1.0080           0
   85588 WT5  4185 TIP3 OH2  OT    -0.834000       15.9994           0
   85589 WT5  4185 TIP3 H1   HT     0.417000        1.0080           0
   85590 WT5  4185 TIP3 H2   HT     0.417000        1.0080           0
   85591 WT5  4186 TIP3 OH2  OT    -0.834000       15.9994           0
   85592 WT5  4186 TIP3 H1   HT     0.417000        1.0080           0
   85593 WT5  4186 TIP3 H2   HT     0.417000        1.0080           0
   85594 WT5  4187 TIP3 OH2  OT    -0.834000       15.9994           0
   85595 WT5  4187 TIP3 H1   HT     0.417000        1.0080           0
   85596 WT5  4187 TIP3 H2   HT     0.417000        1.0080           0
   85597 WT5  4188 TIP3 OH2  OT    -0.834000       15.9994           0
   85598 WT5  4188 TIP3 H1   HT     0.417000        1.0080           0
   85599 WT5  4188 TIP3 H2   HT     0.417000        1.0080           0
   85600 WT5  4190 TIP3 OH2  OT    -0.834000       15.9994           0
   85601 WT5  4190 TIP3 H1   HT     0.417000        1.0080           0
   85602 WT5  4190 TIP3 H2   HT     0.417000        1.0080           0
   85603 WT5  4191 TIP3 OH2  OT    -0.834000       15.9994           0
   85604 WT5  4191 TIP3 H1   HT     0.417000        1.0080           0
   85605 WT5  4191 TIP3 H2   HT     0.417000        1.0080           0
   85606 WT5  4193 TIP3 OH2  OT    -0.834000       15.9994           0
   85607 WT5  4193 TIP3 H1   HT     0.417000        1.0080           0
   85608 WT5  4193 TIP3 H2   HT     0.417000        1.0080           0
   85609 WT5  4194 TIP3 OH2  OT    -0.834000       15.9994           0
   85610 WT5  4194 TIP3 H1   HT     0.417000        1.0080           0
   85611 WT5  4194 TIP3 H2   HT     0.417000        1.0080           0
   85612 WT5  4195 TIP3 OH2  OT    -0.834000       15.9994           0
   85613 WT5  4195 TIP3 H1   HT     0.417000        1.0080           0
   85614 WT5  4195 TIP3 H2   HT     0.417000        1.0080           0
   85615 WT5  4196 TIP3 OH2  OT    -0.834000       15.9994           0
   85616 WT5  4196 TIP3 H1   HT     0.417000        1.0080           0
   85617 WT5  4196 TIP3 H2   HT     0.417000        1.0080           0
   85618 WT5  4198 TIP3 OH2  OT    -0.834000       15.9994           0
   85619 WT5  4198 TIP3 H1   HT     0.417000        1.0080           0
   85620 WT5  4198 TIP3 H2   HT     0.417000        1.0080           0
   85621 WT5  4199 TIP3 OH2  OT    -0.834000       15.9994           0
   85622 WT5  4199 TIP3 H1   HT     0.417000        1.0080           0
   85623 WT5  4199 TIP3 H2   HT     0.417000        1.0080           0
   85624 WT5  4200 TIP3 OH2  OT    -0.834000       15.9994           0
   85625 WT5  4200 TIP3 H1   HT     0.417000        1.0080           0
   85626 WT5  4200 TIP3 H2   HT     0.417000        1.0080           0
   85627 WT5  4201 TIP3 OH2  OT    -0.834000       15.9994           0
   85628 WT5  4201 TIP3 H1   HT     0.417000        1.0080           0
   85629 WT5  4201 TIP3 H2   HT     0.417000        1.0080           0
   85630 WT5  4202 TIP3 OH2  OT    -0.834000       15.9994           0
   85631 WT5  4202 TIP3 H1   HT     0.417000        1.0080           0
   85632 WT5  4202 TIP3 H2   HT     0.417000        1.0080           0
   85633 WT5  4205 TIP3 OH2  OT    -0.834000       15.9994           0
   85634 WT5  4205 TIP3 H1   HT     0.417000        1.0080           0
   85635 WT5  4205 TIP3 H2   HT     0.417000        1.0080           0
   85636 WT5  4206 TIP3 OH2  OT    -0.834000       15.9994           0
   85637 WT5  4206 TIP3 H1   HT     0.417000        1.0080           0
   85638 WT5  4206 TIP3 H2   HT     0.417000        1.0080           0
   85639 WT5  4207 TIP3 OH2  OT    -0.834000       15.9994           0
   85640 WT5  4207 TIP3 H1   HT     0.417000        1.0080           0
   85641 WT5  4207 TIP3 H2   HT     0.417000        1.0080           0
   85642 WT5  4208 TIP3 OH2  OT    -0.834000       15.9994           0
   85643 WT5  4208 TIP3 H1   HT     0.417000        1.0080           0
   85644 WT5  4208 TIP3 H2   HT     0.417000        1.0080           0
   85645 WT5  4209 TIP3 OH2  OT    -0.834000       15.9994           0
   85646 WT5  4209 TIP3 H1   HT     0.417000        1.0080           0
   85647 WT5  4209 TIP3 H2   HT     0.417000        1.0080           0
   85648 WT5  4211 TIP3 OH2  OT    -0.834000       15.9994           0
   85649 WT5  4211 TIP3 H1   HT     0.417000        1.0080           0
   85650 WT5  4211 TIP3 H2   HT     0.417000        1.0080           0
   85651 WT5  4212 TIP3 OH2  OT    -0.834000       15.9994           0
   85652 WT5  4212 TIP3 H1   HT     0.417000        1.0080           0
   85653 WT5  4212 TIP3 H2   HT     0.417000        1.0080           0
   85654 WT5  4213 TIP3 OH2  OT    -0.834000       15.9994           0
   85655 WT5  4213 TIP3 H1   HT     0.417000        1.0080           0
   85656 WT5  4213 TIP3 H2   HT     0.417000        1.0080           0
   85657 WT5  4214 TIP3 OH2  OT    -0.834000       15.9994           0
   85658 WT5  4214 TIP3 H1   HT     0.417000        1.0080           0
   85659 WT5  4214 TIP3 H2   HT     0.417000        1.0080           0
   85660 WT5  4216 TIP3 OH2  OT    -0.834000       15.9994           0
   85661 WT5  4216 TIP3 H1   HT     0.417000        1.0080           0
   85662 WT5  4216 TIP3 H2   HT     0.417000        1.0080           0
   85663 WT5  4217 TIP3 OH2  OT    -0.834000       15.9994           0
   85664 WT5  4217 TIP3 H1   HT     0.417000        1.0080           0
   85665 WT5  4217 TIP3 H2   HT     0.417000        1.0080           0
   85666 WT5  4218 TIP3 OH2  OT    -0.834000       15.9994           0
   85667 WT5  4218 TIP3 H1   HT     0.417000        1.0080           0
   85668 WT5  4218 TIP3 H2   HT     0.417000        1.0080           0
   85669 WT5  4219 TIP3 OH2  OT    -0.834000       15.9994           0
   85670 WT5  4219 TIP3 H1   HT     0.417000        1.0080           0
   85671 WT5  4219 TIP3 H2   HT     0.417000        1.0080           0
   85672 WT5  4222 TIP3 OH2  OT    -0.834000       15.9994           0
   85673 WT5  4222 TIP3 H1   HT     0.417000        1.0080           0
   85674 WT5  4222 TIP3 H2   HT     0.417000        1.0080           0
   85675 WT5  4224 TIP3 OH2  OT    -0.834000       15.9994           0
   85676 WT5  4224 TIP3 H1   HT     0.417000        1.0080           0
   85677 WT5  4224 TIP3 H2   HT     0.417000        1.0080           0
   85678 WT5  4225 TIP3 OH2  OT    -0.834000       15.9994           0
   85679 WT5  4225 TIP3 H1   HT     0.417000        1.0080           0
   85680 WT5  4225 TIP3 H2   HT     0.417000        1.0080           0
   85681 WT5  4226 TIP3 OH2  OT    -0.834000       15.9994           0
   85682 WT5  4226 TIP3 H1   HT     0.417000        1.0080           0
   85683 WT5  4226 TIP3 H2   HT     0.417000        1.0080           0
   85684 WT5  4227 TIP3 OH2  OT    -0.834000       15.9994           0
   85685 WT5  4227 TIP3 H1   HT     0.417000        1.0080           0
   85686 WT5  4227 TIP3 H2   HT     0.417000        1.0080           0
   85687 WT5  4228 TIP3 OH2  OT    -0.834000       15.9994           0
   85688 WT5  4228 TIP3 H1   HT     0.417000        1.0080           0
   85689 WT5  4228 TIP3 H2   HT     0.417000        1.0080           0
   85690 WT5  4229 TIP3 OH2  OT    -0.834000       15.9994           0
   85691 WT5  4229 TIP3 H1   HT     0.417000        1.0080           0
   85692 WT5  4229 TIP3 H2   HT     0.417000        1.0080           0
   85693 WT5  4231 TIP3 OH2  OT    -0.834000       15.9994           0
   85694 WT5  4231 TIP3 H1   HT     0.417000        1.0080           0
   85695 WT5  4231 TIP3 H2   HT     0.417000        1.0080           0
   85696 WT5  4232 TIP3 OH2  OT    -0.834000       15.9994           0
   85697 WT5  4232 TIP3 H1   HT     0.417000        1.0080           0
   85698 WT5  4232 TIP3 H2   HT     0.417000        1.0080           0
   85699 WT5  4233 TIP3 OH2  OT    -0.834000       15.9994           0
   85700 WT5  4233 TIP3 H1   HT     0.417000        1.0080           0
   85701 WT5  4233 TIP3 H2   HT     0.417000        1.0080           0
   85702 WT5  4234 TIP3 OH2  OT    -0.834000       15.9994           0
   85703 WT5  4234 TIP3 H1   HT     0.417000        1.0080           0
   85704 WT5  4234 TIP3 H2   HT     0.417000        1.0080           0
   85705 WT5  4235 TIP3 OH2  OT    -0.834000       15.9994           0
   85706 WT5  4235 TIP3 H1   HT     0.417000        1.0080           0
   85707 WT5  4235 TIP3 H2   HT     0.417000        1.0080           0
   85708 WT5  4236 TIP3 OH2  OT    -0.834000       15.9994           0
   85709 WT5  4236 TIP3 H1   HT     0.417000        1.0080           0
   85710 WT5  4236 TIP3 H2   HT     0.417000        1.0080           0
   85711 WT5  4238 TIP3 OH2  OT    -0.834000       15.9994           0
   85712 WT5  4238 TIP3 H1   HT     0.417000        1.0080           0
   85713 WT5  4238 TIP3 H2   HT     0.417000        1.0080           0
   85714 WT5  4242 TIP3 OH2  OT    -0.834000       15.9994           0
   85715 WT5  4242 TIP3 H1   HT     0.417000        1.0080           0
   85716 WT5  4242 TIP3 H2   HT     0.417000        1.0080           0
   85717 WT5  4243 TIP3 OH2  OT    -0.834000       15.9994           0
   85718 WT5  4243 TIP3 H1   HT     0.417000        1.0080           0
   85719 WT5  4243 TIP3 H2   HT     0.417000        1.0080           0
   85720 WT5  4245 TIP3 OH2  OT    -0.834000       15.9994           0
   85721 WT5  4245 TIP3 H1   HT     0.417000        1.0080           0
   85722 WT5  4245 TIP3 H2   HT     0.417000        1.0080           0
   85723 WT5  4246 TIP3 OH2  OT    -0.834000       15.9994           0
   85724 WT5  4246 TIP3 H1   HT     0.417000        1.0080           0
   85725 WT5  4246 TIP3 H2   HT     0.417000        1.0080           0
   85726 WT5  4247 TIP3 OH2  OT    -0.834000       15.9994           0
   85727 WT5  4247 TIP3 H1   HT     0.417000        1.0080           0
   85728 WT5  4247 TIP3 H2   HT     0.417000        1.0080           0
   85729 WT5  4248 TIP3 OH2  OT    -0.834000       15.9994           0
   85730 WT5  4248 TIP3 H1   HT     0.417000        1.0080           0
   85731 WT5  4248 TIP3 H2   HT     0.417000        1.0080           0
   85732 WT5  4249 TIP3 OH2  OT    -0.834000       15.9994           0
   85733 WT5  4249 TIP3 H1   HT     0.417000        1.0080           0
   85734 WT5  4249 TIP3 H2   HT     0.417000        1.0080           0
   85735 WT5  4250 TIP3 OH2  OT    -0.834000       15.9994           0
   85736 WT5  4250 TIP3 H1   HT     0.417000        1.0080           0
   85737 WT5  4250 TIP3 H2   HT     0.417000        1.0080           0
   85738 WT5  4251 TIP3 OH2  OT    -0.834000       15.9994           0
   85739 WT5  4251 TIP3 H1   HT     0.417000        1.0080           0
   85740 WT5  4251 TIP3 H2   HT     0.417000        1.0080           0
   85741 WT5  4252 TIP3 OH2  OT    -0.834000       15.9994           0
   85742 WT5  4252 TIP3 H1   HT     0.417000        1.0080           0
   85743 WT5  4252 TIP3 H2   HT     0.417000        1.0080           0
   85744 WT5  4254 TIP3 OH2  OT    -0.834000       15.9994           0
   85745 WT5  4254 TIP3 H1   HT     0.417000        1.0080           0
   85746 WT5  4254 TIP3 H2   HT     0.417000        1.0080           0
   85747 WT5  4255 TIP3 OH2  OT    -0.834000       15.9994           0
   85748 WT5  4255 TIP3 H1   HT     0.417000        1.0080           0
   85749 WT5  4255 TIP3 H2   HT     0.417000        1.0080           0
   85750 WT5  4256 TIP3 OH2  OT    -0.834000       15.9994           0
   85751 WT5  4256 TIP3 H1   HT     0.417000        1.0080           0
   85752 WT5  4256 TIP3 H2   HT     0.417000        1.0080           0
   85753 WT5  4257 TIP3 OH2  OT    -0.834000       15.9994           0
   85754 WT5  4257 TIP3 H1   HT     0.417000        1.0080           0
   85755 WT5  4257 TIP3 H2   HT     0.417000        1.0080           0
   85756 WT5  4260 TIP3 OH2  OT    -0.834000       15.9994           0
   85757 WT5  4260 TIP3 H1   HT     0.417000        1.0080           0
   85758 WT5  4260 TIP3 H2   HT     0.417000        1.0080           0
   85759 WT5  4262 TIP3 OH2  OT    -0.834000       15.9994           0
   85760 WT5  4262 TIP3 H1   HT     0.417000        1.0080           0
   85761 WT5  4262 TIP3 H2   HT     0.417000        1.0080           0
   85762 WT5  4263 TIP3 OH2  OT    -0.834000       15.9994           0
   85763 WT5  4263 TIP3 H1   HT     0.417000        1.0080           0
   85764 WT5  4263 TIP3 H2   HT     0.417000        1.0080           0
   85765 WT5  4264 TIP3 OH2  OT    -0.834000       15.9994           0
   85766 WT5  4264 TIP3 H1   HT     0.417000        1.0080           0
   85767 WT5  4264 TIP3 H2   HT     0.417000        1.0080           0
   85768 WT5  4266 TIP3 OH2  OT    -0.834000       15.9994           0
   85769 WT5  4266 TIP3 H1   HT     0.417000        1.0080           0
   85770 WT5  4266 TIP3 H2   HT     0.417000        1.0080           0
   85771 WT5  4267 TIP3 OH2  OT    -0.834000       15.9994           0
   85772 WT5  4267 TIP3 H1   HT     0.417000        1.0080           0
   85773 WT5  4267 TIP3 H2   HT     0.417000        1.0080           0
   85774 WT5  4268 TIP3 OH2  OT    -0.834000       15.9994           0
   85775 WT5  4268 TIP3 H1   HT     0.417000        1.0080           0
   85776 WT5  4268 TIP3 H2   HT     0.417000        1.0080           0
   85777 WT5  4269 TIP3 OH2  OT    -0.834000       15.9994           0
   85778 WT5  4269 TIP3 H1   HT     0.417000        1.0080           0
   85779 WT5  4269 TIP3 H2   HT     0.417000        1.0080           0
   85780 WT5  4270 TIP3 OH2  OT    -0.834000       15.9994           0
   85781 WT5  4270 TIP3 H1   HT     0.417000        1.0080           0
   85782 WT5  4270 TIP3 H2   HT     0.417000        1.0080           0
   85783 WT5  4271 TIP3 OH2  OT    -0.834000       15.9994           0
   85784 WT5  4271 TIP3 H1   HT     0.417000        1.0080           0
   85785 WT5  4271 TIP3 H2   HT     0.417000        1.0080           0
   85786 WT5  4272 TIP3 OH2  OT    -0.834000       15.9994           0
   85787 WT5  4272 TIP3 H1   HT     0.417000        1.0080           0
   85788 WT5  4272 TIP3 H2   HT     0.417000        1.0080           0
   85789 WT5  4273 TIP3 OH2  OT    -0.834000       15.9994           0
   85790 WT5  4273 TIP3 H1   HT     0.417000        1.0080           0
   85791 WT5  4273 TIP3 H2   HT     0.417000        1.0080           0
   85792 WT5  4274 TIP3 OH2  OT    -0.834000       15.9994           0
   85793 WT5  4274 TIP3 H1   HT     0.417000        1.0080           0
   85794 WT5  4274 TIP3 H2   HT     0.417000        1.0080           0
   85795 WT5  4275 TIP3 OH2  OT    -0.834000       15.9994           0
   85796 WT5  4275 TIP3 H1   HT     0.417000        1.0080           0
   85797 WT5  4275 TIP3 H2   HT     0.417000        1.0080           0
   85798 WT5  4276 TIP3 OH2  OT    -0.834000       15.9994           0
   85799 WT5  4276 TIP3 H1   HT     0.417000        1.0080           0
   85800 WT5  4276 TIP3 H2   HT     0.417000        1.0080           0
   85801 WT5  4277 TIP3 OH2  OT    -0.834000       15.9994           0
   85802 WT5  4277 TIP3 H1   HT     0.417000        1.0080           0
   85803 WT5  4277 TIP3 H2   HT     0.417000        1.0080           0
   85804 WT5  4278 TIP3 OH2  OT    -0.834000       15.9994           0
   85805 WT5  4278 TIP3 H1   HT     0.417000        1.0080           0
   85806 WT5  4278 TIP3 H2   HT     0.417000        1.0080           0
   85807 WT5  4280 TIP3 OH2  OT    -0.834000       15.9994           0
   85808 WT5  4280 TIP3 H1   HT     0.417000        1.0080           0
   85809 WT5  4280 TIP3 H2   HT     0.417000        1.0080           0
   85810 WT5  4282 TIP3 OH2  OT    -0.834000       15.9994           0
   85811 WT5  4282 TIP3 H1   HT     0.417000        1.0080           0
   85812 WT5  4282 TIP3 H2   HT     0.417000        1.0080           0
   85813 WT5  4284 TIP3 OH2  OT    -0.834000       15.9994           0
   85814 WT5  4284 TIP3 H1   HT     0.417000        1.0080           0
   85815 WT5  4284 TIP3 H2   HT     0.417000        1.0080           0
   85816 WT5  4285 TIP3 OH2  OT    -0.834000       15.9994           0
   85817 WT5  4285 TIP3 H1   HT     0.417000        1.0080           0
   85818 WT5  4285 TIP3 H2   HT     0.417000        1.0080           0
   85819 WT5  4286 TIP3 OH2  OT    -0.834000       15.9994           0
   85820 WT5  4286 TIP3 H1   HT     0.417000        1.0080           0
   85821 WT5  4286 TIP3 H2   HT     0.417000        1.0080           0
   85822 WT5  4287 TIP3 OH2  OT    -0.834000       15.9994           0
   85823 WT5  4287 TIP3 H1   HT     0.417000        1.0080           0
   85824 WT5  4287 TIP3 H2   HT     0.417000        1.0080           0
   85825 WT5  4288 TIP3 OH2  OT    -0.834000       15.9994           0
   85826 WT5  4288 TIP3 H1   HT     0.417000        1.0080           0
   85827 WT5  4288 TIP3 H2   HT     0.417000        1.0080           0
   85828 WT5  4289 TIP3 OH2  OT    -0.834000       15.9994           0
   85829 WT5  4289 TIP3 H1   HT     0.417000        1.0080           0
   85830 WT5  4289 TIP3 H2   HT     0.417000        1.0080           0
   85831 WT5  4290 TIP3 OH2  OT    -0.834000       15.9994           0
   85832 WT5  4290 TIP3 H1   HT     0.417000        1.0080           0
   85833 WT5  4290 TIP3 H2   HT     0.417000        1.0080           0
   85834 WT5  4291 TIP3 OH2  OT    -0.834000       15.9994           0
   85835 WT5  4291 TIP3 H1   HT     0.417000        1.0080           0
   85836 WT5  4291 TIP3 H2   HT     0.417000        1.0080           0
   85837 WT5  4293 TIP3 OH2  OT    -0.834000       15.9994           0
   85838 WT5  4293 TIP3 H1   HT     0.417000        1.0080           0
   85839 WT5  4293 TIP3 H2   HT     0.417000        1.0080           0
   85840 WT5  4294 TIP3 OH2  OT    -0.834000       15.9994           0
   85841 WT5  4294 TIP3 H1   HT     0.417000        1.0080           0
   85842 WT5  4294 TIP3 H2   HT     0.417000        1.0080           0
   85843 WT5  4295 TIP3 OH2  OT    -0.834000       15.9994           0
   85844 WT5  4295 TIP3 H1   HT     0.417000        1.0080           0
   85845 WT5  4295 TIP3 H2   HT     0.417000        1.0080           0
   85846 WT5  4296 TIP3 OH2  OT    -0.834000       15.9994           0
   85847 WT5  4296 TIP3 H1   HT     0.417000        1.0080           0
   85848 WT5  4296 TIP3 H2   HT     0.417000        1.0080           0
   85849 WT5  4297 TIP3 OH2  OT    -0.834000       15.9994           0
   85850 WT5  4297 TIP3 H1   HT     0.417000        1.0080           0
   85851 WT5  4297 TIP3 H2   HT     0.417000        1.0080           0
   85852 WT5  4298 TIP3 OH2  OT    -0.834000       15.9994           0
   85853 WT5  4298 TIP3 H1   HT     0.417000        1.0080           0
   85854 WT5  4298 TIP3 H2   HT     0.417000        1.0080           0
   85855 WT5  4300 TIP3 OH2  OT    -0.834000       15.9994           0
   85856 WT5  4300 TIP3 H1   HT     0.417000        1.0080           0
   85857 WT5  4300 TIP3 H2   HT     0.417000        1.0080           0
   85858 WT5  4303 TIP3 OH2  OT    -0.834000       15.9994           0
   85859 WT5  4303 TIP3 H1   HT     0.417000        1.0080           0
   85860 WT5  4303 TIP3 H2   HT     0.417000        1.0080           0
   85861 WT5  4304 TIP3 OH2  OT    -0.834000       15.9994           0
   85862 WT5  4304 TIP3 H1   HT     0.417000        1.0080           0
   85863 WT5  4304 TIP3 H2   HT     0.417000        1.0080           0
   85864 WT5  4305 TIP3 OH2  OT    -0.834000       15.9994           0
   85865 WT5  4305 TIP3 H1   HT     0.417000        1.0080           0
   85866 WT5  4305 TIP3 H2   HT     0.417000        1.0080           0
   85867 WT5  4307 TIP3 OH2  OT    -0.834000       15.9994           0
   85868 WT5  4307 TIP3 H1   HT     0.417000        1.0080           0
   85869 WT5  4307 TIP3 H2   HT     0.417000        1.0080           0
   85870 WT5  4308 TIP3 OH2  OT    -0.834000       15.9994           0
   85871 WT5  4308 TIP3 H1   HT     0.417000        1.0080           0
   85872 WT5  4308 TIP3 H2   HT     0.417000        1.0080           0
   85873 WT5  4309 TIP3 OH2  OT    -0.834000       15.9994           0
   85874 WT5  4309 TIP3 H1   HT     0.417000        1.0080           0
   85875 WT5  4309 TIP3 H2   HT     0.417000        1.0080           0
   85876 WT5  4310 TIP3 OH2  OT    -0.834000       15.9994           0
   85877 WT5  4310 TIP3 H1   HT     0.417000        1.0080           0
   85878 WT5  4310 TIP3 H2   HT     0.417000        1.0080           0
   85879 WT5  4311 TIP3 OH2  OT    -0.834000       15.9994           0
   85880 WT5  4311 TIP3 H1   HT     0.417000        1.0080           0
   85881 WT5  4311 TIP3 H2   HT     0.417000        1.0080           0
   85882 WT5  4312 TIP3 OH2  OT    -0.834000       15.9994           0
   85883 WT5  4312 TIP3 H1   HT     0.417000        1.0080           0
   85884 WT5  4312 TIP3 H2   HT     0.417000        1.0080           0
   85885 WT5  4313 TIP3 OH2  OT    -0.834000       15.9994           0
   85886 WT5  4313 TIP3 H1   HT     0.417000        1.0080           0
   85887 WT5  4313 TIP3 H2   HT     0.417000        1.0080           0
   85888 WT5  4314 TIP3 OH2  OT    -0.834000       15.9994           0
   85889 WT5  4314 TIP3 H1   HT     0.417000        1.0080           0
   85890 WT5  4314 TIP3 H2   HT     0.417000        1.0080           0
   85891 WT5  4315 TIP3 OH2  OT    -0.834000       15.9994           0
   85892 WT5  4315 TIP3 H1   HT     0.417000        1.0080           0
   85893 WT5  4315 TIP3 H2   HT     0.417000        1.0080           0
   85894 WT5  4316 TIP3 OH2  OT    -0.834000       15.9994           0
   85895 WT5  4316 TIP3 H1   HT     0.417000        1.0080           0
   85896 WT5  4316 TIP3 H2   HT     0.417000        1.0080           0
   85897 WT5  4317 TIP3 OH2  OT    -0.834000       15.9994           0
   85898 WT5  4317 TIP3 H1   HT     0.417000        1.0080           0
   85899 WT5  4317 TIP3 H2   HT     0.417000        1.0080           0
   85900 WT5  4318 TIP3 OH2  OT    -0.834000       15.9994           0
   85901 WT5  4318 TIP3 H1   HT     0.417000        1.0080           0
   85902 WT5  4318 TIP3 H2   HT     0.417000        1.0080           0
   85903 WT5  4319 TIP3 OH2  OT    -0.834000       15.9994           0
   85904 WT5  4319 TIP3 H1   HT     0.417000        1.0080           0
   85905 WT5  4319 TIP3 H2   HT     0.417000        1.0080           0
   85906 WT5  4320 TIP3 OH2  OT    -0.834000       15.9994           0
   85907 WT5  4320 TIP3 H1   HT     0.417000        1.0080           0
   85908 WT5  4320 TIP3 H2   HT     0.417000        1.0080           0
   85909 WT5  4321 TIP3 OH2  OT    -0.834000       15.9994           0
   85910 WT5  4321 TIP3 H1   HT     0.417000        1.0080           0
   85911 WT5  4321 TIP3 H2   HT     0.417000        1.0080           0
   85912 WT5  4322 TIP3 OH2  OT    -0.834000       15.9994           0
   85913 WT5  4322 TIP3 H1   HT     0.417000        1.0080           0
   85914 WT5  4322 TIP3 H2   HT     0.417000        1.0080           0
   85915 WT5  4324 TIP3 OH2  OT    -0.834000       15.9994           0
   85916 WT5  4324 TIP3 H1   HT     0.417000        1.0080           0
   85917 WT5  4324 TIP3 H2   HT     0.417000        1.0080           0
   85918 WT5  4325 TIP3 OH2  OT    -0.834000       15.9994           0
   85919 WT5  4325 TIP3 H1   HT     0.417000        1.0080           0
   85920 WT5  4325 TIP3 H2   HT     0.417000        1.0080           0
   85921 WT5  4326 TIP3 OH2  OT    -0.834000       15.9994           0
   85922 WT5  4326 TIP3 H1   HT     0.417000        1.0080           0
   85923 WT5  4326 TIP3 H2   HT     0.417000        1.0080           0
   85924 WT5  4327 TIP3 OH2  OT    -0.834000       15.9994           0
   85925 WT5  4327 TIP3 H1   HT     0.417000        1.0080           0
   85926 WT5  4327 TIP3 H2   HT     0.417000        1.0080           0
   85927 WT5  4328 TIP3 OH2  OT    -0.834000       15.9994           0
   85928 WT5  4328 TIP3 H1   HT     0.417000        1.0080           0
   85929 WT5  4328 TIP3 H2   HT     0.417000        1.0080           0
   85930 WT5  4329 TIP3 OH2  OT    -0.834000       15.9994           0
   85931 WT5  4329 TIP3 H1   HT     0.417000        1.0080           0
   85932 WT5  4329 TIP3 H2   HT     0.417000        1.0080           0
   85933 WT5  4330 TIP3 OH2  OT    -0.834000       15.9994           0
   85934 WT5  4330 TIP3 H1   HT     0.417000        1.0080           0
   85935 WT5  4330 TIP3 H2   HT     0.417000        1.0080           0
   85936 WT5  4331 TIP3 OH2  OT    -0.834000       15.9994           0
   85937 WT5  4331 TIP3 H1   HT     0.417000        1.0080           0
   85938 WT5  4331 TIP3 H2   HT     0.417000        1.0080           0
   85939 WT5  4332 TIP3 OH2  OT    -0.834000       15.9994           0
   85940 WT5  4332 TIP3 H1   HT     0.417000        1.0080           0
   85941 WT5  4332 TIP3 H2   HT     0.417000        1.0080           0
   85942 WT5  4333 TIP3 OH2  OT    -0.834000       15.9994           0
   85943 WT5  4333 TIP3 H1   HT     0.417000        1.0080           0
   85944 WT5  4333 TIP3 H2   HT     0.417000        1.0080           0
   85945 WT5  4334 TIP3 OH2  OT    -0.834000       15.9994           0
   85946 WT5  4334 TIP3 H1   HT     0.417000        1.0080           0
   85947 WT5  4334 TIP3 H2   HT     0.417000        1.0080           0
   85948 WT5  4335 TIP3 OH2  OT    -0.834000       15.9994           0
   85949 WT5  4335 TIP3 H1   HT     0.417000        1.0080           0
   85950 WT5  4335 TIP3 H2   HT     0.417000        1.0080           0
   85951 WT5  4336 TIP3 OH2  OT    -0.834000       15.9994           0
   85952 WT5  4336 TIP3 H1   HT     0.417000        1.0080           0
   85953 WT5  4336 TIP3 H2   HT     0.417000        1.0080           0
   85954 WT5  4337 TIP3 OH2  OT    -0.834000       15.9994           0
   85955 WT5  4337 TIP3 H1   HT     0.417000        1.0080           0
   85956 WT5  4337 TIP3 H2   HT     0.417000        1.0080           0
   85957 WT5  4338 TIP3 OH2  OT    -0.834000       15.9994           0
   85958 WT5  4338 TIP3 H1   HT     0.417000        1.0080           0
   85959 WT5  4338 TIP3 H2   HT     0.417000        1.0080           0
   85960 WT5  4339 TIP3 OH2  OT    -0.834000       15.9994           0
   85961 WT5  4339 TIP3 H1   HT     0.417000        1.0080           0
   85962 WT5  4339 TIP3 H2   HT     0.417000        1.0080           0
   85963 WT5  4340 TIP3 OH2  OT    -0.834000       15.9994           0
   85964 WT5  4340 TIP3 H1   HT     0.417000        1.0080           0
   85965 WT5  4340 TIP3 H2   HT     0.417000        1.0080           0
   85966 WT5  4341 TIP3 OH2  OT    -0.834000       15.9994           0
   85967 WT5  4341 TIP3 H1   HT     0.417000        1.0080           0
   85968 WT5  4341 TIP3 H2   HT     0.417000        1.0080           0
   85969 WT5  4342 TIP3 OH2  OT    -0.834000       15.9994           0
   85970 WT5  4342 TIP3 H1   HT     0.417000        1.0080           0
   85971 WT5  4342 TIP3 H2   HT     0.417000        1.0080           0
   85972 WT5  4343 TIP3 OH2  OT    -0.834000       15.9994           0
   85973 WT5  4343 TIP3 H1   HT     0.417000        1.0080           0
   85974 WT5  4343 TIP3 H2   HT     0.417000        1.0080           0
   85975 WT5  4344 TIP3 OH2  OT    -0.834000       15.9994           0
   85976 WT5  4344 TIP3 H1   HT     0.417000        1.0080           0
   85977 WT5  4344 TIP3 H2   HT     0.417000        1.0080           0
   85978 WT5  4345 TIP3 OH2  OT    -0.834000       15.9994           0
   85979 WT5  4345 TIP3 H1   HT     0.417000        1.0080           0
   85980 WT5  4345 TIP3 H2   HT     0.417000        1.0080           0
   85981 WT5  4347 TIP3 OH2  OT    -0.834000       15.9994           0
   85982 WT5  4347 TIP3 H1   HT     0.417000        1.0080           0
   85983 WT5  4347 TIP3 H2   HT     0.417000        1.0080           0
   85984 WT5  4349 TIP3 OH2  OT    -0.834000       15.9994           0
   85985 WT5  4349 TIP3 H1   HT     0.417000        1.0080           0
   85986 WT5  4349 TIP3 H2   HT     0.417000        1.0080           0
   85987 WT5  4350 TIP3 OH2  OT    -0.834000       15.9994           0
   85988 WT5  4350 TIP3 H1   HT     0.417000        1.0080           0
   85989 WT5  4350 TIP3 H2   HT     0.417000        1.0080           0
   85990 WT5  4351 TIP3 OH2  OT    -0.834000       15.9994           0
   85991 WT5  4351 TIP3 H1   HT     0.417000        1.0080           0
   85992 WT5  4351 TIP3 H2   HT     0.417000        1.0080           0
   85993 WT5  4352 TIP3 OH2  OT    -0.834000       15.9994           0
   85994 WT5  4352 TIP3 H1   HT     0.417000        1.0080           0
   85995 WT5  4352 TIP3 H2   HT     0.417000        1.0080           0
   85996 WT5  4353 TIP3 OH2  OT    -0.834000       15.9994           0
   85997 WT5  4353 TIP3 H1   HT     0.417000        1.0080           0
   85998 WT5  4353 TIP3 H2   HT     0.417000        1.0080           0
   85999 WT5  4354 TIP3 OH2  OT    -0.834000       15.9994           0
   86000 WT5  4354 TIP3 H1   HT     0.417000        1.0080           0
   86001 WT5  4354 TIP3 H2   HT     0.417000        1.0080           0
   86002 WT5  4355 TIP3 OH2  OT    -0.834000       15.9994           0
   86003 WT5  4355 TIP3 H1   HT     0.417000        1.0080           0
   86004 WT5  4355 TIP3 H2   HT     0.417000        1.0080           0
   86005 WT5  4356 TIP3 OH2  OT    -0.834000       15.9994           0
   86006 WT5  4356 TIP3 H1   HT     0.417000        1.0080           0
   86007 WT5  4356 TIP3 H2   HT     0.417000        1.0080           0
   86008 WT5  4357 TIP3 OH2  OT    -0.834000       15.9994           0
   86009 WT5  4357 TIP3 H1   HT     0.417000        1.0080           0
   86010 WT5  4357 TIP3 H2   HT     0.417000        1.0080           0
   86011 WT5  4358 TIP3 OH2  OT    -0.834000       15.9994           0
   86012 WT5  4358 TIP3 H1   HT     0.417000        1.0080           0
   86013 WT5  4358 TIP3 H2   HT     0.417000        1.0080           0
   86014 WT5  4359 TIP3 OH2  OT    -0.834000       15.9994           0
   86015 WT5  4359 TIP3 H1   HT     0.417000        1.0080           0
   86016 WT5  4359 TIP3 H2   HT     0.417000        1.0080           0
   86017 WT5  4360 TIP3 OH2  OT    -0.834000       15.9994           0
   86018 WT5  4360 TIP3 H1   HT     0.417000        1.0080           0
   86019 WT5  4360 TIP3 H2   HT     0.417000        1.0080           0
   86020 WT5  4361 TIP3 OH2  OT    -0.834000       15.9994           0
   86021 WT5  4361 TIP3 H1   HT     0.417000        1.0080           0
   86022 WT5  4361 TIP3 H2   HT     0.417000        1.0080           0
   86023 WT5  4362 TIP3 OH2  OT    -0.834000       15.9994           0
   86024 WT5  4362 TIP3 H1   HT     0.417000        1.0080           0
   86025 WT5  4362 TIP3 H2   HT     0.417000        1.0080           0
   86026 WT5  4363 TIP3 OH2  OT    -0.834000       15.9994           0
   86027 WT5  4363 TIP3 H1   HT     0.417000        1.0080           0
   86028 WT5  4363 TIP3 H2   HT     0.417000        1.0080           0
   86029 WT5  4365 TIP3 OH2  OT    -0.834000       15.9994           0
   86030 WT5  4365 TIP3 H1   HT     0.417000        1.0080           0
   86031 WT5  4365 TIP3 H2   HT     0.417000        1.0080           0
   86032 WT5  4366 TIP3 OH2  OT    -0.834000       15.9994           0
   86033 WT5  4366 TIP3 H1   HT     0.417000        1.0080           0
   86034 WT5  4366 TIP3 H2   HT     0.417000        1.0080           0
   86035 WT5  4367 TIP3 OH2  OT    -0.834000       15.9994           0
   86036 WT5  4367 TIP3 H1   HT     0.417000        1.0080           0
   86037 WT5  4367 TIP3 H2   HT     0.417000        1.0080           0
   86038 WT5  4368 TIP3 OH2  OT    -0.834000       15.9994           0
   86039 WT5  4368 TIP3 H1   HT     0.417000        1.0080           0
   86040 WT5  4368 TIP3 H2   HT     0.417000        1.0080           0
   86041 WT5  4369 TIP3 OH2  OT    -0.834000       15.9994           0
   86042 WT5  4369 TIP3 H1   HT     0.417000        1.0080           0
   86043 WT5  4369 TIP3 H2   HT     0.417000        1.0080           0
   86044 WT5  4370 TIP3 OH2  OT    -0.834000       15.9994           0
   86045 WT5  4370 TIP3 H1   HT     0.417000        1.0080           0
   86046 WT5  4370 TIP3 H2   HT     0.417000        1.0080           0
   86047 WT5  4371 TIP3 OH2  OT    -0.834000       15.9994           0
   86048 WT5  4371 TIP3 H1   HT     0.417000        1.0080           0
   86049 WT5  4371 TIP3 H2   HT     0.417000        1.0080           0
   86050 WT5  4372 TIP3 OH2  OT    -0.834000       15.9994           0
   86051 WT5  4372 TIP3 H1   HT     0.417000        1.0080           0
   86052 WT5  4372 TIP3 H2   HT     0.417000        1.0080           0
   86053 WT5  4373 TIP3 OH2  OT    -0.834000       15.9994           0
   86054 WT5  4373 TIP3 H1   HT     0.417000        1.0080           0
   86055 WT5  4373 TIP3 H2   HT     0.417000        1.0080           0
   86056 WT5  4375 TIP3 OH2  OT    -0.834000       15.9994           0
   86057 WT5  4375 TIP3 H1   HT     0.417000        1.0080           0
   86058 WT5  4375 TIP3 H2   HT     0.417000        1.0080           0
   86059 WT5  4376 TIP3 OH2  OT    -0.834000       15.9994           0
   86060 WT5  4376 TIP3 H1   HT     0.417000        1.0080           0
   86061 WT5  4376 TIP3 H2   HT     0.417000        1.0080           0
   86062 WT5  4377 TIP3 OH2  OT    -0.834000       15.9994           0
   86063 WT5  4377 TIP3 H1   HT     0.417000        1.0080           0
   86064 WT5  4377 TIP3 H2   HT     0.417000        1.0080           0
   86065 WT5  4378 TIP3 OH2  OT    -0.834000       15.9994           0
   86066 WT5  4378 TIP3 H1   HT     0.417000        1.0080           0
   86067 WT5  4378 TIP3 H2   HT     0.417000        1.0080           0
   86068 WT5  4379 TIP3 OH2  OT    -0.834000       15.9994           0
   86069 WT5  4379 TIP3 H1   HT     0.417000        1.0080           0
   86070 WT5  4379 TIP3 H2   HT     0.417000        1.0080           0
   86071 WT5  4380 TIP3 OH2  OT    -0.834000       15.9994           0
   86072 WT5  4380 TIP3 H1   HT     0.417000        1.0080           0
   86073 WT5  4380 TIP3 H2   HT     0.417000        1.0080           0
   86074 WT5  4382 TIP3 OH2  OT    -0.834000       15.9994           0
   86075 WT5  4382 TIP3 H1   HT     0.417000        1.0080           0
   86076 WT5  4382 TIP3 H2   HT     0.417000        1.0080           0
   86077 WT5  4383 TIP3 OH2  OT    -0.834000       15.9994           0
   86078 WT5  4383 TIP3 H1   HT     0.417000        1.0080           0
   86079 WT5  4383 TIP3 H2   HT     0.417000        1.0080           0
   86080 WT5  4384 TIP3 OH2  OT    -0.834000       15.9994           0
   86081 WT5  4384 TIP3 H1   HT     0.417000        1.0080           0
   86082 WT5  4384 TIP3 H2   HT     0.417000        1.0080           0
   86083 WT5  4385 TIP3 OH2  OT    -0.834000       15.9994           0
   86084 WT5  4385 TIP3 H1   HT     0.417000        1.0080           0
   86085 WT5  4385 TIP3 H2   HT     0.417000        1.0080           0
   86086 WT5  4386 TIP3 OH2  OT    -0.834000       15.9994           0
   86087 WT5  4386 TIP3 H1   HT     0.417000        1.0080           0
   86088 WT5  4386 TIP3 H2   HT     0.417000        1.0080           0
   86089 WT5  4387 TIP3 OH2  OT    -0.834000       15.9994           0
   86090 WT5  4387 TIP3 H1   HT     0.417000        1.0080           0
   86091 WT5  4387 TIP3 H2   HT     0.417000        1.0080           0
   86092 WT5  4390 TIP3 OH2  OT    -0.834000       15.9994           0
   86093 WT5  4390 TIP3 H1   HT     0.417000        1.0080           0
   86094 WT5  4390 TIP3 H2   HT     0.417000        1.0080           0
   86095 WT5  4391 TIP3 OH2  OT    -0.834000       15.9994           0
   86096 WT5  4391 TIP3 H1   HT     0.417000        1.0080           0
   86097 WT5  4391 TIP3 H2   HT     0.417000        1.0080           0
   86098 WT5  4392 TIP3 OH2  OT    -0.834000       15.9994           0
   86099 WT5  4392 TIP3 H1   HT     0.417000        1.0080           0
   86100 WT5  4392 TIP3 H2   HT     0.417000        1.0080           0
   86101 WT5  4393 TIP3 OH2  OT    -0.834000       15.9994           0
   86102 WT5  4393 TIP3 H1   HT     0.417000        1.0080           0
   86103 WT5  4393 TIP3 H2   HT     0.417000        1.0080           0
   86104 WT5  4394 TIP3 OH2  OT    -0.834000       15.9994           0
   86105 WT5  4394 TIP3 H1   HT     0.417000        1.0080           0
   86106 WT5  4394 TIP3 H2   HT     0.417000        1.0080           0
   86107 WT5  4395 TIP3 OH2  OT    -0.834000       15.9994           0
   86108 WT5  4395 TIP3 H1   HT     0.417000        1.0080           0
   86109 WT5  4395 TIP3 H2   HT     0.417000        1.0080           0
   86110 WT5  4396 TIP3 OH2  OT    -0.834000       15.9994           0
   86111 WT5  4396 TIP3 H1   HT     0.417000        1.0080           0
   86112 WT5  4396 TIP3 H2   HT     0.417000        1.0080           0
   86113 WT5  4397 TIP3 OH2  OT    -0.834000       15.9994           0
   86114 WT5  4397 TIP3 H1   HT     0.417000        1.0080           0
   86115 WT5  4397 TIP3 H2   HT     0.417000        1.0080           0
   86116 WT5  4398 TIP3 OH2  OT    -0.834000       15.9994           0
   86117 WT5  4398 TIP3 H1   HT     0.417000        1.0080           0
   86118 WT5  4398 TIP3 H2   HT     0.417000        1.0080           0
   86119 WT5  4399 TIP3 OH2  OT    -0.834000       15.9994           0
   86120 WT5  4399 TIP3 H1   HT     0.417000        1.0080           0
   86121 WT5  4399 TIP3 H2   HT     0.417000        1.0080           0
   86122 WT5  4400 TIP3 OH2  OT    -0.834000       15.9994           0
   86123 WT5  4400 TIP3 H1   HT     0.417000        1.0080           0
   86124 WT5  4400 TIP3 H2   HT     0.417000        1.0080           0
   86125 WT5  4401 TIP3 OH2  OT    -0.834000       15.9994           0
   86126 WT5  4401 TIP3 H1   HT     0.417000        1.0080           0
   86127 WT5  4401 TIP3 H2   HT     0.417000        1.0080           0
   86128 WT5  4402 TIP3 OH2  OT    -0.834000       15.9994           0
   86129 WT5  4402 TIP3 H1   HT     0.417000        1.0080           0
   86130 WT5  4402 TIP3 H2   HT     0.417000        1.0080           0
   86131 WT5  4403 TIP3 OH2  OT    -0.834000       15.9994           0
   86132 WT5  4403 TIP3 H1   HT     0.417000        1.0080           0
   86133 WT5  4403 TIP3 H2   HT     0.417000        1.0080           0
   86134 WT5  4404 TIP3 OH2  OT    -0.834000       15.9994           0
   86135 WT5  4404 TIP3 H1   HT     0.417000        1.0080           0
   86136 WT5  4404 TIP3 H2   HT     0.417000        1.0080           0
   86137 WT5  4406 TIP3 OH2  OT    -0.834000       15.9994           0
   86138 WT5  4406 TIP3 H1   HT     0.417000        1.0080           0
   86139 WT5  4406 TIP3 H2   HT     0.417000        1.0080           0
   86140 WT5  4407 TIP3 OH2  OT    -0.834000       15.9994           0
   86141 WT5  4407 TIP3 H1   HT     0.417000        1.0080           0
   86142 WT5  4407 TIP3 H2   HT     0.417000        1.0080           0
   86143 WT5  4408 TIP3 OH2  OT    -0.834000       15.9994           0
   86144 WT5  4408 TIP3 H1   HT     0.417000        1.0080           0
   86145 WT5  4408 TIP3 H2   HT     0.417000        1.0080           0
   86146 WT5  4411 TIP3 OH2  OT    -0.834000       15.9994           0
   86147 WT5  4411 TIP3 H1   HT     0.417000        1.0080           0
   86148 WT5  4411 TIP3 H2   HT     0.417000        1.0080           0
   86149 WT5  4413 TIP3 OH2  OT    -0.834000       15.9994           0
   86150 WT5  4413 TIP3 H1   HT     0.417000        1.0080           0
   86151 WT5  4413 TIP3 H2   HT     0.417000        1.0080           0
   86152 WT5  4414 TIP3 OH2  OT    -0.834000       15.9994           0
   86153 WT5  4414 TIP3 H1   HT     0.417000        1.0080           0
   86154 WT5  4414 TIP3 H2   HT     0.417000        1.0080           0
   86155 WT5  4416 TIP3 OH2  OT    -0.834000       15.9994           0
   86156 WT5  4416 TIP3 H1   HT     0.417000        1.0080           0
   86157 WT5  4416 TIP3 H2   HT     0.417000        1.0080           0
   86158 WT5  4417 TIP3 OH2  OT    -0.834000       15.9994           0
   86159 WT5  4417 TIP3 H1   HT     0.417000        1.0080           0
   86160 WT5  4417 TIP3 H2   HT     0.417000        1.0080           0
   86161 WT5  4418 TIP3 OH2  OT    -0.834000       15.9994           0
   86162 WT5  4418 TIP3 H1   HT     0.417000        1.0080           0
   86163 WT5  4418 TIP3 H2   HT     0.417000        1.0080           0
   86164 WT5  4419 TIP3 OH2  OT    -0.834000       15.9994           0
   86165 WT5  4419 TIP3 H1   HT     0.417000        1.0080           0
   86166 WT5  4419 TIP3 H2   HT     0.417000        1.0080           0
   86167 WT5  4421 TIP3 OH2  OT    -0.834000       15.9994           0
   86168 WT5  4421 TIP3 H1   HT     0.417000        1.0080           0
   86169 WT5  4421 TIP3 H2   HT     0.417000        1.0080           0
   86170 WT5  4422 TIP3 OH2  OT    -0.834000       15.9994           0
   86171 WT5  4422 TIP3 H1   HT     0.417000        1.0080           0
   86172 WT5  4422 TIP3 H2   HT     0.417000        1.0080           0
   86173 WT5  4423 TIP3 OH2  OT    -0.834000       15.9994           0
   86174 WT5  4423 TIP3 H1   HT     0.417000        1.0080           0
   86175 WT5  4423 TIP3 H2   HT     0.417000        1.0080           0
   86176 WT5  4424 TIP3 OH2  OT    -0.834000       15.9994           0
   86177 WT5  4424 TIP3 H1   HT     0.417000        1.0080           0
   86178 WT5  4424 TIP3 H2   HT     0.417000        1.0080           0
   86179 WT5  4425 TIP3 OH2  OT    -0.834000       15.9994           0
   86180 WT5  4425 TIP3 H1   HT     0.417000        1.0080           0
   86181 WT5  4425 TIP3 H2   HT     0.417000        1.0080           0
   86182 WT5  4428 TIP3 OH2  OT    -0.834000       15.9994           0
   86183 WT5  4428 TIP3 H1   HT     0.417000        1.0080           0
   86184 WT5  4428 TIP3 H2   HT     0.417000        1.0080           0
   86185 WT5  4430 TIP3 OH2  OT    -0.834000       15.9994           0
   86186 WT5  4430 TIP3 H1   HT     0.417000        1.0080           0
   86187 WT5  4430 TIP3 H2   HT     0.417000        1.0080           0
   86188 WT5  4431 TIP3 OH2  OT    -0.834000       15.9994           0
   86189 WT5  4431 TIP3 H1   HT     0.417000        1.0080           0
   86190 WT5  4431 TIP3 H2   HT     0.417000        1.0080           0
   86191 WT5  4432 TIP3 OH2  OT    -0.834000       15.9994           0
   86192 WT5  4432 TIP3 H1   HT     0.417000        1.0080           0
   86193 WT5  4432 TIP3 H2   HT     0.417000        1.0080           0
   86194 WT5  4433 TIP3 OH2  OT    -0.834000       15.9994           0
   86195 WT5  4433 TIP3 H1   HT     0.417000        1.0080           0
   86196 WT5  4433 TIP3 H2   HT     0.417000        1.0080           0
   86197 WT5  4434 TIP3 OH2  OT    -0.834000       15.9994           0
   86198 WT5  4434 TIP3 H1   HT     0.417000        1.0080           0
   86199 WT5  4434 TIP3 H2   HT     0.417000        1.0080           0
   86200 WT5  4435 TIP3 OH2  OT    -0.834000       15.9994           0
   86201 WT5  4435 TIP3 H1   HT     0.417000        1.0080           0
   86202 WT5  4435 TIP3 H2   HT     0.417000        1.0080           0
   86203 WT5  4437 TIP3 OH2  OT    -0.834000       15.9994           0
   86204 WT5  4437 TIP3 H1   HT     0.417000        1.0080           0
   86205 WT5  4437 TIP3 H2   HT     0.417000        1.0080           0
   86206 WT5  4438 TIP3 OH2  OT    -0.834000       15.9994           0
   86207 WT5  4438 TIP3 H1   HT     0.417000        1.0080           0
   86208 WT5  4438 TIP3 H2   HT     0.417000        1.0080           0
   86209 WT5  4439 TIP3 OH2  OT    -0.834000       15.9994           0
   86210 WT5  4439 TIP3 H1   HT     0.417000        1.0080           0
   86211 WT5  4439 TIP3 H2   HT     0.417000        1.0080           0
   86212 WT5  4440 TIP3 OH2  OT    -0.834000       15.9994           0
   86213 WT5  4440 TIP3 H1   HT     0.417000        1.0080           0
   86214 WT5  4440 TIP3 H2   HT     0.417000        1.0080           0
   86215 WT5  4441 TIP3 OH2  OT    -0.834000       15.9994           0
   86216 WT5  4441 TIP3 H1   HT     0.417000        1.0080           0
   86217 WT5  4441 TIP3 H2   HT     0.417000        1.0080           0
   86218 WT5  4442 TIP3 OH2  OT    -0.834000       15.9994           0
   86219 WT5  4442 TIP3 H1   HT     0.417000        1.0080           0
   86220 WT5  4442 TIP3 H2   HT     0.417000        1.0080           0
   86221 WT5  4443 TIP3 OH2  OT    -0.834000       15.9994           0
   86222 WT5  4443 TIP3 H1   HT     0.417000        1.0080           0
   86223 WT5  4443 TIP3 H2   HT     0.417000        1.0080           0
   86224 WT5  4444 TIP3 OH2  OT    -0.834000       15.9994           0
   86225 WT5  4444 TIP3 H1   HT     0.417000        1.0080           0
   86226 WT5  4444 TIP3 H2   HT     0.417000        1.0080           0
   86227 WT5  4446 TIP3 OH2  OT    -0.834000       15.9994           0
   86228 WT5  4446 TIP3 H1   HT     0.417000        1.0080           0
   86229 WT5  4446 TIP3 H2   HT     0.417000        1.0080           0
   86230 WT5  4447 TIP3 OH2  OT    -0.834000       15.9994           0
   86231 WT5  4447 TIP3 H1   HT     0.417000        1.0080           0
   86232 WT5  4447 TIP3 H2   HT     0.417000        1.0080           0
   86233 WT5  4450 TIP3 OH2  OT    -0.834000       15.9994           0
   86234 WT5  4450 TIP3 H1   HT     0.417000        1.0080           0
   86235 WT5  4450 TIP3 H2   HT     0.417000        1.0080           0
   86236 WT5  4451 TIP3 OH2  OT    -0.834000       15.9994           0
   86237 WT5  4451 TIP3 H1   HT     0.417000        1.0080           0
   86238 WT5  4451 TIP3 H2   HT     0.417000        1.0080           0
   86239 WT5  4452 TIP3 OH2  OT    -0.834000       15.9994           0
   86240 WT5  4452 TIP3 H1   HT     0.417000        1.0080           0
   86241 WT5  4452 TIP3 H2   HT     0.417000        1.0080           0
   86242 WT5  4455 TIP3 OH2  OT    -0.834000       15.9994           0
   86243 WT5  4455 TIP3 H1   HT     0.417000        1.0080           0
   86244 WT5  4455 TIP3 H2   HT     0.417000        1.0080           0
   86245 WT5  4456 TIP3 OH2  OT    -0.834000       15.9994           0
   86246 WT5  4456 TIP3 H1   HT     0.417000        1.0080           0
   86247 WT5  4456 TIP3 H2   HT     0.417000        1.0080           0
   86248 WT5  4457 TIP3 OH2  OT    -0.834000       15.9994           0
   86249 WT5  4457 TIP3 H1   HT     0.417000        1.0080           0
   86250 WT5  4457 TIP3 H2   HT     0.417000        1.0080           0
   86251 WT5  4458 TIP3 OH2  OT    -0.834000       15.9994           0
   86252 WT5  4458 TIP3 H1   HT     0.417000        1.0080           0
   86253 WT5  4458 TIP3 H2   HT     0.417000        1.0080           0
   86254 WT5  4460 TIP3 OH2  OT    -0.834000       15.9994           0
   86255 WT5  4460 TIP3 H1   HT     0.417000        1.0080           0
   86256 WT5  4460 TIP3 H2   HT     0.417000        1.0080           0
   86257 WT5  4461 TIP3 OH2  OT    -0.834000       15.9994           0
   86258 WT5  4461 TIP3 H1   HT     0.417000        1.0080           0
   86259 WT5  4461 TIP3 H2   HT     0.417000        1.0080           0
   86260 WT5  4462 TIP3 OH2  OT    -0.834000       15.9994           0
   86261 WT5  4462 TIP3 H1   HT     0.417000        1.0080           0
   86262 WT5  4462 TIP3 H2   HT     0.417000        1.0080           0
   86263 WT5  4463 TIP3 OH2  OT    -0.834000       15.9994           0
   86264 WT5  4463 TIP3 H1   HT     0.417000        1.0080           0
   86265 WT5  4463 TIP3 H2   HT     0.417000        1.0080           0
   86266 WT5  4464 TIP3 OH2  OT    -0.834000       15.9994           0
   86267 WT5  4464 TIP3 H1   HT     0.417000        1.0080           0
   86268 WT5  4464 TIP3 H2   HT     0.417000        1.0080           0
   86269 WT5  4465 TIP3 OH2  OT    -0.834000       15.9994           0
   86270 WT5  4465 TIP3 H1   HT     0.417000        1.0080           0
   86271 WT5  4465 TIP3 H2   HT     0.417000        1.0080           0
   86272 WT5  4466 TIP3 OH2  OT    -0.834000       15.9994           0
   86273 WT5  4466 TIP3 H1   HT     0.417000        1.0080           0
   86274 WT5  4466 TIP3 H2   HT     0.417000        1.0080           0
   86275 WT5  4469 TIP3 OH2  OT    -0.834000       15.9994           0
   86276 WT5  4469 TIP3 H1   HT     0.417000        1.0080           0
   86277 WT5  4469 TIP3 H2   HT     0.417000        1.0080           0
   86278 WT5  4470 TIP3 OH2  OT    -0.834000       15.9994           0
   86279 WT5  4470 TIP3 H1   HT     0.417000        1.0080           0
   86280 WT5  4470 TIP3 H2   HT     0.417000        1.0080           0
   86281 WT5  4471 TIP3 OH2  OT    -0.834000       15.9994           0
   86282 WT5  4471 TIP3 H1   HT     0.417000        1.0080           0
   86283 WT5  4471 TIP3 H2   HT     0.417000        1.0080           0
   86284 WT5  4472 TIP3 OH2  OT    -0.834000       15.9994           0
   86285 WT5  4472 TIP3 H1   HT     0.417000        1.0080           0
   86286 WT5  4472 TIP3 H2   HT     0.417000        1.0080           0
   86287 WT5  4473 TIP3 OH2  OT    -0.834000       15.9994           0
   86288 WT5  4473 TIP3 H1   HT     0.417000        1.0080           0
   86289 WT5  4473 TIP3 H2   HT     0.417000        1.0080           0
   86290 WT5  4474 TIP3 OH2  OT    -0.834000       15.9994           0
   86291 WT5  4474 TIP3 H1   HT     0.417000        1.0080           0
   86292 WT5  4474 TIP3 H2   HT     0.417000        1.0080           0
   86293 WT5  4475 TIP3 OH2  OT    -0.834000       15.9994           0
   86294 WT5  4475 TIP3 H1   HT     0.417000        1.0080           0
   86295 WT5  4475 TIP3 H2   HT     0.417000        1.0080           0
   86296 WT5  4477 TIP3 OH2  OT    -0.834000       15.9994           0
   86297 WT5  4477 TIP3 H1   HT     0.417000        1.0080           0
   86298 WT5  4477 TIP3 H2   HT     0.417000        1.0080           0
   86299 WT5  4479 TIP3 OH2  OT    -0.834000       15.9994           0
   86300 WT5  4479 TIP3 H1   HT     0.417000        1.0080           0
   86301 WT5  4479 TIP3 H2   HT     0.417000        1.0080           0
   86302 WT5  4480 TIP3 OH2  OT    -0.834000       15.9994           0
   86303 WT5  4480 TIP3 H1   HT     0.417000        1.0080           0
   86304 WT5  4480 TIP3 H2   HT     0.417000        1.0080           0
   86305 WT5  4481 TIP3 OH2  OT    -0.834000       15.9994           0
   86306 WT5  4481 TIP3 H1   HT     0.417000        1.0080           0
   86307 WT5  4481 TIP3 H2   HT     0.417000        1.0080           0
   86308 WT5  4482 TIP3 OH2  OT    -0.834000       15.9994           0
   86309 WT5  4482 TIP3 H1   HT     0.417000        1.0080           0
   86310 WT5  4482 TIP3 H2   HT     0.417000        1.0080           0
   86311 WT5  4483 TIP3 OH2  OT    -0.834000       15.9994           0
   86312 WT5  4483 TIP3 H1   HT     0.417000        1.0080           0
   86313 WT5  4483 TIP3 H2   HT     0.417000        1.0080           0
   86314 WT5  4484 TIP3 OH2  OT    -0.834000       15.9994           0
   86315 WT5  4484 TIP3 H1   HT     0.417000        1.0080           0
   86316 WT5  4484 TIP3 H2   HT     0.417000        1.0080           0
   86317 WT5  4485 TIP3 OH2  OT    -0.834000       15.9994           0
   86318 WT5  4485 TIP3 H1   HT     0.417000        1.0080           0
   86319 WT5  4485 TIP3 H2   HT     0.417000        1.0080           0
   86320 WT5  4486 TIP3 OH2  OT    -0.834000       15.9994           0
   86321 WT5  4486 TIP3 H1   HT     0.417000        1.0080           0
   86322 WT5  4486 TIP3 H2   HT     0.417000        1.0080           0
   86323 WT5  4487 TIP3 OH2  OT    -0.834000       15.9994           0
   86324 WT5  4487 TIP3 H1   HT     0.417000        1.0080           0
   86325 WT5  4487 TIP3 H2   HT     0.417000        1.0080           0
   86326 WT5  4488 TIP3 OH2  OT    -0.834000       15.9994           0
   86327 WT5  4488 TIP3 H1   HT     0.417000        1.0080           0
   86328 WT5  4488 TIP3 H2   HT     0.417000        1.0080           0
   86329 WT5  4490 TIP3 OH2  OT    -0.834000       15.9994           0
   86330 WT5  4490 TIP3 H1   HT     0.417000        1.0080           0
   86331 WT5  4490 TIP3 H2   HT     0.417000        1.0080           0
   86332 WT5  4491 TIP3 OH2  OT    -0.834000       15.9994           0
   86333 WT5  4491 TIP3 H1   HT     0.417000        1.0080           0
   86334 WT5  4491 TIP3 H2   HT     0.417000        1.0080           0
   86335 WT5  4492 TIP3 OH2  OT    -0.834000       15.9994           0
   86336 WT5  4492 TIP3 H1   HT     0.417000        1.0080           0
   86337 WT5  4492 TIP3 H2   HT     0.417000        1.0080           0
   86338 WT5  4493 TIP3 OH2  OT    -0.834000       15.9994           0
   86339 WT5  4493 TIP3 H1   HT     0.417000        1.0080           0
   86340 WT5  4493 TIP3 H2   HT     0.417000        1.0080           0
   86341 WT5  4494 TIP3 OH2  OT    -0.834000       15.9994           0
   86342 WT5  4494 TIP3 H1   HT     0.417000        1.0080           0
   86343 WT5  4494 TIP3 H2   HT     0.417000        1.0080           0
   86344 WT5  4495 TIP3 OH2  OT    -0.834000       15.9994           0
   86345 WT5  4495 TIP3 H1   HT     0.417000        1.0080           0
   86346 WT5  4495 TIP3 H2   HT     0.417000        1.0080           0
   86347 WT5  4496 TIP3 OH2  OT    -0.834000       15.9994           0
   86348 WT5  4496 TIP3 H1   HT     0.417000        1.0080           0
   86349 WT5  4496 TIP3 H2   HT     0.417000        1.0080           0
   86350 WT5  4497 TIP3 OH2  OT    -0.834000       15.9994           0
   86351 WT5  4497 TIP3 H1   HT     0.417000        1.0080           0
   86352 WT5  4497 TIP3 H2   HT     0.417000        1.0080           0
   86353 WT5  4498 TIP3 OH2  OT    -0.834000       15.9994           0
   86354 WT5  4498 TIP3 H1   HT     0.417000        1.0080           0
   86355 WT5  4498 TIP3 H2   HT     0.417000        1.0080           0
   86356 WT5  4499 TIP3 OH2  OT    -0.834000       15.9994           0
   86357 WT5  4499 TIP3 H1   HT     0.417000        1.0080           0
   86358 WT5  4499 TIP3 H2   HT     0.417000        1.0080           0
   86359 WT5  4500 TIP3 OH2  OT    -0.834000       15.9994           0
   86360 WT5  4500 TIP3 H1   HT     0.417000        1.0080           0
   86361 WT5  4500 TIP3 H2   HT     0.417000        1.0080           0
   86362 WT5  4501 TIP3 OH2  OT    -0.834000       15.9994           0
   86363 WT5  4501 TIP3 H1   HT     0.417000        1.0080           0
   86364 WT5  4501 TIP3 H2   HT     0.417000        1.0080           0
   86365 WT5  4503 TIP3 OH2  OT    -0.834000       15.9994           0
   86366 WT5  4503 TIP3 H1   HT     0.417000        1.0080           0
   86367 WT5  4503 TIP3 H2   HT     0.417000        1.0080           0
   86368 WT5  4504 TIP3 OH2  OT    -0.834000       15.9994           0
   86369 WT5  4504 TIP3 H1   HT     0.417000        1.0080           0
   86370 WT5  4504 TIP3 H2   HT     0.417000        1.0080           0
   86371 WT5  4505 TIP3 OH2  OT    -0.834000       15.9994           0
   86372 WT5  4505 TIP3 H1   HT     0.417000        1.0080           0
   86373 WT5  4505 TIP3 H2   HT     0.417000        1.0080           0
   86374 WT5  4506 TIP3 OH2  OT    -0.834000       15.9994           0
   86375 WT5  4506 TIP3 H1   HT     0.417000        1.0080           0
   86376 WT5  4506 TIP3 H2   HT     0.417000        1.0080           0
   86377 WT5  4507 TIP3 OH2  OT    -0.834000       15.9994           0
   86378 WT5  4507 TIP3 H1   HT     0.417000        1.0080           0
   86379 WT5  4507 TIP3 H2   HT     0.417000        1.0080           0
   86380 WT5  4508 TIP3 OH2  OT    -0.834000       15.9994           0
   86381 WT5  4508 TIP3 H1   HT     0.417000        1.0080           0
   86382 WT5  4508 TIP3 H2   HT     0.417000        1.0080           0
   86383 WT5  4509 TIP3 OH2  OT    -0.834000       15.9994           0
   86384 WT5  4509 TIP3 H1   HT     0.417000        1.0080           0
   86385 WT5  4509 TIP3 H2   HT     0.417000        1.0080           0
   86386 WT5  4510 TIP3 OH2  OT    -0.834000       15.9994           0
   86387 WT5  4510 TIP3 H1   HT     0.417000        1.0080           0
   86388 WT5  4510 TIP3 H2   HT     0.417000        1.0080           0
   86389 WT5  4512 TIP3 OH2  OT    -0.834000       15.9994           0
   86390 WT5  4512 TIP3 H1   HT     0.417000        1.0080           0
   86391 WT5  4512 TIP3 H2   HT     0.417000        1.0080           0
   86392 WT5  4513 TIP3 OH2  OT    -0.834000       15.9994           0
   86393 WT5  4513 TIP3 H1   HT     0.417000        1.0080           0
   86394 WT5  4513 TIP3 H2   HT     0.417000        1.0080           0
   86395 WT5  4515 TIP3 OH2  OT    -0.834000       15.9994           0
   86396 WT5  4515 TIP3 H1   HT     0.417000        1.0080           0
   86397 WT5  4515 TIP3 H2   HT     0.417000        1.0080           0
   86398 WT5  4516 TIP3 OH2  OT    -0.834000       15.9994           0
   86399 WT5  4516 TIP3 H1   HT     0.417000        1.0080           0
   86400 WT5  4516 TIP3 H2   HT     0.417000        1.0080           0
   86401 WT5  4518 TIP3 OH2  OT    -0.834000       15.9994           0
   86402 WT5  4518 TIP3 H1   HT     0.417000        1.0080           0
   86403 WT5  4518 TIP3 H2   HT     0.417000        1.0080           0
   86404 WT5  4519 TIP3 OH2  OT    -0.834000       15.9994           0
   86405 WT5  4519 TIP3 H1   HT     0.417000        1.0080           0
   86406 WT5  4519 TIP3 H2   HT     0.417000        1.0080           0
   86407 WT5  4520 TIP3 OH2  OT    -0.834000       15.9994           0
   86408 WT5  4520 TIP3 H1   HT     0.417000        1.0080           0
   86409 WT5  4520 TIP3 H2   HT     0.417000        1.0080           0
   86410 WT5  4521 TIP3 OH2  OT    -0.834000       15.9994           0
   86411 WT5  4521 TIP3 H1   HT     0.417000        1.0080           0
   86412 WT5  4521 TIP3 H2   HT     0.417000        1.0080           0
   86413 WT5  4522 TIP3 OH2  OT    -0.834000       15.9994           0
   86414 WT5  4522 TIP3 H1   HT     0.417000        1.0080           0
   86415 WT5  4522 TIP3 H2   HT     0.417000        1.0080           0
   86416 WT5  4523 TIP3 OH2  OT    -0.834000       15.9994           0
   86417 WT5  4523 TIP3 H1   HT     0.417000        1.0080           0
   86418 WT5  4523 TIP3 H2   HT     0.417000        1.0080           0
   86419 WT5  4524 TIP3 OH2  OT    -0.834000       15.9994           0
   86420 WT5  4524 TIP3 H1   HT     0.417000        1.0080           0
   86421 WT5  4524 TIP3 H2   HT     0.417000        1.0080           0
   86422 WT5  4525 TIP3 OH2  OT    -0.834000       15.9994           0
   86423 WT5  4525 TIP3 H1   HT     0.417000        1.0080           0
   86424 WT5  4525 TIP3 H2   HT     0.417000        1.0080           0
   86425 WT5  4529 TIP3 OH2  OT    -0.834000       15.9994           0
   86426 WT5  4529 TIP3 H1   HT     0.417000        1.0080           0
   86427 WT5  4529 TIP3 H2   HT     0.417000        1.0080           0
   86428 WT5  4530 TIP3 OH2  OT    -0.834000       15.9994           0
   86429 WT5  4530 TIP3 H1   HT     0.417000        1.0080           0
   86430 WT5  4530 TIP3 H2   HT     0.417000        1.0080           0
   86431 WT5  4532 TIP3 OH2  OT    -0.834000       15.9994           0
   86432 WT5  4532 TIP3 H1   HT     0.417000        1.0080           0
   86433 WT5  4532 TIP3 H2   HT     0.417000        1.0080           0
   86434 WT5  4536 TIP3 OH2  OT    -0.834000       15.9994           0
   86435 WT5  4536 TIP3 H1   HT     0.417000        1.0080           0
   86436 WT5  4536 TIP3 H2   HT     0.417000        1.0080           0
   86437 WT5  4537 TIP3 OH2  OT    -0.834000       15.9994           0
   86438 WT5  4537 TIP3 H1   HT     0.417000        1.0080           0
   86439 WT5  4537 TIP3 H2   HT     0.417000        1.0080           0
   86440 WT5  4538 TIP3 OH2  OT    -0.834000       15.9994           0
   86441 WT5  4538 TIP3 H1   HT     0.417000        1.0080           0
   86442 WT5  4538 TIP3 H2   HT     0.417000        1.0080           0
   86443 WT5  4539 TIP3 OH2  OT    -0.834000       15.9994           0
   86444 WT5  4539 TIP3 H1   HT     0.417000        1.0080           0
   86445 WT5  4539 TIP3 H2   HT     0.417000        1.0080           0
   86446 WT5  4540 TIP3 OH2  OT    -0.834000       15.9994           0
   86447 WT5  4540 TIP3 H1   HT     0.417000        1.0080           0
   86448 WT5  4540 TIP3 H2   HT     0.417000        1.0080           0
   86449 WT5  4541 TIP3 OH2  OT    -0.834000       15.9994           0
   86450 WT5  4541 TIP3 H1   HT     0.417000        1.0080           0
   86451 WT5  4541 TIP3 H2   HT     0.417000        1.0080           0
   86452 WT5  4543 TIP3 OH2  OT    -0.834000       15.9994           0
   86453 WT5  4543 TIP3 H1   HT     0.417000        1.0080           0
   86454 WT5  4543 TIP3 H2   HT     0.417000        1.0080           0
   86455 WT5  4545 TIP3 OH2  OT    -0.834000       15.9994           0
   86456 WT5  4545 TIP3 H1   HT     0.417000        1.0080           0
   86457 WT5  4545 TIP3 H2   HT     0.417000        1.0080           0
   86458 WT5  4548 TIP3 OH2  OT    -0.834000       15.9994           0
   86459 WT5  4548 TIP3 H1   HT     0.417000        1.0080           0
   86460 WT5  4548 TIP3 H2   HT     0.417000        1.0080           0
   86461 WT5  4549 TIP3 OH2  OT    -0.834000       15.9994           0
   86462 WT5  4549 TIP3 H1   HT     0.417000        1.0080           0
   86463 WT5  4549 TIP3 H2   HT     0.417000        1.0080           0
   86464 WT5  4550 TIP3 OH2  OT    -0.834000       15.9994           0
   86465 WT5  4550 TIP3 H1   HT     0.417000        1.0080           0
   86466 WT5  4550 TIP3 H2   HT     0.417000        1.0080           0
   86467 WT5  4551 TIP3 OH2  OT    -0.834000       15.9994           0
   86468 WT5  4551 TIP3 H1   HT     0.417000        1.0080           0
   86469 WT5  4551 TIP3 H2   HT     0.417000        1.0080           0
   86470 WT5  4552 TIP3 OH2  OT    -0.834000       15.9994           0
   86471 WT5  4552 TIP3 H1   HT     0.417000        1.0080           0
   86472 WT5  4552 TIP3 H2   HT     0.417000        1.0080           0
   86473 WT5  4553 TIP3 OH2  OT    -0.834000       15.9994           0
   86474 WT5  4553 TIP3 H1   HT     0.417000        1.0080           0
   86475 WT5  4553 TIP3 H2   HT     0.417000        1.0080           0
   86476 WT5  4557 TIP3 OH2  OT    -0.834000       15.9994           0
   86477 WT5  4557 TIP3 H1   HT     0.417000        1.0080           0
   86478 WT5  4557 TIP3 H2   HT     0.417000        1.0080           0
   86479 WT5  4558 TIP3 OH2  OT    -0.834000       15.9994           0
   86480 WT5  4558 TIP3 H1   HT     0.417000        1.0080           0
   86481 WT5  4558 TIP3 H2   HT     0.417000        1.0080           0
   86482 WT5  4559 TIP3 OH2  OT    -0.834000       15.9994           0
   86483 WT5  4559 TIP3 H1   HT     0.417000        1.0080           0
   86484 WT5  4559 TIP3 H2   HT     0.417000        1.0080           0
   86485 WT5  4560 TIP3 OH2  OT    -0.834000       15.9994           0
   86486 WT5  4560 TIP3 H1   HT     0.417000        1.0080           0
   86487 WT5  4560 TIP3 H2   HT     0.417000        1.0080           0
   86488 WT5  4561 TIP3 OH2  OT    -0.834000       15.9994           0
   86489 WT5  4561 TIP3 H1   HT     0.417000        1.0080           0
   86490 WT5  4561 TIP3 H2   HT     0.417000        1.0080           0
   86491 WT5  4562 TIP3 OH2  OT    -0.834000       15.9994           0
   86492 WT5  4562 TIP3 H1   HT     0.417000        1.0080           0
   86493 WT5  4562 TIP3 H2   HT     0.417000        1.0080           0
   86494 WT5  4563 TIP3 OH2  OT    -0.834000       15.9994           0
   86495 WT5  4563 TIP3 H1   HT     0.417000        1.0080           0
   86496 WT5  4563 TIP3 H2   HT     0.417000        1.0080           0
   86497 WT5  4564 TIP3 OH2  OT    -0.834000       15.9994           0
   86498 WT5  4564 TIP3 H1   HT     0.417000        1.0080           0
   86499 WT5  4564 TIP3 H2   HT     0.417000        1.0080           0
   86500 WT5  4565 TIP3 OH2  OT    -0.834000       15.9994           0
   86501 WT5  4565 TIP3 H1   HT     0.417000        1.0080           0
   86502 WT5  4565 TIP3 H2   HT     0.417000        1.0080           0
   86503 WT5  4566 TIP3 OH2  OT    -0.834000       15.9994           0
   86504 WT5  4566 TIP3 H1   HT     0.417000        1.0080           0
   86505 WT5  4566 TIP3 H2   HT     0.417000        1.0080           0
   86506 WT5  4567 TIP3 OH2  OT    -0.834000       15.9994           0
   86507 WT5  4567 TIP3 H1   HT     0.417000        1.0080           0
   86508 WT5  4567 TIP3 H2   HT     0.417000        1.0080           0
   86509 WT5  4568 TIP3 OH2  OT    -0.834000       15.9994           0
   86510 WT5  4568 TIP3 H1   HT     0.417000        1.0080           0
   86511 WT5  4568 TIP3 H2   HT     0.417000        1.0080           0
   86512 WT5  4569 TIP3 OH2  OT    -0.834000       15.9994           0
   86513 WT5  4569 TIP3 H1   HT     0.417000        1.0080           0
   86514 WT5  4569 TIP3 H2   HT     0.417000        1.0080           0
   86515 WT5  4570 TIP3 OH2  OT    -0.834000       15.9994           0
   86516 WT5  4570 TIP3 H1   HT     0.417000        1.0080           0
   86517 WT5  4570 TIP3 H2   HT     0.417000        1.0080           0
   86518 WT5  4571 TIP3 OH2  OT    -0.834000       15.9994           0
   86519 WT5  4571 TIP3 H1   HT     0.417000        1.0080           0
   86520 WT5  4571 TIP3 H2   HT     0.417000        1.0080           0
   86521 WT5  4572 TIP3 OH2  OT    -0.834000       15.9994           0
   86522 WT5  4572 TIP3 H1   HT     0.417000        1.0080           0
   86523 WT5  4572 TIP3 H2   HT     0.417000        1.0080           0
   86524 WT5  4573 TIP3 OH2  OT    -0.834000       15.9994           0
   86525 WT5  4573 TIP3 H1   HT     0.417000        1.0080           0
   86526 WT5  4573 TIP3 H2   HT     0.417000        1.0080           0
   86527 WT5  4574 TIP3 OH2  OT    -0.834000       15.9994           0
   86528 WT5  4574 TIP3 H1   HT     0.417000        1.0080           0
   86529 WT5  4574 TIP3 H2   HT     0.417000        1.0080           0
   86530 WT5  4576 TIP3 OH2  OT    -0.834000       15.9994           0
   86531 WT5  4576 TIP3 H1   HT     0.417000        1.0080           0
   86532 WT5  4576 TIP3 H2   HT     0.417000        1.0080           0
   86533 WT5  4578 TIP3 OH2  OT    -0.834000       15.9994           0
   86534 WT5  4578 TIP3 H1   HT     0.417000        1.0080           0
   86535 WT5  4578 TIP3 H2   HT     0.417000        1.0080           0
   86536 WT5  4579 TIP3 OH2  OT    -0.834000       15.9994           0
   86537 WT5  4579 TIP3 H1   HT     0.417000        1.0080           0
   86538 WT5  4579 TIP3 H2   HT     0.417000        1.0080           0
   86539 WT5  4580 TIP3 OH2  OT    -0.834000       15.9994           0
   86540 WT5  4580 TIP3 H1   HT     0.417000        1.0080           0
   86541 WT5  4580 TIP3 H2   HT     0.417000        1.0080           0
   86542 WT5  4581 TIP3 OH2  OT    -0.834000       15.9994           0
   86543 WT5  4581 TIP3 H1   HT     0.417000        1.0080           0
   86544 WT5  4581 TIP3 H2   HT     0.417000        1.0080           0
   86545 WT5  4582 TIP3 OH2  OT    -0.834000       15.9994           0
   86546 WT5  4582 TIP3 H1   HT     0.417000        1.0080           0
   86547 WT5  4582 TIP3 H2   HT     0.417000        1.0080           0
   86548 WT5  4585 TIP3 OH2  OT    -0.834000       15.9994           0
   86549 WT5  4585 TIP3 H1   HT     0.417000        1.0080           0
   86550 WT5  4585 TIP3 H2   HT     0.417000        1.0080           0
   86551 WT5  4587 TIP3 OH2  OT    -0.834000       15.9994           0
   86552 WT5  4587 TIP3 H1   HT     0.417000        1.0080           0
   86553 WT5  4587 TIP3 H2   HT     0.417000        1.0080           0
   86554 WT5  4588 TIP3 OH2  OT    -0.834000       15.9994           0
   86555 WT5  4588 TIP3 H1   HT     0.417000        1.0080           0
   86556 WT5  4588 TIP3 H2   HT     0.417000        1.0080           0
   86557 WT5  4589 TIP3 OH2  OT    -0.834000       15.9994           0
   86558 WT5  4589 TIP3 H1   HT     0.417000        1.0080           0
   86559 WT5  4589 TIP3 H2   HT     0.417000        1.0080           0
   86560 WT5  4590 TIP3 OH2  OT    -0.834000       15.9994           0
   86561 WT5  4590 TIP3 H1   HT     0.417000        1.0080           0
   86562 WT5  4590 TIP3 H2   HT     0.417000        1.0080           0
   86563 WT5  4591 TIP3 OH2  OT    -0.834000       15.9994           0
   86564 WT5  4591 TIP3 H1   HT     0.417000        1.0080           0
   86565 WT5  4591 TIP3 H2   HT     0.417000        1.0080           0
   86566 WT5  4592 TIP3 OH2  OT    -0.834000       15.9994           0
   86567 WT5  4592 TIP3 H1   HT     0.417000        1.0080           0
   86568 WT5  4592 TIP3 H2   HT     0.417000        1.0080           0
   86569 WT5  4593 TIP3 OH2  OT    -0.834000       15.9994           0
   86570 WT5  4593 TIP3 H1   HT     0.417000        1.0080           0
   86571 WT5  4593 TIP3 H2   HT     0.417000        1.0080           0
   86572 WT5  4595 TIP3 OH2  OT    -0.834000       15.9994           0
   86573 WT5  4595 TIP3 H1   HT     0.417000        1.0080           0
   86574 WT5  4595 TIP3 H2   HT     0.417000        1.0080           0
   86575 WT5  4599 TIP3 OH2  OT    -0.834000       15.9994           0
   86576 WT5  4599 TIP3 H1   HT     0.417000        1.0080           0
   86577 WT5  4599 TIP3 H2   HT     0.417000        1.0080           0
   86578 WT5  4600 TIP3 OH2  OT    -0.834000       15.9994           0
   86579 WT5  4600 TIP3 H1   HT     0.417000        1.0080           0
   86580 WT5  4600 TIP3 H2   HT     0.417000        1.0080           0
   86581 WT5  4602 TIP3 OH2  OT    -0.834000       15.9994           0
   86582 WT5  4602 TIP3 H1   HT     0.417000        1.0080           0
   86583 WT5  4602 TIP3 H2   HT     0.417000        1.0080           0
   86584 WT5  4603 TIP3 OH2  OT    -0.834000       15.9994           0
   86585 WT5  4603 TIP3 H1   HT     0.417000        1.0080           0
   86586 WT5  4603 TIP3 H2   HT     0.417000        1.0080           0
   86587 WT5  4604 TIP3 OH2  OT    -0.834000       15.9994           0
   86588 WT5  4604 TIP3 H1   HT     0.417000        1.0080           0
   86589 WT5  4604 TIP3 H2   HT     0.417000        1.0080           0
   86590 WT5  4605 TIP3 OH2  OT    -0.834000       15.9994           0
   86591 WT5  4605 TIP3 H1   HT     0.417000        1.0080           0
   86592 WT5  4605 TIP3 H2   HT     0.417000        1.0080           0
   86593 WT5  4606 TIP3 OH2  OT    -0.834000       15.9994           0
   86594 WT5  4606 TIP3 H1   HT     0.417000        1.0080           0
   86595 WT5  4606 TIP3 H2   HT     0.417000        1.0080           0
   86596 WT5  4607 TIP3 OH2  OT    -0.834000       15.9994           0
   86597 WT5  4607 TIP3 H1   HT     0.417000        1.0080           0
   86598 WT5  4607 TIP3 H2   HT     0.417000        1.0080           0
   86599 WT5  4608 TIP3 OH2  OT    -0.834000       15.9994           0
   86600 WT5  4608 TIP3 H1   HT     0.417000        1.0080           0
   86601 WT5  4608 TIP3 H2   HT     0.417000        1.0080           0
   86602 WT5  4610 TIP3 OH2  OT    -0.834000       15.9994           0
   86603 WT5  4610 TIP3 H1   HT     0.417000        1.0080           0
   86604 WT5  4610 TIP3 H2   HT     0.417000        1.0080           0
   86605 WT5  4611 TIP3 OH2  OT    -0.834000       15.9994           0
   86606 WT5  4611 TIP3 H1   HT     0.417000        1.0080           0
   86607 WT5  4611 TIP3 H2   HT     0.417000        1.0080           0
   86608 WT5  4612 TIP3 OH2  OT    -0.834000       15.9994           0
   86609 WT5  4612 TIP3 H1   HT     0.417000        1.0080           0
   86610 WT5  4612 TIP3 H2   HT     0.417000        1.0080           0
   86611 WT5  4613 TIP3 OH2  OT    -0.834000       15.9994           0
   86612 WT5  4613 TIP3 H1   HT     0.417000        1.0080           0
   86613 WT5  4613 TIP3 H2   HT     0.417000        1.0080           0
   86614 WT5  4614 TIP3 OH2  OT    -0.834000       15.9994           0
   86615 WT5  4614 TIP3 H1   HT     0.417000        1.0080           0
   86616 WT5  4614 TIP3 H2   HT     0.417000        1.0080           0
   86617 WT5  4615 TIP3 OH2  OT    -0.834000       15.9994           0
   86618 WT5  4615 TIP3 H1   HT     0.417000        1.0080           0
   86619 WT5  4615 TIP3 H2   HT     0.417000        1.0080           0
   86620 WT5  4617 TIP3 OH2  OT    -0.834000       15.9994           0
   86621 WT5  4617 TIP3 H1   HT     0.417000        1.0080           0
   86622 WT5  4617 TIP3 H2   HT     0.417000        1.0080           0
   86623 WT5  4619 TIP3 OH2  OT    -0.834000       15.9994           0
   86624 WT5  4619 TIP3 H1   HT     0.417000        1.0080           0
   86625 WT5  4619 TIP3 H2   HT     0.417000        1.0080           0
   86626 WT5  4620 TIP3 OH2  OT    -0.834000       15.9994           0
   86627 WT5  4620 TIP3 H1   HT     0.417000        1.0080           0
   86628 WT5  4620 TIP3 H2   HT     0.417000        1.0080           0
   86629 WT5  4621 TIP3 OH2  OT    -0.834000       15.9994           0
   86630 WT5  4621 TIP3 H1   HT     0.417000        1.0080           0
   86631 WT5  4621 TIP3 H2   HT     0.417000        1.0080           0
   86632 WT5  4622 TIP3 OH2  OT    -0.834000       15.9994           0
   86633 WT5  4622 TIP3 H1   HT     0.417000        1.0080           0
   86634 WT5  4622 TIP3 H2   HT     0.417000        1.0080           0
   86635 WT5  4623 TIP3 OH2  OT    -0.834000       15.9994           0
   86636 WT5  4623 TIP3 H1   HT     0.417000        1.0080           0
   86637 WT5  4623 TIP3 H2   HT     0.417000        1.0080           0
   86638 WT5  4624 TIP3 OH2  OT    -0.834000       15.9994           0
   86639 WT5  4624 TIP3 H1   HT     0.417000        1.0080           0
   86640 WT5  4624 TIP3 H2   HT     0.417000        1.0080           0
   86641 WT5  4625 TIP3 OH2  OT    -0.834000       15.9994           0
   86642 WT5  4625 TIP3 H1   HT     0.417000        1.0080           0
   86643 WT5  4625 TIP3 H2   HT     0.417000        1.0080           0
   86644 WT5  4626 TIP3 OH2  OT    -0.834000       15.9994           0
   86645 WT5  4626 TIP3 H1   HT     0.417000        1.0080           0
   86646 WT5  4626 TIP3 H2   HT     0.417000        1.0080           0
   86647 WT5  4627 TIP3 OH2  OT    -0.834000       15.9994           0
   86648 WT5  4627 TIP3 H1   HT     0.417000        1.0080           0
   86649 WT5  4627 TIP3 H2   HT     0.417000        1.0080           0
   86650 WT5  4628 TIP3 OH2  OT    -0.834000       15.9994           0
   86651 WT5  4628 TIP3 H1   HT     0.417000        1.0080           0
   86652 WT5  4628 TIP3 H2   HT     0.417000        1.0080           0
   86653 WT5  4630 TIP3 OH2  OT    -0.834000       15.9994           0
   86654 WT5  4630 TIP3 H1   HT     0.417000        1.0080           0
   86655 WT5  4630 TIP3 H2   HT     0.417000        1.0080           0
   86656 WT5  4631 TIP3 OH2  OT    -0.834000       15.9994           0
   86657 WT5  4631 TIP3 H1   HT     0.417000        1.0080           0
   86658 WT5  4631 TIP3 H2   HT     0.417000        1.0080           0
   86659 WT5  4632 TIP3 OH2  OT    -0.834000       15.9994           0
   86660 WT5  4632 TIP3 H1   HT     0.417000        1.0080           0
   86661 WT5  4632 TIP3 H2   HT     0.417000        1.0080           0
   86662 WT5  4633 TIP3 OH2  OT    -0.834000       15.9994           0
   86663 WT5  4633 TIP3 H1   HT     0.417000        1.0080           0
   86664 WT5  4633 TIP3 H2   HT     0.417000        1.0080           0
   86665 WT5  4634 TIP3 OH2  OT    -0.834000       15.9994           0
   86666 WT5  4634 TIP3 H1   HT     0.417000        1.0080           0
   86667 WT5  4634 TIP3 H2   HT     0.417000        1.0080           0
   86668 WT5  4635 TIP3 OH2  OT    -0.834000       15.9994           0
   86669 WT5  4635 TIP3 H1   HT     0.417000        1.0080           0
   86670 WT5  4635 TIP3 H2   HT     0.417000        1.0080           0
   86671 WT5  4636 TIP3 OH2  OT    -0.834000       15.9994           0
   86672 WT5  4636 TIP3 H1   HT     0.417000        1.0080           0
   86673 WT5  4636 TIP3 H2   HT     0.417000        1.0080           0
   86674 WT5  4640 TIP3 OH2  OT    -0.834000       15.9994           0
   86675 WT5  4640 TIP3 H1   HT     0.417000        1.0080           0
   86676 WT5  4640 TIP3 H2   HT     0.417000        1.0080           0
   86677 WT5  4641 TIP3 OH2  OT    -0.834000       15.9994           0
   86678 WT5  4641 TIP3 H1   HT     0.417000        1.0080           0
   86679 WT5  4641 TIP3 H2   HT     0.417000        1.0080           0
   86680 WT5  4642 TIP3 OH2  OT    -0.834000       15.9994           0
   86681 WT5  4642 TIP3 H1   HT     0.417000        1.0080           0
   86682 WT5  4642 TIP3 H2   HT     0.417000        1.0080           0
   86683 WT5  4643 TIP3 OH2  OT    -0.834000       15.9994           0
   86684 WT5  4643 TIP3 H1   HT     0.417000        1.0080           0
   86685 WT5  4643 TIP3 H2   HT     0.417000        1.0080           0
   86686 WT5  4644 TIP3 OH2  OT    -0.834000       15.9994           0
   86687 WT5  4644 TIP3 H1   HT     0.417000        1.0080           0
   86688 WT5  4644 TIP3 H2   HT     0.417000        1.0080           0
   86689 WT5  4645 TIP3 OH2  OT    -0.834000       15.9994           0
   86690 WT5  4645 TIP3 H1   HT     0.417000        1.0080           0
   86691 WT5  4645 TIP3 H2   HT     0.417000        1.0080           0
   86692 WT5  4646 TIP3 OH2  OT    -0.834000       15.9994           0
   86693 WT5  4646 TIP3 H1   HT     0.417000        1.0080           0
   86694 WT5  4646 TIP3 H2   HT     0.417000        1.0080           0
   86695 WT5  4647 TIP3 OH2  OT    -0.834000       15.9994           0
   86696 WT5  4647 TIP3 H1   HT     0.417000        1.0080           0
   86697 WT5  4647 TIP3 H2   HT     0.417000        1.0080           0
   86698 WT5  4648 TIP3 OH2  OT    -0.834000       15.9994           0
   86699 WT5  4648 TIP3 H1   HT     0.417000        1.0080           0
   86700 WT5  4648 TIP3 H2   HT     0.417000        1.0080           0
   86701 WT5  4649 TIP3 OH2  OT    -0.834000       15.9994           0
   86702 WT5  4649 TIP3 H1   HT     0.417000        1.0080           0
   86703 WT5  4649 TIP3 H2   HT     0.417000        1.0080           0
   86704 WT5  4650 TIP3 OH2  OT    -0.834000       15.9994           0
   86705 WT5  4650 TIP3 H1   HT     0.417000        1.0080           0
   86706 WT5  4650 TIP3 H2   HT     0.417000        1.0080           0
   86707 WT5  4651 TIP3 OH2  OT    -0.834000       15.9994           0
   86708 WT5  4651 TIP3 H1   HT     0.417000        1.0080           0
   86709 WT5  4651 TIP3 H2   HT     0.417000        1.0080           0
   86710 WT5  4652 TIP3 OH2  OT    -0.834000       15.9994           0
   86711 WT5  4652 TIP3 H1   HT     0.417000        1.0080           0
   86712 WT5  4652 TIP3 H2   HT     0.417000        1.0080           0
   86713 WT5  4653 TIP3 OH2  OT    -0.834000       15.9994           0
   86714 WT5  4653 TIP3 H1   HT     0.417000        1.0080           0
   86715 WT5  4653 TIP3 H2   HT     0.417000        1.0080           0
   86716 WT5  4654 TIP3 OH2  OT    -0.834000       15.9994           0
   86717 WT5  4654 TIP3 H1   HT     0.417000        1.0080           0
   86718 WT5  4654 TIP3 H2   HT     0.417000        1.0080           0
   86719 WT5  4655 TIP3 OH2  OT    -0.834000       15.9994           0
   86720 WT5  4655 TIP3 H1   HT     0.417000        1.0080           0
   86721 WT5  4655 TIP3 H2   HT     0.417000        1.0080           0
   86722 WT5  4656 TIP3 OH2  OT    -0.834000       15.9994           0
   86723 WT5  4656 TIP3 H1   HT     0.417000        1.0080           0
   86724 WT5  4656 TIP3 H2   HT     0.417000        1.0080           0
   86725 WT5  4657 TIP3 OH2  OT    -0.834000       15.9994           0
   86726 WT5  4657 TIP3 H1   HT     0.417000        1.0080           0
   86727 WT5  4657 TIP3 H2   HT     0.417000        1.0080           0
   86728 WT5  4663 TIP3 OH2  OT    -0.834000       15.9994           0
   86729 WT5  4663 TIP3 H1   HT     0.417000        1.0080           0
   86730 WT5  4663 TIP3 H2   HT     0.417000        1.0080           0
   86731 WT5  4664 TIP3 OH2  OT    -0.834000       15.9994           0
   86732 WT5  4664 TIP3 H1   HT     0.417000        1.0080           0
   86733 WT5  4664 TIP3 H2   HT     0.417000        1.0080           0
   86734 WT5  4665 TIP3 OH2  OT    -0.834000       15.9994           0
   86735 WT5  4665 TIP3 H1   HT     0.417000        1.0080           0
   86736 WT5  4665 TIP3 H2   HT     0.417000        1.0080           0
   86737 WT5  4666 TIP3 OH2  OT    -0.834000       15.9994           0
   86738 WT5  4666 TIP3 H1   HT     0.417000        1.0080           0
   86739 WT5  4666 TIP3 H2   HT     0.417000        1.0080           0
   86740 WT5  4667 TIP3 OH2  OT    -0.834000       15.9994           0
   86741 WT5  4667 TIP3 H1   HT     0.417000        1.0080           0
   86742 WT5  4667 TIP3 H2   HT     0.417000        1.0080           0
   86743 WT5  4668 TIP3 OH2  OT    -0.834000       15.9994           0
   86744 WT5  4668 TIP3 H1   HT     0.417000        1.0080           0
   86745 WT5  4668 TIP3 H2   HT     0.417000        1.0080           0
   86746 WT5  4669 TIP3 OH2  OT    -0.834000       15.9994           0
   86747 WT5  4669 TIP3 H1   HT     0.417000        1.0080           0
   86748 WT5  4669 TIP3 H2   HT     0.417000        1.0080           0
   86749 WT5  4670 TIP3 OH2  OT    -0.834000       15.9994           0
   86750 WT5  4670 TIP3 H1   HT     0.417000        1.0080           0
   86751 WT5  4670 TIP3 H2   HT     0.417000        1.0080           0
   86752 WT5  4671 TIP3 OH2  OT    -0.834000       15.9994           0
   86753 WT5  4671 TIP3 H1   HT     0.417000        1.0080           0
   86754 WT5  4671 TIP3 H2   HT     0.417000        1.0080           0
   86755 WT5  4672 TIP3 OH2  OT    -0.834000       15.9994           0
   86756 WT5  4672 TIP3 H1   HT     0.417000        1.0080           0
   86757 WT5  4672 TIP3 H2   HT     0.417000        1.0080           0
   86758 WT5  4673 TIP3 OH2  OT    -0.834000       15.9994           0
   86759 WT5  4673 TIP3 H1   HT     0.417000        1.0080           0
   86760 WT5  4673 TIP3 H2   HT     0.417000        1.0080           0
   86761 WT5  4674 TIP3 OH2  OT    -0.834000       15.9994           0
   86762 WT5  4674 TIP3 H1   HT     0.417000        1.0080           0
   86763 WT5  4674 TIP3 H2   HT     0.417000        1.0080           0
   86764 WT5  4675 TIP3 OH2  OT    -0.834000       15.9994           0
   86765 WT5  4675 TIP3 H1   HT     0.417000        1.0080           0
   86766 WT5  4675 TIP3 H2   HT     0.417000        1.0080           0
   86767 WT5  4676 TIP3 OH2  OT    -0.834000       15.9994           0
   86768 WT5  4676 TIP3 H1   HT     0.417000        1.0080           0
   86769 WT5  4676 TIP3 H2   HT     0.417000        1.0080           0
   86770 WT5  4677 TIP3 OH2  OT    -0.834000       15.9994           0
   86771 WT5  4677 TIP3 H1   HT     0.417000        1.0080           0
   86772 WT5  4677 TIP3 H2   HT     0.417000        1.0080           0
   86773 WT5  4678 TIP3 OH2  OT    -0.834000       15.9994           0
   86774 WT5  4678 TIP3 H1   HT     0.417000        1.0080           0
   86775 WT5  4678 TIP3 H2   HT     0.417000        1.0080           0
   86776 WT5  4679 TIP3 OH2  OT    -0.834000       15.9994           0
   86777 WT5  4679 TIP3 H1   HT     0.417000        1.0080           0
   86778 WT5  4679 TIP3 H2   HT     0.417000        1.0080           0
   86779 WT5  4682 TIP3 OH2  OT    -0.834000       15.9994           0
   86780 WT5  4682 TIP3 H1   HT     0.417000        1.0080           0
   86781 WT5  4682 TIP3 H2   HT     0.417000        1.0080           0
   86782 WT5  4685 TIP3 OH2  OT    -0.834000       15.9994           0
   86783 WT5  4685 TIP3 H1   HT     0.417000        1.0080           0
   86784 WT5  4685 TIP3 H2   HT     0.417000        1.0080           0
   86785 WT5  4686 TIP3 OH2  OT    -0.834000       15.9994           0
   86786 WT5  4686 TIP3 H1   HT     0.417000        1.0080           0
   86787 WT5  4686 TIP3 H2   HT     0.417000        1.0080           0
   86788 WT5  4687 TIP3 OH2  OT    -0.834000       15.9994           0
   86789 WT5  4687 TIP3 H1   HT     0.417000        1.0080           0
   86790 WT5  4687 TIP3 H2   HT     0.417000        1.0080           0
   86791 WT5  4688 TIP3 OH2  OT    -0.834000       15.9994           0
   86792 WT5  4688 TIP3 H1   HT     0.417000        1.0080           0
   86793 WT5  4688 TIP3 H2   HT     0.417000        1.0080           0
   86794 WT5  4689 TIP3 OH2  OT    -0.834000       15.9994           0
   86795 WT5  4689 TIP3 H1   HT     0.417000        1.0080           0
   86796 WT5  4689 TIP3 H2   HT     0.417000        1.0080           0
   86797 WT5  4690 TIP3 OH2  OT    -0.834000       15.9994           0
   86798 WT5  4690 TIP3 H1   HT     0.417000        1.0080           0
   86799 WT5  4690 TIP3 H2   HT     0.417000        1.0080           0
   86800 WT5  4691 TIP3 OH2  OT    -0.834000       15.9994           0
   86801 WT5  4691 TIP3 H1   HT     0.417000        1.0080           0
   86802 WT5  4691 TIP3 H2   HT     0.417000        1.0080           0
   86803 WT5  4692 TIP3 OH2  OT    -0.834000       15.9994           0
   86804 WT5  4692 TIP3 H1   HT     0.417000        1.0080           0
   86805 WT5  4692 TIP3 H2   HT     0.417000        1.0080           0
   86806 WT5  4693 TIP3 OH2  OT    -0.834000       15.9994           0
   86807 WT5  4693 TIP3 H1   HT     0.417000        1.0080           0
   86808 WT5  4693 TIP3 H2   HT     0.417000        1.0080           0
   86809 WT5  4694 TIP3 OH2  OT    -0.834000       15.9994           0
   86810 WT5  4694 TIP3 H1   HT     0.417000        1.0080           0
   86811 WT5  4694 TIP3 H2   HT     0.417000        1.0080           0
   86812 WT5  4695 TIP3 OH2  OT    -0.834000       15.9994           0
   86813 WT5  4695 TIP3 H1   HT     0.417000        1.0080           0
   86814 WT5  4695 TIP3 H2   HT     0.417000        1.0080           0
   86815 WT5  4696 TIP3 OH2  OT    -0.834000       15.9994           0
   86816 WT5  4696 TIP3 H1   HT     0.417000        1.0080           0
   86817 WT5  4696 TIP3 H2   HT     0.417000        1.0080           0
   86818 WT5  4697 TIP3 OH2  OT    -0.834000       15.9994           0
   86819 WT5  4697 TIP3 H1   HT     0.417000        1.0080           0
   86820 WT5  4697 TIP3 H2   HT     0.417000        1.0080           0
   86821 WT5  4698 TIP3 OH2  OT    -0.834000       15.9994           0
   86822 WT5  4698 TIP3 H1   HT     0.417000        1.0080           0
   86823 WT5  4698 TIP3 H2   HT     0.417000        1.0080           0
   86824 WT5  4699 TIP3 OH2  OT    -0.834000       15.9994           0
   86825 WT5  4699 TIP3 H1   HT     0.417000        1.0080           0
   86826 WT5  4699 TIP3 H2   HT     0.417000        1.0080           0
   86827 WT5  4700 TIP3 OH2  OT    -0.834000       15.9994           0
   86828 WT5  4700 TIP3 H1   HT     0.417000        1.0080           0
   86829 WT5  4700 TIP3 H2   HT     0.417000        1.0080           0
   86830 WT5  4703 TIP3 OH2  OT    -0.834000       15.9994           0
   86831 WT5  4703 TIP3 H1   HT     0.417000        1.0080           0
   86832 WT5  4703 TIP3 H2   HT     0.417000        1.0080           0
   86833 WT5  4705 TIP3 OH2  OT    -0.834000       15.9994           0
   86834 WT5  4705 TIP3 H1   HT     0.417000        1.0080           0
   86835 WT5  4705 TIP3 H2   HT     0.417000        1.0080           0
   86836 WT5  4706 TIP3 OH2  OT    -0.834000       15.9994           0
   86837 WT5  4706 TIP3 H1   HT     0.417000        1.0080           0
   86838 WT5  4706 TIP3 H2   HT     0.417000        1.0080           0
   86839 WT5  4707 TIP3 OH2  OT    -0.834000       15.9994           0
   86840 WT5  4707 TIP3 H1   HT     0.417000        1.0080           0
   86841 WT5  4707 TIP3 H2   HT     0.417000        1.0080           0
   86842 WT5  4708 TIP3 OH2  OT    -0.834000       15.9994           0
   86843 WT5  4708 TIP3 H1   HT     0.417000        1.0080           0
   86844 WT5  4708 TIP3 H2   HT     0.417000        1.0080           0
   86845 WT5  4709 TIP3 OH2  OT    -0.834000       15.9994           0
   86846 WT5  4709 TIP3 H1   HT     0.417000        1.0080           0
   86847 WT5  4709 TIP3 H2   HT     0.417000        1.0080           0
   86848 WT5  4710 TIP3 OH2  OT    -0.834000       15.9994           0
   86849 WT5  4710 TIP3 H1   HT     0.417000        1.0080           0
   86850 WT5  4710 TIP3 H2   HT     0.417000        1.0080           0
   86851 WT5  4711 TIP3 OH2  OT    -0.834000       15.9994           0
   86852 WT5  4711 TIP3 H1   HT     0.417000        1.0080           0
   86853 WT5  4711 TIP3 H2   HT     0.417000        1.0080           0
   86854 WT5  4712 TIP3 OH2  OT    -0.834000       15.9994           0
   86855 WT5  4712 TIP3 H1   HT     0.417000        1.0080           0
   86856 WT5  4712 TIP3 H2   HT     0.417000        1.0080           0
   86857 WT5  4713 TIP3 OH2  OT    -0.834000       15.9994           0
   86858 WT5  4713 TIP3 H1   HT     0.417000        1.0080           0
   86859 WT5  4713 TIP3 H2   HT     0.417000        1.0080           0
   86860 WT5  4715 TIP3 OH2  OT    -0.834000       15.9994           0
   86861 WT5  4715 TIP3 H1   HT     0.417000        1.0080           0
   86862 WT5  4715 TIP3 H2   HT     0.417000        1.0080           0
   86863 WT5  4716 TIP3 OH2  OT    -0.834000       15.9994           0
   86864 WT5  4716 TIP3 H1   HT     0.417000        1.0080           0
   86865 WT5  4716 TIP3 H2   HT     0.417000        1.0080           0
   86866 WT5  4717 TIP3 OH2  OT    -0.834000       15.9994           0
   86867 WT5  4717 TIP3 H1   HT     0.417000        1.0080           0
   86868 WT5  4717 TIP3 H2   HT     0.417000        1.0080           0
   86869 WT5  4718 TIP3 OH2  OT    -0.834000       15.9994           0
   86870 WT5  4718 TIP3 H1   HT     0.417000        1.0080           0
   86871 WT5  4718 TIP3 H2   HT     0.417000        1.0080           0
   86872 WT5  4719 TIP3 OH2  OT    -0.834000       15.9994           0
   86873 WT5  4719 TIP3 H1   HT     0.417000        1.0080           0
   86874 WT5  4719 TIP3 H2   HT     0.417000        1.0080           0
   86875 WT5  4720 TIP3 OH2  OT    -0.834000       15.9994           0
   86876 WT5  4720 TIP3 H1   HT     0.417000        1.0080           0
   86877 WT5  4720 TIP3 H2   HT     0.417000        1.0080           0
   86878 WT5  4721 TIP3 OH2  OT    -0.834000       15.9994           0
   86879 WT5  4721 TIP3 H1   HT     0.417000        1.0080           0
   86880 WT5  4721 TIP3 H2   HT     0.417000        1.0080           0
   86881 WT5  4723 TIP3 OH2  OT    -0.834000       15.9994           0
   86882 WT5  4723 TIP3 H1   HT     0.417000        1.0080           0
   86883 WT5  4723 TIP3 H2   HT     0.417000        1.0080           0
   86884 WT5  4725 TIP3 OH2  OT    -0.834000       15.9994           0
   86885 WT5  4725 TIP3 H1   HT     0.417000        1.0080           0
   86886 WT5  4725 TIP3 H2   HT     0.417000        1.0080           0
   86887 WT5  4726 TIP3 OH2  OT    -0.834000       15.9994           0
   86888 WT5  4726 TIP3 H1   HT     0.417000        1.0080           0
   86889 WT5  4726 TIP3 H2   HT     0.417000        1.0080           0
   86890 WT5  4727 TIP3 OH2  OT    -0.834000       15.9994           0
   86891 WT5  4727 TIP3 H1   HT     0.417000        1.0080           0
   86892 WT5  4727 TIP3 H2   HT     0.417000        1.0080           0
   86893 WT5  4728 TIP3 OH2  OT    -0.834000       15.9994           0
   86894 WT5  4728 TIP3 H1   HT     0.417000        1.0080           0
   86895 WT5  4728 TIP3 H2   HT     0.417000        1.0080           0
   86896 WT5  4729 TIP3 OH2  OT    -0.834000       15.9994           0
   86897 WT5  4729 TIP3 H1   HT     0.417000        1.0080           0
   86898 WT5  4729 TIP3 H2   HT     0.417000        1.0080           0
   86899 WT5  4730 TIP3 OH2  OT    -0.834000       15.9994           0
   86900 WT5  4730 TIP3 H1   HT     0.417000        1.0080           0
   86901 WT5  4730 TIP3 H2   HT     0.417000        1.0080           0
   86902 WT5  4731 TIP3 OH2  OT    -0.834000       15.9994           0
   86903 WT5  4731 TIP3 H1   HT     0.417000        1.0080           0
   86904 WT5  4731 TIP3 H2   HT     0.417000        1.0080           0
   86905 WT5  4732 TIP3 OH2  OT    -0.834000       15.9994           0
   86906 WT5  4732 TIP3 H1   HT     0.417000        1.0080           0
   86907 WT5  4732 TIP3 H2   HT     0.417000        1.0080           0
   86908 WT5  4734 TIP3 OH2  OT    -0.834000       15.9994           0
   86909 WT5  4734 TIP3 H1   HT     0.417000        1.0080           0
   86910 WT5  4734 TIP3 H2   HT     0.417000        1.0080           0
   86911 WT5  4735 TIP3 OH2  OT    -0.834000       15.9994           0
   86912 WT5  4735 TIP3 H1   HT     0.417000        1.0080           0
   86913 WT5  4735 TIP3 H2   HT     0.417000        1.0080           0
   86914 WT5  4736 TIP3 OH2  OT    -0.834000       15.9994           0
   86915 WT5  4736 TIP3 H1   HT     0.417000        1.0080           0
   86916 WT5  4736 TIP3 H2   HT     0.417000        1.0080           0
   86917 WT5  4737 TIP3 OH2  OT    -0.834000       15.9994           0
   86918 WT5  4737 TIP3 H1   HT     0.417000        1.0080           0
   86919 WT5  4737 TIP3 H2   HT     0.417000        1.0080           0
   86920 WT5  4738 TIP3 OH2  OT    -0.834000       15.9994           0
   86921 WT5  4738 TIP3 H1   HT     0.417000        1.0080           0
   86922 WT5  4738 TIP3 H2   HT     0.417000        1.0080           0
   86923 WT5  4739 TIP3 OH2  OT    -0.834000       15.9994           0
   86924 WT5  4739 TIP3 H1   HT     0.417000        1.0080           0
   86925 WT5  4739 TIP3 H2   HT     0.417000        1.0080           0
   86926 WT5  4740 TIP3 OH2  OT    -0.834000       15.9994           0
   86927 WT5  4740 TIP3 H1   HT     0.417000        1.0080           0
   86928 WT5  4740 TIP3 H2   HT     0.417000        1.0080           0
   86929 WT5  4742 TIP3 OH2  OT    -0.834000       15.9994           0
   86930 WT5  4742 TIP3 H1   HT     0.417000        1.0080           0
   86931 WT5  4742 TIP3 H2   HT     0.417000        1.0080           0
   86932 WT5  4745 TIP3 OH2  OT    -0.834000       15.9994           0
   86933 WT5  4745 TIP3 H1   HT     0.417000        1.0080           0
   86934 WT5  4745 TIP3 H2   HT     0.417000        1.0080           0
   86935 WT5  4748 TIP3 OH2  OT    -0.834000       15.9994           0
   86936 WT5  4748 TIP3 H1   HT     0.417000        1.0080           0
   86937 WT5  4748 TIP3 H2   HT     0.417000        1.0080           0
   86938 WT5  4750 TIP3 OH2  OT    -0.834000       15.9994           0
   86939 WT5  4750 TIP3 H1   HT     0.417000        1.0080           0
   86940 WT5  4750 TIP3 H2   HT     0.417000        1.0080           0
   86941 WT5  4751 TIP3 OH2  OT    -0.834000       15.9994           0
   86942 WT5  4751 TIP3 H1   HT     0.417000        1.0080           0
   86943 WT5  4751 TIP3 H2   HT     0.417000        1.0080           0
   86944 WT5  4753 TIP3 OH2  OT    -0.834000       15.9994           0
   86945 WT5  4753 TIP3 H1   HT     0.417000        1.0080           0
   86946 WT5  4753 TIP3 H2   HT     0.417000        1.0080           0
   86947 WT5  4754 TIP3 OH2  OT    -0.834000       15.9994           0
   86948 WT5  4754 TIP3 H1   HT     0.417000        1.0080           0
   86949 WT5  4754 TIP3 H2   HT     0.417000        1.0080           0
   86950 WT5  4755 TIP3 OH2  OT    -0.834000       15.9994           0
   86951 WT5  4755 TIP3 H1   HT     0.417000        1.0080           0
   86952 WT5  4755 TIP3 H2   HT     0.417000        1.0080           0
   86953 WT5  4758 TIP3 OH2  OT    -0.834000       15.9994           0
   86954 WT5  4758 TIP3 H1   HT     0.417000        1.0080           0
   86955 WT5  4758 TIP3 H2   HT     0.417000        1.0080           0
   86956 WT5  4759 TIP3 OH2  OT    -0.834000       15.9994           0
   86957 WT5  4759 TIP3 H1   HT     0.417000        1.0080           0
   86958 WT5  4759 TIP3 H2   HT     0.417000        1.0080           0
   86959 WT5  4760 TIP3 OH2  OT    -0.834000       15.9994           0
   86960 WT5  4760 TIP3 H1   HT     0.417000        1.0080           0
   86961 WT5  4760 TIP3 H2   HT     0.417000        1.0080           0
   86962 WT5  4761 TIP3 OH2  OT    -0.834000       15.9994           0
   86963 WT5  4761 TIP3 H1   HT     0.417000        1.0080           0
   86964 WT5  4761 TIP3 H2   HT     0.417000        1.0080           0
   86965 WT5  4762 TIP3 OH2  OT    -0.834000       15.9994           0
   86966 WT5  4762 TIP3 H1   HT     0.417000        1.0080           0
   86967 WT5  4762 TIP3 H2   HT     0.417000        1.0080           0
   86968 WT5  4763 TIP3 OH2  OT    -0.834000       15.9994           0
   86969 WT5  4763 TIP3 H1   HT     0.417000        1.0080           0
   86970 WT5  4763 TIP3 H2   HT     0.417000        1.0080           0
   86971 WT5  4765 TIP3 OH2  OT    -0.834000       15.9994           0
   86972 WT5  4765 TIP3 H1   HT     0.417000        1.0080           0
   86973 WT5  4765 TIP3 H2   HT     0.417000        1.0080           0
   86974 WT5  4767 TIP3 OH2  OT    -0.834000       15.9994           0
   86975 WT5  4767 TIP3 H1   HT     0.417000        1.0080           0
   86976 WT5  4767 TIP3 H2   HT     0.417000        1.0080           0
   86977 WT5  4768 TIP3 OH2  OT    -0.834000       15.9994           0
   86978 WT5  4768 TIP3 H1   HT     0.417000        1.0080           0
   86979 WT5  4768 TIP3 H2   HT     0.417000        1.0080           0
   86980 WT5  4769 TIP3 OH2  OT    -0.834000       15.9994           0
   86981 WT5  4769 TIP3 H1   HT     0.417000        1.0080           0
   86982 WT5  4769 TIP3 H2   HT     0.417000        1.0080           0
   86983 WT5  4770 TIP3 OH2  OT    -0.834000       15.9994           0
   86984 WT5  4770 TIP3 H1   HT     0.417000        1.0080           0
   86985 WT5  4770 TIP3 H2   HT     0.417000        1.0080           0
   86986 WT5  4771 TIP3 OH2  OT    -0.834000       15.9994           0
   86987 WT5  4771 TIP3 H1   HT     0.417000        1.0080           0
   86988 WT5  4771 TIP3 H2   HT     0.417000        1.0080           0
   86989 WT5  4772 TIP3 OH2  OT    -0.834000       15.9994           0
   86990 WT5  4772 TIP3 H1   HT     0.417000        1.0080           0
   86991 WT5  4772 TIP3 H2   HT     0.417000        1.0080           0
   86992 WT5  4773 TIP3 OH2  OT    -0.834000       15.9994           0
   86993 WT5  4773 TIP3 H1   HT     0.417000        1.0080           0
   86994 WT5  4773 TIP3 H2   HT     0.417000        1.0080           0
   86995 WT5  4774 TIP3 OH2  OT    -0.834000       15.9994           0
   86996 WT5  4774 TIP3 H1   HT     0.417000        1.0080           0
   86997 WT5  4774 TIP3 H2   HT     0.417000        1.0080           0
   86998 WT5  4775 TIP3 OH2  OT    -0.834000       15.9994           0
   86999 WT5  4775 TIP3 H1   HT     0.417000        1.0080           0
   87000 WT5  4775 TIP3 H2   HT     0.417000        1.0080           0
   87001 WT5  4776 TIP3 OH2  OT    -0.834000       15.9994           0
   87002 WT5  4776 TIP3 H1   HT     0.417000        1.0080           0
   87003 WT5  4776 TIP3 H2   HT     0.417000        1.0080           0
   87004 WT5  4777 TIP3 OH2  OT    -0.834000       15.9994           0
   87005 WT5  4777 TIP3 H1   HT     0.417000        1.0080           0
   87006 WT5  4777 TIP3 H2   HT     0.417000        1.0080           0
   87007 WT5  4778 TIP3 OH2  OT    -0.834000       15.9994           0
   87008 WT5  4778 TIP3 H1   HT     0.417000        1.0080           0
   87009 WT5  4778 TIP3 H2   HT     0.417000        1.0080           0
   87010 WT5  4779 TIP3 OH2  OT    -0.834000       15.9994           0
   87011 WT5  4779 TIP3 H1   HT     0.417000        1.0080           0
   87012 WT5  4779 TIP3 H2   HT     0.417000        1.0080           0
   87013 WT5  4780 TIP3 OH2  OT    -0.834000       15.9994           0
   87014 WT5  4780 TIP3 H1   HT     0.417000        1.0080           0
   87015 WT5  4780 TIP3 H2   HT     0.417000        1.0080           0
   87016 WT5  4782 TIP3 OH2  OT    -0.834000       15.9994           0
   87017 WT5  4782 TIP3 H1   HT     0.417000        1.0080           0
   87018 WT5  4782 TIP3 H2   HT     0.417000        1.0080           0
   87019 WT5  4784 TIP3 OH2  OT    -0.834000       15.9994           0
   87020 WT5  4784 TIP3 H1   HT     0.417000        1.0080           0
   87021 WT5  4784 TIP3 H2   HT     0.417000        1.0080           0
   87022 WT5  4785 TIP3 OH2  OT    -0.834000       15.9994           0
   87023 WT5  4785 TIP3 H1   HT     0.417000        1.0080           0
   87024 WT5  4785 TIP3 H2   HT     0.417000        1.0080           0
   87025 WT5  4787 TIP3 OH2  OT    -0.834000       15.9994           0
   87026 WT5  4787 TIP3 H1   HT     0.417000        1.0080           0
   87027 WT5  4787 TIP3 H2   HT     0.417000        1.0080           0
   87028 WT5  4788 TIP3 OH2  OT    -0.834000       15.9994           0
   87029 WT5  4788 TIP3 H1   HT     0.417000        1.0080           0
   87030 WT5  4788 TIP3 H2   HT     0.417000        1.0080           0
   87031 WT5  4790 TIP3 OH2  OT    -0.834000       15.9994           0
   87032 WT5  4790 TIP3 H1   HT     0.417000        1.0080           0
   87033 WT5  4790 TIP3 H2   HT     0.417000        1.0080           0
   87034 WT5  4791 TIP3 OH2  OT    -0.834000       15.9994           0
   87035 WT5  4791 TIP3 H1   HT     0.417000        1.0080           0
   87036 WT5  4791 TIP3 H2   HT     0.417000        1.0080           0
   87037 WT5  4792 TIP3 OH2  OT    -0.834000       15.9994           0
   87038 WT5  4792 TIP3 H1   HT     0.417000        1.0080           0
   87039 WT5  4792 TIP3 H2   HT     0.417000        1.0080           0
   87040 WT5  4793 TIP3 OH2  OT    -0.834000       15.9994           0
   87041 WT5  4793 TIP3 H1   HT     0.417000        1.0080           0
   87042 WT5  4793 TIP3 H2   HT     0.417000        1.0080           0
   87043 WT5  4794 TIP3 OH2  OT    -0.834000       15.9994           0
   87044 WT5  4794 TIP3 H1   HT     0.417000        1.0080           0
   87045 WT5  4794 TIP3 H2   HT     0.417000        1.0080           0
   87046 WT5  4795 TIP3 OH2  OT    -0.834000       15.9994           0
   87047 WT5  4795 TIP3 H1   HT     0.417000        1.0080           0
   87048 WT5  4795 TIP3 H2   HT     0.417000        1.0080           0
   87049 WT5  4796 TIP3 OH2  OT    -0.834000       15.9994           0
   87050 WT5  4796 TIP3 H1   HT     0.417000        1.0080           0
   87051 WT5  4796 TIP3 H2   HT     0.417000        1.0080           0
   87052 WT5  4797 TIP3 OH2  OT    -0.834000       15.9994           0
   87053 WT5  4797 TIP3 H1   HT     0.417000        1.0080           0
   87054 WT5  4797 TIP3 H2   HT     0.417000        1.0080           0
   87055 WT5  4798 TIP3 OH2  OT    -0.834000       15.9994           0
   87056 WT5  4798 TIP3 H1   HT     0.417000        1.0080           0
   87057 WT5  4798 TIP3 H2   HT     0.417000        1.0080           0
   87058 WT5  4800 TIP3 OH2  OT    -0.834000       15.9994           0
   87059 WT5  4800 TIP3 H1   HT     0.417000        1.0080           0
   87060 WT5  4800 TIP3 H2   HT     0.417000        1.0080           0
   87061 WT5  4801 TIP3 OH2  OT    -0.834000       15.9994           0
   87062 WT5  4801 TIP3 H1   HT     0.417000        1.0080           0
   87063 WT5  4801 TIP3 H2   HT     0.417000        1.0080           0
   87064 WT5  4803 TIP3 OH2  OT    -0.834000       15.9994           0
   87065 WT5  4803 TIP3 H1   HT     0.417000        1.0080           0
   87066 WT5  4803 TIP3 H2   HT     0.417000        1.0080           0
   87067 WT5  4804 TIP3 OH2  OT    -0.834000       15.9994           0
   87068 WT5  4804 TIP3 H1   HT     0.417000        1.0080           0
   87069 WT5  4804 TIP3 H2   HT     0.417000        1.0080           0
   87070 WT5  4805 TIP3 OH2  OT    -0.834000       15.9994           0
   87071 WT5  4805 TIP3 H1   HT     0.417000        1.0080           0
   87072 WT5  4805 TIP3 H2   HT     0.417000        1.0080           0
   87073 WT5  4806 TIP3 OH2  OT    -0.834000       15.9994           0
   87074 WT5  4806 TIP3 H1   HT     0.417000        1.0080           0
   87075 WT5  4806 TIP3 H2   HT     0.417000        1.0080           0
   87076 WT5  4808 TIP3 OH2  OT    -0.834000       15.9994           0
   87077 WT5  4808 TIP3 H1   HT     0.417000        1.0080           0
   87078 WT5  4808 TIP3 H2   HT     0.417000        1.0080           0
   87079 WT5  4809 TIP3 OH2  OT    -0.834000       15.9994           0
   87080 WT5  4809 TIP3 H1   HT     0.417000        1.0080           0
   87081 WT5  4809 TIP3 H2   HT     0.417000        1.0080           0
   87082 WT5  4810 TIP3 OH2  OT    -0.834000       15.9994           0
   87083 WT5  4810 TIP3 H1   HT     0.417000        1.0080           0
   87084 WT5  4810 TIP3 H2   HT     0.417000        1.0080           0
   87085 WT5  4812 TIP3 OH2  OT    -0.834000       15.9994           0
   87086 WT5  4812 TIP3 H1   HT     0.417000        1.0080           0
   87087 WT5  4812 TIP3 H2   HT     0.417000        1.0080           0
   87088 WT5  4813 TIP3 OH2  OT    -0.834000       15.9994           0
   87089 WT5  4813 TIP3 H1   HT     0.417000        1.0080           0
   87090 WT5  4813 TIP3 H2   HT     0.417000        1.0080           0
   87091 WT5  4814 TIP3 OH2  OT    -0.834000       15.9994           0
   87092 WT5  4814 TIP3 H1   HT     0.417000        1.0080           0
   87093 WT5  4814 TIP3 H2   HT     0.417000        1.0080           0
   87094 WT5  4815 TIP3 OH2  OT    -0.834000       15.9994           0
   87095 WT5  4815 TIP3 H1   HT     0.417000        1.0080           0
   87096 WT5  4815 TIP3 H2   HT     0.417000        1.0080           0
   87097 WT5  4816 TIP3 OH2  OT    -0.834000       15.9994           0
   87098 WT5  4816 TIP3 H1   HT     0.417000        1.0080           0
   87099 WT5  4816 TIP3 H2   HT     0.417000        1.0080           0
   87100 WT5  4817 TIP3 OH2  OT    -0.834000       15.9994           0
   87101 WT5  4817 TIP3 H1   HT     0.417000        1.0080           0
   87102 WT5  4817 TIP3 H2   HT     0.417000        1.0080           0
   87103 WT5  4818 TIP3 OH2  OT    -0.834000       15.9994           0
   87104 WT5  4818 TIP3 H1   HT     0.417000        1.0080           0
   87105 WT5  4818 TIP3 H2   HT     0.417000        1.0080           0
   87106 WT5  4819 TIP3 OH2  OT    -0.834000       15.9994           0
   87107 WT5  4819 TIP3 H1   HT     0.417000        1.0080           0
   87108 WT5  4819 TIP3 H2   HT     0.417000        1.0080           0
   87109 WT5  4820 TIP3 OH2  OT    -0.834000       15.9994           0
   87110 WT5  4820 TIP3 H1   HT     0.417000        1.0080           0
   87111 WT5  4820 TIP3 H2   HT     0.417000        1.0080           0
   87112 WT5  4821 TIP3 OH2  OT    -0.834000       15.9994           0
   87113 WT5  4821 TIP3 H1   HT     0.417000        1.0080           0
   87114 WT5  4821 TIP3 H2   HT     0.417000        1.0080           0
   87115 WT5  4822 TIP3 OH2  OT    -0.834000       15.9994           0
   87116 WT5  4822 TIP3 H1   HT     0.417000        1.0080           0
   87117 WT5  4822 TIP3 H2   HT     0.417000        1.0080           0
   87118 WT5  4823 TIP3 OH2  OT    -0.834000       15.9994           0
   87119 WT5  4823 TIP3 H1   HT     0.417000        1.0080           0
   87120 WT5  4823 TIP3 H2   HT     0.417000        1.0080           0
   87121 WT5  4824 TIP3 OH2  OT    -0.834000       15.9994           0
   87122 WT5  4824 TIP3 H1   HT     0.417000        1.0080           0
   87123 WT5  4824 TIP3 H2   HT     0.417000        1.0080           0
   87124 WT5  4825 TIP3 OH2  OT    -0.834000       15.9994           0
   87125 WT5  4825 TIP3 H1   HT     0.417000        1.0080           0
   87126 WT5  4825 TIP3 H2   HT     0.417000        1.0080           0
   87127 WT5  4827 TIP3 OH2  OT    -0.834000       15.9994           0
   87128 WT5  4827 TIP3 H1   HT     0.417000        1.0080           0
   87129 WT5  4827 TIP3 H2   HT     0.417000        1.0080           0
   87130 WT5  4830 TIP3 OH2  OT    -0.834000       15.9994           0
   87131 WT5  4830 TIP3 H1   HT     0.417000        1.0080           0
   87132 WT5  4830 TIP3 H2   HT     0.417000        1.0080           0
   87133 WT5  4831 TIP3 OH2  OT    -0.834000       15.9994           0
   87134 WT5  4831 TIP3 H1   HT     0.417000        1.0080           0
   87135 WT5  4831 TIP3 H2   HT     0.417000        1.0080           0
   87136 WT5  4832 TIP3 OH2  OT    -0.834000       15.9994           0
   87137 WT5  4832 TIP3 H1   HT     0.417000        1.0080           0
   87138 WT5  4832 TIP3 H2   HT     0.417000        1.0080           0
   87139 WT5  4833 TIP3 OH2  OT    -0.834000       15.9994           0
   87140 WT5  4833 TIP3 H1   HT     0.417000        1.0080           0
   87141 WT5  4833 TIP3 H2   HT     0.417000        1.0080           0
   87142 WT5  4834 TIP3 OH2  OT    -0.834000       15.9994           0
   87143 WT5  4834 TIP3 H1   HT     0.417000        1.0080           0
   87144 WT5  4834 TIP3 H2   HT     0.417000        1.0080           0
   87145 WT5  4835 TIP3 OH2  OT    -0.834000       15.9994           0
   87146 WT5  4835 TIP3 H1   HT     0.417000        1.0080           0
   87147 WT5  4835 TIP3 H2   HT     0.417000        1.0080           0
   87148 WT5  4836 TIP3 OH2  OT    -0.834000       15.9994           0
   87149 WT5  4836 TIP3 H1   HT     0.417000        1.0080           0
   87150 WT5  4836 TIP3 H2   HT     0.417000        1.0080           0
   87151 WT5  4837 TIP3 OH2  OT    -0.834000       15.9994           0
   87152 WT5  4837 TIP3 H1   HT     0.417000        1.0080           0
   87153 WT5  4837 TIP3 H2   HT     0.417000        1.0080           0
   87154 WT5  4838 TIP3 OH2  OT    -0.834000       15.9994           0
   87155 WT5  4838 TIP3 H1   HT     0.417000        1.0080           0
   87156 WT5  4838 TIP3 H2   HT     0.417000        1.0080           0
   87157 WT5  4839 TIP3 OH2  OT    -0.834000       15.9994           0
   87158 WT5  4839 TIP3 H1   HT     0.417000        1.0080           0
   87159 WT5  4839 TIP3 H2   HT     0.417000        1.0080           0
   87160 WT5  4840 TIP3 OH2  OT    -0.834000       15.9994           0
   87161 WT5  4840 TIP3 H1   HT     0.417000        1.0080           0
   87162 WT5  4840 TIP3 H2   HT     0.417000        1.0080           0
   87163 WT5  4841 TIP3 OH2  OT    -0.834000       15.9994           0
   87164 WT5  4841 TIP3 H1   HT     0.417000        1.0080           0
   87165 WT5  4841 TIP3 H2   HT     0.417000        1.0080           0
   87166 WT5  4842 TIP3 OH2  OT    -0.834000       15.9994           0
   87167 WT5  4842 TIP3 H1   HT     0.417000        1.0080           0
   87168 WT5  4842 TIP3 H2   HT     0.417000        1.0080           0
   87169 WT5  4843 TIP3 OH2  OT    -0.834000       15.9994           0
   87170 WT5  4843 TIP3 H1   HT     0.417000        1.0080           0
   87171 WT5  4843 TIP3 H2   HT     0.417000        1.0080           0
   87172 WT5  4844 TIP3 OH2  OT    -0.834000       15.9994           0
   87173 WT5  4844 TIP3 H1   HT     0.417000        1.0080           0
   87174 WT5  4844 TIP3 H2   HT     0.417000        1.0080           0
   87175 WT5  4845 TIP3 OH2  OT    -0.834000       15.9994           0
   87176 WT5  4845 TIP3 H1   HT     0.417000        1.0080           0
   87177 WT5  4845 TIP3 H2   HT     0.417000        1.0080           0
   87178 WT5  4846 TIP3 OH2  OT    -0.834000       15.9994           0
   87179 WT5  4846 TIP3 H1   HT     0.417000        1.0080           0
   87180 WT5  4846 TIP3 H2   HT     0.417000        1.0080           0
   87181 WT5  4848 TIP3 OH2  OT    -0.834000       15.9994           0
   87182 WT5  4848 TIP3 H1   HT     0.417000        1.0080           0
   87183 WT5  4848 TIP3 H2   HT     0.417000        1.0080           0
   87184 WT5  4849 TIP3 OH2  OT    -0.834000       15.9994           0
   87185 WT5  4849 TIP3 H1   HT     0.417000        1.0080           0
   87186 WT5  4849 TIP3 H2   HT     0.417000        1.0080           0
   87187 WT5  4851 TIP3 OH2  OT    -0.834000       15.9994           0
   87188 WT5  4851 TIP3 H1   HT     0.417000        1.0080           0
   87189 WT5  4851 TIP3 H2   HT     0.417000        1.0080           0
   87190 WT5  4852 TIP3 OH2  OT    -0.834000       15.9994           0
   87191 WT5  4852 TIP3 H1   HT     0.417000        1.0080           0
   87192 WT5  4852 TIP3 H2   HT     0.417000        1.0080           0
   87193 WT5  4853 TIP3 OH2  OT    -0.834000       15.9994           0
   87194 WT5  4853 TIP3 H1   HT     0.417000        1.0080           0
   87195 WT5  4853 TIP3 H2   HT     0.417000        1.0080           0
   87196 WT5  4854 TIP3 OH2  OT    -0.834000       15.9994           0
   87197 WT5  4854 TIP3 H1   HT     0.417000        1.0080           0
   87198 WT5  4854 TIP3 H2   HT     0.417000        1.0080           0
   87199 WT5  4855 TIP3 OH2  OT    -0.834000       15.9994           0
   87200 WT5  4855 TIP3 H1   HT     0.417000        1.0080           0
   87201 WT5  4855 TIP3 H2   HT     0.417000        1.0080           0
   87202 WT5  4856 TIP3 OH2  OT    -0.834000       15.9994           0
   87203 WT5  4856 TIP3 H1   HT     0.417000        1.0080           0
   87204 WT5  4856 TIP3 H2   HT     0.417000        1.0080           0
   87205 WT5  4857 TIP3 OH2  OT    -0.834000       15.9994           0
   87206 WT5  4857 TIP3 H1   HT     0.417000        1.0080           0
   87207 WT5  4857 TIP3 H2   HT     0.417000        1.0080           0
   87208 WT5  4859 TIP3 OH2  OT    -0.834000       15.9994           0
   87209 WT5  4859 TIP3 H1   HT     0.417000        1.0080           0
   87210 WT5  4859 TIP3 H2   HT     0.417000        1.0080           0
   87211 WT5  4860 TIP3 OH2  OT    -0.834000       15.9994           0
   87212 WT5  4860 TIP3 H1   HT     0.417000        1.0080           0
   87213 WT5  4860 TIP3 H2   HT     0.417000        1.0080           0
   87214 WT5  4861 TIP3 OH2  OT    -0.834000       15.9994           0
   87215 WT5  4861 TIP3 H1   HT     0.417000        1.0080           0
   87216 WT5  4861 TIP3 H2   HT     0.417000        1.0080           0
   87217 WT5  4862 TIP3 OH2  OT    -0.834000       15.9994           0
   87218 WT5  4862 TIP3 H1   HT     0.417000        1.0080           0
   87219 WT5  4862 TIP3 H2   HT     0.417000        1.0080           0
   87220 WT5  4863 TIP3 OH2  OT    -0.834000       15.9994           0
   87221 WT5  4863 TIP3 H1   HT     0.417000        1.0080           0
   87222 WT5  4863 TIP3 H2   HT     0.417000        1.0080           0
   87223 WT5  4864 TIP3 OH2  OT    -0.834000       15.9994           0
   87224 WT5  4864 TIP3 H1   HT     0.417000        1.0080           0
   87225 WT5  4864 TIP3 H2   HT     0.417000        1.0080           0
   87226 WT5  4865 TIP3 OH2  OT    -0.834000       15.9994           0
   87227 WT5  4865 TIP3 H1   HT     0.417000        1.0080           0
   87228 WT5  4865 TIP3 H2   HT     0.417000        1.0080           0
   87229 WT5  4866 TIP3 OH2  OT    -0.834000       15.9994           0
   87230 WT5  4866 TIP3 H1   HT     0.417000        1.0080           0
   87231 WT5  4866 TIP3 H2   HT     0.417000        1.0080           0
   87232 WT5  4867 TIP3 OH2  OT    -0.834000       15.9994           0
   87233 WT5  4867 TIP3 H1   HT     0.417000        1.0080           0
   87234 WT5  4867 TIP3 H2   HT     0.417000        1.0080           0
   87235 WT5  4872 TIP3 OH2  OT    -0.834000       15.9994           0
   87236 WT5  4872 TIP3 H1   HT     0.417000        1.0080           0
   87237 WT5  4872 TIP3 H2   HT     0.417000        1.0080           0
   87238 WT5  4873 TIP3 OH2  OT    -0.834000       15.9994           0
   87239 WT5  4873 TIP3 H1   HT     0.417000        1.0080           0
   87240 WT5  4873 TIP3 H2   HT     0.417000        1.0080           0
   87241 WT5  4875 TIP3 OH2  OT    -0.834000       15.9994           0
   87242 WT5  4875 TIP3 H1   HT     0.417000        1.0080           0
   87243 WT5  4875 TIP3 H2   HT     0.417000        1.0080           0
   87244 WT5  4876 TIP3 OH2  OT    -0.834000       15.9994           0
   87245 WT5  4876 TIP3 H1   HT     0.417000        1.0080           0
   87246 WT5  4876 TIP3 H2   HT     0.417000        1.0080           0
   87247 WT5  4878 TIP3 OH2  OT    -0.834000       15.9994           0
   87248 WT5  4878 TIP3 H1   HT     0.417000        1.0080           0
   87249 WT5  4878 TIP3 H2   HT     0.417000        1.0080           0
   87250 WT5  4879 TIP3 OH2  OT    -0.834000       15.9994           0
   87251 WT5  4879 TIP3 H1   HT     0.417000        1.0080           0
   87252 WT5  4879 TIP3 H2   HT     0.417000        1.0080           0
   87253 WT5  4880 TIP3 OH2  OT    -0.834000       15.9994           0
   87254 WT5  4880 TIP3 H1   HT     0.417000        1.0080           0
   87255 WT5  4880 TIP3 H2   HT     0.417000        1.0080           0
   87256 WT5  4881 TIP3 OH2  OT    -0.834000       15.9994           0
   87257 WT5  4881 TIP3 H1   HT     0.417000        1.0080           0
   87258 WT5  4881 TIP3 H2   HT     0.417000        1.0080           0
   87259 WT5  4882 TIP3 OH2  OT    -0.834000       15.9994           0
   87260 WT5  4882 TIP3 H1   HT     0.417000        1.0080           0
   87261 WT5  4882 TIP3 H2   HT     0.417000        1.0080           0
   87262 WT5  4883 TIP3 OH2  OT    -0.834000       15.9994           0
   87263 WT5  4883 TIP3 H1   HT     0.417000        1.0080           0
   87264 WT5  4883 TIP3 H2   HT     0.417000        1.0080           0
   87265 WT5  4884 TIP3 OH2  OT    -0.834000       15.9994           0
   87266 WT5  4884 TIP3 H1   HT     0.417000        1.0080           0
   87267 WT5  4884 TIP3 H2   HT     0.417000        1.0080           0
   87268 WT5  4885 TIP3 OH2  OT    -0.834000       15.9994           0
   87269 WT5  4885 TIP3 H1   HT     0.417000        1.0080           0
   87270 WT5  4885 TIP3 H2   HT     0.417000        1.0080           0
   87271 WT5  4886 TIP3 OH2  OT    -0.834000       15.9994           0
   87272 WT5  4886 TIP3 H1   HT     0.417000        1.0080           0
   87273 WT5  4886 TIP3 H2   HT     0.417000        1.0080           0
   87274 WT5  4887 TIP3 OH2  OT    -0.834000       15.9994           0
   87275 WT5  4887 TIP3 H1   HT     0.417000        1.0080           0
   87276 WT5  4887 TIP3 H2   HT     0.417000        1.0080           0
   87277 WT5  4889 TIP3 OH2  OT    -0.834000       15.9994           0
   87278 WT5  4889 TIP3 H1   HT     0.417000        1.0080           0
   87279 WT5  4889 TIP3 H2   HT     0.417000        1.0080           0
   87280 WT5  4890 TIP3 OH2  OT    -0.834000       15.9994           0
   87281 WT5  4890 TIP3 H1   HT     0.417000        1.0080           0
   87282 WT5  4890 TIP3 H2   HT     0.417000        1.0080           0
   87283 WT5  4892 TIP3 OH2  OT    -0.834000       15.9994           0
   87284 WT5  4892 TIP3 H1   HT     0.417000        1.0080           0
   87285 WT5  4892 TIP3 H2   HT     0.417000        1.0080           0
   87286 WT5  4893 TIP3 OH2  OT    -0.834000       15.9994           0
   87287 WT5  4893 TIP3 H1   HT     0.417000        1.0080           0
   87288 WT5  4893 TIP3 H2   HT     0.417000        1.0080           0
   87289 WT5  4894 TIP3 OH2  OT    -0.834000       15.9994           0
   87290 WT5  4894 TIP3 H1   HT     0.417000        1.0080           0
   87291 WT5  4894 TIP3 H2   HT     0.417000        1.0080           0
   87292 WT5  4895 TIP3 OH2  OT    -0.834000       15.9994           0
   87293 WT5  4895 TIP3 H1   HT     0.417000        1.0080           0
   87294 WT5  4895 TIP3 H2   HT     0.417000        1.0080           0
   87295 WT5  4896 TIP3 OH2  OT    -0.834000       15.9994           0
   87296 WT5  4896 TIP3 H1   HT     0.417000        1.0080           0
   87297 WT5  4896 TIP3 H2   HT     0.417000        1.0080           0
   87298 WT5  4897 TIP3 OH2  OT    -0.834000       15.9994           0
   87299 WT5  4897 TIP3 H1   HT     0.417000        1.0080           0
   87300 WT5  4897 TIP3 H2   HT     0.417000        1.0080           0
   87301 WT5  4899 TIP3 OH2  OT    -0.834000       15.9994           0
   87302 WT5  4899 TIP3 H1   HT     0.417000        1.0080           0
   87303 WT5  4899 TIP3 H2   HT     0.417000        1.0080           0
   87304 WT5  4900 TIP3 OH2  OT    -0.834000       15.9994           0
   87305 WT5  4900 TIP3 H1   HT     0.417000        1.0080           0
   87306 WT5  4900 TIP3 H2   HT     0.417000        1.0080           0
   87307 WT5  4901 TIP3 OH2  OT    -0.834000       15.9994           0
   87308 WT5  4901 TIP3 H1   HT     0.417000        1.0080           0
   87309 WT5  4901 TIP3 H2   HT     0.417000        1.0080           0
   87310 WT5  4902 TIP3 OH2  OT    -0.834000       15.9994           0
   87311 WT5  4902 TIP3 H1   HT     0.417000        1.0080           0
   87312 WT5  4902 TIP3 H2   HT     0.417000        1.0080           0
   87313 WT5  4903 TIP3 OH2  OT    -0.834000       15.9994           0
   87314 WT5  4903 TIP3 H1   HT     0.417000        1.0080           0
   87315 WT5  4903 TIP3 H2   HT     0.417000        1.0080           0
   87316 WT5  4904 TIP3 OH2  OT    -0.834000       15.9994           0
   87317 WT5  4904 TIP3 H1   HT     0.417000        1.0080           0
   87318 WT5  4904 TIP3 H2   HT     0.417000        1.0080           0
   87319 WT5  4905 TIP3 OH2  OT    -0.834000       15.9994           0
   87320 WT5  4905 TIP3 H1   HT     0.417000        1.0080           0
   87321 WT5  4905 TIP3 H2   HT     0.417000        1.0080           0
   87322 WT5  4907 TIP3 OH2  OT    -0.834000       15.9994           0
   87323 WT5  4907 TIP3 H1   HT     0.417000        1.0080           0
   87324 WT5  4907 TIP3 H2   HT     0.417000        1.0080           0
   87325 WT5  4908 TIP3 OH2  OT    -0.834000       15.9994           0
   87326 WT5  4908 TIP3 H1   HT     0.417000        1.0080           0
   87327 WT5  4908 TIP3 H2   HT     0.417000        1.0080           0
   87328 WT5  4909 TIP3 OH2  OT    -0.834000       15.9994           0
   87329 WT5  4909 TIP3 H1   HT     0.417000        1.0080           0
   87330 WT5  4909 TIP3 H2   HT     0.417000        1.0080           0
   87331 WT5  4911 TIP3 OH2  OT    -0.834000       15.9994           0
   87332 WT5  4911 TIP3 H1   HT     0.417000        1.0080           0
   87333 WT5  4911 TIP3 H2   HT     0.417000        1.0080           0
   87334 WT5  4912 TIP3 OH2  OT    -0.834000       15.9994           0
   87335 WT5  4912 TIP3 H1   HT     0.417000        1.0080           0
   87336 WT5  4912 TIP3 H2   HT     0.417000        1.0080           0
   87337 WT5  4913 TIP3 OH2  OT    -0.834000       15.9994           0
   87338 WT5  4913 TIP3 H1   HT     0.417000        1.0080           0
   87339 WT5  4913 TIP3 H2   HT     0.417000        1.0080           0
   87340 WT5  4914 TIP3 OH2  OT    -0.834000       15.9994           0
   87341 WT5  4914 TIP3 H1   HT     0.417000        1.0080           0
   87342 WT5  4914 TIP3 H2   HT     0.417000        1.0080           0
   87343 WT5  4915 TIP3 OH2  OT    -0.834000       15.9994           0
   87344 WT5  4915 TIP3 H1   HT     0.417000        1.0080           0
   87345 WT5  4915 TIP3 H2   HT     0.417000        1.0080           0
   87346 WT5  4916 TIP3 OH2  OT    -0.834000       15.9994           0
   87347 WT5  4916 TIP3 H1   HT     0.417000        1.0080           0
   87348 WT5  4916 TIP3 H2   HT     0.417000        1.0080           0
   87349 WT5  4917 TIP3 OH2  OT    -0.834000       15.9994           0
   87350 WT5  4917 TIP3 H1   HT     0.417000        1.0080           0
   87351 WT5  4917 TIP3 H2   HT     0.417000        1.0080           0
   87352 WT5  4918 TIP3 OH2  OT    -0.834000       15.9994           0
   87353 WT5  4918 TIP3 H1   HT     0.417000        1.0080           0
   87354 WT5  4918 TIP3 H2   HT     0.417000        1.0080           0
   87355 WT5  4919 TIP3 OH2  OT    -0.834000       15.9994           0
   87356 WT5  4919 TIP3 H1   HT     0.417000        1.0080           0
   87357 WT5  4919 TIP3 H2   HT     0.417000        1.0080           0
   87358 WT5  4920 TIP3 OH2  OT    -0.834000       15.9994           0
   87359 WT5  4920 TIP3 H1   HT     0.417000        1.0080           0
   87360 WT5  4920 TIP3 H2   HT     0.417000        1.0080           0
   87361 WT5  4921 TIP3 OH2  OT    -0.834000       15.9994           0
   87362 WT5  4921 TIP3 H1   HT     0.417000        1.0080           0
   87363 WT5  4921 TIP3 H2   HT     0.417000        1.0080           0
   87364 WT5  4922 TIP3 OH2  OT    -0.834000       15.9994           0
   87365 WT5  4922 TIP3 H1   HT     0.417000        1.0080           0
   87366 WT5  4922 TIP3 H2   HT     0.417000        1.0080           0
   87367 WT5  4923 TIP3 OH2  OT    -0.834000       15.9994           0
   87368 WT5  4923 TIP3 H1   HT     0.417000        1.0080           0
   87369 WT5  4923 TIP3 H2   HT     0.417000        1.0080           0
   87370 WT5  4924 TIP3 OH2  OT    -0.834000       15.9994           0
   87371 WT5  4924 TIP3 H1   HT     0.417000        1.0080           0
   87372 WT5  4924 TIP3 H2   HT     0.417000        1.0080           0
   87373 WT5  4925 TIP3 OH2  OT    -0.834000       15.9994           0
   87374 WT5  4925 TIP3 H1   HT     0.417000        1.0080           0
   87375 WT5  4925 TIP3 H2   HT     0.417000        1.0080           0
   87376 WT5  4926 TIP3 OH2  OT    -0.834000       15.9994           0
   87377 WT5  4926 TIP3 H1   HT     0.417000        1.0080           0
   87378 WT5  4926 TIP3 H2   HT     0.417000        1.0080           0
   87379 WT5  4927 TIP3 OH2  OT    -0.834000       15.9994           0
   87380 WT5  4927 TIP3 H1   HT     0.417000        1.0080           0
   87381 WT5  4927 TIP3 H2   HT     0.417000        1.0080           0
   87382 WT5  4929 TIP3 OH2  OT    -0.834000       15.9994           0
   87383 WT5  4929 TIP3 H1   HT     0.417000        1.0080           0
   87384 WT5  4929 TIP3 H2   HT     0.417000        1.0080           0
   87385 WT5  4930 TIP3 OH2  OT    -0.834000       15.9994           0
   87386 WT5  4930 TIP3 H1   HT     0.417000        1.0080           0
   87387 WT5  4930 TIP3 H2   HT     0.417000        1.0080           0
   87388 WT5  4932 TIP3 OH2  OT    -0.834000       15.9994           0
   87389 WT5  4932 TIP3 H1   HT     0.417000        1.0080           0
   87390 WT5  4932 TIP3 H2   HT     0.417000        1.0080           0
   87391 WT5  4933 TIP3 OH2  OT    -0.834000       15.9994           0
   87392 WT5  4933 TIP3 H1   HT     0.417000        1.0080           0
   87393 WT5  4933 TIP3 H2   HT     0.417000        1.0080           0
   87394 WT5  4936 TIP3 OH2  OT    -0.834000       15.9994           0
   87395 WT5  4936 TIP3 H1   HT     0.417000        1.0080           0
   87396 WT5  4936 TIP3 H2   HT     0.417000        1.0080           0
   87397 WT5  4937 TIP3 OH2  OT    -0.834000       15.9994           0
   87398 WT5  4937 TIP3 H1   HT     0.417000        1.0080           0
   87399 WT5  4937 TIP3 H2   HT     0.417000        1.0080           0
   87400 WT5  4941 TIP3 OH2  OT    -0.834000       15.9994           0
   87401 WT5  4941 TIP3 H1   HT     0.417000        1.0080           0
   87402 WT5  4941 TIP3 H2   HT     0.417000        1.0080           0
   87403 WT5  4942 TIP3 OH2  OT    -0.834000       15.9994           0
   87404 WT5  4942 TIP3 H1   HT     0.417000        1.0080           0
   87405 WT5  4942 TIP3 H2   HT     0.417000        1.0080           0
   87406 WT5  4943 TIP3 OH2  OT    -0.834000       15.9994           0
   87407 WT5  4943 TIP3 H1   HT     0.417000        1.0080           0
   87408 WT5  4943 TIP3 H2   HT     0.417000        1.0080           0
   87409 WT5  4944 TIP3 OH2  OT    -0.834000       15.9994           0
   87410 WT5  4944 TIP3 H1   HT     0.417000        1.0080           0
   87411 WT5  4944 TIP3 H2   HT     0.417000        1.0080           0
   87412 WT5  4945 TIP3 OH2  OT    -0.834000       15.9994           0
   87413 WT5  4945 TIP3 H1   HT     0.417000        1.0080           0
   87414 WT5  4945 TIP3 H2   HT     0.417000        1.0080           0
   87415 WT5  4946 TIP3 OH2  OT    -0.834000       15.9994           0
   87416 WT5  4946 TIP3 H1   HT     0.417000        1.0080           0
   87417 WT5  4946 TIP3 H2   HT     0.417000        1.0080           0
   87418 WT5  4947 TIP3 OH2  OT    -0.834000       15.9994           0
   87419 WT5  4947 TIP3 H1   HT     0.417000        1.0080           0
   87420 WT5  4947 TIP3 H2   HT     0.417000        1.0080           0
   87421 WT5  4948 TIP3 OH2  OT    -0.834000       15.9994           0
   87422 WT5  4948 TIP3 H1   HT     0.417000        1.0080           0
   87423 WT5  4948 TIP3 H2   HT     0.417000        1.0080           0
   87424 WT5  4949 TIP3 OH2  OT    -0.834000       15.9994           0
   87425 WT5  4949 TIP3 H1   HT     0.417000        1.0080           0
   87426 WT5  4949 TIP3 H2   HT     0.417000        1.0080           0
   87427 WT5  4950 TIP3 OH2  OT    -0.834000       15.9994           0
   87428 WT5  4950 TIP3 H1   HT     0.417000        1.0080           0
   87429 WT5  4950 TIP3 H2   HT     0.417000        1.0080           0
   87430 WT5  4951 TIP3 OH2  OT    -0.834000       15.9994           0
   87431 WT5  4951 TIP3 H1   HT     0.417000        1.0080           0
   87432 WT5  4951 TIP3 H2   HT     0.417000        1.0080           0
   87433 WT5  4954 TIP3 OH2  OT    -0.834000       15.9994           0
   87434 WT5  4954 TIP3 H1   HT     0.417000        1.0080           0
   87435 WT5  4954 TIP3 H2   HT     0.417000        1.0080           0
   87436 WT5  4955 TIP3 OH2  OT    -0.834000       15.9994           0
   87437 WT5  4955 TIP3 H1   HT     0.417000        1.0080           0
   87438 WT5  4955 TIP3 H2   HT     0.417000        1.0080           0
   87439 WT5  4957 TIP3 OH2  OT    -0.834000       15.9994           0
   87440 WT5  4957 TIP3 H1   HT     0.417000        1.0080           0
   87441 WT5  4957 TIP3 H2   HT     0.417000        1.0080           0
   87442 WT5  4958 TIP3 OH2  OT    -0.834000       15.9994           0
   87443 WT5  4958 TIP3 H1   HT     0.417000        1.0080           0
   87444 WT5  4958 TIP3 H2   HT     0.417000        1.0080           0
   87445 WT5  4960 TIP3 OH2  OT    -0.834000       15.9994           0
   87446 WT5  4960 TIP3 H1   HT     0.417000        1.0080           0
   87447 WT5  4960 TIP3 H2   HT     0.417000        1.0080           0
   87448 WT5  4961 TIP3 OH2  OT    -0.834000       15.9994           0
   87449 WT5  4961 TIP3 H1   HT     0.417000        1.0080           0
   87450 WT5  4961 TIP3 H2   HT     0.417000        1.0080           0
   87451 WT5  4963 TIP3 OH2  OT    -0.834000       15.9994           0
   87452 WT5  4963 TIP3 H1   HT     0.417000        1.0080           0
   87453 WT5  4963 TIP3 H2   HT     0.417000        1.0080           0
   87454 WT5  4964 TIP3 OH2  OT    -0.834000       15.9994           0
   87455 WT5  4964 TIP3 H1   HT     0.417000        1.0080           0
   87456 WT5  4964 TIP3 H2   HT     0.417000        1.0080           0
   87457 WT5  4965 TIP3 OH2  OT    -0.834000       15.9994           0
   87458 WT5  4965 TIP3 H1   HT     0.417000        1.0080           0
   87459 WT5  4965 TIP3 H2   HT     0.417000        1.0080           0
   87460 WT5  4966 TIP3 OH2  OT    -0.834000       15.9994           0
   87461 WT5  4966 TIP3 H1   HT     0.417000        1.0080           0
   87462 WT5  4966 TIP3 H2   HT     0.417000        1.0080           0
   87463 WT5  4969 TIP3 OH2  OT    -0.834000       15.9994           0
   87464 WT5  4969 TIP3 H1   HT     0.417000        1.0080           0
   87465 WT5  4969 TIP3 H2   HT     0.417000        1.0080           0
   87466 WT5  4971 TIP3 OH2  OT    -0.834000       15.9994           0
   87467 WT5  4971 TIP3 H1   HT     0.417000        1.0080           0
   87468 WT5  4971 TIP3 H2   HT     0.417000        1.0080           0
   87469 WT5  4973 TIP3 OH2  OT    -0.834000       15.9994           0
   87470 WT5  4973 TIP3 H1   HT     0.417000        1.0080           0
   87471 WT5  4973 TIP3 H2   HT     0.417000        1.0080           0
   87472 WT5  4975 TIP3 OH2  OT    -0.834000       15.9994           0
   87473 WT5  4975 TIP3 H1   HT     0.417000        1.0080           0
   87474 WT5  4975 TIP3 H2   HT     0.417000        1.0080           0
   87475 WT5  4976 TIP3 OH2  OT    -0.834000       15.9994           0
   87476 WT5  4976 TIP3 H1   HT     0.417000        1.0080           0
   87477 WT5  4976 TIP3 H2   HT     0.417000        1.0080           0
   87478 WT5  4977 TIP3 OH2  OT    -0.834000       15.9994           0
   87479 WT5  4977 TIP3 H1   HT     0.417000        1.0080           0
   87480 WT5  4977 TIP3 H2   HT     0.417000        1.0080           0
   87481 WT5  4978 TIP3 OH2  OT    -0.834000       15.9994           0
   87482 WT5  4978 TIP3 H1   HT     0.417000        1.0080           0
   87483 WT5  4978 TIP3 H2   HT     0.417000        1.0080           0
   87484 WT5  4979 TIP3 OH2  OT    -0.834000       15.9994           0
   87485 WT5  4979 TIP3 H1   HT     0.417000        1.0080           0
   87486 WT5  4979 TIP3 H2   HT     0.417000        1.0080           0
   87487 WT5  4980 TIP3 OH2  OT    -0.834000       15.9994           0
   87488 WT5  4980 TIP3 H1   HT     0.417000        1.0080           0
   87489 WT5  4980 TIP3 H2   HT     0.417000        1.0080           0
   87490 WT5  4981 TIP3 OH2  OT    -0.834000       15.9994           0
   87491 WT5  4981 TIP3 H1   HT     0.417000        1.0080           0
   87492 WT5  4981 TIP3 H2   HT     0.417000        1.0080           0
   87493 WT5  4982 TIP3 OH2  OT    -0.834000       15.9994           0
   87494 WT5  4982 TIP3 H1   HT     0.417000        1.0080           0
   87495 WT5  4982 TIP3 H2   HT     0.417000        1.0080           0
   87496 WT5  4983 TIP3 OH2  OT    -0.834000       15.9994           0
   87497 WT5  4983 TIP3 H1   HT     0.417000        1.0080           0
   87498 WT5  4983 TIP3 H2   HT     0.417000        1.0080           0
   87499 WT5  4985 TIP3 OH2  OT    -0.834000       15.9994           0
   87500 WT5  4985 TIP3 H1   HT     0.417000        1.0080           0
   87501 WT5  4985 TIP3 H2   HT     0.417000        1.0080           0
   87502 WT5  4986 TIP3 OH2  OT    -0.834000       15.9994           0
   87503 WT5  4986 TIP3 H1   HT     0.417000        1.0080           0
   87504 WT5  4986 TIP3 H2   HT     0.417000        1.0080           0
   87505 WT5  4987 TIP3 OH2  OT    -0.834000       15.9994           0
   87506 WT5  4987 TIP3 H1   HT     0.417000        1.0080           0
   87507 WT5  4987 TIP3 H2   HT     0.417000        1.0080           0
   87508 WT5  4988 TIP3 OH2  OT    -0.834000       15.9994           0
   87509 WT5  4988 TIP3 H1   HT     0.417000        1.0080           0
   87510 WT5  4988 TIP3 H2   HT     0.417000        1.0080           0
   87511 WT5  4989 TIP3 OH2  OT    -0.834000       15.9994           0
   87512 WT5  4989 TIP3 H1   HT     0.417000        1.0080           0
   87513 WT5  4989 TIP3 H2   HT     0.417000        1.0080           0
   87514 WT5  4990 TIP3 OH2  OT    -0.834000       15.9994           0
   87515 WT5  4990 TIP3 H1   HT     0.417000        1.0080           0
   87516 WT5  4990 TIP3 H2   HT     0.417000        1.0080           0
   87517 WT5  4991 TIP3 OH2  OT    -0.834000       15.9994           0
   87518 WT5  4991 TIP3 H1   HT     0.417000        1.0080           0
   87519 WT5  4991 TIP3 H2   HT     0.417000        1.0080           0
   87520 WT5  4992 TIP3 OH2  OT    -0.834000       15.9994           0
   87521 WT5  4992 TIP3 H1   HT     0.417000        1.0080           0
   87522 WT5  4992 TIP3 H2   HT     0.417000        1.0080           0
   87523 WT5  4993 TIP3 OH2  OT    -0.834000       15.9994           0
   87524 WT5  4993 TIP3 H1   HT     0.417000        1.0080           0
   87525 WT5  4993 TIP3 H2   HT     0.417000        1.0080           0
   87526 WT5  4994 TIP3 OH2  OT    -0.834000       15.9994           0
   87527 WT5  4994 TIP3 H1   HT     0.417000        1.0080           0
   87528 WT5  4994 TIP3 H2   HT     0.417000        1.0080           0
   87529 WT5  4995 TIP3 OH2  OT    -0.834000       15.9994           0
   87530 WT5  4995 TIP3 H1   HT     0.417000        1.0080           0
   87531 WT5  4995 TIP3 H2   HT     0.417000        1.0080           0
   87532 WT5  4996 TIP3 OH2  OT    -0.834000       15.9994           0
   87533 WT5  4996 TIP3 H1   HT     0.417000        1.0080           0
   87534 WT5  4996 TIP3 H2   HT     0.417000        1.0080           0
   87535 WT5  4998 TIP3 OH2  OT    -0.834000       15.9994           0
   87536 WT5  4998 TIP3 H1   HT     0.417000        1.0080           0
   87537 WT5  4998 TIP3 H2   HT     0.417000        1.0080           0
   87538 WT5  4999 TIP3 OH2  OT    -0.834000       15.9994           0
   87539 WT5  4999 TIP3 H1   HT     0.417000        1.0080           0
   87540 WT5  4999 TIP3 H2   HT     0.417000        1.0080           0
   87541 WT5  5000 TIP3 OH2  OT    -0.834000       15.9994           0
   87542 WT5  5000 TIP3 H1   HT     0.417000        1.0080           0
   87543 WT5  5000 TIP3 H2   HT     0.417000        1.0080           0
   87544 WT5  5001 TIP3 OH2  OT    -0.834000       15.9994           0
   87545 WT5  5001 TIP3 H1   HT     0.417000        1.0080           0
   87546 WT5  5001 TIP3 H2   HT     0.417000        1.0080           0
   87547 WT5  5002 TIP3 OH2  OT    -0.834000       15.9994           0
   87548 WT5  5002 TIP3 H1   HT     0.417000        1.0080           0
   87549 WT5  5002 TIP3 H2   HT     0.417000        1.0080           0
   87550 WT5  5003 TIP3 OH2  OT    -0.834000       15.9994           0
   87551 WT5  5003 TIP3 H1   HT     0.417000        1.0080           0
   87552 WT5  5003 TIP3 H2   HT     0.417000        1.0080           0
   87553 WT5  5005 TIP3 OH2  OT    -0.834000       15.9994           0
   87554 WT5  5005 TIP3 H1   HT     0.417000        1.0080           0
   87555 WT5  5005 TIP3 H2   HT     0.417000        1.0080           0
   87556 WT5  5006 TIP3 OH2  OT    -0.834000       15.9994           0
   87557 WT5  5006 TIP3 H1   HT     0.417000        1.0080           0
   87558 WT5  5006 TIP3 H2   HT     0.417000        1.0080           0
   87559 WT5  5007 TIP3 OH2  OT    -0.834000       15.9994           0
   87560 WT5  5007 TIP3 H1   HT     0.417000        1.0080           0
   87561 WT5  5007 TIP3 H2   HT     0.417000        1.0080           0
   87562 WT5  5009 TIP3 OH2  OT    -0.834000       15.9994           0
   87563 WT5  5009 TIP3 H1   HT     0.417000        1.0080           0
   87564 WT5  5009 TIP3 H2   HT     0.417000        1.0080           0
   87565 WT5  5010 TIP3 OH2  OT    -0.834000       15.9994           0
   87566 WT5  5010 TIP3 H1   HT     0.417000        1.0080           0
   87567 WT5  5010 TIP3 H2   HT     0.417000        1.0080           0
   87568 WT5  5012 TIP3 OH2  OT    -0.834000       15.9994           0
   87569 WT5  5012 TIP3 H1   HT     0.417000        1.0080           0
   87570 WT5  5012 TIP3 H2   HT     0.417000        1.0080           0
   87571 WT5  5013 TIP3 OH2  OT    -0.834000       15.9994           0
   87572 WT5  5013 TIP3 H1   HT     0.417000        1.0080           0
   87573 WT5  5013 TIP3 H2   HT     0.417000        1.0080           0
   87574 WT5  5014 TIP3 OH2  OT    -0.834000       15.9994           0
   87575 WT5  5014 TIP3 H1   HT     0.417000        1.0080           0
   87576 WT5  5014 TIP3 H2   HT     0.417000        1.0080           0
   87577 WT5  5015 TIP3 OH2  OT    -0.834000       15.9994           0
   87578 WT5  5015 TIP3 H1   HT     0.417000        1.0080           0
   87579 WT5  5015 TIP3 H2   HT     0.417000        1.0080           0
   87580 WT5  5016 TIP3 OH2  OT    -0.834000       15.9994           0
   87581 WT5  5016 TIP3 H1   HT     0.417000        1.0080           0
   87582 WT5  5016 TIP3 H2   HT     0.417000        1.0080           0
   87583 WT5  5017 TIP3 OH2  OT    -0.834000       15.9994           0
   87584 WT5  5017 TIP3 H1   HT     0.417000        1.0080           0
   87585 WT5  5017 TIP3 H2   HT     0.417000        1.0080           0
   87586 WT5  5021 TIP3 OH2  OT    -0.834000       15.9994           0
   87587 WT5  5021 TIP3 H1   HT     0.417000        1.0080           0
   87588 WT5  5021 TIP3 H2   HT     0.417000        1.0080           0
   87589 WT5  5022 TIP3 OH2  OT    -0.834000       15.9994           0
   87590 WT5  5022 TIP3 H1   HT     0.417000        1.0080           0
   87591 WT5  5022 TIP3 H2   HT     0.417000        1.0080           0
   87592 WT5  5023 TIP3 OH2  OT    -0.834000       15.9994           0
   87593 WT5  5023 TIP3 H1   HT     0.417000        1.0080           0
   87594 WT5  5023 TIP3 H2   HT     0.417000        1.0080           0
   87595 WT5  5024 TIP3 OH2  OT    -0.834000       15.9994           0
   87596 WT5  5024 TIP3 H1   HT     0.417000        1.0080           0
   87597 WT5  5024 TIP3 H2   HT     0.417000        1.0080           0
   87598 WT5  5025 TIP3 OH2  OT    -0.834000       15.9994           0
   87599 WT5  5025 TIP3 H1   HT     0.417000        1.0080           0
   87600 WT5  5025 TIP3 H2   HT     0.417000        1.0080           0
   87601 WT5  5026 TIP3 OH2  OT    -0.834000       15.9994           0
   87602 WT5  5026 TIP3 H1   HT     0.417000        1.0080           0
   87603 WT5  5026 TIP3 H2   HT     0.417000        1.0080           0
   87604 WT5  5027 TIP3 OH2  OT    -0.834000       15.9994           0
   87605 WT5  5027 TIP3 H1   HT     0.417000        1.0080           0
   87606 WT5  5027 TIP3 H2   HT     0.417000        1.0080           0
   87607 WT5  5028 TIP3 OH2  OT    -0.834000       15.9994           0
   87608 WT5  5028 TIP3 H1   HT     0.417000        1.0080           0
   87609 WT5  5028 TIP3 H2   HT     0.417000        1.0080           0
   87610 WT5  5029 TIP3 OH2  OT    -0.834000       15.9994           0
   87611 WT5  5029 TIP3 H1   HT     0.417000        1.0080           0
   87612 WT5  5029 TIP3 H2   HT     0.417000        1.0080           0
   87613 WT5  5030 TIP3 OH2  OT    -0.834000       15.9994           0
   87614 WT5  5030 TIP3 H1   HT     0.417000        1.0080           0
   87615 WT5  5030 TIP3 H2   HT     0.417000        1.0080           0
   87616 WT5  5032 TIP3 OH2  OT    -0.834000       15.9994           0
   87617 WT5  5032 TIP3 H1   HT     0.417000        1.0080           0
   87618 WT5  5032 TIP3 H2   HT     0.417000        1.0080           0
   87619 WT5  5033 TIP3 OH2  OT    -0.834000       15.9994           0
   87620 WT5  5033 TIP3 H1   HT     0.417000        1.0080           0
   87621 WT5  5033 TIP3 H2   HT     0.417000        1.0080           0
   87622 WT5  5034 TIP3 OH2  OT    -0.834000       15.9994           0
   87623 WT5  5034 TIP3 H1   HT     0.417000        1.0080           0
   87624 WT5  5034 TIP3 H2   HT     0.417000        1.0080           0
   87625 WT5  5036 TIP3 OH2  OT    -0.834000       15.9994           0
   87626 WT5  5036 TIP3 H1   HT     0.417000        1.0080           0
   87627 WT5  5036 TIP3 H2   HT     0.417000        1.0080           0
   87628 WT5  5039 TIP3 OH2  OT    -0.834000       15.9994           0
   87629 WT5  5039 TIP3 H1   HT     0.417000        1.0080           0
   87630 WT5  5039 TIP3 H2   HT     0.417000        1.0080           0
   87631 WT5  5041 TIP3 OH2  OT    -0.834000       15.9994           0
   87632 WT5  5041 TIP3 H1   HT     0.417000        1.0080           0
   87633 WT5  5041 TIP3 H2   HT     0.417000        1.0080           0
   87634 WT5  5042 TIP3 OH2  OT    -0.834000       15.9994           0
   87635 WT5  5042 TIP3 H1   HT     0.417000        1.0080           0
   87636 WT5  5042 TIP3 H2   HT     0.417000        1.0080           0
   87637 WT5  5043 TIP3 OH2  OT    -0.834000       15.9994           0
   87638 WT5  5043 TIP3 H1   HT     0.417000        1.0080           0
   87639 WT5  5043 TIP3 H2   HT     0.417000        1.0080           0
   87640 WT5  5044 TIP3 OH2  OT    -0.834000       15.9994           0
   87641 WT5  5044 TIP3 H1   HT     0.417000        1.0080           0
   87642 WT5  5044 TIP3 H2   HT     0.417000        1.0080           0
   87643 WT5  5046 TIP3 OH2  OT    -0.834000       15.9994           0
   87644 WT5  5046 TIP3 H1   HT     0.417000        1.0080           0
   87645 WT5  5046 TIP3 H2   HT     0.417000        1.0080           0
   87646 WT5  5047 TIP3 OH2  OT    -0.834000       15.9994           0
   87647 WT5  5047 TIP3 H1   HT     0.417000        1.0080           0
   87648 WT5  5047 TIP3 H2   HT     0.417000        1.0080           0
   87649 WT5  5048 TIP3 OH2  OT    -0.834000       15.9994           0
   87650 WT5  5048 TIP3 H1   HT     0.417000        1.0080           0
   87651 WT5  5048 TIP3 H2   HT     0.417000        1.0080           0
   87652 WT5  5049 TIP3 OH2  OT    -0.834000       15.9994           0
   87653 WT5  5049 TIP3 H1   HT     0.417000        1.0080           0
   87654 WT5  5049 TIP3 H2   HT     0.417000        1.0080           0
   87655 WT5  5050 TIP3 OH2  OT    -0.834000       15.9994           0
   87656 WT5  5050 TIP3 H1   HT     0.417000        1.0080           0
   87657 WT5  5050 TIP3 H2   HT     0.417000        1.0080           0
   87658 WT5  5052 TIP3 OH2  OT    -0.834000       15.9994           0
   87659 WT5  5052 TIP3 H1   HT     0.417000        1.0080           0
   87660 WT5  5052 TIP3 H2   HT     0.417000        1.0080           0
   87661 WT5  5053 TIP3 OH2  OT    -0.834000       15.9994           0
   87662 WT5  5053 TIP3 H1   HT     0.417000        1.0080           0
   87663 WT5  5053 TIP3 H2   HT     0.417000        1.0080           0
   87664 WT5  5054 TIP3 OH2  OT    -0.834000       15.9994           0
   87665 WT5  5054 TIP3 H1   HT     0.417000        1.0080           0
   87666 WT5  5054 TIP3 H2   HT     0.417000        1.0080           0
   87667 WT5  5055 TIP3 OH2  OT    -0.834000       15.9994           0
   87668 WT5  5055 TIP3 H1   HT     0.417000        1.0080           0
   87669 WT5  5055 TIP3 H2   HT     0.417000        1.0080           0
   87670 WT5  5056 TIP3 OH2  OT    -0.834000       15.9994           0
   87671 WT5  5056 TIP3 H1   HT     0.417000        1.0080           0
   87672 WT5  5056 TIP3 H2   HT     0.417000        1.0080           0
   87673 WT5  5059 TIP3 OH2  OT    -0.834000       15.9994           0
   87674 WT5  5059 TIP3 H1   HT     0.417000        1.0080           0
   87675 WT5  5059 TIP3 H2   HT     0.417000        1.0080           0
   87676 WT5  5060 TIP3 OH2  OT    -0.834000       15.9994           0
   87677 WT5  5060 TIP3 H1   HT     0.417000        1.0080           0
   87678 WT5  5060 TIP3 H2   HT     0.417000        1.0080           0
   87679 WT5  5061 TIP3 OH2  OT    -0.834000       15.9994           0
   87680 WT5  5061 TIP3 H1   HT     0.417000        1.0080           0
   87681 WT5  5061 TIP3 H2   HT     0.417000        1.0080           0
   87682 WT5  5063 TIP3 OH2  OT    -0.834000       15.9994           0
   87683 WT5  5063 TIP3 H1   HT     0.417000        1.0080           0
   87684 WT5  5063 TIP3 H2   HT     0.417000        1.0080           0
   87685 WT5  5064 TIP3 OH2  OT    -0.834000       15.9994           0
   87686 WT5  5064 TIP3 H1   HT     0.417000        1.0080           0
   87687 WT5  5064 TIP3 H2   HT     0.417000        1.0080           0
   87688 WT5  5065 TIP3 OH2  OT    -0.834000       15.9994           0
   87689 WT5  5065 TIP3 H1   HT     0.417000        1.0080           0
   87690 WT5  5065 TIP3 H2   HT     0.417000        1.0080           0
   87691 WT5  5066 TIP3 OH2  OT    -0.834000       15.9994           0
   87692 WT5  5066 TIP3 H1   HT     0.417000        1.0080           0
   87693 WT5  5066 TIP3 H2   HT     0.417000        1.0080           0
   87694 WT5  5067 TIP3 OH2  OT    -0.834000       15.9994           0
   87695 WT5  5067 TIP3 H1   HT     0.417000        1.0080           0
   87696 WT5  5067 TIP3 H2   HT     0.417000        1.0080           0
   87697 WT5  5068 TIP3 OH2  OT    -0.834000       15.9994           0
   87698 WT5  5068 TIP3 H1   HT     0.417000        1.0080           0
   87699 WT5  5068 TIP3 H2   HT     0.417000        1.0080           0
   87700 WT5  5069 TIP3 OH2  OT    -0.834000       15.9994           0
   87701 WT5  5069 TIP3 H1   HT     0.417000        1.0080           0
   87702 WT5  5069 TIP3 H2   HT     0.417000        1.0080           0
   87703 WT5  5071 TIP3 OH2  OT    -0.834000       15.9994           0
   87704 WT5  5071 TIP3 H1   HT     0.417000        1.0080           0
   87705 WT5  5071 TIP3 H2   HT     0.417000        1.0080           0
   87706 WT5  5073 TIP3 OH2  OT    -0.834000       15.9994           0
   87707 WT5  5073 TIP3 H1   HT     0.417000        1.0080           0
   87708 WT5  5073 TIP3 H2   HT     0.417000        1.0080           0
   87709 WT5  5075 TIP3 OH2  OT    -0.834000       15.9994           0
   87710 WT5  5075 TIP3 H1   HT     0.417000        1.0080           0
   87711 WT5  5075 TIP3 H2   HT     0.417000        1.0080           0
   87712 WT5  5079 TIP3 OH2  OT    -0.834000       15.9994           0
   87713 WT5  5079 TIP3 H1   HT     0.417000        1.0080           0
   87714 WT5  5079 TIP3 H2   HT     0.417000        1.0080           0
   87715 WT5  5081 TIP3 OH2  OT    -0.834000       15.9994           0
   87716 WT5  5081 TIP3 H1   HT     0.417000        1.0080           0
   87717 WT5  5081 TIP3 H2   HT     0.417000        1.0080           0
   87718 WT5  5082 TIP3 OH2  OT    -0.834000       15.9994           0
   87719 WT5  5082 TIP3 H1   HT     0.417000        1.0080           0
   87720 WT5  5082 TIP3 H2   HT     0.417000        1.0080           0
   87721 WT5  5083 TIP3 OH2  OT    -0.834000       15.9994           0
   87722 WT5  5083 TIP3 H1   HT     0.417000        1.0080           0
   87723 WT5  5083 TIP3 H2   HT     0.417000        1.0080           0
   87724 WT5  5086 TIP3 OH2  OT    -0.834000       15.9994           0
   87725 WT5  5086 TIP3 H1   HT     0.417000        1.0080           0
   87726 WT5  5086 TIP3 H2   HT     0.417000        1.0080           0
   87727 WT5  5087 TIP3 OH2  OT    -0.834000       15.9994           0
   87728 WT5  5087 TIP3 H1   HT     0.417000        1.0080           0
   87729 WT5  5087 TIP3 H2   HT     0.417000        1.0080           0
   87730 WT5  5088 TIP3 OH2  OT    -0.834000       15.9994           0
   87731 WT5  5088 TIP3 H1   HT     0.417000        1.0080           0
   87732 WT5  5088 TIP3 H2   HT     0.417000        1.0080           0
   87733 WT5  5089 TIP3 OH2  OT    -0.834000       15.9994           0
   87734 WT5  5089 TIP3 H1   HT     0.417000        1.0080           0
   87735 WT5  5089 TIP3 H2   HT     0.417000        1.0080           0
   87736 WT5  5090 TIP3 OH2  OT    -0.834000       15.9994           0
   87737 WT5  5090 TIP3 H1   HT     0.417000        1.0080           0
   87738 WT5  5090 TIP3 H2   HT     0.417000        1.0080           0
   87739 WT5  5091 TIP3 OH2  OT    -0.834000       15.9994           0
   87740 WT5  5091 TIP3 H1   HT     0.417000        1.0080           0
   87741 WT5  5091 TIP3 H2   HT     0.417000        1.0080           0
   87742 WT5  5093 TIP3 OH2  OT    -0.834000       15.9994           0
   87743 WT5  5093 TIP3 H1   HT     0.417000        1.0080           0
   87744 WT5  5093 TIP3 H2   HT     0.417000        1.0080           0
   87745 WT5  5094 TIP3 OH2  OT    -0.834000       15.9994           0
   87746 WT5  5094 TIP3 H1   HT     0.417000        1.0080           0
   87747 WT5  5094 TIP3 H2   HT     0.417000        1.0080           0
   87748 WT5  5095 TIP3 OH2  OT    -0.834000       15.9994           0
   87749 WT5  5095 TIP3 H1   HT     0.417000        1.0080           0
   87750 WT5  5095 TIP3 H2   HT     0.417000        1.0080           0
   87751 WT5  5097 TIP3 OH2  OT    -0.834000       15.9994           0
   87752 WT5  5097 TIP3 H1   HT     0.417000        1.0080           0
   87753 WT5  5097 TIP3 H2   HT     0.417000        1.0080           0
   87754 WT5  5098 TIP3 OH2  OT    -0.834000       15.9994           0
   87755 WT5  5098 TIP3 H1   HT     0.417000        1.0080           0
   87756 WT5  5098 TIP3 H2   HT     0.417000        1.0080           0
   87757 WT5  5099 TIP3 OH2  OT    -0.834000       15.9994           0
   87758 WT5  5099 TIP3 H1   HT     0.417000        1.0080           0
   87759 WT5  5099 TIP3 H2   HT     0.417000        1.0080           0
   87760 WT5  5101 TIP3 OH2  OT    -0.834000       15.9994           0
   87761 WT5  5101 TIP3 H1   HT     0.417000        1.0080           0
   87762 WT5  5101 TIP3 H2   HT     0.417000        1.0080           0
   87763 WT5  5103 TIP3 OH2  OT    -0.834000       15.9994           0
   87764 WT5  5103 TIP3 H1   HT     0.417000        1.0080           0
   87765 WT5  5103 TIP3 H2   HT     0.417000        1.0080           0
   87766 WT5  5104 TIP3 OH2  OT    -0.834000       15.9994           0
   87767 WT5  5104 TIP3 H1   HT     0.417000        1.0080           0
   87768 WT5  5104 TIP3 H2   HT     0.417000        1.0080           0
   87769 WT5  5106 TIP3 OH2  OT    -0.834000       15.9994           0
   87770 WT5  5106 TIP3 H1   HT     0.417000        1.0080           0
   87771 WT5  5106 TIP3 H2   HT     0.417000        1.0080           0
   87772 WT5  5108 TIP3 OH2  OT    -0.834000       15.9994           0
   87773 WT5  5108 TIP3 H1   HT     0.417000        1.0080           0
   87774 WT5  5108 TIP3 H2   HT     0.417000        1.0080           0
   87775 WT5  5109 TIP3 OH2  OT    -0.834000       15.9994           0
   87776 WT5  5109 TIP3 H1   HT     0.417000        1.0080           0
   87777 WT5  5109 TIP3 H2   HT     0.417000        1.0080           0
   87778 WT5  5110 TIP3 OH2  OT    -0.834000       15.9994           0
   87779 WT5  5110 TIP3 H1   HT     0.417000        1.0080           0
   87780 WT5  5110 TIP3 H2   HT     0.417000        1.0080           0
   87781 WT5  5111 TIP3 OH2  OT    -0.834000       15.9994           0
   87782 WT5  5111 TIP3 H1   HT     0.417000        1.0080           0
   87783 WT5  5111 TIP3 H2   HT     0.417000        1.0080           0
   87784 WT5  5112 TIP3 OH2  OT    -0.834000       15.9994           0
   87785 WT5  5112 TIP3 H1   HT     0.417000        1.0080           0
   87786 WT5  5112 TIP3 H2   HT     0.417000        1.0080           0
   87787 WT5  5113 TIP3 OH2  OT    -0.834000       15.9994           0
   87788 WT5  5113 TIP3 H1   HT     0.417000        1.0080           0
   87789 WT5  5113 TIP3 H2   HT     0.417000        1.0080           0
   87790 WT5  5115 TIP3 OH2  OT    -0.834000       15.9994           0
   87791 WT5  5115 TIP3 H1   HT     0.417000        1.0080           0
   87792 WT5  5115 TIP3 H2   HT     0.417000        1.0080           0
   87793 WT5  5117 TIP3 OH2  OT    -0.834000       15.9994           0
   87794 WT5  5117 TIP3 H1   HT     0.417000        1.0080           0
   87795 WT5  5117 TIP3 H2   HT     0.417000        1.0080           0
   87796 WT5  5118 TIP3 OH2  OT    -0.834000       15.9994           0
   87797 WT5  5118 TIP3 H1   HT     0.417000        1.0080           0
   87798 WT5  5118 TIP3 H2   HT     0.417000        1.0080           0
   87799 WT5  5119 TIP3 OH2  OT    -0.834000       15.9994           0
   87800 WT5  5119 TIP3 H1   HT     0.417000        1.0080           0
   87801 WT5  5119 TIP3 H2   HT     0.417000        1.0080           0
   87802 WT5  5121 TIP3 OH2  OT    -0.834000       15.9994           0
   87803 WT5  5121 TIP3 H1   HT     0.417000        1.0080           0
   87804 WT5  5121 TIP3 H2   HT     0.417000        1.0080           0
   87805 WT5  5123 TIP3 OH2  OT    -0.834000       15.9994           0
   87806 WT5  5123 TIP3 H1   HT     0.417000        1.0080           0
   87807 WT5  5123 TIP3 H2   HT     0.417000        1.0080           0
   87808 WT5  5124 TIP3 OH2  OT    -0.834000       15.9994           0
   87809 WT5  5124 TIP3 H1   HT     0.417000        1.0080           0
   87810 WT5  5124 TIP3 H2   HT     0.417000        1.0080           0
   87811 WT5  5125 TIP3 OH2  OT    -0.834000       15.9994           0
   87812 WT5  5125 TIP3 H1   HT     0.417000        1.0080           0
   87813 WT5  5125 TIP3 H2   HT     0.417000        1.0080           0
   87814 WT5  5126 TIP3 OH2  OT    -0.834000       15.9994           0
   87815 WT5  5126 TIP3 H1   HT     0.417000        1.0080           0
   87816 WT5  5126 TIP3 H2   HT     0.417000        1.0080           0
   87817 WT5  5127 TIP3 OH2  OT    -0.834000       15.9994           0
   87818 WT5  5127 TIP3 H1   HT     0.417000        1.0080           0
   87819 WT5  5127 TIP3 H2   HT     0.417000        1.0080           0
   87820 WT5  5128 TIP3 OH2  OT    -0.834000       15.9994           0
   87821 WT5  5128 TIP3 H1   HT     0.417000        1.0080           0
   87822 WT5  5128 TIP3 H2   HT     0.417000        1.0080           0
   87823 WT5  5129 TIP3 OH2  OT    -0.834000       15.9994           0
   87824 WT5  5129 TIP3 H1   HT     0.417000        1.0080           0
   87825 WT5  5129 TIP3 H2   HT     0.417000        1.0080           0
   87826 WT5  5131 TIP3 OH2  OT    -0.834000       15.9994           0
   87827 WT5  5131 TIP3 H1   HT     0.417000        1.0080           0
   87828 WT5  5131 TIP3 H2   HT     0.417000        1.0080           0
   87829 WT5  5132 TIP3 OH2  OT    -0.834000       15.9994           0
   87830 WT5  5132 TIP3 H1   HT     0.417000        1.0080           0
   87831 WT5  5132 TIP3 H2   HT     0.417000        1.0080           0
   87832 WT5  5133 TIP3 OH2  OT    -0.834000       15.9994           0
   87833 WT5  5133 TIP3 H1   HT     0.417000        1.0080           0
   87834 WT5  5133 TIP3 H2   HT     0.417000        1.0080           0
   87835 WT5  5134 TIP3 OH2  OT    -0.834000       15.9994           0
   87836 WT5  5134 TIP3 H1   HT     0.417000        1.0080           0
   87837 WT5  5134 TIP3 H2   HT     0.417000        1.0080           0
   87838 WT5  5136 TIP3 OH2  OT    -0.834000       15.9994           0
   87839 WT5  5136 TIP3 H1   HT     0.417000        1.0080           0
   87840 WT5  5136 TIP3 H2   HT     0.417000        1.0080           0
   87841 WT5  5137 TIP3 OH2  OT    -0.834000       15.9994           0
   87842 WT5  5137 TIP3 H1   HT     0.417000        1.0080           0
   87843 WT5  5137 TIP3 H2   HT     0.417000        1.0080           0
   87844 WT5  5140 TIP3 OH2  OT    -0.834000       15.9994           0
   87845 WT5  5140 TIP3 H1   HT     0.417000        1.0080           0
   87846 WT5  5140 TIP3 H2   HT     0.417000        1.0080           0
   87847 WT5  5142 TIP3 OH2  OT    -0.834000       15.9994           0
   87848 WT5  5142 TIP3 H1   HT     0.417000        1.0080           0
   87849 WT5  5142 TIP3 H2   HT     0.417000        1.0080           0
   87850 WT5  5143 TIP3 OH2  OT    -0.834000       15.9994           0
   87851 WT5  5143 TIP3 H1   HT     0.417000        1.0080           0
   87852 WT5  5143 TIP3 H2   HT     0.417000        1.0080           0
   87853 WT5  5146 TIP3 OH2  OT    -0.834000       15.9994           0
   87854 WT5  5146 TIP3 H1   HT     0.417000        1.0080           0
   87855 WT5  5146 TIP3 H2   HT     0.417000        1.0080           0
   87856 WT5  5147 TIP3 OH2  OT    -0.834000       15.9994           0
   87857 WT5  5147 TIP3 H1   HT     0.417000        1.0080           0
   87858 WT5  5147 TIP3 H2   HT     0.417000        1.0080           0
   87859 WT5  5148 TIP3 OH2  OT    -0.834000       15.9994           0
   87860 WT5  5148 TIP3 H1   HT     0.417000        1.0080           0
   87861 WT5  5148 TIP3 H2   HT     0.417000        1.0080           0
   87862 WT5  5149 TIP3 OH2  OT    -0.834000       15.9994           0
   87863 WT5  5149 TIP3 H1   HT     0.417000        1.0080           0
   87864 WT5  5149 TIP3 H2   HT     0.417000        1.0080           0
   87865 WT5  5150 TIP3 OH2  OT    -0.834000       15.9994           0
   87866 WT5  5150 TIP3 H1   HT     0.417000        1.0080           0
   87867 WT5  5150 TIP3 H2   HT     0.417000        1.0080           0
   87868 WT5  5152 TIP3 OH2  OT    -0.834000       15.9994           0
   87869 WT5  5152 TIP3 H1   HT     0.417000        1.0080           0
   87870 WT5  5152 TIP3 H2   HT     0.417000        1.0080           0
   87871 WT5  5153 TIP3 OH2  OT    -0.834000       15.9994           0
   87872 WT5  5153 TIP3 H1   HT     0.417000        1.0080           0
   87873 WT5  5153 TIP3 H2   HT     0.417000        1.0080           0
   87874 WT5  5154 TIP3 OH2  OT    -0.834000       15.9994           0
   87875 WT5  5154 TIP3 H1   HT     0.417000        1.0080           0
   87876 WT5  5154 TIP3 H2   HT     0.417000        1.0080           0
   87877 WT5  5156 TIP3 OH2  OT    -0.834000       15.9994           0
   87878 WT5  5156 TIP3 H1   HT     0.417000        1.0080           0
   87879 WT5  5156 TIP3 H2   HT     0.417000        1.0080           0
   87880 WT5  5157 TIP3 OH2  OT    -0.834000       15.9994           0
   87881 WT5  5157 TIP3 H1   HT     0.417000        1.0080           0
   87882 WT5  5157 TIP3 H2   HT     0.417000        1.0080           0
   87883 WT5  5158 TIP3 OH2  OT    -0.834000       15.9994           0
   87884 WT5  5158 TIP3 H1   HT     0.417000        1.0080           0
   87885 WT5  5158 TIP3 H2   HT     0.417000        1.0080           0
   87886 WT5  5160 TIP3 OH2  OT    -0.834000       15.9994           0
   87887 WT5  5160 TIP3 H1   HT     0.417000        1.0080           0
   87888 WT5  5160 TIP3 H2   HT     0.417000        1.0080           0
   87889 WT5  5161 TIP3 OH2  OT    -0.834000       15.9994           0
   87890 WT5  5161 TIP3 H1   HT     0.417000        1.0080           0
   87891 WT5  5161 TIP3 H2   HT     0.417000        1.0080           0
   87892 WT5  5162 TIP3 OH2  OT    -0.834000       15.9994           0
   87893 WT5  5162 TIP3 H1   HT     0.417000        1.0080           0
   87894 WT5  5162 TIP3 H2   HT     0.417000        1.0080           0
   87895 WT5  5163 TIP3 OH2  OT    -0.834000       15.9994           0
   87896 WT5  5163 TIP3 H1   HT     0.417000        1.0080           0
   87897 WT5  5163 TIP3 H2   HT     0.417000        1.0080           0
   87898 WT5  5164 TIP3 OH2  OT    -0.834000       15.9994           0
   87899 WT5  5164 TIP3 H1   HT     0.417000        1.0080           0
   87900 WT5  5164 TIP3 H2   HT     0.417000        1.0080           0
   87901 WT5  5165 TIP3 OH2  OT    -0.834000       15.9994           0
   87902 WT5  5165 TIP3 H1   HT     0.417000        1.0080           0
   87903 WT5  5165 TIP3 H2   HT     0.417000        1.0080           0
   87904 WT5  5167 TIP3 OH2  OT    -0.834000       15.9994           0
   87905 WT5  5167 TIP3 H1   HT     0.417000        1.0080           0
   87906 WT5  5167 TIP3 H2   HT     0.417000        1.0080           0
   87907 WT5  5168 TIP3 OH2  OT    -0.834000       15.9994           0
   87908 WT5  5168 TIP3 H1   HT     0.417000        1.0080           0
   87909 WT5  5168 TIP3 H2   HT     0.417000        1.0080           0
   87910 WT5  5169 TIP3 OH2  OT    -0.834000       15.9994           0
   87911 WT5  5169 TIP3 H1   HT     0.417000        1.0080           0
   87912 WT5  5169 TIP3 H2   HT     0.417000        1.0080           0
   87913 WT5  5170 TIP3 OH2  OT    -0.834000       15.9994           0
   87914 WT5  5170 TIP3 H1   HT     0.417000        1.0080           0
   87915 WT5  5170 TIP3 H2   HT     0.417000        1.0080           0
   87916 WT5  5171 TIP3 OH2  OT    -0.834000       15.9994           0
   87917 WT5  5171 TIP3 H1   HT     0.417000        1.0080           0
   87918 WT5  5171 TIP3 H2   HT     0.417000        1.0080           0
   87919 WT5  5172 TIP3 OH2  OT    -0.834000       15.9994           0
   87920 WT5  5172 TIP3 H1   HT     0.417000        1.0080           0
   87921 WT5  5172 TIP3 H2   HT     0.417000        1.0080           0
   87922 WT5  5173 TIP3 OH2  OT    -0.834000       15.9994           0
   87923 WT5  5173 TIP3 H1   HT     0.417000        1.0080           0
   87924 WT5  5173 TIP3 H2   HT     0.417000        1.0080           0
   87925 WT5  5176 TIP3 OH2  OT    -0.834000       15.9994           0
   87926 WT5  5176 TIP3 H1   HT     0.417000        1.0080           0
   87927 WT5  5176 TIP3 H2   HT     0.417000        1.0080           0
   87928 WT5  5177 TIP3 OH2  OT    -0.834000       15.9994           0
   87929 WT5  5177 TIP3 H1   HT     0.417000        1.0080           0
   87930 WT5  5177 TIP3 H2   HT     0.417000        1.0080           0
   87931 WT5  5178 TIP3 OH2  OT    -0.834000       15.9994           0
   87932 WT5  5178 TIP3 H1   HT     0.417000        1.0080           0
   87933 WT5  5178 TIP3 H2   HT     0.417000        1.0080           0
   87934 WT5  5179 TIP3 OH2  OT    -0.834000       15.9994           0
   87935 WT5  5179 TIP3 H1   HT     0.417000        1.0080           0
   87936 WT5  5179 TIP3 H2   HT     0.417000        1.0080           0
   87937 WT5  5180 TIP3 OH2  OT    -0.834000       15.9994           0
   87938 WT5  5180 TIP3 H1   HT     0.417000        1.0080           0
   87939 WT5  5180 TIP3 H2   HT     0.417000        1.0080           0
   87940 WT5  5181 TIP3 OH2  OT    -0.834000       15.9994           0
   87941 WT5  5181 TIP3 H1   HT     0.417000        1.0080           0
   87942 WT5  5181 TIP3 H2   HT     0.417000        1.0080           0
   87943 WT5  5182 TIP3 OH2  OT    -0.834000       15.9994           0
   87944 WT5  5182 TIP3 H1   HT     0.417000        1.0080           0
   87945 WT5  5182 TIP3 H2   HT     0.417000        1.0080           0
   87946 WT5  5183 TIP3 OH2  OT    -0.834000       15.9994           0
   87947 WT5  5183 TIP3 H1   HT     0.417000        1.0080           0
   87948 WT5  5183 TIP3 H2   HT     0.417000        1.0080           0
   87949 WT5  5186 TIP3 OH2  OT    -0.834000       15.9994           0
   87950 WT5  5186 TIP3 H1   HT     0.417000        1.0080           0
   87951 WT5  5186 TIP3 H2   HT     0.417000        1.0080           0
   87952 WT5  5187 TIP3 OH2  OT    -0.834000       15.9994           0
   87953 WT5  5187 TIP3 H1   HT     0.417000        1.0080           0
   87954 WT5  5187 TIP3 H2   HT     0.417000        1.0080           0
   87955 WT5  5188 TIP3 OH2  OT    -0.834000       15.9994           0
   87956 WT5  5188 TIP3 H1   HT     0.417000        1.0080           0
   87957 WT5  5188 TIP3 H2   HT     0.417000        1.0080           0
   87958 WT5  5189 TIP3 OH2  OT    -0.834000       15.9994           0
   87959 WT5  5189 TIP3 H1   HT     0.417000        1.0080           0
   87960 WT5  5189 TIP3 H2   HT     0.417000        1.0080           0
   87961 WT5  5190 TIP3 OH2  OT    -0.834000       15.9994           0
   87962 WT5  5190 TIP3 H1   HT     0.417000        1.0080           0
   87963 WT5  5190 TIP3 H2   HT     0.417000        1.0080           0
   87964 WT5  5191 TIP3 OH2  OT    -0.834000       15.9994           0
   87965 WT5  5191 TIP3 H1   HT     0.417000        1.0080           0
   87966 WT5  5191 TIP3 H2   HT     0.417000        1.0080           0
   87967 WT5  5192 TIP3 OH2  OT    -0.834000       15.9994           0
   87968 WT5  5192 TIP3 H1   HT     0.417000        1.0080           0
   87969 WT5  5192 TIP3 H2   HT     0.417000        1.0080           0
   87970 WT5  5194 TIP3 OH2  OT    -0.834000       15.9994           0
   87971 WT5  5194 TIP3 H1   HT     0.417000        1.0080           0
   87972 WT5  5194 TIP3 H2   HT     0.417000        1.0080           0
   87973 WT5  5195 TIP3 OH2  OT    -0.834000       15.9994           0
   87974 WT5  5195 TIP3 H1   HT     0.417000        1.0080           0
   87975 WT5  5195 TIP3 H2   HT     0.417000        1.0080           0
   87976 WT5  5196 TIP3 OH2  OT    -0.834000       15.9994           0
   87977 WT5  5196 TIP3 H1   HT     0.417000        1.0080           0
   87978 WT5  5196 TIP3 H2   HT     0.417000        1.0080           0
   87979 WT5  5197 TIP3 OH2  OT    -0.834000       15.9994           0
   87980 WT5  5197 TIP3 H1   HT     0.417000        1.0080           0
   87981 WT5  5197 TIP3 H2   HT     0.417000        1.0080           0
   87982 WT5  5198 TIP3 OH2  OT    -0.834000       15.9994           0
   87983 WT5  5198 TIP3 H1   HT     0.417000        1.0080           0
   87984 WT5  5198 TIP3 H2   HT     0.417000        1.0080           0
   87985 WT5  5199 TIP3 OH2  OT    -0.834000       15.9994           0
   87986 WT5  5199 TIP3 H1   HT     0.417000        1.0080           0
   87987 WT5  5199 TIP3 H2   HT     0.417000        1.0080           0
   87988 WT5  5200 TIP3 OH2  OT    -0.834000       15.9994           0
   87989 WT5  5200 TIP3 H1   HT     0.417000        1.0080           0
   87990 WT5  5200 TIP3 H2   HT     0.417000        1.0080           0
   87991 WT5  5201 TIP3 OH2  OT    -0.834000       15.9994           0
   87992 WT5  5201 TIP3 H1   HT     0.417000        1.0080           0
   87993 WT5  5201 TIP3 H2   HT     0.417000        1.0080           0
   87994 WT5  5203 TIP3 OH2  OT    -0.834000       15.9994           0
   87995 WT5  5203 TIP3 H1   HT     0.417000        1.0080           0
   87996 WT5  5203 TIP3 H2   HT     0.417000        1.0080           0
   87997 WT5  5204 TIP3 OH2  OT    -0.834000       15.9994           0
   87998 WT5  5204 TIP3 H1   HT     0.417000        1.0080           0
   87999 WT5  5204 TIP3 H2   HT     0.417000        1.0080           0
   88000 WT5  5205 TIP3 OH2  OT    -0.834000       15.9994           0
   88001 WT5  5205 TIP3 H1   HT     0.417000        1.0080           0
   88002 WT5  5205 TIP3 H2   HT     0.417000        1.0080           0
   88003 WT5  5206 TIP3 OH2  OT    -0.834000       15.9994           0
   88004 WT5  5206 TIP3 H1   HT     0.417000        1.0080           0
   88005 WT5  5206 TIP3 H2   HT     0.417000        1.0080           0
   88006 WT5  5208 TIP3 OH2  OT    -0.834000       15.9994           0
   88007 WT5  5208 TIP3 H1   HT     0.417000        1.0080           0
   88008 WT5  5208 TIP3 H2   HT     0.417000        1.0080           0
   88009 WT5  5210 TIP3 OH2  OT    -0.834000       15.9994           0
   88010 WT5  5210 TIP3 H1   HT     0.417000        1.0080           0
   88011 WT5  5210 TIP3 H2   HT     0.417000        1.0080           0
   88012 WT5  5211 TIP3 OH2  OT    -0.834000       15.9994           0
   88013 WT5  5211 TIP3 H1   HT     0.417000        1.0080           0
   88014 WT5  5211 TIP3 H2   HT     0.417000        1.0080           0
   88015 WT5  5212 TIP3 OH2  OT    -0.834000       15.9994           0
   88016 WT5  5212 TIP3 H1   HT     0.417000        1.0080           0
   88017 WT5  5212 TIP3 H2   HT     0.417000        1.0080           0
   88018 WT5  5213 TIP3 OH2  OT    -0.834000       15.9994           0
   88019 WT5  5213 TIP3 H1   HT     0.417000        1.0080           0
   88020 WT5  5213 TIP3 H2   HT     0.417000        1.0080           0
   88021 WT5  5214 TIP3 OH2  OT    -0.834000       15.9994           0
   88022 WT5  5214 TIP3 H1   HT     0.417000        1.0080           0
   88023 WT5  5214 TIP3 H2   HT     0.417000        1.0080           0
   88024 WT5  5215 TIP3 OH2  OT    -0.834000       15.9994           0
   88025 WT5  5215 TIP3 H1   HT     0.417000        1.0080           0
   88026 WT5  5215 TIP3 H2   HT     0.417000        1.0080           0
   88027 WT5  5216 TIP3 OH2  OT    -0.834000       15.9994           0
   88028 WT5  5216 TIP3 H1   HT     0.417000        1.0080           0
   88029 WT5  5216 TIP3 H2   HT     0.417000        1.0080           0
   88030 WT5  5217 TIP3 OH2  OT    -0.834000       15.9994           0
   88031 WT5  5217 TIP3 H1   HT     0.417000        1.0080           0
   88032 WT5  5217 TIP3 H2   HT     0.417000        1.0080           0
   88033 WT5  5218 TIP3 OH2  OT    -0.834000       15.9994           0
   88034 WT5  5218 TIP3 H1   HT     0.417000        1.0080           0
   88035 WT5  5218 TIP3 H2   HT     0.417000        1.0080           0
   88036 WT5  5220 TIP3 OH2  OT    -0.834000       15.9994           0
   88037 WT5  5220 TIP3 H1   HT     0.417000        1.0080           0
   88038 WT5  5220 TIP3 H2   HT     0.417000        1.0080           0
   88039 WT5  5221 TIP3 OH2  OT    -0.834000       15.9994           0
   88040 WT5  5221 TIP3 H1   HT     0.417000        1.0080           0
   88041 WT5  5221 TIP3 H2   HT     0.417000        1.0080           0
   88042 WT5  5223 TIP3 OH2  OT    -0.834000       15.9994           0
   88043 WT5  5223 TIP3 H1   HT     0.417000        1.0080           0
   88044 WT5  5223 TIP3 H2   HT     0.417000        1.0080           0
   88045 WT5  5224 TIP3 OH2  OT    -0.834000       15.9994           0
   88046 WT5  5224 TIP3 H1   HT     0.417000        1.0080           0
   88047 WT5  5224 TIP3 H2   HT     0.417000        1.0080           0
   88048 WT5  5228 TIP3 OH2  OT    -0.834000       15.9994           0
   88049 WT5  5228 TIP3 H1   HT     0.417000        1.0080           0
   88050 WT5  5228 TIP3 H2   HT     0.417000        1.0080           0
   88051 WT5  5229 TIP3 OH2  OT    -0.834000       15.9994           0
   88052 WT5  5229 TIP3 H1   HT     0.417000        1.0080           0
   88053 WT5  5229 TIP3 H2   HT     0.417000        1.0080           0
   88054 WT5  5230 TIP3 OH2  OT    -0.834000       15.9994           0
   88055 WT5  5230 TIP3 H1   HT     0.417000        1.0080           0
   88056 WT5  5230 TIP3 H2   HT     0.417000        1.0080           0
   88057 WT5  5231 TIP3 OH2  OT    -0.834000       15.9994           0
   88058 WT5  5231 TIP3 H1   HT     0.417000        1.0080           0
   88059 WT5  5231 TIP3 H2   HT     0.417000        1.0080           0
   88060 WT5  5232 TIP3 OH2  OT    -0.834000       15.9994           0
   88061 WT5  5232 TIP3 H1   HT     0.417000        1.0080           0
   88062 WT5  5232 TIP3 H2   HT     0.417000        1.0080           0
   88063 WT5  5233 TIP3 OH2  OT    -0.834000       15.9994           0
   88064 WT5  5233 TIP3 H1   HT     0.417000        1.0080           0
   88065 WT5  5233 TIP3 H2   HT     0.417000        1.0080           0
   88066 WT5  5234 TIP3 OH2  OT    -0.834000       15.9994           0
   88067 WT5  5234 TIP3 H1   HT     0.417000        1.0080           0
   88068 WT5  5234 TIP3 H2   HT     0.417000        1.0080           0
   88069 WT5  5235 TIP3 OH2  OT    -0.834000       15.9994           0
   88070 WT5  5235 TIP3 H1   HT     0.417000        1.0080           0
   88071 WT5  5235 TIP3 H2   HT     0.417000        1.0080           0
   88072 WT5  5236 TIP3 OH2  OT    -0.834000       15.9994           0
   88073 WT5  5236 TIP3 H1   HT     0.417000        1.0080           0
   88074 WT5  5236 TIP3 H2   HT     0.417000        1.0080           0
   88075 WT5  5237 TIP3 OH2  OT    -0.834000       15.9994           0
   88076 WT5  5237 TIP3 H1   HT     0.417000        1.0080           0
   88077 WT5  5237 TIP3 H2   HT     0.417000        1.0080           0
   88078 WT5  5238 TIP3 OH2  OT    -0.834000       15.9994           0
   88079 WT5  5238 TIP3 H1   HT     0.417000        1.0080           0
   88080 WT5  5238 TIP3 H2   HT     0.417000        1.0080           0
   88081 WT5  5240 TIP3 OH2  OT    -0.834000       15.9994           0
   88082 WT5  5240 TIP3 H1   HT     0.417000        1.0080           0
   88083 WT5  5240 TIP3 H2   HT     0.417000        1.0080           0
   88084 WT5  5241 TIP3 OH2  OT    -0.834000       15.9994           0
   88085 WT5  5241 TIP3 H1   HT     0.417000        1.0080           0
   88086 WT5  5241 TIP3 H2   HT     0.417000        1.0080           0
   88087 WT5  5242 TIP3 OH2  OT    -0.834000       15.9994           0
   88088 WT5  5242 TIP3 H1   HT     0.417000        1.0080           0
   88089 WT5  5242 TIP3 H2   HT     0.417000        1.0080           0
   88090 WT5  5244 TIP3 OH2  OT    -0.834000       15.9994           0
   88091 WT5  5244 TIP3 H1   HT     0.417000        1.0080           0
   88092 WT5  5244 TIP3 H2   HT     0.417000        1.0080           0
   88093 WT5  5246 TIP3 OH2  OT    -0.834000       15.9994           0
   88094 WT5  5246 TIP3 H1   HT     0.417000        1.0080           0
   88095 WT5  5246 TIP3 H2   HT     0.417000        1.0080           0
   88096 WT5  5248 TIP3 OH2  OT    -0.834000       15.9994           0
   88097 WT5  5248 TIP3 H1   HT     0.417000        1.0080           0
   88098 WT5  5248 TIP3 H2   HT     0.417000        1.0080           0
   88099 WT5  5249 TIP3 OH2  OT    -0.834000       15.9994           0
   88100 WT5  5249 TIP3 H1   HT     0.417000        1.0080           0
   88101 WT5  5249 TIP3 H2   HT     0.417000        1.0080           0
   88102 WT5  5251 TIP3 OH2  OT    -0.834000       15.9994           0
   88103 WT5  5251 TIP3 H1   HT     0.417000        1.0080           0
   88104 WT5  5251 TIP3 H2   HT     0.417000        1.0080           0
   88105 WT5  5252 TIP3 OH2  OT    -0.834000       15.9994           0
   88106 WT5  5252 TIP3 H1   HT     0.417000        1.0080           0
   88107 WT5  5252 TIP3 H2   HT     0.417000        1.0080           0
   88108 WT5  5253 TIP3 OH2  OT    -0.834000       15.9994           0
   88109 WT5  5253 TIP3 H1   HT     0.417000        1.0080           0
   88110 WT5  5253 TIP3 H2   HT     0.417000        1.0080           0
   88111 WT5  5254 TIP3 OH2  OT    -0.834000       15.9994           0
   88112 WT5  5254 TIP3 H1   HT     0.417000        1.0080           0
   88113 WT5  5254 TIP3 H2   HT     0.417000        1.0080           0
   88114 WT5  5255 TIP3 OH2  OT    -0.834000       15.9994           0
   88115 WT5  5255 TIP3 H1   HT     0.417000        1.0080           0
   88116 WT5  5255 TIP3 H2   HT     0.417000        1.0080           0
   88117 WT5  5256 TIP3 OH2  OT    -0.834000       15.9994           0
   88118 WT5  5256 TIP3 H1   HT     0.417000        1.0080           0
   88119 WT5  5256 TIP3 H2   HT     0.417000        1.0080           0
   88120 WT5  5257 TIP3 OH2  OT    -0.834000       15.9994           0
   88121 WT5  5257 TIP3 H1   HT     0.417000        1.0080           0
   88122 WT5  5257 TIP3 H2   HT     0.417000        1.0080           0
   88123 WT5  5258 TIP3 OH2  OT    -0.834000       15.9994           0
   88124 WT5  5258 TIP3 H1   HT     0.417000        1.0080           0
   88125 WT5  5258 TIP3 H2   HT     0.417000        1.0080           0
   88126 WT5  5259 TIP3 OH2  OT    -0.834000       15.9994           0
   88127 WT5  5259 TIP3 H1   HT     0.417000        1.0080           0
   88128 WT5  5259 TIP3 H2   HT     0.417000        1.0080           0
   88129 WT5  5260 TIP3 OH2  OT    -0.834000       15.9994           0
   88130 WT5  5260 TIP3 H1   HT     0.417000        1.0080           0
   88131 WT5  5260 TIP3 H2   HT     0.417000        1.0080           0
   88132 WT5  5261 TIP3 OH2  OT    -0.834000       15.9994           0
   88133 WT5  5261 TIP3 H1   HT     0.417000        1.0080           0
   88134 WT5  5261 TIP3 H2   HT     0.417000        1.0080           0
   88135 WT5  5262 TIP3 OH2  OT    -0.834000       15.9994           0
   88136 WT5  5262 TIP3 H1   HT     0.417000        1.0080           0
   88137 WT5  5262 TIP3 H2   HT     0.417000        1.0080           0
   88138 WT5  5263 TIP3 OH2  OT    -0.834000       15.9994           0
   88139 WT5  5263 TIP3 H1   HT     0.417000        1.0080           0
   88140 WT5  5263 TIP3 H2   HT     0.417000        1.0080           0
   88141 WT5  5264 TIP3 OH2  OT    -0.834000       15.9994           0
   88142 WT5  5264 TIP3 H1   HT     0.417000        1.0080           0
   88143 WT5  5264 TIP3 H2   HT     0.417000        1.0080           0
   88144 WT5  5265 TIP3 OH2  OT    -0.834000       15.9994           0
   88145 WT5  5265 TIP3 H1   HT     0.417000        1.0080           0
   88146 WT5  5265 TIP3 H2   HT     0.417000        1.0080           0
   88147 WT5  5266 TIP3 OH2  OT    -0.834000       15.9994           0
   88148 WT5  5266 TIP3 H1   HT     0.417000        1.0080           0
   88149 WT5  5266 TIP3 H2   HT     0.417000        1.0080           0
   88150 WT5  5267 TIP3 OH2  OT    -0.834000       15.9994           0
   88151 WT5  5267 TIP3 H1   HT     0.417000        1.0080           0
   88152 WT5  5267 TIP3 H2   HT     0.417000        1.0080           0
   88153 WT5  5269 TIP3 OH2  OT    -0.834000       15.9994           0
   88154 WT5  5269 TIP3 H1   HT     0.417000        1.0080           0
   88155 WT5  5269 TIP3 H2   HT     0.417000        1.0080           0
   88156 WT5  5270 TIP3 OH2  OT    -0.834000       15.9994           0
   88157 WT5  5270 TIP3 H1   HT     0.417000        1.0080           0
   88158 WT5  5270 TIP3 H2   HT     0.417000        1.0080           0
   88159 WT5  5272 TIP3 OH2  OT    -0.834000       15.9994           0
   88160 WT5  5272 TIP3 H1   HT     0.417000        1.0080           0
   88161 WT5  5272 TIP3 H2   HT     0.417000        1.0080           0
   88162 WT5  5273 TIP3 OH2  OT    -0.834000       15.9994           0
   88163 WT5  5273 TIP3 H1   HT     0.417000        1.0080           0
   88164 WT5  5273 TIP3 H2   HT     0.417000        1.0080           0
   88165 WT5  5274 TIP3 OH2  OT    -0.834000       15.9994           0
   88166 WT5  5274 TIP3 H1   HT     0.417000        1.0080           0
   88167 WT5  5274 TIP3 H2   HT     0.417000        1.0080           0
   88168 WT5  5275 TIP3 OH2  OT    -0.834000       15.9994           0
   88169 WT5  5275 TIP3 H1   HT     0.417000        1.0080           0
   88170 WT5  5275 TIP3 H2   HT     0.417000        1.0080           0
   88171 WT5  5276 TIP3 OH2  OT    -0.834000       15.9994           0
   88172 WT5  5276 TIP3 H1   HT     0.417000        1.0080           0
   88173 WT5  5276 TIP3 H2   HT     0.417000        1.0080           0
   88174 WT5  5277 TIP3 OH2  OT    -0.834000       15.9994           0
   88175 WT5  5277 TIP3 H1   HT     0.417000        1.0080           0
   88176 WT5  5277 TIP3 H2   HT     0.417000        1.0080           0
   88177 WT5  5278 TIP3 OH2  OT    -0.834000       15.9994           0
   88178 WT5  5278 TIP3 H1   HT     0.417000        1.0080           0
   88179 WT5  5278 TIP3 H2   HT     0.417000        1.0080           0
   88180 WT5  5279 TIP3 OH2  OT    -0.834000       15.9994           0
   88181 WT5  5279 TIP3 H1   HT     0.417000        1.0080           0
   88182 WT5  5279 TIP3 H2   HT     0.417000        1.0080           0
   88183 WT5  5280 TIP3 OH2  OT    -0.834000       15.9994           0
   88184 WT5  5280 TIP3 H1   HT     0.417000        1.0080           0
   88185 WT5  5280 TIP3 H2   HT     0.417000        1.0080           0
   88186 WT5  5281 TIP3 OH2  OT    -0.834000       15.9994           0
   88187 WT5  5281 TIP3 H1   HT     0.417000        1.0080           0
   88188 WT5  5281 TIP3 H2   HT     0.417000        1.0080           0
   88189 WT5  5282 TIP3 OH2  OT    -0.834000       15.9994           0
   88190 WT5  5282 TIP3 H1   HT     0.417000        1.0080           0
   88191 WT5  5282 TIP3 H2   HT     0.417000        1.0080           0
   88192 WT5  5283 TIP3 OH2  OT    -0.834000       15.9994           0
   88193 WT5  5283 TIP3 H1   HT     0.417000        1.0080           0
   88194 WT5  5283 TIP3 H2   HT     0.417000        1.0080           0
   88195 WT5  5284 TIP3 OH2  OT    -0.834000       15.9994           0
   88196 WT5  5284 TIP3 H1   HT     0.417000        1.0080           0
   88197 WT5  5284 TIP3 H2   HT     0.417000        1.0080           0
   88198 WT5  5285 TIP3 OH2  OT    -0.834000       15.9994           0
   88199 WT5  5285 TIP3 H1   HT     0.417000        1.0080           0
   88200 WT5  5285 TIP3 H2   HT     0.417000        1.0080           0
   88201 WT5  5286 TIP3 OH2  OT    -0.834000       15.9994           0
   88202 WT5  5286 TIP3 H1   HT     0.417000        1.0080           0
   88203 WT5  5286 TIP3 H2   HT     0.417000        1.0080           0
   88204 WT5  5287 TIP3 OH2  OT    -0.834000       15.9994           0
   88205 WT5  5287 TIP3 H1   HT     0.417000        1.0080           0
   88206 WT5  5287 TIP3 H2   HT     0.417000        1.0080           0
   88207 WT5  5289 TIP3 OH2  OT    -0.834000       15.9994           0
   88208 WT5  5289 TIP3 H1   HT     0.417000        1.0080           0
   88209 WT5  5289 TIP3 H2   HT     0.417000        1.0080           0
   88210 WT5  5291 TIP3 OH2  OT    -0.834000       15.9994           0
   88211 WT5  5291 TIP3 H1   HT     0.417000        1.0080           0
   88212 WT5  5291 TIP3 H2   HT     0.417000        1.0080           0
   88213 WT5  5292 TIP3 OH2  OT    -0.834000       15.9994           0
   88214 WT5  5292 TIP3 H1   HT     0.417000        1.0080           0
   88215 WT5  5292 TIP3 H2   HT     0.417000        1.0080           0
   88216 WT5  5293 TIP3 OH2  OT    -0.834000       15.9994           0
   88217 WT5  5293 TIP3 H1   HT     0.417000        1.0080           0
   88218 WT5  5293 TIP3 H2   HT     0.417000        1.0080           0
   88219 WT5  5294 TIP3 OH2  OT    -0.834000       15.9994           0
   88220 WT5  5294 TIP3 H1   HT     0.417000        1.0080           0
   88221 WT5  5294 TIP3 H2   HT     0.417000        1.0080           0
   88222 WT5  5295 TIP3 OH2  OT    -0.834000       15.9994           0
   88223 WT5  5295 TIP3 H1   HT     0.417000        1.0080           0
   88224 WT5  5295 TIP3 H2   HT     0.417000        1.0080           0
   88225 WT5  5299 TIP3 OH2  OT    -0.834000       15.9994           0
   88226 WT5  5299 TIP3 H1   HT     0.417000        1.0080           0
   88227 WT5  5299 TIP3 H2   HT     0.417000        1.0080           0
   88228 WT5  5300 TIP3 OH2  OT    -0.834000       15.9994           0
   88229 WT5  5300 TIP3 H1   HT     0.417000        1.0080           0
   88230 WT5  5300 TIP3 H2   HT     0.417000        1.0080           0
   88231 WT5  5302 TIP3 OH2  OT    -0.834000       15.9994           0
   88232 WT5  5302 TIP3 H1   HT     0.417000        1.0080           0
   88233 WT5  5302 TIP3 H2   HT     0.417000        1.0080           0
   88234 WT5  5303 TIP3 OH2  OT    -0.834000       15.9994           0
   88235 WT5  5303 TIP3 H1   HT     0.417000        1.0080           0
   88236 WT5  5303 TIP3 H2   HT     0.417000        1.0080           0
   88237 WT5  5307 TIP3 OH2  OT    -0.834000       15.9994           0
   88238 WT5  5307 TIP3 H1   HT     0.417000        1.0080           0
   88239 WT5  5307 TIP3 H2   HT     0.417000        1.0080           0
   88240 WT5  5308 TIP3 OH2  OT    -0.834000       15.9994           0
   88241 WT5  5308 TIP3 H1   HT     0.417000        1.0080           0
   88242 WT5  5308 TIP3 H2   HT     0.417000        1.0080           0
   88243 WT5  5309 TIP3 OH2  OT    -0.834000       15.9994           0
   88244 WT5  5309 TIP3 H1   HT     0.417000        1.0080           0
   88245 WT5  5309 TIP3 H2   HT     0.417000        1.0080           0
   88246 WT5  5310 TIP3 OH2  OT    -0.834000       15.9994           0
   88247 WT5  5310 TIP3 H1   HT     0.417000        1.0080           0
   88248 WT5  5310 TIP3 H2   HT     0.417000        1.0080           0
   88249 WT5  5315 TIP3 OH2  OT    -0.834000       15.9994           0
   88250 WT5  5315 TIP3 H1   HT     0.417000        1.0080           0
   88251 WT5  5315 TIP3 H2   HT     0.417000        1.0080           0
   88252 WT5  5317 TIP3 OH2  OT    -0.834000       15.9994           0
   88253 WT5  5317 TIP3 H1   HT     0.417000        1.0080           0
   88254 WT5  5317 TIP3 H2   HT     0.417000        1.0080           0
   88255 WT5  5318 TIP3 OH2  OT    -0.834000       15.9994           0
   88256 WT5  5318 TIP3 H1   HT     0.417000        1.0080           0
   88257 WT5  5318 TIP3 H2   HT     0.417000        1.0080           0
   88258 WT5  5319 TIP3 OH2  OT    -0.834000       15.9994           0
   88259 WT5  5319 TIP3 H1   HT     0.417000        1.0080           0
   88260 WT5  5319 TIP3 H2   HT     0.417000        1.0080           0
   88261 WT5  5320 TIP3 OH2  OT    -0.834000       15.9994           0
   88262 WT5  5320 TIP3 H1   HT     0.417000        1.0080           0
   88263 WT5  5320 TIP3 H2   HT     0.417000        1.0080           0
   88264 WT5  5321 TIP3 OH2  OT    -0.834000       15.9994           0
   88265 WT5  5321 TIP3 H1   HT     0.417000        1.0080           0
   88266 WT5  5321 TIP3 H2   HT     0.417000        1.0080           0
   88267 WT5  5323 TIP3 OH2  OT    -0.834000       15.9994           0
   88268 WT5  5323 TIP3 H1   HT     0.417000        1.0080           0
   88269 WT5  5323 TIP3 H2   HT     0.417000        1.0080           0
   88270 WT5  5324 TIP3 OH2  OT    -0.834000       15.9994           0
   88271 WT5  5324 TIP3 H1   HT     0.417000        1.0080           0
   88272 WT5  5324 TIP3 H2   HT     0.417000        1.0080           0
   88273 WT5  5325 TIP3 OH2  OT    -0.834000       15.9994           0
   88274 WT5  5325 TIP3 H1   HT     0.417000        1.0080           0
   88275 WT5  5325 TIP3 H2   HT     0.417000        1.0080           0
   88276 WT5  5326 TIP3 OH2  OT    -0.834000       15.9994           0
   88277 WT5  5326 TIP3 H1   HT     0.417000        1.0080           0
   88278 WT5  5326 TIP3 H2   HT     0.417000        1.0080           0
   88279 WT5  5327 TIP3 OH2  OT    -0.834000       15.9994           0
   88280 WT5  5327 TIP3 H1   HT     0.417000        1.0080           0
   88281 WT5  5327 TIP3 H2   HT     0.417000        1.0080           0
   88282 WT5  5328 TIP3 OH2  OT    -0.834000       15.9994           0
   88283 WT5  5328 TIP3 H1   HT     0.417000        1.0080           0
   88284 WT5  5328 TIP3 H2   HT     0.417000        1.0080           0
   88285 WT5  5329 TIP3 OH2  OT    -0.834000       15.9994           0
   88286 WT5  5329 TIP3 H1   HT     0.417000        1.0080           0
   88287 WT5  5329 TIP3 H2   HT     0.417000        1.0080           0
   88288 WT5  5330 TIP3 OH2  OT    -0.834000       15.9994           0
   88289 WT5  5330 TIP3 H1   HT     0.417000        1.0080           0
   88290 WT5  5330 TIP3 H2   HT     0.417000        1.0080           0
   88291 WT5  5333 TIP3 OH2  OT    -0.834000       15.9994           0
   88292 WT5  5333 TIP3 H1   HT     0.417000        1.0080           0
   88293 WT5  5333 TIP3 H2   HT     0.417000        1.0080           0
   88294 WT5  5334 TIP3 OH2  OT    -0.834000       15.9994           0
   88295 WT5  5334 TIP3 H1   HT     0.417000        1.0080           0
   88296 WT5  5334 TIP3 H2   HT     0.417000        1.0080           0
   88297 WT5  5336 TIP3 OH2  OT    -0.834000       15.9994           0
   88298 WT5  5336 TIP3 H1   HT     0.417000        1.0080           0
   88299 WT5  5336 TIP3 H2   HT     0.417000        1.0080           0
   88300 WT5  5337 TIP3 OH2  OT    -0.834000       15.9994           0
   88301 WT5  5337 TIP3 H1   HT     0.417000        1.0080           0
   88302 WT5  5337 TIP3 H2   HT     0.417000        1.0080           0
   88303 WT5  5338 TIP3 OH2  OT    -0.834000       15.9994           0
   88304 WT5  5338 TIP3 H1   HT     0.417000        1.0080           0
   88305 WT5  5338 TIP3 H2   HT     0.417000        1.0080           0
   88306 WT5  5339 TIP3 OH2  OT    -0.834000       15.9994           0
   88307 WT5  5339 TIP3 H1   HT     0.417000        1.0080           0
   88308 WT5  5339 TIP3 H2   HT     0.417000        1.0080           0
   88309 WT5  5340 TIP3 OH2  OT    -0.834000       15.9994           0
   88310 WT5  5340 TIP3 H1   HT     0.417000        1.0080           0
   88311 WT5  5340 TIP3 H2   HT     0.417000        1.0080           0
   88312 WT5  5341 TIP3 OH2  OT    -0.834000       15.9994           0
   88313 WT5  5341 TIP3 H1   HT     0.417000        1.0080           0
   88314 WT5  5341 TIP3 H2   HT     0.417000        1.0080           0
   88315 WT5  5342 TIP3 OH2  OT    -0.834000       15.9994           0
   88316 WT5  5342 TIP3 H1   HT     0.417000        1.0080           0
   88317 WT5  5342 TIP3 H2   HT     0.417000        1.0080           0
   88318 WT5  5343 TIP3 OH2  OT    -0.834000       15.9994           0
   88319 WT5  5343 TIP3 H1   HT     0.417000        1.0080           0
   88320 WT5  5343 TIP3 H2   HT     0.417000        1.0080           0
   88321 WT5  5344 TIP3 OH2  OT    -0.834000       15.9994           0
   88322 WT5  5344 TIP3 H1   HT     0.417000        1.0080           0
   88323 WT5  5344 TIP3 H2   HT     0.417000        1.0080           0
   88324 WT5  5345 TIP3 OH2  OT    -0.834000       15.9994           0
   88325 WT5  5345 TIP3 H1   HT     0.417000        1.0080           0
   88326 WT5  5345 TIP3 H2   HT     0.417000        1.0080           0
   88327 WT5  5347 TIP3 OH2  OT    -0.834000       15.9994           0
   88328 WT5  5347 TIP3 H1   HT     0.417000        1.0080           0
   88329 WT5  5347 TIP3 H2   HT     0.417000        1.0080           0
   88330 WT5  5348 TIP3 OH2  OT    -0.834000       15.9994           0
   88331 WT5  5348 TIP3 H1   HT     0.417000        1.0080           0
   88332 WT5  5348 TIP3 H2   HT     0.417000        1.0080           0
   88333 WT5  5349 TIP3 OH2  OT    -0.834000       15.9994           0
   88334 WT5  5349 TIP3 H1   HT     0.417000        1.0080           0
   88335 WT5  5349 TIP3 H2   HT     0.417000        1.0080           0
   88336 WT5  5350 TIP3 OH2  OT    -0.834000       15.9994           0
   88337 WT5  5350 TIP3 H1   HT     0.417000        1.0080           0
   88338 WT5  5350 TIP3 H2   HT     0.417000        1.0080           0
   88339 WT5  5352 TIP3 OH2  OT    -0.834000       15.9994           0
   88340 WT5  5352 TIP3 H1   HT     0.417000        1.0080           0
   88341 WT5  5352 TIP3 H2   HT     0.417000        1.0080           0
   88342 WT5  5353 TIP3 OH2  OT    -0.834000       15.9994           0
   88343 WT5  5353 TIP3 H1   HT     0.417000        1.0080           0
   88344 WT5  5353 TIP3 H2   HT     0.417000        1.0080           0
   88345 WT5  5355 TIP3 OH2  OT    -0.834000       15.9994           0
   88346 WT5  5355 TIP3 H1   HT     0.417000        1.0080           0
   88347 WT5  5355 TIP3 H2   HT     0.417000        1.0080           0
   88348 WT5  5356 TIP3 OH2  OT    -0.834000       15.9994           0
   88349 WT5  5356 TIP3 H1   HT     0.417000        1.0080           0
   88350 WT5  5356 TIP3 H2   HT     0.417000        1.0080           0
   88351 WT5  5358 TIP3 OH2  OT    -0.834000       15.9994           0
   88352 WT5  5358 TIP3 H1   HT     0.417000        1.0080           0
   88353 WT5  5358 TIP3 H2   HT     0.417000        1.0080           0
   88354 WT5  5360 TIP3 OH2  OT    -0.834000       15.9994           0
   88355 WT5  5360 TIP3 H1   HT     0.417000        1.0080           0
   88356 WT5  5360 TIP3 H2   HT     0.417000        1.0080           0
   88357 WT5  5361 TIP3 OH2  OT    -0.834000       15.9994           0
   88358 WT5  5361 TIP3 H1   HT     0.417000        1.0080           0
   88359 WT5  5361 TIP3 H2   HT     0.417000        1.0080           0
   88360 WT5  5362 TIP3 OH2  OT    -0.834000       15.9994           0
   88361 WT5  5362 TIP3 H1   HT     0.417000        1.0080           0
   88362 WT5  5362 TIP3 H2   HT     0.417000        1.0080           0
   88363 WT5  5364 TIP3 OH2  OT    -0.834000       15.9994           0
   88364 WT5  5364 TIP3 H1   HT     0.417000        1.0080           0
   88365 WT5  5364 TIP3 H2   HT     0.417000        1.0080           0
   88366 WT5  5365 TIP3 OH2  OT    -0.834000       15.9994           0
   88367 WT5  5365 TIP3 H1   HT     0.417000        1.0080           0
   88368 WT5  5365 TIP3 H2   HT     0.417000        1.0080           0
   88369 WT5  5366 TIP3 OH2  OT    -0.834000       15.9994           0
   88370 WT5  5366 TIP3 H1   HT     0.417000        1.0080           0
   88371 WT5  5366 TIP3 H2   HT     0.417000        1.0080           0
   88372 WT5  5367 TIP3 OH2  OT    -0.834000       15.9994           0
   88373 WT5  5367 TIP3 H1   HT     0.417000        1.0080           0
   88374 WT5  5367 TIP3 H2   HT     0.417000        1.0080           0
   88375 WT5  5369 TIP3 OH2  OT    -0.834000       15.9994           0
   88376 WT5  5369 TIP3 H1   HT     0.417000        1.0080           0
   88377 WT5  5369 TIP3 H2   HT     0.417000        1.0080           0
   88378 WT5  5370 TIP3 OH2  OT    -0.834000       15.9994           0
   88379 WT5  5370 TIP3 H1   HT     0.417000        1.0080           0
   88380 WT5  5370 TIP3 H2   HT     0.417000        1.0080           0
   88381 WT5  5371 TIP3 OH2  OT    -0.834000       15.9994           0
   88382 WT5  5371 TIP3 H1   HT     0.417000        1.0080           0
   88383 WT5  5371 TIP3 H2   HT     0.417000        1.0080           0
   88384 WT5  5372 TIP3 OH2  OT    -0.834000       15.9994           0
   88385 WT5  5372 TIP3 H1   HT     0.417000        1.0080           0
   88386 WT5  5372 TIP3 H2   HT     0.417000        1.0080           0
   88387 WT5  5375 TIP3 OH2  OT    -0.834000       15.9994           0
   88388 WT5  5375 TIP3 H1   HT     0.417000        1.0080           0
   88389 WT5  5375 TIP3 H2   HT     0.417000        1.0080           0
   88390 WT5  5376 TIP3 OH2  OT    -0.834000       15.9994           0
   88391 WT5  5376 TIP3 H1   HT     0.417000        1.0080           0
   88392 WT5  5376 TIP3 H2   HT     0.417000        1.0080           0
   88393 WT5  5377 TIP3 OH2  OT    -0.834000       15.9994           0
   88394 WT5  5377 TIP3 H1   HT     0.417000        1.0080           0
   88395 WT5  5377 TIP3 H2   HT     0.417000        1.0080           0
   88396 WT5  5378 TIP3 OH2  OT    -0.834000       15.9994           0
   88397 WT5  5378 TIP3 H1   HT     0.417000        1.0080           0
   88398 WT5  5378 TIP3 H2   HT     0.417000        1.0080           0
   88399 WT5  5380 TIP3 OH2  OT    -0.834000       15.9994           0
   88400 WT5  5380 TIP3 H1   HT     0.417000        1.0080           0
   88401 WT5  5380 TIP3 H2   HT     0.417000        1.0080           0
   88402 WT5  5381 TIP3 OH2  OT    -0.834000       15.9994           0
   88403 WT5  5381 TIP3 H1   HT     0.417000        1.0080           0
   88404 WT5  5381 TIP3 H2   HT     0.417000        1.0080           0
   88405 WT5  5382 TIP3 OH2  OT    -0.834000       15.9994           0
   88406 WT5  5382 TIP3 H1   HT     0.417000        1.0080           0
   88407 WT5  5382 TIP3 H2   HT     0.417000        1.0080           0
   88408 WT5  5383 TIP3 OH2  OT    -0.834000       15.9994           0
   88409 WT5  5383 TIP3 H1   HT     0.417000        1.0080           0
   88410 WT5  5383 TIP3 H2   HT     0.417000        1.0080           0
   88411 WT5  5384 TIP3 OH2  OT    -0.834000       15.9994           0
   88412 WT5  5384 TIP3 H1   HT     0.417000        1.0080           0
   88413 WT5  5384 TIP3 H2   HT     0.417000        1.0080           0
   88414 WT5  5385 TIP3 OH2  OT    -0.834000       15.9994           0
   88415 WT5  5385 TIP3 H1   HT     0.417000        1.0080           0
   88416 WT5  5385 TIP3 H2   HT     0.417000        1.0080           0
   88417 WT5  5387 TIP3 OH2  OT    -0.834000       15.9994           0
   88418 WT5  5387 TIP3 H1   HT     0.417000        1.0080           0
   88419 WT5  5387 TIP3 H2   HT     0.417000        1.0080           0
   88420 WT5  5388 TIP3 OH2  OT    -0.834000       15.9994           0
   88421 WT5  5388 TIP3 H1   HT     0.417000        1.0080           0
   88422 WT5  5388 TIP3 H2   HT     0.417000        1.0080           0
   88423 WT5  5389 TIP3 OH2  OT    -0.834000       15.9994           0
   88424 WT5  5389 TIP3 H1   HT     0.417000        1.0080           0
   88425 WT5  5389 TIP3 H2   HT     0.417000        1.0080           0
   88426 WT5  5391 TIP3 OH2  OT    -0.834000       15.9994           0
   88427 WT5  5391 TIP3 H1   HT     0.417000        1.0080           0
   88428 WT5  5391 TIP3 H2   HT     0.417000        1.0080           0
   88429 WT5  5392 TIP3 OH2  OT    -0.834000       15.9994           0
   88430 WT5  5392 TIP3 H1   HT     0.417000        1.0080           0
   88431 WT5  5392 TIP3 H2   HT     0.417000        1.0080           0
   88432 WT5  5393 TIP3 OH2  OT    -0.834000       15.9994           0
   88433 WT5  5393 TIP3 H1   HT     0.417000        1.0080           0
   88434 WT5  5393 TIP3 H2   HT     0.417000        1.0080           0
   88435 WT5  5394 TIP3 OH2  OT    -0.834000       15.9994           0
   88436 WT5  5394 TIP3 H1   HT     0.417000        1.0080           0
   88437 WT5  5394 TIP3 H2   HT     0.417000        1.0080           0
   88438 WT5  5395 TIP3 OH2  OT    -0.834000       15.9994           0
   88439 WT5  5395 TIP3 H1   HT     0.417000        1.0080           0
   88440 WT5  5395 TIP3 H2   HT     0.417000        1.0080           0
   88441 WT5  5396 TIP3 OH2  OT    -0.834000       15.9994           0
   88442 WT5  5396 TIP3 H1   HT     0.417000        1.0080           0
   88443 WT5  5396 TIP3 H2   HT     0.417000        1.0080           0
   88444 WT5  5398 TIP3 OH2  OT    -0.834000       15.9994           0
   88445 WT5  5398 TIP3 H1   HT     0.417000        1.0080           0
   88446 WT5  5398 TIP3 H2   HT     0.417000        1.0080           0
   88447 WT5  5400 TIP3 OH2  OT    -0.834000       15.9994           0
   88448 WT5  5400 TIP3 H1   HT     0.417000        1.0080           0
   88449 WT5  5400 TIP3 H2   HT     0.417000        1.0080           0
   88450 WT5  5401 TIP3 OH2  OT    -0.834000       15.9994           0
   88451 WT5  5401 TIP3 H1   HT     0.417000        1.0080           0
   88452 WT5  5401 TIP3 H2   HT     0.417000        1.0080           0
   88453 WT5  5403 TIP3 OH2  OT    -0.834000       15.9994           0
   88454 WT5  5403 TIP3 H1   HT     0.417000        1.0080           0
   88455 WT5  5403 TIP3 H2   HT     0.417000        1.0080           0
   88456 WT5  5404 TIP3 OH2  OT    -0.834000       15.9994           0
   88457 WT5  5404 TIP3 H1   HT     0.417000        1.0080           0
   88458 WT5  5404 TIP3 H2   HT     0.417000        1.0080           0
   88459 WT5  5405 TIP3 OH2  OT    -0.834000       15.9994           0
   88460 WT5  5405 TIP3 H1   HT     0.417000        1.0080           0
   88461 WT5  5405 TIP3 H2   HT     0.417000        1.0080           0
   88462 WT5  5406 TIP3 OH2  OT    -0.834000       15.9994           0
   88463 WT5  5406 TIP3 H1   HT     0.417000        1.0080           0
   88464 WT5  5406 TIP3 H2   HT     0.417000        1.0080           0
   88465 WT5  5408 TIP3 OH2  OT    -0.834000       15.9994           0
   88466 WT5  5408 TIP3 H1   HT     0.417000        1.0080           0
   88467 WT5  5408 TIP3 H2   HT     0.417000        1.0080           0
   88468 WT5  5409 TIP3 OH2  OT    -0.834000       15.9994           0
   88469 WT5  5409 TIP3 H1   HT     0.417000        1.0080           0
   88470 WT5  5409 TIP3 H2   HT     0.417000        1.0080           0
   88471 WT5  5410 TIP3 OH2  OT    -0.834000       15.9994           0
   88472 WT5  5410 TIP3 H1   HT     0.417000        1.0080           0
   88473 WT5  5410 TIP3 H2   HT     0.417000        1.0080           0
   88474 WT5  5411 TIP3 OH2  OT    -0.834000       15.9994           0
   88475 WT5  5411 TIP3 H1   HT     0.417000        1.0080           0
   88476 WT5  5411 TIP3 H2   HT     0.417000        1.0080           0
   88477 WT5  5412 TIP3 OH2  OT    -0.834000       15.9994           0
   88478 WT5  5412 TIP3 H1   HT     0.417000        1.0080           0
   88479 WT5  5412 TIP3 H2   HT     0.417000        1.0080           0
   88480 WT5  5413 TIP3 OH2  OT    -0.834000       15.9994           0
   88481 WT5  5413 TIP3 H1   HT     0.417000        1.0080           0
   88482 WT5  5413 TIP3 H2   HT     0.417000        1.0080           0
   88483 WT5  5414 TIP3 OH2  OT    -0.834000       15.9994           0
   88484 WT5  5414 TIP3 H1   HT     0.417000        1.0080           0
   88485 WT5  5414 TIP3 H2   HT     0.417000        1.0080           0
   88486 WT5  5415 TIP3 OH2  OT    -0.834000       15.9994           0
   88487 WT5  5415 TIP3 H1   HT     0.417000        1.0080           0
   88488 WT5  5415 TIP3 H2   HT     0.417000        1.0080           0
   88489 WT5  5417 TIP3 OH2  OT    -0.834000       15.9994           0
   88490 WT5  5417 TIP3 H1   HT     0.417000        1.0080           0
   88491 WT5  5417 TIP3 H2   HT     0.417000        1.0080           0
   88492 WT5  5418 TIP3 OH2  OT    -0.834000       15.9994           0
   88493 WT5  5418 TIP3 H1   HT     0.417000        1.0080           0
   88494 WT5  5418 TIP3 H2   HT     0.417000        1.0080           0
   88495 WT5  5421 TIP3 OH2  OT    -0.834000       15.9994           0
   88496 WT5  5421 TIP3 H1   HT     0.417000        1.0080           0
   88497 WT5  5421 TIP3 H2   HT     0.417000        1.0080           0
   88498 WT5  5423 TIP3 OH2  OT    -0.834000       15.9994           0
   88499 WT5  5423 TIP3 H1   HT     0.417000        1.0080           0
   88500 WT5  5423 TIP3 H2   HT     0.417000        1.0080           0
   88501 WT5  5424 TIP3 OH2  OT    -0.834000       15.9994           0
   88502 WT5  5424 TIP3 H1   HT     0.417000        1.0080           0
   88503 WT5  5424 TIP3 H2   HT     0.417000        1.0080           0
   88504 WT5  5425 TIP3 OH2  OT    -0.834000       15.9994           0
   88505 WT5  5425 TIP3 H1   HT     0.417000        1.0080           0
   88506 WT5  5425 TIP3 H2   HT     0.417000        1.0080           0
   88507 WT5  5426 TIP3 OH2  OT    -0.834000       15.9994           0
   88508 WT5  5426 TIP3 H1   HT     0.417000        1.0080           0
   88509 WT5  5426 TIP3 H2   HT     0.417000        1.0080           0
   88510 WT5  5427 TIP3 OH2  OT    -0.834000       15.9994           0
   88511 WT5  5427 TIP3 H1   HT     0.417000        1.0080           0
   88512 WT5  5427 TIP3 H2   HT     0.417000        1.0080           0
   88513 WT5  5428 TIP3 OH2  OT    -0.834000       15.9994           0
   88514 WT5  5428 TIP3 H1   HT     0.417000        1.0080           0
   88515 WT5  5428 TIP3 H2   HT     0.417000        1.0080           0
   88516 WT5  5429 TIP3 OH2  OT    -0.834000       15.9994           0
   88517 WT5  5429 TIP3 H1   HT     0.417000        1.0080           0
   88518 WT5  5429 TIP3 H2   HT     0.417000        1.0080           0
   88519 WT5  5430 TIP3 OH2  OT    -0.834000       15.9994           0
   88520 WT5  5430 TIP3 H1   HT     0.417000        1.0080           0
   88521 WT5  5430 TIP3 H2   HT     0.417000        1.0080           0
   88522 WT5  5431 TIP3 OH2  OT    -0.834000       15.9994           0
   88523 WT5  5431 TIP3 H1   HT     0.417000        1.0080           0
   88524 WT5  5431 TIP3 H2   HT     0.417000        1.0080           0
   88525 WT5  5432 TIP3 OH2  OT    -0.834000       15.9994           0
   88526 WT5  5432 TIP3 H1   HT     0.417000        1.0080           0
   88527 WT5  5432 TIP3 H2   HT     0.417000        1.0080           0
   88528 WT5  5433 TIP3 OH2  OT    -0.834000       15.9994           0
   88529 WT5  5433 TIP3 H1   HT     0.417000        1.0080           0
   88530 WT5  5433 TIP3 H2   HT     0.417000        1.0080           0
   88531 WT5  5434 TIP3 OH2  OT    -0.834000       15.9994           0
   88532 WT5  5434 TIP3 H1   HT     0.417000        1.0080           0
   88533 WT5  5434 TIP3 H2   HT     0.417000        1.0080           0
   88534 WT5  5435 TIP3 OH2  OT    -0.834000       15.9994           0
   88535 WT5  5435 TIP3 H1   HT     0.417000        1.0080           0
   88536 WT5  5435 TIP3 H2   HT     0.417000        1.0080           0
   88537 WT5  5440 TIP3 OH2  OT    -0.834000       15.9994           0
   88538 WT5  5440 TIP3 H1   HT     0.417000        1.0080           0
   88539 WT5  5440 TIP3 H2   HT     0.417000        1.0080           0
   88540 WT5  5443 TIP3 OH2  OT    -0.834000       15.9994           0
   88541 WT5  5443 TIP3 H1   HT     0.417000        1.0080           0
   88542 WT5  5443 TIP3 H2   HT     0.417000        1.0080           0
   88543 WT5  5444 TIP3 OH2  OT    -0.834000       15.9994           0
   88544 WT5  5444 TIP3 H1   HT     0.417000        1.0080           0
   88545 WT5  5444 TIP3 H2   HT     0.417000        1.0080           0
   88546 WT5  5445 TIP3 OH2  OT    -0.834000       15.9994           0
   88547 WT5  5445 TIP3 H1   HT     0.417000        1.0080           0
   88548 WT5  5445 TIP3 H2   HT     0.417000        1.0080           0
   88549 WT5  5446 TIP3 OH2  OT    -0.834000       15.9994           0
   88550 WT5  5446 TIP3 H1   HT     0.417000        1.0080           0
   88551 WT5  5446 TIP3 H2   HT     0.417000        1.0080           0
   88552 WT5  5448 TIP3 OH2  OT    -0.834000       15.9994           0
   88553 WT5  5448 TIP3 H1   HT     0.417000        1.0080           0
   88554 WT5  5448 TIP3 H2   HT     0.417000        1.0080           0
   88555 WT5  5451 TIP3 OH2  OT    -0.834000       15.9994           0
   88556 WT5  5451 TIP3 H1   HT     0.417000        1.0080           0
   88557 WT5  5451 TIP3 H2   HT     0.417000        1.0080           0
   88558 WT5  5453 TIP3 OH2  OT    -0.834000       15.9994           0
   88559 WT5  5453 TIP3 H1   HT     0.417000        1.0080           0
   88560 WT5  5453 TIP3 H2   HT     0.417000        1.0080           0
   88561 WT5  5454 TIP3 OH2  OT    -0.834000       15.9994           0
   88562 WT5  5454 TIP3 H1   HT     0.417000        1.0080           0
   88563 WT5  5454 TIP3 H2   HT     0.417000        1.0080           0
   88564 WT5  5455 TIP3 OH2  OT    -0.834000       15.9994           0
   88565 WT5  5455 TIP3 H1   HT     0.417000        1.0080           0
   88566 WT5  5455 TIP3 H2   HT     0.417000        1.0080           0
   88567 WT5  5456 TIP3 OH2  OT    -0.834000       15.9994           0
   88568 WT5  5456 TIP3 H1   HT     0.417000        1.0080           0
   88569 WT5  5456 TIP3 H2   HT     0.417000        1.0080           0
   88570 WT5  5457 TIP3 OH2  OT    -0.834000       15.9994           0
   88571 WT5  5457 TIP3 H1   HT     0.417000        1.0080           0
   88572 WT5  5457 TIP3 H2   HT     0.417000        1.0080           0
   88573 WT5  5461 TIP3 OH2  OT    -0.834000       15.9994           0
   88574 WT5  5461 TIP3 H1   HT     0.417000        1.0080           0
   88575 WT5  5461 TIP3 H2   HT     0.417000        1.0080           0
   88576 WT5  5462 TIP3 OH2  OT    -0.834000       15.9994           0
   88577 WT5  5462 TIP3 H1   HT     0.417000        1.0080           0
   88578 WT5  5462 TIP3 H2   HT     0.417000        1.0080           0
   88579 WT5  5463 TIP3 OH2  OT    -0.834000       15.9994           0
   88580 WT5  5463 TIP3 H1   HT     0.417000        1.0080           0
   88581 WT5  5463 TIP3 H2   HT     0.417000        1.0080           0
   88582 WT5  5465 TIP3 OH2  OT    -0.834000       15.9994           0
   88583 WT5  5465 TIP3 H1   HT     0.417000        1.0080           0
   88584 WT5  5465 TIP3 H2   HT     0.417000        1.0080           0
   88585 WT5  5466 TIP3 OH2  OT    -0.834000       15.9994           0
   88586 WT5  5466 TIP3 H1   HT     0.417000        1.0080           0
   88587 WT5  5466 TIP3 H2   HT     0.417000        1.0080           0
   88588 WT5  5468 TIP3 OH2  OT    -0.834000       15.9994           0
   88589 WT5  5468 TIP3 H1   HT     0.417000        1.0080           0
   88590 WT5  5468 TIP3 H2   HT     0.417000        1.0080           0
   88591 WT5  5470 TIP3 OH2  OT    -0.834000       15.9994           0
   88592 WT5  5470 TIP3 H1   HT     0.417000        1.0080           0
   88593 WT5  5470 TIP3 H2   HT     0.417000        1.0080           0
   88594 WT5  5472 TIP3 OH2  OT    -0.834000       15.9994           0
   88595 WT5  5472 TIP3 H1   HT     0.417000        1.0080           0
   88596 WT5  5472 TIP3 H2   HT     0.417000        1.0080           0
   88597 WT5  5473 TIP3 OH2  OT    -0.834000       15.9994           0
   88598 WT5  5473 TIP3 H1   HT     0.417000        1.0080           0
   88599 WT5  5473 TIP3 H2   HT     0.417000        1.0080           0
   88600 WT5  5477 TIP3 OH2  OT    -0.834000       15.9994           0
   88601 WT5  5477 TIP3 H1   HT     0.417000        1.0080           0
   88602 WT5  5477 TIP3 H2   HT     0.417000        1.0080           0
   88603 WT5  5479 TIP3 OH2  OT    -0.834000       15.9994           0
   88604 WT5  5479 TIP3 H1   HT     0.417000        1.0080           0
   88605 WT5  5479 TIP3 H2   HT     0.417000        1.0080           0
   88606 WT5  5484 TIP3 OH2  OT    -0.834000       15.9994           0
   88607 WT5  5484 TIP3 H1   HT     0.417000        1.0080           0
   88608 WT5  5484 TIP3 H2   HT     0.417000        1.0080           0
   88609 WT5  5485 TIP3 OH2  OT    -0.834000       15.9994           0
   88610 WT5  5485 TIP3 H1   HT     0.417000        1.0080           0
   88611 WT5  5485 TIP3 H2   HT     0.417000        1.0080           0
   88612 WT5  5487 TIP3 OH2  OT    -0.834000       15.9994           0
   88613 WT5  5487 TIP3 H1   HT     0.417000        1.0080           0
   88614 WT5  5487 TIP3 H2   HT     0.417000        1.0080           0
   88615 WT5  5489 TIP3 OH2  OT    -0.834000       15.9994           0
   88616 WT5  5489 TIP3 H1   HT     0.417000        1.0080           0
   88617 WT5  5489 TIP3 H2   HT     0.417000        1.0080           0
   88618 WT5  5490 TIP3 OH2  OT    -0.834000       15.9994           0
   88619 WT5  5490 TIP3 H1   HT     0.417000        1.0080           0
   88620 WT5  5490 TIP3 H2   HT     0.417000        1.0080           0
   88621 WT5  5493 TIP3 OH2  OT    -0.834000       15.9994           0
   88622 WT5  5493 TIP3 H1   HT     0.417000        1.0080           0
   88623 WT5  5493 TIP3 H2   HT     0.417000        1.0080           0
   88624 WT5  5496 TIP3 OH2  OT    -0.834000       15.9994           0
   88625 WT5  5496 TIP3 H1   HT     0.417000        1.0080           0
   88626 WT5  5496 TIP3 H2   HT     0.417000        1.0080           0
   88627 WT5  5497 TIP3 OH2  OT    -0.834000       15.9994           0
   88628 WT5  5497 TIP3 H1   HT     0.417000        1.0080           0
   88629 WT5  5497 TIP3 H2   HT     0.417000        1.0080           0
   88630 WT5  5499 TIP3 OH2  OT    -0.834000       15.9994           0
   88631 WT5  5499 TIP3 H1   HT     0.417000        1.0080           0
   88632 WT5  5499 TIP3 H2   HT     0.417000        1.0080           0
   88633 WT5  5501 TIP3 OH2  OT    -0.834000       15.9994           0
   88634 WT5  5501 TIP3 H1   HT     0.417000        1.0080           0
   88635 WT5  5501 TIP3 H2   HT     0.417000        1.0080           0
   88636 WT5  5502 TIP3 OH2  OT    -0.834000       15.9994           0
   88637 WT5  5502 TIP3 H1   HT     0.417000        1.0080           0
   88638 WT5  5502 TIP3 H2   HT     0.417000        1.0080           0
   88639 WT5  5504 TIP3 OH2  OT    -0.834000       15.9994           0
   88640 WT5  5504 TIP3 H1   HT     0.417000        1.0080           0
   88641 WT5  5504 TIP3 H2   HT     0.417000        1.0080           0
   88642 WT5  5505 TIP3 OH2  OT    -0.834000       15.9994           0
   88643 WT5  5505 TIP3 H1   HT     0.417000        1.0080           0
   88644 WT5  5505 TIP3 H2   HT     0.417000        1.0080           0
   88645 WT5  5507 TIP3 OH2  OT    -0.834000       15.9994           0
   88646 WT5  5507 TIP3 H1   HT     0.417000        1.0080           0
   88647 WT5  5507 TIP3 H2   HT     0.417000        1.0080           0
   88648 WT5  5508 TIP3 OH2  OT    -0.834000       15.9994           0
   88649 WT5  5508 TIP3 H1   HT     0.417000        1.0080           0
   88650 WT5  5508 TIP3 H2   HT     0.417000        1.0080           0
   88651 WT5  5509 TIP3 OH2  OT    -0.834000       15.9994           0
   88652 WT5  5509 TIP3 H1   HT     0.417000        1.0080           0
   88653 WT5  5509 TIP3 H2   HT     0.417000        1.0080           0
   88654 WT5  5510 TIP3 OH2  OT    -0.834000       15.9994           0
   88655 WT5  5510 TIP3 H1   HT     0.417000        1.0080           0
   88656 WT5  5510 TIP3 H2   HT     0.417000        1.0080           0
   88657 WT5  5511 TIP3 OH2  OT    -0.834000       15.9994           0
   88658 WT5  5511 TIP3 H1   HT     0.417000        1.0080           0
   88659 WT5  5511 TIP3 H2   HT     0.417000        1.0080           0
   88660 WT5  5514 TIP3 OH2  OT    -0.834000       15.9994           0
   88661 WT5  5514 TIP3 H1   HT     0.417000        1.0080           0
   88662 WT5  5514 TIP3 H2   HT     0.417000        1.0080           0
   88663 WT5  5518 TIP3 OH2  OT    -0.834000       15.9994           0
   88664 WT5  5518 TIP3 H1   HT     0.417000        1.0080           0
   88665 WT5  5518 TIP3 H2   HT     0.417000        1.0080           0
   88666 WT5  5520 TIP3 OH2  OT    -0.834000       15.9994           0
   88667 WT5  5520 TIP3 H1   HT     0.417000        1.0080           0
   88668 WT5  5520 TIP3 H2   HT     0.417000        1.0080           0
   88669 WT5  5522 TIP3 OH2  OT    -0.834000       15.9994           0
   88670 WT5  5522 TIP3 H1   HT     0.417000        1.0080           0
   88671 WT5  5522 TIP3 H2   HT     0.417000        1.0080           0
   88672 WT5  5523 TIP3 OH2  OT    -0.834000       15.9994           0
   88673 WT5  5523 TIP3 H1   HT     0.417000        1.0080           0
   88674 WT5  5523 TIP3 H2   HT     0.417000        1.0080           0
   88675 WT5  5528 TIP3 OH2  OT    -0.834000       15.9994           0
   88676 WT5  5528 TIP3 H1   HT     0.417000        1.0080           0
   88677 WT5  5528 TIP3 H2   HT     0.417000        1.0080           0
   88678 WT5  5530 TIP3 OH2  OT    -0.834000       15.9994           0
   88679 WT5  5530 TIP3 H1   HT     0.417000        1.0080           0
   88680 WT5  5530 TIP3 H2   HT     0.417000        1.0080           0
   88681 WT5  5531 TIP3 OH2  OT    -0.834000       15.9994           0
   88682 WT5  5531 TIP3 H1   HT     0.417000        1.0080           0
   88683 WT5  5531 TIP3 H2   HT     0.417000        1.0080           0
   88684 WT5  5532 TIP3 OH2  OT    -0.834000       15.9994           0
   88685 WT5  5532 TIP3 H1   HT     0.417000        1.0080           0
   88686 WT5  5532 TIP3 H2   HT     0.417000        1.0080           0
   88687 WT5  5535 TIP3 OH2  OT    -0.834000       15.9994           0
   88688 WT5  5535 TIP3 H1   HT     0.417000        1.0080           0
   88689 WT5  5535 TIP3 H2   HT     0.417000        1.0080           0
   88690 WT5  5537 TIP3 OH2  OT    -0.834000       15.9994           0
   88691 WT5  5537 TIP3 H1   HT     0.417000        1.0080           0
   88692 WT5  5537 TIP3 H2   HT     0.417000        1.0080           0
   88693 WT5  5539 TIP3 OH2  OT    -0.834000       15.9994           0
   88694 WT5  5539 TIP3 H1   HT     0.417000        1.0080           0
   88695 WT5  5539 TIP3 H2   HT     0.417000        1.0080           0
   88696 WT5  5540 TIP3 OH2  OT    -0.834000       15.9994           0
   88697 WT5  5540 TIP3 H1   HT     0.417000        1.0080           0
   88698 WT5  5540 TIP3 H2   HT     0.417000        1.0080           0
   88699 WT5  5541 TIP3 OH2  OT    -0.834000       15.9994           0
   88700 WT5  5541 TIP3 H1   HT     0.417000        1.0080           0
   88701 WT5  5541 TIP3 H2   HT     0.417000        1.0080           0
   88702 WT5  5545 TIP3 OH2  OT    -0.834000       15.9994           0
   88703 WT5  5545 TIP3 H1   HT     0.417000        1.0080           0
   88704 WT5  5545 TIP3 H2   HT     0.417000        1.0080           0
   88705 WT5  5548 TIP3 OH2  OT    -0.834000       15.9994           0
   88706 WT5  5548 TIP3 H1   HT     0.417000        1.0080           0
   88707 WT5  5548 TIP3 H2   HT     0.417000        1.0080           0
   88708 WT5  5549 TIP3 OH2  OT    -0.834000       15.9994           0
   88709 WT5  5549 TIP3 H1   HT     0.417000        1.0080           0
   88710 WT5  5549 TIP3 H2   HT     0.417000        1.0080           0
   88711 WT5  5550 TIP3 OH2  OT    -0.834000       15.9994           0
   88712 WT5  5550 TIP3 H1   HT     0.417000        1.0080           0
   88713 WT5  5550 TIP3 H2   HT     0.417000        1.0080           0
   88714 WT5  5551 TIP3 OH2  OT    -0.834000       15.9994           0
   88715 WT5  5551 TIP3 H1   HT     0.417000        1.0080           0
   88716 WT5  5551 TIP3 H2   HT     0.417000        1.0080           0
   88717 WT5  5552 TIP3 OH2  OT    -0.834000       15.9994           0
   88718 WT5  5552 TIP3 H1   HT     0.417000        1.0080           0
   88719 WT5  5552 TIP3 H2   HT     0.417000        1.0080           0
   88720 WT5  5554 TIP3 OH2  OT    -0.834000       15.9994           0
   88721 WT5  5554 TIP3 H1   HT     0.417000        1.0080           0
   88722 WT5  5554 TIP3 H2   HT     0.417000        1.0080           0
   88723 WT5  5555 TIP3 OH2  OT    -0.834000       15.9994           0
   88724 WT5  5555 TIP3 H1   HT     0.417000        1.0080           0
   88725 WT5  5555 TIP3 H2   HT     0.417000        1.0080           0
   88726 WT5  5557 TIP3 OH2  OT    -0.834000       15.9994           0
   88727 WT5  5557 TIP3 H1   HT     0.417000        1.0080           0
   88728 WT5  5557 TIP3 H2   HT     0.417000        1.0080           0
   88729 WT5  5558 TIP3 OH2  OT    -0.834000       15.9994           0
   88730 WT5  5558 TIP3 H1   HT     0.417000        1.0080           0
   88731 WT5  5558 TIP3 H2   HT     0.417000        1.0080           0
   88732 WT5  5560 TIP3 OH2  OT    -0.834000       15.9994           0
   88733 WT5  5560 TIP3 H1   HT     0.417000        1.0080           0
   88734 WT5  5560 TIP3 H2   HT     0.417000        1.0080           0
   88735 WT5  5561 TIP3 OH2  OT    -0.834000       15.9994           0
   88736 WT5  5561 TIP3 H1   HT     0.417000        1.0080           0
   88737 WT5  5561 TIP3 H2   HT     0.417000        1.0080           0
   88738 WT5  5565 TIP3 OH2  OT    -0.834000       15.9994           0
   88739 WT5  5565 TIP3 H1   HT     0.417000        1.0080           0
   88740 WT5  5565 TIP3 H2   HT     0.417000        1.0080           0
   88741 WT5  5566 TIP3 OH2  OT    -0.834000       15.9994           0
   88742 WT5  5566 TIP3 H1   HT     0.417000        1.0080           0
   88743 WT5  5566 TIP3 H2   HT     0.417000        1.0080           0
   88744 WT5  5567 TIP3 OH2  OT    -0.834000       15.9994           0
   88745 WT5  5567 TIP3 H1   HT     0.417000        1.0080           0
   88746 WT5  5567 TIP3 H2   HT     0.417000        1.0080           0
   88747 WT5  5568 TIP3 OH2  OT    -0.834000       15.9994           0
   88748 WT5  5568 TIP3 H1   HT     0.417000        1.0080           0
   88749 WT5  5568 TIP3 H2   HT     0.417000        1.0080           0
   88750 WT5  5569 TIP3 OH2  OT    -0.834000       15.9994           0
   88751 WT5  5569 TIP3 H1   HT     0.417000        1.0080           0
   88752 WT5  5569 TIP3 H2   HT     0.417000        1.0080           0
   88753 WT5  5570 TIP3 OH2  OT    -0.834000       15.9994           0
   88754 WT5  5570 TIP3 H1   HT     0.417000        1.0080           0
   88755 WT5  5570 TIP3 H2   HT     0.417000        1.0080           0
   88756 WT5  5571 TIP3 OH2  OT    -0.834000       15.9994           0
   88757 WT5  5571 TIP3 H1   HT     0.417000        1.0080           0
   88758 WT5  5571 TIP3 H2   HT     0.417000        1.0080           0
   88759 WT5  5572 TIP3 OH2  OT    -0.834000       15.9994           0
   88760 WT5  5572 TIP3 H1   HT     0.417000        1.0080           0
   88761 WT5  5572 TIP3 H2   HT     0.417000        1.0080           0
   88762 WT5  5574 TIP3 OH2  OT    -0.834000       15.9994           0
   88763 WT5  5574 TIP3 H1   HT     0.417000        1.0080           0
   88764 WT5  5574 TIP3 H2   HT     0.417000        1.0080           0
   88765 WT5  5575 TIP3 OH2  OT    -0.834000       15.9994           0
   88766 WT5  5575 TIP3 H1   HT     0.417000        1.0080           0
   88767 WT5  5575 TIP3 H2   HT     0.417000        1.0080           0
   88768 WT5  5582 TIP3 OH2  OT    -0.834000       15.9994           0
   88769 WT5  5582 TIP3 H1   HT     0.417000        1.0080           0
   88770 WT5  5582 TIP3 H2   HT     0.417000        1.0080           0
   88771 WT5  5583 TIP3 OH2  OT    -0.834000       15.9994           0
   88772 WT5  5583 TIP3 H1   HT     0.417000        1.0080           0
   88773 WT5  5583 TIP3 H2   HT     0.417000        1.0080           0
   88774 WT5  5586 TIP3 OH2  OT    -0.834000       15.9994           0
   88775 WT5  5586 TIP3 H1   HT     0.417000        1.0080           0
   88776 WT5  5586 TIP3 H2   HT     0.417000        1.0080           0
   88777 WT5  5590 TIP3 OH2  OT    -0.834000       15.9994           0
   88778 WT5  5590 TIP3 H1   HT     0.417000        1.0080           0
   88779 WT5  5590 TIP3 H2   HT     0.417000        1.0080           0
   88780 WT5  5591 TIP3 OH2  OT    -0.834000       15.9994           0
   88781 WT5  5591 TIP3 H1   HT     0.417000        1.0080           0
   88782 WT5  5591 TIP3 H2   HT     0.417000        1.0080           0
   88783 WT5  5592 TIP3 OH2  OT    -0.834000       15.9994           0
   88784 WT5  5592 TIP3 H1   HT     0.417000        1.0080           0
   88785 WT5  5592 TIP3 H2   HT     0.417000        1.0080           0
   88786 WT5  5593 TIP3 OH2  OT    -0.834000       15.9994           0
   88787 WT5  5593 TIP3 H1   HT     0.417000        1.0080           0
   88788 WT5  5593 TIP3 H2   HT     0.417000        1.0080           0
   88789 WT5  5594 TIP3 OH2  OT    -0.834000       15.9994           0
   88790 WT5  5594 TIP3 H1   HT     0.417000        1.0080           0
   88791 WT5  5594 TIP3 H2   HT     0.417000        1.0080           0
   88792 WT5  5595 TIP3 OH2  OT    -0.834000       15.9994           0
   88793 WT5  5595 TIP3 H1   HT     0.417000        1.0080           0
   88794 WT5  5595 TIP3 H2   HT     0.417000        1.0080           0
   88795 WT5  5597 TIP3 OH2  OT    -0.834000       15.9994           0
   88796 WT5  5597 TIP3 H1   HT     0.417000        1.0080           0
   88797 WT5  5597 TIP3 H2   HT     0.417000        1.0080           0
   88798 WT5  5598 TIP3 OH2  OT    -0.834000       15.9994           0
   88799 WT5  5598 TIP3 H1   HT     0.417000        1.0080           0
   88800 WT5  5598 TIP3 H2   HT     0.417000        1.0080           0
   88801 WT5  5599 TIP3 OH2  OT    -0.834000       15.9994           0
   88802 WT5  5599 TIP3 H1   HT     0.417000        1.0080           0
   88803 WT5  5599 TIP3 H2   HT     0.417000        1.0080           0
   88804 WT5  5600 TIP3 OH2  OT    -0.834000       15.9994           0
   88805 WT5  5600 TIP3 H1   HT     0.417000        1.0080           0
   88806 WT5  5600 TIP3 H2   HT     0.417000        1.0080           0
   88807 WT5  5601 TIP3 OH2  OT    -0.834000       15.9994           0
   88808 WT5  5601 TIP3 H1   HT     0.417000        1.0080           0
   88809 WT5  5601 TIP3 H2   HT     0.417000        1.0080           0
   88810 WT5  5602 TIP3 OH2  OT    -0.834000       15.9994           0
   88811 WT5  5602 TIP3 H1   HT     0.417000        1.0080           0
   88812 WT5  5602 TIP3 H2   HT     0.417000        1.0080           0
   88813 WT5  5604 TIP3 OH2  OT    -0.834000       15.9994           0
   88814 WT5  5604 TIP3 H1   HT     0.417000        1.0080           0
   88815 WT5  5604 TIP3 H2   HT     0.417000        1.0080           0
   88816 WT5  5605 TIP3 OH2  OT    -0.834000       15.9994           0
   88817 WT5  5605 TIP3 H1   HT     0.417000        1.0080           0
   88818 WT5  5605 TIP3 H2   HT     0.417000        1.0080           0
   88819 WT5  5606 TIP3 OH2  OT    -0.834000       15.9994           0
   88820 WT5  5606 TIP3 H1   HT     0.417000        1.0080           0
   88821 WT5  5606 TIP3 H2   HT     0.417000        1.0080           0
   88822 WT5  5607 TIP3 OH2  OT    -0.834000       15.9994           0
   88823 WT5  5607 TIP3 H1   HT     0.417000        1.0080           0
   88824 WT5  5607 TIP3 H2   HT     0.417000        1.0080           0
   88825 WT5  5608 TIP3 OH2  OT    -0.834000       15.9994           0
   88826 WT5  5608 TIP3 H1   HT     0.417000        1.0080           0
   88827 WT5  5608 TIP3 H2   HT     0.417000        1.0080           0
   88828 WT5  5609 TIP3 OH2  OT    -0.834000       15.9994           0
   88829 WT5  5609 TIP3 H1   HT     0.417000        1.0080           0
   88830 WT5  5609 TIP3 H2   HT     0.417000        1.0080           0
   88831 WT5  5610 TIP3 OH2  OT    -0.834000       15.9994           0
   88832 WT5  5610 TIP3 H1   HT     0.417000        1.0080           0
   88833 WT5  5610 TIP3 H2   HT     0.417000        1.0080           0
   88834 WT5  5611 TIP3 OH2  OT    -0.834000       15.9994           0
   88835 WT5  5611 TIP3 H1   HT     0.417000        1.0080           0
   88836 WT5  5611 TIP3 H2   HT     0.417000        1.0080           0
   88837 WT5  5613 TIP3 OH2  OT    -0.834000       15.9994           0
   88838 WT5  5613 TIP3 H1   HT     0.417000        1.0080           0
   88839 WT5  5613 TIP3 H2   HT     0.417000        1.0080           0
   88840 WT5  5614 TIP3 OH2  OT    -0.834000       15.9994           0
   88841 WT5  5614 TIP3 H1   HT     0.417000        1.0080           0
   88842 WT5  5614 TIP3 H2   HT     0.417000        1.0080           0
   88843 WT5  5616 TIP3 OH2  OT    -0.834000       15.9994           0
   88844 WT5  5616 TIP3 H1   HT     0.417000        1.0080           0
   88845 WT5  5616 TIP3 H2   HT     0.417000        1.0080           0
   88846 WT5  5617 TIP3 OH2  OT    -0.834000       15.9994           0
   88847 WT5  5617 TIP3 H1   HT     0.417000        1.0080           0
   88848 WT5  5617 TIP3 H2   HT     0.417000        1.0080           0
   88849 WT5  5619 TIP3 OH2  OT    -0.834000       15.9994           0
   88850 WT5  5619 TIP3 H1   HT     0.417000        1.0080           0
   88851 WT5  5619 TIP3 H2   HT     0.417000        1.0080           0
   88852 WT5  5620 TIP3 OH2  OT    -0.834000       15.9994           0
   88853 WT5  5620 TIP3 H1   HT     0.417000        1.0080           0
   88854 WT5  5620 TIP3 H2   HT     0.417000        1.0080           0
   88855 WT5  5621 TIP3 OH2  OT    -0.834000       15.9994           0
   88856 WT5  5621 TIP3 H1   HT     0.417000        1.0080           0
   88857 WT5  5621 TIP3 H2   HT     0.417000        1.0080           0
   88858 WT5  5623 TIP3 OH2  OT    -0.834000       15.9994           0
   88859 WT5  5623 TIP3 H1   HT     0.417000        1.0080           0
   88860 WT5  5623 TIP3 H2   HT     0.417000        1.0080           0
   88861 WT5  5624 TIP3 OH2  OT    -0.834000       15.9994           0
   88862 WT5  5624 TIP3 H1   HT     0.417000        1.0080           0
   88863 WT5  5624 TIP3 H2   HT     0.417000        1.0080           0
   88864 WT5  5625 TIP3 OH2  OT    -0.834000       15.9994           0
   88865 WT5  5625 TIP3 H1   HT     0.417000        1.0080           0
   88866 WT5  5625 TIP3 H2   HT     0.417000        1.0080           0
   88867 WT5  5628 TIP3 OH2  OT    -0.834000       15.9994           0
   88868 WT5  5628 TIP3 H1   HT     0.417000        1.0080           0
   88869 WT5  5628 TIP3 H2   HT     0.417000        1.0080           0
   88870 WT5  5631 TIP3 OH2  OT    -0.834000       15.9994           0
   88871 WT5  5631 TIP3 H1   HT     0.417000        1.0080           0
   88872 WT5  5631 TIP3 H2   HT     0.417000        1.0080           0
   88873 WT5  5633 TIP3 OH2  OT    -0.834000       15.9994           0
   88874 WT5  5633 TIP3 H1   HT     0.417000        1.0080           0
   88875 WT5  5633 TIP3 H2   HT     0.417000        1.0080           0
   88876 WT5  5634 TIP3 OH2  OT    -0.834000       15.9994           0
   88877 WT5  5634 TIP3 H1   HT     0.417000        1.0080           0
   88878 WT5  5634 TIP3 H2   HT     0.417000        1.0080           0
   88879 WT5  5635 TIP3 OH2  OT    -0.834000       15.9994           0
   88880 WT5  5635 TIP3 H1   HT     0.417000        1.0080           0
   88881 WT5  5635 TIP3 H2   HT     0.417000        1.0080           0
   88882 WT5  5636 TIP3 OH2  OT    -0.834000       15.9994           0
   88883 WT5  5636 TIP3 H1   HT     0.417000        1.0080           0
   88884 WT5  5636 TIP3 H2   HT     0.417000        1.0080           0
   88885 WT5  5638 TIP3 OH2  OT    -0.834000       15.9994           0
   88886 WT5  5638 TIP3 H1   HT     0.417000        1.0080           0
   88887 WT5  5638 TIP3 H2   HT     0.417000        1.0080           0
   88888 WT5  5639 TIP3 OH2  OT    -0.834000       15.9994           0
   88889 WT5  5639 TIP3 H1   HT     0.417000        1.0080           0
   88890 WT5  5639 TIP3 H2   HT     0.417000        1.0080           0
   88891 WT5  5640 TIP3 OH2  OT    -0.834000       15.9994           0
   88892 WT5  5640 TIP3 H1   HT     0.417000        1.0080           0
   88893 WT5  5640 TIP3 H2   HT     0.417000        1.0080           0
   88894 WT5  5641 TIP3 OH2  OT    -0.834000       15.9994           0
   88895 WT5  5641 TIP3 H1   HT     0.417000        1.0080           0
   88896 WT5  5641 TIP3 H2   HT     0.417000        1.0080           0
   88897 WT5  5643 TIP3 OH2  OT    -0.834000       15.9994           0
   88898 WT5  5643 TIP3 H1   HT     0.417000        1.0080           0
   88899 WT5  5643 TIP3 H2   HT     0.417000        1.0080           0
   88900 WT5  5645 TIP3 OH2  OT    -0.834000       15.9994           0
   88901 WT5  5645 TIP3 H1   HT     0.417000        1.0080           0
   88902 WT5  5645 TIP3 H2   HT     0.417000        1.0080           0
   88903 WT5  5646 TIP3 OH2  OT    -0.834000       15.9994           0
   88904 WT5  5646 TIP3 H1   HT     0.417000        1.0080           0
   88905 WT5  5646 TIP3 H2   HT     0.417000        1.0080           0
   88906 WT5  5647 TIP3 OH2  OT    -0.834000       15.9994           0
   88907 WT5  5647 TIP3 H1   HT     0.417000        1.0080           0
   88908 WT5  5647 TIP3 H2   HT     0.417000        1.0080           0
   88909 WT5  5649 TIP3 OH2  OT    -0.834000       15.9994           0
   88910 WT5  5649 TIP3 H1   HT     0.417000        1.0080           0
   88911 WT5  5649 TIP3 H2   HT     0.417000        1.0080           0
   88912 WT5  5652 TIP3 OH2  OT    -0.834000       15.9994           0
   88913 WT5  5652 TIP3 H1   HT     0.417000        1.0080           0
   88914 WT5  5652 TIP3 H2   HT     0.417000        1.0080           0
   88915 WT5  5653 TIP3 OH2  OT    -0.834000       15.9994           0
   88916 WT5  5653 TIP3 H1   HT     0.417000        1.0080           0
   88917 WT5  5653 TIP3 H2   HT     0.417000        1.0080           0
   88918 WT5  5655 TIP3 OH2  OT    -0.834000       15.9994           0
   88919 WT5  5655 TIP3 H1   HT     0.417000        1.0080           0
   88920 WT5  5655 TIP3 H2   HT     0.417000        1.0080           0
   88921 WT5  5656 TIP3 OH2  OT    -0.834000       15.9994           0
   88922 WT5  5656 TIP3 H1   HT     0.417000        1.0080           0
   88923 WT5  5656 TIP3 H2   HT     0.417000        1.0080           0
   88924 WT5  5659 TIP3 OH2  OT    -0.834000       15.9994           0
   88925 WT5  5659 TIP3 H1   HT     0.417000        1.0080           0
   88926 WT5  5659 TIP3 H2   HT     0.417000        1.0080           0
   88927 WT5  5660 TIP3 OH2  OT    -0.834000       15.9994           0
   88928 WT5  5660 TIP3 H1   HT     0.417000        1.0080           0
   88929 WT5  5660 TIP3 H2   HT     0.417000        1.0080           0
   88930 WT5  5661 TIP3 OH2  OT    -0.834000       15.9994           0
   88931 WT5  5661 TIP3 H1   HT     0.417000        1.0080           0
   88932 WT5  5661 TIP3 H2   HT     0.417000        1.0080           0
   88933 WT5  5662 TIP3 OH2  OT    -0.834000       15.9994           0
   88934 WT5  5662 TIP3 H1   HT     0.417000        1.0080           0
   88935 WT5  5662 TIP3 H2   HT     0.417000        1.0080           0
   88936 WT5  5663 TIP3 OH2  OT    -0.834000       15.9994           0
   88937 WT5  5663 TIP3 H1   HT     0.417000        1.0080           0
   88938 WT5  5663 TIP3 H2   HT     0.417000        1.0080           0
   88939 WT5  5664 TIP3 OH2  OT    -0.834000       15.9994           0
   88940 WT5  5664 TIP3 H1   HT     0.417000        1.0080           0
   88941 WT5  5664 TIP3 H2   HT     0.417000        1.0080           0
   88942 WT5  5665 TIP3 OH2  OT    -0.834000       15.9994           0
   88943 WT5  5665 TIP3 H1   HT     0.417000        1.0080           0
   88944 WT5  5665 TIP3 H2   HT     0.417000        1.0080           0
   88945 WT5  5666 TIP3 OH2  OT    -0.834000       15.9994           0
   88946 WT5  5666 TIP3 H1   HT     0.417000        1.0080           0
   88947 WT5  5666 TIP3 H2   HT     0.417000        1.0080           0
   88948 WT5  5667 TIP3 OH2  OT    -0.834000       15.9994           0
   88949 WT5  5667 TIP3 H1   HT     0.417000        1.0080           0
   88950 WT5  5667 TIP3 H2   HT     0.417000        1.0080           0
   88951 WT5  5668 TIP3 OH2  OT    -0.834000       15.9994           0
   88952 WT5  5668 TIP3 H1   HT     0.417000        1.0080           0
   88953 WT5  5668 TIP3 H2   HT     0.417000        1.0080           0
   88954 WT5  5669 TIP3 OH2  OT    -0.834000       15.9994           0
   88955 WT5  5669 TIP3 H1   HT     0.417000        1.0080           0
   88956 WT5  5669 TIP3 H2   HT     0.417000        1.0080           0
   88957 WT5  5670 TIP3 OH2  OT    -0.834000       15.9994           0
   88958 WT5  5670 TIP3 H1   HT     0.417000        1.0080           0
   88959 WT5  5670 TIP3 H2   HT     0.417000        1.0080           0
   88960 WT5  5673 TIP3 OH2  OT    -0.834000       15.9994           0
   88961 WT5  5673 TIP3 H1   HT     0.417000        1.0080           0
   88962 WT5  5673 TIP3 H2   HT     0.417000        1.0080           0
   88963 WT5  5674 TIP3 OH2  OT    -0.834000       15.9994           0
   88964 WT5  5674 TIP3 H1   HT     0.417000        1.0080           0
   88965 WT5  5674 TIP3 H2   HT     0.417000        1.0080           0
   88966 WT5  5675 TIP3 OH2  OT    -0.834000       15.9994           0
   88967 WT5  5675 TIP3 H1   HT     0.417000        1.0080           0
   88968 WT5  5675 TIP3 H2   HT     0.417000        1.0080           0
   88969 WT5  5676 TIP3 OH2  OT    -0.834000       15.9994           0
   88970 WT5  5676 TIP3 H1   HT     0.417000        1.0080           0
   88971 WT5  5676 TIP3 H2   HT     0.417000        1.0080           0
   88972 WT5  5679 TIP3 OH2  OT    -0.834000       15.9994           0
   88973 WT5  5679 TIP3 H1   HT     0.417000        1.0080           0
   88974 WT5  5679 TIP3 H2   HT     0.417000        1.0080           0
   88975 WT5  5680 TIP3 OH2  OT    -0.834000       15.9994           0
   88976 WT5  5680 TIP3 H1   HT     0.417000        1.0080           0
   88977 WT5  5680 TIP3 H2   HT     0.417000        1.0080           0
   88978 WT5  5681 TIP3 OH2  OT    -0.834000       15.9994           0
   88979 WT5  5681 TIP3 H1   HT     0.417000        1.0080           0
   88980 WT5  5681 TIP3 H2   HT     0.417000        1.0080           0
   88981 WT5  5684 TIP3 OH2  OT    -0.834000       15.9994           0
   88982 WT5  5684 TIP3 H1   HT     0.417000        1.0080           0
   88983 WT5  5684 TIP3 H2   HT     0.417000        1.0080           0
   88984 WT5  5685 TIP3 OH2  OT    -0.834000       15.9994           0
   88985 WT5  5685 TIP3 H1   HT     0.417000        1.0080           0
   88986 WT5  5685 TIP3 H2   HT     0.417000        1.0080           0
   88987 WT5  5686 TIP3 OH2  OT    -0.834000       15.9994           0
   88988 WT5  5686 TIP3 H1   HT     0.417000        1.0080           0
   88989 WT5  5686 TIP3 H2   HT     0.417000        1.0080           0
   88990 WT5  5687 TIP3 OH2  OT    -0.834000       15.9994           0
   88991 WT5  5687 TIP3 H1   HT     0.417000        1.0080           0
   88992 WT5  5687 TIP3 H2   HT     0.417000        1.0080           0
   88993 WT5  5688 TIP3 OH2  OT    -0.834000       15.9994           0
   88994 WT5  5688 TIP3 H1   HT     0.417000        1.0080           0
   88995 WT5  5688 TIP3 H2   HT     0.417000        1.0080           0
   88996 WT5  5689 TIP3 OH2  OT    -0.834000       15.9994           0
   88997 WT5  5689 TIP3 H1   HT     0.417000        1.0080           0
   88998 WT5  5689 TIP3 H2   HT     0.417000        1.0080           0
   88999 WT5  5690 TIP3 OH2  OT    -0.834000       15.9994           0
   89000 WT5  5690 TIP3 H1   HT     0.417000        1.0080           0
   89001 WT5  5690 TIP3 H2   HT     0.417000        1.0080           0
   89002 WT5  5693 TIP3 OH2  OT    -0.834000       15.9994           0
   89003 WT5  5693 TIP3 H1   HT     0.417000        1.0080           0
   89004 WT5  5693 TIP3 H2   HT     0.417000        1.0080           0
   89005 WT5  5694 TIP3 OH2  OT    -0.834000       15.9994           0
   89006 WT5  5694 TIP3 H1   HT     0.417000        1.0080           0
   89007 WT5  5694 TIP3 H2   HT     0.417000        1.0080           0
   89008 WT5  5695 TIP3 OH2  OT    -0.834000       15.9994           0
   89009 WT5  5695 TIP3 H1   HT     0.417000        1.0080           0
   89010 WT5  5695 TIP3 H2   HT     0.417000        1.0080           0
   89011 WT5  5696 TIP3 OH2  OT    -0.834000       15.9994           0
   89012 WT5  5696 TIP3 H1   HT     0.417000        1.0080           0
   89013 WT5  5696 TIP3 H2   HT     0.417000        1.0080           0
   89014 WT5  5698 TIP3 OH2  OT    -0.834000       15.9994           0
   89015 WT5  5698 TIP3 H1   HT     0.417000        1.0080           0
   89016 WT5  5698 TIP3 H2   HT     0.417000        1.0080           0
   89017 WT5  5700 TIP3 OH2  OT    -0.834000       15.9994           0
   89018 WT5  5700 TIP3 H1   HT     0.417000        1.0080           0
   89019 WT5  5700 TIP3 H2   HT     0.417000        1.0080           0
   89020 WT5  5705 TIP3 OH2  OT    -0.834000       15.9994           0
   89021 WT5  5705 TIP3 H1   HT     0.417000        1.0080           0
   89022 WT5  5705 TIP3 H2   HT     0.417000        1.0080           0
   89023 WT5  5707 TIP3 OH2  OT    -0.834000       15.9994           0
   89024 WT5  5707 TIP3 H1   HT     0.417000        1.0080           0
   89025 WT5  5707 TIP3 H2   HT     0.417000        1.0080           0
   89026 WT5  5708 TIP3 OH2  OT    -0.834000       15.9994           0
   89027 WT5  5708 TIP3 H1   HT     0.417000        1.0080           0
   89028 WT5  5708 TIP3 H2   HT     0.417000        1.0080           0
   89029 WT5  5710 TIP3 OH2  OT    -0.834000       15.9994           0
   89030 WT5  5710 TIP3 H1   HT     0.417000        1.0080           0
   89031 WT5  5710 TIP3 H2   HT     0.417000        1.0080           0
   89032 WT5  5712 TIP3 OH2  OT    -0.834000       15.9994           0
   89033 WT5  5712 TIP3 H1   HT     0.417000        1.0080           0
   89034 WT5  5712 TIP3 H2   HT     0.417000        1.0080           0
   89035 WT5  5713 TIP3 OH2  OT    -0.834000       15.9994           0
   89036 WT5  5713 TIP3 H1   HT     0.417000        1.0080           0
   89037 WT5  5713 TIP3 H2   HT     0.417000        1.0080           0
   89038 WT5  5714 TIP3 OH2  OT    -0.834000       15.9994           0
   89039 WT5  5714 TIP3 H1   HT     0.417000        1.0080           0
   89040 WT5  5714 TIP3 H2   HT     0.417000        1.0080           0
   89041 WT5  5716 TIP3 OH2  OT    -0.834000       15.9994           0
   89042 WT5  5716 TIP3 H1   HT     0.417000        1.0080           0
   89043 WT5  5716 TIP3 H2   HT     0.417000        1.0080           0
   89044 WT5  5717 TIP3 OH2  OT    -0.834000       15.9994           0
   89045 WT5  5717 TIP3 H1   HT     0.417000        1.0080           0
   89046 WT5  5717 TIP3 H2   HT     0.417000        1.0080           0
   89047 WT5  5718 TIP3 OH2  OT    -0.834000       15.9994           0
   89048 WT5  5718 TIP3 H1   HT     0.417000        1.0080           0
   89049 WT5  5718 TIP3 H2   HT     0.417000        1.0080           0
   89050 WT5  5719 TIP3 OH2  OT    -0.834000       15.9994           0
   89051 WT5  5719 TIP3 H1   HT     0.417000        1.0080           0
   89052 WT5  5719 TIP3 H2   HT     0.417000        1.0080           0
   89053 WT5  5720 TIP3 OH2  OT    -0.834000       15.9994           0
   89054 WT5  5720 TIP3 H1   HT     0.417000        1.0080           0
   89055 WT5  5720 TIP3 H2   HT     0.417000        1.0080           0
   89056 WT5  5721 TIP3 OH2  OT    -0.834000       15.9994           0
   89057 WT5  5721 TIP3 H1   HT     0.417000        1.0080           0
   89058 WT5  5721 TIP3 H2   HT     0.417000        1.0080           0
   89059 WT5  5723 TIP3 OH2  OT    -0.834000       15.9994           0
   89060 WT5  5723 TIP3 H1   HT     0.417000        1.0080           0
   89061 WT5  5723 TIP3 H2   HT     0.417000        1.0080           0
   89062 WT5  5724 TIP3 OH2  OT    -0.834000       15.9994           0
   89063 WT5  5724 TIP3 H1   HT     0.417000        1.0080           0
   89064 WT5  5724 TIP3 H2   HT     0.417000        1.0080           0
   89065 WT5  5725 TIP3 OH2  OT    -0.834000       15.9994           0
   89066 WT5  5725 TIP3 H1   HT     0.417000        1.0080           0
   89067 WT5  5725 TIP3 H2   HT     0.417000        1.0080           0
   89068 WT5  5730 TIP3 OH2  OT    -0.834000       15.9994           0
   89069 WT5  5730 TIP3 H1   HT     0.417000        1.0080           0
   89070 WT5  5730 TIP3 H2   HT     0.417000        1.0080           0
   89071 WT5  5731 TIP3 OH2  OT    -0.834000       15.9994           0
   89072 WT5  5731 TIP3 H1   HT     0.417000        1.0080           0
   89073 WT5  5731 TIP3 H2   HT     0.417000        1.0080           0
   89074 WT5  5732 TIP3 OH2  OT    -0.834000       15.9994           0
   89075 WT5  5732 TIP3 H1   HT     0.417000        1.0080           0
   89076 WT5  5732 TIP3 H2   HT     0.417000        1.0080           0
   89077 WT5  5733 TIP3 OH2  OT    -0.834000       15.9994           0
   89078 WT5  5733 TIP3 H1   HT     0.417000        1.0080           0
   89079 WT5  5733 TIP3 H2   HT     0.417000        1.0080           0
   89080 WT5  5734 TIP3 OH2  OT    -0.834000       15.9994           0
   89081 WT5  5734 TIP3 H1   HT     0.417000        1.0080           0
   89082 WT5  5734 TIP3 H2   HT     0.417000        1.0080           0
   89083 WT5  5736 TIP3 OH2  OT    -0.834000       15.9994           0
   89084 WT5  5736 TIP3 H1   HT     0.417000        1.0080           0
   89085 WT5  5736 TIP3 H2   HT     0.417000        1.0080           0
   89086 WT5  5740 TIP3 OH2  OT    -0.834000       15.9994           0
   89087 WT5  5740 TIP3 H1   HT     0.417000        1.0080           0
   89088 WT5  5740 TIP3 H2   HT     0.417000        1.0080           0
   89089 WT5  5741 TIP3 OH2  OT    -0.834000       15.9994           0
   89090 WT5  5741 TIP3 H1   HT     0.417000        1.0080           0
   89091 WT5  5741 TIP3 H2   HT     0.417000        1.0080           0
   89092 WT5  5743 TIP3 OH2  OT    -0.834000       15.9994           0
   89093 WT5  5743 TIP3 H1   HT     0.417000        1.0080           0
   89094 WT5  5743 TIP3 H2   HT     0.417000        1.0080           0
   89095 WT5  5745 TIP3 OH2  OT    -0.834000       15.9994           0
   89096 WT5  5745 TIP3 H1   HT     0.417000        1.0080           0
   89097 WT5  5745 TIP3 H2   HT     0.417000        1.0080           0
   89098 WT5  5747 TIP3 OH2  OT    -0.834000       15.9994           0
   89099 WT5  5747 TIP3 H1   HT     0.417000        1.0080           0
   89100 WT5  5747 TIP3 H2   HT     0.417000        1.0080           0
   89101 WT5  5748 TIP3 OH2  OT    -0.834000       15.9994           0
   89102 WT5  5748 TIP3 H1   HT     0.417000        1.0080           0
   89103 WT5  5748 TIP3 H2   HT     0.417000        1.0080           0
   89104 WT5  5750 TIP3 OH2  OT    -0.834000       15.9994           0
   89105 WT5  5750 TIP3 H1   HT     0.417000        1.0080           0
   89106 WT5  5750 TIP3 H2   HT     0.417000        1.0080           0
   89107 WT5  5751 TIP3 OH2  OT    -0.834000       15.9994           0
   89108 WT5  5751 TIP3 H1   HT     0.417000        1.0080           0
   89109 WT5  5751 TIP3 H2   HT     0.417000        1.0080           0
   89110 WT5  5753 TIP3 OH2  OT    -0.834000       15.9994           0
   89111 WT5  5753 TIP3 H1   HT     0.417000        1.0080           0
   89112 WT5  5753 TIP3 H2   HT     0.417000        1.0080           0
   89113 WT5  5755 TIP3 OH2  OT    -0.834000       15.9994           0
   89114 WT5  5755 TIP3 H1   HT     0.417000        1.0080           0
   89115 WT5  5755 TIP3 H2   HT     0.417000        1.0080           0
   89116 WT5  5756 TIP3 OH2  OT    -0.834000       15.9994           0
   89117 WT5  5756 TIP3 H1   HT     0.417000        1.0080           0
   89118 WT5  5756 TIP3 H2   HT     0.417000        1.0080           0
   89119 WT5  5758 TIP3 OH2  OT    -0.834000       15.9994           0
   89120 WT5  5758 TIP3 H1   HT     0.417000        1.0080           0
   89121 WT5  5758 TIP3 H2   HT     0.417000        1.0080           0
   89122 WT5  5759 TIP3 OH2  OT    -0.834000       15.9994           0
   89123 WT5  5759 TIP3 H1   HT     0.417000        1.0080           0
   89124 WT5  5759 TIP3 H2   HT     0.417000        1.0080           0
   89125 WT5  5760 TIP3 OH2  OT    -0.834000       15.9994           0
   89126 WT5  5760 TIP3 H1   HT     0.417000        1.0080           0
   89127 WT5  5760 TIP3 H2   HT     0.417000        1.0080           0
   89128 WT5  5761 TIP3 OH2  OT    -0.834000       15.9994           0
   89129 WT5  5761 TIP3 H1   HT     0.417000        1.0080           0
   89130 WT5  5761 TIP3 H2   HT     0.417000        1.0080           0
   89131 WT5  5762 TIP3 OH2  OT    -0.834000       15.9994           0
   89132 WT5  5762 TIP3 H1   HT     0.417000        1.0080           0
   89133 WT5  5762 TIP3 H2   HT     0.417000        1.0080           0
   89134 WT5  5765 TIP3 OH2  OT    -0.834000       15.9994           0
   89135 WT5  5765 TIP3 H1   HT     0.417000        1.0080           0
   89136 WT5  5765 TIP3 H2   HT     0.417000        1.0080           0
   89137 WT5  5766 TIP3 OH2  OT    -0.834000       15.9994           0
   89138 WT5  5766 TIP3 H1   HT     0.417000        1.0080           0
   89139 WT5  5766 TIP3 H2   HT     0.417000        1.0080           0
   89140 WT5  5767 TIP3 OH2  OT    -0.834000       15.9994           0
   89141 WT5  5767 TIP3 H1   HT     0.417000        1.0080           0
   89142 WT5  5767 TIP3 H2   HT     0.417000        1.0080           0
   89143 WT5  5768 TIP3 OH2  OT    -0.834000       15.9994           0
   89144 WT5  5768 TIP3 H1   HT     0.417000        1.0080           0
   89145 WT5  5768 TIP3 H2   HT     0.417000        1.0080           0
   89146 WT5  5770 TIP3 OH2  OT    -0.834000       15.9994           0
   89147 WT5  5770 TIP3 H1   HT     0.417000        1.0080           0
   89148 WT5  5770 TIP3 H2   HT     0.417000        1.0080           0
   89149 WT5  5771 TIP3 OH2  OT    -0.834000       15.9994           0
   89150 WT5  5771 TIP3 H1   HT     0.417000        1.0080           0
   89151 WT5  5771 TIP3 H2   HT     0.417000        1.0080           0
   89152 WT5  5772 TIP3 OH2  OT    -0.834000       15.9994           0
   89153 WT5  5772 TIP3 H1   HT     0.417000        1.0080           0
   89154 WT5  5772 TIP3 H2   HT     0.417000        1.0080           0
   89155 WT5  5777 TIP3 OH2  OT    -0.834000       15.9994           0
   89156 WT5  5777 TIP3 H1   HT     0.417000        1.0080           0
   89157 WT5  5777 TIP3 H2   HT     0.417000        1.0080           0
   89158 WT5  5780 TIP3 OH2  OT    -0.834000       15.9994           0
   89159 WT5  5780 TIP3 H1   HT     0.417000        1.0080           0
   89160 WT5  5780 TIP3 H2   HT     0.417000        1.0080           0
   89161 WT5  5782 TIP3 OH2  OT    -0.834000       15.9994           0
   89162 WT5  5782 TIP3 H1   HT     0.417000        1.0080           0
   89163 WT5  5782 TIP3 H2   HT     0.417000        1.0080           0
   89164 WT5  5783 TIP3 OH2  OT    -0.834000       15.9994           0
   89165 WT5  5783 TIP3 H1   HT     0.417000        1.0080           0
   89166 WT5  5783 TIP3 H2   HT     0.417000        1.0080           0
   89167 WT5  5784 TIP3 OH2  OT    -0.834000       15.9994           0
   89168 WT5  5784 TIP3 H1   HT     0.417000        1.0080           0
   89169 WT5  5784 TIP3 H2   HT     0.417000        1.0080           0
   89170 WT5  5785 TIP3 OH2  OT    -0.834000       15.9994           0
   89171 WT5  5785 TIP3 H1   HT     0.417000        1.0080           0
   89172 WT5  5785 TIP3 H2   HT     0.417000        1.0080           0
   89173 WT5  5786 TIP3 OH2  OT    -0.834000       15.9994           0
   89174 WT5  5786 TIP3 H1   HT     0.417000        1.0080           0
   89175 WT5  5786 TIP3 H2   HT     0.417000        1.0080           0
   89176 WT5  5787 TIP3 OH2  OT    -0.834000       15.9994           0
   89177 WT5  5787 TIP3 H1   HT     0.417000        1.0080           0
   89178 WT5  5787 TIP3 H2   HT     0.417000        1.0080           0
   89179 WT5  5788 TIP3 OH2  OT    -0.834000       15.9994           0
   89180 WT5  5788 TIP3 H1   HT     0.417000        1.0080           0
   89181 WT5  5788 TIP3 H2   HT     0.417000        1.0080           0
   89182 WT5  5790 TIP3 OH2  OT    -0.834000       15.9994           0
   89183 WT5  5790 TIP3 H1   HT     0.417000        1.0080           0
   89184 WT5  5790 TIP3 H2   HT     0.417000        1.0080           0
   89185 WT5  5791 TIP3 OH2  OT    -0.834000       15.9994           0
   89186 WT5  5791 TIP3 H1   HT     0.417000        1.0080           0
   89187 WT5  5791 TIP3 H2   HT     0.417000        1.0080           0
   89188 WT5  5794 TIP3 OH2  OT    -0.834000       15.9994           0
   89189 WT5  5794 TIP3 H1   HT     0.417000        1.0080           0
   89190 WT5  5794 TIP3 H2   HT     0.417000        1.0080           0
   89191 WT5  5795 TIP3 OH2  OT    -0.834000       15.9994           0
   89192 WT5  5795 TIP3 H1   HT     0.417000        1.0080           0
   89193 WT5  5795 TIP3 H2   HT     0.417000        1.0080           0
   89194 WT5  5796 TIP3 OH2  OT    -0.834000       15.9994           0
   89195 WT5  5796 TIP3 H1   HT     0.417000        1.0080           0
   89196 WT5  5796 TIP3 H2   HT     0.417000        1.0080           0
   89197 WT5  5797 TIP3 OH2  OT    -0.834000       15.9994           0
   89198 WT5  5797 TIP3 H1   HT     0.417000        1.0080           0
   89199 WT5  5797 TIP3 H2   HT     0.417000        1.0080           0
   89200 WT5  5799 TIP3 OH2  OT    -0.834000       15.9994           0
   89201 WT5  5799 TIP3 H1   HT     0.417000        1.0080           0
   89202 WT5  5799 TIP3 H2   HT     0.417000        1.0080           0
   89203 WT5  5803 TIP3 OH2  OT    -0.834000       15.9994           0
   89204 WT5  5803 TIP3 H1   HT     0.417000        1.0080           0
   89205 WT5  5803 TIP3 H2   HT     0.417000        1.0080           0
   89206 WT5  5804 TIP3 OH2  OT    -0.834000       15.9994           0
   89207 WT5  5804 TIP3 H1   HT     0.417000        1.0080           0
   89208 WT5  5804 TIP3 H2   HT     0.417000        1.0080           0
   89209 WT5  5805 TIP3 OH2  OT    -0.834000       15.9994           0
   89210 WT5  5805 TIP3 H1   HT     0.417000        1.0080           0
   89211 WT5  5805 TIP3 H2   HT     0.417000        1.0080           0
   89212 WT5  5806 TIP3 OH2  OT    -0.834000       15.9994           0
   89213 WT5  5806 TIP3 H1   HT     0.417000        1.0080           0
   89214 WT5  5806 TIP3 H2   HT     0.417000        1.0080           0
   89215 WT5  5807 TIP3 OH2  OT    -0.834000       15.9994           0
   89216 WT5  5807 TIP3 H1   HT     0.417000        1.0080           0
   89217 WT5  5807 TIP3 H2   HT     0.417000        1.0080           0
   89218 WT5  5808 TIP3 OH2  OT    -0.834000       15.9994           0
   89219 WT5  5808 TIP3 H1   HT     0.417000        1.0080           0
   89220 WT5  5808 TIP3 H2   HT     0.417000        1.0080           0
   89221 WT5  5810 TIP3 OH2  OT    -0.834000       15.9994           0
   89222 WT5  5810 TIP3 H1   HT     0.417000        1.0080           0
   89223 WT5  5810 TIP3 H2   HT     0.417000        1.0080           0
   89224 WT5  5811 TIP3 OH2  OT    -0.834000       15.9994           0
   89225 WT5  5811 TIP3 H1   HT     0.417000        1.0080           0
   89226 WT5  5811 TIP3 H2   HT     0.417000        1.0080           0
   89227 WT5  5812 TIP3 OH2  OT    -0.834000       15.9994           0
   89228 WT5  5812 TIP3 H1   HT     0.417000        1.0080           0
   89229 WT5  5812 TIP3 H2   HT     0.417000        1.0080           0
   89230 WT5  5814 TIP3 OH2  OT    -0.834000       15.9994           0
   89231 WT5  5814 TIP3 H1   HT     0.417000        1.0080           0
   89232 WT5  5814 TIP3 H2   HT     0.417000        1.0080           0
   89233 WT5  5818 TIP3 OH2  OT    -0.834000       15.9994           0
   89234 WT5  5818 TIP3 H1   HT     0.417000        1.0080           0
   89235 WT5  5818 TIP3 H2   HT     0.417000        1.0080           0
   89236 WT5  5820 TIP3 OH2  OT    -0.834000       15.9994           0
   89237 WT5  5820 TIP3 H1   HT     0.417000        1.0080           0
   89238 WT5  5820 TIP3 H2   HT     0.417000        1.0080           0
   89239 WT5  5821 TIP3 OH2  OT    -0.834000       15.9994           0
   89240 WT5  5821 TIP3 H1   HT     0.417000        1.0080           0
   89241 WT5  5821 TIP3 H2   HT     0.417000        1.0080           0
   89242 WT5  5822 TIP3 OH2  OT    -0.834000       15.9994           0
   89243 WT5  5822 TIP3 H1   HT     0.417000        1.0080           0
   89244 WT5  5822 TIP3 H2   HT     0.417000        1.0080           0
   89245 WT5  5823 TIP3 OH2  OT    -0.834000       15.9994           0
   89246 WT5  5823 TIP3 H1   HT     0.417000        1.0080           0
   89247 WT5  5823 TIP3 H2   HT     0.417000        1.0080           0
   89248 WT5  5824 TIP3 OH2  OT    -0.834000       15.9994           0
   89249 WT5  5824 TIP3 H1   HT     0.417000        1.0080           0
   89250 WT5  5824 TIP3 H2   HT     0.417000        1.0080           0
   89251 WT5  5825 TIP3 OH2  OT    -0.834000       15.9994           0
   89252 WT5  5825 TIP3 H1   HT     0.417000        1.0080           0
   89253 WT5  5825 TIP3 H2   HT     0.417000        1.0080           0
   89254 WT5  5826 TIP3 OH2  OT    -0.834000       15.9994           0
   89255 WT5  5826 TIP3 H1   HT     0.417000        1.0080           0
   89256 WT5  5826 TIP3 H2   HT     0.417000        1.0080           0
   89257 WT5  5827 TIP3 OH2  OT    -0.834000       15.9994           0
   89258 WT5  5827 TIP3 H1   HT     0.417000        1.0080           0
   89259 WT5  5827 TIP3 H2   HT     0.417000        1.0080           0
   89260 WT5  5829 TIP3 OH2  OT    -0.834000       15.9994           0
   89261 WT5  5829 TIP3 H1   HT     0.417000        1.0080           0
   89262 WT5  5829 TIP3 H2   HT     0.417000        1.0080           0
   89263 WT5  5830 TIP3 OH2  OT    -0.834000       15.9994           0
   89264 WT5  5830 TIP3 H1   HT     0.417000        1.0080           0
   89265 WT5  5830 TIP3 H2   HT     0.417000        1.0080           0
   89266 WT5  5832 TIP3 OH2  OT    -0.834000       15.9994           0
   89267 WT5  5832 TIP3 H1   HT     0.417000        1.0080           0
   89268 WT5  5832 TIP3 H2   HT     0.417000        1.0080           0
   89269 WT5  5834 TIP3 OH2  OT    -0.834000       15.9994           0
   89270 WT5  5834 TIP3 H1   HT     0.417000        1.0080           0
   89271 WT5  5834 TIP3 H2   HT     0.417000        1.0080           0
   89272 WT5  5835 TIP3 OH2  OT    -0.834000       15.9994           0
   89273 WT5  5835 TIP3 H1   HT     0.417000        1.0080           0
   89274 WT5  5835 TIP3 H2   HT     0.417000        1.0080           0
   89275 WT5  5839 TIP3 OH2  OT    -0.834000       15.9994           0
   89276 WT5  5839 TIP3 H1   HT     0.417000        1.0080           0
   89277 WT5  5839 TIP3 H2   HT     0.417000        1.0080           0
   89278 WT5  5840 TIP3 OH2  OT    -0.834000       15.9994           0
   89279 WT5  5840 TIP3 H1   HT     0.417000        1.0080           0
   89280 WT5  5840 TIP3 H2   HT     0.417000        1.0080           0
   89281 WT5  5841 TIP3 OH2  OT    -0.834000       15.9994           0
   89282 WT5  5841 TIP3 H1   HT     0.417000        1.0080           0
   89283 WT5  5841 TIP3 H2   HT     0.417000        1.0080           0
   89284 WT5  5842 TIP3 OH2  OT    -0.834000       15.9994           0
   89285 WT5  5842 TIP3 H1   HT     0.417000        1.0080           0
   89286 WT5  5842 TIP3 H2   HT     0.417000        1.0080           0
   89287 WT5  5844 TIP3 OH2  OT    -0.834000       15.9994           0
   89288 WT5  5844 TIP3 H1   HT     0.417000        1.0080           0
   89289 WT5  5844 TIP3 H2   HT     0.417000        1.0080           0
   89290 WT5  5845 TIP3 OH2  OT    -0.834000       15.9994           0
   89291 WT5  5845 TIP3 H1   HT     0.417000        1.0080           0
   89292 WT5  5845 TIP3 H2   HT     0.417000        1.0080           0
   89293 WT5  5846 TIP3 OH2  OT    -0.834000       15.9994           0
   89294 WT5  5846 TIP3 H1   HT     0.417000        1.0080           0
   89295 WT5  5846 TIP3 H2   HT     0.417000        1.0080           0
   89296 WT5  5847 TIP3 OH2  OT    -0.834000       15.9994           0
   89297 WT5  5847 TIP3 H1   HT     0.417000        1.0080           0
   89298 WT5  5847 TIP3 H2   HT     0.417000        1.0080           0
   89299 WT5  5849 TIP3 OH2  OT    -0.834000       15.9994           0
   89300 WT5  5849 TIP3 H1   HT     0.417000        1.0080           0
   89301 WT5  5849 TIP3 H2   HT     0.417000        1.0080           0
   89302 WT5  5855 TIP3 OH2  OT    -0.834000       15.9994           0
   89303 WT5  5855 TIP3 H1   HT     0.417000        1.0080           0
   89304 WT5  5855 TIP3 H2   HT     0.417000        1.0080           0
   89305 WT5  5860 TIP3 OH2  OT    -0.834000       15.9994           0
   89306 WT5  5860 TIP3 H1   HT     0.417000        1.0080           0
   89307 WT5  5860 TIP3 H2   HT     0.417000        1.0080           0
   89308 WT5  5861 TIP3 OH2  OT    -0.834000       15.9994           0
   89309 WT5  5861 TIP3 H1   HT     0.417000        1.0080           0
   89310 WT5  5861 TIP3 H2   HT     0.417000        1.0080           0
   89311 WT5  5862 TIP3 OH2  OT    -0.834000       15.9994           0
   89312 WT5  5862 TIP3 H1   HT     0.417000        1.0080           0
   89313 WT5  5862 TIP3 H2   HT     0.417000        1.0080           0
   89314 WT5  5864 TIP3 OH2  OT    -0.834000       15.9994           0
   89315 WT5  5864 TIP3 H1   HT     0.417000        1.0080           0
   89316 WT5  5864 TIP3 H2   HT     0.417000        1.0080           0
   89317 WT5  5865 TIP3 OH2  OT    -0.834000       15.9994           0
   89318 WT5  5865 TIP3 H1   HT     0.417000        1.0080           0
   89319 WT5  5865 TIP3 H2   HT     0.417000        1.0080           0
   89320 WT5  5867 TIP3 OH2  OT    -0.834000       15.9994           0
   89321 WT5  5867 TIP3 H1   HT     0.417000        1.0080           0
   89322 WT5  5867 TIP3 H2   HT     0.417000        1.0080           0
   89323 WT5  5868 TIP3 OH2  OT    -0.834000       15.9994           0
   89324 WT5  5868 TIP3 H1   HT     0.417000        1.0080           0
   89325 WT5  5868 TIP3 H2   HT     0.417000        1.0080           0
   89326 WT5  5869 TIP3 OH2  OT    -0.834000       15.9994           0
   89327 WT5  5869 TIP3 H1   HT     0.417000        1.0080           0
   89328 WT5  5869 TIP3 H2   HT     0.417000        1.0080           0
   89329 WT5  5870 TIP3 OH2  OT    -0.834000       15.9994           0
   89330 WT5  5870 TIP3 H1   HT     0.417000        1.0080           0
   89331 WT5  5870 TIP3 H2   HT     0.417000        1.0080           0
   89332 WT5  5873 TIP3 OH2  OT    -0.834000       15.9994           0
   89333 WT5  5873 TIP3 H1   HT     0.417000        1.0080           0
   89334 WT5  5873 TIP3 H2   HT     0.417000        1.0080           0
   89335 WT5  5874 TIP3 OH2  OT    -0.834000       15.9994           0
   89336 WT5  5874 TIP3 H1   HT     0.417000        1.0080           0
   89337 WT5  5874 TIP3 H2   HT     0.417000        1.0080           0
   89338 WT5  5878 TIP3 OH2  OT    -0.834000       15.9994           0
   89339 WT5  5878 TIP3 H1   HT     0.417000        1.0080           0
   89340 WT5  5878 TIP3 H2   HT     0.417000        1.0080           0
   89341 WT5  5881 TIP3 OH2  OT    -0.834000       15.9994           0
   89342 WT5  5881 TIP3 H1   HT     0.417000        1.0080           0
   89343 WT5  5881 TIP3 H2   HT     0.417000        1.0080           0
   89344 WT5  5884 TIP3 OH2  OT    -0.834000       15.9994           0
   89345 WT5  5884 TIP3 H1   HT     0.417000        1.0080           0
   89346 WT5  5884 TIP3 H2   HT     0.417000        1.0080           0
   89347 WT5  5889 TIP3 OH2  OT    -0.834000       15.9994           0
   89348 WT5  5889 TIP3 H1   HT     0.417000        1.0080           0
   89349 WT5  5889 TIP3 H2   HT     0.417000        1.0080           0
   89350 WT5  5890 TIP3 OH2  OT    -0.834000       15.9994           0
   89351 WT5  5890 TIP3 H1   HT     0.417000        1.0080           0
   89352 WT5  5890 TIP3 H2   HT     0.417000        1.0080           0
   89353 WT5  5891 TIP3 OH2  OT    -0.834000       15.9994           0
   89354 WT5  5891 TIP3 H1   HT     0.417000        1.0080           0
   89355 WT5  5891 TIP3 H2   HT     0.417000        1.0080           0
   89356 WT5  5892 TIP3 OH2  OT    -0.834000       15.9994           0
   89357 WT5  5892 TIP3 H1   HT     0.417000        1.0080           0
   89358 WT5  5892 TIP3 H2   HT     0.417000        1.0080           0
   89359 WT5  5894 TIP3 OH2  OT    -0.834000       15.9994           0
   89360 WT5  5894 TIP3 H1   HT     0.417000        1.0080           0
   89361 WT5  5894 TIP3 H2   HT     0.417000        1.0080           0
   89362 WT5  5895 TIP3 OH2  OT    -0.834000       15.9994           0
   89363 WT5  5895 TIP3 H1   HT     0.417000        1.0080           0
   89364 WT5  5895 TIP3 H2   HT     0.417000        1.0080           0
   89365 WT5  5897 TIP3 OH2  OT    -0.834000       15.9994           0
   89366 WT5  5897 TIP3 H1   HT     0.417000        1.0080           0
   89367 WT5  5897 TIP3 H2   HT     0.417000        1.0080           0
   89368 WT5  5898 TIP3 OH2  OT    -0.834000       15.9994           0
   89369 WT5  5898 TIP3 H1   HT     0.417000        1.0080           0
   89370 WT5  5898 TIP3 H2   HT     0.417000        1.0080           0
   89371 WT5  5899 TIP3 OH2  OT    -0.834000       15.9994           0
   89372 WT5  5899 TIP3 H1   HT     0.417000        1.0080           0
   89373 WT5  5899 TIP3 H2   HT     0.417000        1.0080           0
   89374 WT5  5901 TIP3 OH2  OT    -0.834000       15.9994           0
   89375 WT5  5901 TIP3 H1   HT     0.417000        1.0080           0
   89376 WT5  5901 TIP3 H2   HT     0.417000        1.0080           0
   89377 WT5  5902 TIP3 OH2  OT    -0.834000       15.9994           0
   89378 WT5  5902 TIP3 H1   HT     0.417000        1.0080           0
   89379 WT5  5902 TIP3 H2   HT     0.417000        1.0080           0
   89380 WT5  5903 TIP3 OH2  OT    -0.834000       15.9994           0
   89381 WT5  5903 TIP3 H1   HT     0.417000        1.0080           0
   89382 WT5  5903 TIP3 H2   HT     0.417000        1.0080           0
   89383 WT5  5906 TIP3 OH2  OT    -0.834000       15.9994           0
   89384 WT5  5906 TIP3 H1   HT     0.417000        1.0080           0
   89385 WT5  5906 TIP3 H2   HT     0.417000        1.0080           0
   89386 WT5  5907 TIP3 OH2  OT    -0.834000       15.9994           0
   89387 WT5  5907 TIP3 H1   HT     0.417000        1.0080           0
   89388 WT5  5907 TIP3 H2   HT     0.417000        1.0080           0
   89389 WT5  5908 TIP3 OH2  OT    -0.834000       15.9994           0
   89390 WT5  5908 TIP3 H1   HT     0.417000        1.0080           0
   89391 WT5  5908 TIP3 H2   HT     0.417000        1.0080           0
   89392 WT5  5909 TIP3 OH2  OT    -0.834000       15.9994           0
   89393 WT5  5909 TIP3 H1   HT     0.417000        1.0080           0
   89394 WT5  5909 TIP3 H2   HT     0.417000        1.0080           0
   89395 WT5  5910 TIP3 OH2  OT    -0.834000       15.9994           0
   89396 WT5  5910 TIP3 H1   HT     0.417000        1.0080           0
   89397 WT5  5910 TIP3 H2   HT     0.417000        1.0080           0
   89398 WT5  5911 TIP3 OH2  OT    -0.834000       15.9994           0
   89399 WT5  5911 TIP3 H1   HT     0.417000        1.0080           0
   89400 WT5  5911 TIP3 H2   HT     0.417000        1.0080           0
   89401 WT5  5913 TIP3 OH2  OT    -0.834000       15.9994           0
   89402 WT5  5913 TIP3 H1   HT     0.417000        1.0080           0
   89403 WT5  5913 TIP3 H2   HT     0.417000        1.0080           0
   89404 WT5  5914 TIP3 OH2  OT    -0.834000       15.9994           0
   89405 WT5  5914 TIP3 H1   HT     0.417000        1.0080           0
   89406 WT5  5914 TIP3 H2   HT     0.417000        1.0080           0
   89407 WT5  5918 TIP3 OH2  OT    -0.834000       15.9994           0
   89408 WT5  5918 TIP3 H1   HT     0.417000        1.0080           0
   89409 WT5  5918 TIP3 H2   HT     0.417000        1.0080           0
   89410 WT5  5919 TIP3 OH2  OT    -0.834000       15.9994           0
   89411 WT5  5919 TIP3 H1   HT     0.417000        1.0080           0
   89412 WT5  5919 TIP3 H2   HT     0.417000        1.0080           0
   89413 WT5  5920 TIP3 OH2  OT    -0.834000       15.9994           0
   89414 WT5  5920 TIP3 H1   HT     0.417000        1.0080           0
   89415 WT5  5920 TIP3 H2   HT     0.417000        1.0080           0
   89416 WT5  5924 TIP3 OH2  OT    -0.834000       15.9994           0
   89417 WT5  5924 TIP3 H1   HT     0.417000        1.0080           0
   89418 WT5  5924 TIP3 H2   HT     0.417000        1.0080           0
   89419 WT5  5925 TIP3 OH2  OT    -0.834000       15.9994           0
   89420 WT5  5925 TIP3 H1   HT     0.417000        1.0080           0
   89421 WT5  5925 TIP3 H2   HT     0.417000        1.0080           0
   89422 WT5  5926 TIP3 OH2  OT    -0.834000       15.9994           0
   89423 WT5  5926 TIP3 H1   HT     0.417000        1.0080           0
   89424 WT5  5926 TIP3 H2   HT     0.417000        1.0080           0
   89425 WT5  5927 TIP3 OH2  OT    -0.834000       15.9994           0
   89426 WT5  5927 TIP3 H1   HT     0.417000        1.0080           0
   89427 WT5  5927 TIP3 H2   HT     0.417000        1.0080           0
   89428 WT5  5928 TIP3 OH2  OT    -0.834000       15.9994           0
   89429 WT5  5928 TIP3 H1   HT     0.417000        1.0080           0
   89430 WT5  5928 TIP3 H2   HT     0.417000        1.0080           0
   89431 WT5  5929 TIP3 OH2  OT    -0.834000       15.9994           0
   89432 WT5  5929 TIP3 H1   HT     0.417000        1.0080           0
   89433 WT5  5929 TIP3 H2   HT     0.417000        1.0080           0
   89434 WT5  5930 TIP3 OH2  OT    -0.834000       15.9994           0
   89435 WT5  5930 TIP3 H1   HT     0.417000        1.0080           0
   89436 WT5  5930 TIP3 H2   HT     0.417000        1.0080           0
   89437 WT5  5932 TIP3 OH2  OT    -0.834000       15.9994           0
   89438 WT5  5932 TIP3 H1   HT     0.417000        1.0080           0
   89439 WT5  5932 TIP3 H2   HT     0.417000        1.0080           0
   89440 WT5  5933 TIP3 OH2  OT    -0.834000       15.9994           0
   89441 WT5  5933 TIP3 H1   HT     0.417000        1.0080           0
   89442 WT5  5933 TIP3 H2   HT     0.417000        1.0080           0
   89443 WT5  5935 TIP3 OH2  OT    -0.834000       15.9994           0
   89444 WT5  5935 TIP3 H1   HT     0.417000        1.0080           0
   89445 WT5  5935 TIP3 H2   HT     0.417000        1.0080           0
   89446 WT5  5938 TIP3 OH2  OT    -0.834000       15.9994           0
   89447 WT5  5938 TIP3 H1   HT     0.417000        1.0080           0
   89448 WT5  5938 TIP3 H2   HT     0.417000        1.0080           0
   89449 WT5  5941 TIP3 OH2  OT    -0.834000       15.9994           0
   89450 WT5  5941 TIP3 H1   HT     0.417000        1.0080           0
   89451 WT5  5941 TIP3 H2   HT     0.417000        1.0080           0
   89452 WT5  5945 TIP3 OH2  OT    -0.834000       15.9994           0
   89453 WT5  5945 TIP3 H1   HT     0.417000        1.0080           0
   89454 WT5  5945 TIP3 H2   HT     0.417000        1.0080           0
   89455 WT5  5950 TIP3 OH2  OT    -0.834000       15.9994           0
   89456 WT5  5950 TIP3 H1   HT     0.417000        1.0080           0
   89457 WT5  5950 TIP3 H2   HT     0.417000        1.0080           0
   89458 WT5  5952 TIP3 OH2  OT    -0.834000       15.9994           0
   89459 WT5  5952 TIP3 H1   HT     0.417000        1.0080           0
   89460 WT5  5952 TIP3 H2   HT     0.417000        1.0080           0
   89461 WT5  5954 TIP3 OH2  OT    -0.834000       15.9994           0
   89462 WT5  5954 TIP3 H1   HT     0.417000        1.0080           0
   89463 WT5  5954 TIP3 H2   HT     0.417000        1.0080           0
   89464 WT5  5958 TIP3 OH2  OT    -0.834000       15.9994           0
   89465 WT5  5958 TIP3 H1   HT     0.417000        1.0080           0
   89466 WT5  5958 TIP3 H2   HT     0.417000        1.0080           0
   89467 WT5  5961 TIP3 OH2  OT    -0.834000       15.9994           0
   89468 WT5  5961 TIP3 H1   HT     0.417000        1.0080           0
   89469 WT5  5961 TIP3 H2   HT     0.417000        1.0080           0
   89470 WT5  5962 TIP3 OH2  OT    -0.834000       15.9994           0
   89471 WT5  5962 TIP3 H1   HT     0.417000        1.0080           0
   89472 WT5  5962 TIP3 H2   HT     0.417000        1.0080           0
   89473 WT5  5963 TIP3 OH2  OT    -0.834000       15.9994           0
   89474 WT5  5963 TIP3 H1   HT     0.417000        1.0080           0
   89475 WT5  5963 TIP3 H2   HT     0.417000        1.0080           0
   89476 WT5  5965 TIP3 OH2  OT    -0.834000       15.9994           0
   89477 WT5  5965 TIP3 H1   HT     0.417000        1.0080           0
   89478 WT5  5965 TIP3 H2   HT     0.417000        1.0080           0
   89479 WT5  5967 TIP3 OH2  OT    -0.834000       15.9994           0
   89480 WT5  5967 TIP3 H1   HT     0.417000        1.0080           0
   89481 WT5  5967 TIP3 H2   HT     0.417000        1.0080           0
   89482 WT5  5969 TIP3 OH2  OT    -0.834000       15.9994           0
   89483 WT5  5969 TIP3 H1   HT     0.417000        1.0080           0
   89484 WT5  5969 TIP3 H2   HT     0.417000        1.0080           0
   89485 WT5  5970 TIP3 OH2  OT    -0.834000       15.9994           0
   89486 WT5  5970 TIP3 H1   HT     0.417000        1.0080           0
   89487 WT5  5970 TIP3 H2   HT     0.417000        1.0080           0
   89488 WT5  5971 TIP3 OH2  OT    -0.834000       15.9994           0
   89489 WT5  5971 TIP3 H1   HT     0.417000        1.0080           0
   89490 WT5  5971 TIP3 H2   HT     0.417000        1.0080           0
   89491 WT5  5972 TIP3 OH2  OT    -0.834000       15.9994           0
   89492 WT5  5972 TIP3 H1   HT     0.417000        1.0080           0
   89493 WT5  5972 TIP3 H2   HT     0.417000        1.0080           0
   89494 WT5  5973 TIP3 OH2  OT    -0.834000       15.9994           0
   89495 WT5  5973 TIP3 H1   HT     0.417000        1.0080           0
   89496 WT5  5973 TIP3 H2   HT     0.417000        1.0080           0
   89497 WT5  5975 TIP3 OH2  OT    -0.834000       15.9994           0
   89498 WT5  5975 TIP3 H1   HT     0.417000        1.0080           0
   89499 WT5  5975 TIP3 H2   HT     0.417000        1.0080           0
   89500 WT5  5976 TIP3 OH2  OT    -0.834000       15.9994           0
   89501 WT5  5976 TIP3 H1   HT     0.417000        1.0080           0
   89502 WT5  5976 TIP3 H2   HT     0.417000        1.0080           0
   89503 WT5  5977 TIP3 OH2  OT    -0.834000       15.9994           0
   89504 WT5  5977 TIP3 H1   HT     0.417000        1.0080           0
   89505 WT5  5977 TIP3 H2   HT     0.417000        1.0080           0
   89506 WT5  5984 TIP3 OH2  OT    -0.834000       15.9994           0
   89507 WT5  5984 TIP3 H1   HT     0.417000        1.0080           0
   89508 WT5  5984 TIP3 H2   HT     0.417000        1.0080           0
   89509 WT5  5985 TIP3 OH2  OT    -0.834000       15.9994           0
   89510 WT5  5985 TIP3 H1   HT     0.417000        1.0080           0
   89511 WT5  5985 TIP3 H2   HT     0.417000        1.0080           0
   89512 WT5  5986 TIP3 OH2  OT    -0.834000       15.9994           0
   89513 WT5  5986 TIP3 H1   HT     0.417000        1.0080           0
   89514 WT5  5986 TIP3 H2   HT     0.417000        1.0080           0
   89515 WT5  5987 TIP3 OH2  OT    -0.834000       15.9994           0
   89516 WT5  5987 TIP3 H1   HT     0.417000        1.0080           0
   89517 WT5  5987 TIP3 H2   HT     0.417000        1.0080           0
   89518 WT5  5988 TIP3 OH2  OT    -0.834000       15.9994           0
   89519 WT5  5988 TIP3 H1   HT     0.417000        1.0080           0
   89520 WT5  5988 TIP3 H2   HT     0.417000        1.0080           0
   89521 WT5  5989 TIP3 OH2  OT    -0.834000       15.9994           0
   89522 WT5  5989 TIP3 H1   HT     0.417000        1.0080           0
   89523 WT5  5989 TIP3 H2   HT     0.417000        1.0080           0
   89524 WT5  5990 TIP3 OH2  OT    -0.834000       15.9994           0
   89525 WT5  5990 TIP3 H1   HT     0.417000        1.0080           0
   89526 WT5  5990 TIP3 H2   HT     0.417000        1.0080           0
   89527 WT5  5991 TIP3 OH2  OT    -0.834000       15.9994           0
   89528 WT5  5991 TIP3 H1   HT     0.417000        1.0080           0
   89529 WT5  5991 TIP3 H2   HT     0.417000        1.0080           0
   89530 WT5  5992 TIP3 OH2  OT    -0.834000       15.9994           0
   89531 WT5  5992 TIP3 H1   HT     0.417000        1.0080           0
   89532 WT5  5992 TIP3 H2   HT     0.417000        1.0080           0
   89533 WT5  5993 TIP3 OH2  OT    -0.834000       15.9994           0
   89534 WT5  5993 TIP3 H1   HT     0.417000        1.0080           0
   89535 WT5  5993 TIP3 H2   HT     0.417000        1.0080           0
   89536 WT5  5996 TIP3 OH2  OT    -0.834000       15.9994           0
   89537 WT5  5996 TIP3 H1   HT     0.417000        1.0080           0
   89538 WT5  5996 TIP3 H2   HT     0.417000        1.0080           0
   89539 WT5  5999 TIP3 OH2  OT    -0.834000       15.9994           0
   89540 WT5  5999 TIP3 H1   HT     0.417000        1.0080           0
   89541 WT5  5999 TIP3 H2   HT     0.417000        1.0080           0
   89542 WT5  6000 TIP3 OH2  OT    -0.834000       15.9994           0
   89543 WT5  6000 TIP3 H1   HT     0.417000        1.0080           0
   89544 WT5  6000 TIP3 H2   HT     0.417000        1.0080           0
   89545 WT5  6005 TIP3 OH2  OT    -0.834000       15.9994           0
   89546 WT5  6005 TIP3 H1   HT     0.417000        1.0080           0
   89547 WT5  6005 TIP3 H2   HT     0.417000        1.0080           0
   89548 WT5  6007 TIP3 OH2  OT    -0.834000       15.9994           0
   89549 WT5  6007 TIP3 H1   HT     0.417000        1.0080           0
   89550 WT5  6007 TIP3 H2   HT     0.417000        1.0080           0
   89551 WT5  6008 TIP3 OH2  OT    -0.834000       15.9994           0
   89552 WT5  6008 TIP3 H1   HT     0.417000        1.0080           0
   89553 WT5  6008 TIP3 H2   HT     0.417000        1.0080           0
   89554 WT5  6010 TIP3 OH2  OT    -0.834000       15.9994           0
   89555 WT5  6010 TIP3 H1   HT     0.417000        1.0080           0
   89556 WT5  6010 TIP3 H2   HT     0.417000        1.0080           0
   89557 WT5  6011 TIP3 OH2  OT    -0.834000       15.9994           0
   89558 WT5  6011 TIP3 H1   HT     0.417000        1.0080           0
   89559 WT5  6011 TIP3 H2   HT     0.417000        1.0080           0
   89560 WT5  6012 TIP3 OH2  OT    -0.834000       15.9994           0
   89561 WT5  6012 TIP3 H1   HT     0.417000        1.0080           0
   89562 WT5  6012 TIP3 H2   HT     0.417000        1.0080           0
   89563 WT5  6014 TIP3 OH2  OT    -0.834000       15.9994           0
   89564 WT5  6014 TIP3 H1   HT     0.417000        1.0080           0
   89565 WT5  6014 TIP3 H2   HT     0.417000        1.0080           0
   89566 WT5  6015 TIP3 OH2  OT    -0.834000       15.9994           0
   89567 WT5  6015 TIP3 H1   HT     0.417000        1.0080           0
   89568 WT5  6015 TIP3 H2   HT     0.417000        1.0080           0
   89569 WT5  6019 TIP3 OH2  OT    -0.834000       15.9994           0
   89570 WT5  6019 TIP3 H1   HT     0.417000        1.0080           0
   89571 WT5  6019 TIP3 H2   HT     0.417000        1.0080           0
   89572 WT5  6021 TIP3 OH2  OT    -0.834000       15.9994           0
   89573 WT5  6021 TIP3 H1   HT     0.417000        1.0080           0
   89574 WT5  6021 TIP3 H2   HT     0.417000        1.0080           0
   89575 WT5  6022 TIP3 OH2  OT    -0.834000       15.9994           0
   89576 WT5  6022 TIP3 H1   HT     0.417000        1.0080           0
   89577 WT5  6022 TIP3 H2   HT     0.417000        1.0080           0
   89578 WT5  6028 TIP3 OH2  OT    -0.834000       15.9994           0
   89579 WT5  6028 TIP3 H1   HT     0.417000        1.0080           0
   89580 WT5  6028 TIP3 H2   HT     0.417000        1.0080           0
   89581 WT5  6030 TIP3 OH2  OT    -0.834000       15.9994           0
   89582 WT5  6030 TIP3 H1   HT     0.417000        1.0080           0
   89583 WT5  6030 TIP3 H2   HT     0.417000        1.0080           0
   89584 WT5  6033 TIP3 OH2  OT    -0.834000       15.9994           0
   89585 WT5  6033 TIP3 H1   HT     0.417000        1.0080           0
   89586 WT5  6033 TIP3 H2   HT     0.417000        1.0080           0
   89587 WT5  6034 TIP3 OH2  OT    -0.834000       15.9994           0
   89588 WT5  6034 TIP3 H1   HT     0.417000        1.0080           0
   89589 WT5  6034 TIP3 H2   HT     0.417000        1.0080           0
   89590 WT5  6036 TIP3 OH2  OT    -0.834000       15.9994           0
   89591 WT5  6036 TIP3 H1   HT     0.417000        1.0080           0
   89592 WT5  6036 TIP3 H2   HT     0.417000        1.0080           0
   89593 WT5  6038 TIP3 OH2  OT    -0.834000       15.9994           0
   89594 WT5  6038 TIP3 H1   HT     0.417000        1.0080           0
   89595 WT5  6038 TIP3 H2   HT     0.417000        1.0080           0
   89596 WT5  6041 TIP3 OH2  OT    -0.834000       15.9994           0
   89597 WT5  6041 TIP3 H1   HT     0.417000        1.0080           0
   89598 WT5  6041 TIP3 H2   HT     0.417000        1.0080           0
   89599 WT5  6046 TIP3 OH2  OT    -0.834000       15.9994           0
   89600 WT5  6046 TIP3 H1   HT     0.417000        1.0080           0
   89601 WT5  6046 TIP3 H2   HT     0.417000        1.0080           0
   89602 WT5  6048 TIP3 OH2  OT    -0.834000       15.9994           0
   89603 WT5  6048 TIP3 H1   HT     0.417000        1.0080           0
   89604 WT5  6048 TIP3 H2   HT     0.417000        1.0080           0
   89605 WT5  6050 TIP3 OH2  OT    -0.834000       15.9994           0
   89606 WT5  6050 TIP3 H1   HT     0.417000        1.0080           0
   89607 WT5  6050 TIP3 H2   HT     0.417000        1.0080           0
   89608 WT5  6051 TIP3 OH2  OT    -0.834000       15.9994           0
   89609 WT5  6051 TIP3 H1   HT     0.417000        1.0080           0
   89610 WT5  6051 TIP3 H2   HT     0.417000        1.0080           0
   89611 WT5  6052 TIP3 OH2  OT    -0.834000       15.9994           0
   89612 WT5  6052 TIP3 H1   HT     0.417000        1.0080           0
   89613 WT5  6052 TIP3 H2   HT     0.417000        1.0080           0
   89614 WT5  6053 TIP3 OH2  OT    -0.834000       15.9994           0
   89615 WT5  6053 TIP3 H1   HT     0.417000        1.0080           0
   89616 WT5  6053 TIP3 H2   HT     0.417000        1.0080           0
   89617 WT5  6056 TIP3 OH2  OT    -0.834000       15.9994           0
   89618 WT5  6056 TIP3 H1   HT     0.417000        1.0080           0
   89619 WT5  6056 TIP3 H2   HT     0.417000        1.0080           0
   89620 WT5  6057 TIP3 OH2  OT    -0.834000       15.9994           0
   89621 WT5  6057 TIP3 H1   HT     0.417000        1.0080           0
   89622 WT5  6057 TIP3 H2   HT     0.417000        1.0080           0
   89623 WT5  6060 TIP3 OH2  OT    -0.834000       15.9994           0
   89624 WT5  6060 TIP3 H1   HT     0.417000        1.0080           0
   89625 WT5  6060 TIP3 H2   HT     0.417000        1.0080           0
   89626 WT5  6061 TIP3 OH2  OT    -0.834000       15.9994           0
   89627 WT5  6061 TIP3 H1   HT     0.417000        1.0080           0
   89628 WT5  6061 TIP3 H2   HT     0.417000        1.0080           0
   89629 WT5  6062 TIP3 OH2  OT    -0.834000       15.9994           0
   89630 WT5  6062 TIP3 H1   HT     0.417000        1.0080           0
   89631 WT5  6062 TIP3 H2   HT     0.417000        1.0080           0
   89632 WT5  6063 TIP3 OH2  OT    -0.834000       15.9994           0
   89633 WT5  6063 TIP3 H1   HT     0.417000        1.0080           0
   89634 WT5  6063 TIP3 H2   HT     0.417000        1.0080           0
   89635 WT5  6066 TIP3 OH2  OT    -0.834000       15.9994           0
   89636 WT5  6066 TIP3 H1   HT     0.417000        1.0080           0
   89637 WT5  6066 TIP3 H2   HT     0.417000        1.0080           0
   89638 WT5  6073 TIP3 OH2  OT    -0.834000       15.9994           0
   89639 WT5  6073 TIP3 H1   HT     0.417000        1.0080           0
   89640 WT5  6073 TIP3 H2   HT     0.417000        1.0080           0
   89641 WT5  6074 TIP3 OH2  OT    -0.834000       15.9994           0
   89642 WT5  6074 TIP3 H1   HT     0.417000        1.0080           0
   89643 WT5  6074 TIP3 H2   HT     0.417000        1.0080           0
   89644 WT5  6075 TIP3 OH2  OT    -0.834000       15.9994           0
   89645 WT5  6075 TIP3 H1   HT     0.417000        1.0080           0
   89646 WT5  6075 TIP3 H2   HT     0.417000        1.0080           0
   89647 WT5  6076 TIP3 OH2  OT    -0.834000       15.9994           0
   89648 WT5  6076 TIP3 H1   HT     0.417000        1.0080           0
   89649 WT5  6076 TIP3 H2   HT     0.417000        1.0080           0
   89650 WT5  6077 TIP3 OH2  OT    -0.834000       15.9994           0
   89651 WT5  6077 TIP3 H1   HT     0.417000        1.0080           0
   89652 WT5  6077 TIP3 H2   HT     0.417000        1.0080           0
   89653 WT5  6078 TIP3 OH2  OT    -0.834000       15.9994           0
   89654 WT5  6078 TIP3 H1   HT     0.417000        1.0080           0
   89655 WT5  6078 TIP3 H2   HT     0.417000        1.0080           0
   89656 WT5  6079 TIP3 OH2  OT    -0.834000       15.9994           0
   89657 WT5  6079 TIP3 H1   HT     0.417000        1.0080           0
   89658 WT5  6079 TIP3 H2   HT     0.417000        1.0080           0
   89659 WT5  6080 TIP3 OH2  OT    -0.834000       15.9994           0
   89660 WT5  6080 TIP3 H1   HT     0.417000        1.0080           0
   89661 WT5  6080 TIP3 H2   HT     0.417000        1.0080           0
   89662 WT5  6082 TIP3 OH2  OT    -0.834000       15.9994           0
   89663 WT5  6082 TIP3 H1   HT     0.417000        1.0080           0
   89664 WT5  6082 TIP3 H2   HT     0.417000        1.0080           0
   89665 WT5  6084 TIP3 OH2  OT    -0.834000       15.9994           0
   89666 WT5  6084 TIP3 H1   HT     0.417000        1.0080           0
   89667 WT5  6084 TIP3 H2   HT     0.417000        1.0080           0
   89668 WT5  6085 TIP3 OH2  OT    -0.834000       15.9994           0
   89669 WT5  6085 TIP3 H1   HT     0.417000        1.0080           0
   89670 WT5  6085 TIP3 H2   HT     0.417000        1.0080           0
   89671 WT5  6086 TIP3 OH2  OT    -0.834000       15.9994           0
   89672 WT5  6086 TIP3 H1   HT     0.417000        1.0080           0
   89673 WT5  6086 TIP3 H2   HT     0.417000        1.0080           0
   89674 WT5  6090 TIP3 OH2  OT    -0.834000       15.9994           0
   89675 WT5  6090 TIP3 H1   HT     0.417000        1.0080           0
   89676 WT5  6090 TIP3 H2   HT     0.417000        1.0080           0
   89677 WT5  6092 TIP3 OH2  OT    -0.834000       15.9994           0
   89678 WT5  6092 TIP3 H1   HT     0.417000        1.0080           0
   89679 WT5  6092 TIP3 H2   HT     0.417000        1.0080           0
   89680 WT5  6093 TIP3 OH2  OT    -0.834000       15.9994           0
   89681 WT5  6093 TIP3 H1   HT     0.417000        1.0080           0
   89682 WT5  6093 TIP3 H2   HT     0.417000        1.0080           0
   89683 WT5  6094 TIP3 OH2  OT    -0.834000       15.9994           0
   89684 WT5  6094 TIP3 H1   HT     0.417000        1.0080           0
   89685 WT5  6094 TIP3 H2   HT     0.417000        1.0080           0
   89686 WT5  6098 TIP3 OH2  OT    -0.834000       15.9994           0
   89687 WT5  6098 TIP3 H1   HT     0.417000        1.0080           0
   89688 WT5  6098 TIP3 H2   HT     0.417000        1.0080           0
   89689 WT5  6099 TIP3 OH2  OT    -0.834000       15.9994           0
   89690 WT5  6099 TIP3 H1   HT     0.417000        1.0080           0
   89691 WT5  6099 TIP3 H2   HT     0.417000        1.0080           0
   89692 WT5  6100 TIP3 OH2  OT    -0.834000       15.9994           0
   89693 WT5  6100 TIP3 H1   HT     0.417000        1.0080           0
   89694 WT5  6100 TIP3 H2   HT     0.417000        1.0080           0
   89695 WT5  6102 TIP3 OH2  OT    -0.834000       15.9994           0
   89696 WT5  6102 TIP3 H1   HT     0.417000        1.0080           0
   89697 WT5  6102 TIP3 H2   HT     0.417000        1.0080           0
   89698 WT5  6104 TIP3 OH2  OT    -0.834000       15.9994           0
   89699 WT5  6104 TIP3 H1   HT     0.417000        1.0080           0
   89700 WT5  6104 TIP3 H2   HT     0.417000        1.0080           0
   89701 WT5  6109 TIP3 OH2  OT    -0.834000       15.9994           0
   89702 WT5  6109 TIP3 H1   HT     0.417000        1.0080           0
   89703 WT5  6109 TIP3 H2   HT     0.417000        1.0080           0
   89704 WT5  6110 TIP3 OH2  OT    -0.834000       15.9994           0
   89705 WT5  6110 TIP3 H1   HT     0.417000        1.0080           0
   89706 WT5  6110 TIP3 H2   HT     0.417000        1.0080           0
   89707 WT5  6112 TIP3 OH2  OT    -0.834000       15.9994           0
   89708 WT5  6112 TIP3 H1   HT     0.417000        1.0080           0
   89709 WT5  6112 TIP3 H2   HT     0.417000        1.0080           0
   89710 WT5  6113 TIP3 OH2  OT    -0.834000       15.9994           0
   89711 WT5  6113 TIP3 H1   HT     0.417000        1.0080           0
   89712 WT5  6113 TIP3 H2   HT     0.417000        1.0080           0
   89713 WT5  6115 TIP3 OH2  OT    -0.834000       15.9994           0
   89714 WT5  6115 TIP3 H1   HT     0.417000        1.0080           0
   89715 WT5  6115 TIP3 H2   HT     0.417000        1.0080           0
   89716 WT5  6117 TIP3 OH2  OT    -0.834000       15.9994           0
   89717 WT5  6117 TIP3 H1   HT     0.417000        1.0080           0
   89718 WT5  6117 TIP3 H2   HT     0.417000        1.0080           0
   89719 WT5  6118 TIP3 OH2  OT    -0.834000       15.9994           0
   89720 WT5  6118 TIP3 H1   HT     0.417000        1.0080           0
   89721 WT5  6118 TIP3 H2   HT     0.417000        1.0080           0
   89722 WT5  6121 TIP3 OH2  OT    -0.834000       15.9994           0
   89723 WT5  6121 TIP3 H1   HT     0.417000        1.0080           0
   89724 WT5  6121 TIP3 H2   HT     0.417000        1.0080           0
   89725 WT5  6128 TIP3 OH2  OT    -0.834000       15.9994           0
   89726 WT5  6128 TIP3 H1   HT     0.417000        1.0080           0
   89727 WT5  6128 TIP3 H2   HT     0.417000        1.0080           0
   89728 WT5  6129 TIP3 OH2  OT    -0.834000       15.9994           0
   89729 WT5  6129 TIP3 H1   HT     0.417000        1.0080           0
   89730 WT5  6129 TIP3 H2   HT     0.417000        1.0080           0
   89731 WT5  6131 TIP3 OH2  OT    -0.834000       15.9994           0
   89732 WT5  6131 TIP3 H1   HT     0.417000        1.0080           0
   89733 WT5  6131 TIP3 H2   HT     0.417000        1.0080           0
   89734 WT5  6132 TIP3 OH2  OT    -0.834000       15.9994           0
   89735 WT5  6132 TIP3 H1   HT     0.417000        1.0080           0
   89736 WT5  6132 TIP3 H2   HT     0.417000        1.0080           0
   89737 WT5  6133 TIP3 OH2  OT    -0.834000       15.9994           0
   89738 WT5  6133 TIP3 H1   HT     0.417000        1.0080           0
   89739 WT5  6133 TIP3 H2   HT     0.417000        1.0080           0
   89740 WT5  6135 TIP3 OH2  OT    -0.834000       15.9994           0
   89741 WT5  6135 TIP3 H1   HT     0.417000        1.0080           0
   89742 WT5  6135 TIP3 H2   HT     0.417000        1.0080           0
   89743 WT5  6136 TIP3 OH2  OT    -0.834000       15.9994           0
   89744 WT5  6136 TIP3 H1   HT     0.417000        1.0080           0
   89745 WT5  6136 TIP3 H2   HT     0.417000        1.0080           0
   89746 WT5  6137 TIP3 OH2  OT    -0.834000       15.9994           0
   89747 WT5  6137 TIP3 H1   HT     0.417000        1.0080           0
   89748 WT5  6137 TIP3 H2   HT     0.417000        1.0080           0
   89749 WT5  6138 TIP3 OH2  OT    -0.834000       15.9994           0
   89750 WT5  6138 TIP3 H1   HT     0.417000        1.0080           0
   89751 WT5  6138 TIP3 H2   HT     0.417000        1.0080           0
   89752 WT5  6139 TIP3 OH2  OT    -0.834000       15.9994           0
   89753 WT5  6139 TIP3 H1   HT     0.417000        1.0080           0
   89754 WT5  6139 TIP3 H2   HT     0.417000        1.0080           0
   89755 WT5  6141 TIP3 OH2  OT    -0.834000       15.9994           0
   89756 WT5  6141 TIP3 H1   HT     0.417000        1.0080           0
   89757 WT5  6141 TIP3 H2   HT     0.417000        1.0080           0
   89758 WT5  6142 TIP3 OH2  OT    -0.834000       15.9994           0
   89759 WT5  6142 TIP3 H1   HT     0.417000        1.0080           0
   89760 WT5  6142 TIP3 H2   HT     0.417000        1.0080           0
   89761 WT5  6143 TIP3 OH2  OT    -0.834000       15.9994           0
   89762 WT5  6143 TIP3 H1   HT     0.417000        1.0080           0
   89763 WT5  6143 TIP3 H2   HT     0.417000        1.0080           0
   89764 WT5  6149 TIP3 OH2  OT    -0.834000       15.9994           0
   89765 WT5  6149 TIP3 H1   HT     0.417000        1.0080           0
   89766 WT5  6149 TIP3 H2   HT     0.417000        1.0080           0
   89767 WT5  6151 TIP3 OH2  OT    -0.834000       15.9994           0
   89768 WT5  6151 TIP3 H1   HT     0.417000        1.0080           0
   89769 WT5  6151 TIP3 H2   HT     0.417000        1.0080           0
   89770 WT5  6156 TIP3 OH2  OT    -0.834000       15.9994           0
   89771 WT5  6156 TIP3 H1   HT     0.417000        1.0080           0
   89772 WT5  6156 TIP3 H2   HT     0.417000        1.0080           0
   89773 WT5  6157 TIP3 OH2  OT    -0.834000       15.9994           0
   89774 WT5  6157 TIP3 H1   HT     0.417000        1.0080           0
   89775 WT5  6157 TIP3 H2   HT     0.417000        1.0080           0
   89776 WT5  6158 TIP3 OH2  OT    -0.834000       15.9994           0
   89777 WT5  6158 TIP3 H1   HT     0.417000        1.0080           0
   89778 WT5  6158 TIP3 H2   HT     0.417000        1.0080           0
   89779 WT5  6160 TIP3 OH2  OT    -0.834000       15.9994           0
   89780 WT5  6160 TIP3 H1   HT     0.417000        1.0080           0
   89781 WT5  6160 TIP3 H2   HT     0.417000        1.0080           0
   89782 WT5  6162 TIP3 OH2  OT    -0.834000       15.9994           0
   89783 WT5  6162 TIP3 H1   HT     0.417000        1.0080           0
   89784 WT5  6162 TIP3 H2   HT     0.417000        1.0080           0
   89785 WT5  6165 TIP3 OH2  OT    -0.834000       15.9994           0
   89786 WT5  6165 TIP3 H1   HT     0.417000        1.0080           0
   89787 WT5  6165 TIP3 H2   HT     0.417000        1.0080           0
   89788 WT5  6168 TIP3 OH2  OT    -0.834000       15.9994           0
   89789 WT5  6168 TIP3 H1   HT     0.417000        1.0080           0
   89790 WT5  6168 TIP3 H2   HT     0.417000        1.0080           0
   89791 WT5  6169 TIP3 OH2  OT    -0.834000       15.9994           0
   89792 WT5  6169 TIP3 H1   HT     0.417000        1.0080           0
   89793 WT5  6169 TIP3 H2   HT     0.417000        1.0080           0
   89794 WT5  6172 TIP3 OH2  OT    -0.834000       15.9994           0
   89795 WT5  6172 TIP3 H1   HT     0.417000        1.0080           0
   89796 WT5  6172 TIP3 H2   HT     0.417000        1.0080           0
   89797 WT5  6173 TIP3 OH2  OT    -0.834000       15.9994           0
   89798 WT5  6173 TIP3 H1   HT     0.417000        1.0080           0
   89799 WT5  6173 TIP3 H2   HT     0.417000        1.0080           0
   89800 WT5  6177 TIP3 OH2  OT    -0.834000       15.9994           0
   89801 WT5  6177 TIP3 H1   HT     0.417000        1.0080           0
   89802 WT5  6177 TIP3 H2   HT     0.417000        1.0080           0
   89803 WT5  6178 TIP3 OH2  OT    -0.834000       15.9994           0
   89804 WT5  6178 TIP3 H1   HT     0.417000        1.0080           0
   89805 WT5  6178 TIP3 H2   HT     0.417000        1.0080           0
   89806 WT5  6180 TIP3 OH2  OT    -0.834000       15.9994           0
   89807 WT5  6180 TIP3 H1   HT     0.417000        1.0080           0
   89808 WT5  6180 TIP3 H2   HT     0.417000        1.0080           0
   89809 WT5  6183 TIP3 OH2  OT    -0.834000       15.9994           0
   89810 WT5  6183 TIP3 H1   HT     0.417000        1.0080           0
   89811 WT5  6183 TIP3 H2   HT     0.417000        1.0080           0
   89812 WT5  6184 TIP3 OH2  OT    -0.834000       15.9994           0
   89813 WT5  6184 TIP3 H1   HT     0.417000        1.0080           0
   89814 WT5  6184 TIP3 H2   HT     0.417000        1.0080           0
   89815 WT5  6185 TIP3 OH2  OT    -0.834000       15.9994           0
   89816 WT5  6185 TIP3 H1   HT     0.417000        1.0080           0
   89817 WT5  6185 TIP3 H2   HT     0.417000        1.0080           0
   89818 WT5  6187 TIP3 OH2  OT    -0.834000       15.9994           0
   89819 WT5  6187 TIP3 H1   HT     0.417000        1.0080           0
   89820 WT5  6187 TIP3 H2   HT     0.417000        1.0080           0
   89821 WT5  6188 TIP3 OH2  OT    -0.834000       15.9994           0
   89822 WT5  6188 TIP3 H1   HT     0.417000        1.0080           0
   89823 WT5  6188 TIP3 H2   HT     0.417000        1.0080           0
   89824 WT5  6190 TIP3 OH2  OT    -0.834000       15.9994           0
   89825 WT5  6190 TIP3 H1   HT     0.417000        1.0080           0
   89826 WT5  6190 TIP3 H2   HT     0.417000        1.0080           0
   89827 WT5  6195 TIP3 OH2  OT    -0.834000       15.9994           0
   89828 WT5  6195 TIP3 H1   HT     0.417000        1.0080           0
   89829 WT5  6195 TIP3 H2   HT     0.417000        1.0080           0
   89830 WT5  6196 TIP3 OH2  OT    -0.834000       15.9994           0
   89831 WT5  6196 TIP3 H1   HT     0.417000        1.0080           0
   89832 WT5  6196 TIP3 H2   HT     0.417000        1.0080           0
   89833 WT5  6198 TIP3 OH2  OT    -0.834000       15.9994           0
   89834 WT5  6198 TIP3 H1   HT     0.417000        1.0080           0
   89835 WT5  6198 TIP3 H2   HT     0.417000        1.0080           0
   89836 WT5  6200 TIP3 OH2  OT    -0.834000       15.9994           0
   89837 WT5  6200 TIP3 H1   HT     0.417000        1.0080           0
   89838 WT5  6200 TIP3 H2   HT     0.417000        1.0080           0
   89839 WT5  6208 TIP3 OH2  OT    -0.834000       15.9994           0
   89840 WT5  6208 TIP3 H1   HT     0.417000        1.0080           0
   89841 WT5  6208 TIP3 H2   HT     0.417000        1.0080           0
   89842 WT5  6209 TIP3 OH2  OT    -0.834000       15.9994           0
   89843 WT5  6209 TIP3 H1   HT     0.417000        1.0080           0
   89844 WT5  6209 TIP3 H2   HT     0.417000        1.0080           0
   89845 WT5  6210 TIP3 OH2  OT    -0.834000       15.9994           0
   89846 WT5  6210 TIP3 H1   HT     0.417000        1.0080           0
   89847 WT5  6210 TIP3 H2   HT     0.417000        1.0080           0
   89848 WT5  6218 TIP3 OH2  OT    -0.834000       15.9994           0
   89849 WT5  6218 TIP3 H1   HT     0.417000        1.0080           0
   89850 WT5  6218 TIP3 H2   HT     0.417000        1.0080           0
   89851 WT5  6219 TIP3 OH2  OT    -0.834000       15.9994           0
   89852 WT5  6219 TIP3 H1   HT     0.417000        1.0080           0
   89853 WT5  6219 TIP3 H2   HT     0.417000        1.0080           0
   89854 WT5  6220 TIP3 OH2  OT    -0.834000       15.9994           0
   89855 WT5  6220 TIP3 H1   HT     0.417000        1.0080           0
   89856 WT5  6220 TIP3 H2   HT     0.417000        1.0080           0
   89857 WT5  6222 TIP3 OH2  OT    -0.834000       15.9994           0
   89858 WT5  6222 TIP3 H1   HT     0.417000        1.0080           0
   89859 WT5  6222 TIP3 H2   HT     0.417000        1.0080           0
   89860 WT5  6224 TIP3 OH2  OT    -0.834000       15.9994           0
   89861 WT5  6224 TIP3 H1   HT     0.417000        1.0080           0
   89862 WT5  6224 TIP3 H2   HT     0.417000        1.0080           0
   89863 WT5  6226 TIP3 OH2  OT    -0.834000       15.9994           0
   89864 WT5  6226 TIP3 H1   HT     0.417000        1.0080           0
   89865 WT5  6226 TIP3 H2   HT     0.417000        1.0080           0
   89866 WT5  6227 TIP3 OH2  OT    -0.834000       15.9994           0
   89867 WT5  6227 TIP3 H1   HT     0.417000        1.0080           0
   89868 WT5  6227 TIP3 H2   HT     0.417000        1.0080           0
   89869 WT5  6228 TIP3 OH2  OT    -0.834000       15.9994           0
   89870 WT5  6228 TIP3 H1   HT     0.417000        1.0080           0
   89871 WT5  6228 TIP3 H2   HT     0.417000        1.0080           0
   89872 WT5  6229 TIP3 OH2  OT    -0.834000       15.9994           0
   89873 WT5  6229 TIP3 H1   HT     0.417000        1.0080           0
   89874 WT5  6229 TIP3 H2   HT     0.417000        1.0080           0
   89875 WT5  6230 TIP3 OH2  OT    -0.834000       15.9994           0
   89876 WT5  6230 TIP3 H1   HT     0.417000        1.0080           0
   89877 WT5  6230 TIP3 H2   HT     0.417000        1.0080           0
   89878 WT5  6239 TIP3 OH2  OT    -0.834000       15.9994           0
   89879 WT5  6239 TIP3 H1   HT     0.417000        1.0080           0
   89880 WT5  6239 TIP3 H2   HT     0.417000        1.0080           0
   89881 WT5  6240 TIP3 OH2  OT    -0.834000       15.9994           0
   89882 WT5  6240 TIP3 H1   HT     0.417000        1.0080           0
   89883 WT5  6240 TIP3 H2   HT     0.417000        1.0080           0
   89884 WT5  6241 TIP3 OH2  OT    -0.834000       15.9994           0
   89885 WT5  6241 TIP3 H1   HT     0.417000        1.0080           0
   89886 WT5  6241 TIP3 H2   HT     0.417000        1.0080           0
   89887 WT5  6242 TIP3 OH2  OT    -0.834000       15.9994           0
   89888 WT5  6242 TIP3 H1   HT     0.417000        1.0080           0
   89889 WT5  6242 TIP3 H2   HT     0.417000        1.0080           0
   89890 WT5  6246 TIP3 OH2  OT    -0.834000       15.9994           0
   89891 WT5  6246 TIP3 H1   HT     0.417000        1.0080           0
   89892 WT5  6246 TIP3 H2   HT     0.417000        1.0080           0
   89893 WT5  6247 TIP3 OH2  OT    -0.834000       15.9994           0
   89894 WT5  6247 TIP3 H1   HT     0.417000        1.0080           0
   89895 WT5  6247 TIP3 H2   HT     0.417000        1.0080           0
   89896 WT5  6252 TIP3 OH2  OT    -0.834000       15.9994           0
   89897 WT5  6252 TIP3 H1   HT     0.417000        1.0080           0
   89898 WT5  6252 TIP3 H2   HT     0.417000        1.0080           0
   89899 WT5  6256 TIP3 OH2  OT    -0.834000       15.9994           0
   89900 WT5  6256 TIP3 H1   HT     0.417000        1.0080           0
   89901 WT5  6256 TIP3 H2   HT     0.417000        1.0080           0
   89902 WT5  6258 TIP3 OH2  OT    -0.834000       15.9994           0
   89903 WT5  6258 TIP3 H1   HT     0.417000        1.0080           0
   89904 WT5  6258 TIP3 H2   HT     0.417000        1.0080           0
   89905 WT5  6260 TIP3 OH2  OT    -0.834000       15.9994           0
   89906 WT5  6260 TIP3 H1   HT     0.417000        1.0080           0
   89907 WT5  6260 TIP3 H2   HT     0.417000        1.0080           0
   89908 WT5  6262 TIP3 OH2  OT    -0.834000       15.9994           0
   89909 WT5  6262 TIP3 H1   HT     0.417000        1.0080           0
   89910 WT5  6262 TIP3 H2   HT     0.417000        1.0080           0
   89911 WT5  6263 TIP3 OH2  OT    -0.834000       15.9994           0
   89912 WT5  6263 TIP3 H1   HT     0.417000        1.0080           0
   89913 WT5  6263 TIP3 H2   HT     0.417000        1.0080           0
   89914 WT5  6266 TIP3 OH2  OT    -0.834000       15.9994           0
   89915 WT5  6266 TIP3 H1   HT     0.417000        1.0080           0
   89916 WT5  6266 TIP3 H2   HT     0.417000        1.0080           0
   89917 WT5  6269 TIP3 OH2  OT    -0.834000       15.9994           0
   89918 WT5  6269 TIP3 H1   HT     0.417000        1.0080           0
   89919 WT5  6269 TIP3 H2   HT     0.417000        1.0080           0
   89920 WT5  6270 TIP3 OH2  OT    -0.834000       15.9994           0
   89921 WT5  6270 TIP3 H1   HT     0.417000        1.0080           0
   89922 WT5  6270 TIP3 H2   HT     0.417000        1.0080           0
   89923 WT5  6277 TIP3 OH2  OT    -0.834000       15.9994           0
   89924 WT5  6277 TIP3 H1   HT     0.417000        1.0080           0
   89925 WT5  6277 TIP3 H2   HT     0.417000        1.0080           0
   89926 WT5  6279 TIP3 OH2  OT    -0.834000       15.9994           0
   89927 WT5  6279 TIP3 H1   HT     0.417000        1.0080           0
   89928 WT5  6279 TIP3 H2   HT     0.417000        1.0080           0
   89929 WT5  6285 TIP3 OH2  OT    -0.834000       15.9994           0
   89930 WT5  6285 TIP3 H1   HT     0.417000        1.0080           0
   89931 WT5  6285 TIP3 H2   HT     0.417000        1.0080           0
   89932 WT5  6290 TIP3 OH2  OT    -0.834000       15.9994           0
   89933 WT5  6290 TIP3 H1   HT     0.417000        1.0080           0
   89934 WT5  6290 TIP3 H2   HT     0.417000        1.0080           0
   89935 WT5  6291 TIP3 OH2  OT    -0.834000       15.9994           0
   89936 WT5  6291 TIP3 H1   HT     0.417000        1.0080           0
   89937 WT5  6291 TIP3 H2   HT     0.417000        1.0080           0
   89938 WT5  6296 TIP3 OH2  OT    -0.834000       15.9994           0
   89939 WT5  6296 TIP3 H1   HT     0.417000        1.0080           0
   89940 WT5  6296 TIP3 H2   HT     0.417000        1.0080           0
   89941 WT5  6297 TIP3 OH2  OT    -0.834000       15.9994           0
   89942 WT5  6297 TIP3 H1   HT     0.417000        1.0080           0
   89943 WT5  6297 TIP3 H2   HT     0.417000        1.0080           0
   89944 WT5  6298 TIP3 OH2  OT    -0.834000       15.9994           0
   89945 WT5  6298 TIP3 H1   HT     0.417000        1.0080           0
   89946 WT5  6298 TIP3 H2   HT     0.417000        1.0080           0
   89947 WT5  6300 TIP3 OH2  OT    -0.834000       15.9994           0
   89948 WT5  6300 TIP3 H1   HT     0.417000        1.0080           0
   89949 WT5  6300 TIP3 H2   HT     0.417000        1.0080           0
   89950 WT5  6302 TIP3 OH2  OT    -0.834000       15.9994           0
   89951 WT5  6302 TIP3 H1   HT     0.417000        1.0080           0
   89952 WT5  6302 TIP3 H2   HT     0.417000        1.0080           0
   89953 WT5  6309 TIP3 OH2  OT    -0.834000       15.9994           0
   89954 WT5  6309 TIP3 H1   HT     0.417000        1.0080           0
   89955 WT5  6309 TIP3 H2   HT     0.417000        1.0080           0
   89956 WT5  6310 TIP3 OH2  OT    -0.834000       15.9994           0
   89957 WT5  6310 TIP3 H1   HT     0.417000        1.0080           0
   89958 WT5  6310 TIP3 H2   HT     0.417000        1.0080           0
   89959 WT5  6311 TIP3 OH2  OT    -0.834000       15.9994           0
   89960 WT5  6311 TIP3 H1   HT     0.417000        1.0080           0
   89961 WT5  6311 TIP3 H2   HT     0.417000        1.0080           0
   89962 WT5  6312 TIP3 OH2  OT    -0.834000       15.9994           0
   89963 WT5  6312 TIP3 H1   HT     0.417000        1.0080           0
   89964 WT5  6312 TIP3 H2   HT     0.417000        1.0080           0
   89965 WT5  6313 TIP3 OH2  OT    -0.834000       15.9994           0
   89966 WT5  6313 TIP3 H1   HT     0.417000        1.0080           0
   89967 WT5  6313 TIP3 H2   HT     0.417000        1.0080           0
   89968 WT5  6314 TIP3 OH2  OT    -0.834000       15.9994           0
   89969 WT5  6314 TIP3 H1   HT     0.417000        1.0080           0
   89970 WT5  6314 TIP3 H2   HT     0.417000        1.0080           0
   89971 WT5  6315 TIP3 OH2  OT    -0.834000       15.9994           0
   89972 WT5  6315 TIP3 H1   HT     0.417000        1.0080           0
   89973 WT5  6315 TIP3 H2   HT     0.417000        1.0080           0
   89974 WT5  6316 TIP3 OH2  OT    -0.834000       15.9994           0
   89975 WT5  6316 TIP3 H1   HT     0.417000        1.0080           0
   89976 WT5  6316 TIP3 H2   HT     0.417000        1.0080           0
   89977 WT5  6317 TIP3 OH2  OT    -0.834000       15.9994           0
   89978 WT5  6317 TIP3 H1   HT     0.417000        1.0080           0
   89979 WT5  6317 TIP3 H2   HT     0.417000        1.0080           0
   89980 WT5  6321 TIP3 OH2  OT    -0.834000       15.9994           0
   89981 WT5  6321 TIP3 H1   HT     0.417000        1.0080           0
   89982 WT5  6321 TIP3 H2   HT     0.417000        1.0080           0
   89983 WT5  6324 TIP3 OH2  OT    -0.834000       15.9994           0
   89984 WT5  6324 TIP3 H1   HT     0.417000        1.0080           0
   89985 WT5  6324 TIP3 H2   HT     0.417000        1.0080           0
   89986 WT5  6325 TIP3 OH2  OT    -0.834000       15.9994           0
   89987 WT5  6325 TIP3 H1   HT     0.417000        1.0080           0
   89988 WT5  6325 TIP3 H2   HT     0.417000        1.0080           0
   89989 WT5  6326 TIP3 OH2  OT    -0.834000       15.9994           0
   89990 WT5  6326 TIP3 H1   HT     0.417000        1.0080           0
   89991 WT5  6326 TIP3 H2   HT     0.417000        1.0080           0
   89992 WT5  6327 TIP3 OH2  OT    -0.834000       15.9994           0
   89993 WT5  6327 TIP3 H1   HT     0.417000        1.0080           0
   89994 WT5  6327 TIP3 H2   HT     0.417000        1.0080           0
   89995 WT5  6330 TIP3 OH2  OT    -0.834000       15.9994           0
   89996 WT5  6330 TIP3 H1   HT     0.417000        1.0080           0
   89997 WT5  6330 TIP3 H2   HT     0.417000        1.0080           0
   89998 WT5  6331 TIP3 OH2  OT    -0.834000       15.9994           0
   89999 WT5  6331 TIP3 H1   HT     0.417000        1.0080           0
   90000 WT5  6331 TIP3 H2   HT     0.417000        1.0080           0
   90001 WT5  6333 TIP3 OH2  OT    -0.834000       15.9994           0
   90002 WT5  6333 TIP3 H1   HT     0.417000        1.0080           0
   90003 WT5  6333 TIP3 H2   HT     0.417000        1.0080           0
   90004 WT5  6334 TIP3 OH2  OT    -0.834000       15.9994           0
   90005 WT5  6334 TIP3 H1   HT     0.417000        1.0080           0
   90006 WT5  6334 TIP3 H2   HT     0.417000        1.0080           0
   90007 WT5  6335 TIP3 OH2  OT    -0.834000       15.9994           0
   90008 WT5  6335 TIP3 H1   HT     0.417000        1.0080           0
   90009 WT5  6335 TIP3 H2   HT     0.417000        1.0080           0
   90010 WT5  6336 TIP3 OH2  OT    -0.834000       15.9994           0
   90011 WT5  6336 TIP3 H1   HT     0.417000        1.0080           0
   90012 WT5  6336 TIP3 H2   HT     0.417000        1.0080           0
   90013 WT5  6337 TIP3 OH2  OT    -0.834000       15.9994           0
   90014 WT5  6337 TIP3 H1   HT     0.417000        1.0080           0
   90015 WT5  6337 TIP3 H2   HT     0.417000        1.0080           0
   90016 WT5  6341 TIP3 OH2  OT    -0.834000       15.9994           0
   90017 WT5  6341 TIP3 H1   HT     0.417000        1.0080           0
   90018 WT5  6341 TIP3 H2   HT     0.417000        1.0080           0
   90019 WT5  6343 TIP3 OH2  OT    -0.834000       15.9994           0
   90020 WT5  6343 TIP3 H1   HT     0.417000        1.0080           0
   90021 WT5  6343 TIP3 H2   HT     0.417000        1.0080           0
   90022 WT5  6344 TIP3 OH2  OT    -0.834000       15.9994           0
   90023 WT5  6344 TIP3 H1   HT     0.417000        1.0080           0
   90024 WT5  6344 TIP3 H2   HT     0.417000        1.0080           0
   90025 WT5  6345 TIP3 OH2  OT    -0.834000       15.9994           0
   90026 WT5  6345 TIP3 H1   HT     0.417000        1.0080           0
   90027 WT5  6345 TIP3 H2   HT     0.417000        1.0080           0
   90028 WT5  6346 TIP3 OH2  OT    -0.834000       15.9994           0
   90029 WT5  6346 TIP3 H1   HT     0.417000        1.0080           0
   90030 WT5  6346 TIP3 H2   HT     0.417000        1.0080           0
   90031 WT5  6347 TIP3 OH2  OT    -0.834000       15.9994           0
   90032 WT5  6347 TIP3 H1   HT     0.417000        1.0080           0
   90033 WT5  6347 TIP3 H2   HT     0.417000        1.0080           0
   90034 WT5  6348 TIP3 OH2  OT    -0.834000       15.9994           0
   90035 WT5  6348 TIP3 H1   HT     0.417000        1.0080           0
   90036 WT5  6348 TIP3 H2   HT     0.417000        1.0080           0
   90037 WT5  6350 TIP3 OH2  OT    -0.834000       15.9994           0
   90038 WT5  6350 TIP3 H1   HT     0.417000        1.0080           0
   90039 WT5  6350 TIP3 H2   HT     0.417000        1.0080           0
   90040 WT5  6351 TIP3 OH2  OT    -0.834000       15.9994           0
   90041 WT5  6351 TIP3 H1   HT     0.417000        1.0080           0
   90042 WT5  6351 TIP3 H2   HT     0.417000        1.0080           0
   90043 WT5  6352 TIP3 OH2  OT    -0.834000       15.9994           0
   90044 WT5  6352 TIP3 H1   HT     0.417000        1.0080           0
   90045 WT5  6352 TIP3 H2   HT     0.417000        1.0080           0
   90046 WT5  6355 TIP3 OH2  OT    -0.834000       15.9994           0
   90047 WT5  6355 TIP3 H1   HT     0.417000        1.0080           0
   90048 WT5  6355 TIP3 H2   HT     0.417000        1.0080           0
   90049 WT5  6356 TIP3 OH2  OT    -0.834000       15.9994           0
   90050 WT5  6356 TIP3 H1   HT     0.417000        1.0080           0
   90051 WT5  6356 TIP3 H2   HT     0.417000        1.0080           0
   90052 WT5  6361 TIP3 OH2  OT    -0.834000       15.9994           0
   90053 WT5  6361 TIP3 H1   HT     0.417000        1.0080           0
   90054 WT5  6361 TIP3 H2   HT     0.417000        1.0080           0
   90055 WT5  6366 TIP3 OH2  OT    -0.834000       15.9994           0
   90056 WT5  6366 TIP3 H1   HT     0.417000        1.0080           0
   90057 WT5  6366 TIP3 H2   HT     0.417000        1.0080           0
   90058 WT5  6370 TIP3 OH2  OT    -0.834000       15.9994           0
   90059 WT5  6370 TIP3 H1   HT     0.417000        1.0080           0
   90060 WT5  6370 TIP3 H2   HT     0.417000        1.0080           0
   90061 WT5  6373 TIP3 OH2  OT    -0.834000       15.9994           0
   90062 WT5  6373 TIP3 H1   HT     0.417000        1.0080           0
   90063 WT5  6373 TIP3 H2   HT     0.417000        1.0080           0
   90064 WT5  6375 TIP3 OH2  OT    -0.834000       15.9994           0
   90065 WT5  6375 TIP3 H1   HT     0.417000        1.0080           0
   90066 WT5  6375 TIP3 H2   HT     0.417000        1.0080           0
   90067 WT5  6376 TIP3 OH2  OT    -0.834000       15.9994           0
   90068 WT5  6376 TIP3 H1   HT     0.417000        1.0080           0
   90069 WT5  6376 TIP3 H2   HT     0.417000        1.0080           0
   90070 WT5  6381 TIP3 OH2  OT    -0.834000       15.9994           0
   90071 WT5  6381 TIP3 H1   HT     0.417000        1.0080           0
   90072 WT5  6381 TIP3 H2   HT     0.417000        1.0080           0
   90073 WT5  6384 TIP3 OH2  OT    -0.834000       15.9994           0
   90074 WT5  6384 TIP3 H1   HT     0.417000        1.0080           0
   90075 WT5  6384 TIP3 H2   HT     0.417000        1.0080           0
   90076 WT5  6390 TIP3 OH2  OT    -0.834000       15.9994           0
   90077 WT5  6390 TIP3 H1   HT     0.417000        1.0080           0
   90078 WT5  6390 TIP3 H2   HT     0.417000        1.0080           0
   90079 WT5  6391 TIP3 OH2  OT    -0.834000       15.9994           0
   90080 WT5  6391 TIP3 H1   HT     0.417000        1.0080           0
   90081 WT5  6391 TIP3 H2   HT     0.417000        1.0080           0
   90082 WT5  6396 TIP3 OH2  OT    -0.834000       15.9994           0
   90083 WT5  6396 TIP3 H1   HT     0.417000        1.0080           0
   90084 WT5  6396 TIP3 H2   HT     0.417000        1.0080           0
   90085 WT5  6398 TIP3 OH2  OT    -0.834000       15.9994           0
   90086 WT5  6398 TIP3 H1   HT     0.417000        1.0080           0
   90087 WT5  6398 TIP3 H2   HT     0.417000        1.0080           0
   90088 WT5  6404 TIP3 OH2  OT    -0.834000       15.9994           0
   90089 WT5  6404 TIP3 H1   HT     0.417000        1.0080           0
   90090 WT5  6404 TIP3 H2   HT     0.417000        1.0080           0
   90091 WT5  6406 TIP3 OH2  OT    -0.834000       15.9994           0
   90092 WT5  6406 TIP3 H1   HT     0.417000        1.0080           0
   90093 WT5  6406 TIP3 H2   HT     0.417000        1.0080           0
   90094 WT5  6407 TIP3 OH2  OT    -0.834000       15.9994           0
   90095 WT5  6407 TIP3 H1   HT     0.417000        1.0080           0
   90096 WT5  6407 TIP3 H2   HT     0.417000        1.0080           0
   90097 WT5  6408 TIP3 OH2  OT    -0.834000       15.9994           0
   90098 WT5  6408 TIP3 H1   HT     0.417000        1.0080           0
   90099 WT5  6408 TIP3 H2   HT     0.417000        1.0080           0
   90100 WT5  6409 TIP3 OH2  OT    -0.834000       15.9994           0
   90101 WT5  6409 TIP3 H1   HT     0.417000        1.0080           0
   90102 WT5  6409 TIP3 H2   HT     0.417000        1.0080           0
   90103 WT5  6414 TIP3 OH2  OT    -0.834000       15.9994           0
   90104 WT5  6414 TIP3 H1   HT     0.417000        1.0080           0
   90105 WT5  6414 TIP3 H2   HT     0.417000        1.0080           0
   90106 WT5  6417 TIP3 OH2  OT    -0.834000       15.9994           0
   90107 WT5  6417 TIP3 H1   HT     0.417000        1.0080           0
   90108 WT5  6417 TIP3 H2   HT     0.417000        1.0080           0
   90109 WT5  6423 TIP3 OH2  OT    -0.834000       15.9994           0
   90110 WT5  6423 TIP3 H1   HT     0.417000        1.0080           0
   90111 WT5  6423 TIP3 H2   HT     0.417000        1.0080           0
   90112 WT5  6424 TIP3 OH2  OT    -0.834000       15.9994           0
   90113 WT5  6424 TIP3 H1   HT     0.417000        1.0080           0
   90114 WT5  6424 TIP3 H2   HT     0.417000        1.0080           0
   90115 WT5  6425 TIP3 OH2  OT    -0.834000       15.9994           0
   90116 WT5  6425 TIP3 H1   HT     0.417000        1.0080           0
   90117 WT5  6425 TIP3 H2   HT     0.417000        1.0080           0
   90118 WT5  6427 TIP3 OH2  OT    -0.834000       15.9994           0
   90119 WT5  6427 TIP3 H1   HT     0.417000        1.0080           0
   90120 WT5  6427 TIP3 H2   HT     0.417000        1.0080           0
   90121 WT5  6428 TIP3 OH2  OT    -0.834000       15.9994           0
   90122 WT5  6428 TIP3 H1   HT     0.417000        1.0080           0
   90123 WT5  6428 TIP3 H2   HT     0.417000        1.0080           0
   90124 WT5  6429 TIP3 OH2  OT    -0.834000       15.9994           0
   90125 WT5  6429 TIP3 H1   HT     0.417000        1.0080           0
   90126 WT5  6429 TIP3 H2   HT     0.417000        1.0080           0
   90127 WT5  6431 TIP3 OH2  OT    -0.834000       15.9994           0
   90128 WT5  6431 TIP3 H1   HT     0.417000        1.0080           0
   90129 WT5  6431 TIP3 H2   HT     0.417000        1.0080           0
   90130 WT5  6433 TIP3 OH2  OT    -0.834000       15.9994           0
   90131 WT5  6433 TIP3 H1   HT     0.417000        1.0080           0
   90132 WT5  6433 TIP3 H2   HT     0.417000        1.0080           0
   90133 WT5  6439 TIP3 OH2  OT    -0.834000       15.9994           0
   90134 WT5  6439 TIP3 H1   HT     0.417000        1.0080           0
   90135 WT5  6439 TIP3 H2   HT     0.417000        1.0080           0
   90136 WT5  6440 TIP3 OH2  OT    -0.834000       15.9994           0
   90137 WT5  6440 TIP3 H1   HT     0.417000        1.0080           0
   90138 WT5  6440 TIP3 H2   HT     0.417000        1.0080           0
   90139 WT5  6442 TIP3 OH2  OT    -0.834000       15.9994           0
   90140 WT5  6442 TIP3 H1   HT     0.417000        1.0080           0
   90141 WT5  6442 TIP3 H2   HT     0.417000        1.0080           0
   90142 WT5  6444 TIP3 OH2  OT    -0.834000       15.9994           0
   90143 WT5  6444 TIP3 H1   HT     0.417000        1.0080           0
   90144 WT5  6444 TIP3 H2   HT     0.417000        1.0080           0
   90145 WT5  6445 TIP3 OH2  OT    -0.834000       15.9994           0
   90146 WT5  6445 TIP3 H1   HT     0.417000        1.0080           0
   90147 WT5  6445 TIP3 H2   HT     0.417000        1.0080           0
   90148 WT5  6447 TIP3 OH2  OT    -0.834000       15.9994           0
   90149 WT5  6447 TIP3 H1   HT     0.417000        1.0080           0
   90150 WT5  6447 TIP3 H2   HT     0.417000        1.0080           0
   90151 WT5  6448 TIP3 OH2  OT    -0.834000       15.9994           0
   90152 WT5  6448 TIP3 H1   HT     0.417000        1.0080           0
   90153 WT5  6448 TIP3 H2   HT     0.417000        1.0080           0
   90154 WT5  6451 TIP3 OH2  OT    -0.834000       15.9994           0
   90155 WT5  6451 TIP3 H1   HT     0.417000        1.0080           0
   90156 WT5  6451 TIP3 H2   HT     0.417000        1.0080           0
   90157 WT5  6452 TIP3 OH2  OT    -0.834000       15.9994           0
   90158 WT5  6452 TIP3 H1   HT     0.417000        1.0080           0
   90159 WT5  6452 TIP3 H2   HT     0.417000        1.0080           0
   90160 WT5  6456 TIP3 OH2  OT    -0.834000       15.9994           0
   90161 WT5  6456 TIP3 H1   HT     0.417000        1.0080           0
   90162 WT5  6456 TIP3 H2   HT     0.417000        1.0080           0
   90163 WT5  6458 TIP3 OH2  OT    -0.834000       15.9994           0
   90164 WT5  6458 TIP3 H1   HT     0.417000        1.0080           0
   90165 WT5  6458 TIP3 H2   HT     0.417000        1.0080           0
   90166 WT5  6459 TIP3 OH2  OT    -0.834000       15.9994           0
   90167 WT5  6459 TIP3 H1   HT     0.417000        1.0080           0
   90168 WT5  6459 TIP3 H2   HT     0.417000        1.0080           0
   90169 WT5  6460 TIP3 OH2  OT    -0.834000       15.9994           0
   90170 WT5  6460 TIP3 H1   HT     0.417000        1.0080           0
   90171 WT5  6460 TIP3 H2   HT     0.417000        1.0080           0
   90172 WT5  6463 TIP3 OH2  OT    -0.834000       15.9994           0
   90173 WT5  6463 TIP3 H1   HT     0.417000        1.0080           0
   90174 WT5  6463 TIP3 H2   HT     0.417000        1.0080           0
   90175 WT5  6465 TIP3 OH2  OT    -0.834000       15.9994           0
   90176 WT5  6465 TIP3 H1   HT     0.417000        1.0080           0
   90177 WT5  6465 TIP3 H2   HT     0.417000        1.0080           0
   90178 WT5  6468 TIP3 OH2  OT    -0.834000       15.9994           0
   90179 WT5  6468 TIP3 H1   HT     0.417000        1.0080           0
   90180 WT5  6468 TIP3 H2   HT     0.417000        1.0080           0
   90181 WT5  6474 TIP3 OH2  OT    -0.834000       15.9994           0
   90182 WT5  6474 TIP3 H1   HT     0.417000        1.0080           0
   90183 WT5  6474 TIP3 H2   HT     0.417000        1.0080           0
   90184 WT5  6476 TIP3 OH2  OT    -0.834000       15.9994           0
   90185 WT5  6476 TIP3 H1   HT     0.417000        1.0080           0
   90186 WT5  6476 TIP3 H2   HT     0.417000        1.0080           0
   90187 WT5  6477 TIP3 OH2  OT    -0.834000       15.9994           0
   90188 WT5  6477 TIP3 H1   HT     0.417000        1.0080           0
   90189 WT5  6477 TIP3 H2   HT     0.417000        1.0080           0
   90190 WT5  6479 TIP3 OH2  OT    -0.834000       15.9994           0
   90191 WT5  6479 TIP3 H1   HT     0.417000        1.0080           0
   90192 WT5  6479 TIP3 H2   HT     0.417000        1.0080           0
   90193 WT5  6483 TIP3 OH2  OT    -0.834000       15.9994           0
   90194 WT5  6483 TIP3 H1   HT     0.417000        1.0080           0
   90195 WT5  6483 TIP3 H2   HT     0.417000        1.0080           0
   90196 WT5  6485 TIP3 OH2  OT    -0.834000       15.9994           0
   90197 WT5  6485 TIP3 H1   HT     0.417000        1.0080           0
   90198 WT5  6485 TIP3 H2   HT     0.417000        1.0080           0
   90199 WT5  6487 TIP3 OH2  OT    -0.834000       15.9994           0
   90200 WT5  6487 TIP3 H1   HT     0.417000        1.0080           0
   90201 WT5  6487 TIP3 H2   HT     0.417000        1.0080           0
   90202 WT5  6488 TIP3 OH2  OT    -0.834000       15.9994           0
   90203 WT5  6488 TIP3 H1   HT     0.417000        1.0080           0
   90204 WT5  6488 TIP3 H2   HT     0.417000        1.0080           0
   90205 WT5  6490 TIP3 OH2  OT    -0.834000       15.9994           0
   90206 WT5  6490 TIP3 H1   HT     0.417000        1.0080           0
   90207 WT5  6490 TIP3 H2   HT     0.417000        1.0080           0
   90208 WT5  6491 TIP3 OH2  OT    -0.834000       15.9994           0
   90209 WT5  6491 TIP3 H1   HT     0.417000        1.0080           0
   90210 WT5  6491 TIP3 H2   HT     0.417000        1.0080           0
   90211 WT5  6492 TIP3 OH2  OT    -0.834000       15.9994           0
   90212 WT5  6492 TIP3 H1   HT     0.417000        1.0080           0
   90213 WT5  6492 TIP3 H2   HT     0.417000        1.0080           0
   90214 WT5  6493 TIP3 OH2  OT    -0.834000       15.9994           0
   90215 WT5  6493 TIP3 H1   HT     0.417000        1.0080           0
   90216 WT5  6493 TIP3 H2   HT     0.417000        1.0080           0
   90217 WT5  6494 TIP3 OH2  OT    -0.834000       15.9994           0
   90218 WT5  6494 TIP3 H1   HT     0.417000        1.0080           0
   90219 WT5  6494 TIP3 H2   HT     0.417000        1.0080           0
   90220 WT5  6498 TIP3 OH2  OT    -0.834000       15.9994           0
   90221 WT5  6498 TIP3 H1   HT     0.417000        1.0080           0
   90222 WT5  6498 TIP3 H2   HT     0.417000        1.0080           0
   90223 WT5  6499 TIP3 OH2  OT    -0.834000       15.9994           0
   90224 WT5  6499 TIP3 H1   HT     0.417000        1.0080           0
   90225 WT5  6499 TIP3 H2   HT     0.417000        1.0080           0
   90226 WT5  6502 TIP3 OH2  OT    -0.834000       15.9994           0
   90227 WT5  6502 TIP3 H1   HT     0.417000        1.0080           0
   90228 WT5  6502 TIP3 H2   HT     0.417000        1.0080           0
   90229 WT5  6504 TIP3 OH2  OT    -0.834000       15.9994           0
   90230 WT5  6504 TIP3 H1   HT     0.417000        1.0080           0
   90231 WT5  6504 TIP3 H2   HT     0.417000        1.0080           0
   90232 WT5  6505 TIP3 OH2  OT    -0.834000       15.9994           0
   90233 WT5  6505 TIP3 H1   HT     0.417000        1.0080           0
   90234 WT5  6505 TIP3 H2   HT     0.417000        1.0080           0
   90235 WT5  6507 TIP3 OH2  OT    -0.834000       15.9994           0
   90236 WT5  6507 TIP3 H1   HT     0.417000        1.0080           0
   90237 WT5  6507 TIP3 H2   HT     0.417000        1.0080           0
   90238 WT5  6510 TIP3 OH2  OT    -0.834000       15.9994           0
   90239 WT5  6510 TIP3 H1   HT     0.417000        1.0080           0
   90240 WT5  6510 TIP3 H2   HT     0.417000        1.0080           0
   90241 WT5  6513 TIP3 OH2  OT    -0.834000       15.9994           0
   90242 WT5  6513 TIP3 H1   HT     0.417000        1.0080           0
   90243 WT5  6513 TIP3 H2   HT     0.417000        1.0080           0
   90244 WT5  6516 TIP3 OH2  OT    -0.834000       15.9994           0
   90245 WT5  6516 TIP3 H1   HT     0.417000        1.0080           0
   90246 WT5  6516 TIP3 H2   HT     0.417000        1.0080           0
   90247 WT5  6518 TIP3 OH2  OT    -0.834000       15.9994           0
   90248 WT5  6518 TIP3 H1   HT     0.417000        1.0080           0
   90249 WT5  6518 TIP3 H2   HT     0.417000        1.0080           0
   90250 WT5  6519 TIP3 OH2  OT    -0.834000       15.9994           0
   90251 WT5  6519 TIP3 H1   HT     0.417000        1.0080           0
   90252 WT5  6519 TIP3 H2   HT     0.417000        1.0080           0
   90253 WT5  6526 TIP3 OH2  OT    -0.834000       15.9994           0
   90254 WT5  6526 TIP3 H1   HT     0.417000        1.0080           0
   90255 WT5  6526 TIP3 H2   HT     0.417000        1.0080           0
   90256 WT5  6529 TIP3 OH2  OT    -0.834000       15.9994           0
   90257 WT5  6529 TIP3 H1   HT     0.417000        1.0080           0
   90258 WT5  6529 TIP3 H2   HT     0.417000        1.0080           0
   90259 WT5  6533 TIP3 OH2  OT    -0.834000       15.9994           0
   90260 WT5  6533 TIP3 H1   HT     0.417000        1.0080           0
   90261 WT5  6533 TIP3 H2   HT     0.417000        1.0080           0
   90262 WT5  6538 TIP3 OH2  OT    -0.834000       15.9994           0
   90263 WT5  6538 TIP3 H1   HT     0.417000        1.0080           0
   90264 WT5  6538 TIP3 H2   HT     0.417000        1.0080           0
   90265 WT5  6539 TIP3 OH2  OT    -0.834000       15.9994           0
   90266 WT5  6539 TIP3 H1   HT     0.417000        1.0080           0
   90267 WT5  6539 TIP3 H2   HT     0.417000        1.0080           0
   90268 WT5  6547 TIP3 OH2  OT    -0.834000       15.9994           0
   90269 WT5  6547 TIP3 H1   HT     0.417000        1.0080           0
   90270 WT5  6547 TIP3 H2   HT     0.417000        1.0080           0
   90271 WT5  6551 TIP3 OH2  OT    -0.834000       15.9994           0
   90272 WT5  6551 TIP3 H1   HT     0.417000        1.0080           0
   90273 WT5  6551 TIP3 H2   HT     0.417000        1.0080           0
   90274 WT5  6552 TIP3 OH2  OT    -0.834000       15.9994           0
   90275 WT5  6552 TIP3 H1   HT     0.417000        1.0080           0
   90276 WT5  6552 TIP3 H2   HT     0.417000        1.0080           0
   90277 WT5  6554 TIP3 OH2  OT    -0.834000       15.9994           0
   90278 WT5  6554 TIP3 H1   HT     0.417000        1.0080           0
   90279 WT5  6554 TIP3 H2   HT     0.417000        1.0080           0
   90280 WT5  6556 TIP3 OH2  OT    -0.834000       15.9994           0
   90281 WT5  6556 TIP3 H1   HT     0.417000        1.0080           0
   90282 WT5  6556 TIP3 H2   HT     0.417000        1.0080           0
   90283 WT5  6557 TIP3 OH2  OT    -0.834000       15.9994           0
   90284 WT5  6557 TIP3 H1   HT     0.417000        1.0080           0
   90285 WT5  6557 TIP3 H2   HT     0.417000        1.0080           0
   90286 WT5  6558 TIP3 OH2  OT    -0.834000       15.9994           0
   90287 WT5  6558 TIP3 H1   HT     0.417000        1.0080           0
   90288 WT5  6558 TIP3 H2   HT     0.417000        1.0080           0
   90289 WT5  6561 TIP3 OH2  OT    -0.834000       15.9994           0
   90290 WT5  6561 TIP3 H1   HT     0.417000        1.0080           0
   90291 WT5  6561 TIP3 H2   HT     0.417000        1.0080           0
   90292 WT5  6562 TIP3 OH2  OT    -0.834000       15.9994           0
   90293 WT5  6562 TIP3 H1   HT     0.417000        1.0080           0
   90294 WT5  6562 TIP3 H2   HT     0.417000        1.0080           0
   90295 WT5  6567 TIP3 OH2  OT    -0.834000       15.9994           0
   90296 WT5  6567 TIP3 H1   HT     0.417000        1.0080           0
   90297 WT5  6567 TIP3 H2   HT     0.417000        1.0080           0
   90298 WT5  6568 TIP3 OH2  OT    -0.834000       15.9994           0
   90299 WT5  6568 TIP3 H1   HT     0.417000        1.0080           0
   90300 WT5  6568 TIP3 H2   HT     0.417000        1.0080           0
   90301 WT5  6570 TIP3 OH2  OT    -0.834000       15.9994           0
   90302 WT5  6570 TIP3 H1   HT     0.417000        1.0080           0
   90303 WT5  6570 TIP3 H2   HT     0.417000        1.0080           0
   90304 WT5  6572 TIP3 OH2  OT    -0.834000       15.9994           0
   90305 WT5  6572 TIP3 H1   HT     0.417000        1.0080           0
   90306 WT5  6572 TIP3 H2   HT     0.417000        1.0080           0
   90307 WT5  6574 TIP3 OH2  OT    -0.834000       15.9994           0
   90308 WT5  6574 TIP3 H1   HT     0.417000        1.0080           0
   90309 WT5  6574 TIP3 H2   HT     0.417000        1.0080           0
   90310 WT5  6575 TIP3 OH2  OT    -0.834000       15.9994           0
   90311 WT5  6575 TIP3 H1   HT     0.417000        1.0080           0
   90312 WT5  6575 TIP3 H2   HT     0.417000        1.0080           0
   90313 WT5  6577 TIP3 OH2  OT    -0.834000       15.9994           0
   90314 WT5  6577 TIP3 H1   HT     0.417000        1.0080           0
   90315 WT5  6577 TIP3 H2   HT     0.417000        1.0080           0
   90316 WT5  6578 TIP3 OH2  OT    -0.834000       15.9994           0
   90317 WT5  6578 TIP3 H1   HT     0.417000        1.0080           0
   90318 WT5  6578 TIP3 H2   HT     0.417000        1.0080           0
   90319 WT5  6583 TIP3 OH2  OT    -0.834000       15.9994           0
   90320 WT5  6583 TIP3 H1   HT     0.417000        1.0080           0
   90321 WT5  6583 TIP3 H2   HT     0.417000        1.0080           0
   90322 WT5  6592 TIP3 OH2  OT    -0.834000       15.9994           0
   90323 WT5  6592 TIP3 H1   HT     0.417000        1.0080           0
   90324 WT5  6592 TIP3 H2   HT     0.417000        1.0080           0
   90325 WT5  6597 TIP3 OH2  OT    -0.834000       15.9994           0
   90326 WT5  6597 TIP3 H1   HT     0.417000        1.0080           0
   90327 WT5  6597 TIP3 H2   HT     0.417000        1.0080           0
   90328 WT5  6598 TIP3 OH2  OT    -0.834000       15.9994           0
   90329 WT5  6598 TIP3 H1   HT     0.417000        1.0080           0
   90330 WT5  6598 TIP3 H2   HT     0.417000        1.0080           0
   90331 WT5  6599 TIP3 OH2  OT    -0.834000       15.9994           0
   90332 WT5  6599 TIP3 H1   HT     0.417000        1.0080           0
   90333 WT5  6599 TIP3 H2   HT     0.417000        1.0080           0
   90334 WT5  6602 TIP3 OH2  OT    -0.834000       15.9994           0
   90335 WT5  6602 TIP3 H1   HT     0.417000        1.0080           0
   90336 WT5  6602 TIP3 H2   HT     0.417000        1.0080           0
   90337 WT5  6603 TIP3 OH2  OT    -0.834000       15.9994           0
   90338 WT5  6603 TIP3 H1   HT     0.417000        1.0080           0
   90339 WT5  6603 TIP3 H2   HT     0.417000        1.0080           0
   90340 WT5  6605 TIP3 OH2  OT    -0.834000       15.9994           0
   90341 WT5  6605 TIP3 H1   HT     0.417000        1.0080           0
   90342 WT5  6605 TIP3 H2   HT     0.417000        1.0080           0
   90343 WT5  6612 TIP3 OH2  OT    -0.834000       15.9994           0
   90344 WT5  6612 TIP3 H1   HT     0.417000        1.0080           0
   90345 WT5  6612 TIP3 H2   HT     0.417000        1.0080           0
   90346 WT5  6613 TIP3 OH2  OT    -0.834000       15.9994           0
   90347 WT5  6613 TIP3 H1   HT     0.417000        1.0080           0
   90348 WT5  6613 TIP3 H2   HT     0.417000        1.0080           0
   90349 WT5  6614 TIP3 OH2  OT    -0.834000       15.9994           0
   90350 WT5  6614 TIP3 H1   HT     0.417000        1.0080           0
   90351 WT5  6614 TIP3 H2   HT     0.417000        1.0080           0
   90352 WT5  6615 TIP3 OH2  OT    -0.834000       15.9994           0
   90353 WT5  6615 TIP3 H1   HT     0.417000        1.0080           0
   90354 WT5  6615 TIP3 H2   HT     0.417000        1.0080           0
   90355 WT5  6617 TIP3 OH2  OT    -0.834000       15.9994           0
   90356 WT5  6617 TIP3 H1   HT     0.417000        1.0080           0
   90357 WT5  6617 TIP3 H2   HT     0.417000        1.0080           0
   90358 WT5  6623 TIP3 OH2  OT    -0.834000       15.9994           0
   90359 WT5  6623 TIP3 H1   HT     0.417000        1.0080           0
   90360 WT5  6623 TIP3 H2   HT     0.417000        1.0080           0
   90361 WT5  6624 TIP3 OH2  OT    -0.834000       15.9994           0
   90362 WT5  6624 TIP3 H1   HT     0.417000        1.0080           0
   90363 WT5  6624 TIP3 H2   HT     0.417000        1.0080           0
   90364 WT5  6626 TIP3 OH2  OT    -0.834000       15.9994           0
   90365 WT5  6626 TIP3 H1   HT     0.417000        1.0080           0
   90366 WT5  6626 TIP3 H2   HT     0.417000        1.0080           0
   90367 WT5  6628 TIP3 OH2  OT    -0.834000       15.9994           0
   90368 WT5  6628 TIP3 H1   HT     0.417000        1.0080           0
   90369 WT5  6628 TIP3 H2   HT     0.417000        1.0080           0
   90370 WT5  6631 TIP3 OH2  OT    -0.834000       15.9994           0
   90371 WT5  6631 TIP3 H1   HT     0.417000        1.0080           0
   90372 WT5  6631 TIP3 H2   HT     0.417000        1.0080           0
   90373 WT5  6642 TIP3 OH2  OT    -0.834000       15.9994           0
   90374 WT5  6642 TIP3 H1   HT     0.417000        1.0080           0
   90375 WT5  6642 TIP3 H2   HT     0.417000        1.0080           0
   90376 WT5  6650 TIP3 OH2  OT    -0.834000       15.9994           0
   90377 WT5  6650 TIP3 H1   HT     0.417000        1.0080           0
   90378 WT5  6650 TIP3 H2   HT     0.417000        1.0080           0
   90379 WT5  6653 TIP3 OH2  OT    -0.834000       15.9994           0
   90380 WT5  6653 TIP3 H1   HT     0.417000        1.0080           0
   90381 WT5  6653 TIP3 H2   HT     0.417000        1.0080           0
   90382 WT5  6657 TIP3 OH2  OT    -0.834000       15.9994           0
   90383 WT5  6657 TIP3 H1   HT     0.417000        1.0080           0
   90384 WT5  6657 TIP3 H2   HT     0.417000        1.0080           0
   90385 WT5  6660 TIP3 OH2  OT    -0.834000       15.9994           0
   90386 WT5  6660 TIP3 H1   HT     0.417000        1.0080           0
   90387 WT5  6660 TIP3 H2   HT     0.417000        1.0080           0
   90388 WT5  6661 TIP3 OH2  OT    -0.834000       15.9994           0
   90389 WT5  6661 TIP3 H1   HT     0.417000        1.0080           0
   90390 WT5  6661 TIP3 H2   HT     0.417000        1.0080           0
   90391 WT5  6663 TIP3 OH2  OT    -0.834000       15.9994           0
   90392 WT5  6663 TIP3 H1   HT     0.417000        1.0080           0
   90393 WT5  6663 TIP3 H2   HT     0.417000        1.0080           0
   90394 WT5  6664 TIP3 OH2  OT    -0.834000       15.9994           0
   90395 WT5  6664 TIP3 H1   HT     0.417000        1.0080           0
   90396 WT5  6664 TIP3 H2   HT     0.417000        1.0080           0
   90397 WT5  6667 TIP3 OH2  OT    -0.834000       15.9994           0
   90398 WT5  6667 TIP3 H1   HT     0.417000        1.0080           0
   90399 WT5  6667 TIP3 H2   HT     0.417000        1.0080           0
   90400 WT5  6669 TIP3 OH2  OT    -0.834000       15.9994           0
   90401 WT5  6669 TIP3 H1   HT     0.417000        1.0080           0
   90402 WT5  6669 TIP3 H2   HT     0.417000        1.0080           0
   90403 WT5  6671 TIP3 OH2  OT    -0.834000       15.9994           0
   90404 WT5  6671 TIP3 H1   HT     0.417000        1.0080           0
   90405 WT5  6671 TIP3 H2   HT     0.417000        1.0080           0
   90406 WT5  6672 TIP3 OH2  OT    -0.834000       15.9994           0
   90407 WT5  6672 TIP3 H1   HT     0.417000        1.0080           0
   90408 WT5  6672 TIP3 H2   HT     0.417000        1.0080           0
   90409 WT5  6676 TIP3 OH2  OT    -0.834000       15.9994           0
   90410 WT5  6676 TIP3 H1   HT     0.417000        1.0080           0
   90411 WT5  6676 TIP3 H2   HT     0.417000        1.0080           0
   90412 WT5  6677 TIP3 OH2  OT    -0.834000       15.9994           0
   90413 WT5  6677 TIP3 H1   HT     0.417000        1.0080           0
   90414 WT5  6677 TIP3 H2   HT     0.417000        1.0080           0
   90415 WT5  6678 TIP3 OH2  OT    -0.834000       15.9994           0
   90416 WT5  6678 TIP3 H1   HT     0.417000        1.0080           0
   90417 WT5  6678 TIP3 H2   HT     0.417000        1.0080           0
   90418 WT5  6680 TIP3 OH2  OT    -0.834000       15.9994           0
   90419 WT5  6680 TIP3 H1   HT     0.417000        1.0080           0
   90420 WT5  6680 TIP3 H2   HT     0.417000        1.0080           0
   90421 WT5  6681 TIP3 OH2  OT    -0.834000       15.9994           0
   90422 WT5  6681 TIP3 H1   HT     0.417000        1.0080           0
   90423 WT5  6681 TIP3 H2   HT     0.417000        1.0080           0
   90424 WT5  6683 TIP3 OH2  OT    -0.834000       15.9994           0
   90425 WT5  6683 TIP3 H1   HT     0.417000        1.0080           0
   90426 WT5  6683 TIP3 H2   HT     0.417000        1.0080           0
   90427 WT5  6684 TIP3 OH2  OT    -0.834000       15.9994           0
   90428 WT5  6684 TIP3 H1   HT     0.417000        1.0080           0
   90429 WT5  6684 TIP3 H2   HT     0.417000        1.0080           0
   90430 WT5  6698 TIP3 OH2  OT    -0.834000       15.9994           0
   90431 WT5  6698 TIP3 H1   HT     0.417000        1.0080           0
   90432 WT5  6698 TIP3 H2   HT     0.417000        1.0080           0
   90433 WT5  6702 TIP3 OH2  OT    -0.834000       15.9994           0
   90434 WT5  6702 TIP3 H1   HT     0.417000        1.0080           0
   90435 WT5  6702 TIP3 H2   HT     0.417000        1.0080           0
   90436 WT5  6703 TIP3 OH2  OT    -0.834000       15.9994           0
   90437 WT5  6703 TIP3 H1   HT     0.417000        1.0080           0
   90438 WT5  6703 TIP3 H2   HT     0.417000        1.0080           0
   90439 WT5  6705 TIP3 OH2  OT    -0.834000       15.9994           0
   90440 WT5  6705 TIP3 H1   HT     0.417000        1.0080           0
   90441 WT5  6705 TIP3 H2   HT     0.417000        1.0080           0
   90442 WT5  6707 TIP3 OH2  OT    -0.834000       15.9994           0
   90443 WT5  6707 TIP3 H1   HT     0.417000        1.0080           0
   90444 WT5  6707 TIP3 H2   HT     0.417000        1.0080           0
   90445 WT5  6708 TIP3 OH2  OT    -0.834000       15.9994           0
   90446 WT5  6708 TIP3 H1   HT     0.417000        1.0080           0
   90447 WT5  6708 TIP3 H2   HT     0.417000        1.0080           0
   90448 WT5  6717 TIP3 OH2  OT    -0.834000       15.9994           0
   90449 WT5  6717 TIP3 H1   HT     0.417000        1.0080           0
   90450 WT5  6717 TIP3 H2   HT     0.417000        1.0080           0
   90451 WT5  6719 TIP3 OH2  OT    -0.834000       15.9994           0
   90452 WT5  6719 TIP3 H1   HT     0.417000        1.0080           0
   90453 WT5  6719 TIP3 H2   HT     0.417000        1.0080           0
   90454 WT5  6721 TIP3 OH2  OT    -0.834000       15.9994           0
   90455 WT5  6721 TIP3 H1   HT     0.417000        1.0080           0
   90456 WT5  6721 TIP3 H2   HT     0.417000        1.0080           0
   90457 WT5  6722 TIP3 OH2  OT    -0.834000       15.9994           0
   90458 WT5  6722 TIP3 H1   HT     0.417000        1.0080           0
   90459 WT5  6722 TIP3 H2   HT     0.417000        1.0080           0
   90460 WT5  6725 TIP3 OH2  OT    -0.834000       15.9994           0
   90461 WT5  6725 TIP3 H1   HT     0.417000        1.0080           0
   90462 WT5  6725 TIP3 H2   HT     0.417000        1.0080           0
   90463 WT5  6726 TIP3 OH2  OT    -0.834000       15.9994           0
   90464 WT5  6726 TIP3 H1   HT     0.417000        1.0080           0
   90465 WT5  6726 TIP3 H2   HT     0.417000        1.0080           0
   90466 WT5  6727 TIP3 OH2  OT    -0.834000       15.9994           0
   90467 WT5  6727 TIP3 H1   HT     0.417000        1.0080           0
   90468 WT5  6727 TIP3 H2   HT     0.417000        1.0080           0
   90469 WT5  6729 TIP3 OH2  OT    -0.834000       15.9994           0
   90470 WT5  6729 TIP3 H1   HT     0.417000        1.0080           0
   90471 WT5  6729 TIP3 H2   HT     0.417000        1.0080           0
   90472 WT5  6730 TIP3 OH2  OT    -0.834000       15.9994           0
   90473 WT5  6730 TIP3 H1   HT     0.417000        1.0080           0
   90474 WT5  6730 TIP3 H2   HT     0.417000        1.0080           0
   90475 WT5  6735 TIP3 OH2  OT    -0.834000       15.9994           0
   90476 WT5  6735 TIP3 H1   HT     0.417000        1.0080           0
   90477 WT5  6735 TIP3 H2   HT     0.417000        1.0080           0
   90478 WT5  6736 TIP3 OH2  OT    -0.834000       15.9994           0
   90479 WT5  6736 TIP3 H1   HT     0.417000        1.0080           0
   90480 WT5  6736 TIP3 H2   HT     0.417000        1.0080           0
   90481 WT5  6741 TIP3 OH2  OT    -0.834000       15.9994           0
   90482 WT5  6741 TIP3 H1   HT     0.417000        1.0080           0
   90483 WT5  6741 TIP3 H2   HT     0.417000        1.0080           0
   90484 WT5  6743 TIP3 OH2  OT    -0.834000       15.9994           0
   90485 WT5  6743 TIP3 H1   HT     0.417000        1.0080           0
   90486 WT5  6743 TIP3 H2   HT     0.417000        1.0080           0
   90487 WT5  6744 TIP3 OH2  OT    -0.834000       15.9994           0
   90488 WT5  6744 TIP3 H1   HT     0.417000        1.0080           0
   90489 WT5  6744 TIP3 H2   HT     0.417000        1.0080           0
   90490 WT5  6750 TIP3 OH2  OT    -0.834000       15.9994           0
   90491 WT5  6750 TIP3 H1   HT     0.417000        1.0080           0
   90492 WT5  6750 TIP3 H2   HT     0.417000        1.0080           0
   90493 WT5  6751 TIP3 OH2  OT    -0.834000       15.9994           0
   90494 WT5  6751 TIP3 H1   HT     0.417000        1.0080           0
   90495 WT5  6751 TIP3 H2   HT     0.417000        1.0080           0
   90496 WT5  6754 TIP3 OH2  OT    -0.834000       15.9994           0
   90497 WT5  6754 TIP3 H1   HT     0.417000        1.0080           0
   90498 WT5  6754 TIP3 H2   HT     0.417000        1.0080           0
   90499 WT5  6757 TIP3 OH2  OT    -0.834000       15.9994           0
   90500 WT5  6757 TIP3 H1   HT     0.417000        1.0080           0
   90501 WT5  6757 TIP3 H2   HT     0.417000        1.0080           0
   90502 WT5  6758 TIP3 OH2  OT    -0.834000       15.9994           0
   90503 WT5  6758 TIP3 H1   HT     0.417000        1.0080           0
   90504 WT5  6758 TIP3 H2   HT     0.417000        1.0080           0
   90505 WT5  6761 TIP3 OH2  OT    -0.834000       15.9994           0
   90506 WT5  6761 TIP3 H1   HT     0.417000        1.0080           0
   90507 WT5  6761 TIP3 H2   HT     0.417000        1.0080           0
   90508 WT5  6763 TIP3 OH2  OT    -0.834000       15.9994           0
   90509 WT5  6763 TIP3 H1   HT     0.417000        1.0080           0
   90510 WT5  6763 TIP3 H2   HT     0.417000        1.0080           0
   90511 WT5  6773 TIP3 OH2  OT    -0.834000       15.9994           0
   90512 WT5  6773 TIP3 H1   HT     0.417000        1.0080           0
   90513 WT5  6773 TIP3 H2   HT     0.417000        1.0080           0
   90514 WT5  6774 TIP3 OH2  OT    -0.834000       15.9994           0
   90515 WT5  6774 TIP3 H1   HT     0.417000        1.0080           0
   90516 WT5  6774 TIP3 H2   HT     0.417000        1.0080           0
   90517 WT5  6776 TIP3 OH2  OT    -0.834000       15.9994           0
   90518 WT5  6776 TIP3 H1   HT     0.417000        1.0080           0
   90519 WT5  6776 TIP3 H2   HT     0.417000        1.0080           0
   90520 WT5  6777 TIP3 OH2  OT    -0.834000       15.9994           0
   90521 WT5  6777 TIP3 H1   HT     0.417000        1.0080           0
   90522 WT5  6777 TIP3 H2   HT     0.417000        1.0080           0
   90523 WT5  6779 TIP3 OH2  OT    -0.834000       15.9994           0
   90524 WT5  6779 TIP3 H1   HT     0.417000        1.0080           0
   90525 WT5  6779 TIP3 H2   HT     0.417000        1.0080           0
   90526 WT5  6782 TIP3 OH2  OT    -0.834000       15.9994           0
   90527 WT5  6782 TIP3 H1   HT     0.417000        1.0080           0
   90528 WT5  6782 TIP3 H2   HT     0.417000        1.0080           0
   90529 WT5  6788 TIP3 OH2  OT    -0.834000       15.9994           0
   90530 WT5  6788 TIP3 H1   HT     0.417000        1.0080           0
   90531 WT5  6788 TIP3 H2   HT     0.417000        1.0080           0
   90532 WT5  6789 TIP3 OH2  OT    -0.834000       15.9994           0
   90533 WT5  6789 TIP3 H1   HT     0.417000        1.0080           0
   90534 WT5  6789 TIP3 H2   HT     0.417000        1.0080           0
   90535 WT5  6791 TIP3 OH2  OT    -0.834000       15.9994           0
   90536 WT5  6791 TIP3 H1   HT     0.417000        1.0080           0
   90537 WT5  6791 TIP3 H2   HT     0.417000        1.0080           0
   90538 WT5  6794 TIP3 OH2  OT    -0.834000       15.9994           0
   90539 WT5  6794 TIP3 H1   HT     0.417000        1.0080           0
   90540 WT5  6794 TIP3 H2   HT     0.417000        1.0080           0
   90541 WT5  6797 TIP3 OH2  OT    -0.834000       15.9994           0
   90542 WT5  6797 TIP3 H1   HT     0.417000        1.0080           0
   90543 WT5  6797 TIP3 H2   HT     0.417000        1.0080           0
   90544 WT5  6802 TIP3 OH2  OT    -0.834000       15.9994           0
   90545 WT5  6802 TIP3 H1   HT     0.417000        1.0080           0
   90546 WT5  6802 TIP3 H2   HT     0.417000        1.0080           0
   90547 WT5  6803 TIP3 OH2  OT    -0.834000       15.9994           0
   90548 WT5  6803 TIP3 H1   HT     0.417000        1.0080           0
   90549 WT5  6803 TIP3 H2   HT     0.417000        1.0080           0
   90550 WT5  6808 TIP3 OH2  OT    -0.834000       15.9994           0
   90551 WT5  6808 TIP3 H1   HT     0.417000        1.0080           0
   90552 WT5  6808 TIP3 H2   HT     0.417000        1.0080           0
   90553 WT5  6811 TIP3 OH2  OT    -0.834000       15.9994           0
   90554 WT5  6811 TIP3 H1   HT     0.417000        1.0080           0
   90555 WT5  6811 TIP3 H2   HT     0.417000        1.0080           0
   90556 WT5  6813 TIP3 OH2  OT    -0.834000       15.9994           0
   90557 WT5  6813 TIP3 H1   HT     0.417000        1.0080           0
   90558 WT5  6813 TIP3 H2   HT     0.417000        1.0080           0
   90559 WT5  6815 TIP3 OH2  OT    -0.834000       15.9994           0
   90560 WT5  6815 TIP3 H1   HT     0.417000        1.0080           0
   90561 WT5  6815 TIP3 H2   HT     0.417000        1.0080           0
   90562 WT5  6816 TIP3 OH2  OT    -0.834000       15.9994           0
   90563 WT5  6816 TIP3 H1   HT     0.417000        1.0080           0
   90564 WT5  6816 TIP3 H2   HT     0.417000        1.0080           0
   90565 WT5  6817 TIP3 OH2  OT    -0.834000       15.9994           0
   90566 WT5  6817 TIP3 H1   HT     0.417000        1.0080           0
   90567 WT5  6817 TIP3 H2   HT     0.417000        1.0080           0
   90568 WT5  6819 TIP3 OH2  OT    -0.834000       15.9994           0
   90569 WT5  6819 TIP3 H1   HT     0.417000        1.0080           0
   90570 WT5  6819 TIP3 H2   HT     0.417000        1.0080           0
   90571 WT5  6820 TIP3 OH2  OT    -0.834000       15.9994           0
   90572 WT5  6820 TIP3 H1   HT     0.417000        1.0080           0
   90573 WT5  6820 TIP3 H2   HT     0.417000        1.0080           0
   90574 WT5  6821 TIP3 OH2  OT    -0.834000       15.9994           0
   90575 WT5  6821 TIP3 H1   HT     0.417000        1.0080           0
   90576 WT5  6821 TIP3 H2   HT     0.417000        1.0080           0
   90577 WT5  6830 TIP3 OH2  OT    -0.834000       15.9994           0
   90578 WT5  6830 TIP3 H1   HT     0.417000        1.0080           0
   90579 WT5  6830 TIP3 H2   HT     0.417000        1.0080           0
   90580 WT5  6832 TIP3 OH2  OT    -0.834000       15.9994           0
   90581 WT5  6832 TIP3 H1   HT     0.417000        1.0080           0
   90582 WT5  6832 TIP3 H2   HT     0.417000        1.0080           0
   90583 WT5  6834 TIP3 OH2  OT    -0.834000       15.9994           0
   90584 WT5  6834 TIP3 H1   HT     0.417000        1.0080           0
   90585 WT5  6834 TIP3 H2   HT     0.417000        1.0080           0
   90586 WT5  6835 TIP3 OH2  OT    -0.834000       15.9994           0
   90587 WT5  6835 TIP3 H1   HT     0.417000        1.0080           0
   90588 WT5  6835 TIP3 H2   HT     0.417000        1.0080           0
   90589 WT5  6837 TIP3 OH2  OT    -0.834000       15.9994           0
   90590 WT5  6837 TIP3 H1   HT     0.417000        1.0080           0
   90591 WT5  6837 TIP3 H2   HT     0.417000        1.0080           0
   90592 WT5  6845 TIP3 OH2  OT    -0.834000       15.9994           0
   90593 WT5  6845 TIP3 H1   HT     0.417000        1.0080           0
   90594 WT5  6845 TIP3 H2   HT     0.417000        1.0080           0
   90595 WT5  6846 TIP3 OH2  OT    -0.834000       15.9994           0
   90596 WT5  6846 TIP3 H1   HT     0.417000        1.0080           0
   90597 WT5  6846 TIP3 H2   HT     0.417000        1.0080           0
   90598 WT5  6847 TIP3 OH2  OT    -0.834000       15.9994           0
   90599 WT5  6847 TIP3 H1   HT     0.417000        1.0080           0
   90600 WT5  6847 TIP3 H2   HT     0.417000        1.0080           0
   90601 WT5  6848 TIP3 OH2  OT    -0.834000       15.9994           0
   90602 WT5  6848 TIP3 H1   HT     0.417000        1.0080           0
   90603 WT5  6848 TIP3 H2   HT     0.417000        1.0080           0
   90604 WT5  6851 TIP3 OH2  OT    -0.834000       15.9994           0
   90605 WT5  6851 TIP3 H1   HT     0.417000        1.0080           0
   90606 WT5  6851 TIP3 H2   HT     0.417000        1.0080           0
   90607 WT5  6852 TIP3 OH2  OT    -0.834000       15.9994           0
   90608 WT5  6852 TIP3 H1   HT     0.417000        1.0080           0
   90609 WT5  6852 TIP3 H2   HT     0.417000        1.0080           0
   90610 WT5  6854 TIP3 OH2  OT    -0.834000       15.9994           0
   90611 WT5  6854 TIP3 H1   HT     0.417000        1.0080           0
   90612 WT5  6854 TIP3 H2   HT     0.417000        1.0080           0
   90613 WT5  6855 TIP3 OH2  OT    -0.834000       15.9994           0
   90614 WT5  6855 TIP3 H1   HT     0.417000        1.0080           0
   90615 WT5  6855 TIP3 H2   HT     0.417000        1.0080           0
   90616 WT5  6859 TIP3 OH2  OT    -0.834000       15.9994           0
   90617 WT5  6859 TIP3 H1   HT     0.417000        1.0080           0
   90618 WT5  6859 TIP3 H2   HT     0.417000        1.0080           0
   90619 WT5  6864 TIP3 OH2  OT    -0.834000       15.9994           0
   90620 WT5  6864 TIP3 H1   HT     0.417000        1.0080           0
   90621 WT5  6864 TIP3 H2   HT     0.417000        1.0080           0
   90622 WT5  6867 TIP3 OH2  OT    -0.834000       15.9994           0
   90623 WT5  6867 TIP3 H1   HT     0.417000        1.0080           0
   90624 WT5  6867 TIP3 H2   HT     0.417000        1.0080           0
   90625 WT5  6877 TIP3 OH2  OT    -0.834000       15.9994           0
   90626 WT5  6877 TIP3 H1   HT     0.417000        1.0080           0
   90627 WT5  6877 TIP3 H2   HT     0.417000        1.0080           0
   90628 WT5  6881 TIP3 OH2  OT    -0.834000       15.9994           0
   90629 WT5  6881 TIP3 H1   HT     0.417000        1.0080           0
   90630 WT5  6881 TIP3 H2   HT     0.417000        1.0080           0
   90631 WT5  6882 TIP3 OH2  OT    -0.834000       15.9994           0
   90632 WT5  6882 TIP3 H1   HT     0.417000        1.0080           0
   90633 WT5  6882 TIP3 H2   HT     0.417000        1.0080           0
   90634 WT5  6885 TIP3 OH2  OT    -0.834000       15.9994           0
   90635 WT5  6885 TIP3 H1   HT     0.417000        1.0080           0
   90636 WT5  6885 TIP3 H2   HT     0.417000        1.0080           0
   90637 WT5  6888 TIP3 OH2  OT    -0.834000       15.9994           0
   90638 WT5  6888 TIP3 H1   HT     0.417000        1.0080           0
   90639 WT5  6888 TIP3 H2   HT     0.417000        1.0080           0
   90640 WT5  6889 TIP3 OH2  OT    -0.834000       15.9994           0
   90641 WT5  6889 TIP3 H1   HT     0.417000        1.0080           0
   90642 WT5  6889 TIP3 H2   HT     0.417000        1.0080           0
   90643 WT5  6894 TIP3 OH2  OT    -0.834000       15.9994           0
   90644 WT5  6894 TIP3 H1   HT     0.417000        1.0080           0
   90645 WT5  6894 TIP3 H2   HT     0.417000        1.0080           0
   90646 WT5  6897 TIP3 OH2  OT    -0.834000       15.9994           0
   90647 WT5  6897 TIP3 H1   HT     0.417000        1.0080           0
   90648 WT5  6897 TIP3 H2   HT     0.417000        1.0080           0
   90649 WT5  6901 TIP3 OH2  OT    -0.834000       15.9994           0
   90650 WT5  6901 TIP3 H1   HT     0.417000        1.0080           0
   90651 WT5  6901 TIP3 H2   HT     0.417000        1.0080           0
   90652 WT5  6902 TIP3 OH2  OT    -0.834000       15.9994           0
   90653 WT5  6902 TIP3 H1   HT     0.417000        1.0080           0
   90654 WT5  6902 TIP3 H2   HT     0.417000        1.0080           0
   90655 WT5  6904 TIP3 OH2  OT    -0.834000       15.9994           0
   90656 WT5  6904 TIP3 H1   HT     0.417000        1.0080           0
   90657 WT5  6904 TIP3 H2   HT     0.417000        1.0080           0
   90658 WT5  6906 TIP3 OH2  OT    -0.834000       15.9994           0
   90659 WT5  6906 TIP3 H1   HT     0.417000        1.0080           0
   90660 WT5  6906 TIP3 H2   HT     0.417000        1.0080           0
   90661 WT5  6909 TIP3 OH2  OT    -0.834000       15.9994           0
   90662 WT5  6909 TIP3 H1   HT     0.417000        1.0080           0
   90663 WT5  6909 TIP3 H2   HT     0.417000        1.0080           0
   90664 WT5  6912 TIP3 OH2  OT    -0.834000       15.9994           0
   90665 WT5  6912 TIP3 H1   HT     0.417000        1.0080           0
   90666 WT5  6912 TIP3 H2   HT     0.417000        1.0080           0
   90667 WT5  6917 TIP3 OH2  OT    -0.834000       15.9994           0
   90668 WT5  6917 TIP3 H1   HT     0.417000        1.0080           0
   90669 WT5  6917 TIP3 H2   HT     0.417000        1.0080           0
   90670 WT5  6918 TIP3 OH2  OT    -0.834000       15.9994           0
   90671 WT5  6918 TIP3 H1   HT     0.417000        1.0080           0
   90672 WT5  6918 TIP3 H2   HT     0.417000        1.0080           0
   90673 WT5  6928 TIP3 OH2  OT    -0.834000       15.9994           0
   90674 WT5  6928 TIP3 H1   HT     0.417000        1.0080           0
   90675 WT5  6928 TIP3 H2   HT     0.417000        1.0080           0
   90676 WT5  6930 TIP3 OH2  OT    -0.834000       15.9994           0
   90677 WT5  6930 TIP3 H1   HT     0.417000        1.0080           0
   90678 WT5  6930 TIP3 H2   HT     0.417000        1.0080           0
   90679 WT5  6939 TIP3 OH2  OT    -0.834000       15.9994           0
   90680 WT5  6939 TIP3 H1   HT     0.417000        1.0080           0
   90681 WT5  6939 TIP3 H2   HT     0.417000        1.0080           0
   90682 WT5  6942 TIP3 OH2  OT    -0.834000       15.9994           0
   90683 WT5  6942 TIP3 H1   HT     0.417000        1.0080           0
   90684 WT5  6942 TIP3 H2   HT     0.417000        1.0080           0
   90685 WT5  6948 TIP3 OH2  OT    -0.834000       15.9994           0
   90686 WT5  6948 TIP3 H1   HT     0.417000        1.0080           0
   90687 WT5  6948 TIP3 H2   HT     0.417000        1.0080           0
   90688 WT5  6949 TIP3 OH2  OT    -0.834000       15.9994           0
   90689 WT5  6949 TIP3 H1   HT     0.417000        1.0080           0
   90690 WT5  6949 TIP3 H2   HT     0.417000        1.0080           0
   90691 WT5  6952 TIP3 OH2  OT    -0.834000       15.9994           0
   90692 WT5  6952 TIP3 H1   HT     0.417000        1.0080           0
   90693 WT5  6952 TIP3 H2   HT     0.417000        1.0080           0
   90694 WT5  6954 TIP3 OH2  OT    -0.834000       15.9994           0
   90695 WT5  6954 TIP3 H1   HT     0.417000        1.0080           0
   90696 WT5  6954 TIP3 H2   HT     0.417000        1.0080           0
   90697 WT5  6956 TIP3 OH2  OT    -0.834000       15.9994           0
   90698 WT5  6956 TIP3 H1   HT     0.417000        1.0080           0
   90699 WT5  6956 TIP3 H2   HT     0.417000        1.0080           0
   90700 WT5  6957 TIP3 OH2  OT    -0.834000       15.9994           0
   90701 WT5  6957 TIP3 H1   HT     0.417000        1.0080           0
   90702 WT5  6957 TIP3 H2   HT     0.417000        1.0080           0
   90703 WT5  6960 TIP3 OH2  OT    -0.834000       15.9994           0
   90704 WT5  6960 TIP3 H1   HT     0.417000        1.0080           0
   90705 WT5  6960 TIP3 H2   HT     0.417000        1.0080           0
   90706 WT5  6961 TIP3 OH2  OT    -0.834000       15.9994           0
   90707 WT5  6961 TIP3 H1   HT     0.417000        1.0080           0
   90708 WT5  6961 TIP3 H2   HT     0.417000        1.0080           0
   90709 WT5  6962 TIP3 OH2  OT    -0.834000       15.9994           0
   90710 WT5  6962 TIP3 H1   HT     0.417000        1.0080           0
   90711 WT5  6962 TIP3 H2   HT     0.417000        1.0080           0
   90712 WT5  6964 TIP3 OH2  OT    -0.834000       15.9994           0
   90713 WT5  6964 TIP3 H1   HT     0.417000        1.0080           0
   90714 WT5  6964 TIP3 H2   HT     0.417000        1.0080           0
   90715 WT5  6966 TIP3 OH2  OT    -0.834000       15.9994           0
   90716 WT5  6966 TIP3 H1   HT     0.417000        1.0080           0
   90717 WT5  6966 TIP3 H2   HT     0.417000        1.0080           0
   90718 WT5  6975 TIP3 OH2  OT    -0.834000       15.9994           0
   90719 WT5  6975 TIP3 H1   HT     0.417000        1.0080           0
   90720 WT5  6975 TIP3 H2   HT     0.417000        1.0080           0
   90721 WT5  6979 TIP3 OH2  OT    -0.834000       15.9994           0
   90722 WT5  6979 TIP3 H1   HT     0.417000        1.0080           0
   90723 WT5  6979 TIP3 H2   HT     0.417000        1.0080           0
   90724 WT5  6980 TIP3 OH2  OT    -0.834000       15.9994           0
   90725 WT5  6980 TIP3 H1   HT     0.417000        1.0080           0
   90726 WT5  6980 TIP3 H2   HT     0.417000        1.0080           0
   90727 WT5  6981 TIP3 OH2  OT    -0.834000       15.9994           0
   90728 WT5  6981 TIP3 H1   HT     0.417000        1.0080           0
   90729 WT5  6981 TIP3 H2   HT     0.417000        1.0080           0
   90730 WT5  6984 TIP3 OH2  OT    -0.834000       15.9994           0
   90731 WT5  6984 TIP3 H1   HT     0.417000        1.0080           0
   90732 WT5  6984 TIP3 H2   HT     0.417000        1.0080           0
   90733 WT5  6986 TIP3 OH2  OT    -0.834000       15.9994           0
   90734 WT5  6986 TIP3 H1   HT     0.417000        1.0080           0
   90735 WT5  6986 TIP3 H2   HT     0.417000        1.0080           0
   90736 WT5  6990 TIP3 OH2  OT    -0.834000       15.9994           0
   90737 WT5  6990 TIP3 H1   HT     0.417000        1.0080           0
   90738 WT5  6990 TIP3 H2   HT     0.417000        1.0080           0
   90739 WT5  6991 TIP3 OH2  OT    -0.834000       15.9994           0
   90740 WT5  6991 TIP3 H1   HT     0.417000        1.0080           0
   90741 WT5  6991 TIP3 H2   HT     0.417000        1.0080           0
   90742 WT5  6995 TIP3 OH2  OT    -0.834000       15.9994           0
   90743 WT5  6995 TIP3 H1   HT     0.417000        1.0080           0
   90744 WT5  6995 TIP3 H2   HT     0.417000        1.0080           0
   90745 WT5  7000 TIP3 OH2  OT    -0.834000       15.9994           0
   90746 WT5  7000 TIP3 H1   HT     0.417000        1.0080           0
   90747 WT5  7000 TIP3 H2   HT     0.417000        1.0080           0
   90748 WT5  7003 TIP3 OH2  OT    -0.834000       15.9994           0
   90749 WT5  7003 TIP3 H1   HT     0.417000        1.0080           0
   90750 WT5  7003 TIP3 H2   HT     0.417000        1.0080           0
   90751 WT5  7014 TIP3 OH2  OT    -0.834000       15.9994           0
   90752 WT5  7014 TIP3 H1   HT     0.417000        1.0080           0
   90753 WT5  7014 TIP3 H2   HT     0.417000        1.0080           0
   90754 WT5  7015 TIP3 OH2  OT    -0.834000       15.9994           0
   90755 WT5  7015 TIP3 H1   HT     0.417000        1.0080           0
   90756 WT5  7015 TIP3 H2   HT     0.417000        1.0080           0
   90757 WT5  7017 TIP3 OH2  OT    -0.834000       15.9994           0
   90758 WT5  7017 TIP3 H1   HT     0.417000        1.0080           0
   90759 WT5  7017 TIP3 H2   HT     0.417000        1.0080           0
   90760 WT5  7018 TIP3 OH2  OT    -0.834000       15.9994           0
   90761 WT5  7018 TIP3 H1   HT     0.417000        1.0080           0
   90762 WT5  7018 TIP3 H2   HT     0.417000        1.0080           0
   90763 WT5  7019 TIP3 OH2  OT    -0.834000       15.9994           0
   90764 WT5  7019 TIP3 H1   HT     0.417000        1.0080           0
   90765 WT5  7019 TIP3 H2   HT     0.417000        1.0080           0
   90766 WT5  7021 TIP3 OH2  OT    -0.834000       15.9994           0
   90767 WT5  7021 TIP3 H1   HT     0.417000        1.0080           0
   90768 WT5  7021 TIP3 H2   HT     0.417000        1.0080           0
   90769 WT5  7022 TIP3 OH2  OT    -0.834000       15.9994           0
   90770 WT5  7022 TIP3 H1   HT     0.417000        1.0080           0
   90771 WT5  7022 TIP3 H2   HT     0.417000        1.0080           0
   90772 WT5  7024 TIP3 OH2  OT    -0.834000       15.9994           0
   90773 WT5  7024 TIP3 H1   HT     0.417000        1.0080           0
   90774 WT5  7024 TIP3 H2   HT     0.417000        1.0080           0
   90775 WT5  7027 TIP3 OH2  OT    -0.834000       15.9994           0
   90776 WT5  7027 TIP3 H1   HT     0.417000        1.0080           0
   90777 WT5  7027 TIP3 H2   HT     0.417000        1.0080           0
   90778 WT5  7033 TIP3 OH2  OT    -0.834000       15.9994           0
   90779 WT5  7033 TIP3 H1   HT     0.417000        1.0080           0
   90780 WT5  7033 TIP3 H2   HT     0.417000        1.0080           0
   90781 WT5  7041 TIP3 OH2  OT    -0.834000       15.9994           0
   90782 WT5  7041 TIP3 H1   HT     0.417000        1.0080           0
   90783 WT5  7041 TIP3 H2   HT     0.417000        1.0080           0
   90784 WT5  7044 TIP3 OH2  OT    -0.834000       15.9994           0
   90785 WT5  7044 TIP3 H1   HT     0.417000        1.0080           0
   90786 WT5  7044 TIP3 H2   HT     0.417000        1.0080           0
   90787 WT5  7045 TIP3 OH2  OT    -0.834000       15.9994           0
   90788 WT5  7045 TIP3 H1   HT     0.417000        1.0080           0
   90789 WT5  7045 TIP3 H2   HT     0.417000        1.0080           0
   90790 WT5  7046 TIP3 OH2  OT    -0.834000       15.9994           0
   90791 WT5  7046 TIP3 H1   HT     0.417000        1.0080           0
   90792 WT5  7046 TIP3 H2   HT     0.417000        1.0080           0
   90793 WT5  7052 TIP3 OH2  OT    -0.834000       15.9994           0
   90794 WT5  7052 TIP3 H1   HT     0.417000        1.0080           0
   90795 WT5  7052 TIP3 H2   HT     0.417000        1.0080           0
   90796 WT5  7058 TIP3 OH2  OT    -0.834000       15.9994           0
   90797 WT5  7058 TIP3 H1   HT     0.417000        1.0080           0
   90798 WT5  7058 TIP3 H2   HT     0.417000        1.0080           0
   90799 WT5  7060 TIP3 OH2  OT    -0.834000       15.9994           0
   90800 WT5  7060 TIP3 H1   HT     0.417000        1.0080           0
   90801 WT5  7060 TIP3 H2   HT     0.417000        1.0080           0
   90802 WT5  7061 TIP3 OH2  OT    -0.834000       15.9994           0
   90803 WT5  7061 TIP3 H1   HT     0.417000        1.0080           0
   90804 WT5  7061 TIP3 H2   HT     0.417000        1.0080           0
   90805 WT5  7062 TIP3 OH2  OT    -0.834000       15.9994           0
   90806 WT5  7062 TIP3 H1   HT     0.417000        1.0080           0
   90807 WT5  7062 TIP3 H2   HT     0.417000        1.0080           0
   90808 WT5  7067 TIP3 OH2  OT    -0.834000       15.9994           0
   90809 WT5  7067 TIP3 H1   HT     0.417000        1.0080           0
   90810 WT5  7067 TIP3 H2   HT     0.417000        1.0080           0
   90811 WT5  7068 TIP3 OH2  OT    -0.834000       15.9994           0
   90812 WT5  7068 TIP3 H1   HT     0.417000        1.0080           0
   90813 WT5  7068 TIP3 H2   HT     0.417000        1.0080           0
   90814 WT5  7070 TIP3 OH2  OT    -0.834000       15.9994           0
   90815 WT5  7070 TIP3 H1   HT     0.417000        1.0080           0
   90816 WT5  7070 TIP3 H2   HT     0.417000        1.0080           0
   90817 WT5  7078 TIP3 OH2  OT    -0.834000       15.9994           0
   90818 WT5  7078 TIP3 H1   HT     0.417000        1.0080           0
   90819 WT5  7078 TIP3 H2   HT     0.417000        1.0080           0
   90820 WT5  7082 TIP3 OH2  OT    -0.834000       15.9994           0
   90821 WT5  7082 TIP3 H1   HT     0.417000        1.0080           0
   90822 WT5  7082 TIP3 H2   HT     0.417000        1.0080           0
   90823 WT5  7088 TIP3 OH2  OT    -0.834000       15.9994           0
   90824 WT5  7088 TIP3 H1   HT     0.417000        1.0080           0
   90825 WT5  7088 TIP3 H2   HT     0.417000        1.0080           0
   90826 WT5  7095 TIP3 OH2  OT    -0.834000       15.9994           0
   90827 WT5  7095 TIP3 H1   HT     0.417000        1.0080           0
   90828 WT5  7095 TIP3 H2   HT     0.417000        1.0080           0
   90829 WT5  7098 TIP3 OH2  OT    -0.834000       15.9994           0
   90830 WT5  7098 TIP3 H1   HT     0.417000        1.0080           0
   90831 WT5  7098 TIP3 H2   HT     0.417000        1.0080           0
   90832 WT5  7099 TIP3 OH2  OT    -0.834000       15.9994           0
   90833 WT5  7099 TIP3 H1   HT     0.417000        1.0080           0
   90834 WT5  7099 TIP3 H2   HT     0.417000        1.0080           0
   90835 WT5  7105 TIP3 OH2  OT    -0.834000       15.9994           0
   90836 WT5  7105 TIP3 H1   HT     0.417000        1.0080           0
   90837 WT5  7105 TIP3 H2   HT     0.417000        1.0080           0
   90838 WT5  7109 TIP3 OH2  OT    -0.834000       15.9994           0
   90839 WT5  7109 TIP3 H1   HT     0.417000        1.0080           0
   90840 WT5  7109 TIP3 H2   HT     0.417000        1.0080           0
   90841 WT5  7114 TIP3 OH2  OT    -0.834000       15.9994           0
   90842 WT5  7114 TIP3 H1   HT     0.417000        1.0080           0
   90843 WT5  7114 TIP3 H2   HT     0.417000        1.0080           0
   90844 WT5  7118 TIP3 OH2  OT    -0.834000       15.9994           0
   90845 WT5  7118 TIP3 H1   HT     0.417000        1.0080           0
   90846 WT5  7118 TIP3 H2   HT     0.417000        1.0080           0
   90847 WT5  7121 TIP3 OH2  OT    -0.834000       15.9994           0
   90848 WT5  7121 TIP3 H1   HT     0.417000        1.0080           0
   90849 WT5  7121 TIP3 H2   HT     0.417000        1.0080           0
   90850 WT5  7122 TIP3 OH2  OT    -0.834000       15.9994           0
   90851 WT5  7122 TIP3 H1   HT     0.417000        1.0080           0
   90852 WT5  7122 TIP3 H2   HT     0.417000        1.0080           0
   90853 WT5  7123 TIP3 OH2  OT    -0.834000       15.9994           0
   90854 WT5  7123 TIP3 H1   HT     0.417000        1.0080           0
   90855 WT5  7123 TIP3 H2   HT     0.417000        1.0080           0
   90856 WT5  7125 TIP3 OH2  OT    -0.834000       15.9994           0
   90857 WT5  7125 TIP3 H1   HT     0.417000        1.0080           0
   90858 WT5  7125 TIP3 H2   HT     0.417000        1.0080           0
   90859 WT5  7130 TIP3 OH2  OT    -0.834000       15.9994           0
   90860 WT5  7130 TIP3 H1   HT     0.417000        1.0080           0
   90861 WT5  7130 TIP3 H2   HT     0.417000        1.0080           0
   90862 WT5  7132 TIP3 OH2  OT    -0.834000       15.9994           0
   90863 WT5  7132 TIP3 H1   HT     0.417000        1.0080           0
   90864 WT5  7132 TIP3 H2   HT     0.417000        1.0080           0
   90865 WT5  7133 TIP3 OH2  OT    -0.834000       15.9994           0
   90866 WT5  7133 TIP3 H1   HT     0.417000        1.0080           0
   90867 WT5  7133 TIP3 H2   HT     0.417000        1.0080           0
   90868 WT5  7141 TIP3 OH2  OT    -0.834000       15.9994           0
   90869 WT5  7141 TIP3 H1   HT     0.417000        1.0080           0
   90870 WT5  7141 TIP3 H2   HT     0.417000        1.0080           0
   90871 WT5  7145 TIP3 OH2  OT    -0.834000       15.9994           0
   90872 WT5  7145 TIP3 H1   HT     0.417000        1.0080           0
   90873 WT5  7145 TIP3 H2   HT     0.417000        1.0080           0
   90874 WT5  7147 TIP3 OH2  OT    -0.834000       15.9994           0
   90875 WT5  7147 TIP3 H1   HT     0.417000        1.0080           0
   90876 WT5  7147 TIP3 H2   HT     0.417000        1.0080           0
   90877 WT5  7165 TIP3 OH2  OT    -0.834000       15.9994           0
   90878 WT5  7165 TIP3 H1   HT     0.417000        1.0080           0
   90879 WT5  7165 TIP3 H2   HT     0.417000        1.0080           0
   90880 WT5  7166 TIP3 OH2  OT    -0.834000       15.9994           0
   90881 WT5  7166 TIP3 H1   HT     0.417000        1.0080           0
   90882 WT5  7166 TIP3 H2   HT     0.417000        1.0080           0
   90883 WT5  7168 TIP3 OH2  OT    -0.834000       15.9994           0
   90884 WT5  7168 TIP3 H1   HT     0.417000        1.0080           0
   90885 WT5  7168 TIP3 H2   HT     0.417000        1.0080           0
   90886 WT5  7170 TIP3 OH2  OT    -0.834000       15.9994           0
   90887 WT5  7170 TIP3 H1   HT     0.417000        1.0080           0
   90888 WT5  7170 TIP3 H2   HT     0.417000        1.0080           0
   90889 WT5  7171 TIP3 OH2  OT    -0.834000       15.9994           0
   90890 WT5  7171 TIP3 H1   HT     0.417000        1.0080           0
   90891 WT5  7171 TIP3 H2   HT     0.417000        1.0080           0
   90892 WT5  7174 TIP3 OH2  OT    -0.834000       15.9994           0
   90893 WT5  7174 TIP3 H1   HT     0.417000        1.0080           0
   90894 WT5  7174 TIP3 H2   HT     0.417000        1.0080           0
   90895 WT5  7176 TIP3 OH2  OT    -0.834000       15.9994           0
   90896 WT5  7176 TIP3 H1   HT     0.417000        1.0080           0
   90897 WT5  7176 TIP3 H2   HT     0.417000        1.0080           0
   90898 WT5  7182 TIP3 OH2  OT    -0.834000       15.9994           0
   90899 WT5  7182 TIP3 H1   HT     0.417000        1.0080           0
   90900 WT5  7182 TIP3 H2   HT     0.417000        1.0080           0
   90901 WT5  7185 TIP3 OH2  OT    -0.834000       15.9994           0
   90902 WT5  7185 TIP3 H1   HT     0.417000        1.0080           0
   90903 WT5  7185 TIP3 H2   HT     0.417000        1.0080           0
   90904 WT5  7192 TIP3 OH2  OT    -0.834000       15.9994           0
   90905 WT5  7192 TIP3 H1   HT     0.417000        1.0080           0
   90906 WT5  7192 TIP3 H2   HT     0.417000        1.0080           0
   90907 WT5  7193 TIP3 OH2  OT    -0.834000       15.9994           0
   90908 WT5  7193 TIP3 H1   HT     0.417000        1.0080           0
   90909 WT5  7193 TIP3 H2   HT     0.417000        1.0080           0
   90910 WT5  7196 TIP3 OH2  OT    -0.834000       15.9994           0
   90911 WT5  7196 TIP3 H1   HT     0.417000        1.0080           0
   90912 WT5  7196 TIP3 H2   HT     0.417000        1.0080           0
   90913 WT5  7198 TIP3 OH2  OT    -0.834000       15.9994           0
   90914 WT5  7198 TIP3 H1   HT     0.417000        1.0080           0
   90915 WT5  7198 TIP3 H2   HT     0.417000        1.0080           0
   90916 WT5  7203 TIP3 OH2  OT    -0.834000       15.9994           0
   90917 WT5  7203 TIP3 H1   HT     0.417000        1.0080           0
   90918 WT5  7203 TIP3 H2   HT     0.417000        1.0080           0
   90919 WT5  7210 TIP3 OH2  OT    -0.834000       15.9994           0
   90920 WT5  7210 TIP3 H1   HT     0.417000        1.0080           0
   90921 WT5  7210 TIP3 H2   HT     0.417000        1.0080           0
   90922 WT5  7215 TIP3 OH2  OT    -0.834000       15.9994           0
   90923 WT5  7215 TIP3 H1   HT     0.417000        1.0080           0
   90924 WT5  7215 TIP3 H2   HT     0.417000        1.0080           0
   90925 WT5  7216 TIP3 OH2  OT    -0.834000       15.9994           0
   90926 WT5  7216 TIP3 H1   HT     0.417000        1.0080           0
   90927 WT5  7216 TIP3 H2   HT     0.417000        1.0080           0
   90928 WT5  7218 TIP3 OH2  OT    -0.834000       15.9994           0
   90929 WT5  7218 TIP3 H1   HT     0.417000        1.0080           0
   90930 WT5  7218 TIP3 H2   HT     0.417000        1.0080           0
   90931 WT5  7222 TIP3 OH2  OT    -0.834000       15.9994           0
   90932 WT5  7222 TIP3 H1   HT     0.417000        1.0080           0
   90933 WT5  7222 TIP3 H2   HT     0.417000        1.0080           0
   90934 WT5  7225 TIP3 OH2  OT    -0.834000       15.9994           0
   90935 WT5  7225 TIP3 H1   HT     0.417000        1.0080           0
   90936 WT5  7225 TIP3 H2   HT     0.417000        1.0080           0
   90937 WT5  7231 TIP3 OH2  OT    -0.834000       15.9994           0
   90938 WT5  7231 TIP3 H1   HT     0.417000        1.0080           0
   90939 WT5  7231 TIP3 H2   HT     0.417000        1.0080           0
   90940 WT5  7241 TIP3 OH2  OT    -0.834000       15.9994           0
   90941 WT5  7241 TIP3 H1   HT     0.417000        1.0080           0
   90942 WT5  7241 TIP3 H2   HT     0.417000        1.0080           0
   90943 WT5  7252 TIP3 OH2  OT    -0.834000       15.9994           0
   90944 WT5  7252 TIP3 H1   HT     0.417000        1.0080           0
   90945 WT5  7252 TIP3 H2   HT     0.417000        1.0080           0
   90946 WT5  7257 TIP3 OH2  OT    -0.834000       15.9994           0
   90947 WT5  7257 TIP3 H1   HT     0.417000        1.0080           0
   90948 WT5  7257 TIP3 H2   HT     0.417000        1.0080           0
   90949 WT5  7262 TIP3 OH2  OT    -0.834000       15.9994           0
   90950 WT5  7262 TIP3 H1   HT     0.417000        1.0080           0
   90951 WT5  7262 TIP3 H2   HT     0.417000        1.0080           0
   90952 WT5  7266 TIP3 OH2  OT    -0.834000       15.9994           0
   90953 WT5  7266 TIP3 H1   HT     0.417000        1.0080           0
   90954 WT5  7266 TIP3 H2   HT     0.417000        1.0080           0
   90955 WT5  7271 TIP3 OH2  OT    -0.834000       15.9994           0
   90956 WT5  7271 TIP3 H1   HT     0.417000        1.0080           0
   90957 WT5  7271 TIP3 H2   HT     0.417000        1.0080           0
   90958 WT5  7274 TIP3 OH2  OT    -0.834000       15.9994           0
   90959 WT5  7274 TIP3 H1   HT     0.417000        1.0080           0
   90960 WT5  7274 TIP3 H2   HT     0.417000        1.0080           0
   90961 WT5  7290 TIP3 OH2  OT    -0.834000       15.9994           0
   90962 WT5  7290 TIP3 H1   HT     0.417000        1.0080           0
   90963 WT5  7290 TIP3 H2   HT     0.417000        1.0080           0
   90964 WT5  7292 TIP3 OH2  OT    -0.834000       15.9994           0
   90965 WT5  7292 TIP3 H1   HT     0.417000        1.0080           0
   90966 WT5  7292 TIP3 H2   HT     0.417000        1.0080           0
   90967 WT5  7295 TIP3 OH2  OT    -0.834000       15.9994           0
   90968 WT5  7295 TIP3 H1   HT     0.417000        1.0080           0
   90969 WT5  7295 TIP3 H2   HT     0.417000        1.0080           0
   90970 WT5  7296 TIP3 OH2  OT    -0.834000       15.9994           0
   90971 WT5  7296 TIP3 H1   HT     0.417000        1.0080           0
   90972 WT5  7296 TIP3 H2   HT     0.417000        1.0080           0
   90973 WT5  7305 TIP3 OH2  OT    -0.834000       15.9994           0
   90974 WT5  7305 TIP3 H1   HT     0.417000        1.0080           0
   90975 WT5  7305 TIP3 H2   HT     0.417000        1.0080           0
   90976 WT5  7312 TIP3 OH2  OT    -0.834000       15.9994           0
   90977 WT5  7312 TIP3 H1   HT     0.417000        1.0080           0
   90978 WT5  7312 TIP3 H2   HT     0.417000        1.0080           0
   90979 WT5  7314 TIP3 OH2  OT    -0.834000       15.9994           0
   90980 WT5  7314 TIP3 H1   HT     0.417000        1.0080           0
   90981 WT5  7314 TIP3 H2   HT     0.417000        1.0080           0
   90982 WT5  7316 TIP3 OH2  OT    -0.834000       15.9994           0
   90983 WT5  7316 TIP3 H1   HT     0.417000        1.0080           0
   90984 WT5  7316 TIP3 H2   HT     0.417000        1.0080           0
   90985 WT5  7321 TIP3 OH2  OT    -0.834000       15.9994           0
   90986 WT5  7321 TIP3 H1   HT     0.417000        1.0080           0
   90987 WT5  7321 TIP3 H2   HT     0.417000        1.0080           0
   90988 WT5  7331 TIP3 OH2  OT    -0.834000       15.9994           0
   90989 WT5  7331 TIP3 H1   HT     0.417000        1.0080           0
   90990 WT5  7331 TIP3 H2   HT     0.417000        1.0080           0
   90991 WT5  7335 TIP3 OH2  OT    -0.834000       15.9994           0
   90992 WT5  7335 TIP3 H1   HT     0.417000        1.0080           0
   90993 WT5  7335 TIP3 H2   HT     0.417000        1.0080           0
   90994 WT5  7345 TIP3 OH2  OT    -0.834000       15.9994           0
   90995 WT5  7345 TIP3 H1   HT     0.417000        1.0080           0
   90996 WT5  7345 TIP3 H2   HT     0.417000        1.0080           0
   90997 WT5  7347 TIP3 OH2  OT    -0.834000       15.9994           0
   90998 WT5  7347 TIP3 H1   HT     0.417000        1.0080           0
   90999 WT5  7347 TIP3 H2   HT     0.417000        1.0080           0
   91000 WT5  7349 TIP3 OH2  OT    -0.834000       15.9994           0
   91001 WT5  7349 TIP3 H1   HT     0.417000        1.0080           0
   91002 WT5  7349 TIP3 H2   HT     0.417000        1.0080           0
   91003 WT5  7351 TIP3 OH2  OT    -0.834000       15.9994           0
   91004 WT5  7351 TIP3 H1   HT     0.417000        1.0080           0
   91005 WT5  7351 TIP3 H2   HT     0.417000        1.0080           0
   91006 WT5  7352 TIP3 OH2  OT    -0.834000       15.9994           0
   91007 WT5  7352 TIP3 H1   HT     0.417000        1.0080           0
   91008 WT5  7352 TIP3 H2   HT     0.417000        1.0080           0
   91009 WT5  7374 TIP3 OH2  OT    -0.834000       15.9994           0
   91010 WT5  7374 TIP3 H1   HT     0.417000        1.0080           0
   91011 WT5  7374 TIP3 H2   HT     0.417000        1.0080           0
   91012 WT5  7375 TIP3 OH2  OT    -0.834000       15.9994           0
   91013 WT5  7375 TIP3 H1   HT     0.417000        1.0080           0
   91014 WT5  7375 TIP3 H2   HT     0.417000        1.0080           0
   91015 WT5  7384 TIP3 OH2  OT    -0.834000       15.9994           0
   91016 WT5  7384 TIP3 H1   HT     0.417000        1.0080           0
   91017 WT5  7384 TIP3 H2   HT     0.417000        1.0080           0
   91018 WT5  7386 TIP3 OH2  OT    -0.834000       15.9994           0
   91019 WT5  7386 TIP3 H1   HT     0.417000        1.0080           0
   91020 WT5  7386 TIP3 H2   HT     0.417000        1.0080           0
   91021 WT5  7387 TIP3 OH2  OT    -0.834000       15.9994           0
   91022 WT5  7387 TIP3 H1   HT     0.417000        1.0080           0
   91023 WT5  7387 TIP3 H2   HT     0.417000        1.0080           0
   91024 WT5  7395 TIP3 OH2  OT    -0.834000       15.9994           0
   91025 WT5  7395 TIP3 H1   HT     0.417000        1.0080           0
   91026 WT5  7395 TIP3 H2   HT     0.417000        1.0080           0
   91027 WT5  7396 TIP3 OH2  OT    -0.834000       15.9994           0
   91028 WT5  7396 TIP3 H1   HT     0.417000        1.0080           0
   91029 WT5  7396 TIP3 H2   HT     0.417000        1.0080           0
   91030 WT5  7397 TIP3 OH2  OT    -0.834000       15.9994           0
   91031 WT5  7397 TIP3 H1   HT     0.417000        1.0080           0
   91032 WT5  7397 TIP3 H2   HT     0.417000        1.0080           0
   91033 WT5  7398 TIP3 OH2  OT    -0.834000       15.9994           0
   91034 WT5  7398 TIP3 H1   HT     0.417000        1.0080           0
   91035 WT5  7398 TIP3 H2   HT     0.417000        1.0080           0
   91036 WT5  7400 TIP3 OH2  OT    -0.834000       15.9994           0
   91037 WT5  7400 TIP3 H1   HT     0.417000        1.0080           0
   91038 WT5  7400 TIP3 H2   HT     0.417000        1.0080           0
   91039 WT5  7405 TIP3 OH2  OT    -0.834000       15.9994           0
   91040 WT5  7405 TIP3 H1   HT     0.417000        1.0080           0
   91041 WT5  7405 TIP3 H2   HT     0.417000        1.0080           0
   91042 WT5  7406 TIP3 OH2  OT    -0.834000       15.9994           0
   91043 WT5  7406 TIP3 H1   HT     0.417000        1.0080           0
   91044 WT5  7406 TIP3 H2   HT     0.417000        1.0080           0
   91045 WT5  7412 TIP3 OH2  OT    -0.834000       15.9994           0
   91046 WT5  7412 TIP3 H1   HT     0.417000        1.0080           0
   91047 WT5  7412 TIP3 H2   HT     0.417000        1.0080           0
   91048 WT5  7414 TIP3 OH2  OT    -0.834000       15.9994           0
   91049 WT5  7414 TIP3 H1   HT     0.417000        1.0080           0
   91050 WT5  7414 TIP3 H2   HT     0.417000        1.0080           0
   91051 WT5  7420 TIP3 OH2  OT    -0.834000       15.9994           0
   91052 WT5  7420 TIP3 H1   HT     0.417000        1.0080           0
   91053 WT5  7420 TIP3 H2   HT     0.417000        1.0080           0
   91054 WT5  7425 TIP3 OH2  OT    -0.834000       15.9994           0
   91055 WT5  7425 TIP3 H1   HT     0.417000        1.0080           0
   91056 WT5  7425 TIP3 H2   HT     0.417000        1.0080           0
   91057 WT5  7427 TIP3 OH2  OT    -0.834000       15.9994           0
   91058 WT5  7427 TIP3 H1   HT     0.417000        1.0080           0
   91059 WT5  7427 TIP3 H2   HT     0.417000        1.0080           0
   91060 WT5  7437 TIP3 OH2  OT    -0.834000       15.9994           0
   91061 WT5  7437 TIP3 H1   HT     0.417000        1.0080           0
   91062 WT5  7437 TIP3 H2   HT     0.417000        1.0080           0
   91063 WT5  7438 TIP3 OH2  OT    -0.834000       15.9994           0
   91064 WT5  7438 TIP3 H1   HT     0.417000        1.0080           0
   91065 WT5  7438 TIP3 H2   HT     0.417000        1.0080           0
   91066 WT5  7444 TIP3 OH2  OT    -0.834000       15.9994           0
   91067 WT5  7444 TIP3 H1   HT     0.417000        1.0080           0
   91068 WT5  7444 TIP3 H2   HT     0.417000        1.0080           0
   91069 WT5  7446 TIP3 OH2  OT    -0.834000       15.9994           0
   91070 WT5  7446 TIP3 H1   HT     0.417000        1.0080           0
   91071 WT5  7446 TIP3 H2   HT     0.417000        1.0080           0
   91072 WT5  7449 TIP3 OH2  OT    -0.834000       15.9994           0
   91073 WT5  7449 TIP3 H1   HT     0.417000        1.0080           0
   91074 WT5  7449 TIP3 H2   HT     0.417000        1.0080           0
   91075 WT5  7452 TIP3 OH2  OT    -0.834000       15.9994           0
   91076 WT5  7452 TIP3 H1   HT     0.417000        1.0080           0
   91077 WT5  7452 TIP3 H2   HT     0.417000        1.0080           0
   91078 WT5  7453 TIP3 OH2  OT    -0.834000       15.9994           0
   91079 WT5  7453 TIP3 H1   HT     0.417000        1.0080           0
   91080 WT5  7453 TIP3 H2   HT     0.417000        1.0080           0
   91081 WT5  7479 TIP3 OH2  OT    -0.834000       15.9994           0
   91082 WT5  7479 TIP3 H1   HT     0.417000        1.0080           0
   91083 WT5  7479 TIP3 H2   HT     0.417000        1.0080           0
   91084 WT5  7481 TIP3 OH2  OT    -0.834000       15.9994           0
   91085 WT5  7481 TIP3 H1   HT     0.417000        1.0080           0
   91086 WT5  7481 TIP3 H2   HT     0.417000        1.0080           0
   91087 WT5  7484 TIP3 OH2  OT    -0.834000       15.9994           0
   91088 WT5  7484 TIP3 H1   HT     0.417000        1.0080           0
   91089 WT5  7484 TIP3 H2   HT     0.417000        1.0080           0
   91090 WT5  7488 TIP3 OH2  OT    -0.834000       15.9994           0
   91091 WT5  7488 TIP3 H1   HT     0.417000        1.0080           0
   91092 WT5  7488 TIP3 H2   HT     0.417000        1.0080           0
   91093 WT5  7501 TIP3 OH2  OT    -0.834000       15.9994           0
   91094 WT5  7501 TIP3 H1   HT     0.417000        1.0080           0
   91095 WT5  7501 TIP3 H2   HT     0.417000        1.0080           0
   91096 WT5  7510 TIP3 OH2  OT    -0.834000       15.9994           0
   91097 WT5  7510 TIP3 H1   HT     0.417000        1.0080           0
   91098 WT5  7510 TIP3 H2   HT     0.417000        1.0080           0
   91099 WT5  7525 TIP3 OH2  OT    -0.834000       15.9994           0
   91100 WT5  7525 TIP3 H1   HT     0.417000        1.0080           0
   91101 WT5  7525 TIP3 H2   HT     0.417000        1.0080           0
   91102 WT5  7532 TIP3 OH2  OT    -0.834000       15.9994           0
   91103 WT5  7532 TIP3 H1   HT     0.417000        1.0080           0
   91104 WT5  7532 TIP3 H2   HT     0.417000        1.0080           0
   91105 WT5  7533 TIP3 OH2  OT    -0.834000       15.9994           0
   91106 WT5  7533 TIP3 H1   HT     0.417000        1.0080           0
   91107 WT5  7533 TIP3 H2   HT     0.417000        1.0080           0
   91108 WT5  7543 TIP3 OH2  OT    -0.834000       15.9994           0
   91109 WT5  7543 TIP3 H1   HT     0.417000        1.0080           0
   91110 WT5  7543 TIP3 H2   HT     0.417000        1.0080           0
   91111 WT5  7550 TIP3 OH2  OT    -0.834000       15.9994           0
   91112 WT5  7550 TIP3 H1   HT     0.417000        1.0080           0
   91113 WT5  7550 TIP3 H2   HT     0.417000        1.0080           0
   91114 WT5  7554 TIP3 OH2  OT    -0.834000       15.9994           0
   91115 WT5  7554 TIP3 H1   HT     0.417000        1.0080           0
   91116 WT5  7554 TIP3 H2   HT     0.417000        1.0080           0
   91117 WT5  7557 TIP3 OH2  OT    -0.834000       15.9994           0
   91118 WT5  7557 TIP3 H1   HT     0.417000        1.0080           0
   91119 WT5  7557 TIP3 H2   HT     0.417000        1.0080           0
   91120 WT5  7563 TIP3 OH2  OT    -0.834000       15.9994           0
   91121 WT5  7563 TIP3 H1   HT     0.417000        1.0080           0
   91122 WT5  7563 TIP3 H2   HT     0.417000        1.0080           0
   91123 WT5  7567 TIP3 OH2  OT    -0.834000       15.9994           0
   91124 WT5  7567 TIP3 H1   HT     0.417000        1.0080           0
   91125 WT5  7567 TIP3 H2   HT     0.417000        1.0080           0
   91126 WT5  7568 TIP3 OH2  OT    -0.834000       15.9994           0
   91127 WT5  7568 TIP3 H1   HT     0.417000        1.0080           0
   91128 WT5  7568 TIP3 H2   HT     0.417000        1.0080           0
   91129 WT5  7572 TIP3 OH2  OT    -0.834000       15.9994           0
   91130 WT5  7572 TIP3 H1   HT     0.417000        1.0080           0
   91131 WT5  7572 TIP3 H2   HT     0.417000        1.0080           0
   91132 WT5  7576 TIP3 OH2  OT    -0.834000       15.9994           0
   91133 WT5  7576 TIP3 H1   HT     0.417000        1.0080           0
   91134 WT5  7576 TIP3 H2   HT     0.417000        1.0080           0
   91135 WT5  7583 TIP3 OH2  OT    -0.834000       15.9994           0
   91136 WT5  7583 TIP3 H1   HT     0.417000        1.0080           0
   91137 WT5  7583 TIP3 H2   HT     0.417000        1.0080           0
   91138 WT5  7592 TIP3 OH2  OT    -0.834000       15.9994           0
   91139 WT5  7592 TIP3 H1   HT     0.417000        1.0080           0
   91140 WT5  7592 TIP3 H2   HT     0.417000        1.0080           0
   91141 WT5  7595 TIP3 OH2  OT    -0.834000       15.9994           0
   91142 WT5  7595 TIP3 H1   HT     0.417000        1.0080           0
   91143 WT5  7595 TIP3 H2   HT     0.417000        1.0080           0
   91144 WT5  7597 TIP3 OH2  OT    -0.834000       15.9994           0
   91145 WT5  7597 TIP3 H1   HT     0.417000        1.0080           0
   91146 WT5  7597 TIP3 H2   HT     0.417000        1.0080           0
   91147 WT5  7603 TIP3 OH2  OT    -0.834000       15.9994           0
   91148 WT5  7603 TIP3 H1   HT     0.417000        1.0080           0
   91149 WT5  7603 TIP3 H2   HT     0.417000        1.0080           0
   91150 WT5  7605 TIP3 OH2  OT    -0.834000       15.9994           0
   91151 WT5  7605 TIP3 H1   HT     0.417000        1.0080           0
   91152 WT5  7605 TIP3 H2   HT     0.417000        1.0080           0
   91153 WT5  7607 TIP3 OH2  OT    -0.834000       15.9994           0
   91154 WT5  7607 TIP3 H1   HT     0.417000        1.0080           0
   91155 WT5  7607 TIP3 H2   HT     0.417000        1.0080           0
   91156 WT5  7612 TIP3 OH2  OT    -0.834000       15.9994           0
   91157 WT5  7612 TIP3 H1   HT     0.417000        1.0080           0
   91158 WT5  7612 TIP3 H2   HT     0.417000        1.0080           0
   91159 WT5  7617 TIP3 OH2  OT    -0.834000       15.9994           0
   91160 WT5  7617 TIP3 H1   HT     0.417000        1.0080           0
   91161 WT5  7617 TIP3 H2   HT     0.417000        1.0080           0
   91162 WT5  7630 TIP3 OH2  OT    -0.834000       15.9994           0
   91163 WT5  7630 TIP3 H1   HT     0.417000        1.0080           0
   91164 WT5  7630 TIP3 H2   HT     0.417000        1.0080           0
   91165 WT5  7631 TIP3 OH2  OT    -0.834000       15.9994           0
   91166 WT5  7631 TIP3 H1   HT     0.417000        1.0080           0
   91167 WT5  7631 TIP3 H2   HT     0.417000        1.0080           0
   91168 WT5  7634 TIP3 OH2  OT    -0.834000       15.9994           0
   91169 WT5  7634 TIP3 H1   HT     0.417000        1.0080           0
   91170 WT5  7634 TIP3 H2   HT     0.417000        1.0080           0
   91171 WT5  7638 TIP3 OH2  OT    -0.834000       15.9994           0
   91172 WT5  7638 TIP3 H1   HT     0.417000        1.0080           0
   91173 WT5  7638 TIP3 H2   HT     0.417000        1.0080           0
   91174 WT5  7643 TIP3 OH2  OT    -0.834000       15.9994           0
   91175 WT5  7643 TIP3 H1   HT     0.417000        1.0080           0
   91176 WT5  7643 TIP3 H2   HT     0.417000        1.0080           0
   91177 WT5  7647 TIP3 OH2  OT    -0.834000       15.9994           0
   91178 WT5  7647 TIP3 H1   HT     0.417000        1.0080           0
   91179 WT5  7647 TIP3 H2   HT     0.417000        1.0080           0
   91180 WT5  7650 TIP3 OH2  OT    -0.834000       15.9994           0
   91181 WT5  7650 TIP3 H1   HT     0.417000        1.0080           0
   91182 WT5  7650 TIP3 H2   HT     0.417000        1.0080           0
   91183 WT5  7661 TIP3 OH2  OT    -0.834000       15.9994           0
   91184 WT5  7661 TIP3 H1   HT     0.417000        1.0080           0
   91185 WT5  7661 TIP3 H2   HT     0.417000        1.0080           0
   91186 WT5  7664 TIP3 OH2  OT    -0.834000       15.9994           0
   91187 WT5  7664 TIP3 H1   HT     0.417000        1.0080           0
   91188 WT5  7664 TIP3 H2   HT     0.417000        1.0080           0
   91189 WT5  7667 TIP3 OH2  OT    -0.834000       15.9994           0
   91190 WT5  7667 TIP3 H1   HT     0.417000        1.0080           0
   91191 WT5  7667 TIP3 H2   HT     0.417000        1.0080           0
   91192 WT5  7668 TIP3 OH2  OT    -0.834000       15.9994           0
   91193 WT5  7668 TIP3 H1   HT     0.417000        1.0080           0
   91194 WT5  7668 TIP3 H2   HT     0.417000        1.0080           0
   91195 WT5  7675 TIP3 OH2  OT    -0.834000       15.9994           0
   91196 WT5  7675 TIP3 H1   HT     0.417000        1.0080           0
   91197 WT5  7675 TIP3 H2   HT     0.417000        1.0080           0
   91198 WT5  7676 TIP3 OH2  OT    -0.834000       15.9994           0
   91199 WT5  7676 TIP3 H1   HT     0.417000        1.0080           0
   91200 WT5  7676 TIP3 H2   HT     0.417000        1.0080           0
   91201 WT5  7689 TIP3 OH2  OT    -0.834000       15.9994           0
   91202 WT5  7689 TIP3 H1   HT     0.417000        1.0080           0
   91203 WT5  7689 TIP3 H2   HT     0.417000        1.0080           0
   91204 WT5  7690 TIP3 OH2  OT    -0.834000       15.9994           0
   91205 WT5  7690 TIP3 H1   HT     0.417000        1.0080           0
   91206 WT5  7690 TIP3 H2   HT     0.417000        1.0080           0
   91207 WT5  7692 TIP3 OH2  OT    -0.834000       15.9994           0
   91208 WT5  7692 TIP3 H1   HT     0.417000        1.0080           0
   91209 WT5  7692 TIP3 H2   HT     0.417000        1.0080           0
   91210 WT5  7698 TIP3 OH2  OT    -0.834000       15.9994           0
   91211 WT5  7698 TIP3 H1   HT     0.417000        1.0080           0
   91212 WT5  7698 TIP3 H2   HT     0.417000        1.0080           0
   91213 WT5  7700 TIP3 OH2  OT    -0.834000       15.9994           0
   91214 WT5  7700 TIP3 H1   HT     0.417000        1.0080           0
   91215 WT5  7700 TIP3 H2   HT     0.417000        1.0080           0
   91216 WT5  7702 TIP3 OH2  OT    -0.834000       15.9994           0
   91217 WT5  7702 TIP3 H1   HT     0.417000        1.0080           0
   91218 WT5  7702 TIP3 H2   HT     0.417000        1.0080           0
   91219 WT5  7707 TIP3 OH2  OT    -0.834000       15.9994           0
   91220 WT5  7707 TIP3 H1   HT     0.417000        1.0080           0
   91221 WT5  7707 TIP3 H2   HT     0.417000        1.0080           0
   91222 WT5  7711 TIP3 OH2  OT    -0.834000       15.9994           0
   91223 WT5  7711 TIP3 H1   HT     0.417000        1.0080           0
   91224 WT5  7711 TIP3 H2   HT     0.417000        1.0080           0
   91225 WT5  7712 TIP3 OH2  OT    -0.834000       15.9994           0
   91226 WT5  7712 TIP3 H1   HT     0.417000        1.0080           0
   91227 WT5  7712 TIP3 H2   HT     0.417000        1.0080           0
   91228 WT5  7714 TIP3 OH2  OT    -0.834000       15.9994           0
   91229 WT5  7714 TIP3 H1   HT     0.417000        1.0080           0
   91230 WT5  7714 TIP3 H2   HT     0.417000        1.0080           0
   91231 WT5  7715 TIP3 OH2  OT    -0.834000       15.9994           0
   91232 WT5  7715 TIP3 H1   HT     0.417000        1.0080           0
   91233 WT5  7715 TIP3 H2   HT     0.417000        1.0080           0
   91234 WT5  7716 TIP3 OH2  OT    -0.834000       15.9994           0
   91235 WT5  7716 TIP3 H1   HT     0.417000        1.0080           0
   91236 WT5  7716 TIP3 H2   HT     0.417000        1.0080           0
   91237 WT5  7722 TIP3 OH2  OT    -0.834000       15.9994           0
   91238 WT5  7722 TIP3 H1   HT     0.417000        1.0080           0
   91239 WT5  7722 TIP3 H2   HT     0.417000        1.0080           0
   91240 WT5  7736 TIP3 OH2  OT    -0.834000       15.9994           0
   91241 WT5  7736 TIP3 H1   HT     0.417000        1.0080           0
   91242 WT5  7736 TIP3 H2   HT     0.417000        1.0080           0
   91243 WT5  7739 TIP3 OH2  OT    -0.834000       15.9994           0
   91244 WT5  7739 TIP3 H1   HT     0.417000        1.0080           0
   91245 WT5  7739 TIP3 H2   HT     0.417000        1.0080           0
   91246 WT5  7748 TIP3 OH2  OT    -0.834000       15.9994           0
   91247 WT5  7748 TIP3 H1   HT     0.417000        1.0080           0
   91248 WT5  7748 TIP3 H2   HT     0.417000        1.0080           0
   91249 WT5  7750 TIP3 OH2  OT    -0.834000       15.9994           0
   91250 WT5  7750 TIP3 H1   HT     0.417000        1.0080           0
   91251 WT5  7750 TIP3 H2   HT     0.417000        1.0080           0
   91252 WT5  7754 TIP3 OH2  OT    -0.834000       15.9994           0
   91253 WT5  7754 TIP3 H1   HT     0.417000        1.0080           0
   91254 WT5  7754 TIP3 H2   HT     0.417000        1.0080           0
   91255 WT5  7755 TIP3 OH2  OT    -0.834000       15.9994           0
   91256 WT5  7755 TIP3 H1   HT     0.417000        1.0080           0
   91257 WT5  7755 TIP3 H2   HT     0.417000        1.0080           0
   91258 WT5  7756 TIP3 OH2  OT    -0.834000       15.9994           0
   91259 WT5  7756 TIP3 H1   HT     0.417000        1.0080           0
   91260 WT5  7756 TIP3 H2   HT     0.417000        1.0080           0
   91261 WT5  7762 TIP3 OH2  OT    -0.834000       15.9994           0
   91262 WT5  7762 TIP3 H1   HT     0.417000        1.0080           0
   91263 WT5  7762 TIP3 H2   HT     0.417000        1.0080           0
   91264 WT5  7773 TIP3 OH2  OT    -0.834000       15.9994           0
   91265 WT5  7773 TIP3 H1   HT     0.417000        1.0080           0
   91266 WT5  7773 TIP3 H2   HT     0.417000        1.0080           0
   91267 WT5  7784 TIP3 OH2  OT    -0.834000       15.9994           0
   91268 WT5  7784 TIP3 H1   HT     0.417000        1.0080           0
   91269 WT5  7784 TIP3 H2   HT     0.417000        1.0080           0
   91270 WT5  7786 TIP3 OH2  OT    -0.834000       15.9994           0
   91271 WT5  7786 TIP3 H1   HT     0.417000        1.0080           0
   91272 WT5  7786 TIP3 H2   HT     0.417000        1.0080           0
   91273 WT5  7798 TIP3 OH2  OT    -0.834000       15.9994           0
   91274 WT5  7798 TIP3 H1   HT     0.417000        1.0080           0
   91275 WT5  7798 TIP3 H2   HT     0.417000        1.0080           0
   91276 WT5  7825 TIP3 OH2  OT    -0.834000       15.9994           0
   91277 WT5  7825 TIP3 H1   HT     0.417000        1.0080           0
   91278 WT5  7825 TIP3 H2   HT     0.417000        1.0080           0
   91279 WT5  7831 TIP3 OH2  OT    -0.834000       15.9994           0
   91280 WT5  7831 TIP3 H1   HT     0.417000        1.0080           0
   91281 WT5  7831 TIP3 H2   HT     0.417000        1.0080           0
   91282 WT5  7846 TIP3 OH2  OT    -0.834000       15.9994           0
   91283 WT5  7846 TIP3 H1   HT     0.417000        1.0080           0
   91284 WT5  7846 TIP3 H2   HT     0.417000        1.0080           0
   91285 WT5  7859 TIP3 OH2  OT    -0.834000       15.9994           0
   91286 WT5  7859 TIP3 H1   HT     0.417000        1.0080           0
   91287 WT5  7859 TIP3 H2   HT     0.417000        1.0080           0
   91288 WT5  7860 TIP3 OH2  OT    -0.834000       15.9994           0
   91289 WT5  7860 TIP3 H1   HT     0.417000        1.0080           0
   91290 WT5  7860 TIP3 H2   HT     0.417000        1.0080           0
   91291 WT5  7867 TIP3 OH2  OT    -0.834000       15.9994           0
   91292 WT5  7867 TIP3 H1   HT     0.417000        1.0080           0
   91293 WT5  7867 TIP3 H2   HT     0.417000        1.0080           0
   91294 WT5  7873 TIP3 OH2  OT    -0.834000       15.9994           0
   91295 WT5  7873 TIP3 H1   HT     0.417000        1.0080           0
   91296 WT5  7873 TIP3 H2   HT     0.417000        1.0080           0
   91297 WT5  7877 TIP3 OH2  OT    -0.834000       15.9994           0
   91298 WT5  7877 TIP3 H1   HT     0.417000        1.0080           0
   91299 WT5  7877 TIP3 H2   HT     0.417000        1.0080           0
   91300 WT5  7888 TIP3 OH2  OT    -0.834000       15.9994           0
   91301 WT5  7888 TIP3 H1   HT     0.417000        1.0080           0
   91302 WT5  7888 TIP3 H2   HT     0.417000        1.0080           0
   91303 WT5  7897 TIP3 OH2  OT    -0.834000       15.9994           0
   91304 WT5  7897 TIP3 H1   HT     0.417000        1.0080           0
   91305 WT5  7897 TIP3 H2   HT     0.417000        1.0080           0
   91306 WT5  7904 TIP3 OH2  OT    -0.834000       15.9994           0
   91307 WT5  7904 TIP3 H1   HT     0.417000        1.0080           0
   91308 WT5  7904 TIP3 H2   HT     0.417000        1.0080           0
   91309 WT5  7905 TIP3 OH2  OT    -0.834000       15.9994           0
   91310 WT5  7905 TIP3 H1   HT     0.417000        1.0080           0
   91311 WT5  7905 TIP3 H2   HT     0.417000        1.0080           0
   91312 WT5  7918 TIP3 OH2  OT    -0.834000       15.9994           0
   91313 WT5  7918 TIP3 H1   HT     0.417000        1.0080           0
   91314 WT5  7918 TIP3 H2   HT     0.417000        1.0080           0
   91315 WT5  7920 TIP3 OH2  OT    -0.834000       15.9994           0
   91316 WT5  7920 TIP3 H1   HT     0.417000        1.0080           0
   91317 WT5  7920 TIP3 H2   HT     0.417000        1.0080           0
   91318 WT5  7925 TIP3 OH2  OT    -0.834000       15.9994           0
   91319 WT5  7925 TIP3 H1   HT     0.417000        1.0080           0
   91320 WT5  7925 TIP3 H2   HT     0.417000        1.0080           0
   91321 WT5  7932 TIP3 OH2  OT    -0.834000       15.9994           0
   91322 WT5  7932 TIP3 H1   HT     0.417000        1.0080           0
   91323 WT5  7932 TIP3 H2   HT     0.417000        1.0080           0
   91324 WT5  7944 TIP3 OH2  OT    -0.834000       15.9994           0
   91325 WT5  7944 TIP3 H1   HT     0.417000        1.0080           0
   91326 WT5  7944 TIP3 H2   HT     0.417000        1.0080           0
   91327 WT5  7945 TIP3 OH2  OT    -0.834000       15.9994           0
   91328 WT5  7945 TIP3 H1   HT     0.417000        1.0080           0
   91329 WT5  7945 TIP3 H2   HT     0.417000        1.0080           0
   91330 WT5  7951 TIP3 OH2  OT    -0.834000       15.9994           0
   91331 WT5  7951 TIP3 H1   HT     0.417000        1.0080           0
   91332 WT5  7951 TIP3 H2   HT     0.417000        1.0080           0
   91333 WT5  7959 TIP3 OH2  OT    -0.834000       15.9994           0
   91334 WT5  7959 TIP3 H1   HT     0.417000        1.0080           0
   91335 WT5  7959 TIP3 H2   HT     0.417000        1.0080           0
   91336 WT5  7964 TIP3 OH2  OT    -0.834000       15.9994           0
   91337 WT5  7964 TIP3 H1   HT     0.417000        1.0080           0
   91338 WT5  7964 TIP3 H2   HT     0.417000        1.0080           0
   91339 WT5  7978 TIP3 OH2  OT    -0.834000       15.9994           0
   91340 WT5  7978 TIP3 H1   HT     0.417000        1.0080           0
   91341 WT5  7978 TIP3 H2   HT     0.417000        1.0080           0
   91342 WT5  7979 TIP3 OH2  OT    -0.834000       15.9994           0
   91343 WT5  7979 TIP3 H1   HT     0.417000        1.0080           0
   91344 WT5  7979 TIP3 H2   HT     0.417000        1.0080           0
   91345 WT5  7985 TIP3 OH2  OT    -0.834000       15.9994           0
   91346 WT5  7985 TIP3 H1   HT     0.417000        1.0080           0
   91347 WT5  7985 TIP3 H2   HT     0.417000        1.0080           0
   91348 WT5  7988 TIP3 OH2  OT    -0.834000       15.9994           0
   91349 WT5  7988 TIP3 H1   HT     0.417000        1.0080           0
   91350 WT5  7988 TIP3 H2   HT     0.417000        1.0080           0
   91351 WT5  7994 TIP3 OH2  OT    -0.834000       15.9994           0
   91352 WT5  7994 TIP3 H1   HT     0.417000        1.0080           0
   91353 WT5  7994 TIP3 H2   HT     0.417000        1.0080           0
   91354 WT5  7997 TIP3 OH2  OT    -0.834000       15.9994           0
   91355 WT5  7997 TIP3 H1   HT     0.417000        1.0080           0
   91356 WT5  7997 TIP3 H2   HT     0.417000        1.0080           0
   91357 WT5  7998 TIP3 OH2  OT    -0.834000       15.9994           0
   91358 WT5  7998 TIP3 H1   HT     0.417000        1.0080           0
   91359 WT5  7998 TIP3 H2   HT     0.417000        1.0080           0
   91360 WT5  8000 TIP3 OH2  OT    -0.834000       15.9994           0
   91361 WT5  8000 TIP3 H1   HT     0.417000        1.0080           0
   91362 WT5  8000 TIP3 H2   HT     0.417000        1.0080           0
   91363 WT5  8014 TIP3 OH2  OT    -0.834000       15.9994           0
   91364 WT5  8014 TIP3 H1   HT     0.417000        1.0080           0
   91365 WT5  8014 TIP3 H2   HT     0.417000        1.0080           0
   91366 WT5  8023 TIP3 OH2  OT    -0.834000       15.9994           0
   91367 WT5  8023 TIP3 H1   HT     0.417000        1.0080           0
   91368 WT5  8023 TIP3 H2   HT     0.417000        1.0080           0
   91369 WT5  8024 TIP3 OH2  OT    -0.834000       15.9994           0
   91370 WT5  8024 TIP3 H1   HT     0.417000        1.0080           0
   91371 WT5  8024 TIP3 H2   HT     0.417000        1.0080           0
   91372 WT5  8029 TIP3 OH2  OT    -0.834000       15.9994           0
   91373 WT5  8029 TIP3 H1   HT     0.417000        1.0080           0
   91374 WT5  8029 TIP3 H2   HT     0.417000        1.0080           0
   91375 WT5  8030 TIP3 OH2  OT    -0.834000       15.9994           0
   91376 WT5  8030 TIP3 H1   HT     0.417000        1.0080           0
   91377 WT5  8030 TIP3 H2   HT     0.417000        1.0080           0
   91378 WT5  8031 TIP3 OH2  OT    -0.834000       15.9994           0
   91379 WT5  8031 TIP3 H1   HT     0.417000        1.0080           0
   91380 WT5  8031 TIP3 H2   HT     0.417000        1.0080           0
   91381 WT5  8034 TIP3 OH2  OT    -0.834000       15.9994           0
   91382 WT5  8034 TIP3 H1   HT     0.417000        1.0080           0
   91383 WT5  8034 TIP3 H2   HT     0.417000        1.0080           0
   91384 WT5  8046 TIP3 OH2  OT    -0.834000       15.9994           0
   91385 WT5  8046 TIP3 H1   HT     0.417000        1.0080           0
   91386 WT5  8046 TIP3 H2   HT     0.417000        1.0080           0
   91387 WT5  8055 TIP3 OH2  OT    -0.834000       15.9994           0
   91388 WT5  8055 TIP3 H1   HT     0.417000        1.0080           0
   91389 WT5  8055 TIP3 H2   HT     0.417000        1.0080           0
   91390 WT5  8064 TIP3 OH2  OT    -0.834000       15.9994           0
   91391 WT5  8064 TIP3 H1   HT     0.417000        1.0080           0
   91392 WT5  8064 TIP3 H2   HT     0.417000        1.0080           0
   91393 WT5  8065 TIP3 OH2  OT    -0.834000       15.9994           0
   91394 WT5  8065 TIP3 H1   HT     0.417000        1.0080           0
   91395 WT5  8065 TIP3 H2   HT     0.417000        1.0080           0
   91396 WT5  8066 TIP3 OH2  OT    -0.834000       15.9994           0
   91397 WT5  8066 TIP3 H1   HT     0.417000        1.0080           0
   91398 WT5  8066 TIP3 H2   HT     0.417000        1.0080           0
   91399 WT5  8067 TIP3 OH2  OT    -0.834000       15.9994           0
   91400 WT5  8067 TIP3 H1   HT     0.417000        1.0080           0
   91401 WT5  8067 TIP3 H2   HT     0.417000        1.0080           0
   91402 WT5  8068 TIP3 OH2  OT    -0.834000       15.9994           0
   91403 WT5  8068 TIP3 H1   HT     0.417000        1.0080           0
   91404 WT5  8068 TIP3 H2   HT     0.417000        1.0080           0
   91405 WT5  8070 TIP3 OH2  OT    -0.834000       15.9994           0
   91406 WT5  8070 TIP3 H1   HT     0.417000        1.0080           0
   91407 WT5  8070 TIP3 H2   HT     0.417000        1.0080           0
   91408 WT5  8073 TIP3 OH2  OT    -0.834000       15.9994           0
   91409 WT5  8073 TIP3 H1   HT     0.417000        1.0080           0
   91410 WT5  8073 TIP3 H2   HT     0.417000        1.0080           0
   91411 WT5  8076 TIP3 OH2  OT    -0.834000       15.9994           0
   91412 WT5  8076 TIP3 H1   HT     0.417000        1.0080           0
   91413 WT5  8076 TIP3 H2   HT     0.417000        1.0080           0
   91414 WT5  8087 TIP3 OH2  OT    -0.834000       15.9994           0
   91415 WT5  8087 TIP3 H1   HT     0.417000        1.0080           0
   91416 WT5  8087 TIP3 H2   HT     0.417000        1.0080           0
   91417 WT5  8091 TIP3 OH2  OT    -0.834000       15.9994           0
   91418 WT5  8091 TIP3 H1   HT     0.417000        1.0080           0
   91419 WT5  8091 TIP3 H2   HT     0.417000        1.0080           0
   91420 WT5  8094 TIP3 OH2  OT    -0.834000       15.9994           0
   91421 WT5  8094 TIP3 H1   HT     0.417000        1.0080           0
   91422 WT5  8094 TIP3 H2   HT     0.417000        1.0080           0
   91423 WT5  8097 TIP3 OH2  OT    -0.834000       15.9994           0
   91424 WT5  8097 TIP3 H1   HT     0.417000        1.0080           0
   91425 WT5  8097 TIP3 H2   HT     0.417000        1.0080           0
   91426 WT5  8107 TIP3 OH2  OT    -0.834000       15.9994           0
   91427 WT5  8107 TIP3 H1   HT     0.417000        1.0080           0
   91428 WT5  8107 TIP3 H2   HT     0.417000        1.0080           0
   91429 WT5  8109 TIP3 OH2  OT    -0.834000       15.9994           0
   91430 WT5  8109 TIP3 H1   HT     0.417000        1.0080           0
   91431 WT5  8109 TIP3 H2   HT     0.417000        1.0080           0
   91432 WT5  8113 TIP3 OH2  OT    -0.834000       15.9994           0
   91433 WT5  8113 TIP3 H1   HT     0.417000        1.0080           0
   91434 WT5  8113 TIP3 H2   HT     0.417000        1.0080           0
   91435 WT5  8133 TIP3 OH2  OT    -0.834000       15.9994           0
   91436 WT5  8133 TIP3 H1   HT     0.417000        1.0080           0
   91437 WT5  8133 TIP3 H2   HT     0.417000        1.0080           0
   91438 WT5  8136 TIP3 OH2  OT    -0.834000       15.9994           0
   91439 WT5  8136 TIP3 H1   HT     0.417000        1.0080           0
   91440 WT5  8136 TIP3 H2   HT     0.417000        1.0080           0
   91441 WT5  8140 TIP3 OH2  OT    -0.834000       15.9994           0
   91442 WT5  8140 TIP3 H1   HT     0.417000        1.0080           0
   91443 WT5  8140 TIP3 H2   HT     0.417000        1.0080           0
   91444 WT5  8143 TIP3 OH2  OT    -0.834000       15.9994           0
   91445 WT5  8143 TIP3 H1   HT     0.417000        1.0080           0
   91446 WT5  8143 TIP3 H2   HT     0.417000        1.0080           0
   91447 WT5  8161 TIP3 OH2  OT    -0.834000       15.9994           0
   91448 WT5  8161 TIP3 H1   HT     0.417000        1.0080           0
   91449 WT5  8161 TIP3 H2   HT     0.417000        1.0080           0
   91450 WT5  8173 TIP3 OH2  OT    -0.834000       15.9994           0
   91451 WT5  8173 TIP3 H1   HT     0.417000        1.0080           0
   91452 WT5  8173 TIP3 H2   HT     0.417000        1.0080           0
   91453 WT5  8174 TIP3 OH2  OT    -0.834000       15.9994           0
   91454 WT5  8174 TIP3 H1   HT     0.417000        1.0080           0
   91455 WT5  8174 TIP3 H2   HT     0.417000        1.0080           0
   91456 WT5  8176 TIP3 OH2  OT    -0.834000       15.9994           0
   91457 WT5  8176 TIP3 H1   HT     0.417000        1.0080           0
   91458 WT5  8176 TIP3 H2   HT     0.417000        1.0080           0
   91459 WT5  8181 TIP3 OH2  OT    -0.834000       15.9994           0
   91460 WT5  8181 TIP3 H1   HT     0.417000        1.0080           0
   91461 WT5  8181 TIP3 H2   HT     0.417000        1.0080           0
   91462 WT5  8185 TIP3 OH2  OT    -0.834000       15.9994           0
   91463 WT5  8185 TIP3 H1   HT     0.417000        1.0080           0
   91464 WT5  8185 TIP3 H2   HT     0.417000        1.0080           0
   91465 WT5  8191 TIP3 OH2  OT    -0.834000       15.9994           0
   91466 WT5  8191 TIP3 H1   HT     0.417000        1.0080           0
   91467 WT5  8191 TIP3 H2   HT     0.417000        1.0080           0
   91468 WT5  8193 TIP3 OH2  OT    -0.834000       15.9994           0
   91469 WT5  8193 TIP3 H1   HT     0.417000        1.0080           0
   91470 WT5  8193 TIP3 H2   HT     0.417000        1.0080           0
   91471 WT5  8195 TIP3 OH2  OT    -0.834000       15.9994           0
   91472 WT5  8195 TIP3 H1   HT     0.417000        1.0080           0
   91473 WT5  8195 TIP3 H2   HT     0.417000        1.0080           0
   91474 WT5  8201 TIP3 OH2  OT    -0.834000       15.9994           0
   91475 WT5  8201 TIP3 H1   HT     0.417000        1.0080           0
   91476 WT5  8201 TIP3 H2   HT     0.417000        1.0080           0
   91477 WT5  8202 TIP3 OH2  OT    -0.834000       15.9994           0
   91478 WT5  8202 TIP3 H1   HT     0.417000        1.0080           0
   91479 WT5  8202 TIP3 H2   HT     0.417000        1.0080           0
   91480 WT5  8206 TIP3 OH2  OT    -0.834000       15.9994           0
   91481 WT5  8206 TIP3 H1   HT     0.417000        1.0080           0
   91482 WT5  8206 TIP3 H2   HT     0.417000        1.0080           0
   91483 WT5  8214 TIP3 OH2  OT    -0.834000       15.9994           0
   91484 WT5  8214 TIP3 H1   HT     0.417000        1.0080           0
   91485 WT5  8214 TIP3 H2   HT     0.417000        1.0080           0
   91486 WT5  8218 TIP3 OH2  OT    -0.834000       15.9994           0
   91487 WT5  8218 TIP3 H1   HT     0.417000        1.0080           0
   91488 WT5  8218 TIP3 H2   HT     0.417000        1.0080           0
   91489 WT5  8222 TIP3 OH2  OT    -0.834000       15.9994           0
   91490 WT5  8222 TIP3 H1   HT     0.417000        1.0080           0
   91491 WT5  8222 TIP3 H2   HT     0.417000        1.0080           0
   91492 WT5  8228 TIP3 OH2  OT    -0.834000       15.9994           0
   91493 WT5  8228 TIP3 H1   HT     0.417000        1.0080           0
   91494 WT5  8228 TIP3 H2   HT     0.417000        1.0080           0
   91495 WT5  8229 TIP3 OH2  OT    -0.834000       15.9994           0
   91496 WT5  8229 TIP3 H1   HT     0.417000        1.0080           0
   91497 WT5  8229 TIP3 H2   HT     0.417000        1.0080           0
   91498 WT5  8241 TIP3 OH2  OT    -0.834000       15.9994           0
   91499 WT5  8241 TIP3 H1   HT     0.417000        1.0080           0
   91500 WT5  8241 TIP3 H2   HT     0.417000        1.0080           0
   91501 WT5  8242 TIP3 OH2  OT    -0.834000       15.9994           0
   91502 WT5  8242 TIP3 H1   HT     0.417000        1.0080           0
   91503 WT5  8242 TIP3 H2   HT     0.417000        1.0080           0
   91504 WT5  8255 TIP3 OH2  OT    -0.834000       15.9994           0
   91505 WT5  8255 TIP3 H1   HT     0.417000        1.0080           0
   91506 WT5  8255 TIP3 H2   HT     0.417000        1.0080           0
   91507 WT5  8260 TIP3 OH2  OT    -0.834000       15.9994           0
   91508 WT5  8260 TIP3 H1   HT     0.417000        1.0080           0
   91509 WT5  8260 TIP3 H2   HT     0.417000        1.0080           0
   91510 WT5  8262 TIP3 OH2  OT    -0.834000       15.9994           0
   91511 WT5  8262 TIP3 H1   HT     0.417000        1.0080           0
   91512 WT5  8262 TIP3 H2   HT     0.417000        1.0080           0
   91513 WT5  8264 TIP3 OH2  OT    -0.834000       15.9994           0
   91514 WT5  8264 TIP3 H1   HT     0.417000        1.0080           0
   91515 WT5  8264 TIP3 H2   HT     0.417000        1.0080           0
   91516 WT5  8265 TIP3 OH2  OT    -0.834000       15.9994           0
   91517 WT5  8265 TIP3 H1   HT     0.417000        1.0080           0
   91518 WT5  8265 TIP3 H2   HT     0.417000        1.0080           0
   91519 WT5  8266 TIP3 OH2  OT    -0.834000       15.9994           0
   91520 WT5  8266 TIP3 H1   HT     0.417000        1.0080           0
   91521 WT5  8266 TIP3 H2   HT     0.417000        1.0080           0
   91522 WT5  8278 TIP3 OH2  OT    -0.834000       15.9994           0
   91523 WT5  8278 TIP3 H1   HT     0.417000        1.0080           0
   91524 WT5  8278 TIP3 H2   HT     0.417000        1.0080           0
   91525 WT5  8289 TIP3 OH2  OT    -0.834000       15.9994           0
   91526 WT5  8289 TIP3 H1   HT     0.417000        1.0080           0
   91527 WT5  8289 TIP3 H2   HT     0.417000        1.0080           0
   91528 WT5  8290 TIP3 OH2  OT    -0.834000       15.9994           0
   91529 WT5  8290 TIP3 H1   HT     0.417000        1.0080           0
   91530 WT5  8290 TIP3 H2   HT     0.417000        1.0080           0
   91531 WT5  8305 TIP3 OH2  OT    -0.834000       15.9994           0
   91532 WT5  8305 TIP3 H1   HT     0.417000        1.0080           0
   91533 WT5  8305 TIP3 H2   HT     0.417000        1.0080           0
   91534 WT5  8308 TIP3 OH2  OT    -0.834000       15.9994           0
   91535 WT5  8308 TIP3 H1   HT     0.417000        1.0080           0
   91536 WT5  8308 TIP3 H2   HT     0.417000        1.0080           0
   91537 WT5  8309 TIP3 OH2  OT    -0.834000       15.9994           0
   91538 WT5  8309 TIP3 H1   HT     0.417000        1.0080           0
   91539 WT5  8309 TIP3 H2   HT     0.417000        1.0080           0
   91540 WT5  8313 TIP3 OH2  OT    -0.834000       15.9994           0
   91541 WT5  8313 TIP3 H1   HT     0.417000        1.0080           0
   91542 WT5  8313 TIP3 H2   HT     0.417000        1.0080           0
   91543 WT5  8318 TIP3 OH2  OT    -0.834000       15.9994           0
   91544 WT5  8318 TIP3 H1   HT     0.417000        1.0080           0
   91545 WT5  8318 TIP3 H2   HT     0.417000        1.0080           0
   91546 WT5  8326 TIP3 OH2  OT    -0.834000       15.9994           0
   91547 WT5  8326 TIP3 H1   HT     0.417000        1.0080           0
   91548 WT5  8326 TIP3 H2   HT     0.417000        1.0080           0
   91549 WT5  8328 TIP3 OH2  OT    -0.834000       15.9994           0
   91550 WT5  8328 TIP3 H1   HT     0.417000        1.0080           0
   91551 WT5  8328 TIP3 H2   HT     0.417000        1.0080           0
   91552 WT5  8330 TIP3 OH2  OT    -0.834000       15.9994           0
   91553 WT5  8330 TIP3 H1   HT     0.417000        1.0080           0
   91554 WT5  8330 TIP3 H2   HT     0.417000        1.0080           0
   91555 WT5  8333 TIP3 OH2  OT    -0.834000       15.9994           0
   91556 WT5  8333 TIP3 H1   HT     0.417000        1.0080           0
   91557 WT5  8333 TIP3 H2   HT     0.417000        1.0080           0
   91558 WT5  8340 TIP3 OH2  OT    -0.834000       15.9994           0
   91559 WT5  8340 TIP3 H1   HT     0.417000        1.0080           0
   91560 WT5  8340 TIP3 H2   HT     0.417000        1.0080           0
   91561 WT5  8342 TIP3 OH2  OT    -0.834000       15.9994           0
   91562 WT5  8342 TIP3 H1   HT     0.417000        1.0080           0
   91563 WT5  8342 TIP3 H2   HT     0.417000        1.0080           0
   91564 WT5  8345 TIP3 OH2  OT    -0.834000       15.9994           0
   91565 WT5  8345 TIP3 H1   HT     0.417000        1.0080           0
   91566 WT5  8345 TIP3 H2   HT     0.417000        1.0080           0
   91567 WT5  8350 TIP3 OH2  OT    -0.834000       15.9994           0
   91568 WT5  8350 TIP3 H1   HT     0.417000        1.0080           0
   91569 WT5  8350 TIP3 H2   HT     0.417000        1.0080           0
   91570 WT5  8351 TIP3 OH2  OT    -0.834000       15.9994           0
   91571 WT5  8351 TIP3 H1   HT     0.417000        1.0080           0
   91572 WT5  8351 TIP3 H2   HT     0.417000        1.0080           0
   91573 WT5  8352 TIP3 OH2  OT    -0.834000       15.9994           0
   91574 WT5  8352 TIP3 H1   HT     0.417000        1.0080           0
   91575 WT5  8352 TIP3 H2   HT     0.417000        1.0080           0
   91576 WT5  8361 TIP3 OH2  OT    -0.834000       15.9994           0
   91577 WT5  8361 TIP3 H1   HT     0.417000        1.0080           0
   91578 WT5  8361 TIP3 H2   HT     0.417000        1.0080           0
   91579 WT5  8364 TIP3 OH2  OT    -0.834000       15.9994           0
   91580 WT5  8364 TIP3 H1   HT     0.417000        1.0080           0
   91581 WT5  8364 TIP3 H2   HT     0.417000        1.0080           0
   91582 WT5  8366 TIP3 OH2  OT    -0.834000       15.9994           0
   91583 WT5  8366 TIP3 H1   HT     0.417000        1.0080           0
   91584 WT5  8366 TIP3 H2   HT     0.417000        1.0080           0
   91585 WT5  8368 TIP3 OH2  OT    -0.834000       15.9994           0
   91586 WT5  8368 TIP3 H1   HT     0.417000        1.0080           0
   91587 WT5  8368 TIP3 H2   HT     0.417000        1.0080           0
   91588 WT5  8370 TIP3 OH2  OT    -0.834000       15.9994           0
   91589 WT5  8370 TIP3 H1   HT     0.417000        1.0080           0
   91590 WT5  8370 TIP3 H2   HT     0.417000        1.0080           0
   91591 WT5  8383 TIP3 OH2  OT    -0.834000       15.9994           0
   91592 WT5  8383 TIP3 H1   HT     0.417000        1.0080           0
   91593 WT5  8383 TIP3 H2   HT     0.417000        1.0080           0
   91594 WT5  8387 TIP3 OH2  OT    -0.834000       15.9994           0
   91595 WT5  8387 TIP3 H1   HT     0.417000        1.0080           0
   91596 WT5  8387 TIP3 H2   HT     0.417000        1.0080           0
   91597 WT5  8393 TIP3 OH2  OT    -0.834000       15.9994           0
   91598 WT5  8393 TIP3 H1   HT     0.417000        1.0080           0
   91599 WT5  8393 TIP3 H2   HT     0.417000        1.0080           0
   91600 WT5  8394 TIP3 OH2  OT    -0.834000       15.9994           0
   91601 WT5  8394 TIP3 H1   HT     0.417000        1.0080           0
   91602 WT5  8394 TIP3 H2   HT     0.417000        1.0080           0
   91603 WT5  8395 TIP3 OH2  OT    -0.834000       15.9994           0
   91604 WT5  8395 TIP3 H1   HT     0.417000        1.0080           0
   91605 WT5  8395 TIP3 H2   HT     0.417000        1.0080           0
   91606 WT5  8403 TIP3 OH2  OT    -0.834000       15.9994           0
   91607 WT5  8403 TIP3 H1   HT     0.417000        1.0080           0
   91608 WT5  8403 TIP3 H2   HT     0.417000        1.0080           0
   91609 WT5  8408 TIP3 OH2  OT    -0.834000       15.9994           0
   91610 WT5  8408 TIP3 H1   HT     0.417000        1.0080           0
   91611 WT5  8408 TIP3 H2   HT     0.417000        1.0080           0
   91612 WT5  8409 TIP3 OH2  OT    -0.834000       15.9994           0
   91613 WT5  8409 TIP3 H1   HT     0.417000        1.0080           0
   91614 WT5  8409 TIP3 H2   HT     0.417000        1.0080           0
   91615 WT5  8411 TIP3 OH2  OT    -0.834000       15.9994           0
   91616 WT5  8411 TIP3 H1   HT     0.417000        1.0080           0
   91617 WT5  8411 TIP3 H2   HT     0.417000        1.0080           0
   91618 WT5  8412 TIP3 OH2  OT    -0.834000       15.9994           0
   91619 WT5  8412 TIP3 H1   HT     0.417000        1.0080           0
   91620 WT5  8412 TIP3 H2   HT     0.417000        1.0080           0
   91621 WT5  8414 TIP3 OH2  OT    -0.834000       15.9994           0
   91622 WT5  8414 TIP3 H1   HT     0.417000        1.0080           0
   91623 WT5  8414 TIP3 H2   HT     0.417000        1.0080           0
   91624 WT5  8415 TIP3 OH2  OT    -0.834000       15.9994           0
   91625 WT5  8415 TIP3 H1   HT     0.417000        1.0080           0
   91626 WT5  8415 TIP3 H2   HT     0.417000        1.0080           0
   91627 WT5  8419 TIP3 OH2  OT    -0.834000       15.9994           0
   91628 WT5  8419 TIP3 H1   HT     0.417000        1.0080           0
   91629 WT5  8419 TIP3 H2   HT     0.417000        1.0080           0
   91630 WT5  8420 TIP3 OH2  OT    -0.834000       15.9994           0
   91631 WT5  8420 TIP3 H1   HT     0.417000        1.0080           0
   91632 WT5  8420 TIP3 H2   HT     0.417000        1.0080           0
   91633 WT5  8423 TIP3 OH2  OT    -0.834000       15.9994           0
   91634 WT5  8423 TIP3 H1   HT     0.417000        1.0080           0
   91635 WT5  8423 TIP3 H2   HT     0.417000        1.0080           0
   91636 WT5  8425 TIP3 OH2  OT    -0.834000       15.9994           0
   91637 WT5  8425 TIP3 H1   HT     0.417000        1.0080           0
   91638 WT5  8425 TIP3 H2   HT     0.417000        1.0080           0
   91639 WT5  8436 TIP3 OH2  OT    -0.834000       15.9994           0
   91640 WT5  8436 TIP3 H1   HT     0.417000        1.0080           0
   91641 WT5  8436 TIP3 H2   HT     0.417000        1.0080           0
   91642 WT5  8440 TIP3 OH2  OT    -0.834000       15.9994           0
   91643 WT5  8440 TIP3 H1   HT     0.417000        1.0080           0
   91644 WT5  8440 TIP3 H2   HT     0.417000        1.0080           0
   91645 WT5  8441 TIP3 OH2  OT    -0.834000       15.9994           0
   91646 WT5  8441 TIP3 H1   HT     0.417000        1.0080           0
   91647 WT5  8441 TIP3 H2   HT     0.417000        1.0080           0
   91648 WT5  8443 TIP3 OH2  OT    -0.834000       15.9994           0
   91649 WT5  8443 TIP3 H1   HT     0.417000        1.0080           0
   91650 WT5  8443 TIP3 H2   HT     0.417000        1.0080           0
   91651 WT5  8452 TIP3 OH2  OT    -0.834000       15.9994           0
   91652 WT5  8452 TIP3 H1   HT     0.417000        1.0080           0
   91653 WT5  8452 TIP3 H2   HT     0.417000        1.0080           0
   91654 WT5  8457 TIP3 OH2  OT    -0.834000       15.9994           0
   91655 WT5  8457 TIP3 H1   HT     0.417000        1.0080           0
   91656 WT5  8457 TIP3 H2   HT     0.417000        1.0080           0
   91657 WT5  8459 TIP3 OH2  OT    -0.834000       15.9994           0
   91658 WT5  8459 TIP3 H1   HT     0.417000        1.0080           0
   91659 WT5  8459 TIP3 H2   HT     0.417000        1.0080           0
   91660 WT5  8462 TIP3 OH2  OT    -0.834000       15.9994           0
   91661 WT5  8462 TIP3 H1   HT     0.417000        1.0080           0
   91662 WT5  8462 TIP3 H2   HT     0.417000        1.0080           0
   91663 WT5  8466 TIP3 OH2  OT    -0.834000       15.9994           0
   91664 WT5  8466 TIP3 H1   HT     0.417000        1.0080           0
   91665 WT5  8466 TIP3 H2   HT     0.417000        1.0080           0
   91666 WT5  8467 TIP3 OH2  OT    -0.834000       15.9994           0
   91667 WT5  8467 TIP3 H1   HT     0.417000        1.0080           0
   91668 WT5  8467 TIP3 H2   HT     0.417000        1.0080           0
   91669 WT5  8468 TIP3 OH2  OT    -0.834000       15.9994           0
   91670 WT5  8468 TIP3 H1   HT     0.417000        1.0080           0
   91671 WT5  8468 TIP3 H2   HT     0.417000        1.0080           0
   91672 WT5  8488 TIP3 OH2  OT    -0.834000       15.9994           0
   91673 WT5  8488 TIP3 H1   HT     0.417000        1.0080           0
   91674 WT5  8488 TIP3 H2   HT     0.417000        1.0080           0
   91675 WT5  8491 TIP3 OH2  OT    -0.834000       15.9994           0
   91676 WT5  8491 TIP3 H1   HT     0.417000        1.0080           0
   91677 WT5  8491 TIP3 H2   HT     0.417000        1.0080           0
   91678 WT5  8492 TIP3 OH2  OT    -0.834000       15.9994           0
   91679 WT5  8492 TIP3 H1   HT     0.417000        1.0080           0
   91680 WT5  8492 TIP3 H2   HT     0.417000        1.0080           0
   91681 WT5  8500 TIP3 OH2  OT    -0.834000       15.9994           0
   91682 WT5  8500 TIP3 H1   HT     0.417000        1.0080           0
   91683 WT5  8500 TIP3 H2   HT     0.417000        1.0080           0
   91684 WT5  8509 TIP3 OH2  OT    -0.834000       15.9994           0
   91685 WT5  8509 TIP3 H1   HT     0.417000        1.0080           0
   91686 WT5  8509 TIP3 H2   HT     0.417000        1.0080           0
   91687 WT5  8518 TIP3 OH2  OT    -0.834000       15.9994           0
   91688 WT5  8518 TIP3 H1   HT     0.417000        1.0080           0
   91689 WT5  8518 TIP3 H2   HT     0.417000        1.0080           0
   91690 WT5  8520 TIP3 OH2  OT    -0.834000       15.9994           0
   91691 WT5  8520 TIP3 H1   HT     0.417000        1.0080           0
   91692 WT5  8520 TIP3 H2   HT     0.417000        1.0080           0
   91693 WT5  8527 TIP3 OH2  OT    -0.834000       15.9994           0
   91694 WT5  8527 TIP3 H1   HT     0.417000        1.0080           0
   91695 WT5  8527 TIP3 H2   HT     0.417000        1.0080           0
   91696 WT5  8528 TIP3 OH2  OT    -0.834000       15.9994           0
   91697 WT5  8528 TIP3 H1   HT     0.417000        1.0080           0
   91698 WT5  8528 TIP3 H2   HT     0.417000        1.0080           0
   91699 WT5  8534 TIP3 OH2  OT    -0.834000       15.9994           0
   91700 WT5  8534 TIP3 H1   HT     0.417000        1.0080           0
   91701 WT5  8534 TIP3 H2   HT     0.417000        1.0080           0
   91702 WT5  8536 TIP3 OH2  OT    -0.834000       15.9994           0
   91703 WT5  8536 TIP3 H1   HT     0.417000        1.0080           0
   91704 WT5  8536 TIP3 H2   HT     0.417000        1.0080           0
   91705 WT5  8537 TIP3 OH2  OT    -0.834000       15.9994           0
   91706 WT5  8537 TIP3 H1   HT     0.417000        1.0080           0
   91707 WT5  8537 TIP3 H2   HT     0.417000        1.0080           0
   91708 WT5  8548 TIP3 OH2  OT    -0.834000       15.9994           0
   91709 WT5  8548 TIP3 H1   HT     0.417000        1.0080           0
   91710 WT5  8548 TIP3 H2   HT     0.417000        1.0080           0
   91711 WT5  8549 TIP3 OH2  OT    -0.834000       15.9994           0
   91712 WT5  8549 TIP3 H1   HT     0.417000        1.0080           0
   91713 WT5  8549 TIP3 H2   HT     0.417000        1.0080           0
   91714 WT5  8551 TIP3 OH2  OT    -0.834000       15.9994           0
   91715 WT5  8551 TIP3 H1   HT     0.417000        1.0080           0
   91716 WT5  8551 TIP3 H2   HT     0.417000        1.0080           0
   91717 WT5  8555 TIP3 OH2  OT    -0.834000       15.9994           0
   91718 WT5  8555 TIP3 H1   HT     0.417000        1.0080           0
   91719 WT5  8555 TIP3 H2   HT     0.417000        1.0080           0
   91720 WT5  8556 TIP3 OH2  OT    -0.834000       15.9994           0
   91721 WT5  8556 TIP3 H1   HT     0.417000        1.0080           0
   91722 WT5  8556 TIP3 H2   HT     0.417000        1.0080           0
   91723 WT5  8558 TIP3 OH2  OT    -0.834000       15.9994           0
   91724 WT5  8558 TIP3 H1   HT     0.417000        1.0080           0
   91725 WT5  8558 TIP3 H2   HT     0.417000        1.0080           0
   91726 WT5  8560 TIP3 OH2  OT    -0.834000       15.9994           0
   91727 WT5  8560 TIP3 H1   HT     0.417000        1.0080           0
   91728 WT5  8560 TIP3 H2   HT     0.417000        1.0080           0
   91729 WT5  8561 TIP3 OH2  OT    -0.834000       15.9994           0
   91730 WT5  8561 TIP3 H1   HT     0.417000        1.0080           0
   91731 WT5  8561 TIP3 H2   HT     0.417000        1.0080           0
   91732 WT5  8564 TIP3 OH2  OT    -0.834000       15.9994           0
   91733 WT5  8564 TIP3 H1   HT     0.417000        1.0080           0
   91734 WT5  8564 TIP3 H2   HT     0.417000        1.0080           0
   91735 WT5  8566 TIP3 OH2  OT    -0.834000       15.9994           0
   91736 WT5  8566 TIP3 H1   HT     0.417000        1.0080           0
   91737 WT5  8566 TIP3 H2   HT     0.417000        1.0080           0
   91738 WT5  8567 TIP3 OH2  OT    -0.834000       15.9994           0
   91739 WT5  8567 TIP3 H1   HT     0.417000        1.0080           0
   91740 WT5  8567 TIP3 H2   HT     0.417000        1.0080           0
   91741 WT5  8568 TIP3 OH2  OT    -0.834000       15.9994           0
   91742 WT5  8568 TIP3 H1   HT     0.417000        1.0080           0
   91743 WT5  8568 TIP3 H2   HT     0.417000        1.0080           0
   91744 WT5  8574 TIP3 OH2  OT    -0.834000       15.9994           0
   91745 WT5  8574 TIP3 H1   HT     0.417000        1.0080           0
   91746 WT5  8574 TIP3 H2   HT     0.417000        1.0080           0
   91747 WT5  8576 TIP3 OH2  OT    -0.834000       15.9994           0
   91748 WT5  8576 TIP3 H1   HT     0.417000        1.0080           0
   91749 WT5  8576 TIP3 H2   HT     0.417000        1.0080           0
   91750 WT5  8577 TIP3 OH2  OT    -0.834000       15.9994           0
   91751 WT5  8577 TIP3 H1   HT     0.417000        1.0080           0
   91752 WT5  8577 TIP3 H2   HT     0.417000        1.0080           0
   91753 WT5  8578 TIP3 OH2  OT    -0.834000       15.9994           0
   91754 WT5  8578 TIP3 H1   HT     0.417000        1.0080           0
   91755 WT5  8578 TIP3 H2   HT     0.417000        1.0080           0
   91756 WT5  8579 TIP3 OH2  OT    -0.834000       15.9994           0
   91757 WT5  8579 TIP3 H1   HT     0.417000        1.0080           0
   91758 WT5  8579 TIP3 H2   HT     0.417000        1.0080           0
   91759 WT5  8585 TIP3 OH2  OT    -0.834000       15.9994           0
   91760 WT5  8585 TIP3 H1   HT     0.417000        1.0080           0
   91761 WT5  8585 TIP3 H2   HT     0.417000        1.0080           0
   91762 WT5  8589 TIP3 OH2  OT    -0.834000       15.9994           0
   91763 WT5  8589 TIP3 H1   HT     0.417000        1.0080           0
   91764 WT5  8589 TIP3 H2   HT     0.417000        1.0080           0
   91765 WT5  8600 TIP3 OH2  OT    -0.834000       15.9994           0
   91766 WT5  8600 TIP3 H1   HT     0.417000        1.0080           0
   91767 WT5  8600 TIP3 H2   HT     0.417000        1.0080           0
   91768 WT5  8607 TIP3 OH2  OT    -0.834000       15.9994           0
   91769 WT5  8607 TIP3 H1   HT     0.417000        1.0080           0
   91770 WT5  8607 TIP3 H2   HT     0.417000        1.0080           0
   91771 WT5  8608 TIP3 OH2  OT    -0.834000       15.9994           0
   91772 WT5  8608 TIP3 H1   HT     0.417000        1.0080           0
   91773 WT5  8608 TIP3 H2   HT     0.417000        1.0080           0
   91774 WT5  8613 TIP3 OH2  OT    -0.834000       15.9994           0
   91775 WT5  8613 TIP3 H1   HT     0.417000        1.0080           0
   91776 WT5  8613 TIP3 H2   HT     0.417000        1.0080           0
   91777 WT5  8617 TIP3 OH2  OT    -0.834000       15.9994           0
   91778 WT5  8617 TIP3 H1   HT     0.417000        1.0080           0
   91779 WT5  8617 TIP3 H2   HT     0.417000        1.0080           0
   91780 WT5  8621 TIP3 OH2  OT    -0.834000       15.9994           0
   91781 WT5  8621 TIP3 H1   HT     0.417000        1.0080           0
   91782 WT5  8621 TIP3 H2   HT     0.417000        1.0080           0
   91783 WT5  8622 TIP3 OH2  OT    -0.834000       15.9994           0
   91784 WT5  8622 TIP3 H1   HT     0.417000        1.0080           0
   91785 WT5  8622 TIP3 H2   HT     0.417000        1.0080           0
   91786 WT5  8624 TIP3 OH2  OT    -0.834000       15.9994           0
   91787 WT5  8624 TIP3 H1   HT     0.417000        1.0080           0
   91788 WT5  8624 TIP3 H2   HT     0.417000        1.0080           0
   91789 WT5  8628 TIP3 OH2  OT    -0.834000       15.9994           0
   91790 WT5  8628 TIP3 H1   HT     0.417000        1.0080           0
   91791 WT5  8628 TIP3 H2   HT     0.417000        1.0080           0
   91792 WT5  8635 TIP3 OH2  OT    -0.834000       15.9994           0
   91793 WT5  8635 TIP3 H1   HT     0.417000        1.0080           0
   91794 WT5  8635 TIP3 H2   HT     0.417000        1.0080           0
   91795 WT5  8642 TIP3 OH2  OT    -0.834000       15.9994           0
   91796 WT5  8642 TIP3 H1   HT     0.417000        1.0080           0
   91797 WT5  8642 TIP3 H2   HT     0.417000        1.0080           0
   91798 WT5  8645 TIP3 OH2  OT    -0.834000       15.9994           0
   91799 WT5  8645 TIP3 H1   HT     0.417000        1.0080           0
   91800 WT5  8645 TIP3 H2   HT     0.417000        1.0080           0
   91801 WT5  8653 TIP3 OH2  OT    -0.834000       15.9994           0
   91802 WT5  8653 TIP3 H1   HT     0.417000        1.0080           0
   91803 WT5  8653 TIP3 H2   HT     0.417000        1.0080           0
   91804 WT5  8658 TIP3 OH2  OT    -0.834000       15.9994           0
   91805 WT5  8658 TIP3 H1   HT     0.417000        1.0080           0
   91806 WT5  8658 TIP3 H2   HT     0.417000        1.0080           0
   91807 WT5  8661 TIP3 OH2  OT    -0.834000       15.9994           0
   91808 WT5  8661 TIP3 H1   HT     0.417000        1.0080           0
   91809 WT5  8661 TIP3 H2   HT     0.417000        1.0080           0
   91810 WT5  8662 TIP3 OH2  OT    -0.834000       15.9994           0
   91811 WT5  8662 TIP3 H1   HT     0.417000        1.0080           0
   91812 WT5  8662 TIP3 H2   HT     0.417000        1.0080           0
   91813 WT5  8666 TIP3 OH2  OT    -0.834000       15.9994           0
   91814 WT5  8666 TIP3 H1   HT     0.417000        1.0080           0
   91815 WT5  8666 TIP3 H2   HT     0.417000        1.0080           0
   91816 WT5  8668 TIP3 OH2  OT    -0.834000       15.9994           0
   91817 WT5  8668 TIP3 H1   HT     0.417000        1.0080           0
   91818 WT5  8668 TIP3 H2   HT     0.417000        1.0080           0
   91819 WT5  8673 TIP3 OH2  OT    -0.834000       15.9994           0
   91820 WT5  8673 TIP3 H1   HT     0.417000        1.0080           0
   91821 WT5  8673 TIP3 H2   HT     0.417000        1.0080           0
   91822 WT5  8675 TIP3 OH2  OT    -0.834000       15.9994           0
   91823 WT5  8675 TIP3 H1   HT     0.417000        1.0080           0
   91824 WT5  8675 TIP3 H2   HT     0.417000        1.0080           0
   91825 WT5  8677 TIP3 OH2  OT    -0.834000       15.9994           0
   91826 WT5  8677 TIP3 H1   HT     0.417000        1.0080           0
   91827 WT5  8677 TIP3 H2   HT     0.417000        1.0080           0
   91828 WT5  8679 TIP3 OH2  OT    -0.834000       15.9994           0
   91829 WT5  8679 TIP3 H1   HT     0.417000        1.0080           0
   91830 WT5  8679 TIP3 H2   HT     0.417000        1.0080           0
   91831 WT5  8680 TIP3 OH2  OT    -0.834000       15.9994           0
   91832 WT5  8680 TIP3 H1   HT     0.417000        1.0080           0
   91833 WT5  8680 TIP3 H2   HT     0.417000        1.0080           0
   91834 WT5  8683 TIP3 OH2  OT    -0.834000       15.9994           0
   91835 WT5  8683 TIP3 H1   HT     0.417000        1.0080           0
   91836 WT5  8683 TIP3 H2   HT     0.417000        1.0080           0
   91837 WT5  8687 TIP3 OH2  OT    -0.834000       15.9994           0
   91838 WT5  8687 TIP3 H1   HT     0.417000        1.0080           0
   91839 WT5  8687 TIP3 H2   HT     0.417000        1.0080           0
   91840 WT5  8688 TIP3 OH2  OT    -0.834000       15.9994           0
   91841 WT5  8688 TIP3 H1   HT     0.417000        1.0080           0
   91842 WT5  8688 TIP3 H2   HT     0.417000        1.0080           0
   91843 WT5  8689 TIP3 OH2  OT    -0.834000       15.9994           0
   91844 WT5  8689 TIP3 H1   HT     0.417000        1.0080           0
   91845 WT5  8689 TIP3 H2   HT     0.417000        1.0080           0
   91846 WT5  8690 TIP3 OH2  OT    -0.834000       15.9994           0
   91847 WT5  8690 TIP3 H1   HT     0.417000        1.0080           0
   91848 WT5  8690 TIP3 H2   HT     0.417000        1.0080           0
   91849 WT5  8691 TIP3 OH2  OT    -0.834000       15.9994           0
   91850 WT5  8691 TIP3 H1   HT     0.417000        1.0080           0
   91851 WT5  8691 TIP3 H2   HT     0.417000        1.0080           0
   91852 WT5  8695 TIP3 OH2  OT    -0.834000       15.9994           0
   91853 WT5  8695 TIP3 H1   HT     0.417000        1.0080           0
   91854 WT5  8695 TIP3 H2   HT     0.417000        1.0080           0
   91855 WT5  8699 TIP3 OH2  OT    -0.834000       15.9994           0
   91856 WT5  8699 TIP3 H1   HT     0.417000        1.0080           0
   91857 WT5  8699 TIP3 H2   HT     0.417000        1.0080           0
   91858 WT5  8701 TIP3 OH2  OT    -0.834000       15.9994           0
   91859 WT5  8701 TIP3 H1   HT     0.417000        1.0080           0
   91860 WT5  8701 TIP3 H2   HT     0.417000        1.0080           0
   91861 WT5  8705 TIP3 OH2  OT    -0.834000       15.9994           0
   91862 WT5  8705 TIP3 H1   HT     0.417000        1.0080           0
   91863 WT5  8705 TIP3 H2   HT     0.417000        1.0080           0
   91864 WT5  8709 TIP3 OH2  OT    -0.834000       15.9994           0
   91865 WT5  8709 TIP3 H1   HT     0.417000        1.0080           0
   91866 WT5  8709 TIP3 H2   HT     0.417000        1.0080           0
   91867 WT5  8711 TIP3 OH2  OT    -0.834000       15.9994           0
   91868 WT5  8711 TIP3 H1   HT     0.417000        1.0080           0
   91869 WT5  8711 TIP3 H2   HT     0.417000        1.0080           0
   91870 WT5  8713 TIP3 OH2  OT    -0.834000       15.9994           0
   91871 WT5  8713 TIP3 H1   HT     0.417000        1.0080           0
   91872 WT5  8713 TIP3 H2   HT     0.417000        1.0080           0
   91873 WT5  8721 TIP3 OH2  OT    -0.834000       15.9994           0
   91874 WT5  8721 TIP3 H1   HT     0.417000        1.0080           0
   91875 WT5  8721 TIP3 H2   HT     0.417000        1.0080           0
   91876 WT5  8722 TIP3 OH2  OT    -0.834000       15.9994           0
   91877 WT5  8722 TIP3 H1   HT     0.417000        1.0080           0
   91878 WT5  8722 TIP3 H2   HT     0.417000        1.0080           0
   91879 WT5  8723 TIP3 OH2  OT    -0.834000       15.9994           0
   91880 WT5  8723 TIP3 H1   HT     0.417000        1.0080           0
   91881 WT5  8723 TIP3 H2   HT     0.417000        1.0080           0
   91882 WT5  8724 TIP3 OH2  OT    -0.834000       15.9994           0
   91883 WT5  8724 TIP3 H1   HT     0.417000        1.0080           0
   91884 WT5  8724 TIP3 H2   HT     0.417000        1.0080           0
   91885 WT5  8726 TIP3 OH2  OT    -0.834000       15.9994           0
   91886 WT5  8726 TIP3 H1   HT     0.417000        1.0080           0
   91887 WT5  8726 TIP3 H2   HT     0.417000        1.0080           0
   91888 WT5  8727 TIP3 OH2  OT    -0.834000       15.9994           0
   91889 WT5  8727 TIP3 H1   HT     0.417000        1.0080           0
   91890 WT5  8727 TIP3 H2   HT     0.417000        1.0080           0
   91891 WT5  8732 TIP3 OH2  OT    -0.834000       15.9994           0
   91892 WT5  8732 TIP3 H1   HT     0.417000        1.0080           0
   91893 WT5  8732 TIP3 H2   HT     0.417000        1.0080           0
   91894 WT5  8746 TIP3 OH2  OT    -0.834000       15.9994           0
   91895 WT5  8746 TIP3 H1   HT     0.417000        1.0080           0
   91896 WT5  8746 TIP3 H2   HT     0.417000        1.0080           0
   91897 WT5  8748 TIP3 OH2  OT    -0.834000       15.9994           0
   91898 WT5  8748 TIP3 H1   HT     0.417000        1.0080           0
   91899 WT5  8748 TIP3 H2   HT     0.417000        1.0080           0
   91900 WT5  8756 TIP3 OH2  OT    -0.834000       15.9994           0
   91901 WT5  8756 TIP3 H1   HT     0.417000        1.0080           0
   91902 WT5  8756 TIP3 H2   HT     0.417000        1.0080           0
   91903 WT5  8760 TIP3 OH2  OT    -0.834000       15.9994           0
   91904 WT5  8760 TIP3 H1   HT     0.417000        1.0080           0
   91905 WT5  8760 TIP3 H2   HT     0.417000        1.0080           0
   91906 WT5  8761 TIP3 OH2  OT    -0.834000       15.9994           0
   91907 WT5  8761 TIP3 H1   HT     0.417000        1.0080           0
   91908 WT5  8761 TIP3 H2   HT     0.417000        1.0080           0
   91909 WT5  8769 TIP3 OH2  OT    -0.834000       15.9994           0
   91910 WT5  8769 TIP3 H1   HT     0.417000        1.0080           0
   91911 WT5  8769 TIP3 H2   HT     0.417000        1.0080           0
   91912 WT5  8771 TIP3 OH2  OT    -0.834000       15.9994           0
   91913 WT5  8771 TIP3 H1   HT     0.417000        1.0080           0
   91914 WT5  8771 TIP3 H2   HT     0.417000        1.0080           0
   91915 WT5  8774 TIP3 OH2  OT    -0.834000       15.9994           0
   91916 WT5  8774 TIP3 H1   HT     0.417000        1.0080           0
   91917 WT5  8774 TIP3 H2   HT     0.417000        1.0080           0
   91918 WT5  8780 TIP3 OH2  OT    -0.834000       15.9994           0
   91919 WT5  8780 TIP3 H1   HT     0.417000        1.0080           0
   91920 WT5  8780 TIP3 H2   HT     0.417000        1.0080           0
   91921 WT5  8784 TIP3 OH2  OT    -0.834000       15.9994           0
   91922 WT5  8784 TIP3 H1   HT     0.417000        1.0080           0
   91923 WT5  8784 TIP3 H2   HT     0.417000        1.0080           0
   91924 WT5  8791 TIP3 OH2  OT    -0.834000       15.9994           0
   91925 WT5  8791 TIP3 H1   HT     0.417000        1.0080           0
   91926 WT5  8791 TIP3 H2   HT     0.417000        1.0080           0
   91927 WT5  8793 TIP3 OH2  OT    -0.834000       15.9994           0
   91928 WT5  8793 TIP3 H1   HT     0.417000        1.0080           0
   91929 WT5  8793 TIP3 H2   HT     0.417000        1.0080           0
   91930 WT5  8794 TIP3 OH2  OT    -0.834000       15.9994           0
   91931 WT5  8794 TIP3 H1   HT     0.417000        1.0080           0
   91932 WT5  8794 TIP3 H2   HT     0.417000        1.0080           0
   91933 WT5  8796 TIP3 OH2  OT    -0.834000       15.9994           0
   91934 WT5  8796 TIP3 H1   HT     0.417000        1.0080           0
   91935 WT5  8796 TIP3 H2   HT     0.417000        1.0080           0
   91936 WT5  8800 TIP3 OH2  OT    -0.834000       15.9994           0
   91937 WT5  8800 TIP3 H1   HT     0.417000        1.0080           0
   91938 WT5  8800 TIP3 H2   HT     0.417000        1.0080           0
   91939 WT5  8801 TIP3 OH2  OT    -0.834000       15.9994           0
   91940 WT5  8801 TIP3 H1   HT     0.417000        1.0080           0
   91941 WT5  8801 TIP3 H2   HT     0.417000        1.0080           0
   91942 WT5  8809 TIP3 OH2  OT    -0.834000       15.9994           0
   91943 WT5  8809 TIP3 H1   HT     0.417000        1.0080           0
   91944 WT5  8809 TIP3 H2   HT     0.417000        1.0080           0
   91945 WT5  8813 TIP3 OH2  OT    -0.834000       15.9994           0
   91946 WT5  8813 TIP3 H1   HT     0.417000        1.0080           0
   91947 WT5  8813 TIP3 H2   HT     0.417000        1.0080           0
   91948 WT5  8814 TIP3 OH2  OT    -0.834000       15.9994           0
   91949 WT5  8814 TIP3 H1   HT     0.417000        1.0080           0
   91950 WT5  8814 TIP3 H2   HT     0.417000        1.0080           0
   91951 WT5  8822 TIP3 OH2  OT    -0.834000       15.9994           0
   91952 WT5  8822 TIP3 H1   HT     0.417000        1.0080           0
   91953 WT5  8822 TIP3 H2   HT     0.417000        1.0080           0
   91954 WT5  8824 TIP3 OH2  OT    -0.834000       15.9994           0
   91955 WT5  8824 TIP3 H1   HT     0.417000        1.0080           0
   91956 WT5  8824 TIP3 H2   HT     0.417000        1.0080           0
   91957 WT5  8826 TIP3 OH2  OT    -0.834000       15.9994           0
   91958 WT5  8826 TIP3 H1   HT     0.417000        1.0080           0
   91959 WT5  8826 TIP3 H2   HT     0.417000        1.0080           0
   91960 WT5  8829 TIP3 OH2  OT    -0.834000       15.9994           0
   91961 WT5  8829 TIP3 H1   HT     0.417000        1.0080           0
   91962 WT5  8829 TIP3 H2   HT     0.417000        1.0080           0
   91963 WT5  8833 TIP3 OH2  OT    -0.834000       15.9994           0
   91964 WT5  8833 TIP3 H1   HT     0.417000        1.0080           0
   91965 WT5  8833 TIP3 H2   HT     0.417000        1.0080           0
   91966 WT5  8836 TIP3 OH2  OT    -0.834000       15.9994           0
   91967 WT5  8836 TIP3 H1   HT     0.417000        1.0080           0
   91968 WT5  8836 TIP3 H2   HT     0.417000        1.0080           0
   91969 WT5  8841 TIP3 OH2  OT    -0.834000       15.9994           0
   91970 WT5  8841 TIP3 H1   HT     0.417000        1.0080           0
   91971 WT5  8841 TIP3 H2   HT     0.417000        1.0080           0
   91972 WT5  8843 TIP3 OH2  OT    -0.834000       15.9994           0
   91973 WT5  8843 TIP3 H1   HT     0.417000        1.0080           0
   91974 WT5  8843 TIP3 H2   HT     0.417000        1.0080           0
   91975 WT5  8845 TIP3 OH2  OT    -0.834000       15.9994           0
   91976 WT5  8845 TIP3 H1   HT     0.417000        1.0080           0
   91977 WT5  8845 TIP3 H2   HT     0.417000        1.0080           0
   91978 WT5  8848 TIP3 OH2  OT    -0.834000       15.9994           0
   91979 WT5  8848 TIP3 H1   HT     0.417000        1.0080           0
   91980 WT5  8848 TIP3 H2   HT     0.417000        1.0080           0
   91981 WT5  8851 TIP3 OH2  OT    -0.834000       15.9994           0
   91982 WT5  8851 TIP3 H1   HT     0.417000        1.0080           0
   91983 WT5  8851 TIP3 H2   HT     0.417000        1.0080           0
   91984 WT5  8852 TIP3 OH2  OT    -0.834000       15.9994           0
   91985 WT5  8852 TIP3 H1   HT     0.417000        1.0080           0
   91986 WT5  8852 TIP3 H2   HT     0.417000        1.0080           0
   91987 WT5  8855 TIP3 OH2  OT    -0.834000       15.9994           0
   91988 WT5  8855 TIP3 H1   HT     0.417000        1.0080           0
   91989 WT5  8855 TIP3 H2   HT     0.417000        1.0080           0
   91990 WT5  8860 TIP3 OH2  OT    -0.834000       15.9994           0
   91991 WT5  8860 TIP3 H1   HT     0.417000        1.0080           0
   91992 WT5  8860 TIP3 H2   HT     0.417000        1.0080           0
   91993 WT5  8864 TIP3 OH2  OT    -0.834000       15.9994           0
   91994 WT5  8864 TIP3 H1   HT     0.417000        1.0080           0
   91995 WT5  8864 TIP3 H2   HT     0.417000        1.0080           0
   91996 WT5  8865 TIP3 OH2  OT    -0.834000       15.9994           0
   91997 WT5  8865 TIP3 H1   HT     0.417000        1.0080           0
   91998 WT5  8865 TIP3 H2   HT     0.417000        1.0080           0
   91999 WT5  8869 TIP3 OH2  OT    -0.834000       15.9994           0
   92000 WT5  8869 TIP3 H1   HT     0.417000        1.0080           0
   92001 WT5  8869 TIP3 H2   HT     0.417000        1.0080           0
   92002 WT5  8870 TIP3 OH2  OT    -0.834000       15.9994           0
   92003 WT5  8870 TIP3 H1   HT     0.417000        1.0080           0
   92004 WT5  8870 TIP3 H2   HT     0.417000        1.0080           0
   92005 WT5  8872 TIP3 OH2  OT    -0.834000       15.9994           0
   92006 WT5  8872 TIP3 H1   HT     0.417000        1.0080           0
   92007 WT5  8872 TIP3 H2   HT     0.417000        1.0080           0
   92008 WT5  8877 TIP3 OH2  OT    -0.834000       15.9994           0
   92009 WT5  8877 TIP3 H1   HT     0.417000        1.0080           0
   92010 WT5  8877 TIP3 H2   HT     0.417000        1.0080           0
   92011 WT5  8879 TIP3 OH2  OT    -0.834000       15.9994           0
   92012 WT5  8879 TIP3 H1   HT     0.417000        1.0080           0
   92013 WT5  8879 TIP3 H2   HT     0.417000        1.0080           0
   92014 WT5  8886 TIP3 OH2  OT    -0.834000       15.9994           0
   92015 WT5  8886 TIP3 H1   HT     0.417000        1.0080           0
   92016 WT5  8886 TIP3 H2   HT     0.417000        1.0080           0
   92017 WT5  8887 TIP3 OH2  OT    -0.834000       15.9994           0
   92018 WT5  8887 TIP3 H1   HT     0.417000        1.0080           0
   92019 WT5  8887 TIP3 H2   HT     0.417000        1.0080           0
   92020 WT5  8890 TIP3 OH2  OT    -0.834000       15.9994           0
   92021 WT5  8890 TIP3 H1   HT     0.417000        1.0080           0
   92022 WT5  8890 TIP3 H2   HT     0.417000        1.0080           0
   92023 WT5  8892 TIP3 OH2  OT    -0.834000       15.9994           0
   92024 WT5  8892 TIP3 H1   HT     0.417000        1.0080           0
   92025 WT5  8892 TIP3 H2   HT     0.417000        1.0080           0
   92026 WT5  8893 TIP3 OH2  OT    -0.834000       15.9994           0
   92027 WT5  8893 TIP3 H1   HT     0.417000        1.0080           0
   92028 WT5  8893 TIP3 H2   HT     0.417000        1.0080           0
   92029 WT5  8894 TIP3 OH2  OT    -0.834000       15.9994           0
   92030 WT5  8894 TIP3 H1   HT     0.417000        1.0080           0
   92031 WT5  8894 TIP3 H2   HT     0.417000        1.0080           0
   92032 WT5  8895 TIP3 OH2  OT    -0.834000       15.9994           0
   92033 WT5  8895 TIP3 H1   HT     0.417000        1.0080           0
   92034 WT5  8895 TIP3 H2   HT     0.417000        1.0080           0
   92035 WT5  8896 TIP3 OH2  OT    -0.834000       15.9994           0
   92036 WT5  8896 TIP3 H1   HT     0.417000        1.0080           0
   92037 WT5  8896 TIP3 H2   HT     0.417000        1.0080           0
   92038 WT5  8898 TIP3 OH2  OT    -0.834000       15.9994           0
   92039 WT5  8898 TIP3 H1   HT     0.417000        1.0080           0
   92040 WT5  8898 TIP3 H2   HT     0.417000        1.0080           0
   92041 WT5  8902 TIP3 OH2  OT    -0.834000       15.9994           0
   92042 WT5  8902 TIP3 H1   HT     0.417000        1.0080           0
   92043 WT5  8902 TIP3 H2   HT     0.417000        1.0080           0
   92044 WT5  8903 TIP3 OH2  OT    -0.834000       15.9994           0
   92045 WT5  8903 TIP3 H1   HT     0.417000        1.0080           0
   92046 WT5  8903 TIP3 H2   HT     0.417000        1.0080           0
   92047 WT5  8904 TIP3 OH2  OT    -0.834000       15.9994           0
   92048 WT5  8904 TIP3 H1   HT     0.417000        1.0080           0
   92049 WT5  8904 TIP3 H2   HT     0.417000        1.0080           0
   92050 WT5  8905 TIP3 OH2  OT    -0.834000       15.9994           0
   92051 WT5  8905 TIP3 H1   HT     0.417000        1.0080           0
   92052 WT5  8905 TIP3 H2   HT     0.417000        1.0080           0
   92053 WT5  8906 TIP3 OH2  OT    -0.834000       15.9994           0
   92054 WT5  8906 TIP3 H1   HT     0.417000        1.0080           0
   92055 WT5  8906 TIP3 H2   HT     0.417000        1.0080           0
   92056 WT5  8908 TIP3 OH2  OT    -0.834000       15.9994           0
   92057 WT5  8908 TIP3 H1   HT     0.417000        1.0080           0
   92058 WT5  8908 TIP3 H2   HT     0.417000        1.0080           0
   92059 WT5  8916 TIP3 OH2  OT    -0.834000       15.9994           0
   92060 WT5  8916 TIP3 H1   HT     0.417000        1.0080           0
   92061 WT5  8916 TIP3 H2   HT     0.417000        1.0080           0
   92062 WT5  8918 TIP3 OH2  OT    -0.834000       15.9994           0
   92063 WT5  8918 TIP3 H1   HT     0.417000        1.0080           0
   92064 WT5  8918 TIP3 H2   HT     0.417000        1.0080           0
   92065 WT5  8919 TIP3 OH2  OT    -0.834000       15.9994           0
   92066 WT5  8919 TIP3 H1   HT     0.417000        1.0080           0
   92067 WT5  8919 TIP3 H2   HT     0.417000        1.0080           0
   92068 WT5  8922 TIP3 OH2  OT    -0.834000       15.9994           0
   92069 WT5  8922 TIP3 H1   HT     0.417000        1.0080           0
   92070 WT5  8922 TIP3 H2   HT     0.417000        1.0080           0
   92071 WT5  8923 TIP3 OH2  OT    -0.834000       15.9994           0
   92072 WT5  8923 TIP3 H1   HT     0.417000        1.0080           0
   92073 WT5  8923 TIP3 H2   HT     0.417000        1.0080           0
   92074 WT5  8926 TIP3 OH2  OT    -0.834000       15.9994           0
   92075 WT5  8926 TIP3 H1   HT     0.417000        1.0080           0
   92076 WT5  8926 TIP3 H2   HT     0.417000        1.0080           0
   92077 WT5  8927 TIP3 OH2  OT    -0.834000       15.9994           0
   92078 WT5  8927 TIP3 H1   HT     0.417000        1.0080           0
   92079 WT5  8927 TIP3 H2   HT     0.417000        1.0080           0
   92080 WT5  8928 TIP3 OH2  OT    -0.834000       15.9994           0
   92081 WT5  8928 TIP3 H1   HT     0.417000        1.0080           0
   92082 WT5  8928 TIP3 H2   HT     0.417000        1.0080           0
   92083 WT5  8931 TIP3 OH2  OT    -0.834000       15.9994           0
   92084 WT5  8931 TIP3 H1   HT     0.417000        1.0080           0
   92085 WT5  8931 TIP3 H2   HT     0.417000        1.0080           0
   92086 WT5  8932 TIP3 OH2  OT    -0.834000       15.9994           0
   92087 WT5  8932 TIP3 H1   HT     0.417000        1.0080           0
   92088 WT5  8932 TIP3 H2   HT     0.417000        1.0080           0
   92089 WT5  8935 TIP3 OH2  OT    -0.834000       15.9994           0
   92090 WT5  8935 TIP3 H1   HT     0.417000        1.0080           0
   92091 WT5  8935 TIP3 H2   HT     0.417000        1.0080           0
   92092 WT5  8936 TIP3 OH2  OT    -0.834000       15.9994           0
   92093 WT5  8936 TIP3 H1   HT     0.417000        1.0080           0
   92094 WT5  8936 TIP3 H2   HT     0.417000        1.0080           0
   92095 WT5  8937 TIP3 OH2  OT    -0.834000       15.9994           0
   92096 WT5  8937 TIP3 H1   HT     0.417000        1.0080           0
   92097 WT5  8937 TIP3 H2   HT     0.417000        1.0080           0
   92098 WT5  8938 TIP3 OH2  OT    -0.834000       15.9994           0
   92099 WT5  8938 TIP3 H1   HT     0.417000        1.0080           0
   92100 WT5  8938 TIP3 H2   HT     0.417000        1.0080           0
   92101 WT5  8939 TIP3 OH2  OT    -0.834000       15.9994           0
   92102 WT5  8939 TIP3 H1   HT     0.417000        1.0080           0
   92103 WT5  8939 TIP3 H2   HT     0.417000        1.0080           0
   92104 WT5  8940 TIP3 OH2  OT    -0.834000       15.9994           0
   92105 WT5  8940 TIP3 H1   HT     0.417000        1.0080           0
   92106 WT5  8940 TIP3 H2   HT     0.417000        1.0080           0
   92107 WT5  8942 TIP3 OH2  OT    -0.834000       15.9994           0
   92108 WT5  8942 TIP3 H1   HT     0.417000        1.0080           0
   92109 WT5  8942 TIP3 H2   HT     0.417000        1.0080           0
   92110 WT5  8949 TIP3 OH2  OT    -0.834000       15.9994           0
   92111 WT5  8949 TIP3 H1   HT     0.417000        1.0080           0
   92112 WT5  8949 TIP3 H2   HT     0.417000        1.0080           0
   92113 WT5  8952 TIP3 OH2  OT    -0.834000       15.9994           0
   92114 WT5  8952 TIP3 H1   HT     0.417000        1.0080           0
   92115 WT5  8952 TIP3 H2   HT     0.417000        1.0080           0
   92116 WT5  8954 TIP3 OH2  OT    -0.834000       15.9994           0
   92117 WT5  8954 TIP3 H1   HT     0.417000        1.0080           0
   92118 WT5  8954 TIP3 H2   HT     0.417000        1.0080           0
   92119 WT5  8956 TIP3 OH2  OT    -0.834000       15.9994           0
   92120 WT5  8956 TIP3 H1   HT     0.417000        1.0080           0
   92121 WT5  8956 TIP3 H2   HT     0.417000        1.0080           0
   92122 WT5  8959 TIP3 OH2  OT    -0.834000       15.9994           0
   92123 WT5  8959 TIP3 H1   HT     0.417000        1.0080           0
   92124 WT5  8959 TIP3 H2   HT     0.417000        1.0080           0
   92125 WT5  8960 TIP3 OH2  OT    -0.834000       15.9994           0
   92126 WT5  8960 TIP3 H1   HT     0.417000        1.0080           0
   92127 WT5  8960 TIP3 H2   HT     0.417000        1.0080           0
   92128 WT5  8961 TIP3 OH2  OT    -0.834000       15.9994           0
   92129 WT5  8961 TIP3 H1   HT     0.417000        1.0080           0
   92130 WT5  8961 TIP3 H2   HT     0.417000        1.0080           0
   92131 WT5  8962 TIP3 OH2  OT    -0.834000       15.9994           0
   92132 WT5  8962 TIP3 H1   HT     0.417000        1.0080           0
   92133 WT5  8962 TIP3 H2   HT     0.417000        1.0080           0
   92134 WT5  8964 TIP3 OH2  OT    -0.834000       15.9994           0
   92135 WT5  8964 TIP3 H1   HT     0.417000        1.0080           0
   92136 WT5  8964 TIP3 H2   HT     0.417000        1.0080           0
   92137 WT5  8970 TIP3 OH2  OT    -0.834000       15.9994           0
   92138 WT5  8970 TIP3 H1   HT     0.417000        1.0080           0
   92139 WT5  8970 TIP3 H2   HT     0.417000        1.0080           0
   92140 WT5  8972 TIP3 OH2  OT    -0.834000       15.9994           0
   92141 WT5  8972 TIP3 H1   HT     0.417000        1.0080           0
   92142 WT5  8972 TIP3 H2   HT     0.417000        1.0080           0
   92143 WT5  8973 TIP3 OH2  OT    -0.834000       15.9994           0
   92144 WT5  8973 TIP3 H1   HT     0.417000        1.0080           0
   92145 WT5  8973 TIP3 H2   HT     0.417000        1.0080           0
   92146 WT5  8976 TIP3 OH2  OT    -0.834000       15.9994           0
   92147 WT5  8976 TIP3 H1   HT     0.417000        1.0080           0
   92148 WT5  8976 TIP3 H2   HT     0.417000        1.0080           0
   92149 WT5  8977 TIP3 OH2  OT    -0.834000       15.9994           0
   92150 WT5  8977 TIP3 H1   HT     0.417000        1.0080           0
   92151 WT5  8977 TIP3 H2   HT     0.417000        1.0080           0
   92152 WT5  8978 TIP3 OH2  OT    -0.834000       15.9994           0
   92153 WT5  8978 TIP3 H1   HT     0.417000        1.0080           0
   92154 WT5  8978 TIP3 H2   HT     0.417000        1.0080           0
   92155 WT5  8984 TIP3 OH2  OT    -0.834000       15.9994           0
   92156 WT5  8984 TIP3 H1   HT     0.417000        1.0080           0
   92157 WT5  8984 TIP3 H2   HT     0.417000        1.0080           0
   92158 WT5  8994 TIP3 OH2  OT    -0.834000       15.9994           0
   92159 WT5  8994 TIP3 H1   HT     0.417000        1.0080           0
   92160 WT5  8994 TIP3 H2   HT     0.417000        1.0080           0
   92161 WT5  9001 TIP3 OH2  OT    -0.834000       15.9994           0
   92162 WT5  9001 TIP3 H1   HT     0.417000        1.0080           0
   92163 WT5  9001 TIP3 H2   HT     0.417000        1.0080           0
   92164 WT5  9004 TIP3 OH2  OT    -0.834000       15.9994           0
   92165 WT5  9004 TIP3 H1   HT     0.417000        1.0080           0
   92166 WT5  9004 TIP3 H2   HT     0.417000        1.0080           0
   92167 WT5  9005 TIP3 OH2  OT    -0.834000       15.9994           0
   92168 WT5  9005 TIP3 H1   HT     0.417000        1.0080           0
   92169 WT5  9005 TIP3 H2   HT     0.417000        1.0080           0
   92170 WT5  9007 TIP3 OH2  OT    -0.834000       15.9994           0
   92171 WT5  9007 TIP3 H1   HT     0.417000        1.0080           0
   92172 WT5  9007 TIP3 H2   HT     0.417000        1.0080           0
   92173 WT5  9012 TIP3 OH2  OT    -0.834000       15.9994           0
   92174 WT5  9012 TIP3 H1   HT     0.417000        1.0080           0
   92175 WT5  9012 TIP3 H2   HT     0.417000        1.0080           0
   92176 WT5  9013 TIP3 OH2  OT    -0.834000       15.9994           0
   92177 WT5  9013 TIP3 H1   HT     0.417000        1.0080           0
   92178 WT5  9013 TIP3 H2   HT     0.417000        1.0080           0
   92179 WT5  9015 TIP3 OH2  OT    -0.834000       15.9994           0
   92180 WT5  9015 TIP3 H1   HT     0.417000        1.0080           0
   92181 WT5  9015 TIP3 H2   HT     0.417000        1.0080           0
   92182 WT5  9017 TIP3 OH2  OT    -0.834000       15.9994           0
   92183 WT5  9017 TIP3 H1   HT     0.417000        1.0080           0
   92184 WT5  9017 TIP3 H2   HT     0.417000        1.0080           0
   92185 WT5  9022 TIP3 OH2  OT    -0.834000       15.9994           0
   92186 WT5  9022 TIP3 H1   HT     0.417000        1.0080           0
   92187 WT5  9022 TIP3 H2   HT     0.417000        1.0080           0
   92188 WT5  9027 TIP3 OH2  OT    -0.834000       15.9994           0
   92189 WT5  9027 TIP3 H1   HT     0.417000        1.0080           0
   92190 WT5  9027 TIP3 H2   HT     0.417000        1.0080           0
   92191 WT5  9029 TIP3 OH2  OT    -0.834000       15.9994           0
   92192 WT5  9029 TIP3 H1   HT     0.417000        1.0080           0
   92193 WT5  9029 TIP3 H2   HT     0.417000        1.0080           0
   92194 WT5  9032 TIP3 OH2  OT    -0.834000       15.9994           0
   92195 WT5  9032 TIP3 H1   HT     0.417000        1.0080           0
   92196 WT5  9032 TIP3 H2   HT     0.417000        1.0080           0
   92197 WT5  9034 TIP3 OH2  OT    -0.834000       15.9994           0
   92198 WT5  9034 TIP3 H1   HT     0.417000        1.0080           0
   92199 WT5  9034 TIP3 H2   HT     0.417000        1.0080           0
   92200 WT5  9035 TIP3 OH2  OT    -0.834000       15.9994           0
   92201 WT5  9035 TIP3 H1   HT     0.417000        1.0080           0
   92202 WT5  9035 TIP3 H2   HT     0.417000        1.0080           0
   92203 WT5  9037 TIP3 OH2  OT    -0.834000       15.9994           0
   92204 WT5  9037 TIP3 H1   HT     0.417000        1.0080           0
   92205 WT5  9037 TIP3 H2   HT     0.417000        1.0080           0
   92206 WT5  9039 TIP3 OH2  OT    -0.834000       15.9994           0
   92207 WT5  9039 TIP3 H1   HT     0.417000        1.0080           0
   92208 WT5  9039 TIP3 H2   HT     0.417000        1.0080           0
   92209 WT5  9044 TIP3 OH2  OT    -0.834000       15.9994           0
   92210 WT5  9044 TIP3 H1   HT     0.417000        1.0080           0
   92211 WT5  9044 TIP3 H2   HT     0.417000        1.0080           0
   92212 WT5  9047 TIP3 OH2  OT    -0.834000       15.9994           0
   92213 WT5  9047 TIP3 H1   HT     0.417000        1.0080           0
   92214 WT5  9047 TIP3 H2   HT     0.417000        1.0080           0
   92215 WT5  9049 TIP3 OH2  OT    -0.834000       15.9994           0
   92216 WT5  9049 TIP3 H1   HT     0.417000        1.0080           0
   92217 WT5  9049 TIP3 H2   HT     0.417000        1.0080           0
   92218 WT5  9050 TIP3 OH2  OT    -0.834000       15.9994           0
   92219 WT5  9050 TIP3 H1   HT     0.417000        1.0080           0
   92220 WT5  9050 TIP3 H2   HT     0.417000        1.0080           0
   92221 WT5  9054 TIP3 OH2  OT    -0.834000       15.9994           0
   92222 WT5  9054 TIP3 H1   HT     0.417000        1.0080           0
   92223 WT5  9054 TIP3 H2   HT     0.417000        1.0080           0
   92224 WT5  9055 TIP3 OH2  OT    -0.834000       15.9994           0
   92225 WT5  9055 TIP3 H1   HT     0.417000        1.0080           0
   92226 WT5  9055 TIP3 H2   HT     0.417000        1.0080           0
   92227 WT5  9056 TIP3 OH2  OT    -0.834000       15.9994           0
   92228 WT5  9056 TIP3 H1   HT     0.417000        1.0080           0
   92229 WT5  9056 TIP3 H2   HT     0.417000        1.0080           0
   92230 WT5  9057 TIP3 OH2  OT    -0.834000       15.9994           0
   92231 WT5  9057 TIP3 H1   HT     0.417000        1.0080           0
   92232 WT5  9057 TIP3 H2   HT     0.417000        1.0080           0
   92233 WT5  9058 TIP3 OH2  OT    -0.834000       15.9994           0
   92234 WT5  9058 TIP3 H1   HT     0.417000        1.0080           0
   92235 WT5  9058 TIP3 H2   HT     0.417000        1.0080           0
   92236 WT5  9063 TIP3 OH2  OT    -0.834000       15.9994           0
   92237 WT5  9063 TIP3 H1   HT     0.417000        1.0080           0
   92238 WT5  9063 TIP3 H2   HT     0.417000        1.0080           0
   92239 WT5  9064 TIP3 OH2  OT    -0.834000       15.9994           0
   92240 WT5  9064 TIP3 H1   HT     0.417000        1.0080           0
   92241 WT5  9064 TIP3 H2   HT     0.417000        1.0080           0
   92242 WT5  9065 TIP3 OH2  OT    -0.834000       15.9994           0
   92243 WT5  9065 TIP3 H1   HT     0.417000        1.0080           0
   92244 WT5  9065 TIP3 H2   HT     0.417000        1.0080           0
   92245 WT5  9073 TIP3 OH2  OT    -0.834000       15.9994           0
   92246 WT5  9073 TIP3 H1   HT     0.417000        1.0080           0
   92247 WT5  9073 TIP3 H2   HT     0.417000        1.0080           0
   92248 WT5  9077 TIP3 OH2  OT    -0.834000       15.9994           0
   92249 WT5  9077 TIP3 H1   HT     0.417000        1.0080           0
   92250 WT5  9077 TIP3 H2   HT     0.417000        1.0080           0
   92251 WT5  9079 TIP3 OH2  OT    -0.834000       15.9994           0
   92252 WT5  9079 TIP3 H1   HT     0.417000        1.0080           0
   92253 WT5  9079 TIP3 H2   HT     0.417000        1.0080           0
   92254 WT5  9080 TIP3 OH2  OT    -0.834000       15.9994           0
   92255 WT5  9080 TIP3 H1   HT     0.417000        1.0080           0
   92256 WT5  9080 TIP3 H2   HT     0.417000        1.0080           0
   92257 WT5  9082 TIP3 OH2  OT    -0.834000       15.9994           0
   92258 WT5  9082 TIP3 H1   HT     0.417000        1.0080           0
   92259 WT5  9082 TIP3 H2   HT     0.417000        1.0080           0
   92260 WT5  9084 TIP3 OH2  OT    -0.834000       15.9994           0
   92261 WT5  9084 TIP3 H1   HT     0.417000        1.0080           0
   92262 WT5  9084 TIP3 H2   HT     0.417000        1.0080           0
   92263 WT5  9085 TIP3 OH2  OT    -0.834000       15.9994           0
   92264 WT5  9085 TIP3 H1   HT     0.417000        1.0080           0
   92265 WT5  9085 TIP3 H2   HT     0.417000        1.0080           0
   92266 WT5  9093 TIP3 OH2  OT    -0.834000       15.9994           0
   92267 WT5  9093 TIP3 H1   HT     0.417000        1.0080           0
   92268 WT5  9093 TIP3 H2   HT     0.417000        1.0080           0
   92269 WT5  9096 TIP3 OH2  OT    -0.834000       15.9994           0
   92270 WT5  9096 TIP3 H1   HT     0.417000        1.0080           0
   92271 WT5  9096 TIP3 H2   HT     0.417000        1.0080           0
   92272 WT5  9097 TIP3 OH2  OT    -0.834000       15.9994           0
   92273 WT5  9097 TIP3 H1   HT     0.417000        1.0080           0
   92274 WT5  9097 TIP3 H2   HT     0.417000        1.0080           0
   92275 WT5  9102 TIP3 OH2  OT    -0.834000       15.9994           0
   92276 WT5  9102 TIP3 H1   HT     0.417000        1.0080           0
   92277 WT5  9102 TIP3 H2   HT     0.417000        1.0080           0
   92278 WT5  9105 TIP3 OH2  OT    -0.834000       15.9994           0
   92279 WT5  9105 TIP3 H1   HT     0.417000        1.0080           0
   92280 WT5  9105 TIP3 H2   HT     0.417000        1.0080           0
   92281 WT5  9106 TIP3 OH2  OT    -0.834000       15.9994           0
   92282 WT5  9106 TIP3 H1   HT     0.417000        1.0080           0
   92283 WT5  9106 TIP3 H2   HT     0.417000        1.0080           0
   92284 WT5  9108 TIP3 OH2  OT    -0.834000       15.9994           0
   92285 WT5  9108 TIP3 H1   HT     0.417000        1.0080           0
   92286 WT5  9108 TIP3 H2   HT     0.417000        1.0080           0
   92287 WT5  9109 TIP3 OH2  OT    -0.834000       15.9994           0
   92288 WT5  9109 TIP3 H1   HT     0.417000        1.0080           0
   92289 WT5  9109 TIP3 H2   HT     0.417000        1.0080           0
   92290 WT5  9115 TIP3 OH2  OT    -0.834000       15.9994           0
   92291 WT5  9115 TIP3 H1   HT     0.417000        1.0080           0
   92292 WT5  9115 TIP3 H2   HT     0.417000        1.0080           0
   92293 WT5  9116 TIP3 OH2  OT    -0.834000       15.9994           0
   92294 WT5  9116 TIP3 H1   HT     0.417000        1.0080           0
   92295 WT5  9116 TIP3 H2   HT     0.417000        1.0080           0
   92296 WT5  9118 TIP3 OH2  OT    -0.834000       15.9994           0
   92297 WT5  9118 TIP3 H1   HT     0.417000        1.0080           0
   92298 WT5  9118 TIP3 H2   HT     0.417000        1.0080           0
   92299 WT5  9119 TIP3 OH2  OT    -0.834000       15.9994           0
   92300 WT5  9119 TIP3 H1   HT     0.417000        1.0080           0
   92301 WT5  9119 TIP3 H2   HT     0.417000        1.0080           0
   92302 WT5  9124 TIP3 OH2  OT    -0.834000       15.9994           0
   92303 WT5  9124 TIP3 H1   HT     0.417000        1.0080           0
   92304 WT5  9124 TIP3 H2   HT     0.417000        1.0080           0
   92305 WT5  9125 TIP3 OH2  OT    -0.834000       15.9994           0
   92306 WT5  9125 TIP3 H1   HT     0.417000        1.0080           0
   92307 WT5  9125 TIP3 H2   HT     0.417000        1.0080           0
   92308 WT5  9126 TIP3 OH2  OT    -0.834000       15.9994           0
   92309 WT5  9126 TIP3 H1   HT     0.417000        1.0080           0
   92310 WT5  9126 TIP3 H2   HT     0.417000        1.0080           0
   92311 WT5  9127 TIP3 OH2  OT    -0.834000       15.9994           0
   92312 WT5  9127 TIP3 H1   HT     0.417000        1.0080           0
   92313 WT5  9127 TIP3 H2   HT     0.417000        1.0080           0
   92314 WT5  9128 TIP3 OH2  OT    -0.834000       15.9994           0
   92315 WT5  9128 TIP3 H1   HT     0.417000        1.0080           0
   92316 WT5  9128 TIP3 H2   HT     0.417000        1.0080           0
   92317 WT5  9129 TIP3 OH2  OT    -0.834000       15.9994           0
   92318 WT5  9129 TIP3 H1   HT     0.417000        1.0080           0
   92319 WT5  9129 TIP3 H2   HT     0.417000        1.0080           0
   92320 WT5  9132 TIP3 OH2  OT    -0.834000       15.9994           0
   92321 WT5  9132 TIP3 H1   HT     0.417000        1.0080           0
   92322 WT5  9132 TIP3 H2   HT     0.417000        1.0080           0
   92323 WT5  9134 TIP3 OH2  OT    -0.834000       15.9994           0
   92324 WT5  9134 TIP3 H1   HT     0.417000        1.0080           0
   92325 WT5  9134 TIP3 H2   HT     0.417000        1.0080           0
   92326 WT5  9135 TIP3 OH2  OT    -0.834000       15.9994           0
   92327 WT5  9135 TIP3 H1   HT     0.417000        1.0080           0
   92328 WT5  9135 TIP3 H2   HT     0.417000        1.0080           0
   92329 WT5  9136 TIP3 OH2  OT    -0.834000       15.9994           0
   92330 WT5  9136 TIP3 H1   HT     0.417000        1.0080           0
   92331 WT5  9136 TIP3 H2   HT     0.417000        1.0080           0
   92332 WT5  9142 TIP3 OH2  OT    -0.834000       15.9994           0
   92333 WT5  9142 TIP3 H1   HT     0.417000        1.0080           0
   92334 WT5  9142 TIP3 H2   HT     0.417000        1.0080           0
   92335 WT5  9143 TIP3 OH2  OT    -0.834000       15.9994           0
   92336 WT5  9143 TIP3 H1   HT     0.417000        1.0080           0
   92337 WT5  9143 TIP3 H2   HT     0.417000        1.0080           0
   92338 WT5  9144 TIP3 OH2  OT    -0.834000       15.9994           0
   92339 WT5  9144 TIP3 H1   HT     0.417000        1.0080           0
   92340 WT5  9144 TIP3 H2   HT     0.417000        1.0080           0
   92341 WT5  9145 TIP3 OH2  OT    -0.834000       15.9994           0
   92342 WT5  9145 TIP3 H1   HT     0.417000        1.0080           0
   92343 WT5  9145 TIP3 H2   HT     0.417000        1.0080           0
   92344 WT5  9157 TIP3 OH2  OT    -0.834000       15.9994           0
   92345 WT5  9157 TIP3 H1   HT     0.417000        1.0080           0
   92346 WT5  9157 TIP3 H2   HT     0.417000        1.0080           0
   92347 WT5  9158 TIP3 OH2  OT    -0.834000       15.9994           0
   92348 WT5  9158 TIP3 H1   HT     0.417000        1.0080           0
   92349 WT5  9158 TIP3 H2   HT     0.417000        1.0080           0
   92350 WT5  9161 TIP3 OH2  OT    -0.834000       15.9994           0
   92351 WT5  9161 TIP3 H1   HT     0.417000        1.0080           0
   92352 WT5  9161 TIP3 H2   HT     0.417000        1.0080           0
   92353 WT5  9162 TIP3 OH2  OT    -0.834000       15.9994           0
   92354 WT5  9162 TIP3 H1   HT     0.417000        1.0080           0
   92355 WT5  9162 TIP3 H2   HT     0.417000        1.0080           0
   92356 WT5  9165 TIP3 OH2  OT    -0.834000       15.9994           0
   92357 WT5  9165 TIP3 H1   HT     0.417000        1.0080           0
   92358 WT5  9165 TIP3 H2   HT     0.417000        1.0080           0
   92359 WT5  9170 TIP3 OH2  OT    -0.834000       15.9994           0
   92360 WT5  9170 TIP3 H1   HT     0.417000        1.0080           0
   92361 WT5  9170 TIP3 H2   HT     0.417000        1.0080           0
   92362 WT5  9171 TIP3 OH2  OT    -0.834000       15.9994           0
   92363 WT5  9171 TIP3 H1   HT     0.417000        1.0080           0
   92364 WT5  9171 TIP3 H2   HT     0.417000        1.0080           0
   92365 WT5  9172 TIP3 OH2  OT    -0.834000       15.9994           0
   92366 WT5  9172 TIP3 H1   HT     0.417000        1.0080           0
   92367 WT5  9172 TIP3 H2   HT     0.417000        1.0080           0
   92368 WT5  9174 TIP3 OH2  OT    -0.834000       15.9994           0
   92369 WT5  9174 TIP3 H1   HT     0.417000        1.0080           0
   92370 WT5  9174 TIP3 H2   HT     0.417000        1.0080           0
   92371 WT5  9176 TIP3 OH2  OT    -0.834000       15.9994           0
   92372 WT5  9176 TIP3 H1   HT     0.417000        1.0080           0
   92373 WT5  9176 TIP3 H2   HT     0.417000        1.0080           0
   92374 WT5  9178 TIP3 OH2  OT    -0.834000       15.9994           0
   92375 WT5  9178 TIP3 H1   HT     0.417000        1.0080           0
   92376 WT5  9178 TIP3 H2   HT     0.417000        1.0080           0
   92377 WT5  9179 TIP3 OH2  OT    -0.834000       15.9994           0
   92378 WT5  9179 TIP3 H1   HT     0.417000        1.0080           0
   92379 WT5  9179 TIP3 H2   HT     0.417000        1.0080           0
   92380 WT5  9180 TIP3 OH2  OT    -0.834000       15.9994           0
   92381 WT5  9180 TIP3 H1   HT     0.417000        1.0080           0
   92382 WT5  9180 TIP3 H2   HT     0.417000        1.0080           0
   92383 WT5  9181 TIP3 OH2  OT    -0.834000       15.9994           0
   92384 WT5  9181 TIP3 H1   HT     0.417000        1.0080           0
   92385 WT5  9181 TIP3 H2   HT     0.417000        1.0080           0
   92386 WT5  9182 TIP3 OH2  OT    -0.834000       15.9994           0
   92387 WT5  9182 TIP3 H1   HT     0.417000        1.0080           0
   92388 WT5  9182 TIP3 H2   HT     0.417000        1.0080           0
   92389 WT5  9183 TIP3 OH2  OT    -0.834000       15.9994           0
   92390 WT5  9183 TIP3 H1   HT     0.417000        1.0080           0
   92391 WT5  9183 TIP3 H2   HT     0.417000        1.0080           0
   92392 WT5  9184 TIP3 OH2  OT    -0.834000       15.9994           0
   92393 WT5  9184 TIP3 H1   HT     0.417000        1.0080           0
   92394 WT5  9184 TIP3 H2   HT     0.417000        1.0080           0
   92395 WT5  9185 TIP3 OH2  OT    -0.834000       15.9994           0
   92396 WT5  9185 TIP3 H1   HT     0.417000        1.0080           0
   92397 WT5  9185 TIP3 H2   HT     0.417000        1.0080           0
   92398 WT5  9186 TIP3 OH2  OT    -0.834000       15.9994           0
   92399 WT5  9186 TIP3 H1   HT     0.417000        1.0080           0
   92400 WT5  9186 TIP3 H2   HT     0.417000        1.0080           0
   92401 WT5  9187 TIP3 OH2  OT    -0.834000       15.9994           0
   92402 WT5  9187 TIP3 H1   HT     0.417000        1.0080           0
   92403 WT5  9187 TIP3 H2   HT     0.417000        1.0080           0
   92404 WT5  9188 TIP3 OH2  OT    -0.834000       15.9994           0
   92405 WT5  9188 TIP3 H1   HT     0.417000        1.0080           0
   92406 WT5  9188 TIP3 H2   HT     0.417000        1.0080           0
   92407 WT5  9189 TIP3 OH2  OT    -0.834000       15.9994           0
   92408 WT5  9189 TIP3 H1   HT     0.417000        1.0080           0
   92409 WT5  9189 TIP3 H2   HT     0.417000        1.0080           0
   92410 WT5  9192 TIP3 OH2  OT    -0.834000       15.9994           0
   92411 WT5  9192 TIP3 H1   HT     0.417000        1.0080           0
   92412 WT5  9192 TIP3 H2   HT     0.417000        1.0080           0
   92413 WT5  9196 TIP3 OH2  OT    -0.834000       15.9994           0
   92414 WT5  9196 TIP3 H1   HT     0.417000        1.0080           0
   92415 WT5  9196 TIP3 H2   HT     0.417000        1.0080           0
   92416 WT5  9197 TIP3 OH2  OT    -0.834000       15.9994           0
   92417 WT5  9197 TIP3 H1   HT     0.417000        1.0080           0
   92418 WT5  9197 TIP3 H2   HT     0.417000        1.0080           0
   92419 WT5  9198 TIP3 OH2  OT    -0.834000       15.9994           0
   92420 WT5  9198 TIP3 H1   HT     0.417000        1.0080           0
   92421 WT5  9198 TIP3 H2   HT     0.417000        1.0080           0
   92422 WT5  9199 TIP3 OH2  OT    -0.834000       15.9994           0
   92423 WT5  9199 TIP3 H1   HT     0.417000        1.0080           0
   92424 WT5  9199 TIP3 H2   HT     0.417000        1.0080           0
   92425 WT5  9206 TIP3 OH2  OT    -0.834000       15.9994           0
   92426 WT5  9206 TIP3 H1   HT     0.417000        1.0080           0
   92427 WT5  9206 TIP3 H2   HT     0.417000        1.0080           0
   92428 WT5  9211 TIP3 OH2  OT    -0.834000       15.9994           0
   92429 WT5  9211 TIP3 H1   HT     0.417000        1.0080           0
   92430 WT5  9211 TIP3 H2   HT     0.417000        1.0080           0
   92431 WT5  9212 TIP3 OH2  OT    -0.834000       15.9994           0
   92432 WT5  9212 TIP3 H1   HT     0.417000        1.0080           0
   92433 WT5  9212 TIP3 H2   HT     0.417000        1.0080           0
   92434 WT5  9213 TIP3 OH2  OT    -0.834000       15.9994           0
   92435 WT5  9213 TIP3 H1   HT     0.417000        1.0080           0
   92436 WT5  9213 TIP3 H2   HT     0.417000        1.0080           0
   92437 WT5  9218 TIP3 OH2  OT    -0.834000       15.9994           0
   92438 WT5  9218 TIP3 H1   HT     0.417000        1.0080           0
   92439 WT5  9218 TIP3 H2   HT     0.417000        1.0080           0
   92440 WT5  9222 TIP3 OH2  OT    -0.834000       15.9994           0
   92441 WT5  9222 TIP3 H1   HT     0.417000        1.0080           0
   92442 WT5  9222 TIP3 H2   HT     0.417000        1.0080           0
   92443 WT5  9223 TIP3 OH2  OT    -0.834000       15.9994           0
   92444 WT5  9223 TIP3 H1   HT     0.417000        1.0080           0
   92445 WT5  9223 TIP3 H2   HT     0.417000        1.0080           0
   92446 WT5  9225 TIP3 OH2  OT    -0.834000       15.9994           0
   92447 WT5  9225 TIP3 H1   HT     0.417000        1.0080           0
   92448 WT5  9225 TIP3 H2   HT     0.417000        1.0080           0
   92449 WT5  9226 TIP3 OH2  OT    -0.834000       15.9994           0
   92450 WT5  9226 TIP3 H1   HT     0.417000        1.0080           0
   92451 WT5  9226 TIP3 H2   HT     0.417000        1.0080           0
   92452 WT5  9227 TIP3 OH2  OT    -0.834000       15.9994           0
   92453 WT5  9227 TIP3 H1   HT     0.417000        1.0080           0
   92454 WT5  9227 TIP3 H2   HT     0.417000        1.0080           0
   92455 WT5  9228 TIP3 OH2  OT    -0.834000       15.9994           0
   92456 WT5  9228 TIP3 H1   HT     0.417000        1.0080           0
   92457 WT5  9228 TIP3 H2   HT     0.417000        1.0080           0
   92458 WT5  9229 TIP3 OH2  OT    -0.834000       15.9994           0
   92459 WT5  9229 TIP3 H1   HT     0.417000        1.0080           0
   92460 WT5  9229 TIP3 H2   HT     0.417000        1.0080           0
   92461 WT5  9232 TIP3 OH2  OT    -0.834000       15.9994           0
   92462 WT5  9232 TIP3 H1   HT     0.417000        1.0080           0
   92463 WT5  9232 TIP3 H2   HT     0.417000        1.0080           0
   92464 WT5  9234 TIP3 OH2  OT    -0.834000       15.9994           0
   92465 WT5  9234 TIP3 H1   HT     0.417000        1.0080           0
   92466 WT5  9234 TIP3 H2   HT     0.417000        1.0080           0
   92467 WT5  9235 TIP3 OH2  OT    -0.834000       15.9994           0
   92468 WT5  9235 TIP3 H1   HT     0.417000        1.0080           0
   92469 WT5  9235 TIP3 H2   HT     0.417000        1.0080           0
   92470 WT5  9238 TIP3 OH2  OT    -0.834000       15.9994           0
   92471 WT5  9238 TIP3 H1   HT     0.417000        1.0080           0
   92472 WT5  9238 TIP3 H2   HT     0.417000        1.0080           0
   92473 WT5  9241 TIP3 OH2  OT    -0.834000       15.9994           0
   92474 WT5  9241 TIP3 H1   HT     0.417000        1.0080           0
   92475 WT5  9241 TIP3 H2   HT     0.417000        1.0080           0
   92476 WT5  9244 TIP3 OH2  OT    -0.834000       15.9994           0
   92477 WT5  9244 TIP3 H1   HT     0.417000        1.0080           0
   92478 WT5  9244 TIP3 H2   HT     0.417000        1.0080           0
   92479 WT5  9250 TIP3 OH2  OT    -0.834000       15.9994           0
   92480 WT5  9250 TIP3 H1   HT     0.417000        1.0080           0
   92481 WT5  9250 TIP3 H2   HT     0.417000        1.0080           0
   92482 WT5  9251 TIP3 OH2  OT    -0.834000       15.9994           0
   92483 WT5  9251 TIP3 H1   HT     0.417000        1.0080           0
   92484 WT5  9251 TIP3 H2   HT     0.417000        1.0080           0
   92485 WT5  9254 TIP3 OH2  OT    -0.834000       15.9994           0
   92486 WT5  9254 TIP3 H1   HT     0.417000        1.0080           0
   92487 WT5  9254 TIP3 H2   HT     0.417000        1.0080           0
   92488 WT5  9256 TIP3 OH2  OT    -0.834000       15.9994           0
   92489 WT5  9256 TIP3 H1   HT     0.417000        1.0080           0
   92490 WT5  9256 TIP3 H2   HT     0.417000        1.0080           0
   92491 WT5  9259 TIP3 OH2  OT    -0.834000       15.9994           0
   92492 WT5  9259 TIP3 H1   HT     0.417000        1.0080           0
   92493 WT5  9259 TIP3 H2   HT     0.417000        1.0080           0
   92494 WT6  2    TIP3 OH2  OT    -0.834000       15.9994           0
   92495 WT6  2    TIP3 H1   HT     0.417000        1.0080           0
   92496 WT6  2    TIP3 H2   HT     0.417000        1.0080           0
   92497 WT6  3    TIP3 OH2  OT    -0.834000       15.9994           0
   92498 WT6  3    TIP3 H1   HT     0.417000        1.0080           0
   92499 WT6  3    TIP3 H2   HT     0.417000        1.0080           0
   92500 WT6  5    TIP3 OH2  OT    -0.834000       15.9994           0
   92501 WT6  5    TIP3 H1   HT     0.417000        1.0080           0
   92502 WT6  5    TIP3 H2   HT     0.417000        1.0080           0
   92503 WT6  7    TIP3 OH2  OT    -0.834000       15.9994           0
   92504 WT6  7    TIP3 H1   HT     0.417000        1.0080           0
   92505 WT6  7    TIP3 H2   HT     0.417000        1.0080           0
   92506 WT6  8    TIP3 OH2  OT    -0.834000       15.9994           0
   92507 WT6  8    TIP3 H1   HT     0.417000        1.0080           0
   92508 WT6  8    TIP3 H2   HT     0.417000        1.0080           0
   92509 WT6  15   TIP3 OH2  OT    -0.834000       15.9994           0
   92510 WT6  15   TIP3 H1   HT     0.417000        1.0080           0
   92511 WT6  15   TIP3 H2   HT     0.417000        1.0080           0
   92512 WT6  21   TIP3 OH2  OT    -0.834000       15.9994           0
   92513 WT6  21   TIP3 H1   HT     0.417000        1.0080           0
   92514 WT6  21   TIP3 H2   HT     0.417000        1.0080           0
   92515 WT6  26   TIP3 OH2  OT    -0.834000       15.9994           0
   92516 WT6  26   TIP3 H1   HT     0.417000        1.0080           0
   92517 WT6  26   TIP3 H2   HT     0.417000        1.0080           0
   92518 WT6  29   TIP3 OH2  OT    -0.834000       15.9994           0
   92519 WT6  29   TIP3 H1   HT     0.417000        1.0080           0
   92520 WT6  29   TIP3 H2   HT     0.417000        1.0080           0
   92521 WT6  30   TIP3 OH2  OT    -0.834000       15.9994           0
   92522 WT6  30   TIP3 H1   HT     0.417000        1.0080           0
   92523 WT6  30   TIP3 H2   HT     0.417000        1.0080           0
   92524 WT6  36   TIP3 OH2  OT    -0.834000       15.9994           0
   92525 WT6  36   TIP3 H1   HT     0.417000        1.0080           0
   92526 WT6  36   TIP3 H2   HT     0.417000        1.0080           0
   92527 WT6  40   TIP3 OH2  OT    -0.834000       15.9994           0
   92528 WT6  40   TIP3 H1   HT     0.417000        1.0080           0
   92529 WT6  40   TIP3 H2   HT     0.417000        1.0080           0
   92530 WT6  44   TIP3 OH2  OT    -0.834000       15.9994           0
   92531 WT6  44   TIP3 H1   HT     0.417000        1.0080           0
   92532 WT6  44   TIP3 H2   HT     0.417000        1.0080           0
   92533 WT6  46   TIP3 OH2  OT    -0.834000       15.9994           0
   92534 WT6  46   TIP3 H1   HT     0.417000        1.0080           0
   92535 WT6  46   TIP3 H2   HT     0.417000        1.0080           0
   92536 WT6  47   TIP3 OH2  OT    -0.834000       15.9994           0
   92537 WT6  47   TIP3 H1   HT     0.417000        1.0080           0
   92538 WT6  47   TIP3 H2   HT     0.417000        1.0080           0
   92539 WT6  48   TIP3 OH2  OT    -0.834000       15.9994           0
   92540 WT6  48   TIP3 H1   HT     0.417000        1.0080           0
   92541 WT6  48   TIP3 H2   HT     0.417000        1.0080           0
   92542 WT6  49   TIP3 OH2  OT    -0.834000       15.9994           0
   92543 WT6  49   TIP3 H1   HT     0.417000        1.0080           0
   92544 WT6  49   TIP3 H2   HT     0.417000        1.0080           0
   92545 WT6  52   TIP3 OH2  OT    -0.834000       15.9994           0
   92546 WT6  52   TIP3 H1   HT     0.417000        1.0080           0
   92547 WT6  52   TIP3 H2   HT     0.417000        1.0080           0
   92548 WT6  53   TIP3 OH2  OT    -0.834000       15.9994           0
   92549 WT6  53   TIP3 H1   HT     0.417000        1.0080           0
   92550 WT6  53   TIP3 H2   HT     0.417000        1.0080           0
   92551 WT6  55   TIP3 OH2  OT    -0.834000       15.9994           0
   92552 WT6  55   TIP3 H1   HT     0.417000        1.0080           0
   92553 WT6  55   TIP3 H2   HT     0.417000        1.0080           0
   92554 WT6  56   TIP3 OH2  OT    -0.834000       15.9994           0
   92555 WT6  56   TIP3 H1   HT     0.417000        1.0080           0
   92556 WT6  56   TIP3 H2   HT     0.417000        1.0080           0
   92557 WT6  64   TIP3 OH2  OT    -0.834000       15.9994           0
   92558 WT6  64   TIP3 H1   HT     0.417000        1.0080           0
   92559 WT6  64   TIP3 H2   HT     0.417000        1.0080           0
   92560 WT6  65   TIP3 OH2  OT    -0.834000       15.9994           0
   92561 WT6  65   TIP3 H1   HT     0.417000        1.0080           0
   92562 WT6  65   TIP3 H2   HT     0.417000        1.0080           0
   92563 WT6  67   TIP3 OH2  OT    -0.834000       15.9994           0
   92564 WT6  67   TIP3 H1   HT     0.417000        1.0080           0
   92565 WT6  67   TIP3 H2   HT     0.417000        1.0080           0
   92566 WT6  68   TIP3 OH2  OT    -0.834000       15.9994           0
   92567 WT6  68   TIP3 H1   HT     0.417000        1.0080           0
   92568 WT6  68   TIP3 H2   HT     0.417000        1.0080           0
   92569 WT6  71   TIP3 OH2  OT    -0.834000       15.9994           0
   92570 WT6  71   TIP3 H1   HT     0.417000        1.0080           0
   92571 WT6  71   TIP3 H2   HT     0.417000        1.0080           0
   92572 WT6  75   TIP3 OH2  OT    -0.834000       15.9994           0
   92573 WT6  75   TIP3 H1   HT     0.417000        1.0080           0
   92574 WT6  75   TIP3 H2   HT     0.417000        1.0080           0
   92575 WT6  76   TIP3 OH2  OT    -0.834000       15.9994           0
   92576 WT6  76   TIP3 H1   HT     0.417000        1.0080           0
   92577 WT6  76   TIP3 H2   HT     0.417000        1.0080           0
   92578 WT6  77   TIP3 OH2  OT    -0.834000       15.9994           0
   92579 WT6  77   TIP3 H1   HT     0.417000        1.0080           0
   92580 WT6  77   TIP3 H2   HT     0.417000        1.0080           0
   92581 WT6  85   TIP3 OH2  OT    -0.834000       15.9994           0
   92582 WT6  85   TIP3 H1   HT     0.417000        1.0080           0
   92583 WT6  85   TIP3 H2   HT     0.417000        1.0080           0
   92584 WT6  86   TIP3 OH2  OT    -0.834000       15.9994           0
   92585 WT6  86   TIP3 H1   HT     0.417000        1.0080           0
   92586 WT6  86   TIP3 H2   HT     0.417000        1.0080           0
   92587 WT6  87   TIP3 OH2  OT    -0.834000       15.9994           0
   92588 WT6  87   TIP3 H1   HT     0.417000        1.0080           0
   92589 WT6  87   TIP3 H2   HT     0.417000        1.0080           0
   92590 WT6  88   TIP3 OH2  OT    -0.834000       15.9994           0
   92591 WT6  88   TIP3 H1   HT     0.417000        1.0080           0
   92592 WT6  88   TIP3 H2   HT     0.417000        1.0080           0
   92593 WT6  89   TIP3 OH2  OT    -0.834000       15.9994           0
   92594 WT6  89   TIP3 H1   HT     0.417000        1.0080           0
   92595 WT6  89   TIP3 H2   HT     0.417000        1.0080           0
   92596 WT6  90   TIP3 OH2  OT    -0.834000       15.9994           0
   92597 WT6  90   TIP3 H1   HT     0.417000        1.0080           0
   92598 WT6  90   TIP3 H2   HT     0.417000        1.0080           0
   92599 WT6  94   TIP3 OH2  OT    -0.834000       15.9994           0
   92600 WT6  94   TIP3 H1   HT     0.417000        1.0080           0
   92601 WT6  94   TIP3 H2   HT     0.417000        1.0080           0
   92602 WT6  95   TIP3 OH2  OT    -0.834000       15.9994           0
   92603 WT6  95   TIP3 H1   HT     0.417000        1.0080           0
   92604 WT6  95   TIP3 H2   HT     0.417000        1.0080           0
   92605 WT6  96   TIP3 OH2  OT    -0.834000       15.9994           0
   92606 WT6  96   TIP3 H1   HT     0.417000        1.0080           0
   92607 WT6  96   TIP3 H2   HT     0.417000        1.0080           0
   92608 WT6  97   TIP3 OH2  OT    -0.834000       15.9994           0
   92609 WT6  97   TIP3 H1   HT     0.417000        1.0080           0
   92610 WT6  97   TIP3 H2   HT     0.417000        1.0080           0
   92611 WT6  98   TIP3 OH2  OT    -0.834000       15.9994           0
   92612 WT6  98   TIP3 H1   HT     0.417000        1.0080           0
   92613 WT6  98   TIP3 H2   HT     0.417000        1.0080           0
   92614 WT6  99   TIP3 OH2  OT    -0.834000       15.9994           0
   92615 WT6  99   TIP3 H1   HT     0.417000        1.0080           0
   92616 WT6  99   TIP3 H2   HT     0.417000        1.0080           0
   92617 WT6  108  TIP3 OH2  OT    -0.834000       15.9994           0
   92618 WT6  108  TIP3 H1   HT     0.417000        1.0080           0
   92619 WT6  108  TIP3 H2   HT     0.417000        1.0080           0
   92620 WT6  111  TIP3 OH2  OT    -0.834000       15.9994           0
   92621 WT6  111  TIP3 H1   HT     0.417000        1.0080           0
   92622 WT6  111  TIP3 H2   HT     0.417000        1.0080           0
   92623 WT6  112  TIP3 OH2  OT    -0.834000       15.9994           0
   92624 WT6  112  TIP3 H1   HT     0.417000        1.0080           0
   92625 WT6  112  TIP3 H2   HT     0.417000        1.0080           0
   92626 WT6  113  TIP3 OH2  OT    -0.834000       15.9994           0
   92627 WT6  113  TIP3 H1   HT     0.417000        1.0080           0
   92628 WT6  113  TIP3 H2   HT     0.417000        1.0080           0
   92629 WT6  115  TIP3 OH2  OT    -0.834000       15.9994           0
   92630 WT6  115  TIP3 H1   HT     0.417000        1.0080           0
   92631 WT6  115  TIP3 H2   HT     0.417000        1.0080           0
   92632 WT6  116  TIP3 OH2  OT    -0.834000       15.9994           0
   92633 WT6  116  TIP3 H1   HT     0.417000        1.0080           0
   92634 WT6  116  TIP3 H2   HT     0.417000        1.0080           0
   92635 WT6  123  TIP3 OH2  OT    -0.834000       15.9994           0
   92636 WT6  123  TIP3 H1   HT     0.417000        1.0080           0
   92637 WT6  123  TIP3 H2   HT     0.417000        1.0080           0
   92638 WT6  125  TIP3 OH2  OT    -0.834000       15.9994           0
   92639 WT6  125  TIP3 H1   HT     0.417000        1.0080           0
   92640 WT6  125  TIP3 H2   HT     0.417000        1.0080           0
   92641 WT6  129  TIP3 OH2  OT    -0.834000       15.9994           0
   92642 WT6  129  TIP3 H1   HT     0.417000        1.0080           0
   92643 WT6  129  TIP3 H2   HT     0.417000        1.0080           0
   92644 WT6  130  TIP3 OH2  OT    -0.834000       15.9994           0
   92645 WT6  130  TIP3 H1   HT     0.417000        1.0080           0
   92646 WT6  130  TIP3 H2   HT     0.417000        1.0080           0
   92647 WT6  131  TIP3 OH2  OT    -0.834000       15.9994           0
   92648 WT6  131  TIP3 H1   HT     0.417000        1.0080           0
   92649 WT6  131  TIP3 H2   HT     0.417000        1.0080           0
   92650 WT6  133  TIP3 OH2  OT    -0.834000       15.9994           0
   92651 WT6  133  TIP3 H1   HT     0.417000        1.0080           0
   92652 WT6  133  TIP3 H2   HT     0.417000        1.0080           0
   92653 WT6  134  TIP3 OH2  OT    -0.834000       15.9994           0
   92654 WT6  134  TIP3 H1   HT     0.417000        1.0080           0
   92655 WT6  134  TIP3 H2   HT     0.417000        1.0080           0
   92656 WT6  135  TIP3 OH2  OT    -0.834000       15.9994           0
   92657 WT6  135  TIP3 H1   HT     0.417000        1.0080           0
   92658 WT6  135  TIP3 H2   HT     0.417000        1.0080           0
   92659 WT6  137  TIP3 OH2  OT    -0.834000       15.9994           0
   92660 WT6  137  TIP3 H1   HT     0.417000        1.0080           0
   92661 WT6  137  TIP3 H2   HT     0.417000        1.0080           0
   92662 WT6  145  TIP3 OH2  OT    -0.834000       15.9994           0
   92663 WT6  145  TIP3 H1   HT     0.417000        1.0080           0
   92664 WT6  145  TIP3 H2   HT     0.417000        1.0080           0
   92665 WT6  146  TIP3 OH2  OT    -0.834000       15.9994           0
   92666 WT6  146  TIP3 H1   HT     0.417000        1.0080           0
   92667 WT6  146  TIP3 H2   HT     0.417000        1.0080           0
   92668 WT6  149  TIP3 OH2  OT    -0.834000       15.9994           0
   92669 WT6  149  TIP3 H1   HT     0.417000        1.0080           0
   92670 WT6  149  TIP3 H2   HT     0.417000        1.0080           0
   92671 WT6  150  TIP3 OH2  OT    -0.834000       15.9994           0
   92672 WT6  150  TIP3 H1   HT     0.417000        1.0080           0
   92673 WT6  150  TIP3 H2   HT     0.417000        1.0080           0
   92674 WT6  152  TIP3 OH2  OT    -0.834000       15.9994           0
   92675 WT6  152  TIP3 H1   HT     0.417000        1.0080           0
   92676 WT6  152  TIP3 H2   HT     0.417000        1.0080           0
   92677 WT6  153  TIP3 OH2  OT    -0.834000       15.9994           0
   92678 WT6  153  TIP3 H1   HT     0.417000        1.0080           0
   92679 WT6  153  TIP3 H2   HT     0.417000        1.0080           0
   92680 WT6  155  TIP3 OH2  OT    -0.834000       15.9994           0
   92681 WT6  155  TIP3 H1   HT     0.417000        1.0080           0
   92682 WT6  155  TIP3 H2   HT     0.417000        1.0080           0
   92683 WT6  156  TIP3 OH2  OT    -0.834000       15.9994           0
   92684 WT6  156  TIP3 H1   HT     0.417000        1.0080           0
   92685 WT6  156  TIP3 H2   HT     0.417000        1.0080           0
   92686 WT6  163  TIP3 OH2  OT    -0.834000       15.9994           0
   92687 WT6  163  TIP3 H1   HT     0.417000        1.0080           0
   92688 WT6  163  TIP3 H2   HT     0.417000        1.0080           0
   92689 WT6  167  TIP3 OH2  OT    -0.834000       15.9994           0
   92690 WT6  167  TIP3 H1   HT     0.417000        1.0080           0
   92691 WT6  167  TIP3 H2   HT     0.417000        1.0080           0
   92692 WT6  174  TIP3 OH2  OT    -0.834000       15.9994           0
   92693 WT6  174  TIP3 H1   HT     0.417000        1.0080           0
   92694 WT6  174  TIP3 H2   HT     0.417000        1.0080           0
   92695 WT6  175  TIP3 OH2  OT    -0.834000       15.9994           0
   92696 WT6  175  TIP3 H1   HT     0.417000        1.0080           0
   92697 WT6  175  TIP3 H2   HT     0.417000        1.0080           0
   92698 WT6  177  TIP3 OH2  OT    -0.834000       15.9994           0
   92699 WT6  177  TIP3 H1   HT     0.417000        1.0080           0
   92700 WT6  177  TIP3 H2   HT     0.417000        1.0080           0
   92701 WT6  178  TIP3 OH2  OT    -0.834000       15.9994           0
   92702 WT6  178  TIP3 H1   HT     0.417000        1.0080           0
   92703 WT6  178  TIP3 H2   HT     0.417000        1.0080           0
   92704 WT6  179  TIP3 OH2  OT    -0.834000       15.9994           0
   92705 WT6  179  TIP3 H1   HT     0.417000        1.0080           0
   92706 WT6  179  TIP3 H2   HT     0.417000        1.0080           0
   92707 WT6  180  TIP3 OH2  OT    -0.834000       15.9994           0
   92708 WT6  180  TIP3 H1   HT     0.417000        1.0080           0
   92709 WT6  180  TIP3 H2   HT     0.417000        1.0080           0
   92710 WT6  189  TIP3 OH2  OT    -0.834000       15.9994           0
   92711 WT6  189  TIP3 H1   HT     0.417000        1.0080           0
   92712 WT6  189  TIP3 H2   HT     0.417000        1.0080           0
   92713 WT6  190  TIP3 OH2  OT    -0.834000       15.9994           0
   92714 WT6  190  TIP3 H1   HT     0.417000        1.0080           0
   92715 WT6  190  TIP3 H2   HT     0.417000        1.0080           0
   92716 WT6  191  TIP3 OH2  OT    -0.834000       15.9994           0
   92717 WT6  191  TIP3 H1   HT     0.417000        1.0080           0
   92718 WT6  191  TIP3 H2   HT     0.417000        1.0080           0
   92719 WT6  194  TIP3 OH2  OT    -0.834000       15.9994           0
   92720 WT6  194  TIP3 H1   HT     0.417000        1.0080           0
   92721 WT6  194  TIP3 H2   HT     0.417000        1.0080           0
   92722 WT6  195  TIP3 OH2  OT    -0.834000       15.9994           0
   92723 WT6  195  TIP3 H1   HT     0.417000        1.0080           0
   92724 WT6  195  TIP3 H2   HT     0.417000        1.0080           0
   92725 WT6  196  TIP3 OH2  OT    -0.834000       15.9994           0
   92726 WT6  196  TIP3 H1   HT     0.417000        1.0080           0
   92727 WT6  196  TIP3 H2   HT     0.417000        1.0080           0
   92728 WT6  197  TIP3 OH2  OT    -0.834000       15.9994           0
   92729 WT6  197  TIP3 H1   HT     0.417000        1.0080           0
   92730 WT6  197  TIP3 H2   HT     0.417000        1.0080           0
   92731 WT6  198  TIP3 OH2  OT    -0.834000       15.9994           0
   92732 WT6  198  TIP3 H1   HT     0.417000        1.0080           0
   92733 WT6  198  TIP3 H2   HT     0.417000        1.0080           0
   92734 WT6  201  TIP3 OH2  OT    -0.834000       15.9994           0
   92735 WT6  201  TIP3 H1   HT     0.417000        1.0080           0
   92736 WT6  201  TIP3 H2   HT     0.417000        1.0080           0
   92737 WT6  202  TIP3 OH2  OT    -0.834000       15.9994           0
   92738 WT6  202  TIP3 H1   HT     0.417000        1.0080           0
   92739 WT6  202  TIP3 H2   HT     0.417000        1.0080           0
   92740 WT6  212  TIP3 OH2  OT    -0.834000       15.9994           0
   92741 WT6  212  TIP3 H1   HT     0.417000        1.0080           0
   92742 WT6  212  TIP3 H2   HT     0.417000        1.0080           0
   92743 WT6  218  TIP3 OH2  OT    -0.834000       15.9994           0
   92744 WT6  218  TIP3 H1   HT     0.417000        1.0080           0
   92745 WT6  218  TIP3 H2   HT     0.417000        1.0080           0
   92746 WT6  222  TIP3 OH2  OT    -0.834000       15.9994           0
   92747 WT6  222  TIP3 H1   HT     0.417000        1.0080           0
   92748 WT6  222  TIP3 H2   HT     0.417000        1.0080           0
   92749 WT6  224  TIP3 OH2  OT    -0.834000       15.9994           0
   92750 WT6  224  TIP3 H1   HT     0.417000        1.0080           0
   92751 WT6  224  TIP3 H2   HT     0.417000        1.0080           0
   92752 WT6  231  TIP3 OH2  OT    -0.834000       15.9994           0
   92753 WT6  231  TIP3 H1   HT     0.417000        1.0080           0
   92754 WT6  231  TIP3 H2   HT     0.417000        1.0080           0
   92755 WT6  237  TIP3 OH2  OT    -0.834000       15.9994           0
   92756 WT6  237  TIP3 H1   HT     0.417000        1.0080           0
   92757 WT6  237  TIP3 H2   HT     0.417000        1.0080           0
   92758 WT6  238  TIP3 OH2  OT    -0.834000       15.9994           0
   92759 WT6  238  TIP3 H1   HT     0.417000        1.0080           0
   92760 WT6  238  TIP3 H2   HT     0.417000        1.0080           0
   92761 WT6  239  TIP3 OH2  OT    -0.834000       15.9994           0
   92762 WT6  239  TIP3 H1   HT     0.417000        1.0080           0
   92763 WT6  239  TIP3 H2   HT     0.417000        1.0080           0
   92764 WT6  242  TIP3 OH2  OT    -0.834000       15.9994           0
   92765 WT6  242  TIP3 H1   HT     0.417000        1.0080           0
   92766 WT6  242  TIP3 H2   HT     0.417000        1.0080           0
   92767 WT6  252  TIP3 OH2  OT    -0.834000       15.9994           0
   92768 WT6  252  TIP3 H1   HT     0.417000        1.0080           0
   92769 WT6  252  TIP3 H2   HT     0.417000        1.0080           0
   92770 WT6  253  TIP3 OH2  OT    -0.834000       15.9994           0
   92771 WT6  253  TIP3 H1   HT     0.417000        1.0080           0
   92772 WT6  253  TIP3 H2   HT     0.417000        1.0080           0
   92773 WT6  255  TIP3 OH2  OT    -0.834000       15.9994           0
   92774 WT6  255  TIP3 H1   HT     0.417000        1.0080           0
   92775 WT6  255  TIP3 H2   HT     0.417000        1.0080           0
   92776 WT6  257  TIP3 OH2  OT    -0.834000       15.9994           0
   92777 WT6  257  TIP3 H1   HT     0.417000        1.0080           0
   92778 WT6  257  TIP3 H2   HT     0.417000        1.0080           0
   92779 WT6  258  TIP3 OH2  OT    -0.834000       15.9994           0
   92780 WT6  258  TIP3 H1   HT     0.417000        1.0080           0
   92781 WT6  258  TIP3 H2   HT     0.417000        1.0080           0
   92782 WT6  259  TIP3 OH2  OT    -0.834000       15.9994           0
   92783 WT6  259  TIP3 H1   HT     0.417000        1.0080           0
   92784 WT6  259  TIP3 H2   HT     0.417000        1.0080           0
   92785 WT6  261  TIP3 OH2  OT    -0.834000       15.9994           0
   92786 WT6  261  TIP3 H1   HT     0.417000        1.0080           0
   92787 WT6  261  TIP3 H2   HT     0.417000        1.0080           0
   92788 WT6  262  TIP3 OH2  OT    -0.834000       15.9994           0
   92789 WT6  262  TIP3 H1   HT     0.417000        1.0080           0
   92790 WT6  262  TIP3 H2   HT     0.417000        1.0080           0
   92791 WT6  267  TIP3 OH2  OT    -0.834000       15.9994           0
   92792 WT6  267  TIP3 H1   HT     0.417000        1.0080           0
   92793 WT6  267  TIP3 H2   HT     0.417000        1.0080           0
   92794 WT6  281  TIP3 OH2  OT    -0.834000       15.9994           0
   92795 WT6  281  TIP3 H1   HT     0.417000        1.0080           0
   92796 WT6  281  TIP3 H2   HT     0.417000        1.0080           0
   92797 WT6  283  TIP3 OH2  OT    -0.834000       15.9994           0
   92798 WT6  283  TIP3 H1   HT     0.417000        1.0080           0
   92799 WT6  283  TIP3 H2   HT     0.417000        1.0080           0
   92800 WT6  284  TIP3 OH2  OT    -0.834000       15.9994           0
   92801 WT6  284  TIP3 H1   HT     0.417000        1.0080           0
   92802 WT6  284  TIP3 H2   HT     0.417000        1.0080           0
   92803 WT6  285  TIP3 OH2  OT    -0.834000       15.9994           0
   92804 WT6  285  TIP3 H1   HT     0.417000        1.0080           0
   92805 WT6  285  TIP3 H2   HT     0.417000        1.0080           0
   92806 WT6  295  TIP3 OH2  OT    -0.834000       15.9994           0
   92807 WT6  295  TIP3 H1   HT     0.417000        1.0080           0
   92808 WT6  295  TIP3 H2   HT     0.417000        1.0080           0
   92809 WT6  302  TIP3 OH2  OT    -0.834000       15.9994           0
   92810 WT6  302  TIP3 H1   HT     0.417000        1.0080           0
   92811 WT6  302  TIP3 H2   HT     0.417000        1.0080           0
   92812 WT6  303  TIP3 OH2  OT    -0.834000       15.9994           0
   92813 WT6  303  TIP3 H1   HT     0.417000        1.0080           0
   92814 WT6  303  TIP3 H2   HT     0.417000        1.0080           0
   92815 WT6  305  TIP3 OH2  OT    -0.834000       15.9994           0
   92816 WT6  305  TIP3 H1   HT     0.417000        1.0080           0
   92817 WT6  305  TIP3 H2   HT     0.417000        1.0080           0
   92818 WT6  306  TIP3 OH2  OT    -0.834000       15.9994           0
   92819 WT6  306  TIP3 H1   HT     0.417000        1.0080           0
   92820 WT6  306  TIP3 H2   HT     0.417000        1.0080           0
   92821 WT6  307  TIP3 OH2  OT    -0.834000       15.9994           0
   92822 WT6  307  TIP3 H1   HT     0.417000        1.0080           0
   92823 WT6  307  TIP3 H2   HT     0.417000        1.0080           0
   92824 WT6  309  TIP3 OH2  OT    -0.834000       15.9994           0
   92825 WT6  309  TIP3 H1   HT     0.417000        1.0080           0
   92826 WT6  309  TIP3 H2   HT     0.417000        1.0080           0
   92827 WT6  316  TIP3 OH2  OT    -0.834000       15.9994           0
   92828 WT6  316  TIP3 H1   HT     0.417000        1.0080           0
   92829 WT6  316  TIP3 H2   HT     0.417000        1.0080           0
   92830 WT6  317  TIP3 OH2  OT    -0.834000       15.9994           0
   92831 WT6  317  TIP3 H1   HT     0.417000        1.0080           0
   92832 WT6  317  TIP3 H2   HT     0.417000        1.0080           0
   92833 WT6  322  TIP3 OH2  OT    -0.834000       15.9994           0
   92834 WT6  322  TIP3 H1   HT     0.417000        1.0080           0
   92835 WT6  322  TIP3 H2   HT     0.417000        1.0080           0
   92836 WT6  323  TIP3 OH2  OT    -0.834000       15.9994           0
   92837 WT6  323  TIP3 H1   HT     0.417000        1.0080           0
   92838 WT6  323  TIP3 H2   HT     0.417000        1.0080           0
   92839 WT6  325  TIP3 OH2  OT    -0.834000       15.9994           0
   92840 WT6  325  TIP3 H1   HT     0.417000        1.0080           0
   92841 WT6  325  TIP3 H2   HT     0.417000        1.0080           0
   92842 WT6  326  TIP3 OH2  OT    -0.834000       15.9994           0
   92843 WT6  326  TIP3 H1   HT     0.417000        1.0080           0
   92844 WT6  326  TIP3 H2   HT     0.417000        1.0080           0
   92845 WT6  327  TIP3 OH2  OT    -0.834000       15.9994           0
   92846 WT6  327  TIP3 H1   HT     0.417000        1.0080           0
   92847 WT6  327  TIP3 H2   HT     0.417000        1.0080           0
   92848 WT6  329  TIP3 OH2  OT    -0.834000       15.9994           0
   92849 WT6  329  TIP3 H1   HT     0.417000        1.0080           0
   92850 WT6  329  TIP3 H2   HT     0.417000        1.0080           0
   92851 WT6  335  TIP3 OH2  OT    -0.834000       15.9994           0
   92852 WT6  335  TIP3 H1   HT     0.417000        1.0080           0
   92853 WT6  335  TIP3 H2   HT     0.417000        1.0080           0
   92854 WT6  338  TIP3 OH2  OT    -0.834000       15.9994           0
   92855 WT6  338  TIP3 H1   HT     0.417000        1.0080           0
   92856 WT6  338  TIP3 H2   HT     0.417000        1.0080           0
   92857 WT6  344  TIP3 OH2  OT    -0.834000       15.9994           0
   92858 WT6  344  TIP3 H1   HT     0.417000        1.0080           0
   92859 WT6  344  TIP3 H2   HT     0.417000        1.0080           0
   92860 WT6  346  TIP3 OH2  OT    -0.834000       15.9994           0
   92861 WT6  346  TIP3 H1   HT     0.417000        1.0080           0
   92862 WT6  346  TIP3 H2   HT     0.417000        1.0080           0
   92863 WT6  347  TIP3 OH2  OT    -0.834000       15.9994           0
   92864 WT6  347  TIP3 H1   HT     0.417000        1.0080           0
   92865 WT6  347  TIP3 H2   HT     0.417000        1.0080           0
   92866 WT6  348  TIP3 OH2  OT    -0.834000       15.9994           0
   92867 WT6  348  TIP3 H1   HT     0.417000        1.0080           0
   92868 WT6  348  TIP3 H2   HT     0.417000        1.0080           0
   92869 WT6  349  TIP3 OH2  OT    -0.834000       15.9994           0
   92870 WT6  349  TIP3 H1   HT     0.417000        1.0080           0
   92871 WT6  349  TIP3 H2   HT     0.417000        1.0080           0
   92872 WT6  361  TIP3 OH2  OT    -0.834000       15.9994           0
   92873 WT6  361  TIP3 H1   HT     0.417000        1.0080           0
   92874 WT6  361  TIP3 H2   HT     0.417000        1.0080           0
   92875 WT6  362  TIP3 OH2  OT    -0.834000       15.9994           0
   92876 WT6  362  TIP3 H1   HT     0.417000        1.0080           0
   92877 WT6  362  TIP3 H2   HT     0.417000        1.0080           0
   92878 WT6  364  TIP3 OH2  OT    -0.834000       15.9994           0
   92879 WT6  364  TIP3 H1   HT     0.417000        1.0080           0
   92880 WT6  364  TIP3 H2   HT     0.417000        1.0080           0
   92881 WT6  365  TIP3 OH2  OT    -0.834000       15.9994           0
   92882 WT6  365  TIP3 H1   HT     0.417000        1.0080           0
   92883 WT6  365  TIP3 H2   HT     0.417000        1.0080           0
   92884 WT6  366  TIP3 OH2  OT    -0.834000       15.9994           0
   92885 WT6  366  TIP3 H1   HT     0.417000        1.0080           0
   92886 WT6  366  TIP3 H2   HT     0.417000        1.0080           0
   92887 WT6  367  TIP3 OH2  OT    -0.834000       15.9994           0
   92888 WT6  367  TIP3 H1   HT     0.417000        1.0080           0
   92889 WT6  367  TIP3 H2   HT     0.417000        1.0080           0
   92890 WT6  368  TIP3 OH2  OT    -0.834000       15.9994           0
   92891 WT6  368  TIP3 H1   HT     0.417000        1.0080           0
   92892 WT6  368  TIP3 H2   HT     0.417000        1.0080           0
   92893 WT6  369  TIP3 OH2  OT    -0.834000       15.9994           0
   92894 WT6  369  TIP3 H1   HT     0.417000        1.0080           0
   92895 WT6  369  TIP3 H2   HT     0.417000        1.0080           0
   92896 WT6  371  TIP3 OH2  OT    -0.834000       15.9994           0
   92897 WT6  371  TIP3 H1   HT     0.417000        1.0080           0
   92898 WT6  371  TIP3 H2   HT     0.417000        1.0080           0
   92899 WT6  372  TIP3 OH2  OT    -0.834000       15.9994           0
   92900 WT6  372  TIP3 H1   HT     0.417000        1.0080           0
   92901 WT6  372  TIP3 H2   HT     0.417000        1.0080           0
   92902 WT6  378  TIP3 OH2  OT    -0.834000       15.9994           0
   92903 WT6  378  TIP3 H1   HT     0.417000        1.0080           0
   92904 WT6  378  TIP3 H2   HT     0.417000        1.0080           0
   92905 WT6  384  TIP3 OH2  OT    -0.834000       15.9994           0
   92906 WT6  384  TIP3 H1   HT     0.417000        1.0080           0
   92907 WT6  384  TIP3 H2   HT     0.417000        1.0080           0
   92908 WT6  387  TIP3 OH2  OT    -0.834000       15.9994           0
   92909 WT6  387  TIP3 H1   HT     0.417000        1.0080           0
   92910 WT6  387  TIP3 H2   HT     0.417000        1.0080           0
   92911 WT6  388  TIP3 OH2  OT    -0.834000       15.9994           0
   92912 WT6  388  TIP3 H1   HT     0.417000        1.0080           0
   92913 WT6  388  TIP3 H2   HT     0.417000        1.0080           0
   92914 WT6  389  TIP3 OH2  OT    -0.834000       15.9994           0
   92915 WT6  389  TIP3 H1   HT     0.417000        1.0080           0
   92916 WT6  389  TIP3 H2   HT     0.417000        1.0080           0
   92917 WT6  390  TIP3 OH2  OT    -0.834000       15.9994           0
   92918 WT6  390  TIP3 H1   HT     0.417000        1.0080           0
   92919 WT6  390  TIP3 H2   HT     0.417000        1.0080           0
   92920 WT6  392  TIP3 OH2  OT    -0.834000       15.9994           0
   92921 WT6  392  TIP3 H1   HT     0.417000        1.0080           0
   92922 WT6  392  TIP3 H2   HT     0.417000        1.0080           0
   92923 WT6  393  TIP3 OH2  OT    -0.834000       15.9994           0
   92924 WT6  393  TIP3 H1   HT     0.417000        1.0080           0
   92925 WT6  393  TIP3 H2   HT     0.417000        1.0080           0
   92926 WT6  401  TIP3 OH2  OT    -0.834000       15.9994           0
   92927 WT6  401  TIP3 H1   HT     0.417000        1.0080           0
   92928 WT6  401  TIP3 H2   HT     0.417000        1.0080           0
   92929 WT6  403  TIP3 OH2  OT    -0.834000       15.9994           0
   92930 WT6  403  TIP3 H1   HT     0.417000        1.0080           0
   92931 WT6  403  TIP3 H2   HT     0.417000        1.0080           0
   92932 WT6  404  TIP3 OH2  OT    -0.834000       15.9994           0
   92933 WT6  404  TIP3 H1   HT     0.417000        1.0080           0
   92934 WT6  404  TIP3 H2   HT     0.417000        1.0080           0
   92935 WT6  409  TIP3 OH2  OT    -0.834000       15.9994           0
   92936 WT6  409  TIP3 H1   HT     0.417000        1.0080           0
   92937 WT6  409  TIP3 H2   HT     0.417000        1.0080           0
   92938 WT6  411  TIP3 OH2  OT    -0.834000       15.9994           0
   92939 WT6  411  TIP3 H1   HT     0.417000        1.0080           0
   92940 WT6  411  TIP3 H2   HT     0.417000        1.0080           0
   92941 WT6  416  TIP3 OH2  OT    -0.834000       15.9994           0
   92942 WT6  416  TIP3 H1   HT     0.417000        1.0080           0
   92943 WT6  416  TIP3 H2   HT     0.417000        1.0080           0
   92944 WT6  424  TIP3 OH2  OT    -0.834000       15.9994           0
   92945 WT6  424  TIP3 H1   HT     0.417000        1.0080           0
   92946 WT6  424  TIP3 H2   HT     0.417000        1.0080           0
   92947 WT6  425  TIP3 OH2  OT    -0.834000       15.9994           0
   92948 WT6  425  TIP3 H1   HT     0.417000        1.0080           0
   92949 WT6  425  TIP3 H2   HT     0.417000        1.0080           0
   92950 WT6  427  TIP3 OH2  OT    -0.834000       15.9994           0
   92951 WT6  427  TIP3 H1   HT     0.417000        1.0080           0
   92952 WT6  427  TIP3 H2   HT     0.417000        1.0080           0
   92953 WT6  431  TIP3 OH2  OT    -0.834000       15.9994           0
   92954 WT6  431  TIP3 H1   HT     0.417000        1.0080           0
   92955 WT6  431  TIP3 H2   HT     0.417000        1.0080           0
   92956 WT6  432  TIP3 OH2  OT    -0.834000       15.9994           0
   92957 WT6  432  TIP3 H1   HT     0.417000        1.0080           0
   92958 WT6  432  TIP3 H2   HT     0.417000        1.0080           0
   92959 WT6  433  TIP3 OH2  OT    -0.834000       15.9994           0
   92960 WT6  433  TIP3 H1   HT     0.417000        1.0080           0
   92961 WT6  433  TIP3 H2   HT     0.417000        1.0080           0
   92962 WT6  443  TIP3 OH2  OT    -0.834000       15.9994           0
   92963 WT6  443  TIP3 H1   HT     0.417000        1.0080           0
   92964 WT6  443  TIP3 H2   HT     0.417000        1.0080           0
   92965 WT6  445  TIP3 OH2  OT    -0.834000       15.9994           0
   92966 WT6  445  TIP3 H1   HT     0.417000        1.0080           0
   92967 WT6  445  TIP3 H2   HT     0.417000        1.0080           0
   92968 WT6  446  TIP3 OH2  OT    -0.834000       15.9994           0
   92969 WT6  446  TIP3 H1   HT     0.417000        1.0080           0
   92970 WT6  446  TIP3 H2   HT     0.417000        1.0080           0
   92971 WT6  448  TIP3 OH2  OT    -0.834000       15.9994           0
   92972 WT6  448  TIP3 H1   HT     0.417000        1.0080           0
   92973 WT6  448  TIP3 H2   HT     0.417000        1.0080           0
   92974 WT6  450  TIP3 OH2  OT    -0.834000       15.9994           0
   92975 WT6  450  TIP3 H1   HT     0.417000        1.0080           0
   92976 WT6  450  TIP3 H2   HT     0.417000        1.0080           0
   92977 WT6  452  TIP3 OH2  OT    -0.834000       15.9994           0
   92978 WT6  452  TIP3 H1   HT     0.417000        1.0080           0
   92979 WT6  452  TIP3 H2   HT     0.417000        1.0080           0
   92980 WT6  460  TIP3 OH2  OT    -0.834000       15.9994           0
   92981 WT6  460  TIP3 H1   HT     0.417000        1.0080           0
   92982 WT6  460  TIP3 H2   HT     0.417000        1.0080           0
   92983 WT6  465  TIP3 OH2  OT    -0.834000       15.9994           0
   92984 WT6  465  TIP3 H1   HT     0.417000        1.0080           0
   92985 WT6  465  TIP3 H2   HT     0.417000        1.0080           0
   92986 WT6  466  TIP3 OH2  OT    -0.834000       15.9994           0
   92987 WT6  466  TIP3 H1   HT     0.417000        1.0080           0
   92988 WT6  466  TIP3 H2   HT     0.417000        1.0080           0
   92989 WT6  468  TIP3 OH2  OT    -0.834000       15.9994           0
   92990 WT6  468  TIP3 H1   HT     0.417000        1.0080           0
   92991 WT6  468  TIP3 H2   HT     0.417000        1.0080           0
   92992 WT6  469  TIP3 OH2  OT    -0.834000       15.9994           0
   92993 WT6  469  TIP3 H1   HT     0.417000        1.0080           0
   92994 WT6  469  TIP3 H2   HT     0.417000        1.0080           0
   92995 WT6  470  TIP3 OH2  OT    -0.834000       15.9994           0
   92996 WT6  470  TIP3 H1   HT     0.417000        1.0080           0
   92997 WT6  470  TIP3 H2   HT     0.417000        1.0080           0
   92998 WT6  471  TIP3 OH2  OT    -0.834000       15.9994           0
   92999 WT6  471  TIP3 H1   HT     0.417000        1.0080           0
   93000 WT6  471  TIP3 H2   HT     0.417000        1.0080           0
   93001 WT6  472  TIP3 OH2  OT    -0.834000       15.9994           0
   93002 WT6  472  TIP3 H1   HT     0.417000        1.0080           0
   93003 WT6  472  TIP3 H2   HT     0.417000        1.0080           0
   93004 WT6  476  TIP3 OH2  OT    -0.834000       15.9994           0
   93005 WT6  476  TIP3 H1   HT     0.417000        1.0080           0
   93006 WT6  476  TIP3 H2   HT     0.417000        1.0080           0
   93007 WT6  480  TIP3 OH2  OT    -0.834000       15.9994           0
   93008 WT6  480  TIP3 H1   HT     0.417000        1.0080           0
   93009 WT6  480  TIP3 H2   HT     0.417000        1.0080           0
   93010 WT6  481  TIP3 OH2  OT    -0.834000       15.9994           0
   93011 WT6  481  TIP3 H1   HT     0.417000        1.0080           0
   93012 WT6  481  TIP3 H2   HT     0.417000        1.0080           0
   93013 WT6  483  TIP3 OH2  OT    -0.834000       15.9994           0
   93014 WT6  483  TIP3 H1   HT     0.417000        1.0080           0
   93015 WT6  483  TIP3 H2   HT     0.417000        1.0080           0
   93016 WT6  484  TIP3 OH2  OT    -0.834000       15.9994           0
   93017 WT6  484  TIP3 H1   HT     0.417000        1.0080           0
   93018 WT6  484  TIP3 H2   HT     0.417000        1.0080           0
   93019 WT6  485  TIP3 OH2  OT    -0.834000       15.9994           0
   93020 WT6  485  TIP3 H1   HT     0.417000        1.0080           0
   93021 WT6  485  TIP3 H2   HT     0.417000        1.0080           0
   93022 WT6  486  TIP3 OH2  OT    -0.834000       15.9994           0
   93023 WT6  486  TIP3 H1   HT     0.417000        1.0080           0
   93024 WT6  486  TIP3 H2   HT     0.417000        1.0080           0
   93025 WT6  489  TIP3 OH2  OT    -0.834000       15.9994           0
   93026 WT6  489  TIP3 H1   HT     0.417000        1.0080           0
   93027 WT6  489  TIP3 H2   HT     0.417000        1.0080           0
   93028 WT6  490  TIP3 OH2  OT    -0.834000       15.9994           0
   93029 WT6  490  TIP3 H1   HT     0.417000        1.0080           0
   93030 WT6  490  TIP3 H2   HT     0.417000        1.0080           0
   93031 WT6  491  TIP3 OH2  OT    -0.834000       15.9994           0
   93032 WT6  491  TIP3 H1   HT     0.417000        1.0080           0
   93033 WT6  491  TIP3 H2   HT     0.417000        1.0080           0
   93034 WT6  494  TIP3 OH2  OT    -0.834000       15.9994           0
   93035 WT6  494  TIP3 H1   HT     0.417000        1.0080           0
   93036 WT6  494  TIP3 H2   HT     0.417000        1.0080           0
   93037 WT6  495  TIP3 OH2  OT    -0.834000       15.9994           0
   93038 WT6  495  TIP3 H1   HT     0.417000        1.0080           0
   93039 WT6  495  TIP3 H2   HT     0.417000        1.0080           0
   93040 WT6  496  TIP3 OH2  OT    -0.834000       15.9994           0
   93041 WT6  496  TIP3 H1   HT     0.417000        1.0080           0
   93042 WT6  496  TIP3 H2   HT     0.417000        1.0080           0
   93043 WT6  498  TIP3 OH2  OT    -0.834000       15.9994           0
   93044 WT6  498  TIP3 H1   HT     0.417000        1.0080           0
   93045 WT6  498  TIP3 H2   HT     0.417000        1.0080           0
   93046 WT6  503  TIP3 OH2  OT    -0.834000       15.9994           0
   93047 WT6  503  TIP3 H1   HT     0.417000        1.0080           0
   93048 WT6  503  TIP3 H2   HT     0.417000        1.0080           0
   93049 WT6  506  TIP3 OH2  OT    -0.834000       15.9994           0
   93050 WT6  506  TIP3 H1   HT     0.417000        1.0080           0
   93051 WT6  506  TIP3 H2   HT     0.417000        1.0080           0
   93052 WT6  507  TIP3 OH2  OT    -0.834000       15.9994           0
   93053 WT6  507  TIP3 H1   HT     0.417000        1.0080           0
   93054 WT6  507  TIP3 H2   HT     0.417000        1.0080           0
   93055 WT6  508  TIP3 OH2  OT    -0.834000       15.9994           0
   93056 WT6  508  TIP3 H1   HT     0.417000        1.0080           0
   93057 WT6  508  TIP3 H2   HT     0.417000        1.0080           0
   93058 WT6  509  TIP3 OH2  OT    -0.834000       15.9994           0
   93059 WT6  509  TIP3 H1   HT     0.417000        1.0080           0
   93060 WT6  509  TIP3 H2   HT     0.417000        1.0080           0
   93061 WT6  511  TIP3 OH2  OT    -0.834000       15.9994           0
   93062 WT6  511  TIP3 H1   HT     0.417000        1.0080           0
   93063 WT6  511  TIP3 H2   HT     0.417000        1.0080           0
   93064 WT6  512  TIP3 OH2  OT    -0.834000       15.9994           0
   93065 WT6  512  TIP3 H1   HT     0.417000        1.0080           0
   93066 WT6  512  TIP3 H2   HT     0.417000        1.0080           0
   93067 WT6  515  TIP3 OH2  OT    -0.834000       15.9994           0
   93068 WT6  515  TIP3 H1   HT     0.417000        1.0080           0
   93069 WT6  515  TIP3 H2   HT     0.417000        1.0080           0
   93070 WT6  516  TIP3 OH2  OT    -0.834000       15.9994           0
   93071 WT6  516  TIP3 H1   HT     0.417000        1.0080           0
   93072 WT6  516  TIP3 H2   HT     0.417000        1.0080           0
   93073 WT6  517  TIP3 OH2  OT    -0.834000       15.9994           0
   93074 WT6  517  TIP3 H1   HT     0.417000        1.0080           0
   93075 WT6  517  TIP3 H2   HT     0.417000        1.0080           0
   93076 WT6  528  TIP3 OH2  OT    -0.834000       15.9994           0
   93077 WT6  528  TIP3 H1   HT     0.417000        1.0080           0
   93078 WT6  528  TIP3 H2   HT     0.417000        1.0080           0
   93079 WT6  529  TIP3 OH2  OT    -0.834000       15.9994           0
   93080 WT6  529  TIP3 H1   HT     0.417000        1.0080           0
   93081 WT6  529  TIP3 H2   HT     0.417000        1.0080           0
   93082 WT6  533  TIP3 OH2  OT    -0.834000       15.9994           0
   93083 WT6  533  TIP3 H1   HT     0.417000        1.0080           0
   93084 WT6  533  TIP3 H2   HT     0.417000        1.0080           0
   93085 WT6  534  TIP3 OH2  OT    -0.834000       15.9994           0
   93086 WT6  534  TIP3 H1   HT     0.417000        1.0080           0
   93087 WT6  534  TIP3 H2   HT     0.417000        1.0080           0
   93088 WT6  535  TIP3 OH2  OT    -0.834000       15.9994           0
   93089 WT6  535  TIP3 H1   HT     0.417000        1.0080           0
   93090 WT6  535  TIP3 H2   HT     0.417000        1.0080           0
   93091 WT6  538  TIP3 OH2  OT    -0.834000       15.9994           0
   93092 WT6  538  TIP3 H1   HT     0.417000        1.0080           0
   93093 WT6  538  TIP3 H2   HT     0.417000        1.0080           0
   93094 WT6  540  TIP3 OH2  OT    -0.834000       15.9994           0
   93095 WT6  540  TIP3 H1   HT     0.417000        1.0080           0
   93096 WT6  540  TIP3 H2   HT     0.417000        1.0080           0
   93097 WT6  543  TIP3 OH2  OT    -0.834000       15.9994           0
   93098 WT6  543  TIP3 H1   HT     0.417000        1.0080           0
   93099 WT6  543  TIP3 H2   HT     0.417000        1.0080           0
   93100 WT6  548  TIP3 OH2  OT    -0.834000       15.9994           0
   93101 WT6  548  TIP3 H1   HT     0.417000        1.0080           0
   93102 WT6  548  TIP3 H2   HT     0.417000        1.0080           0
   93103 WT6  549  TIP3 OH2  OT    -0.834000       15.9994           0
   93104 WT6  549  TIP3 H1   HT     0.417000        1.0080           0
   93105 WT6  549  TIP3 H2   HT     0.417000        1.0080           0
   93106 WT6  550  TIP3 OH2  OT    -0.834000       15.9994           0
   93107 WT6  550  TIP3 H1   HT     0.417000        1.0080           0
   93108 WT6  550  TIP3 H2   HT     0.417000        1.0080           0
   93109 WT6  551  TIP3 OH2  OT    -0.834000       15.9994           0
   93110 WT6  551  TIP3 H1   HT     0.417000        1.0080           0
   93111 WT6  551  TIP3 H2   HT     0.417000        1.0080           0
   93112 WT6  552  TIP3 OH2  OT    -0.834000       15.9994           0
   93113 WT6  552  TIP3 H1   HT     0.417000        1.0080           0
   93114 WT6  552  TIP3 H2   HT     0.417000        1.0080           0
   93115 WT6  553  TIP3 OH2  OT    -0.834000       15.9994           0
   93116 WT6  553  TIP3 H1   HT     0.417000        1.0080           0
   93117 WT6  553  TIP3 H2   HT     0.417000        1.0080           0
   93118 WT6  554  TIP3 OH2  OT    -0.834000       15.9994           0
   93119 WT6  554  TIP3 H1   HT     0.417000        1.0080           0
   93120 WT6  554  TIP3 H2   HT     0.417000        1.0080           0
   93121 WT6  555  TIP3 OH2  OT    -0.834000       15.9994           0
   93122 WT6  555  TIP3 H1   HT     0.417000        1.0080           0
   93123 WT6  555  TIP3 H2   HT     0.417000        1.0080           0
   93124 WT6  558  TIP3 OH2  OT    -0.834000       15.9994           0
   93125 WT6  558  TIP3 H1   HT     0.417000        1.0080           0
   93126 WT6  558  TIP3 H2   HT     0.417000        1.0080           0
   93127 WT6  562  TIP3 OH2  OT    -0.834000       15.9994           0
   93128 WT6  562  TIP3 H1   HT     0.417000        1.0080           0
   93129 WT6  562  TIP3 H2   HT     0.417000        1.0080           0
   93130 WT6  568  TIP3 OH2  OT    -0.834000       15.9994           0
   93131 WT6  568  TIP3 H1   HT     0.417000        1.0080           0
   93132 WT6  568  TIP3 H2   HT     0.417000        1.0080           0
   93133 WT6  570  TIP3 OH2  OT    -0.834000       15.9994           0
   93134 WT6  570  TIP3 H1   HT     0.417000        1.0080           0
   93135 WT6  570  TIP3 H2   HT     0.417000        1.0080           0
   93136 WT6  573  TIP3 OH2  OT    -0.834000       15.9994           0
   93137 WT6  573  TIP3 H1   HT     0.417000        1.0080           0
   93138 WT6  573  TIP3 H2   HT     0.417000        1.0080           0
   93139 WT6  575  TIP3 OH2  OT    -0.834000       15.9994           0
   93140 WT6  575  TIP3 H1   HT     0.417000        1.0080           0
   93141 WT6  575  TIP3 H2   HT     0.417000        1.0080           0
   93142 WT6  576  TIP3 OH2  OT    -0.834000       15.9994           0
   93143 WT6  576  TIP3 H1   HT     0.417000        1.0080           0
   93144 WT6  576  TIP3 H2   HT     0.417000        1.0080           0
   93145 WT6  578  TIP3 OH2  OT    -0.834000       15.9994           0
   93146 WT6  578  TIP3 H1   HT     0.417000        1.0080           0
   93147 WT6  578  TIP3 H2   HT     0.417000        1.0080           0
   93148 WT6  579  TIP3 OH2  OT    -0.834000       15.9994           0
   93149 WT6  579  TIP3 H1   HT     0.417000        1.0080           0
   93150 WT6  579  TIP3 H2   HT     0.417000        1.0080           0
   93151 WT6  580  TIP3 OH2  OT    -0.834000       15.9994           0
   93152 WT6  580  TIP3 H1   HT     0.417000        1.0080           0
   93153 WT6  580  TIP3 H2   HT     0.417000        1.0080           0
   93154 WT6  584  TIP3 OH2  OT    -0.834000       15.9994           0
   93155 WT6  584  TIP3 H1   HT     0.417000        1.0080           0
   93156 WT6  584  TIP3 H2   HT     0.417000        1.0080           0
   93157 WT6  588  TIP3 OH2  OT    -0.834000       15.9994           0
   93158 WT6  588  TIP3 H1   HT     0.417000        1.0080           0
   93159 WT6  588  TIP3 H2   HT     0.417000        1.0080           0
   93160 WT6  591  TIP3 OH2  OT    -0.834000       15.9994           0
   93161 WT6  591  TIP3 H1   HT     0.417000        1.0080           0
   93162 WT6  591  TIP3 H2   HT     0.417000        1.0080           0
   93163 WT6  592  TIP3 OH2  OT    -0.834000       15.9994           0
   93164 WT6  592  TIP3 H1   HT     0.417000        1.0080           0
   93165 WT6  592  TIP3 H2   HT     0.417000        1.0080           0
   93166 WT6  593  TIP3 OH2  OT    -0.834000       15.9994           0
   93167 WT6  593  TIP3 H1   HT     0.417000        1.0080           0
   93168 WT6  593  TIP3 H2   HT     0.417000        1.0080           0
   93169 WT6  594  TIP3 OH2  OT    -0.834000       15.9994           0
   93170 WT6  594  TIP3 H1   HT     0.417000        1.0080           0
   93171 WT6  594  TIP3 H2   HT     0.417000        1.0080           0
   93172 WT6  595  TIP3 OH2  OT    -0.834000       15.9994           0
   93173 WT6  595  TIP3 H1   HT     0.417000        1.0080           0
   93174 WT6  595  TIP3 H2   HT     0.417000        1.0080           0
   93175 WT6  598  TIP3 OH2  OT    -0.834000       15.9994           0
   93176 WT6  598  TIP3 H1   HT     0.417000        1.0080           0
   93177 WT6  598  TIP3 H2   HT     0.417000        1.0080           0
   93178 WT6  599  TIP3 OH2  OT    -0.834000       15.9994           0
   93179 WT6  599  TIP3 H1   HT     0.417000        1.0080           0
   93180 WT6  599  TIP3 H2   HT     0.417000        1.0080           0
   93181 WT6  600  TIP3 OH2  OT    -0.834000       15.9994           0
   93182 WT6  600  TIP3 H1   HT     0.417000        1.0080           0
   93183 WT6  600  TIP3 H2   HT     0.417000        1.0080           0
   93184 WT6  602  TIP3 OH2  OT    -0.834000       15.9994           0
   93185 WT6  602  TIP3 H1   HT     0.417000        1.0080           0
   93186 WT6  602  TIP3 H2   HT     0.417000        1.0080           0
   93187 WT6  611  TIP3 OH2  OT    -0.834000       15.9994           0
   93188 WT6  611  TIP3 H1   HT     0.417000        1.0080           0
   93189 WT6  611  TIP3 H2   HT     0.417000        1.0080           0
   93190 WT6  612  TIP3 OH2  OT    -0.834000       15.9994           0
   93191 WT6  612  TIP3 H1   HT     0.417000        1.0080           0
   93192 WT6  612  TIP3 H2   HT     0.417000        1.0080           0
   93193 WT6  613  TIP3 OH2  OT    -0.834000       15.9994           0
   93194 WT6  613  TIP3 H1   HT     0.417000        1.0080           0
   93195 WT6  613  TIP3 H2   HT     0.417000        1.0080           0
   93196 WT6  615  TIP3 OH2  OT    -0.834000       15.9994           0
   93197 WT6  615  TIP3 H1   HT     0.417000        1.0080           0
   93198 WT6  615  TIP3 H2   HT     0.417000        1.0080           0
   93199 WT6  616  TIP3 OH2  OT    -0.834000       15.9994           0
   93200 WT6  616  TIP3 H1   HT     0.417000        1.0080           0
   93201 WT6  616  TIP3 H2   HT     0.417000        1.0080           0
   93202 WT6  618  TIP3 OH2  OT    -0.834000       15.9994           0
   93203 WT6  618  TIP3 H1   HT     0.417000        1.0080           0
   93204 WT6  618  TIP3 H2   HT     0.417000        1.0080           0
   93205 WT6  619  TIP3 OH2  OT    -0.834000       15.9994           0
   93206 WT6  619  TIP3 H1   HT     0.417000        1.0080           0
   93207 WT6  619  TIP3 H2   HT     0.417000        1.0080           0
   93208 WT6  623  TIP3 OH2  OT    -0.834000       15.9994           0
   93209 WT6  623  TIP3 H1   HT     0.417000        1.0080           0
   93210 WT6  623  TIP3 H2   HT     0.417000        1.0080           0
   93211 WT6  624  TIP3 OH2  OT    -0.834000       15.9994           0
   93212 WT6  624  TIP3 H1   HT     0.417000        1.0080           0
   93213 WT6  624  TIP3 H2   HT     0.417000        1.0080           0
   93214 WT6  626  TIP3 OH2  OT    -0.834000       15.9994           0
   93215 WT6  626  TIP3 H1   HT     0.417000        1.0080           0
   93216 WT6  626  TIP3 H2   HT     0.417000        1.0080           0
   93217 WT6  632  TIP3 OH2  OT    -0.834000       15.9994           0
   93218 WT6  632  TIP3 H1   HT     0.417000        1.0080           0
   93219 WT6  632  TIP3 H2   HT     0.417000        1.0080           0
   93220 WT6  634  TIP3 OH2  OT    -0.834000       15.9994           0
   93221 WT6  634  TIP3 H1   HT     0.417000        1.0080           0
   93222 WT6  634  TIP3 H2   HT     0.417000        1.0080           0
   93223 WT6  635  TIP3 OH2  OT    -0.834000       15.9994           0
   93224 WT6  635  TIP3 H1   HT     0.417000        1.0080           0
   93225 WT6  635  TIP3 H2   HT     0.417000        1.0080           0
   93226 WT6  636  TIP3 OH2  OT    -0.834000       15.9994           0
   93227 WT6  636  TIP3 H1   HT     0.417000        1.0080           0
   93228 WT6  636  TIP3 H2   HT     0.417000        1.0080           0
   93229 WT6  637  TIP3 OH2  OT    -0.834000       15.9994           0
   93230 WT6  637  TIP3 H1   HT     0.417000        1.0080           0
   93231 WT6  637  TIP3 H2   HT     0.417000        1.0080           0
   93232 WT6  638  TIP3 OH2  OT    -0.834000       15.9994           0
   93233 WT6  638  TIP3 H1   HT     0.417000        1.0080           0
   93234 WT6  638  TIP3 H2   HT     0.417000        1.0080           0
   93235 WT6  640  TIP3 OH2  OT    -0.834000       15.9994           0
   93236 WT6  640  TIP3 H1   HT     0.417000        1.0080           0
   93237 WT6  640  TIP3 H2   HT     0.417000        1.0080           0
   93238 WT6  642  TIP3 OH2  OT    -0.834000       15.9994           0
   93239 WT6  642  TIP3 H1   HT     0.417000        1.0080           0
   93240 WT6  642  TIP3 H2   HT     0.417000        1.0080           0
   93241 WT6  643  TIP3 OH2  OT    -0.834000       15.9994           0
   93242 WT6  643  TIP3 H1   HT     0.417000        1.0080           0
   93243 WT6  643  TIP3 H2   HT     0.417000        1.0080           0
   93244 WT6  653  TIP3 OH2  OT    -0.834000       15.9994           0
   93245 WT6  653  TIP3 H1   HT     0.417000        1.0080           0
   93246 WT6  653  TIP3 H2   HT     0.417000        1.0080           0
   93247 WT6  657  TIP3 OH2  OT    -0.834000       15.9994           0
   93248 WT6  657  TIP3 H1   HT     0.417000        1.0080           0
   93249 WT6  657  TIP3 H2   HT     0.417000        1.0080           0
   93250 WT6  659  TIP3 OH2  OT    -0.834000       15.9994           0
   93251 WT6  659  TIP3 H1   HT     0.417000        1.0080           0
   93252 WT6  659  TIP3 H2   HT     0.417000        1.0080           0
   93253 WT6  661  TIP3 OH2  OT    -0.834000       15.9994           0
   93254 WT6  661  TIP3 H1   HT     0.417000        1.0080           0
   93255 WT6  661  TIP3 H2   HT     0.417000        1.0080           0
   93256 WT6  662  TIP3 OH2  OT    -0.834000       15.9994           0
   93257 WT6  662  TIP3 H1   HT     0.417000        1.0080           0
   93258 WT6  662  TIP3 H2   HT     0.417000        1.0080           0
   93259 WT6  666  TIP3 OH2  OT    -0.834000       15.9994           0
   93260 WT6  666  TIP3 H1   HT     0.417000        1.0080           0
   93261 WT6  666  TIP3 H2   HT     0.417000        1.0080           0
   93262 WT6  674  TIP3 OH2  OT    -0.834000       15.9994           0
   93263 WT6  674  TIP3 H1   HT     0.417000        1.0080           0
   93264 WT6  674  TIP3 H2   HT     0.417000        1.0080           0
   93265 WT6  675  TIP3 OH2  OT    -0.834000       15.9994           0
   93266 WT6  675  TIP3 H1   HT     0.417000        1.0080           0
   93267 WT6  675  TIP3 H2   HT     0.417000        1.0080           0
   93268 WT6  676  TIP3 OH2  OT    -0.834000       15.9994           0
   93269 WT6  676  TIP3 H1   HT     0.417000        1.0080           0
   93270 WT6  676  TIP3 H2   HT     0.417000        1.0080           0
   93271 WT6  677  TIP3 OH2  OT    -0.834000       15.9994           0
   93272 WT6  677  TIP3 H1   HT     0.417000        1.0080           0
   93273 WT6  677  TIP3 H2   HT     0.417000        1.0080           0
   93274 WT6  678  TIP3 OH2  OT    -0.834000       15.9994           0
   93275 WT6  678  TIP3 H1   HT     0.417000        1.0080           0
   93276 WT6  678  TIP3 H2   HT     0.417000        1.0080           0
   93277 WT6  679  TIP3 OH2  OT    -0.834000       15.9994           0
   93278 WT6  679  TIP3 H1   HT     0.417000        1.0080           0
   93279 WT6  679  TIP3 H2   HT     0.417000        1.0080           0
   93280 WT6  680  TIP3 OH2  OT    -0.834000       15.9994           0
   93281 WT6  680  TIP3 H1   HT     0.417000        1.0080           0
   93282 WT6  680  TIP3 H2   HT     0.417000        1.0080           0
   93283 WT6  682  TIP3 OH2  OT    -0.834000       15.9994           0
   93284 WT6  682  TIP3 H1   HT     0.417000        1.0080           0
   93285 WT6  682  TIP3 H2   HT     0.417000        1.0080           0
   93286 WT6  684  TIP3 OH2  OT    -0.834000       15.9994           0
   93287 WT6  684  TIP3 H1   HT     0.417000        1.0080           0
   93288 WT6  684  TIP3 H2   HT     0.417000        1.0080           0
   93289 WT6  686  TIP3 OH2  OT    -0.834000       15.9994           0
   93290 WT6  686  TIP3 H1   HT     0.417000        1.0080           0
   93291 WT6  686  TIP3 H2   HT     0.417000        1.0080           0
   93292 WT6  687  TIP3 OH2  OT    -0.834000       15.9994           0
   93293 WT6  687  TIP3 H1   HT     0.417000        1.0080           0
   93294 WT6  687  TIP3 H2   HT     0.417000        1.0080           0
   93295 WT6  699  TIP3 OH2  OT    -0.834000       15.9994           0
   93296 WT6  699  TIP3 H1   HT     0.417000        1.0080           0
   93297 WT6  699  TIP3 H2   HT     0.417000        1.0080           0
   93298 WT6  700  TIP3 OH2  OT    -0.834000       15.9994           0
   93299 WT6  700  TIP3 H1   HT     0.417000        1.0080           0
   93300 WT6  700  TIP3 H2   HT     0.417000        1.0080           0
   93301 WT6  701  TIP3 OH2  OT    -0.834000       15.9994           0
   93302 WT6  701  TIP3 H1   HT     0.417000        1.0080           0
   93303 WT6  701  TIP3 H2   HT     0.417000        1.0080           0
   93304 WT6  702  TIP3 OH2  OT    -0.834000       15.9994           0
   93305 WT6  702  TIP3 H1   HT     0.417000        1.0080           0
   93306 WT6  702  TIP3 H2   HT     0.417000        1.0080           0
   93307 WT6  703  TIP3 OH2  OT    -0.834000       15.9994           0
   93308 WT6  703  TIP3 H1   HT     0.417000        1.0080           0
   93309 WT6  703  TIP3 H2   HT     0.417000        1.0080           0
   93310 WT6  704  TIP3 OH2  OT    -0.834000       15.9994           0
   93311 WT6  704  TIP3 H1   HT     0.417000        1.0080           0
   93312 WT6  704  TIP3 H2   HT     0.417000        1.0080           0
   93313 WT6  706  TIP3 OH2  OT    -0.834000       15.9994           0
   93314 WT6  706  TIP3 H1   HT     0.417000        1.0080           0
   93315 WT6  706  TIP3 H2   HT     0.417000        1.0080           0
   93316 WT6  707  TIP3 OH2  OT    -0.834000       15.9994           0
   93317 WT6  707  TIP3 H1   HT     0.417000        1.0080           0
   93318 WT6  707  TIP3 H2   HT     0.417000        1.0080           0
   93319 WT6  708  TIP3 OH2  OT    -0.834000       15.9994           0
   93320 WT6  708  TIP3 H1   HT     0.417000        1.0080           0
   93321 WT6  708  TIP3 H2   HT     0.417000        1.0080           0
   93322 WT6  710  TIP3 OH2  OT    -0.834000       15.9994           0
   93323 WT6  710  TIP3 H1   HT     0.417000        1.0080           0
   93324 WT6  710  TIP3 H2   HT     0.417000        1.0080           0
   93325 WT6  715  TIP3 OH2  OT    -0.834000       15.9994           0
   93326 WT6  715  TIP3 H1   HT     0.417000        1.0080           0
   93327 WT6  715  TIP3 H2   HT     0.417000        1.0080           0
   93328 WT6  717  TIP3 OH2  OT    -0.834000       15.9994           0
   93329 WT6  717  TIP3 H1   HT     0.417000        1.0080           0
   93330 WT6  717  TIP3 H2   HT     0.417000        1.0080           0
   93331 WT6  721  TIP3 OH2  OT    -0.834000       15.9994           0
   93332 WT6  721  TIP3 H1   HT     0.417000        1.0080           0
   93333 WT6  721  TIP3 H2   HT     0.417000        1.0080           0
   93334 WT6  722  TIP3 OH2  OT    -0.834000       15.9994           0
   93335 WT6  722  TIP3 H1   HT     0.417000        1.0080           0
   93336 WT6  722  TIP3 H2   HT     0.417000        1.0080           0
   93337 WT6  725  TIP3 OH2  OT    -0.834000       15.9994           0
   93338 WT6  725  TIP3 H1   HT     0.417000        1.0080           0
   93339 WT6  725  TIP3 H2   HT     0.417000        1.0080           0
   93340 WT6  726  TIP3 OH2  OT    -0.834000       15.9994           0
   93341 WT6  726  TIP3 H1   HT     0.417000        1.0080           0
   93342 WT6  726  TIP3 H2   HT     0.417000        1.0080           0
   93343 WT6  736  TIP3 OH2  OT    -0.834000       15.9994           0
   93344 WT6  736  TIP3 H1   HT     0.417000        1.0080           0
   93345 WT6  736  TIP3 H2   HT     0.417000        1.0080           0
   93346 WT6  737  TIP3 OH2  OT    -0.834000       15.9994           0
   93347 WT6  737  TIP3 H1   HT     0.417000        1.0080           0
   93348 WT6  737  TIP3 H2   HT     0.417000        1.0080           0
   93349 WT6  738  TIP3 OH2  OT    -0.834000       15.9994           0
   93350 WT6  738  TIP3 H1   HT     0.417000        1.0080           0
   93351 WT6  738  TIP3 H2   HT     0.417000        1.0080           0
   93352 WT6  740  TIP3 OH2  OT    -0.834000       15.9994           0
   93353 WT6  740  TIP3 H1   HT     0.417000        1.0080           0
   93354 WT6  740  TIP3 H2   HT     0.417000        1.0080           0
   93355 WT6  741  TIP3 OH2  OT    -0.834000       15.9994           0
   93356 WT6  741  TIP3 H1   HT     0.417000        1.0080           0
   93357 WT6  741  TIP3 H2   HT     0.417000        1.0080           0
   93358 WT6  743  TIP3 OH2  OT    -0.834000       15.9994           0
   93359 WT6  743  TIP3 H1   HT     0.417000        1.0080           0
   93360 WT6  743  TIP3 H2   HT     0.417000        1.0080           0
   93361 WT6  744  TIP3 OH2  OT    -0.834000       15.9994           0
   93362 WT6  744  TIP3 H1   HT     0.417000        1.0080           0
   93363 WT6  744  TIP3 H2   HT     0.417000        1.0080           0
   93364 WT6  745  TIP3 OH2  OT    -0.834000       15.9994           0
   93365 WT6  745  TIP3 H1   HT     0.417000        1.0080           0
   93366 WT6  745  TIP3 H2   HT     0.417000        1.0080           0
   93367 WT6  746  TIP3 OH2  OT    -0.834000       15.9994           0
   93368 WT6  746  TIP3 H1   HT     0.417000        1.0080           0
   93369 WT6  746  TIP3 H2   HT     0.417000        1.0080           0
   93370 WT6  747  TIP3 OH2  OT    -0.834000       15.9994           0
   93371 WT6  747  TIP3 H1   HT     0.417000        1.0080           0
   93372 WT6  747  TIP3 H2   HT     0.417000        1.0080           0
   93373 WT6  748  TIP3 OH2  OT    -0.834000       15.9994           0
   93374 WT6  748  TIP3 H1   HT     0.417000        1.0080           0
   93375 WT6  748  TIP3 H2   HT     0.417000        1.0080           0
   93376 WT6  749  TIP3 OH2  OT    -0.834000       15.9994           0
   93377 WT6  749  TIP3 H1   HT     0.417000        1.0080           0
   93378 WT6  749  TIP3 H2   HT     0.417000        1.0080           0
   93379 WT6  750  TIP3 OH2  OT    -0.834000       15.9994           0
   93380 WT6  750  TIP3 H1   HT     0.417000        1.0080           0
   93381 WT6  750  TIP3 H2   HT     0.417000        1.0080           0
   93382 WT6  757  TIP3 OH2  OT    -0.834000       15.9994           0
   93383 WT6  757  TIP3 H1   HT     0.417000        1.0080           0
   93384 WT6  757  TIP3 H2   HT     0.417000        1.0080           0
   93385 WT6  759  TIP3 OH2  OT    -0.834000       15.9994           0
   93386 WT6  759  TIP3 H1   HT     0.417000        1.0080           0
   93387 WT6  759  TIP3 H2   HT     0.417000        1.0080           0
   93388 WT6  761  TIP3 OH2  OT    -0.834000       15.9994           0
   93389 WT6  761  TIP3 H1   HT     0.417000        1.0080           0
   93390 WT6  761  TIP3 H2   HT     0.417000        1.0080           0
   93391 WT6  763  TIP3 OH2  OT    -0.834000       15.9994           0
   93392 WT6  763  TIP3 H1   HT     0.417000        1.0080           0
   93393 WT6  763  TIP3 H2   HT     0.417000        1.0080           0
   93394 WT6  765  TIP3 OH2  OT    -0.834000       15.9994           0
   93395 WT6  765  TIP3 H1   HT     0.417000        1.0080           0
   93396 WT6  765  TIP3 H2   HT     0.417000        1.0080           0
   93397 WT6  766  TIP3 OH2  OT    -0.834000       15.9994           0
   93398 WT6  766  TIP3 H1   HT     0.417000        1.0080           0
   93399 WT6  766  TIP3 H2   HT     0.417000        1.0080           0
   93400 WT6  767  TIP3 OH2  OT    -0.834000       15.9994           0
   93401 WT6  767  TIP3 H1   HT     0.417000        1.0080           0
   93402 WT6  767  TIP3 H2   HT     0.417000        1.0080           0
   93403 WT6  768  TIP3 OH2  OT    -0.834000       15.9994           0
   93404 WT6  768  TIP3 H1   HT     0.417000        1.0080           0
   93405 WT6  768  TIP3 H2   HT     0.417000        1.0080           0
   93406 WT6  778  TIP3 OH2  OT    -0.834000       15.9994           0
   93407 WT6  778  TIP3 H1   HT     0.417000        1.0080           0
   93408 WT6  778  TIP3 H2   HT     0.417000        1.0080           0
   93409 WT6  779  TIP3 OH2  OT    -0.834000       15.9994           0
   93410 WT6  779  TIP3 H1   HT     0.417000        1.0080           0
   93411 WT6  779  TIP3 H2   HT     0.417000        1.0080           0
   93412 WT6  781  TIP3 OH2  OT    -0.834000       15.9994           0
   93413 WT6  781  TIP3 H1   HT     0.417000        1.0080           0
   93414 WT6  781  TIP3 H2   HT     0.417000        1.0080           0
   93415 WT6  782  TIP3 OH2  OT    -0.834000       15.9994           0
   93416 WT6  782  TIP3 H1   HT     0.417000        1.0080           0
   93417 WT6  782  TIP3 H2   HT     0.417000        1.0080           0
   93418 WT6  783  TIP3 OH2  OT    -0.834000       15.9994           0
   93419 WT6  783  TIP3 H1   HT     0.417000        1.0080           0
   93420 WT6  783  TIP3 H2   HT     0.417000        1.0080           0
   93421 WT6  785  TIP3 OH2  OT    -0.834000       15.9994           0
   93422 WT6  785  TIP3 H1   HT     0.417000        1.0080           0
   93423 WT6  785  TIP3 H2   HT     0.417000        1.0080           0
   93424 WT6  786  TIP3 OH2  OT    -0.834000       15.9994           0
   93425 WT6  786  TIP3 H1   HT     0.417000        1.0080           0
   93426 WT6  786  TIP3 H2   HT     0.417000        1.0080           0
   93427 WT6  787  TIP3 OH2  OT    -0.834000       15.9994           0
   93428 WT6  787  TIP3 H1   HT     0.417000        1.0080           0
   93429 WT6  787  TIP3 H2   HT     0.417000        1.0080           0
   93430 WT6  788  TIP3 OH2  OT    -0.834000       15.9994           0
   93431 WT6  788  TIP3 H1   HT     0.417000        1.0080           0
   93432 WT6  788  TIP3 H2   HT     0.417000        1.0080           0
   93433 WT6  792  TIP3 OH2  OT    -0.834000       15.9994           0
   93434 WT6  792  TIP3 H1   HT     0.417000        1.0080           0
   93435 WT6  792  TIP3 H2   HT     0.417000        1.0080           0
   93436 WT6  796  TIP3 OH2  OT    -0.834000       15.9994           0
   93437 WT6  796  TIP3 H1   HT     0.417000        1.0080           0
   93438 WT6  796  TIP3 H2   HT     0.417000        1.0080           0
   93439 WT6  801  TIP3 OH2  OT    -0.834000       15.9994           0
   93440 WT6  801  TIP3 H1   HT     0.417000        1.0080           0
   93441 WT6  801  TIP3 H2   HT     0.417000        1.0080           0
   93442 WT6  803  TIP3 OH2  OT    -0.834000       15.9994           0
   93443 WT6  803  TIP3 H1   HT     0.417000        1.0080           0
   93444 WT6  803  TIP3 H2   HT     0.417000        1.0080           0
   93445 WT6  804  TIP3 OH2  OT    -0.834000       15.9994           0
   93446 WT6  804  TIP3 H1   HT     0.417000        1.0080           0
   93447 WT6  804  TIP3 H2   HT     0.417000        1.0080           0
   93448 WT6  806  TIP3 OH2  OT    -0.834000       15.9994           0
   93449 WT6  806  TIP3 H1   HT     0.417000        1.0080           0
   93450 WT6  806  TIP3 H2   HT     0.417000        1.0080           0
   93451 WT6  807  TIP3 OH2  OT    -0.834000       15.9994           0
   93452 WT6  807  TIP3 H1   HT     0.417000        1.0080           0
   93453 WT6  807  TIP3 H2   HT     0.417000        1.0080           0
   93454 WT6  808  TIP3 OH2  OT    -0.834000       15.9994           0
   93455 WT6  808  TIP3 H1   HT     0.417000        1.0080           0
   93456 WT6  808  TIP3 H2   HT     0.417000        1.0080           0
   93457 WT6  809  TIP3 OH2  OT    -0.834000       15.9994           0
   93458 WT6  809  TIP3 H1   HT     0.417000        1.0080           0
   93459 WT6  809  TIP3 H2   HT     0.417000        1.0080           0
   93460 WT6  810  TIP3 OH2  OT    -0.834000       15.9994           0
   93461 WT6  810  TIP3 H1   HT     0.417000        1.0080           0
   93462 WT6  810  TIP3 H2   HT     0.417000        1.0080           0
   93463 WT6  811  TIP3 OH2  OT    -0.834000       15.9994           0
   93464 WT6  811  TIP3 H1   HT     0.417000        1.0080           0
   93465 WT6  811  TIP3 H2   HT     0.417000        1.0080           0
   93466 WT6  813  TIP3 OH2  OT    -0.834000       15.9994           0
   93467 WT6  813  TIP3 H1   HT     0.417000        1.0080           0
   93468 WT6  813  TIP3 H2   HT     0.417000        1.0080           0
   93469 WT6  817  TIP3 OH2  OT    -0.834000       15.9994           0
   93470 WT6  817  TIP3 H1   HT     0.417000        1.0080           0
   93471 WT6  817  TIP3 H2   HT     0.417000        1.0080           0
   93472 WT6  822  TIP3 OH2  OT    -0.834000       15.9994           0
   93473 WT6  822  TIP3 H1   HT     0.417000        1.0080           0
   93474 WT6  822  TIP3 H2   HT     0.417000        1.0080           0
   93475 WT6  824  TIP3 OH2  OT    -0.834000       15.9994           0
   93476 WT6  824  TIP3 H1   HT     0.417000        1.0080           0
   93477 WT6  824  TIP3 H2   HT     0.417000        1.0080           0
   93478 WT6  827  TIP3 OH2  OT    -0.834000       15.9994           0
   93479 WT6  827  TIP3 H1   HT     0.417000        1.0080           0
   93480 WT6  827  TIP3 H2   HT     0.417000        1.0080           0
   93481 WT6  828  TIP3 OH2  OT    -0.834000       15.9994           0
   93482 WT6  828  TIP3 H1   HT     0.417000        1.0080           0
   93483 WT6  828  TIP3 H2   HT     0.417000        1.0080           0
   93484 WT6  829  TIP3 OH2  OT    -0.834000       15.9994           0
   93485 WT6  829  TIP3 H1   HT     0.417000        1.0080           0
   93486 WT6  829  TIP3 H2   HT     0.417000        1.0080           0
   93487 WT6  830  TIP3 OH2  OT    -0.834000       15.9994           0
   93488 WT6  830  TIP3 H1   HT     0.417000        1.0080           0
   93489 WT6  830  TIP3 H2   HT     0.417000        1.0080           0
   93490 WT6  831  TIP3 OH2  OT    -0.834000       15.9994           0
   93491 WT6  831  TIP3 H1   HT     0.417000        1.0080           0
   93492 WT6  831  TIP3 H2   HT     0.417000        1.0080           0
   93493 WT6  832  TIP3 OH2  OT    -0.834000       15.9994           0
   93494 WT6  832  TIP3 H1   HT     0.417000        1.0080           0
   93495 WT6  832  TIP3 H2   HT     0.417000        1.0080           0
   93496 WT6  843  TIP3 OH2  OT    -0.834000       15.9994           0
   93497 WT6  843  TIP3 H1   HT     0.417000        1.0080           0
   93498 WT6  843  TIP3 H2   HT     0.417000        1.0080           0
   93499 WT6  846  TIP3 OH2  OT    -0.834000       15.9994           0
   93500 WT6  846  TIP3 H1   HT     0.417000        1.0080           0
   93501 WT6  846  TIP3 H2   HT     0.417000        1.0080           0
   93502 WT6  847  TIP3 OH2  OT    -0.834000       15.9994           0
   93503 WT6  847  TIP3 H1   HT     0.417000        1.0080           0
   93504 WT6  847  TIP3 H2   HT     0.417000        1.0080           0
   93505 WT6  849  TIP3 OH2  OT    -0.834000       15.9994           0
   93506 WT6  849  TIP3 H1   HT     0.417000        1.0080           0
   93507 WT6  849  TIP3 H2   HT     0.417000        1.0080           0
   93508 WT6  850  TIP3 OH2  OT    -0.834000       15.9994           0
   93509 WT6  850  TIP3 H1   HT     0.417000        1.0080           0
   93510 WT6  850  TIP3 H2   HT     0.417000        1.0080           0
   93511 WT6  851  TIP3 OH2  OT    -0.834000       15.9994           0
   93512 WT6  851  TIP3 H1   HT     0.417000        1.0080           0
   93513 WT6  851  TIP3 H2   HT     0.417000        1.0080           0
   93514 WT6  852  TIP3 OH2  OT    -0.834000       15.9994           0
   93515 WT6  852  TIP3 H1   HT     0.417000        1.0080           0
   93516 WT6  852  TIP3 H2   HT     0.417000        1.0080           0
   93517 WT6  854  TIP3 OH2  OT    -0.834000       15.9994           0
   93518 WT6  854  TIP3 H1   HT     0.417000        1.0080           0
   93519 WT6  854  TIP3 H2   HT     0.417000        1.0080           0
   93520 WT6  862  TIP3 OH2  OT    -0.834000       15.9994           0
   93521 WT6  862  TIP3 H1   HT     0.417000        1.0080           0
   93522 WT6  862  TIP3 H2   HT     0.417000        1.0080           0
   93523 WT6  865  TIP3 OH2  OT    -0.834000       15.9994           0
   93524 WT6  865  TIP3 H1   HT     0.417000        1.0080           0
   93525 WT6  865  TIP3 H2   HT     0.417000        1.0080           0
   93526 WT6  867  TIP3 OH2  OT    -0.834000       15.9994           0
   93527 WT6  867  TIP3 H1   HT     0.417000        1.0080           0
   93528 WT6  867  TIP3 H2   HT     0.417000        1.0080           0
   93529 WT6  869  TIP3 OH2  OT    -0.834000       15.9994           0
   93530 WT6  869  TIP3 H1   HT     0.417000        1.0080           0
   93531 WT6  869  TIP3 H2   HT     0.417000        1.0080           0
   93532 WT6  870  TIP3 OH2  OT    -0.834000       15.9994           0
   93533 WT6  870  TIP3 H1   HT     0.417000        1.0080           0
   93534 WT6  870  TIP3 H2   HT     0.417000        1.0080           0
   93535 WT6  873  TIP3 OH2  OT    -0.834000       15.9994           0
   93536 WT6  873  TIP3 H1   HT     0.417000        1.0080           0
   93537 WT6  873  TIP3 H2   HT     0.417000        1.0080           0
   93538 WT6  875  TIP3 OH2  OT    -0.834000       15.9994           0
   93539 WT6  875  TIP3 H1   HT     0.417000        1.0080           0
   93540 WT6  875  TIP3 H2   HT     0.417000        1.0080           0
   93541 WT6  878  TIP3 OH2  OT    -0.834000       15.9994           0
   93542 WT6  878  TIP3 H1   HT     0.417000        1.0080           0
   93543 WT6  878  TIP3 H2   HT     0.417000        1.0080           0
   93544 WT6  880  TIP3 OH2  OT    -0.834000       15.9994           0
   93545 WT6  880  TIP3 H1   HT     0.417000        1.0080           0
   93546 WT6  880  TIP3 H2   HT     0.417000        1.0080           0
   93547 WT6  883  TIP3 OH2  OT    -0.834000       15.9994           0
   93548 WT6  883  TIP3 H1   HT     0.417000        1.0080           0
   93549 WT6  883  TIP3 H2   HT     0.417000        1.0080           0
   93550 WT6  885  TIP3 OH2  OT    -0.834000       15.9994           0
   93551 WT6  885  TIP3 H1   HT     0.417000        1.0080           0
   93552 WT6  885  TIP3 H2   HT     0.417000        1.0080           0
   93553 WT6  887  TIP3 OH2  OT    -0.834000       15.9994           0
   93554 WT6  887  TIP3 H1   HT     0.417000        1.0080           0
   93555 WT6  887  TIP3 H2   HT     0.417000        1.0080           0
   93556 WT6  888  TIP3 OH2  OT    -0.834000       15.9994           0
   93557 WT6  888  TIP3 H1   HT     0.417000        1.0080           0
   93558 WT6  888  TIP3 H2   HT     0.417000        1.0080           0
   93559 WT6  889  TIP3 OH2  OT    -0.834000       15.9994           0
   93560 WT6  889  TIP3 H1   HT     0.417000        1.0080           0
   93561 WT6  889  TIP3 H2   HT     0.417000        1.0080           0
   93562 WT6  891  TIP3 OH2  OT    -0.834000       15.9994           0
   93563 WT6  891  TIP3 H1   HT     0.417000        1.0080           0
   93564 WT6  891  TIP3 H2   HT     0.417000        1.0080           0
   93565 WT6  892  TIP3 OH2  OT    -0.834000       15.9994           0
   93566 WT6  892  TIP3 H1   HT     0.417000        1.0080           0
   93567 WT6  892  TIP3 H2   HT     0.417000        1.0080           0
   93568 WT6  894  TIP3 OH2  OT    -0.834000       15.9994           0
   93569 WT6  894  TIP3 H1   HT     0.417000        1.0080           0
   93570 WT6  894  TIP3 H2   HT     0.417000        1.0080           0
   93571 WT6  895  TIP3 OH2  OT    -0.834000       15.9994           0
   93572 WT6  895  TIP3 H1   HT     0.417000        1.0080           0
   93573 WT6  895  TIP3 H2   HT     0.417000        1.0080           0
   93574 WT6  897  TIP3 OH2  OT    -0.834000       15.9994           0
   93575 WT6  897  TIP3 H1   HT     0.417000        1.0080           0
   93576 WT6  897  TIP3 H2   HT     0.417000        1.0080           0
   93577 WT6  902  TIP3 OH2  OT    -0.834000       15.9994           0
   93578 WT6  902  TIP3 H1   HT     0.417000        1.0080           0
   93579 WT6  902  TIP3 H2   HT     0.417000        1.0080           0
   93580 WT6  905  TIP3 OH2  OT    -0.834000       15.9994           0
   93581 WT6  905  TIP3 H1   HT     0.417000        1.0080           0
   93582 WT6  905  TIP3 H2   HT     0.417000        1.0080           0
   93583 WT6  906  TIP3 OH2  OT    -0.834000       15.9994           0
   93584 WT6  906  TIP3 H1   HT     0.417000        1.0080           0
   93585 WT6  906  TIP3 H2   HT     0.417000        1.0080           0
   93586 WT6  907  TIP3 OH2  OT    -0.834000       15.9994           0
   93587 WT6  907  TIP3 H1   HT     0.417000        1.0080           0
   93588 WT6  907  TIP3 H2   HT     0.417000        1.0080           0
   93589 WT6  908  TIP3 OH2  OT    -0.834000       15.9994           0
   93590 WT6  908  TIP3 H1   HT     0.417000        1.0080           0
   93591 WT6  908  TIP3 H2   HT     0.417000        1.0080           0
   93592 WT6  909  TIP3 OH2  OT    -0.834000       15.9994           0
   93593 WT6  909  TIP3 H1   HT     0.417000        1.0080           0
   93594 WT6  909  TIP3 H2   HT     0.417000        1.0080           0
   93595 WT6  910  TIP3 OH2  OT    -0.834000       15.9994           0
   93596 WT6  910  TIP3 H1   HT     0.417000        1.0080           0
   93597 WT6  910  TIP3 H2   HT     0.417000        1.0080           0
   93598 WT6  911  TIP3 OH2  OT    -0.834000       15.9994           0
   93599 WT6  911  TIP3 H1   HT     0.417000        1.0080           0
   93600 WT6  911  TIP3 H2   HT     0.417000        1.0080           0
   93601 WT6  912  TIP3 OH2  OT    -0.834000       15.9994           0
   93602 WT6  912  TIP3 H1   HT     0.417000        1.0080           0
   93603 WT6  912  TIP3 H2   HT     0.417000        1.0080           0
   93604 WT6  913  TIP3 OH2  OT    -0.834000       15.9994           0
   93605 WT6  913  TIP3 H1   HT     0.417000        1.0080           0
   93606 WT6  913  TIP3 H2   HT     0.417000        1.0080           0
   93607 WT6  914  TIP3 OH2  OT    -0.834000       15.9994           0
   93608 WT6  914  TIP3 H1   HT     0.417000        1.0080           0
   93609 WT6  914  TIP3 H2   HT     0.417000        1.0080           0
   93610 WT6  915  TIP3 OH2  OT    -0.834000       15.9994           0
   93611 WT6  915  TIP3 H1   HT     0.417000        1.0080           0
   93612 WT6  915  TIP3 H2   HT     0.417000        1.0080           0
   93613 WT6  916  TIP3 OH2  OT    -0.834000       15.9994           0
   93614 WT6  916  TIP3 H1   HT     0.417000        1.0080           0
   93615 WT6  916  TIP3 H2   HT     0.417000        1.0080           0
   93616 WT6  924  TIP3 OH2  OT    -0.834000       15.9994           0
   93617 WT6  924  TIP3 H1   HT     0.417000        1.0080           0
   93618 WT6  924  TIP3 H2   HT     0.417000        1.0080           0
   93619 WT6  925  TIP3 OH2  OT    -0.834000       15.9994           0
   93620 WT6  925  TIP3 H1   HT     0.417000        1.0080           0
   93621 WT6  925  TIP3 H2   HT     0.417000        1.0080           0
   93622 WT6  926  TIP3 OH2  OT    -0.834000       15.9994           0
   93623 WT6  926  TIP3 H1   HT     0.417000        1.0080           0
   93624 WT6  926  TIP3 H2   HT     0.417000        1.0080           0
   93625 WT6  927  TIP3 OH2  OT    -0.834000       15.9994           0
   93626 WT6  927  TIP3 H1   HT     0.417000        1.0080           0
   93627 WT6  927  TIP3 H2   HT     0.417000        1.0080           0
   93628 WT6  928  TIP3 OH2  OT    -0.834000       15.9994           0
   93629 WT6  928  TIP3 H1   HT     0.417000        1.0080           0
   93630 WT6  928  TIP3 H2   HT     0.417000        1.0080           0
   93631 WT6  929  TIP3 OH2  OT    -0.834000       15.9994           0
   93632 WT6  929  TIP3 H1   HT     0.417000        1.0080           0
   93633 WT6  929  TIP3 H2   HT     0.417000        1.0080           0
   93634 WT6  930  TIP3 OH2  OT    -0.834000       15.9994           0
   93635 WT6  930  TIP3 H1   HT     0.417000        1.0080           0
   93636 WT6  930  TIP3 H2   HT     0.417000        1.0080           0
   93637 WT6  931  TIP3 OH2  OT    -0.834000       15.9994           0
   93638 WT6  931  TIP3 H1   HT     0.417000        1.0080           0
   93639 WT6  931  TIP3 H2   HT     0.417000        1.0080           0
   93640 WT6  932  TIP3 OH2  OT    -0.834000       15.9994           0
   93641 WT6  932  TIP3 H1   HT     0.417000        1.0080           0
   93642 WT6  932  TIP3 H2   HT     0.417000        1.0080           0
   93643 WT6  933  TIP3 OH2  OT    -0.834000       15.9994           0
   93644 WT6  933  TIP3 H1   HT     0.417000        1.0080           0
   93645 WT6  933  TIP3 H2   HT     0.417000        1.0080           0
   93646 WT6  934  TIP3 OH2  OT    -0.834000       15.9994           0
   93647 WT6  934  TIP3 H1   HT     0.417000        1.0080           0
   93648 WT6  934  TIP3 H2   HT     0.417000        1.0080           0
   93649 WT6  935  TIP3 OH2  OT    -0.834000       15.9994           0
   93650 WT6  935  TIP3 H1   HT     0.417000        1.0080           0
   93651 WT6  935  TIP3 H2   HT     0.417000        1.0080           0
   93652 WT6  936  TIP3 OH2  OT    -0.834000       15.9994           0
   93653 WT6  936  TIP3 H1   HT     0.417000        1.0080           0
   93654 WT6  936  TIP3 H2   HT     0.417000        1.0080           0
   93655 WT6  940  TIP3 OH2  OT    -0.834000       15.9994           0
   93656 WT6  940  TIP3 H1   HT     0.417000        1.0080           0
   93657 WT6  940  TIP3 H2   HT     0.417000        1.0080           0
   93658 WT6  941  TIP3 OH2  OT    -0.834000       15.9994           0
   93659 WT6  941  TIP3 H1   HT     0.417000        1.0080           0
   93660 WT6  941  TIP3 H2   HT     0.417000        1.0080           0
   93661 WT6  942  TIP3 OH2  OT    -0.834000       15.9994           0
   93662 WT6  942  TIP3 H1   HT     0.417000        1.0080           0
   93663 WT6  942  TIP3 H2   HT     0.417000        1.0080           0
   93664 WT6  947  TIP3 OH2  OT    -0.834000       15.9994           0
   93665 WT6  947  TIP3 H1   HT     0.417000        1.0080           0
   93666 WT6  947  TIP3 H2   HT     0.417000        1.0080           0
   93667 WT6  948  TIP3 OH2  OT    -0.834000       15.9994           0
   93668 WT6  948  TIP3 H1   HT     0.417000        1.0080           0
   93669 WT6  948  TIP3 H2   HT     0.417000        1.0080           0
   93670 WT6  949  TIP3 OH2  OT    -0.834000       15.9994           0
   93671 WT6  949  TIP3 H1   HT     0.417000        1.0080           0
   93672 WT6  949  TIP3 H2   HT     0.417000        1.0080           0
   93673 WT6  950  TIP3 OH2  OT    -0.834000       15.9994           0
   93674 WT6  950  TIP3 H1   HT     0.417000        1.0080           0
   93675 WT6  950  TIP3 H2   HT     0.417000        1.0080           0
   93676 WT6  951  TIP3 OH2  OT    -0.834000       15.9994           0
   93677 WT6  951  TIP3 H1   HT     0.417000        1.0080           0
   93678 WT6  951  TIP3 H2   HT     0.417000        1.0080           0
   93679 WT6  952  TIP3 OH2  OT    -0.834000       15.9994           0
   93680 WT6  952  TIP3 H1   HT     0.417000        1.0080           0
   93681 WT6  952  TIP3 H2   HT     0.417000        1.0080           0
   93682 WT6  953  TIP3 OH2  OT    -0.834000       15.9994           0
   93683 WT6  953  TIP3 H1   HT     0.417000        1.0080           0
   93684 WT6  953  TIP3 H2   HT     0.417000        1.0080           0
   93685 WT6  954  TIP3 OH2  OT    -0.834000       15.9994           0
   93686 WT6  954  TIP3 H1   HT     0.417000        1.0080           0
   93687 WT6  954  TIP3 H2   HT     0.417000        1.0080           0
   93688 WT6  955  TIP3 OH2  OT    -0.834000       15.9994           0
   93689 WT6  955  TIP3 H1   HT     0.417000        1.0080           0
   93690 WT6  955  TIP3 H2   HT     0.417000        1.0080           0
   93691 WT6  964  TIP3 OH2  OT    -0.834000       15.9994           0
   93692 WT6  964  TIP3 H1   HT     0.417000        1.0080           0
   93693 WT6  964  TIP3 H2   HT     0.417000        1.0080           0
   93694 WT6  968  TIP3 OH2  OT    -0.834000       15.9994           0
   93695 WT6  968  TIP3 H1   HT     0.417000        1.0080           0
   93696 WT6  968  TIP3 H2   HT     0.417000        1.0080           0
   93697 WT6  969  TIP3 OH2  OT    -0.834000       15.9994           0
   93698 WT6  969  TIP3 H1   HT     0.417000        1.0080           0
   93699 WT6  969  TIP3 H2   HT     0.417000        1.0080           0
   93700 WT6  970  TIP3 OH2  OT    -0.834000       15.9994           0
   93701 WT6  970  TIP3 H1   HT     0.417000        1.0080           0
   93702 WT6  970  TIP3 H2   HT     0.417000        1.0080           0
   93703 WT6  972  TIP3 OH2  OT    -0.834000       15.9994           0
   93704 WT6  972  TIP3 H1   HT     0.417000        1.0080           0
   93705 WT6  972  TIP3 H2   HT     0.417000        1.0080           0
   93706 WT6  973  TIP3 OH2  OT    -0.834000       15.9994           0
   93707 WT6  973  TIP3 H1   HT     0.417000        1.0080           0
   93708 WT6  973  TIP3 H2   HT     0.417000        1.0080           0
   93709 WT6  974  TIP3 OH2  OT    -0.834000       15.9994           0
   93710 WT6  974  TIP3 H1   HT     0.417000        1.0080           0
   93711 WT6  974  TIP3 H2   HT     0.417000        1.0080           0
   93712 WT6  975  TIP3 OH2  OT    -0.834000       15.9994           0
   93713 WT6  975  TIP3 H1   HT     0.417000        1.0080           0
   93714 WT6  975  TIP3 H2   HT     0.417000        1.0080           0
   93715 WT6  977  TIP3 OH2  OT    -0.834000       15.9994           0
   93716 WT6  977  TIP3 H1   HT     0.417000        1.0080           0
   93717 WT6  977  TIP3 H2   HT     0.417000        1.0080           0
   93718 WT6  978  TIP3 OH2  OT    -0.834000       15.9994           0
   93719 WT6  978  TIP3 H1   HT     0.417000        1.0080           0
   93720 WT6  978  TIP3 H2   HT     0.417000        1.0080           0
   93721 WT6  985  TIP3 OH2  OT    -0.834000       15.9994           0
   93722 WT6  985  TIP3 H1   HT     0.417000        1.0080           0
   93723 WT6  985  TIP3 H2   HT     0.417000        1.0080           0
   93724 WT6  987  TIP3 OH2  OT    -0.834000       15.9994           0
   93725 WT6  987  TIP3 H1   HT     0.417000        1.0080           0
   93726 WT6  987  TIP3 H2   HT     0.417000        1.0080           0
   93727 WT6  988  TIP3 OH2  OT    -0.834000       15.9994           0
   93728 WT6  988  TIP3 H1   HT     0.417000        1.0080           0
   93729 WT6  988  TIP3 H2   HT     0.417000        1.0080           0
   93730 WT6  989  TIP3 OH2  OT    -0.834000       15.9994           0
   93731 WT6  989  TIP3 H1   HT     0.417000        1.0080           0
   93732 WT6  989  TIP3 H2   HT     0.417000        1.0080           0
   93733 WT6  990  TIP3 OH2  OT    -0.834000       15.9994           0
   93734 WT6  990  TIP3 H1   HT     0.417000        1.0080           0
   93735 WT6  990  TIP3 H2   HT     0.417000        1.0080           0
   93736 WT6  991  TIP3 OH2  OT    -0.834000       15.9994           0
   93737 WT6  991  TIP3 H1   HT     0.417000        1.0080           0
   93738 WT6  991  TIP3 H2   HT     0.417000        1.0080           0
   93739 WT6  992  TIP3 OH2  OT    -0.834000       15.9994           0
   93740 WT6  992  TIP3 H1   HT     0.417000        1.0080           0
   93741 WT6  992  TIP3 H2   HT     0.417000        1.0080           0
   93742 WT6  994  TIP3 OH2  OT    -0.834000       15.9994           0
   93743 WT6  994  TIP3 H1   HT     0.417000        1.0080           0
   93744 WT6  994  TIP3 H2   HT     0.417000        1.0080           0
   93745 WT6  995  TIP3 OH2  OT    -0.834000       15.9994           0
   93746 WT6  995  TIP3 H1   HT     0.417000        1.0080           0
   93747 WT6  995  TIP3 H2   HT     0.417000        1.0080           0
   93748 WT6  996  TIP3 OH2  OT    -0.834000       15.9994           0
   93749 WT6  996  TIP3 H1   HT     0.417000        1.0080           0
   93750 WT6  996  TIP3 H2   HT     0.417000        1.0080           0
   93751 WT6  998  TIP3 OH2  OT    -0.834000       15.9994           0
   93752 WT6  998  TIP3 H1   HT     0.417000        1.0080           0
   93753 WT6  998  TIP3 H2   HT     0.417000        1.0080           0
   93754 WT6  1007 TIP3 OH2  OT    -0.834000       15.9994           0
   93755 WT6  1007 TIP3 H1   HT     0.417000        1.0080           0
   93756 WT6  1007 TIP3 H2   HT     0.417000        1.0080           0
   93757 WT6  1011 TIP3 OH2  OT    -0.834000       15.9994           0
   93758 WT6  1011 TIP3 H1   HT     0.417000        1.0080           0
   93759 WT6  1011 TIP3 H2   HT     0.417000        1.0080           0
   93760 WT6  1012 TIP3 OH2  OT    -0.834000       15.9994           0
   93761 WT6  1012 TIP3 H1   HT     0.417000        1.0080           0
   93762 WT6  1012 TIP3 H2   HT     0.417000        1.0080           0
   93763 WT6  1013 TIP3 OH2  OT    -0.834000       15.9994           0
   93764 WT6  1013 TIP3 H1   HT     0.417000        1.0080           0
   93765 WT6  1013 TIP3 H2   HT     0.417000        1.0080           0
   93766 WT6  1014 TIP3 OH2  OT    -0.834000       15.9994           0
   93767 WT6  1014 TIP3 H1   HT     0.417000        1.0080           0
   93768 WT6  1014 TIP3 H2   HT     0.417000        1.0080           0
   93769 WT6  1015 TIP3 OH2  OT    -0.834000       15.9994           0
   93770 WT6  1015 TIP3 H1   HT     0.417000        1.0080           0
   93771 WT6  1015 TIP3 H2   HT     0.417000        1.0080           0
   93772 WT6  1017 TIP3 OH2  OT    -0.834000       15.9994           0
   93773 WT6  1017 TIP3 H1   HT     0.417000        1.0080           0
   93774 WT6  1017 TIP3 H2   HT     0.417000        1.0080           0
   93775 WT6  1018 TIP3 OH2  OT    -0.834000       15.9994           0
   93776 WT6  1018 TIP3 H1   HT     0.417000        1.0080           0
   93777 WT6  1018 TIP3 H2   HT     0.417000        1.0080           0
   93778 WT6  1020 TIP3 OH2  OT    -0.834000       15.9994           0
   93779 WT6  1020 TIP3 H1   HT     0.417000        1.0080           0
   93780 WT6  1020 TIP3 H2   HT     0.417000        1.0080           0
   93781 WT6  1022 TIP3 OH2  OT    -0.834000       15.9994           0
   93782 WT6  1022 TIP3 H1   HT     0.417000        1.0080           0
   93783 WT6  1022 TIP3 H2   HT     0.417000        1.0080           0
   93784 WT6  1023 TIP3 OH2  OT    -0.834000       15.9994           0
   93785 WT6  1023 TIP3 H1   HT     0.417000        1.0080           0
   93786 WT6  1023 TIP3 H2   HT     0.417000        1.0080           0
   93787 WT6  1027 TIP3 OH2  OT    -0.834000       15.9994           0
   93788 WT6  1027 TIP3 H1   HT     0.417000        1.0080           0
   93789 WT6  1027 TIP3 H2   HT     0.417000        1.0080           0
   93790 WT6  1032 TIP3 OH2  OT    -0.834000       15.9994           0
   93791 WT6  1032 TIP3 H1   HT     0.417000        1.0080           0
   93792 WT6  1032 TIP3 H2   HT     0.417000        1.0080           0
   93793 WT6  1033 TIP3 OH2  OT    -0.834000       15.9994           0
   93794 WT6  1033 TIP3 H1   HT     0.417000        1.0080           0
   93795 WT6  1033 TIP3 H2   HT     0.417000        1.0080           0
   93796 WT6  1039 TIP3 OH2  OT    -0.834000       15.9994           0
   93797 WT6  1039 TIP3 H1   HT     0.417000        1.0080           0
   93798 WT6  1039 TIP3 H2   HT     0.417000        1.0080           0
   93799 WT6  1040 TIP3 OH2  OT    -0.834000       15.9994           0
   93800 WT6  1040 TIP3 H1   HT     0.417000        1.0080           0
   93801 WT6  1040 TIP3 H2   HT     0.417000        1.0080           0
   93802 WT6  1042 TIP3 OH2  OT    -0.834000       15.9994           0
   93803 WT6  1042 TIP3 H1   HT     0.417000        1.0080           0
   93804 WT6  1042 TIP3 H2   HT     0.417000        1.0080           0
   93805 WT6  1043 TIP3 OH2  OT    -0.834000       15.9994           0
   93806 WT6  1043 TIP3 H1   HT     0.417000        1.0080           0
   93807 WT6  1043 TIP3 H2   HT     0.417000        1.0080           0
   93808 WT6  1053 TIP3 OH2  OT    -0.834000       15.9994           0
   93809 WT6  1053 TIP3 H1   HT     0.417000        1.0080           0
   93810 WT6  1053 TIP3 H2   HT     0.417000        1.0080           0
   93811 WT6  1054 TIP3 OH2  OT    -0.834000       15.9994           0
   93812 WT6  1054 TIP3 H1   HT     0.417000        1.0080           0
   93813 WT6  1054 TIP3 H2   HT     0.417000        1.0080           0
   93814 WT6  1055 TIP3 OH2  OT    -0.834000       15.9994           0
   93815 WT6  1055 TIP3 H1   HT     0.417000        1.0080           0
   93816 WT6  1055 TIP3 H2   HT     0.417000        1.0080           0
   93817 WT6  1056 TIP3 OH2  OT    -0.834000       15.9994           0
   93818 WT6  1056 TIP3 H1   HT     0.417000        1.0080           0
   93819 WT6  1056 TIP3 H2   HT     0.417000        1.0080           0
   93820 WT6  1057 TIP3 OH2  OT    -0.834000       15.9994           0
   93821 WT6  1057 TIP3 H1   HT     0.417000        1.0080           0
   93822 WT6  1057 TIP3 H2   HT     0.417000        1.0080           0
   93823 WT6  1058 TIP3 OH2  OT    -0.834000       15.9994           0
   93824 WT6  1058 TIP3 H1   HT     0.417000        1.0080           0
   93825 WT6  1058 TIP3 H2   HT     0.417000        1.0080           0
   93826 WT6  1059 TIP3 OH2  OT    -0.834000       15.9994           0
   93827 WT6  1059 TIP3 H1   HT     0.417000        1.0080           0
   93828 WT6  1059 TIP3 H2   HT     0.417000        1.0080           0
   93829 WT6  1060 TIP3 OH2  OT    -0.834000       15.9994           0
   93830 WT6  1060 TIP3 H1   HT     0.417000        1.0080           0
   93831 WT6  1060 TIP3 H2   HT     0.417000        1.0080           0
   93832 WT6  1061 TIP3 OH2  OT    -0.834000       15.9994           0
   93833 WT6  1061 TIP3 H1   HT     0.417000        1.0080           0
   93834 WT6  1061 TIP3 H2   HT     0.417000        1.0080           0
   93835 WT6  1062 TIP3 OH2  OT    -0.834000       15.9994           0
   93836 WT6  1062 TIP3 H1   HT     0.417000        1.0080           0
   93837 WT6  1062 TIP3 H2   HT     0.417000        1.0080           0
   93838 WT6  1063 TIP3 OH2  OT    -0.834000       15.9994           0
   93839 WT6  1063 TIP3 H1   HT     0.417000        1.0080           0
   93840 WT6  1063 TIP3 H2   HT     0.417000        1.0080           0
   93841 WT6  1065 TIP3 OH2  OT    -0.834000       15.9994           0
   93842 WT6  1065 TIP3 H1   HT     0.417000        1.0080           0
   93843 WT6  1065 TIP3 H2   HT     0.417000        1.0080           0
   93844 WT6  1066 TIP3 OH2  OT    -0.834000       15.9994           0
   93845 WT6  1066 TIP3 H1   HT     0.417000        1.0080           0
   93846 WT6  1066 TIP3 H2   HT     0.417000        1.0080           0
   93847 WT6  1072 TIP3 OH2  OT    -0.834000       15.9994           0
   93848 WT6  1072 TIP3 H1   HT     0.417000        1.0080           0
   93849 WT6  1072 TIP3 H2   HT     0.417000        1.0080           0
   93850 WT6  1075 TIP3 OH2  OT    -0.834000       15.9994           0
   93851 WT6  1075 TIP3 H1   HT     0.417000        1.0080           0
   93852 WT6  1075 TIP3 H2   HT     0.417000        1.0080           0
   93853 WT6  1076 TIP3 OH2  OT    -0.834000       15.9994           0
   93854 WT6  1076 TIP3 H1   HT     0.417000        1.0080           0
   93855 WT6  1076 TIP3 H2   HT     0.417000        1.0080           0
   93856 WT6  1077 TIP3 OH2  OT    -0.834000       15.9994           0
   93857 WT6  1077 TIP3 H1   HT     0.417000        1.0080           0
   93858 WT6  1077 TIP3 H2   HT     0.417000        1.0080           0
   93859 WT6  1078 TIP3 OH2  OT    -0.834000       15.9994           0
   93860 WT6  1078 TIP3 H1   HT     0.417000        1.0080           0
   93861 WT6  1078 TIP3 H2   HT     0.417000        1.0080           0
   93862 WT6  1079 TIP3 OH2  OT    -0.834000       15.9994           0
   93863 WT6  1079 TIP3 H1   HT     0.417000        1.0080           0
   93864 WT6  1079 TIP3 H2   HT     0.417000        1.0080           0
   93865 WT6  1080 TIP3 OH2  OT    -0.834000       15.9994           0
   93866 WT6  1080 TIP3 H1   HT     0.417000        1.0080           0
   93867 WT6  1080 TIP3 H2   HT     0.417000        1.0080           0
   93868 WT6  1081 TIP3 OH2  OT    -0.834000       15.9994           0
   93869 WT6  1081 TIP3 H1   HT     0.417000        1.0080           0
   93870 WT6  1081 TIP3 H2   HT     0.417000        1.0080           0
   93871 WT6  1082 TIP3 OH2  OT    -0.834000       15.9994           0
   93872 WT6  1082 TIP3 H1   HT     0.417000        1.0080           0
   93873 WT6  1082 TIP3 H2   HT     0.417000        1.0080           0
   93874 WT6  1083 TIP3 OH2  OT    -0.834000       15.9994           0
   93875 WT6  1083 TIP3 H1   HT     0.417000        1.0080           0
   93876 WT6  1083 TIP3 H2   HT     0.417000        1.0080           0
   93877 WT6  1085 TIP3 OH2  OT    -0.834000       15.9994           0
   93878 WT6  1085 TIP3 H1   HT     0.417000        1.0080           0
   93879 WT6  1085 TIP3 H2   HT     0.417000        1.0080           0
   93880 WT6  1090 TIP3 OH2  OT    -0.834000       15.9994           0
   93881 WT6  1090 TIP3 H1   HT     0.417000        1.0080           0
   93882 WT6  1090 TIP3 H2   HT     0.417000        1.0080           0
   93883 WT6  1096 TIP3 OH2  OT    -0.834000       15.9994           0
   93884 WT6  1096 TIP3 H1   HT     0.417000        1.0080           0
   93885 WT6  1096 TIP3 H2   HT     0.417000        1.0080           0
   93886 WT6  1097 TIP3 OH2  OT    -0.834000       15.9994           0
   93887 WT6  1097 TIP3 H1   HT     0.417000        1.0080           0
   93888 WT6  1097 TIP3 H2   HT     0.417000        1.0080           0
   93889 WT6  1098 TIP3 OH2  OT    -0.834000       15.9994           0
   93890 WT6  1098 TIP3 H1   HT     0.417000        1.0080           0
   93891 WT6  1098 TIP3 H2   HT     0.417000        1.0080           0
   93892 WT6  1099 TIP3 OH2  OT    -0.834000       15.9994           0
   93893 WT6  1099 TIP3 H1   HT     0.417000        1.0080           0
   93894 WT6  1099 TIP3 H2   HT     0.417000        1.0080           0
   93895 WT6  1100 TIP3 OH2  OT    -0.834000       15.9994           0
   93896 WT6  1100 TIP3 H1   HT     0.417000        1.0080           0
   93897 WT6  1100 TIP3 H2   HT     0.417000        1.0080           0
   93898 WT6  1101 TIP3 OH2  OT    -0.834000       15.9994           0
   93899 WT6  1101 TIP3 H1   HT     0.417000        1.0080           0
   93900 WT6  1101 TIP3 H2   HT     0.417000        1.0080           0
   93901 WT6  1102 TIP3 OH2  OT    -0.834000       15.9994           0
   93902 WT6  1102 TIP3 H1   HT     0.417000        1.0080           0
   93903 WT6  1102 TIP3 H2   HT     0.417000        1.0080           0
   93904 WT6  1103 TIP3 OH2  OT    -0.834000       15.9994           0
   93905 WT6  1103 TIP3 H1   HT     0.417000        1.0080           0
   93906 WT6  1103 TIP3 H2   HT     0.417000        1.0080           0
   93907 WT6  1104 TIP3 OH2  OT    -0.834000       15.9994           0
   93908 WT6  1104 TIP3 H1   HT     0.417000        1.0080           0
   93909 WT6  1104 TIP3 H2   HT     0.417000        1.0080           0
   93910 WT6  1105 TIP3 OH2  OT    -0.834000       15.9994           0
   93911 WT6  1105 TIP3 H1   HT     0.417000        1.0080           0
   93912 WT6  1105 TIP3 H2   HT     0.417000        1.0080           0
   93913 WT6  1107 TIP3 OH2  OT    -0.834000       15.9994           0
   93914 WT6  1107 TIP3 H1   HT     0.417000        1.0080           0
   93915 WT6  1107 TIP3 H2   HT     0.417000        1.0080           0
   93916 WT6  1112 TIP3 OH2  OT    -0.834000       15.9994           0
   93917 WT6  1112 TIP3 H1   HT     0.417000        1.0080           0
   93918 WT6  1112 TIP3 H2   HT     0.417000        1.0080           0
   93919 WT6  1113 TIP3 OH2  OT    -0.834000       15.9994           0
   93920 WT6  1113 TIP3 H1   HT     0.417000        1.0080           0
   93921 WT6  1113 TIP3 H2   HT     0.417000        1.0080           0
   93922 WT6  1115 TIP3 OH2  OT    -0.834000       15.9994           0
   93923 WT6  1115 TIP3 H1   HT     0.417000        1.0080           0
   93924 WT6  1115 TIP3 H2   HT     0.417000        1.0080           0
   93925 WT6  1116 TIP3 OH2  OT    -0.834000       15.9994           0
   93926 WT6  1116 TIP3 H1   HT     0.417000        1.0080           0
   93927 WT6  1116 TIP3 H2   HT     0.417000        1.0080           0
   93928 WT6  1117 TIP3 OH2  OT    -0.834000       15.9994           0
   93929 WT6  1117 TIP3 H1   HT     0.417000        1.0080           0
   93930 WT6  1117 TIP3 H2   HT     0.417000        1.0080           0
   93931 WT6  1118 TIP3 OH2  OT    -0.834000       15.9994           0
   93932 WT6  1118 TIP3 H1   HT     0.417000        1.0080           0
   93933 WT6  1118 TIP3 H2   HT     0.417000        1.0080           0
   93934 WT6  1120 TIP3 OH2  OT    -0.834000       15.9994           0
   93935 WT6  1120 TIP3 H1   HT     0.417000        1.0080           0
   93936 WT6  1120 TIP3 H2   HT     0.417000        1.0080           0
   93937 WT6  1121 TIP3 OH2  OT    -0.834000       15.9994           0
   93938 WT6  1121 TIP3 H1   HT     0.417000        1.0080           0
   93939 WT6  1121 TIP3 H2   HT     0.417000        1.0080           0
   93940 WT6  1122 TIP3 OH2  OT    -0.834000       15.9994           0
   93941 WT6  1122 TIP3 H1   HT     0.417000        1.0080           0
   93942 WT6  1122 TIP3 H2   HT     0.417000        1.0080           0
   93943 WT6  1123 TIP3 OH2  OT    -0.834000       15.9994           0
   93944 WT6  1123 TIP3 H1   HT     0.417000        1.0080           0
   93945 WT6  1123 TIP3 H2   HT     0.417000        1.0080           0
   93946 WT6  1125 TIP3 OH2  OT    -0.834000       15.9994           0
   93947 WT6  1125 TIP3 H1   HT     0.417000        1.0080           0
   93948 WT6  1125 TIP3 H2   HT     0.417000        1.0080           0
   93949 WT6  1128 TIP3 OH2  OT    -0.834000       15.9994           0
   93950 WT6  1128 TIP3 H1   HT     0.417000        1.0080           0
   93951 WT6  1128 TIP3 H2   HT     0.417000        1.0080           0
   93952 WT6  1134 TIP3 OH2  OT    -0.834000       15.9994           0
   93953 WT6  1134 TIP3 H1   HT     0.417000        1.0080           0
   93954 WT6  1134 TIP3 H2   HT     0.417000        1.0080           0
   93955 WT6  1135 TIP3 OH2  OT    -0.834000       15.9994           0
   93956 WT6  1135 TIP3 H1   HT     0.417000        1.0080           0
   93957 WT6  1135 TIP3 H2   HT     0.417000        1.0080           0
   93958 WT6  1138 TIP3 OH2  OT    -0.834000       15.9994           0
   93959 WT6  1138 TIP3 H1   HT     0.417000        1.0080           0
   93960 WT6  1138 TIP3 H2   HT     0.417000        1.0080           0
   93961 WT6  1139 TIP3 OH2  OT    -0.834000       15.9994           0
   93962 WT6  1139 TIP3 H1   HT     0.417000        1.0080           0
   93963 WT6  1139 TIP3 H2   HT     0.417000        1.0080           0
   93964 WT6  1140 TIP3 OH2  OT    -0.834000       15.9994           0
   93965 WT6  1140 TIP3 H1   HT     0.417000        1.0080           0
   93966 WT6  1140 TIP3 H2   HT     0.417000        1.0080           0
   93967 WT6  1142 TIP3 OH2  OT    -0.834000       15.9994           0
   93968 WT6  1142 TIP3 H1   HT     0.417000        1.0080           0
   93969 WT6  1142 TIP3 H2   HT     0.417000        1.0080           0
   93970 WT6  1144 TIP3 OH2  OT    -0.834000       15.9994           0
   93971 WT6  1144 TIP3 H1   HT     0.417000        1.0080           0
   93972 WT6  1144 TIP3 H2   HT     0.417000        1.0080           0
   93973 WT6  1145 TIP3 OH2  OT    -0.834000       15.9994           0
   93974 WT6  1145 TIP3 H1   HT     0.417000        1.0080           0
   93975 WT6  1145 TIP3 H2   HT     0.417000        1.0080           0
   93976 WT6  1147 TIP3 OH2  OT    -0.834000       15.9994           0
   93977 WT6  1147 TIP3 H1   HT     0.417000        1.0080           0
   93978 WT6  1147 TIP3 H2   HT     0.417000        1.0080           0
   93979 WT6  1148 TIP3 OH2  OT    -0.834000       15.9994           0
   93980 WT6  1148 TIP3 H1   HT     0.417000        1.0080           0
   93981 WT6  1148 TIP3 H2   HT     0.417000        1.0080           0
   93982 WT6  1150 TIP3 OH2  OT    -0.834000       15.9994           0
   93983 WT6  1150 TIP3 H1   HT     0.417000        1.0080           0
   93984 WT6  1150 TIP3 H2   HT     0.417000        1.0080           0
   93985 WT6  1155 TIP3 OH2  OT    -0.834000       15.9994           0
   93986 WT6  1155 TIP3 H1   HT     0.417000        1.0080           0
   93987 WT6  1155 TIP3 H2   HT     0.417000        1.0080           0
   93988 WT6  1157 TIP3 OH2  OT    -0.834000       15.9994           0
   93989 WT6  1157 TIP3 H1   HT     0.417000        1.0080           0
   93990 WT6  1157 TIP3 H2   HT     0.417000        1.0080           0
   93991 WT6  1158 TIP3 OH2  OT    -0.834000       15.9994           0
   93992 WT6  1158 TIP3 H1   HT     0.417000        1.0080           0
   93993 WT6  1158 TIP3 H2   HT     0.417000        1.0080           0
   93994 WT6  1160 TIP3 OH2  OT    -0.834000       15.9994           0
   93995 WT6  1160 TIP3 H1   HT     0.417000        1.0080           0
   93996 WT6  1160 TIP3 H2   HT     0.417000        1.0080           0
   93997 WT6  1161 TIP3 OH2  OT    -0.834000       15.9994           0
   93998 WT6  1161 TIP3 H1   HT     0.417000        1.0080           0
   93999 WT6  1161 TIP3 H2   HT     0.417000        1.0080           0
   94000 WT6  1162 TIP3 OH2  OT    -0.834000       15.9994           0
   94001 WT6  1162 TIP3 H1   HT     0.417000        1.0080           0
   94002 WT6  1162 TIP3 H2   HT     0.417000        1.0080           0
   94003 WT6  1163 TIP3 OH2  OT    -0.834000       15.9994           0
   94004 WT6  1163 TIP3 H1   HT     0.417000        1.0080           0
   94005 WT6  1163 TIP3 H2   HT     0.417000        1.0080           0
   94006 WT6  1164 TIP3 OH2  OT    -0.834000       15.9994           0
   94007 WT6  1164 TIP3 H1   HT     0.417000        1.0080           0
   94008 WT6  1164 TIP3 H2   HT     0.417000        1.0080           0
   94009 WT6  1166 TIP3 OH2  OT    -0.834000       15.9994           0
   94010 WT6  1166 TIP3 H1   HT     0.417000        1.0080           0
   94011 WT6  1166 TIP3 H2   HT     0.417000        1.0080           0
   94012 WT6  1167 TIP3 OH2  OT    -0.834000       15.9994           0
   94013 WT6  1167 TIP3 H1   HT     0.417000        1.0080           0
   94014 WT6  1167 TIP3 H2   HT     0.417000        1.0080           0
   94015 WT6  1177 TIP3 OH2  OT    -0.834000       15.9994           0
   94016 WT6  1177 TIP3 H1   HT     0.417000        1.0080           0
   94017 WT6  1177 TIP3 H2   HT     0.417000        1.0080           0
   94018 WT6  1178 TIP3 OH2  OT    -0.834000       15.9994           0
   94019 WT6  1178 TIP3 H1   HT     0.417000        1.0080           0
   94020 WT6  1178 TIP3 H2   HT     0.417000        1.0080           0
   94021 WT6  1179 TIP3 OH2  OT    -0.834000       15.9994           0
   94022 WT6  1179 TIP3 H1   HT     0.417000        1.0080           0
   94023 WT6  1179 TIP3 H2   HT     0.417000        1.0080           0
   94024 WT6  1180 TIP3 OH2  OT    -0.834000       15.9994           0
   94025 WT6  1180 TIP3 H1   HT     0.417000        1.0080           0
   94026 WT6  1180 TIP3 H2   HT     0.417000        1.0080           0
   94027 WT6  1181 TIP3 OH2  OT    -0.834000       15.9994           0
   94028 WT6  1181 TIP3 H1   HT     0.417000        1.0080           0
   94029 WT6  1181 TIP3 H2   HT     0.417000        1.0080           0
   94030 WT6  1182 TIP3 OH2  OT    -0.834000       15.9994           0
   94031 WT6  1182 TIP3 H1   HT     0.417000        1.0080           0
   94032 WT6  1182 TIP3 H2   HT     0.417000        1.0080           0
   94033 WT6  1183 TIP3 OH2  OT    -0.834000       15.9994           0
   94034 WT6  1183 TIP3 H1   HT     0.417000        1.0080           0
   94035 WT6  1183 TIP3 H2   HT     0.417000        1.0080           0
   94036 WT6  1184 TIP3 OH2  OT    -0.834000       15.9994           0
   94037 WT6  1184 TIP3 H1   HT     0.417000        1.0080           0
   94038 WT6  1184 TIP3 H2   HT     0.417000        1.0080           0
   94039 WT6  1186 TIP3 OH2  OT    -0.834000       15.9994           0
   94040 WT6  1186 TIP3 H1   HT     0.417000        1.0080           0
   94041 WT6  1186 TIP3 H2   HT     0.417000        1.0080           0
   94042 WT6  1187 TIP3 OH2  OT    -0.834000       15.9994           0
   94043 WT6  1187 TIP3 H1   HT     0.417000        1.0080           0
   94044 WT6  1187 TIP3 H2   HT     0.417000        1.0080           0
   94045 WT6  1188 TIP3 OH2  OT    -0.834000       15.9994           0
   94046 WT6  1188 TIP3 H1   HT     0.417000        1.0080           0
   94047 WT6  1188 TIP3 H2   HT     0.417000        1.0080           0
   94048 WT6  1197 TIP3 OH2  OT    -0.834000       15.9994           0
   94049 WT6  1197 TIP3 H1   HT     0.417000        1.0080           0
   94050 WT6  1197 TIP3 H2   HT     0.417000        1.0080           0
   94051 WT6  1200 TIP3 OH2  OT    -0.834000       15.9994           0
   94052 WT6  1200 TIP3 H1   HT     0.417000        1.0080           0
   94053 WT6  1200 TIP3 H2   HT     0.417000        1.0080           0
   94054 WT6  1201 TIP3 OH2  OT    -0.834000       15.9994           0
   94055 WT6  1201 TIP3 H1   HT     0.417000        1.0080           0
   94056 WT6  1201 TIP3 H2   HT     0.417000        1.0080           0
   94057 WT6  1202 TIP3 OH2  OT    -0.834000       15.9994           0
   94058 WT6  1202 TIP3 H1   HT     0.417000        1.0080           0
   94059 WT6  1202 TIP3 H2   HT     0.417000        1.0080           0
   94060 WT6  1204 TIP3 OH2  OT    -0.834000       15.9994           0
   94061 WT6  1204 TIP3 H1   HT     0.417000        1.0080           0
   94062 WT6  1204 TIP3 H2   HT     0.417000        1.0080           0
   94063 WT6  1206 TIP3 OH2  OT    -0.834000       15.9994           0
   94064 WT6  1206 TIP3 H1   HT     0.417000        1.0080           0
   94065 WT6  1206 TIP3 H2   HT     0.417000        1.0080           0
   94066 WT6  1207 TIP3 OH2  OT    -0.834000       15.9994           0
   94067 WT6  1207 TIP3 H1   HT     0.417000        1.0080           0
   94068 WT6  1207 TIP3 H2   HT     0.417000        1.0080           0
   94069 WT6  1208 TIP3 OH2  OT    -0.834000       15.9994           0
   94070 WT6  1208 TIP3 H1   HT     0.417000        1.0080           0
   94071 WT6  1208 TIP3 H2   HT     0.417000        1.0080           0
   94072 WT6  1211 TIP3 OH2  OT    -0.834000       15.9994           0
   94073 WT6  1211 TIP3 H1   HT     0.417000        1.0080           0
   94074 WT6  1211 TIP3 H2   HT     0.417000        1.0080           0
   94075 WT6  1212 TIP3 OH2  OT    -0.834000       15.9994           0
   94076 WT6  1212 TIP3 H1   HT     0.417000        1.0080           0
   94077 WT6  1212 TIP3 H2   HT     0.417000        1.0080           0
   94078 WT6  1214 TIP3 OH2  OT    -0.834000       15.9994           0
   94079 WT6  1214 TIP3 H1   HT     0.417000        1.0080           0
   94080 WT6  1214 TIP3 H2   HT     0.417000        1.0080           0
   94081 WT6  1215 TIP3 OH2  OT    -0.834000       15.9994           0
   94082 WT6  1215 TIP3 H1   HT     0.417000        1.0080           0
   94083 WT6  1215 TIP3 H2   HT     0.417000        1.0080           0
   94084 WT6  1217 TIP3 OH2  OT    -0.834000       15.9994           0
   94085 WT6  1217 TIP3 H1   HT     0.417000        1.0080           0
   94086 WT6  1217 TIP3 H2   HT     0.417000        1.0080           0
   94087 WT6  1219 TIP3 OH2  OT    -0.834000       15.9994           0
   94088 WT6  1219 TIP3 H1   HT     0.417000        1.0080           0
   94089 WT6  1219 TIP3 H2   HT     0.417000        1.0080           0
   94090 WT6  1220 TIP3 OH2  OT    -0.834000       15.9994           0
   94091 WT6  1220 TIP3 H1   HT     0.417000        1.0080           0
   94092 WT6  1220 TIP3 H2   HT     0.417000        1.0080           0
   94093 WT6  1222 TIP3 OH2  OT    -0.834000       15.9994           0
   94094 WT6  1222 TIP3 H1   HT     0.417000        1.0080           0
   94095 WT6  1222 TIP3 H2   HT     0.417000        1.0080           0
   94096 WT6  1223 TIP3 OH2  OT    -0.834000       15.9994           0
   94097 WT6  1223 TIP3 H1   HT     0.417000        1.0080           0
   94098 WT6  1223 TIP3 H2   HT     0.417000        1.0080           0
   94099 WT6  1224 TIP3 OH2  OT    -0.834000       15.9994           0
   94100 WT6  1224 TIP3 H1   HT     0.417000        1.0080           0
   94101 WT6  1224 TIP3 H2   HT     0.417000        1.0080           0
   94102 WT6  1225 TIP3 OH2  OT    -0.834000       15.9994           0
   94103 WT6  1225 TIP3 H1   HT     0.417000        1.0080           0
   94104 WT6  1225 TIP3 H2   HT     0.417000        1.0080           0
   94105 WT6  1226 TIP3 OH2  OT    -0.834000       15.9994           0
   94106 WT6  1226 TIP3 H1   HT     0.417000        1.0080           0
   94107 WT6  1226 TIP3 H2   HT     0.417000        1.0080           0
   94108 WT6  1229 TIP3 OH2  OT    -0.834000       15.9994           0
   94109 WT6  1229 TIP3 H1   HT     0.417000        1.0080           0
   94110 WT6  1229 TIP3 H2   HT     0.417000        1.0080           0
   94111 WT6  1230 TIP3 OH2  OT    -0.834000       15.9994           0
   94112 WT6  1230 TIP3 H1   HT     0.417000        1.0080           0
   94113 WT6  1230 TIP3 H2   HT     0.417000        1.0080           0
   94114 WT6  1240 TIP3 OH2  OT    -0.834000       15.9994           0
   94115 WT6  1240 TIP3 H1   HT     0.417000        1.0080           0
   94116 WT6  1240 TIP3 H2   HT     0.417000        1.0080           0
   94117 WT6  1241 TIP3 OH2  OT    -0.834000       15.9994           0
   94118 WT6  1241 TIP3 H1   HT     0.417000        1.0080           0
   94119 WT6  1241 TIP3 H2   HT     0.417000        1.0080           0
   94120 WT6  1242 TIP3 OH2  OT    -0.834000       15.9994           0
   94121 WT6  1242 TIP3 H1   HT     0.417000        1.0080           0
   94122 WT6  1242 TIP3 H2   HT     0.417000        1.0080           0
   94123 WT6  1244 TIP3 OH2  OT    -0.834000       15.9994           0
   94124 WT6  1244 TIP3 H1   HT     0.417000        1.0080           0
   94125 WT6  1244 TIP3 H2   HT     0.417000        1.0080           0
   94126 WT6  1247 TIP3 OH2  OT    -0.834000       15.9994           0
   94127 WT6  1247 TIP3 H1   HT     0.417000        1.0080           0
   94128 WT6  1247 TIP3 H2   HT     0.417000        1.0080           0
   94129 WT6  1248 TIP3 OH2  OT    -0.834000       15.9994           0
   94130 WT6  1248 TIP3 H1   HT     0.417000        1.0080           0
   94131 WT6  1248 TIP3 H2   HT     0.417000        1.0080           0
   94132 WT6  1249 TIP3 OH2  OT    -0.834000       15.9994           0
   94133 WT6  1249 TIP3 H1   HT     0.417000        1.0080           0
   94134 WT6  1249 TIP3 H2   HT     0.417000        1.0080           0
   94135 WT6  1251 TIP3 OH2  OT    -0.834000       15.9994           0
   94136 WT6  1251 TIP3 H1   HT     0.417000        1.0080           0
   94137 WT6  1251 TIP3 H2   HT     0.417000        1.0080           0
   94138 WT6  1252 TIP3 OH2  OT    -0.834000       15.9994           0
   94139 WT6  1252 TIP3 H1   HT     0.417000        1.0080           0
   94140 WT6  1252 TIP3 H2   HT     0.417000        1.0080           0
   94141 WT6  1256 TIP3 OH2  OT    -0.834000       15.9994           0
   94142 WT6  1256 TIP3 H1   HT     0.417000        1.0080           0
   94143 WT6  1256 TIP3 H2   HT     0.417000        1.0080           0
   94144 WT6  1258 TIP3 OH2  OT    -0.834000       15.9994           0
   94145 WT6  1258 TIP3 H1   HT     0.417000        1.0080           0
   94146 WT6  1258 TIP3 H2   HT     0.417000        1.0080           0
   94147 WT6  1263 TIP3 OH2  OT    -0.834000       15.9994           0
   94148 WT6  1263 TIP3 H1   HT     0.417000        1.0080           0
   94149 WT6  1263 TIP3 H2   HT     0.417000        1.0080           0
   94150 WT6  1265 TIP3 OH2  OT    -0.834000       15.9994           0
   94151 WT6  1265 TIP3 H1   HT     0.417000        1.0080           0
   94152 WT6  1265 TIP3 H2   HT     0.417000        1.0080           0
   94153 WT6  1266 TIP3 OH2  OT    -0.834000       15.9994           0
   94154 WT6  1266 TIP3 H1   HT     0.417000        1.0080           0
   94155 WT6  1266 TIP3 H2   HT     0.417000        1.0080           0
   94156 WT6  1267 TIP3 OH2  OT    -0.834000       15.9994           0
   94157 WT6  1267 TIP3 H1   HT     0.417000        1.0080           0
   94158 WT6  1267 TIP3 H2   HT     0.417000        1.0080           0
   94159 WT6  1269 TIP3 OH2  OT    -0.834000       15.9994           0
   94160 WT6  1269 TIP3 H1   HT     0.417000        1.0080           0
   94161 WT6  1269 TIP3 H2   HT     0.417000        1.0080           0
   94162 WT6  1270 TIP3 OH2  OT    -0.834000       15.9994           0
   94163 WT6  1270 TIP3 H1   HT     0.417000        1.0080           0
   94164 WT6  1270 TIP3 H2   HT     0.417000        1.0080           0
   94165 WT6  1271 TIP3 OH2  OT    -0.834000       15.9994           0
   94166 WT6  1271 TIP3 H1   HT     0.417000        1.0080           0
   94167 WT6  1271 TIP3 H2   HT     0.417000        1.0080           0
   94168 WT6  1272 TIP3 OH2  OT    -0.834000       15.9994           0
   94169 WT6  1272 TIP3 H1   HT     0.417000        1.0080           0
   94170 WT6  1272 TIP3 H2   HT     0.417000        1.0080           0
   94171 WT6  1274 TIP3 OH2  OT    -0.834000       15.9994           0
   94172 WT6  1274 TIP3 H1   HT     0.417000        1.0080           0
   94173 WT6  1274 TIP3 H2   HT     0.417000        1.0080           0
   94174 WT6  1278 TIP3 OH2  OT    -0.834000       15.9994           0
   94175 WT6  1278 TIP3 H1   HT     0.417000        1.0080           0
   94176 WT6  1278 TIP3 H2   HT     0.417000        1.0080           0
   94177 WT6  1281 TIP3 OH2  OT    -0.834000       15.9994           0
   94178 WT6  1281 TIP3 H1   HT     0.417000        1.0080           0
   94179 WT6  1281 TIP3 H2   HT     0.417000        1.0080           0
   94180 WT6  1284 TIP3 OH2  OT    -0.834000       15.9994           0
   94181 WT6  1284 TIP3 H1   HT     0.417000        1.0080           0
   94182 WT6  1284 TIP3 H2   HT     0.417000        1.0080           0
   94183 WT6  1285 TIP3 OH2  OT    -0.834000       15.9994           0
   94184 WT6  1285 TIP3 H1   HT     0.417000        1.0080           0
   94185 WT6  1285 TIP3 H2   HT     0.417000        1.0080           0
   94186 WT6  1287 TIP3 OH2  OT    -0.834000       15.9994           0
   94187 WT6  1287 TIP3 H1   HT     0.417000        1.0080           0
   94188 WT6  1287 TIP3 H2   HT     0.417000        1.0080           0
   94189 WT6  1289 TIP3 OH2  OT    -0.834000       15.9994           0
   94190 WT6  1289 TIP3 H1   HT     0.417000        1.0080           0
   94191 WT6  1289 TIP3 H2   HT     0.417000        1.0080           0
   94192 WT6  1290 TIP3 OH2  OT    -0.834000       15.9994           0
   94193 WT6  1290 TIP3 H1   HT     0.417000        1.0080           0
   94194 WT6  1290 TIP3 H2   HT     0.417000        1.0080           0
   94195 WT6  1291 TIP3 OH2  OT    -0.834000       15.9994           0
   94196 WT6  1291 TIP3 H1   HT     0.417000        1.0080           0
   94197 WT6  1291 TIP3 H2   HT     0.417000        1.0080           0
   94198 WT6  1293 TIP3 OH2  OT    -0.834000       15.9994           0
   94199 WT6  1293 TIP3 H1   HT     0.417000        1.0080           0
   94200 WT6  1293 TIP3 H2   HT     0.417000        1.0080           0
   94201 WT6  1295 TIP3 OH2  OT    -0.834000       15.9994           0
   94202 WT6  1295 TIP3 H1   HT     0.417000        1.0080           0
   94203 WT6  1295 TIP3 H2   HT     0.417000        1.0080           0
   94204 WT6  1297 TIP3 OH2  OT    -0.834000       15.9994           0
   94205 WT6  1297 TIP3 H1   HT     0.417000        1.0080           0
   94206 WT6  1297 TIP3 H2   HT     0.417000        1.0080           0
   94207 WT6  1298 TIP3 OH2  OT    -0.834000       15.9994           0
   94208 WT6  1298 TIP3 H1   HT     0.417000        1.0080           0
   94209 WT6  1298 TIP3 H2   HT     0.417000        1.0080           0
   94210 WT6  1301 TIP3 OH2  OT    -0.834000       15.9994           0
   94211 WT6  1301 TIP3 H1   HT     0.417000        1.0080           0
   94212 WT6  1301 TIP3 H2   HT     0.417000        1.0080           0
   94213 WT6  1303 TIP3 OH2  OT    -0.834000       15.9994           0
   94214 WT6  1303 TIP3 H1   HT     0.417000        1.0080           0
   94215 WT6  1303 TIP3 H2   HT     0.417000        1.0080           0
   94216 WT6  1306 TIP3 OH2  OT    -0.834000       15.9994           0
   94217 WT6  1306 TIP3 H1   HT     0.417000        1.0080           0
   94218 WT6  1306 TIP3 H2   HT     0.417000        1.0080           0
   94219 WT6  1307 TIP3 OH2  OT    -0.834000       15.9994           0
   94220 WT6  1307 TIP3 H1   HT     0.417000        1.0080           0
   94221 WT6  1307 TIP3 H2   HT     0.417000        1.0080           0
   94222 WT6  1308 TIP3 OH2  OT    -0.834000       15.9994           0
   94223 WT6  1308 TIP3 H1   HT     0.417000        1.0080           0
   94224 WT6  1308 TIP3 H2   HT     0.417000        1.0080           0
   94225 WT6  1309 TIP3 OH2  OT    -0.834000       15.9994           0
   94226 WT6  1309 TIP3 H1   HT     0.417000        1.0080           0
   94227 WT6  1309 TIP3 H2   HT     0.417000        1.0080           0
   94228 WT6  1311 TIP3 OH2  OT    -0.834000       15.9994           0
   94229 WT6  1311 TIP3 H1   HT     0.417000        1.0080           0
   94230 WT6  1311 TIP3 H2   HT     0.417000        1.0080           0
   94231 WT6  1312 TIP3 OH2  OT    -0.834000       15.9994           0
   94232 WT6  1312 TIP3 H1   HT     0.417000        1.0080           0
   94233 WT6  1312 TIP3 H2   HT     0.417000        1.0080           0
   94234 WT6  1313 TIP3 OH2  OT    -0.834000       15.9994           0
   94235 WT6  1313 TIP3 H1   HT     0.417000        1.0080           0
   94236 WT6  1313 TIP3 H2   HT     0.417000        1.0080           0
   94237 WT6  1316 TIP3 OH2  OT    -0.834000       15.9994           0
   94238 WT6  1316 TIP3 H1   HT     0.417000        1.0080           0
   94239 WT6  1316 TIP3 H2   HT     0.417000        1.0080           0
   94240 WT6  1317 TIP3 OH2  OT    -0.834000       15.9994           0
   94241 WT6  1317 TIP3 H1   HT     0.417000        1.0080           0
   94242 WT6  1317 TIP3 H2   HT     0.417000        1.0080           0
   94243 WT6  1324 TIP3 OH2  OT    -0.834000       15.9994           0
   94244 WT6  1324 TIP3 H1   HT     0.417000        1.0080           0
   94245 WT6  1324 TIP3 H2   HT     0.417000        1.0080           0
   94246 WT6  1326 TIP3 OH2  OT    -0.834000       15.9994           0
   94247 WT6  1326 TIP3 H1   HT     0.417000        1.0080           0
   94248 WT6  1326 TIP3 H2   HT     0.417000        1.0080           0
   94249 WT6  1327 TIP3 OH2  OT    -0.834000       15.9994           0
   94250 WT6  1327 TIP3 H1   HT     0.417000        1.0080           0
   94251 WT6  1327 TIP3 H2   HT     0.417000        1.0080           0
   94252 WT6  1328 TIP3 OH2  OT    -0.834000       15.9994           0
   94253 WT6  1328 TIP3 H1   HT     0.417000        1.0080           0
   94254 WT6  1328 TIP3 H2   HT     0.417000        1.0080           0
   94255 WT6  1329 TIP3 OH2  OT    -0.834000       15.9994           0
   94256 WT6  1329 TIP3 H1   HT     0.417000        1.0080           0
   94257 WT6  1329 TIP3 H2   HT     0.417000        1.0080           0
   94258 WT6  1330 TIP3 OH2  OT    -0.834000       15.9994           0
   94259 WT6  1330 TIP3 H1   HT     0.417000        1.0080           0
   94260 WT6  1330 TIP3 H2   HT     0.417000        1.0080           0
   94261 WT6  1332 TIP3 OH2  OT    -0.834000       15.9994           0
   94262 WT6  1332 TIP3 H1   HT     0.417000        1.0080           0
   94263 WT6  1332 TIP3 H2   HT     0.417000        1.0080           0
   94264 WT6  1333 TIP3 OH2  OT    -0.834000       15.9994           0
   94265 WT6  1333 TIP3 H1   HT     0.417000        1.0080           0
   94266 WT6  1333 TIP3 H2   HT     0.417000        1.0080           0
   94267 WT6  1334 TIP3 OH2  OT    -0.834000       15.9994           0
   94268 WT6  1334 TIP3 H1   HT     0.417000        1.0080           0
   94269 WT6  1334 TIP3 H2   HT     0.417000        1.0080           0
   94270 WT6  1335 TIP3 OH2  OT    -0.834000       15.9994           0
   94271 WT6  1335 TIP3 H1   HT     0.417000        1.0080           0
   94272 WT6  1335 TIP3 H2   HT     0.417000        1.0080           0
   94273 WT6  1336 TIP3 OH2  OT    -0.834000       15.9994           0
   94274 WT6  1336 TIP3 H1   HT     0.417000        1.0080           0
   94275 WT6  1336 TIP3 H2   HT     0.417000        1.0080           0
   94276 WT6  1337 TIP3 OH2  OT    -0.834000       15.9994           0
   94277 WT6  1337 TIP3 H1   HT     0.417000        1.0080           0
   94278 WT6  1337 TIP3 H2   HT     0.417000        1.0080           0
   94279 WT6  1344 TIP3 OH2  OT    -0.834000       15.9994           0
   94280 WT6  1344 TIP3 H1   HT     0.417000        1.0080           0
   94281 WT6  1344 TIP3 H2   HT     0.417000        1.0080           0
   94282 WT6  1345 TIP3 OH2  OT    -0.834000       15.9994           0
   94283 WT6  1345 TIP3 H1   HT     0.417000        1.0080           0
   94284 WT6  1345 TIP3 H2   HT     0.417000        1.0080           0
   94285 WT6  1346 TIP3 OH2  OT    -0.834000       15.9994           0
   94286 WT6  1346 TIP3 H1   HT     0.417000        1.0080           0
   94287 WT6  1346 TIP3 H2   HT     0.417000        1.0080           0
   94288 WT6  1347 TIP3 OH2  OT    -0.834000       15.9994           0
   94289 WT6  1347 TIP3 H1   HT     0.417000        1.0080           0
   94290 WT6  1347 TIP3 H2   HT     0.417000        1.0080           0
   94291 WT6  1349 TIP3 OH2  OT    -0.834000       15.9994           0
   94292 WT6  1349 TIP3 H1   HT     0.417000        1.0080           0
   94293 WT6  1349 TIP3 H2   HT     0.417000        1.0080           0
   94294 WT6  1352 TIP3 OH2  OT    -0.834000       15.9994           0
   94295 WT6  1352 TIP3 H1   HT     0.417000        1.0080           0
   94296 WT6  1352 TIP3 H2   HT     0.417000        1.0080           0
   94297 WT6  1353 TIP3 OH2  OT    -0.834000       15.9994           0
   94298 WT6  1353 TIP3 H1   HT     0.417000        1.0080           0
   94299 WT6  1353 TIP3 H2   HT     0.417000        1.0080           0
   94300 WT6  1354 TIP3 OH2  OT    -0.834000       15.9994           0
   94301 WT6  1354 TIP3 H1   HT     0.417000        1.0080           0
   94302 WT6  1354 TIP3 H2   HT     0.417000        1.0080           0
   94303 WT6  1355 TIP3 OH2  OT    -0.834000       15.9994           0
   94304 WT6  1355 TIP3 H1   HT     0.417000        1.0080           0
   94305 WT6  1355 TIP3 H2   HT     0.417000        1.0080           0
   94306 WT6  1356 TIP3 OH2  OT    -0.834000       15.9994           0
   94307 WT6  1356 TIP3 H1   HT     0.417000        1.0080           0
   94308 WT6  1356 TIP3 H2   HT     0.417000        1.0080           0
   94309 WT6  1357 TIP3 OH2  OT    -0.834000       15.9994           0
   94310 WT6  1357 TIP3 H1   HT     0.417000        1.0080           0
   94311 WT6  1357 TIP3 H2   HT     0.417000        1.0080           0
   94312 WT6  1361 TIP3 OH2  OT    -0.834000       15.9994           0
   94313 WT6  1361 TIP3 H1   HT     0.417000        1.0080           0
   94314 WT6  1361 TIP3 H2   HT     0.417000        1.0080           0
   94315 WT6  1367 TIP3 OH2  OT    -0.834000       15.9994           0
   94316 WT6  1367 TIP3 H1   HT     0.417000        1.0080           0
   94317 WT6  1367 TIP3 H2   HT     0.417000        1.0080           0
   94318 WT6  1368 TIP3 OH2  OT    -0.834000       15.9994           0
   94319 WT6  1368 TIP3 H1   HT     0.417000        1.0080           0
   94320 WT6  1368 TIP3 H2   HT     0.417000        1.0080           0
   94321 WT6  1370 TIP3 OH2  OT    -0.834000       15.9994           0
   94322 WT6  1370 TIP3 H1   HT     0.417000        1.0080           0
   94323 WT6  1370 TIP3 H2   HT     0.417000        1.0080           0
   94324 WT6  1371 TIP3 OH2  OT    -0.834000       15.9994           0
   94325 WT6  1371 TIP3 H1   HT     0.417000        1.0080           0
   94326 WT6  1371 TIP3 H2   HT     0.417000        1.0080           0
   94327 WT6  1372 TIP3 OH2  OT    -0.834000       15.9994           0
   94328 WT6  1372 TIP3 H1   HT     0.417000        1.0080           0
   94329 WT6  1372 TIP3 H2   HT     0.417000        1.0080           0
   94330 WT6  1373 TIP3 OH2  OT    -0.834000       15.9994           0
   94331 WT6  1373 TIP3 H1   HT     0.417000        1.0080           0
   94332 WT6  1373 TIP3 H2   HT     0.417000        1.0080           0
   94333 WT6  1374 TIP3 OH2  OT    -0.834000       15.9994           0
   94334 WT6  1374 TIP3 H1   HT     0.417000        1.0080           0
   94335 WT6  1374 TIP3 H2   HT     0.417000        1.0080           0
   94336 WT6  1376 TIP3 OH2  OT    -0.834000       15.9994           0
   94337 WT6  1376 TIP3 H1   HT     0.417000        1.0080           0
   94338 WT6  1376 TIP3 H2   HT     0.417000        1.0080           0
   94339 WT6  1379 TIP3 OH2  OT    -0.834000       15.9994           0
   94340 WT6  1379 TIP3 H1   HT     0.417000        1.0080           0
   94341 WT6  1379 TIP3 H2   HT     0.417000        1.0080           0
   94342 WT6  1380 TIP3 OH2  OT    -0.834000       15.9994           0
   94343 WT6  1380 TIP3 H1   HT     0.417000        1.0080           0
   94344 WT6  1380 TIP3 H2   HT     0.417000        1.0080           0
   94345 WT6  1385 TIP3 OH2  OT    -0.834000       15.9994           0
   94346 WT6  1385 TIP3 H1   HT     0.417000        1.0080           0
   94347 WT6  1385 TIP3 H2   HT     0.417000        1.0080           0
   94348 WT6  1387 TIP3 OH2  OT    -0.834000       15.9994           0
   94349 WT6  1387 TIP3 H1   HT     0.417000        1.0080           0
   94350 WT6  1387 TIP3 H2   HT     0.417000        1.0080           0
   94351 WT6  1388 TIP3 OH2  OT    -0.834000       15.9994           0
   94352 WT6  1388 TIP3 H1   HT     0.417000        1.0080           0
   94353 WT6  1388 TIP3 H2   HT     0.417000        1.0080           0
   94354 WT6  1389 TIP3 OH2  OT    -0.834000       15.9994           0
   94355 WT6  1389 TIP3 H1   HT     0.417000        1.0080           0
   94356 WT6  1389 TIP3 H2   HT     0.417000        1.0080           0
   94357 WT6  1392 TIP3 OH2  OT    -0.834000       15.9994           0
   94358 WT6  1392 TIP3 H1   HT     0.417000        1.0080           0
   94359 WT6  1392 TIP3 H2   HT     0.417000        1.0080           0
   94360 WT6  1394 TIP3 OH2  OT    -0.834000       15.9994           0
   94361 WT6  1394 TIP3 H1   HT     0.417000        1.0080           0
   94362 WT6  1394 TIP3 H2   HT     0.417000        1.0080           0
   94363 WT6  1395 TIP3 OH2  OT    -0.834000       15.9994           0
   94364 WT6  1395 TIP3 H1   HT     0.417000        1.0080           0
   94365 WT6  1395 TIP3 H2   HT     0.417000        1.0080           0
   94366 WT6  1396 TIP3 OH2  OT    -0.834000       15.9994           0
   94367 WT6  1396 TIP3 H1   HT     0.417000        1.0080           0
   94368 WT6  1396 TIP3 H2   HT     0.417000        1.0080           0
   94369 WT6  1398 TIP3 OH2  OT    -0.834000       15.9994           0
   94370 WT6  1398 TIP3 H1   HT     0.417000        1.0080           0
   94371 WT6  1398 TIP3 H2   HT     0.417000        1.0080           0
   94372 WT6  1401 TIP3 OH2  OT    -0.834000       15.9994           0
   94373 WT6  1401 TIP3 H1   HT     0.417000        1.0080           0
   94374 WT6  1401 TIP3 H2   HT     0.417000        1.0080           0
   94375 WT6  1407 TIP3 OH2  OT    -0.834000       15.9994           0
   94376 WT6  1407 TIP3 H1   HT     0.417000        1.0080           0
   94377 WT6  1407 TIP3 H2   HT     0.417000        1.0080           0
   94378 WT6  1408 TIP3 OH2  OT    -0.834000       15.9994           0
   94379 WT6  1408 TIP3 H1   HT     0.417000        1.0080           0
   94380 WT6  1408 TIP3 H2   HT     0.417000        1.0080           0
   94381 WT6  1411 TIP3 OH2  OT    -0.834000       15.9994           0
   94382 WT6  1411 TIP3 H1   HT     0.417000        1.0080           0
   94383 WT6  1411 TIP3 H2   HT     0.417000        1.0080           0
   94384 WT6  1412 TIP3 OH2  OT    -0.834000       15.9994           0
   94385 WT6  1412 TIP3 H1   HT     0.417000        1.0080           0
   94386 WT6  1412 TIP3 H2   HT     0.417000        1.0080           0
   94387 WT6  1413 TIP3 OH2  OT    -0.834000       15.9994           0
   94388 WT6  1413 TIP3 H1   HT     0.417000        1.0080           0
   94389 WT6  1413 TIP3 H2   HT     0.417000        1.0080           0
   94390 WT6  1414 TIP3 OH2  OT    -0.834000       15.9994           0
   94391 WT6  1414 TIP3 H1   HT     0.417000        1.0080           0
   94392 WT6  1414 TIP3 H2   HT     0.417000        1.0080           0
   94393 WT6  1415 TIP3 OH2  OT    -0.834000       15.9994           0
   94394 WT6  1415 TIP3 H1   HT     0.417000        1.0080           0
   94395 WT6  1415 TIP3 H2   HT     0.417000        1.0080           0
   94396 WT6  1416 TIP3 OH2  OT    -0.834000       15.9994           0
   94397 WT6  1416 TIP3 H1   HT     0.417000        1.0080           0
   94398 WT6  1416 TIP3 H2   HT     0.417000        1.0080           0
   94399 WT6  1417 TIP3 OH2  OT    -0.834000       15.9994           0
   94400 WT6  1417 TIP3 H1   HT     0.417000        1.0080           0
   94401 WT6  1417 TIP3 H2   HT     0.417000        1.0080           0
   94402 WT6  1418 TIP3 OH2  OT    -0.834000       15.9994           0
   94403 WT6  1418 TIP3 H1   HT     0.417000        1.0080           0
   94404 WT6  1418 TIP3 H2   HT     0.417000        1.0080           0
   94405 WT6  1419 TIP3 OH2  OT    -0.834000       15.9994           0
   94406 WT6  1419 TIP3 H1   HT     0.417000        1.0080           0
   94407 WT6  1419 TIP3 H2   HT     0.417000        1.0080           0
   94408 WT6  1420 TIP3 OH2  OT    -0.834000       15.9994           0
   94409 WT6  1420 TIP3 H1   HT     0.417000        1.0080           0
   94410 WT6  1420 TIP3 H2   HT     0.417000        1.0080           0
   94411 WT6  1421 TIP3 OH2  OT    -0.834000       15.9994           0
   94412 WT6  1421 TIP3 H1   HT     0.417000        1.0080           0
   94413 WT6  1421 TIP3 H2   HT     0.417000        1.0080           0
   94414 WT6  1425 TIP3 OH2  OT    -0.834000       15.9994           0
   94415 WT6  1425 TIP3 H1   HT     0.417000        1.0080           0
   94416 WT6  1425 TIP3 H2   HT     0.417000        1.0080           0
   94417 WT6  1427 TIP3 OH2  OT    -0.834000       15.9994           0
   94418 WT6  1427 TIP3 H1   HT     0.417000        1.0080           0
   94419 WT6  1427 TIP3 H2   HT     0.417000        1.0080           0
   94420 WT6  1428 TIP3 OH2  OT    -0.834000       15.9994           0
   94421 WT6  1428 TIP3 H1   HT     0.417000        1.0080           0
   94422 WT6  1428 TIP3 H2   HT     0.417000        1.0080           0
   94423 WT6  1429 TIP3 OH2  OT    -0.834000       15.9994           0
   94424 WT6  1429 TIP3 H1   HT     0.417000        1.0080           0
   94425 WT6  1429 TIP3 H2   HT     0.417000        1.0080           0
   94426 WT6  1430 TIP3 OH2  OT    -0.834000       15.9994           0
   94427 WT6  1430 TIP3 H1   HT     0.417000        1.0080           0
   94428 WT6  1430 TIP3 H2   HT     0.417000        1.0080           0
   94429 WT6  1431 TIP3 OH2  OT    -0.834000       15.9994           0
   94430 WT6  1431 TIP3 H1   HT     0.417000        1.0080           0
   94431 WT6  1431 TIP3 H2   HT     0.417000        1.0080           0
   94432 WT6  1432 TIP3 OH2  OT    -0.834000       15.9994           0
   94433 WT6  1432 TIP3 H1   HT     0.417000        1.0080           0
   94434 WT6  1432 TIP3 H2   HT     0.417000        1.0080           0
   94435 WT6  1433 TIP3 OH2  OT    -0.834000       15.9994           0
   94436 WT6  1433 TIP3 H1   HT     0.417000        1.0080           0
   94437 WT6  1433 TIP3 H2   HT     0.417000        1.0080           0
   94438 WT6  1435 TIP3 OH2  OT    -0.834000       15.9994           0
   94439 WT6  1435 TIP3 H1   HT     0.417000        1.0080           0
   94440 WT6  1435 TIP3 H2   HT     0.417000        1.0080           0
   94441 WT6  1436 TIP3 OH2  OT    -0.834000       15.9994           0
   94442 WT6  1436 TIP3 H1   HT     0.417000        1.0080           0
   94443 WT6  1436 TIP3 H2   HT     0.417000        1.0080           0
   94444 WT6  1437 TIP3 OH2  OT    -0.834000       15.9994           0
   94445 WT6  1437 TIP3 H1   HT     0.417000        1.0080           0
   94446 WT6  1437 TIP3 H2   HT     0.417000        1.0080           0
   94447 WT6  1439 TIP3 OH2  OT    -0.834000       15.9994           0
   94448 WT6  1439 TIP3 H1   HT     0.417000        1.0080           0
   94449 WT6  1439 TIP3 H2   HT     0.417000        1.0080           0
   94450 WT6  1440 TIP3 OH2  OT    -0.834000       15.9994           0
   94451 WT6  1440 TIP3 H1   HT     0.417000        1.0080           0
   94452 WT6  1440 TIP3 H2   HT     0.417000        1.0080           0
   94453 WT6  1442 TIP3 OH2  OT    -0.834000       15.9994           0
   94454 WT6  1442 TIP3 H1   HT     0.417000        1.0080           0
   94455 WT6  1442 TIP3 H2   HT     0.417000        1.0080           0
   94456 WT6  1443 TIP3 OH2  OT    -0.834000       15.9994           0
   94457 WT6  1443 TIP3 H1   HT     0.417000        1.0080           0
   94458 WT6  1443 TIP3 H2   HT     0.417000        1.0080           0
   94459 WT6  1450 TIP3 OH2  OT    -0.834000       15.9994           0
   94460 WT6  1450 TIP3 H1   HT     0.417000        1.0080           0
   94461 WT6  1450 TIP3 H2   HT     0.417000        1.0080           0
   94462 WT6  1451 TIP3 OH2  OT    -0.834000       15.9994           0
   94463 WT6  1451 TIP3 H1   HT     0.417000        1.0080           0
   94464 WT6  1451 TIP3 H2   HT     0.417000        1.0080           0
   94465 WT6  1452 TIP3 OH2  OT    -0.834000       15.9994           0
   94466 WT6  1452 TIP3 H1   HT     0.417000        1.0080           0
   94467 WT6  1452 TIP3 H2   HT     0.417000        1.0080           0
   94468 WT6  1453 TIP3 OH2  OT    -0.834000       15.9994           0
   94469 WT6  1453 TIP3 H1   HT     0.417000        1.0080           0
   94470 WT6  1453 TIP3 H2   HT     0.417000        1.0080           0
   94471 WT6  1454 TIP3 OH2  OT    -0.834000       15.9994           0
   94472 WT6  1454 TIP3 H1   HT     0.417000        1.0080           0
   94473 WT6  1454 TIP3 H2   HT     0.417000        1.0080           0
   94474 WT6  1455 TIP3 OH2  OT    -0.834000       15.9994           0
   94475 WT6  1455 TIP3 H1   HT     0.417000        1.0080           0
   94476 WT6  1455 TIP3 H2   HT     0.417000        1.0080           0
   94477 WT6  1456 TIP3 OH2  OT    -0.834000       15.9994           0
   94478 WT6  1456 TIP3 H1   HT     0.417000        1.0080           0
   94479 WT6  1456 TIP3 H2   HT     0.417000        1.0080           0
   94480 WT6  1457 TIP3 OH2  OT    -0.834000       15.9994           0
   94481 WT6  1457 TIP3 H1   HT     0.417000        1.0080           0
   94482 WT6  1457 TIP3 H2   HT     0.417000        1.0080           0
   94483 WT6  1458 TIP3 OH2  OT    -0.834000       15.9994           0
   94484 WT6  1458 TIP3 H1   HT     0.417000        1.0080           0
   94485 WT6  1458 TIP3 H2   HT     0.417000        1.0080           0
   94486 WT6  1459 TIP3 OH2  OT    -0.834000       15.9994           0
   94487 WT6  1459 TIP3 H1   HT     0.417000        1.0080           0
   94488 WT6  1459 TIP3 H2   HT     0.417000        1.0080           0
   94489 WT6  1460 TIP3 OH2  OT    -0.834000       15.9994           0
   94490 WT6  1460 TIP3 H1   HT     0.417000        1.0080           0
   94491 WT6  1460 TIP3 H2   HT     0.417000        1.0080           0
   94492 WT6  1461 TIP3 OH2  OT    -0.834000       15.9994           0
   94493 WT6  1461 TIP3 H1   HT     0.417000        1.0080           0
   94494 WT6  1461 TIP3 H2   HT     0.417000        1.0080           0
   94495 WT6  1463 TIP3 OH2  OT    -0.834000       15.9994           0
   94496 WT6  1463 TIP3 H1   HT     0.417000        1.0080           0
   94497 WT6  1463 TIP3 H2   HT     0.417000        1.0080           0
   94498 WT6  1465 TIP3 OH2  OT    -0.834000       15.9994           0
   94499 WT6  1465 TIP3 H1   HT     0.417000        1.0080           0
   94500 WT6  1465 TIP3 H2   HT     0.417000        1.0080           0
   94501 WT6  1466 TIP3 OH2  OT    -0.834000       15.9994           0
   94502 WT6  1466 TIP3 H1   HT     0.417000        1.0080           0
   94503 WT6  1466 TIP3 H2   HT     0.417000        1.0080           0
   94504 WT6  1471 TIP3 OH2  OT    -0.834000       15.9994           0
   94505 WT6  1471 TIP3 H1   HT     0.417000        1.0080           0
   94506 WT6  1471 TIP3 H2   HT     0.417000        1.0080           0
   94507 WT6  1474 TIP3 OH2  OT    -0.834000       15.9994           0
   94508 WT6  1474 TIP3 H1   HT     0.417000        1.0080           0
   94509 WT6  1474 TIP3 H2   HT     0.417000        1.0080           0
   94510 WT6  1475 TIP3 OH2  OT    -0.834000       15.9994           0
   94511 WT6  1475 TIP3 H1   HT     0.417000        1.0080           0
   94512 WT6  1475 TIP3 H2   HT     0.417000        1.0080           0
   94513 WT6  1476 TIP3 OH2  OT    -0.834000       15.9994           0
   94514 WT6  1476 TIP3 H1   HT     0.417000        1.0080           0
   94515 WT6  1476 TIP3 H2   HT     0.417000        1.0080           0
   94516 WT6  1477 TIP3 OH2  OT    -0.834000       15.9994           0
   94517 WT6  1477 TIP3 H1   HT     0.417000        1.0080           0
   94518 WT6  1477 TIP3 H2   HT     0.417000        1.0080           0
   94519 WT6  1478 TIP3 OH2  OT    -0.834000       15.9994           0
   94520 WT6  1478 TIP3 H1   HT     0.417000        1.0080           0
   94521 WT6  1478 TIP3 H2   HT     0.417000        1.0080           0
   94522 WT6  1479 TIP3 OH2  OT    -0.834000       15.9994           0
   94523 WT6  1479 TIP3 H1   HT     0.417000        1.0080           0
   94524 WT6  1479 TIP3 H2   HT     0.417000        1.0080           0
   94525 WT6  1480 TIP3 OH2  OT    -0.834000       15.9994           0
   94526 WT6  1480 TIP3 H1   HT     0.417000        1.0080           0
   94527 WT6  1480 TIP3 H2   HT     0.417000        1.0080           0
   94528 WT6  1481 TIP3 OH2  OT    -0.834000       15.9994           0
   94529 WT6  1481 TIP3 H1   HT     0.417000        1.0080           0
   94530 WT6  1481 TIP3 H2   HT     0.417000        1.0080           0
   94531 WT6  1483 TIP3 OH2  OT    -0.834000       15.9994           0
   94532 WT6  1483 TIP3 H1   HT     0.417000        1.0080           0
   94533 WT6  1483 TIP3 H2   HT     0.417000        1.0080           0
   94534 WT6  1485 TIP3 OH2  OT    -0.834000       15.9994           0
   94535 WT6  1485 TIP3 H1   HT     0.417000        1.0080           0
   94536 WT6  1485 TIP3 H2   HT     0.417000        1.0080           0
   94537 WT6  1492 TIP3 OH2  OT    -0.834000       15.9994           0
   94538 WT6  1492 TIP3 H1   HT     0.417000        1.0080           0
   94539 WT6  1492 TIP3 H2   HT     0.417000        1.0080           0
   94540 WT6  1493 TIP3 OH2  OT    -0.834000       15.9994           0
   94541 WT6  1493 TIP3 H1   HT     0.417000        1.0080           0
   94542 WT6  1493 TIP3 H2   HT     0.417000        1.0080           0
   94543 WT6  1494 TIP3 OH2  OT    -0.834000       15.9994           0
   94544 WT6  1494 TIP3 H1   HT     0.417000        1.0080           0
   94545 WT6  1494 TIP3 H2   HT     0.417000        1.0080           0
   94546 WT6  1497 TIP3 OH2  OT    -0.834000       15.9994           0
   94547 WT6  1497 TIP3 H1   HT     0.417000        1.0080           0
   94548 WT6  1497 TIP3 H2   HT     0.417000        1.0080           0
   94549 WT6  1498 TIP3 OH2  OT    -0.834000       15.9994           0
   94550 WT6  1498 TIP3 H1   HT     0.417000        1.0080           0
   94551 WT6  1498 TIP3 H2   HT     0.417000        1.0080           0
   94552 WT6  1499 TIP3 OH2  OT    -0.834000       15.9994           0
   94553 WT6  1499 TIP3 H1   HT     0.417000        1.0080           0
   94554 WT6  1499 TIP3 H2   HT     0.417000        1.0080           0
   94555 WT6  1500 TIP3 OH2  OT    -0.834000       15.9994           0
   94556 WT6  1500 TIP3 H1   HT     0.417000        1.0080           0
   94557 WT6  1500 TIP3 H2   HT     0.417000        1.0080           0
   94558 WT6  1501 TIP3 OH2  OT    -0.834000       15.9994           0
   94559 WT6  1501 TIP3 H1   HT     0.417000        1.0080           0
   94560 WT6  1501 TIP3 H2   HT     0.417000        1.0080           0
   94561 WT6  1502 TIP3 OH2  OT    -0.834000       15.9994           0
   94562 WT6  1502 TIP3 H1   HT     0.417000        1.0080           0
   94563 WT6  1502 TIP3 H2   HT     0.417000        1.0080           0
   94564 WT6  1504 TIP3 OH2  OT    -0.834000       15.9994           0
   94565 WT6  1504 TIP3 H1   HT     0.417000        1.0080           0
   94566 WT6  1504 TIP3 H2   HT     0.417000        1.0080           0
   94567 WT6  1506 TIP3 OH2  OT    -0.834000       15.9994           0
   94568 WT6  1506 TIP3 H1   HT     0.417000        1.0080           0
   94569 WT6  1506 TIP3 H2   HT     0.417000        1.0080           0
   94570 WT6  1507 TIP3 OH2  OT    -0.834000       15.9994           0
   94571 WT6  1507 TIP3 H1   HT     0.417000        1.0080           0
   94572 WT6  1507 TIP3 H2   HT     0.417000        1.0080           0
   94573 WT6  1512 TIP3 OH2  OT    -0.834000       15.9994           0
   94574 WT6  1512 TIP3 H1   HT     0.417000        1.0080           0
   94575 WT6  1512 TIP3 H2   HT     0.417000        1.0080           0
   94576 WT6  1514 TIP3 OH2  OT    -0.834000       15.9994           0
   94577 WT6  1514 TIP3 H1   HT     0.417000        1.0080           0
   94578 WT6  1514 TIP3 H2   HT     0.417000        1.0080           0
   94579 WT6  1515 TIP3 OH2  OT    -0.834000       15.9994           0
   94580 WT6  1515 TIP3 H1   HT     0.417000        1.0080           0
   94581 WT6  1515 TIP3 H2   HT     0.417000        1.0080           0
   94582 WT6  1518 TIP3 OH2  OT    -0.834000       15.9994           0
   94583 WT6  1518 TIP3 H1   HT     0.417000        1.0080           0
   94584 WT6  1518 TIP3 H2   HT     0.417000        1.0080           0
   94585 WT6  1519 TIP3 OH2  OT    -0.834000       15.9994           0
   94586 WT6  1519 TIP3 H1   HT     0.417000        1.0080           0
   94587 WT6  1519 TIP3 H2   HT     0.417000        1.0080           0
   94588 WT6  1520 TIP3 OH2  OT    -0.834000       15.9994           0
   94589 WT6  1520 TIP3 H1   HT     0.417000        1.0080           0
   94590 WT6  1520 TIP3 H2   HT     0.417000        1.0080           0
   94591 WT6  1522 TIP3 OH2  OT    -0.834000       15.9994           0
   94592 WT6  1522 TIP3 H1   HT     0.417000        1.0080           0
   94593 WT6  1522 TIP3 H2   HT     0.417000        1.0080           0
   94594 WT6  1523 TIP3 OH2  OT    -0.834000       15.9994           0
   94595 WT6  1523 TIP3 H1   HT     0.417000        1.0080           0
   94596 WT6  1523 TIP3 H2   HT     0.417000        1.0080           0
   94597 WT6  1524 TIP3 OH2  OT    -0.834000       15.9994           0
   94598 WT6  1524 TIP3 H1   HT     0.417000        1.0080           0
   94599 WT6  1524 TIP3 H2   HT     0.417000        1.0080           0
   94600 WT6  1526 TIP3 OH2  OT    -0.834000       15.9994           0
   94601 WT6  1526 TIP3 H1   HT     0.417000        1.0080           0
   94602 WT6  1526 TIP3 H2   HT     0.417000        1.0080           0
   94603 WT6  1527 TIP3 OH2  OT    -0.834000       15.9994           0
   94604 WT6  1527 TIP3 H1   HT     0.417000        1.0080           0
   94605 WT6  1527 TIP3 H2   HT     0.417000        1.0080           0
   94606 WT6  1531 TIP3 OH2  OT    -0.834000       15.9994           0
   94607 WT6  1531 TIP3 H1   HT     0.417000        1.0080           0
   94608 WT6  1531 TIP3 H2   HT     0.417000        1.0080           0
   94609 WT6  1532 TIP3 OH2  OT    -0.834000       15.9994           0
   94610 WT6  1532 TIP3 H1   HT     0.417000        1.0080           0
   94611 WT6  1532 TIP3 H2   HT     0.417000        1.0080           0
   94612 WT6  1534 TIP3 OH2  OT    -0.834000       15.9994           0
   94613 WT6  1534 TIP3 H1   HT     0.417000        1.0080           0
   94614 WT6  1534 TIP3 H2   HT     0.417000        1.0080           0
   94615 WT6  1535 TIP3 OH2  OT    -0.834000       15.9994           0
   94616 WT6  1535 TIP3 H1   HT     0.417000        1.0080           0
   94617 WT6  1535 TIP3 H2   HT     0.417000        1.0080           0
   94618 WT6  1536 TIP3 OH2  OT    -0.834000       15.9994           0
   94619 WT6  1536 TIP3 H1   HT     0.417000        1.0080           0
   94620 WT6  1536 TIP3 H2   HT     0.417000        1.0080           0
   94621 WT6  1537 TIP3 OH2  OT    -0.834000       15.9994           0
   94622 WT6  1537 TIP3 H1   HT     0.417000        1.0080           0
   94623 WT6  1537 TIP3 H2   HT     0.417000        1.0080           0
   94624 WT6  1538 TIP3 OH2  OT    -0.834000       15.9994           0
   94625 WT6  1538 TIP3 H1   HT     0.417000        1.0080           0
   94626 WT6  1538 TIP3 H2   HT     0.417000        1.0080           0
   94627 WT6  1540 TIP3 OH2  OT    -0.834000       15.9994           0
   94628 WT6  1540 TIP3 H1   HT     0.417000        1.0080           0
   94629 WT6  1540 TIP3 H2   HT     0.417000        1.0080           0
   94630 WT6  1542 TIP3 OH2  OT    -0.834000       15.9994           0
   94631 WT6  1542 TIP3 H1   HT     0.417000        1.0080           0
   94632 WT6  1542 TIP3 H2   HT     0.417000        1.0080           0
   94633 WT6  1543 TIP3 OH2  OT    -0.834000       15.9994           0
   94634 WT6  1543 TIP3 H1   HT     0.417000        1.0080           0
   94635 WT6  1543 TIP3 H2   HT     0.417000        1.0080           0
   94636 WT6  1544 TIP3 OH2  OT    -0.834000       15.9994           0
   94637 WT6  1544 TIP3 H1   HT     0.417000        1.0080           0
   94638 WT6  1544 TIP3 H2   HT     0.417000        1.0080           0
   94639 WT6  1545 TIP3 OH2  OT    -0.834000       15.9994           0
   94640 WT6  1545 TIP3 H1   HT     0.417000        1.0080           0
   94641 WT6  1545 TIP3 H2   HT     0.417000        1.0080           0
   94642 WT6  1546 TIP3 OH2  OT    -0.834000       15.9994           0
   94643 WT6  1546 TIP3 H1   HT     0.417000        1.0080           0
   94644 WT6  1546 TIP3 H2   HT     0.417000        1.0080           0
   94645 WT6  1547 TIP3 OH2  OT    -0.834000       15.9994           0
   94646 WT6  1547 TIP3 H1   HT     0.417000        1.0080           0
   94647 WT6  1547 TIP3 H2   HT     0.417000        1.0080           0
   94648 WT6  1552 TIP3 OH2  OT    -0.834000       15.9994           0
   94649 WT6  1552 TIP3 H1   HT     0.417000        1.0080           0
   94650 WT6  1552 TIP3 H2   HT     0.417000        1.0080           0
   94651 WT6  1555 TIP3 OH2  OT    -0.834000       15.9994           0
   94652 WT6  1555 TIP3 H1   HT     0.417000        1.0080           0
   94653 WT6  1555 TIP3 H2   HT     0.417000        1.0080           0
   94654 WT6  1557 TIP3 OH2  OT    -0.834000       15.9994           0
   94655 WT6  1557 TIP3 H1   HT     0.417000        1.0080           0
   94656 WT6  1557 TIP3 H2   HT     0.417000        1.0080           0
   94657 WT6  1559 TIP3 OH2  OT    -0.834000       15.9994           0
   94658 WT6  1559 TIP3 H1   HT     0.417000        1.0080           0
   94659 WT6  1559 TIP3 H2   HT     0.417000        1.0080           0
   94660 WT6  1560 TIP3 OH2  OT    -0.834000       15.9994           0
   94661 WT6  1560 TIP3 H1   HT     0.417000        1.0080           0
   94662 WT6  1560 TIP3 H2   HT     0.417000        1.0080           0
   94663 WT6  1562 TIP3 OH2  OT    -0.834000       15.9994           0
   94664 WT6  1562 TIP3 H1   HT     0.417000        1.0080           0
   94665 WT6  1562 TIP3 H2   HT     0.417000        1.0080           0
   94666 WT6  1563 TIP3 OH2  OT    -0.834000       15.9994           0
   94667 WT6  1563 TIP3 H1   HT     0.417000        1.0080           0
   94668 WT6  1563 TIP3 H2   HT     0.417000        1.0080           0
   94669 WT6  1565 TIP3 OH2  OT    -0.834000       15.9994           0
   94670 WT6  1565 TIP3 H1   HT     0.417000        1.0080           0
   94671 WT6  1565 TIP3 H2   HT     0.417000        1.0080           0
   94672 WT6  1569 TIP3 OH2  OT    -0.834000       15.9994           0
   94673 WT6  1569 TIP3 H1   HT     0.417000        1.0080           0
   94674 WT6  1569 TIP3 H2   HT     0.417000        1.0080           0
   94675 WT6  1570 TIP3 OH2  OT    -0.834000       15.9994           0
   94676 WT6  1570 TIP3 H1   HT     0.417000        1.0080           0
   94677 WT6  1570 TIP3 H2   HT     0.417000        1.0080           0
   94678 WT6  1573 TIP3 OH2  OT    -0.834000       15.9994           0
   94679 WT6  1573 TIP3 H1   HT     0.417000        1.0080           0
   94680 WT6  1573 TIP3 H2   HT     0.417000        1.0080           0
   94681 WT6  1576 TIP3 OH2  OT    -0.834000       15.9994           0
   94682 WT6  1576 TIP3 H1   HT     0.417000        1.0080           0
   94683 WT6  1576 TIP3 H2   HT     0.417000        1.0080           0
   94684 WT6  1577 TIP3 OH2  OT    -0.834000       15.9994           0
   94685 WT6  1577 TIP3 H1   HT     0.417000        1.0080           0
   94686 WT6  1577 TIP3 H2   HT     0.417000        1.0080           0
   94687 WT6  1578 TIP3 OH2  OT    -0.834000       15.9994           0
   94688 WT6  1578 TIP3 H1   HT     0.417000        1.0080           0
   94689 WT6  1578 TIP3 H2   HT     0.417000        1.0080           0
   94690 WT6  1579 TIP3 OH2  OT    -0.834000       15.9994           0
   94691 WT6  1579 TIP3 H1   HT     0.417000        1.0080           0
   94692 WT6  1579 TIP3 H2   HT     0.417000        1.0080           0
   94693 WT6  1580 TIP3 OH2  OT    -0.834000       15.9994           0
   94694 WT6  1580 TIP3 H1   HT     0.417000        1.0080           0
   94695 WT6  1580 TIP3 H2   HT     0.417000        1.0080           0
   94696 WT6  1581 TIP3 OH2  OT    -0.834000       15.9994           0
   94697 WT6  1581 TIP3 H1   HT     0.417000        1.0080           0
   94698 WT6  1581 TIP3 H2   HT     0.417000        1.0080           0
   94699 WT6  1582 TIP3 OH2  OT    -0.834000       15.9994           0
   94700 WT6  1582 TIP3 H1   HT     0.417000        1.0080           0
   94701 WT6  1582 TIP3 H2   HT     0.417000        1.0080           0
   94702 WT6  1583 TIP3 OH2  OT    -0.834000       15.9994           0
   94703 WT6  1583 TIP3 H1   HT     0.417000        1.0080           0
   94704 WT6  1583 TIP3 H2   HT     0.417000        1.0080           0
   94705 WT6  1584 TIP3 OH2  OT    -0.834000       15.9994           0
   94706 WT6  1584 TIP3 H1   HT     0.417000        1.0080           0
   94707 WT6  1584 TIP3 H2   HT     0.417000        1.0080           0
   94708 WT6  1586 TIP3 OH2  OT    -0.834000       15.9994           0
   94709 WT6  1586 TIP3 H1   HT     0.417000        1.0080           0
   94710 WT6  1586 TIP3 H2   HT     0.417000        1.0080           0
   94711 WT6  1587 TIP3 OH2  OT    -0.834000       15.9994           0
   94712 WT6  1587 TIP3 H1   HT     0.417000        1.0080           0
   94713 WT6  1587 TIP3 H2   HT     0.417000        1.0080           0
   94714 WT6  1589 TIP3 OH2  OT    -0.834000       15.9994           0
   94715 WT6  1589 TIP3 H1   HT     0.417000        1.0080           0
   94716 WT6  1589 TIP3 H2   HT     0.417000        1.0080           0
   94717 WT6  1590 TIP3 OH2  OT    -0.834000       15.9994           0
   94718 WT6  1590 TIP3 H1   HT     0.417000        1.0080           0
   94719 WT6  1590 TIP3 H2   HT     0.417000        1.0080           0
   94720 WT6  1592 TIP3 OH2  OT    -0.834000       15.9994           0
   94721 WT6  1592 TIP3 H1   HT     0.417000        1.0080           0
   94722 WT6  1592 TIP3 H2   HT     0.417000        1.0080           0
   94723 WT6  1593 TIP3 OH2  OT    -0.834000       15.9994           0
   94724 WT6  1593 TIP3 H1   HT     0.417000        1.0080           0
   94725 WT6  1593 TIP3 H2   HT     0.417000        1.0080           0
   94726 WT6  1598 TIP3 OH2  OT    -0.834000       15.9994           0
   94727 WT6  1598 TIP3 H1   HT     0.417000        1.0080           0
   94728 WT6  1598 TIP3 H2   HT     0.417000        1.0080           0
   94729 WT6  1599 TIP3 OH2  OT    -0.834000       15.9994           0
   94730 WT6  1599 TIP3 H1   HT     0.417000        1.0080           0
   94731 WT6  1599 TIP3 H2   HT     0.417000        1.0080           0
   94732 WT6  1600 TIP3 OH2  OT    -0.834000       15.9994           0
   94733 WT6  1600 TIP3 H1   HT     0.417000        1.0080           0
   94734 WT6  1600 TIP3 H2   HT     0.417000        1.0080           0
   94735 WT6  1601 TIP3 OH2  OT    -0.834000       15.9994           0
   94736 WT6  1601 TIP3 H1   HT     0.417000        1.0080           0
   94737 WT6  1601 TIP3 H2   HT     0.417000        1.0080           0
   94738 WT6  1602 TIP3 OH2  OT    -0.834000       15.9994           0
   94739 WT6  1602 TIP3 H1   HT     0.417000        1.0080           0
   94740 WT6  1602 TIP3 H2   HT     0.417000        1.0080           0
   94741 WT6  1603 TIP3 OH2  OT    -0.834000       15.9994           0
   94742 WT6  1603 TIP3 H1   HT     0.417000        1.0080           0
   94743 WT6  1603 TIP3 H2   HT     0.417000        1.0080           0
   94744 WT6  1604 TIP3 OH2  OT    -0.834000       15.9994           0
   94745 WT6  1604 TIP3 H1   HT     0.417000        1.0080           0
   94746 WT6  1604 TIP3 H2   HT     0.417000        1.0080           0
   94747 WT6  1605 TIP3 OH2  OT    -0.834000       15.9994           0
   94748 WT6  1605 TIP3 H1   HT     0.417000        1.0080           0
   94749 WT6  1605 TIP3 H2   HT     0.417000        1.0080           0
   94750 WT6  1607 TIP3 OH2  OT    -0.834000       15.9994           0
   94751 WT6  1607 TIP3 H1   HT     0.417000        1.0080           0
   94752 WT6  1607 TIP3 H2   HT     0.417000        1.0080           0
   94753 WT6  1608 TIP3 OH2  OT    -0.834000       15.9994           0
   94754 WT6  1608 TIP3 H1   HT     0.417000        1.0080           0
   94755 WT6  1608 TIP3 H2   HT     0.417000        1.0080           0
   94756 WT6  1609 TIP3 OH2  OT    -0.834000       15.9994           0
   94757 WT6  1609 TIP3 H1   HT     0.417000        1.0080           0
   94758 WT6  1609 TIP3 H2   HT     0.417000        1.0080           0
   94759 WT6  1610 TIP3 OH2  OT    -0.834000       15.9994           0
   94760 WT6  1610 TIP3 H1   HT     0.417000        1.0080           0
   94761 WT6  1610 TIP3 H2   HT     0.417000        1.0080           0
   94762 WT6  1611 TIP3 OH2  OT    -0.834000       15.9994           0
   94763 WT6  1611 TIP3 H1   HT     0.417000        1.0080           0
   94764 WT6  1611 TIP3 H2   HT     0.417000        1.0080           0
   94765 WT6  1612 TIP3 OH2  OT    -0.834000       15.9994           0
   94766 WT6  1612 TIP3 H1   HT     0.417000        1.0080           0
   94767 WT6  1612 TIP3 H2   HT     0.417000        1.0080           0
   94768 WT6  1616 TIP3 OH2  OT    -0.834000       15.9994           0
   94769 WT6  1616 TIP3 H1   HT     0.417000        1.0080           0
   94770 WT6  1616 TIP3 H2   HT     0.417000        1.0080           0
   94771 WT6  1617 TIP3 OH2  OT    -0.834000       15.9994           0
   94772 WT6  1617 TIP3 H1   HT     0.417000        1.0080           0
   94773 WT6  1617 TIP3 H2   HT     0.417000        1.0080           0
   94774 WT6  1618 TIP3 OH2  OT    -0.834000       15.9994           0
   94775 WT6  1618 TIP3 H1   HT     0.417000        1.0080           0
   94776 WT6  1618 TIP3 H2   HT     0.417000        1.0080           0
   94777 WT6  1620 TIP3 OH2  OT    -0.834000       15.9994           0
   94778 WT6  1620 TIP3 H1   HT     0.417000        1.0080           0
   94779 WT6  1620 TIP3 H2   HT     0.417000        1.0080           0
   94780 WT6  1622 TIP3 OH2  OT    -0.834000       15.9994           0
   94781 WT6  1622 TIP3 H1   HT     0.417000        1.0080           0
   94782 WT6  1622 TIP3 H2   HT     0.417000        1.0080           0
   94783 WT6  1623 TIP3 OH2  OT    -0.834000       15.9994           0
   94784 WT6  1623 TIP3 H1   HT     0.417000        1.0080           0
   94785 WT6  1623 TIP3 H2   HT     0.417000        1.0080           0
   94786 WT6  1624 TIP3 OH2  OT    -0.834000       15.9994           0
   94787 WT6  1624 TIP3 H1   HT     0.417000        1.0080           0
   94788 WT6  1624 TIP3 H2   HT     0.417000        1.0080           0
   94789 WT6  1625 TIP3 OH2  OT    -0.834000       15.9994           0
   94790 WT6  1625 TIP3 H1   HT     0.417000        1.0080           0
   94791 WT6  1625 TIP3 H2   HT     0.417000        1.0080           0
   94792 WT6  1626 TIP3 OH2  OT    -0.834000       15.9994           0
   94793 WT6  1626 TIP3 H1   HT     0.417000        1.0080           0
   94794 WT6  1626 TIP3 H2   HT     0.417000        1.0080           0
   94795 WT6  1627 TIP3 OH2  OT    -0.834000       15.9994           0
   94796 WT6  1627 TIP3 H1   HT     0.417000        1.0080           0
   94797 WT6  1627 TIP3 H2   HT     0.417000        1.0080           0
   94798 WT6  1628 TIP3 OH2  OT    -0.834000       15.9994           0
   94799 WT6  1628 TIP3 H1   HT     0.417000        1.0080           0
   94800 WT6  1628 TIP3 H2   HT     0.417000        1.0080           0
   94801 WT6  1629 TIP3 OH2  OT    -0.834000       15.9994           0
   94802 WT6  1629 TIP3 H1   HT     0.417000        1.0080           0
   94803 WT6  1629 TIP3 H2   HT     0.417000        1.0080           0
   94804 WT6  1632 TIP3 OH2  OT    -0.834000       15.9994           0
   94805 WT6  1632 TIP3 H1   HT     0.417000        1.0080           0
   94806 WT6  1632 TIP3 H2   HT     0.417000        1.0080           0
   94807 WT6  1638 TIP3 OH2  OT    -0.834000       15.9994           0
   94808 WT6  1638 TIP3 H1   HT     0.417000        1.0080           0
   94809 WT6  1638 TIP3 H2   HT     0.417000        1.0080           0
   94810 WT6  1639 TIP3 OH2  OT    -0.834000       15.9994           0
   94811 WT6  1639 TIP3 H1   HT     0.417000        1.0080           0
   94812 WT6  1639 TIP3 H2   HT     0.417000        1.0080           0
   94813 WT6  1641 TIP3 OH2  OT    -0.834000       15.9994           0
   94814 WT6  1641 TIP3 H1   HT     0.417000        1.0080           0
   94815 WT6  1641 TIP3 H2   HT     0.417000        1.0080           0
   94816 WT6  1642 TIP3 OH2  OT    -0.834000       15.9994           0
   94817 WT6  1642 TIP3 H1   HT     0.417000        1.0080           0
   94818 WT6  1642 TIP3 H2   HT     0.417000        1.0080           0
   94819 WT6  1643 TIP3 OH2  OT    -0.834000       15.9994           0
   94820 WT6  1643 TIP3 H1   HT     0.417000        1.0080           0
   94821 WT6  1643 TIP3 H2   HT     0.417000        1.0080           0
   94822 WT6  1644 TIP3 OH2  OT    -0.834000       15.9994           0
   94823 WT6  1644 TIP3 H1   HT     0.417000        1.0080           0
   94824 WT6  1644 TIP3 H2   HT     0.417000        1.0080           0
   94825 WT6  1645 TIP3 OH2  OT    -0.834000       15.9994           0
   94826 WT6  1645 TIP3 H1   HT     0.417000        1.0080           0
   94827 WT6  1645 TIP3 H2   HT     0.417000        1.0080           0
   94828 WT6  1646 TIP3 OH2  OT    -0.834000       15.9994           0
   94829 WT6  1646 TIP3 H1   HT     0.417000        1.0080           0
   94830 WT6  1646 TIP3 H2   HT     0.417000        1.0080           0
   94831 WT6  1647 TIP3 OH2  OT    -0.834000       15.9994           0
   94832 WT6  1647 TIP3 H1   HT     0.417000        1.0080           0
   94833 WT6  1647 TIP3 H2   HT     0.417000        1.0080           0
   94834 WT6  1648 TIP3 OH2  OT    -0.834000       15.9994           0
   94835 WT6  1648 TIP3 H1   HT     0.417000        1.0080           0
   94836 WT6  1648 TIP3 H2   HT     0.417000        1.0080           0
   94837 WT6  1649 TIP3 OH2  OT    -0.834000       15.9994           0
   94838 WT6  1649 TIP3 H1   HT     0.417000        1.0080           0
   94839 WT6  1649 TIP3 H2   HT     0.417000        1.0080           0
   94840 WT6  1651 TIP3 OH2  OT    -0.834000       15.9994           0
   94841 WT6  1651 TIP3 H1   HT     0.417000        1.0080           0
   94842 WT6  1651 TIP3 H2   HT     0.417000        1.0080           0
   94843 WT6  1653 TIP3 OH2  OT    -0.834000       15.9994           0
   94844 WT6  1653 TIP3 H1   HT     0.417000        1.0080           0
   94845 WT6  1653 TIP3 H2   HT     0.417000        1.0080           0
   94846 WT6  1656 TIP3 OH2  OT    -0.834000       15.9994           0
   94847 WT6  1656 TIP3 H1   HT     0.417000        1.0080           0
   94848 WT6  1656 TIP3 H2   HT     0.417000        1.0080           0
   94849 WT6  1658 TIP3 OH2  OT    -0.834000       15.9994           0
   94850 WT6  1658 TIP3 H1   HT     0.417000        1.0080           0
   94851 WT6  1658 TIP3 H2   HT     0.417000        1.0080           0
   94852 WT6  1659 TIP3 OH2  OT    -0.834000       15.9994           0
   94853 WT6  1659 TIP3 H1   HT     0.417000        1.0080           0
   94854 WT6  1659 TIP3 H2   HT     0.417000        1.0080           0
   94855 WT6  1661 TIP3 OH2  OT    -0.834000       15.9994           0
   94856 WT6  1661 TIP3 H1   HT     0.417000        1.0080           0
   94857 WT6  1661 TIP3 H2   HT     0.417000        1.0080           0
   94858 WT6  1663 TIP3 OH2  OT    -0.834000       15.9994           0
   94859 WT6  1663 TIP3 H1   HT     0.417000        1.0080           0
   94860 WT6  1663 TIP3 H2   HT     0.417000        1.0080           0
   94861 WT6  1664 TIP3 OH2  OT    -0.834000       15.9994           0
   94862 WT6  1664 TIP3 H1   HT     0.417000        1.0080           0
   94863 WT6  1664 TIP3 H2   HT     0.417000        1.0080           0
   94864 WT6  1666 TIP3 OH2  OT    -0.834000       15.9994           0
   94865 WT6  1666 TIP3 H1   HT     0.417000        1.0080           0
   94866 WT6  1666 TIP3 H2   HT     0.417000        1.0080           0
   94867 WT6  1667 TIP3 OH2  OT    -0.834000       15.9994           0
   94868 WT6  1667 TIP3 H1   HT     0.417000        1.0080           0
   94869 WT6  1667 TIP3 H2   HT     0.417000        1.0080           0
   94870 WT6  1668 TIP3 OH2  OT    -0.834000       15.9994           0
   94871 WT6  1668 TIP3 H1   HT     0.417000        1.0080           0
   94872 WT6  1668 TIP3 H2   HT     0.417000        1.0080           0
   94873 WT6  1670 TIP3 OH2  OT    -0.834000       15.9994           0
   94874 WT6  1670 TIP3 H1   HT     0.417000        1.0080           0
   94875 WT6  1670 TIP3 H2   HT     0.417000        1.0080           0
   94876 WT6  1671 TIP3 OH2  OT    -0.834000       15.9994           0
   94877 WT6  1671 TIP3 H1   HT     0.417000        1.0080           0
   94878 WT6  1671 TIP3 H2   HT     0.417000        1.0080           0
   94879 WT6  1674 TIP3 OH2  OT    -0.834000       15.9994           0
   94880 WT6  1674 TIP3 H1   HT     0.417000        1.0080           0
   94881 WT6  1674 TIP3 H2   HT     0.417000        1.0080           0
   94882 WT6  1681 TIP3 OH2  OT    -0.834000       15.9994           0
   94883 WT6  1681 TIP3 H1   HT     0.417000        1.0080           0
   94884 WT6  1681 TIP3 H2   HT     0.417000        1.0080           0
   94885 WT6  1683 TIP3 OH2  OT    -0.834000       15.9994           0
   94886 WT6  1683 TIP3 H1   HT     0.417000        1.0080           0
   94887 WT6  1683 TIP3 H2   HT     0.417000        1.0080           0
   94888 WT6  1686 TIP3 OH2  OT    -0.834000       15.9994           0
   94889 WT6  1686 TIP3 H1   HT     0.417000        1.0080           0
   94890 WT6  1686 TIP3 H2   HT     0.417000        1.0080           0
   94891 WT6  1687 TIP3 OH2  OT    -0.834000       15.9994           0
   94892 WT6  1687 TIP3 H1   HT     0.417000        1.0080           0
   94893 WT6  1687 TIP3 H2   HT     0.417000        1.0080           0
   94894 WT6  1688 TIP3 OH2  OT    -0.834000       15.9994           0
   94895 WT6  1688 TIP3 H1   HT     0.417000        1.0080           0
   94896 WT6  1688 TIP3 H2   HT     0.417000        1.0080           0
   94897 WT6  1689 TIP3 OH2  OT    -0.834000       15.9994           0
   94898 WT6  1689 TIP3 H1   HT     0.417000        1.0080           0
   94899 WT6  1689 TIP3 H2   HT     0.417000        1.0080           0
   94900 WT6  1692 TIP3 OH2  OT    -0.834000       15.9994           0
   94901 WT6  1692 TIP3 H1   HT     0.417000        1.0080           0
   94902 WT6  1692 TIP3 H2   HT     0.417000        1.0080           0
   94903 WT6  1693 TIP3 OH2  OT    -0.834000       15.9994           0
   94904 WT6  1693 TIP3 H1   HT     0.417000        1.0080           0
   94905 WT6  1693 TIP3 H2   HT     0.417000        1.0080           0
   94906 WT6  1695 TIP3 OH2  OT    -0.834000       15.9994           0
   94907 WT6  1695 TIP3 H1   HT     0.417000        1.0080           0
   94908 WT6  1695 TIP3 H2   HT     0.417000        1.0080           0
   94909 WT6  1701 TIP3 OH2  OT    -0.834000       15.9994           0
   94910 WT6  1701 TIP3 H1   HT     0.417000        1.0080           0
   94911 WT6  1701 TIP3 H2   HT     0.417000        1.0080           0
   94912 WT6  1702 TIP3 OH2  OT    -0.834000       15.9994           0
   94913 WT6  1702 TIP3 H1   HT     0.417000        1.0080           0
   94914 WT6  1702 TIP3 H2   HT     0.417000        1.0080           0
   94915 WT6  1704 TIP3 OH2  OT    -0.834000       15.9994           0
   94916 WT6  1704 TIP3 H1   HT     0.417000        1.0080           0
   94917 WT6  1704 TIP3 H2   HT     0.417000        1.0080           0
   94918 WT6  1706 TIP3 OH2  OT    -0.834000       15.9994           0
   94919 WT6  1706 TIP3 H1   HT     0.417000        1.0080           0
   94920 WT6  1706 TIP3 H2   HT     0.417000        1.0080           0
   94921 WT6  1707 TIP3 OH2  OT    -0.834000       15.9994           0
   94922 WT6  1707 TIP3 H1   HT     0.417000        1.0080           0
   94923 WT6  1707 TIP3 H2   HT     0.417000        1.0080           0
   94924 WT6  1708 TIP3 OH2  OT    -0.834000       15.9994           0
   94925 WT6  1708 TIP3 H1   HT     0.417000        1.0080           0
   94926 WT6  1708 TIP3 H2   HT     0.417000        1.0080           0
   94927 WT6  1709 TIP3 OH2  OT    -0.834000       15.9994           0
   94928 WT6  1709 TIP3 H1   HT     0.417000        1.0080           0
   94929 WT6  1709 TIP3 H2   HT     0.417000        1.0080           0
   94930 WT6  1711 TIP3 OH2  OT    -0.834000       15.9994           0
   94931 WT6  1711 TIP3 H1   HT     0.417000        1.0080           0
   94932 WT6  1711 TIP3 H2   HT     0.417000        1.0080           0
   94933 WT6  1713 TIP3 OH2  OT    -0.834000       15.9994           0
   94934 WT6  1713 TIP3 H1   HT     0.417000        1.0080           0
   94935 WT6  1713 TIP3 H2   HT     0.417000        1.0080           0
   94936 WT6  1718 TIP3 OH2  OT    -0.834000       15.9994           0
   94937 WT6  1718 TIP3 H1   HT     0.417000        1.0080           0
   94938 WT6  1718 TIP3 H2   HT     0.417000        1.0080           0
   94939 WT6  1719 TIP3 OH2  OT    -0.834000       15.9994           0
   94940 WT6  1719 TIP3 H1   HT     0.417000        1.0080           0
   94941 WT6  1719 TIP3 H2   HT     0.417000        1.0080           0
   94942 WT6  1722 TIP3 OH2  OT    -0.834000       15.9994           0
   94943 WT6  1722 TIP3 H1   HT     0.417000        1.0080           0
   94944 WT6  1722 TIP3 H2   HT     0.417000        1.0080           0
   94945 WT6  1723 TIP3 OH2  OT    -0.834000       15.9994           0
   94946 WT6  1723 TIP3 H1   HT     0.417000        1.0080           0
   94947 WT6  1723 TIP3 H2   HT     0.417000        1.0080           0
   94948 WT6  1725 TIP3 OH2  OT    -0.834000       15.9994           0
   94949 WT6  1725 TIP3 H1   HT     0.417000        1.0080           0
   94950 WT6  1725 TIP3 H2   HT     0.417000        1.0080           0
   94951 WT6  1727 TIP3 OH2  OT    -0.834000       15.9994           0
   94952 WT6  1727 TIP3 H1   HT     0.417000        1.0080           0
   94953 WT6  1727 TIP3 H2   HT     0.417000        1.0080           0
   94954 WT6  1728 TIP3 OH2  OT    -0.834000       15.9994           0
   94955 WT6  1728 TIP3 H1   HT     0.417000        1.0080           0
   94956 WT6  1728 TIP3 H2   HT     0.417000        1.0080           0
   94957 WT6  1729 TIP3 OH2  OT    -0.834000       15.9994           0
   94958 WT6  1729 TIP3 H1   HT     0.417000        1.0080           0
   94959 WT6  1729 TIP3 H2   HT     0.417000        1.0080           0
   94960 WT6  1730 TIP3 OH2  OT    -0.834000       15.9994           0
   94961 WT6  1730 TIP3 H1   HT     0.417000        1.0080           0
   94962 WT6  1730 TIP3 H2   HT     0.417000        1.0080           0
   94963 WT6  1731 TIP3 OH2  OT    -0.834000       15.9994           0
   94964 WT6  1731 TIP3 H1   HT     0.417000        1.0080           0
   94965 WT6  1731 TIP3 H2   HT     0.417000        1.0080           0
   94966 WT6  1732 TIP3 OH2  OT    -0.834000       15.9994           0
   94967 WT6  1732 TIP3 H1   HT     0.417000        1.0080           0
   94968 WT6  1732 TIP3 H2   HT     0.417000        1.0080           0
   94969 WT6  1733 TIP3 OH2  OT    -0.834000       15.9994           0
   94970 WT6  1733 TIP3 H1   HT     0.417000        1.0080           0
   94971 WT6  1733 TIP3 H2   HT     0.417000        1.0080           0
   94972 WT6  1734 TIP3 OH2  OT    -0.834000       15.9994           0
   94973 WT6  1734 TIP3 H1   HT     0.417000        1.0080           0
   94974 WT6  1734 TIP3 H2   HT     0.417000        1.0080           0
   94975 WT6  1735 TIP3 OH2  OT    -0.834000       15.9994           0
   94976 WT6  1735 TIP3 H1   HT     0.417000        1.0080           0
   94977 WT6  1735 TIP3 H2   HT     0.417000        1.0080           0
   94978 WT6  1737 TIP3 OH2  OT    -0.834000       15.9994           0
   94979 WT6  1737 TIP3 H1   HT     0.417000        1.0080           0
   94980 WT6  1737 TIP3 H2   HT     0.417000        1.0080           0
   94981 WT6  1738 TIP3 OH2  OT    -0.834000       15.9994           0
   94982 WT6  1738 TIP3 H1   HT     0.417000        1.0080           0
   94983 WT6  1738 TIP3 H2   HT     0.417000        1.0080           0
   94984 WT6  1744 TIP3 OH2  OT    -0.834000       15.9994           0
   94985 WT6  1744 TIP3 H1   HT     0.417000        1.0080           0
   94986 WT6  1744 TIP3 H2   HT     0.417000        1.0080           0
   94987 WT6  1746 TIP3 OH2  OT    -0.834000       15.9994           0
   94988 WT6  1746 TIP3 H1   HT     0.417000        1.0080           0
   94989 WT6  1746 TIP3 H2   HT     0.417000        1.0080           0
   94990 WT6  1749 TIP3 OH2  OT    -0.834000       15.9994           0
   94991 WT6  1749 TIP3 H1   HT     0.417000        1.0080           0
   94992 WT6  1749 TIP3 H2   HT     0.417000        1.0080           0
   94993 WT6  1750 TIP3 OH2  OT    -0.834000       15.9994           0
   94994 WT6  1750 TIP3 H1   HT     0.417000        1.0080           0
   94995 WT6  1750 TIP3 H2   HT     0.417000        1.0080           0
   94996 WT6  1751 TIP3 OH2  OT    -0.834000       15.9994           0
   94997 WT6  1751 TIP3 H1   HT     0.417000        1.0080           0
   94998 WT6  1751 TIP3 H2   HT     0.417000        1.0080           0
   94999 WT6  1752 TIP3 OH2  OT    -0.834000       15.9994           0
   95000 WT6  1752 TIP3 H1   HT     0.417000        1.0080           0
   95001 WT6  1752 TIP3 H2   HT     0.417000        1.0080           0
   95002 WT6  1754 TIP3 OH2  OT    -0.834000       15.9994           0
   95003 WT6  1754 TIP3 H1   HT     0.417000        1.0080           0
   95004 WT6  1754 TIP3 H2   HT     0.417000        1.0080           0
   95005 WT6  1755 TIP3 OH2  OT    -0.834000       15.9994           0
   95006 WT6  1755 TIP3 H1   HT     0.417000        1.0080           0
   95007 WT6  1755 TIP3 H2   HT     0.417000        1.0080           0
   95008 WT6  1757 TIP3 OH2  OT    -0.834000       15.9994           0
   95009 WT6  1757 TIP3 H1   HT     0.417000        1.0080           0
   95010 WT6  1757 TIP3 H2   HT     0.417000        1.0080           0
   95011 WT6  1764 TIP3 OH2  OT    -0.834000       15.9994           0
   95012 WT6  1764 TIP3 H1   HT     0.417000        1.0080           0
   95013 WT6  1764 TIP3 H2   HT     0.417000        1.0080           0
   95014 WT6  1766 TIP3 OH2  OT    -0.834000       15.9994           0
   95015 WT6  1766 TIP3 H1   HT     0.417000        1.0080           0
   95016 WT6  1766 TIP3 H2   HT     0.417000        1.0080           0
   95017 WT6  1767 TIP3 OH2  OT    -0.834000       15.9994           0
   95018 WT6  1767 TIP3 H1   HT     0.417000        1.0080           0
   95019 WT6  1767 TIP3 H2   HT     0.417000        1.0080           0
   95020 WT6  1769 TIP3 OH2  OT    -0.834000       15.9994           0
   95021 WT6  1769 TIP3 H1   HT     0.417000        1.0080           0
   95022 WT6  1769 TIP3 H2   HT     0.417000        1.0080           0
   95023 WT6  1770 TIP3 OH2  OT    -0.834000       15.9994           0
   95024 WT6  1770 TIP3 H1   HT     0.417000        1.0080           0
   95025 WT6  1770 TIP3 H2   HT     0.417000        1.0080           0
   95026 WT6  1771 TIP3 OH2  OT    -0.834000       15.9994           0
   95027 WT6  1771 TIP3 H1   HT     0.417000        1.0080           0
   95028 WT6  1771 TIP3 H2   HT     0.417000        1.0080           0
   95029 WT6  1772 TIP3 OH2  OT    -0.834000       15.9994           0
   95030 WT6  1772 TIP3 H1   HT     0.417000        1.0080           0
   95031 WT6  1772 TIP3 H2   HT     0.417000        1.0080           0
   95032 WT6  1773 TIP3 OH2  OT    -0.834000       15.9994           0
   95033 WT6  1773 TIP3 H1   HT     0.417000        1.0080           0
   95034 WT6  1773 TIP3 H2   HT     0.417000        1.0080           0
   95035 WT6  1774 TIP3 OH2  OT    -0.834000       15.9994           0
   95036 WT6  1774 TIP3 H1   HT     0.417000        1.0080           0
   95037 WT6  1774 TIP3 H2   HT     0.417000        1.0080           0
   95038 WT6  1775 TIP3 OH2  OT    -0.834000       15.9994           0
   95039 WT6  1775 TIP3 H1   HT     0.417000        1.0080           0
   95040 WT6  1775 TIP3 H2   HT     0.417000        1.0080           0
   95041 WT6  1776 TIP3 OH2  OT    -0.834000       15.9994           0
   95042 WT6  1776 TIP3 H1   HT     0.417000        1.0080           0
   95043 WT6  1776 TIP3 H2   HT     0.417000        1.0080           0
   95044 WT6  1777 TIP3 OH2  OT    -0.834000       15.9994           0
   95045 WT6  1777 TIP3 H1   HT     0.417000        1.0080           0
   95046 WT6  1777 TIP3 H2   HT     0.417000        1.0080           0
   95047 WT6  1780 TIP3 OH2  OT    -0.834000       15.9994           0
   95048 WT6  1780 TIP3 H1   HT     0.417000        1.0080           0
   95049 WT6  1780 TIP3 H2   HT     0.417000        1.0080           0
   95050 WT6  1784 TIP3 OH2  OT    -0.834000       15.9994           0
   95051 WT6  1784 TIP3 H1   HT     0.417000        1.0080           0
   95052 WT6  1784 TIP3 H2   HT     0.417000        1.0080           0
   95053 WT6  1785 TIP3 OH2  OT    -0.834000       15.9994           0
   95054 WT6  1785 TIP3 H1   HT     0.417000        1.0080           0
   95055 WT6  1785 TIP3 H2   HT     0.417000        1.0080           0
   95056 WT6  1788 TIP3 OH2  OT    -0.834000       15.9994           0
   95057 WT6  1788 TIP3 H1   HT     0.417000        1.0080           0
   95058 WT6  1788 TIP3 H2   HT     0.417000        1.0080           0
   95059 WT6  1789 TIP3 OH2  OT    -0.834000       15.9994           0
   95060 WT6  1789 TIP3 H1   HT     0.417000        1.0080           0
   95061 WT6  1789 TIP3 H2   HT     0.417000        1.0080           0
   95062 WT6  1790 TIP3 OH2  OT    -0.834000       15.9994           0
   95063 WT6  1790 TIP3 H1   HT     0.417000        1.0080           0
   95064 WT6  1790 TIP3 H2   HT     0.417000        1.0080           0
   95065 WT6  1791 TIP3 OH2  OT    -0.834000       15.9994           0
   95066 WT6  1791 TIP3 H1   HT     0.417000        1.0080           0
   95067 WT6  1791 TIP3 H2   HT     0.417000        1.0080           0
   95068 WT6  1792 TIP3 OH2  OT    -0.834000       15.9994           0
   95069 WT6  1792 TIP3 H1   HT     0.417000        1.0080           0
   95070 WT6  1792 TIP3 H2   HT     0.417000        1.0080           0
   95071 WT6  1793 TIP3 OH2  OT    -0.834000       15.9994           0
   95072 WT6  1793 TIP3 H1   HT     0.417000        1.0080           0
   95073 WT6  1793 TIP3 H2   HT     0.417000        1.0080           0
   95074 WT6  1794 TIP3 OH2  OT    -0.834000       15.9994           0
   95075 WT6  1794 TIP3 H1   HT     0.417000        1.0080           0
   95076 WT6  1794 TIP3 H2   HT     0.417000        1.0080           0
   95077 WT6  1795 TIP3 OH2  OT    -0.834000       15.9994           0
   95078 WT6  1795 TIP3 H1   HT     0.417000        1.0080           0
   95079 WT6  1795 TIP3 H2   HT     0.417000        1.0080           0
   95080 WT6  1796 TIP3 OH2  OT    -0.834000       15.9994           0
   95081 WT6  1796 TIP3 H1   HT     0.417000        1.0080           0
   95082 WT6  1796 TIP3 H2   HT     0.417000        1.0080           0
   95083 WT6  1797 TIP3 OH2  OT    -0.834000       15.9994           0
   95084 WT6  1797 TIP3 H1   HT     0.417000        1.0080           0
   95085 WT6  1797 TIP3 H2   HT     0.417000        1.0080           0
   95086 WT6  1798 TIP3 OH2  OT    -0.834000       15.9994           0
   95087 WT6  1798 TIP3 H1   HT     0.417000        1.0080           0
   95088 WT6  1798 TIP3 H2   HT     0.417000        1.0080           0
   95089 WT6  1799 TIP3 OH2  OT    -0.834000       15.9994           0
   95090 WT6  1799 TIP3 H1   HT     0.417000        1.0080           0
   95091 WT6  1799 TIP3 H2   HT     0.417000        1.0080           0
   95092 WT6  1808 TIP3 OH2  OT    -0.834000       15.9994           0
   95093 WT6  1808 TIP3 H1   HT     0.417000        1.0080           0
   95094 WT6  1808 TIP3 H2   HT     0.417000        1.0080           0
   95095 WT6  1810 TIP3 OH2  OT    -0.834000       15.9994           0
   95096 WT6  1810 TIP3 H1   HT     0.417000        1.0080           0
   95097 WT6  1810 TIP3 H2   HT     0.417000        1.0080           0
   95098 WT6  1811 TIP3 OH2  OT    -0.834000       15.9994           0
   95099 WT6  1811 TIP3 H1   HT     0.417000        1.0080           0
   95100 WT6  1811 TIP3 H2   HT     0.417000        1.0080           0
   95101 WT6  1812 TIP3 OH2  OT    -0.834000       15.9994           0
   95102 WT6  1812 TIP3 H1   HT     0.417000        1.0080           0
   95103 WT6  1812 TIP3 H2   HT     0.417000        1.0080           0
   95104 WT6  1813 TIP3 OH2  OT    -0.834000       15.9994           0
   95105 WT6  1813 TIP3 H1   HT     0.417000        1.0080           0
   95106 WT6  1813 TIP3 H2   HT     0.417000        1.0080           0
   95107 WT6  1814 TIP3 OH2  OT    -0.834000       15.9994           0
   95108 WT6  1814 TIP3 H1   HT     0.417000        1.0080           0
   95109 WT6  1814 TIP3 H2   HT     0.417000        1.0080           0
   95110 WT6  1815 TIP3 OH2  OT    -0.834000       15.9994           0
   95111 WT6  1815 TIP3 H1   HT     0.417000        1.0080           0
   95112 WT6  1815 TIP3 H2   HT     0.417000        1.0080           0
   95113 WT6  1816 TIP3 OH2  OT    -0.834000       15.9994           0
   95114 WT6  1816 TIP3 H1   HT     0.417000        1.0080           0
   95115 WT6  1816 TIP3 H2   HT     0.417000        1.0080           0
   95116 WT6  1817 TIP3 OH2  OT    -0.834000       15.9994           0
   95117 WT6  1817 TIP3 H1   HT     0.417000        1.0080           0
   95118 WT6  1817 TIP3 H2   HT     0.417000        1.0080           0
   95119 WT6  1818 TIP3 OH2  OT    -0.834000       15.9994           0
   95120 WT6  1818 TIP3 H1   HT     0.417000        1.0080           0
   95121 WT6  1818 TIP3 H2   HT     0.417000        1.0080           0
   95122 WT6  1820 TIP3 OH2  OT    -0.834000       15.9994           0
   95123 WT6  1820 TIP3 H1   HT     0.417000        1.0080           0
   95124 WT6  1820 TIP3 H2   HT     0.417000        1.0080           0
   95125 WT6  1821 TIP3 OH2  OT    -0.834000       15.9994           0
   95126 WT6  1821 TIP3 H1   HT     0.417000        1.0080           0
   95127 WT6  1821 TIP3 H2   HT     0.417000        1.0080           0
   95128 WT6  1824 TIP3 OH2  OT    -0.834000       15.9994           0
   95129 WT6  1824 TIP3 H1   HT     0.417000        1.0080           0
   95130 WT6  1824 TIP3 H2   HT     0.417000        1.0080           0
   95131 WT6  1826 TIP3 OH2  OT    -0.834000       15.9994           0
   95132 WT6  1826 TIP3 H1   HT     0.417000        1.0080           0
   95133 WT6  1826 TIP3 H2   HT     0.417000        1.0080           0
   95134 WT6  1829 TIP3 OH2  OT    -0.834000       15.9994           0
   95135 WT6  1829 TIP3 H1   HT     0.417000        1.0080           0
   95136 WT6  1829 TIP3 H2   HT     0.417000        1.0080           0
   95137 WT6  1830 TIP3 OH2  OT    -0.834000       15.9994           0
   95138 WT6  1830 TIP3 H1   HT     0.417000        1.0080           0
   95139 WT6  1830 TIP3 H2   HT     0.417000        1.0080           0
   95140 WT6  1831 TIP3 OH2  OT    -0.834000       15.9994           0
   95141 WT6  1831 TIP3 H1   HT     0.417000        1.0080           0
   95142 WT6  1831 TIP3 H2   HT     0.417000        1.0080           0
   95143 WT6  1832 TIP3 OH2  OT    -0.834000       15.9994           0
   95144 WT6  1832 TIP3 H1   HT     0.417000        1.0080           0
   95145 WT6  1832 TIP3 H2   HT     0.417000        1.0080           0
   95146 WT6  1833 TIP3 OH2  OT    -0.834000       15.9994           0
   95147 WT6  1833 TIP3 H1   HT     0.417000        1.0080           0
   95148 WT6  1833 TIP3 H2   HT     0.417000        1.0080           0
   95149 WT6  1835 TIP3 OH2  OT    -0.834000       15.9994           0
   95150 WT6  1835 TIP3 H1   HT     0.417000        1.0080           0
   95151 WT6  1835 TIP3 H2   HT     0.417000        1.0080           0
   95152 WT6  1836 TIP3 OH2  OT    -0.834000       15.9994           0
   95153 WT6  1836 TIP3 H1   HT     0.417000        1.0080           0
   95154 WT6  1836 TIP3 H2   HT     0.417000        1.0080           0
   95155 WT6  1837 TIP3 OH2  OT    -0.834000       15.9994           0
   95156 WT6  1837 TIP3 H1   HT     0.417000        1.0080           0
   95157 WT6  1837 TIP3 H2   HT     0.417000        1.0080           0
   95158 WT6  1838 TIP3 OH2  OT    -0.834000       15.9994           0
   95159 WT6  1838 TIP3 H1   HT     0.417000        1.0080           0
   95160 WT6  1838 TIP3 H2   HT     0.417000        1.0080           0
   95161 WT6  1839 TIP3 OH2  OT    -0.834000       15.9994           0
   95162 WT6  1839 TIP3 H1   HT     0.417000        1.0080           0
   95163 WT6  1839 TIP3 H2   HT     0.417000        1.0080           0
   95164 WT6  1840 TIP3 OH2  OT    -0.834000       15.9994           0
   95165 WT6  1840 TIP3 H1   HT     0.417000        1.0080           0
   95166 WT6  1840 TIP3 H2   HT     0.417000        1.0080           0
   95167 WT6  1841 TIP3 OH2  OT    -0.834000       15.9994           0
   95168 WT6  1841 TIP3 H1   HT     0.417000        1.0080           0
   95169 WT6  1841 TIP3 H2   HT     0.417000        1.0080           0
   95170 WT6  1844 TIP3 OH2  OT    -0.834000       15.9994           0
   95171 WT6  1844 TIP3 H1   HT     0.417000        1.0080           0
   95172 WT6  1844 TIP3 H2   HT     0.417000        1.0080           0
   95173 WT6  1847 TIP3 OH2  OT    -0.834000       15.9994           0
   95174 WT6  1847 TIP3 H1   HT     0.417000        1.0080           0
   95175 WT6  1847 TIP3 H2   HT     0.417000        1.0080           0
   95176 WT6  1849 TIP3 OH2  OT    -0.834000       15.9994           0
   95177 WT6  1849 TIP3 H1   HT     0.417000        1.0080           0
   95178 WT6  1849 TIP3 H2   HT     0.417000        1.0080           0
   95179 WT6  1850 TIP3 OH2  OT    -0.834000       15.9994           0
   95180 WT6  1850 TIP3 H1   HT     0.417000        1.0080           0
   95181 WT6  1850 TIP3 H2   HT     0.417000        1.0080           0
   95182 WT6  1851 TIP3 OH2  OT    -0.834000       15.9994           0
   95183 WT6  1851 TIP3 H1   HT     0.417000        1.0080           0
   95184 WT6  1851 TIP3 H2   HT     0.417000        1.0080           0
   95185 WT6  1852 TIP3 OH2  OT    -0.834000       15.9994           0
   95186 WT6  1852 TIP3 H1   HT     0.417000        1.0080           0
   95187 WT6  1852 TIP3 H2   HT     0.417000        1.0080           0
   95188 WT6  1853 TIP3 OH2  OT    -0.834000       15.9994           0
   95189 WT6  1853 TIP3 H1   HT     0.417000        1.0080           0
   95190 WT6  1853 TIP3 H2   HT     0.417000        1.0080           0
   95191 WT6  1854 TIP3 OH2  OT    -0.834000       15.9994           0
   95192 WT6  1854 TIP3 H1   HT     0.417000        1.0080           0
   95193 WT6  1854 TIP3 H2   HT     0.417000        1.0080           0
   95194 WT6  1856 TIP3 OH2  OT    -0.834000       15.9994           0
   95195 WT6  1856 TIP3 H1   HT     0.417000        1.0080           0
   95196 WT6  1856 TIP3 H2   HT     0.417000        1.0080           0
   95197 WT6  1857 TIP3 OH2  OT    -0.834000       15.9994           0
   95198 WT6  1857 TIP3 H1   HT     0.417000        1.0080           0
   95199 WT6  1857 TIP3 H2   HT     0.417000        1.0080           0
   95200 WT6  1858 TIP3 OH2  OT    -0.834000       15.9994           0
   95201 WT6  1858 TIP3 H1   HT     0.417000        1.0080           0
   95202 WT6  1858 TIP3 H2   HT     0.417000        1.0080           0
   95203 WT6  1859 TIP3 OH2  OT    -0.834000       15.9994           0
   95204 WT6  1859 TIP3 H1   HT     0.417000        1.0080           0
   95205 WT6  1859 TIP3 H2   HT     0.417000        1.0080           0
   95206 WT6  1860 TIP3 OH2  OT    -0.834000       15.9994           0
   95207 WT6  1860 TIP3 H1   HT     0.417000        1.0080           0
   95208 WT6  1860 TIP3 H2   HT     0.417000        1.0080           0
   95209 WT6  1861 TIP3 OH2  OT    -0.834000       15.9994           0
   95210 WT6  1861 TIP3 H1   HT     0.417000        1.0080           0
   95211 WT6  1861 TIP3 H2   HT     0.417000        1.0080           0
   95212 WT6  1862 TIP3 OH2  OT    -0.834000       15.9994           0
   95213 WT6  1862 TIP3 H1   HT     0.417000        1.0080           0
   95214 WT6  1862 TIP3 H2   HT     0.417000        1.0080           0
   95215 WT6  1864 TIP3 OH2  OT    -0.834000       15.9994           0
   95216 WT6  1864 TIP3 H1   HT     0.417000        1.0080           0
   95217 WT6  1864 TIP3 H2   HT     0.417000        1.0080           0
   95218 WT6  1866 TIP3 OH2  OT    -0.834000       15.9994           0
   95219 WT6  1866 TIP3 H1   HT     0.417000        1.0080           0
   95220 WT6  1866 TIP3 H2   HT     0.417000        1.0080           0
   95221 WT6  1870 TIP3 OH2  OT    -0.834000       15.9994           0
   95222 WT6  1870 TIP3 H1   HT     0.417000        1.0080           0
   95223 WT6  1870 TIP3 H2   HT     0.417000        1.0080           0
   95224 WT6  1871 TIP3 OH2  OT    -0.834000       15.9994           0
   95225 WT6  1871 TIP3 H1   HT     0.417000        1.0080           0
   95226 WT6  1871 TIP3 H2   HT     0.417000        1.0080           0
   95227 WT6  1872 TIP3 OH2  OT    -0.834000       15.9994           0
   95228 WT6  1872 TIP3 H1   HT     0.417000        1.0080           0
   95229 WT6  1872 TIP3 H2   HT     0.417000        1.0080           0
   95230 WT6  1873 TIP3 OH2  OT    -0.834000       15.9994           0
   95231 WT6  1873 TIP3 H1   HT     0.417000        1.0080           0
   95232 WT6  1873 TIP3 H2   HT     0.417000        1.0080           0
   95233 WT6  1874 TIP3 OH2  OT    -0.834000       15.9994           0
   95234 WT6  1874 TIP3 H1   HT     0.417000        1.0080           0
   95235 WT6  1874 TIP3 H2   HT     0.417000        1.0080           0
   95236 WT6  1875 TIP3 OH2  OT    -0.834000       15.9994           0
   95237 WT6  1875 TIP3 H1   HT     0.417000        1.0080           0
   95238 WT6  1875 TIP3 H2   HT     0.417000        1.0080           0
   95239 WT6  1876 TIP3 OH2  OT    -0.834000       15.9994           0
   95240 WT6  1876 TIP3 H1   HT     0.417000        1.0080           0
   95241 WT6  1876 TIP3 H2   HT     0.417000        1.0080           0
   95242 WT6  1877 TIP3 OH2  OT    -0.834000       15.9994           0
   95243 WT6  1877 TIP3 H1   HT     0.417000        1.0080           0
   95244 WT6  1877 TIP3 H2   HT     0.417000        1.0080           0
   95245 WT6  1878 TIP3 OH2  OT    -0.834000       15.9994           0
   95246 WT6  1878 TIP3 H1   HT     0.417000        1.0080           0
   95247 WT6  1878 TIP3 H2   HT     0.417000        1.0080           0
   95248 WT6  1879 TIP3 OH2  OT    -0.834000       15.9994           0
   95249 WT6  1879 TIP3 H1   HT     0.417000        1.0080           0
   95250 WT6  1879 TIP3 H2   HT     0.417000        1.0080           0
   95251 WT6  1880 TIP3 OH2  OT    -0.834000       15.9994           0
   95252 WT6  1880 TIP3 H1   HT     0.417000        1.0080           0
   95253 WT6  1880 TIP3 H2   HT     0.417000        1.0080           0
   95254 WT6  1881 TIP3 OH2  OT    -0.834000       15.9994           0
   95255 WT6  1881 TIP3 H1   HT     0.417000        1.0080           0
   95256 WT6  1881 TIP3 H2   HT     0.417000        1.0080           0
   95257 WT6  1883 TIP3 OH2  OT    -0.834000       15.9994           0
   95258 WT6  1883 TIP3 H1   HT     0.417000        1.0080           0
   95259 WT6  1883 TIP3 H2   HT     0.417000        1.0080           0
   95260 WT6  1885 TIP3 OH2  OT    -0.834000       15.9994           0
   95261 WT6  1885 TIP3 H1   HT     0.417000        1.0080           0
   95262 WT6  1885 TIP3 H2   HT     0.417000        1.0080           0
   95263 WT6  1891 TIP3 OH2  OT    -0.834000       15.9994           0
   95264 WT6  1891 TIP3 H1   HT     0.417000        1.0080           0
   95265 WT6  1891 TIP3 H2   HT     0.417000        1.0080           0
   95266 WT6  1892 TIP3 OH2  OT    -0.834000       15.9994           0
   95267 WT6  1892 TIP3 H1   HT     0.417000        1.0080           0
   95268 WT6  1892 TIP3 H2   HT     0.417000        1.0080           0
   95269 WT6  1894 TIP3 OH2  OT    -0.834000       15.9994           0
   95270 WT6  1894 TIP3 H1   HT     0.417000        1.0080           0
   95271 WT6  1894 TIP3 H2   HT     0.417000        1.0080           0
   95272 WT6  1895 TIP3 OH2  OT    -0.834000       15.9994           0
   95273 WT6  1895 TIP3 H1   HT     0.417000        1.0080           0
   95274 WT6  1895 TIP3 H2   HT     0.417000        1.0080           0
   95275 WT6  1896 TIP3 OH2  OT    -0.834000       15.9994           0
   95276 WT6  1896 TIP3 H1   HT     0.417000        1.0080           0
   95277 WT6  1896 TIP3 H2   HT     0.417000        1.0080           0
   95278 WT6  1897 TIP3 OH2  OT    -0.834000       15.9994           0
   95279 WT6  1897 TIP3 H1   HT     0.417000        1.0080           0
   95280 WT6  1897 TIP3 H2   HT     0.417000        1.0080           0
   95281 WT6  1898 TIP3 OH2  OT    -0.834000       15.9994           0
   95282 WT6  1898 TIP3 H1   HT     0.417000        1.0080           0
   95283 WT6  1898 TIP3 H2   HT     0.417000        1.0080           0
   95284 WT6  1899 TIP3 OH2  OT    -0.834000       15.9994           0
   95285 WT6  1899 TIP3 H1   HT     0.417000        1.0080           0
   95286 WT6  1899 TIP3 H2   HT     0.417000        1.0080           0
   95287 WT6  1900 TIP3 OH2  OT    -0.834000       15.9994           0
   95288 WT6  1900 TIP3 H1   HT     0.417000        1.0080           0
   95289 WT6  1900 TIP3 H2   HT     0.417000        1.0080           0
   95290 WT6  1901 TIP3 OH2  OT    -0.834000       15.9994           0
   95291 WT6  1901 TIP3 H1   HT     0.417000        1.0080           0
   95292 WT6  1901 TIP3 H2   HT     0.417000        1.0080           0
   95293 WT6  1902 TIP3 OH2  OT    -0.834000       15.9994           0
   95294 WT6  1902 TIP3 H1   HT     0.417000        1.0080           0
   95295 WT6  1902 TIP3 H2   HT     0.417000        1.0080           0
   95296 WT6  1906 TIP3 OH2  OT    -0.834000       15.9994           0
   95297 WT6  1906 TIP3 H1   HT     0.417000        1.0080           0
   95298 WT6  1906 TIP3 H2   HT     0.417000        1.0080           0
   95299 WT6  1907 TIP3 OH2  OT    -0.834000       15.9994           0
   95300 WT6  1907 TIP3 H1   HT     0.417000        1.0080           0
   95301 WT6  1907 TIP3 H2   HT     0.417000        1.0080           0
   95302 WT6  1911 TIP3 OH2  OT    -0.834000       15.9994           0
   95303 WT6  1911 TIP3 H1   HT     0.417000        1.0080           0
   95304 WT6  1911 TIP3 H2   HT     0.417000        1.0080           0
   95305 WT6  1912 TIP3 OH2  OT    -0.834000       15.9994           0
   95306 WT6  1912 TIP3 H1   HT     0.417000        1.0080           0
   95307 WT6  1912 TIP3 H2   HT     0.417000        1.0080           0
   95308 WT6  1913 TIP3 OH2  OT    -0.834000       15.9994           0
   95309 WT6  1913 TIP3 H1   HT     0.417000        1.0080           0
   95310 WT6  1913 TIP3 H2   HT     0.417000        1.0080           0
   95311 WT6  1914 TIP3 OH2  OT    -0.834000       15.9994           0
   95312 WT6  1914 TIP3 H1   HT     0.417000        1.0080           0
   95313 WT6  1914 TIP3 H2   HT     0.417000        1.0080           0
   95314 WT6  1915 TIP3 OH2  OT    -0.834000       15.9994           0
   95315 WT6  1915 TIP3 H1   HT     0.417000        1.0080           0
   95316 WT6  1915 TIP3 H2   HT     0.417000        1.0080           0
   95317 WT6  1916 TIP3 OH2  OT    -0.834000       15.9994           0
   95318 WT6  1916 TIP3 H1   HT     0.417000        1.0080           0
   95319 WT6  1916 TIP3 H2   HT     0.417000        1.0080           0
   95320 WT6  1918 TIP3 OH2  OT    -0.834000       15.9994           0
   95321 WT6  1918 TIP3 H1   HT     0.417000        1.0080           0
   95322 WT6  1918 TIP3 H2   HT     0.417000        1.0080           0
   95323 WT6  1919 TIP3 OH2  OT    -0.834000       15.9994           0
   95324 WT6  1919 TIP3 H1   HT     0.417000        1.0080           0
   95325 WT6  1919 TIP3 H2   HT     0.417000        1.0080           0
   95326 WT6  1920 TIP3 OH2  OT    -0.834000       15.9994           0
   95327 WT6  1920 TIP3 H1   HT     0.417000        1.0080           0
   95328 WT6  1920 TIP3 H2   HT     0.417000        1.0080           0
   95329 WT6  1921 TIP3 OH2  OT    -0.834000       15.9994           0
   95330 WT6  1921 TIP3 H1   HT     0.417000        1.0080           0
   95331 WT6  1921 TIP3 H2   HT     0.417000        1.0080           0
   95332 WT6  1922 TIP3 OH2  OT    -0.834000       15.9994           0
   95333 WT6  1922 TIP3 H1   HT     0.417000        1.0080           0
   95334 WT6  1922 TIP3 H2   HT     0.417000        1.0080           0
   95335 WT6  1923 TIP3 OH2  OT    -0.834000       15.9994           0
   95336 WT6  1923 TIP3 H1   HT     0.417000        1.0080           0
   95337 WT6  1923 TIP3 H2   HT     0.417000        1.0080           0
   95338 WT6  1924 TIP3 OH2  OT    -0.834000       15.9994           0
   95339 WT6  1924 TIP3 H1   HT     0.417000        1.0080           0
   95340 WT6  1924 TIP3 H2   HT     0.417000        1.0080           0
   95341 WT6  1925 TIP3 OH2  OT    -0.834000       15.9994           0
   95342 WT6  1925 TIP3 H1   HT     0.417000        1.0080           0
   95343 WT6  1925 TIP3 H2   HT     0.417000        1.0080           0
   95344 WT6  1926 TIP3 OH2  OT    -0.834000       15.9994           0
   95345 WT6  1926 TIP3 H1   HT     0.417000        1.0080           0
   95346 WT6  1926 TIP3 H2   HT     0.417000        1.0080           0
   95347 WT6  1934 TIP3 OH2  OT    -0.834000       15.9994           0
   95348 WT6  1934 TIP3 H1   HT     0.417000        1.0080           0
   95349 WT6  1934 TIP3 H2   HT     0.417000        1.0080           0
   95350 WT6  1935 TIP3 OH2  OT    -0.834000       15.9994           0
   95351 WT6  1935 TIP3 H1   HT     0.417000        1.0080           0
   95352 WT6  1935 TIP3 H2   HT     0.417000        1.0080           0
   95353 WT6  1936 TIP3 OH2  OT    -0.834000       15.9994           0
   95354 WT6  1936 TIP3 H1   HT     0.417000        1.0080           0
   95355 WT6  1936 TIP3 H2   HT     0.417000        1.0080           0
   95356 WT6  1937 TIP3 OH2  OT    -0.834000       15.9994           0
   95357 WT6  1937 TIP3 H1   HT     0.417000        1.0080           0
   95358 WT6  1937 TIP3 H2   HT     0.417000        1.0080           0
   95359 WT6  1938 TIP3 OH2  OT    -0.834000       15.9994           0
   95360 WT6  1938 TIP3 H1   HT     0.417000        1.0080           0
   95361 WT6  1938 TIP3 H2   HT     0.417000        1.0080           0
   95362 WT6  1939 TIP3 OH2  OT    -0.834000       15.9994           0
   95363 WT6  1939 TIP3 H1   HT     0.417000        1.0080           0
   95364 WT6  1939 TIP3 H2   HT     0.417000        1.0080           0
   95365 WT6  1940 TIP3 OH2  OT    -0.834000       15.9994           0
   95366 WT6  1940 TIP3 H1   HT     0.417000        1.0080           0
   95367 WT6  1940 TIP3 H2   HT     0.417000        1.0080           0
   95368 WT6  1941 TIP3 OH2  OT    -0.834000       15.9994           0
   95369 WT6  1941 TIP3 H1   HT     0.417000        1.0080           0
   95370 WT6  1941 TIP3 H2   HT     0.417000        1.0080           0
   95371 WT6  1942 TIP3 OH2  OT    -0.834000       15.9994           0
   95372 WT6  1942 TIP3 H1   HT     0.417000        1.0080           0
   95373 WT6  1942 TIP3 H2   HT     0.417000        1.0080           0
   95374 WT6  1943 TIP3 OH2  OT    -0.834000       15.9994           0
   95375 WT6  1943 TIP3 H1   HT     0.417000        1.0080           0
   95376 WT6  1943 TIP3 H2   HT     0.417000        1.0080           0
   95377 WT6  1944 TIP3 OH2  OT    -0.834000       15.9994           0
   95378 WT6  1944 TIP3 H1   HT     0.417000        1.0080           0
   95379 WT6  1944 TIP3 H2   HT     0.417000        1.0080           0
   95380 WT6  1945 TIP3 OH2  OT    -0.834000       15.9994           0
   95381 WT6  1945 TIP3 H1   HT     0.417000        1.0080           0
   95382 WT6  1945 TIP3 H2   HT     0.417000        1.0080           0
   95383 WT6  1946 TIP3 OH2  OT    -0.834000       15.9994           0
   95384 WT6  1946 TIP3 H1   HT     0.417000        1.0080           0
   95385 WT6  1946 TIP3 H2   HT     0.417000        1.0080           0
   95386 WT6  1947 TIP3 OH2  OT    -0.834000       15.9994           0
   95387 WT6  1947 TIP3 H1   HT     0.417000        1.0080           0
   95388 WT6  1947 TIP3 H2   HT     0.417000        1.0080           0
   95389 WT6  1948 TIP3 OH2  OT    -0.834000       15.9994           0
   95390 WT6  1948 TIP3 H1   HT     0.417000        1.0080           0
   95391 WT6  1948 TIP3 H2   HT     0.417000        1.0080           0
   95392 WT6  1949 TIP3 OH2  OT    -0.834000       15.9994           0
   95393 WT6  1949 TIP3 H1   HT     0.417000        1.0080           0
   95394 WT6  1949 TIP3 H2   HT     0.417000        1.0080           0
   95395 WT6  1950 TIP3 OH2  OT    -0.834000       15.9994           0
   95396 WT6  1950 TIP3 H1   HT     0.417000        1.0080           0
   95397 WT6  1950 TIP3 H2   HT     0.417000        1.0080           0
   95398 WT6  1952 TIP3 OH2  OT    -0.834000       15.9994           0
   95399 WT6  1952 TIP3 H1   HT     0.417000        1.0080           0
   95400 WT6  1952 TIP3 H2   HT     0.417000        1.0080           0
   95401 WT6  1953 TIP3 OH2  OT    -0.834000       15.9994           0
   95402 WT6  1953 TIP3 H1   HT     0.417000        1.0080           0
   95403 WT6  1953 TIP3 H2   HT     0.417000        1.0080           0
   95404 WT6  1954 TIP3 OH2  OT    -0.834000       15.9994           0
   95405 WT6  1954 TIP3 H1   HT     0.417000        1.0080           0
   95406 WT6  1954 TIP3 H2   HT     0.417000        1.0080           0
   95407 WT6  1955 TIP3 OH2  OT    -0.834000       15.9994           0
   95408 WT6  1955 TIP3 H1   HT     0.417000        1.0080           0
   95409 WT6  1955 TIP3 H2   HT     0.417000        1.0080           0
   95410 WT6  1960 TIP3 OH2  OT    -0.834000       15.9994           0
   95411 WT6  1960 TIP3 H1   HT     0.417000        1.0080           0
   95412 WT6  1960 TIP3 H2   HT     0.417000        1.0080           0
   95413 WT6  1961 TIP3 OH2  OT    -0.834000       15.9994           0
   95414 WT6  1961 TIP3 H1   HT     0.417000        1.0080           0
   95415 WT6  1961 TIP3 H2   HT     0.417000        1.0080           0
   95416 WT6  1962 TIP3 OH2  OT    -0.834000       15.9994           0
   95417 WT6  1962 TIP3 H1   HT     0.417000        1.0080           0
   95418 WT6  1962 TIP3 H2   HT     0.417000        1.0080           0
   95419 WT6  1963 TIP3 OH2  OT    -0.834000       15.9994           0
   95420 WT6  1963 TIP3 H1   HT     0.417000        1.0080           0
   95421 WT6  1963 TIP3 H2   HT     0.417000        1.0080           0
   95422 WT6  1965 TIP3 OH2  OT    -0.834000       15.9994           0
   95423 WT6  1965 TIP3 H1   HT     0.417000        1.0080           0
   95424 WT6  1965 TIP3 H2   HT     0.417000        1.0080           0
   95425 WT6  1966 TIP3 OH2  OT    -0.834000       15.9994           0
   95426 WT6  1966 TIP3 H1   HT     0.417000        1.0080           0
   95427 WT6  1966 TIP3 H2   HT     0.417000        1.0080           0
   95428 WT6  1967 TIP3 OH2  OT    -0.834000       15.9994           0
   95429 WT6  1967 TIP3 H1   HT     0.417000        1.0080           0
   95430 WT6  1967 TIP3 H2   HT     0.417000        1.0080           0
   95431 WT6  1969 TIP3 OH2  OT    -0.834000       15.9994           0
   95432 WT6  1969 TIP3 H1   HT     0.417000        1.0080           0
   95433 WT6  1969 TIP3 H2   HT     0.417000        1.0080           0
   95434 WT6  1976 TIP3 OH2  OT    -0.834000       15.9994           0
   95435 WT6  1976 TIP3 H1   HT     0.417000        1.0080           0
   95436 WT6  1976 TIP3 H2   HT     0.417000        1.0080           0
   95437 WT6  1977 TIP3 OH2  OT    -0.834000       15.9994           0
   95438 WT6  1977 TIP3 H1   HT     0.417000        1.0080           0
   95439 WT6  1977 TIP3 H2   HT     0.417000        1.0080           0
   95440 WT6  1978 TIP3 OH2  OT    -0.834000       15.9994           0
   95441 WT6  1978 TIP3 H1   HT     0.417000        1.0080           0
   95442 WT6  1978 TIP3 H2   HT     0.417000        1.0080           0
   95443 WT6  1979 TIP3 OH2  OT    -0.834000       15.9994           0
   95444 WT6  1979 TIP3 H1   HT     0.417000        1.0080           0
   95445 WT6  1979 TIP3 H2   HT     0.417000        1.0080           0
   95446 WT6  1980 TIP3 OH2  OT    -0.834000       15.9994           0
   95447 WT6  1980 TIP3 H1   HT     0.417000        1.0080           0
   95448 WT6  1980 TIP3 H2   HT     0.417000        1.0080           0
   95449 WT6  1981 TIP3 OH2  OT    -0.834000       15.9994           0
   95450 WT6  1981 TIP3 H1   HT     0.417000        1.0080           0
   95451 WT6  1981 TIP3 H2   HT     0.417000        1.0080           0
   95452 WT6  1984 TIP3 OH2  OT    -0.834000       15.9994           0
   95453 WT6  1984 TIP3 H1   HT     0.417000        1.0080           0
   95454 WT6  1984 TIP3 H2   HT     0.417000        1.0080           0
   95455 WT6  1986 TIP3 OH2  OT    -0.834000       15.9994           0
   95456 WT6  1986 TIP3 H1   HT     0.417000        1.0080           0
   95457 WT6  1986 TIP3 H2   HT     0.417000        1.0080           0
   95458 WT6  1987 TIP3 OH2  OT    -0.834000       15.9994           0
   95459 WT6  1987 TIP3 H1   HT     0.417000        1.0080           0
   95460 WT6  1987 TIP3 H2   HT     0.417000        1.0080           0
   95461 WT6  1988 TIP3 OH2  OT    -0.834000       15.9994           0
   95462 WT6  1988 TIP3 H1   HT     0.417000        1.0080           0
   95463 WT6  1988 TIP3 H2   HT     0.417000        1.0080           0
   95464 WT6  1989 TIP3 OH2  OT    -0.834000       15.9994           0
   95465 WT6  1989 TIP3 H1   HT     0.417000        1.0080           0
   95466 WT6  1989 TIP3 H2   HT     0.417000        1.0080           0
   95467 WT6  1993 TIP3 OH2  OT    -0.834000       15.9994           0
   95468 WT6  1993 TIP3 H1   HT     0.417000        1.0080           0
   95469 WT6  1993 TIP3 H2   HT     0.417000        1.0080           0
   95470 WT6  1998 TIP3 OH2  OT    -0.834000       15.9994           0
   95471 WT6  1998 TIP3 H1   HT     0.417000        1.0080           0
   95472 WT6  1998 TIP3 H2   HT     0.417000        1.0080           0
   95473 WT6  1999 TIP3 OH2  OT    -0.834000       15.9994           0
   95474 WT6  1999 TIP3 H1   HT     0.417000        1.0080           0
   95475 WT6  1999 TIP3 H2   HT     0.417000        1.0080           0
   95476 WT6  2000 TIP3 OH2  OT    -0.834000       15.9994           0
   95477 WT6  2000 TIP3 H1   HT     0.417000        1.0080           0
   95478 WT6  2000 TIP3 H2   HT     0.417000        1.0080           0
   95479 WT6  2001 TIP3 OH2  OT    -0.834000       15.9994           0
   95480 WT6  2001 TIP3 H1   HT     0.417000        1.0080           0
   95481 WT6  2001 TIP3 H2   HT     0.417000        1.0080           0
   95482 WT6  2002 TIP3 OH2  OT    -0.834000       15.9994           0
   95483 WT6  2002 TIP3 H1   HT     0.417000        1.0080           0
   95484 WT6  2002 TIP3 H2   HT     0.417000        1.0080           0
   95485 WT6  2003 TIP3 OH2  OT    -0.834000       15.9994           0
   95486 WT6  2003 TIP3 H1   HT     0.417000        1.0080           0
   95487 WT6  2003 TIP3 H2   HT     0.417000        1.0080           0
   95488 WT6  2004 TIP3 OH2  OT    -0.834000       15.9994           0
   95489 WT6  2004 TIP3 H1   HT     0.417000        1.0080           0
   95490 WT6  2004 TIP3 H2   HT     0.417000        1.0080           0
   95491 WT6  2005 TIP3 OH2  OT    -0.834000       15.9994           0
   95492 WT6  2005 TIP3 H1   HT     0.417000        1.0080           0
   95493 WT6  2005 TIP3 H2   HT     0.417000        1.0080           0
   95494 WT6  2007 TIP3 OH2  OT    -0.834000       15.9994           0
   95495 WT6  2007 TIP3 H1   HT     0.417000        1.0080           0
   95496 WT6  2007 TIP3 H2   HT     0.417000        1.0080           0
   95497 WT6  2009 TIP3 OH2  OT    -0.834000       15.9994           0
   95498 WT6  2009 TIP3 H1   HT     0.417000        1.0080           0
   95499 WT6  2009 TIP3 H2   HT     0.417000        1.0080           0
   95500 WT6  2014 TIP3 OH2  OT    -0.834000       15.9994           0
   95501 WT6  2014 TIP3 H1   HT     0.417000        1.0080           0
   95502 WT6  2014 TIP3 H2   HT     0.417000        1.0080           0
   95503 WT6  2016 TIP3 OH2  OT    -0.834000       15.9994           0
   95504 WT6  2016 TIP3 H1   HT     0.417000        1.0080           0
   95505 WT6  2016 TIP3 H2   HT     0.417000        1.0080           0
   95506 WT6  2018 TIP3 OH2  OT    -0.834000       15.9994           0
   95507 WT6  2018 TIP3 H1   HT     0.417000        1.0080           0
   95508 WT6  2018 TIP3 H2   HT     0.417000        1.0080           0
   95509 WT6  2019 TIP3 OH2  OT    -0.834000       15.9994           0
   95510 WT6  2019 TIP3 H1   HT     0.417000        1.0080           0
   95511 WT6  2019 TIP3 H2   HT     0.417000        1.0080           0
   95512 WT6  2020 TIP3 OH2  OT    -0.834000       15.9994           0
   95513 WT6  2020 TIP3 H1   HT     0.417000        1.0080           0
   95514 WT6  2020 TIP3 H2   HT     0.417000        1.0080           0
   95515 WT6  2021 TIP3 OH2  OT    -0.834000       15.9994           0
   95516 WT6  2021 TIP3 H1   HT     0.417000        1.0080           0
   95517 WT6  2021 TIP3 H2   HT     0.417000        1.0080           0
   95518 WT6  2022 TIP3 OH2  OT    -0.834000       15.9994           0
   95519 WT6  2022 TIP3 H1   HT     0.417000        1.0080           0
   95520 WT6  2022 TIP3 H2   HT     0.417000        1.0080           0
   95521 WT6  2023 TIP3 OH2  OT    -0.834000       15.9994           0
   95522 WT6  2023 TIP3 H1   HT     0.417000        1.0080           0
   95523 WT6  2023 TIP3 H2   HT     0.417000        1.0080           0
   95524 WT6  2024 TIP3 OH2  OT    -0.834000       15.9994           0
   95525 WT6  2024 TIP3 H1   HT     0.417000        1.0080           0
   95526 WT6  2024 TIP3 H2   HT     0.417000        1.0080           0
   95527 WT6  2025 TIP3 OH2  OT    -0.834000       15.9994           0
   95528 WT6  2025 TIP3 H1   HT     0.417000        1.0080           0
   95529 WT6  2025 TIP3 H2   HT     0.417000        1.0080           0
   95530 WT6  2026 TIP3 OH2  OT    -0.834000       15.9994           0
   95531 WT6  2026 TIP3 H1   HT     0.417000        1.0080           0
   95532 WT6  2026 TIP3 H2   HT     0.417000        1.0080           0
   95533 WT6  2027 TIP3 OH2  OT    -0.834000       15.9994           0
   95534 WT6  2027 TIP3 H1   HT     0.417000        1.0080           0
   95535 WT6  2027 TIP3 H2   HT     0.417000        1.0080           0
   95536 WT6  2028 TIP3 OH2  OT    -0.834000       15.9994           0
   95537 WT6  2028 TIP3 H1   HT     0.417000        1.0080           0
   95538 WT6  2028 TIP3 H2   HT     0.417000        1.0080           0
   95539 WT6  2029 TIP3 OH2  OT    -0.834000       15.9994           0
   95540 WT6  2029 TIP3 H1   HT     0.417000        1.0080           0
   95541 WT6  2029 TIP3 H2   HT     0.417000        1.0080           0
   95542 WT6  2031 TIP3 OH2  OT    -0.834000       15.9994           0
   95543 WT6  2031 TIP3 H1   HT     0.417000        1.0080           0
   95544 WT6  2031 TIP3 H2   HT     0.417000        1.0080           0
   95545 WT6  2032 TIP3 OH2  OT    -0.834000       15.9994           0
   95546 WT6  2032 TIP3 H1   HT     0.417000        1.0080           0
   95547 WT6  2032 TIP3 H2   HT     0.417000        1.0080           0
   95548 WT6  2037 TIP3 OH2  OT    -0.834000       15.9994           0
   95549 WT6  2037 TIP3 H1   HT     0.417000        1.0080           0
   95550 WT6  2037 TIP3 H2   HT     0.417000        1.0080           0
   95551 WT6  2038 TIP3 OH2  OT    -0.834000       15.9994           0
   95552 WT6  2038 TIP3 H1   HT     0.417000        1.0080           0
   95553 WT6  2038 TIP3 H2   HT     0.417000        1.0080           0
   95554 WT6  2039 TIP3 OH2  OT    -0.834000       15.9994           0
   95555 WT6  2039 TIP3 H1   HT     0.417000        1.0080           0
   95556 WT6  2039 TIP3 H2   HT     0.417000        1.0080           0
   95557 WT6  2040 TIP3 OH2  OT    -0.834000       15.9994           0
   95558 WT6  2040 TIP3 H1   HT     0.417000        1.0080           0
   95559 WT6  2040 TIP3 H2   HT     0.417000        1.0080           0
   95560 WT6  2041 TIP3 OH2  OT    -0.834000       15.9994           0
   95561 WT6  2041 TIP3 H1   HT     0.417000        1.0080           0
   95562 WT6  2041 TIP3 H2   HT     0.417000        1.0080           0
   95563 WT6  2042 TIP3 OH2  OT    -0.834000       15.9994           0
   95564 WT6  2042 TIP3 H1   HT     0.417000        1.0080           0
   95565 WT6  2042 TIP3 H2   HT     0.417000        1.0080           0
   95566 WT6  2043 TIP3 OH2  OT    -0.834000       15.9994           0
   95567 WT6  2043 TIP3 H1   HT     0.417000        1.0080           0
   95568 WT6  2043 TIP3 H2   HT     0.417000        1.0080           0
   95569 WT6  2044 TIP3 OH2  OT    -0.834000       15.9994           0
   95570 WT6  2044 TIP3 H1   HT     0.417000        1.0080           0
   95571 WT6  2044 TIP3 H2   HT     0.417000        1.0080           0
   95572 WT6  2045 TIP3 OH2  OT    -0.834000       15.9994           0
   95573 WT6  2045 TIP3 H1   HT     0.417000        1.0080           0
   95574 WT6  2045 TIP3 H2   HT     0.417000        1.0080           0
   95575 WT6  2046 TIP3 OH2  OT    -0.834000       15.9994           0
   95576 WT6  2046 TIP3 H1   HT     0.417000        1.0080           0
   95577 WT6  2046 TIP3 H2   HT     0.417000        1.0080           0
   95578 WT6  2047 TIP3 OH2  OT    -0.834000       15.9994           0
   95579 WT6  2047 TIP3 H1   HT     0.417000        1.0080           0
   95580 WT6  2047 TIP3 H2   HT     0.417000        1.0080           0
   95581 WT6  2048 TIP3 OH2  OT    -0.834000       15.9994           0
   95582 WT6  2048 TIP3 H1   HT     0.417000        1.0080           0
   95583 WT6  2048 TIP3 H2   HT     0.417000        1.0080           0
   95584 WT6  2049 TIP3 OH2  OT    -0.834000       15.9994           0
   95585 WT6  2049 TIP3 H1   HT     0.417000        1.0080           0
   95586 WT6  2049 TIP3 H2   HT     0.417000        1.0080           0
   95587 WT6  2050 TIP3 OH2  OT    -0.834000       15.9994           0
   95588 WT6  2050 TIP3 H1   HT     0.417000        1.0080           0
   95589 WT6  2050 TIP3 H2   HT     0.417000        1.0080           0
   95590 WT6  2052 TIP3 OH2  OT    -0.834000       15.9994           0
   95591 WT6  2052 TIP3 H1   HT     0.417000        1.0080           0
   95592 WT6  2052 TIP3 H2   HT     0.417000        1.0080           0
   95593 WT6  2053 TIP3 OH2  OT    -0.834000       15.9994           0
   95594 WT6  2053 TIP3 H1   HT     0.417000        1.0080           0
   95595 WT6  2053 TIP3 H2   HT     0.417000        1.0080           0
   95596 WT6  2059 TIP3 OH2  OT    -0.834000       15.9994           0
   95597 WT6  2059 TIP3 H1   HT     0.417000        1.0080           0
   95598 WT6  2059 TIP3 H2   HT     0.417000        1.0080           0
   95599 WT6  2060 TIP3 OH2  OT    -0.834000       15.9994           0
   95600 WT6  2060 TIP3 H1   HT     0.417000        1.0080           0
   95601 WT6  2060 TIP3 H2   HT     0.417000        1.0080           0
   95602 WT6  2061 TIP3 OH2  OT    -0.834000       15.9994           0
   95603 WT6  2061 TIP3 H1   HT     0.417000        1.0080           0
   95604 WT6  2061 TIP3 H2   HT     0.417000        1.0080           0
   95605 WT6  2062 TIP3 OH2  OT    -0.834000       15.9994           0
   95606 WT6  2062 TIP3 H1   HT     0.417000        1.0080           0
   95607 WT6  2062 TIP3 H2   HT     0.417000        1.0080           0
   95608 WT6  2063 TIP3 OH2  OT    -0.834000       15.9994           0
   95609 WT6  2063 TIP3 H1   HT     0.417000        1.0080           0
   95610 WT6  2063 TIP3 H2   HT     0.417000        1.0080           0
   95611 WT6  2064 TIP3 OH2  OT    -0.834000       15.9994           0
   95612 WT6  2064 TIP3 H1   HT     0.417000        1.0080           0
   95613 WT6  2064 TIP3 H2   HT     0.417000        1.0080           0
   95614 WT6  2065 TIP3 OH2  OT    -0.834000       15.9994           0
   95615 WT6  2065 TIP3 H1   HT     0.417000        1.0080           0
   95616 WT6  2065 TIP3 H2   HT     0.417000        1.0080           0
   95617 WT6  2066 TIP3 OH2  OT    -0.834000       15.9994           0
   95618 WT6  2066 TIP3 H1   HT     0.417000        1.0080           0
   95619 WT6  2066 TIP3 H2   HT     0.417000        1.0080           0
   95620 WT6  2067 TIP3 OH2  OT    -0.834000       15.9994           0
   95621 WT6  2067 TIP3 H1   HT     0.417000        1.0080           0
   95622 WT6  2067 TIP3 H2   HT     0.417000        1.0080           0
   95623 WT6  2068 TIP3 OH2  OT    -0.834000       15.9994           0
   95624 WT6  2068 TIP3 H1   HT     0.417000        1.0080           0
   95625 WT6  2068 TIP3 H2   HT     0.417000        1.0080           0
   95626 WT6  2069 TIP3 OH2  OT    -0.834000       15.9994           0
   95627 WT6  2069 TIP3 H1   HT     0.417000        1.0080           0
   95628 WT6  2069 TIP3 H2   HT     0.417000        1.0080           0
   95629 WT6  2070 TIP3 OH2  OT    -0.834000       15.9994           0
   95630 WT6  2070 TIP3 H1   HT     0.417000        1.0080           0
   95631 WT6  2070 TIP3 H2   HT     0.417000        1.0080           0
   95632 WT6  2072 TIP3 OH2  OT    -0.834000       15.9994           0
   95633 WT6  2072 TIP3 H1   HT     0.417000        1.0080           0
   95634 WT6  2072 TIP3 H2   HT     0.417000        1.0080           0
   95635 WT6  2073 TIP3 OH2  OT    -0.834000       15.9994           0
   95636 WT6  2073 TIP3 H1   HT     0.417000        1.0080           0
   95637 WT6  2073 TIP3 H2   HT     0.417000        1.0080           0
   95638 WT6  2075 TIP3 OH2  OT    -0.834000       15.9994           0
   95639 WT6  2075 TIP3 H1   HT     0.417000        1.0080           0
   95640 WT6  2075 TIP3 H2   HT     0.417000        1.0080           0
   95641 WT6  2079 TIP3 OH2  OT    -0.834000       15.9994           0
   95642 WT6  2079 TIP3 H1   HT     0.417000        1.0080           0
   95643 WT6  2079 TIP3 H2   HT     0.417000        1.0080           0
   95644 WT6  2081 TIP3 OH2  OT    -0.834000       15.9994           0
   95645 WT6  2081 TIP3 H1   HT     0.417000        1.0080           0
   95646 WT6  2081 TIP3 H2   HT     0.417000        1.0080           0
   95647 WT6  2082 TIP3 OH2  OT    -0.834000       15.9994           0
   95648 WT6  2082 TIP3 H1   HT     0.417000        1.0080           0
   95649 WT6  2082 TIP3 H2   HT     0.417000        1.0080           0
   95650 WT6  2083 TIP3 OH2  OT    -0.834000       15.9994           0
   95651 WT6  2083 TIP3 H1   HT     0.417000        1.0080           0
   95652 WT6  2083 TIP3 H2   HT     0.417000        1.0080           0
   95653 WT6  2084 TIP3 OH2  OT    -0.834000       15.9994           0
   95654 WT6  2084 TIP3 H1   HT     0.417000        1.0080           0
   95655 WT6  2084 TIP3 H2   HT     0.417000        1.0080           0
   95656 WT6  2085 TIP3 OH2  OT    -0.834000       15.9994           0
   95657 WT6  2085 TIP3 H1   HT     0.417000        1.0080           0
   95658 WT6  2085 TIP3 H2   HT     0.417000        1.0080           0
   95659 WT6  2086 TIP3 OH2  OT    -0.834000       15.9994           0
   95660 WT6  2086 TIP3 H1   HT     0.417000        1.0080           0
   95661 WT6  2086 TIP3 H2   HT     0.417000        1.0080           0
   95662 WT6  2087 TIP3 OH2  OT    -0.834000       15.9994           0
   95663 WT6  2087 TIP3 H1   HT     0.417000        1.0080           0
   95664 WT6  2087 TIP3 H2   HT     0.417000        1.0080           0
   95665 WT6  2088 TIP3 OH2  OT    -0.834000       15.9994           0
   95666 WT6  2088 TIP3 H1   HT     0.417000        1.0080           0
   95667 WT6  2088 TIP3 H2   HT     0.417000        1.0080           0
   95668 WT6  2089 TIP3 OH2  OT    -0.834000       15.9994           0
   95669 WT6  2089 TIP3 H1   HT     0.417000        1.0080           0
   95670 WT6  2089 TIP3 H2   HT     0.417000        1.0080           0
   95671 WT6  2090 TIP3 OH2  OT    -0.834000       15.9994           0
   95672 WT6  2090 TIP3 H1   HT     0.417000        1.0080           0
   95673 WT6  2090 TIP3 H2   HT     0.417000        1.0080           0
   95674 WT6  2091 TIP3 OH2  OT    -0.834000       15.9994           0
   95675 WT6  2091 TIP3 H1   HT     0.417000        1.0080           0
   95676 WT6  2091 TIP3 H2   HT     0.417000        1.0080           0
   95677 WT6  2092 TIP3 OH2  OT    -0.834000       15.9994           0
   95678 WT6  2092 TIP3 H1   HT     0.417000        1.0080           0
   95679 WT6  2092 TIP3 H2   HT     0.417000        1.0080           0
   95680 WT6  2095 TIP3 OH2  OT    -0.834000       15.9994           0
   95681 WT6  2095 TIP3 H1   HT     0.417000        1.0080           0
   95682 WT6  2095 TIP3 H2   HT     0.417000        1.0080           0
   95683 WT6  2101 TIP3 OH2  OT    -0.834000       15.9994           0
   95684 WT6  2101 TIP3 H1   HT     0.417000        1.0080           0
   95685 WT6  2101 TIP3 H2   HT     0.417000        1.0080           0
   95686 WT6  2102 TIP3 OH2  OT    -0.834000       15.9994           0
   95687 WT6  2102 TIP3 H1   HT     0.417000        1.0080           0
   95688 WT6  2102 TIP3 H2   HT     0.417000        1.0080           0
   95689 WT6  2103 TIP3 OH2  OT    -0.834000       15.9994           0
   95690 WT6  2103 TIP3 H1   HT     0.417000        1.0080           0
   95691 WT6  2103 TIP3 H2   HT     0.417000        1.0080           0
   95692 WT6  2104 TIP3 OH2  OT    -0.834000       15.9994           0
   95693 WT6  2104 TIP3 H1   HT     0.417000        1.0080           0
   95694 WT6  2104 TIP3 H2   HT     0.417000        1.0080           0
   95695 WT6  2105 TIP3 OH2  OT    -0.834000       15.9994           0
   95696 WT6  2105 TIP3 H1   HT     0.417000        1.0080           0
   95697 WT6  2105 TIP3 H2   HT     0.417000        1.0080           0
   95698 WT6  2106 TIP3 OH2  OT    -0.834000       15.9994           0
   95699 WT6  2106 TIP3 H1   HT     0.417000        1.0080           0
   95700 WT6  2106 TIP3 H2   HT     0.417000        1.0080           0
   95701 WT6  2107 TIP3 OH2  OT    -0.834000       15.9994           0
   95702 WT6  2107 TIP3 H1   HT     0.417000        1.0080           0
   95703 WT6  2107 TIP3 H2   HT     0.417000        1.0080           0
   95704 WT6  2108 TIP3 OH2  OT    -0.834000       15.9994           0
   95705 WT6  2108 TIP3 H1   HT     0.417000        1.0080           0
   95706 WT6  2108 TIP3 H2   HT     0.417000        1.0080           0
   95707 WT6  2109 TIP3 OH2  OT    -0.834000       15.9994           0
   95708 WT6  2109 TIP3 H1   HT     0.417000        1.0080           0
   95709 WT6  2109 TIP3 H2   HT     0.417000        1.0080           0
   95710 WT6  2110 TIP3 OH2  OT    -0.834000       15.9994           0
   95711 WT6  2110 TIP3 H1   HT     0.417000        1.0080           0
   95712 WT6  2110 TIP3 H2   HT     0.417000        1.0080           0
   95713 WT6  2111 TIP3 OH2  OT    -0.834000       15.9994           0
   95714 WT6  2111 TIP3 H1   HT     0.417000        1.0080           0
   95715 WT6  2111 TIP3 H2   HT     0.417000        1.0080           0
   95716 WT6  2112 TIP3 OH2  OT    -0.834000       15.9994           0
   95717 WT6  2112 TIP3 H1   HT     0.417000        1.0080           0
   95718 WT6  2112 TIP3 H2   HT     0.417000        1.0080           0
   95719 WT6  2116 TIP3 OH2  OT    -0.834000       15.9994           0
   95720 WT6  2116 TIP3 H1   HT     0.417000        1.0080           0
   95721 WT6  2116 TIP3 H2   HT     0.417000        1.0080           0
   95722 WT6  2122 TIP3 OH2  OT    -0.834000       15.9994           0
   95723 WT6  2122 TIP3 H1   HT     0.417000        1.0080           0
   95724 WT6  2122 TIP3 H2   HT     0.417000        1.0080           0
   95725 WT6  2123 TIP3 OH2  OT    -0.834000       15.9994           0
   95726 WT6  2123 TIP3 H1   HT     0.417000        1.0080           0
   95727 WT6  2123 TIP3 H2   HT     0.417000        1.0080           0
   95728 WT6  2124 TIP3 OH2  OT    -0.834000       15.9994           0
   95729 WT6  2124 TIP3 H1   HT     0.417000        1.0080           0
   95730 WT6  2124 TIP3 H2   HT     0.417000        1.0080           0
   95731 WT6  2125 TIP3 OH2  OT    -0.834000       15.9994           0
   95732 WT6  2125 TIP3 H1   HT     0.417000        1.0080           0
   95733 WT6  2125 TIP3 H2   HT     0.417000        1.0080           0
   95734 WT6  2126 TIP3 OH2  OT    -0.834000       15.9994           0
   95735 WT6  2126 TIP3 H1   HT     0.417000        1.0080           0
   95736 WT6  2126 TIP3 H2   HT     0.417000        1.0080           0
   95737 WT6  2127 TIP3 OH2  OT    -0.834000       15.9994           0
   95738 WT6  2127 TIP3 H1   HT     0.417000        1.0080           0
   95739 WT6  2127 TIP3 H2   HT     0.417000        1.0080           0
   95740 WT6  2128 TIP3 OH2  OT    -0.834000       15.9994           0
   95741 WT6  2128 TIP3 H1   HT     0.417000        1.0080           0
   95742 WT6  2128 TIP3 H2   HT     0.417000        1.0080           0
   95743 WT6  2129 TIP3 OH2  OT    -0.834000       15.9994           0
   95744 WT6  2129 TIP3 H1   HT     0.417000        1.0080           0
   95745 WT6  2129 TIP3 H2   HT     0.417000        1.0080           0
   95746 WT6  2131 TIP3 OH2  OT    -0.834000       15.9994           0
   95747 WT6  2131 TIP3 H1   HT     0.417000        1.0080           0
   95748 WT6  2131 TIP3 H2   HT     0.417000        1.0080           0
   95749 WT6  2132 TIP3 OH2  OT    -0.834000       15.9994           0
   95750 WT6  2132 TIP3 H1   HT     0.417000        1.0080           0
   95751 WT6  2132 TIP3 H2   HT     0.417000        1.0080           0
   95752 WT6  2133 TIP3 OH2  OT    -0.834000       15.9994           0
   95753 WT6  2133 TIP3 H1   HT     0.417000        1.0080           0
   95754 WT6  2133 TIP3 H2   HT     0.417000        1.0080           0
   95755 WT6  2135 TIP3 OH2  OT    -0.834000       15.9994           0
   95756 WT6  2135 TIP3 H1   HT     0.417000        1.0080           0
   95757 WT6  2135 TIP3 H2   HT     0.417000        1.0080           0
   95758 WT6  2136 TIP3 OH2  OT    -0.834000       15.9994           0
   95759 WT6  2136 TIP3 H1   HT     0.417000        1.0080           0
   95760 WT6  2136 TIP3 H2   HT     0.417000        1.0080           0
   95761 WT6  2138 TIP3 OH2  OT    -0.834000       15.9994           0
   95762 WT6  2138 TIP3 H1   HT     0.417000        1.0080           0
   95763 WT6  2138 TIP3 H2   HT     0.417000        1.0080           0
   95764 WT6  2143 TIP3 OH2  OT    -0.834000       15.9994           0
   95765 WT6  2143 TIP3 H1   HT     0.417000        1.0080           0
   95766 WT6  2143 TIP3 H2   HT     0.417000        1.0080           0
   95767 WT6  2146 TIP3 OH2  OT    -0.834000       15.9994           0
   95768 WT6  2146 TIP3 H1   HT     0.417000        1.0080           0
   95769 WT6  2146 TIP3 H2   HT     0.417000        1.0080           0
   95770 WT6  2147 TIP3 OH2  OT    -0.834000       15.9994           0
   95771 WT6  2147 TIP3 H1   HT     0.417000        1.0080           0
   95772 WT6  2147 TIP3 H2   HT     0.417000        1.0080           0
   95773 WT6  2148 TIP3 OH2  OT    -0.834000       15.9994           0
   95774 WT6  2148 TIP3 H1   HT     0.417000        1.0080           0
   95775 WT6  2148 TIP3 H2   HT     0.417000        1.0080           0
   95776 WT6  2150 TIP3 OH2  OT    -0.834000       15.9994           0
   95777 WT6  2150 TIP3 H1   HT     0.417000        1.0080           0
   95778 WT6  2150 TIP3 H2   HT     0.417000        1.0080           0
   95779 WT6  2151 TIP3 OH2  OT    -0.834000       15.9994           0
   95780 WT6  2151 TIP3 H1   HT     0.417000        1.0080           0
   95781 WT6  2151 TIP3 H2   HT     0.417000        1.0080           0
   95782 WT6  2152 TIP3 OH2  OT    -0.834000       15.9994           0
   95783 WT6  2152 TIP3 H1   HT     0.417000        1.0080           0
   95784 WT6  2152 TIP3 H2   HT     0.417000        1.0080           0
   95785 WT6  2153 TIP3 OH2  OT    -0.834000       15.9994           0
   95786 WT6  2153 TIP3 H1   HT     0.417000        1.0080           0
   95787 WT6  2153 TIP3 H2   HT     0.417000        1.0080           0
   95788 WT6  2154 TIP3 OH2  OT    -0.834000       15.9994           0
   95789 WT6  2154 TIP3 H1   HT     0.417000        1.0080           0
   95790 WT6  2154 TIP3 H2   HT     0.417000        1.0080           0
   95791 WT6  2155 TIP3 OH2  OT    -0.834000       15.9994           0
   95792 WT6  2155 TIP3 H1   HT     0.417000        1.0080           0
   95793 WT6  2155 TIP3 H2   HT     0.417000        1.0080           0
   95794 WT6  2156 TIP3 OH2  OT    -0.834000       15.9994           0
   95795 WT6  2156 TIP3 H1   HT     0.417000        1.0080           0
   95796 WT6  2156 TIP3 H2   HT     0.417000        1.0080           0
   95797 WT6  2158 TIP3 OH2  OT    -0.834000       15.9994           0
   95798 WT6  2158 TIP3 H1   HT     0.417000        1.0080           0
   95799 WT6  2158 TIP3 H2   HT     0.417000        1.0080           0
   95800 WT6  2163 TIP3 OH2  OT    -0.834000       15.9994           0
   95801 WT6  2163 TIP3 H1   HT     0.417000        1.0080           0
   95802 WT6  2163 TIP3 H2   HT     0.417000        1.0080           0
   95803 WT6  2164 TIP3 OH2  OT    -0.834000       15.9994           0
   95804 WT6  2164 TIP3 H1   HT     0.417000        1.0080           0
   95805 WT6  2164 TIP3 H2   HT     0.417000        1.0080           0
   95806 WT6  2165 TIP3 OH2  OT    -0.834000       15.9994           0
   95807 WT6  2165 TIP3 H1   HT     0.417000        1.0080           0
   95808 WT6  2165 TIP3 H2   HT     0.417000        1.0080           0
   95809 WT6  2166 TIP3 OH2  OT    -0.834000       15.9994           0
   95810 WT6  2166 TIP3 H1   HT     0.417000        1.0080           0
   95811 WT6  2166 TIP3 H2   HT     0.417000        1.0080           0
   95812 WT6  2167 TIP3 OH2  OT    -0.834000       15.9994           0
   95813 WT6  2167 TIP3 H1   HT     0.417000        1.0080           0
   95814 WT6  2167 TIP3 H2   HT     0.417000        1.0080           0
   95815 WT6  2168 TIP3 OH2  OT    -0.834000       15.9994           0
   95816 WT6  2168 TIP3 H1   HT     0.417000        1.0080           0
   95817 WT6  2168 TIP3 H2   HT     0.417000        1.0080           0
   95818 WT6  2169 TIP3 OH2  OT    -0.834000       15.9994           0
   95819 WT6  2169 TIP3 H1   HT     0.417000        1.0080           0
   95820 WT6  2169 TIP3 H2   HT     0.417000        1.0080           0
   95821 WT6  2170 TIP3 OH2  OT    -0.834000       15.9994           0
   95822 WT6  2170 TIP3 H1   HT     0.417000        1.0080           0
   95823 WT6  2170 TIP3 H2   HT     0.417000        1.0080           0
   95824 WT6  2171 TIP3 OH2  OT    -0.834000       15.9994           0
   95825 WT6  2171 TIP3 H1   HT     0.417000        1.0080           0
   95826 WT6  2171 TIP3 H2   HT     0.417000        1.0080           0
   95827 WT6  2172 TIP3 OH2  OT    -0.834000       15.9994           0
   95828 WT6  2172 TIP3 H1   HT     0.417000        1.0080           0
   95829 WT6  2172 TIP3 H2   HT     0.417000        1.0080           0
   95830 WT6  2173 TIP3 OH2  OT    -0.834000       15.9994           0
   95831 WT6  2173 TIP3 H1   HT     0.417000        1.0080           0
   95832 WT6  2173 TIP3 H2   HT     0.417000        1.0080           0
   95833 WT6  2174 TIP3 OH2  OT    -0.834000       15.9994           0
   95834 WT6  2174 TIP3 H1   HT     0.417000        1.0080           0
   95835 WT6  2174 TIP3 H2   HT     0.417000        1.0080           0
   95836 WT6  2175 TIP3 OH2  OT    -0.834000       15.9994           0
   95837 WT6  2175 TIP3 H1   HT     0.417000        1.0080           0
   95838 WT6  2175 TIP3 H2   HT     0.417000        1.0080           0
   95839 WT6  2176 TIP3 OH2  OT    -0.834000       15.9994           0
   95840 WT6  2176 TIP3 H1   HT     0.417000        1.0080           0
   95841 WT6  2176 TIP3 H2   HT     0.417000        1.0080           0
   95842 WT6  2177 TIP3 OH2  OT    -0.834000       15.9994           0
   95843 WT6  2177 TIP3 H1   HT     0.417000        1.0080           0
   95844 WT6  2177 TIP3 H2   HT     0.417000        1.0080           0
   95845 WT6  2178 TIP3 OH2  OT    -0.834000       15.9994           0
   95846 WT6  2178 TIP3 H1   HT     0.417000        1.0080           0
   95847 WT6  2178 TIP3 H2   HT     0.417000        1.0080           0
   95848 WT6  2183 TIP3 OH2  OT    -0.834000       15.9994           0
   95849 WT6  2183 TIP3 H1   HT     0.417000        1.0080           0
   95850 WT6  2183 TIP3 H2   HT     0.417000        1.0080           0
   95851 WT6  2185 TIP3 OH2  OT    -0.834000       15.9994           0
   95852 WT6  2185 TIP3 H1   HT     0.417000        1.0080           0
   95853 WT6  2185 TIP3 H2   HT     0.417000        1.0080           0
   95854 WT6  2186 TIP3 OH2  OT    -0.834000       15.9994           0
   95855 WT6  2186 TIP3 H1   HT     0.417000        1.0080           0
   95856 WT6  2186 TIP3 H2   HT     0.417000        1.0080           0
   95857 WT6  2187 TIP3 OH2  OT    -0.834000       15.9994           0
   95858 WT6  2187 TIP3 H1   HT     0.417000        1.0080           0
   95859 WT6  2187 TIP3 H2   HT     0.417000        1.0080           0
   95860 WT6  2188 TIP3 OH2  OT    -0.834000       15.9994           0
   95861 WT6  2188 TIP3 H1   HT     0.417000        1.0080           0
   95862 WT6  2188 TIP3 H2   HT     0.417000        1.0080           0
   95863 WT6  2189 TIP3 OH2  OT    -0.834000       15.9994           0
   95864 WT6  2189 TIP3 H1   HT     0.417000        1.0080           0
   95865 WT6  2189 TIP3 H2   HT     0.417000        1.0080           0
   95866 WT6  2190 TIP3 OH2  OT    -0.834000       15.9994           0
   95867 WT6  2190 TIP3 H1   HT     0.417000        1.0080           0
   95868 WT6  2190 TIP3 H2   HT     0.417000        1.0080           0
   95869 WT6  2193 TIP3 OH2  OT    -0.834000       15.9994           0
   95870 WT6  2193 TIP3 H1   HT     0.417000        1.0080           0
   95871 WT6  2193 TIP3 H2   HT     0.417000        1.0080           0
   95872 WT6  2194 TIP3 OH2  OT    -0.834000       15.9994           0
   95873 WT6  2194 TIP3 H1   HT     0.417000        1.0080           0
   95874 WT6  2194 TIP3 H2   HT     0.417000        1.0080           0
   95875 WT6  2195 TIP3 OH2  OT    -0.834000       15.9994           0
   95876 WT6  2195 TIP3 H1   HT     0.417000        1.0080           0
   95877 WT6  2195 TIP3 H2   HT     0.417000        1.0080           0
   95878 WT6  2197 TIP3 OH2  OT    -0.834000       15.9994           0
   95879 WT6  2197 TIP3 H1   HT     0.417000        1.0080           0
   95880 WT6  2197 TIP3 H2   HT     0.417000        1.0080           0
   95881 WT6  2198 TIP3 OH2  OT    -0.834000       15.9994           0
   95882 WT6  2198 TIP3 H1   HT     0.417000        1.0080           0
   95883 WT6  2198 TIP3 H2   HT     0.417000        1.0080           0
   95884 WT6  2204 TIP3 OH2  OT    -0.834000       15.9994           0
   95885 WT6  2204 TIP3 H1   HT     0.417000        1.0080           0
   95886 WT6  2204 TIP3 H2   HT     0.417000        1.0080           0
   95887 WT6  2205 TIP3 OH2  OT    -0.834000       15.9994           0
   95888 WT6  2205 TIP3 H1   HT     0.417000        1.0080           0
   95889 WT6  2205 TIP3 H2   HT     0.417000        1.0080           0
   95890 WT6  2206 TIP3 OH2  OT    -0.834000       15.9994           0
   95891 WT6  2206 TIP3 H1   HT     0.417000        1.0080           0
   95892 WT6  2206 TIP3 H2   HT     0.417000        1.0080           0
   95893 WT6  2207 TIP3 OH2  OT    -0.834000       15.9994           0
   95894 WT6  2207 TIP3 H1   HT     0.417000        1.0080           0
   95895 WT6  2207 TIP3 H2   HT     0.417000        1.0080           0
   95896 WT6  2208 TIP3 OH2  OT    -0.834000       15.9994           0
   95897 WT6  2208 TIP3 H1   HT     0.417000        1.0080           0
   95898 WT6  2208 TIP3 H2   HT     0.417000        1.0080           0
   95899 WT6  2209 TIP3 OH2  OT    -0.834000       15.9994           0
   95900 WT6  2209 TIP3 H1   HT     0.417000        1.0080           0
   95901 WT6  2209 TIP3 H2   HT     0.417000        1.0080           0
   95902 WT6  2210 TIP3 OH2  OT    -0.834000       15.9994           0
   95903 WT6  2210 TIP3 H1   HT     0.417000        1.0080           0
   95904 WT6  2210 TIP3 H2   HT     0.417000        1.0080           0
   95905 WT6  2211 TIP3 OH2  OT    -0.834000       15.9994           0
   95906 WT6  2211 TIP3 H1   HT     0.417000        1.0080           0
   95907 WT6  2211 TIP3 H2   HT     0.417000        1.0080           0
   95908 WT6  2212 TIP3 OH2  OT    -0.834000       15.9994           0
   95909 WT6  2212 TIP3 H1   HT     0.417000        1.0080           0
   95910 WT6  2212 TIP3 H2   HT     0.417000        1.0080           0
   95911 WT6  2213 TIP3 OH2  OT    -0.834000       15.9994           0
   95912 WT6  2213 TIP3 H1   HT     0.417000        1.0080           0
   95913 WT6  2213 TIP3 H2   HT     0.417000        1.0080           0
   95914 WT6  2214 TIP3 OH2  OT    -0.834000       15.9994           0
   95915 WT6  2214 TIP3 H1   HT     0.417000        1.0080           0
   95916 WT6  2214 TIP3 H2   HT     0.417000        1.0080           0
   95917 WT6  2215 TIP3 OH2  OT    -0.834000       15.9994           0
   95918 WT6  2215 TIP3 H1   HT     0.417000        1.0080           0
   95919 WT6  2215 TIP3 H2   HT     0.417000        1.0080           0
   95920 WT6  2216 TIP3 OH2  OT    -0.834000       15.9994           0
   95921 WT6  2216 TIP3 H1   HT     0.417000        1.0080           0
   95922 WT6  2216 TIP3 H2   HT     0.417000        1.0080           0
   95923 WT6  2217 TIP3 OH2  OT    -0.834000       15.9994           0
   95924 WT6  2217 TIP3 H1   HT     0.417000        1.0080           0
   95925 WT6  2217 TIP3 H2   HT     0.417000        1.0080           0
   95926 WT6  2219 TIP3 OH2  OT    -0.834000       15.9994           0
   95927 WT6  2219 TIP3 H1   HT     0.417000        1.0080           0
   95928 WT6  2219 TIP3 H2   HT     0.417000        1.0080           0
   95929 WT6  2220 TIP3 OH2  OT    -0.834000       15.9994           0
   95930 WT6  2220 TIP3 H1   HT     0.417000        1.0080           0
   95931 WT6  2220 TIP3 H2   HT     0.417000        1.0080           0
   95932 WT6  2223 TIP3 OH2  OT    -0.834000       15.9994           0
   95933 WT6  2223 TIP3 H1   HT     0.417000        1.0080           0
   95934 WT6  2223 TIP3 H2   HT     0.417000        1.0080           0
   95935 WT6  2227 TIP3 OH2  OT    -0.834000       15.9994           0
   95936 WT6  2227 TIP3 H1   HT     0.417000        1.0080           0
   95937 WT6  2227 TIP3 H2   HT     0.417000        1.0080           0
   95938 WT6  2228 TIP3 OH2  OT    -0.834000       15.9994           0
   95939 WT6  2228 TIP3 H1   HT     0.417000        1.0080           0
   95940 WT6  2228 TIP3 H2   HT     0.417000        1.0080           0
   95941 WT6  2229 TIP3 OH2  OT    -0.834000       15.9994           0
   95942 WT6  2229 TIP3 H1   HT     0.417000        1.0080           0
   95943 WT6  2229 TIP3 H2   HT     0.417000        1.0080           0
   95944 WT6  2230 TIP3 OH2  OT    -0.834000       15.9994           0
   95945 WT6  2230 TIP3 H1   HT     0.417000        1.0080           0
   95946 WT6  2230 TIP3 H2   HT     0.417000        1.0080           0
   95947 WT6  2231 TIP3 OH2  OT    -0.834000       15.9994           0
   95948 WT6  2231 TIP3 H1   HT     0.417000        1.0080           0
   95949 WT6  2231 TIP3 H2   HT     0.417000        1.0080           0
   95950 WT6  2232 TIP3 OH2  OT    -0.834000       15.9994           0
   95951 WT6  2232 TIP3 H1   HT     0.417000        1.0080           0
   95952 WT6  2232 TIP3 H2   HT     0.417000        1.0080           0
   95953 WT6  2233 TIP3 OH2  OT    -0.834000       15.9994           0
   95954 WT6  2233 TIP3 H1   HT     0.417000        1.0080           0
   95955 WT6  2233 TIP3 H2   HT     0.417000        1.0080           0
   95956 WT6  2234 TIP3 OH2  OT    -0.834000       15.9994           0
   95957 WT6  2234 TIP3 H1   HT     0.417000        1.0080           0
   95958 WT6  2234 TIP3 H2   HT     0.417000        1.0080           0
   95959 WT6  2235 TIP3 OH2  OT    -0.834000       15.9994           0
   95960 WT6  2235 TIP3 H1   HT     0.417000        1.0080           0
   95961 WT6  2235 TIP3 H2   HT     0.417000        1.0080           0
   95962 WT6  2236 TIP3 OH2  OT    -0.834000       15.9994           0
   95963 WT6  2236 TIP3 H1   HT     0.417000        1.0080           0
   95964 WT6  2236 TIP3 H2   HT     0.417000        1.0080           0
   95965 WT6  2237 TIP3 OH2  OT    -0.834000       15.9994           0
   95966 WT6  2237 TIP3 H1   HT     0.417000        1.0080           0
   95967 WT6  2237 TIP3 H2   HT     0.417000        1.0080           0
   95968 WT6  2239 TIP3 OH2  OT    -0.834000       15.9994           0
   95969 WT6  2239 TIP3 H1   HT     0.417000        1.0080           0
   95970 WT6  2239 TIP3 H2   HT     0.417000        1.0080           0
   95971 WT6  2240 TIP3 OH2  OT    -0.834000       15.9994           0
   95972 WT6  2240 TIP3 H1   HT     0.417000        1.0080           0
   95973 WT6  2240 TIP3 H2   HT     0.417000        1.0080           0
   95974 WT6  2241 TIP3 OH2  OT    -0.834000       15.9994           0
   95975 WT6  2241 TIP3 H1   HT     0.417000        1.0080           0
   95976 WT6  2241 TIP3 H2   HT     0.417000        1.0080           0
   95977 WT6  2244 TIP3 OH2  OT    -0.834000       15.9994           0
   95978 WT6  2244 TIP3 H1   HT     0.417000        1.0080           0
   95979 WT6  2244 TIP3 H2   HT     0.417000        1.0080           0
   95980 WT6  2250 TIP3 OH2  OT    -0.834000       15.9994           0
   95981 WT6  2250 TIP3 H1   HT     0.417000        1.0080           0
   95982 WT6  2250 TIP3 H2   HT     0.417000        1.0080           0
   95983 WT6  2251 TIP3 OH2  OT    -0.834000       15.9994           0
   95984 WT6  2251 TIP3 H1   HT     0.417000        1.0080           0
   95985 WT6  2251 TIP3 H2   HT     0.417000        1.0080           0
   95986 WT6  2252 TIP3 OH2  OT    -0.834000       15.9994           0
   95987 WT6  2252 TIP3 H1   HT     0.417000        1.0080           0
   95988 WT6  2252 TIP3 H2   HT     0.417000        1.0080           0
   95989 WT6  2253 TIP3 OH2  OT    -0.834000       15.9994           0
   95990 WT6  2253 TIP3 H1   HT     0.417000        1.0080           0
   95991 WT6  2253 TIP3 H2   HT     0.417000        1.0080           0
   95992 WT6  2254 TIP3 OH2  OT    -0.834000       15.9994           0
   95993 WT6  2254 TIP3 H1   HT     0.417000        1.0080           0
   95994 WT6  2254 TIP3 H2   HT     0.417000        1.0080           0
   95995 WT6  2255 TIP3 OH2  OT    -0.834000       15.9994           0
   95996 WT6  2255 TIP3 H1   HT     0.417000        1.0080           0
   95997 WT6  2255 TIP3 H2   HT     0.417000        1.0080           0
   95998 WT6  2256 TIP3 OH2  OT    -0.834000       15.9994           0
   95999 WT6  2256 TIP3 H1   HT     0.417000        1.0080           0
   96000 WT6  2256 TIP3 H2   HT     0.417000        1.0080           0
   96001 WT6  2257 TIP3 OH2  OT    -0.834000       15.9994           0
   96002 WT6  2257 TIP3 H1   HT     0.417000        1.0080           0
   96003 WT6  2257 TIP3 H2   HT     0.417000        1.0080           0
   96004 WT6  2258 TIP3 OH2  OT    -0.834000       15.9994           0
   96005 WT6  2258 TIP3 H1   HT     0.417000        1.0080           0
   96006 WT6  2258 TIP3 H2   HT     0.417000        1.0080           0
   96007 WT6  2259 TIP3 OH2  OT    -0.834000       15.9994           0
   96008 WT6  2259 TIP3 H1   HT     0.417000        1.0080           0
   96009 WT6  2259 TIP3 H2   HT     0.417000        1.0080           0
   96010 WT6  2260 TIP3 OH2  OT    -0.834000       15.9994           0
   96011 WT6  2260 TIP3 H1   HT     0.417000        1.0080           0
   96012 WT6  2260 TIP3 H2   HT     0.417000        1.0080           0
   96013 WT6  2261 TIP3 OH2  OT    -0.834000       15.9994           0
   96014 WT6  2261 TIP3 H1   HT     0.417000        1.0080           0
   96015 WT6  2261 TIP3 H2   HT     0.417000        1.0080           0
   96016 WT6  2269 TIP3 OH2  OT    -0.834000       15.9994           0
   96017 WT6  2269 TIP3 H1   HT     0.417000        1.0080           0
   96018 WT6  2269 TIP3 H2   HT     0.417000        1.0080           0
   96019 WT6  2270 TIP3 OH2  OT    -0.834000       15.9994           0
   96020 WT6  2270 TIP3 H1   HT     0.417000        1.0080           0
   96021 WT6  2270 TIP3 H2   HT     0.417000        1.0080           0
   96022 WT6  2271 TIP3 OH2  OT    -0.834000       15.9994           0
   96023 WT6  2271 TIP3 H1   HT     0.417000        1.0080           0
   96024 WT6  2271 TIP3 H2   HT     0.417000        1.0080           0
   96025 WT6  2272 TIP3 OH2  OT    -0.834000       15.9994           0
   96026 WT6  2272 TIP3 H1   HT     0.417000        1.0080           0
   96027 WT6  2272 TIP3 H2   HT     0.417000        1.0080           0
   96028 WT6  2273 TIP3 OH2  OT    -0.834000       15.9994           0
   96029 WT6  2273 TIP3 H1   HT     0.417000        1.0080           0
   96030 WT6  2273 TIP3 H2   HT     0.417000        1.0080           0
   96031 WT6  2274 TIP3 OH2  OT    -0.834000       15.9994           0
   96032 WT6  2274 TIP3 H1   HT     0.417000        1.0080           0
   96033 WT6  2274 TIP3 H2   HT     0.417000        1.0080           0
   96034 WT6  2275 TIP3 OH2  OT    -0.834000       15.9994           0
   96035 WT6  2275 TIP3 H1   HT     0.417000        1.0080           0
   96036 WT6  2275 TIP3 H2   HT     0.417000        1.0080           0
   96037 WT6  2276 TIP3 OH2  OT    -0.834000       15.9994           0
   96038 WT6  2276 TIP3 H1   HT     0.417000        1.0080           0
   96039 WT6  2276 TIP3 H2   HT     0.417000        1.0080           0
   96040 WT6  2277 TIP3 OH2  OT    -0.834000       15.9994           0
   96041 WT6  2277 TIP3 H1   HT     0.417000        1.0080           0
   96042 WT6  2277 TIP3 H2   HT     0.417000        1.0080           0
   96043 WT6  2278 TIP3 OH2  OT    -0.834000       15.9994           0
   96044 WT6  2278 TIP3 H1   HT     0.417000        1.0080           0
   96045 WT6  2278 TIP3 H2   HT     0.417000        1.0080           0
   96046 WT6  2280 TIP3 OH2  OT    -0.834000       15.9994           0
   96047 WT6  2280 TIP3 H1   HT     0.417000        1.0080           0
   96048 WT6  2280 TIP3 H2   HT     0.417000        1.0080           0
   96049 WT6  2281 TIP3 OH2  OT    -0.834000       15.9994           0
   96050 WT6  2281 TIP3 H1   HT     0.417000        1.0080           0
   96051 WT6  2281 TIP3 H2   HT     0.417000        1.0080           0
   96052 WT6  2282 TIP3 OH2  OT    -0.834000       15.9994           0
   96053 WT6  2282 TIP3 H1   HT     0.417000        1.0080           0
   96054 WT6  2282 TIP3 H2   HT     0.417000        1.0080           0
   96055 WT6  2283 TIP3 OH2  OT    -0.834000       15.9994           0
   96056 WT6  2283 TIP3 H1   HT     0.417000        1.0080           0
   96057 WT6  2283 TIP3 H2   HT     0.417000        1.0080           0
   96058 WT6  2284 TIP3 OH2  OT    -0.834000       15.9994           0
   96059 WT6  2284 TIP3 H1   HT     0.417000        1.0080           0
   96060 WT6  2284 TIP3 H2   HT     0.417000        1.0080           0
   96061 WT6  2285 TIP3 OH2  OT    -0.834000       15.9994           0
   96062 WT6  2285 TIP3 H1   HT     0.417000        1.0080           0
   96063 WT6  2285 TIP3 H2   HT     0.417000        1.0080           0
   96064 WT6  2286 TIP3 OH2  OT    -0.834000       15.9994           0
   96065 WT6  2286 TIP3 H1   HT     0.417000        1.0080           0
   96066 WT6  2286 TIP3 H2   HT     0.417000        1.0080           0
   96067 WT6  2288 TIP3 OH2  OT    -0.834000       15.9994           0
   96068 WT6  2288 TIP3 H1   HT     0.417000        1.0080           0
   96069 WT6  2288 TIP3 H2   HT     0.417000        1.0080           0
   96070 WT6  2290 TIP3 OH2  OT    -0.834000       15.9994           0
   96071 WT6  2290 TIP3 H1   HT     0.417000        1.0080           0
   96072 WT6  2290 TIP3 H2   HT     0.417000        1.0080           0
   96073 WT6  2292 TIP3 OH2  OT    -0.834000       15.9994           0
   96074 WT6  2292 TIP3 H1   HT     0.417000        1.0080           0
   96075 WT6  2292 TIP3 H2   HT     0.417000        1.0080           0
   96076 WT6  2293 TIP3 OH2  OT    -0.834000       15.9994           0
   96077 WT6  2293 TIP3 H1   HT     0.417000        1.0080           0
   96078 WT6  2293 TIP3 H2   HT     0.417000        1.0080           0
   96079 WT6  2294 TIP3 OH2  OT    -0.834000       15.9994           0
   96080 WT6  2294 TIP3 H1   HT     0.417000        1.0080           0
   96081 WT6  2294 TIP3 H2   HT     0.417000        1.0080           0
   96082 WT6  2295 TIP3 OH2  OT    -0.834000       15.9994           0
   96083 WT6  2295 TIP3 H1   HT     0.417000        1.0080           0
   96084 WT6  2295 TIP3 H2   HT     0.417000        1.0080           0
   96085 WT6  2296 TIP3 OH2  OT    -0.834000       15.9994           0
   96086 WT6  2296 TIP3 H1   HT     0.417000        1.0080           0
   96087 WT6  2296 TIP3 H2   HT     0.417000        1.0080           0
   96088 WT6  2297 TIP3 OH2  OT    -0.834000       15.9994           0
   96089 WT6  2297 TIP3 H1   HT     0.417000        1.0080           0
   96090 WT6  2297 TIP3 H2   HT     0.417000        1.0080           0
   96091 WT6  2298 TIP3 OH2  OT    -0.834000       15.9994           0
   96092 WT6  2298 TIP3 H1   HT     0.417000        1.0080           0
   96093 WT6  2298 TIP3 H2   HT     0.417000        1.0080           0
   96094 WT6  2299 TIP3 OH2  OT    -0.834000       15.9994           0
   96095 WT6  2299 TIP3 H1   HT     0.417000        1.0080           0
   96096 WT6  2299 TIP3 H2   HT     0.417000        1.0080           0
   96097 WT6  2300 TIP3 OH2  OT    -0.834000       15.9994           0
   96098 WT6  2300 TIP3 H1   HT     0.417000        1.0080           0
   96099 WT6  2300 TIP3 H2   HT     0.417000        1.0080           0
   96100 WT6  2301 TIP3 OH2  OT    -0.834000       15.9994           0
   96101 WT6  2301 TIP3 H1   HT     0.417000        1.0080           0
   96102 WT6  2301 TIP3 H2   HT     0.417000        1.0080           0
   96103 WT6  2302 TIP3 OH2  OT    -0.834000       15.9994           0
   96104 WT6  2302 TIP3 H1   HT     0.417000        1.0080           0
   96105 WT6  2302 TIP3 H2   HT     0.417000        1.0080           0
   96106 WT6  2309 TIP3 OH2  OT    -0.834000       15.9994           0
   96107 WT6  2309 TIP3 H1   HT     0.417000        1.0080           0
   96108 WT6  2309 TIP3 H2   HT     0.417000        1.0080           0
   96109 WT6  2311 TIP3 OH2  OT    -0.834000       15.9994           0
   96110 WT6  2311 TIP3 H1   HT     0.417000        1.0080           0
   96111 WT6  2311 TIP3 H2   HT     0.417000        1.0080           0
   96112 WT6  2312 TIP3 OH2  OT    -0.834000       15.9994           0
   96113 WT6  2312 TIP3 H1   HT     0.417000        1.0080           0
   96114 WT6  2312 TIP3 H2   HT     0.417000        1.0080           0
   96115 WT6  2313 TIP3 OH2  OT    -0.834000       15.9994           0
   96116 WT6  2313 TIP3 H1   HT     0.417000        1.0080           0
   96117 WT6  2313 TIP3 H2   HT     0.417000        1.0080           0
   96118 WT6  2315 TIP3 OH2  OT    -0.834000       15.9994           0
   96119 WT6  2315 TIP3 H1   HT     0.417000        1.0080           0
   96120 WT6  2315 TIP3 H2   HT     0.417000        1.0080           0
   96121 WT6  2316 TIP3 OH2  OT    -0.834000       15.9994           0
   96122 WT6  2316 TIP3 H1   HT     0.417000        1.0080           0
   96123 WT6  2316 TIP3 H2   HT     0.417000        1.0080           0
   96124 WT6  2317 TIP3 OH2  OT    -0.834000       15.9994           0
   96125 WT6  2317 TIP3 H1   HT     0.417000        1.0080           0
   96126 WT6  2317 TIP3 H2   HT     0.417000        1.0080           0
   96127 WT6  2318 TIP3 OH2  OT    -0.834000       15.9994           0
   96128 WT6  2318 TIP3 H1   HT     0.417000        1.0080           0
   96129 WT6  2318 TIP3 H2   HT     0.417000        1.0080           0
   96130 WT6  2319 TIP3 OH2  OT    -0.834000       15.9994           0
   96131 WT6  2319 TIP3 H1   HT     0.417000        1.0080           0
   96132 WT6  2319 TIP3 H2   HT     0.417000        1.0080           0
   96133 WT6  2320 TIP3 OH2  OT    -0.834000       15.9994           0
   96134 WT6  2320 TIP3 H1   HT     0.417000        1.0080           0
   96135 WT6  2320 TIP3 H2   HT     0.417000        1.0080           0
   96136 WT6  2321 TIP3 OH2  OT    -0.834000       15.9994           0
   96137 WT6  2321 TIP3 H1   HT     0.417000        1.0080           0
   96138 WT6  2321 TIP3 H2   HT     0.417000        1.0080           0
   96139 WT6  2322 TIP3 OH2  OT    -0.834000       15.9994           0
   96140 WT6  2322 TIP3 H1   HT     0.417000        1.0080           0
   96141 WT6  2322 TIP3 H2   HT     0.417000        1.0080           0
   96142 WT6  2324 TIP3 OH2  OT    -0.834000       15.9994           0
   96143 WT6  2324 TIP3 H1   HT     0.417000        1.0080           0
   96144 WT6  2324 TIP3 H2   HT     0.417000        1.0080           0
   96145 WT6  2325 TIP3 OH2  OT    -0.834000       15.9994           0
   96146 WT6  2325 TIP3 H1   HT     0.417000        1.0080           0
   96147 WT6  2325 TIP3 H2   HT     0.417000        1.0080           0
   96148 WT6  2326 TIP3 OH2  OT    -0.834000       15.9994           0
   96149 WT6  2326 TIP3 H1   HT     0.417000        1.0080           0
   96150 WT6  2326 TIP3 H2   HT     0.417000        1.0080           0
   96151 WT6  2327 TIP3 OH2  OT    -0.834000       15.9994           0
   96152 WT6  2327 TIP3 H1   HT     0.417000        1.0080           0
   96153 WT6  2327 TIP3 H2   HT     0.417000        1.0080           0
   96154 WT6  2329 TIP3 OH2  OT    -0.834000       15.9994           0
   96155 WT6  2329 TIP3 H1   HT     0.417000        1.0080           0
   96156 WT6  2329 TIP3 H2   HT     0.417000        1.0080           0
   96157 WT6  2331 TIP3 OH2  OT    -0.834000       15.9994           0
   96158 WT6  2331 TIP3 H1   HT     0.417000        1.0080           0
   96159 WT6  2331 TIP3 H2   HT     0.417000        1.0080           0
   96160 WT6  2332 TIP3 OH2  OT    -0.834000       15.9994           0
   96161 WT6  2332 TIP3 H1   HT     0.417000        1.0080           0
   96162 WT6  2332 TIP3 H2   HT     0.417000        1.0080           0
   96163 WT6  2333 TIP3 OH2  OT    -0.834000       15.9994           0
   96164 WT6  2333 TIP3 H1   HT     0.417000        1.0080           0
   96165 WT6  2333 TIP3 H2   HT     0.417000        1.0080           0
   96166 WT6  2335 TIP3 OH2  OT    -0.834000       15.9994           0
   96167 WT6  2335 TIP3 H1   HT     0.417000        1.0080           0
   96168 WT6  2335 TIP3 H2   HT     0.417000        1.0080           0
   96169 WT6  2336 TIP3 OH2  OT    -0.834000       15.9994           0
   96170 WT6  2336 TIP3 H1   HT     0.417000        1.0080           0
   96171 WT6  2336 TIP3 H2   HT     0.417000        1.0080           0
   96172 WT6  2337 TIP3 OH2  OT    -0.834000       15.9994           0
   96173 WT6  2337 TIP3 H1   HT     0.417000        1.0080           0
   96174 WT6  2337 TIP3 H2   HT     0.417000        1.0080           0
   96175 WT6  2338 TIP3 OH2  OT    -0.834000       15.9994           0
   96176 WT6  2338 TIP3 H1   HT     0.417000        1.0080           0
   96177 WT6  2338 TIP3 H2   HT     0.417000        1.0080           0
   96178 WT6  2339 TIP3 OH2  OT    -0.834000       15.9994           0
   96179 WT6  2339 TIP3 H1   HT     0.417000        1.0080           0
   96180 WT6  2339 TIP3 H2   HT     0.417000        1.0080           0
   96181 WT6  2340 TIP3 OH2  OT    -0.834000       15.9994           0
   96182 WT6  2340 TIP3 H1   HT     0.417000        1.0080           0
   96183 WT6  2340 TIP3 H2   HT     0.417000        1.0080           0
   96184 WT6  2341 TIP3 OH2  OT    -0.834000       15.9994           0
   96185 WT6  2341 TIP3 H1   HT     0.417000        1.0080           0
   96186 WT6  2341 TIP3 H2   HT     0.417000        1.0080           0
   96187 WT6  2342 TIP3 OH2  OT    -0.834000       15.9994           0
   96188 WT6  2342 TIP3 H1   HT     0.417000        1.0080           0
   96189 WT6  2342 TIP3 H2   HT     0.417000        1.0080           0
   96190 WT6  2343 TIP3 OH2  OT    -0.834000       15.9994           0
   96191 WT6  2343 TIP3 H1   HT     0.417000        1.0080           0
   96192 WT6  2343 TIP3 H2   HT     0.417000        1.0080           0
   96193 WT6  2345 TIP3 OH2  OT    -0.834000       15.9994           0
   96194 WT6  2345 TIP3 H1   HT     0.417000        1.0080           0
   96195 WT6  2345 TIP3 H2   HT     0.417000        1.0080           0
   96196 WT6  2346 TIP3 OH2  OT    -0.834000       15.9994           0
   96197 WT6  2346 TIP3 H1   HT     0.417000        1.0080           0
   96198 WT6  2346 TIP3 H2   HT     0.417000        1.0080           0
   96199 WT6  2351 TIP3 OH2  OT    -0.834000       15.9994           0
   96200 WT6  2351 TIP3 H1   HT     0.417000        1.0080           0
   96201 WT6  2351 TIP3 H2   HT     0.417000        1.0080           0
   96202 WT6  2352 TIP3 OH2  OT    -0.834000       15.9994           0
   96203 WT6  2352 TIP3 H1   HT     0.417000        1.0080           0
   96204 WT6  2352 TIP3 H2   HT     0.417000        1.0080           0
   96205 WT6  2354 TIP3 OH2  OT    -0.834000       15.9994           0
   96206 WT6  2354 TIP3 H1   HT     0.417000        1.0080           0
   96207 WT6  2354 TIP3 H2   HT     0.417000        1.0080           0
   96208 WT6  2355 TIP3 OH2  OT    -0.834000       15.9994           0
   96209 WT6  2355 TIP3 H1   HT     0.417000        1.0080           0
   96210 WT6  2355 TIP3 H2   HT     0.417000        1.0080           0
   96211 WT6  2357 TIP3 OH2  OT    -0.834000       15.9994           0
   96212 WT6  2357 TIP3 H1   HT     0.417000        1.0080           0
   96213 WT6  2357 TIP3 H2   HT     0.417000        1.0080           0
   96214 WT6  2358 TIP3 OH2  OT    -0.834000       15.9994           0
   96215 WT6  2358 TIP3 H1   HT     0.417000        1.0080           0
   96216 WT6  2358 TIP3 H2   HT     0.417000        1.0080           0
   96217 WT6  2359 TIP3 OH2  OT    -0.834000       15.9994           0
   96218 WT6  2359 TIP3 H1   HT     0.417000        1.0080           0
   96219 WT6  2359 TIP3 H2   HT     0.417000        1.0080           0
   96220 WT6  2360 TIP3 OH2  OT    -0.834000       15.9994           0
   96221 WT6  2360 TIP3 H1   HT     0.417000        1.0080           0
   96222 WT6  2360 TIP3 H2   HT     0.417000        1.0080           0
   96223 WT6  2361 TIP3 OH2  OT    -0.834000       15.9994           0
   96224 WT6  2361 TIP3 H1   HT     0.417000        1.0080           0
   96225 WT6  2361 TIP3 H2   HT     0.417000        1.0080           0
   96226 WT6  2362 TIP3 OH2  OT    -0.834000       15.9994           0
   96227 WT6  2362 TIP3 H1   HT     0.417000        1.0080           0
   96228 WT6  2362 TIP3 H2   HT     0.417000        1.0080           0
   96229 WT6  2363 TIP3 OH2  OT    -0.834000       15.9994           0
   96230 WT6  2363 TIP3 H1   HT     0.417000        1.0080           0
   96231 WT6  2363 TIP3 H2   HT     0.417000        1.0080           0
   96232 WT6  2364 TIP3 OH2  OT    -0.834000       15.9994           0
   96233 WT6  2364 TIP3 H1   HT     0.417000        1.0080           0
   96234 WT6  2364 TIP3 H2   HT     0.417000        1.0080           0
   96235 WT6  2365 TIP3 OH2  OT    -0.834000       15.9994           0
   96236 WT6  2365 TIP3 H1   HT     0.417000        1.0080           0
   96237 WT6  2365 TIP3 H2   HT     0.417000        1.0080           0
   96238 WT6  2367 TIP3 OH2  OT    -0.834000       15.9994           0
   96239 WT6  2367 TIP3 H1   HT     0.417000        1.0080           0
   96240 WT6  2367 TIP3 H2   HT     0.417000        1.0080           0
   96241 WT6  2368 TIP3 OH2  OT    -0.834000       15.9994           0
   96242 WT6  2368 TIP3 H1   HT     0.417000        1.0080           0
   96243 WT6  2368 TIP3 H2   HT     0.417000        1.0080           0
   96244 WT6  2375 TIP3 OH2  OT    -0.834000       15.9994           0
   96245 WT6  2375 TIP3 H1   HT     0.417000        1.0080           0
   96246 WT6  2375 TIP3 H2   HT     0.417000        1.0080           0
   96247 WT6  2376 TIP3 OH2  OT    -0.834000       15.9994           0
   96248 WT6  2376 TIP3 H1   HT     0.417000        1.0080           0
   96249 WT6  2376 TIP3 H2   HT     0.417000        1.0080           0
   96250 WT6  2377 TIP3 OH2  OT    -0.834000       15.9994           0
   96251 WT6  2377 TIP3 H1   HT     0.417000        1.0080           0
   96252 WT6  2377 TIP3 H2   HT     0.417000        1.0080           0
   96253 WT6  2378 TIP3 OH2  OT    -0.834000       15.9994           0
   96254 WT6  2378 TIP3 H1   HT     0.417000        1.0080           0
   96255 WT6  2378 TIP3 H2   HT     0.417000        1.0080           0
   96256 WT6  2379 TIP3 OH2  OT    -0.834000       15.9994           0
   96257 WT6  2379 TIP3 H1   HT     0.417000        1.0080           0
   96258 WT6  2379 TIP3 H2   HT     0.417000        1.0080           0
   96259 WT6  2380 TIP3 OH2  OT    -0.834000       15.9994           0
   96260 WT6  2380 TIP3 H1   HT     0.417000        1.0080           0
   96261 WT6  2380 TIP3 H2   HT     0.417000        1.0080           0
   96262 WT6  2381 TIP3 OH2  OT    -0.834000       15.9994           0
   96263 WT6  2381 TIP3 H1   HT     0.417000        1.0080           0
   96264 WT6  2381 TIP3 H2   HT     0.417000        1.0080           0
   96265 WT6  2382 TIP3 OH2  OT    -0.834000       15.9994           0
   96266 WT6  2382 TIP3 H1   HT     0.417000        1.0080           0
   96267 WT6  2382 TIP3 H2   HT     0.417000        1.0080           0
   96268 WT6  2383 TIP3 OH2  OT    -0.834000       15.9994           0
   96269 WT6  2383 TIP3 H1   HT     0.417000        1.0080           0
   96270 WT6  2383 TIP3 H2   HT     0.417000        1.0080           0
   96271 WT6  2384 TIP3 OH2  OT    -0.834000       15.9994           0
   96272 WT6  2384 TIP3 H1   HT     0.417000        1.0080           0
   96273 WT6  2384 TIP3 H2   HT     0.417000        1.0080           0
   96274 WT6  2385 TIP3 OH2  OT    -0.834000       15.9994           0
   96275 WT6  2385 TIP3 H1   HT     0.417000        1.0080           0
   96276 WT6  2385 TIP3 H2   HT     0.417000        1.0080           0
   96277 WT6  2388 TIP3 OH2  OT    -0.834000       15.9994           0
   96278 WT6  2388 TIP3 H1   HT     0.417000        1.0080           0
   96279 WT6  2388 TIP3 H2   HT     0.417000        1.0080           0
   96280 WT6  2395 TIP3 OH2  OT    -0.834000       15.9994           0
   96281 WT6  2395 TIP3 H1   HT     0.417000        1.0080           0
   96282 WT6  2395 TIP3 H2   HT     0.417000        1.0080           0
   96283 WT6  2397 TIP3 OH2  OT    -0.834000       15.9994           0
   96284 WT6  2397 TIP3 H1   HT     0.417000        1.0080           0
   96285 WT6  2397 TIP3 H2   HT     0.417000        1.0080           0
   96286 WT6  2398 TIP3 OH2  OT    -0.834000       15.9994           0
   96287 WT6  2398 TIP3 H1   HT     0.417000        1.0080           0
   96288 WT6  2398 TIP3 H2   HT     0.417000        1.0080           0
   96289 WT6  2399 TIP3 OH2  OT    -0.834000       15.9994           0
   96290 WT6  2399 TIP3 H1   HT     0.417000        1.0080           0
   96291 WT6  2399 TIP3 H2   HT     0.417000        1.0080           0
   96292 WT6  2400 TIP3 OH2  OT    -0.834000       15.9994           0
   96293 WT6  2400 TIP3 H1   HT     0.417000        1.0080           0
   96294 WT6  2400 TIP3 H2   HT     0.417000        1.0080           0
   96295 WT6  2402 TIP3 OH2  OT    -0.834000       15.9994           0
   96296 WT6  2402 TIP3 H1   HT     0.417000        1.0080           0
   96297 WT6  2402 TIP3 H2   HT     0.417000        1.0080           0
   96298 WT6  2403 TIP3 OH2  OT    -0.834000       15.9994           0
   96299 WT6  2403 TIP3 H1   HT     0.417000        1.0080           0
   96300 WT6  2403 TIP3 H2   HT     0.417000        1.0080           0
   96301 WT6  2404 TIP3 OH2  OT    -0.834000       15.9994           0
   96302 WT6  2404 TIP3 H1   HT     0.417000        1.0080           0
   96303 WT6  2404 TIP3 H2   HT     0.417000        1.0080           0
   96304 WT6  2405 TIP3 OH2  OT    -0.834000       15.9994           0
   96305 WT6  2405 TIP3 H1   HT     0.417000        1.0080           0
   96306 WT6  2405 TIP3 H2   HT     0.417000        1.0080           0
   96307 WT6  2406 TIP3 OH2  OT    -0.834000       15.9994           0
   96308 WT6  2406 TIP3 H1   HT     0.417000        1.0080           0
   96309 WT6  2406 TIP3 H2   HT     0.417000        1.0080           0
   96310 WT6  2407 TIP3 OH2  OT    -0.834000       15.9994           0
   96311 WT6  2407 TIP3 H1   HT     0.417000        1.0080           0
   96312 WT6  2407 TIP3 H2   HT     0.417000        1.0080           0
   96313 WT6  2416 TIP3 OH2  OT    -0.834000       15.9994           0
   96314 WT6  2416 TIP3 H1   HT     0.417000        1.0080           0
   96315 WT6  2416 TIP3 H2   HT     0.417000        1.0080           0
   96316 WT6  2417 TIP3 OH2  OT    -0.834000       15.9994           0
   96317 WT6  2417 TIP3 H1   HT     0.417000        1.0080           0
   96318 WT6  2417 TIP3 H2   HT     0.417000        1.0080           0
   96319 WT6  2418 TIP3 OH2  OT    -0.834000       15.9994           0
   96320 WT6  2418 TIP3 H1   HT     0.417000        1.0080           0
   96321 WT6  2418 TIP3 H2   HT     0.417000        1.0080           0
   96322 WT6  2419 TIP3 OH2  OT    -0.834000       15.9994           0
   96323 WT6  2419 TIP3 H1   HT     0.417000        1.0080           0
   96324 WT6  2419 TIP3 H2   HT     0.417000        1.0080           0
   96325 WT6  2420 TIP3 OH2  OT    -0.834000       15.9994           0
   96326 WT6  2420 TIP3 H1   HT     0.417000        1.0080           0
   96327 WT6  2420 TIP3 H2   HT     0.417000        1.0080           0
   96328 WT6  2421 TIP3 OH2  OT    -0.834000       15.9994           0
   96329 WT6  2421 TIP3 H1   HT     0.417000        1.0080           0
   96330 WT6  2421 TIP3 H2   HT     0.417000        1.0080           0
   96331 WT6  2422 TIP3 OH2  OT    -0.834000       15.9994           0
   96332 WT6  2422 TIP3 H1   HT     0.417000        1.0080           0
   96333 WT6  2422 TIP3 H2   HT     0.417000        1.0080           0
   96334 WT6  2423 TIP3 OH2  OT    -0.834000       15.9994           0
   96335 WT6  2423 TIP3 H1   HT     0.417000        1.0080           0
   96336 WT6  2423 TIP3 H2   HT     0.417000        1.0080           0
   96337 WT6  2424 TIP3 OH2  OT    -0.834000       15.9994           0
   96338 WT6  2424 TIP3 H1   HT     0.417000        1.0080           0
   96339 WT6  2424 TIP3 H2   HT     0.417000        1.0080           0
   96340 WT6  2425 TIP3 OH2  OT    -0.834000       15.9994           0
   96341 WT6  2425 TIP3 H1   HT     0.417000        1.0080           0
   96342 WT6  2425 TIP3 H2   HT     0.417000        1.0080           0
   96343 WT6  2427 TIP3 OH2  OT    -0.834000       15.9994           0
   96344 WT6  2427 TIP3 H1   HT     0.417000        1.0080           0
   96345 WT6  2427 TIP3 H2   HT     0.417000        1.0080           0
   96346 WT6  2428 TIP3 OH2  OT    -0.834000       15.9994           0
   96347 WT6  2428 TIP3 H1   HT     0.417000        1.0080           0
   96348 WT6  2428 TIP3 H2   HT     0.417000        1.0080           0
   96349 WT6  2430 TIP3 OH2  OT    -0.834000       15.9994           0
   96350 WT6  2430 TIP3 H1   HT     0.417000        1.0080           0
   96351 WT6  2430 TIP3 H2   HT     0.417000        1.0080           0
   96352 WT6  2431 TIP3 OH2  OT    -0.834000       15.9994           0
   96353 WT6  2431 TIP3 H1   HT     0.417000        1.0080           0
   96354 WT6  2431 TIP3 H2   HT     0.417000        1.0080           0
   96355 WT6  2436 TIP3 OH2  OT    -0.834000       15.9994           0
   96356 WT6  2436 TIP3 H1   HT     0.417000        1.0080           0
   96357 WT6  2436 TIP3 H2   HT     0.417000        1.0080           0
   96358 WT6  2439 TIP3 OH2  OT    -0.834000       15.9994           0
   96359 WT6  2439 TIP3 H1   HT     0.417000        1.0080           0
   96360 WT6  2439 TIP3 H2   HT     0.417000        1.0080           0
   96361 WT6  2440 TIP3 OH2  OT    -0.834000       15.9994           0
   96362 WT6  2440 TIP3 H1   HT     0.417000        1.0080           0
   96363 WT6  2440 TIP3 H2   HT     0.417000        1.0080           0
   96364 WT6  2441 TIP3 OH2  OT    -0.834000       15.9994           0
   96365 WT6  2441 TIP3 H1   HT     0.417000        1.0080           0
   96366 WT6  2441 TIP3 H2   HT     0.417000        1.0080           0
   96367 WT6  2442 TIP3 OH2  OT    -0.834000       15.9994           0
   96368 WT6  2442 TIP3 H1   HT     0.417000        1.0080           0
   96369 WT6  2442 TIP3 H2   HT     0.417000        1.0080           0
   96370 WT6  2443 TIP3 OH2  OT    -0.834000       15.9994           0
   96371 WT6  2443 TIP3 H1   HT     0.417000        1.0080           0
   96372 WT6  2443 TIP3 H2   HT     0.417000        1.0080           0
   96373 WT6  2444 TIP3 OH2  OT    -0.834000       15.9994           0
   96374 WT6  2444 TIP3 H1   HT     0.417000        1.0080           0
   96375 WT6  2444 TIP3 H2   HT     0.417000        1.0080           0
   96376 WT6  2445 TIP3 OH2  OT    -0.834000       15.9994           0
   96377 WT6  2445 TIP3 H1   HT     0.417000        1.0080           0
   96378 WT6  2445 TIP3 H2   HT     0.417000        1.0080           0
   96379 WT6  2446 TIP3 OH2  OT    -0.834000       15.9994           0
   96380 WT6  2446 TIP3 H1   HT     0.417000        1.0080           0
   96381 WT6  2446 TIP3 H2   HT     0.417000        1.0080           0
   96382 WT6  2447 TIP3 OH2  OT    -0.834000       15.9994           0
   96383 WT6  2447 TIP3 H1   HT     0.417000        1.0080           0
   96384 WT6  2447 TIP3 H2   HT     0.417000        1.0080           0
   96385 WT6  2448 TIP3 OH2  OT    -0.834000       15.9994           0
   96386 WT6  2448 TIP3 H1   HT     0.417000        1.0080           0
   96387 WT6  2448 TIP3 H2   HT     0.417000        1.0080           0
   96388 WT6  2449 TIP3 OH2  OT    -0.834000       15.9994           0
   96389 WT6  2449 TIP3 H1   HT     0.417000        1.0080           0
   96390 WT6  2449 TIP3 H2   HT     0.417000        1.0080           0
   96391 WT6  2450 TIP3 OH2  OT    -0.834000       15.9994           0
   96392 WT6  2450 TIP3 H1   HT     0.417000        1.0080           0
   96393 WT6  2450 TIP3 H2   HT     0.417000        1.0080           0
   96394 WT6  2458 TIP3 OH2  OT    -0.834000       15.9994           0
   96395 WT6  2458 TIP3 H1   HT     0.417000        1.0080           0
   96396 WT6  2458 TIP3 H2   HT     0.417000        1.0080           0
   96397 WT6  2459 TIP3 OH2  OT    -0.834000       15.9994           0
   96398 WT6  2459 TIP3 H1   HT     0.417000        1.0080           0
   96399 WT6  2459 TIP3 H2   HT     0.417000        1.0080           0
   96400 WT6  2460 TIP3 OH2  OT    -0.834000       15.9994           0
   96401 WT6  2460 TIP3 H1   HT     0.417000        1.0080           0
   96402 WT6  2460 TIP3 H2   HT     0.417000        1.0080           0
   96403 WT6  2461 TIP3 OH2  OT    -0.834000       15.9994           0
   96404 WT6  2461 TIP3 H1   HT     0.417000        1.0080           0
   96405 WT6  2461 TIP3 H2   HT     0.417000        1.0080           0
   96406 WT6  2462 TIP3 OH2  OT    -0.834000       15.9994           0
   96407 WT6  2462 TIP3 H1   HT     0.417000        1.0080           0
   96408 WT6  2462 TIP3 H2   HT     0.417000        1.0080           0
   96409 WT6  2463 TIP3 OH2  OT    -0.834000       15.9994           0
   96410 WT6  2463 TIP3 H1   HT     0.417000        1.0080           0
   96411 WT6  2463 TIP3 H2   HT     0.417000        1.0080           0
   96412 WT6  2464 TIP3 OH2  OT    -0.834000       15.9994           0
   96413 WT6  2464 TIP3 H1   HT     0.417000        1.0080           0
   96414 WT6  2464 TIP3 H2   HT     0.417000        1.0080           0
   96415 WT6  2465 TIP3 OH2  OT    -0.834000       15.9994           0
   96416 WT6  2465 TIP3 H1   HT     0.417000        1.0080           0
   96417 WT6  2465 TIP3 H2   HT     0.417000        1.0080           0
   96418 WT6  2466 TIP3 OH2  OT    -0.834000       15.9994           0
   96419 WT6  2466 TIP3 H1   HT     0.417000        1.0080           0
   96420 WT6  2466 TIP3 H2   HT     0.417000        1.0080           0
   96421 WT6  2467 TIP3 OH2  OT    -0.834000       15.9994           0
   96422 WT6  2467 TIP3 H1   HT     0.417000        1.0080           0
   96423 WT6  2467 TIP3 H2   HT     0.417000        1.0080           0
   96424 WT6  2468 TIP3 OH2  OT    -0.834000       15.9994           0
   96425 WT6  2468 TIP3 H1   HT     0.417000        1.0080           0
   96426 WT6  2468 TIP3 H2   HT     0.417000        1.0080           0
   96427 WT6  2469 TIP3 OH2  OT    -0.834000       15.9994           0
   96428 WT6  2469 TIP3 H1   HT     0.417000        1.0080           0
   96429 WT6  2469 TIP3 H2   HT     0.417000        1.0080           0
   96430 WT6  2471 TIP3 OH2  OT    -0.834000       15.9994           0
   96431 WT6  2471 TIP3 H1   HT     0.417000        1.0080           0
   96432 WT6  2471 TIP3 H2   HT     0.417000        1.0080           0
   96433 WT6  2473 TIP3 OH2  OT    -0.834000       15.9994           0
   96434 WT6  2473 TIP3 H1   HT     0.417000        1.0080           0
   96435 WT6  2473 TIP3 H2   HT     0.417000        1.0080           0
   96436 WT6  2477 TIP3 OH2  OT    -0.834000       15.9994           0
   96437 WT6  2477 TIP3 H1   HT     0.417000        1.0080           0
   96438 WT6  2477 TIP3 H2   HT     0.417000        1.0080           0
   96439 WT6  2479 TIP3 OH2  OT    -0.834000       15.9994           0
   96440 WT6  2479 TIP3 H1   HT     0.417000        1.0080           0
   96441 WT6  2479 TIP3 H2   HT     0.417000        1.0080           0
   96442 WT6  2480 TIP3 OH2  OT    -0.834000       15.9994           0
   96443 WT6  2480 TIP3 H1   HT     0.417000        1.0080           0
   96444 WT6  2480 TIP3 H2   HT     0.417000        1.0080           0
   96445 WT6  2482 TIP3 OH2  OT    -0.834000       15.9994           0
   96446 WT6  2482 TIP3 H1   HT     0.417000        1.0080           0
   96447 WT6  2482 TIP3 H2   HT     0.417000        1.0080           0
   96448 WT6  2483 TIP3 OH2  OT    -0.834000       15.9994           0
   96449 WT6  2483 TIP3 H1   HT     0.417000        1.0080           0
   96450 WT6  2483 TIP3 H2   HT     0.417000        1.0080           0
   96451 WT6  2484 TIP3 OH2  OT    -0.834000       15.9994           0
   96452 WT6  2484 TIP3 H1   HT     0.417000        1.0080           0
   96453 WT6  2484 TIP3 H2   HT     0.417000        1.0080           0
   96454 WT6  2485 TIP3 OH2  OT    -0.834000       15.9994           0
   96455 WT6  2485 TIP3 H1   HT     0.417000        1.0080           0
   96456 WT6  2485 TIP3 H2   HT     0.417000        1.0080           0
   96457 WT6  2486 TIP3 OH2  OT    -0.834000       15.9994           0
   96458 WT6  2486 TIP3 H1   HT     0.417000        1.0080           0
   96459 WT6  2486 TIP3 H2   HT     0.417000        1.0080           0
   96460 WT6  2487 TIP3 OH2  OT    -0.834000       15.9994           0
   96461 WT6  2487 TIP3 H1   HT     0.417000        1.0080           0
   96462 WT6  2487 TIP3 H2   HT     0.417000        1.0080           0
   96463 WT6  2488 TIP3 OH2  OT    -0.834000       15.9994           0
   96464 WT6  2488 TIP3 H1   HT     0.417000        1.0080           0
   96465 WT6  2488 TIP3 H2   HT     0.417000        1.0080           0
   96466 WT6  2489 TIP3 OH2  OT    -0.834000       15.9994           0
   96467 WT6  2489 TIP3 H1   HT     0.417000        1.0080           0
   96468 WT6  2489 TIP3 H2   HT     0.417000        1.0080           0
   96469 WT6  2491 TIP3 OH2  OT    -0.834000       15.9994           0
   96470 WT6  2491 TIP3 H1   HT     0.417000        1.0080           0
   96471 WT6  2491 TIP3 H2   HT     0.417000        1.0080           0
   96472 WT6  2492 TIP3 OH2  OT    -0.834000       15.9994           0
   96473 WT6  2492 TIP3 H1   HT     0.417000        1.0080           0
   96474 WT6  2492 TIP3 H2   HT     0.417000        1.0080           0
   96475 WT6  2494 TIP3 OH2  OT    -0.834000       15.9994           0
   96476 WT6  2494 TIP3 H1   HT     0.417000        1.0080           0
   96477 WT6  2494 TIP3 H2   HT     0.417000        1.0080           0
   96478 WT6  2499 TIP3 OH2  OT    -0.834000       15.9994           0
   96479 WT6  2499 TIP3 H1   HT     0.417000        1.0080           0
   96480 WT6  2499 TIP3 H2   HT     0.417000        1.0080           0
   96481 WT6  2500 TIP3 OH2  OT    -0.834000       15.9994           0
   96482 WT6  2500 TIP3 H1   HT     0.417000        1.0080           0
   96483 WT6  2500 TIP3 H2   HT     0.417000        1.0080           0
   96484 WT6  2501 TIP3 OH2  OT    -0.834000       15.9994           0
   96485 WT6  2501 TIP3 H1   HT     0.417000        1.0080           0
   96486 WT6  2501 TIP3 H2   HT     0.417000        1.0080           0
   96487 WT6  2503 TIP3 OH2  OT    -0.834000       15.9994           0
   96488 WT6  2503 TIP3 H1   HT     0.417000        1.0080           0
   96489 WT6  2503 TIP3 H2   HT     0.417000        1.0080           0
   96490 WT6  2504 TIP3 OH2  OT    -0.834000       15.9994           0
   96491 WT6  2504 TIP3 H1   HT     0.417000        1.0080           0
   96492 WT6  2504 TIP3 H2   HT     0.417000        1.0080           0
   96493 WT6  2505 TIP3 OH2  OT    -0.834000       15.9994           0
   96494 WT6  2505 TIP3 H1   HT     0.417000        1.0080           0
   96495 WT6  2505 TIP3 H2   HT     0.417000        1.0080           0
   96496 WT6  2506 TIP3 OH2  OT    -0.834000       15.9994           0
   96497 WT6  2506 TIP3 H1   HT     0.417000        1.0080           0
   96498 WT6  2506 TIP3 H2   HT     0.417000        1.0080           0
   96499 WT6  2507 TIP3 OH2  OT    -0.834000       15.9994           0
   96500 WT6  2507 TIP3 H1   HT     0.417000        1.0080           0
   96501 WT6  2507 TIP3 H2   HT     0.417000        1.0080           0
   96502 WT6  2508 TIP3 OH2  OT    -0.834000       15.9994           0
   96503 WT6  2508 TIP3 H1   HT     0.417000        1.0080           0
   96504 WT6  2508 TIP3 H2   HT     0.417000        1.0080           0
   96505 WT6  2509 TIP3 OH2  OT    -0.834000       15.9994           0
   96506 WT6  2509 TIP3 H1   HT     0.417000        1.0080           0
   96507 WT6  2509 TIP3 H2   HT     0.417000        1.0080           0
   96508 WT6  2510 TIP3 OH2  OT    -0.834000       15.9994           0
   96509 WT6  2510 TIP3 H1   HT     0.417000        1.0080           0
   96510 WT6  2510 TIP3 H2   HT     0.417000        1.0080           0
   96511 WT6  2511 TIP3 OH2  OT    -0.834000       15.9994           0
   96512 WT6  2511 TIP3 H1   HT     0.417000        1.0080           0
   96513 WT6  2511 TIP3 H2   HT     0.417000        1.0080           0
   96514 WT6  2512 TIP3 OH2  OT    -0.834000       15.9994           0
   96515 WT6  2512 TIP3 H1   HT     0.417000        1.0080           0
   96516 WT6  2512 TIP3 H2   HT     0.417000        1.0080           0
   96517 WT6  2513 TIP3 OH2  OT    -0.834000       15.9994           0
   96518 WT6  2513 TIP3 H1   HT     0.417000        1.0080           0
   96519 WT6  2513 TIP3 H2   HT     0.417000        1.0080           0
   96520 WT6  2515 TIP3 OH2  OT    -0.834000       15.9994           0
   96521 WT6  2515 TIP3 H1   HT     0.417000        1.0080           0
   96522 WT6  2515 TIP3 H2   HT     0.417000        1.0080           0
   96523 WT6  2519 TIP3 OH2  OT    -0.834000       15.9994           0
   96524 WT6  2519 TIP3 H1   HT     0.417000        1.0080           0
   96525 WT6  2519 TIP3 H2   HT     0.417000        1.0080           0
   96526 WT6  2521 TIP3 OH2  OT    -0.834000       15.9994           0
   96527 WT6  2521 TIP3 H1   HT     0.417000        1.0080           0
   96528 WT6  2521 TIP3 H2   HT     0.417000        1.0080           0
   96529 WT6  2522 TIP3 OH2  OT    -0.834000       15.9994           0
   96530 WT6  2522 TIP3 H1   HT     0.417000        1.0080           0
   96531 WT6  2522 TIP3 H2   HT     0.417000        1.0080           0
   96532 WT6  2523 TIP3 OH2  OT    -0.834000       15.9994           0
   96533 WT6  2523 TIP3 H1   HT     0.417000        1.0080           0
   96534 WT6  2523 TIP3 H2   HT     0.417000        1.0080           0
   96535 WT6  2524 TIP3 OH2  OT    -0.834000       15.9994           0
   96536 WT6  2524 TIP3 H1   HT     0.417000        1.0080           0
   96537 WT6  2524 TIP3 H2   HT     0.417000        1.0080           0
   96538 WT6  2525 TIP3 OH2  OT    -0.834000       15.9994           0
   96539 WT6  2525 TIP3 H1   HT     0.417000        1.0080           0
   96540 WT6  2525 TIP3 H2   HT     0.417000        1.0080           0
   96541 WT6  2526 TIP3 OH2  OT    -0.834000       15.9994           0
   96542 WT6  2526 TIP3 H1   HT     0.417000        1.0080           0
   96543 WT6  2526 TIP3 H2   HT     0.417000        1.0080           0
   96544 WT6  2527 TIP3 OH2  OT    -0.834000       15.9994           0
   96545 WT6  2527 TIP3 H1   HT     0.417000        1.0080           0
   96546 WT6  2527 TIP3 H2   HT     0.417000        1.0080           0
   96547 WT6  2528 TIP3 OH2  OT    -0.834000       15.9994           0
   96548 WT6  2528 TIP3 H1   HT     0.417000        1.0080           0
   96549 WT6  2528 TIP3 H2   HT     0.417000        1.0080           0
   96550 WT6  2529 TIP3 OH2  OT    -0.834000       15.9994           0
   96551 WT6  2529 TIP3 H1   HT     0.417000        1.0080           0
   96552 WT6  2529 TIP3 H2   HT     0.417000        1.0080           0
   96553 WT6  2531 TIP3 OH2  OT    -0.834000       15.9994           0
   96554 WT6  2531 TIP3 H1   HT     0.417000        1.0080           0
   96555 WT6  2531 TIP3 H2   HT     0.417000        1.0080           0
   96556 WT6  2533 TIP3 OH2  OT    -0.834000       15.9994           0
   96557 WT6  2533 TIP3 H1   HT     0.417000        1.0080           0
   96558 WT6  2533 TIP3 H2   HT     0.417000        1.0080           0
   96559 WT6  2539 TIP3 OH2  OT    -0.834000       15.9994           0
   96560 WT6  2539 TIP3 H1   HT     0.417000        1.0080           0
   96561 WT6  2539 TIP3 H2   HT     0.417000        1.0080           0
   96562 WT6  2540 TIP3 OH2  OT    -0.834000       15.9994           0
   96563 WT6  2540 TIP3 H1   HT     0.417000        1.0080           0
   96564 WT6  2540 TIP3 H2   HT     0.417000        1.0080           0
   96565 WT6  2541 TIP3 OH2  OT    -0.834000       15.9994           0
   96566 WT6  2541 TIP3 H1   HT     0.417000        1.0080           0
   96567 WT6  2541 TIP3 H2   HT     0.417000        1.0080           0
   96568 WT6  2544 TIP3 OH2  OT    -0.834000       15.9994           0
   96569 WT6  2544 TIP3 H1   HT     0.417000        1.0080           0
   96570 WT6  2544 TIP3 H2   HT     0.417000        1.0080           0
   96571 WT6  2545 TIP3 OH2  OT    -0.834000       15.9994           0
   96572 WT6  2545 TIP3 H1   HT     0.417000        1.0080           0
   96573 WT6  2545 TIP3 H2   HT     0.417000        1.0080           0
   96574 WT6  2547 TIP3 OH2  OT    -0.834000       15.9994           0
   96575 WT6  2547 TIP3 H1   HT     0.417000        1.0080           0
   96576 WT6  2547 TIP3 H2   HT     0.417000        1.0080           0
   96577 WT6  2548 TIP3 OH2  OT    -0.834000       15.9994           0
   96578 WT6  2548 TIP3 H1   HT     0.417000        1.0080           0
   96579 WT6  2548 TIP3 H2   HT     0.417000        1.0080           0
   96580 WT6  2549 TIP3 OH2  OT    -0.834000       15.9994           0
   96581 WT6  2549 TIP3 H1   HT     0.417000        1.0080           0
   96582 WT6  2549 TIP3 H2   HT     0.417000        1.0080           0
   96583 WT6  2550 TIP3 OH2  OT    -0.834000       15.9994           0
   96584 WT6  2550 TIP3 H1   HT     0.417000        1.0080           0
   96585 WT6  2550 TIP3 H2   HT     0.417000        1.0080           0
   96586 WT6  2551 TIP3 OH2  OT    -0.834000       15.9994           0
   96587 WT6  2551 TIP3 H1   HT     0.417000        1.0080           0
   96588 WT6  2551 TIP3 H2   HT     0.417000        1.0080           0
   96589 WT6  2552 TIP3 OH2  OT    -0.834000       15.9994           0
   96590 WT6  2552 TIP3 H1   HT     0.417000        1.0080           0
   96591 WT6  2552 TIP3 H2   HT     0.417000        1.0080           0
   96592 WT6  2553 TIP3 OH2  OT    -0.834000       15.9994           0
   96593 WT6  2553 TIP3 H1   HT     0.417000        1.0080           0
   96594 WT6  2553 TIP3 H2   HT     0.417000        1.0080           0
   96595 WT6  2554 TIP3 OH2  OT    -0.834000       15.9994           0
   96596 WT6  2554 TIP3 H1   HT     0.417000        1.0080           0
   96597 WT6  2554 TIP3 H2   HT     0.417000        1.0080           0
   96598 WT6  2562 TIP3 OH2  OT    -0.834000       15.9994           0
   96599 WT6  2562 TIP3 H1   HT     0.417000        1.0080           0
   96600 WT6  2562 TIP3 H2   HT     0.417000        1.0080           0
   96601 WT6  2563 TIP3 OH2  OT    -0.834000       15.9994           0
   96602 WT6  2563 TIP3 H1   HT     0.417000        1.0080           0
   96603 WT6  2563 TIP3 H2   HT     0.417000        1.0080           0
   96604 WT6  2564 TIP3 OH2  OT    -0.834000       15.9994           0
   96605 WT6  2564 TIP3 H1   HT     0.417000        1.0080           0
   96606 WT6  2564 TIP3 H2   HT     0.417000        1.0080           0
   96607 WT6  2565 TIP3 OH2  OT    -0.834000       15.9994           0
   96608 WT6  2565 TIP3 H1   HT     0.417000        1.0080           0
   96609 WT6  2565 TIP3 H2   HT     0.417000        1.0080           0
   96610 WT6  2567 TIP3 OH2  OT    -0.834000       15.9994           0
   96611 WT6  2567 TIP3 H1   HT     0.417000        1.0080           0
   96612 WT6  2567 TIP3 H2   HT     0.417000        1.0080           0
   96613 WT6  2568 TIP3 OH2  OT    -0.834000       15.9994           0
   96614 WT6  2568 TIP3 H1   HT     0.417000        1.0080           0
   96615 WT6  2568 TIP3 H2   HT     0.417000        1.0080           0
   96616 WT6  2569 TIP3 OH2  OT    -0.834000       15.9994           0
   96617 WT6  2569 TIP3 H1   HT     0.417000        1.0080           0
   96618 WT6  2569 TIP3 H2   HT     0.417000        1.0080           0
   96619 WT6  2570 TIP3 OH2  OT    -0.834000       15.9994           0
   96620 WT6  2570 TIP3 H1   HT     0.417000        1.0080           0
   96621 WT6  2570 TIP3 H2   HT     0.417000        1.0080           0
   96622 WT6  2571 TIP3 OH2  OT    -0.834000       15.9994           0
   96623 WT6  2571 TIP3 H1   HT     0.417000        1.0080           0
   96624 WT6  2571 TIP3 H2   HT     0.417000        1.0080           0
   96625 WT6  2572 TIP3 OH2  OT    -0.834000       15.9994           0
   96626 WT6  2572 TIP3 H1   HT     0.417000        1.0080           0
   96627 WT6  2572 TIP3 H2   HT     0.417000        1.0080           0
   96628 WT6  2573 TIP3 OH2  OT    -0.834000       15.9994           0
   96629 WT6  2573 TIP3 H1   HT     0.417000        1.0080           0
   96630 WT6  2573 TIP3 H2   HT     0.417000        1.0080           0
   96631 WT6  2574 TIP3 OH2  OT    -0.834000       15.9994           0
   96632 WT6  2574 TIP3 H1   HT     0.417000        1.0080           0
   96633 WT6  2574 TIP3 H2   HT     0.417000        1.0080           0
   96634 WT6  2575 TIP3 OH2  OT    -0.834000       15.9994           0
   96635 WT6  2575 TIP3 H1   HT     0.417000        1.0080           0
   96636 WT6  2575 TIP3 H2   HT     0.417000        1.0080           0
   96637 WT6  2580 TIP3 OH2  OT    -0.834000       15.9994           0
   96638 WT6  2580 TIP3 H1   HT     0.417000        1.0080           0
   96639 WT6  2580 TIP3 H2   HT     0.417000        1.0080           0
   96640 WT6  2582 TIP3 OH2  OT    -0.834000       15.9994           0
   96641 WT6  2582 TIP3 H1   HT     0.417000        1.0080           0
   96642 WT6  2582 TIP3 H2   HT     0.417000        1.0080           0
   96643 WT6  2584 TIP3 OH2  OT    -0.834000       15.9994           0
   96644 WT6  2584 TIP3 H1   HT     0.417000        1.0080           0
   96645 WT6  2584 TIP3 H2   HT     0.417000        1.0080           0
   96646 WT6  2587 TIP3 OH2  OT    -0.834000       15.9994           0
   96647 WT6  2587 TIP3 H1   HT     0.417000        1.0080           0
   96648 WT6  2587 TIP3 H2   HT     0.417000        1.0080           0
   96649 WT6  2588 TIP3 OH2  OT    -0.834000       15.9994           0
   96650 WT6  2588 TIP3 H1   HT     0.417000        1.0080           0
   96651 WT6  2588 TIP3 H2   HT     0.417000        1.0080           0
   96652 WT6  2589 TIP3 OH2  OT    -0.834000       15.9994           0
   96653 WT6  2589 TIP3 H1   HT     0.417000        1.0080           0
   96654 WT6  2589 TIP3 H2   HT     0.417000        1.0080           0
   96655 WT6  2591 TIP3 OH2  OT    -0.834000       15.9994           0
   96656 WT6  2591 TIP3 H1   HT     0.417000        1.0080           0
   96657 WT6  2591 TIP3 H2   HT     0.417000        1.0080           0
   96658 WT6  2592 TIP3 OH2  OT    -0.834000       15.9994           0
   96659 WT6  2592 TIP3 H1   HT     0.417000        1.0080           0
   96660 WT6  2592 TIP3 H2   HT     0.417000        1.0080           0
   96661 WT6  2593 TIP3 OH2  OT    -0.834000       15.9994           0
   96662 WT6  2593 TIP3 H1   HT     0.417000        1.0080           0
   96663 WT6  2593 TIP3 H2   HT     0.417000        1.0080           0
   96664 WT6  2594 TIP3 OH2  OT    -0.834000       15.9994           0
   96665 WT6  2594 TIP3 H1   HT     0.417000        1.0080           0
   96666 WT6  2594 TIP3 H2   HT     0.417000        1.0080           0
   96667 WT6  2595 TIP3 OH2  OT    -0.834000       15.9994           0
   96668 WT6  2595 TIP3 H1   HT     0.417000        1.0080           0
   96669 WT6  2595 TIP3 H2   HT     0.417000        1.0080           0
   96670 WT6  2596 TIP3 OH2  OT    -0.834000       15.9994           0
   96671 WT6  2596 TIP3 H1   HT     0.417000        1.0080           0
   96672 WT6  2596 TIP3 H2   HT     0.417000        1.0080           0
   96673 WT6  2606 TIP3 OH2  OT    -0.834000       15.9994           0
   96674 WT6  2606 TIP3 H1   HT     0.417000        1.0080           0
   96675 WT6  2606 TIP3 H2   HT     0.417000        1.0080           0
   96676 WT6  2607 TIP3 OH2  OT    -0.834000       15.9994           0
   96677 WT6  2607 TIP3 H1   HT     0.417000        1.0080           0
   96678 WT6  2607 TIP3 H2   HT     0.417000        1.0080           0
   96679 WT6  2608 TIP3 OH2  OT    -0.834000       15.9994           0
   96680 WT6  2608 TIP3 H1   HT     0.417000        1.0080           0
   96681 WT6  2608 TIP3 H2   HT     0.417000        1.0080           0
   96682 WT6  2609 TIP3 OH2  OT    -0.834000       15.9994           0
   96683 WT6  2609 TIP3 H1   HT     0.417000        1.0080           0
   96684 WT6  2609 TIP3 H2   HT     0.417000        1.0080           0
   96685 WT6  2610 TIP3 OH2  OT    -0.834000       15.9994           0
   96686 WT6  2610 TIP3 H1   HT     0.417000        1.0080           0
   96687 WT6  2610 TIP3 H2   HT     0.417000        1.0080           0
   96688 WT6  2611 TIP3 OH2  OT    -0.834000       15.9994           0
   96689 WT6  2611 TIP3 H1   HT     0.417000        1.0080           0
   96690 WT6  2611 TIP3 H2   HT     0.417000        1.0080           0
   96691 WT6  2612 TIP3 OH2  OT    -0.834000       15.9994           0
   96692 WT6  2612 TIP3 H1   HT     0.417000        1.0080           0
   96693 WT6  2612 TIP3 H2   HT     0.417000        1.0080           0
   96694 WT6  2613 TIP3 OH2  OT    -0.834000       15.9994           0
   96695 WT6  2613 TIP3 H1   HT     0.417000        1.0080           0
   96696 WT6  2613 TIP3 H2   HT     0.417000        1.0080           0
   96697 WT6  2614 TIP3 OH2  OT    -0.834000       15.9994           0
   96698 WT6  2614 TIP3 H1   HT     0.417000        1.0080           0
   96699 WT6  2614 TIP3 H2   HT     0.417000        1.0080           0
   96700 WT6  2615 TIP3 OH2  OT    -0.834000       15.9994           0
   96701 WT6  2615 TIP3 H1   HT     0.417000        1.0080           0
   96702 WT6  2615 TIP3 H2   HT     0.417000        1.0080           0
   96703 WT6  2616 TIP3 OH2  OT    -0.834000       15.9994           0
   96704 WT6  2616 TIP3 H1   HT     0.417000        1.0080           0
   96705 WT6  2616 TIP3 H2   HT     0.417000        1.0080           0
   96706 WT6  2617 TIP3 OH2  OT    -0.834000       15.9994           0
   96707 WT6  2617 TIP3 H1   HT     0.417000        1.0080           0
   96708 WT6  2617 TIP3 H2   HT     0.417000        1.0080           0
   96709 WT6  2619 TIP3 OH2  OT    -0.834000       15.9994           0
   96710 WT6  2619 TIP3 H1   HT     0.417000        1.0080           0
   96711 WT6  2619 TIP3 H2   HT     0.417000        1.0080           0
   96712 WT6  2628 TIP3 OH2  OT    -0.834000       15.9994           0
   96713 WT6  2628 TIP3 H1   HT     0.417000        1.0080           0
   96714 WT6  2628 TIP3 H2   HT     0.417000        1.0080           0
   96715 WT6  2631 TIP3 OH2  OT    -0.834000       15.9994           0
   96716 WT6  2631 TIP3 H1   HT     0.417000        1.0080           0
   96717 WT6  2631 TIP3 H2   HT     0.417000        1.0080           0
   96718 WT6  2632 TIP3 OH2  OT    -0.834000       15.9994           0
   96719 WT6  2632 TIP3 H1   HT     0.417000        1.0080           0
   96720 WT6  2632 TIP3 H2   HT     0.417000        1.0080           0
   96721 WT6  2633 TIP3 OH2  OT    -0.834000       15.9994           0
   96722 WT6  2633 TIP3 H1   HT     0.417000        1.0080           0
   96723 WT6  2633 TIP3 H2   HT     0.417000        1.0080           0
   96724 WT6  2634 TIP3 OH2  OT    -0.834000       15.9994           0
   96725 WT6  2634 TIP3 H1   HT     0.417000        1.0080           0
   96726 WT6  2634 TIP3 H2   HT     0.417000        1.0080           0
   96727 WT6  2635 TIP3 OH2  OT    -0.834000       15.9994           0
   96728 WT6  2635 TIP3 H1   HT     0.417000        1.0080           0
   96729 WT6  2635 TIP3 H2   HT     0.417000        1.0080           0
   96730 WT6  2637 TIP3 OH2  OT    -0.834000       15.9994           0
   96731 WT6  2637 TIP3 H1   HT     0.417000        1.0080           0
   96732 WT6  2637 TIP3 H2   HT     0.417000        1.0080           0
   96733 WT6  2640 TIP3 OH2  OT    -0.834000       15.9994           0
   96734 WT6  2640 TIP3 H1   HT     0.417000        1.0080           0
   96735 WT6  2640 TIP3 H2   HT     0.417000        1.0080           0
   96736 WT6  2643 TIP3 OH2  OT    -0.834000       15.9994           0
   96737 WT6  2643 TIP3 H1   HT     0.417000        1.0080           0
   96738 WT6  2643 TIP3 H2   HT     0.417000        1.0080           0
   96739 WT6  2644 TIP3 OH2  OT    -0.834000       15.9994           0
   96740 WT6  2644 TIP3 H1   HT     0.417000        1.0080           0
   96741 WT6  2644 TIP3 H2   HT     0.417000        1.0080           0
   96742 WT6  2648 TIP3 OH2  OT    -0.834000       15.9994           0
   96743 WT6  2648 TIP3 H1   HT     0.417000        1.0080           0
   96744 WT6  2648 TIP3 H2   HT     0.417000        1.0080           0
   96745 WT6  2649 TIP3 OH2  OT    -0.834000       15.9994           0
   96746 WT6  2649 TIP3 H1   HT     0.417000        1.0080           0
   96747 WT6  2649 TIP3 H2   HT     0.417000        1.0080           0
   96748 WT6  2650 TIP3 OH2  OT    -0.834000       15.9994           0
   96749 WT6  2650 TIP3 H1   HT     0.417000        1.0080           0
   96750 WT6  2650 TIP3 H2   HT     0.417000        1.0080           0
   96751 WT6  2651 TIP3 OH2  OT    -0.834000       15.9994           0
   96752 WT6  2651 TIP3 H1   HT     0.417000        1.0080           0
   96753 WT6  2651 TIP3 H2   HT     0.417000        1.0080           0
   96754 WT6  2653 TIP3 OH2  OT    -0.834000       15.9994           0
   96755 WT6  2653 TIP3 H1   HT     0.417000        1.0080           0
   96756 WT6  2653 TIP3 H2   HT     0.417000        1.0080           0
   96757 WT6  2654 TIP3 OH2  OT    -0.834000       15.9994           0
   96758 WT6  2654 TIP3 H1   HT     0.417000        1.0080           0
   96759 WT6  2654 TIP3 H2   HT     0.417000        1.0080           0
   96760 WT6  2655 TIP3 OH2  OT    -0.834000       15.9994           0
   96761 WT6  2655 TIP3 H1   HT     0.417000        1.0080           0
   96762 WT6  2655 TIP3 H2   HT     0.417000        1.0080           0
   96763 WT6  2656 TIP3 OH2  OT    -0.834000       15.9994           0
   96764 WT6  2656 TIP3 H1   HT     0.417000        1.0080           0
   96765 WT6  2656 TIP3 H2   HT     0.417000        1.0080           0
   96766 WT6  2657 TIP3 OH2  OT    -0.834000       15.9994           0
   96767 WT6  2657 TIP3 H1   HT     0.417000        1.0080           0
   96768 WT6  2657 TIP3 H2   HT     0.417000        1.0080           0
   96769 WT6  2658 TIP3 OH2  OT    -0.834000       15.9994           0
   96770 WT6  2658 TIP3 H1   HT     0.417000        1.0080           0
   96771 WT6  2658 TIP3 H2   HT     0.417000        1.0080           0
   96772 WT6  2659 TIP3 OH2  OT    -0.834000       15.9994           0
   96773 WT6  2659 TIP3 H1   HT     0.417000        1.0080           0
   96774 WT6  2659 TIP3 H2   HT     0.417000        1.0080           0
   96775 WT6  2662 TIP3 OH2  OT    -0.834000       15.9994           0
   96776 WT6  2662 TIP3 H1   HT     0.417000        1.0080           0
   96777 WT6  2662 TIP3 H2   HT     0.417000        1.0080           0
   96778 WT6  2667 TIP3 OH2  OT    -0.834000       15.9994           0
   96779 WT6  2667 TIP3 H1   HT     0.417000        1.0080           0
   96780 WT6  2667 TIP3 H2   HT     0.417000        1.0080           0
   96781 WT6  2668 TIP3 OH2  OT    -0.834000       15.9994           0
   96782 WT6  2668 TIP3 H1   HT     0.417000        1.0080           0
   96783 WT6  2668 TIP3 H2   HT     0.417000        1.0080           0
   96784 WT6  2669 TIP3 OH2  OT    -0.834000       15.9994           0
   96785 WT6  2669 TIP3 H1   HT     0.417000        1.0080           0
   96786 WT6  2669 TIP3 H2   HT     0.417000        1.0080           0
   96787 WT6  2670 TIP3 OH2  OT    -0.834000       15.9994           0
   96788 WT6  2670 TIP3 H1   HT     0.417000        1.0080           0
   96789 WT6  2670 TIP3 H2   HT     0.417000        1.0080           0
   96790 WT6  2672 TIP3 OH2  OT    -0.834000       15.9994           0
   96791 WT6  2672 TIP3 H1   HT     0.417000        1.0080           0
   96792 WT6  2672 TIP3 H2   HT     0.417000        1.0080           0
   96793 WT6  2673 TIP3 OH2  OT    -0.834000       15.9994           0
   96794 WT6  2673 TIP3 H1   HT     0.417000        1.0080           0
   96795 WT6  2673 TIP3 H2   HT     0.417000        1.0080           0
   96796 WT6  2674 TIP3 OH2  OT    -0.834000       15.9994           0
   96797 WT6  2674 TIP3 H1   HT     0.417000        1.0080           0
   96798 WT6  2674 TIP3 H2   HT     0.417000        1.0080           0
   96799 WT6  2675 TIP3 OH2  OT    -0.834000       15.9994           0
   96800 WT6  2675 TIP3 H1   HT     0.417000        1.0080           0
   96801 WT6  2675 TIP3 H2   HT     0.417000        1.0080           0
   96802 WT6  2676 TIP3 OH2  OT    -0.834000       15.9994           0
   96803 WT6  2676 TIP3 H1   HT     0.417000        1.0080           0
   96804 WT6  2676 TIP3 H2   HT     0.417000        1.0080           0
   96805 WT6  2677 TIP3 OH2  OT    -0.834000       15.9994           0
   96806 WT6  2677 TIP3 H1   HT     0.417000        1.0080           0
   96807 WT6  2677 TIP3 H2   HT     0.417000        1.0080           0
   96808 WT6  2678 TIP3 OH2  OT    -0.834000       15.9994           0
   96809 WT6  2678 TIP3 H1   HT     0.417000        1.0080           0
   96810 WT6  2678 TIP3 H2   HT     0.417000        1.0080           0
   96811 WT6  2679 TIP3 OH2  OT    -0.834000       15.9994           0
   96812 WT6  2679 TIP3 H1   HT     0.417000        1.0080           0
   96813 WT6  2679 TIP3 H2   HT     0.417000        1.0080           0
   96814 WT6  2680 TIP3 OH2  OT    -0.834000       15.9994           0
   96815 WT6  2680 TIP3 H1   HT     0.417000        1.0080           0
   96816 WT6  2680 TIP3 H2   HT     0.417000        1.0080           0
   96817 WT6  2681 TIP3 OH2  OT    -0.834000       15.9994           0
   96818 WT6  2681 TIP3 H1   HT     0.417000        1.0080           0
   96819 WT6  2681 TIP3 H2   HT     0.417000        1.0080           0
   96820 WT6  2682 TIP3 OH2  OT    -0.834000       15.9994           0
   96821 WT6  2682 TIP3 H1   HT     0.417000        1.0080           0
   96822 WT6  2682 TIP3 H2   HT     0.417000        1.0080           0
   96823 WT6  2683 TIP3 OH2  OT    -0.834000       15.9994           0
   96824 WT6  2683 TIP3 H1   HT     0.417000        1.0080           0
   96825 WT6  2683 TIP3 H2   HT     0.417000        1.0080           0
   96826 WT6  2684 TIP3 OH2  OT    -0.834000       15.9994           0
   96827 WT6  2684 TIP3 H1   HT     0.417000        1.0080           0
   96828 WT6  2684 TIP3 H2   HT     0.417000        1.0080           0
   96829 WT6  2689 TIP3 OH2  OT    -0.834000       15.9994           0
   96830 WT6  2689 TIP3 H1   HT     0.417000        1.0080           0
   96831 WT6  2689 TIP3 H2   HT     0.417000        1.0080           0
   96832 WT6  2690 TIP3 OH2  OT    -0.834000       15.9994           0
   96833 WT6  2690 TIP3 H1   HT     0.417000        1.0080           0
   96834 WT6  2690 TIP3 H2   HT     0.417000        1.0080           0
   96835 WT6  2691 TIP3 OH2  OT    -0.834000       15.9994           0
   96836 WT6  2691 TIP3 H1   HT     0.417000        1.0080           0
   96837 WT6  2691 TIP3 H2   HT     0.417000        1.0080           0
   96838 WT6  2692 TIP3 OH2  OT    -0.834000       15.9994           0
   96839 WT6  2692 TIP3 H1   HT     0.417000        1.0080           0
   96840 WT6  2692 TIP3 H2   HT     0.417000        1.0080           0
   96841 WT6  2693 TIP3 OH2  OT    -0.834000       15.9994           0
   96842 WT6  2693 TIP3 H1   HT     0.417000        1.0080           0
   96843 WT6  2693 TIP3 H2   HT     0.417000        1.0080           0
   96844 WT6  2694 TIP3 OH2  OT    -0.834000       15.9994           0
   96845 WT6  2694 TIP3 H1   HT     0.417000        1.0080           0
   96846 WT6  2694 TIP3 H2   HT     0.417000        1.0080           0
   96847 WT6  2695 TIP3 OH2  OT    -0.834000       15.9994           0
   96848 WT6  2695 TIP3 H1   HT     0.417000        1.0080           0
   96849 WT6  2695 TIP3 H2   HT     0.417000        1.0080           0
   96850 WT6  2696 TIP3 OH2  OT    -0.834000       15.9994           0
   96851 WT6  2696 TIP3 H1   HT     0.417000        1.0080           0
   96852 WT6  2696 TIP3 H2   HT     0.417000        1.0080           0
   96853 WT6  2697 TIP3 OH2  OT    -0.834000       15.9994           0
   96854 WT6  2697 TIP3 H1   HT     0.417000        1.0080           0
   96855 WT6  2697 TIP3 H2   HT     0.417000        1.0080           0
   96856 WT6  2698 TIP3 OH2  OT    -0.834000       15.9994           0
   96857 WT6  2698 TIP3 H1   HT     0.417000        1.0080           0
   96858 WT6  2698 TIP3 H2   HT     0.417000        1.0080           0
   96859 WT6  2699 TIP3 OH2  OT    -0.834000       15.9994           0
   96860 WT6  2699 TIP3 H1   HT     0.417000        1.0080           0
   96861 WT6  2699 TIP3 H2   HT     0.417000        1.0080           0
   96862 WT6  2701 TIP3 OH2  OT    -0.834000       15.9994           0
   96863 WT6  2701 TIP3 H1   HT     0.417000        1.0080           0
   96864 WT6  2701 TIP3 H2   HT     0.417000        1.0080           0
   96865 WT6  2703 TIP3 OH2  OT    -0.834000       15.9994           0
   96866 WT6  2703 TIP3 H1   HT     0.417000        1.0080           0
   96867 WT6  2703 TIP3 H2   HT     0.417000        1.0080           0
   96868 WT6  2704 TIP3 OH2  OT    -0.834000       15.9994           0
   96869 WT6  2704 TIP3 H1   HT     0.417000        1.0080           0
   96870 WT6  2704 TIP3 H2   HT     0.417000        1.0080           0
   96871 WT6  2709 TIP3 OH2  OT    -0.834000       15.9994           0
   96872 WT6  2709 TIP3 H1   HT     0.417000        1.0080           0
   96873 WT6  2709 TIP3 H2   HT     0.417000        1.0080           0
   96874 WT6  2710 TIP3 OH2  OT    -0.834000       15.9994           0
   96875 WT6  2710 TIP3 H1   HT     0.417000        1.0080           0
   96876 WT6  2710 TIP3 H2   HT     0.417000        1.0080           0
   96877 WT6  2712 TIP3 OH2  OT    -0.834000       15.9994           0
   96878 WT6  2712 TIP3 H1   HT     0.417000        1.0080           0
   96879 WT6  2712 TIP3 H2   HT     0.417000        1.0080           0
   96880 WT6  2713 TIP3 OH2  OT    -0.834000       15.9994           0
   96881 WT6  2713 TIP3 H1   HT     0.417000        1.0080           0
   96882 WT6  2713 TIP3 H2   HT     0.417000        1.0080           0
   96883 WT6  2714 TIP3 OH2  OT    -0.834000       15.9994           0
   96884 WT6  2714 TIP3 H1   HT     0.417000        1.0080           0
   96885 WT6  2714 TIP3 H2   HT     0.417000        1.0080           0
   96886 WT6  2715 TIP3 OH2  OT    -0.834000       15.9994           0
   96887 WT6  2715 TIP3 H1   HT     0.417000        1.0080           0
   96888 WT6  2715 TIP3 H2   HT     0.417000        1.0080           0
   96889 WT6  2716 TIP3 OH2  OT    -0.834000       15.9994           0
   96890 WT6  2716 TIP3 H1   HT     0.417000        1.0080           0
   96891 WT6  2716 TIP3 H2   HT     0.417000        1.0080           0
   96892 WT6  2717 TIP3 OH2  OT    -0.834000       15.9994           0
   96893 WT6  2717 TIP3 H1   HT     0.417000        1.0080           0
   96894 WT6  2717 TIP3 H2   HT     0.417000        1.0080           0
   96895 WT6  2718 TIP3 OH2  OT    -0.834000       15.9994           0
   96896 WT6  2718 TIP3 H1   HT     0.417000        1.0080           0
   96897 WT6  2718 TIP3 H2   HT     0.417000        1.0080           0
   96898 WT6  2719 TIP3 OH2  OT    -0.834000       15.9994           0
   96899 WT6  2719 TIP3 H1   HT     0.417000        1.0080           0
   96900 WT6  2719 TIP3 H2   HT     0.417000        1.0080           0
   96901 WT6  2720 TIP3 OH2  OT    -0.834000       15.9994           0
   96902 WT6  2720 TIP3 H1   HT     0.417000        1.0080           0
   96903 WT6  2720 TIP3 H2   HT     0.417000        1.0080           0
   96904 WT6  2721 TIP3 OH2  OT    -0.834000       15.9994           0
   96905 WT6  2721 TIP3 H1   HT     0.417000        1.0080           0
   96906 WT6  2721 TIP3 H2   HT     0.417000        1.0080           0
   96907 WT6  2722 TIP3 OH2  OT    -0.834000       15.9994           0
   96908 WT6  2722 TIP3 H1   HT     0.417000        1.0080           0
   96909 WT6  2722 TIP3 H2   HT     0.417000        1.0080           0
   96910 WT6  2723 TIP3 OH2  OT    -0.834000       15.9994           0
   96911 WT6  2723 TIP3 H1   HT     0.417000        1.0080           0
   96912 WT6  2723 TIP3 H2   HT     0.417000        1.0080           0
   96913 WT6  2724 TIP3 OH2  OT    -0.834000       15.9994           0
   96914 WT6  2724 TIP3 H1   HT     0.417000        1.0080           0
   96915 WT6  2724 TIP3 H2   HT     0.417000        1.0080           0
   96916 WT6  2732 TIP3 OH2  OT    -0.834000       15.9994           0
   96917 WT6  2732 TIP3 H1   HT     0.417000        1.0080           0
   96918 WT6  2732 TIP3 H2   HT     0.417000        1.0080           0
   96919 WT6  2734 TIP3 OH2  OT    -0.834000       15.9994           0
   96920 WT6  2734 TIP3 H1   HT     0.417000        1.0080           0
   96921 WT6  2734 TIP3 H2   HT     0.417000        1.0080           0
   96922 WT6  2735 TIP3 OH2  OT    -0.834000       15.9994           0
   96923 WT6  2735 TIP3 H1   HT     0.417000        1.0080           0
   96924 WT6  2735 TIP3 H2   HT     0.417000        1.0080           0
   96925 WT6  2736 TIP3 OH2  OT    -0.834000       15.9994           0
   96926 WT6  2736 TIP3 H1   HT     0.417000        1.0080           0
   96927 WT6  2736 TIP3 H2   HT     0.417000        1.0080           0
   96928 WT6  2737 TIP3 OH2  OT    -0.834000       15.9994           0
   96929 WT6  2737 TIP3 H1   HT     0.417000        1.0080           0
   96930 WT6  2737 TIP3 H2   HT     0.417000        1.0080           0
   96931 WT6  2738 TIP3 OH2  OT    -0.834000       15.9994           0
   96932 WT6  2738 TIP3 H1   HT     0.417000        1.0080           0
   96933 WT6  2738 TIP3 H2   HT     0.417000        1.0080           0
   96934 WT6  2739 TIP3 OH2  OT    -0.834000       15.9994           0
   96935 WT6  2739 TIP3 H1   HT     0.417000        1.0080           0
   96936 WT6  2739 TIP3 H2   HT     0.417000        1.0080           0
   96937 WT6  2740 TIP3 OH2  OT    -0.834000       15.9994           0
   96938 WT6  2740 TIP3 H1   HT     0.417000        1.0080           0
   96939 WT6  2740 TIP3 H2   HT     0.417000        1.0080           0
   96940 WT6  2741 TIP3 OH2  OT    -0.834000       15.9994           0
   96941 WT6  2741 TIP3 H1   HT     0.417000        1.0080           0
   96942 WT6  2741 TIP3 H2   HT     0.417000        1.0080           0
   96943 WT6  2743 TIP3 OH2  OT    -0.834000       15.9994           0
   96944 WT6  2743 TIP3 H1   HT     0.417000        1.0080           0
   96945 WT6  2743 TIP3 H2   HT     0.417000        1.0080           0
   96946 WT6  2744 TIP3 OH2  OT    -0.834000       15.9994           0
   96947 WT6  2744 TIP3 H1   HT     0.417000        1.0080           0
   96948 WT6  2744 TIP3 H2   HT     0.417000        1.0080           0
   96949 WT6  2746 TIP3 OH2  OT    -0.834000       15.9994           0
   96950 WT6  2746 TIP3 H1   HT     0.417000        1.0080           0
   96951 WT6  2746 TIP3 H2   HT     0.417000        1.0080           0
   96952 WT6  2753 TIP3 OH2  OT    -0.834000       15.9994           0
   96953 WT6  2753 TIP3 H1   HT     0.417000        1.0080           0
   96954 WT6  2753 TIP3 H2   HT     0.417000        1.0080           0
   96955 WT6  2754 TIP3 OH2  OT    -0.834000       15.9994           0
   96956 WT6  2754 TIP3 H1   HT     0.417000        1.0080           0
   96957 WT6  2754 TIP3 H2   HT     0.417000        1.0080           0
   96958 WT6  2755 TIP3 OH2  OT    -0.834000       15.9994           0
   96959 WT6  2755 TIP3 H1   HT     0.417000        1.0080           0
   96960 WT6  2755 TIP3 H2   HT     0.417000        1.0080           0
   96961 WT6  2756 TIP3 OH2  OT    -0.834000       15.9994           0
   96962 WT6  2756 TIP3 H1   HT     0.417000        1.0080           0
   96963 WT6  2756 TIP3 H2   HT     0.417000        1.0080           0
   96964 WT6  2757 TIP3 OH2  OT    -0.834000       15.9994           0
   96965 WT6  2757 TIP3 H1   HT     0.417000        1.0080           0
   96966 WT6  2757 TIP3 H2   HT     0.417000        1.0080           0
   96967 WT6  2758 TIP3 OH2  OT    -0.834000       15.9994           0
   96968 WT6  2758 TIP3 H1   HT     0.417000        1.0080           0
   96969 WT6  2758 TIP3 H2   HT     0.417000        1.0080           0
   96970 WT6  2759 TIP3 OH2  OT    -0.834000       15.9994           0
   96971 WT6  2759 TIP3 H1   HT     0.417000        1.0080           0
   96972 WT6  2759 TIP3 H2   HT     0.417000        1.0080           0
   96973 WT6  2760 TIP3 OH2  OT    -0.834000       15.9994           0
   96974 WT6  2760 TIP3 H1   HT     0.417000        1.0080           0
   96975 WT6  2760 TIP3 H2   HT     0.417000        1.0080           0
   96976 WT6  2761 TIP3 OH2  OT    -0.834000       15.9994           0
   96977 WT6  2761 TIP3 H1   HT     0.417000        1.0080           0
   96978 WT6  2761 TIP3 H2   HT     0.417000        1.0080           0
   96979 WT6  2762 TIP3 OH2  OT    -0.834000       15.9994           0
   96980 WT6  2762 TIP3 H1   HT     0.417000        1.0080           0
   96981 WT6  2762 TIP3 H2   HT     0.417000        1.0080           0
   96982 WT6  2767 TIP3 OH2  OT    -0.834000       15.9994           0
   96983 WT6  2767 TIP3 H1   HT     0.417000        1.0080           0
   96984 WT6  2767 TIP3 H2   HT     0.417000        1.0080           0
   96985 WT6  2771 TIP3 OH2  OT    -0.834000       15.9994           0
   96986 WT6  2771 TIP3 H1   HT     0.417000        1.0080           0
   96987 WT6  2771 TIP3 H2   HT     0.417000        1.0080           0
   96988 WT6  2773 TIP3 OH2  OT    -0.834000       15.9994           0
   96989 WT6  2773 TIP3 H1   HT     0.417000        1.0080           0
   96990 WT6  2773 TIP3 H2   HT     0.417000        1.0080           0
   96991 WT6  2774 TIP3 OH2  OT    -0.834000       15.9994           0
   96992 WT6  2774 TIP3 H1   HT     0.417000        1.0080           0
   96993 WT6  2774 TIP3 H2   HT     0.417000        1.0080           0
   96994 WT6  2775 TIP3 OH2  OT    -0.834000       15.9994           0
   96995 WT6  2775 TIP3 H1   HT     0.417000        1.0080           0
   96996 WT6  2775 TIP3 H2   HT     0.417000        1.0080           0
   96997 WT6  2776 TIP3 OH2  OT    -0.834000       15.9994           0
   96998 WT6  2776 TIP3 H1   HT     0.417000        1.0080           0
   96999 WT6  2776 TIP3 H2   HT     0.417000        1.0080           0
   97000 WT6  2777 TIP3 OH2  OT    -0.834000       15.9994           0
   97001 WT6  2777 TIP3 H1   HT     0.417000        1.0080           0
   97002 WT6  2777 TIP3 H2   HT     0.417000        1.0080           0
   97003 WT6  2778 TIP3 OH2  OT    -0.834000       15.9994           0
   97004 WT6  2778 TIP3 H1   HT     0.417000        1.0080           0
   97005 WT6  2778 TIP3 H2   HT     0.417000        1.0080           0
   97006 WT6  2779 TIP3 OH2  OT    -0.834000       15.9994           0
   97007 WT6  2779 TIP3 H1   HT     0.417000        1.0080           0
   97008 WT6  2779 TIP3 H2   HT     0.417000        1.0080           0
   97009 WT6  2780 TIP3 OH2  OT    -0.834000       15.9994           0
   97010 WT6  2780 TIP3 H1   HT     0.417000        1.0080           0
   97011 WT6  2780 TIP3 H2   HT     0.417000        1.0080           0
   97012 WT6  2781 TIP3 OH2  OT    -0.834000       15.9994           0
   97013 WT6  2781 TIP3 H1   HT     0.417000        1.0080           0
   97014 WT6  2781 TIP3 H2   HT     0.417000        1.0080           0
   97015 WT6  2782 TIP3 OH2  OT    -0.834000       15.9994           0
   97016 WT6  2782 TIP3 H1   HT     0.417000        1.0080           0
   97017 WT6  2782 TIP3 H2   HT     0.417000        1.0080           0
   97018 WT6  2783 TIP3 OH2  OT    -0.834000       15.9994           0
   97019 WT6  2783 TIP3 H1   HT     0.417000        1.0080           0
   97020 WT6  2783 TIP3 H2   HT     0.417000        1.0080           0
   97021 WT6  2784 TIP3 OH2  OT    -0.834000       15.9994           0
   97022 WT6  2784 TIP3 H1   HT     0.417000        1.0080           0
   97023 WT6  2784 TIP3 H2   HT     0.417000        1.0080           0
   97024 WT6  2785 TIP3 OH2  OT    -0.834000       15.9994           0
   97025 WT6  2785 TIP3 H1   HT     0.417000        1.0080           0
   97026 WT6  2785 TIP3 H2   HT     0.417000        1.0080           0
   97027 WT6  2790 TIP3 OH2  OT    -0.834000       15.9994           0
   97028 WT6  2790 TIP3 H1   HT     0.417000        1.0080           0
   97029 WT6  2790 TIP3 H2   HT     0.417000        1.0080           0
   97030 WT6  2793 TIP3 OH2  OT    -0.834000       15.9994           0
   97031 WT6  2793 TIP3 H1   HT     0.417000        1.0080           0
   97032 WT6  2793 TIP3 H2   HT     0.417000        1.0080           0
   97033 WT6  2794 TIP3 OH2  OT    -0.834000       15.9994           0
   97034 WT6  2794 TIP3 H1   HT     0.417000        1.0080           0
   97035 WT6  2794 TIP3 H2   HT     0.417000        1.0080           0
   97036 WT6  2796 TIP3 OH2  OT    -0.834000       15.9994           0
   97037 WT6  2796 TIP3 H1   HT     0.417000        1.0080           0
   97038 WT6  2796 TIP3 H2   HT     0.417000        1.0080           0
   97039 WT6  2798 TIP3 OH2  OT    -0.834000       15.9994           0
   97040 WT6  2798 TIP3 H1   HT     0.417000        1.0080           0
   97041 WT6  2798 TIP3 H2   HT     0.417000        1.0080           0
   97042 WT6  2799 TIP3 OH2  OT    -0.834000       15.9994           0
   97043 WT6  2799 TIP3 H1   HT     0.417000        1.0080           0
   97044 WT6  2799 TIP3 H2   HT     0.417000        1.0080           0
   97045 WT6  2800 TIP3 OH2  OT    -0.834000       15.9994           0
   97046 WT6  2800 TIP3 H1   HT     0.417000        1.0080           0
   97047 WT6  2800 TIP3 H2   HT     0.417000        1.0080           0
   97048 WT6  2801 TIP3 OH2  OT    -0.834000       15.9994           0
   97049 WT6  2801 TIP3 H1   HT     0.417000        1.0080           0
   97050 WT6  2801 TIP3 H2   HT     0.417000        1.0080           0
   97051 WT6  2802 TIP3 OH2  OT    -0.834000       15.9994           0
   97052 WT6  2802 TIP3 H1   HT     0.417000        1.0080           0
   97053 WT6  2802 TIP3 H2   HT     0.417000        1.0080           0
   97054 WT6  2803 TIP3 OH2  OT    -0.834000       15.9994           0
   97055 WT6  2803 TIP3 H1   HT     0.417000        1.0080           0
   97056 WT6  2803 TIP3 H2   HT     0.417000        1.0080           0
   97057 WT6  2806 TIP3 OH2  OT    -0.834000       15.9994           0
   97058 WT6  2806 TIP3 H1   HT     0.417000        1.0080           0
   97059 WT6  2806 TIP3 H2   HT     0.417000        1.0080           0
   97060 WT6  2815 TIP3 OH2  OT    -0.834000       15.9994           0
   97061 WT6  2815 TIP3 H1   HT     0.417000        1.0080           0
   97062 WT6  2815 TIP3 H2   HT     0.417000        1.0080           0
   97063 WT6  2817 TIP3 OH2  OT    -0.834000       15.9994           0
   97064 WT6  2817 TIP3 H1   HT     0.417000        1.0080           0
   97065 WT6  2817 TIP3 H2   HT     0.417000        1.0080           0
   97066 WT6  2818 TIP3 OH2  OT    -0.834000       15.9994           0
   97067 WT6  2818 TIP3 H1   HT     0.417000        1.0080           0
   97068 WT6  2818 TIP3 H2   HT     0.417000        1.0080           0
   97069 WT6  2819 TIP3 OH2  OT    -0.834000       15.9994           0
   97070 WT6  2819 TIP3 H1   HT     0.417000        1.0080           0
   97071 WT6  2819 TIP3 H2   HT     0.417000        1.0080           0
   97072 WT6  2820 TIP3 OH2  OT    -0.834000       15.9994           0
   97073 WT6  2820 TIP3 H1   HT     0.417000        1.0080           0
   97074 WT6  2820 TIP3 H2   HT     0.417000        1.0080           0
   97075 WT6  2821 TIP3 OH2  OT    -0.834000       15.9994           0
   97076 WT6  2821 TIP3 H1   HT     0.417000        1.0080           0
   97077 WT6  2821 TIP3 H2   HT     0.417000        1.0080           0
   97078 WT6  2822 TIP3 OH2  OT    -0.834000       15.9994           0
   97079 WT6  2822 TIP3 H1   HT     0.417000        1.0080           0
   97080 WT6  2822 TIP3 H2   HT     0.417000        1.0080           0
   97081 WT6  2823 TIP3 OH2  OT    -0.834000       15.9994           0
   97082 WT6  2823 TIP3 H1   HT     0.417000        1.0080           0
   97083 WT6  2823 TIP3 H2   HT     0.417000        1.0080           0
   97084 WT6  2824 TIP3 OH2  OT    -0.834000       15.9994           0
   97085 WT6  2824 TIP3 H1   HT     0.417000        1.0080           0
   97086 WT6  2824 TIP3 H2   HT     0.417000        1.0080           0
   97087 WT6  2825 TIP3 OH2  OT    -0.834000       15.9994           0
   97088 WT6  2825 TIP3 H1   HT     0.417000        1.0080           0
   97089 WT6  2825 TIP3 H2   HT     0.417000        1.0080           0
   97090 WT6  2826 TIP3 OH2  OT    -0.834000       15.9994           0
   97091 WT6  2826 TIP3 H1   HT     0.417000        1.0080           0
   97092 WT6  2826 TIP3 H2   HT     0.417000        1.0080           0
   97093 WT6  2827 TIP3 OH2  OT    -0.834000       15.9994           0
   97094 WT6  2827 TIP3 H1   HT     0.417000        1.0080           0
   97095 WT6  2827 TIP3 H2   HT     0.417000        1.0080           0
   97096 WT6  2829 TIP3 OH2  OT    -0.834000       15.9994           0
   97097 WT6  2829 TIP3 H1   HT     0.417000        1.0080           0
   97098 WT6  2829 TIP3 H2   HT     0.417000        1.0080           0
   97099 WT6  2830 TIP3 OH2  OT    -0.834000       15.9994           0
   97100 WT6  2830 TIP3 H1   HT     0.417000        1.0080           0
   97101 WT6  2830 TIP3 H2   HT     0.417000        1.0080           0
   97102 WT6  2831 TIP3 OH2  OT    -0.834000       15.9994           0
   97103 WT6  2831 TIP3 H1   HT     0.417000        1.0080           0
   97104 WT6  2831 TIP3 H2   HT     0.417000        1.0080           0
   97105 WT6  2832 TIP3 OH2  OT    -0.834000       15.9994           0
   97106 WT6  2832 TIP3 H1   HT     0.417000        1.0080           0
   97107 WT6  2832 TIP3 H2   HT     0.417000        1.0080           0
   97108 WT6  2838 TIP3 OH2  OT    -0.834000       15.9994           0
   97109 WT6  2838 TIP3 H1   HT     0.417000        1.0080           0
   97110 WT6  2838 TIP3 H2   HT     0.417000        1.0080           0
   97111 WT6  2839 TIP3 OH2  OT    -0.834000       15.9994           0
   97112 WT6  2839 TIP3 H1   HT     0.417000        1.0080           0
   97113 WT6  2839 TIP3 H2   HT     0.417000        1.0080           0
   97114 WT6  2840 TIP3 OH2  OT    -0.834000       15.9994           0
   97115 WT6  2840 TIP3 H1   HT     0.417000        1.0080           0
   97116 WT6  2840 TIP3 H2   HT     0.417000        1.0080           0
   97117 WT6  2841 TIP3 OH2  OT    -0.834000       15.9994           0
   97118 WT6  2841 TIP3 H1   HT     0.417000        1.0080           0
   97119 WT6  2841 TIP3 H2   HT     0.417000        1.0080           0
   97120 WT6  2842 TIP3 OH2  OT    -0.834000       15.9994           0
   97121 WT6  2842 TIP3 H1   HT     0.417000        1.0080           0
   97122 WT6  2842 TIP3 H2   HT     0.417000        1.0080           0
   97123 WT6  2843 TIP3 OH2  OT    -0.834000       15.9994           0
   97124 WT6  2843 TIP3 H1   HT     0.417000        1.0080           0
   97125 WT6  2843 TIP3 H2   HT     0.417000        1.0080           0
   97126 WT6  2844 TIP3 OH2  OT    -0.834000       15.9994           0
   97127 WT6  2844 TIP3 H1   HT     0.417000        1.0080           0
   97128 WT6  2844 TIP3 H2   HT     0.417000        1.0080           0
   97129 WT6  2845 TIP3 OH2  OT    -0.834000       15.9994           0
   97130 WT6  2845 TIP3 H1   HT     0.417000        1.0080           0
   97131 WT6  2845 TIP3 H2   HT     0.417000        1.0080           0
   97132 WT6  2846 TIP3 OH2  OT    -0.834000       15.9994           0
   97133 WT6  2846 TIP3 H1   HT     0.417000        1.0080           0
   97134 WT6  2846 TIP3 H2   HT     0.417000        1.0080           0
   97135 WT6  2847 TIP3 OH2  OT    -0.834000       15.9994           0
   97136 WT6  2847 TIP3 H1   HT     0.417000        1.0080           0
   97137 WT6  2847 TIP3 H2   HT     0.417000        1.0080           0
   97138 WT6  2848 TIP3 OH2  OT    -0.834000       15.9994           0
   97139 WT6  2848 TIP3 H1   HT     0.417000        1.0080           0
   97140 WT6  2848 TIP3 H2   HT     0.417000        1.0080           0
   97141 WT6  2853 TIP3 OH2  OT    -0.834000       15.9994           0
   97142 WT6  2853 TIP3 H1   HT     0.417000        1.0080           0
   97143 WT6  2853 TIP3 H2   HT     0.417000        1.0080           0
   97144 WT6  2857 TIP3 OH2  OT    -0.834000       15.9994           0
   97145 WT6  2857 TIP3 H1   HT     0.417000        1.0080           0
   97146 WT6  2857 TIP3 H2   HT     0.417000        1.0080           0
   97147 WT6  2858 TIP3 OH2  OT    -0.834000       15.9994           0
   97148 WT6  2858 TIP3 H1   HT     0.417000        1.0080           0
   97149 WT6  2858 TIP3 H2   HT     0.417000        1.0080           0
   97150 WT6  2859 TIP3 OH2  OT    -0.834000       15.9994           0
   97151 WT6  2859 TIP3 H1   HT     0.417000        1.0080           0
   97152 WT6  2859 TIP3 H2   HT     0.417000        1.0080           0
   97153 WT6  2860 TIP3 OH2  OT    -0.834000       15.9994           0
   97154 WT6  2860 TIP3 H1   HT     0.417000        1.0080           0
   97155 WT6  2860 TIP3 H2   HT     0.417000        1.0080           0
   97156 WT6  2861 TIP3 OH2  OT    -0.834000       15.9994           0
   97157 WT6  2861 TIP3 H1   HT     0.417000        1.0080           0
   97158 WT6  2861 TIP3 H2   HT     0.417000        1.0080           0
   97159 WT6  2862 TIP3 OH2  OT    -0.834000       15.9994           0
   97160 WT6  2862 TIP3 H1   HT     0.417000        1.0080           0
   97161 WT6  2862 TIP3 H2   HT     0.417000        1.0080           0
   97162 WT6  2863 TIP3 OH2  OT    -0.834000       15.9994           0
   97163 WT6  2863 TIP3 H1   HT     0.417000        1.0080           0
   97164 WT6  2863 TIP3 H2   HT     0.417000        1.0080           0
   97165 WT6  2864 TIP3 OH2  OT    -0.834000       15.9994           0
   97166 WT6  2864 TIP3 H1   HT     0.417000        1.0080           0
   97167 WT6  2864 TIP3 H2   HT     0.417000        1.0080           0
   97168 WT6  2865 TIP3 OH2  OT    -0.834000       15.9994           0
   97169 WT6  2865 TIP3 H1   HT     0.417000        1.0080           0
   97170 WT6  2865 TIP3 H2   HT     0.417000        1.0080           0
   97171 WT6  2866 TIP3 OH2  OT    -0.834000       15.9994           0
   97172 WT6  2866 TIP3 H1   HT     0.417000        1.0080           0
   97173 WT6  2866 TIP3 H2   HT     0.417000        1.0080           0
   97174 WT6  2867 TIP3 OH2  OT    -0.834000       15.9994           0
   97175 WT6  2867 TIP3 H1   HT     0.417000        1.0080           0
   97176 WT6  2867 TIP3 H2   HT     0.417000        1.0080           0
   97177 WT6  2877 TIP3 OH2  OT    -0.834000       15.9994           0
   97178 WT6  2877 TIP3 H1   HT     0.417000        1.0080           0
   97179 WT6  2877 TIP3 H2   HT     0.417000        1.0080           0
   97180 WT6  2878 TIP3 OH2  OT    -0.834000       15.9994           0
   97181 WT6  2878 TIP3 H1   HT     0.417000        1.0080           0
   97182 WT6  2878 TIP3 H2   HT     0.417000        1.0080           0
   97183 WT6  2880 TIP3 OH2  OT    -0.834000       15.9994           0
   97184 WT6  2880 TIP3 H1   HT     0.417000        1.0080           0
   97185 WT6  2880 TIP3 H2   HT     0.417000        1.0080           0
   97186 WT6  2882 TIP3 OH2  OT    -0.834000       15.9994           0
   97187 WT6  2882 TIP3 H1   HT     0.417000        1.0080           0
   97188 WT6  2882 TIP3 H2   HT     0.417000        1.0080           0
   97189 WT6  2883 TIP3 OH2  OT    -0.834000       15.9994           0
   97190 WT6  2883 TIP3 H1   HT     0.417000        1.0080           0
   97191 WT6  2883 TIP3 H2   HT     0.417000        1.0080           0
   97192 WT6  2884 TIP3 OH2  OT    -0.834000       15.9994           0
   97193 WT6  2884 TIP3 H1   HT     0.417000        1.0080           0
   97194 WT6  2884 TIP3 H2   HT     0.417000        1.0080           0
   97195 WT6  2885 TIP3 OH2  OT    -0.834000       15.9994           0
   97196 WT6  2885 TIP3 H1   HT     0.417000        1.0080           0
   97197 WT6  2885 TIP3 H2   HT     0.417000        1.0080           0
   97198 WT6  2886 TIP3 OH2  OT    -0.834000       15.9994           0
   97199 WT6  2886 TIP3 H1   HT     0.417000        1.0080           0
   97200 WT6  2886 TIP3 H2   HT     0.417000        1.0080           0
   97201 WT6  2887 TIP3 OH2  OT    -0.834000       15.9994           0
   97202 WT6  2887 TIP3 H1   HT     0.417000        1.0080           0
   97203 WT6  2887 TIP3 H2   HT     0.417000        1.0080           0
   97204 WT6  2888 TIP3 OH2  OT    -0.834000       15.9994           0
   97205 WT6  2888 TIP3 H1   HT     0.417000        1.0080           0
   97206 WT6  2888 TIP3 H2   HT     0.417000        1.0080           0
   97207 WT6  2890 TIP3 OH2  OT    -0.834000       15.9994           0
   97208 WT6  2890 TIP3 H1   HT     0.417000        1.0080           0
   97209 WT6  2890 TIP3 H2   HT     0.417000        1.0080           0
   97210 WT6  2891 TIP3 OH2  OT    -0.834000       15.9994           0
   97211 WT6  2891 TIP3 H1   HT     0.417000        1.0080           0
   97212 WT6  2891 TIP3 H2   HT     0.417000        1.0080           0
   97213 WT6  2893 TIP3 OH2  OT    -0.834000       15.9994           0
   97214 WT6  2893 TIP3 H1   HT     0.417000        1.0080           0
   97215 WT6  2893 TIP3 H2   HT     0.417000        1.0080           0
   97216 WT6  2899 TIP3 OH2  OT    -0.834000       15.9994           0
   97217 WT6  2899 TIP3 H1   HT     0.417000        1.0080           0
   97218 WT6  2899 TIP3 H2   HT     0.417000        1.0080           0
   97219 WT6  2900 TIP3 OH2  OT    -0.834000       15.9994           0
   97220 WT6  2900 TIP3 H1   HT     0.417000        1.0080           0
   97221 WT6  2900 TIP3 H2   HT     0.417000        1.0080           0
   97222 WT6  2901 TIP3 OH2  OT    -0.834000       15.9994           0
   97223 WT6  2901 TIP3 H1   HT     0.417000        1.0080           0
   97224 WT6  2901 TIP3 H2   HT     0.417000        1.0080           0
   97225 WT6  2902 TIP3 OH2  OT    -0.834000       15.9994           0
   97226 WT6  2902 TIP3 H1   HT     0.417000        1.0080           0
   97227 WT6  2902 TIP3 H2   HT     0.417000        1.0080           0
   97228 WT6  2903 TIP3 OH2  OT    -0.834000       15.9994           0
   97229 WT6  2903 TIP3 H1   HT     0.417000        1.0080           0
   97230 WT6  2903 TIP3 H2   HT     0.417000        1.0080           0
   97231 WT6  2904 TIP3 OH2  OT    -0.834000       15.9994           0
   97232 WT6  2904 TIP3 H1   HT     0.417000        1.0080           0
   97233 WT6  2904 TIP3 H2   HT     0.417000        1.0080           0
   97234 WT6  2905 TIP3 OH2  OT    -0.834000       15.9994           0
   97235 WT6  2905 TIP3 H1   HT     0.417000        1.0080           0
   97236 WT6  2905 TIP3 H2   HT     0.417000        1.0080           0
   97237 WT6  2906 TIP3 OH2  OT    -0.834000       15.9994           0
   97238 WT6  2906 TIP3 H1   HT     0.417000        1.0080           0
   97239 WT6  2906 TIP3 H2   HT     0.417000        1.0080           0
   97240 WT6  2907 TIP3 OH2  OT    -0.834000       15.9994           0
   97241 WT6  2907 TIP3 H1   HT     0.417000        1.0080           0
   97242 WT6  2907 TIP3 H2   HT     0.417000        1.0080           0
   97243 WT6  2908 TIP3 OH2  OT    -0.834000       15.9994           0
   97244 WT6  2908 TIP3 H1   HT     0.417000        1.0080           0
   97245 WT6  2908 TIP3 H2   HT     0.417000        1.0080           0
   97246 WT6  2909 TIP3 OH2  OT    -0.834000       15.9994           0
   97247 WT6  2909 TIP3 H1   HT     0.417000        1.0080           0
   97248 WT6  2909 TIP3 H2   HT     0.417000        1.0080           0
   97249 WT6  2911 TIP3 OH2  OT    -0.834000       15.9994           0
   97250 WT6  2911 TIP3 H1   HT     0.417000        1.0080           0
   97251 WT6  2911 TIP3 H2   HT     0.417000        1.0080           0
   97252 WT6  2913 TIP3 OH2  OT    -0.834000       15.9994           0
   97253 WT6  2913 TIP3 H1   HT     0.417000        1.0080           0
   97254 WT6  2913 TIP3 H2   HT     0.417000        1.0080           0
   97255 WT6  2915 TIP3 OH2  OT    -0.834000       15.9994           0
   97256 WT6  2915 TIP3 H1   HT     0.417000        1.0080           0
   97257 WT6  2915 TIP3 H2   HT     0.417000        1.0080           0
   97258 WT6  2918 TIP3 OH2  OT    -0.834000       15.9994           0
   97259 WT6  2918 TIP3 H1   HT     0.417000        1.0080           0
   97260 WT6  2918 TIP3 H2   HT     0.417000        1.0080           0
   97261 WT6  2919 TIP3 OH2  OT    -0.834000       15.9994           0
   97262 WT6  2919 TIP3 H1   HT     0.417000        1.0080           0
   97263 WT6  2919 TIP3 H2   HT     0.417000        1.0080           0
   97264 WT6  2920 TIP3 OH2  OT    -0.834000       15.9994           0
   97265 WT6  2920 TIP3 H1   HT     0.417000        1.0080           0
   97266 WT6  2920 TIP3 H2   HT     0.417000        1.0080           0
   97267 WT6  2922 TIP3 OH2  OT    -0.834000       15.9994           0
   97268 WT6  2922 TIP3 H1   HT     0.417000        1.0080           0
   97269 WT6  2922 TIP3 H2   HT     0.417000        1.0080           0
   97270 WT6  2923 TIP3 OH2  OT    -0.834000       15.9994           0
   97271 WT6  2923 TIP3 H1   HT     0.417000        1.0080           0
   97272 WT6  2923 TIP3 H2   HT     0.417000        1.0080           0
   97273 WT6  2924 TIP3 OH2  OT    -0.834000       15.9994           0
   97274 WT6  2924 TIP3 H1   HT     0.417000        1.0080           0
   97275 WT6  2924 TIP3 H2   HT     0.417000        1.0080           0
   97276 WT6  2925 TIP3 OH2  OT    -0.834000       15.9994           0
   97277 WT6  2925 TIP3 H1   HT     0.417000        1.0080           0
   97278 WT6  2925 TIP3 H2   HT     0.417000        1.0080           0
   97279 WT6  2926 TIP3 OH2  OT    -0.834000       15.9994           0
   97280 WT6  2926 TIP3 H1   HT     0.417000        1.0080           0
   97281 WT6  2926 TIP3 H2   HT     0.417000        1.0080           0
   97282 WT6  2927 TIP3 OH2  OT    -0.834000       15.9994           0
   97283 WT6  2927 TIP3 H1   HT     0.417000        1.0080           0
   97284 WT6  2927 TIP3 H2   HT     0.417000        1.0080           0
   97285 WT6  2928 TIP3 OH2  OT    -0.834000       15.9994           0
   97286 WT6  2928 TIP3 H1   HT     0.417000        1.0080           0
   97287 WT6  2928 TIP3 H2   HT     0.417000        1.0080           0
   97288 WT6  2929 TIP3 OH2  OT    -0.834000       15.9994           0
   97289 WT6  2929 TIP3 H1   HT     0.417000        1.0080           0
   97290 WT6  2929 TIP3 H2   HT     0.417000        1.0080           0
   97291 WT6  2930 TIP3 OH2  OT    -0.834000       15.9994           0
   97292 WT6  2930 TIP3 H1   HT     0.417000        1.0080           0
   97293 WT6  2930 TIP3 H2   HT     0.417000        1.0080           0
   97294 WT6  2931 TIP3 OH2  OT    -0.834000       15.9994           0
   97295 WT6  2931 TIP3 H1   HT     0.417000        1.0080           0
   97296 WT6  2931 TIP3 H2   HT     0.417000        1.0080           0
   97297 WT6  2932 TIP3 OH2  OT    -0.834000       15.9994           0
   97298 WT6  2932 TIP3 H1   HT     0.417000        1.0080           0
   97299 WT6  2932 TIP3 H2   HT     0.417000        1.0080           0
   97300 WT6  2933 TIP3 OH2  OT    -0.834000       15.9994           0
   97301 WT6  2933 TIP3 H1   HT     0.417000        1.0080           0
   97302 WT6  2933 TIP3 H2   HT     0.417000        1.0080           0
   97303 WT6  2934 TIP3 OH2  OT    -0.834000       15.9994           0
   97304 WT6  2934 TIP3 H1   HT     0.417000        1.0080           0
   97305 WT6  2934 TIP3 H2   HT     0.417000        1.0080           0
   97306 WT6  2938 TIP3 OH2  OT    -0.834000       15.9994           0
   97307 WT6  2938 TIP3 H1   HT     0.417000        1.0080           0
   97308 WT6  2938 TIP3 H2   HT     0.417000        1.0080           0
   97309 WT6  2941 TIP3 OH2  OT    -0.834000       15.9994           0
   97310 WT6  2941 TIP3 H1   HT     0.417000        1.0080           0
   97311 WT6  2941 TIP3 H2   HT     0.417000        1.0080           0
   97312 WT6  2942 TIP3 OH2  OT    -0.834000       15.9994           0
   97313 WT6  2942 TIP3 H1   HT     0.417000        1.0080           0
   97314 WT6  2942 TIP3 H2   HT     0.417000        1.0080           0
   97315 WT6  2943 TIP3 OH2  OT    -0.834000       15.9994           0
   97316 WT6  2943 TIP3 H1   HT     0.417000        1.0080           0
   97317 WT6  2943 TIP3 H2   HT     0.417000        1.0080           0
   97318 WT6  2944 TIP3 OH2  OT    -0.834000       15.9994           0
   97319 WT6  2944 TIP3 H1   HT     0.417000        1.0080           0
   97320 WT6  2944 TIP3 H2   HT     0.417000        1.0080           0
   97321 WT6  2945 TIP3 OH2  OT    -0.834000       15.9994           0
   97322 WT6  2945 TIP3 H1   HT     0.417000        1.0080           0
   97323 WT6  2945 TIP3 H2   HT     0.417000        1.0080           0
   97324 WT6  2946 TIP3 OH2  OT    -0.834000       15.9994           0
   97325 WT6  2946 TIP3 H1   HT     0.417000        1.0080           0
   97326 WT6  2946 TIP3 H2   HT     0.417000        1.0080           0
   97327 WT6  2947 TIP3 OH2  OT    -0.834000       15.9994           0
   97328 WT6  2947 TIP3 H1   HT     0.417000        1.0080           0
   97329 WT6  2947 TIP3 H2   HT     0.417000        1.0080           0
   97330 WT6  2948 TIP3 OH2  OT    -0.834000       15.9994           0
   97331 WT6  2948 TIP3 H1   HT     0.417000        1.0080           0
   97332 WT6  2948 TIP3 H2   HT     0.417000        1.0080           0
   97333 WT6  2949 TIP3 OH2  OT    -0.834000       15.9994           0
   97334 WT6  2949 TIP3 H1   HT     0.417000        1.0080           0
   97335 WT6  2949 TIP3 H2   HT     0.417000        1.0080           0
   97336 WT6  2952 TIP3 OH2  OT    -0.834000       15.9994           0
   97337 WT6  2952 TIP3 H1   HT     0.417000        1.0080           0
   97338 WT6  2952 TIP3 H2   HT     0.417000        1.0080           0
   97339 WT6  2953 TIP3 OH2  OT    -0.834000       15.9994           0
   97340 WT6  2953 TIP3 H1   HT     0.417000        1.0080           0
   97341 WT6  2953 TIP3 H2   HT     0.417000        1.0080           0
   97342 WT6  2955 TIP3 OH2  OT    -0.834000       15.9994           0
   97343 WT6  2955 TIP3 H1   HT     0.417000        1.0080           0
   97344 WT6  2955 TIP3 H2   HT     0.417000        1.0080           0
   97345 WT6  2960 TIP3 OH2  OT    -0.834000       15.9994           0
   97346 WT6  2960 TIP3 H1   HT     0.417000        1.0080           0
   97347 WT6  2960 TIP3 H2   HT     0.417000        1.0080           0
   97348 WT6  2961 TIP3 OH2  OT    -0.834000       15.9994           0
   97349 WT6  2961 TIP3 H1   HT     0.417000        1.0080           0
   97350 WT6  2961 TIP3 H2   HT     0.417000        1.0080           0
   97351 WT6  2963 TIP3 OH2  OT    -0.834000       15.9994           0
   97352 WT6  2963 TIP3 H1   HT     0.417000        1.0080           0
   97353 WT6  2963 TIP3 H2   HT     0.417000        1.0080           0
   97354 WT6  2964 TIP3 OH2  OT    -0.834000       15.9994           0
   97355 WT6  2964 TIP3 H1   HT     0.417000        1.0080           0
   97356 WT6  2964 TIP3 H2   HT     0.417000        1.0080           0
   97357 WT6  2965 TIP3 OH2  OT    -0.834000       15.9994           0
   97358 WT6  2965 TIP3 H1   HT     0.417000        1.0080           0
   97359 WT6  2965 TIP3 H2   HT     0.417000        1.0080           0
   97360 WT6  2966 TIP3 OH2  OT    -0.834000       15.9994           0
   97361 WT6  2966 TIP3 H1   HT     0.417000        1.0080           0
   97362 WT6  2966 TIP3 H2   HT     0.417000        1.0080           0
   97363 WT6  2967 TIP3 OH2  OT    -0.834000       15.9994           0
   97364 WT6  2967 TIP3 H1   HT     0.417000        1.0080           0
   97365 WT6  2967 TIP3 H2   HT     0.417000        1.0080           0
   97366 WT6  2968 TIP3 OH2  OT    -0.834000       15.9994           0
   97367 WT6  2968 TIP3 H1   HT     0.417000        1.0080           0
   97368 WT6  2968 TIP3 H2   HT     0.417000        1.0080           0
   97369 WT6  2969 TIP3 OH2  OT    -0.834000       15.9994           0
   97370 WT6  2969 TIP3 H1   HT     0.417000        1.0080           0
   97371 WT6  2969 TIP3 H2   HT     0.417000        1.0080           0
   97372 WT6  2970 TIP3 OH2  OT    -0.834000       15.9994           0
   97373 WT6  2970 TIP3 H1   HT     0.417000        1.0080           0
   97374 WT6  2970 TIP3 H2   HT     0.417000        1.0080           0
   97375 WT6  2972 TIP3 OH2  OT    -0.834000       15.9994           0
   97376 WT6  2972 TIP3 H1   HT     0.417000        1.0080           0
   97377 WT6  2972 TIP3 H2   HT     0.417000        1.0080           0
   97378 WT6  2975 TIP3 OH2  OT    -0.834000       15.9994           0
   97379 WT6  2975 TIP3 H1   HT     0.417000        1.0080           0
   97380 WT6  2975 TIP3 H2   HT     0.417000        1.0080           0
   97381 WT6  2978 TIP3 OH2  OT    -0.834000       15.9994           0
   97382 WT6  2978 TIP3 H1   HT     0.417000        1.0080           0
   97383 WT6  2978 TIP3 H2   HT     0.417000        1.0080           0
   97384 WT6  2979 TIP3 OH2  OT    -0.834000       15.9994           0
   97385 WT6  2979 TIP3 H1   HT     0.417000        1.0080           0
   97386 WT6  2979 TIP3 H2   HT     0.417000        1.0080           0
   97387 WT6  2981 TIP3 OH2  OT    -0.834000       15.9994           0
   97388 WT6  2981 TIP3 H1   HT     0.417000        1.0080           0
   97389 WT6  2981 TIP3 H2   HT     0.417000        1.0080           0
   97390 WT6  2983 TIP3 OH2  OT    -0.834000       15.9994           0
   97391 WT6  2983 TIP3 H1   HT     0.417000        1.0080           0
   97392 WT6  2983 TIP3 H2   HT     0.417000        1.0080           0
   97393 WT6  2984 TIP3 OH2  OT    -0.834000       15.9994           0
   97394 WT6  2984 TIP3 H1   HT     0.417000        1.0080           0
   97395 WT6  2984 TIP3 H2   HT     0.417000        1.0080           0
   97396 WT6  2986 TIP3 OH2  OT    -0.834000       15.9994           0
   97397 WT6  2986 TIP3 H1   HT     0.417000        1.0080           0
   97398 WT6  2986 TIP3 H2   HT     0.417000        1.0080           0
   97399 WT6  2987 TIP3 OH2  OT    -0.834000       15.9994           0
   97400 WT6  2987 TIP3 H1   HT     0.417000        1.0080           0
   97401 WT6  2987 TIP3 H2   HT     0.417000        1.0080           0
   97402 WT6  2988 TIP3 OH2  OT    -0.834000       15.9994           0
   97403 WT6  2988 TIP3 H1   HT     0.417000        1.0080           0
   97404 WT6  2988 TIP3 H2   HT     0.417000        1.0080           0
   97405 WT6  2989 TIP3 OH2  OT    -0.834000       15.9994           0
   97406 WT6  2989 TIP3 H1   HT     0.417000        1.0080           0
   97407 WT6  2989 TIP3 H2   HT     0.417000        1.0080           0
   97408 WT6  2990 TIP3 OH2  OT    -0.834000       15.9994           0
   97409 WT6  2990 TIP3 H1   HT     0.417000        1.0080           0
   97410 WT6  2990 TIP3 H2   HT     0.417000        1.0080           0
   97411 WT6  2991 TIP3 OH2  OT    -0.834000       15.9994           0
   97412 WT6  2991 TIP3 H1   HT     0.417000        1.0080           0
   97413 WT6  2991 TIP3 H2   HT     0.417000        1.0080           0
   97414 WT6  2992 TIP3 OH2  OT    -0.834000       15.9994           0
   97415 WT6  2992 TIP3 H1   HT     0.417000        1.0080           0
   97416 WT6  2992 TIP3 H2   HT     0.417000        1.0080           0
   97417 WT6  2993 TIP3 OH2  OT    -0.834000       15.9994           0
   97418 WT6  2993 TIP3 H1   HT     0.417000        1.0080           0
   97419 WT6  2993 TIP3 H2   HT     0.417000        1.0080           0
   97420 WT6  2994 TIP3 OH2  OT    -0.834000       15.9994           0
   97421 WT6  2994 TIP3 H1   HT     0.417000        1.0080           0
   97422 WT6  2994 TIP3 H2   HT     0.417000        1.0080           0
   97423 WT6  2996 TIP3 OH2  OT    -0.834000       15.9994           0
   97424 WT6  2996 TIP3 H1   HT     0.417000        1.0080           0
   97425 WT6  2996 TIP3 H2   HT     0.417000        1.0080           0
   97426 WT6  3002 TIP3 OH2  OT    -0.834000       15.9994           0
   97427 WT6  3002 TIP3 H1   HT     0.417000        1.0080           0
   97428 WT6  3002 TIP3 H2   HT     0.417000        1.0080           0
   97429 WT6  3006 TIP3 OH2  OT    -0.834000       15.9994           0
   97430 WT6  3006 TIP3 H1   HT     0.417000        1.0080           0
   97431 WT6  3006 TIP3 H2   HT     0.417000        1.0080           0
   97432 WT6  3007 TIP3 OH2  OT    -0.834000       15.9994           0
   97433 WT6  3007 TIP3 H1   HT     0.417000        1.0080           0
   97434 WT6  3007 TIP3 H2   HT     0.417000        1.0080           0
   97435 WT6  3008 TIP3 OH2  OT    -0.834000       15.9994           0
   97436 WT6  3008 TIP3 H1   HT     0.417000        1.0080           0
   97437 WT6  3008 TIP3 H2   HT     0.417000        1.0080           0
   97438 WT6  3009 TIP3 OH2  OT    -0.834000       15.9994           0
   97439 WT6  3009 TIP3 H1   HT     0.417000        1.0080           0
   97440 WT6  3009 TIP3 H2   HT     0.417000        1.0080           0
   97441 WT6  3010 TIP3 OH2  OT    -0.834000       15.9994           0
   97442 WT6  3010 TIP3 H1   HT     0.417000        1.0080           0
   97443 WT6  3010 TIP3 H2   HT     0.417000        1.0080           0
   97444 WT6  3011 TIP3 OH2  OT    -0.834000       15.9994           0
   97445 WT6  3011 TIP3 H1   HT     0.417000        1.0080           0
   97446 WT6  3011 TIP3 H2   HT     0.417000        1.0080           0
   97447 WT6  3012 TIP3 OH2  OT    -0.834000       15.9994           0
   97448 WT6  3012 TIP3 H1   HT     0.417000        1.0080           0
   97449 WT6  3012 TIP3 H2   HT     0.417000        1.0080           0
   97450 WT6  3013 TIP3 OH2  OT    -0.834000       15.9994           0
   97451 WT6  3013 TIP3 H1   HT     0.417000        1.0080           0
   97452 WT6  3013 TIP3 H2   HT     0.417000        1.0080           0
   97453 WT6  3015 TIP3 OH2  OT    -0.834000       15.9994           0
   97454 WT6  3015 TIP3 H1   HT     0.417000        1.0080           0
   97455 WT6  3015 TIP3 H2   HT     0.417000        1.0080           0
   97456 WT6  3016 TIP3 OH2  OT    -0.834000       15.9994           0
   97457 WT6  3016 TIP3 H1   HT     0.417000        1.0080           0
   97458 WT6  3016 TIP3 H2   HT     0.417000        1.0080           0
   97459 WT6  3017 TIP3 OH2  OT    -0.834000       15.9994           0
   97460 WT6  3017 TIP3 H1   HT     0.417000        1.0080           0
   97461 WT6  3017 TIP3 H2   HT     0.417000        1.0080           0
   97462 WT6  3018 TIP3 OH2  OT    -0.834000       15.9994           0
   97463 WT6  3018 TIP3 H1   HT     0.417000        1.0080           0
   97464 WT6  3018 TIP3 H2   HT     0.417000        1.0080           0
   97465 WT6  3019 TIP3 OH2  OT    -0.834000       15.9994           0
   97466 WT6  3019 TIP3 H1   HT     0.417000        1.0080           0
   97467 WT6  3019 TIP3 H2   HT     0.417000        1.0080           0
   97468 WT6  3022 TIP3 OH2  OT    -0.834000       15.9994           0
   97469 WT6  3022 TIP3 H1   HT     0.417000        1.0080           0
   97470 WT6  3022 TIP3 H2   HT     0.417000        1.0080           0
   97471 WT6  3027 TIP3 OH2  OT    -0.834000       15.9994           0
   97472 WT6  3027 TIP3 H1   HT     0.417000        1.0080           0
   97473 WT6  3027 TIP3 H2   HT     0.417000        1.0080           0
   97474 WT6  3028 TIP3 OH2  OT    -0.834000       15.9994           0
   97475 WT6  3028 TIP3 H1   HT     0.417000        1.0080           0
   97476 WT6  3028 TIP3 H2   HT     0.417000        1.0080           0
   97477 WT6  3029 TIP3 OH2  OT    -0.834000       15.9994           0
   97478 WT6  3029 TIP3 H1   HT     0.417000        1.0080           0
   97479 WT6  3029 TIP3 H2   HT     0.417000        1.0080           0
   97480 WT6  3030 TIP3 OH2  OT    -0.834000       15.9994           0
   97481 WT6  3030 TIP3 H1   HT     0.417000        1.0080           0
   97482 WT6  3030 TIP3 H2   HT     0.417000        1.0080           0
   97483 WT6  3031 TIP3 OH2  OT    -0.834000       15.9994           0
   97484 WT6  3031 TIP3 H1   HT     0.417000        1.0080           0
   97485 WT6  3031 TIP3 H2   HT     0.417000        1.0080           0
   97486 WT6  3032 TIP3 OH2  OT    -0.834000       15.9994           0
   97487 WT6  3032 TIP3 H1   HT     0.417000        1.0080           0
   97488 WT6  3032 TIP3 H2   HT     0.417000        1.0080           0
   97489 WT6  3033 TIP3 OH2  OT    -0.834000       15.9994           0
   97490 WT6  3033 TIP3 H1   HT     0.417000        1.0080           0
   97491 WT6  3033 TIP3 H2   HT     0.417000        1.0080           0
   97492 WT6  3034 TIP3 OH2  OT    -0.834000       15.9994           0
   97493 WT6  3034 TIP3 H1   HT     0.417000        1.0080           0
   97494 WT6  3034 TIP3 H2   HT     0.417000        1.0080           0
   97495 WT6  3035 TIP3 OH2  OT    -0.834000       15.9994           0
   97496 WT6  3035 TIP3 H1   HT     0.417000        1.0080           0
   97497 WT6  3035 TIP3 H2   HT     0.417000        1.0080           0
   97498 WT6  3037 TIP3 OH2  OT    -0.834000       15.9994           0
   97499 WT6  3037 TIP3 H1   HT     0.417000        1.0080           0
   97500 WT6  3037 TIP3 H2   HT     0.417000        1.0080           0
   97501 WT6  3039 TIP3 OH2  OT    -0.834000       15.9994           0
   97502 WT6  3039 TIP3 H1   HT     0.417000        1.0080           0
   97503 WT6  3039 TIP3 H2   HT     0.417000        1.0080           0
   97504 WT6  3040 TIP3 OH2  OT    -0.834000       15.9994           0
   97505 WT6  3040 TIP3 H1   HT     0.417000        1.0080           0
   97506 WT6  3040 TIP3 H2   HT     0.417000        1.0080           0
   97507 WT6  3046 TIP3 OH2  OT    -0.834000       15.9994           0
   97508 WT6  3046 TIP3 H1   HT     0.417000        1.0080           0
   97509 WT6  3046 TIP3 H2   HT     0.417000        1.0080           0
   97510 WT6  3048 TIP3 OH2  OT    -0.834000       15.9994           0
   97511 WT6  3048 TIP3 H1   HT     0.417000        1.0080           0
   97512 WT6  3048 TIP3 H2   HT     0.417000        1.0080           0
   97513 WT6  3049 TIP3 OH2  OT    -0.834000       15.9994           0
   97514 WT6  3049 TIP3 H1   HT     0.417000        1.0080           0
   97515 WT6  3049 TIP3 H2   HT     0.417000        1.0080           0
   97516 WT6  3050 TIP3 OH2  OT    -0.834000       15.9994           0
   97517 WT6  3050 TIP3 H1   HT     0.417000        1.0080           0
   97518 WT6  3050 TIP3 H2   HT     0.417000        1.0080           0
   97519 WT6  3051 TIP3 OH2  OT    -0.834000       15.9994           0
   97520 WT6  3051 TIP3 H1   HT     0.417000        1.0080           0
   97521 WT6  3051 TIP3 H2   HT     0.417000        1.0080           0
   97522 WT6  3052 TIP3 OH2  OT    -0.834000       15.9994           0
   97523 WT6  3052 TIP3 H1   HT     0.417000        1.0080           0
   97524 WT6  3052 TIP3 H2   HT     0.417000        1.0080           0
   97525 WT6  3053 TIP3 OH2  OT    -0.834000       15.9994           0
   97526 WT6  3053 TIP3 H1   HT     0.417000        1.0080           0
   97527 WT6  3053 TIP3 H2   HT     0.417000        1.0080           0
   97528 WT6  3054 TIP3 OH2  OT    -0.834000       15.9994           0
   97529 WT6  3054 TIP3 H1   HT     0.417000        1.0080           0
   97530 WT6  3054 TIP3 H2   HT     0.417000        1.0080           0
   97531 WT6  3055 TIP3 OH2  OT    -0.834000       15.9994           0
   97532 WT6  3055 TIP3 H1   HT     0.417000        1.0080           0
   97533 WT6  3055 TIP3 H2   HT     0.417000        1.0080           0
   97534 WT6  3056 TIP3 OH2  OT    -0.834000       15.9994           0
   97535 WT6  3056 TIP3 H1   HT     0.417000        1.0080           0
   97536 WT6  3056 TIP3 H2   HT     0.417000        1.0080           0
   97537 WT6  3057 TIP3 OH2  OT    -0.834000       15.9994           0
   97538 WT6  3057 TIP3 H1   HT     0.417000        1.0080           0
   97539 WT6  3057 TIP3 H2   HT     0.417000        1.0080           0
   97540 WT6  3067 TIP3 OH2  OT    -0.834000       15.9994           0
   97541 WT6  3067 TIP3 H1   HT     0.417000        1.0080           0
   97542 WT6  3067 TIP3 H2   HT     0.417000        1.0080           0
   97543 WT6  3069 TIP3 OH2  OT    -0.834000       15.9994           0
   97544 WT6  3069 TIP3 H1   HT     0.417000        1.0080           0
   97545 WT6  3069 TIP3 H2   HT     0.417000        1.0080           0
   97546 WT6  3070 TIP3 OH2  OT    -0.834000       15.9994           0
   97547 WT6  3070 TIP3 H1   HT     0.417000        1.0080           0
   97548 WT6  3070 TIP3 H2   HT     0.417000        1.0080           0
   97549 WT6  3071 TIP3 OH2  OT    -0.834000       15.9994           0
   97550 WT6  3071 TIP3 H1   HT     0.417000        1.0080           0
   97551 WT6  3071 TIP3 H2   HT     0.417000        1.0080           0
   97552 WT6  3072 TIP3 OH2  OT    -0.834000       15.9994           0
   97553 WT6  3072 TIP3 H1   HT     0.417000        1.0080           0
   97554 WT6  3072 TIP3 H2   HT     0.417000        1.0080           0
   97555 WT6  3073 TIP3 OH2  OT    -0.834000       15.9994           0
   97556 WT6  3073 TIP3 H1   HT     0.417000        1.0080           0
   97557 WT6  3073 TIP3 H2   HT     0.417000        1.0080           0
   97558 WT6  3074 TIP3 OH2  OT    -0.834000       15.9994           0
   97559 WT6  3074 TIP3 H1   HT     0.417000        1.0080           0
   97560 WT6  3074 TIP3 H2   HT     0.417000        1.0080           0
   97561 WT6  3075 TIP3 OH2  OT    -0.834000       15.9994           0
   97562 WT6  3075 TIP3 H1   HT     0.417000        1.0080           0
   97563 WT6  3075 TIP3 H2   HT     0.417000        1.0080           0
   97564 WT6  3076 TIP3 OH2  OT    -0.834000       15.9994           0
   97565 WT6  3076 TIP3 H1   HT     0.417000        1.0080           0
   97566 WT6  3076 TIP3 H2   HT     0.417000        1.0080           0
   97567 WT6  3078 TIP3 OH2  OT    -0.834000       15.9994           0
   97568 WT6  3078 TIP3 H1   HT     0.417000        1.0080           0
   97569 WT6  3078 TIP3 H2   HT     0.417000        1.0080           0
   97570 WT6  3079 TIP3 OH2  OT    -0.834000       15.9994           0
   97571 WT6  3079 TIP3 H1   HT     0.417000        1.0080           0
   97572 WT6  3079 TIP3 H2   HT     0.417000        1.0080           0
   97573 WT6  3080 TIP3 OH2  OT    -0.834000       15.9994           0
   97574 WT6  3080 TIP3 H1   HT     0.417000        1.0080           0
   97575 WT6  3080 TIP3 H2   HT     0.417000        1.0080           0
   97576 WT6  3081 TIP3 OH2  OT    -0.834000       15.9994           0
   97577 WT6  3081 TIP3 H1   HT     0.417000        1.0080           0
   97578 WT6  3081 TIP3 H2   HT     0.417000        1.0080           0
   97579 WT6  3085 TIP3 OH2  OT    -0.834000       15.9994           0
   97580 WT6  3085 TIP3 H1   HT     0.417000        1.0080           0
   97581 WT6  3085 TIP3 H2   HT     0.417000        1.0080           0
   97582 WT6  3086 TIP3 OH2  OT    -0.834000       15.9994           0
   97583 WT6  3086 TIP3 H1   HT     0.417000        1.0080           0
   97584 WT6  3086 TIP3 H2   HT     0.417000        1.0080           0
   97585 WT6  3087 TIP3 OH2  OT    -0.834000       15.9994           0
   97586 WT6  3087 TIP3 H1   HT     0.417000        1.0080           0
   97587 WT6  3087 TIP3 H2   HT     0.417000        1.0080           0
   97588 WT6  3088 TIP3 OH2  OT    -0.834000       15.9994           0
   97589 WT6  3088 TIP3 H1   HT     0.417000        1.0080           0
   97590 WT6  3088 TIP3 H2   HT     0.417000        1.0080           0
   97591 WT6  3091 TIP3 OH2  OT    -0.834000       15.9994           0
   97592 WT6  3091 TIP3 H1   HT     0.417000        1.0080           0
   97593 WT6  3091 TIP3 H2   HT     0.417000        1.0080           0
   97594 WT6  3092 TIP3 OH2  OT    -0.834000       15.9994           0
   97595 WT6  3092 TIP3 H1   HT     0.417000        1.0080           0
   97596 WT6  3092 TIP3 H2   HT     0.417000        1.0080           0
   97597 WT6  3093 TIP3 OH2  OT    -0.834000       15.9994           0
   97598 WT6  3093 TIP3 H1   HT     0.417000        1.0080           0
   97599 WT6  3093 TIP3 H2   HT     0.417000        1.0080           0
   97600 WT6  3094 TIP3 OH2  OT    -0.834000       15.9994           0
   97601 WT6  3094 TIP3 H1   HT     0.417000        1.0080           0
   97602 WT6  3094 TIP3 H2   HT     0.417000        1.0080           0
   97603 WT6  3095 TIP3 OH2  OT    -0.834000       15.9994           0
   97604 WT6  3095 TIP3 H1   HT     0.417000        1.0080           0
   97605 WT6  3095 TIP3 H2   HT     0.417000        1.0080           0
   97606 WT6  3096 TIP3 OH2  OT    -0.834000       15.9994           0
   97607 WT6  3096 TIP3 H1   HT     0.417000        1.0080           0
   97608 WT6  3096 TIP3 H2   HT     0.417000        1.0080           0
   97609 WT6  3097 TIP3 OH2  OT    -0.834000       15.9994           0
   97610 WT6  3097 TIP3 H1   HT     0.417000        1.0080           0
   97611 WT6  3097 TIP3 H2   HT     0.417000        1.0080           0
   97612 WT6  3098 TIP3 OH2  OT    -0.834000       15.9994           0
   97613 WT6  3098 TIP3 H1   HT     0.417000        1.0080           0
   97614 WT6  3098 TIP3 H2   HT     0.417000        1.0080           0
   97615 WT6  3100 TIP3 OH2  OT    -0.834000       15.9994           0
   97616 WT6  3100 TIP3 H1   HT     0.417000        1.0080           0
   97617 WT6  3100 TIP3 H2   HT     0.417000        1.0080           0
   97618 WT6  3102 TIP3 OH2  OT    -0.834000       15.9994           0
   97619 WT6  3102 TIP3 H1   HT     0.417000        1.0080           0
   97620 WT6  3102 TIP3 H2   HT     0.417000        1.0080           0
   97621 WT6  3104 TIP3 OH2  OT    -0.834000       15.9994           0
   97622 WT6  3104 TIP3 H1   HT     0.417000        1.0080           0
   97623 WT6  3104 TIP3 H2   HT     0.417000        1.0080           0
   97624 WT6  3108 TIP3 OH2  OT    -0.834000       15.9994           0
   97625 WT6  3108 TIP3 H1   HT     0.417000        1.0080           0
   97626 WT6  3108 TIP3 H2   HT     0.417000        1.0080           0
   97627 WT6  3109 TIP3 OH2  OT    -0.834000       15.9994           0
   97628 WT6  3109 TIP3 H1   HT     0.417000        1.0080           0
   97629 WT6  3109 TIP3 H2   HT     0.417000        1.0080           0
   97630 WT6  3110 TIP3 OH2  OT    -0.834000       15.9994           0
   97631 WT6  3110 TIP3 H1   HT     0.417000        1.0080           0
   97632 WT6  3110 TIP3 H2   HT     0.417000        1.0080           0
   97633 WT6  3111 TIP3 OH2  OT    -0.834000       15.9994           0
   97634 WT6  3111 TIP3 H1   HT     0.417000        1.0080           0
   97635 WT6  3111 TIP3 H2   HT     0.417000        1.0080           0
   97636 WT6  3112 TIP3 OH2  OT    -0.834000       15.9994           0
   97637 WT6  3112 TIP3 H1   HT     0.417000        1.0080           0
   97638 WT6  3112 TIP3 H2   HT     0.417000        1.0080           0
   97639 WT6  3113 TIP3 OH2  OT    -0.834000       15.9994           0
   97640 WT6  3113 TIP3 H1   HT     0.417000        1.0080           0
   97641 WT6  3113 TIP3 H2   HT     0.417000        1.0080           0
   97642 WT6  3114 TIP3 OH2  OT    -0.834000       15.9994           0
   97643 WT6  3114 TIP3 H1   HT     0.417000        1.0080           0
   97644 WT6  3114 TIP3 H2   HT     0.417000        1.0080           0
   97645 WT6  3115 TIP3 OH2  OT    -0.834000       15.9994           0
   97646 WT6  3115 TIP3 H1   HT     0.417000        1.0080           0
   97647 WT6  3115 TIP3 H2   HT     0.417000        1.0080           0
   97648 WT6  3116 TIP3 OH2  OT    -0.834000       15.9994           0
   97649 WT6  3116 TIP3 H1   HT     0.417000        1.0080           0
   97650 WT6  3116 TIP3 H2   HT     0.417000        1.0080           0
   97651 WT6  3118 TIP3 OH2  OT    -0.834000       15.9994           0
   97652 WT6  3118 TIP3 H1   HT     0.417000        1.0080           0
   97653 WT6  3118 TIP3 H2   HT     0.417000        1.0080           0
   97654 WT6  3119 TIP3 OH2  OT    -0.834000       15.9994           0
   97655 WT6  3119 TIP3 H1   HT     0.417000        1.0080           0
   97656 WT6  3119 TIP3 H2   HT     0.417000        1.0080           0
   97657 WT6  3120 TIP3 OH2  OT    -0.834000       15.9994           0
   97658 WT6  3120 TIP3 H1   HT     0.417000        1.0080           0
   97659 WT6  3120 TIP3 H2   HT     0.417000        1.0080           0
   97660 WT6  3121 TIP3 OH2  OT    -0.834000       15.9994           0
   97661 WT6  3121 TIP3 H1   HT     0.417000        1.0080           0
   97662 WT6  3121 TIP3 H2   HT     0.417000        1.0080           0
   97663 WT6  3122 TIP3 OH2  OT    -0.834000       15.9994           0
   97664 WT6  3122 TIP3 H1   HT     0.417000        1.0080           0
   97665 WT6  3122 TIP3 H2   HT     0.417000        1.0080           0
   97666 WT6  3128 TIP3 OH2  OT    -0.834000       15.9994           0
   97667 WT6  3128 TIP3 H1   HT     0.417000        1.0080           0
   97668 WT6  3128 TIP3 H2   HT     0.417000        1.0080           0
   97669 WT6  3129 TIP3 OH2  OT    -0.834000       15.9994           0
   97670 WT6  3129 TIP3 H1   HT     0.417000        1.0080           0
   97671 WT6  3129 TIP3 H2   HT     0.417000        1.0080           0
   97672 WT6  3131 TIP3 OH2  OT    -0.834000       15.9994           0
   97673 WT6  3131 TIP3 H1   HT     0.417000        1.0080           0
   97674 WT6  3131 TIP3 H2   HT     0.417000        1.0080           0
   97675 WT6  3134 TIP3 OH2  OT    -0.834000       15.9994           0
   97676 WT6  3134 TIP3 H1   HT     0.417000        1.0080           0
   97677 WT6  3134 TIP3 H2   HT     0.417000        1.0080           0
   97678 WT6  3136 TIP3 OH2  OT    -0.834000       15.9994           0
   97679 WT6  3136 TIP3 H1   HT     0.417000        1.0080           0
   97680 WT6  3136 TIP3 H2   HT     0.417000        1.0080           0
   97681 WT6  3137 TIP3 OH2  OT    -0.834000       15.9994           0
   97682 WT6  3137 TIP3 H1   HT     0.417000        1.0080           0
   97683 WT6  3137 TIP3 H2   HT     0.417000        1.0080           0
   97684 WT6  3138 TIP3 OH2  OT    -0.834000       15.9994           0
   97685 WT6  3138 TIP3 H1   HT     0.417000        1.0080           0
   97686 WT6  3138 TIP3 H2   HT     0.417000        1.0080           0
   97687 WT6  3139 TIP3 OH2  OT    -0.834000       15.9994           0
   97688 WT6  3139 TIP3 H1   HT     0.417000        1.0080           0
   97689 WT6  3139 TIP3 H2   HT     0.417000        1.0080           0
   97690 WT6  3140 TIP3 OH2  OT    -0.834000       15.9994           0
   97691 WT6  3140 TIP3 H1   HT     0.417000        1.0080           0
   97692 WT6  3140 TIP3 H2   HT     0.417000        1.0080           0
   97693 WT6  3142 TIP3 OH2  OT    -0.834000       15.9994           0
   97694 WT6  3142 TIP3 H1   HT     0.417000        1.0080           0
   97695 WT6  3142 TIP3 H2   HT     0.417000        1.0080           0
   97696 WT6  3143 TIP3 OH2  OT    -0.834000       15.9994           0
   97697 WT6  3143 TIP3 H1   HT     0.417000        1.0080           0
   97698 WT6  3143 TIP3 H2   HT     0.417000        1.0080           0
   97699 WT6  3145 TIP3 OH2  OT    -0.834000       15.9994           0
   97700 WT6  3145 TIP3 H1   HT     0.417000        1.0080           0
   97701 WT6  3145 TIP3 H2   HT     0.417000        1.0080           0
   97702 WT6  3150 TIP3 OH2  OT    -0.834000       15.9994           0
   97703 WT6  3150 TIP3 H1   HT     0.417000        1.0080           0
   97704 WT6  3150 TIP3 H2   HT     0.417000        1.0080           0
   97705 WT6  3152 TIP3 OH2  OT    -0.834000       15.9994           0
   97706 WT6  3152 TIP3 H1   HT     0.417000        1.0080           0
   97707 WT6  3152 TIP3 H2   HT     0.417000        1.0080           0
   97708 WT6  3153 TIP3 OH2  OT    -0.834000       15.9994           0
   97709 WT6  3153 TIP3 H1   HT     0.417000        1.0080           0
   97710 WT6  3153 TIP3 H2   HT     0.417000        1.0080           0
   97711 WT6  3154 TIP3 OH2  OT    -0.834000       15.9994           0
   97712 WT6  3154 TIP3 H1   HT     0.417000        1.0080           0
   97713 WT6  3154 TIP3 H2   HT     0.417000        1.0080           0
   97714 WT6  3155 TIP3 OH2  OT    -0.834000       15.9994           0
   97715 WT6  3155 TIP3 H1   HT     0.417000        1.0080           0
   97716 WT6  3155 TIP3 H2   HT     0.417000        1.0080           0
   97717 WT6  3156 TIP3 OH2  OT    -0.834000       15.9994           0
   97718 WT6  3156 TIP3 H1   HT     0.417000        1.0080           0
   97719 WT6  3156 TIP3 H2   HT     0.417000        1.0080           0
   97720 WT6  3157 TIP3 OH2  OT    -0.834000       15.9994           0
   97721 WT6  3157 TIP3 H1   HT     0.417000        1.0080           0
   97722 WT6  3157 TIP3 H2   HT     0.417000        1.0080           0
   97723 WT6  3158 TIP3 OH2  OT    -0.834000       15.9994           0
   97724 WT6  3158 TIP3 H1   HT     0.417000        1.0080           0
   97725 WT6  3158 TIP3 H2   HT     0.417000        1.0080           0
   97726 WT6  3159 TIP3 OH2  OT    -0.834000       15.9994           0
   97727 WT6  3159 TIP3 H1   HT     0.417000        1.0080           0
   97728 WT6  3159 TIP3 H2   HT     0.417000        1.0080           0
   97729 WT6  3160 TIP3 OH2  OT    -0.834000       15.9994           0
   97730 WT6  3160 TIP3 H1   HT     0.417000        1.0080           0
   97731 WT6  3160 TIP3 H2   HT     0.417000        1.0080           0
   97732 WT6  3161 TIP3 OH2  OT    -0.834000       15.9994           0
   97733 WT6  3161 TIP3 H1   HT     0.417000        1.0080           0
   97734 WT6  3161 TIP3 H2   HT     0.417000        1.0080           0
   97735 WT6  3165 TIP3 OH2  OT    -0.834000       15.9994           0
   97736 WT6  3165 TIP3 H1   HT     0.417000        1.0080           0
   97737 WT6  3165 TIP3 H2   HT     0.417000        1.0080           0
   97738 WT6  3166 TIP3 OH2  OT    -0.834000       15.9994           0
   97739 WT6  3166 TIP3 H1   HT     0.417000        1.0080           0
   97740 WT6  3166 TIP3 H2   HT     0.417000        1.0080           0
   97741 WT6  3173 TIP3 OH2  OT    -0.834000       15.9994           0
   97742 WT6  3173 TIP3 H1   HT     0.417000        1.0080           0
   97743 WT6  3173 TIP3 H2   HT     0.417000        1.0080           0
   97744 WT6  3174 TIP3 OH2  OT    -0.834000       15.9994           0
   97745 WT6  3174 TIP3 H1   HT     0.417000        1.0080           0
   97746 WT6  3174 TIP3 H2   HT     0.417000        1.0080           0
   97747 WT6  3175 TIP3 OH2  OT    -0.834000       15.9994           0
   97748 WT6  3175 TIP3 H1   HT     0.417000        1.0080           0
   97749 WT6  3175 TIP3 H2   HT     0.417000        1.0080           0
   97750 WT6  3176 TIP3 OH2  OT    -0.834000       15.9994           0
   97751 WT6  3176 TIP3 H1   HT     0.417000        1.0080           0
   97752 WT6  3176 TIP3 H2   HT     0.417000        1.0080           0
   97753 WT6  3177 TIP3 OH2  OT    -0.834000       15.9994           0
   97754 WT6  3177 TIP3 H1   HT     0.417000        1.0080           0
   97755 WT6  3177 TIP3 H2   HT     0.417000        1.0080           0
   97756 WT6  3178 TIP3 OH2  OT    -0.834000       15.9994           0
   97757 WT6  3178 TIP3 H1   HT     0.417000        1.0080           0
   97758 WT6  3178 TIP3 H2   HT     0.417000        1.0080           0
   97759 WT6  3179 TIP3 OH2  OT    -0.834000       15.9994           0
   97760 WT6  3179 TIP3 H1   HT     0.417000        1.0080           0
   97761 WT6  3179 TIP3 H2   HT     0.417000        1.0080           0
   97762 WT6  3180 TIP3 OH2  OT    -0.834000       15.9994           0
   97763 WT6  3180 TIP3 H1   HT     0.417000        1.0080           0
   97764 WT6  3180 TIP3 H2   HT     0.417000        1.0080           0
   97765 WT6  3181 TIP3 OH2  OT    -0.834000       15.9994           0
   97766 WT6  3181 TIP3 H1   HT     0.417000        1.0080           0
   97767 WT6  3181 TIP3 H2   HT     0.417000        1.0080           0
   97768 WT6  3182 TIP3 OH2  OT    -0.834000       15.9994           0
   97769 WT6  3182 TIP3 H1   HT     0.417000        1.0080           0
   97770 WT6  3182 TIP3 H2   HT     0.417000        1.0080           0
   97771 WT6  3183 TIP3 OH2  OT    -0.834000       15.9994           0
   97772 WT6  3183 TIP3 H1   HT     0.417000        1.0080           0
   97773 WT6  3183 TIP3 H2   HT     0.417000        1.0080           0
   97774 WT6  3184 TIP3 OH2  OT    -0.834000       15.9994           0
   97775 WT6  3184 TIP3 H1   HT     0.417000        1.0080           0
   97776 WT6  3184 TIP3 H2   HT     0.417000        1.0080           0
   97777 WT6  3187 TIP3 OH2  OT    -0.834000       15.9994           0
   97778 WT6  3187 TIP3 H1   HT     0.417000        1.0080           0
   97779 WT6  3187 TIP3 H2   HT     0.417000        1.0080           0
   97780 WT6  3189 TIP3 OH2  OT    -0.834000       15.9994           0
   97781 WT6  3189 TIP3 H1   HT     0.417000        1.0080           0
   97782 WT6  3189 TIP3 H2   HT     0.417000        1.0080           0
   97783 WT6  3192 TIP3 OH2  OT    -0.834000       15.9994           0
   97784 WT6  3192 TIP3 H1   HT     0.417000        1.0080           0
   97785 WT6  3192 TIP3 H2   HT     0.417000        1.0080           0
   97786 WT6  3193 TIP3 OH2  OT    -0.834000       15.9994           0
   97787 WT6  3193 TIP3 H1   HT     0.417000        1.0080           0
   97788 WT6  3193 TIP3 H2   HT     0.417000        1.0080           0
   97789 WT6  3195 TIP3 OH2  OT    -0.834000       15.9994           0
   97790 WT6  3195 TIP3 H1   HT     0.417000        1.0080           0
   97791 WT6  3195 TIP3 H2   HT     0.417000        1.0080           0
   97792 WT6  3196 TIP3 OH2  OT    -0.834000       15.9994           0
   97793 WT6  3196 TIP3 H1   HT     0.417000        1.0080           0
   97794 WT6  3196 TIP3 H2   HT     0.417000        1.0080           0
   97795 WT6  3197 TIP3 OH2  OT    -0.834000       15.9994           0
   97796 WT6  3197 TIP3 H1   HT     0.417000        1.0080           0
   97797 WT6  3197 TIP3 H2   HT     0.417000        1.0080           0
   97798 WT6  3198 TIP3 OH2  OT    -0.834000       15.9994           0
   97799 WT6  3198 TIP3 H1   HT     0.417000        1.0080           0
   97800 WT6  3198 TIP3 H2   HT     0.417000        1.0080           0
   97801 WT6  3199 TIP3 OH2  OT    -0.834000       15.9994           0
   97802 WT6  3199 TIP3 H1   HT     0.417000        1.0080           0
   97803 WT6  3199 TIP3 H2   HT     0.417000        1.0080           0
   97804 WT6  3200 TIP3 OH2  OT    -0.834000       15.9994           0
   97805 WT6  3200 TIP3 H1   HT     0.417000        1.0080           0
   97806 WT6  3200 TIP3 H2   HT     0.417000        1.0080           0
   97807 WT6  3201 TIP3 OH2  OT    -0.834000       15.9994           0
   97808 WT6  3201 TIP3 H1   HT     0.417000        1.0080           0
   97809 WT6  3201 TIP3 H2   HT     0.417000        1.0080           0
   97810 WT6  3202 TIP3 OH2  OT    -0.834000       15.9994           0
   97811 WT6  3202 TIP3 H1   HT     0.417000        1.0080           0
   97812 WT6  3202 TIP3 H2   HT     0.417000        1.0080           0
   97813 WT6  3203 TIP3 OH2  OT    -0.834000       15.9994           0
   97814 WT6  3203 TIP3 H1   HT     0.417000        1.0080           0
   97815 WT6  3203 TIP3 H2   HT     0.417000        1.0080           0
   97816 WT6  3204 TIP3 OH2  OT    -0.834000       15.9994           0
   97817 WT6  3204 TIP3 H1   HT     0.417000        1.0080           0
   97818 WT6  3204 TIP3 H2   HT     0.417000        1.0080           0
   97819 WT6  3205 TIP3 OH2  OT    -0.834000       15.9994           0
   97820 WT6  3205 TIP3 H1   HT     0.417000        1.0080           0
   97821 WT6  3205 TIP3 H2   HT     0.417000        1.0080           0
   97822 WT6  3210 TIP3 OH2  OT    -0.834000       15.9994           0
   97823 WT6  3210 TIP3 H1   HT     0.417000        1.0080           0
   97824 WT6  3210 TIP3 H2   HT     0.417000        1.0080           0
   97825 WT6  3214 TIP3 OH2  OT    -0.834000       15.9994           0
   97826 WT6  3214 TIP3 H1   HT     0.417000        1.0080           0
   97827 WT6  3214 TIP3 H2   HT     0.417000        1.0080           0
   97828 WT6  3215 TIP3 OH2  OT    -0.834000       15.9994           0
   97829 WT6  3215 TIP3 H1   HT     0.417000        1.0080           0
   97830 WT6  3215 TIP3 H2   HT     0.417000        1.0080           0
   97831 WT6  3216 TIP3 OH2  OT    -0.834000       15.9994           0
   97832 WT6  3216 TIP3 H1   HT     0.417000        1.0080           0
   97833 WT6  3216 TIP3 H2   HT     0.417000        1.0080           0
   97834 WT6  3218 TIP3 OH2  OT    -0.834000       15.9994           0
   97835 WT6  3218 TIP3 H1   HT     0.417000        1.0080           0
   97836 WT6  3218 TIP3 H2   HT     0.417000        1.0080           0
   97837 WT6  3219 TIP3 OH2  OT    -0.834000       15.9994           0
   97838 WT6  3219 TIP3 H1   HT     0.417000        1.0080           0
   97839 WT6  3219 TIP3 H2   HT     0.417000        1.0080           0
   97840 WT6  3220 TIP3 OH2  OT    -0.834000       15.9994           0
   97841 WT6  3220 TIP3 H1   HT     0.417000        1.0080           0
   97842 WT6  3220 TIP3 H2   HT     0.417000        1.0080           0
   97843 WT6  3221 TIP3 OH2  OT    -0.834000       15.9994           0
   97844 WT6  3221 TIP3 H1   HT     0.417000        1.0080           0
   97845 WT6  3221 TIP3 H2   HT     0.417000        1.0080           0
   97846 WT6  3222 TIP3 OH2  OT    -0.834000       15.9994           0
   97847 WT6  3222 TIP3 H1   HT     0.417000        1.0080           0
   97848 WT6  3222 TIP3 H2   HT     0.417000        1.0080           0
   97849 WT6  3224 TIP3 OH2  OT    -0.834000       15.9994           0
   97850 WT6  3224 TIP3 H1   HT     0.417000        1.0080           0
   97851 WT6  3224 TIP3 H2   HT     0.417000        1.0080           0
   97852 WT6  3225 TIP3 OH2  OT    -0.834000       15.9994           0
   97853 WT6  3225 TIP3 H1   HT     0.417000        1.0080           0
   97854 WT6  3225 TIP3 H2   HT     0.417000        1.0080           0
   97855 WT6  3226 TIP3 OH2  OT    -0.834000       15.9994           0
   97856 WT6  3226 TIP3 H1   HT     0.417000        1.0080           0
   97857 WT6  3226 TIP3 H2   HT     0.417000        1.0080           0
   97858 WT6  3227 TIP3 OH2  OT    -0.834000       15.9994           0
   97859 WT6  3227 TIP3 H1   HT     0.417000        1.0080           0
   97860 WT6  3227 TIP3 H2   HT     0.417000        1.0080           0
   97861 WT6  3228 TIP3 OH2  OT    -0.834000       15.9994           0
   97862 WT6  3228 TIP3 H1   HT     0.417000        1.0080           0
   97863 WT6  3228 TIP3 H2   HT     0.417000        1.0080           0
   97864 WT6  3229 TIP3 OH2  OT    -0.834000       15.9994           0
   97865 WT6  3229 TIP3 H1   HT     0.417000        1.0080           0
   97866 WT6  3229 TIP3 H2   HT     0.417000        1.0080           0
   97867 WT6  3233 TIP3 OH2  OT    -0.834000       15.9994           0
   97868 WT6  3233 TIP3 H1   HT     0.417000        1.0080           0
   97869 WT6  3233 TIP3 H2   HT     0.417000        1.0080           0
   97870 WT6  3234 TIP3 OH2  OT    -0.834000       15.9994           0
   97871 WT6  3234 TIP3 H1   HT     0.417000        1.0080           0
   97872 WT6  3234 TIP3 H2   HT     0.417000        1.0080           0
   97873 WT6  3236 TIP3 OH2  OT    -0.834000       15.9994           0
   97874 WT6  3236 TIP3 H1   HT     0.417000        1.0080           0
   97875 WT6  3236 TIP3 H2   HT     0.417000        1.0080           0
   97876 WT6  3237 TIP3 OH2  OT    -0.834000       15.9994           0
   97877 WT6  3237 TIP3 H1   HT     0.417000        1.0080           0
   97878 WT6  3237 TIP3 H2   HT     0.417000        1.0080           0
   97879 WT6  3238 TIP3 OH2  OT    -0.834000       15.9994           0
   97880 WT6  3238 TIP3 H1   HT     0.417000        1.0080           0
   97881 WT6  3238 TIP3 H2   HT     0.417000        1.0080           0
   97882 WT6  3239 TIP3 OH2  OT    -0.834000       15.9994           0
   97883 WT6  3239 TIP3 H1   HT     0.417000        1.0080           0
   97884 WT6  3239 TIP3 H2   HT     0.417000        1.0080           0
   97885 WT6  3240 TIP3 OH2  OT    -0.834000       15.9994           0
   97886 WT6  3240 TIP3 H1   HT     0.417000        1.0080           0
   97887 WT6  3240 TIP3 H2   HT     0.417000        1.0080           0
   97888 WT6  3241 TIP3 OH2  OT    -0.834000       15.9994           0
   97889 WT6  3241 TIP3 H1   HT     0.417000        1.0080           0
   97890 WT6  3241 TIP3 H2   HT     0.417000        1.0080           0
   97891 WT6  3242 TIP3 OH2  OT    -0.834000       15.9994           0
   97892 WT6  3242 TIP3 H1   HT     0.417000        1.0080           0
   97893 WT6  3242 TIP3 H2   HT     0.417000        1.0080           0
   97894 WT6  3243 TIP3 OH2  OT    -0.834000       15.9994           0
   97895 WT6  3243 TIP3 H1   HT     0.417000        1.0080           0
   97896 WT6  3243 TIP3 H2   HT     0.417000        1.0080           0
   97897 WT6  3244 TIP3 OH2  OT    -0.834000       15.9994           0
   97898 WT6  3244 TIP3 H1   HT     0.417000        1.0080           0
   97899 WT6  3244 TIP3 H2   HT     0.417000        1.0080           0
   97900 WT6  3245 TIP3 OH2  OT    -0.834000       15.9994           0
   97901 WT6  3245 TIP3 H1   HT     0.417000        1.0080           0
   97902 WT6  3245 TIP3 H2   HT     0.417000        1.0080           0
   97903 WT6  3246 TIP3 OH2  OT    -0.834000       15.9994           0
   97904 WT6  3246 TIP3 H1   HT     0.417000        1.0080           0
   97905 WT6  3246 TIP3 H2   HT     0.417000        1.0080           0
   97906 WT6  3247 TIP3 OH2  OT    -0.834000       15.9994           0
   97907 WT6  3247 TIP3 H1   HT     0.417000        1.0080           0
   97908 WT6  3247 TIP3 H2   HT     0.417000        1.0080           0
   97909 WT6  3249 TIP3 OH2  OT    -0.834000       15.9994           0
   97910 WT6  3249 TIP3 H1   HT     0.417000        1.0080           0
   97911 WT6  3249 TIP3 H2   HT     0.417000        1.0080           0
   97912 WT6  3257 TIP3 OH2  OT    -0.834000       15.9994           0
   97913 WT6  3257 TIP3 H1   HT     0.417000        1.0080           0
   97914 WT6  3257 TIP3 H2   HT     0.417000        1.0080           0
   97915 WT6  3258 TIP3 OH2  OT    -0.834000       15.9994           0
   97916 WT6  3258 TIP3 H1   HT     0.417000        1.0080           0
   97917 WT6  3258 TIP3 H2   HT     0.417000        1.0080           0
   97918 WT6  3261 TIP3 OH2  OT    -0.834000       15.9994           0
   97919 WT6  3261 TIP3 H1   HT     0.417000        1.0080           0
   97920 WT6  3261 TIP3 H2   HT     0.417000        1.0080           0
   97921 WT6  3262 TIP3 OH2  OT    -0.834000       15.9994           0
   97922 WT6  3262 TIP3 H1   HT     0.417000        1.0080           0
   97923 WT6  3262 TIP3 H2   HT     0.417000        1.0080           0
   97924 WT6  3263 TIP3 OH2  OT    -0.834000       15.9994           0
   97925 WT6  3263 TIP3 H1   HT     0.417000        1.0080           0
   97926 WT6  3263 TIP3 H2   HT     0.417000        1.0080           0
   97927 WT6  3264 TIP3 OH2  OT    -0.834000       15.9994           0
   97928 WT6  3264 TIP3 H1   HT     0.417000        1.0080           0
   97929 WT6  3264 TIP3 H2   HT     0.417000        1.0080           0
   97930 WT6  3265 TIP3 OH2  OT    -0.834000       15.9994           0
   97931 WT6  3265 TIP3 H1   HT     0.417000        1.0080           0
   97932 WT6  3265 TIP3 H2   HT     0.417000        1.0080           0
   97933 WT6  3266 TIP3 OH2  OT    -0.834000       15.9994           0
   97934 WT6  3266 TIP3 H1   HT     0.417000        1.0080           0
   97935 WT6  3266 TIP3 H2   HT     0.417000        1.0080           0
   97936 WT6  3267 TIP3 OH2  OT    -0.834000       15.9994           0
   97937 WT6  3267 TIP3 H1   HT     0.417000        1.0080           0
   97938 WT6  3267 TIP3 H2   HT     0.417000        1.0080           0
   97939 WT6  3269 TIP3 OH2  OT    -0.834000       15.9994           0
   97940 WT6  3269 TIP3 H1   HT     0.417000        1.0080           0
   97941 WT6  3269 TIP3 H2   HT     0.417000        1.0080           0
   97942 WT6  3270 TIP3 OH2  OT    -0.834000       15.9994           0
   97943 WT6  3270 TIP3 H1   HT     0.417000        1.0080           0
   97944 WT6  3270 TIP3 H2   HT     0.417000        1.0080           0
   97945 WT6  3272 TIP3 OH2  OT    -0.834000       15.9994           0
   97946 WT6  3272 TIP3 H1   HT     0.417000        1.0080           0
   97947 WT6  3272 TIP3 H2   HT     0.417000        1.0080           0
   97948 WT6  3274 TIP3 OH2  OT    -0.834000       15.9994           0
   97949 WT6  3274 TIP3 H1   HT     0.417000        1.0080           0
   97950 WT6  3274 TIP3 H2   HT     0.417000        1.0080           0
   97951 WT6  3275 TIP3 OH2  OT    -0.834000       15.9994           0
   97952 WT6  3275 TIP3 H1   HT     0.417000        1.0080           0
   97953 WT6  3275 TIP3 H2   HT     0.417000        1.0080           0
   97954 WT6  3276 TIP3 OH2  OT    -0.834000       15.9994           0
   97955 WT6  3276 TIP3 H1   HT     0.417000        1.0080           0
   97956 WT6  3276 TIP3 H2   HT     0.417000        1.0080           0
   97957 WT6  3277 TIP3 OH2  OT    -0.834000       15.9994           0
   97958 WT6  3277 TIP3 H1   HT     0.417000        1.0080           0
   97959 WT6  3277 TIP3 H2   HT     0.417000        1.0080           0
   97960 WT6  3278 TIP3 OH2  OT    -0.834000       15.9994           0
   97961 WT6  3278 TIP3 H1   HT     0.417000        1.0080           0
   97962 WT6  3278 TIP3 H2   HT     0.417000        1.0080           0
   97963 WT6  3279 TIP3 OH2  OT    -0.834000       15.9994           0
   97964 WT6  3279 TIP3 H1   HT     0.417000        1.0080           0
   97965 WT6  3279 TIP3 H2   HT     0.417000        1.0080           0
   97966 WT6  3280 TIP3 OH2  OT    -0.834000       15.9994           0
   97967 WT6  3280 TIP3 H1   HT     0.417000        1.0080           0
   97968 WT6  3280 TIP3 H2   HT     0.417000        1.0080           0
   97969 WT6  3282 TIP3 OH2  OT    -0.834000       15.9994           0
   97970 WT6  3282 TIP3 H1   HT     0.417000        1.0080           0
   97971 WT6  3282 TIP3 H2   HT     0.417000        1.0080           0
   97972 WT6  3283 TIP3 OH2  OT    -0.834000       15.9994           0
   97973 WT6  3283 TIP3 H1   HT     0.417000        1.0080           0
   97974 WT6  3283 TIP3 H2   HT     0.417000        1.0080           0
   97975 WT6  3284 TIP3 OH2  OT    -0.834000       15.9994           0
   97976 WT6  3284 TIP3 H1   HT     0.417000        1.0080           0
   97977 WT6  3284 TIP3 H2   HT     0.417000        1.0080           0
   97978 WT6  3285 TIP3 OH2  OT    -0.834000       15.9994           0
   97979 WT6  3285 TIP3 H1   HT     0.417000        1.0080           0
   97980 WT6  3285 TIP3 H2   HT     0.417000        1.0080           0
   97981 WT6  3286 TIP3 OH2  OT    -0.834000       15.9994           0
   97982 WT6  3286 TIP3 H1   HT     0.417000        1.0080           0
   97983 WT6  3286 TIP3 H2   HT     0.417000        1.0080           0
   97984 WT6  3287 TIP3 OH2  OT    -0.834000       15.9994           0
   97985 WT6  3287 TIP3 H1   HT     0.417000        1.0080           0
   97986 WT6  3287 TIP3 H2   HT     0.417000        1.0080           0
   97987 WT6  3288 TIP3 OH2  OT    -0.834000       15.9994           0
   97988 WT6  3288 TIP3 H1   HT     0.417000        1.0080           0
   97989 WT6  3288 TIP3 H2   HT     0.417000        1.0080           0
   97990 WT6  3289 TIP3 OH2  OT    -0.834000       15.9994           0
   97991 WT6  3289 TIP3 H1   HT     0.417000        1.0080           0
   97992 WT6  3289 TIP3 H2   HT     0.417000        1.0080           0
   97993 WT6  3291 TIP3 OH2  OT    -0.834000       15.9994           0
   97994 WT6  3291 TIP3 H1   HT     0.417000        1.0080           0
   97995 WT6  3291 TIP3 H2   HT     0.417000        1.0080           0
   97996 WT6  3293 TIP3 OH2  OT    -0.834000       15.9994           0
   97997 WT6  3293 TIP3 H1   HT     0.417000        1.0080           0
   97998 WT6  3293 TIP3 H2   HT     0.417000        1.0080           0
   97999 WT6  3296 TIP3 OH2  OT    -0.834000       15.9994           0
   98000 WT6  3296 TIP3 H1   HT     0.417000        1.0080           0
   98001 WT6  3296 TIP3 H2   HT     0.417000        1.0080           0
   98002 WT6  3298 TIP3 OH2  OT    -0.834000       15.9994           0
   98003 WT6  3298 TIP3 H1   HT     0.417000        1.0080           0
   98004 WT6  3298 TIP3 H2   HT     0.417000        1.0080           0
   98005 WT6  3301 TIP3 OH2  OT    -0.834000       15.9994           0
   98006 WT6  3301 TIP3 H1   HT     0.417000        1.0080           0
   98007 WT6  3301 TIP3 H2   HT     0.417000        1.0080           0
   98008 WT6  3302 TIP3 OH2  OT    -0.834000       15.9994           0
   98009 WT6  3302 TIP3 H1   HT     0.417000        1.0080           0
   98010 WT6  3302 TIP3 H2   HT     0.417000        1.0080           0
   98011 WT6  3303 TIP3 OH2  OT    -0.834000       15.9994           0
   98012 WT6  3303 TIP3 H1   HT     0.417000        1.0080           0
   98013 WT6  3303 TIP3 H2   HT     0.417000        1.0080           0
   98014 WT6  3304 TIP3 OH2  OT    -0.834000       15.9994           0
   98015 WT6  3304 TIP3 H1   HT     0.417000        1.0080           0
   98016 WT6  3304 TIP3 H2   HT     0.417000        1.0080           0
   98017 WT6  3305 TIP3 OH2  OT    -0.834000       15.9994           0
   98018 WT6  3305 TIP3 H1   HT     0.417000        1.0080           0
   98019 WT6  3305 TIP3 H2   HT     0.417000        1.0080           0
   98020 WT6  3306 TIP3 OH2  OT    -0.834000       15.9994           0
   98021 WT6  3306 TIP3 H1   HT     0.417000        1.0080           0
   98022 WT6  3306 TIP3 H2   HT     0.417000        1.0080           0
   98023 WT6  3307 TIP3 OH2  OT    -0.834000       15.9994           0
   98024 WT6  3307 TIP3 H1   HT     0.417000        1.0080           0
   98025 WT6  3307 TIP3 H2   HT     0.417000        1.0080           0
   98026 WT6  3308 TIP3 OH2  OT    -0.834000       15.9994           0
   98027 WT6  3308 TIP3 H1   HT     0.417000        1.0080           0
   98028 WT6  3308 TIP3 H2   HT     0.417000        1.0080           0
   98029 WT6  3310 TIP3 OH2  OT    -0.834000       15.9994           0
   98030 WT6  3310 TIP3 H1   HT     0.417000        1.0080           0
   98031 WT6  3310 TIP3 H2   HT     0.417000        1.0080           0
   98032 WT6  3311 TIP3 OH2  OT    -0.834000       15.9994           0
   98033 WT6  3311 TIP3 H1   HT     0.417000        1.0080           0
   98034 WT6  3311 TIP3 H2   HT     0.417000        1.0080           0
   98035 WT6  3312 TIP3 OH2  OT    -0.834000       15.9994           0
   98036 WT6  3312 TIP3 H1   HT     0.417000        1.0080           0
   98037 WT6  3312 TIP3 H2   HT     0.417000        1.0080           0
   98038 WT6  3317 TIP3 OH2  OT    -0.834000       15.9994           0
   98039 WT6  3317 TIP3 H1   HT     0.417000        1.0080           0
   98040 WT6  3317 TIP3 H2   HT     0.417000        1.0080           0
   98041 WT6  3319 TIP3 OH2  OT    -0.834000       15.9994           0
   98042 WT6  3319 TIP3 H1   HT     0.417000        1.0080           0
   98043 WT6  3319 TIP3 H2   HT     0.417000        1.0080           0
   98044 WT6  3320 TIP3 OH2  OT    -0.834000       15.9994           0
   98045 WT6  3320 TIP3 H1   HT     0.417000        1.0080           0
   98046 WT6  3320 TIP3 H2   HT     0.417000        1.0080           0
   98047 WT6  3321 TIP3 OH2  OT    -0.834000       15.9994           0
   98048 WT6  3321 TIP3 H1   HT     0.417000        1.0080           0
   98049 WT6  3321 TIP3 H2   HT     0.417000        1.0080           0
   98050 WT6  3322 TIP3 OH2  OT    -0.834000       15.9994           0
   98051 WT6  3322 TIP3 H1   HT     0.417000        1.0080           0
   98052 WT6  3322 TIP3 H2   HT     0.417000        1.0080           0
   98053 WT6  3323 TIP3 OH2  OT    -0.834000       15.9994           0
   98054 WT6  3323 TIP3 H1   HT     0.417000        1.0080           0
   98055 WT6  3323 TIP3 H2   HT     0.417000        1.0080           0
   98056 WT6  3325 TIP3 OH2  OT    -0.834000       15.9994           0
   98057 WT6  3325 TIP3 H1   HT     0.417000        1.0080           0
   98058 WT6  3325 TIP3 H2   HT     0.417000        1.0080           0
   98059 WT6  3326 TIP3 OH2  OT    -0.834000       15.9994           0
   98060 WT6  3326 TIP3 H1   HT     0.417000        1.0080           0
   98061 WT6  3326 TIP3 H2   HT     0.417000        1.0080           0
   98062 WT6  3327 TIP3 OH2  OT    -0.834000       15.9994           0
   98063 WT6  3327 TIP3 H1   HT     0.417000        1.0080           0
   98064 WT6  3327 TIP3 H2   HT     0.417000        1.0080           0
   98065 WT6  3328 TIP3 OH2  OT    -0.834000       15.9994           0
   98066 WT6  3328 TIP3 H1   HT     0.417000        1.0080           0
   98067 WT6  3328 TIP3 H2   HT     0.417000        1.0080           0
   98068 WT6  3329 TIP3 OH2  OT    -0.834000       15.9994           0
   98069 WT6  3329 TIP3 H1   HT     0.417000        1.0080           0
   98070 WT6  3329 TIP3 H2   HT     0.417000        1.0080           0
   98071 WT6  3330 TIP3 OH2  OT    -0.834000       15.9994           0
   98072 WT6  3330 TIP3 H1   HT     0.417000        1.0080           0
   98073 WT6  3330 TIP3 H2   HT     0.417000        1.0080           0
   98074 WT6  3331 TIP3 OH2  OT    -0.834000       15.9994           0
   98075 WT6  3331 TIP3 H1   HT     0.417000        1.0080           0
   98076 WT6  3331 TIP3 H2   HT     0.417000        1.0080           0
   98077 WT6  3337 TIP3 OH2  OT    -0.834000       15.9994           0
   98078 WT6  3337 TIP3 H1   HT     0.417000        1.0080           0
   98079 WT6  3337 TIP3 H2   HT     0.417000        1.0080           0
   98080 WT6  3341 TIP3 OH2  OT    -0.834000       15.9994           0
   98081 WT6  3341 TIP3 H1   HT     0.417000        1.0080           0
   98082 WT6  3341 TIP3 H2   HT     0.417000        1.0080           0
   98083 WT6  3342 TIP3 OH2  OT    -0.834000       15.9994           0
   98084 WT6  3342 TIP3 H1   HT     0.417000        1.0080           0
   98085 WT6  3342 TIP3 H2   HT     0.417000        1.0080           0
   98086 WT6  3344 TIP3 OH2  OT    -0.834000       15.9994           0
   98087 WT6  3344 TIP3 H1   HT     0.417000        1.0080           0
   98088 WT6  3344 TIP3 H2   HT     0.417000        1.0080           0
   98089 WT6  3345 TIP3 OH2  OT    -0.834000       15.9994           0
   98090 WT6  3345 TIP3 H1   HT     0.417000        1.0080           0
   98091 WT6  3345 TIP3 H2   HT     0.417000        1.0080           0
   98092 WT6  3346 TIP3 OH2  OT    -0.834000       15.9994           0
   98093 WT6  3346 TIP3 H1   HT     0.417000        1.0080           0
   98094 WT6  3346 TIP3 H2   HT     0.417000        1.0080           0
   98095 WT6  3347 TIP3 OH2  OT    -0.834000       15.9994           0
   98096 WT6  3347 TIP3 H1   HT     0.417000        1.0080           0
   98097 WT6  3347 TIP3 H2   HT     0.417000        1.0080           0
   98098 WT6  3348 TIP3 OH2  OT    -0.834000       15.9994           0
   98099 WT6  3348 TIP3 H1   HT     0.417000        1.0080           0
   98100 WT6  3348 TIP3 H2   HT     0.417000        1.0080           0
   98101 WT6  3349 TIP3 OH2  OT    -0.834000       15.9994           0
   98102 WT6  3349 TIP3 H1   HT     0.417000        1.0080           0
   98103 WT6  3349 TIP3 H2   HT     0.417000        1.0080           0
   98104 WT6  3351 TIP3 OH2  OT    -0.834000       15.9994           0
   98105 WT6  3351 TIP3 H1   HT     0.417000        1.0080           0
   98106 WT6  3351 TIP3 H2   HT     0.417000        1.0080           0
   98107 WT6  3353 TIP3 OH2  OT    -0.834000       15.9994           0
   98108 WT6  3353 TIP3 H1   HT     0.417000        1.0080           0
   98109 WT6  3353 TIP3 H2   HT     0.417000        1.0080           0
   98110 WT6  3354 TIP3 OH2  OT    -0.834000       15.9994           0
   98111 WT6  3354 TIP3 H1   HT     0.417000        1.0080           0
   98112 WT6  3354 TIP3 H2   HT     0.417000        1.0080           0
   98113 WT6  3355 TIP3 OH2  OT    -0.834000       15.9994           0
   98114 WT6  3355 TIP3 H1   HT     0.417000        1.0080           0
   98115 WT6  3355 TIP3 H2   HT     0.417000        1.0080           0
   98116 WT6  3360 TIP3 OH2  OT    -0.834000       15.9994           0
   98117 WT6  3360 TIP3 H1   HT     0.417000        1.0080           0
   98118 WT6  3360 TIP3 H2   HT     0.417000        1.0080           0
   98119 WT6  3361 TIP3 OH2  OT    -0.834000       15.9994           0
   98120 WT6  3361 TIP3 H1   HT     0.417000        1.0080           0
   98121 WT6  3361 TIP3 H2   HT     0.417000        1.0080           0
   98122 WT6  3362 TIP3 OH2  OT    -0.834000       15.9994           0
   98123 WT6  3362 TIP3 H1   HT     0.417000        1.0080           0
   98124 WT6  3362 TIP3 H2   HT     0.417000        1.0080           0
   98125 WT6  3363 TIP3 OH2  OT    -0.834000       15.9994           0
   98126 WT6  3363 TIP3 H1   HT     0.417000        1.0080           0
   98127 WT6  3363 TIP3 H2   HT     0.417000        1.0080           0
   98128 WT6  3364 TIP3 OH2  OT    -0.834000       15.9994           0
   98129 WT6  3364 TIP3 H1   HT     0.417000        1.0080           0
   98130 WT6  3364 TIP3 H2   HT     0.417000        1.0080           0
   98131 WT6  3365 TIP3 OH2  OT    -0.834000       15.9994           0
   98132 WT6  3365 TIP3 H1   HT     0.417000        1.0080           0
   98133 WT6  3365 TIP3 H2   HT     0.417000        1.0080           0
   98134 WT6  3366 TIP3 OH2  OT    -0.834000       15.9994           0
   98135 WT6  3366 TIP3 H1   HT     0.417000        1.0080           0
   98136 WT6  3366 TIP3 H2   HT     0.417000        1.0080           0
   98137 WT6  3367 TIP3 OH2  OT    -0.834000       15.9994           0
   98138 WT6  3367 TIP3 H1   HT     0.417000        1.0080           0
   98139 WT6  3367 TIP3 H2   HT     0.417000        1.0080           0
   98140 WT6  3368 TIP3 OH2  OT    -0.834000       15.9994           0
   98141 WT6  3368 TIP3 H1   HT     0.417000        1.0080           0
   98142 WT6  3368 TIP3 H2   HT     0.417000        1.0080           0
   98143 WT6  3369 TIP3 OH2  OT    -0.834000       15.9994           0
   98144 WT6  3369 TIP3 H1   HT     0.417000        1.0080           0
   98145 WT6  3369 TIP3 H2   HT     0.417000        1.0080           0
   98146 WT6  3370 TIP3 OH2  OT    -0.834000       15.9994           0
   98147 WT6  3370 TIP3 H1   HT     0.417000        1.0080           0
   98148 WT6  3370 TIP3 H2   HT     0.417000        1.0080           0
   98149 WT6  3371 TIP3 OH2  OT    -0.834000       15.9994           0
   98150 WT6  3371 TIP3 H1   HT     0.417000        1.0080           0
   98151 WT6  3371 TIP3 H2   HT     0.417000        1.0080           0
   98152 WT6  3372 TIP3 OH2  OT    -0.834000       15.9994           0
   98153 WT6  3372 TIP3 H1   HT     0.417000        1.0080           0
   98154 WT6  3372 TIP3 H2   HT     0.417000        1.0080           0
   98155 WT6  3373 TIP3 OH2  OT    -0.834000       15.9994           0
   98156 WT6  3373 TIP3 H1   HT     0.417000        1.0080           0
   98157 WT6  3373 TIP3 H2   HT     0.417000        1.0080           0
   98158 WT6  3375 TIP3 OH2  OT    -0.834000       15.9994           0
   98159 WT6  3375 TIP3 H1   HT     0.417000        1.0080           0
   98160 WT6  3375 TIP3 H2   HT     0.417000        1.0080           0
   98161 WT6  3377 TIP3 OH2  OT    -0.834000       15.9994           0
   98162 WT6  3377 TIP3 H1   HT     0.417000        1.0080           0
   98163 WT6  3377 TIP3 H2   HT     0.417000        1.0080           0
   98164 WT6  3381 TIP3 OH2  OT    -0.834000       15.9994           0
   98165 WT6  3381 TIP3 H1   HT     0.417000        1.0080           0
   98166 WT6  3381 TIP3 H2   HT     0.417000        1.0080           0
   98167 WT6  3382 TIP3 OH2  OT    -0.834000       15.9994           0
   98168 WT6  3382 TIP3 H1   HT     0.417000        1.0080           0
   98169 WT6  3382 TIP3 H2   HT     0.417000        1.0080           0
   98170 WT6  3383 TIP3 OH2  OT    -0.834000       15.9994           0
   98171 WT6  3383 TIP3 H1   HT     0.417000        1.0080           0
   98172 WT6  3383 TIP3 H2   HT     0.417000        1.0080           0
   98173 WT6  3384 TIP3 OH2  OT    -0.834000       15.9994           0
   98174 WT6  3384 TIP3 H1   HT     0.417000        1.0080           0
   98175 WT6  3384 TIP3 H2   HT     0.417000        1.0080           0
   98176 WT6  3386 TIP3 OH2  OT    -0.834000       15.9994           0
   98177 WT6  3386 TIP3 H1   HT     0.417000        1.0080           0
   98178 WT6  3386 TIP3 H2   HT     0.417000        1.0080           0
   98179 WT6  3387 TIP3 OH2  OT    -0.834000       15.9994           0
   98180 WT6  3387 TIP3 H1   HT     0.417000        1.0080           0
   98181 WT6  3387 TIP3 H2   HT     0.417000        1.0080           0
   98182 WT6  3388 TIP3 OH2  OT    -0.834000       15.9994           0
   98183 WT6  3388 TIP3 H1   HT     0.417000        1.0080           0
   98184 WT6  3388 TIP3 H2   HT     0.417000        1.0080           0
   98185 WT6  3389 TIP3 OH2  OT    -0.834000       15.9994           0
   98186 WT6  3389 TIP3 H1   HT     0.417000        1.0080           0
   98187 WT6  3389 TIP3 H2   HT     0.417000        1.0080           0
   98188 WT6  3390 TIP3 OH2  OT    -0.834000       15.9994           0
   98189 WT6  3390 TIP3 H1   HT     0.417000        1.0080           0
   98190 WT6  3390 TIP3 H2   HT     0.417000        1.0080           0
   98191 WT6  3391 TIP3 OH2  OT    -0.834000       15.9994           0
   98192 WT6  3391 TIP3 H1   HT     0.417000        1.0080           0
   98193 WT6  3391 TIP3 H2   HT     0.417000        1.0080           0
   98194 WT6  3392 TIP3 OH2  OT    -0.834000       15.9994           0
   98195 WT6  3392 TIP3 H1   HT     0.417000        1.0080           0
   98196 WT6  3392 TIP3 H2   HT     0.417000        1.0080           0
   98197 WT6  3396 TIP3 OH2  OT    -0.834000       15.9994           0
   98198 WT6  3396 TIP3 H1   HT     0.417000        1.0080           0
   98199 WT6  3396 TIP3 H2   HT     0.417000        1.0080           0
   98200 WT6  3397 TIP3 OH2  OT    -0.834000       15.9994           0
   98201 WT6  3397 TIP3 H1   HT     0.417000        1.0080           0
   98202 WT6  3397 TIP3 H2   HT     0.417000        1.0080           0
   98203 WT6  3401 TIP3 OH2  OT    -0.834000       15.9994           0
   98204 WT6  3401 TIP3 H1   HT     0.417000        1.0080           0
   98205 WT6  3401 TIP3 H2   HT     0.417000        1.0080           0
   98206 WT6  3402 TIP3 OH2  OT    -0.834000       15.9994           0
   98207 WT6  3402 TIP3 H1   HT     0.417000        1.0080           0
   98208 WT6  3402 TIP3 H2   HT     0.417000        1.0080           0
   98209 WT6  3404 TIP3 OH2  OT    -0.834000       15.9994           0
   98210 WT6  3404 TIP3 H1   HT     0.417000        1.0080           0
   98211 WT6  3404 TIP3 H2   HT     0.417000        1.0080           0
   98212 WT6  3405 TIP3 OH2  OT    -0.834000       15.9994           0
   98213 WT6  3405 TIP3 H1   HT     0.417000        1.0080           0
   98214 WT6  3405 TIP3 H2   HT     0.417000        1.0080           0
   98215 WT6  3406 TIP3 OH2  OT    -0.834000       15.9994           0
   98216 WT6  3406 TIP3 H1   HT     0.417000        1.0080           0
   98217 WT6  3406 TIP3 H2   HT     0.417000        1.0080           0
   98218 WT6  3407 TIP3 OH2  OT    -0.834000       15.9994           0
   98219 WT6  3407 TIP3 H1   HT     0.417000        1.0080           0
   98220 WT6  3407 TIP3 H2   HT     0.417000        1.0080           0
   98221 WT6  3408 TIP3 OH2  OT    -0.834000       15.9994           0
   98222 WT6  3408 TIP3 H1   HT     0.417000        1.0080           0
   98223 WT6  3408 TIP3 H2   HT     0.417000        1.0080           0
   98224 WT6  3409 TIP3 OH2  OT    -0.834000       15.9994           0
   98225 WT6  3409 TIP3 H1   HT     0.417000        1.0080           0
   98226 WT6  3409 TIP3 H2   HT     0.417000        1.0080           0
   98227 WT6  3410 TIP3 OH2  OT    -0.834000       15.9994           0
   98228 WT6  3410 TIP3 H1   HT     0.417000        1.0080           0
   98229 WT6  3410 TIP3 H2   HT     0.417000        1.0080           0
   98230 WT6  3411 TIP3 OH2  OT    -0.834000       15.9994           0
   98231 WT6  3411 TIP3 H1   HT     0.417000        1.0080           0
   98232 WT6  3411 TIP3 H2   HT     0.417000        1.0080           0
   98233 WT6  3412 TIP3 OH2  OT    -0.834000       15.9994           0
   98234 WT6  3412 TIP3 H1   HT     0.417000        1.0080           0
   98235 WT6  3412 TIP3 H2   HT     0.417000        1.0080           0
   98236 WT6  3414 TIP3 OH2  OT    -0.834000       15.9994           0
   98237 WT6  3414 TIP3 H1   HT     0.417000        1.0080           0
   98238 WT6  3414 TIP3 H2   HT     0.417000        1.0080           0
   98239 WT6  3415 TIP3 OH2  OT    -0.834000       15.9994           0
   98240 WT6  3415 TIP3 H1   HT     0.417000        1.0080           0
   98241 WT6  3415 TIP3 H2   HT     0.417000        1.0080           0
   98242 WT6  3417 TIP3 OH2  OT    -0.834000       15.9994           0
   98243 WT6  3417 TIP3 H1   HT     0.417000        1.0080           0
   98244 WT6  3417 TIP3 H2   HT     0.417000        1.0080           0
   98245 WT6  3422 TIP3 OH2  OT    -0.834000       15.9994           0
   98246 WT6  3422 TIP3 H1   HT     0.417000        1.0080           0
   98247 WT6  3422 TIP3 H2   HT     0.417000        1.0080           0
   98248 WT6  3424 TIP3 OH2  OT    -0.834000       15.9994           0
   98249 WT6  3424 TIP3 H1   HT     0.417000        1.0080           0
   98250 WT6  3424 TIP3 H2   HT     0.417000        1.0080           0
   98251 WT6  3426 TIP3 OH2  OT    -0.834000       15.9994           0
   98252 WT6  3426 TIP3 H1   HT     0.417000        1.0080           0
   98253 WT6  3426 TIP3 H2   HT     0.417000        1.0080           0
   98254 WT6  3427 TIP3 OH2  OT    -0.834000       15.9994           0
   98255 WT6  3427 TIP3 H1   HT     0.417000        1.0080           0
   98256 WT6  3427 TIP3 H2   HT     0.417000        1.0080           0
   98257 WT6  3428 TIP3 OH2  OT    -0.834000       15.9994           0
   98258 WT6  3428 TIP3 H1   HT     0.417000        1.0080           0
   98259 WT6  3428 TIP3 H2   HT     0.417000        1.0080           0
   98260 WT6  3429 TIP3 OH2  OT    -0.834000       15.9994           0
   98261 WT6  3429 TIP3 H1   HT     0.417000        1.0080           0
   98262 WT6  3429 TIP3 H2   HT     0.417000        1.0080           0
   98263 WT6  3430 TIP3 OH2  OT    -0.834000       15.9994           0
   98264 WT6  3430 TIP3 H1   HT     0.417000        1.0080           0
   98265 WT6  3430 TIP3 H2   HT     0.417000        1.0080           0
   98266 WT6  3431 TIP3 OH2  OT    -0.834000       15.9994           0
   98267 WT6  3431 TIP3 H1   HT     0.417000        1.0080           0
   98268 WT6  3431 TIP3 H2   HT     0.417000        1.0080           0
   98269 WT6  3432 TIP3 OH2  OT    -0.834000       15.9994           0
   98270 WT6  3432 TIP3 H1   HT     0.417000        1.0080           0
   98271 WT6  3432 TIP3 H2   HT     0.417000        1.0080           0
   98272 WT6  3433 TIP3 OH2  OT    -0.834000       15.9994           0
   98273 WT6  3433 TIP3 H1   HT     0.417000        1.0080           0
   98274 WT6  3433 TIP3 H2   HT     0.417000        1.0080           0
   98275 WT6  3434 TIP3 OH2  OT    -0.834000       15.9994           0
   98276 WT6  3434 TIP3 H1   HT     0.417000        1.0080           0
   98277 WT6  3434 TIP3 H2   HT     0.417000        1.0080           0
   98278 WT6  3435 TIP3 OH2  OT    -0.834000       15.9994           0
   98279 WT6  3435 TIP3 H1   HT     0.417000        1.0080           0
   98280 WT6  3435 TIP3 H2   HT     0.417000        1.0080           0
   98281 WT6  3437 TIP3 OH2  OT    -0.834000       15.9994           0
   98282 WT6  3437 TIP3 H1   HT     0.417000        1.0080           0
   98283 WT6  3437 TIP3 H2   HT     0.417000        1.0080           0
   98284 WT6  3442 TIP3 OH2  OT    -0.834000       15.9994           0
   98285 WT6  3442 TIP3 H1   HT     0.417000        1.0080           0
   98286 WT6  3442 TIP3 H2   HT     0.417000        1.0080           0
   98287 WT6  3443 TIP3 OH2  OT    -0.834000       15.9994           0
   98288 WT6  3443 TIP3 H1   HT     0.417000        1.0080           0
   98289 WT6  3443 TIP3 H2   HT     0.417000        1.0080           0
   98290 WT6  3444 TIP3 OH2  OT    -0.834000       15.9994           0
   98291 WT6  3444 TIP3 H1   HT     0.417000        1.0080           0
   98292 WT6  3444 TIP3 H2   HT     0.417000        1.0080           0
   98293 WT6  3445 TIP3 OH2  OT    -0.834000       15.9994           0
   98294 WT6  3445 TIP3 H1   HT     0.417000        1.0080           0
   98295 WT6  3445 TIP3 H2   HT     0.417000        1.0080           0
   98296 WT6  3446 TIP3 OH2  OT    -0.834000       15.9994           0
   98297 WT6  3446 TIP3 H1   HT     0.417000        1.0080           0
   98298 WT6  3446 TIP3 H2   HT     0.417000        1.0080           0
   98299 WT6  3447 TIP3 OH2  OT    -0.834000       15.9994           0
   98300 WT6  3447 TIP3 H1   HT     0.417000        1.0080           0
   98301 WT6  3447 TIP3 H2   HT     0.417000        1.0080           0
   98302 WT6  3448 TIP3 OH2  OT    -0.834000       15.9994           0
   98303 WT6  3448 TIP3 H1   HT     0.417000        1.0080           0
   98304 WT6  3448 TIP3 H2   HT     0.417000        1.0080           0
   98305 WT6  3449 TIP3 OH2  OT    -0.834000       15.9994           0
   98306 WT6  3449 TIP3 H1   HT     0.417000        1.0080           0
   98307 WT6  3449 TIP3 H2   HT     0.417000        1.0080           0
   98308 WT6  3450 TIP3 OH2  OT    -0.834000       15.9994           0
   98309 WT6  3450 TIP3 H1   HT     0.417000        1.0080           0
   98310 WT6  3450 TIP3 H2   HT     0.417000        1.0080           0
   98311 WT6  3451 TIP3 OH2  OT    -0.834000       15.9994           0
   98312 WT6  3451 TIP3 H1   HT     0.417000        1.0080           0
   98313 WT6  3451 TIP3 H2   HT     0.417000        1.0080           0
   98314 WT6  3452 TIP3 OH2  OT    -0.834000       15.9994           0
   98315 WT6  3452 TIP3 H1   HT     0.417000        1.0080           0
   98316 WT6  3452 TIP3 H2   HT     0.417000        1.0080           0
   98317 WT6  3453 TIP3 OH2  OT    -0.834000       15.9994           0
   98318 WT6  3453 TIP3 H1   HT     0.417000        1.0080           0
   98319 WT6  3453 TIP3 H2   HT     0.417000        1.0080           0
   98320 WT6  3454 TIP3 OH2  OT    -0.834000       15.9994           0
   98321 WT6  3454 TIP3 H1   HT     0.417000        1.0080           0
   98322 WT6  3454 TIP3 H2   HT     0.417000        1.0080           0
   98323 WT6  3455 TIP3 OH2  OT    -0.834000       15.9994           0
   98324 WT6  3455 TIP3 H1   HT     0.417000        1.0080           0
   98325 WT6  3455 TIP3 H2   HT     0.417000        1.0080           0
   98326 WT6  3456 TIP3 OH2  OT    -0.834000       15.9994           0
   98327 WT6  3456 TIP3 H1   HT     0.417000        1.0080           0
   98328 WT6  3456 TIP3 H2   HT     0.417000        1.0080           0
   98329 WT6  3460 TIP3 OH2  OT    -0.834000       15.9994           0
   98330 WT6  3460 TIP3 H1   HT     0.417000        1.0080           0
   98331 WT6  3460 TIP3 H2   HT     0.417000        1.0080           0
   98332 WT6  3461 TIP3 OH2  OT    -0.834000       15.9994           0
   98333 WT6  3461 TIP3 H1   HT     0.417000        1.0080           0
   98334 WT6  3461 TIP3 H2   HT     0.417000        1.0080           0
   98335 WT6  3462 TIP3 OH2  OT    -0.834000       15.9994           0
   98336 WT6  3462 TIP3 H1   HT     0.417000        1.0080           0
   98337 WT6  3462 TIP3 H2   HT     0.417000        1.0080           0
   98338 WT6  3465 TIP3 OH2  OT    -0.834000       15.9994           0
   98339 WT6  3465 TIP3 H1   HT     0.417000        1.0080           0
   98340 WT6  3465 TIP3 H2   HT     0.417000        1.0080           0
   98341 WT6  3466 TIP3 OH2  OT    -0.834000       15.9994           0
   98342 WT6  3466 TIP3 H1   HT     0.417000        1.0080           0
   98343 WT6  3466 TIP3 H2   HT     0.417000        1.0080           0
   98344 WT6  3467 TIP3 OH2  OT    -0.834000       15.9994           0
   98345 WT6  3467 TIP3 H1   HT     0.417000        1.0080           0
   98346 WT6  3467 TIP3 H2   HT     0.417000        1.0080           0
   98347 WT6  3469 TIP3 OH2  OT    -0.834000       15.9994           0
   98348 WT6  3469 TIP3 H1   HT     0.417000        1.0080           0
   98349 WT6  3469 TIP3 H2   HT     0.417000        1.0080           0
   98350 WT6  3470 TIP3 OH2  OT    -0.834000       15.9994           0
   98351 WT6  3470 TIP3 H1   HT     0.417000        1.0080           0
   98352 WT6  3470 TIP3 H2   HT     0.417000        1.0080           0
   98353 WT6  3471 TIP3 OH2  OT    -0.834000       15.9994           0
   98354 WT6  3471 TIP3 H1   HT     0.417000        1.0080           0
   98355 WT6  3471 TIP3 H2   HT     0.417000        1.0080           0
   98356 WT6  3472 TIP3 OH2  OT    -0.834000       15.9994           0
   98357 WT6  3472 TIP3 H1   HT     0.417000        1.0080           0
   98358 WT6  3472 TIP3 H2   HT     0.417000        1.0080           0
   98359 WT6  3473 TIP3 OH2  OT    -0.834000       15.9994           0
   98360 WT6  3473 TIP3 H1   HT     0.417000        1.0080           0
   98361 WT6  3473 TIP3 H2   HT     0.417000        1.0080           0
   98362 WT6  3474 TIP3 OH2  OT    -0.834000       15.9994           0
   98363 WT6  3474 TIP3 H1   HT     0.417000        1.0080           0
   98364 WT6  3474 TIP3 H2   HT     0.417000        1.0080           0
   98365 WT6  3475 TIP3 OH2  OT    -0.834000       15.9994           0
   98366 WT6  3475 TIP3 H1   HT     0.417000        1.0080           0
   98367 WT6  3475 TIP3 H2   HT     0.417000        1.0080           0
   98368 WT6  3476 TIP3 OH2  OT    -0.834000       15.9994           0
   98369 WT6  3476 TIP3 H1   HT     0.417000        1.0080           0
   98370 WT6  3476 TIP3 H2   HT     0.417000        1.0080           0
   98371 WT6  3478 TIP3 OH2  OT    -0.834000       15.9994           0
   98372 WT6  3478 TIP3 H1   HT     0.417000        1.0080           0
   98373 WT6  3478 TIP3 H2   HT     0.417000        1.0080           0
   98374 WT6  3479 TIP3 OH2  OT    -0.834000       15.9994           0
   98375 WT6  3479 TIP3 H1   HT     0.417000        1.0080           0
   98376 WT6  3479 TIP3 H2   HT     0.417000        1.0080           0
   98377 WT6  3484 TIP3 OH2  OT    -0.834000       15.9994           0
   98378 WT6  3484 TIP3 H1   HT     0.417000        1.0080           0
   98379 WT6  3484 TIP3 H2   HT     0.417000        1.0080           0
   98380 WT6  3486 TIP3 OH2  OT    -0.834000       15.9994           0
   98381 WT6  3486 TIP3 H1   HT     0.417000        1.0080           0
   98382 WT6  3486 TIP3 H2   HT     0.417000        1.0080           0
   98383 WT6  3488 TIP3 OH2  OT    -0.834000       15.9994           0
   98384 WT6  3488 TIP3 H1   HT     0.417000        1.0080           0
   98385 WT6  3488 TIP3 H2   HT     0.417000        1.0080           0
   98386 WT6  3489 TIP3 OH2  OT    -0.834000       15.9994           0
   98387 WT6  3489 TIP3 H1   HT     0.417000        1.0080           0
   98388 WT6  3489 TIP3 H2   HT     0.417000        1.0080           0
   98389 WT6  3490 TIP3 OH2  OT    -0.834000       15.9994           0
   98390 WT6  3490 TIP3 H1   HT     0.417000        1.0080           0
   98391 WT6  3490 TIP3 H2   HT     0.417000        1.0080           0
   98392 WT6  3491 TIP3 OH2  OT    -0.834000       15.9994           0
   98393 WT6  3491 TIP3 H1   HT     0.417000        1.0080           0
   98394 WT6  3491 TIP3 H2   HT     0.417000        1.0080           0
   98395 WT6  3492 TIP3 OH2  OT    -0.834000       15.9994           0
   98396 WT6  3492 TIP3 H1   HT     0.417000        1.0080           0
   98397 WT6  3492 TIP3 H2   HT     0.417000        1.0080           0
   98398 WT6  3493 TIP3 OH2  OT    -0.834000       15.9994           0
   98399 WT6  3493 TIP3 H1   HT     0.417000        1.0080           0
   98400 WT6  3493 TIP3 H2   HT     0.417000        1.0080           0
   98401 WT6  3494 TIP3 OH2  OT    -0.834000       15.9994           0
   98402 WT6  3494 TIP3 H1   HT     0.417000        1.0080           0
   98403 WT6  3494 TIP3 H2   HT     0.417000        1.0080           0
   98404 WT6  3495 TIP3 OH2  OT    -0.834000       15.9994           0
   98405 WT6  3495 TIP3 H1   HT     0.417000        1.0080           0
   98406 WT6  3495 TIP3 H2   HT     0.417000        1.0080           0
   98407 WT6  3496 TIP3 OH2  OT    -0.834000       15.9994           0
   98408 WT6  3496 TIP3 H1   HT     0.417000        1.0080           0
   98409 WT6  3496 TIP3 H2   HT     0.417000        1.0080           0
   98410 WT6  3498 TIP3 OH2  OT    -0.834000       15.9994           0
   98411 WT6  3498 TIP3 H1   HT     0.417000        1.0080           0
   98412 WT6  3498 TIP3 H2   HT     0.417000        1.0080           0
   98413 WT6  3499 TIP3 OH2  OT    -0.834000       15.9994           0
   98414 WT6  3499 TIP3 H1   HT     0.417000        1.0080           0
   98415 WT6  3499 TIP3 H2   HT     0.417000        1.0080           0
   98416 WT6  3500 TIP3 OH2  OT    -0.834000       15.9994           0
   98417 WT6  3500 TIP3 H1   HT     0.417000        1.0080           0
   98418 WT6  3500 TIP3 H2   HT     0.417000        1.0080           0
   98419 WT6  3502 TIP3 OH2  OT    -0.834000       15.9994           0
   98420 WT6  3502 TIP3 H1   HT     0.417000        1.0080           0
   98421 WT6  3502 TIP3 H2   HT     0.417000        1.0080           0
   98422 WT6  3503 TIP3 OH2  OT    -0.834000       15.9994           0
   98423 WT6  3503 TIP3 H1   HT     0.417000        1.0080           0
   98424 WT6  3503 TIP3 H2   HT     0.417000        1.0080           0
   98425 WT6  3504 TIP3 OH2  OT    -0.834000       15.9994           0
   98426 WT6  3504 TIP3 H1   HT     0.417000        1.0080           0
   98427 WT6  3504 TIP3 H2   HT     0.417000        1.0080           0
   98428 WT6  3508 TIP3 OH2  OT    -0.834000       15.9994           0
   98429 WT6  3508 TIP3 H1   HT     0.417000        1.0080           0
   98430 WT6  3508 TIP3 H2   HT     0.417000        1.0080           0
   98431 WT6  3510 TIP3 OH2  OT    -0.834000       15.9994           0
   98432 WT6  3510 TIP3 H1   HT     0.417000        1.0080           0
   98433 WT6  3510 TIP3 H2   HT     0.417000        1.0080           0
   98434 WT6  3511 TIP3 OH2  OT    -0.834000       15.9994           0
   98435 WT6  3511 TIP3 H1   HT     0.417000        1.0080           0
   98436 WT6  3511 TIP3 H2   HT     0.417000        1.0080           0
   98437 WT6  3512 TIP3 OH2  OT    -0.834000       15.9994           0
   98438 WT6  3512 TIP3 H1   HT     0.417000        1.0080           0
   98439 WT6  3512 TIP3 H2   HT     0.417000        1.0080           0
   98440 WT6  3513 TIP3 OH2  OT    -0.834000       15.9994           0
   98441 WT6  3513 TIP3 H1   HT     0.417000        1.0080           0
   98442 WT6  3513 TIP3 H2   HT     0.417000        1.0080           0
   98443 WT6  3515 TIP3 OH2  OT    -0.834000       15.9994           0
   98444 WT6  3515 TIP3 H1   HT     0.417000        1.0080           0
   98445 WT6  3515 TIP3 H2   HT     0.417000        1.0080           0
   98446 WT6  3516 TIP3 OH2  OT    -0.834000       15.9994           0
   98447 WT6  3516 TIP3 H1   HT     0.417000        1.0080           0
   98448 WT6  3516 TIP3 H2   HT     0.417000        1.0080           0
   98449 WT6  3517 TIP3 OH2  OT    -0.834000       15.9994           0
   98450 WT6  3517 TIP3 H1   HT     0.417000        1.0080           0
   98451 WT6  3517 TIP3 H2   HT     0.417000        1.0080           0
   98452 WT6  3518 TIP3 OH2  OT    -0.834000       15.9994           0
   98453 WT6  3518 TIP3 H1   HT     0.417000        1.0080           0
   98454 WT6  3518 TIP3 H2   HT     0.417000        1.0080           0
   98455 WT6  3519 TIP3 OH2  OT    -0.834000       15.9994           0
   98456 WT6  3519 TIP3 H1   HT     0.417000        1.0080           0
   98457 WT6  3519 TIP3 H2   HT     0.417000        1.0080           0
   98458 WT6  3520 TIP3 OH2  OT    -0.834000       15.9994           0
   98459 WT6  3520 TIP3 H1   HT     0.417000        1.0080           0
   98460 WT6  3520 TIP3 H2   HT     0.417000        1.0080           0
   98461 WT6  3526 TIP3 OH2  OT    -0.834000       15.9994           0
   98462 WT6  3526 TIP3 H1   HT     0.417000        1.0080           0
   98463 WT6  3526 TIP3 H2   HT     0.417000        1.0080           0
   98464 WT6  3527 TIP3 OH2  OT    -0.834000       15.9994           0
   98465 WT6  3527 TIP3 H1   HT     0.417000        1.0080           0
   98466 WT6  3527 TIP3 H2   HT     0.417000        1.0080           0
   98467 WT6  3530 TIP3 OH2  OT    -0.834000       15.9994           0
   98468 WT6  3530 TIP3 H1   HT     0.417000        1.0080           0
   98469 WT6  3530 TIP3 H2   HT     0.417000        1.0080           0
   98470 WT6  3531 TIP3 OH2  OT    -0.834000       15.9994           0
   98471 WT6  3531 TIP3 H1   HT     0.417000        1.0080           0
   98472 WT6  3531 TIP3 H2   HT     0.417000        1.0080           0
   98473 WT6  3532 TIP3 OH2  OT    -0.834000       15.9994           0
   98474 WT6  3532 TIP3 H1   HT     0.417000        1.0080           0
   98475 WT6  3532 TIP3 H2   HT     0.417000        1.0080           0
   98476 WT6  3533 TIP3 OH2  OT    -0.834000       15.9994           0
   98477 WT6  3533 TIP3 H1   HT     0.417000        1.0080           0
   98478 WT6  3533 TIP3 H2   HT     0.417000        1.0080           0
   98479 WT6  3534 TIP3 OH2  OT    -0.834000       15.9994           0
   98480 WT6  3534 TIP3 H1   HT     0.417000        1.0080           0
   98481 WT6  3534 TIP3 H2   HT     0.417000        1.0080           0
   98482 WT6  3535 TIP3 OH2  OT    -0.834000       15.9994           0
   98483 WT6  3535 TIP3 H1   HT     0.417000        1.0080           0
   98484 WT6  3535 TIP3 H2   HT     0.417000        1.0080           0
   98485 WT6  3536 TIP3 OH2  OT    -0.834000       15.9994           0
   98486 WT6  3536 TIP3 H1   HT     0.417000        1.0080           0
   98487 WT6  3536 TIP3 H2   HT     0.417000        1.0080           0
   98488 WT6  3537 TIP3 OH2  OT    -0.834000       15.9994           0
   98489 WT6  3537 TIP3 H1   HT     0.417000        1.0080           0
   98490 WT6  3537 TIP3 H2   HT     0.417000        1.0080           0
   98491 WT6  3538 TIP3 OH2  OT    -0.834000       15.9994           0
   98492 WT6  3538 TIP3 H1   HT     0.417000        1.0080           0
   98493 WT6  3538 TIP3 H2   HT     0.417000        1.0080           0
   98494 WT6  3539 TIP3 OH2  OT    -0.834000       15.9994           0
   98495 WT6  3539 TIP3 H1   HT     0.417000        1.0080           0
   98496 WT6  3539 TIP3 H2   HT     0.417000        1.0080           0
   98497 WT6  3540 TIP3 OH2  OT    -0.834000       15.9994           0
   98498 WT6  3540 TIP3 H1   HT     0.417000        1.0080           0
   98499 WT6  3540 TIP3 H2   HT     0.417000        1.0080           0
   98500 WT6  3541 TIP3 OH2  OT    -0.834000       15.9994           0
   98501 WT6  3541 TIP3 H1   HT     0.417000        1.0080           0
   98502 WT6  3541 TIP3 H2   HT     0.417000        1.0080           0
   98503 WT6  3542 TIP3 OH2  OT    -0.834000       15.9994           0
   98504 WT6  3542 TIP3 H1   HT     0.417000        1.0080           0
   98505 WT6  3542 TIP3 H2   HT     0.417000        1.0080           0
   98506 WT6  3545 TIP3 OH2  OT    -0.834000       15.9994           0
   98507 WT6  3545 TIP3 H1   HT     0.417000        1.0080           0
   98508 WT6  3545 TIP3 H2   HT     0.417000        1.0080           0
   98509 WT6  3548 TIP3 OH2  OT    -0.834000       15.9994           0
   98510 WT6  3548 TIP3 H1   HT     0.417000        1.0080           0
   98511 WT6  3548 TIP3 H2   HT     0.417000        1.0080           0
   98512 WT6  3549 TIP3 OH2  OT    -0.834000       15.9994           0
   98513 WT6  3549 TIP3 H1   HT     0.417000        1.0080           0
   98514 WT6  3549 TIP3 H2   HT     0.417000        1.0080           0
   98515 WT6  3550 TIP3 OH2  OT    -0.834000       15.9994           0
   98516 WT6  3550 TIP3 H1   HT     0.417000        1.0080           0
   98517 WT6  3550 TIP3 H2   HT     0.417000        1.0080           0
   98518 WT6  3551 TIP3 OH2  OT    -0.834000       15.9994           0
   98519 WT6  3551 TIP3 H1   HT     0.417000        1.0080           0
   98520 WT6  3551 TIP3 H2   HT     0.417000        1.0080           0
   98521 WT6  3554 TIP3 OH2  OT    -0.834000       15.9994           0
   98522 WT6  3554 TIP3 H1   HT     0.417000        1.0080           0
   98523 WT6  3554 TIP3 H2   HT     0.417000        1.0080           0
   98524 WT6  3555 TIP3 OH2  OT    -0.834000       15.9994           0
   98525 WT6  3555 TIP3 H1   HT     0.417000        1.0080           0
   98526 WT6  3555 TIP3 H2   HT     0.417000        1.0080           0
   98527 WT6  3556 TIP3 OH2  OT    -0.834000       15.9994           0
   98528 WT6  3556 TIP3 H1   HT     0.417000        1.0080           0
   98529 WT6  3556 TIP3 H2   HT     0.417000        1.0080           0
   98530 WT6  3557 TIP3 OH2  OT    -0.834000       15.9994           0
   98531 WT6  3557 TIP3 H1   HT     0.417000        1.0080           0
   98532 WT6  3557 TIP3 H2   HT     0.417000        1.0080           0
   98533 WT6  3558 TIP3 OH2  OT    -0.834000       15.9994           0
   98534 WT6  3558 TIP3 H1   HT     0.417000        1.0080           0
   98535 WT6  3558 TIP3 H2   HT     0.417000        1.0080           0
   98536 WT6  3559 TIP3 OH2  OT    -0.834000       15.9994           0
   98537 WT6  3559 TIP3 H1   HT     0.417000        1.0080           0
   98538 WT6  3559 TIP3 H2   HT     0.417000        1.0080           0
   98539 WT6  3560 TIP3 OH2  OT    -0.834000       15.9994           0
   98540 WT6  3560 TIP3 H1   HT     0.417000        1.0080           0
   98541 WT6  3560 TIP3 H2   HT     0.417000        1.0080           0
   98542 WT6  3561 TIP3 OH2  OT    -0.834000       15.9994           0
   98543 WT6  3561 TIP3 H1   HT     0.417000        1.0080           0
   98544 WT6  3561 TIP3 H2   HT     0.417000        1.0080           0
   98545 WT6  3562 TIP3 OH2  OT    -0.834000       15.9994           0
   98546 WT6  3562 TIP3 H1   HT     0.417000        1.0080           0
   98547 WT6  3562 TIP3 H2   HT     0.417000        1.0080           0
   98548 WT6  3563 TIP3 OH2  OT    -0.834000       15.9994           0
   98549 WT6  3563 TIP3 H1   HT     0.417000        1.0080           0
   98550 WT6  3563 TIP3 H2   HT     0.417000        1.0080           0
   98551 WT6  3565 TIP3 OH2  OT    -0.834000       15.9994           0
   98552 WT6  3565 TIP3 H1   HT     0.417000        1.0080           0
   98553 WT6  3565 TIP3 H2   HT     0.417000        1.0080           0
   98554 WT6  3569 TIP3 OH2  OT    -0.834000       15.9994           0
   98555 WT6  3569 TIP3 H1   HT     0.417000        1.0080           0
   98556 WT6  3569 TIP3 H2   HT     0.417000        1.0080           0
   98557 WT6  3570 TIP3 OH2  OT    -0.834000       15.9994           0
   98558 WT6  3570 TIP3 H1   HT     0.417000        1.0080           0
   98559 WT6  3570 TIP3 H2   HT     0.417000        1.0080           0
   98560 WT6  3572 TIP3 OH2  OT    -0.834000       15.9994           0
   98561 WT6  3572 TIP3 H1   HT     0.417000        1.0080           0
   98562 WT6  3572 TIP3 H2   HT     0.417000        1.0080           0
   98563 WT6  3573 TIP3 OH2  OT    -0.834000       15.9994           0
   98564 WT6  3573 TIP3 H1   HT     0.417000        1.0080           0
   98565 WT6  3573 TIP3 H2   HT     0.417000        1.0080           0
   98566 WT6  3574 TIP3 OH2  OT    -0.834000       15.9994           0
   98567 WT6  3574 TIP3 H1   HT     0.417000        1.0080           0
   98568 WT6  3574 TIP3 H2   HT     0.417000        1.0080           0
   98569 WT6  3575 TIP3 OH2  OT    -0.834000       15.9994           0
   98570 WT6  3575 TIP3 H1   HT     0.417000        1.0080           0
   98571 WT6  3575 TIP3 H2   HT     0.417000        1.0080           0
   98572 WT6  3576 TIP3 OH2  OT    -0.834000       15.9994           0
   98573 WT6  3576 TIP3 H1   HT     0.417000        1.0080           0
   98574 WT6  3576 TIP3 H2   HT     0.417000        1.0080           0
   98575 WT6  3577 TIP3 OH2  OT    -0.834000       15.9994           0
   98576 WT6  3577 TIP3 H1   HT     0.417000        1.0080           0
   98577 WT6  3577 TIP3 H2   HT     0.417000        1.0080           0
   98578 WT6  3578 TIP3 OH2  OT    -0.834000       15.9994           0
   98579 WT6  3578 TIP3 H1   HT     0.417000        1.0080           0
   98580 WT6  3578 TIP3 H2   HT     0.417000        1.0080           0
   98581 WT6  3579 TIP3 OH2  OT    -0.834000       15.9994           0
   98582 WT6  3579 TIP3 H1   HT     0.417000        1.0080           0
   98583 WT6  3579 TIP3 H2   HT     0.417000        1.0080           0
   98584 WT6  3580 TIP3 OH2  OT    -0.834000       15.9994           0
   98585 WT6  3580 TIP3 H1   HT     0.417000        1.0080           0
   98586 WT6  3580 TIP3 H2   HT     0.417000        1.0080           0
   98587 WT6  3581 TIP3 OH2  OT    -0.834000       15.9994           0
   98588 WT6  3581 TIP3 H1   HT     0.417000        1.0080           0
   98589 WT6  3581 TIP3 H2   HT     0.417000        1.0080           0
   98590 WT6  3582 TIP3 OH2  OT    -0.834000       15.9994           0
   98591 WT6  3582 TIP3 H1   HT     0.417000        1.0080           0
   98592 WT6  3582 TIP3 H2   HT     0.417000        1.0080           0
   98593 WT6  3583 TIP3 OH2  OT    -0.834000       15.9994           0
   98594 WT6  3583 TIP3 H1   HT     0.417000        1.0080           0
   98595 WT6  3583 TIP3 H2   HT     0.417000        1.0080           0
   98596 WT6  3586 TIP3 OH2  OT    -0.834000       15.9994           0
   98597 WT6  3586 TIP3 H1   HT     0.417000        1.0080           0
   98598 WT6  3586 TIP3 H2   HT     0.417000        1.0080           0
   98599 WT6  3591 TIP3 OH2  OT    -0.834000       15.9994           0
   98600 WT6  3591 TIP3 H1   HT     0.417000        1.0080           0
   98601 WT6  3591 TIP3 H2   HT     0.417000        1.0080           0
   98602 WT6  3592 TIP3 OH2  OT    -0.834000       15.9994           0
   98603 WT6  3592 TIP3 H1   HT     0.417000        1.0080           0
   98604 WT6  3592 TIP3 H2   HT     0.417000        1.0080           0
   98605 WT6  3593 TIP3 OH2  OT    -0.834000       15.9994           0
   98606 WT6  3593 TIP3 H1   HT     0.417000        1.0080           0
   98607 WT6  3593 TIP3 H2   HT     0.417000        1.0080           0
   98608 WT6  3594 TIP3 OH2  OT    -0.834000       15.9994           0
   98609 WT6  3594 TIP3 H1   HT     0.417000        1.0080           0
   98610 WT6  3594 TIP3 H2   HT     0.417000        1.0080           0
   98611 WT6  3595 TIP3 OH2  OT    -0.834000       15.9994           0
   98612 WT6  3595 TIP3 H1   HT     0.417000        1.0080           0
   98613 WT6  3595 TIP3 H2   HT     0.417000        1.0080           0
   98614 WT6  3596 TIP3 OH2  OT    -0.834000       15.9994           0
   98615 WT6  3596 TIP3 H1   HT     0.417000        1.0080           0
   98616 WT6  3596 TIP3 H2   HT     0.417000        1.0080           0
   98617 WT6  3597 TIP3 OH2  OT    -0.834000       15.9994           0
   98618 WT6  3597 TIP3 H1   HT     0.417000        1.0080           0
   98619 WT6  3597 TIP3 H2   HT     0.417000        1.0080           0
   98620 WT6  3598 TIP3 OH2  OT    -0.834000       15.9994           0
   98621 WT6  3598 TIP3 H1   HT     0.417000        1.0080           0
   98622 WT6  3598 TIP3 H2   HT     0.417000        1.0080           0
   98623 WT6  3599 TIP3 OH2  OT    -0.834000       15.9994           0
   98624 WT6  3599 TIP3 H1   HT     0.417000        1.0080           0
   98625 WT6  3599 TIP3 H2   HT     0.417000        1.0080           0
   98626 WT6  3600 TIP3 OH2  OT    -0.834000       15.9994           0
   98627 WT6  3600 TIP3 H1   HT     0.417000        1.0080           0
   98628 WT6  3600 TIP3 H2   HT     0.417000        1.0080           0
   98629 WT6  3601 TIP3 OH2  OT    -0.834000       15.9994           0
   98630 WT6  3601 TIP3 H1   HT     0.417000        1.0080           0
   98631 WT6  3601 TIP3 H2   HT     0.417000        1.0080           0
   98632 WT6  3602 TIP3 OH2  OT    -0.834000       15.9994           0
   98633 WT6  3602 TIP3 H1   HT     0.417000        1.0080           0
   98634 WT6  3602 TIP3 H2   HT     0.417000        1.0080           0
   98635 WT6  3603 TIP3 OH2  OT    -0.834000       15.9994           0
   98636 WT6  3603 TIP3 H1   HT     0.417000        1.0080           0
   98637 WT6  3603 TIP3 H2   HT     0.417000        1.0080           0
   98638 WT6  3604 TIP3 OH2  OT    -0.834000       15.9994           0
   98639 WT6  3604 TIP3 H1   HT     0.417000        1.0080           0
   98640 WT6  3604 TIP3 H2   HT     0.417000        1.0080           0
   98641 WT6  3612 TIP3 OH2  OT    -0.834000       15.9994           0
   98642 WT6  3612 TIP3 H1   HT     0.417000        1.0080           0
   98643 WT6  3612 TIP3 H2   HT     0.417000        1.0080           0
   98644 WT6  3614 TIP3 OH2  OT    -0.834000       15.9994           0
   98645 WT6  3614 TIP3 H1   HT     0.417000        1.0080           0
   98646 WT6  3614 TIP3 H2   HT     0.417000        1.0080           0
   98647 WT6  3615 TIP3 OH2  OT    -0.834000       15.9994           0
   98648 WT6  3615 TIP3 H1   HT     0.417000        1.0080           0
   98649 WT6  3615 TIP3 H2   HT     0.417000        1.0080           0
   98650 WT6  3616 TIP3 OH2  OT    -0.834000       15.9994           0
   98651 WT6  3616 TIP3 H1   HT     0.417000        1.0080           0
   98652 WT6  3616 TIP3 H2   HT     0.417000        1.0080           0
   98653 WT6  3617 TIP3 OH2  OT    -0.834000       15.9994           0
   98654 WT6  3617 TIP3 H1   HT     0.417000        1.0080           0
   98655 WT6  3617 TIP3 H2   HT     0.417000        1.0080           0
   98656 WT6  3618 TIP3 OH2  OT    -0.834000       15.9994           0
   98657 WT6  3618 TIP3 H1   HT     0.417000        1.0080           0
   98658 WT6  3618 TIP3 H2   HT     0.417000        1.0080           0
   98659 WT6  3619 TIP3 OH2  OT    -0.834000       15.9994           0
   98660 WT6  3619 TIP3 H1   HT     0.417000        1.0080           0
   98661 WT6  3619 TIP3 H2   HT     0.417000        1.0080           0
   98662 WT6  3620 TIP3 OH2  OT    -0.834000       15.9994           0
   98663 WT6  3620 TIP3 H1   HT     0.417000        1.0080           0
   98664 WT6  3620 TIP3 H2   HT     0.417000        1.0080           0
   98665 WT6  3621 TIP3 OH2  OT    -0.834000       15.9994           0
   98666 WT6  3621 TIP3 H1   HT     0.417000        1.0080           0
   98667 WT6  3621 TIP3 H2   HT     0.417000        1.0080           0
   98668 WT6  3622 TIP3 OH2  OT    -0.834000       15.9994           0
   98669 WT6  3622 TIP3 H1   HT     0.417000        1.0080           0
   98670 WT6  3622 TIP3 H2   HT     0.417000        1.0080           0
   98671 WT6  3623 TIP3 OH2  OT    -0.834000       15.9994           0
   98672 WT6  3623 TIP3 H1   HT     0.417000        1.0080           0
   98673 WT6  3623 TIP3 H2   HT     0.417000        1.0080           0
   98674 WT6  3625 TIP3 OH2  OT    -0.834000       15.9994           0
   98675 WT6  3625 TIP3 H1   HT     0.417000        1.0080           0
   98676 WT6  3625 TIP3 H2   HT     0.417000        1.0080           0
   98677 WT6  3626 TIP3 OH2  OT    -0.834000       15.9994           0
   98678 WT6  3626 TIP3 H1   HT     0.417000        1.0080           0
   98679 WT6  3626 TIP3 H2   HT     0.417000        1.0080           0
   98680 WT6  3627 TIP3 OH2  OT    -0.834000       15.9994           0
   98681 WT6  3627 TIP3 H1   HT     0.417000        1.0080           0
   98682 WT6  3627 TIP3 H2   HT     0.417000        1.0080           0
   98683 WT6  3628 TIP3 OH2  OT    -0.834000       15.9994           0
   98684 WT6  3628 TIP3 H1   HT     0.417000        1.0080           0
   98685 WT6  3628 TIP3 H2   HT     0.417000        1.0080           0
   98686 WT6  3633 TIP3 OH2  OT    -0.834000       15.9994           0
   98687 WT6  3633 TIP3 H1   HT     0.417000        1.0080           0
   98688 WT6  3633 TIP3 H2   HT     0.417000        1.0080           0
   98689 WT6  3634 TIP3 OH2  OT    -0.834000       15.9994           0
   98690 WT6  3634 TIP3 H1   HT     0.417000        1.0080           0
   98691 WT6  3634 TIP3 H2   HT     0.417000        1.0080           0
   98692 WT6  3636 TIP3 OH2  OT    -0.834000       15.9994           0
   98693 WT6  3636 TIP3 H1   HT     0.417000        1.0080           0
   98694 WT6  3636 TIP3 H2   HT     0.417000        1.0080           0
   98695 WT6  3638 TIP3 OH2  OT    -0.834000       15.9994           0
   98696 WT6  3638 TIP3 H1   HT     0.417000        1.0080           0
   98697 WT6  3638 TIP3 H2   HT     0.417000        1.0080           0
   98698 WT6  3639 TIP3 OH2  OT    -0.834000       15.9994           0
   98699 WT6  3639 TIP3 H1   HT     0.417000        1.0080           0
   98700 WT6  3639 TIP3 H2   HT     0.417000        1.0080           0
   98701 WT6  3640 TIP3 OH2  OT    -0.834000       15.9994           0
   98702 WT6  3640 TIP3 H1   HT     0.417000        1.0080           0
   98703 WT6  3640 TIP3 H2   HT     0.417000        1.0080           0
   98704 WT6  3641 TIP3 OH2  OT    -0.834000       15.9994           0
   98705 WT6  3641 TIP3 H1   HT     0.417000        1.0080           0
   98706 WT6  3641 TIP3 H2   HT     0.417000        1.0080           0
   98707 WT6  3642 TIP3 OH2  OT    -0.834000       15.9994           0
   98708 WT6  3642 TIP3 H1   HT     0.417000        1.0080           0
   98709 WT6  3642 TIP3 H2   HT     0.417000        1.0080           0
   98710 WT6  3643 TIP3 OH2  OT    -0.834000       15.9994           0
   98711 WT6  3643 TIP3 H1   HT     0.417000        1.0080           0
   98712 WT6  3643 TIP3 H2   HT     0.417000        1.0080           0
   98713 WT6  3645 TIP3 OH2  OT    -0.834000       15.9994           0
   98714 WT6  3645 TIP3 H1   HT     0.417000        1.0080           0
   98715 WT6  3645 TIP3 H2   HT     0.417000        1.0080           0
   98716 WT6  3646 TIP3 OH2  OT    -0.834000       15.9994           0
   98717 WT6  3646 TIP3 H1   HT     0.417000        1.0080           0
   98718 WT6  3646 TIP3 H2   HT     0.417000        1.0080           0
   98719 WT6  3650 TIP3 OH2  OT    -0.834000       15.9994           0
   98720 WT6  3650 TIP3 H1   HT     0.417000        1.0080           0
   98721 WT6  3650 TIP3 H2   HT     0.417000        1.0080           0
   98722 WT6  3651 TIP3 OH2  OT    -0.834000       15.9994           0
   98723 WT6  3651 TIP3 H1   HT     0.417000        1.0080           0
   98724 WT6  3651 TIP3 H2   HT     0.417000        1.0080           0
   98725 WT6  3653 TIP3 OH2  OT    -0.834000       15.9994           0
   98726 WT6  3653 TIP3 H1   HT     0.417000        1.0080           0
   98727 WT6  3653 TIP3 H2   HT     0.417000        1.0080           0
   98728 WT6  3657 TIP3 OH2  OT    -0.834000       15.9994           0
   98729 WT6  3657 TIP3 H1   HT     0.417000        1.0080           0
   98730 WT6  3657 TIP3 H2   HT     0.417000        1.0080           0
   98731 WT6  3658 TIP3 OH2  OT    -0.834000       15.9994           0
   98732 WT6  3658 TIP3 H1   HT     0.417000        1.0080           0
   98733 WT6  3658 TIP3 H2   HT     0.417000        1.0080           0
   98734 WT6  3659 TIP3 OH2  OT    -0.834000       15.9994           0
   98735 WT6  3659 TIP3 H1   HT     0.417000        1.0080           0
   98736 WT6  3659 TIP3 H2   HT     0.417000        1.0080           0
   98737 WT6  3660 TIP3 OH2  OT    -0.834000       15.9994           0
   98738 WT6  3660 TIP3 H1   HT     0.417000        1.0080           0
   98739 WT6  3660 TIP3 H2   HT     0.417000        1.0080           0
   98740 WT6  3661 TIP3 OH2  OT    -0.834000       15.9994           0
   98741 WT6  3661 TIP3 H1   HT     0.417000        1.0080           0
   98742 WT6  3661 TIP3 H2   HT     0.417000        1.0080           0
   98743 WT6  3662 TIP3 OH2  OT    -0.834000       15.9994           0
   98744 WT6  3662 TIP3 H1   HT     0.417000        1.0080           0
   98745 WT6  3662 TIP3 H2   HT     0.417000        1.0080           0
   98746 WT6  3663 TIP3 OH2  OT    -0.834000       15.9994           0
   98747 WT6  3663 TIP3 H1   HT     0.417000        1.0080           0
   98748 WT6  3663 TIP3 H2   HT     0.417000        1.0080           0
   98749 WT6  3664 TIP3 OH2  OT    -0.834000       15.9994           0
   98750 WT6  3664 TIP3 H1   HT     0.417000        1.0080           0
   98751 WT6  3664 TIP3 H2   HT     0.417000        1.0080           0
   98752 WT6  3665 TIP3 OH2  OT    -0.834000       15.9994           0
   98753 WT6  3665 TIP3 H1   HT     0.417000        1.0080           0
   98754 WT6  3665 TIP3 H2   HT     0.417000        1.0080           0
   98755 WT6  3666 TIP3 OH2  OT    -0.834000       15.9994           0
   98756 WT6  3666 TIP3 H1   HT     0.417000        1.0080           0
   98757 WT6  3666 TIP3 H2   HT     0.417000        1.0080           0
   98758 WT6  3667 TIP3 OH2  OT    -0.834000       15.9994           0
   98759 WT6  3667 TIP3 H1   HT     0.417000        1.0080           0
   98760 WT6  3667 TIP3 H2   HT     0.417000        1.0080           0
   98761 WT6  3674 TIP3 OH2  OT    -0.834000       15.9994           0
   98762 WT6  3674 TIP3 H1   HT     0.417000        1.0080           0
   98763 WT6  3674 TIP3 H2   HT     0.417000        1.0080           0
   98764 WT6  3675 TIP3 OH2  OT    -0.834000       15.9994           0
   98765 WT6  3675 TIP3 H1   HT     0.417000        1.0080           0
   98766 WT6  3675 TIP3 H2   HT     0.417000        1.0080           0
   98767 WT6  3677 TIP3 OH2  OT    -0.834000       15.9994           0
   98768 WT6  3677 TIP3 H1   HT     0.417000        1.0080           0
   98769 WT6  3677 TIP3 H2   HT     0.417000        1.0080           0
   98770 WT6  3678 TIP3 OH2  OT    -0.834000       15.9994           0
   98771 WT6  3678 TIP3 H1   HT     0.417000        1.0080           0
   98772 WT6  3678 TIP3 H2   HT     0.417000        1.0080           0
   98773 WT6  3680 TIP3 OH2  OT    -0.834000       15.9994           0
   98774 WT6  3680 TIP3 H1   HT     0.417000        1.0080           0
   98775 WT6  3680 TIP3 H2   HT     0.417000        1.0080           0
   98776 WT6  3681 TIP3 OH2  OT    -0.834000       15.9994           0
   98777 WT6  3681 TIP3 H1   HT     0.417000        1.0080           0
   98778 WT6  3681 TIP3 H2   HT     0.417000        1.0080           0
   98779 WT6  3682 TIP3 OH2  OT    -0.834000       15.9994           0
   98780 WT6  3682 TIP3 H1   HT     0.417000        1.0080           0
   98781 WT6  3682 TIP3 H2   HT     0.417000        1.0080           0
   98782 WT6  3683 TIP3 OH2  OT    -0.834000       15.9994           0
   98783 WT6  3683 TIP3 H1   HT     0.417000        1.0080           0
   98784 WT6  3683 TIP3 H2   HT     0.417000        1.0080           0
   98785 WT6  3684 TIP3 OH2  OT    -0.834000       15.9994           0
   98786 WT6  3684 TIP3 H1   HT     0.417000        1.0080           0
   98787 WT6  3684 TIP3 H2   HT     0.417000        1.0080           0
   98788 WT6  3685 TIP3 OH2  OT    -0.834000       15.9994           0
   98789 WT6  3685 TIP3 H1   HT     0.417000        1.0080           0
   98790 WT6  3685 TIP3 H2   HT     0.417000        1.0080           0
   98791 WT6  3686 TIP3 OH2  OT    -0.834000       15.9994           0
   98792 WT6  3686 TIP3 H1   HT     0.417000        1.0080           0
   98793 WT6  3686 TIP3 H2   HT     0.417000        1.0080           0
   98794 WT6  3687 TIP3 OH2  OT    -0.834000       15.9994           0
   98795 WT6  3687 TIP3 H1   HT     0.417000        1.0080           0
   98796 WT6  3687 TIP3 H2   HT     0.417000        1.0080           0
   98797 WT6  3688 TIP3 OH2  OT    -0.834000       15.9994           0
   98798 WT6  3688 TIP3 H1   HT     0.417000        1.0080           0
   98799 WT6  3688 TIP3 H2   HT     0.417000        1.0080           0
   98800 WT6  3693 TIP3 OH2  OT    -0.834000       15.9994           0
   98801 WT6  3693 TIP3 H1   HT     0.417000        1.0080           0
   98802 WT6  3693 TIP3 H2   HT     0.417000        1.0080           0
   98803 WT6  3697 TIP3 OH2  OT    -0.834000       15.9994           0
   98804 WT6  3697 TIP3 H1   HT     0.417000        1.0080           0
   98805 WT6  3697 TIP3 H2   HT     0.417000        1.0080           0
   98806 WT6  3698 TIP3 OH2  OT    -0.834000       15.9994           0
   98807 WT6  3698 TIP3 H1   HT     0.417000        1.0080           0
   98808 WT6  3698 TIP3 H2   HT     0.417000        1.0080           0
   98809 WT6  3700 TIP3 OH2  OT    -0.834000       15.9994           0
   98810 WT6  3700 TIP3 H1   HT     0.417000        1.0080           0
   98811 WT6  3700 TIP3 H2   HT     0.417000        1.0080           0
   98812 WT6  3701 TIP3 OH2  OT    -0.834000       15.9994           0
   98813 WT6  3701 TIP3 H1   HT     0.417000        1.0080           0
   98814 WT6  3701 TIP3 H2   HT     0.417000        1.0080           0
   98815 WT6  3702 TIP3 OH2  OT    -0.834000       15.9994           0
   98816 WT6  3702 TIP3 H1   HT     0.417000        1.0080           0
   98817 WT6  3702 TIP3 H2   HT     0.417000        1.0080           0
   98818 WT6  3703 TIP3 OH2  OT    -0.834000       15.9994           0
   98819 WT6  3703 TIP3 H1   HT     0.417000        1.0080           0
   98820 WT6  3703 TIP3 H2   HT     0.417000        1.0080           0
   98821 WT6  3704 TIP3 OH2  OT    -0.834000       15.9994           0
   98822 WT6  3704 TIP3 H1   HT     0.417000        1.0080           0
   98823 WT6  3704 TIP3 H2   HT     0.417000        1.0080           0
   98824 WT6  3705 TIP3 OH2  OT    -0.834000       15.9994           0
   98825 WT6  3705 TIP3 H1   HT     0.417000        1.0080           0
   98826 WT6  3705 TIP3 H2   HT     0.417000        1.0080           0
   98827 WT6  3706 TIP3 OH2  OT    -0.834000       15.9994           0
   98828 WT6  3706 TIP3 H1   HT     0.417000        1.0080           0
   98829 WT6  3706 TIP3 H2   HT     0.417000        1.0080           0
   98830 WT6  3707 TIP3 OH2  OT    -0.834000       15.9994           0
   98831 WT6  3707 TIP3 H1   HT     0.417000        1.0080           0
   98832 WT6  3707 TIP3 H2   HT     0.417000        1.0080           0
   98833 WT6  3708 TIP3 OH2  OT    -0.834000       15.9994           0
   98834 WT6  3708 TIP3 H1   HT     0.417000        1.0080           0
   98835 WT6  3708 TIP3 H2   HT     0.417000        1.0080           0
   98836 WT6  3709 TIP3 OH2  OT    -0.834000       15.9994           0
   98837 WT6  3709 TIP3 H1   HT     0.417000        1.0080           0
   98838 WT6  3709 TIP3 H2   HT     0.417000        1.0080           0
   98839 WT6  3710 TIP3 OH2  OT    -0.834000       15.9994           0
   98840 WT6  3710 TIP3 H1   HT     0.417000        1.0080           0
   98841 WT6  3710 TIP3 H2   HT     0.417000        1.0080           0
   98842 WT6  3718 TIP3 OH2  OT    -0.834000       15.9994           0
   98843 WT6  3718 TIP3 H1   HT     0.417000        1.0080           0
   98844 WT6  3718 TIP3 H2   HT     0.417000        1.0080           0
   98845 WT6  3719 TIP3 OH2  OT    -0.834000       15.9994           0
   98846 WT6  3719 TIP3 H1   HT     0.417000        1.0080           0
   98847 WT6  3719 TIP3 H2   HT     0.417000        1.0080           0
   98848 WT6  3720 TIP3 OH2  OT    -0.834000       15.9994           0
   98849 WT6  3720 TIP3 H1   HT     0.417000        1.0080           0
   98850 WT6  3720 TIP3 H2   HT     0.417000        1.0080           0
   98851 WT6  3721 TIP3 OH2  OT    -0.834000       15.9994           0
   98852 WT6  3721 TIP3 H1   HT     0.417000        1.0080           0
   98853 WT6  3721 TIP3 H2   HT     0.417000        1.0080           0
   98854 WT6  3722 TIP3 OH2  OT    -0.834000       15.9994           0
   98855 WT6  3722 TIP3 H1   HT     0.417000        1.0080           0
   98856 WT6  3722 TIP3 H2   HT     0.417000        1.0080           0
   98857 WT6  3723 TIP3 OH2  OT    -0.834000       15.9994           0
   98858 WT6  3723 TIP3 H1   HT     0.417000        1.0080           0
   98859 WT6  3723 TIP3 H2   HT     0.417000        1.0080           0
   98860 WT6  3724 TIP3 OH2  OT    -0.834000       15.9994           0
   98861 WT6  3724 TIP3 H1   HT     0.417000        1.0080           0
   98862 WT6  3724 TIP3 H2   HT     0.417000        1.0080           0
   98863 WT6  3725 TIP3 OH2  OT    -0.834000       15.9994           0
   98864 WT6  3725 TIP3 H1   HT     0.417000        1.0080           0
   98865 WT6  3725 TIP3 H2   HT     0.417000        1.0080           0
   98866 WT6  3726 TIP3 OH2  OT    -0.834000       15.9994           0
   98867 WT6  3726 TIP3 H1   HT     0.417000        1.0080           0
   98868 WT6  3726 TIP3 H2   HT     0.417000        1.0080           0
   98869 WT6  3727 TIP3 OH2  OT    -0.834000       15.9994           0
   98870 WT6  3727 TIP3 H1   HT     0.417000        1.0080           0
   98871 WT6  3727 TIP3 H2   HT     0.417000        1.0080           0
   98872 WT6  3728 TIP3 OH2  OT    -0.834000       15.9994           0
   98873 WT6  3728 TIP3 H1   HT     0.417000        1.0080           0
   98874 WT6  3728 TIP3 H2   HT     0.417000        1.0080           0
   98875 WT6  3729 TIP3 OH2  OT    -0.834000       15.9994           0
   98876 WT6  3729 TIP3 H1   HT     0.417000        1.0080           0
   98877 WT6  3729 TIP3 H2   HT     0.417000        1.0080           0
   98878 WT6  3730 TIP3 OH2  OT    -0.834000       15.9994           0
   98879 WT6  3730 TIP3 H1   HT     0.417000        1.0080           0
   98880 WT6  3730 TIP3 H2   HT     0.417000        1.0080           0
   98881 WT6  3731 TIP3 OH2  OT    -0.834000       15.9994           0
   98882 WT6  3731 TIP3 H1   HT     0.417000        1.0080           0
   98883 WT6  3731 TIP3 H2   HT     0.417000        1.0080           0
   98884 WT6  3732 TIP3 OH2  OT    -0.834000       15.9994           0
   98885 WT6  3732 TIP3 H1   HT     0.417000        1.0080           0
   98886 WT6  3732 TIP3 H2   HT     0.417000        1.0080           0
   98887 WT6  3736 TIP3 OH2  OT    -0.834000       15.9994           0
   98888 WT6  3736 TIP3 H1   HT     0.417000        1.0080           0
   98889 WT6  3736 TIP3 H2   HT     0.417000        1.0080           0
   98890 WT6  3737 TIP3 OH2  OT    -0.834000       15.9994           0
   98891 WT6  3737 TIP3 H1   HT     0.417000        1.0080           0
   98892 WT6  3737 TIP3 H2   HT     0.417000        1.0080           0
   98893 WT6  3740 TIP3 OH2  OT    -0.834000       15.9994           0
   98894 WT6  3740 TIP3 H1   HT     0.417000        1.0080           0
   98895 WT6  3740 TIP3 H2   HT     0.417000        1.0080           0
   98896 WT6  3743 TIP3 OH2  OT    -0.834000       15.9994           0
   98897 WT6  3743 TIP3 H1   HT     0.417000        1.0080           0
   98898 WT6  3743 TIP3 H2   HT     0.417000        1.0080           0
   98899 WT6  3744 TIP3 OH2  OT    -0.834000       15.9994           0
   98900 WT6  3744 TIP3 H1   HT     0.417000        1.0080           0
   98901 WT6  3744 TIP3 H2   HT     0.417000        1.0080           0
   98902 WT6  3745 TIP3 OH2  OT    -0.834000       15.9994           0
   98903 WT6  3745 TIP3 H1   HT     0.417000        1.0080           0
   98904 WT6  3745 TIP3 H2   HT     0.417000        1.0080           0
   98905 WT6  3746 TIP3 OH2  OT    -0.834000       15.9994           0
   98906 WT6  3746 TIP3 H1   HT     0.417000        1.0080           0
   98907 WT6  3746 TIP3 H2   HT     0.417000        1.0080           0
   98908 WT6  3747 TIP3 OH2  OT    -0.834000       15.9994           0
   98909 WT6  3747 TIP3 H1   HT     0.417000        1.0080           0
   98910 WT6  3747 TIP3 H2   HT     0.417000        1.0080           0
   98911 WT6  3748 TIP3 OH2  OT    -0.834000       15.9994           0
   98912 WT6  3748 TIP3 H1   HT     0.417000        1.0080           0
   98913 WT6  3748 TIP3 H2   HT     0.417000        1.0080           0
   98914 WT6  3749 TIP3 OH2  OT    -0.834000       15.9994           0
   98915 WT6  3749 TIP3 H1   HT     0.417000        1.0080           0
   98916 WT6  3749 TIP3 H2   HT     0.417000        1.0080           0
   98917 WT6  3751 TIP3 OH2  OT    -0.834000       15.9994           0
   98918 WT6  3751 TIP3 H1   HT     0.417000        1.0080           0
   98919 WT6  3751 TIP3 H2   HT     0.417000        1.0080           0
   98920 WT6  3752 TIP3 OH2  OT    -0.834000       15.9994           0
   98921 WT6  3752 TIP3 H1   HT     0.417000        1.0080           0
   98922 WT6  3752 TIP3 H2   HT     0.417000        1.0080           0
   98923 WT6  3753 TIP3 OH2  OT    -0.834000       15.9994           0
   98924 WT6  3753 TIP3 H1   HT     0.417000        1.0080           0
   98925 WT6  3753 TIP3 H2   HT     0.417000        1.0080           0
   98926 WT6  3757 TIP3 OH2  OT    -0.834000       15.9994           0
   98927 WT6  3757 TIP3 H1   HT     0.417000        1.0080           0
   98928 WT6  3757 TIP3 H2   HT     0.417000        1.0080           0
   98929 WT6  3758 TIP3 OH2  OT    -0.834000       15.9994           0
   98930 WT6  3758 TIP3 H1   HT     0.417000        1.0080           0
   98931 WT6  3758 TIP3 H2   HT     0.417000        1.0080           0
   98932 WT6  3761 TIP3 OH2  OT    -0.834000       15.9994           0
   98933 WT6  3761 TIP3 H1   HT     0.417000        1.0080           0
   98934 WT6  3761 TIP3 H2   HT     0.417000        1.0080           0
   98935 WT6  3762 TIP3 OH2  OT    -0.834000       15.9994           0
   98936 WT6  3762 TIP3 H1   HT     0.417000        1.0080           0
   98937 WT6  3762 TIP3 H2   HT     0.417000        1.0080           0
   98938 WT6  3763 TIP3 OH2  OT    -0.834000       15.9994           0
   98939 WT6  3763 TIP3 H1   HT     0.417000        1.0080           0
   98940 WT6  3763 TIP3 H2   HT     0.417000        1.0080           0
   98941 WT6  3764 TIP3 OH2  OT    -0.834000       15.9994           0
   98942 WT6  3764 TIP3 H1   HT     0.417000        1.0080           0
   98943 WT6  3764 TIP3 H2   HT     0.417000        1.0080           0
   98944 WT6  3765 TIP3 OH2  OT    -0.834000       15.9994           0
   98945 WT6  3765 TIP3 H1   HT     0.417000        1.0080           0
   98946 WT6  3765 TIP3 H2   HT     0.417000        1.0080           0
   98947 WT6  3766 TIP3 OH2  OT    -0.834000       15.9994           0
   98948 WT6  3766 TIP3 H1   HT     0.417000        1.0080           0
   98949 WT6  3766 TIP3 H2   HT     0.417000        1.0080           0
   98950 WT6  3767 TIP3 OH2  OT    -0.834000       15.9994           0
   98951 WT6  3767 TIP3 H1   HT     0.417000        1.0080           0
   98952 WT6  3767 TIP3 H2   HT     0.417000        1.0080           0
   98953 WT6  3768 TIP3 OH2  OT    -0.834000       15.9994           0
   98954 WT6  3768 TIP3 H1   HT     0.417000        1.0080           0
   98955 WT6  3768 TIP3 H2   HT     0.417000        1.0080           0
   98956 WT6  3769 TIP3 OH2  OT    -0.834000       15.9994           0
   98957 WT6  3769 TIP3 H1   HT     0.417000        1.0080           0
   98958 WT6  3769 TIP3 H2   HT     0.417000        1.0080           0
   98959 WT6  3770 TIP3 OH2  OT    -0.834000       15.9994           0
   98960 WT6  3770 TIP3 H1   HT     0.417000        1.0080           0
   98961 WT6  3770 TIP3 H2   HT     0.417000        1.0080           0
   98962 WT6  3771 TIP3 OH2  OT    -0.834000       15.9994           0
   98963 WT6  3771 TIP3 H1   HT     0.417000        1.0080           0
   98964 WT6  3771 TIP3 H2   HT     0.417000        1.0080           0
   98965 WT6  3776 TIP3 OH2  OT    -0.834000       15.9994           0
   98966 WT6  3776 TIP3 H1   HT     0.417000        1.0080           0
   98967 WT6  3776 TIP3 H2   HT     0.417000        1.0080           0
   98968 WT6  3779 TIP3 OH2  OT    -0.834000       15.9994           0
   98969 WT6  3779 TIP3 H1   HT     0.417000        1.0080           0
   98970 WT6  3779 TIP3 H2   HT     0.417000        1.0080           0
   98971 WT6  3782 TIP3 OH2  OT    -0.834000       15.9994           0
   98972 WT6  3782 TIP3 H1   HT     0.417000        1.0080           0
   98973 WT6  3782 TIP3 H2   HT     0.417000        1.0080           0
   98974 WT6  3783 TIP3 OH2  OT    -0.834000       15.9994           0
   98975 WT6  3783 TIP3 H1   HT     0.417000        1.0080           0
   98976 WT6  3783 TIP3 H2   HT     0.417000        1.0080           0
   98977 WT6  3784 TIP3 OH2  OT    -0.834000       15.9994           0
   98978 WT6  3784 TIP3 H1   HT     0.417000        1.0080           0
   98979 WT6  3784 TIP3 H2   HT     0.417000        1.0080           0
   98980 WT6  3785 TIP3 OH2  OT    -0.834000       15.9994           0
   98981 WT6  3785 TIP3 H1   HT     0.417000        1.0080           0
   98982 WT6  3785 TIP3 H2   HT     0.417000        1.0080           0
   98983 WT6  3786 TIP3 OH2  OT    -0.834000       15.9994           0
   98984 WT6  3786 TIP3 H1   HT     0.417000        1.0080           0
   98985 WT6  3786 TIP3 H2   HT     0.417000        1.0080           0
   98986 WT6  3787 TIP3 OH2  OT    -0.834000       15.9994           0
   98987 WT6  3787 TIP3 H1   HT     0.417000        1.0080           0
   98988 WT6  3787 TIP3 H2   HT     0.417000        1.0080           0
   98989 WT6  3788 TIP3 OH2  OT    -0.834000       15.9994           0
   98990 WT6  3788 TIP3 H1   HT     0.417000        1.0080           0
   98991 WT6  3788 TIP3 H2   HT     0.417000        1.0080           0
   98992 WT6  3789 TIP3 OH2  OT    -0.834000       15.9994           0
   98993 WT6  3789 TIP3 H1   HT     0.417000        1.0080           0
   98994 WT6  3789 TIP3 H2   HT     0.417000        1.0080           0
   98995 WT6  3790 TIP3 OH2  OT    -0.834000       15.9994           0
   98996 WT6  3790 TIP3 H1   HT     0.417000        1.0080           0
   98997 WT6  3790 TIP3 H2   HT     0.417000        1.0080           0
   98998 WT6  3791 TIP3 OH2  OT    -0.834000       15.9994           0
   98999 WT6  3791 TIP3 H1   HT     0.417000        1.0080           0
   99000 WT6  3791 TIP3 H2   HT     0.417000        1.0080           0
   99001 WT6  3792 TIP3 OH2  OT    -0.834000       15.9994           0
   99002 WT6  3792 TIP3 H1   HT     0.417000        1.0080           0
   99003 WT6  3792 TIP3 H2   HT     0.417000        1.0080           0
   99004 WT6  3793 TIP3 OH2  OT    -0.834000       15.9994           0
   99005 WT6  3793 TIP3 H1   HT     0.417000        1.0080           0
   99006 WT6  3793 TIP3 H2   HT     0.417000        1.0080           0
   99007 WT6  3794 TIP3 OH2  OT    -0.834000       15.9994           0
   99008 WT6  3794 TIP3 H1   HT     0.417000        1.0080           0
   99009 WT6  3794 TIP3 H2   HT     0.417000        1.0080           0
   99010 WT6  3796 TIP3 OH2  OT    -0.834000       15.9994           0
   99011 WT6  3796 TIP3 H1   HT     0.417000        1.0080           0
   99012 WT6  3796 TIP3 H2   HT     0.417000        1.0080           0
   99013 WT6  3798 TIP3 OH2  OT    -0.834000       15.9994           0
   99014 WT6  3798 TIP3 H1   HT     0.417000        1.0080           0
   99015 WT6  3798 TIP3 H2   HT     0.417000        1.0080           0
   99016 WT6  3800 TIP3 OH2  OT    -0.834000       15.9994           0
   99017 WT6  3800 TIP3 H1   HT     0.417000        1.0080           0
   99018 WT6  3800 TIP3 H2   HT     0.417000        1.0080           0
   99019 WT6  3801 TIP3 OH2  OT    -0.834000       15.9994           0
   99020 WT6  3801 TIP3 H1   HT     0.417000        1.0080           0
   99021 WT6  3801 TIP3 H2   HT     0.417000        1.0080           0
   99022 WT6  3802 TIP3 OH2  OT    -0.834000       15.9994           0
   99023 WT6  3802 TIP3 H1   HT     0.417000        1.0080           0
   99024 WT6  3802 TIP3 H2   HT     0.417000        1.0080           0
   99025 WT6  3804 TIP3 OH2  OT    -0.834000       15.9994           0
   99026 WT6  3804 TIP3 H1   HT     0.417000        1.0080           0
   99027 WT6  3804 TIP3 H2   HT     0.417000        1.0080           0
   99028 WT6  3805 TIP3 OH2  OT    -0.834000       15.9994           0
   99029 WT6  3805 TIP3 H1   HT     0.417000        1.0080           0
   99030 WT6  3805 TIP3 H2   HT     0.417000        1.0080           0
   99031 WT6  3806 TIP3 OH2  OT    -0.834000       15.9994           0
   99032 WT6  3806 TIP3 H1   HT     0.417000        1.0080           0
   99033 WT6  3806 TIP3 H2   HT     0.417000        1.0080           0
   99034 WT6  3807 TIP3 OH2  OT    -0.834000       15.9994           0
   99035 WT6  3807 TIP3 H1   HT     0.417000        1.0080           0
   99036 WT6  3807 TIP3 H2   HT     0.417000        1.0080           0
   99037 WT6  3808 TIP3 OH2  OT    -0.834000       15.9994           0
   99038 WT6  3808 TIP3 H1   HT     0.417000        1.0080           0
   99039 WT6  3808 TIP3 H2   HT     0.417000        1.0080           0
   99040 WT6  3809 TIP3 OH2  OT    -0.834000       15.9994           0
   99041 WT6  3809 TIP3 H1   HT     0.417000        1.0080           0
   99042 WT6  3809 TIP3 H2   HT     0.417000        1.0080           0
   99043 WT6  3810 TIP3 OH2  OT    -0.834000       15.9994           0
   99044 WT6  3810 TIP3 H1   HT     0.417000        1.0080           0
   99045 WT6  3810 TIP3 H2   HT     0.417000        1.0080           0
   99046 WT6  3811 TIP3 OH2  OT    -0.834000       15.9994           0
   99047 WT6  3811 TIP3 H1   HT     0.417000        1.0080           0
   99048 WT6  3811 TIP3 H2   HT     0.417000        1.0080           0
   99049 WT6  3812 TIP3 OH2  OT    -0.834000       15.9994           0
   99050 WT6  3812 TIP3 H1   HT     0.417000        1.0080           0
   99051 WT6  3812 TIP3 H2   HT     0.417000        1.0080           0
   99052 WT6  3813 TIP3 OH2  OT    -0.834000       15.9994           0
   99053 WT6  3813 TIP3 H1   HT     0.417000        1.0080           0
   99054 WT6  3813 TIP3 H2   HT     0.417000        1.0080           0
   99055 WT6  3814 TIP3 OH2  OT    -0.834000       15.9994           0
   99056 WT6  3814 TIP3 H1   HT     0.417000        1.0080           0
   99057 WT6  3814 TIP3 H2   HT     0.417000        1.0080           0
   99058 WT6  3815 TIP3 OH2  OT    -0.834000       15.9994           0
   99059 WT6  3815 TIP3 H1   HT     0.417000        1.0080           0
   99060 WT6  3815 TIP3 H2   HT     0.417000        1.0080           0
   99061 WT6  3821 TIP3 OH2  OT    -0.834000       15.9994           0
   99062 WT6  3821 TIP3 H1   HT     0.417000        1.0080           0
   99063 WT6  3821 TIP3 H2   HT     0.417000        1.0080           0
   99064 WT6  3823 TIP3 OH2  OT    -0.834000       15.9994           0
   99065 WT6  3823 TIP3 H1   HT     0.417000        1.0080           0
   99066 WT6  3823 TIP3 H2   HT     0.417000        1.0080           0
   99067 WT6  3826 TIP3 OH2  OT    -0.834000       15.9994           0
   99068 WT6  3826 TIP3 H1   HT     0.417000        1.0080           0
   99069 WT6  3826 TIP3 H2   HT     0.417000        1.0080           0
   99070 WT6  3827 TIP3 OH2  OT    -0.834000       15.9994           0
   99071 WT6  3827 TIP3 H1   HT     0.417000        1.0080           0
   99072 WT6  3827 TIP3 H2   HT     0.417000        1.0080           0
   99073 WT6  3828 TIP3 OH2  OT    -0.834000       15.9994           0
   99074 WT6  3828 TIP3 H1   HT     0.417000        1.0080           0
   99075 WT6  3828 TIP3 H2   HT     0.417000        1.0080           0
   99076 WT6  3829 TIP3 OH2  OT    -0.834000       15.9994           0
   99077 WT6  3829 TIP3 H1   HT     0.417000        1.0080           0
   99078 WT6  3829 TIP3 H2   HT     0.417000        1.0080           0
   99079 WT6  3830 TIP3 OH2  OT    -0.834000       15.9994           0
   99080 WT6  3830 TIP3 H1   HT     0.417000        1.0080           0
   99081 WT6  3830 TIP3 H2   HT     0.417000        1.0080           0
   99082 WT6  3831 TIP3 OH2  OT    -0.834000       15.9994           0
   99083 WT6  3831 TIP3 H1   HT     0.417000        1.0080           0
   99084 WT6  3831 TIP3 H2   HT     0.417000        1.0080           0
   99085 WT6  3832 TIP3 OH2  OT    -0.834000       15.9994           0
   99086 WT6  3832 TIP3 H1   HT     0.417000        1.0080           0
   99087 WT6  3832 TIP3 H2   HT     0.417000        1.0080           0
   99088 WT6  3833 TIP3 OH2  OT    -0.834000       15.9994           0
   99089 WT6  3833 TIP3 H1   HT     0.417000        1.0080           0
   99090 WT6  3833 TIP3 H2   HT     0.417000        1.0080           0
   99091 WT6  3834 TIP3 OH2  OT    -0.834000       15.9994           0
   99092 WT6  3834 TIP3 H1   HT     0.417000        1.0080           0
   99093 WT6  3834 TIP3 H2   HT     0.417000        1.0080           0
   99094 WT6  3835 TIP3 OH2  OT    -0.834000       15.9994           0
   99095 WT6  3835 TIP3 H1   HT     0.417000        1.0080           0
   99096 WT6  3835 TIP3 H2   HT     0.417000        1.0080           0
   99097 WT6  3838 TIP3 OH2  OT    -0.834000       15.9994           0
   99098 WT6  3838 TIP3 H1   HT     0.417000        1.0080           0
   99099 WT6  3838 TIP3 H2   HT     0.417000        1.0080           0
   99100 WT6  3842 TIP3 OH2  OT    -0.834000       15.9994           0
   99101 WT6  3842 TIP3 H1   HT     0.417000        1.0080           0
   99102 WT6  3842 TIP3 H2   HT     0.417000        1.0080           0
   99103 WT6  3845 TIP3 OH2  OT    -0.834000       15.9994           0
   99104 WT6  3845 TIP3 H1   HT     0.417000        1.0080           0
   99105 WT6  3845 TIP3 H2   HT     0.417000        1.0080           0
   99106 WT6  3846 TIP3 OH2  OT    -0.834000       15.9994           0
   99107 WT6  3846 TIP3 H1   HT     0.417000        1.0080           0
   99108 WT6  3846 TIP3 H2   HT     0.417000        1.0080           0
   99109 WT6  3847 TIP3 OH2  OT    -0.834000       15.9994           0
   99110 WT6  3847 TIP3 H1   HT     0.417000        1.0080           0
   99111 WT6  3847 TIP3 H2   HT     0.417000        1.0080           0
   99112 WT6  3848 TIP3 OH2  OT    -0.834000       15.9994           0
   99113 WT6  3848 TIP3 H1   HT     0.417000        1.0080           0
   99114 WT6  3848 TIP3 H2   HT     0.417000        1.0080           0
   99115 WT6  3849 TIP3 OH2  OT    -0.834000       15.9994           0
   99116 WT6  3849 TIP3 H1   HT     0.417000        1.0080           0
   99117 WT6  3849 TIP3 H2   HT     0.417000        1.0080           0
   99118 WT6  3850 TIP3 OH2  OT    -0.834000       15.9994           0
   99119 WT6  3850 TIP3 H1   HT     0.417000        1.0080           0
   99120 WT6  3850 TIP3 H2   HT     0.417000        1.0080           0
   99121 WT6  3851 TIP3 OH2  OT    -0.834000       15.9994           0
   99122 WT6  3851 TIP3 H1   HT     0.417000        1.0080           0
   99123 WT6  3851 TIP3 H2   HT     0.417000        1.0080           0
   99124 WT6  3852 TIP3 OH2  OT    -0.834000       15.9994           0
   99125 WT6  3852 TIP3 H1   HT     0.417000        1.0080           0
   99126 WT6  3852 TIP3 H2   HT     0.417000        1.0080           0
   99127 WT6  3853 TIP3 OH2  OT    -0.834000       15.9994           0
   99128 WT6  3853 TIP3 H1   HT     0.417000        1.0080           0
   99129 WT6  3853 TIP3 H2   HT     0.417000        1.0080           0
   99130 WT6  3854 TIP3 OH2  OT    -0.834000       15.9994           0
   99131 WT6  3854 TIP3 H1   HT     0.417000        1.0080           0
   99132 WT6  3854 TIP3 H2   HT     0.417000        1.0080           0
   99133 WT6  3855 TIP3 OH2  OT    -0.834000       15.9994           0
   99134 WT6  3855 TIP3 H1   HT     0.417000        1.0080           0
   99135 WT6  3855 TIP3 H2   HT     0.417000        1.0080           0
   99136 WT6  3857 TIP3 OH2  OT    -0.834000       15.9994           0
   99137 WT6  3857 TIP3 H1   HT     0.417000        1.0080           0
   99138 WT6  3857 TIP3 H2   HT     0.417000        1.0080           0
   99139 WT6  3859 TIP3 OH2  OT    -0.834000       15.9994           0
   99140 WT6  3859 TIP3 H1   HT     0.417000        1.0080           0
   99141 WT6  3859 TIP3 H2   HT     0.417000        1.0080           0
   99142 WT6  3861 TIP3 OH2  OT    -0.834000       15.9994           0
   99143 WT6  3861 TIP3 H1   HT     0.417000        1.0080           0
   99144 WT6  3861 TIP3 H2   HT     0.417000        1.0080           0
   99145 WT6  3863 TIP3 OH2  OT    -0.834000       15.9994           0
   99146 WT6  3863 TIP3 H1   HT     0.417000        1.0080           0
   99147 WT6  3863 TIP3 H2   HT     0.417000        1.0080           0
   99148 WT6  3865 TIP3 OH2  OT    -0.834000       15.9994           0
   99149 WT6  3865 TIP3 H1   HT     0.417000        1.0080           0
   99150 WT6  3865 TIP3 H2   HT     0.417000        1.0080           0
   99151 WT6  3867 TIP3 OH2  OT    -0.834000       15.9994           0
   99152 WT6  3867 TIP3 H1   HT     0.417000        1.0080           0
   99153 WT6  3867 TIP3 H2   HT     0.417000        1.0080           0
   99154 WT6  3868 TIP3 OH2  OT    -0.834000       15.9994           0
   99155 WT6  3868 TIP3 H1   HT     0.417000        1.0080           0
   99156 WT6  3868 TIP3 H2   HT     0.417000        1.0080           0
   99157 WT6  3869 TIP3 OH2  OT    -0.834000       15.9994           0
   99158 WT6  3869 TIP3 H1   HT     0.417000        1.0080           0
   99159 WT6  3869 TIP3 H2   HT     0.417000        1.0080           0
   99160 WT6  3870 TIP3 OH2  OT    -0.834000       15.9994           0
   99161 WT6  3870 TIP3 H1   HT     0.417000        1.0080           0
   99162 WT6  3870 TIP3 H2   HT     0.417000        1.0080           0
   99163 WT6  3871 TIP3 OH2  OT    -0.834000       15.9994           0
   99164 WT6  3871 TIP3 H1   HT     0.417000        1.0080           0
   99165 WT6  3871 TIP3 H2   HT     0.417000        1.0080           0
   99166 WT6  3872 TIP3 OH2  OT    -0.834000       15.9994           0
   99167 WT6  3872 TIP3 H1   HT     0.417000        1.0080           0
   99168 WT6  3872 TIP3 H2   HT     0.417000        1.0080           0
   99169 WT6  3873 TIP3 OH2  OT    -0.834000       15.9994           0
   99170 WT6  3873 TIP3 H1   HT     0.417000        1.0080           0
   99171 WT6  3873 TIP3 H2   HT     0.417000        1.0080           0
   99172 WT6  3875 TIP3 OH2  OT    -0.834000       15.9994           0
   99173 WT6  3875 TIP3 H1   HT     0.417000        1.0080           0
   99174 WT6  3875 TIP3 H2   HT     0.417000        1.0080           0
   99175 WT6  3876 TIP3 OH2  OT    -0.834000       15.9994           0
   99176 WT6  3876 TIP3 H1   HT     0.417000        1.0080           0
   99177 WT6  3876 TIP3 H2   HT     0.417000        1.0080           0
   99178 WT6  3878 TIP3 OH2  OT    -0.834000       15.9994           0
   99179 WT6  3878 TIP3 H1   HT     0.417000        1.0080           0
   99180 WT6  3878 TIP3 H2   HT     0.417000        1.0080           0
   99181 WT6  3882 TIP3 OH2  OT    -0.834000       15.9994           0
   99182 WT6  3882 TIP3 H1   HT     0.417000        1.0080           0
   99183 WT6  3882 TIP3 H2   HT     0.417000        1.0080           0
   99184 WT6  3885 TIP3 OH2  OT    -0.834000       15.9994           0
   99185 WT6  3885 TIP3 H1   HT     0.417000        1.0080           0
   99186 WT6  3885 TIP3 H2   HT     0.417000        1.0080           0
   99187 WT6  3886 TIP3 OH2  OT    -0.834000       15.9994           0
   99188 WT6  3886 TIP3 H1   HT     0.417000        1.0080           0
   99189 WT6  3886 TIP3 H2   HT     0.417000        1.0080           0
   99190 WT6  3888 TIP3 OH2  OT    -0.834000       15.9994           0
   99191 WT6  3888 TIP3 H1   HT     0.417000        1.0080           0
   99192 WT6  3888 TIP3 H2   HT     0.417000        1.0080           0
   99193 WT6  3889 TIP3 OH2  OT    -0.834000       15.9994           0
   99194 WT6  3889 TIP3 H1   HT     0.417000        1.0080           0
   99195 WT6  3889 TIP3 H2   HT     0.417000        1.0080           0
   99196 WT6  3890 TIP3 OH2  OT    -0.834000       15.9994           0
   99197 WT6  3890 TIP3 H1   HT     0.417000        1.0080           0
   99198 WT6  3890 TIP3 H2   HT     0.417000        1.0080           0
   99199 WT6  3891 TIP3 OH2  OT    -0.834000       15.9994           0
   99200 WT6  3891 TIP3 H1   HT     0.417000        1.0080           0
   99201 WT6  3891 TIP3 H2   HT     0.417000        1.0080           0
   99202 WT6  3892 TIP3 OH2  OT    -0.834000       15.9994           0
   99203 WT6  3892 TIP3 H1   HT     0.417000        1.0080           0
   99204 WT6  3892 TIP3 H2   HT     0.417000        1.0080           0
   99205 WT6  3893 TIP3 OH2  OT    -0.834000       15.9994           0
   99206 WT6  3893 TIP3 H1   HT     0.417000        1.0080           0
   99207 WT6  3893 TIP3 H2   HT     0.417000        1.0080           0
   99208 WT6  3894 TIP3 OH2  OT    -0.834000       15.9994           0
   99209 WT6  3894 TIP3 H1   HT     0.417000        1.0080           0
   99210 WT6  3894 TIP3 H2   HT     0.417000        1.0080           0
   99211 WT6  3895 TIP3 OH2  OT    -0.834000       15.9994           0
   99212 WT6  3895 TIP3 H1   HT     0.417000        1.0080           0
   99213 WT6  3895 TIP3 H2   HT     0.417000        1.0080           0
   99214 WT6  3899 TIP3 OH2  OT    -0.834000       15.9994           0
   99215 WT6  3899 TIP3 H1   HT     0.417000        1.0080           0
   99216 WT6  3899 TIP3 H2   HT     0.417000        1.0080           0
   99217 WT6  3900 TIP3 OH2  OT    -0.834000       15.9994           0
   99218 WT6  3900 TIP3 H1   HT     0.417000        1.0080           0
   99219 WT6  3900 TIP3 H2   HT     0.417000        1.0080           0
   99220 WT6  3901 TIP3 OH2  OT    -0.834000       15.9994           0
   99221 WT6  3901 TIP3 H1   HT     0.417000        1.0080           0
   99222 WT6  3901 TIP3 H2   HT     0.417000        1.0080           0
   99223 WT6  3903 TIP3 OH2  OT    -0.834000       15.9994           0
   99224 WT6  3903 TIP3 H1   HT     0.417000        1.0080           0
   99225 WT6  3903 TIP3 H2   HT     0.417000        1.0080           0
   99226 WT6  3907 TIP3 OH2  OT    -0.834000       15.9994           0
   99227 WT6  3907 TIP3 H1   HT     0.417000        1.0080           0
   99228 WT6  3907 TIP3 H2   HT     0.417000        1.0080           0
   99229 WT6  3909 TIP3 OH2  OT    -0.834000       15.9994           0
   99230 WT6  3909 TIP3 H1   HT     0.417000        1.0080           0
   99231 WT6  3909 TIP3 H2   HT     0.417000        1.0080           0
   99232 WT6  3911 TIP3 OH2  OT    -0.834000       15.9994           0
   99233 WT6  3911 TIP3 H1   HT     0.417000        1.0080           0
   99234 WT6  3911 TIP3 H2   HT     0.417000        1.0080           0
   99235 WT6  3912 TIP3 OH2  OT    -0.834000       15.9994           0
   99236 WT6  3912 TIP3 H1   HT     0.417000        1.0080           0
   99237 WT6  3912 TIP3 H2   HT     0.417000        1.0080           0
   99238 WT6  3913 TIP3 OH2  OT    -0.834000       15.9994           0
   99239 WT6  3913 TIP3 H1   HT     0.417000        1.0080           0
   99240 WT6  3913 TIP3 H2   HT     0.417000        1.0080           0
   99241 WT6  3914 TIP3 OH2  OT    -0.834000       15.9994           0
   99242 WT6  3914 TIP3 H1   HT     0.417000        1.0080           0
   99243 WT6  3914 TIP3 H2   HT     0.417000        1.0080           0
   99244 WT6  3915 TIP3 OH2  OT    -0.834000       15.9994           0
   99245 WT6  3915 TIP3 H1   HT     0.417000        1.0080           0
   99246 WT6  3915 TIP3 H2   HT     0.417000        1.0080           0
   99247 WT6  3916 TIP3 OH2  OT    -0.834000       15.9994           0
   99248 WT6  3916 TIP3 H1   HT     0.417000        1.0080           0
   99249 WT6  3916 TIP3 H2   HT     0.417000        1.0080           0
   99250 WT6  3917 TIP3 OH2  OT    -0.834000       15.9994           0
   99251 WT6  3917 TIP3 H1   HT     0.417000        1.0080           0
   99252 WT6  3917 TIP3 H2   HT     0.417000        1.0080           0
   99253 WT6  3919 TIP3 OH2  OT    -0.834000       15.9994           0
   99254 WT6  3919 TIP3 H1   HT     0.417000        1.0080           0
   99255 WT6  3919 TIP3 H2   HT     0.417000        1.0080           0
   99256 WT6  3920 TIP3 OH2  OT    -0.834000       15.9994           0
   99257 WT6  3920 TIP3 H1   HT     0.417000        1.0080           0
   99258 WT6  3920 TIP3 H2   HT     0.417000        1.0080           0
   99259 WT6  3922 TIP3 OH2  OT    -0.834000       15.9994           0
   99260 WT6  3922 TIP3 H1   HT     0.417000        1.0080           0
   99261 WT6  3922 TIP3 H2   HT     0.417000        1.0080           0
   99262 WT6  3924 TIP3 OH2  OT    -0.834000       15.9994           0
   99263 WT6  3924 TIP3 H1   HT     0.417000        1.0080           0
   99264 WT6  3924 TIP3 H2   HT     0.417000        1.0080           0
   99265 WT6  3925 TIP3 OH2  OT    -0.834000       15.9994           0
   99266 WT6  3925 TIP3 H1   HT     0.417000        1.0080           0
   99267 WT6  3925 TIP3 H2   HT     0.417000        1.0080           0
   99268 WT6  3927 TIP3 OH2  OT    -0.834000       15.9994           0
   99269 WT6  3927 TIP3 H1   HT     0.417000        1.0080           0
   99270 WT6  3927 TIP3 H2   HT     0.417000        1.0080           0
   99271 WT6  3928 TIP3 OH2  OT    -0.834000       15.9994           0
   99272 WT6  3928 TIP3 H1   HT     0.417000        1.0080           0
   99273 WT6  3928 TIP3 H2   HT     0.417000        1.0080           0
   99274 WT6  3929 TIP3 OH2  OT    -0.834000       15.9994           0
   99275 WT6  3929 TIP3 H1   HT     0.417000        1.0080           0
   99276 WT6  3929 TIP3 H2   HT     0.417000        1.0080           0
   99277 WT6  3930 TIP3 OH2  OT    -0.834000       15.9994           0
   99278 WT6  3930 TIP3 H1   HT     0.417000        1.0080           0
   99279 WT6  3930 TIP3 H2   HT     0.417000        1.0080           0
   99280 WT6  3931 TIP3 OH2  OT    -0.834000       15.9994           0
   99281 WT6  3931 TIP3 H1   HT     0.417000        1.0080           0
   99282 WT6  3931 TIP3 H2   HT     0.417000        1.0080           0
   99283 WT6  3932 TIP3 OH2  OT    -0.834000       15.9994           0
   99284 WT6  3932 TIP3 H1   HT     0.417000        1.0080           0
   99285 WT6  3932 TIP3 H2   HT     0.417000        1.0080           0
   99286 WT6  3933 TIP3 OH2  OT    -0.834000       15.9994           0
   99287 WT6  3933 TIP3 H1   HT     0.417000        1.0080           0
   99288 WT6  3933 TIP3 H2   HT     0.417000        1.0080           0
   99289 WT6  3934 TIP3 OH2  OT    -0.834000       15.9994           0
   99290 WT6  3934 TIP3 H1   HT     0.417000        1.0080           0
   99291 WT6  3934 TIP3 H2   HT     0.417000        1.0080           0
   99292 WT6  3935 TIP3 OH2  OT    -0.834000       15.9994           0
   99293 WT6  3935 TIP3 H1   HT     0.417000        1.0080           0
   99294 WT6  3935 TIP3 H2   HT     0.417000        1.0080           0
   99295 WT6  3936 TIP3 OH2  OT    -0.834000       15.9994           0
   99296 WT6  3936 TIP3 H1   HT     0.417000        1.0080           0
   99297 WT6  3936 TIP3 H2   HT     0.417000        1.0080           0
   99298 WT6  3937 TIP3 OH2  OT    -0.834000       15.9994           0
   99299 WT6  3937 TIP3 H1   HT     0.417000        1.0080           0
   99300 WT6  3937 TIP3 H2   HT     0.417000        1.0080           0
   99301 WT6  3938 TIP3 OH2  OT    -0.834000       15.9994           0
   99302 WT6  3938 TIP3 H1   HT     0.417000        1.0080           0
   99303 WT6  3938 TIP3 H2   HT     0.417000        1.0080           0
   99304 WT6  3939 TIP3 OH2  OT    -0.834000       15.9994           0
   99305 WT6  3939 TIP3 H1   HT     0.417000        1.0080           0
   99306 WT6  3939 TIP3 H2   HT     0.417000        1.0080           0
   99307 WT6  3946 TIP3 OH2  OT    -0.834000       15.9994           0
   99308 WT6  3946 TIP3 H1   HT     0.417000        1.0080           0
   99309 WT6  3946 TIP3 H2   HT     0.417000        1.0080           0
   99310 WT6  3949 TIP3 OH2  OT    -0.834000       15.9994           0
   99311 WT6  3949 TIP3 H1   HT     0.417000        1.0080           0
   99312 WT6  3949 TIP3 H2   HT     0.417000        1.0080           0
   99313 WT6  3951 TIP3 OH2  OT    -0.834000       15.9994           0
   99314 WT6  3951 TIP3 H1   HT     0.417000        1.0080           0
   99315 WT6  3951 TIP3 H2   HT     0.417000        1.0080           0
   99316 WT6  3954 TIP3 OH2  OT    -0.834000       15.9994           0
   99317 WT6  3954 TIP3 H1   HT     0.417000        1.0080           0
   99318 WT6  3954 TIP3 H2   HT     0.417000        1.0080           0
   99319 WT6  3955 TIP3 OH2  OT    -0.834000       15.9994           0
   99320 WT6  3955 TIP3 H1   HT     0.417000        1.0080           0
   99321 WT6  3955 TIP3 H2   HT     0.417000        1.0080           0
   99322 WT6  3956 TIP3 OH2  OT    -0.834000       15.9994           0
   99323 WT6  3956 TIP3 H1   HT     0.417000        1.0080           0
   99324 WT6  3956 TIP3 H2   HT     0.417000        1.0080           0
   99325 WT6  3957 TIP3 OH2  OT    -0.834000       15.9994           0
   99326 WT6  3957 TIP3 H1   HT     0.417000        1.0080           0
   99327 WT6  3957 TIP3 H2   HT     0.417000        1.0080           0
   99328 WT6  3958 TIP3 OH2  OT    -0.834000       15.9994           0
   99329 WT6  3958 TIP3 H1   HT     0.417000        1.0080           0
   99330 WT6  3958 TIP3 H2   HT     0.417000        1.0080           0
   99331 WT6  3959 TIP3 OH2  OT    -0.834000       15.9994           0
   99332 WT6  3959 TIP3 H1   HT     0.417000        1.0080           0
   99333 WT6  3959 TIP3 H2   HT     0.417000        1.0080           0
   99334 WT6  3960 TIP3 OH2  OT    -0.834000       15.9994           0
   99335 WT6  3960 TIP3 H1   HT     0.417000        1.0080           0
   99336 WT6  3960 TIP3 H2   HT     0.417000        1.0080           0
   99337 WT6  3961 TIP3 OH2  OT    -0.834000       15.9994           0
   99338 WT6  3961 TIP3 H1   HT     0.417000        1.0080           0
   99339 WT6  3961 TIP3 H2   HT     0.417000        1.0080           0
   99340 WT6  3971 TIP3 OH2  OT    -0.834000       15.9994           0
   99341 WT6  3971 TIP3 H1   HT     0.417000        1.0080           0
   99342 WT6  3971 TIP3 H2   HT     0.417000        1.0080           0
   99343 WT6  3972 TIP3 OH2  OT    -0.834000       15.9994           0
   99344 WT6  3972 TIP3 H1   HT     0.417000        1.0080           0
   99345 WT6  3972 TIP3 H2   HT     0.417000        1.0080           0
   99346 WT6  3974 TIP3 OH2  OT    -0.834000       15.9994           0
   99347 WT6  3974 TIP3 H1   HT     0.417000        1.0080           0
   99348 WT6  3974 TIP3 H2   HT     0.417000        1.0080           0
   99349 WT6  3975 TIP3 OH2  OT    -0.834000       15.9994           0
   99350 WT6  3975 TIP3 H1   HT     0.417000        1.0080           0
   99351 WT6  3975 TIP3 H2   HT     0.417000        1.0080           0
   99352 WT6  3976 TIP3 OH2  OT    -0.834000       15.9994           0
   99353 WT6  3976 TIP3 H1   HT     0.417000        1.0080           0
   99354 WT6  3976 TIP3 H2   HT     0.417000        1.0080           0
   99355 WT6  3977 TIP3 OH2  OT    -0.834000       15.9994           0
   99356 WT6  3977 TIP3 H1   HT     0.417000        1.0080           0
   99357 WT6  3977 TIP3 H2   HT     0.417000        1.0080           0
   99358 WT6  3978 TIP3 OH2  OT    -0.834000       15.9994           0
   99359 WT6  3978 TIP3 H1   HT     0.417000        1.0080           0
   99360 WT6  3978 TIP3 H2   HT     0.417000        1.0080           0
   99361 WT6  3979 TIP3 OH2  OT    -0.834000       15.9994           0
   99362 WT6  3979 TIP3 H1   HT     0.417000        1.0080           0
   99363 WT6  3979 TIP3 H2   HT     0.417000        1.0080           0
   99364 WT6  3980 TIP3 OH2  OT    -0.834000       15.9994           0
   99365 WT6  3980 TIP3 H1   HT     0.417000        1.0080           0
   99366 WT6  3980 TIP3 H2   HT     0.417000        1.0080           0
   99367 WT6  3981 TIP3 OH2  OT    -0.834000       15.9994           0
   99368 WT6  3981 TIP3 H1   HT     0.417000        1.0080           0
   99369 WT6  3981 TIP3 H2   HT     0.417000        1.0080           0
   99370 WT6  3982 TIP3 OH2  OT    -0.834000       15.9994           0
   99371 WT6  3982 TIP3 H1   HT     0.417000        1.0080           0
   99372 WT6  3982 TIP3 H2   HT     0.417000        1.0080           0
   99373 WT6  3983 TIP3 OH2  OT    -0.834000       15.9994           0
   99374 WT6  3983 TIP3 H1   HT     0.417000        1.0080           0
   99375 WT6  3983 TIP3 H2   HT     0.417000        1.0080           0
   99376 WT6  3986 TIP3 OH2  OT    -0.834000       15.9994           0
   99377 WT6  3986 TIP3 H1   HT     0.417000        1.0080           0
   99378 WT6  3986 TIP3 H2   HT     0.417000        1.0080           0
   99379 WT6  3991 TIP3 OH2  OT    -0.834000       15.9994           0
   99380 WT6  3991 TIP3 H1   HT     0.417000        1.0080           0
   99381 WT6  3991 TIP3 H2   HT     0.417000        1.0080           0
   99382 WT6  3992 TIP3 OH2  OT    -0.834000       15.9994           0
   99383 WT6  3992 TIP3 H1   HT     0.417000        1.0080           0
   99384 WT6  3992 TIP3 H2   HT     0.417000        1.0080           0
   99385 WT6  3993 TIP3 OH2  OT    -0.834000       15.9994           0
   99386 WT6  3993 TIP3 H1   HT     0.417000        1.0080           0
   99387 WT6  3993 TIP3 H2   HT     0.417000        1.0080           0
   99388 WT6  3994 TIP3 OH2  OT    -0.834000       15.9994           0
   99389 WT6  3994 TIP3 H1   HT     0.417000        1.0080           0
   99390 WT6  3994 TIP3 H2   HT     0.417000        1.0080           0
   99391 WT6  3995 TIP3 OH2  OT    -0.834000       15.9994           0
   99392 WT6  3995 TIP3 H1   HT     0.417000        1.0080           0
   99393 WT6  3995 TIP3 H2   HT     0.417000        1.0080           0
   99394 WT6  3996 TIP3 OH2  OT    -0.834000       15.9994           0
   99395 WT6  3996 TIP3 H1   HT     0.417000        1.0080           0
   99396 WT6  3996 TIP3 H2   HT     0.417000        1.0080           0
   99397 WT6  3997 TIP3 OH2  OT    -0.834000       15.9994           0
   99398 WT6  3997 TIP3 H1   HT     0.417000        1.0080           0
   99399 WT6  3997 TIP3 H2   HT     0.417000        1.0080           0
   99400 WT6  3998 TIP3 OH2  OT    -0.834000       15.9994           0
   99401 WT6  3998 TIP3 H1   HT     0.417000        1.0080           0
   99402 WT6  3998 TIP3 H2   HT     0.417000        1.0080           0
   99403 WT6  3999 TIP3 OH2  OT    -0.834000       15.9994           0
   99404 WT6  3999 TIP3 H1   HT     0.417000        1.0080           0
   99405 WT6  3999 TIP3 H2   HT     0.417000        1.0080           0
   99406 WT6  4000 TIP3 OH2  OT    -0.834000       15.9994           0
   99407 WT6  4000 TIP3 H1   HT     0.417000        1.0080           0
   99408 WT6  4000 TIP3 H2   HT     0.417000        1.0080           0
   99409 WT6  4002 TIP3 OH2  OT    -0.834000       15.9994           0
   99410 WT6  4002 TIP3 H1   HT     0.417000        1.0080           0
   99411 WT6  4002 TIP3 H2   HT     0.417000        1.0080           0
   99412 WT6  4005 TIP3 OH2  OT    -0.834000       15.9994           0
   99413 WT6  4005 TIP3 H1   HT     0.417000        1.0080           0
   99414 WT6  4005 TIP3 H2   HT     0.417000        1.0080           0
   99415 WT6  4008 TIP3 OH2  OT    -0.834000       15.9994           0
   99416 WT6  4008 TIP3 H1   HT     0.417000        1.0080           0
   99417 WT6  4008 TIP3 H2   HT     0.417000        1.0080           0
   99418 WT6  4009 TIP3 OH2  OT    -0.834000       15.9994           0
   99419 WT6  4009 TIP3 H1   HT     0.417000        1.0080           0
   99420 WT6  4009 TIP3 H2   HT     0.417000        1.0080           0
   99421 WT6  4010 TIP3 OH2  OT    -0.834000       15.9994           0
   99422 WT6  4010 TIP3 H1   HT     0.417000        1.0080           0
   99423 WT6  4010 TIP3 H2   HT     0.417000        1.0080           0
   99424 WT6  4011 TIP3 OH2  OT    -0.834000       15.9994           0
   99425 WT6  4011 TIP3 H1   HT     0.417000        1.0080           0
   99426 WT6  4011 TIP3 H2   HT     0.417000        1.0080           0
   99427 WT6  4012 TIP3 OH2  OT    -0.834000       15.9994           0
   99428 WT6  4012 TIP3 H1   HT     0.417000        1.0080           0
   99429 WT6  4012 TIP3 H2   HT     0.417000        1.0080           0
   99430 WT6  4014 TIP3 OH2  OT    -0.834000       15.9994           0
   99431 WT6  4014 TIP3 H1   HT     0.417000        1.0080           0
   99432 WT6  4014 TIP3 H2   HT     0.417000        1.0080           0
   99433 WT6  4015 TIP3 OH2  OT    -0.834000       15.9994           0
   99434 WT6  4015 TIP3 H1   HT     0.417000        1.0080           0
   99435 WT6  4015 TIP3 H2   HT     0.417000        1.0080           0
   99436 WT6  4016 TIP3 OH2  OT    -0.834000       15.9994           0
   99437 WT6  4016 TIP3 H1   HT     0.417000        1.0080           0
   99438 WT6  4016 TIP3 H2   HT     0.417000        1.0080           0
   99439 WT6  4017 TIP3 OH2  OT    -0.834000       15.9994           0
   99440 WT6  4017 TIP3 H1   HT     0.417000        1.0080           0
   99441 WT6  4017 TIP3 H2   HT     0.417000        1.0080           0
   99442 WT6  4018 TIP3 OH2  OT    -0.834000       15.9994           0
   99443 WT6  4018 TIP3 H1   HT     0.417000        1.0080           0
   99444 WT6  4018 TIP3 H2   HT     0.417000        1.0080           0
   99445 WT6  4019 TIP3 OH2  OT    -0.834000       15.9994           0
   99446 WT6  4019 TIP3 H1   HT     0.417000        1.0080           0
   99447 WT6  4019 TIP3 H2   HT     0.417000        1.0080           0
   99448 WT6  4020 TIP3 OH2  OT    -0.834000       15.9994           0
   99449 WT6  4020 TIP3 H1   HT     0.417000        1.0080           0
   99450 WT6  4020 TIP3 H2   HT     0.417000        1.0080           0
   99451 WT6  4021 TIP3 OH2  OT    -0.834000       15.9994           0
   99452 WT6  4021 TIP3 H1   HT     0.417000        1.0080           0
   99453 WT6  4021 TIP3 H2   HT     0.417000        1.0080           0
   99454 WT6  4022 TIP3 OH2  OT    -0.834000       15.9994           0
   99455 WT6  4022 TIP3 H1   HT     0.417000        1.0080           0
   99456 WT6  4022 TIP3 H2   HT     0.417000        1.0080           0
   99457 WT6  4024 TIP3 OH2  OT    -0.834000       15.9994           0
   99458 WT6  4024 TIP3 H1   HT     0.417000        1.0080           0
   99459 WT6  4024 TIP3 H2   HT     0.417000        1.0080           0
   99460 WT6  4029 TIP3 OH2  OT    -0.834000       15.9994           0
   99461 WT6  4029 TIP3 H1   HT     0.417000        1.0080           0
   99462 WT6  4029 TIP3 H2   HT     0.417000        1.0080           0
   99463 WT6  4030 TIP3 OH2  OT    -0.834000       15.9994           0
   99464 WT6  4030 TIP3 H1   HT     0.417000        1.0080           0
   99465 WT6  4030 TIP3 H2   HT     0.417000        1.0080           0
   99466 WT6  4033 TIP3 OH2  OT    -0.834000       15.9994           0
   99467 WT6  4033 TIP3 H1   HT     0.417000        1.0080           0
   99468 WT6  4033 TIP3 H2   HT     0.417000        1.0080           0
   99469 WT6  4035 TIP3 OH2  OT    -0.834000       15.9994           0
   99470 WT6  4035 TIP3 H1   HT     0.417000        1.0080           0
   99471 WT6  4035 TIP3 H2   HT     0.417000        1.0080           0
   99472 WT6  4036 TIP3 OH2  OT    -0.834000       15.9994           0
   99473 WT6  4036 TIP3 H1   HT     0.417000        1.0080           0
   99474 WT6  4036 TIP3 H2   HT     0.417000        1.0080           0
   99475 WT6  4037 TIP3 OH2  OT    -0.834000       15.9994           0
   99476 WT6  4037 TIP3 H1   HT     0.417000        1.0080           0
   99477 WT6  4037 TIP3 H2   HT     0.417000        1.0080           0
   99478 WT6  4038 TIP3 OH2  OT    -0.834000       15.9994           0
   99479 WT6  4038 TIP3 H1   HT     0.417000        1.0080           0
   99480 WT6  4038 TIP3 H2   HT     0.417000        1.0080           0
   99481 WT6  4039 TIP3 OH2  OT    -0.834000       15.9994           0
   99482 WT6  4039 TIP3 H1   HT     0.417000        1.0080           0
   99483 WT6  4039 TIP3 H2   HT     0.417000        1.0080           0
   99484 WT6  4040 TIP3 OH2  OT    -0.834000       15.9994           0
   99485 WT6  4040 TIP3 H1   HT     0.417000        1.0080           0
   99486 WT6  4040 TIP3 H2   HT     0.417000        1.0080           0
   99487 WT6  4041 TIP3 OH2  OT    -0.834000       15.9994           0
   99488 WT6  4041 TIP3 H1   HT     0.417000        1.0080           0
   99489 WT6  4041 TIP3 H2   HT     0.417000        1.0080           0
   99490 WT6  4046 TIP3 OH2  OT    -0.834000       15.9994           0
   99491 WT6  4046 TIP3 H1   HT     0.417000        1.0080           0
   99492 WT6  4046 TIP3 H2   HT     0.417000        1.0080           0
   99493 WT6  4047 TIP3 OH2  OT    -0.834000       15.9994           0
   99494 WT6  4047 TIP3 H1   HT     0.417000        1.0080           0
   99495 WT6  4047 TIP3 H2   HT     0.417000        1.0080           0
   99496 WT6  4053 TIP3 OH2  OT    -0.834000       15.9994           0
   99497 WT6  4053 TIP3 H1   HT     0.417000        1.0080           0
   99498 WT6  4053 TIP3 H2   HT     0.417000        1.0080           0
   99499 WT6  4054 TIP3 OH2  OT    -0.834000       15.9994           0
   99500 WT6  4054 TIP3 H1   HT     0.417000        1.0080           0
   99501 WT6  4054 TIP3 H2   HT     0.417000        1.0080           0
   99502 WT6  4055 TIP3 OH2  OT    -0.834000       15.9994           0
   99503 WT6  4055 TIP3 H1   HT     0.417000        1.0080           0
   99504 WT6  4055 TIP3 H2   HT     0.417000        1.0080           0
   99505 WT6  4057 TIP3 OH2  OT    -0.834000       15.9994           0
   99506 WT6  4057 TIP3 H1   HT     0.417000        1.0080           0
   99507 WT6  4057 TIP3 H2   HT     0.417000        1.0080           0
   99508 WT6  4058 TIP3 OH2  OT    -0.834000       15.9994           0
   99509 WT6  4058 TIP3 H1   HT     0.417000        1.0080           0
   99510 WT6  4058 TIP3 H2   HT     0.417000        1.0080           0
   99511 WT6  4059 TIP3 OH2  OT    -0.834000       15.9994           0
   99512 WT6  4059 TIP3 H1   HT     0.417000        1.0080           0
   99513 WT6  4059 TIP3 H2   HT     0.417000        1.0080           0
   99514 WT6  4060 TIP3 OH2  OT    -0.834000       15.9994           0
   99515 WT6  4060 TIP3 H1   HT     0.417000        1.0080           0
   99516 WT6  4060 TIP3 H2   HT     0.417000        1.0080           0
   99517 WT6  4062 TIP3 OH2  OT    -0.834000       15.9994           0
   99518 WT6  4062 TIP3 H1   HT     0.417000        1.0080           0
   99519 WT6  4062 TIP3 H2   HT     0.417000        1.0080           0
   99520 WT6  4063 TIP3 OH2  OT    -0.834000       15.9994           0
   99521 WT6  4063 TIP3 H1   HT     0.417000        1.0080           0
   99522 WT6  4063 TIP3 H2   HT     0.417000        1.0080           0
   99523 WT6  4064 TIP3 OH2  OT    -0.834000       15.9994           0
   99524 WT6  4064 TIP3 H1   HT     0.417000        1.0080           0
   99525 WT6  4064 TIP3 H2   HT     0.417000        1.0080           0
   99526 WT6  4065 TIP3 OH2  OT    -0.834000       15.9994           0
   99527 WT6  4065 TIP3 H1   HT     0.417000        1.0080           0
   99528 WT6  4065 TIP3 H2   HT     0.417000        1.0080           0
   99529 WT6  4066 TIP3 OH2  OT    -0.834000       15.9994           0
   99530 WT6  4066 TIP3 H1   HT     0.417000        1.0080           0
   99531 WT6  4066 TIP3 H2   HT     0.417000        1.0080           0
   99532 WT6  4072 TIP3 OH2  OT    -0.834000       15.9994           0
   99533 WT6  4072 TIP3 H1   HT     0.417000        1.0080           0
   99534 WT6  4072 TIP3 H2   HT     0.417000        1.0080           0
   99535 WT6  4074 TIP3 OH2  OT    -0.834000       15.9994           0
   99536 WT6  4074 TIP3 H1   HT     0.417000        1.0080           0
   99537 WT6  4074 TIP3 H2   HT     0.417000        1.0080           0
   99538 WT6  4076 TIP3 OH2  OT    -0.834000       15.9994           0
   99539 WT6  4076 TIP3 H1   HT     0.417000        1.0080           0
   99540 WT6  4076 TIP3 H2   HT     0.417000        1.0080           0
   99541 WT6  4077 TIP3 OH2  OT    -0.834000       15.9994           0
   99542 WT6  4077 TIP3 H1   HT     0.417000        1.0080           0
   99543 WT6  4077 TIP3 H2   HT     0.417000        1.0080           0
   99544 WT6  4079 TIP3 OH2  OT    -0.834000       15.9994           0
   99545 WT6  4079 TIP3 H1   HT     0.417000        1.0080           0
   99546 WT6  4079 TIP3 H2   HT     0.417000        1.0080           0
   99547 WT6  4080 TIP3 OH2  OT    -0.834000       15.9994           0
   99548 WT6  4080 TIP3 H1   HT     0.417000        1.0080           0
   99549 WT6  4080 TIP3 H2   HT     0.417000        1.0080           0
   99550 WT6  4081 TIP3 OH2  OT    -0.834000       15.9994           0
   99551 WT6  4081 TIP3 H1   HT     0.417000        1.0080           0
   99552 WT6  4081 TIP3 H2   HT     0.417000        1.0080           0
   99553 WT6  4082 TIP3 OH2  OT    -0.834000       15.9994           0
   99554 WT6  4082 TIP3 H1   HT     0.417000        1.0080           0
   99555 WT6  4082 TIP3 H2   HT     0.417000        1.0080           0
   99556 WT6  4083 TIP3 OH2  OT    -0.834000       15.9994           0
   99557 WT6  4083 TIP3 H1   HT     0.417000        1.0080           0
   99558 WT6  4083 TIP3 H2   HT     0.417000        1.0080           0
   99559 WT6  4084 TIP3 OH2  OT    -0.834000       15.9994           0
   99560 WT6  4084 TIP3 H1   HT     0.417000        1.0080           0
   99561 WT6  4084 TIP3 H2   HT     0.417000        1.0080           0
   99562 WT6  4085 TIP3 OH2  OT    -0.834000       15.9994           0
   99563 WT6  4085 TIP3 H1   HT     0.417000        1.0080           0
   99564 WT6  4085 TIP3 H2   HT     0.417000        1.0080           0
   99565 WT6  4088 TIP3 OH2  OT    -0.834000       15.9994           0
   99566 WT6  4088 TIP3 H1   HT     0.417000        1.0080           0
   99567 WT6  4088 TIP3 H2   HT     0.417000        1.0080           0
   99568 WT6  4091 TIP3 OH2  OT    -0.834000       15.9994           0
   99569 WT6  4091 TIP3 H1   HT     0.417000        1.0080           0
   99570 WT6  4091 TIP3 H2   HT     0.417000        1.0080           0
   99571 WT6  4093 TIP3 OH2  OT    -0.834000       15.9994           0
   99572 WT6  4093 TIP3 H1   HT     0.417000        1.0080           0
   99573 WT6  4093 TIP3 H2   HT     0.417000        1.0080           0
   99574 WT6  4094 TIP3 OH2  OT    -0.834000       15.9994           0
   99575 WT6  4094 TIP3 H1   HT     0.417000        1.0080           0
   99576 WT6  4094 TIP3 H2   HT     0.417000        1.0080           0
   99577 WT6  4096 TIP3 OH2  OT    -0.834000       15.9994           0
   99578 WT6  4096 TIP3 H1   HT     0.417000        1.0080           0
   99579 WT6  4096 TIP3 H2   HT     0.417000        1.0080           0
   99580 WT6  4097 TIP3 OH2  OT    -0.834000       15.9994           0
   99581 WT6  4097 TIP3 H1   HT     0.417000        1.0080           0
   99582 WT6  4097 TIP3 H2   HT     0.417000        1.0080           0
   99583 WT6  4098 TIP3 OH2  OT    -0.834000       15.9994           0
   99584 WT6  4098 TIP3 H1   HT     0.417000        1.0080           0
   99585 WT6  4098 TIP3 H2   HT     0.417000        1.0080           0
   99586 WT6  4099 TIP3 OH2  OT    -0.834000       15.9994           0
   99587 WT6  4099 TIP3 H1   HT     0.417000        1.0080           0
   99588 WT6  4099 TIP3 H2   HT     0.417000        1.0080           0
   99589 WT6  4100 TIP3 OH2  OT    -0.834000       15.9994           0
   99590 WT6  4100 TIP3 H1   HT     0.417000        1.0080           0
   99591 WT6  4100 TIP3 H2   HT     0.417000        1.0080           0
   99592 WT6  4101 TIP3 OH2  OT    -0.834000       15.9994           0
   99593 WT6  4101 TIP3 H1   HT     0.417000        1.0080           0
   99594 WT6  4101 TIP3 H2   HT     0.417000        1.0080           0
   99595 WT6  4102 TIP3 OH2  OT    -0.834000       15.9994           0
   99596 WT6  4102 TIP3 H1   HT     0.417000        1.0080           0
   99597 WT6  4102 TIP3 H2   HT     0.417000        1.0080           0
   99598 WT6  4103 TIP3 OH2  OT    -0.834000       15.9994           0
   99599 WT6  4103 TIP3 H1   HT     0.417000        1.0080           0
   99600 WT6  4103 TIP3 H2   HT     0.417000        1.0080           0
   99601 WT6  4104 TIP3 OH2  OT    -0.834000       15.9994           0
   99602 WT6  4104 TIP3 H1   HT     0.417000        1.0080           0
   99603 WT6  4104 TIP3 H2   HT     0.417000        1.0080           0
   99604 WT6  4105 TIP3 OH2  OT    -0.834000       15.9994           0
   99605 WT6  4105 TIP3 H1   HT     0.417000        1.0080           0
   99606 WT6  4105 TIP3 H2   HT     0.417000        1.0080           0
   99607 WT6  4106 TIP3 OH2  OT    -0.834000       15.9994           0
   99608 WT6  4106 TIP3 H1   HT     0.417000        1.0080           0
   99609 WT6  4106 TIP3 H2   HT     0.417000        1.0080           0
   99610 WT6  4107 TIP3 OH2  OT    -0.834000       15.9994           0
   99611 WT6  4107 TIP3 H1   HT     0.417000        1.0080           0
   99612 WT6  4107 TIP3 H2   HT     0.417000        1.0080           0
   99613 WT6  4109 TIP3 OH2  OT    -0.834000       15.9994           0
   99614 WT6  4109 TIP3 H1   HT     0.417000        1.0080           0
   99615 WT6  4109 TIP3 H2   HT     0.417000        1.0080           0
   99616 WT6  4110 TIP3 OH2  OT    -0.834000       15.9994           0
   99617 WT6  4110 TIP3 H1   HT     0.417000        1.0080           0
   99618 WT6  4110 TIP3 H2   HT     0.417000        1.0080           0
   99619 WT6  4111 TIP3 OH2  OT    -0.834000       15.9994           0
   99620 WT6  4111 TIP3 H1   HT     0.417000        1.0080           0
   99621 WT6  4111 TIP3 H2   HT     0.417000        1.0080           0
   99622 WT6  4116 TIP3 OH2  OT    -0.834000       15.9994           0
   99623 WT6  4116 TIP3 H1   HT     0.417000        1.0080           0
   99624 WT6  4116 TIP3 H2   HT     0.417000        1.0080           0
   99625 WT6  4119 TIP3 OH2  OT    -0.834000       15.9994           0
   99626 WT6  4119 TIP3 H1   HT     0.417000        1.0080           0
   99627 WT6  4119 TIP3 H2   HT     0.417000        1.0080           0
   99628 WT6  4120 TIP3 OH2  OT    -0.834000       15.9994           0
   99629 WT6  4120 TIP3 H1   HT     0.417000        1.0080           0
   99630 WT6  4120 TIP3 H2   HT     0.417000        1.0080           0
   99631 WT6  4121 TIP3 OH2  OT    -0.834000       15.9994           0
   99632 WT6  4121 TIP3 H1   HT     0.417000        1.0080           0
   99633 WT6  4121 TIP3 H2   HT     0.417000        1.0080           0
   99634 WT6  4122 TIP3 OH2  OT    -0.834000       15.9994           0
   99635 WT6  4122 TIP3 H1   HT     0.417000        1.0080           0
   99636 WT6  4122 TIP3 H2   HT     0.417000        1.0080           0
   99637 WT6  4123 TIP3 OH2  OT    -0.834000       15.9994           0
   99638 WT6  4123 TIP3 H1   HT     0.417000        1.0080           0
   99639 WT6  4123 TIP3 H2   HT     0.417000        1.0080           0
   99640 WT6  4124 TIP3 OH2  OT    -0.834000       15.9994           0
   99641 WT6  4124 TIP3 H1   HT     0.417000        1.0080           0
   99642 WT6  4124 TIP3 H2   HT     0.417000        1.0080           0
   99643 WT6  4126 TIP3 OH2  OT    -0.834000       15.9994           0
   99644 WT6  4126 TIP3 H1   HT     0.417000        1.0080           0
   99645 WT6  4126 TIP3 H2   HT     0.417000        1.0080           0
   99646 WT6  4127 TIP3 OH2  OT    -0.834000       15.9994           0
   99647 WT6  4127 TIP3 H1   HT     0.417000        1.0080           0
   99648 WT6  4127 TIP3 H2   HT     0.417000        1.0080           0
   99649 WT6  4131 TIP3 OH2  OT    -0.834000       15.9994           0
   99650 WT6  4131 TIP3 H1   HT     0.417000        1.0080           0
   99651 WT6  4131 TIP3 H2   HT     0.417000        1.0080           0
   99652 WT6  4138 TIP3 OH2  OT    -0.834000       15.9994           0
   99653 WT6  4138 TIP3 H1   HT     0.417000        1.0080           0
   99654 WT6  4138 TIP3 H2   HT     0.417000        1.0080           0
   99655 WT6  4139 TIP3 OH2  OT    -0.834000       15.9994           0
   99656 WT6  4139 TIP3 H1   HT     0.417000        1.0080           0
   99657 WT6  4139 TIP3 H2   HT     0.417000        1.0080           0
   99658 WT6  4140 TIP3 OH2  OT    -0.834000       15.9994           0
   99659 WT6  4140 TIP3 H1   HT     0.417000        1.0080           0
   99660 WT6  4140 TIP3 H2   HT     0.417000        1.0080           0
   99661 WT6  4141 TIP3 OH2  OT    -0.834000       15.9994           0
   99662 WT6  4141 TIP3 H1   HT     0.417000        1.0080           0
   99663 WT6  4141 TIP3 H2   HT     0.417000        1.0080           0
   99664 WT6  4142 TIP3 OH2  OT    -0.834000       15.9994           0
   99665 WT6  4142 TIP3 H1   HT     0.417000        1.0080           0
   99666 WT6  4142 TIP3 H2   HT     0.417000        1.0080           0
   99667 WT6  4143 TIP3 OH2  OT    -0.834000       15.9994           0
   99668 WT6  4143 TIP3 H1   HT     0.417000        1.0080           0
   99669 WT6  4143 TIP3 H2   HT     0.417000        1.0080           0
   99670 WT6  4144 TIP3 OH2  OT    -0.834000       15.9994           0
   99671 WT6  4144 TIP3 H1   HT     0.417000        1.0080           0
   99672 WT6  4144 TIP3 H2   HT     0.417000        1.0080           0
   99673 WT6  4145 TIP3 OH2  OT    -0.834000       15.9994           0
   99674 WT6  4145 TIP3 H1   HT     0.417000        1.0080           0
   99675 WT6  4145 TIP3 H2   HT     0.417000        1.0080           0
   99676 WT6  4146 TIP3 OH2  OT    -0.834000       15.9994           0
   99677 WT6  4146 TIP3 H1   HT     0.417000        1.0080           0
   99678 WT6  4146 TIP3 H2   HT     0.417000        1.0080           0
   99679 WT6  4147 TIP3 OH2  OT    -0.834000       15.9994           0
   99680 WT6  4147 TIP3 H1   HT     0.417000        1.0080           0
   99681 WT6  4147 TIP3 H2   HT     0.417000        1.0080           0
   99682 WT6  4148 TIP3 OH2  OT    -0.834000       15.9994           0
   99683 WT6  4148 TIP3 H1   HT     0.417000        1.0080           0
   99684 WT6  4148 TIP3 H2   HT     0.417000        1.0080           0
   99685 WT6  4150 TIP3 OH2  OT    -0.834000       15.9994           0
   99686 WT6  4150 TIP3 H1   HT     0.417000        1.0080           0
   99687 WT6  4150 TIP3 H2   HT     0.417000        1.0080           0
   99688 WT6  4151 TIP3 OH2  OT    -0.834000       15.9994           0
   99689 WT6  4151 TIP3 H1   HT     0.417000        1.0080           0
   99690 WT6  4151 TIP3 H2   HT     0.417000        1.0080           0
   99691 WT6  4152 TIP3 OH2  OT    -0.834000       15.9994           0
   99692 WT6  4152 TIP3 H1   HT     0.417000        1.0080           0
   99693 WT6  4152 TIP3 H2   HT     0.417000        1.0080           0
   99694 WT6  4157 TIP3 OH2  OT    -0.834000       15.9994           0
   99695 WT6  4157 TIP3 H1   HT     0.417000        1.0080           0
   99696 WT6  4157 TIP3 H2   HT     0.417000        1.0080           0
   99697 WT6  4158 TIP3 OH2  OT    -0.834000       15.9994           0
   99698 WT6  4158 TIP3 H1   HT     0.417000        1.0080           0
   99699 WT6  4158 TIP3 H2   HT     0.417000        1.0080           0
   99700 WT6  4159 TIP3 OH2  OT    -0.834000       15.9994           0
   99701 WT6  4159 TIP3 H1   HT     0.417000        1.0080           0
   99702 WT6  4159 TIP3 H2   HT     0.417000        1.0080           0
   99703 WT6  4161 TIP3 OH2  OT    -0.834000       15.9994           0
   99704 WT6  4161 TIP3 H1   HT     0.417000        1.0080           0
   99705 WT6  4161 TIP3 H2   HT     0.417000        1.0080           0
   99706 WT6  4162 TIP3 OH2  OT    -0.834000       15.9994           0
   99707 WT6  4162 TIP3 H1   HT     0.417000        1.0080           0
   99708 WT6  4162 TIP3 H2   HT     0.417000        1.0080           0
   99709 WT6  4163 TIP3 OH2  OT    -0.834000       15.9994           0
   99710 WT6  4163 TIP3 H1   HT     0.417000        1.0080           0
   99711 WT6  4163 TIP3 H2   HT     0.417000        1.0080           0
   99712 WT6  4164 TIP3 OH2  OT    -0.834000       15.9994           0
   99713 WT6  4164 TIP3 H1   HT     0.417000        1.0080           0
   99714 WT6  4164 TIP3 H2   HT     0.417000        1.0080           0
   99715 WT6  4165 TIP3 OH2  OT    -0.834000       15.9994           0
   99716 WT6  4165 TIP3 H1   HT     0.417000        1.0080           0
   99717 WT6  4165 TIP3 H2   HT     0.417000        1.0080           0
   99718 WT6  4166 TIP3 OH2  OT    -0.834000       15.9994           0
   99719 WT6  4166 TIP3 H1   HT     0.417000        1.0080           0
   99720 WT6  4166 TIP3 H2   HT     0.417000        1.0080           0
   99721 WT6  4167 TIP3 OH2  OT    -0.834000       15.9994           0
   99722 WT6  4167 TIP3 H1   HT     0.417000        1.0080           0
   99723 WT6  4167 TIP3 H2   HT     0.417000        1.0080           0
   99724 WT6  4168 TIP3 OH2  OT    -0.834000       15.9994           0
   99725 WT6  4168 TIP3 H1   HT     0.417000        1.0080           0
   99726 WT6  4168 TIP3 H2   HT     0.417000        1.0080           0
   99727 WT6  4170 TIP3 OH2  OT    -0.834000       15.9994           0
   99728 WT6  4170 TIP3 H1   HT     0.417000        1.0080           0
   99729 WT6  4170 TIP3 H2   HT     0.417000        1.0080           0
   99730 WT6  4171 TIP3 OH2  OT    -0.834000       15.9994           0
   99731 WT6  4171 TIP3 H1   HT     0.417000        1.0080           0
   99732 WT6  4171 TIP3 H2   HT     0.417000        1.0080           0
   99733 WT6  4179 TIP3 OH2  OT    -0.834000       15.9994           0
   99734 WT6  4179 TIP3 H1   HT     0.417000        1.0080           0
   99735 WT6  4179 TIP3 H2   HT     0.417000        1.0080           0
   99736 WT6  4181 TIP3 OH2  OT    -0.834000       15.9994           0
   99737 WT6  4181 TIP3 H1   HT     0.417000        1.0080           0
   99738 WT6  4181 TIP3 H2   HT     0.417000        1.0080           0
   99739 WT6  4182 TIP3 OH2  OT    -0.834000       15.9994           0
   99740 WT6  4182 TIP3 H1   HT     0.417000        1.0080           0
   99741 WT6  4182 TIP3 H2   HT     0.417000        1.0080           0
   99742 WT6  4183 TIP3 OH2  OT    -0.834000       15.9994           0
   99743 WT6  4183 TIP3 H1   HT     0.417000        1.0080           0
   99744 WT6  4183 TIP3 H2   HT     0.417000        1.0080           0
   99745 WT6  4184 TIP3 OH2  OT    -0.834000       15.9994           0
   99746 WT6  4184 TIP3 H1   HT     0.417000        1.0080           0
   99747 WT6  4184 TIP3 H2   HT     0.417000        1.0080           0
   99748 WT6  4185 TIP3 OH2  OT    -0.834000       15.9994           0
   99749 WT6  4185 TIP3 H1   HT     0.417000        1.0080           0
   99750 WT6  4185 TIP3 H2   HT     0.417000        1.0080           0
   99751 WT6  4186 TIP3 OH2  OT    -0.834000       15.9994           0
   99752 WT6  4186 TIP3 H1   HT     0.417000        1.0080           0
   99753 WT6  4186 TIP3 H2   HT     0.417000        1.0080           0
   99754 WT6  4187 TIP3 OH2  OT    -0.834000       15.9994           0
   99755 WT6  4187 TIP3 H1   HT     0.417000        1.0080           0
   99756 WT6  4187 TIP3 H2   HT     0.417000        1.0080           0
   99757 WT6  4188 TIP3 OH2  OT    -0.834000       15.9994           0
   99758 WT6  4188 TIP3 H1   HT     0.417000        1.0080           0
   99759 WT6  4188 TIP3 H2   HT     0.417000        1.0080           0
   99760 WT6  4190 TIP3 OH2  OT    -0.834000       15.9994           0
   99761 WT6  4190 TIP3 H1   HT     0.417000        1.0080           0
   99762 WT6  4190 TIP3 H2   HT     0.417000        1.0080           0
   99763 WT6  4191 TIP3 OH2  OT    -0.834000       15.9994           0
   99764 WT6  4191 TIP3 H1   HT     0.417000        1.0080           0
   99765 WT6  4191 TIP3 H2   HT     0.417000        1.0080           0
   99766 WT6  4194 TIP3 OH2  OT    -0.834000       15.9994           0
   99767 WT6  4194 TIP3 H1   HT     0.417000        1.0080           0
   99768 WT6  4194 TIP3 H2   HT     0.417000        1.0080           0
   99769 WT6  4198 TIP3 OH2  OT    -0.834000       15.9994           0
   99770 WT6  4198 TIP3 H1   HT     0.417000        1.0080           0
   99771 WT6  4198 TIP3 H2   HT     0.417000        1.0080           0
   99772 WT6  4200 TIP3 OH2  OT    -0.834000       15.9994           0
   99773 WT6  4200 TIP3 H1   HT     0.417000        1.0080           0
   99774 WT6  4200 TIP3 H2   HT     0.417000        1.0080           0
   99775 WT6  4201 TIP3 OH2  OT    -0.834000       15.9994           0
   99776 WT6  4201 TIP3 H1   HT     0.417000        1.0080           0
   99777 WT6  4201 TIP3 H2   HT     0.417000        1.0080           0
   99778 WT6  4202 TIP3 OH2  OT    -0.834000       15.9994           0
   99779 WT6  4202 TIP3 H1   HT     0.417000        1.0080           0
   99780 WT6  4202 TIP3 H2   HT     0.417000        1.0080           0
   99781 WT6  4205 TIP3 OH2  OT    -0.834000       15.9994           0
   99782 WT6  4205 TIP3 H1   HT     0.417000        1.0080           0
   99783 WT6  4205 TIP3 H2   HT     0.417000        1.0080           0
   99784 WT6  4206 TIP3 OH2  OT    -0.834000       15.9994           0
   99785 WT6  4206 TIP3 H1   HT     0.417000        1.0080           0
   99786 WT6  4206 TIP3 H2   HT     0.417000        1.0080           0
   99787 WT6  4207 TIP3 OH2  OT    -0.834000       15.9994           0
   99788 WT6  4207 TIP3 H1   HT     0.417000        1.0080           0
   99789 WT6  4207 TIP3 H2   HT     0.417000        1.0080           0
   99790 WT6  4208 TIP3 OH2  OT    -0.834000       15.9994           0
   99791 WT6  4208 TIP3 H1   HT     0.417000        1.0080           0
   99792 WT6  4208 TIP3 H2   HT     0.417000        1.0080           0
   99793 WT6  4209 TIP3 OH2  OT    -0.834000       15.9994           0
   99794 WT6  4209 TIP3 H1   HT     0.417000        1.0080           0
   99795 WT6  4209 TIP3 H2   HT     0.417000        1.0080           0
   99796 WT6  4211 TIP3 OH2  OT    -0.834000       15.9994           0
   99797 WT6  4211 TIP3 H1   HT     0.417000        1.0080           0
   99798 WT6  4211 TIP3 H2   HT     0.417000        1.0080           0
   99799 WT6  4213 TIP3 OH2  OT    -0.834000       15.9994           0
   99800 WT6  4213 TIP3 H1   HT     0.417000        1.0080           0
   99801 WT6  4213 TIP3 H2   HT     0.417000        1.0080           0
   99802 WT6  4215 TIP3 OH2  OT    -0.834000       15.9994           0
   99803 WT6  4215 TIP3 H1   HT     0.417000        1.0080           0
   99804 WT6  4215 TIP3 H2   HT     0.417000        1.0080           0
   99805 WT6  4218 TIP3 OH2  OT    -0.834000       15.9994           0
   99806 WT6  4218 TIP3 H1   HT     0.417000        1.0080           0
   99807 WT6  4218 TIP3 H2   HT     0.417000        1.0080           0
   99808 WT6  4219 TIP3 OH2  OT    -0.834000       15.9994           0
   99809 WT6  4219 TIP3 H1   HT     0.417000        1.0080           0
   99810 WT6  4219 TIP3 H2   HT     0.417000        1.0080           0
   99811 WT6  4224 TIP3 OH2  OT    -0.834000       15.9994           0
   99812 WT6  4224 TIP3 H1   HT     0.417000        1.0080           0
   99813 WT6  4224 TIP3 H2   HT     0.417000        1.0080           0
   99814 WT6  4225 TIP3 OH2  OT    -0.834000       15.9994           0
   99815 WT6  4225 TIP3 H1   HT     0.417000        1.0080           0
   99816 WT6  4225 TIP3 H2   HT     0.417000        1.0080           0
   99817 WT6  4226 TIP3 OH2  OT    -0.834000       15.9994           0
   99818 WT6  4226 TIP3 H1   HT     0.417000        1.0080           0
   99819 WT6  4226 TIP3 H2   HT     0.417000        1.0080           0
   99820 WT6  4227 TIP3 OH2  OT    -0.834000       15.9994           0
   99821 WT6  4227 TIP3 H1   HT     0.417000        1.0080           0
   99822 WT6  4227 TIP3 H2   HT     0.417000        1.0080           0
   99823 WT6  4228 TIP3 OH2  OT    -0.834000       15.9994           0
   99824 WT6  4228 TIP3 H1   HT     0.417000        1.0080           0
   99825 WT6  4228 TIP3 H2   HT     0.417000        1.0080           0
   99826 WT6  4229 TIP3 OH2  OT    -0.834000       15.9994           0
   99827 WT6  4229 TIP3 H1   HT     0.417000        1.0080           0
   99828 WT6  4229 TIP3 H2   HT     0.417000        1.0080           0
   99829 WT6  4231 TIP3 OH2  OT    -0.834000       15.9994           0
   99830 WT6  4231 TIP3 H1   HT     0.417000        1.0080           0
   99831 WT6  4231 TIP3 H2   HT     0.417000        1.0080           0
   99832 WT6  4232 TIP3 OH2  OT    -0.834000       15.9994           0
   99833 WT6  4232 TIP3 H1   HT     0.417000        1.0080           0
   99834 WT6  4232 TIP3 H2   HT     0.417000        1.0080           0
   99835 WT6  4233 TIP3 OH2  OT    -0.834000       15.9994           0
   99836 WT6  4233 TIP3 H1   HT     0.417000        1.0080           0
   99837 WT6  4233 TIP3 H2   HT     0.417000        1.0080           0
   99838 WT6  4234 TIP3 OH2  OT    -0.834000       15.9994           0
   99839 WT6  4234 TIP3 H1   HT     0.417000        1.0080           0
   99840 WT6  4234 TIP3 H2   HT     0.417000        1.0080           0
   99841 WT6  4235 TIP3 OH2  OT    -0.834000       15.9994           0
   99842 WT6  4235 TIP3 H1   HT     0.417000        1.0080           0
   99843 WT6  4235 TIP3 H2   HT     0.417000        1.0080           0
   99844 WT6  4236 TIP3 OH2  OT    -0.834000       15.9994           0
   99845 WT6  4236 TIP3 H1   HT     0.417000        1.0080           0
   99846 WT6  4236 TIP3 H2   HT     0.417000        1.0080           0
   99847 WT6  4243 TIP3 OH2  OT    -0.834000       15.9994           0
   99848 WT6  4243 TIP3 H1   HT     0.417000        1.0080           0
   99849 WT6  4243 TIP3 H2   HT     0.417000        1.0080           0
   99850 WT6  4244 TIP3 OH2  OT    -0.834000       15.9994           0
   99851 WT6  4244 TIP3 H1   HT     0.417000        1.0080           0
   99852 WT6  4244 TIP3 H2   HT     0.417000        1.0080           0
   99853 WT6  4245 TIP3 OH2  OT    -0.834000       15.9994           0
   99854 WT6  4245 TIP3 H1   HT     0.417000        1.0080           0
   99855 WT6  4245 TIP3 H2   HT     0.417000        1.0080           0
   99856 WT6  4246 TIP3 OH2  OT    -0.834000       15.9994           0
   99857 WT6  4246 TIP3 H1   HT     0.417000        1.0080           0
   99858 WT6  4246 TIP3 H2   HT     0.417000        1.0080           0
   99859 WT6  4247 TIP3 OH2  OT    -0.834000       15.9994           0
   99860 WT6  4247 TIP3 H1   HT     0.417000        1.0080           0
   99861 WT6  4247 TIP3 H2   HT     0.417000        1.0080           0
   99862 WT6  4248 TIP3 OH2  OT    -0.834000       15.9994           0
   99863 WT6  4248 TIP3 H1   HT     0.417000        1.0080           0
   99864 WT6  4248 TIP3 H2   HT     0.417000        1.0080           0
   99865 WT6  4249 TIP3 OH2  OT    -0.834000       15.9994           0
   99866 WT6  4249 TIP3 H1   HT     0.417000        1.0080           0
   99867 WT6  4249 TIP3 H2   HT     0.417000        1.0080           0
   99868 WT6  4250 TIP3 OH2  OT    -0.834000       15.9994           0
   99869 WT6  4250 TIP3 H1   HT     0.417000        1.0080           0
   99870 WT6  4250 TIP3 H2   HT     0.417000        1.0080           0
   99871 WT6  4251 TIP3 OH2  OT    -0.834000       15.9994           0
   99872 WT6  4251 TIP3 H1   HT     0.417000        1.0080           0
   99873 WT6  4251 TIP3 H2   HT     0.417000        1.0080           0
   99874 WT6  4252 TIP3 OH2  OT    -0.834000       15.9994           0
   99875 WT6  4252 TIP3 H1   HT     0.417000        1.0080           0
   99876 WT6  4252 TIP3 H2   HT     0.417000        1.0080           0
   99877 WT6  4254 TIP3 OH2  OT    -0.834000       15.9994           0
   99878 WT6  4254 TIP3 H1   HT     0.417000        1.0080           0
   99879 WT6  4254 TIP3 H2   HT     0.417000        1.0080           0
   99880 WT6  4255 TIP3 OH2  OT    -0.834000       15.9994           0
   99881 WT6  4255 TIP3 H1   HT     0.417000        1.0080           0
   99882 WT6  4255 TIP3 H2   HT     0.417000        1.0080           0
   99883 WT6  4262 TIP3 OH2  OT    -0.834000       15.9994           0
   99884 WT6  4262 TIP3 H1   HT     0.417000        1.0080           0
   99885 WT6  4262 TIP3 H2   HT     0.417000        1.0080           0
   99886 WT6  4264 TIP3 OH2  OT    -0.834000       15.9994           0
   99887 WT6  4264 TIP3 H1   HT     0.417000        1.0080           0
   99888 WT6  4264 TIP3 H2   HT     0.417000        1.0080           0
   99889 WT6  4266 TIP3 OH2  OT    -0.834000       15.9994           0
   99890 WT6  4266 TIP3 H1   HT     0.417000        1.0080           0
   99891 WT6  4266 TIP3 H2   HT     0.417000        1.0080           0
   99892 WT6  4267 TIP3 OH2  OT    -0.834000       15.9994           0
   99893 WT6  4267 TIP3 H1   HT     0.417000        1.0080           0
   99894 WT6  4267 TIP3 H2   HT     0.417000        1.0080           0
   99895 WT6  4268 TIP3 OH2  OT    -0.834000       15.9994           0
   99896 WT6  4268 TIP3 H1   HT     0.417000        1.0080           0
   99897 WT6  4268 TIP3 H2   HT     0.417000        1.0080           0
   99898 WT6  4269 TIP3 OH2  OT    -0.834000       15.9994           0
   99899 WT6  4269 TIP3 H1   HT     0.417000        1.0080           0
   99900 WT6  4269 TIP3 H2   HT     0.417000        1.0080           0
   99901 WT6  4270 TIP3 OH2  OT    -0.834000       15.9994           0
   99902 WT6  4270 TIP3 H1   HT     0.417000        1.0080           0
   99903 WT6  4270 TIP3 H2   HT     0.417000        1.0080           0
   99904 WT6  4271 TIP3 OH2  OT    -0.834000       15.9994           0
   99905 WT6  4271 TIP3 H1   HT     0.417000        1.0080           0
   99906 WT6  4271 TIP3 H2   HT     0.417000        1.0080           0
   99907 WT6  4272 TIP3 OH2  OT    -0.834000       15.9994           0
   99908 WT6  4272 TIP3 H1   HT     0.417000        1.0080           0
   99909 WT6  4272 TIP3 H2   HT     0.417000        1.0080           0
   99910 WT6  4273 TIP3 OH2  OT    -0.834000       15.9994           0
   99911 WT6  4273 TIP3 H1   HT     0.417000        1.0080           0
   99912 WT6  4273 TIP3 H2   HT     0.417000        1.0080           0
   99913 WT6  4274 TIP3 OH2  OT    -0.834000       15.9994           0
   99914 WT6  4274 TIP3 H1   HT     0.417000        1.0080           0
   99915 WT6  4274 TIP3 H2   HT     0.417000        1.0080           0
   99916 WT6  4275 TIP3 OH2  OT    -0.834000       15.9994           0
   99917 WT6  4275 TIP3 H1   HT     0.417000        1.0080           0
   99918 WT6  4275 TIP3 H2   HT     0.417000        1.0080           0
   99919 WT6  4277 TIP3 OH2  OT    -0.834000       15.9994           0
   99920 WT6  4277 TIP3 H1   HT     0.417000        1.0080           0
   99921 WT6  4277 TIP3 H2   HT     0.417000        1.0080           0
   99922 WT6  4278 TIP3 OH2  OT    -0.834000       15.9994           0
   99923 WT6  4278 TIP3 H1   HT     0.417000        1.0080           0
   99924 WT6  4278 TIP3 H2   HT     0.417000        1.0080           0
   99925 WT6  4282 TIP3 OH2  OT    -0.834000       15.9994           0
   99926 WT6  4282 TIP3 H1   HT     0.417000        1.0080           0
   99927 WT6  4282 TIP3 H2   HT     0.417000        1.0080           0
   99928 WT6  4287 TIP3 OH2  OT    -0.834000       15.9994           0
   99929 WT6  4287 TIP3 H1   HT     0.417000        1.0080           0
   99930 WT6  4287 TIP3 H2   HT     0.417000        1.0080           0
   99931 WT6  4288 TIP3 OH2  OT    -0.834000       15.9994           0
   99932 WT6  4288 TIP3 H1   HT     0.417000        1.0080           0
   99933 WT6  4288 TIP3 H2   HT     0.417000        1.0080           0
   99934 WT6  4289 TIP3 OH2  OT    -0.834000       15.9994           0
   99935 WT6  4289 TIP3 H1   HT     0.417000        1.0080           0
   99936 WT6  4289 TIP3 H2   HT     0.417000        1.0080           0
   99937 WT6  4290 TIP3 OH2  OT    -0.834000       15.9994           0
   99938 WT6  4290 TIP3 H1   HT     0.417000        1.0080           0
   99939 WT6  4290 TIP3 H2   HT     0.417000        1.0080           0
   99940 WT6  4291 TIP3 OH2  OT    -0.834000       15.9994           0
   99941 WT6  4291 TIP3 H1   HT     0.417000        1.0080           0
   99942 WT6  4291 TIP3 H2   HT     0.417000        1.0080           0
   99943 WT6  4293 TIP3 OH2  OT    -0.834000       15.9994           0
   99944 WT6  4293 TIP3 H1   HT     0.417000        1.0080           0
   99945 WT6  4293 TIP3 H2   HT     0.417000        1.0080           0
   99946 WT6  4294 TIP3 OH2  OT    -0.834000       15.9994           0
   99947 WT6  4294 TIP3 H1   HT     0.417000        1.0080           0
   99948 WT6  4294 TIP3 H2   HT     0.417000        1.0080           0
   99949 WT6  4296 TIP3 OH2  OT    -0.834000       15.9994           0
   99950 WT6  4296 TIP3 H1   HT     0.417000        1.0080           0
   99951 WT6  4296 TIP3 H2   HT     0.417000        1.0080           0
   99952 WT6  4297 TIP3 OH2  OT    -0.834000       15.9994           0
   99953 WT6  4297 TIP3 H1   HT     0.417000        1.0080           0
   99954 WT6  4297 TIP3 H2   HT     0.417000        1.0080           0
   99955 WT6  4298 TIP3 OH2  OT    -0.834000       15.9994           0
   99956 WT6  4298 TIP3 H1   HT     0.417000        1.0080           0
   99957 WT6  4298 TIP3 H2   HT     0.417000        1.0080           0
   99958 WT6  4304 TIP3 OH2  OT    -0.834000       15.9994           0
   99959 WT6  4304 TIP3 H1   HT     0.417000        1.0080           0
   99960 WT6  4304 TIP3 H2   HT     0.417000        1.0080           0
   99961 WT6  4307 TIP3 OH2  OT    -0.834000       15.9994           0
   99962 WT6  4307 TIP3 H1   HT     0.417000        1.0080           0
   99963 WT6  4307 TIP3 H2   HT     0.417000        1.0080           0
   99964 WT6  4308 TIP3 OH2  OT    -0.834000       15.9994           0
   99965 WT6  4308 TIP3 H1   HT     0.417000        1.0080           0
   99966 WT6  4308 TIP3 H2   HT     0.417000        1.0080           0
   99967 WT6  4309 TIP3 OH2  OT    -0.834000       15.9994           0
   99968 WT6  4309 TIP3 H1   HT     0.417000        1.0080           0
   99969 WT6  4309 TIP3 H2   HT     0.417000        1.0080           0
   99970 WT6  4310 TIP3 OH2  OT    -0.834000       15.9994           0
   99971 WT6  4310 TIP3 H1   HT     0.417000        1.0080           0
   99972 WT6  4310 TIP3 H2   HT     0.417000        1.0080           0
   99973 WT6  4311 TIP3 OH2  OT    -0.834000       15.9994           0
   99974 WT6  4311 TIP3 H1   HT     0.417000        1.0080           0
   99975 WT6  4311 TIP3 H2   HT     0.417000        1.0080           0
   99976 WT6  4312 TIP3 OH2  OT    -0.834000       15.9994           0
   99977 WT6  4312 TIP3 H1   HT     0.417000        1.0080           0
   99978 WT6  4312 TIP3 H2   HT     0.417000        1.0080           0
   99979 WT6  4313 TIP3 OH2  OT    -0.834000       15.9994           0
   99980 WT6  4313 TIP3 H1   HT     0.417000        1.0080           0
   99981 WT6  4313 TIP3 H2   HT     0.417000        1.0080           0
   99982 WT6  4314 TIP3 OH2  OT    -0.834000       15.9994           0
   99983 WT6  4314 TIP3 H1   HT     0.417000        1.0080           0
   99984 WT6  4314 TIP3 H2   HT     0.417000        1.0080           0
   99985 WT6  4315 TIP3 OH2  OT    -0.834000       15.9994           0
   99986 WT6  4315 TIP3 H1   HT     0.417000        1.0080           0
   99987 WT6  4315 TIP3 H2   HT     0.417000        1.0080           0
   99988 WT6  4316 TIP3 OH2  OT    -0.834000       15.9994           0
   99989 WT6  4316 TIP3 H1   HT     0.417000        1.0080           0
   99990 WT6  4316 TIP3 H2   HT     0.417000        1.0080           0
   99991 WT6  4317 TIP3 OH2  OT    -0.834000       15.9994           0
   99992 WT6  4317 TIP3 H1   HT     0.417000        1.0080           0
   99993 WT6  4317 TIP3 H2   HT     0.417000        1.0080           0
   99994 WT6  4318 TIP3 OH2  OT    -0.834000       15.9994           0
   99995 WT6  4318 TIP3 H1   HT     0.417000        1.0080           0
   99996 WT6  4318 TIP3 H2   HT     0.417000        1.0080           0
   99997 WT6  4320 TIP3 OH2  OT    -0.834000       15.9994           0
   99998 WT6  4320 TIP3 H1   HT     0.417000        1.0080           0
   99999 WT6  4320 TIP3 H2   HT     0.417000        1.0080           0
  100000 WT6  4321 TIP3 OH2  OT    -0.834000       15.9994           0
  100001 WT6  4321 TIP3 H1   HT     0.417000        1.0080           0
  100002 WT6  4321 TIP3 H2   HT     0.417000        1.0080           0
  100003 WT6  4328 TIP3 OH2  OT    -0.834000       15.9994           0
  100004 WT6  4328 TIP3 H1   HT     0.417000        1.0080           0
  100005 WT6  4328 TIP3 H2   HT     0.417000        1.0080           0
  100006 WT6  4329 TIP3 OH2  OT    -0.834000       15.9994           0
  100007 WT6  4329 TIP3 H1   HT     0.417000        1.0080           0
  100008 WT6  4329 TIP3 H2   HT     0.417000        1.0080           0
  100009 WT6  4330 TIP3 OH2  OT    -0.834000       15.9994           0
  100010 WT6  4330 TIP3 H1   HT     0.417000        1.0080           0
  100011 WT6  4330 TIP3 H2   HT     0.417000        1.0080           0
  100012 WT6  4331 TIP3 OH2  OT    -0.834000       15.9994           0
  100013 WT6  4331 TIP3 H1   HT     0.417000        1.0080           0
  100014 WT6  4331 TIP3 H2   HT     0.417000        1.0080           0
  100015 WT6  4332 TIP3 OH2  OT    -0.834000       15.9994           0
  100016 WT6  4332 TIP3 H1   HT     0.417000        1.0080           0
  100017 WT6  4332 TIP3 H2   HT     0.417000        1.0080           0
  100018 WT6  4333 TIP3 OH2  OT    -0.834000       15.9994           0
  100019 WT6  4333 TIP3 H1   HT     0.417000        1.0080           0
  100020 WT6  4333 TIP3 H2   HT     0.417000        1.0080           0
  100021 WT6  4334 TIP3 OH2  OT    -0.834000       15.9994           0
  100022 WT6  4334 TIP3 H1   HT     0.417000        1.0080           0
  100023 WT6  4334 TIP3 H2   HT     0.417000        1.0080           0
  100024 WT6  4335 TIP3 OH2  OT    -0.834000       15.9994           0
  100025 WT6  4335 TIP3 H1   HT     0.417000        1.0080           0
  100026 WT6  4335 TIP3 H2   HT     0.417000        1.0080           0
  100027 WT6  4336 TIP3 OH2  OT    -0.834000       15.9994           0
  100028 WT6  4336 TIP3 H1   HT     0.417000        1.0080           0
  100029 WT6  4336 TIP3 H2   HT     0.417000        1.0080           0
  100030 WT6  4337 TIP3 OH2  OT    -0.834000       15.9994           0
  100031 WT6  4337 TIP3 H1   HT     0.417000        1.0080           0
  100032 WT6  4337 TIP3 H2   HT     0.417000        1.0080           0
  100033 WT6  4338 TIP3 OH2  OT    -0.834000       15.9994           0
  100034 WT6  4338 TIP3 H1   HT     0.417000        1.0080           0
  100035 WT6  4338 TIP3 H2   HT     0.417000        1.0080           0
  100036 WT6  4339 TIP3 OH2  OT    -0.834000       15.9994           0
  100037 WT6  4339 TIP3 H1   HT     0.417000        1.0080           0
  100038 WT6  4339 TIP3 H2   HT     0.417000        1.0080           0
  100039 WT6  4349 TIP3 OH2  OT    -0.834000       15.9994           0
  100040 WT6  4349 TIP3 H1   HT     0.417000        1.0080           0
  100041 WT6  4349 TIP3 H2   HT     0.417000        1.0080           0
  100042 WT6  4350 TIP3 OH2  OT    -0.834000       15.9994           0
  100043 WT6  4350 TIP3 H1   HT     0.417000        1.0080           0
  100044 WT6  4350 TIP3 H2   HT     0.417000        1.0080           0
  100045 WT6  4351 TIP3 OH2  OT    -0.834000       15.9994           0
  100046 WT6  4351 TIP3 H1   HT     0.417000        1.0080           0
  100047 WT6  4351 TIP3 H2   HT     0.417000        1.0080           0
  100048 WT6  4352 TIP3 OH2  OT    -0.834000       15.9994           0
  100049 WT6  4352 TIP3 H1   HT     0.417000        1.0080           0
  100050 WT6  4352 TIP3 H2   HT     0.417000        1.0080           0
  100051 WT6  4353 TIP3 OH2  OT    -0.834000       15.9994           0
  100052 WT6  4353 TIP3 H1   HT     0.417000        1.0080           0
  100053 WT6  4353 TIP3 H2   HT     0.417000        1.0080           0
  100054 WT6  4354 TIP3 OH2  OT    -0.834000       15.9994           0
  100055 WT6  4354 TIP3 H1   HT     0.417000        1.0080           0
  100056 WT6  4354 TIP3 H2   HT     0.417000        1.0080           0
  100057 WT6  4355 TIP3 OH2  OT    -0.834000       15.9994           0
  100058 WT6  4355 TIP3 H1   HT     0.417000        1.0080           0
  100059 WT6  4355 TIP3 H2   HT     0.417000        1.0080           0
  100060 WT6  4356 TIP3 OH2  OT    -0.834000       15.9994           0
  100061 WT6  4356 TIP3 H1   HT     0.417000        1.0080           0
  100062 WT6  4356 TIP3 H2   HT     0.417000        1.0080           0
  100063 WT6  4357 TIP3 OH2  OT    -0.834000       15.9994           0
  100064 WT6  4357 TIP3 H1   HT     0.417000        1.0080           0
  100065 WT6  4357 TIP3 H2   HT     0.417000        1.0080           0
  100066 WT6  4358 TIP3 OH2  OT    -0.834000       15.9994           0
  100067 WT6  4358 TIP3 H1   HT     0.417000        1.0080           0
  100068 WT6  4358 TIP3 H2   HT     0.417000        1.0080           0
  100069 WT6  4359 TIP3 OH2  OT    -0.834000       15.9994           0
  100070 WT6  4359 TIP3 H1   HT     0.417000        1.0080           0
  100071 WT6  4359 TIP3 H2   HT     0.417000        1.0080           0
  100072 WT6  4361 TIP3 OH2  OT    -0.834000       15.9994           0
  100073 WT6  4361 TIP3 H1   HT     0.417000        1.0080           0
  100074 WT6  4361 TIP3 H2   HT     0.417000        1.0080           0
  100075 WT6  4362 TIP3 OH2  OT    -0.834000       15.9994           0
  100076 WT6  4362 TIP3 H1   HT     0.417000        1.0080           0
  100077 WT6  4362 TIP3 H2   HT     0.417000        1.0080           0
  100078 WT6  4363 TIP3 OH2  OT    -0.834000       15.9994           0
  100079 WT6  4363 TIP3 H1   HT     0.417000        1.0080           0
  100080 WT6  4363 TIP3 H2   HT     0.417000        1.0080           0
  100081 WT6  4371 TIP3 OH2  OT    -0.834000       15.9994           0
  100082 WT6  4371 TIP3 H1   HT     0.417000        1.0080           0
  100083 WT6  4371 TIP3 H2   HT     0.417000        1.0080           0
  100084 WT6  4372 TIP3 OH2  OT    -0.834000       15.9994           0
  100085 WT6  4372 TIP3 H1   HT     0.417000        1.0080           0
  100086 WT6  4372 TIP3 H2   HT     0.417000        1.0080           0
  100087 WT6  4373 TIP3 OH2  OT    -0.834000       15.9994           0
  100088 WT6  4373 TIP3 H1   HT     0.417000        1.0080           0
  100089 WT6  4373 TIP3 H2   HT     0.417000        1.0080           0
  100090 WT6  4375 TIP3 OH2  OT    -0.834000       15.9994           0
  100091 WT6  4375 TIP3 H1   HT     0.417000        1.0080           0
  100092 WT6  4375 TIP3 H2   HT     0.417000        1.0080           0
  100093 WT6  4376 TIP3 OH2  OT    -0.834000       15.9994           0
  100094 WT6  4376 TIP3 H1   HT     0.417000        1.0080           0
  100095 WT6  4376 TIP3 H2   HT     0.417000        1.0080           0
  100096 WT6  4377 TIP3 OH2  OT    -0.834000       15.9994           0
  100097 WT6  4377 TIP3 H1   HT     0.417000        1.0080           0
  100098 WT6  4377 TIP3 H2   HT     0.417000        1.0080           0
  100099 WT6  4379 TIP3 OH2  OT    -0.834000       15.9994           0
  100100 WT6  4379 TIP3 H1   HT     0.417000        1.0080           0
  100101 WT6  4379 TIP3 H2   HT     0.417000        1.0080           0
  100102 WT6  4380 TIP3 OH2  OT    -0.834000       15.9994           0
  100103 WT6  4380 TIP3 H1   HT     0.417000        1.0080           0
  100104 WT6  4380 TIP3 H2   HT     0.417000        1.0080           0
  100105 WT6  4382 TIP3 OH2  OT    -0.834000       15.9994           0
  100106 WT6  4382 TIP3 H1   HT     0.417000        1.0080           0
  100107 WT6  4382 TIP3 H2   HT     0.417000        1.0080           0
  100108 WT6  4383 TIP3 OH2  OT    -0.834000       15.9994           0
  100109 WT6  4383 TIP3 H1   HT     0.417000        1.0080           0
  100110 WT6  4383 TIP3 H2   HT     0.417000        1.0080           0
  100111 WT6  4387 TIP3 OH2  OT    -0.834000       15.9994           0
  100112 WT6  4387 TIP3 H1   HT     0.417000        1.0080           0
  100113 WT6  4387 TIP3 H2   HT     0.417000        1.0080           0
  100114 WT6  4391 TIP3 OH2  OT    -0.834000       15.9994           0
  100115 WT6  4391 TIP3 H1   HT     0.417000        1.0080           0
  100116 WT6  4391 TIP3 H2   HT     0.417000        1.0080           0
  100117 WT6  4392 TIP3 OH2  OT    -0.834000       15.9994           0
  100118 WT6  4392 TIP3 H1   HT     0.417000        1.0080           0
  100119 WT6  4392 TIP3 H2   HT     0.417000        1.0080           0
  100120 WT6  4393 TIP3 OH2  OT    -0.834000       15.9994           0
  100121 WT6  4393 TIP3 H1   HT     0.417000        1.0080           0
  100122 WT6  4393 TIP3 H2   HT     0.417000        1.0080           0
  100123 WT6  4394 TIP3 OH2  OT    -0.834000       15.9994           0
  100124 WT6  4394 TIP3 H1   HT     0.417000        1.0080           0
  100125 WT6  4394 TIP3 H2   HT     0.417000        1.0080           0
  100126 WT6  4395 TIP3 OH2  OT    -0.834000       15.9994           0
  100127 WT6  4395 TIP3 H1   HT     0.417000        1.0080           0
  100128 WT6  4395 TIP3 H2   HT     0.417000        1.0080           0
  100129 WT6  4396 TIP3 OH2  OT    -0.834000       15.9994           0
  100130 WT6  4396 TIP3 H1   HT     0.417000        1.0080           0
  100131 WT6  4396 TIP3 H2   HT     0.417000        1.0080           0
  100132 WT6  4397 TIP3 OH2  OT    -0.834000       15.9994           0
  100133 WT6  4397 TIP3 H1   HT     0.417000        1.0080           0
  100134 WT6  4397 TIP3 H2   HT     0.417000        1.0080           0
  100135 WT6  4398 TIP3 OH2  OT    -0.834000       15.9994           0
  100136 WT6  4398 TIP3 H1   HT     0.417000        1.0080           0
  100137 WT6  4398 TIP3 H2   HT     0.417000        1.0080           0
  100138 WT6  4399 TIP3 OH2  OT    -0.834000       15.9994           0
  100139 WT6  4399 TIP3 H1   HT     0.417000        1.0080           0
  100140 WT6  4399 TIP3 H2   HT     0.417000        1.0080           0
  100141 WT6  4400 TIP3 OH2  OT    -0.834000       15.9994           0
  100142 WT6  4400 TIP3 H1   HT     0.417000        1.0080           0
  100143 WT6  4400 TIP3 H2   HT     0.417000        1.0080           0
  100144 WT6  4401 TIP3 OH2  OT    -0.834000       15.9994           0
  100145 WT6  4401 TIP3 H1   HT     0.417000        1.0080           0
  100146 WT6  4401 TIP3 H2   HT     0.417000        1.0080           0
  100147 WT6  4402 TIP3 OH2  OT    -0.834000       15.9994           0
  100148 WT6  4402 TIP3 H1   HT     0.417000        1.0080           0
  100149 WT6  4402 TIP3 H2   HT     0.417000        1.0080           0
  100150 WT6  4406 TIP3 OH2  OT    -0.834000       15.9994           0
  100151 WT6  4406 TIP3 H1   HT     0.417000        1.0080           0
  100152 WT6  4406 TIP3 H2   HT     0.417000        1.0080           0
  100153 WT6  4411 TIP3 OH2  OT    -0.834000       15.9994           0
  100154 WT6  4411 TIP3 H1   HT     0.417000        1.0080           0
  100155 WT6  4411 TIP3 H2   HT     0.417000        1.0080           0
  100156 WT6  4413 TIP3 OH2  OT    -0.834000       15.9994           0
  100157 WT6  4413 TIP3 H1   HT     0.417000        1.0080           0
  100158 WT6  4413 TIP3 H2   HT     0.417000        1.0080           0
  100159 WT6  4414 TIP3 OH2  OT    -0.834000       15.9994           0
  100160 WT6  4414 TIP3 H1   HT     0.417000        1.0080           0
  100161 WT6  4414 TIP3 H2   HT     0.417000        1.0080           0
  100162 WT6  4416 TIP3 OH2  OT    -0.834000       15.9994           0
  100163 WT6  4416 TIP3 H1   HT     0.417000        1.0080           0
  100164 WT6  4416 TIP3 H2   HT     0.417000        1.0080           0
  100165 WT6  4417 TIP3 OH2  OT    -0.834000       15.9994           0
  100166 WT6  4417 TIP3 H1   HT     0.417000        1.0080           0
  100167 WT6  4417 TIP3 H2   HT     0.417000        1.0080           0
  100168 WT6  4418 TIP3 OH2  OT    -0.834000       15.9994           0
  100169 WT6  4418 TIP3 H1   HT     0.417000        1.0080           0
  100170 WT6  4418 TIP3 H2   HT     0.417000        1.0080           0
  100171 WT6  4419 TIP3 OH2  OT    -0.834000       15.9994           0
  100172 WT6  4419 TIP3 H1   HT     0.417000        1.0080           0
  100173 WT6  4419 TIP3 H2   HT     0.417000        1.0080           0
  100174 WT6  4421 TIP3 OH2  OT    -0.834000       15.9994           0
  100175 WT6  4421 TIP3 H1   HT     0.417000        1.0080           0
  100176 WT6  4421 TIP3 H2   HT     0.417000        1.0080           0
  100177 WT6  4422 TIP3 OH2  OT    -0.834000       15.9994           0
  100178 WT6  4422 TIP3 H1   HT     0.417000        1.0080           0
  100179 WT6  4422 TIP3 H2   HT     0.417000        1.0080           0
  100180 WT6  4423 TIP3 OH2  OT    -0.834000       15.9994           0
  100181 WT6  4423 TIP3 H1   HT     0.417000        1.0080           0
  100182 WT6  4423 TIP3 H2   HT     0.417000        1.0080           0
  100183 WT6  4424 TIP3 OH2  OT    -0.834000       15.9994           0
  100184 WT6  4424 TIP3 H1   HT     0.417000        1.0080           0
  100185 WT6  4424 TIP3 H2   HT     0.417000        1.0080           0
  100186 WT6  4425 TIP3 OH2  OT    -0.834000       15.9994           0
  100187 WT6  4425 TIP3 H1   HT     0.417000        1.0080           0
  100188 WT6  4425 TIP3 H2   HT     0.417000        1.0080           0
  100189 WT6  4432 TIP3 OH2  OT    -0.834000       15.9994           0
  100190 WT6  4432 TIP3 H1   HT     0.417000        1.0080           0
  100191 WT6  4432 TIP3 H2   HT     0.417000        1.0080           0
  100192 WT6  4434 TIP3 OH2  OT    -0.834000       15.9994           0
  100193 WT6  4434 TIP3 H1   HT     0.417000        1.0080           0
  100194 WT6  4434 TIP3 H2   HT     0.417000        1.0080           0
  100195 WT6  4435 TIP3 OH2  OT    -0.834000       15.9994           0
  100196 WT6  4435 TIP3 H1   HT     0.417000        1.0080           0
  100197 WT6  4435 TIP3 H2   HT     0.417000        1.0080           0
  100198 WT6  4438 TIP3 OH2  OT    -0.834000       15.9994           0
  100199 WT6  4438 TIP3 H1   HT     0.417000        1.0080           0
  100200 WT6  4438 TIP3 H2   HT     0.417000        1.0080           0
  100201 WT6  4439 TIP3 OH2  OT    -0.834000       15.9994           0
  100202 WT6  4439 TIP3 H1   HT     0.417000        1.0080           0
  100203 WT6  4439 TIP3 H2   HT     0.417000        1.0080           0
  100204 WT6  4440 TIP3 OH2  OT    -0.834000       15.9994           0
  100205 WT6  4440 TIP3 H1   HT     0.417000        1.0080           0
  100206 WT6  4440 TIP3 H2   HT     0.417000        1.0080           0
  100207 WT6  4441 TIP3 OH2  OT    -0.834000       15.9994           0
  100208 WT6  4441 TIP3 H1   HT     0.417000        1.0080           0
  100209 WT6  4441 TIP3 H2   HT     0.417000        1.0080           0
  100210 WT6  4442 TIP3 OH2  OT    -0.834000       15.9994           0
  100211 WT6  4442 TIP3 H1   HT     0.417000        1.0080           0
  100212 WT6  4442 TIP3 H2   HT     0.417000        1.0080           0
  100213 WT6  4443 TIP3 OH2  OT    -0.834000       15.9994           0
  100214 WT6  4443 TIP3 H1   HT     0.417000        1.0080           0
  100215 WT6  4443 TIP3 H2   HT     0.417000        1.0080           0
  100216 WT6  4444 TIP3 OH2  OT    -0.834000       15.9994           0
  100217 WT6  4444 TIP3 H1   HT     0.417000        1.0080           0
  100218 WT6  4444 TIP3 H2   HT     0.417000        1.0080           0
  100219 WT6  4446 TIP3 OH2  OT    -0.834000       15.9994           0
  100220 WT6  4446 TIP3 H1   HT     0.417000        1.0080           0
  100221 WT6  4446 TIP3 H2   HT     0.417000        1.0080           0
  100222 WT6  4452 TIP3 OH2  OT    -0.834000       15.9994           0
  100223 WT6  4452 TIP3 H1   HT     0.417000        1.0080           0
  100224 WT6  4452 TIP3 H2   HT     0.417000        1.0080           0
  100225 WT6  4455 TIP3 OH2  OT    -0.834000       15.9994           0
  100226 WT6  4455 TIP3 H1   HT     0.417000        1.0080           0
  100227 WT6  4455 TIP3 H2   HT     0.417000        1.0080           0
  100228 WT6  4456 TIP3 OH2  OT    -0.834000       15.9994           0
  100229 WT6  4456 TIP3 H1   HT     0.417000        1.0080           0
  100230 WT6  4456 TIP3 H2   HT     0.417000        1.0080           0
  100231 WT6  4457 TIP3 OH2  OT    -0.834000       15.9994           0
  100232 WT6  4457 TIP3 H1   HT     0.417000        1.0080           0
  100233 WT6  4457 TIP3 H2   HT     0.417000        1.0080           0
  100234 WT6  4460 TIP3 OH2  OT    -0.834000       15.9994           0
  100235 WT6  4460 TIP3 H1   HT     0.417000        1.0080           0
  100236 WT6  4460 TIP3 H2   HT     0.417000        1.0080           0
  100237 WT6  4461 TIP3 OH2  OT    -0.834000       15.9994           0
  100238 WT6  4461 TIP3 H1   HT     0.417000        1.0080           0
  100239 WT6  4461 TIP3 H2   HT     0.417000        1.0080           0
  100240 WT6  4462 TIP3 OH2  OT    -0.834000       15.9994           0
  100241 WT6  4462 TIP3 H1   HT     0.417000        1.0080           0
  100242 WT6  4462 TIP3 H2   HT     0.417000        1.0080           0
  100243 WT6  4463 TIP3 OH2  OT    -0.834000       15.9994           0
  100244 WT6  4463 TIP3 H1   HT     0.417000        1.0080           0
  100245 WT6  4463 TIP3 H2   HT     0.417000        1.0080           0
  100246 WT6  4465 TIP3 OH2  OT    -0.834000       15.9994           0
  100247 WT6  4465 TIP3 H1   HT     0.417000        1.0080           0
  100248 WT6  4465 TIP3 H2   HT     0.417000        1.0080           0
  100249 WT6  4466 TIP3 OH2  OT    -0.834000       15.9994           0
  100250 WT6  4466 TIP3 H1   HT     0.417000        1.0080           0
  100251 WT6  4466 TIP3 H2   HT     0.417000        1.0080           0
  100252 WT6  4473 TIP3 OH2  OT    -0.834000       15.9994           0
  100253 WT6  4473 TIP3 H1   HT     0.417000        1.0080           0
  100254 WT6  4473 TIP3 H2   HT     0.417000        1.0080           0
  100255 WT6  4474 TIP3 OH2  OT    -0.834000       15.9994           0
  100256 WT6  4474 TIP3 H1   HT     0.417000        1.0080           0
  100257 WT6  4474 TIP3 H2   HT     0.417000        1.0080           0
  100258 WT6  4477 TIP3 OH2  OT    -0.834000       15.9994           0
  100259 WT6  4477 TIP3 H1   HT     0.417000        1.0080           0
  100260 WT6  4477 TIP3 H2   HT     0.417000        1.0080           0
  100261 WT6  4479 TIP3 OH2  OT    -0.834000       15.9994           0
  100262 WT6  4479 TIP3 H1   HT     0.417000        1.0080           0
  100263 WT6  4479 TIP3 H2   HT     0.417000        1.0080           0
  100264 WT6  4480 TIP3 OH2  OT    -0.834000       15.9994           0
  100265 WT6  4480 TIP3 H1   HT     0.417000        1.0080           0
  100266 WT6  4480 TIP3 H2   HT     0.417000        1.0080           0
  100267 WT6  4481 TIP3 OH2  OT    -0.834000       15.9994           0
  100268 WT6  4481 TIP3 H1   HT     0.417000        1.0080           0
  100269 WT6  4481 TIP3 H2   HT     0.417000        1.0080           0
  100270 WT6  4482 TIP3 OH2  OT    -0.834000       15.9994           0
  100271 WT6  4482 TIP3 H1   HT     0.417000        1.0080           0
  100272 WT6  4482 TIP3 H2   HT     0.417000        1.0080           0
  100273 WT6  4483 TIP3 OH2  OT    -0.834000       15.9994           0
  100274 WT6  4483 TIP3 H1   HT     0.417000        1.0080           0
  100275 WT6  4483 TIP3 H2   HT     0.417000        1.0080           0
  100276 WT6  4484 TIP3 OH2  OT    -0.834000       15.9994           0
  100277 WT6  4484 TIP3 H1   HT     0.417000        1.0080           0
  100278 WT6  4484 TIP3 H2   HT     0.417000        1.0080           0
  100279 WT6  4485 TIP3 OH2  OT    -0.834000       15.9994           0
  100280 WT6  4485 TIP3 H1   HT     0.417000        1.0080           0
  100281 WT6  4485 TIP3 H2   HT     0.417000        1.0080           0
  100282 WT6  4488 TIP3 OH2  OT    -0.834000       15.9994           0
  100283 WT6  4488 TIP3 H1   HT     0.417000        1.0080           0
  100284 WT6  4488 TIP3 H2   HT     0.417000        1.0080           0
  100285 WT6  4491 TIP3 OH2  OT    -0.834000       15.9994           0
  100286 WT6  4491 TIP3 H1   HT     0.417000        1.0080           0
  100287 WT6  4491 TIP3 H2   HT     0.417000        1.0080           0
  100288 WT6  4496 TIP3 OH2  OT    -0.834000       15.9994           0
  100289 WT6  4496 TIP3 H1   HT     0.417000        1.0080           0
  100290 WT6  4496 TIP3 H2   HT     0.417000        1.0080           0
  100291 WT6  4497 TIP3 OH2  OT    -0.834000       15.9994           0
  100292 WT6  4497 TIP3 H1   HT     0.417000        1.0080           0
  100293 WT6  4497 TIP3 H2   HT     0.417000        1.0080           0
  100294 WT6  4498 TIP3 OH2  OT    -0.834000       15.9994           0
  100295 WT6  4498 TIP3 H1   HT     0.417000        1.0080           0
  100296 WT6  4498 TIP3 H2   HT     0.417000        1.0080           0
  100297 WT6  4499 TIP3 OH2  OT    -0.834000       15.9994           0
  100298 WT6  4499 TIP3 H1   HT     0.417000        1.0080           0
  100299 WT6  4499 TIP3 H2   HT     0.417000        1.0080           0
  100300 WT6  4500 TIP3 OH2  OT    -0.834000       15.9994           0
  100301 WT6  4500 TIP3 H1   HT     0.417000        1.0080           0
  100302 WT6  4500 TIP3 H2   HT     0.417000        1.0080           0
  100303 WT6  4501 TIP3 OH2  OT    -0.834000       15.9994           0
  100304 WT6  4501 TIP3 H1   HT     0.417000        1.0080           0
  100305 WT6  4501 TIP3 H2   HT     0.417000        1.0080           0
  100306 WT6  4503 TIP3 OH2  OT    -0.834000       15.9994           0
  100307 WT6  4503 TIP3 H1   HT     0.417000        1.0080           0
  100308 WT6  4503 TIP3 H2   HT     0.417000        1.0080           0
  100309 WT6  4504 TIP3 OH2  OT    -0.834000       15.9994           0
  100310 WT6  4504 TIP3 H1   HT     0.417000        1.0080           0
  100311 WT6  4504 TIP3 H2   HT     0.417000        1.0080           0
  100312 WT6  4506 TIP3 OH2  OT    -0.834000       15.9994           0
  100313 WT6  4506 TIP3 H1   HT     0.417000        1.0080           0
  100314 WT6  4506 TIP3 H2   HT     0.417000        1.0080           0
  100315 WT6  4507 TIP3 OH2  OT    -0.834000       15.9994           0
  100316 WT6  4507 TIP3 H1   HT     0.417000        1.0080           0
  100317 WT6  4507 TIP3 H2   HT     0.417000        1.0080           0
  100318 WT6  4509 TIP3 OH2  OT    -0.834000       15.9994           0
  100319 WT6  4509 TIP3 H1   HT     0.417000        1.0080           0
  100320 WT6  4509 TIP3 H2   HT     0.417000        1.0080           0
  100321 WT6  4513 TIP3 OH2  OT    -0.834000       15.9994           0
  100322 WT6  4513 TIP3 H1   HT     0.417000        1.0080           0
  100323 WT6  4513 TIP3 H2   HT     0.417000        1.0080           0
  100324 WT6  4515 TIP3 OH2  OT    -0.834000       15.9994           0
  100325 WT6  4515 TIP3 H1   HT     0.417000        1.0080           0
  100326 WT6  4515 TIP3 H2   HT     0.417000        1.0080           0
  100327 WT6  4516 TIP3 OH2  OT    -0.834000       15.9994           0
  100328 WT6  4516 TIP3 H1   HT     0.417000        1.0080           0
  100329 WT6  4516 TIP3 H2   HT     0.417000        1.0080           0
  100330 WT6  4518 TIP3 OH2  OT    -0.834000       15.9994           0
  100331 WT6  4518 TIP3 H1   HT     0.417000        1.0080           0
  100332 WT6  4518 TIP3 H2   HT     0.417000        1.0080           0
  100333 WT6  4519 TIP3 OH2  OT    -0.834000       15.9994           0
  100334 WT6  4519 TIP3 H1   HT     0.417000        1.0080           0
  100335 WT6  4519 TIP3 H2   HT     0.417000        1.0080           0
  100336 WT6  4520 TIP3 OH2  OT    -0.834000       15.9994           0
  100337 WT6  4520 TIP3 H1   HT     0.417000        1.0080           0
  100338 WT6  4520 TIP3 H2   HT     0.417000        1.0080           0
  100339 WT6  4521 TIP3 OH2  OT    -0.834000       15.9994           0
  100340 WT6  4521 TIP3 H1   HT     0.417000        1.0080           0
  100341 WT6  4521 TIP3 H2   HT     0.417000        1.0080           0
  100342 WT6  4522 TIP3 OH2  OT    -0.834000       15.9994           0
  100343 WT6  4522 TIP3 H1   HT     0.417000        1.0080           0
  100344 WT6  4522 TIP3 H2   HT     0.417000        1.0080           0
  100345 WT6  4523 TIP3 OH2  OT    -0.834000       15.9994           0
  100346 WT6  4523 TIP3 H1   HT     0.417000        1.0080           0
  100347 WT6  4523 TIP3 H2   HT     0.417000        1.0080           0
  100348 WT6  4524 TIP3 OH2  OT    -0.834000       15.9994           0
  100349 WT6  4524 TIP3 H1   HT     0.417000        1.0080           0
  100350 WT6  4524 TIP3 H2   HT     0.417000        1.0080           0
  100351 WT6  4525 TIP3 OH2  OT    -0.834000       15.9994           0
  100352 WT6  4525 TIP3 H1   HT     0.417000        1.0080           0
  100353 WT6  4525 TIP3 H2   HT     0.417000        1.0080           0
  100354 WT6  4536 TIP3 OH2  OT    -0.834000       15.9994           0
  100355 WT6  4536 TIP3 H1   HT     0.417000        1.0080           0
  100356 WT6  4536 TIP3 H2   HT     0.417000        1.0080           0
  100357 WT6  4537 TIP3 OH2  OT    -0.834000       15.9994           0
  100358 WT6  4537 TIP3 H1   HT     0.417000        1.0080           0
  100359 WT6  4537 TIP3 H2   HT     0.417000        1.0080           0
  100360 WT6  4538 TIP3 OH2  OT    -0.834000       15.9994           0
  100361 WT6  4538 TIP3 H1   HT     0.417000        1.0080           0
  100362 WT6  4538 TIP3 H2   HT     0.417000        1.0080           0
  100363 WT6  4539 TIP3 OH2  OT    -0.834000       15.9994           0
  100364 WT6  4539 TIP3 H1   HT     0.417000        1.0080           0
  100365 WT6  4539 TIP3 H2   HT     0.417000        1.0080           0
  100366 WT6  4540 TIP3 OH2  OT    -0.834000       15.9994           0
  100367 WT6  4540 TIP3 H1   HT     0.417000        1.0080           0
  100368 WT6  4540 TIP3 H2   HT     0.417000        1.0080           0
  100369 WT6  4541 TIP3 OH2  OT    -0.834000       15.9994           0
  100370 WT6  4541 TIP3 H1   HT     0.417000        1.0080           0
  100371 WT6  4541 TIP3 H2   HT     0.417000        1.0080           0
  100372 WT6  4543 TIP3 OH2  OT    -0.834000       15.9994           0
  100373 WT6  4543 TIP3 H1   HT     0.417000        1.0080           0
  100374 WT6  4543 TIP3 H2   HT     0.417000        1.0080           0
  100375 WT6  4545 TIP3 OH2  OT    -0.834000       15.9994           0
  100376 WT6  4545 TIP3 H1   HT     0.417000        1.0080           0
  100377 WT6  4545 TIP3 H2   HT     0.417000        1.0080           0
  100378 WT6  4548 TIP3 OH2  OT    -0.834000       15.9994           0
  100379 WT6  4548 TIP3 H1   HT     0.417000        1.0080           0
  100380 WT6  4548 TIP3 H2   HT     0.417000        1.0080           0
  100381 WT6  4549 TIP3 OH2  OT    -0.834000       15.9994           0
  100382 WT6  4549 TIP3 H1   HT     0.417000        1.0080           0
  100383 WT6  4549 TIP3 H2   HT     0.417000        1.0080           0
  100384 WT6  4551 TIP3 OH2  OT    -0.834000       15.9994           0
  100385 WT6  4551 TIP3 H1   HT     0.417000        1.0080           0
  100386 WT6  4551 TIP3 H2   HT     0.417000        1.0080           0
  100387 WT6  4553 TIP3 OH2  OT    -0.834000       15.9994           0
  100388 WT6  4553 TIP3 H1   HT     0.417000        1.0080           0
  100389 WT6  4553 TIP3 H2   HT     0.417000        1.0080           0
  100390 WT6  4558 TIP3 OH2  OT    -0.834000       15.9994           0
  100391 WT6  4558 TIP3 H1   HT     0.417000        1.0080           0
  100392 WT6  4558 TIP3 H2   HT     0.417000        1.0080           0
  100393 WT6  4559 TIP3 OH2  OT    -0.834000       15.9994           0
  100394 WT6  4559 TIP3 H1   HT     0.417000        1.0080           0
  100395 WT6  4559 TIP3 H2   HT     0.417000        1.0080           0
  100396 WT6  4560 TIP3 OH2  OT    -0.834000       15.9994           0
  100397 WT6  4560 TIP3 H1   HT     0.417000        1.0080           0
  100398 WT6  4560 TIP3 H2   HT     0.417000        1.0080           0
  100399 WT6  4561 TIP3 OH2  OT    -0.834000       15.9994           0
  100400 WT6  4561 TIP3 H1   HT     0.417000        1.0080           0
  100401 WT6  4561 TIP3 H2   HT     0.417000        1.0080           0
  100402 WT6  4562 TIP3 OH2  OT    -0.834000       15.9994           0
  100403 WT6  4562 TIP3 H1   HT     0.417000        1.0080           0
  100404 WT6  4562 TIP3 H2   HT     0.417000        1.0080           0
  100405 WT6  4563 TIP3 OH2  OT    -0.834000       15.9994           0
  100406 WT6  4563 TIP3 H1   HT     0.417000        1.0080           0
  100407 WT6  4563 TIP3 H2   HT     0.417000        1.0080           0
  100408 WT6  4564 TIP3 OH2  OT    -0.834000       15.9994           0
  100409 WT6  4564 TIP3 H1   HT     0.417000        1.0080           0
  100410 WT6  4564 TIP3 H2   HT     0.417000        1.0080           0
  100411 WT6  4565 TIP3 OH2  OT    -0.834000       15.9994           0
  100412 WT6  4565 TIP3 H1   HT     0.417000        1.0080           0
  100413 WT6  4565 TIP3 H2   HT     0.417000        1.0080           0
  100414 WT6  4566 TIP3 OH2  OT    -0.834000       15.9994           0
  100415 WT6  4566 TIP3 H1   HT     0.417000        1.0080           0
  100416 WT6  4566 TIP3 H2   HT     0.417000        1.0080           0
  100417 WT6  4567 TIP3 OH2  OT    -0.834000       15.9994           0
  100418 WT6  4567 TIP3 H1   HT     0.417000        1.0080           0
  100419 WT6  4567 TIP3 H2   HT     0.417000        1.0080           0
  100420 WT6  4568 TIP3 OH2  OT    -0.834000       15.9994           0
  100421 WT6  4568 TIP3 H1   HT     0.417000        1.0080           0
  100422 WT6  4568 TIP3 H2   HT     0.417000        1.0080           0
  100423 WT6  4569 TIP3 OH2  OT    -0.834000       15.9994           0
  100424 WT6  4569 TIP3 H1   HT     0.417000        1.0080           0
  100425 WT6  4569 TIP3 H2   HT     0.417000        1.0080           0
  100426 WT6  4574 TIP3 OH2  OT    -0.834000       15.9994           0
  100427 WT6  4574 TIP3 H1   HT     0.417000        1.0080           0
  100428 WT6  4574 TIP3 H2   HT     0.417000        1.0080           0
  100429 WT6  4578 TIP3 OH2  OT    -0.834000       15.9994           0
  100430 WT6  4578 TIP3 H1   HT     0.417000        1.0080           0
  100431 WT6  4578 TIP3 H2   HT     0.417000        1.0080           0
  100432 WT6  4581 TIP3 OH2  OT    -0.834000       15.9994           0
  100433 WT6  4581 TIP3 H1   HT     0.417000        1.0080           0
  100434 WT6  4581 TIP3 H2   HT     0.417000        1.0080           0
  100435 WT6  4582 TIP3 OH2  OT    -0.834000       15.9994           0
  100436 WT6  4582 TIP3 H1   HT     0.417000        1.0080           0
  100437 WT6  4582 TIP3 H2   HT     0.417000        1.0080           0
  100438 WT6  4585 TIP3 OH2  OT    -0.834000       15.9994           0
  100439 WT6  4585 TIP3 H1   HT     0.417000        1.0080           0
  100440 WT6  4585 TIP3 H2   HT     0.417000        1.0080           0
  100441 WT6  4587 TIP3 OH2  OT    -0.834000       15.9994           0
  100442 WT6  4587 TIP3 H1   HT     0.417000        1.0080           0
  100443 WT6  4587 TIP3 H2   HT     0.417000        1.0080           0
  100444 WT6  4588 TIP3 OH2  OT    -0.834000       15.9994           0
  100445 WT6  4588 TIP3 H1   HT     0.417000        1.0080           0
  100446 WT6  4588 TIP3 H2   HT     0.417000        1.0080           0
  100447 WT6  4589 TIP3 OH2  OT    -0.834000       15.9994           0
  100448 WT6  4589 TIP3 H1   HT     0.417000        1.0080           0
  100449 WT6  4589 TIP3 H2   HT     0.417000        1.0080           0
  100450 WT6  4592 TIP3 OH2  OT    -0.834000       15.9994           0
  100451 WT6  4592 TIP3 H1   HT     0.417000        1.0080           0
  100452 WT6  4592 TIP3 H2   HT     0.417000        1.0080           0
  100453 WT6  4593 TIP3 OH2  OT    -0.834000       15.9994           0
  100454 WT6  4593 TIP3 H1   HT     0.417000        1.0080           0
  100455 WT6  4593 TIP3 H2   HT     0.417000        1.0080           0
  100456 WT6  4599 TIP3 OH2  OT    -0.834000       15.9994           0
  100457 WT6  4599 TIP3 H1   HT     0.417000        1.0080           0
  100458 WT6  4599 TIP3 H2   HT     0.417000        1.0080           0
  100459 WT6  4600 TIP3 OH2  OT    -0.834000       15.9994           0
  100460 WT6  4600 TIP3 H1   HT     0.417000        1.0080           0
  100461 WT6  4600 TIP3 H2   HT     0.417000        1.0080           0
  100462 WT6  4602 TIP3 OH2  OT    -0.834000       15.9994           0
  100463 WT6  4602 TIP3 H1   HT     0.417000        1.0080           0
  100464 WT6  4602 TIP3 H2   HT     0.417000        1.0080           0
  100465 WT6  4603 TIP3 OH2  OT    -0.834000       15.9994           0
  100466 WT6  4603 TIP3 H1   HT     0.417000        1.0080           0
  100467 WT6  4603 TIP3 H2   HT     0.417000        1.0080           0
  100468 WT6  4604 TIP3 OH2  OT    -0.834000       15.9994           0
  100469 WT6  4604 TIP3 H1   HT     0.417000        1.0080           0
  100470 WT6  4604 TIP3 H2   HT     0.417000        1.0080           0
  100471 WT6  4605 TIP3 OH2  OT    -0.834000       15.9994           0
  100472 WT6  4605 TIP3 H1   HT     0.417000        1.0080           0
  100473 WT6  4605 TIP3 H2   HT     0.417000        1.0080           0
  100474 WT6  4606 TIP3 OH2  OT    -0.834000       15.9994           0
  100475 WT6  4606 TIP3 H1   HT     0.417000        1.0080           0
  100476 WT6  4606 TIP3 H2   HT     0.417000        1.0080           0
  100477 WT6  4607 TIP3 OH2  OT    -0.834000       15.9994           0
  100478 WT6  4607 TIP3 H1   HT     0.417000        1.0080           0
  100479 WT6  4607 TIP3 H2   HT     0.417000        1.0080           0
  100480 WT6  4608 TIP3 OH2  OT    -0.834000       15.9994           0
  100481 WT6  4608 TIP3 H1   HT     0.417000        1.0080           0
  100482 WT6  4608 TIP3 H2   HT     0.417000        1.0080           0
  100483 WT6  4610 TIP3 OH2  OT    -0.834000       15.9994           0
  100484 WT6  4610 TIP3 H1   HT     0.417000        1.0080           0
  100485 WT6  4610 TIP3 H2   HT     0.417000        1.0080           0
  100486 WT6  4611 TIP3 OH2  OT    -0.834000       15.9994           0
  100487 WT6  4611 TIP3 H1   HT     0.417000        1.0080           0
  100488 WT6  4611 TIP3 H2   HT     0.417000        1.0080           0
  100489 WT6  4619 TIP3 OH2  OT    -0.834000       15.9994           0
  100490 WT6  4619 TIP3 H1   HT     0.417000        1.0080           0
  100491 WT6  4619 TIP3 H2   HT     0.417000        1.0080           0
  100492 WT6  4621 TIP3 OH2  OT    -0.834000       15.9994           0
  100493 WT6  4621 TIP3 H1   HT     0.417000        1.0080           0
  100494 WT6  4621 TIP3 H2   HT     0.417000        1.0080           0
  100495 WT6  4622 TIP3 OH2  OT    -0.834000       15.9994           0
  100496 WT6  4622 TIP3 H1   HT     0.417000        1.0080           0
  100497 WT6  4622 TIP3 H2   HT     0.417000        1.0080           0
  100498 WT6  4623 TIP3 OH2  OT    -0.834000       15.9994           0
  100499 WT6  4623 TIP3 H1   HT     0.417000        1.0080           0
  100500 WT6  4623 TIP3 H2   HT     0.417000        1.0080           0
  100501 WT6  4624 TIP3 OH2  OT    -0.834000       15.9994           0
  100502 WT6  4624 TIP3 H1   HT     0.417000        1.0080           0
  100503 WT6  4624 TIP3 H2   HT     0.417000        1.0080           0
  100504 WT6  4625 TIP3 OH2  OT    -0.834000       15.9994           0
  100505 WT6  4625 TIP3 H1   HT     0.417000        1.0080           0
  100506 WT6  4625 TIP3 H2   HT     0.417000        1.0080           0
  100507 WT6  4626 TIP3 OH2  OT    -0.834000       15.9994           0
  100508 WT6  4626 TIP3 H1   HT     0.417000        1.0080           0
  100509 WT6  4626 TIP3 H2   HT     0.417000        1.0080           0
  100510 WT6  4627 TIP3 OH2  OT    -0.834000       15.9994           0
  100511 WT6  4627 TIP3 H1   HT     0.417000        1.0080           0
  100512 WT6  4627 TIP3 H2   HT     0.417000        1.0080           0
  100513 WT6  4628 TIP3 OH2  OT    -0.834000       15.9994           0
  100514 WT6  4628 TIP3 H1   HT     0.417000        1.0080           0
  100515 WT6  4628 TIP3 H2   HT     0.417000        1.0080           0
  100516 WT6  4630 TIP3 OH2  OT    -0.834000       15.9994           0
  100517 WT6  4630 TIP3 H1   HT     0.417000        1.0080           0
  100518 WT6  4630 TIP3 H2   HT     0.417000        1.0080           0
  100519 WT6  4631 TIP3 OH2  OT    -0.834000       15.9994           0
  100520 WT6  4631 TIP3 H1   HT     0.417000        1.0080           0
  100521 WT6  4631 TIP3 H2   HT     0.417000        1.0080           0
  100522 WT6  4632 TIP3 OH2  OT    -0.834000       15.9994           0
  100523 WT6  4632 TIP3 H1   HT     0.417000        1.0080           0
  100524 WT6  4632 TIP3 H2   HT     0.417000        1.0080           0
  100525 WT6  4633 TIP3 OH2  OT    -0.834000       15.9994           0
  100526 WT6  4633 TIP3 H1   HT     0.417000        1.0080           0
  100527 WT6  4633 TIP3 H2   HT     0.417000        1.0080           0
  100528 WT6  4634 TIP3 OH2  OT    -0.834000       15.9994           0
  100529 WT6  4634 TIP3 H1   HT     0.417000        1.0080           0
  100530 WT6  4634 TIP3 H2   HT     0.417000        1.0080           0
  100531 WT6  4635 TIP3 OH2  OT    -0.834000       15.9994           0
  100532 WT6  4635 TIP3 H1   HT     0.417000        1.0080           0
  100533 WT6  4635 TIP3 H2   HT     0.417000        1.0080           0
  100534 WT6  4641 TIP3 OH2  OT    -0.834000       15.9994           0
  100535 WT6  4641 TIP3 H1   HT     0.417000        1.0080           0
  100536 WT6  4641 TIP3 H2   HT     0.417000        1.0080           0
  100537 WT6  4643 TIP3 OH2  OT    -0.834000       15.9994           0
  100538 WT6  4643 TIP3 H1   HT     0.417000        1.0080           0
  100539 WT6  4643 TIP3 H2   HT     0.417000        1.0080           0
  100540 WT6  4644 TIP3 OH2  OT    -0.834000       15.9994           0
  100541 WT6  4644 TIP3 H1   HT     0.417000        1.0080           0
  100542 WT6  4644 TIP3 H2   HT     0.417000        1.0080           0
  100543 WT6  4645 TIP3 OH2  OT    -0.834000       15.9994           0
  100544 WT6  4645 TIP3 H1   HT     0.417000        1.0080           0
  100545 WT6  4645 TIP3 H2   HT     0.417000        1.0080           0
  100546 WT6  4647 TIP3 OH2  OT    -0.834000       15.9994           0
  100547 WT6  4647 TIP3 H1   HT     0.417000        1.0080           0
  100548 WT6  4647 TIP3 H2   HT     0.417000        1.0080           0
  100549 WT6  4648 TIP3 OH2  OT    -0.834000       15.9994           0
  100550 WT6  4648 TIP3 H1   HT     0.417000        1.0080           0
  100551 WT6  4648 TIP3 H2   HT     0.417000        1.0080           0
  100552 WT6  4649 TIP3 OH2  OT    -0.834000       15.9994           0
  100553 WT6  4649 TIP3 H1   HT     0.417000        1.0080           0
  100554 WT6  4649 TIP3 H2   HT     0.417000        1.0080           0
  100555 WT6  4650 TIP3 OH2  OT    -0.834000       15.9994           0
  100556 WT6  4650 TIP3 H1   HT     0.417000        1.0080           0
  100557 WT6  4650 TIP3 H2   HT     0.417000        1.0080           0
  100558 WT6  4651 TIP3 OH2  OT    -0.834000       15.9994           0
  100559 WT6  4651 TIP3 H1   HT     0.417000        1.0080           0
  100560 WT6  4651 TIP3 H2   HT     0.417000        1.0080           0
  100561 WT6  4652 TIP3 OH2  OT    -0.834000       15.9994           0
  100562 WT6  4652 TIP3 H1   HT     0.417000        1.0080           0
  100563 WT6  4652 TIP3 H2   HT     0.417000        1.0080           0
  100564 WT6  4653 TIP3 OH2  OT    -0.834000       15.9994           0
  100565 WT6  4653 TIP3 H1   HT     0.417000        1.0080           0
  100566 WT6  4653 TIP3 H2   HT     0.417000        1.0080           0
  100567 WT6  4654 TIP3 OH2  OT    -0.834000       15.9994           0
  100568 WT6  4654 TIP3 H1   HT     0.417000        1.0080           0
  100569 WT6  4654 TIP3 H2   HT     0.417000        1.0080           0
  100570 WT6  4655 TIP3 OH2  OT    -0.834000       15.9994           0
  100571 WT6  4655 TIP3 H1   HT     0.417000        1.0080           0
  100572 WT6  4655 TIP3 H2   HT     0.417000        1.0080           0
  100573 WT6  4663 TIP3 OH2  OT    -0.834000       15.9994           0
  100574 WT6  4663 TIP3 H1   HT     0.417000        1.0080           0
  100575 WT6  4663 TIP3 H2   HT     0.417000        1.0080           0
  100576 WT6  4664 TIP3 OH2  OT    -0.834000       15.9994           0
  100577 WT6  4664 TIP3 H1   HT     0.417000        1.0080           0
  100578 WT6  4664 TIP3 H2   HT     0.417000        1.0080           0
  100579 WT6  4665 TIP3 OH2  OT    -0.834000       15.9994           0
  100580 WT6  4665 TIP3 H1   HT     0.417000        1.0080           0
  100581 WT6  4665 TIP3 H2   HT     0.417000        1.0080           0
  100582 WT6  4666 TIP3 OH2  OT    -0.834000       15.9994           0
  100583 WT6  4666 TIP3 H1   HT     0.417000        1.0080           0
  100584 WT6  4666 TIP3 H2   HT     0.417000        1.0080           0
  100585 WT6  4667 TIP3 OH2  OT    -0.834000       15.9994           0
  100586 WT6  4667 TIP3 H1   HT     0.417000        1.0080           0
  100587 WT6  4667 TIP3 H2   HT     0.417000        1.0080           0
  100588 WT6  4668 TIP3 OH2  OT    -0.834000       15.9994           0
  100589 WT6  4668 TIP3 H1   HT     0.417000        1.0080           0
  100590 WT6  4668 TIP3 H2   HT     0.417000        1.0080           0
  100591 WT6  4670 TIP3 OH2  OT    -0.834000       15.9994           0
  100592 WT6  4670 TIP3 H1   HT     0.417000        1.0080           0
  100593 WT6  4670 TIP3 H2   HT     0.417000        1.0080           0
  100594 WT6  4671 TIP3 OH2  OT    -0.834000       15.9994           0
  100595 WT6  4671 TIP3 H1   HT     0.417000        1.0080           0
  100596 WT6  4671 TIP3 H2   HT     0.417000        1.0080           0
  100597 WT6  4672 TIP3 OH2  OT    -0.834000       15.9994           0
  100598 WT6  4672 TIP3 H1   HT     0.417000        1.0080           0
  100599 WT6  4672 TIP3 H2   HT     0.417000        1.0080           0
  100600 WT6  4673 TIP3 OH2  OT    -0.834000       15.9994           0
  100601 WT6  4673 TIP3 H1   HT     0.417000        1.0080           0
  100602 WT6  4673 TIP3 H2   HT     0.417000        1.0080           0
  100603 WT6  4674 TIP3 OH2  OT    -0.834000       15.9994           0
  100604 WT6  4674 TIP3 H1   HT     0.417000        1.0080           0
  100605 WT6  4674 TIP3 H2   HT     0.417000        1.0080           0
  100606 WT6  4675 TIP3 OH2  OT    -0.834000       15.9994           0
  100607 WT6  4675 TIP3 H1   HT     0.417000        1.0080           0
  100608 WT6  4675 TIP3 H2   HT     0.417000        1.0080           0
  100609 WT6  4676 TIP3 OH2  OT    -0.834000       15.9994           0
  100610 WT6  4676 TIP3 H1   HT     0.417000        1.0080           0
  100611 WT6  4676 TIP3 H2   HT     0.417000        1.0080           0
  100612 WT6  4677 TIP3 OH2  OT    -0.834000       15.9994           0
  100613 WT6  4677 TIP3 H1   HT     0.417000        1.0080           0
  100614 WT6  4677 TIP3 H2   HT     0.417000        1.0080           0
  100615 WT6  4678 TIP3 OH2  OT    -0.834000       15.9994           0
  100616 WT6  4678 TIP3 H1   HT     0.417000        1.0080           0
  100617 WT6  4678 TIP3 H2   HT     0.417000        1.0080           0
  100618 WT6  4685 TIP3 OH2  OT    -0.834000       15.9994           0
  100619 WT6  4685 TIP3 H1   HT     0.417000        1.0080           0
  100620 WT6  4685 TIP3 H2   HT     0.417000        1.0080           0
  100621 WT6  4686 TIP3 OH2  OT    -0.834000       15.9994           0
  100622 WT6  4686 TIP3 H1   HT     0.417000        1.0080           0
  100623 WT6  4686 TIP3 H2   HT     0.417000        1.0080           0
  100624 WT6  4687 TIP3 OH2  OT    -0.834000       15.9994           0
  100625 WT6  4687 TIP3 H1   HT     0.417000        1.0080           0
  100626 WT6  4687 TIP3 H2   HT     0.417000        1.0080           0
  100627 WT6  4688 TIP3 OH2  OT    -0.834000       15.9994           0
  100628 WT6  4688 TIP3 H1   HT     0.417000        1.0080           0
  100629 WT6  4688 TIP3 H2   HT     0.417000        1.0080           0
  100630 WT6  4689 TIP3 OH2  OT    -0.834000       15.9994           0
  100631 WT6  4689 TIP3 H1   HT     0.417000        1.0080           0
  100632 WT6  4689 TIP3 H2   HT     0.417000        1.0080           0
  100633 WT6  4690 TIP3 OH2  OT    -0.834000       15.9994           0
  100634 WT6  4690 TIP3 H1   HT     0.417000        1.0080           0
  100635 WT6  4690 TIP3 H2   HT     0.417000        1.0080           0
  100636 WT6  4691 TIP3 OH2  OT    -0.834000       15.9994           0
  100637 WT6  4691 TIP3 H1   HT     0.417000        1.0080           0
  100638 WT6  4691 TIP3 H2   HT     0.417000        1.0080           0
  100639 WT6  4692 TIP3 OH2  OT    -0.834000       15.9994           0
  100640 WT6  4692 TIP3 H1   HT     0.417000        1.0080           0
  100641 WT6  4692 TIP3 H2   HT     0.417000        1.0080           0
  100642 WT6  4693 TIP3 OH2  OT    -0.834000       15.9994           0
  100643 WT6  4693 TIP3 H1   HT     0.417000        1.0080           0
  100644 WT6  4693 TIP3 H2   HT     0.417000        1.0080           0
  100645 WT6  4694 TIP3 OH2  OT    -0.834000       15.9994           0
  100646 WT6  4694 TIP3 H1   HT     0.417000        1.0080           0
  100647 WT6  4694 TIP3 H2   HT     0.417000        1.0080           0
  100648 WT6  4695 TIP3 OH2  OT    -0.834000       15.9994           0
  100649 WT6  4695 TIP3 H1   HT     0.417000        1.0080           0
  100650 WT6  4695 TIP3 H2   HT     0.417000        1.0080           0
  100651 WT6  4696 TIP3 OH2  OT    -0.834000       15.9994           0
  100652 WT6  4696 TIP3 H1   HT     0.417000        1.0080           0
  100653 WT6  4696 TIP3 H2   HT     0.417000        1.0080           0
  100654 WT6  4697 TIP3 OH2  OT    -0.834000       15.9994           0
  100655 WT6  4697 TIP3 H1   HT     0.417000        1.0080           0
  100656 WT6  4697 TIP3 H2   HT     0.417000        1.0080           0
  100657 WT6  4700 TIP3 OH2  OT    -0.834000       15.9994           0
  100658 WT6  4700 TIP3 H1   HT     0.417000        1.0080           0
  100659 WT6  4700 TIP3 H2   HT     0.417000        1.0080           0
  100660 WT6  4704 TIP3 OH2  OT    -0.834000       15.9994           0
  100661 WT6  4704 TIP3 H1   HT     0.417000        1.0080           0
  100662 WT6  4704 TIP3 H2   HT     0.417000        1.0080           0
  100663 WT6  4705 TIP3 OH2  OT    -0.834000       15.9994           0
  100664 WT6  4705 TIP3 H1   HT     0.417000        1.0080           0
  100665 WT6  4705 TIP3 H2   HT     0.417000        1.0080           0
  100666 WT6  4706 TIP3 OH2  OT    -0.834000       15.9994           0
  100667 WT6  4706 TIP3 H1   HT     0.417000        1.0080           0
  100668 WT6  4706 TIP3 H2   HT     0.417000        1.0080           0
  100669 WT6  4707 TIP3 OH2  OT    -0.834000       15.9994           0
  100670 WT6  4707 TIP3 H1   HT     0.417000        1.0080           0
  100671 WT6  4707 TIP3 H2   HT     0.417000        1.0080           0
  100672 WT6  4708 TIP3 OH2  OT    -0.834000       15.9994           0
  100673 WT6  4708 TIP3 H1   HT     0.417000        1.0080           0
  100674 WT6  4708 TIP3 H2   HT     0.417000        1.0080           0
  100675 WT6  4710 TIP3 OH2  OT    -0.834000       15.9994           0
  100676 WT6  4710 TIP3 H1   HT     0.417000        1.0080           0
  100677 WT6  4710 TIP3 H2   HT     0.417000        1.0080           0
  100678 WT6  4711 TIP3 OH2  OT    -0.834000       15.9994           0
  100679 WT6  4711 TIP3 H1   HT     0.417000        1.0080           0
  100680 WT6  4711 TIP3 H2   HT     0.417000        1.0080           0
  100681 WT6  4712 TIP3 OH2  OT    -0.834000       15.9994           0
  100682 WT6  4712 TIP3 H1   HT     0.417000        1.0080           0
  100683 WT6  4712 TIP3 H2   HT     0.417000        1.0080           0
  100684 WT6  4713 TIP3 OH2  OT    -0.834000       15.9994           0
  100685 WT6  4713 TIP3 H1   HT     0.417000        1.0080           0
  100686 WT6  4713 TIP3 H2   HT     0.417000        1.0080           0
  100687 WT6  4715 TIP3 OH2  OT    -0.834000       15.9994           0
  100688 WT6  4715 TIP3 H1   HT     0.417000        1.0080           0
  100689 WT6  4715 TIP3 H2   HT     0.417000        1.0080           0
  100690 WT6  4717 TIP3 OH2  OT    -0.834000       15.9994           0
  100691 WT6  4717 TIP3 H1   HT     0.417000        1.0080           0
  100692 WT6  4717 TIP3 H2   HT     0.417000        1.0080           0
  100693 WT6  4725 TIP3 OH2  OT    -0.834000       15.9994           0
  100694 WT6  4725 TIP3 H1   HT     0.417000        1.0080           0
  100695 WT6  4725 TIP3 H2   HT     0.417000        1.0080           0
  100696 WT6  4727 TIP3 OH2  OT    -0.834000       15.9994           0
  100697 WT6  4727 TIP3 H1   HT     0.417000        1.0080           0
  100698 WT6  4727 TIP3 H2   HT     0.417000        1.0080           0
  100699 WT6  4729 TIP3 OH2  OT    -0.834000       15.9994           0
  100700 WT6  4729 TIP3 H1   HT     0.417000        1.0080           0
  100701 WT6  4729 TIP3 H2   HT     0.417000        1.0080           0
  100702 WT6  4730 TIP3 OH2  OT    -0.834000       15.9994           0
  100703 WT6  4730 TIP3 H1   HT     0.417000        1.0080           0
  100704 WT6  4730 TIP3 H2   HT     0.417000        1.0080           0
  100705 WT6  4731 TIP3 OH2  OT    -0.834000       15.9994           0
  100706 WT6  4731 TIP3 H1   HT     0.417000        1.0080           0
  100707 WT6  4731 TIP3 H2   HT     0.417000        1.0080           0
  100708 WT6  4732 TIP3 OH2  OT    -0.834000       15.9994           0
  100709 WT6  4732 TIP3 H1   HT     0.417000        1.0080           0
  100710 WT6  4732 TIP3 H2   HT     0.417000        1.0080           0
  100711 WT6  4734 TIP3 OH2  OT    -0.834000       15.9994           0
  100712 WT6  4734 TIP3 H1   HT     0.417000        1.0080           0
  100713 WT6  4734 TIP3 H2   HT     0.417000        1.0080           0
  100714 WT6  4735 TIP3 OH2  OT    -0.834000       15.9994           0
  100715 WT6  4735 TIP3 H1   HT     0.417000        1.0080           0
  100716 WT6  4735 TIP3 H2   HT     0.417000        1.0080           0
  100717 WT6  4736 TIP3 OH2  OT    -0.834000       15.9994           0
  100718 WT6  4736 TIP3 H1   HT     0.417000        1.0080           0
  100719 WT6  4736 TIP3 H2   HT     0.417000        1.0080           0
  100720 WT6  4737 TIP3 OH2  OT    -0.834000       15.9994           0
  100721 WT6  4737 TIP3 H1   HT     0.417000        1.0080           0
  100722 WT6  4737 TIP3 H2   HT     0.417000        1.0080           0
  100723 WT6  4738 TIP3 OH2  OT    -0.834000       15.9994           0
  100724 WT6  4738 TIP3 H1   HT     0.417000        1.0080           0
  100725 WT6  4738 TIP3 H2   HT     0.417000        1.0080           0
  100726 WT6  4740 TIP3 OH2  OT    -0.834000       15.9994           0
  100727 WT6  4740 TIP3 H1   HT     0.417000        1.0080           0
  100728 WT6  4740 TIP3 H2   HT     0.417000        1.0080           0
  100729 WT6  4748 TIP3 OH2  OT    -0.834000       15.9994           0
  100730 WT6  4748 TIP3 H1   HT     0.417000        1.0080           0
  100731 WT6  4748 TIP3 H2   HT     0.417000        1.0080           0
  100732 WT6  4750 TIP3 OH2  OT    -0.834000       15.9994           0
  100733 WT6  4750 TIP3 H1   HT     0.417000        1.0080           0
  100734 WT6  4750 TIP3 H2   HT     0.417000        1.0080           0
  100735 WT6  4751 TIP3 OH2  OT    -0.834000       15.9994           0
  100736 WT6  4751 TIP3 H1   HT     0.417000        1.0080           0
  100737 WT6  4751 TIP3 H2   HT     0.417000        1.0080           0
  100738 WT6  4753 TIP3 OH2  OT    -0.834000       15.9994           0
  100739 WT6  4753 TIP3 H1   HT     0.417000        1.0080           0
  100740 WT6  4753 TIP3 H2   HT     0.417000        1.0080           0
  100741 WT6  4754 TIP3 OH2  OT    -0.834000       15.9994           0
  100742 WT6  4754 TIP3 H1   HT     0.417000        1.0080           0
  100743 WT6  4754 TIP3 H2   HT     0.417000        1.0080           0
  100744 WT6  4755 TIP3 OH2  OT    -0.834000       15.9994           0
  100745 WT6  4755 TIP3 H1   HT     0.417000        1.0080           0
  100746 WT6  4755 TIP3 H2   HT     0.417000        1.0080           0
  100747 WT6  4759 TIP3 OH2  OT    -0.834000       15.9994           0
  100748 WT6  4759 TIP3 H1   HT     0.417000        1.0080           0
  100749 WT6  4759 TIP3 H2   HT     0.417000        1.0080           0
  100750 WT6  4760 TIP3 OH2  OT    -0.834000       15.9994           0
  100751 WT6  4760 TIP3 H1   HT     0.417000        1.0080           0
  100752 WT6  4760 TIP3 H2   HT     0.417000        1.0080           0
  100753 WT6  4761 TIP3 OH2  OT    -0.834000       15.9994           0
  100754 WT6  4761 TIP3 H1   HT     0.417000        1.0080           0
  100755 WT6  4761 TIP3 H2   HT     0.417000        1.0080           0
  100756 WT6  4767 TIP3 OH2  OT    -0.834000       15.9994           0
  100757 WT6  4767 TIP3 H1   HT     0.417000        1.0080           0
  100758 WT6  4767 TIP3 H2   HT     0.417000        1.0080           0
  100759 WT6  4768 TIP3 OH2  OT    -0.834000       15.9994           0
  100760 WT6  4768 TIP3 H1   HT     0.417000        1.0080           0
  100761 WT6  4768 TIP3 H2   HT     0.417000        1.0080           0
  100762 WT6  4770 TIP3 OH2  OT    -0.834000       15.9994           0
  100763 WT6  4770 TIP3 H1   HT     0.417000        1.0080           0
  100764 WT6  4770 TIP3 H2   HT     0.417000        1.0080           0
  100765 WT6  4773 TIP3 OH2  OT    -0.834000       15.9994           0
  100766 WT6  4773 TIP3 H1   HT     0.417000        1.0080           0
  100767 WT6  4773 TIP3 H2   HT     0.417000        1.0080           0
  100768 WT6  4774 TIP3 OH2  OT    -0.834000       15.9994           0
  100769 WT6  4774 TIP3 H1   HT     0.417000        1.0080           0
  100770 WT6  4774 TIP3 H2   HT     0.417000        1.0080           0
  100771 WT6  4775 TIP3 OH2  OT    -0.834000       15.9994           0
  100772 WT6  4775 TIP3 H1   HT     0.417000        1.0080           0
  100773 WT6  4775 TIP3 H2   HT     0.417000        1.0080           0
  100774 WT6  4776 TIP3 OH2  OT    -0.834000       15.9994           0
  100775 WT6  4776 TIP3 H1   HT     0.417000        1.0080           0
  100776 WT6  4776 TIP3 H2   HT     0.417000        1.0080           0
  100777 WT6  4777 TIP3 OH2  OT    -0.834000       15.9994           0
  100778 WT6  4777 TIP3 H1   HT     0.417000        1.0080           0
  100779 WT6  4777 TIP3 H2   HT     0.417000        1.0080           0
  100780 WT6  4778 TIP3 OH2  OT    -0.834000       15.9994           0
  100781 WT6  4778 TIP3 H1   HT     0.417000        1.0080           0
  100782 WT6  4778 TIP3 H2   HT     0.417000        1.0080           0
  100783 WT6  4779 TIP3 OH2  OT    -0.834000       15.9994           0
  100784 WT6  4779 TIP3 H1   HT     0.417000        1.0080           0
  100785 WT6  4779 TIP3 H2   HT     0.417000        1.0080           0
  100786 WT6  4780 TIP3 OH2  OT    -0.834000       15.9994           0
  100787 WT6  4780 TIP3 H1   HT     0.417000        1.0080           0
  100788 WT6  4780 TIP3 H2   HT     0.417000        1.0080           0
  100789 WT6  4782 TIP3 OH2  OT    -0.834000       15.9994           0
  100790 WT6  4782 TIP3 H1   HT     0.417000        1.0080           0
  100791 WT6  4782 TIP3 H2   HT     0.417000        1.0080           0
  100792 WT6  4785 TIP3 OH2  OT    -0.834000       15.9994           0
  100793 WT6  4785 TIP3 H1   HT     0.417000        1.0080           0
  100794 WT6  4785 TIP3 H2   HT     0.417000        1.0080           0
  100795 WT6  4787 TIP3 OH2  OT    -0.834000       15.9994           0
  100796 WT6  4787 TIP3 H1   HT     0.417000        1.0080           0
  100797 WT6  4787 TIP3 H2   HT     0.417000        1.0080           0
  100798 WT6  4788 TIP3 OH2  OT    -0.834000       15.9994           0
  100799 WT6  4788 TIP3 H1   HT     0.417000        1.0080           0
  100800 WT6  4788 TIP3 H2   HT     0.417000        1.0080           0
  100801 WT6  4790 TIP3 OH2  OT    -0.834000       15.9994           0
  100802 WT6  4790 TIP3 H1   HT     0.417000        1.0080           0
  100803 WT6  4790 TIP3 H2   HT     0.417000        1.0080           0
  100804 WT6  4791 TIP3 OH2  OT    -0.834000       15.9994           0
  100805 WT6  4791 TIP3 H1   HT     0.417000        1.0080           0
  100806 WT6  4791 TIP3 H2   HT     0.417000        1.0080           0
  100807 WT6  4792 TIP3 OH2  OT    -0.834000       15.9994           0
  100808 WT6  4792 TIP3 H1   HT     0.417000        1.0080           0
  100809 WT6  4792 TIP3 H2   HT     0.417000        1.0080           0
  100810 WT6  4793 TIP3 OH2  OT    -0.834000       15.9994           0
  100811 WT6  4793 TIP3 H1   HT     0.417000        1.0080           0
  100812 WT6  4793 TIP3 H2   HT     0.417000        1.0080           0
  100813 WT6  4794 TIP3 OH2  OT    -0.834000       15.9994           0
  100814 WT6  4794 TIP3 H1   HT     0.417000        1.0080           0
  100815 WT6  4794 TIP3 H2   HT     0.417000        1.0080           0
  100816 WT6  4795 TIP3 OH2  OT    -0.834000       15.9994           0
  100817 WT6  4795 TIP3 H1   HT     0.417000        1.0080           0
  100818 WT6  4795 TIP3 H2   HT     0.417000        1.0080           0
  100819 WT6  4796 TIP3 OH2  OT    -0.834000       15.9994           0
  100820 WT6  4796 TIP3 H1   HT     0.417000        1.0080           0
  100821 WT6  4796 TIP3 H2   HT     0.417000        1.0080           0
  100822 WT6  4797 TIP3 OH2  OT    -0.834000       15.9994           0
  100823 WT6  4797 TIP3 H1   HT     0.417000        1.0080           0
  100824 WT6  4797 TIP3 H2   HT     0.417000        1.0080           0
  100825 WT6  4798 TIP3 OH2  OT    -0.834000       15.9994           0
  100826 WT6  4798 TIP3 H1   HT     0.417000        1.0080           0
  100827 WT6  4798 TIP3 H2   HT     0.417000        1.0080           0
  100828 WT6  4800 TIP3 OH2  OT    -0.834000       15.9994           0
  100829 WT6  4800 TIP3 H1   HT     0.417000        1.0080           0
  100830 WT6  4800 TIP3 H2   HT     0.417000        1.0080           0
  100831 WT6  4801 TIP3 OH2  OT    -0.834000       15.9994           0
  100832 WT6  4801 TIP3 H1   HT     0.417000        1.0080           0
  100833 WT6  4801 TIP3 H2   HT     0.417000        1.0080           0
  100834 WT6  4804 TIP3 OH2  OT    -0.834000       15.9994           0
  100835 WT6  4804 TIP3 H1   HT     0.417000        1.0080           0
  100836 WT6  4804 TIP3 H2   HT     0.417000        1.0080           0
  100837 WT6  4806 TIP3 OH2  OT    -0.834000       15.9994           0
  100838 WT6  4806 TIP3 H1   HT     0.417000        1.0080           0
  100839 WT6  4806 TIP3 H2   HT     0.417000        1.0080           0
  100840 WT6  4808 TIP3 OH2  OT    -0.834000       15.9994           0
  100841 WT6  4808 TIP3 H1   HT     0.417000        1.0080           0
  100842 WT6  4808 TIP3 H2   HT     0.417000        1.0080           0
  100843 WT6  4809 TIP3 OH2  OT    -0.834000       15.9994           0
  100844 WT6  4809 TIP3 H1   HT     0.417000        1.0080           0
  100845 WT6  4809 TIP3 H2   HT     0.417000        1.0080           0
  100846 WT6  4811 TIP3 OH2  OT    -0.834000       15.9994           0
  100847 WT6  4811 TIP3 H1   HT     0.417000        1.0080           0
  100848 WT6  4811 TIP3 H2   HT     0.417000        1.0080           0
  100849 WT6  4812 TIP3 OH2  OT    -0.834000       15.9994           0
  100850 WT6  4812 TIP3 H1   HT     0.417000        1.0080           0
  100851 WT6  4812 TIP3 H2   HT     0.417000        1.0080           0
  100852 WT6  4813 TIP3 OH2  OT    -0.834000       15.9994           0
  100853 WT6  4813 TIP3 H1   HT     0.417000        1.0080           0
  100854 WT6  4813 TIP3 H2   HT     0.417000        1.0080           0
  100855 WT6  4814 TIP3 OH2  OT    -0.834000       15.9994           0
  100856 WT6  4814 TIP3 H1   HT     0.417000        1.0080           0
  100857 WT6  4814 TIP3 H2   HT     0.417000        1.0080           0
  100858 WT6  4815 TIP3 OH2  OT    -0.834000       15.9994           0
  100859 WT6  4815 TIP3 H1   HT     0.417000        1.0080           0
  100860 WT6  4815 TIP3 H2   HT     0.417000        1.0080           0
  100861 WT6  4816 TIP3 OH2  OT    -0.834000       15.9994           0
  100862 WT6  4816 TIP3 H1   HT     0.417000        1.0080           0
  100863 WT6  4816 TIP3 H2   HT     0.417000        1.0080           0
  100864 WT6  4817 TIP3 OH2  OT    -0.834000       15.9994           0
  100865 WT6  4817 TIP3 H1   HT     0.417000        1.0080           0
  100866 WT6  4817 TIP3 H2   HT     0.417000        1.0080           0
  100867 WT6  4818 TIP3 OH2  OT    -0.834000       15.9994           0
  100868 WT6  4818 TIP3 H1   HT     0.417000        1.0080           0
  100869 WT6  4818 TIP3 H2   HT     0.417000        1.0080           0
  100870 WT6  4819 TIP3 OH2  OT    -0.834000       15.9994           0
  100871 WT6  4819 TIP3 H1   HT     0.417000        1.0080           0
  100872 WT6  4819 TIP3 H2   HT     0.417000        1.0080           0
  100873 WT6  4820 TIP3 OH2  OT    -0.834000       15.9994           0
  100874 WT6  4820 TIP3 H1   HT     0.417000        1.0080           0
  100875 WT6  4820 TIP3 H2   HT     0.417000        1.0080           0
  100876 WT6  4821 TIP3 OH2  OT    -0.834000       15.9994           0
  100877 WT6  4821 TIP3 H1   HT     0.417000        1.0080           0
  100878 WT6  4821 TIP3 H2   HT     0.417000        1.0080           0
  100879 WT6  4822 TIP3 OH2  OT    -0.834000       15.9994           0
  100880 WT6  4822 TIP3 H1   HT     0.417000        1.0080           0
  100881 WT6  4822 TIP3 H2   HT     0.417000        1.0080           0
  100882 WT6  4824 TIP3 OH2  OT    -0.834000       15.9994           0
  100883 WT6  4824 TIP3 H1   HT     0.417000        1.0080           0
  100884 WT6  4824 TIP3 H2   HT     0.417000        1.0080           0
  100885 WT6  4825 TIP3 OH2  OT    -0.834000       15.9994           0
  100886 WT6  4825 TIP3 H1   HT     0.417000        1.0080           0
  100887 WT6  4825 TIP3 H2   HT     0.417000        1.0080           0
  100888 WT6  4832 TIP3 OH2  OT    -0.834000       15.9994           0
  100889 WT6  4832 TIP3 H1   HT     0.417000        1.0080           0
  100890 WT6  4832 TIP3 H2   HT     0.417000        1.0080           0
  100891 WT6  4833 TIP3 OH2  OT    -0.834000       15.9994           0
  100892 WT6  4833 TIP3 H1   HT     0.417000        1.0080           0
  100893 WT6  4833 TIP3 H2   HT     0.417000        1.0080           0
  100894 WT6  4834 TIP3 OH2  OT    -0.834000       15.9994           0
  100895 WT6  4834 TIP3 H1   HT     0.417000        1.0080           0
  100896 WT6  4834 TIP3 H2   HT     0.417000        1.0080           0
  100897 WT6  4835 TIP3 OH2  OT    -0.834000       15.9994           0
  100898 WT6  4835 TIP3 H1   HT     0.417000        1.0080           0
  100899 WT6  4835 TIP3 H2   HT     0.417000        1.0080           0
  100900 WT6  4836 TIP3 OH2  OT    -0.834000       15.9994           0
  100901 WT6  4836 TIP3 H1   HT     0.417000        1.0080           0
  100902 WT6  4836 TIP3 H2   HT     0.417000        1.0080           0
  100903 WT6  4837 TIP3 OH2  OT    -0.834000       15.9994           0
  100904 WT6  4837 TIP3 H1   HT     0.417000        1.0080           0
  100905 WT6  4837 TIP3 H2   HT     0.417000        1.0080           0
  100906 WT6  4838 TIP3 OH2  OT    -0.834000       15.9994           0
  100907 WT6  4838 TIP3 H1   HT     0.417000        1.0080           0
  100908 WT6  4838 TIP3 H2   HT     0.417000        1.0080           0
  100909 WT6  4839 TIP3 OH2  OT    -0.834000       15.9994           0
  100910 WT6  4839 TIP3 H1   HT     0.417000        1.0080           0
  100911 WT6  4839 TIP3 H2   HT     0.417000        1.0080           0
  100912 WT6  4840 TIP3 OH2  OT    -0.834000       15.9994           0
  100913 WT6  4840 TIP3 H1   HT     0.417000        1.0080           0
  100914 WT6  4840 TIP3 H2   HT     0.417000        1.0080           0
  100915 WT6  4841 TIP3 OH2  OT    -0.834000       15.9994           0
  100916 WT6  4841 TIP3 H1   HT     0.417000        1.0080           0
  100917 WT6  4841 TIP3 H2   HT     0.417000        1.0080           0
  100918 WT6  4842 TIP3 OH2  OT    -0.834000       15.9994           0
  100919 WT6  4842 TIP3 H1   HT     0.417000        1.0080           0
  100920 WT6  4842 TIP3 H2   HT     0.417000        1.0080           0
  100921 WT6  4843 TIP3 OH2  OT    -0.834000       15.9994           0
  100922 WT6  4843 TIP3 H1   HT     0.417000        1.0080           0
  100923 WT6  4843 TIP3 H2   HT     0.417000        1.0080           0
  100924 WT6  4844 TIP3 OH2  OT    -0.834000       15.9994           0
  100925 WT6  4844 TIP3 H1   HT     0.417000        1.0080           0
  100926 WT6  4844 TIP3 H2   HT     0.417000        1.0080           0
  100927 WT6  4849 TIP3 OH2  OT    -0.834000       15.9994           0
  100928 WT6  4849 TIP3 H1   HT     0.417000        1.0080           0
  100929 WT6  4849 TIP3 H2   HT     0.417000        1.0080           0
  100930 WT6  4851 TIP3 OH2  OT    -0.834000       15.9994           0
  100931 WT6  4851 TIP3 H1   HT     0.417000        1.0080           0
  100932 WT6  4851 TIP3 H2   HT     0.417000        1.0080           0
  100933 WT6  4852 TIP3 OH2  OT    -0.834000       15.9994           0
  100934 WT6  4852 TIP3 H1   HT     0.417000        1.0080           0
  100935 WT6  4852 TIP3 H2   HT     0.417000        1.0080           0
  100936 WT6  4853 TIP3 OH2  OT    -0.834000       15.9994           0
  100937 WT6  4853 TIP3 H1   HT     0.417000        1.0080           0
  100938 WT6  4853 TIP3 H2   HT     0.417000        1.0080           0
  100939 WT6  4855 TIP3 OH2  OT    -0.834000       15.9994           0
  100940 WT6  4855 TIP3 H1   HT     0.417000        1.0080           0
  100941 WT6  4855 TIP3 H2   HT     0.417000        1.0080           0
  100942 WT6  4856 TIP3 OH2  OT    -0.834000       15.9994           0
  100943 WT6  4856 TIP3 H1   HT     0.417000        1.0080           0
  100944 WT6  4856 TIP3 H2   HT     0.417000        1.0080           0
  100945 WT6  4857 TIP3 OH2  OT    -0.834000       15.9994           0
  100946 WT6  4857 TIP3 H1   HT     0.417000        1.0080           0
  100947 WT6  4857 TIP3 H2   HT     0.417000        1.0080           0
  100948 WT6  4859 TIP3 OH2  OT    -0.834000       15.9994           0
  100949 WT6  4859 TIP3 H1   HT     0.417000        1.0080           0
  100950 WT6  4859 TIP3 H2   HT     0.417000        1.0080           0
  100951 WT6  4860 TIP3 OH2  OT    -0.834000       15.9994           0
  100952 WT6  4860 TIP3 H1   HT     0.417000        1.0080           0
  100953 WT6  4860 TIP3 H2   HT     0.417000        1.0080           0
  100954 WT6  4861 TIP3 OH2  OT    -0.834000       15.9994           0
  100955 WT6  4861 TIP3 H1   HT     0.417000        1.0080           0
  100956 WT6  4861 TIP3 H2   HT     0.417000        1.0080           0
  100957 WT6  4862 TIP3 OH2  OT    -0.834000       15.9994           0
  100958 WT6  4862 TIP3 H1   HT     0.417000        1.0080           0
  100959 WT6  4862 TIP3 H2   HT     0.417000        1.0080           0
  100960 WT6  4863 TIP3 OH2  OT    -0.834000       15.9994           0
  100961 WT6  4863 TIP3 H1   HT     0.417000        1.0080           0
  100962 WT6  4863 TIP3 H2   HT     0.417000        1.0080           0
  100963 WT6  4864 TIP3 OH2  OT    -0.834000       15.9994           0
  100964 WT6  4864 TIP3 H1   HT     0.417000        1.0080           0
  100965 WT6  4864 TIP3 H2   HT     0.417000        1.0080           0
  100966 WT6  4865 TIP3 OH2  OT    -0.834000       15.9994           0
  100967 WT6  4865 TIP3 H1   HT     0.417000        1.0080           0
  100968 WT6  4865 TIP3 H2   HT     0.417000        1.0080           0
  100969 WT6  4866 TIP3 OH2  OT    -0.834000       15.9994           0
  100970 WT6  4866 TIP3 H1   HT     0.417000        1.0080           0
  100971 WT6  4866 TIP3 H2   HT     0.417000        1.0080           0
  100972 WT6  4867 TIP3 OH2  OT    -0.834000       15.9994           0
  100973 WT6  4867 TIP3 H1   HT     0.417000        1.0080           0
  100974 WT6  4867 TIP3 H2   HT     0.417000        1.0080           0
  100975 WT6  4872 TIP3 OH2  OT    -0.834000       15.9994           0
  100976 WT6  4872 TIP3 H1   HT     0.417000        1.0080           0
  100977 WT6  4872 TIP3 H2   HT     0.417000        1.0080           0
  100978 WT6  4875 TIP3 OH2  OT    -0.834000       15.9994           0
  100979 WT6  4875 TIP3 H1   HT     0.417000        1.0080           0
  100980 WT6  4875 TIP3 H2   HT     0.417000        1.0080           0
  100981 WT6  4876 TIP3 OH2  OT    -0.834000       15.9994           0
  100982 WT6  4876 TIP3 H1   HT     0.417000        1.0080           0
  100983 WT6  4876 TIP3 H2   HT     0.417000        1.0080           0
  100984 WT6  4878 TIP3 OH2  OT    -0.834000       15.9994           0
  100985 WT6  4878 TIP3 H1   HT     0.417000        1.0080           0
  100986 WT6  4878 TIP3 H2   HT     0.417000        1.0080           0
  100987 WT6  4879 TIP3 OH2  OT    -0.834000       15.9994           0
  100988 WT6  4879 TIP3 H1   HT     0.417000        1.0080           0
  100989 WT6  4879 TIP3 H2   HT     0.417000        1.0080           0
  100990 WT6  4880 TIP3 OH2  OT    -0.834000       15.9994           0
  100991 WT6  4880 TIP3 H1   HT     0.417000        1.0080           0
  100992 WT6  4880 TIP3 H2   HT     0.417000        1.0080           0
  100993 WT6  4881 TIP3 OH2  OT    -0.834000       15.9994           0
  100994 WT6  4881 TIP3 H1   HT     0.417000        1.0080           0
  100995 WT6  4881 TIP3 H2   HT     0.417000        1.0080           0
  100996 WT6  4882 TIP3 OH2  OT    -0.834000       15.9994           0
  100997 WT6  4882 TIP3 H1   HT     0.417000        1.0080           0
  100998 WT6  4882 TIP3 H2   HT     0.417000        1.0080           0
  100999 WT6  4883 TIP3 OH2  OT    -0.834000       15.9994           0
  101000 WT6  4883 TIP3 H1   HT     0.417000        1.0080           0
  101001 WT6  4883 TIP3 H2   HT     0.417000        1.0080           0
  101002 WT6  4884 TIP3 OH2  OT    -0.834000       15.9994           0
  101003 WT6  4884 TIP3 H1   HT     0.417000        1.0080           0
  101004 WT6  4884 TIP3 H2   HT     0.417000        1.0080           0
  101005 WT6  4885 TIP3 OH2  OT    -0.834000       15.9994           0
  101006 WT6  4885 TIP3 H1   HT     0.417000        1.0080           0
  101007 WT6  4885 TIP3 H2   HT     0.417000        1.0080           0
  101008 WT6  4887 TIP3 OH2  OT    -0.834000       15.9994           0
  101009 WT6  4887 TIP3 H1   HT     0.417000        1.0080           0
  101010 WT6  4887 TIP3 H2   HT     0.417000        1.0080           0
  101011 WT6  4890 TIP3 OH2  OT    -0.834000       15.9994           0
  101012 WT6  4890 TIP3 H1   HT     0.417000        1.0080           0
  101013 WT6  4890 TIP3 H2   HT     0.417000        1.0080           0
  101014 WT6  4893 TIP3 OH2  OT    -0.834000       15.9994           0
  101015 WT6  4893 TIP3 H1   HT     0.417000        1.0080           0
  101016 WT6  4893 TIP3 H2   HT     0.417000        1.0080           0
  101017 WT6  4896 TIP3 OH2  OT    -0.834000       15.9994           0
  101018 WT6  4896 TIP3 H1   HT     0.417000        1.0080           0
  101019 WT6  4896 TIP3 H2   HT     0.417000        1.0080           0
  101020 WT6  4897 TIP3 OH2  OT    -0.834000       15.9994           0
  101021 WT6  4897 TIP3 H1   HT     0.417000        1.0080           0
  101022 WT6  4897 TIP3 H2   HT     0.417000        1.0080           0
  101023 WT6  4899 TIP3 OH2  OT    -0.834000       15.9994           0
  101024 WT6  4899 TIP3 H1   HT     0.417000        1.0080           0
  101025 WT6  4899 TIP3 H2   HT     0.417000        1.0080           0
  101026 WT6  4900 TIP3 OH2  OT    -0.834000       15.9994           0
  101027 WT6  4900 TIP3 H1   HT     0.417000        1.0080           0
  101028 WT6  4900 TIP3 H2   HT     0.417000        1.0080           0
  101029 WT6  4901 TIP3 OH2  OT    -0.834000       15.9994           0
  101030 WT6  4901 TIP3 H1   HT     0.417000        1.0080           0
  101031 WT6  4901 TIP3 H2   HT     0.417000        1.0080           0
  101032 WT6  4902 TIP3 OH2  OT    -0.834000       15.9994           0
  101033 WT6  4902 TIP3 H1   HT     0.417000        1.0080           0
  101034 WT6  4902 TIP3 H2   HT     0.417000        1.0080           0
  101035 WT6  4903 TIP3 OH2  OT    -0.834000       15.9994           0
  101036 WT6  4903 TIP3 H1   HT     0.417000        1.0080           0
  101037 WT6  4903 TIP3 H2   HT     0.417000        1.0080           0
  101038 WT6  4904 TIP3 OH2  OT    -0.834000       15.9994           0
  101039 WT6  4904 TIP3 H1   HT     0.417000        1.0080           0
  101040 WT6  4904 TIP3 H2   HT     0.417000        1.0080           0
  101041 WT6  4905 TIP3 OH2  OT    -0.834000       15.9994           0
  101042 WT6  4905 TIP3 H1   HT     0.417000        1.0080           0
  101043 WT6  4905 TIP3 H2   HT     0.417000        1.0080           0
  101044 WT6  4908 TIP3 OH2  OT    -0.834000       15.9994           0
  101045 WT6  4908 TIP3 H1   HT     0.417000        1.0080           0
  101046 WT6  4908 TIP3 H2   HT     0.417000        1.0080           0
  101047 WT6  4911 TIP3 OH2  OT    -0.834000       15.9994           0
  101048 WT6  4911 TIP3 H1   HT     0.417000        1.0080           0
  101049 WT6  4911 TIP3 H2   HT     0.417000        1.0080           0
  101050 WT6  4914 TIP3 OH2  OT    -0.834000       15.9994           0
  101051 WT6  4914 TIP3 H1   HT     0.417000        1.0080           0
  101052 WT6  4914 TIP3 H2   HT     0.417000        1.0080           0
  101053 WT6  4915 TIP3 OH2  OT    -0.834000       15.9994           0
  101054 WT6  4915 TIP3 H1   HT     0.417000        1.0080           0
  101055 WT6  4915 TIP3 H2   HT     0.417000        1.0080           0
  101056 WT6  4916 TIP3 OH2  OT    -0.834000       15.9994           0
  101057 WT6  4916 TIP3 H1   HT     0.417000        1.0080           0
  101058 WT6  4916 TIP3 H2   HT     0.417000        1.0080           0
  101059 WT6  4918 TIP3 OH2  OT    -0.834000       15.9994           0
  101060 WT6  4918 TIP3 H1   HT     0.417000        1.0080           0
  101061 WT6  4918 TIP3 H2   HT     0.417000        1.0080           0
  101062 WT6  4919 TIP3 OH2  OT    -0.834000       15.9994           0
  101063 WT6  4919 TIP3 H1   HT     0.417000        1.0080           0
  101064 WT6  4919 TIP3 H2   HT     0.417000        1.0080           0
  101065 WT6  4920 TIP3 OH2  OT    -0.834000       15.9994           0
  101066 WT6  4920 TIP3 H1   HT     0.417000        1.0080           0
  101067 WT6  4920 TIP3 H2   HT     0.417000        1.0080           0
  101068 WT6  4921 TIP3 OH2  OT    -0.834000       15.9994           0
  101069 WT6  4921 TIP3 H1   HT     0.417000        1.0080           0
  101070 WT6  4921 TIP3 H2   HT     0.417000        1.0080           0
  101071 WT6  4922 TIP3 OH2  OT    -0.834000       15.9994           0
  101072 WT6  4922 TIP3 H1   HT     0.417000        1.0080           0
  101073 WT6  4922 TIP3 H2   HT     0.417000        1.0080           0
  101074 WT6  4923 TIP3 OH2  OT    -0.834000       15.9994           0
  101075 WT6  4923 TIP3 H1   HT     0.417000        1.0080           0
  101076 WT6  4923 TIP3 H2   HT     0.417000        1.0080           0
  101077 WT6  4924 TIP3 OH2  OT    -0.834000       15.9994           0
  101078 WT6  4924 TIP3 H1   HT     0.417000        1.0080           0
  101079 WT6  4924 TIP3 H2   HT     0.417000        1.0080           0
  101080 WT6  4925 TIP3 OH2  OT    -0.834000       15.9994           0
  101081 WT6  4925 TIP3 H1   HT     0.417000        1.0080           0
  101082 WT6  4925 TIP3 H2   HT     0.417000        1.0080           0
  101083 WT6  4926 TIP3 OH2  OT    -0.834000       15.9994           0
  101084 WT6  4926 TIP3 H1   HT     0.417000        1.0080           0
  101085 WT6  4926 TIP3 H2   HT     0.417000        1.0080           0
  101086 WT6  4927 TIP3 OH2  OT    -0.834000       15.9994           0
  101087 WT6  4927 TIP3 H1   HT     0.417000        1.0080           0
  101088 WT6  4927 TIP3 H2   HT     0.417000        1.0080           0
  101089 WT6  4930 TIP3 OH2  OT    -0.834000       15.9994           0
  101090 WT6  4930 TIP3 H1   HT     0.417000        1.0080           0
  101091 WT6  4930 TIP3 H2   HT     0.417000        1.0080           0
  101092 WT6  4933 TIP3 OH2  OT    -0.834000       15.9994           0
  101093 WT6  4933 TIP3 H1   HT     0.417000        1.0080           0
  101094 WT6  4933 TIP3 H2   HT     0.417000        1.0080           0
  101095 WT6  4936 TIP3 OH2  OT    -0.834000       15.9994           0
  101096 WT6  4936 TIP3 H1   HT     0.417000        1.0080           0
  101097 WT6  4936 TIP3 H2   HT     0.417000        1.0080           0
  101098 WT6  4937 TIP3 OH2  OT    -0.834000       15.9994           0
  101099 WT6  4937 TIP3 H1   HT     0.417000        1.0080           0
  101100 WT6  4937 TIP3 H2   HT     0.417000        1.0080           0
  101101 WT6  4941 TIP3 OH2  OT    -0.834000       15.9994           0
  101102 WT6  4941 TIP3 H1   HT     0.417000        1.0080           0
  101103 WT6  4941 TIP3 H2   HT     0.417000        1.0080           0
  101104 WT6  4942 TIP3 OH2  OT    -0.834000       15.9994           0
  101105 WT6  4942 TIP3 H1   HT     0.417000        1.0080           0
  101106 WT6  4942 TIP3 H2   HT     0.417000        1.0080           0
  101107 WT6  4944 TIP3 OH2  OT    -0.834000       15.9994           0
  101108 WT6  4944 TIP3 H1   HT     0.417000        1.0080           0
  101109 WT6  4944 TIP3 H2   HT     0.417000        1.0080           0
  101110 WT6  4945 TIP3 OH2  OT    -0.834000       15.9994           0
  101111 WT6  4945 TIP3 H1   HT     0.417000        1.0080           0
  101112 WT6  4945 TIP3 H2   HT     0.417000        1.0080           0
  101113 WT6  4946 TIP3 OH2  OT    -0.834000       15.9994           0
  101114 WT6  4946 TIP3 H1   HT     0.417000        1.0080           0
  101115 WT6  4946 TIP3 H2   HT     0.417000        1.0080           0
  101116 WT6  4947 TIP3 OH2  OT    -0.834000       15.9994           0
  101117 WT6  4947 TIP3 H1   HT     0.417000        1.0080           0
  101118 WT6  4947 TIP3 H2   HT     0.417000        1.0080           0
  101119 WT6  4957 TIP3 OH2  OT    -0.834000       15.9994           0
  101120 WT6  4957 TIP3 H1   HT     0.417000        1.0080           0
  101121 WT6  4957 TIP3 H2   HT     0.417000        1.0080           0
  101122 WT6  4961 TIP3 OH2  OT    -0.834000       15.9994           0
  101123 WT6  4961 TIP3 H1   HT     0.417000        1.0080           0
  101124 WT6  4961 TIP3 H2   HT     0.417000        1.0080           0
  101125 WT6  4963 TIP3 OH2  OT    -0.834000       15.9994           0
  101126 WT6  4963 TIP3 H1   HT     0.417000        1.0080           0
  101127 WT6  4963 TIP3 H2   HT     0.417000        1.0080           0
  101128 WT6  4964 TIP3 OH2  OT    -0.834000       15.9994           0
  101129 WT6  4964 TIP3 H1   HT     0.417000        1.0080           0
  101130 WT6  4964 TIP3 H2   HT     0.417000        1.0080           0
  101131 WT6  4965 TIP3 OH2  OT    -0.834000       15.9994           0
  101132 WT6  4965 TIP3 H1   HT     0.417000        1.0080           0
  101133 WT6  4965 TIP3 H2   HT     0.417000        1.0080           0
  101134 WT6  4966 TIP3 OH2  OT    -0.834000       15.9994           0
  101135 WT6  4966 TIP3 H1   HT     0.417000        1.0080           0
  101136 WT6  4966 TIP3 H2   HT     0.417000        1.0080           0
  101137 WT6  4971 TIP3 OH2  OT    -0.834000       15.9994           0
  101138 WT6  4971 TIP3 H1   HT     0.417000        1.0080           0
  101139 WT6  4971 TIP3 H2   HT     0.417000        1.0080           0
  101140 WT6  4978 TIP3 OH2  OT    -0.834000       15.9994           0
  101141 WT6  4978 TIP3 H1   HT     0.417000        1.0080           0
  101142 WT6  4978 TIP3 H2   HT     0.417000        1.0080           0
  101143 WT6  4980 TIP3 OH2  OT    -0.834000       15.9994           0
  101144 WT6  4980 TIP3 H1   HT     0.417000        1.0080           0
  101145 WT6  4980 TIP3 H2   HT     0.417000        1.0080           0
  101146 WT6  4981 TIP3 OH2  OT    -0.834000       15.9994           0
  101147 WT6  4981 TIP3 H1   HT     0.417000        1.0080           0
  101148 WT6  4981 TIP3 H2   HT     0.417000        1.0080           0
  101149 WT6  4982 TIP3 OH2  OT    -0.834000       15.9994           0
  101150 WT6  4982 TIP3 H1   HT     0.417000        1.0080           0
  101151 WT6  4982 TIP3 H2   HT     0.417000        1.0080           0
  101152 WT6  4983 TIP3 OH2  OT    -0.834000       15.9994           0
  101153 WT6  4983 TIP3 H1   HT     0.417000        1.0080           0
  101154 WT6  4983 TIP3 H2   HT     0.417000        1.0080           0
  101155 WT6  4985 TIP3 OH2  OT    -0.834000       15.9994           0
  101156 WT6  4985 TIP3 H1   HT     0.417000        1.0080           0
  101157 WT6  4985 TIP3 H2   HT     0.417000        1.0080           0
  101158 WT6  4986 TIP3 OH2  OT    -0.834000       15.9994           0
  101159 WT6  4986 TIP3 H1   HT     0.417000        1.0080           0
  101160 WT6  4986 TIP3 H2   HT     0.417000        1.0080           0
  101161 WT6  4987 TIP3 OH2  OT    -0.834000       15.9994           0
  101162 WT6  4987 TIP3 H1   HT     0.417000        1.0080           0
  101163 WT6  4987 TIP3 H2   HT     0.417000        1.0080           0
  101164 WT6  4988 TIP3 OH2  OT    -0.834000       15.9994           0
  101165 WT6  4988 TIP3 H1   HT     0.417000        1.0080           0
  101166 WT6  4988 TIP3 H2   HT     0.417000        1.0080           0
  101167 WT6  4993 TIP3 OH2  OT    -0.834000       15.9994           0
  101168 WT6  4993 TIP3 H1   HT     0.417000        1.0080           0
  101169 WT6  4993 TIP3 H2   HT     0.417000        1.0080           0
  101170 WT6  4996 TIP3 OH2  OT    -0.834000       15.9994           0
  101171 WT6  4996 TIP3 H1   HT     0.417000        1.0080           0
  101172 WT6  4996 TIP3 H2   HT     0.417000        1.0080           0
  101173 WT6  4998 TIP3 OH2  OT    -0.834000       15.9994           0
  101174 WT6  4998 TIP3 H1   HT     0.417000        1.0080           0
  101175 WT6  4998 TIP3 H2   HT     0.417000        1.0080           0
  101176 WT6  4999 TIP3 OH2  OT    -0.834000       15.9994           0
  101177 WT6  4999 TIP3 H1   HT     0.417000        1.0080           0
  101178 WT6  4999 TIP3 H2   HT     0.417000        1.0080           0
  101179 WT6  5000 TIP3 OH2  OT    -0.834000       15.9994           0
  101180 WT6  5000 TIP3 H1   HT     0.417000        1.0080           0
  101181 WT6  5000 TIP3 H2   HT     0.417000        1.0080           0
  101182 WT6  5001 TIP3 OH2  OT    -0.834000       15.9994           0
  101183 WT6  5001 TIP3 H1   HT     0.417000        1.0080           0
  101184 WT6  5001 TIP3 H2   HT     0.417000        1.0080           0
  101185 WT6  5002 TIP3 OH2  OT    -0.834000       15.9994           0
  101186 WT6  5002 TIP3 H1   HT     0.417000        1.0080           0
  101187 WT6  5002 TIP3 H2   HT     0.417000        1.0080           0
  101188 WT6  5003 TIP3 OH2  OT    -0.834000       15.9994           0
  101189 WT6  5003 TIP3 H1   HT     0.417000        1.0080           0
  101190 WT6  5003 TIP3 H2   HT     0.417000        1.0080           0
  101191 WT6  5005 TIP3 OH2  OT    -0.834000       15.9994           0
  101192 WT6  5005 TIP3 H1   HT     0.417000        1.0080           0
  101193 WT6  5005 TIP3 H2   HT     0.417000        1.0080           0
  101194 WT6  5006 TIP3 OH2  OT    -0.834000       15.9994           0
  101195 WT6  5006 TIP3 H1   HT     0.417000        1.0080           0
  101196 WT6  5006 TIP3 H2   HT     0.417000        1.0080           0
  101197 WT6  5007 TIP3 OH2  OT    -0.834000       15.9994           0
  101198 WT6  5007 TIP3 H1   HT     0.417000        1.0080           0
  101199 WT6  5007 TIP3 H2   HT     0.417000        1.0080           0
  101200 WT6  5009 TIP3 OH2  OT    -0.834000       15.9994           0
  101201 WT6  5009 TIP3 H1   HT     0.417000        1.0080           0
  101202 WT6  5009 TIP3 H2   HT     0.417000        1.0080           0
  101203 WT6  5010 TIP3 OH2  OT    -0.834000       15.9994           0
  101204 WT6  5010 TIP3 H1   HT     0.417000        1.0080           0
  101205 WT6  5010 TIP3 H2   HT     0.417000        1.0080           0
  101206 WT6  5012 TIP3 OH2  OT    -0.834000       15.9994           0
  101207 WT6  5012 TIP3 H1   HT     0.417000        1.0080           0
  101208 WT6  5012 TIP3 H2   HT     0.417000        1.0080           0
  101209 WT6  5013 TIP3 OH2  OT    -0.834000       15.9994           0
  101210 WT6  5013 TIP3 H1   HT     0.417000        1.0080           0
  101211 WT6  5013 TIP3 H2   HT     0.417000        1.0080           0
  101212 WT6  5021 TIP3 OH2  OT    -0.834000       15.9994           0
  101213 WT6  5021 TIP3 H1   HT     0.417000        1.0080           0
  101214 WT6  5021 TIP3 H2   HT     0.417000        1.0080           0
  101215 WT6  5023 TIP3 OH2  OT    -0.834000       15.9994           0
  101216 WT6  5023 TIP3 H1   HT     0.417000        1.0080           0
  101217 WT6  5023 TIP3 H2   HT     0.417000        1.0080           0
  101218 WT6  5024 TIP3 OH2  OT    -0.834000       15.9994           0
  101219 WT6  5024 TIP3 H1   HT     0.417000        1.0080           0
  101220 WT6  5024 TIP3 H2   HT     0.417000        1.0080           0
  101221 WT6  5025 TIP3 OH2  OT    -0.834000       15.9994           0
  101222 WT6  5025 TIP3 H1   HT     0.417000        1.0080           0
  101223 WT6  5025 TIP3 H2   HT     0.417000        1.0080           0
  101224 WT6  5026 TIP3 OH2  OT    -0.834000       15.9994           0
  101225 WT6  5026 TIP3 H1   HT     0.417000        1.0080           0
  101226 WT6  5026 TIP3 H2   HT     0.417000        1.0080           0
  101227 WT6  5027 TIP3 OH2  OT    -0.834000       15.9994           0
  101228 WT6  5027 TIP3 H1   HT     0.417000        1.0080           0
  101229 WT6  5027 TIP3 H2   HT     0.417000        1.0080           0
  101230 WT6  5028 TIP3 OH2  OT    -0.834000       15.9994           0
  101231 WT6  5028 TIP3 H1   HT     0.417000        1.0080           0
  101232 WT6  5028 TIP3 H2   HT     0.417000        1.0080           0
  101233 WT6  5029 TIP3 OH2  OT    -0.834000       15.9994           0
  101234 WT6  5029 TIP3 H1   HT     0.417000        1.0080           0
  101235 WT6  5029 TIP3 H2   HT     0.417000        1.0080           0
  101236 WT6  5030 TIP3 OH2  OT    -0.834000       15.9994           0
  101237 WT6  5030 TIP3 H1   HT     0.417000        1.0080           0
  101238 WT6  5030 TIP3 H2   HT     0.417000        1.0080           0
  101239 WT6  5042 TIP3 OH2  OT    -0.834000       15.9994           0
  101240 WT6  5042 TIP3 H1   HT     0.417000        1.0080           0
  101241 WT6  5042 TIP3 H2   HT     0.417000        1.0080           0
  101242 WT6  5043 TIP3 OH2  OT    -0.834000       15.9994           0
  101243 WT6  5043 TIP3 H1   HT     0.417000        1.0080           0
  101244 WT6  5043 TIP3 H2   HT     0.417000        1.0080           0
  101245 WT6  5044 TIP3 OH2  OT    -0.834000       15.9994           0
  101246 WT6  5044 TIP3 H1   HT     0.417000        1.0080           0
  101247 WT6  5044 TIP3 H2   HT     0.417000        1.0080           0
  101248 WT6  5046 TIP3 OH2  OT    -0.834000       15.9994           0
  101249 WT6  5046 TIP3 H1   HT     0.417000        1.0080           0
  101250 WT6  5046 TIP3 H2   HT     0.417000        1.0080           0
  101251 WT6  5047 TIP3 OH2  OT    -0.834000       15.9994           0
  101252 WT6  5047 TIP3 H1   HT     0.417000        1.0080           0
  101253 WT6  5047 TIP3 H2   HT     0.417000        1.0080           0
  101254 WT6  5048 TIP3 OH2  OT    -0.834000       15.9994           0
  101255 WT6  5048 TIP3 H1   HT     0.417000        1.0080           0
  101256 WT6  5048 TIP3 H2   HT     0.417000        1.0080           0
  101257 WT6  5049 TIP3 OH2  OT    -0.834000       15.9994           0
  101258 WT6  5049 TIP3 H1   HT     0.417000        1.0080           0
  101259 WT6  5049 TIP3 H2   HT     0.417000        1.0080           0
  101260 WT6  5050 TIP3 OH2  OT    -0.834000       15.9994           0
  101261 WT6  5050 TIP3 H1   HT     0.417000        1.0080           0
  101262 WT6  5050 TIP3 H2   HT     0.417000        1.0080           0
  101263 WT6  5053 TIP3 OH2  OT    -0.834000       15.9994           0
  101264 WT6  5053 TIP3 H1   HT     0.417000        1.0080           0
  101265 WT6  5053 TIP3 H2   HT     0.417000        1.0080           0
  101266 WT6  5055 TIP3 OH2  OT    -0.834000       15.9994           0
  101267 WT6  5055 TIP3 H1   HT     0.417000        1.0080           0
  101268 WT6  5055 TIP3 H2   HT     0.417000        1.0080           0
  101269 WT6  5056 TIP3 OH2  OT    -0.834000       15.9994           0
  101270 WT6  5056 TIP3 H1   HT     0.417000        1.0080           0
  101271 WT6  5056 TIP3 H2   HT     0.417000        1.0080           0
  101272 WT6  5061 TIP3 OH2  OT    -0.834000       15.9994           0
  101273 WT6  5061 TIP3 H1   HT     0.417000        1.0080           0
  101274 WT6  5061 TIP3 H2   HT     0.417000        1.0080           0
  101275 WT6  5063 TIP3 OH2  OT    -0.834000       15.9994           0
  101276 WT6  5063 TIP3 H1   HT     0.417000        1.0080           0
  101277 WT6  5063 TIP3 H2   HT     0.417000        1.0080           0
  101278 WT6  5064 TIP3 OH2  OT    -0.834000       15.9994           0
  101279 WT6  5064 TIP3 H1   HT     0.417000        1.0080           0
  101280 WT6  5064 TIP3 H2   HT     0.417000        1.0080           0
  101281 WT6  5065 TIP3 OH2  OT    -0.834000       15.9994           0
  101282 WT6  5065 TIP3 H1   HT     0.417000        1.0080           0
  101283 WT6  5065 TIP3 H2   HT     0.417000        1.0080           0
  101284 WT6  5066 TIP3 OH2  OT    -0.834000       15.9994           0
  101285 WT6  5066 TIP3 H1   HT     0.417000        1.0080           0
  101286 WT6  5066 TIP3 H2   HT     0.417000        1.0080           0
  101287 WT6  5067 TIP3 OH2  OT    -0.834000       15.9994           0
  101288 WT6  5067 TIP3 H1   HT     0.417000        1.0080           0
  101289 WT6  5067 TIP3 H2   HT     0.417000        1.0080           0
  101290 WT6  5068 TIP3 OH2  OT    -0.834000       15.9994           0
  101291 WT6  5068 TIP3 H1   HT     0.417000        1.0080           0
  101292 WT6  5068 TIP3 H2   HT     0.417000        1.0080           0
  101293 WT6  5069 TIP3 OH2  OT    -0.834000       15.9994           0
  101294 WT6  5069 TIP3 H1   HT     0.417000        1.0080           0
  101295 WT6  5069 TIP3 H2   HT     0.417000        1.0080           0
  101296 WT6  5071 TIP3 OH2  OT    -0.834000       15.9994           0
  101297 WT6  5071 TIP3 H1   HT     0.417000        1.0080           0
  101298 WT6  5071 TIP3 H2   HT     0.417000        1.0080           0
  101299 WT6  5075 TIP3 OH2  OT    -0.834000       15.9994           0
  101300 WT6  5075 TIP3 H1   HT     0.417000        1.0080           0
  101301 WT6  5075 TIP3 H2   HT     0.417000        1.0080           0
  101302 WT6  5086 TIP3 OH2  OT    -0.834000       15.9994           0
  101303 WT6  5086 TIP3 H1   HT     0.417000        1.0080           0
  101304 WT6  5086 TIP3 H2   HT     0.417000        1.0080           0
  101305 WT6  5087 TIP3 OH2  OT    -0.834000       15.9994           0
  101306 WT6  5087 TIP3 H1   HT     0.417000        1.0080           0
  101307 WT6  5087 TIP3 H2   HT     0.417000        1.0080           0
  101308 WT6  5088 TIP3 OH2  OT    -0.834000       15.9994           0
  101309 WT6  5088 TIP3 H1   HT     0.417000        1.0080           0
  101310 WT6  5088 TIP3 H2   HT     0.417000        1.0080           0
  101311 WT6  5089 TIP3 OH2  OT    -0.834000       15.9994           0
  101312 WT6  5089 TIP3 H1   HT     0.417000        1.0080           0
  101313 WT6  5089 TIP3 H2   HT     0.417000        1.0080           0
  101314 WT6  5090 TIP3 OH2  OT    -0.834000       15.9994           0
  101315 WT6  5090 TIP3 H1   HT     0.417000        1.0080           0
  101316 WT6  5090 TIP3 H2   HT     0.417000        1.0080           0
  101317 WT6  5091 TIP3 OH2  OT    -0.834000       15.9994           0
  101318 WT6  5091 TIP3 H1   HT     0.417000        1.0080           0
  101319 WT6  5091 TIP3 H2   HT     0.417000        1.0080           0
  101320 WT6  5093 TIP3 OH2  OT    -0.834000       15.9994           0
  101321 WT6  5093 TIP3 H1   HT     0.417000        1.0080           0
  101322 WT6  5093 TIP3 H2   HT     0.417000        1.0080           0
  101323 WT6  5095 TIP3 OH2  OT    -0.834000       15.9994           0
  101324 WT6  5095 TIP3 H1   HT     0.417000        1.0080           0
  101325 WT6  5095 TIP3 H2   HT     0.417000        1.0080           0
  101326 WT6  5097 TIP3 OH2  OT    -0.834000       15.9994           0
  101327 WT6  5097 TIP3 H1   HT     0.417000        1.0080           0
  101328 WT6  5097 TIP3 H2   HT     0.417000        1.0080           0
  101329 WT6  5098 TIP3 OH2  OT    -0.834000       15.9994           0
  101330 WT6  5098 TIP3 H1   HT     0.417000        1.0080           0
  101331 WT6  5098 TIP3 H2   HT     0.417000        1.0080           0
  101332 WT6  5104 TIP3 OH2  OT    -0.834000       15.9994           0
  101333 WT6  5104 TIP3 H1   HT     0.417000        1.0080           0
  101334 WT6  5104 TIP3 H2   HT     0.417000        1.0080           0
  101335 WT6  5106 TIP3 OH2  OT    -0.834000       15.9994           0
  101336 WT6  5106 TIP3 H1   HT     0.417000        1.0080           0
  101337 WT6  5106 TIP3 H2   HT     0.417000        1.0080           0
  101338 WT6  5108 TIP3 OH2  OT    -0.834000       15.9994           0
  101339 WT6  5108 TIP3 H1   HT     0.417000        1.0080           0
  101340 WT6  5108 TIP3 H2   HT     0.417000        1.0080           0
  101341 WT6  5109 TIP3 OH2  OT    -0.834000       15.9994           0
  101342 WT6  5109 TIP3 H1   HT     0.417000        1.0080           0
  101343 WT6  5109 TIP3 H2   HT     0.417000        1.0080           0
  101344 WT6  5110 TIP3 OH2  OT    -0.834000       15.9994           0
  101345 WT6  5110 TIP3 H1   HT     0.417000        1.0080           0
  101346 WT6  5110 TIP3 H2   HT     0.417000        1.0080           0
  101347 WT6  5111 TIP3 OH2  OT    -0.834000       15.9994           0
  101348 WT6  5111 TIP3 H1   HT     0.417000        1.0080           0
  101349 WT6  5111 TIP3 H2   HT     0.417000        1.0080           0
  101350 WT6  5112 TIP3 OH2  OT    -0.834000       15.9994           0
  101351 WT6  5112 TIP3 H1   HT     0.417000        1.0080           0
  101352 WT6  5112 TIP3 H2   HT     0.417000        1.0080           0
  101353 WT6  5113 TIP3 OH2  OT    -0.834000       15.9994           0
  101354 WT6  5113 TIP3 H1   HT     0.417000        1.0080           0
  101355 WT6  5113 TIP3 H2   HT     0.417000        1.0080           0
  101356 WT6  5115 TIP3 OH2  OT    -0.834000       15.9994           0
  101357 WT6  5115 TIP3 H1   HT     0.417000        1.0080           0
  101358 WT6  5115 TIP3 H2   HT     0.417000        1.0080           0
  101359 WT6  5117 TIP3 OH2  OT    -0.834000       15.9994           0
  101360 WT6  5117 TIP3 H1   HT     0.417000        1.0080           0
  101361 WT6  5117 TIP3 H2   HT     0.417000        1.0080           0
  101362 WT6  5118 TIP3 OH2  OT    -0.834000       15.9994           0
  101363 WT6  5118 TIP3 H1   HT     0.417000        1.0080           0
  101364 WT6  5118 TIP3 H2   HT     0.417000        1.0080           0
  101365 WT6  5125 TIP3 OH2  OT    -0.834000       15.9994           0
  101366 WT6  5125 TIP3 H1   HT     0.417000        1.0080           0
  101367 WT6  5125 TIP3 H2   HT     0.417000        1.0080           0
  101368 WT6  5126 TIP3 OH2  OT    -0.834000       15.9994           0
  101369 WT6  5126 TIP3 H1   HT     0.417000        1.0080           0
  101370 WT6  5126 TIP3 H2   HT     0.417000        1.0080           0
  101371 WT6  5127 TIP3 OH2  OT    -0.834000       15.9994           0
  101372 WT6  5127 TIP3 H1   HT     0.417000        1.0080           0
  101373 WT6  5127 TIP3 H2   HT     0.417000        1.0080           0
  101374 WT6  5128 TIP3 OH2  OT    -0.834000       15.9994           0
  101375 WT6  5128 TIP3 H1   HT     0.417000        1.0080           0
  101376 WT6  5128 TIP3 H2   HT     0.417000        1.0080           0
  101377 WT6  5129 TIP3 OH2  OT    -0.834000       15.9994           0
  101378 WT6  5129 TIP3 H1   HT     0.417000        1.0080           0
  101379 WT6  5129 TIP3 H2   HT     0.417000        1.0080           0
  101380 WT6  5131 TIP3 OH2  OT    -0.834000       15.9994           0
  101381 WT6  5131 TIP3 H1   HT     0.417000        1.0080           0
  101382 WT6  5131 TIP3 H2   HT     0.417000        1.0080           0
  101383 WT6  5132 TIP3 OH2  OT    -0.834000       15.9994           0
  101384 WT6  5132 TIP3 H1   HT     0.417000        1.0080           0
  101385 WT6  5132 TIP3 H2   HT     0.417000        1.0080           0
  101386 WT6  5133 TIP3 OH2  OT    -0.834000       15.9994           0
  101387 WT6  5133 TIP3 H1   HT     0.417000        1.0080           0
  101388 WT6  5133 TIP3 H2   HT     0.417000        1.0080           0
  101389 WT6  5134 TIP3 OH2  OT    -0.834000       15.9994           0
  101390 WT6  5134 TIP3 H1   HT     0.417000        1.0080           0
  101391 WT6  5134 TIP3 H2   HT     0.417000        1.0080           0
  101392 WT6  5137 TIP3 OH2  OT    -0.834000       15.9994           0
  101393 WT6  5137 TIP3 H1   HT     0.417000        1.0080           0
  101394 WT6  5137 TIP3 H2   HT     0.417000        1.0080           0
  101395 WT6  5140 TIP3 OH2  OT    -0.834000       15.9994           0
  101396 WT6  5140 TIP3 H1   HT     0.417000        1.0080           0
  101397 WT6  5140 TIP3 H2   HT     0.417000        1.0080           0
  101398 WT6  5146 TIP3 OH2  OT    -0.834000       15.9994           0
  101399 WT6  5146 TIP3 H1   HT     0.417000        1.0080           0
  101400 WT6  5146 TIP3 H2   HT     0.417000        1.0080           0
  101401 WT6  5147 TIP3 OH2  OT    -0.834000       15.9994           0
  101402 WT6  5147 TIP3 H1   HT     0.417000        1.0080           0
  101403 WT6  5147 TIP3 H2   HT     0.417000        1.0080           0
  101404 WT6  5148 TIP3 OH2  OT    -0.834000       15.9994           0
  101405 WT6  5148 TIP3 H1   HT     0.417000        1.0080           0
  101406 WT6  5148 TIP3 H2   HT     0.417000        1.0080           0
  101407 WT6  5149 TIP3 OH2  OT    -0.834000       15.9994           0
  101408 WT6  5149 TIP3 H1   HT     0.417000        1.0080           0
  101409 WT6  5149 TIP3 H2   HT     0.417000        1.0080           0
  101410 WT6  5150 TIP3 OH2  OT    -0.834000       15.9994           0
  101411 WT6  5150 TIP3 H1   HT     0.417000        1.0080           0
  101412 WT6  5150 TIP3 H2   HT     0.417000        1.0080           0
  101413 WT6  5152 TIP3 OH2  OT    -0.834000       15.9994           0
  101414 WT6  5152 TIP3 H1   HT     0.417000        1.0080           0
  101415 WT6  5152 TIP3 H2   HT     0.417000        1.0080           0
  101416 WT6  5153 TIP3 OH2  OT    -0.834000       15.9994           0
  101417 WT6  5153 TIP3 H1   HT     0.417000        1.0080           0
  101418 WT6  5153 TIP3 H2   HT     0.417000        1.0080           0
  101419 WT6  5154 TIP3 OH2  OT    -0.834000       15.9994           0
  101420 WT6  5154 TIP3 H1   HT     0.417000        1.0080           0
  101421 WT6  5154 TIP3 H2   HT     0.417000        1.0080           0
  101422 WT6  5156 TIP3 OH2  OT    -0.834000       15.9994           0
  101423 WT6  5156 TIP3 H1   HT     0.417000        1.0080           0
  101424 WT6  5156 TIP3 H2   HT     0.417000        1.0080           0
  101425 WT6  5157 TIP3 OH2  OT    -0.834000       15.9994           0
  101426 WT6  5157 TIP3 H1   HT     0.417000        1.0080           0
  101427 WT6  5157 TIP3 H2   HT     0.417000        1.0080           0
  101428 WT6  5158 TIP3 OH2  OT    -0.834000       15.9994           0
  101429 WT6  5158 TIP3 H1   HT     0.417000        1.0080           0
  101430 WT6  5158 TIP3 H2   HT     0.417000        1.0080           0
  101431 WT6  5161 TIP3 OH2  OT    -0.834000       15.9994           0
  101432 WT6  5161 TIP3 H1   HT     0.417000        1.0080           0
  101433 WT6  5161 TIP3 H2   HT     0.417000        1.0080           0
  101434 WT6  5162 TIP3 OH2  OT    -0.834000       15.9994           0
  101435 WT6  5162 TIP3 H1   HT     0.417000        1.0080           0
  101436 WT6  5162 TIP3 H2   HT     0.417000        1.0080           0
  101437 WT6  5164 TIP3 OH2  OT    -0.834000       15.9994           0
  101438 WT6  5164 TIP3 H1   HT     0.417000        1.0080           0
  101439 WT6  5164 TIP3 H2   HT     0.417000        1.0080           0
  101440 WT6  5165 TIP3 OH2  OT    -0.834000       15.9994           0
  101441 WT6  5165 TIP3 H1   HT     0.417000        1.0080           0
  101442 WT6  5165 TIP3 H2   HT     0.417000        1.0080           0
  101443 WT6  5168 TIP3 OH2  OT    -0.834000       15.9994           0
  101444 WT6  5168 TIP3 H1   HT     0.417000        1.0080           0
  101445 WT6  5168 TIP3 H2   HT     0.417000        1.0080           0
  101446 WT6  5171 TIP3 OH2  OT    -0.834000       15.9994           0
  101447 WT6  5171 TIP3 H1   HT     0.417000        1.0080           0
  101448 WT6  5171 TIP3 H2   HT     0.417000        1.0080           0
  101449 WT6  5172 TIP3 OH2  OT    -0.834000       15.9994           0
  101450 WT6  5172 TIP3 H1   HT     0.417000        1.0080           0
  101451 WT6  5172 TIP3 H2   HT     0.417000        1.0080           0
  101452 WT6  5173 TIP3 OH2  OT    -0.834000       15.9994           0
  101453 WT6  5173 TIP3 H1   HT     0.417000        1.0080           0
  101454 WT6  5173 TIP3 H2   HT     0.417000        1.0080           0
  101455 WT6  5176 TIP3 OH2  OT    -0.834000       15.9994           0
  101456 WT6  5176 TIP3 H1   HT     0.417000        1.0080           0
  101457 WT6  5176 TIP3 H2   HT     0.417000        1.0080           0
  101458 WT6  5177 TIP3 OH2  OT    -0.834000       15.9994           0
  101459 WT6  5177 TIP3 H1   HT     0.417000        1.0080           0
  101460 WT6  5177 TIP3 H2   HT     0.417000        1.0080           0
  101461 WT6  5178 TIP3 OH2  OT    -0.834000       15.9994           0
  101462 WT6  5178 TIP3 H1   HT     0.417000        1.0080           0
  101463 WT6  5178 TIP3 H2   HT     0.417000        1.0080           0
  101464 WT6  5179 TIP3 OH2  OT    -0.834000       15.9994           0
  101465 WT6  5179 TIP3 H1   HT     0.417000        1.0080           0
  101466 WT6  5179 TIP3 H2   HT     0.417000        1.0080           0
  101467 WT6  5180 TIP3 OH2  OT    -0.834000       15.9994           0
  101468 WT6  5180 TIP3 H1   HT     0.417000        1.0080           0
  101469 WT6  5180 TIP3 H2   HT     0.417000        1.0080           0
  101470 WT6  5182 TIP3 OH2  OT    -0.834000       15.9994           0
  101471 WT6  5182 TIP3 H1   HT     0.417000        1.0080           0
  101472 WT6  5182 TIP3 H2   HT     0.417000        1.0080           0
  101473 WT6  5186 TIP3 OH2  OT    -0.834000       15.9994           0
  101474 WT6  5186 TIP3 H1   HT     0.417000        1.0080           0
  101475 WT6  5186 TIP3 H2   HT     0.417000        1.0080           0
  101476 WT6  5188 TIP3 OH2  OT    -0.834000       15.9994           0
  101477 WT6  5188 TIP3 H1   HT     0.417000        1.0080           0
  101478 WT6  5188 TIP3 H2   HT     0.417000        1.0080           0
  101479 WT6  5189 TIP3 OH2  OT    -0.834000       15.9994           0
  101480 WT6  5189 TIP3 H1   HT     0.417000        1.0080           0
  101481 WT6  5189 TIP3 H2   HT     0.417000        1.0080           0
  101482 WT6  5190 TIP3 OH2  OT    -0.834000       15.9994           0
  101483 WT6  5190 TIP3 H1   HT     0.417000        1.0080           0
  101484 WT6  5190 TIP3 H2   HT     0.417000        1.0080           0
  101485 WT6  5191 TIP3 OH2  OT    -0.834000       15.9994           0
  101486 WT6  5191 TIP3 H1   HT     0.417000        1.0080           0
  101487 WT6  5191 TIP3 H2   HT     0.417000        1.0080           0
  101488 WT6  5192 TIP3 OH2  OT    -0.834000       15.9994           0
  101489 WT6  5192 TIP3 H1   HT     0.417000        1.0080           0
  101490 WT6  5192 TIP3 H2   HT     0.417000        1.0080           0
  101491 WT6  5194 TIP3 OH2  OT    -0.834000       15.9994           0
  101492 WT6  5194 TIP3 H1   HT     0.417000        1.0080           0
  101493 WT6  5194 TIP3 H2   HT     0.417000        1.0080           0
  101494 WT6  5195 TIP3 OH2  OT    -0.834000       15.9994           0
  101495 WT6  5195 TIP3 H1   HT     0.417000        1.0080           0
  101496 WT6  5195 TIP3 H2   HT     0.417000        1.0080           0
  101497 WT6  5196 TIP3 OH2  OT    -0.834000       15.9994           0
  101498 WT6  5196 TIP3 H1   HT     0.417000        1.0080           0
  101499 WT6  5196 TIP3 H2   HT     0.417000        1.0080           0
  101500 WT6  5197 TIP3 OH2  OT    -0.834000       15.9994           0
  101501 WT6  5197 TIP3 H1   HT     0.417000        1.0080           0
  101502 WT6  5197 TIP3 H2   HT     0.417000        1.0080           0
  101503 WT6  5198 TIP3 OH2  OT    -0.834000       15.9994           0
  101504 WT6  5198 TIP3 H1   HT     0.417000        1.0080           0
  101505 WT6  5198 TIP3 H2   HT     0.417000        1.0080           0
  101506 WT6  5199 TIP3 OH2  OT    -0.834000       15.9994           0
  101507 WT6  5199 TIP3 H1   HT     0.417000        1.0080           0
  101508 WT6  5199 TIP3 H2   HT     0.417000        1.0080           0
  101509 WT6  5200 TIP3 OH2  OT    -0.834000       15.9994           0
  101510 WT6  5200 TIP3 H1   HT     0.417000        1.0080           0
  101511 WT6  5200 TIP3 H2   HT     0.417000        1.0080           0
  101512 WT6  5201 TIP3 OH2  OT    -0.834000       15.9994           0
  101513 WT6  5201 TIP3 H1   HT     0.417000        1.0080           0
  101514 WT6  5201 TIP3 H2   HT     0.417000        1.0080           0
  101515 WT6  5205 TIP3 OH2  OT    -0.834000       15.9994           0
  101516 WT6  5205 TIP3 H1   HT     0.417000        1.0080           0
  101517 WT6  5205 TIP3 H2   HT     0.417000        1.0080           0
  101518 WT6  5206 TIP3 OH2  OT    -0.834000       15.9994           0
  101519 WT6  5206 TIP3 H1   HT     0.417000        1.0080           0
  101520 WT6  5206 TIP3 H2   HT     0.417000        1.0080           0
  101521 WT6  5211 TIP3 OH2  OT    -0.834000       15.9994           0
  101522 WT6  5211 TIP3 H1   HT     0.417000        1.0080           0
  101523 WT6  5211 TIP3 H2   HT     0.417000        1.0080           0
  101524 WT6  5212 TIP3 OH2  OT    -0.834000       15.9994           0
  101525 WT6  5212 TIP3 H1   HT     0.417000        1.0080           0
  101526 WT6  5212 TIP3 H2   HT     0.417000        1.0080           0
  101527 WT6  5214 TIP3 OH2  OT    -0.834000       15.9994           0
  101528 WT6  5214 TIP3 H1   HT     0.417000        1.0080           0
  101529 WT6  5214 TIP3 H2   HT     0.417000        1.0080           0
  101530 WT6  5215 TIP3 OH2  OT    -0.834000       15.9994           0
  101531 WT6  5215 TIP3 H1   HT     0.417000        1.0080           0
  101532 WT6  5215 TIP3 H2   HT     0.417000        1.0080           0
  101533 WT6  5216 TIP3 OH2  OT    -0.834000       15.9994           0
  101534 WT6  5216 TIP3 H1   HT     0.417000        1.0080           0
  101535 WT6  5216 TIP3 H2   HT     0.417000        1.0080           0
  101536 WT6  5217 TIP3 OH2  OT    -0.834000       15.9994           0
  101537 WT6  5217 TIP3 H1   HT     0.417000        1.0080           0
  101538 WT6  5217 TIP3 H2   HT     0.417000        1.0080           0
  101539 WT6  5218 TIP3 OH2  OT    -0.834000       15.9994           0
  101540 WT6  5218 TIP3 H1   HT     0.417000        1.0080           0
  101541 WT6  5218 TIP3 H2   HT     0.417000        1.0080           0
  101542 WT6  5220 TIP3 OH2  OT    -0.834000       15.9994           0
  101543 WT6  5220 TIP3 H1   HT     0.417000        1.0080           0
  101544 WT6  5220 TIP3 H2   HT     0.417000        1.0080           0
  101545 WT6  5221 TIP3 OH2  OT    -0.834000       15.9994           0
  101546 WT6  5221 TIP3 H1   HT     0.417000        1.0080           0
  101547 WT6  5221 TIP3 H2   HT     0.417000        1.0080           0
  101548 WT6  5223 TIP3 OH2  OT    -0.834000       15.9994           0
  101549 WT6  5223 TIP3 H1   HT     0.417000        1.0080           0
  101550 WT6  5223 TIP3 H2   HT     0.417000        1.0080           0
  101551 WT6  5224 TIP3 OH2  OT    -0.834000       15.9994           0
  101552 WT6  5224 TIP3 H1   HT     0.417000        1.0080           0
  101553 WT6  5224 TIP3 H2   HT     0.417000        1.0080           0
  101554 WT6  5230 TIP3 OH2  OT    -0.834000       15.9994           0
  101555 WT6  5230 TIP3 H1   HT     0.417000        1.0080           0
  101556 WT6  5230 TIP3 H2   HT     0.417000        1.0080           0
  101557 WT6  5231 TIP3 OH2  OT    -0.834000       15.9994           0
  101558 WT6  5231 TIP3 H1   HT     0.417000        1.0080           0
  101559 WT6  5231 TIP3 H2   HT     0.417000        1.0080           0
  101560 WT6  5232 TIP3 OH2  OT    -0.834000       15.9994           0
  101561 WT6  5232 TIP3 H1   HT     0.417000        1.0080           0
  101562 WT6  5232 TIP3 H2   HT     0.417000        1.0080           0
  101563 WT6  5233 TIP3 OH2  OT    -0.834000       15.9994           0
  101564 WT6  5233 TIP3 H1   HT     0.417000        1.0080           0
  101565 WT6  5233 TIP3 H2   HT     0.417000        1.0080           0
  101566 WT6  5234 TIP3 OH2  OT    -0.834000       15.9994           0
  101567 WT6  5234 TIP3 H1   HT     0.417000        1.0080           0
  101568 WT6  5234 TIP3 H2   HT     0.417000        1.0080           0
  101569 WT6  5235 TIP3 OH2  OT    -0.834000       15.9994           0
  101570 WT6  5235 TIP3 H1   HT     0.417000        1.0080           0
  101571 WT6  5235 TIP3 H2   HT     0.417000        1.0080           0
  101572 WT6  5236 TIP3 OH2  OT    -0.834000       15.9994           0
  101573 WT6  5236 TIP3 H1   HT     0.417000        1.0080           0
  101574 WT6  5236 TIP3 H2   HT     0.417000        1.0080           0
  101575 WT6  5237 TIP3 OH2  OT    -0.834000       15.9994           0
  101576 WT6  5237 TIP3 H1   HT     0.417000        1.0080           0
  101577 WT6  5237 TIP3 H2   HT     0.417000        1.0080           0
  101578 WT6  5238 TIP3 OH2  OT    -0.834000       15.9994           0
  101579 WT6  5238 TIP3 H1   HT     0.417000        1.0080           0
  101580 WT6  5238 TIP3 H2   HT     0.417000        1.0080           0
  101581 WT6  5240 TIP3 OH2  OT    -0.834000       15.9994           0
  101582 WT6  5240 TIP3 H1   HT     0.417000        1.0080           0
  101583 WT6  5240 TIP3 H2   HT     0.417000        1.0080           0
  101584 WT6  5241 TIP3 OH2  OT    -0.834000       15.9994           0
  101585 WT6  5241 TIP3 H1   HT     0.417000        1.0080           0
  101586 WT6  5241 TIP3 H2   HT     0.417000        1.0080           0
  101587 WT6  5242 TIP3 OH2  OT    -0.834000       15.9994           0
  101588 WT6  5242 TIP3 H1   HT     0.417000        1.0080           0
  101589 WT6  5242 TIP3 H2   HT     0.417000        1.0080           0
  101590 WT6  5244 TIP3 OH2  OT    -0.834000       15.9994           0
  101591 WT6  5244 TIP3 H1   HT     0.417000        1.0080           0
  101592 WT6  5244 TIP3 H2   HT     0.417000        1.0080           0
  101593 WT6  5251 TIP3 OH2  OT    -0.834000       15.9994           0
  101594 WT6  5251 TIP3 H1   HT     0.417000        1.0080           0
  101595 WT6  5251 TIP3 H2   HT     0.417000        1.0080           0
  101596 WT6  5253 TIP3 OH2  OT    -0.834000       15.9994           0
  101597 WT6  5253 TIP3 H1   HT     0.417000        1.0080           0
  101598 WT6  5253 TIP3 H2   HT     0.417000        1.0080           0
  101599 WT6  5255 TIP3 OH2  OT    -0.834000       15.9994           0
  101600 WT6  5255 TIP3 H1   HT     0.417000        1.0080           0
  101601 WT6  5255 TIP3 H2   HT     0.417000        1.0080           0
  101602 WT6  5256 TIP3 OH2  OT    -0.834000       15.9994           0
  101603 WT6  5256 TIP3 H1   HT     0.417000        1.0080           0
  101604 WT6  5256 TIP3 H2   HT     0.417000        1.0080           0
  101605 WT6  5257 TIP3 OH2  OT    -0.834000       15.9994           0
  101606 WT6  5257 TIP3 H1   HT     0.417000        1.0080           0
  101607 WT6  5257 TIP3 H2   HT     0.417000        1.0080           0
  101608 WT6  5258 TIP3 OH2  OT    -0.834000       15.9994           0
  101609 WT6  5258 TIP3 H1   HT     0.417000        1.0080           0
  101610 WT6  5258 TIP3 H2   HT     0.417000        1.0080           0
  101611 WT6  5259 TIP3 OH2  OT    -0.834000       15.9994           0
  101612 WT6  5259 TIP3 H1   HT     0.417000        1.0080           0
  101613 WT6  5259 TIP3 H2   HT     0.417000        1.0080           0
  101614 WT6  5260 TIP3 OH2  OT    -0.834000       15.9994           0
  101615 WT6  5260 TIP3 H1   HT     0.417000        1.0080           0
  101616 WT6  5260 TIP3 H2   HT     0.417000        1.0080           0
  101617 WT6  5261 TIP3 OH2  OT    -0.834000       15.9994           0
  101618 WT6  5261 TIP3 H1   HT     0.417000        1.0080           0
  101619 WT6  5261 TIP3 H2   HT     0.417000        1.0080           0
  101620 WT6  5262 TIP3 OH2  OT    -0.834000       15.9994           0
  101621 WT6  5262 TIP3 H1   HT     0.417000        1.0080           0
  101622 WT6  5262 TIP3 H2   HT     0.417000        1.0080           0
  101623 WT6  5263 TIP3 OH2  OT    -0.834000       15.9994           0
  101624 WT6  5263 TIP3 H1   HT     0.417000        1.0080           0
  101625 WT6  5263 TIP3 H2   HT     0.417000        1.0080           0
  101626 WT6  5267 TIP3 OH2  OT    -0.834000       15.9994           0
  101627 WT6  5267 TIP3 H1   HT     0.417000        1.0080           0
  101628 WT6  5267 TIP3 H2   HT     0.417000        1.0080           0
  101629 WT6  5270 TIP3 OH2  OT    -0.834000       15.9994           0
  101630 WT6  5270 TIP3 H1   HT     0.417000        1.0080           0
  101631 WT6  5270 TIP3 H2   HT     0.417000        1.0080           0
  101632 WT6  5272 TIP3 OH2  OT    -0.834000       15.9994           0
  101633 WT6  5272 TIP3 H1   HT     0.417000        1.0080           0
  101634 WT6  5272 TIP3 H2   HT     0.417000        1.0080           0
  101635 WT6  5274 TIP3 OH2  OT    -0.834000       15.9994           0
  101636 WT6  5274 TIP3 H1   HT     0.417000        1.0080           0
  101637 WT6  5274 TIP3 H2   HT     0.417000        1.0080           0
  101638 WT6  5275 TIP3 OH2  OT    -0.834000       15.9994           0
  101639 WT6  5275 TIP3 H1   HT     0.417000        1.0080           0
  101640 WT6  5275 TIP3 H2   HT     0.417000        1.0080           0
  101641 WT6  5276 TIP3 OH2  OT    -0.834000       15.9994           0
  101642 WT6  5276 TIP3 H1   HT     0.417000        1.0080           0
  101643 WT6  5276 TIP3 H2   HT     0.417000        1.0080           0
  101644 WT6  5277 TIP3 OH2  OT    -0.834000       15.9994           0
  101645 WT6  5277 TIP3 H1   HT     0.417000        1.0080           0
  101646 WT6  5277 TIP3 H2   HT     0.417000        1.0080           0
  101647 WT6  5278 TIP3 OH2  OT    -0.834000       15.9994           0
  101648 WT6  5278 TIP3 H1   HT     0.417000        1.0080           0
  101649 WT6  5278 TIP3 H2   HT     0.417000        1.0080           0
  101650 WT6  5279 TIP3 OH2  OT    -0.834000       15.9994           0
  101651 WT6  5279 TIP3 H1   HT     0.417000        1.0080           0
  101652 WT6  5279 TIP3 H2   HT     0.417000        1.0080           0
  101653 WT6  5280 TIP3 OH2  OT    -0.834000       15.9994           0
  101654 WT6  5280 TIP3 H1   HT     0.417000        1.0080           0
  101655 WT6  5280 TIP3 H2   HT     0.417000        1.0080           0
  101656 WT6  5281 TIP3 OH2  OT    -0.834000       15.9994           0
  101657 WT6  5281 TIP3 H1   HT     0.417000        1.0080           0
  101658 WT6  5281 TIP3 H2   HT     0.417000        1.0080           0
  101659 WT6  5282 TIP3 OH2  OT    -0.834000       15.9994           0
  101660 WT6  5282 TIP3 H1   HT     0.417000        1.0080           0
  101661 WT6  5282 TIP3 H2   HT     0.417000        1.0080           0
  101662 WT6  5287 TIP3 OH2  OT    -0.834000       15.9994           0
  101663 WT6  5287 TIP3 H1   HT     0.417000        1.0080           0
  101664 WT6  5287 TIP3 H2   HT     0.417000        1.0080           0
  101665 WT6  5292 TIP3 OH2  OT    -0.834000       15.9994           0
  101666 WT6  5292 TIP3 H1   HT     0.417000        1.0080           0
  101667 WT6  5292 TIP3 H2   HT     0.417000        1.0080           0
  101668 WT6  5293 TIP3 OH2  OT    -0.834000       15.9994           0
  101669 WT6  5293 TIP3 H1   HT     0.417000        1.0080           0
  101670 WT6  5293 TIP3 H2   HT     0.417000        1.0080           0
  101671 WT6  5294 TIP3 OH2  OT    -0.834000       15.9994           0
  101672 WT6  5294 TIP3 H1   HT     0.417000        1.0080           0
  101673 WT6  5294 TIP3 H2   HT     0.417000        1.0080           0
  101674 WT6  5295 TIP3 OH2  OT    -0.834000       15.9994           0
  101675 WT6  5295 TIP3 H1   HT     0.417000        1.0080           0
  101676 WT6  5295 TIP3 H2   HT     0.417000        1.0080           0
  101677 WT6  5299 TIP3 OH2  OT    -0.834000       15.9994           0
  101678 WT6  5299 TIP3 H1   HT     0.417000        1.0080           0
  101679 WT6  5299 TIP3 H2   HT     0.417000        1.0080           0
  101680 WT6  5300 TIP3 OH2  OT    -0.834000       15.9994           0
  101681 WT6  5300 TIP3 H1   HT     0.417000        1.0080           0
  101682 WT6  5300 TIP3 H2   HT     0.417000        1.0080           0
  101683 WT6  5302 TIP3 OH2  OT    -0.834000       15.9994           0
  101684 WT6  5302 TIP3 H1   HT     0.417000        1.0080           0
  101685 WT6  5302 TIP3 H2   HT     0.417000        1.0080           0
  101686 WT6  5303 TIP3 OH2  OT    -0.834000       15.9994           0
  101687 WT6  5303 TIP3 H1   HT     0.417000        1.0080           0
  101688 WT6  5303 TIP3 H2   HT     0.417000        1.0080           0
  101689 WT6  5307 TIP3 OH2  OT    -0.834000       15.9994           0
  101690 WT6  5307 TIP3 H1   HT     0.417000        1.0080           0
  101691 WT6  5307 TIP3 H2   HT     0.417000        1.0080           0
  101692 WT6  5315 TIP3 OH2  OT    -0.834000       15.9994           0
  101693 WT6  5315 TIP3 H1   HT     0.417000        1.0080           0
  101694 WT6  5315 TIP3 H2   HT     0.417000        1.0080           0
  101695 WT6  5317 TIP3 OH2  OT    -0.834000       15.9994           0
  101696 WT6  5317 TIP3 H1   HT     0.417000        1.0080           0
  101697 WT6  5317 TIP3 H2   HT     0.417000        1.0080           0
  101698 WT6  5318 TIP3 OH2  OT    -0.834000       15.9994           0
  101699 WT6  5318 TIP3 H1   HT     0.417000        1.0080           0
  101700 WT6  5318 TIP3 H2   HT     0.417000        1.0080           0
  101701 WT6  5319 TIP3 OH2  OT    -0.834000       15.9994           0
  101702 WT6  5319 TIP3 H1   HT     0.417000        1.0080           0
  101703 WT6  5319 TIP3 H2   HT     0.417000        1.0080           0
  101704 WT6  5320 TIP3 OH2  OT    -0.834000       15.9994           0
  101705 WT6  5320 TIP3 H1   HT     0.417000        1.0080           0
  101706 WT6  5320 TIP3 H2   HT     0.417000        1.0080           0
  101707 WT6  5321 TIP3 OH2  OT    -0.834000       15.9994           0
  101708 WT6  5321 TIP3 H1   HT     0.417000        1.0080           0
  101709 WT6  5321 TIP3 H2   HT     0.417000        1.0080           0
  101710 WT6  5323 TIP3 OH2  OT    -0.834000       15.9994           0
  101711 WT6  5323 TIP3 H1   HT     0.417000        1.0080           0
  101712 WT6  5323 TIP3 H2   HT     0.417000        1.0080           0
  101713 WT6  5325 TIP3 OH2  OT    -0.834000       15.9994           0
  101714 WT6  5325 TIP3 H1   HT     0.417000        1.0080           0
  101715 WT6  5325 TIP3 H2   HT     0.417000        1.0080           0
  101716 WT6  5326 TIP3 OH2  OT    -0.834000       15.9994           0
  101717 WT6  5326 TIP3 H1   HT     0.417000        1.0080           0
  101718 WT6  5326 TIP3 H2   HT     0.417000        1.0080           0
  101719 WT6  5327 TIP3 OH2  OT    -0.834000       15.9994           0
  101720 WT6  5327 TIP3 H1   HT     0.417000        1.0080           0
  101721 WT6  5327 TIP3 H2   HT     0.417000        1.0080           0
  101722 WT6  5330 TIP3 OH2  OT    -0.834000       15.9994           0
  101723 WT6  5330 TIP3 H1   HT     0.417000        1.0080           0
  101724 WT6  5330 TIP3 H2   HT     0.417000        1.0080           0
  101725 WT6  5336 TIP3 OH2  OT    -0.834000       15.9994           0
  101726 WT6  5336 TIP3 H1   HT     0.417000        1.0080           0
  101727 WT6  5336 TIP3 H2   HT     0.417000        1.0080           0
  101728 WT6  5337 TIP3 OH2  OT    -0.834000       15.9994           0
  101729 WT6  5337 TIP3 H1   HT     0.417000        1.0080           0
  101730 WT6  5337 TIP3 H2   HT     0.417000        1.0080           0
  101731 WT6  5339 TIP3 OH2  OT    -0.834000       15.9994           0
  101732 WT6  5339 TIP3 H1   HT     0.417000        1.0080           0
  101733 WT6  5339 TIP3 H2   HT     0.417000        1.0080           0
  101734 WT6  5340 TIP3 OH2  OT    -0.834000       15.9994           0
  101735 WT6  5340 TIP3 H1   HT     0.417000        1.0080           0
  101736 WT6  5340 TIP3 H2   HT     0.417000        1.0080           0
  101737 WT6  5341 TIP3 OH2  OT    -0.834000       15.9994           0
  101738 WT6  5341 TIP3 H1   HT     0.417000        1.0080           0
  101739 WT6  5341 TIP3 H2   HT     0.417000        1.0080           0
  101740 WT6  5342 TIP3 OH2  OT    -0.834000       15.9994           0
  101741 WT6  5342 TIP3 H1   HT     0.417000        1.0080           0
  101742 WT6  5342 TIP3 H2   HT     0.417000        1.0080           0
  101743 WT6  5343 TIP3 OH2  OT    -0.834000       15.9994           0
  101744 WT6  5343 TIP3 H1   HT     0.417000        1.0080           0
  101745 WT6  5343 TIP3 H2   HT     0.417000        1.0080           0
  101746 WT6  5345 TIP3 OH2  OT    -0.834000       15.9994           0
  101747 WT6  5345 TIP3 H1   HT     0.417000        1.0080           0
  101748 WT6  5345 TIP3 H2   HT     0.417000        1.0080           0
  101749 WT6  5347 TIP3 OH2  OT    -0.834000       15.9994           0
  101750 WT6  5347 TIP3 H1   HT     0.417000        1.0080           0
  101751 WT6  5347 TIP3 H2   HT     0.417000        1.0080           0
  101752 WT6  5348 TIP3 OH2  OT    -0.834000       15.9994           0
  101753 WT6  5348 TIP3 H1   HT     0.417000        1.0080           0
  101754 WT6  5348 TIP3 H2   HT     0.417000        1.0080           0
  101755 WT6  5349 TIP3 OH2  OT    -0.834000       15.9994           0
  101756 WT6  5349 TIP3 H1   HT     0.417000        1.0080           0
  101757 WT6  5349 TIP3 H2   HT     0.417000        1.0080           0
  101758 WT6  5355 TIP3 OH2  OT    -0.834000       15.9994           0
  101759 WT6  5355 TIP3 H1   HT     0.417000        1.0080           0
  101760 WT6  5355 TIP3 H2   HT     0.417000        1.0080           0
  101761 WT6  5356 TIP3 OH2  OT    -0.834000       15.9994           0
  101762 WT6  5356 TIP3 H1   HT     0.417000        1.0080           0
  101763 WT6  5356 TIP3 H2   HT     0.417000        1.0080           0
  101764 WT6  5358 TIP3 OH2  OT    -0.834000       15.9994           0
  101765 WT6  5358 TIP3 H1   HT     0.417000        1.0080           0
  101766 WT6  5358 TIP3 H2   HT     0.417000        1.0080           0
  101767 WT6  5360 TIP3 OH2  OT    -0.834000       15.9994           0
  101768 WT6  5360 TIP3 H1   HT     0.417000        1.0080           0
  101769 WT6  5360 TIP3 H2   HT     0.417000        1.0080           0
  101770 WT6  5361 TIP3 OH2  OT    -0.834000       15.9994           0
  101771 WT6  5361 TIP3 H1   HT     0.417000        1.0080           0
  101772 WT6  5361 TIP3 H2   HT     0.417000        1.0080           0
  101773 WT6  5362 TIP3 OH2  OT    -0.834000       15.9994           0
  101774 WT6  5362 TIP3 H1   HT     0.417000        1.0080           0
  101775 WT6  5362 TIP3 H2   HT     0.417000        1.0080           0
  101776 WT6  5364 TIP3 OH2  OT    -0.834000       15.9994           0
  101777 WT6  5364 TIP3 H1   HT     0.417000        1.0080           0
  101778 WT6  5364 TIP3 H2   HT     0.417000        1.0080           0
  101779 WT6  5365 TIP3 OH2  OT    -0.834000       15.9994           0
  101780 WT6  5365 TIP3 H1   HT     0.417000        1.0080           0
  101781 WT6  5365 TIP3 H2   HT     0.417000        1.0080           0
  101782 WT6  5366 TIP3 OH2  OT    -0.834000       15.9994           0
  101783 WT6  5366 TIP3 H1   HT     0.417000        1.0080           0
  101784 WT6  5366 TIP3 H2   HT     0.417000        1.0080           0
  101785 WT6  5367 TIP3 OH2  OT    -0.834000       15.9994           0
  101786 WT6  5367 TIP3 H1   HT     0.417000        1.0080           0
  101787 WT6  5367 TIP3 H2   HT     0.417000        1.0080           0
  101788 WT6  5368 TIP3 OH2  OT    -0.834000       15.9994           0
  101789 WT6  5368 TIP3 H1   HT     0.417000        1.0080           0
  101790 WT6  5368 TIP3 H2   HT     0.417000        1.0080           0
  101791 WT6  5369 TIP3 OH2  OT    -0.834000       15.9994           0
  101792 WT6  5369 TIP3 H1   HT     0.417000        1.0080           0
  101793 WT6  5369 TIP3 H2   HT     0.417000        1.0080           0
  101794 WT6  5370 TIP3 OH2  OT    -0.834000       15.9994           0
  101795 WT6  5370 TIP3 H1   HT     0.417000        1.0080           0
  101796 WT6  5370 TIP3 H2   HT     0.417000        1.0080           0
  101797 WT6  5371 TIP3 OH2  OT    -0.834000       15.9994           0
  101798 WT6  5371 TIP3 H1   HT     0.417000        1.0080           0
  101799 WT6  5371 TIP3 H2   HT     0.417000        1.0080           0
  101800 WT6  5375 TIP3 OH2  OT    -0.834000       15.9994           0
  101801 WT6  5375 TIP3 H1   HT     0.417000        1.0080           0
  101802 WT6  5375 TIP3 H2   HT     0.417000        1.0080           0
  101803 WT6  5377 TIP3 OH2  OT    -0.834000       15.9994           0
  101804 WT6  5377 TIP3 H1   HT     0.417000        1.0080           0
  101805 WT6  5377 TIP3 H2   HT     0.417000        1.0080           0
  101806 WT6  5378 TIP3 OH2  OT    -0.834000       15.9994           0
  101807 WT6  5378 TIP3 H1   HT     0.417000        1.0080           0
  101808 WT6  5378 TIP3 H2   HT     0.417000        1.0080           0
  101809 WT6  5380 TIP3 OH2  OT    -0.834000       15.9994           0
  101810 WT6  5380 TIP3 H1   HT     0.417000        1.0080           0
  101811 WT6  5380 TIP3 H2   HT     0.417000        1.0080           0
  101812 WT6  5381 TIP3 OH2  OT    -0.834000       15.9994           0
  101813 WT6  5381 TIP3 H1   HT     0.417000        1.0080           0
  101814 WT6  5381 TIP3 H2   HT     0.417000        1.0080           0
  101815 WT6  5382 TIP3 OH2  OT    -0.834000       15.9994           0
  101816 WT6  5382 TIP3 H1   HT     0.417000        1.0080           0
  101817 WT6  5382 TIP3 H2   HT     0.417000        1.0080           0
  101818 WT6  5383 TIP3 OH2  OT    -0.834000       15.9994           0
  101819 WT6  5383 TIP3 H1   HT     0.417000        1.0080           0
  101820 WT6  5383 TIP3 H2   HT     0.417000        1.0080           0
  101821 WT6  5384 TIP3 OH2  OT    -0.834000       15.9994           0
  101822 WT6  5384 TIP3 H1   HT     0.417000        1.0080           0
  101823 WT6  5384 TIP3 H2   HT     0.417000        1.0080           0
  101824 WT6  5385 TIP3 OH2  OT    -0.834000       15.9994           0
  101825 WT6  5385 TIP3 H1   HT     0.417000        1.0080           0
  101826 WT6  5385 TIP3 H2   HT     0.417000        1.0080           0
  101827 WT6  5389 TIP3 OH2  OT    -0.834000       15.9994           0
  101828 WT6  5389 TIP3 H1   HT     0.417000        1.0080           0
  101829 WT6  5389 TIP3 H2   HT     0.417000        1.0080           0
  101830 WT6  5392 TIP3 OH2  OT    -0.834000       15.9994           0
  101831 WT6  5392 TIP3 H1   HT     0.417000        1.0080           0
  101832 WT6  5392 TIP3 H2   HT     0.417000        1.0080           0
  101833 WT6  5393 TIP3 OH2  OT    -0.834000       15.9994           0
  101834 WT6  5393 TIP3 H1   HT     0.417000        1.0080           0
  101835 WT6  5393 TIP3 H2   HT     0.417000        1.0080           0
  101836 WT6  5396 TIP3 OH2  OT    -0.834000       15.9994           0
  101837 WT6  5396 TIP3 H1   HT     0.417000        1.0080           0
  101838 WT6  5396 TIP3 H2   HT     0.417000        1.0080           0
  101839 WT6  5400 TIP3 OH2  OT    -0.834000       15.9994           0
  101840 WT6  5400 TIP3 H1   HT     0.417000        1.0080           0
  101841 WT6  5400 TIP3 H2   HT     0.417000        1.0080           0
  101842 WT6  5401 TIP3 OH2  OT    -0.834000       15.9994           0
  101843 WT6  5401 TIP3 H1   HT     0.417000        1.0080           0
  101844 WT6  5401 TIP3 H2   HT     0.417000        1.0080           0
  101845 WT6  5403 TIP3 OH2  OT    -0.834000       15.9994           0
  101846 WT6  5403 TIP3 H1   HT     0.417000        1.0080           0
  101847 WT6  5403 TIP3 H2   HT     0.417000        1.0080           0
  101848 WT6  5404 TIP3 OH2  OT    -0.834000       15.9994           0
  101849 WT6  5404 TIP3 H1   HT     0.417000        1.0080           0
  101850 WT6  5404 TIP3 H2   HT     0.417000        1.0080           0
  101851 WT6  5405 TIP3 OH2  OT    -0.834000       15.9994           0
  101852 WT6  5405 TIP3 H1   HT     0.417000        1.0080           0
  101853 WT6  5405 TIP3 H2   HT     0.417000        1.0080           0
  101854 WT6  5406 TIP3 OH2  OT    -0.834000       15.9994           0
  101855 WT6  5406 TIP3 H1   HT     0.417000        1.0080           0
  101856 WT6  5406 TIP3 H2   HT     0.417000        1.0080           0
  101857 WT6  5408 TIP3 OH2  OT    -0.834000       15.9994           0
  101858 WT6  5408 TIP3 H1   HT     0.417000        1.0080           0
  101859 WT6  5408 TIP3 H2   HT     0.417000        1.0080           0
  101860 WT6  5409 TIP3 OH2  OT    -0.834000       15.9994           0
  101861 WT6  5409 TIP3 H1   HT     0.417000        1.0080           0
  101862 WT6  5409 TIP3 H2   HT     0.417000        1.0080           0
  101863 WT6  5410 TIP3 OH2  OT    -0.834000       15.9994           0
  101864 WT6  5410 TIP3 H1   HT     0.417000        1.0080           0
  101865 WT6  5410 TIP3 H2   HT     0.417000        1.0080           0
  101866 WT6  5411 TIP3 OH2  OT    -0.834000       15.9994           0
  101867 WT6  5411 TIP3 H1   HT     0.417000        1.0080           0
  101868 WT6  5411 TIP3 H2   HT     0.417000        1.0080           0
  101869 WT6  5412 TIP3 OH2  OT    -0.834000       15.9994           0
  101870 WT6  5412 TIP3 H1   HT     0.417000        1.0080           0
  101871 WT6  5412 TIP3 H2   HT     0.417000        1.0080           0
  101872 WT6  5418 TIP3 OH2  OT    -0.834000       15.9994           0
  101873 WT6  5418 TIP3 H1   HT     0.417000        1.0080           0
  101874 WT6  5418 TIP3 H2   HT     0.417000        1.0080           0
  101875 WT6  5421 TIP3 OH2  OT    -0.834000       15.9994           0
  101876 WT6  5421 TIP3 H1   HT     0.417000        1.0080           0
  101877 WT6  5421 TIP3 H2   HT     0.417000        1.0080           0
  101878 WT6  5423 TIP3 OH2  OT    -0.834000       15.9994           0
  101879 WT6  5423 TIP3 H1   HT     0.417000        1.0080           0
  101880 WT6  5423 TIP3 H2   HT     0.417000        1.0080           0
  101881 WT6  5424 TIP3 OH2  OT    -0.834000       15.9994           0
  101882 WT6  5424 TIP3 H1   HT     0.417000        1.0080           0
  101883 WT6  5424 TIP3 H2   HT     0.417000        1.0080           0
  101884 WT6  5425 TIP3 OH2  OT    -0.834000       15.9994           0
  101885 WT6  5425 TIP3 H1   HT     0.417000        1.0080           0
  101886 WT6  5425 TIP3 H2   HT     0.417000        1.0080           0
  101887 WT6  5426 TIP3 OH2  OT    -0.834000       15.9994           0
  101888 WT6  5426 TIP3 H1   HT     0.417000        1.0080           0
  101889 WT6  5426 TIP3 H2   HT     0.417000        1.0080           0
  101890 WT6  5427 TIP3 OH2  OT    -0.834000       15.9994           0
  101891 WT6  5427 TIP3 H1   HT     0.417000        1.0080           0
  101892 WT6  5427 TIP3 H2   HT     0.417000        1.0080           0
  101893 WT6  5428 TIP3 OH2  OT    -0.834000       15.9994           0
  101894 WT6  5428 TIP3 H1   HT     0.417000        1.0080           0
  101895 WT6  5428 TIP3 H2   HT     0.417000        1.0080           0
  101896 WT6  5429 TIP3 OH2  OT    -0.834000       15.9994           0
  101897 WT6  5429 TIP3 H1   HT     0.417000        1.0080           0
  101898 WT6  5429 TIP3 H2   HT     0.417000        1.0080           0
  101899 WT6  5430 TIP3 OH2  OT    -0.834000       15.9994           0
  101900 WT6  5430 TIP3 H1   HT     0.417000        1.0080           0
  101901 WT6  5430 TIP3 H2   HT     0.417000        1.0080           0
  101902 WT6  5431 TIP3 OH2  OT    -0.834000       15.9994           0
  101903 WT6  5431 TIP3 H1   HT     0.417000        1.0080           0
  101904 WT6  5431 TIP3 H2   HT     0.417000        1.0080           0
  101905 WT6  5433 TIP3 OH2  OT    -0.834000       15.9994           0
  101906 WT6  5433 TIP3 H1   HT     0.417000        1.0080           0
  101907 WT6  5433 TIP3 H2   HT     0.417000        1.0080           0
  101908 WT6  5434 TIP3 OH2  OT    -0.834000       15.9994           0
  101909 WT6  5434 TIP3 H1   HT     0.417000        1.0080           0
  101910 WT6  5434 TIP3 H2   HT     0.417000        1.0080           0
  101911 WT6  5440 TIP3 OH2  OT    -0.834000       15.9994           0
  101912 WT6  5440 TIP3 H1   HT     0.417000        1.0080           0
  101913 WT6  5440 TIP3 H2   HT     0.417000        1.0080           0
  101914 WT6  5443 TIP3 OH2  OT    -0.834000       15.9994           0
  101915 WT6  5443 TIP3 H1   HT     0.417000        1.0080           0
  101916 WT6  5443 TIP3 H2   HT     0.417000        1.0080           0
  101917 WT6  5444 TIP3 OH2  OT    -0.834000       15.9994           0
  101918 WT6  5444 TIP3 H1   HT     0.417000        1.0080           0
  101919 WT6  5444 TIP3 H2   HT     0.417000        1.0080           0
  101920 WT6  5445 TIP3 OH2  OT    -0.834000       15.9994           0
  101921 WT6  5445 TIP3 H1   HT     0.417000        1.0080           0
  101922 WT6  5445 TIP3 H2   HT     0.417000        1.0080           0
  101923 WT6  5446 TIP3 OH2  OT    -0.834000       15.9994           0
  101924 WT6  5446 TIP3 H1   HT     0.417000        1.0080           0
  101925 WT6  5446 TIP3 H2   HT     0.417000        1.0080           0
  101926 WT6  5448 TIP3 OH2  OT    -0.834000       15.9994           0
  101927 WT6  5448 TIP3 H1   HT     0.417000        1.0080           0
  101928 WT6  5448 TIP3 H2   HT     0.417000        1.0080           0
  101929 WT6  5451 TIP3 OH2  OT    -0.834000       15.9994           0
  101930 WT6  5451 TIP3 H1   HT     0.417000        1.0080           0
  101931 WT6  5451 TIP3 H2   HT     0.417000        1.0080           0
  101932 WT6  5454 TIP3 OH2  OT    -0.834000       15.9994           0
  101933 WT6  5454 TIP3 H1   HT     0.417000        1.0080           0
  101934 WT6  5454 TIP3 H2   HT     0.417000        1.0080           0
  101935 WT6  5455 TIP3 OH2  OT    -0.834000       15.9994           0
  101936 WT6  5455 TIP3 H1   HT     0.417000        1.0080           0
  101937 WT6  5455 TIP3 H2   HT     0.417000        1.0080           0
  101938 WT6  5456 TIP3 OH2  OT    -0.834000       15.9994           0
  101939 WT6  5456 TIP3 H1   HT     0.417000        1.0080           0
  101940 WT6  5456 TIP3 H2   HT     0.417000        1.0080           0
  101941 WT6  5461 TIP3 OH2  OT    -0.834000       15.9994           0
  101942 WT6  5461 TIP3 H1   HT     0.417000        1.0080           0
  101943 WT6  5461 TIP3 H2   HT     0.417000        1.0080           0
  101944 WT6  5462 TIP3 OH2  OT    -0.834000       15.9994           0
  101945 WT6  5462 TIP3 H1   HT     0.417000        1.0080           0
  101946 WT6  5462 TIP3 H2   HT     0.417000        1.0080           0
  101947 WT6  5463 TIP3 OH2  OT    -0.834000       15.9994           0
  101948 WT6  5463 TIP3 H1   HT     0.417000        1.0080           0
  101949 WT6  5463 TIP3 H2   HT     0.417000        1.0080           0
  101950 WT6  5465 TIP3 OH2  OT    -0.834000       15.9994           0
  101951 WT6  5465 TIP3 H1   HT     0.417000        1.0080           0
  101952 WT6  5465 TIP3 H2   HT     0.417000        1.0080           0
  101953 WT6  5466 TIP3 OH2  OT    -0.834000       15.9994           0
  101954 WT6  5466 TIP3 H1   HT     0.417000        1.0080           0
  101955 WT6  5466 TIP3 H2   HT     0.417000        1.0080           0
  101956 WT6  5468 TIP3 OH2  OT    -0.834000       15.9994           0
  101957 WT6  5468 TIP3 H1   HT     0.417000        1.0080           0
  101958 WT6  5468 TIP3 H2   HT     0.417000        1.0080           0
  101959 WT6  5470 TIP3 OH2  OT    -0.834000       15.9994           0
  101960 WT6  5470 TIP3 H1   HT     0.417000        1.0080           0
  101961 WT6  5470 TIP3 H2   HT     0.417000        1.0080           0
  101962 WT6  5472 TIP3 OH2  OT    -0.834000       15.9994           0
  101963 WT6  5472 TIP3 H1   HT     0.417000        1.0080           0
  101964 WT6  5472 TIP3 H2   HT     0.417000        1.0080           0
  101965 WT6  5473 TIP3 OH2  OT    -0.834000       15.9994           0
  101966 WT6  5473 TIP3 H1   HT     0.417000        1.0080           0
  101967 WT6  5473 TIP3 H2   HT     0.417000        1.0080           0
  101968 WT6  5484 TIP3 OH2  OT    -0.834000       15.9994           0
  101969 WT6  5484 TIP3 H1   HT     0.417000        1.0080           0
  101970 WT6  5484 TIP3 H2   HT     0.417000        1.0080           0
  101971 WT6  5485 TIP3 OH2  OT    -0.834000       15.9994           0
  101972 WT6  5485 TIP3 H1   HT     0.417000        1.0080           0
  101973 WT6  5485 TIP3 H2   HT     0.417000        1.0080           0
  101974 WT6  5487 TIP3 OH2  OT    -0.834000       15.9994           0
  101975 WT6  5487 TIP3 H1   HT     0.417000        1.0080           0
  101976 WT6  5487 TIP3 H2   HT     0.417000        1.0080           0
  101977 WT6  5489 TIP3 OH2  OT    -0.834000       15.9994           0
  101978 WT6  5489 TIP3 H1   HT     0.417000        1.0080           0
  101979 WT6  5489 TIP3 H2   HT     0.417000        1.0080           0
  101980 WT6  5490 TIP3 OH2  OT    -0.834000       15.9994           0
  101981 WT6  5490 TIP3 H1   HT     0.417000        1.0080           0
  101982 WT6  5490 TIP3 H2   HT     0.417000        1.0080           0
  101983 WT6  5493 TIP3 OH2  OT    -0.834000       15.9994           0
  101984 WT6  5493 TIP3 H1   HT     0.417000        1.0080           0
  101985 WT6  5493 TIP3 H2   HT     0.417000        1.0080           0
  101986 WT6  5497 TIP3 OH2  OT    -0.834000       15.9994           0
  101987 WT6  5497 TIP3 H1   HT     0.417000        1.0080           0
  101988 WT6  5497 TIP3 H2   HT     0.417000        1.0080           0
  101989 WT6  5501 TIP3 OH2  OT    -0.834000       15.9994           0
  101990 WT6  5501 TIP3 H1   HT     0.417000        1.0080           0
  101991 WT6  5501 TIP3 H2   HT     0.417000        1.0080           0
  101992 WT6  5504 TIP3 OH2  OT    -0.834000       15.9994           0
  101993 WT6  5504 TIP3 H1   HT     0.417000        1.0080           0
  101994 WT6  5504 TIP3 H2   HT     0.417000        1.0080           0
  101995 WT6  5507 TIP3 OH2  OT    -0.834000       15.9994           0
  101996 WT6  5507 TIP3 H1   HT     0.417000        1.0080           0
  101997 WT6  5507 TIP3 H2   HT     0.417000        1.0080           0
  101998 WT6  5508 TIP3 OH2  OT    -0.834000       15.9994           0
  101999 WT6  5508 TIP3 H1   HT     0.417000        1.0080           0
  102000 WT6  5508 TIP3 H2   HT     0.417000        1.0080           0
  102001 WT6  5509 TIP3 OH2  OT    -0.834000       15.9994           0
  102002 WT6  5509 TIP3 H1   HT     0.417000        1.0080           0
  102003 WT6  5509 TIP3 H2   HT     0.417000        1.0080           0
  102004 WT6  5510 TIP3 OH2  OT    -0.834000       15.9994           0
  102005 WT6  5510 TIP3 H1   HT     0.417000        1.0080           0
  102006 WT6  5510 TIP3 H2   HT     0.417000        1.0080           0
  102007 WT6  5511 TIP3 OH2  OT    -0.834000       15.9994           0
  102008 WT6  5511 TIP3 H1   HT     0.417000        1.0080           0
  102009 WT6  5511 TIP3 H2   HT     0.417000        1.0080           0
  102010 WT6  5514 TIP3 OH2  OT    -0.834000       15.9994           0
  102011 WT6  5514 TIP3 H1   HT     0.417000        1.0080           0
  102012 WT6  5514 TIP3 H2   HT     0.417000        1.0080           0
  102013 WT6  5522 TIP3 OH2  OT    -0.834000       15.9994           0
  102014 WT6  5522 TIP3 H1   HT     0.417000        1.0080           0
  102015 WT6  5522 TIP3 H2   HT     0.417000        1.0080           0
  102016 WT6  5528 TIP3 OH2  OT    -0.834000       15.9994           0
  102017 WT6  5528 TIP3 H1   HT     0.417000        1.0080           0
  102018 WT6  5528 TIP3 H2   HT     0.417000        1.0080           0
  102019 WT6  5530 TIP3 OH2  OT    -0.834000       15.9994           0
  102020 WT6  5530 TIP3 H1   HT     0.417000        1.0080           0
  102021 WT6  5530 TIP3 H2   HT     0.417000        1.0080           0
  102022 WT6  5531 TIP3 OH2  OT    -0.834000       15.9994           0
  102023 WT6  5531 TIP3 H1   HT     0.417000        1.0080           0
  102024 WT6  5531 TIP3 H2   HT     0.417000        1.0080           0
  102025 WT6  5532 TIP3 OH2  OT    -0.834000       15.9994           0
  102026 WT6  5532 TIP3 H1   HT     0.417000        1.0080           0
  102027 WT6  5532 TIP3 H2   HT     0.417000        1.0080           0
  102028 WT6  5535 TIP3 OH2  OT    -0.834000       15.9994           0
  102029 WT6  5535 TIP3 H1   HT     0.417000        1.0080           0
  102030 WT6  5535 TIP3 H2   HT     0.417000        1.0080           0
  102031 WT6  5537 TIP3 OH2  OT    -0.834000       15.9994           0
  102032 WT6  5537 TIP3 H1   HT     0.417000        1.0080           0
  102033 WT6  5537 TIP3 H2   HT     0.417000        1.0080           0
  102034 WT6  5545 TIP3 OH2  OT    -0.834000       15.9994           0
  102035 WT6  5545 TIP3 H1   HT     0.417000        1.0080           0
  102036 WT6  5545 TIP3 H2   HT     0.417000        1.0080           0
  102037 WT6  5548 TIP3 OH2  OT    -0.834000       15.9994           0
  102038 WT6  5548 TIP3 H1   HT     0.417000        1.0080           0
  102039 WT6  5548 TIP3 H2   HT     0.417000        1.0080           0
  102040 WT6  5549 TIP3 OH2  OT    -0.834000       15.9994           0
  102041 WT6  5549 TIP3 H1   HT     0.417000        1.0080           0
  102042 WT6  5549 TIP3 H2   HT     0.417000        1.0080           0
  102043 WT6  5550 TIP3 OH2  OT    -0.834000       15.9994           0
  102044 WT6  5550 TIP3 H1   HT     0.417000        1.0080           0
  102045 WT6  5550 TIP3 H2   HT     0.417000        1.0080           0
  102046 WT6  5551 TIP3 OH2  OT    -0.834000       15.9994           0
  102047 WT6  5551 TIP3 H1   HT     0.417000        1.0080           0
  102048 WT6  5551 TIP3 H2   HT     0.417000        1.0080           0
  102049 WT6  5552 TIP3 OH2  OT    -0.834000       15.9994           0
  102050 WT6  5552 TIP3 H1   HT     0.417000        1.0080           0
  102051 WT6  5552 TIP3 H2   HT     0.417000        1.0080           0
  102052 WT6  5554 TIP3 OH2  OT    -0.834000       15.9994           0
  102053 WT6  5554 TIP3 H1   HT     0.417000        1.0080           0
  102054 WT6  5554 TIP3 H2   HT     0.417000        1.0080           0
  102055 WT6  5555 TIP3 OH2  OT    -0.834000       15.9994           0
  102056 WT6  5555 TIP3 H1   HT     0.417000        1.0080           0
  102057 WT6  5555 TIP3 H2   HT     0.417000        1.0080           0
  102058 WT6  5557 TIP3 OH2  OT    -0.834000       15.9994           0
  102059 WT6  5557 TIP3 H1   HT     0.417000        1.0080           0
  102060 WT6  5557 TIP3 H2   HT     0.417000        1.0080           0
  102061 WT6  5558 TIP3 OH2  OT    -0.834000       15.9994           0
  102062 WT6  5558 TIP3 H1   HT     0.417000        1.0080           0
  102063 WT6  5558 TIP3 H2   HT     0.417000        1.0080           0
  102064 WT6  5560 TIP3 OH2  OT    -0.834000       15.9994           0
  102065 WT6  5560 TIP3 H1   HT     0.417000        1.0080           0
  102066 WT6  5560 TIP3 H2   HT     0.417000        1.0080           0
  102067 WT6  5566 TIP3 OH2  OT    -0.834000       15.9994           0
  102068 WT6  5566 TIP3 H1   HT     0.417000        1.0080           0
  102069 WT6  5566 TIP3 H2   HT     0.417000        1.0080           0
  102070 WT6  5567 TIP3 OH2  OT    -0.834000       15.9994           0
  102071 WT6  5567 TIP3 H1   HT     0.417000        1.0080           0
  102072 WT6  5567 TIP3 H2   HT     0.417000        1.0080           0
  102073 WT6  5568 TIP3 OH2  OT    -0.834000       15.9994           0
  102074 WT6  5568 TIP3 H1   HT     0.417000        1.0080           0
  102075 WT6  5568 TIP3 H2   HT     0.417000        1.0080           0
  102076 WT6  5569 TIP3 OH2  OT    -0.834000       15.9994           0
  102077 WT6  5569 TIP3 H1   HT     0.417000        1.0080           0
  102078 WT6  5569 TIP3 H2   HT     0.417000        1.0080           0
  102079 WT6  5570 TIP3 OH2  OT    -0.834000       15.9994           0
  102080 WT6  5570 TIP3 H1   HT     0.417000        1.0080           0
  102081 WT6  5570 TIP3 H2   HT     0.417000        1.0080           0
  102082 WT6  5571 TIP3 OH2  OT    -0.834000       15.9994           0
  102083 WT6  5571 TIP3 H1   HT     0.417000        1.0080           0
  102084 WT6  5571 TIP3 H2   HT     0.417000        1.0080           0
  102085 WT6  5572 TIP3 OH2  OT    -0.834000       15.9994           0
  102086 WT6  5572 TIP3 H1   HT     0.417000        1.0080           0
  102087 WT6  5572 TIP3 H2   HT     0.417000        1.0080           0
  102088 WT6  5574 TIP3 OH2  OT    -0.834000       15.9994           0
  102089 WT6  5574 TIP3 H1   HT     0.417000        1.0080           0
  102090 WT6  5574 TIP3 H2   HT     0.417000        1.0080           0
  102091 WT6  5575 TIP3 OH2  OT    -0.834000       15.9994           0
  102092 WT6  5575 TIP3 H1   HT     0.417000        1.0080           0
  102093 WT6  5575 TIP3 H2   HT     0.417000        1.0080           0
  102094 WT6  5590 TIP3 OH2  OT    -0.834000       15.9994           0
  102095 WT6  5590 TIP3 H1   HT     0.417000        1.0080           0
  102096 WT6  5590 TIP3 H2   HT     0.417000        1.0080           0
  102097 WT6  5591 TIP3 OH2  OT    -0.834000       15.9994           0
  102098 WT6  5591 TIP3 H1   HT     0.417000        1.0080           0
  102099 WT6  5591 TIP3 H2   HT     0.417000        1.0080           0
  102100 WT6  5592 TIP3 OH2  OT    -0.834000       15.9994           0
  102101 WT6  5592 TIP3 H1   HT     0.417000        1.0080           0
  102102 WT6  5592 TIP3 H2   HT     0.417000        1.0080           0
  102103 WT6  5593 TIP3 OH2  OT    -0.834000       15.9994           0
  102104 WT6  5593 TIP3 H1   HT     0.417000        1.0080           0
  102105 WT6  5593 TIP3 H2   HT     0.417000        1.0080           0
  102106 WT6  5594 TIP3 OH2  OT    -0.834000       15.9994           0
  102107 WT6  5594 TIP3 H1   HT     0.417000        1.0080           0
  102108 WT6  5594 TIP3 H2   HT     0.417000        1.0080           0
  102109 WT6  5595 TIP3 OH2  OT    -0.834000       15.9994           0
  102110 WT6  5595 TIP3 H1   HT     0.417000        1.0080           0
  102111 WT6  5595 TIP3 H2   HT     0.417000        1.0080           0
  102112 WT6  5597 TIP3 OH2  OT    -0.834000       15.9994           0
  102113 WT6  5597 TIP3 H1   HT     0.417000        1.0080           0
  102114 WT6  5597 TIP3 H2   HT     0.417000        1.0080           0
  102115 WT6  5600 TIP3 OH2  OT    -0.834000       15.9994           0
  102116 WT6  5600 TIP3 H1   HT     0.417000        1.0080           0
  102117 WT6  5600 TIP3 H2   HT     0.417000        1.0080           0
  102118 WT6  5604 TIP3 OH2  OT    -0.834000       15.9994           0
  102119 WT6  5604 TIP3 H1   HT     0.417000        1.0080           0
  102120 WT6  5604 TIP3 H2   HT     0.417000        1.0080           0
  102121 WT6  5606 TIP3 OH2  OT    -0.834000       15.9994           0
  102122 WT6  5606 TIP3 H1   HT     0.417000        1.0080           0
  102123 WT6  5606 TIP3 H2   HT     0.417000        1.0080           0
  102124 WT6  5607 TIP3 OH2  OT    -0.834000       15.9994           0
  102125 WT6  5607 TIP3 H1   HT     0.417000        1.0080           0
  102126 WT6  5607 TIP3 H2   HT     0.417000        1.0080           0
  102127 WT6  5608 TIP3 OH2  OT    -0.834000       15.9994           0
  102128 WT6  5608 TIP3 H1   HT     0.417000        1.0080           0
  102129 WT6  5608 TIP3 H2   HT     0.417000        1.0080           0
  102130 WT6  5609 TIP3 OH2  OT    -0.834000       15.9994           0
  102131 WT6  5609 TIP3 H1   HT     0.417000        1.0080           0
  102132 WT6  5609 TIP3 H2   HT     0.417000        1.0080           0
  102133 WT6  5610 TIP3 OH2  OT    -0.834000       15.9994           0
  102134 WT6  5610 TIP3 H1   HT     0.417000        1.0080           0
  102135 WT6  5610 TIP3 H2   HT     0.417000        1.0080           0
  102136 WT6  5611 TIP3 OH2  OT    -0.834000       15.9994           0
  102137 WT6  5611 TIP3 H1   HT     0.417000        1.0080           0
  102138 WT6  5611 TIP3 H2   HT     0.417000        1.0080           0
  102139 WT6  5613 TIP3 OH2  OT    -0.834000       15.9994           0
  102140 WT6  5613 TIP3 H1   HT     0.417000        1.0080           0
  102141 WT6  5613 TIP3 H2   HT     0.417000        1.0080           0
  102142 WT6  5614 TIP3 OH2  OT    -0.834000       15.9994           0
  102143 WT6  5614 TIP3 H1   HT     0.417000        1.0080           0
  102144 WT6  5614 TIP3 H2   HT     0.417000        1.0080           0
  102145 WT6  5616 TIP3 OH2  OT    -0.834000       15.9994           0
  102146 WT6  5616 TIP3 H1   HT     0.417000        1.0080           0
  102147 WT6  5616 TIP3 H2   HT     0.417000        1.0080           0
  102148 WT6  5617 TIP3 OH2  OT    -0.834000       15.9994           0
  102149 WT6  5617 TIP3 H1   HT     0.417000        1.0080           0
  102150 WT6  5617 TIP3 H2   HT     0.417000        1.0080           0
  102151 WT6  5619 TIP3 OH2  OT    -0.834000       15.9994           0
  102152 WT6  5619 TIP3 H1   HT     0.417000        1.0080           0
  102153 WT6  5619 TIP3 H2   HT     0.417000        1.0080           0
  102154 WT6  5620 TIP3 OH2  OT    -0.834000       15.9994           0
  102155 WT6  5620 TIP3 H1   HT     0.417000        1.0080           0
  102156 WT6  5620 TIP3 H2   HT     0.417000        1.0080           0
  102157 WT6  5621 TIP3 OH2  OT    -0.834000       15.9994           0
  102158 WT6  5621 TIP3 H1   HT     0.417000        1.0080           0
  102159 WT6  5621 TIP3 H2   HT     0.417000        1.0080           0
  102160 WT6  5623 TIP3 OH2  OT    -0.834000       15.9994           0
  102161 WT6  5623 TIP3 H1   HT     0.417000        1.0080           0
  102162 WT6  5623 TIP3 H2   HT     0.417000        1.0080           0
  102163 WT6  5628 TIP3 OH2  OT    -0.834000       15.9994           0
  102164 WT6  5628 TIP3 H1   HT     0.417000        1.0080           0
  102165 WT6  5628 TIP3 H2   HT     0.417000        1.0080           0
  102166 WT6  5631 TIP3 OH2  OT    -0.834000       15.9994           0
  102167 WT6  5631 TIP3 H1   HT     0.417000        1.0080           0
  102168 WT6  5631 TIP3 H2   HT     0.417000        1.0080           0
  102169 WT6  5633 TIP3 OH2  OT    -0.834000       15.9994           0
  102170 WT6  5633 TIP3 H1   HT     0.417000        1.0080           0
  102171 WT6  5633 TIP3 H2   HT     0.417000        1.0080           0
  102172 WT6  5634 TIP3 OH2  OT    -0.834000       15.9994           0
  102173 WT6  5634 TIP3 H1   HT     0.417000        1.0080           0
  102174 WT6  5634 TIP3 H2   HT     0.417000        1.0080           0
  102175 WT6  5635 TIP3 OH2  OT    -0.834000       15.9994           0
  102176 WT6  5635 TIP3 H1   HT     0.417000        1.0080           0
  102177 WT6  5635 TIP3 H2   HT     0.417000        1.0080           0
  102178 WT6  5636 TIP3 OH2  OT    -0.834000       15.9994           0
  102179 WT6  5636 TIP3 H1   HT     0.417000        1.0080           0
  102180 WT6  5636 TIP3 H2   HT     0.417000        1.0080           0
  102181 WT6  5638 TIP3 OH2  OT    -0.834000       15.9994           0
  102182 WT6  5638 TIP3 H1   HT     0.417000        1.0080           0
  102183 WT6  5638 TIP3 H2   HT     0.417000        1.0080           0
  102184 WT6  5639 TIP3 OH2  OT    -0.834000       15.9994           0
  102185 WT6  5639 TIP3 H1   HT     0.417000        1.0080           0
  102186 WT6  5639 TIP3 H2   HT     0.417000        1.0080           0
  102187 WT6  5641 TIP3 OH2  OT    -0.834000       15.9994           0
  102188 WT6  5641 TIP3 H1   HT     0.417000        1.0080           0
  102189 WT6  5641 TIP3 H2   HT     0.417000        1.0080           0
  102190 WT6  5643 TIP3 OH2  OT    -0.834000       15.9994           0
  102191 WT6  5643 TIP3 H1   HT     0.417000        1.0080           0
  102192 WT6  5643 TIP3 H2   HT     0.417000        1.0080           0
  102193 WT6  5647 TIP3 OH2  OT    -0.834000       15.9994           0
  102194 WT6  5647 TIP3 H1   HT     0.417000        1.0080           0
  102195 WT6  5647 TIP3 H2   HT     0.417000        1.0080           0
  102196 WT6  5653 TIP3 OH2  OT    -0.834000       15.9994           0
  102197 WT6  5653 TIP3 H1   HT     0.417000        1.0080           0
  102198 WT6  5653 TIP3 H2   HT     0.417000        1.0080           0
  102199 WT6  5655 TIP3 OH2  OT    -0.834000       15.9994           0
  102200 WT6  5655 TIP3 H1   HT     0.417000        1.0080           0
  102201 WT6  5655 TIP3 H2   HT     0.417000        1.0080           0
  102202 WT6  5656 TIP3 OH2  OT    -0.834000       15.9994           0
  102203 WT6  5656 TIP3 H1   HT     0.417000        1.0080           0
  102204 WT6  5656 TIP3 H2   HT     0.417000        1.0080           0
  102205 WT6  5659 TIP3 OH2  OT    -0.834000       15.9994           0
  102206 WT6  5659 TIP3 H1   HT     0.417000        1.0080           0
  102207 WT6  5659 TIP3 H2   HT     0.417000        1.0080           0
  102208 WT6  5660 TIP3 OH2  OT    -0.834000       15.9994           0
  102209 WT6  5660 TIP3 H1   HT     0.417000        1.0080           0
  102210 WT6  5660 TIP3 H2   HT     0.417000        1.0080           0
  102211 WT6  5661 TIP3 OH2  OT    -0.834000       15.9994           0
  102212 WT6  5661 TIP3 H1   HT     0.417000        1.0080           0
  102213 WT6  5661 TIP3 H2   HT     0.417000        1.0080           0
  102214 WT6  5662 TIP3 OH2  OT    -0.834000       15.9994           0
  102215 WT6  5662 TIP3 H1   HT     0.417000        1.0080           0
  102216 WT6  5662 TIP3 H2   HT     0.417000        1.0080           0
  102217 WT6  5663 TIP3 OH2  OT    -0.834000       15.9994           0
  102218 WT6  5663 TIP3 H1   HT     0.417000        1.0080           0
  102219 WT6  5663 TIP3 H2   HT     0.417000        1.0080           0
  102220 WT6  5665 TIP3 OH2  OT    -0.834000       15.9994           0
  102221 WT6  5665 TIP3 H1   HT     0.417000        1.0080           0
  102222 WT6  5665 TIP3 H2   HT     0.417000        1.0080           0
  102223 WT6  5667 TIP3 OH2  OT    -0.834000       15.9994           0
  102224 WT6  5667 TIP3 H1   HT     0.417000        1.0080           0
  102225 WT6  5667 TIP3 H2   HT     0.417000        1.0080           0
  102226 WT6  5672 TIP3 OH2  OT    -0.834000       15.9994           0
  102227 WT6  5672 TIP3 H1   HT     0.417000        1.0080           0
  102228 WT6  5672 TIP3 H2   HT     0.417000        1.0080           0
  102229 WT6  5673 TIP3 OH2  OT    -0.834000       15.9994           0
  102230 WT6  5673 TIP3 H1   HT     0.417000        1.0080           0
  102231 WT6  5673 TIP3 H2   HT     0.417000        1.0080           0
  102232 WT6  5674 TIP3 OH2  OT    -0.834000       15.9994           0
  102233 WT6  5674 TIP3 H1   HT     0.417000        1.0080           0
  102234 WT6  5674 TIP3 H2   HT     0.417000        1.0080           0
  102235 WT6  5675 TIP3 OH2  OT    -0.834000       15.9994           0
  102236 WT6  5675 TIP3 H1   HT     0.417000        1.0080           0
  102237 WT6  5675 TIP3 H2   HT     0.417000        1.0080           0
  102238 WT6  5676 TIP3 OH2  OT    -0.834000       15.9994           0
  102239 WT6  5676 TIP3 H1   HT     0.417000        1.0080           0
  102240 WT6  5676 TIP3 H2   HT     0.417000        1.0080           0
  102241 WT6  5679 TIP3 OH2  OT    -0.834000       15.9994           0
  102242 WT6  5679 TIP3 H1   HT     0.417000        1.0080           0
  102243 WT6  5679 TIP3 H2   HT     0.417000        1.0080           0
  102244 WT6  5681 TIP3 OH2  OT    -0.834000       15.9994           0
  102245 WT6  5681 TIP3 H1   HT     0.417000        1.0080           0
  102246 WT6  5681 TIP3 H2   HT     0.417000        1.0080           0
  102247 WT6  5684 TIP3 OH2  OT    -0.834000       15.9994           0
  102248 WT6  5684 TIP3 H1   HT     0.417000        1.0080           0
  102249 WT6  5684 TIP3 H2   HT     0.417000        1.0080           0
  102250 WT6  5685 TIP3 OH2  OT    -0.834000       15.9994           0
  102251 WT6  5685 TIP3 H1   HT     0.417000        1.0080           0
  102252 WT6  5685 TIP3 H2   HT     0.417000        1.0080           0
  102253 WT6  5686 TIP3 OH2  OT    -0.834000       15.9994           0
  102254 WT6  5686 TIP3 H1   HT     0.417000        1.0080           0
  102255 WT6  5686 TIP3 H2   HT     0.417000        1.0080           0
  102256 WT6  5687 TIP3 OH2  OT    -0.834000       15.9994           0
  102257 WT6  5687 TIP3 H1   HT     0.417000        1.0080           0
  102258 WT6  5687 TIP3 H2   HT     0.417000        1.0080           0
  102259 WT6  5690 TIP3 OH2  OT    -0.834000       15.9994           0
  102260 WT6  5690 TIP3 H1   HT     0.417000        1.0080           0
  102261 WT6  5690 TIP3 H2   HT     0.417000        1.0080           0
  102262 WT6  5693 TIP3 OH2  OT    -0.834000       15.9994           0
  102263 WT6  5693 TIP3 H1   HT     0.417000        1.0080           0
  102264 WT6  5693 TIP3 H2   HT     0.417000        1.0080           0
  102265 WT6  5694 TIP3 OH2  OT    -0.834000       15.9994           0
  102266 WT6  5694 TIP3 H1   HT     0.417000        1.0080           0
  102267 WT6  5694 TIP3 H2   HT     0.417000        1.0080           0
  102268 WT6  5695 TIP3 OH2  OT    -0.834000       15.9994           0
  102269 WT6  5695 TIP3 H1   HT     0.417000        1.0080           0
  102270 WT6  5695 TIP3 H2   HT     0.417000        1.0080           0
  102271 WT6  5696 TIP3 OH2  OT    -0.834000       15.9994           0
  102272 WT6  5696 TIP3 H1   HT     0.417000        1.0080           0
  102273 WT6  5696 TIP3 H2   HT     0.417000        1.0080           0
  102274 WT6  5698 TIP3 OH2  OT    -0.834000       15.9994           0
  102275 WT6  5698 TIP3 H1   HT     0.417000        1.0080           0
  102276 WT6  5698 TIP3 H2   HT     0.417000        1.0080           0
  102277 WT6  5700 TIP3 OH2  OT    -0.834000       15.9994           0
  102278 WT6  5700 TIP3 H1   HT     0.417000        1.0080           0
  102279 WT6  5700 TIP3 H2   HT     0.417000        1.0080           0
  102280 WT6  5705 TIP3 OH2  OT    -0.834000       15.9994           0
  102281 WT6  5705 TIP3 H1   HT     0.417000        1.0080           0
  102282 WT6  5705 TIP3 H2   HT     0.417000        1.0080           0
  102283 WT6  5707 TIP3 OH2  OT    -0.834000       15.9994           0
  102284 WT6  5707 TIP3 H1   HT     0.417000        1.0080           0
  102285 WT6  5707 TIP3 H2   HT     0.417000        1.0080           0
  102286 WT6  5710 TIP3 OH2  OT    -0.834000       15.9994           0
  102287 WT6  5710 TIP3 H1   HT     0.417000        1.0080           0
  102288 WT6  5710 TIP3 H2   HT     0.417000        1.0080           0
  102289 WT6  5713 TIP3 OH2  OT    -0.834000       15.9994           0
  102290 WT6  5713 TIP3 H1   HT     0.417000        1.0080           0
  102291 WT6  5713 TIP3 H2   HT     0.417000        1.0080           0
  102292 WT6  5714 TIP3 OH2  OT    -0.834000       15.9994           0
  102293 WT6  5714 TIP3 H1   HT     0.417000        1.0080           0
  102294 WT6  5714 TIP3 H2   HT     0.417000        1.0080           0
  102295 WT6  5716 TIP3 OH2  OT    -0.834000       15.9994           0
  102296 WT6  5716 TIP3 H1   HT     0.417000        1.0080           0
  102297 WT6  5716 TIP3 H2   HT     0.417000        1.0080           0
  102298 WT6  5717 TIP3 OH2  OT    -0.834000       15.9994           0
  102299 WT6  5717 TIP3 H1   HT     0.417000        1.0080           0
  102300 WT6  5717 TIP3 H2   HT     0.417000        1.0080           0
  102301 WT6  5718 TIP3 OH2  OT    -0.834000       15.9994           0
  102302 WT6  5718 TIP3 H1   HT     0.417000        1.0080           0
  102303 WT6  5718 TIP3 H2   HT     0.417000        1.0080           0
  102304 WT6  5719 TIP3 OH2  OT    -0.834000       15.9994           0
  102305 WT6  5719 TIP3 H1   HT     0.417000        1.0080           0
  102306 WT6  5719 TIP3 H2   HT     0.417000        1.0080           0
  102307 WT6  5720 TIP3 OH2  OT    -0.834000       15.9994           0
  102308 WT6  5720 TIP3 H1   HT     0.417000        1.0080           0
  102309 WT6  5720 TIP3 H2   HT     0.417000        1.0080           0
  102310 WT6  5721 TIP3 OH2  OT    -0.834000       15.9994           0
  102311 WT6  5721 TIP3 H1   HT     0.417000        1.0080           0
  102312 WT6  5721 TIP3 H2   HT     0.417000        1.0080           0
  102313 WT6  5723 TIP3 OH2  OT    -0.834000       15.9994           0
  102314 WT6  5723 TIP3 H1   HT     0.417000        1.0080           0
  102315 WT6  5723 TIP3 H2   HT     0.417000        1.0080           0
  102316 WT6  5725 TIP3 OH2  OT    -0.834000       15.9994           0
  102317 WT6  5725 TIP3 H1   HT     0.417000        1.0080           0
  102318 WT6  5725 TIP3 H2   HT     0.417000        1.0080           0
  102319 WT6  5730 TIP3 OH2  OT    -0.834000       15.9994           0
  102320 WT6  5730 TIP3 H1   HT     0.417000        1.0080           0
  102321 WT6  5730 TIP3 H2   HT     0.417000        1.0080           0
  102322 WT6  5734 TIP3 OH2  OT    -0.834000       15.9994           0
  102323 WT6  5734 TIP3 H1   HT     0.417000        1.0080           0
  102324 WT6  5734 TIP3 H2   HT     0.417000        1.0080           0
  102325 WT6  5736 TIP3 OH2  OT    -0.834000       15.9994           0
  102326 WT6  5736 TIP3 H1   HT     0.417000        1.0080           0
  102327 WT6  5736 TIP3 H2   HT     0.417000        1.0080           0
  102328 WT6  5740 TIP3 OH2  OT    -0.834000       15.9994           0
  102329 WT6  5740 TIP3 H1   HT     0.417000        1.0080           0
  102330 WT6  5740 TIP3 H2   HT     0.417000        1.0080           0
  102331 WT6  5741 TIP3 OH2  OT    -0.834000       15.9994           0
  102332 WT6  5741 TIP3 H1   HT     0.417000        1.0080           0
  102333 WT6  5741 TIP3 H2   HT     0.417000        1.0080           0
  102334 WT6  5743 TIP3 OH2  OT    -0.834000       15.9994           0
  102335 WT6  5743 TIP3 H1   HT     0.417000        1.0080           0
  102336 WT6  5743 TIP3 H2   HT     0.417000        1.0080           0
  102337 WT6  5745 TIP3 OH2  OT    -0.834000       15.9994           0
  102338 WT6  5745 TIP3 H1   HT     0.417000        1.0080           0
  102339 WT6  5745 TIP3 H2   HT     0.417000        1.0080           0
  102340 WT6  5748 TIP3 OH2  OT    -0.834000       15.9994           0
  102341 WT6  5748 TIP3 H1   HT     0.417000        1.0080           0
  102342 WT6  5748 TIP3 H2   HT     0.417000        1.0080           0
  102343 WT6  5755 TIP3 OH2  OT    -0.834000       15.9994           0
  102344 WT6  5755 TIP3 H1   HT     0.417000        1.0080           0
  102345 WT6  5755 TIP3 H2   HT     0.417000        1.0080           0
  102346 WT6  5756 TIP3 OH2  OT    -0.834000       15.9994           0
  102347 WT6  5756 TIP3 H1   HT     0.417000        1.0080           0
  102348 WT6  5756 TIP3 H2   HT     0.417000        1.0080           0
  102349 WT6  5758 TIP3 OH2  OT    -0.834000       15.9994           0
  102350 WT6  5758 TIP3 H1   HT     0.417000        1.0080           0
  102351 WT6  5758 TIP3 H2   HT     0.417000        1.0080           0
  102352 WT6  5759 TIP3 OH2  OT    -0.834000       15.9994           0
  102353 WT6  5759 TIP3 H1   HT     0.417000        1.0080           0
  102354 WT6  5759 TIP3 H2   HT     0.417000        1.0080           0
  102355 WT6  5760 TIP3 OH2  OT    -0.834000       15.9994           0
  102356 WT6  5760 TIP3 H1   HT     0.417000        1.0080           0
  102357 WT6  5760 TIP3 H2   HT     0.417000        1.0080           0
  102358 WT6  5761 TIP3 OH2  OT    -0.834000       15.9994           0
  102359 WT6  5761 TIP3 H1   HT     0.417000        1.0080           0
  102360 WT6  5761 TIP3 H2   HT     0.417000        1.0080           0
  102361 WT6  5762 TIP3 OH2  OT    -0.834000       15.9994           0
  102362 WT6  5762 TIP3 H1   HT     0.417000        1.0080           0
  102363 WT6  5762 TIP3 H2   HT     0.417000        1.0080           0
  102364 WT6  5765 TIP3 OH2  OT    -0.834000       15.9994           0
  102365 WT6  5765 TIP3 H1   HT     0.417000        1.0080           0
  102366 WT6  5765 TIP3 H2   HT     0.417000        1.0080           0
  102367 WT6  5766 TIP3 OH2  OT    -0.834000       15.9994           0
  102368 WT6  5766 TIP3 H1   HT     0.417000        1.0080           0
  102369 WT6  5766 TIP3 H2   HT     0.417000        1.0080           0
  102370 WT6  5767 TIP3 OH2  OT    -0.834000       15.9994           0
  102371 WT6  5767 TIP3 H1   HT     0.417000        1.0080           0
  102372 WT6  5767 TIP3 H2   HT     0.417000        1.0080           0
  102373 WT6  5768 TIP3 OH2  OT    -0.834000       15.9994           0
  102374 WT6  5768 TIP3 H1   HT     0.417000        1.0080           0
  102375 WT6  5768 TIP3 H2   HT     0.417000        1.0080           0
  102376 WT6  5770 TIP3 OH2  OT    -0.834000       15.9994           0
  102377 WT6  5770 TIP3 H1   HT     0.417000        1.0080           0
  102378 WT6  5770 TIP3 H2   HT     0.417000        1.0080           0
  102379 WT6  5777 TIP3 OH2  OT    -0.834000       15.9994           0
  102380 WT6  5777 TIP3 H1   HT     0.417000        1.0080           0
  102381 WT6  5777 TIP3 H2   HT     0.417000        1.0080           0
  102382 WT6  5780 TIP3 OH2  OT    -0.834000       15.9994           0
  102383 WT6  5780 TIP3 H1   HT     0.417000        1.0080           0
  102384 WT6  5780 TIP3 H2   HT     0.417000        1.0080           0
  102385 WT6  5782 TIP3 OH2  OT    -0.834000       15.9994           0
  102386 WT6  5782 TIP3 H1   HT     0.417000        1.0080           0
  102387 WT6  5782 TIP3 H2   HT     0.417000        1.0080           0
  102388 WT6  5783 TIP3 OH2  OT    -0.834000       15.9994           0
  102389 WT6  5783 TIP3 H1   HT     0.417000        1.0080           0
  102390 WT6  5783 TIP3 H2   HT     0.417000        1.0080           0
  102391 WT6  5784 TIP3 OH2  OT    -0.834000       15.9994           0
  102392 WT6  5784 TIP3 H1   HT     0.417000        1.0080           0
  102393 WT6  5784 TIP3 H2   HT     0.417000        1.0080           0
  102394 WT6  5785 TIP3 OH2  OT    -0.834000       15.9994           0
  102395 WT6  5785 TIP3 H1   HT     0.417000        1.0080           0
  102396 WT6  5785 TIP3 H2   HT     0.417000        1.0080           0
  102397 WT6  5786 TIP3 OH2  OT    -0.834000       15.9994           0
  102398 WT6  5786 TIP3 H1   HT     0.417000        1.0080           0
  102399 WT6  5786 TIP3 H2   HT     0.417000        1.0080           0
  102400 WT6  5787 TIP3 OH2  OT    -0.834000       15.9994           0
  102401 WT6  5787 TIP3 H1   HT     0.417000        1.0080           0
  102402 WT6  5787 TIP3 H2   HT     0.417000        1.0080           0
  102403 WT6  5788 TIP3 OH2  OT    -0.834000       15.9994           0
  102404 WT6  5788 TIP3 H1   HT     0.417000        1.0080           0
  102405 WT6  5788 TIP3 H2   HT     0.417000        1.0080           0
  102406 WT6  5791 TIP3 OH2  OT    -0.834000       15.9994           0
  102407 WT6  5791 TIP3 H1   HT     0.417000        1.0080           0
  102408 WT6  5791 TIP3 H2   HT     0.417000        1.0080           0
  102409 WT6  5795 TIP3 OH2  OT    -0.834000       15.9994           0
  102410 WT6  5795 TIP3 H1   HT     0.417000        1.0080           0
  102411 WT6  5795 TIP3 H2   HT     0.417000        1.0080           0
  102412 WT6  5797 TIP3 OH2  OT    -0.834000       15.9994           0
  102413 WT6  5797 TIP3 H1   HT     0.417000        1.0080           0
  102414 WT6  5797 TIP3 H2   HT     0.417000        1.0080           0
  102415 WT6  5799 TIP3 OH2  OT    -0.834000       15.9994           0
  102416 WT6  5799 TIP3 H1   HT     0.417000        1.0080           0
  102417 WT6  5799 TIP3 H2   HT     0.417000        1.0080           0
  102418 WT6  5803 TIP3 OH2  OT    -0.834000       15.9994           0
  102419 WT6  5803 TIP3 H1   HT     0.417000        1.0080           0
  102420 WT6  5803 TIP3 H2   HT     0.417000        1.0080           0
  102421 WT6  5804 TIP3 OH2  OT    -0.834000       15.9994           0
  102422 WT6  5804 TIP3 H1   HT     0.417000        1.0080           0
  102423 WT6  5804 TIP3 H2   HT     0.417000        1.0080           0
  102424 WT6  5805 TIP3 OH2  OT    -0.834000       15.9994           0
  102425 WT6  5805 TIP3 H1   HT     0.417000        1.0080           0
  102426 WT6  5805 TIP3 H2   HT     0.417000        1.0080           0
  102427 WT6  5806 TIP3 OH2  OT    -0.834000       15.9994           0
  102428 WT6  5806 TIP3 H1   HT     0.417000        1.0080           0
  102429 WT6  5806 TIP3 H2   HT     0.417000        1.0080           0
  102430 WT6  5807 TIP3 OH2  OT    -0.834000       15.9994           0
  102431 WT6  5807 TIP3 H1   HT     0.417000        1.0080           0
  102432 WT6  5807 TIP3 H2   HT     0.417000        1.0080           0
  102433 WT6  5808 TIP3 OH2  OT    -0.834000       15.9994           0
  102434 WT6  5808 TIP3 H1   HT     0.417000        1.0080           0
  102435 WT6  5808 TIP3 H2   HT     0.417000        1.0080           0
  102436 WT6  5812 TIP3 OH2  OT    -0.834000       15.9994           0
  102437 WT6  5812 TIP3 H1   HT     0.417000        1.0080           0
  102438 WT6  5812 TIP3 H2   HT     0.417000        1.0080           0
  102439 WT6  5818 TIP3 OH2  OT    -0.834000       15.9994           0
  102440 WT6  5818 TIP3 H1   HT     0.417000        1.0080           0
  102441 WT6  5818 TIP3 H2   HT     0.417000        1.0080           0
  102442 WT6  5820 TIP3 OH2  OT    -0.834000       15.9994           0
  102443 WT6  5820 TIP3 H1   HT     0.417000        1.0080           0
  102444 WT6  5820 TIP3 H2   HT     0.417000        1.0080           0
  102445 WT6  5821 TIP3 OH2  OT    -0.834000       15.9994           0
  102446 WT6  5821 TIP3 H1   HT     0.417000        1.0080           0
  102447 WT6  5821 TIP3 H2   HT     0.417000        1.0080           0
  102448 WT6  5822 TIP3 OH2  OT    -0.834000       15.9994           0
  102449 WT6  5822 TIP3 H1   HT     0.417000        1.0080           0
  102450 WT6  5822 TIP3 H2   HT     0.417000        1.0080           0
  102451 WT6  5823 TIP3 OH2  OT    -0.834000       15.9994           0
  102452 WT6  5823 TIP3 H1   HT     0.417000        1.0080           0
  102453 WT6  5823 TIP3 H2   HT     0.417000        1.0080           0
  102454 WT6  5824 TIP3 OH2  OT    -0.834000       15.9994           0
  102455 WT6  5824 TIP3 H1   HT     0.417000        1.0080           0
  102456 WT6  5824 TIP3 H2   HT     0.417000        1.0080           0
  102457 WT6  5825 TIP3 OH2  OT    -0.834000       15.9994           0
  102458 WT6  5825 TIP3 H1   HT     0.417000        1.0080           0
  102459 WT6  5825 TIP3 H2   HT     0.417000        1.0080           0
  102460 WT6  5826 TIP3 OH2  OT    -0.834000       15.9994           0
  102461 WT6  5826 TIP3 H1   HT     0.417000        1.0080           0
  102462 WT6  5826 TIP3 H2   HT     0.417000        1.0080           0
  102463 WT6  5827 TIP3 OH2  OT    -0.834000       15.9994           0
  102464 WT6  5827 TIP3 H1   HT     0.417000        1.0080           0
  102465 WT6  5827 TIP3 H2   HT     0.417000        1.0080           0
  102466 WT6  5829 TIP3 OH2  OT    -0.834000       15.9994           0
  102467 WT6  5829 TIP3 H1   HT     0.417000        1.0080           0
  102468 WT6  5829 TIP3 H2   HT     0.417000        1.0080           0
  102469 WT6  5832 TIP3 OH2  OT    -0.834000       15.9994           0
  102470 WT6  5832 TIP3 H1   HT     0.417000        1.0080           0
  102471 WT6  5832 TIP3 H2   HT     0.417000        1.0080           0
  102472 WT6  5834 TIP3 OH2  OT    -0.834000       15.9994           0
  102473 WT6  5834 TIP3 H1   HT     0.417000        1.0080           0
  102474 WT6  5834 TIP3 H2   HT     0.417000        1.0080           0
  102475 WT6  5839 TIP3 OH2  OT    -0.834000       15.9994           0
  102476 WT6  5839 TIP3 H1   HT     0.417000        1.0080           0
  102477 WT6  5839 TIP3 H2   HT     0.417000        1.0080           0
  102478 WT6  5840 TIP3 OH2  OT    -0.834000       15.9994           0
  102479 WT6  5840 TIP3 H1   HT     0.417000        1.0080           0
  102480 WT6  5840 TIP3 H2   HT     0.417000        1.0080           0
  102481 WT6  5841 TIP3 OH2  OT    -0.834000       15.9994           0
  102482 WT6  5841 TIP3 H1   HT     0.417000        1.0080           0
  102483 WT6  5841 TIP3 H2   HT     0.417000        1.0080           0
  102484 WT6  5842 TIP3 OH2  OT    -0.834000       15.9994           0
  102485 WT6  5842 TIP3 H1   HT     0.417000        1.0080           0
  102486 WT6  5842 TIP3 H2   HT     0.417000        1.0080           0
  102487 WT6  5844 TIP3 OH2  OT    -0.834000       15.9994           0
  102488 WT6  5844 TIP3 H1   HT     0.417000        1.0080           0
  102489 WT6  5844 TIP3 H2   HT     0.417000        1.0080           0
  102490 WT6  5845 TIP3 OH2  OT    -0.834000       15.9994           0
  102491 WT6  5845 TIP3 H1   HT     0.417000        1.0080           0
  102492 WT6  5845 TIP3 H2   HT     0.417000        1.0080           0
  102493 WT6  5846 TIP3 OH2  OT    -0.834000       15.9994           0
  102494 WT6  5846 TIP3 H1   HT     0.417000        1.0080           0
  102495 WT6  5846 TIP3 H2   HT     0.417000        1.0080           0
  102496 WT6  5847 TIP3 OH2  OT    -0.834000       15.9994           0
  102497 WT6  5847 TIP3 H1   HT     0.417000        1.0080           0
  102498 WT6  5847 TIP3 H2   HT     0.417000        1.0080           0
  102499 WT6  5849 TIP3 OH2  OT    -0.834000       15.9994           0
  102500 WT6  5849 TIP3 H1   HT     0.417000        1.0080           0
  102501 WT6  5849 TIP3 H2   HT     0.417000        1.0080           0
  102502 WT6  5860 TIP3 OH2  OT    -0.834000       15.9994           0
  102503 WT6  5860 TIP3 H1   HT     0.417000        1.0080           0
  102504 WT6  5860 TIP3 H2   HT     0.417000        1.0080           0
  102505 WT6  5861 TIP3 OH2  OT    -0.834000       15.9994           0
  102506 WT6  5861 TIP3 H1   HT     0.417000        1.0080           0
  102507 WT6  5861 TIP3 H2   HT     0.417000        1.0080           0
  102508 WT6  5862 TIP3 OH2  OT    -0.834000       15.9994           0
  102509 WT6  5862 TIP3 H1   HT     0.417000        1.0080           0
  102510 WT6  5862 TIP3 H2   HT     0.417000        1.0080           0
  102511 WT6  5864 TIP3 OH2  OT    -0.834000       15.9994           0
  102512 WT6  5864 TIP3 H1   HT     0.417000        1.0080           0
  102513 WT6  5864 TIP3 H2   HT     0.417000        1.0080           0
  102514 WT6  5865 TIP3 OH2  OT    -0.834000       15.9994           0
  102515 WT6  5865 TIP3 H1   HT     0.417000        1.0080           0
  102516 WT6  5865 TIP3 H2   HT     0.417000        1.0080           0
  102517 WT6  5867 TIP3 OH2  OT    -0.834000       15.9994           0
  102518 WT6  5867 TIP3 H1   HT     0.417000        1.0080           0
  102519 WT6  5867 TIP3 H2   HT     0.417000        1.0080           0
  102520 WT6  5868 TIP3 OH2  OT    -0.834000       15.9994           0
  102521 WT6  5868 TIP3 H1   HT     0.417000        1.0080           0
  102522 WT6  5868 TIP3 H2   HT     0.417000        1.0080           0
  102523 WT6  5869 TIP3 OH2  OT    -0.834000       15.9994           0
  102524 WT6  5869 TIP3 H1   HT     0.417000        1.0080           0
  102525 WT6  5869 TIP3 H2   HT     0.417000        1.0080           0
  102526 WT6  5870 TIP3 OH2  OT    -0.834000       15.9994           0
  102527 WT6  5870 TIP3 H1   HT     0.417000        1.0080           0
  102528 WT6  5870 TIP3 H2   HT     0.417000        1.0080           0
  102529 WT6  5873 TIP3 OH2  OT    -0.834000       15.9994           0
  102530 WT6  5873 TIP3 H1   HT     0.417000        1.0080           0
  102531 WT6  5873 TIP3 H2   HT     0.417000        1.0080           0
  102532 WT6  5881 TIP3 OH2  OT    -0.834000       15.9994           0
  102533 WT6  5881 TIP3 H1   HT     0.417000        1.0080           0
  102534 WT6  5881 TIP3 H2   HT     0.417000        1.0080           0
  102535 WT6  5884 TIP3 OH2  OT    -0.834000       15.9994           0
  102536 WT6  5884 TIP3 H1   HT     0.417000        1.0080           0
  102537 WT6  5884 TIP3 H2   HT     0.417000        1.0080           0
  102538 WT6  5889 TIP3 OH2  OT    -0.834000       15.9994           0
  102539 WT6  5889 TIP3 H1   HT     0.417000        1.0080           0
  102540 WT6  5889 TIP3 H2   HT     0.417000        1.0080           0
  102541 WT6  5890 TIP3 OH2  OT    -0.834000       15.9994           0
  102542 WT6  5890 TIP3 H1   HT     0.417000        1.0080           0
  102543 WT6  5890 TIP3 H2   HT     0.417000        1.0080           0
  102544 WT6  5891 TIP3 OH2  OT    -0.834000       15.9994           0
  102545 WT6  5891 TIP3 H1   HT     0.417000        1.0080           0
  102546 WT6  5891 TIP3 H2   HT     0.417000        1.0080           0
  102547 WT6  5897 TIP3 OH2  OT    -0.834000       15.9994           0
  102548 WT6  5897 TIP3 H1   HT     0.417000        1.0080           0
  102549 WT6  5897 TIP3 H2   HT     0.417000        1.0080           0
  102550 WT6  5899 TIP3 OH2  OT    -0.834000       15.9994           0
  102551 WT6  5899 TIP3 H1   HT     0.417000        1.0080           0
  102552 WT6  5899 TIP3 H2   HT     0.417000        1.0080           0
  102553 WT6  5901 TIP3 OH2  OT    -0.834000       15.9994           0
  102554 WT6  5901 TIP3 H1   HT     0.417000        1.0080           0
  102555 WT6  5901 TIP3 H2   HT     0.417000        1.0080           0
  102556 WT6  5903 TIP3 OH2  OT    -0.834000       15.9994           0
  102557 WT6  5903 TIP3 H1   HT     0.417000        1.0080           0
  102558 WT6  5903 TIP3 H2   HT     0.417000        1.0080           0
  102559 WT6  5905 TIP3 OH2  OT    -0.834000       15.9994           0
  102560 WT6  5905 TIP3 H1   HT     0.417000        1.0080           0
  102561 WT6  5905 TIP3 H2   HT     0.417000        1.0080           0
  102562 WT6  5906 TIP3 OH2  OT    -0.834000       15.9994           0
  102563 WT6  5906 TIP3 H1   HT     0.417000        1.0080           0
  102564 WT6  5906 TIP3 H2   HT     0.417000        1.0080           0
  102565 WT6  5907 TIP3 OH2  OT    -0.834000       15.9994           0
  102566 WT6  5907 TIP3 H1   HT     0.417000        1.0080           0
  102567 WT6  5907 TIP3 H2   HT     0.417000        1.0080           0
  102568 WT6  5908 TIP3 OH2  OT    -0.834000       15.9994           0
  102569 WT6  5908 TIP3 H1   HT     0.417000        1.0080           0
  102570 WT6  5908 TIP3 H2   HT     0.417000        1.0080           0
  102571 WT6  5909 TIP3 OH2  OT    -0.834000       15.9994           0
  102572 WT6  5909 TIP3 H1   HT     0.417000        1.0080           0
  102573 WT6  5909 TIP3 H2   HT     0.417000        1.0080           0
  102574 WT6  5910 TIP3 OH2  OT    -0.834000       15.9994           0
  102575 WT6  5910 TIP3 H1   HT     0.417000        1.0080           0
  102576 WT6  5910 TIP3 H2   HT     0.417000        1.0080           0
  102577 WT6  5911 TIP3 OH2  OT    -0.834000       15.9994           0
  102578 WT6  5911 TIP3 H1   HT     0.417000        1.0080           0
  102579 WT6  5911 TIP3 H2   HT     0.417000        1.0080           0
  102580 WT6  5913 TIP3 OH2  OT    -0.834000       15.9994           0
  102581 WT6  5913 TIP3 H1   HT     0.417000        1.0080           0
  102582 WT6  5913 TIP3 H2   HT     0.417000        1.0080           0
  102583 WT6  5914 TIP3 OH2  OT    -0.834000       15.9994           0
  102584 WT6  5914 TIP3 H1   HT     0.417000        1.0080           0
  102585 WT6  5914 TIP3 H2   HT     0.417000        1.0080           0
  102586 WT6  5920 TIP3 OH2  OT    -0.834000       15.9994           0
  102587 WT6  5920 TIP3 H1   HT     0.417000        1.0080           0
  102588 WT6  5920 TIP3 H2   HT     0.417000        1.0080           0
  102589 WT6  5924 TIP3 OH2  OT    -0.834000       15.9994           0
  102590 WT6  5924 TIP3 H1   HT     0.417000        1.0080           0
  102591 WT6  5924 TIP3 H2   HT     0.417000        1.0080           0
  102592 WT6  5925 TIP3 OH2  OT    -0.834000       15.9994           0
  102593 WT6  5925 TIP3 H1   HT     0.417000        1.0080           0
  102594 WT6  5925 TIP3 H2   HT     0.417000        1.0080           0
  102595 WT6  5926 TIP3 OH2  OT    -0.834000       15.9994           0
  102596 WT6  5926 TIP3 H1   HT     0.417000        1.0080           0
  102597 WT6  5926 TIP3 H2   HT     0.417000        1.0080           0
  102598 WT6  5927 TIP3 OH2  OT    -0.834000       15.9994           0
  102599 WT6  5927 TIP3 H1   HT     0.417000        1.0080           0
  102600 WT6  5927 TIP3 H2   HT     0.417000        1.0080           0
  102601 WT6  5928 TIP3 OH2  OT    -0.834000       15.9994           0
  102602 WT6  5928 TIP3 H1   HT     0.417000        1.0080           0
  102603 WT6  5928 TIP3 H2   HT     0.417000        1.0080           0
  102604 WT6  5929 TIP3 OH2  OT    -0.834000       15.9994           0
  102605 WT6  5929 TIP3 H1   HT     0.417000        1.0080           0
  102606 WT6  5929 TIP3 H2   HT     0.417000        1.0080           0
  102607 WT6  5930 TIP3 OH2  OT    -0.834000       15.9994           0
  102608 WT6  5930 TIP3 H1   HT     0.417000        1.0080           0
  102609 WT6  5930 TIP3 H2   HT     0.417000        1.0080           0
  102610 WT6  5932 TIP3 OH2  OT    -0.834000       15.9994           0
  102611 WT6  5932 TIP3 H1   HT     0.417000        1.0080           0
  102612 WT6  5932 TIP3 H2   HT     0.417000        1.0080           0
  102613 WT6  5933 TIP3 OH2  OT    -0.834000       15.9994           0
  102614 WT6  5933 TIP3 H1   HT     0.417000        1.0080           0
  102615 WT6  5933 TIP3 H2   HT     0.417000        1.0080           0
  102616 WT6  5935 TIP3 OH2  OT    -0.834000       15.9994           0
  102617 WT6  5935 TIP3 H1   HT     0.417000        1.0080           0
  102618 WT6  5935 TIP3 H2   HT     0.417000        1.0080           0
  102619 WT6  5941 TIP3 OH2  OT    -0.834000       15.9994           0
  102620 WT6  5941 TIP3 H1   HT     0.417000        1.0080           0
  102621 WT6  5941 TIP3 H2   HT     0.417000        1.0080           0
  102622 WT6  5945 TIP3 OH2  OT    -0.834000       15.9994           0
  102623 WT6  5945 TIP3 H1   HT     0.417000        1.0080           0
  102624 WT6  5945 TIP3 H2   HT     0.417000        1.0080           0
  102625 WT6  5950 TIP3 OH2  OT    -0.834000       15.9994           0
  102626 WT6  5950 TIP3 H1   HT     0.417000        1.0080           0
  102627 WT6  5950 TIP3 H2   HT     0.417000        1.0080           0
  102628 WT6  5952 TIP3 OH2  OT    -0.834000       15.9994           0
  102629 WT6  5952 TIP3 H1   HT     0.417000        1.0080           0
  102630 WT6  5952 TIP3 H2   HT     0.417000        1.0080           0
  102631 WT6  5954 TIP3 OH2  OT    -0.834000       15.9994           0
  102632 WT6  5954 TIP3 H1   HT     0.417000        1.0080           0
  102633 WT6  5954 TIP3 H2   HT     0.417000        1.0080           0
  102634 WT6  5962 TIP3 OH2  OT    -0.834000       15.9994           0
  102635 WT6  5962 TIP3 H1   HT     0.417000        1.0080           0
  102636 WT6  5962 TIP3 H2   HT     0.417000        1.0080           0
  102637 WT6  5965 TIP3 OH2  OT    -0.834000       15.9994           0
  102638 WT6  5965 TIP3 H1   HT     0.417000        1.0080           0
  102639 WT6  5965 TIP3 H2   HT     0.417000        1.0080           0
  102640 WT6  5967 TIP3 OH2  OT    -0.834000       15.9994           0
  102641 WT6  5967 TIP3 H1   HT     0.417000        1.0080           0
  102642 WT6  5967 TIP3 H2   HT     0.417000        1.0080           0
  102643 WT6  5969 TIP3 OH2  OT    -0.834000       15.9994           0
  102644 WT6  5969 TIP3 H1   HT     0.417000        1.0080           0
  102645 WT6  5969 TIP3 H2   HT     0.417000        1.0080           0
  102646 WT6  5970 TIP3 OH2  OT    -0.834000       15.9994           0
  102647 WT6  5970 TIP3 H1   HT     0.417000        1.0080           0
  102648 WT6  5970 TIP3 H2   HT     0.417000        1.0080           0
  102649 WT6  5971 TIP3 OH2  OT    -0.834000       15.9994           0
  102650 WT6  5971 TIP3 H1   HT     0.417000        1.0080           0
  102651 WT6  5971 TIP3 H2   HT     0.417000        1.0080           0
  102652 WT6  5972 TIP3 OH2  OT    -0.834000       15.9994           0
  102653 WT6  5972 TIP3 H1   HT     0.417000        1.0080           0
  102654 WT6  5972 TIP3 H2   HT     0.417000        1.0080           0
  102655 WT6  5973 TIP3 OH2  OT    -0.834000       15.9994           0
  102656 WT6  5973 TIP3 H1   HT     0.417000        1.0080           0
  102657 WT6  5973 TIP3 H2   HT     0.417000        1.0080           0
  102658 WT6  5975 TIP3 OH2  OT    -0.834000       15.9994           0
  102659 WT6  5975 TIP3 H1   HT     0.417000        1.0080           0
  102660 WT6  5975 TIP3 H2   HT     0.417000        1.0080           0
  102661 WT6  5976 TIP3 OH2  OT    -0.834000       15.9994           0
  102662 WT6  5976 TIP3 H1   HT     0.417000        1.0080           0
  102663 WT6  5976 TIP3 H2   HT     0.417000        1.0080           0
  102664 WT6  5977 TIP3 OH2  OT    -0.834000       15.9994           0
  102665 WT6  5977 TIP3 H1   HT     0.417000        1.0080           0
  102666 WT6  5977 TIP3 H2   HT     0.417000        1.0080           0
  102667 WT6  5984 TIP3 OH2  OT    -0.834000       15.9994           0
  102668 WT6  5984 TIP3 H1   HT     0.417000        1.0080           0
  102669 WT6  5984 TIP3 H2   HT     0.417000        1.0080           0
  102670 WT6  5986 TIP3 OH2  OT    -0.834000       15.9994           0
  102671 WT6  5986 TIP3 H1   HT     0.417000        1.0080           0
  102672 WT6  5986 TIP3 H2   HT     0.417000        1.0080           0
  102673 WT6  5987 TIP3 OH2  OT    -0.834000       15.9994           0
  102674 WT6  5987 TIP3 H1   HT     0.417000        1.0080           0
  102675 WT6  5987 TIP3 H2   HT     0.417000        1.0080           0
  102676 WT6  5988 TIP3 OH2  OT    -0.834000       15.9994           0
  102677 WT6  5988 TIP3 H1   HT     0.417000        1.0080           0
  102678 WT6  5988 TIP3 H2   HT     0.417000        1.0080           0
  102679 WT6  5989 TIP3 OH2  OT    -0.834000       15.9994           0
  102680 WT6  5989 TIP3 H1   HT     0.417000        1.0080           0
  102681 WT6  5989 TIP3 H2   HT     0.417000        1.0080           0
  102682 WT6  5990 TIP3 OH2  OT    -0.834000       15.9994           0
  102683 WT6  5990 TIP3 H1   HT     0.417000        1.0080           0
  102684 WT6  5990 TIP3 H2   HT     0.417000        1.0080           0
  102685 WT6  5991 TIP3 OH2  OT    -0.834000       15.9994           0
  102686 WT6  5991 TIP3 H1   HT     0.417000        1.0080           0
  102687 WT6  5991 TIP3 H2   HT     0.417000        1.0080           0
  102688 WT6  5992 TIP3 OH2  OT    -0.834000       15.9994           0
  102689 WT6  5992 TIP3 H1   HT     0.417000        1.0080           0
  102690 WT6  5992 TIP3 H2   HT     0.417000        1.0080           0
  102691 WT6  5993 TIP3 OH2  OT    -0.834000       15.9994           0
  102692 WT6  5993 TIP3 H1   HT     0.417000        1.0080           0
  102693 WT6  5993 TIP3 H2   HT     0.417000        1.0080           0
  102694 WT6  5996 TIP3 OH2  OT    -0.834000       15.9994           0
  102695 WT6  5996 TIP3 H1   HT     0.417000        1.0080           0
  102696 WT6  5996 TIP3 H2   HT     0.417000        1.0080           0
  102697 WT6  6000 TIP3 OH2  OT    -0.834000       15.9994           0
  102698 WT6  6000 TIP3 H1   HT     0.417000        1.0080           0
  102699 WT6  6000 TIP3 H2   HT     0.417000        1.0080           0
  102700 WT6  6008 TIP3 OH2  OT    -0.834000       15.9994           0
  102701 WT6  6008 TIP3 H1   HT     0.417000        1.0080           0
  102702 WT6  6008 TIP3 H2   HT     0.417000        1.0080           0
  102703 WT6  6011 TIP3 OH2  OT    -0.834000       15.9994           0
  102704 WT6  6011 TIP3 H1   HT     0.417000        1.0080           0
  102705 WT6  6011 TIP3 H2   HT     0.417000        1.0080           0
  102706 WT6  6012 TIP3 OH2  OT    -0.834000       15.9994           0
  102707 WT6  6012 TIP3 H1   HT     0.417000        1.0080           0
  102708 WT6  6012 TIP3 H2   HT     0.417000        1.0080           0
  102709 WT6  6014 TIP3 OH2  OT    -0.834000       15.9994           0
  102710 WT6  6014 TIP3 H1   HT     0.417000        1.0080           0
  102711 WT6  6014 TIP3 H2   HT     0.417000        1.0080           0
  102712 WT6  6015 TIP3 OH2  OT    -0.834000       15.9994           0
  102713 WT6  6015 TIP3 H1   HT     0.417000        1.0080           0
  102714 WT6  6015 TIP3 H2   HT     0.417000        1.0080           0
  102715 WT6  6019 TIP3 OH2  OT    -0.834000       15.9994           0
  102716 WT6  6019 TIP3 H1   HT     0.417000        1.0080           0
  102717 WT6  6019 TIP3 H2   HT     0.417000        1.0080           0
  102718 WT6  6021 TIP3 OH2  OT    -0.834000       15.9994           0
  102719 WT6  6021 TIP3 H1   HT     0.417000        1.0080           0
  102720 WT6  6021 TIP3 H2   HT     0.417000        1.0080           0
  102721 WT6  6028 TIP3 OH2  OT    -0.834000       15.9994           0
  102722 WT6  6028 TIP3 H1   HT     0.417000        1.0080           0
  102723 WT6  6028 TIP3 H2   HT     0.417000        1.0080           0
  102724 WT6  6030 TIP3 OH2  OT    -0.834000       15.9994           0
  102725 WT6  6030 TIP3 H1   HT     0.417000        1.0080           0
  102726 WT6  6030 TIP3 H2   HT     0.417000        1.0080           0
  102727 WT6  6033 TIP3 OH2  OT    -0.834000       15.9994           0
  102728 WT6  6033 TIP3 H1   HT     0.417000        1.0080           0
  102729 WT6  6033 TIP3 H2   HT     0.417000        1.0080           0
  102730 WT6  6034 TIP3 OH2  OT    -0.834000       15.9994           0
  102731 WT6  6034 TIP3 H1   HT     0.417000        1.0080           0
  102732 WT6  6034 TIP3 H2   HT     0.417000        1.0080           0
  102733 WT6  6036 TIP3 OH2  OT    -0.834000       15.9994           0
  102734 WT6  6036 TIP3 H1   HT     0.417000        1.0080           0
  102735 WT6  6036 TIP3 H2   HT     0.417000        1.0080           0
  102736 WT6  6038 TIP3 OH2  OT    -0.834000       15.9994           0
  102737 WT6  6038 TIP3 H1   HT     0.417000        1.0080           0
  102738 WT6  6038 TIP3 H2   HT     0.417000        1.0080           0
  102739 WT6  6039 TIP3 OH2  OT    -0.834000       15.9994           0
  102740 WT6  6039 TIP3 H1   HT     0.417000        1.0080           0
  102741 WT6  6039 TIP3 H2   HT     0.417000        1.0080           0
  102742 WT6  6041 TIP3 OH2  OT    -0.834000       15.9994           0
  102743 WT6  6041 TIP3 H1   HT     0.417000        1.0080           0
  102744 WT6  6041 TIP3 H2   HT     0.417000        1.0080           0
  102745 WT6  6046 TIP3 OH2  OT    -0.834000       15.9994           0
  102746 WT6  6046 TIP3 H1   HT     0.417000        1.0080           0
  102747 WT6  6046 TIP3 H2   HT     0.417000        1.0080           0
  102748 WT6  6047 TIP3 OH2  OT    -0.834000       15.9994           0
  102749 WT6  6047 TIP3 H1   HT     0.417000        1.0080           0
  102750 WT6  6047 TIP3 H2   HT     0.417000        1.0080           0
  102751 WT6  6048 TIP3 OH2  OT    -0.834000       15.9994           0
  102752 WT6  6048 TIP3 H1   HT     0.417000        1.0080           0
  102753 WT6  6048 TIP3 H2   HT     0.417000        1.0080           0
  102754 WT6  6050 TIP3 OH2  OT    -0.834000       15.9994           0
  102755 WT6  6050 TIP3 H1   HT     0.417000        1.0080           0
  102756 WT6  6050 TIP3 H2   HT     0.417000        1.0080           0
  102757 WT6  6051 TIP3 OH2  OT    -0.834000       15.9994           0
  102758 WT6  6051 TIP3 H1   HT     0.417000        1.0080           0
  102759 WT6  6051 TIP3 H2   HT     0.417000        1.0080           0
  102760 WT6  6052 TIP3 OH2  OT    -0.834000       15.9994           0
  102761 WT6  6052 TIP3 H1   HT     0.417000        1.0080           0
  102762 WT6  6052 TIP3 H2   HT     0.417000        1.0080           0
  102763 WT6  6056 TIP3 OH2  OT    -0.834000       15.9994           0
  102764 WT6  6056 TIP3 H1   HT     0.417000        1.0080           0
  102765 WT6  6056 TIP3 H2   HT     0.417000        1.0080           0
  102766 WT6  6057 TIP3 OH2  OT    -0.834000       15.9994           0
  102767 WT6  6057 TIP3 H1   HT     0.417000        1.0080           0
  102768 WT6  6057 TIP3 H2   HT     0.417000        1.0080           0
  102769 WT6  6060 TIP3 OH2  OT    -0.834000       15.9994           0
  102770 WT6  6060 TIP3 H1   HT     0.417000        1.0080           0
  102771 WT6  6060 TIP3 H2   HT     0.417000        1.0080           0
  102772 WT6  6073 TIP3 OH2  OT    -0.834000       15.9994           0
  102773 WT6  6073 TIP3 H1   HT     0.417000        1.0080           0
  102774 WT6  6073 TIP3 H2   HT     0.417000        1.0080           0
  102775 WT6  6074 TIP3 OH2  OT    -0.834000       15.9994           0
  102776 WT6  6074 TIP3 H1   HT     0.417000        1.0080           0
  102777 WT6  6074 TIP3 H2   HT     0.417000        1.0080           0
  102778 WT6  6075 TIP3 OH2  OT    -0.834000       15.9994           0
  102779 WT6  6075 TIP3 H1   HT     0.417000        1.0080           0
  102780 WT6  6075 TIP3 H2   HT     0.417000        1.0080           0
  102781 WT6  6076 TIP3 OH2  OT    -0.834000       15.9994           0
  102782 WT6  6076 TIP3 H1   HT     0.417000        1.0080           0
  102783 WT6  6076 TIP3 H2   HT     0.417000        1.0080           0
  102784 WT6  6077 TIP3 OH2  OT    -0.834000       15.9994           0
  102785 WT6  6077 TIP3 H1   HT     0.417000        1.0080           0
  102786 WT6  6077 TIP3 H2   HT     0.417000        1.0080           0
  102787 WT6  6078 TIP3 OH2  OT    -0.834000       15.9994           0
  102788 WT6  6078 TIP3 H1   HT     0.417000        1.0080           0
  102789 WT6  6078 TIP3 H2   HT     0.417000        1.0080           0
  102790 WT6  6079 TIP3 OH2  OT    -0.834000       15.9994           0
  102791 WT6  6079 TIP3 H1   HT     0.417000        1.0080           0
  102792 WT6  6079 TIP3 H2   HT     0.417000        1.0080           0
  102793 WT6  6080 TIP3 OH2  OT    -0.834000       15.9994           0
  102794 WT6  6080 TIP3 H1   HT     0.417000        1.0080           0
  102795 WT6  6080 TIP3 H2   HT     0.417000        1.0080           0
  102796 WT6  6082 TIP3 OH2  OT    -0.834000       15.9994           0
  102797 WT6  6082 TIP3 H1   HT     0.417000        1.0080           0
  102798 WT6  6082 TIP3 H2   HT     0.417000        1.0080           0
  102799 WT6  6084 TIP3 OH2  OT    -0.834000       15.9994           0
  102800 WT6  6084 TIP3 H1   HT     0.417000        1.0080           0
  102801 WT6  6084 TIP3 H2   HT     0.417000        1.0080           0
  102802 WT6  6085 TIP3 OH2  OT    -0.834000       15.9994           0
  102803 WT6  6085 TIP3 H1   HT     0.417000        1.0080           0
  102804 WT6  6085 TIP3 H2   HT     0.417000        1.0080           0
  102805 WT6  6086 TIP3 OH2  OT    -0.834000       15.9994           0
  102806 WT6  6086 TIP3 H1   HT     0.417000        1.0080           0
  102807 WT6  6086 TIP3 H2   HT     0.417000        1.0080           0
  102808 WT6  6090 TIP3 OH2  OT    -0.834000       15.9994           0
  102809 WT6  6090 TIP3 H1   HT     0.417000        1.0080           0
  102810 WT6  6090 TIP3 H2   HT     0.417000        1.0080           0
  102811 WT6  6092 TIP3 OH2  OT    -0.834000       15.9994           0
  102812 WT6  6092 TIP3 H1   HT     0.417000        1.0080           0
  102813 WT6  6092 TIP3 H2   HT     0.417000        1.0080           0
  102814 WT6  6093 TIP3 OH2  OT    -0.834000       15.9994           0
  102815 WT6  6093 TIP3 H1   HT     0.417000        1.0080           0
  102816 WT6  6093 TIP3 H2   HT     0.417000        1.0080           0
  102817 WT6  6098 TIP3 OH2  OT    -0.834000       15.9994           0
  102818 WT6  6098 TIP3 H1   HT     0.417000        1.0080           0
  102819 WT6  6098 TIP3 H2   HT     0.417000        1.0080           0
  102820 WT6  6099 TIP3 OH2  OT    -0.834000       15.9994           0
  102821 WT6  6099 TIP3 H1   HT     0.417000        1.0080           0
  102822 WT6  6099 TIP3 H2   HT     0.417000        1.0080           0
  102823 WT6  6100 TIP3 OH2  OT    -0.834000       15.9994           0
  102824 WT6  6100 TIP3 H1   HT     0.417000        1.0080           0
  102825 WT6  6100 TIP3 H2   HT     0.417000        1.0080           0
  102826 WT6  6102 TIP3 OH2  OT    -0.834000       15.9994           0
  102827 WT6  6102 TIP3 H1   HT     0.417000        1.0080           0
  102828 WT6  6102 TIP3 H2   HT     0.417000        1.0080           0
  102829 WT6  6104 TIP3 OH2  OT    -0.834000       15.9994           0
  102830 WT6  6104 TIP3 H1   HT     0.417000        1.0080           0
  102831 WT6  6104 TIP3 H2   HT     0.417000        1.0080           0
  102832 WT6  6110 TIP3 OH2  OT    -0.834000       15.9994           0
  102833 WT6  6110 TIP3 H1   HT     0.417000        1.0080           0
  102834 WT6  6110 TIP3 H2   HT     0.417000        1.0080           0
  102835 WT6  6112 TIP3 OH2  OT    -0.834000       15.9994           0
  102836 WT6  6112 TIP3 H1   HT     0.417000        1.0080           0
  102837 WT6  6112 TIP3 H2   HT     0.417000        1.0080           0
  102838 WT6  6113 TIP3 OH2  OT    -0.834000       15.9994           0
  102839 WT6  6113 TIP3 H1   HT     0.417000        1.0080           0
  102840 WT6  6113 TIP3 H2   HT     0.417000        1.0080           0
  102841 WT6  6115 TIP3 OH2  OT    -0.834000       15.9994           0
  102842 WT6  6115 TIP3 H1   HT     0.417000        1.0080           0
  102843 WT6  6115 TIP3 H2   HT     0.417000        1.0080           0
  102844 WT6  6117 TIP3 OH2  OT    -0.834000       15.9994           0
  102845 WT6  6117 TIP3 H1   HT     0.417000        1.0080           0
  102846 WT6  6117 TIP3 H2   HT     0.417000        1.0080           0
  102847 WT6  6118 TIP3 OH2  OT    -0.834000       15.9994           0
  102848 WT6  6118 TIP3 H1   HT     0.417000        1.0080           0
  102849 WT6  6118 TIP3 H2   HT     0.417000        1.0080           0
  102850 WT6  6119 TIP3 OH2  OT    -0.834000       15.9994           0
  102851 WT6  6119 TIP3 H1   HT     0.417000        1.0080           0
  102852 WT6  6119 TIP3 H2   HT     0.417000        1.0080           0
  102853 WT6  6121 TIP3 OH2  OT    -0.834000       15.9994           0
  102854 WT6  6121 TIP3 H1   HT     0.417000        1.0080           0
  102855 WT6  6121 TIP3 H2   HT     0.417000        1.0080           0
  102856 WT6  6128 TIP3 OH2  OT    -0.834000       15.9994           0
  102857 WT6  6128 TIP3 H1   HT     0.417000        1.0080           0
  102858 WT6  6128 TIP3 H2   HT     0.417000        1.0080           0
  102859 WT6  6132 TIP3 OH2  OT    -0.834000       15.9994           0
  102860 WT6  6132 TIP3 H1   HT     0.417000        1.0080           0
  102861 WT6  6132 TIP3 H2   HT     0.417000        1.0080           0
  102862 WT6  6133 TIP3 OH2  OT    -0.834000       15.9994           0
  102863 WT6  6133 TIP3 H1   HT     0.417000        1.0080           0
  102864 WT6  6133 TIP3 H2   HT     0.417000        1.0080           0
  102865 WT6  6135 TIP3 OH2  OT    -0.834000       15.9994           0
  102866 WT6  6135 TIP3 H1   HT     0.417000        1.0080           0
  102867 WT6  6135 TIP3 H2   HT     0.417000        1.0080           0
  102868 WT6  6136 TIP3 OH2  OT    -0.834000       15.9994           0
  102869 WT6  6136 TIP3 H1   HT     0.417000        1.0080           0
  102870 WT6  6136 TIP3 H2   HT     0.417000        1.0080           0
  102871 WT6  6137 TIP3 OH2  OT    -0.834000       15.9994           0
  102872 WT6  6137 TIP3 H1   HT     0.417000        1.0080           0
  102873 WT6  6137 TIP3 H2   HT     0.417000        1.0080           0
  102874 WT6  6138 TIP3 OH2  OT    -0.834000       15.9994           0
  102875 WT6  6138 TIP3 H1   HT     0.417000        1.0080           0
  102876 WT6  6138 TIP3 H2   HT     0.417000        1.0080           0
  102877 WT6  6139 TIP3 OH2  OT    -0.834000       15.9994           0
  102878 WT6  6139 TIP3 H1   HT     0.417000        1.0080           0
  102879 WT6  6139 TIP3 H2   HT     0.417000        1.0080           0
  102880 WT6  6141 TIP3 OH2  OT    -0.834000       15.9994           0
  102881 WT6  6141 TIP3 H1   HT     0.417000        1.0080           0
  102882 WT6  6141 TIP3 H2   HT     0.417000        1.0080           0
  102883 WT6  6142 TIP3 OH2  OT    -0.834000       15.9994           0
  102884 WT6  6142 TIP3 H1   HT     0.417000        1.0080           0
  102885 WT6  6142 TIP3 H2   HT     0.417000        1.0080           0
  102886 WT6  6143 TIP3 OH2  OT    -0.834000       15.9994           0
  102887 WT6  6143 TIP3 H1   HT     0.417000        1.0080           0
  102888 WT6  6143 TIP3 H2   HT     0.417000        1.0080           0
  102889 WT6  6157 TIP3 OH2  OT    -0.834000       15.9994           0
  102890 WT6  6157 TIP3 H1   HT     0.417000        1.0080           0
  102891 WT6  6157 TIP3 H2   HT     0.417000        1.0080           0
  102892 WT6  6158 TIP3 OH2  OT    -0.834000       15.9994           0
  102893 WT6  6158 TIP3 H1   HT     0.417000        1.0080           0
  102894 WT6  6158 TIP3 H2   HT     0.417000        1.0080           0
  102895 WT6  6160 TIP3 OH2  OT    -0.834000       15.9994           0
  102896 WT6  6160 TIP3 H1   HT     0.417000        1.0080           0
  102897 WT6  6160 TIP3 H2   HT     0.417000        1.0080           0
  102898 WT6  6162 TIP3 OH2  OT    -0.834000       15.9994           0
  102899 WT6  6162 TIP3 H1   HT     0.417000        1.0080           0
  102900 WT6  6162 TIP3 H2   HT     0.417000        1.0080           0
  102901 WT6  6165 TIP3 OH2  OT    -0.834000       15.9994           0
  102902 WT6  6165 TIP3 H1   HT     0.417000        1.0080           0
  102903 WT6  6165 TIP3 H2   HT     0.417000        1.0080           0
  102904 WT6  6168 TIP3 OH2  OT    -0.834000       15.9994           0
  102905 WT6  6168 TIP3 H1   HT     0.417000        1.0080           0
  102906 WT6  6168 TIP3 H2   HT     0.417000        1.0080           0
  102907 WT6  6169 TIP3 OH2  OT    -0.834000       15.9994           0
  102908 WT6  6169 TIP3 H1   HT     0.417000        1.0080           0
  102909 WT6  6169 TIP3 H2   HT     0.417000        1.0080           0
  102910 WT6  6177 TIP3 OH2  OT    -0.834000       15.9994           0
  102911 WT6  6177 TIP3 H1   HT     0.417000        1.0080           0
  102912 WT6  6177 TIP3 H2   HT     0.417000        1.0080           0
  102913 WT6  6178 TIP3 OH2  OT    -0.834000       15.9994           0
  102914 WT6  6178 TIP3 H1   HT     0.417000        1.0080           0
  102915 WT6  6178 TIP3 H2   HT     0.417000        1.0080           0
  102916 WT6  6180 TIP3 OH2  OT    -0.834000       15.9994           0
  102917 WT6  6180 TIP3 H1   HT     0.417000        1.0080           0
  102918 WT6  6180 TIP3 H2   HT     0.417000        1.0080           0
  102919 WT6  6183 TIP3 OH2  OT    -0.834000       15.9994           0
  102920 WT6  6183 TIP3 H1   HT     0.417000        1.0080           0
  102921 WT6  6183 TIP3 H2   HT     0.417000        1.0080           0
  102922 WT6  6184 TIP3 OH2  OT    -0.834000       15.9994           0
  102923 WT6  6184 TIP3 H1   HT     0.417000        1.0080           0
  102924 WT6  6184 TIP3 H2   HT     0.417000        1.0080           0
  102925 WT6  6185 TIP3 OH2  OT    -0.834000       15.9994           0
  102926 WT6  6185 TIP3 H1   HT     0.417000        1.0080           0
  102927 WT6  6185 TIP3 H2   HT     0.417000        1.0080           0
  102928 WT6  6187 TIP3 OH2  OT    -0.834000       15.9994           0
  102929 WT6  6187 TIP3 H1   HT     0.417000        1.0080           0
  102930 WT6  6187 TIP3 H2   HT     0.417000        1.0080           0
  102931 WT6  6188 TIP3 OH2  OT    -0.834000       15.9994           0
  102932 WT6  6188 TIP3 H1   HT     0.417000        1.0080           0
  102933 WT6  6188 TIP3 H2   HT     0.417000        1.0080           0
  102934 WT6  6190 TIP3 OH2  OT    -0.834000       15.9994           0
  102935 WT6  6190 TIP3 H1   HT     0.417000        1.0080           0
  102936 WT6  6190 TIP3 H2   HT     0.417000        1.0080           0
  102937 WT6  6195 TIP3 OH2  OT    -0.834000       15.9994           0
  102938 WT6  6195 TIP3 H1   HT     0.417000        1.0080           0
  102939 WT6  6195 TIP3 H2   HT     0.417000        1.0080           0
  102940 WT6  6198 TIP3 OH2  OT    -0.834000       15.9994           0
  102941 WT6  6198 TIP3 H1   HT     0.417000        1.0080           0
  102942 WT6  6198 TIP3 H2   HT     0.417000        1.0080           0
  102943 WT6  6200 TIP3 OH2  OT    -0.834000       15.9994           0
  102944 WT6  6200 TIP3 H1   HT     0.417000        1.0080           0
  102945 WT6  6200 TIP3 H2   HT     0.417000        1.0080           0
  102946 WT6  6208 TIP3 OH2  OT    -0.834000       15.9994           0
  102947 WT6  6208 TIP3 H1   HT     0.417000        1.0080           0
  102948 WT6  6208 TIP3 H2   HT     0.417000        1.0080           0
  102949 WT6  6209 TIP3 OH2  OT    -0.834000       15.9994           0
  102950 WT6  6209 TIP3 H1   HT     0.417000        1.0080           0
  102951 WT6  6209 TIP3 H2   HT     0.417000        1.0080           0
  102952 WT6  6218 TIP3 OH2  OT    -0.834000       15.9994           0
  102953 WT6  6218 TIP3 H1   HT     0.417000        1.0080           0
  102954 WT6  6218 TIP3 H2   HT     0.417000        1.0080           0
  102955 WT6  6219 TIP3 OH2  OT    -0.834000       15.9994           0
  102956 WT6  6219 TIP3 H1   HT     0.417000        1.0080           0
  102957 WT6  6219 TIP3 H2   HT     0.417000        1.0080           0
  102958 WT6  6220 TIP3 OH2  OT    -0.834000       15.9994           0
  102959 WT6  6220 TIP3 H1   HT     0.417000        1.0080           0
  102960 WT6  6220 TIP3 H2   HT     0.417000        1.0080           0
  102961 WT6  6222 TIP3 OH2  OT    -0.834000       15.9994           0
  102962 WT6  6222 TIP3 H1   HT     0.417000        1.0080           0
  102963 WT6  6222 TIP3 H2   HT     0.417000        1.0080           0
  102964 WT6  6224 TIP3 OH2  OT    -0.834000       15.9994           0
  102965 WT6  6224 TIP3 H1   HT     0.417000        1.0080           0
  102966 WT6  6224 TIP3 H2   HT     0.417000        1.0080           0
  102967 WT6  6226 TIP3 OH2  OT    -0.834000       15.9994           0
  102968 WT6  6226 TIP3 H1   HT     0.417000        1.0080           0
  102969 WT6  6226 TIP3 H2   HT     0.417000        1.0080           0
  102970 WT6  6227 TIP3 OH2  OT    -0.834000       15.9994           0
  102971 WT6  6227 TIP3 H1   HT     0.417000        1.0080           0
  102972 WT6  6227 TIP3 H2   HT     0.417000        1.0080           0
  102973 WT6  6228 TIP3 OH2  OT    -0.834000       15.9994           0
  102974 WT6  6228 TIP3 H1   HT     0.417000        1.0080           0
  102975 WT6  6228 TIP3 H2   HT     0.417000        1.0080           0
  102976 WT6  6229 TIP3 OH2  OT    -0.834000       15.9994           0
  102977 WT6  6229 TIP3 H1   HT     0.417000        1.0080           0
  102978 WT6  6229 TIP3 H2   HT     0.417000        1.0080           0
  102979 WT6  6230 TIP3 OH2  OT    -0.834000       15.9994           0
  102980 WT6  6230 TIP3 H1   HT     0.417000        1.0080           0
  102981 WT6  6230 TIP3 H2   HT     0.417000        1.0080           0
  102982 WT6  6231 TIP3 OH2  OT    -0.834000       15.9994           0
  102983 WT6  6231 TIP3 H1   HT     0.417000        1.0080           0
  102984 WT6  6231 TIP3 H2   HT     0.417000        1.0080           0
  102985 WT6  6239 TIP3 OH2  OT    -0.834000       15.9994           0
  102986 WT6  6239 TIP3 H1   HT     0.417000        1.0080           0
  102987 WT6  6239 TIP3 H2   HT     0.417000        1.0080           0
  102988 WT6  6240 TIP3 OH2  OT    -0.834000       15.9994           0
  102989 WT6  6240 TIP3 H1   HT     0.417000        1.0080           0
  102990 WT6  6240 TIP3 H2   HT     0.417000        1.0080           0
  102991 WT6  6241 TIP3 OH2  OT    -0.834000       15.9994           0
  102992 WT6  6241 TIP3 H1   HT     0.417000        1.0080           0
  102993 WT6  6241 TIP3 H2   HT     0.417000        1.0080           0
  102994 WT6  6242 TIP3 OH2  OT    -0.834000       15.9994           0
  102995 WT6  6242 TIP3 H1   HT     0.417000        1.0080           0
  102996 WT6  6242 TIP3 H2   HT     0.417000        1.0080           0
  102997 WT6  6243 TIP3 OH2  OT    -0.834000       15.9994           0
  102998 WT6  6243 TIP3 H1   HT     0.417000        1.0080           0
  102999 WT6  6243 TIP3 H2   HT     0.417000        1.0080           0
  103000 WT6  6246 TIP3 OH2  OT    -0.834000       15.9994           0
  103001 WT6  6246 TIP3 H1   HT     0.417000        1.0080           0
  103002 WT6  6246 TIP3 H2   HT     0.417000        1.0080           0
  103003 WT6  6247 TIP3 OH2  OT    -0.834000       15.9994           0
  103004 WT6  6247 TIP3 H1   HT     0.417000        1.0080           0
  103005 WT6  6247 TIP3 H2   HT     0.417000        1.0080           0
  103006 WT6  6252 TIP3 OH2  OT    -0.834000       15.9994           0
  103007 WT6  6252 TIP3 H1   HT     0.417000        1.0080           0
  103008 WT6  6252 TIP3 H2   HT     0.417000        1.0080           0
  103009 WT6  6256 TIP3 OH2  OT    -0.834000       15.9994           0
  103010 WT6  6256 TIP3 H1   HT     0.417000        1.0080           0
  103011 WT6  6256 TIP3 H2   HT     0.417000        1.0080           0
  103012 WT6  6258 TIP3 OH2  OT    -0.834000       15.9994           0
  103013 WT6  6258 TIP3 H1   HT     0.417000        1.0080           0
  103014 WT6  6258 TIP3 H2   HT     0.417000        1.0080           0
  103015 WT6  6259 TIP3 OH2  OT    -0.834000       15.9994           0
  103016 WT6  6259 TIP3 H1   HT     0.417000        1.0080           0
  103017 WT6  6259 TIP3 H2   HT     0.417000        1.0080           0
  103018 WT6  6262 TIP3 OH2  OT    -0.834000       15.9994           0
  103019 WT6  6262 TIP3 H1   HT     0.417000        1.0080           0
  103020 WT6  6262 TIP3 H2   HT     0.417000        1.0080           0
  103021 WT6  6263 TIP3 OH2  OT    -0.834000       15.9994           0
  103022 WT6  6263 TIP3 H1   HT     0.417000        1.0080           0
  103023 WT6  6263 TIP3 H2   HT     0.417000        1.0080           0
  103024 WT6  6266 TIP3 OH2  OT    -0.834000       15.9994           0
  103025 WT6  6266 TIP3 H1   HT     0.417000        1.0080           0
  103026 WT6  6266 TIP3 H2   HT     0.417000        1.0080           0
  103027 WT6  6269 TIP3 OH2  OT    -0.834000       15.9994           0
  103028 WT6  6269 TIP3 H1   HT     0.417000        1.0080           0
  103029 WT6  6269 TIP3 H2   HT     0.417000        1.0080           0
  103030 WT6  6270 TIP3 OH2  OT    -0.834000       15.9994           0
  103031 WT6  6270 TIP3 H1   HT     0.417000        1.0080           0
  103032 WT6  6270 TIP3 H2   HT     0.417000        1.0080           0
  103033 WT6  6285 TIP3 OH2  OT    -0.834000       15.9994           0
  103034 WT6  6285 TIP3 H1   HT     0.417000        1.0080           0
  103035 WT6  6285 TIP3 H2   HT     0.417000        1.0080           0
  103036 WT6  6290 TIP3 OH2  OT    -0.834000       15.9994           0
  103037 WT6  6290 TIP3 H1   HT     0.417000        1.0080           0
  103038 WT6  6290 TIP3 H2   HT     0.417000        1.0080           0
  103039 WT6  6291 TIP3 OH2  OT    -0.834000       15.9994           0
  103040 WT6  6291 TIP3 H1   HT     0.417000        1.0080           0
  103041 WT6  6291 TIP3 H2   HT     0.417000        1.0080           0
  103042 WT6  6297 TIP3 OH2  OT    -0.834000       15.9994           0
  103043 WT6  6297 TIP3 H1   HT     0.417000        1.0080           0
  103044 WT6  6297 TIP3 H2   HT     0.417000        1.0080           0
  103045 WT6  6300 TIP3 OH2  OT    -0.834000       15.9994           0
  103046 WT6  6300 TIP3 H1   HT     0.417000        1.0080           0
  103047 WT6  6300 TIP3 H2   HT     0.417000        1.0080           0
  103048 WT6  6302 TIP3 OH2  OT    -0.834000       15.9994           0
  103049 WT6  6302 TIP3 H1   HT     0.417000        1.0080           0
  103050 WT6  6302 TIP3 H2   HT     0.417000        1.0080           0
  103051 WT6  6309 TIP3 OH2  OT    -0.834000       15.9994           0
  103052 WT6  6309 TIP3 H1   HT     0.417000        1.0080           0
  103053 WT6  6309 TIP3 H2   HT     0.417000        1.0080           0
  103054 WT6  6310 TIP3 OH2  OT    -0.834000       15.9994           0
  103055 WT6  6310 TIP3 H1   HT     0.417000        1.0080           0
  103056 WT6  6310 TIP3 H2   HT     0.417000        1.0080           0
  103057 WT6  6311 TIP3 OH2  OT    -0.834000       15.9994           0
  103058 WT6  6311 TIP3 H1   HT     0.417000        1.0080           0
  103059 WT6  6311 TIP3 H2   HT     0.417000        1.0080           0
  103060 WT6  6313 TIP3 OH2  OT    -0.834000       15.9994           0
  103061 WT6  6313 TIP3 H1   HT     0.417000        1.0080           0
  103062 WT6  6313 TIP3 H2   HT     0.417000        1.0080           0
  103063 WT6  6314 TIP3 OH2  OT    -0.834000       15.9994           0
  103064 WT6  6314 TIP3 H1   HT     0.417000        1.0080           0
  103065 WT6  6314 TIP3 H2   HT     0.417000        1.0080           0
  103066 WT6  6315 TIP3 OH2  OT    -0.834000       15.9994           0
  103067 WT6  6315 TIP3 H1   HT     0.417000        1.0080           0
  103068 WT6  6315 TIP3 H2   HT     0.417000        1.0080           0
  103069 WT6  6319 TIP3 OH2  OT    -0.834000       15.9994           0
  103070 WT6  6319 TIP3 H1   HT     0.417000        1.0080           0
  103071 WT6  6319 TIP3 H2   HT     0.417000        1.0080           0
  103072 WT6  6321 TIP3 OH2  OT    -0.834000       15.9994           0
  103073 WT6  6321 TIP3 H1   HT     0.417000        1.0080           0
  103074 WT6  6321 TIP3 H2   HT     0.417000        1.0080           0
  103075 WT6  6323 TIP3 OH2  OT    -0.834000       15.9994           0
  103076 WT6  6323 TIP3 H1   HT     0.417000        1.0080           0
  103077 WT6  6323 TIP3 H2   HT     0.417000        1.0080           0
  103078 WT6  6324 TIP3 OH2  OT    -0.834000       15.9994           0
  103079 WT6  6324 TIP3 H1   HT     0.417000        1.0080           0
  103080 WT6  6324 TIP3 H2   HT     0.417000        1.0080           0
  103081 WT6  6325 TIP3 OH2  OT    -0.834000       15.9994           0
  103082 WT6  6325 TIP3 H1   HT     0.417000        1.0080           0
  103083 WT6  6325 TIP3 H2   HT     0.417000        1.0080           0
  103084 WT6  6326 TIP3 OH2  OT    -0.834000       15.9994           0
  103085 WT6  6326 TIP3 H1   HT     0.417000        1.0080           0
  103086 WT6  6326 TIP3 H2   HT     0.417000        1.0080           0
  103087 WT6  6327 TIP3 OH2  OT    -0.834000       15.9994           0
  103088 WT6  6327 TIP3 H1   HT     0.417000        1.0080           0
  103089 WT6  6327 TIP3 H2   HT     0.417000        1.0080           0
  103090 WT6  6330 TIP3 OH2  OT    -0.834000       15.9994           0
  103091 WT6  6330 TIP3 H1   HT     0.417000        1.0080           0
  103092 WT6  6330 TIP3 H2   HT     0.417000        1.0080           0
  103093 WT6  6331 TIP3 OH2  OT    -0.834000       15.9994           0
  103094 WT6  6331 TIP3 H1   HT     0.417000        1.0080           0
  103095 WT6  6331 TIP3 H2   HT     0.417000        1.0080           0
  103096 WT6  6333 TIP3 OH2  OT    -0.834000       15.9994           0
  103097 WT6  6333 TIP3 H1   HT     0.417000        1.0080           0
  103098 WT6  6333 TIP3 H2   HT     0.417000        1.0080           0
  103099 WT6  6334 TIP3 OH2  OT    -0.834000       15.9994           0
  103100 WT6  6334 TIP3 H1   HT     0.417000        1.0080           0
  103101 WT6  6334 TIP3 H2   HT     0.417000        1.0080           0
  103102 WT6  6341 TIP3 OH2  OT    -0.834000       15.9994           0
  103103 WT6  6341 TIP3 H1   HT     0.417000        1.0080           0
  103104 WT6  6341 TIP3 H2   HT     0.417000        1.0080           0
  103105 WT6  6345 TIP3 OH2  OT    -0.834000       15.9994           0
  103106 WT6  6345 TIP3 H1   HT     0.417000        1.0080           0
  103107 WT6  6345 TIP3 H2   HT     0.417000        1.0080           0
  103108 WT6  6347 TIP3 OH2  OT    -0.834000       15.9994           0
  103109 WT6  6347 TIP3 H1   HT     0.417000        1.0080           0
  103110 WT6  6347 TIP3 H2   HT     0.417000        1.0080           0
  103111 WT6  6348 TIP3 OH2  OT    -0.834000       15.9994           0
  103112 WT6  6348 TIP3 H1   HT     0.417000        1.0080           0
  103113 WT6  6348 TIP3 H2   HT     0.417000        1.0080           0
  103114 WT6  6350 TIP3 OH2  OT    -0.834000       15.9994           0
  103115 WT6  6350 TIP3 H1   HT     0.417000        1.0080           0
  103116 WT6  6350 TIP3 H2   HT     0.417000        1.0080           0
  103117 WT6  6351 TIP3 OH2  OT    -0.834000       15.9994           0
  103118 WT6  6351 TIP3 H1   HT     0.417000        1.0080           0
  103119 WT6  6351 TIP3 H2   HT     0.417000        1.0080           0
  103120 WT6  6352 TIP3 OH2  OT    -0.834000       15.9994           0
  103121 WT6  6352 TIP3 H1   HT     0.417000        1.0080           0
  103122 WT6  6352 TIP3 H2   HT     0.417000        1.0080           0
  103123 WT6  6366 TIP3 OH2  OT    -0.834000       15.9994           0
  103124 WT6  6366 TIP3 H1   HT     0.417000        1.0080           0
  103125 WT6  6366 TIP3 H2   HT     0.417000        1.0080           0
  103126 WT6  6370 TIP3 OH2  OT    -0.834000       15.9994           0
  103127 WT6  6370 TIP3 H1   HT     0.417000        1.0080           0
  103128 WT6  6370 TIP3 H2   HT     0.417000        1.0080           0
  103129 WT6  6373 TIP3 OH2  OT    -0.834000       15.9994           0
  103130 WT6  6373 TIP3 H1   HT     0.417000        1.0080           0
  103131 WT6  6373 TIP3 H2   HT     0.417000        1.0080           0
  103132 WT6  6375 TIP3 OH2  OT    -0.834000       15.9994           0
  103133 WT6  6375 TIP3 H1   HT     0.417000        1.0080           0
  103134 WT6  6375 TIP3 H2   HT     0.417000        1.0080           0
  103135 WT6  6381 TIP3 OH2  OT    -0.834000       15.9994           0
  103136 WT6  6381 TIP3 H1   HT     0.417000        1.0080           0
  103137 WT6  6381 TIP3 H2   HT     0.417000        1.0080           0
  103138 WT6  6390 TIP3 OH2  OT    -0.834000       15.9994           0
  103139 WT6  6390 TIP3 H1   HT     0.417000        1.0080           0
  103140 WT6  6390 TIP3 H2   HT     0.417000        1.0080           0
  103141 WT6  6391 TIP3 OH2  OT    -0.834000       15.9994           0
  103142 WT6  6391 TIP3 H1   HT     0.417000        1.0080           0
  103143 WT6  6391 TIP3 H2   HT     0.417000        1.0080           0
  103144 WT6  6396 TIP3 OH2  OT    -0.834000       15.9994           0
  103145 WT6  6396 TIP3 H1   HT     0.417000        1.0080           0
  103146 WT6  6396 TIP3 H2   HT     0.417000        1.0080           0
  103147 WT6  6398 TIP3 OH2  OT    -0.834000       15.9994           0
  103148 WT6  6398 TIP3 H1   HT     0.417000        1.0080           0
  103149 WT6  6398 TIP3 H2   HT     0.417000        1.0080           0
  103150 WT6  6404 TIP3 OH2  OT    -0.834000       15.9994           0
  103151 WT6  6404 TIP3 H1   HT     0.417000        1.0080           0
  103152 WT6  6404 TIP3 H2   HT     0.417000        1.0080           0
  103153 WT6  6407 TIP3 OH2  OT    -0.834000       15.9994           0
  103154 WT6  6407 TIP3 H1   HT     0.417000        1.0080           0
  103155 WT6  6407 TIP3 H2   HT     0.417000        1.0080           0
  103156 WT6  6408 TIP3 OH2  OT    -0.834000       15.9994           0
  103157 WT6  6408 TIP3 H1   HT     0.417000        1.0080           0
  103158 WT6  6408 TIP3 H2   HT     0.417000        1.0080           0
  103159 WT6  6409 TIP3 OH2  OT    -0.834000       15.9994           0
  103160 WT6  6409 TIP3 H1   HT     0.417000        1.0080           0
  103161 WT6  6409 TIP3 H2   HT     0.417000        1.0080           0
  103162 WT6  6414 TIP3 OH2  OT    -0.834000       15.9994           0
  103163 WT6  6414 TIP3 H1   HT     0.417000        1.0080           0
  103164 WT6  6414 TIP3 H2   HT     0.417000        1.0080           0
  103165 WT6  6417 TIP3 OH2  OT    -0.834000       15.9994           0
  103166 WT6  6417 TIP3 H1   HT     0.417000        1.0080           0
  103167 WT6  6417 TIP3 H2   HT     0.417000        1.0080           0
  103168 WT6  6425 TIP3 OH2  OT    -0.834000       15.9994           0
  103169 WT6  6425 TIP3 H1   HT     0.417000        1.0080           0
  103170 WT6  6425 TIP3 H2   HT     0.417000        1.0080           0
  103171 WT6  6428 TIP3 OH2  OT    -0.834000       15.9994           0
  103172 WT6  6428 TIP3 H1   HT     0.417000        1.0080           0
  103173 WT6  6428 TIP3 H2   HT     0.417000        1.0080           0
  103174 WT6  6429 TIP3 OH2  OT    -0.834000       15.9994           0
  103175 WT6  6429 TIP3 H1   HT     0.417000        1.0080           0
  103176 WT6  6429 TIP3 H2   HT     0.417000        1.0080           0
  103177 WT6  6431 TIP3 OH2  OT    -0.834000       15.9994           0
  103178 WT6  6431 TIP3 H1   HT     0.417000        1.0080           0
  103179 WT6  6431 TIP3 H2   HT     0.417000        1.0080           0
  103180 WT6  6433 TIP3 OH2  OT    -0.834000       15.9994           0
  103181 WT6  6433 TIP3 H1   HT     0.417000        1.0080           0
  103182 WT6  6433 TIP3 H2   HT     0.417000        1.0080           0
  103183 WT6  6436 TIP3 OH2  OT    -0.834000       15.9994           0
  103184 WT6  6436 TIP3 H1   HT     0.417000        1.0080           0
  103185 WT6  6436 TIP3 H2   HT     0.417000        1.0080           0
  103186 WT6  6439 TIP3 OH2  OT    -0.834000       15.9994           0
  103187 WT6  6439 TIP3 H1   HT     0.417000        1.0080           0
  103188 WT6  6439 TIP3 H2   HT     0.417000        1.0080           0
  103189 WT6  6440 TIP3 OH2  OT    -0.834000       15.9994           0
  103190 WT6  6440 TIP3 H1   HT     0.417000        1.0080           0
  103191 WT6  6440 TIP3 H2   HT     0.417000        1.0080           0
  103192 WT6  6444 TIP3 OH2  OT    -0.834000       15.9994           0
  103193 WT6  6444 TIP3 H1   HT     0.417000        1.0080           0
  103194 WT6  6444 TIP3 H2   HT     0.417000        1.0080           0
  103195 WT6  6445 TIP3 OH2  OT    -0.834000       15.9994           0
  103196 WT6  6445 TIP3 H1   HT     0.417000        1.0080           0
  103197 WT6  6445 TIP3 H2   HT     0.417000        1.0080           0
  103198 WT6  6448 TIP3 OH2  OT    -0.834000       15.9994           0
  103199 WT6  6448 TIP3 H1   HT     0.417000        1.0080           0
  103200 WT6  6448 TIP3 H2   HT     0.417000        1.0080           0
  103201 WT6  6451 TIP3 OH2  OT    -0.834000       15.9994           0
  103202 WT6  6451 TIP3 H1   HT     0.417000        1.0080           0
  103203 WT6  6451 TIP3 H2   HT     0.417000        1.0080           0
  103204 WT6  6452 TIP3 OH2  OT    -0.834000       15.9994           0
  103205 WT6  6452 TIP3 H1   HT     0.417000        1.0080           0
  103206 WT6  6452 TIP3 H2   HT     0.417000        1.0080           0
  103207 WT6  6456 TIP3 OH2  OT    -0.834000       15.9994           0
  103208 WT6  6456 TIP3 H1   HT     0.417000        1.0080           0
  103209 WT6  6456 TIP3 H2   HT     0.417000        1.0080           0
  103210 WT6  6458 TIP3 OH2  OT    -0.834000       15.9994           0
  103211 WT6  6458 TIP3 H1   HT     0.417000        1.0080           0
  103212 WT6  6458 TIP3 H2   HT     0.417000        1.0080           0
  103213 WT6  6459 TIP3 OH2  OT    -0.834000       15.9994           0
  103214 WT6  6459 TIP3 H1   HT     0.417000        1.0080           0
  103215 WT6  6459 TIP3 H2   HT     0.417000        1.0080           0
  103216 WT6  6460 TIP3 OH2  OT    -0.834000       15.9994           0
  103217 WT6  6460 TIP3 H1   HT     0.417000        1.0080           0
  103218 WT6  6460 TIP3 H2   HT     0.417000        1.0080           0
  103219 WT6  6474 TIP3 OH2  OT    -0.834000       15.9994           0
  103220 WT6  6474 TIP3 H1   HT     0.417000        1.0080           0
  103221 WT6  6474 TIP3 H2   HT     0.417000        1.0080           0
  103222 WT6  6476 TIP3 OH2  OT    -0.834000       15.9994           0
  103223 WT6  6476 TIP3 H1   HT     0.417000        1.0080           0
  103224 WT6  6476 TIP3 H2   HT     0.417000        1.0080           0
  103225 WT6  6477 TIP3 OH2  OT    -0.834000       15.9994           0
  103226 WT6  6477 TIP3 H1   HT     0.417000        1.0080           0
  103227 WT6  6477 TIP3 H2   HT     0.417000        1.0080           0
  103228 WT6  6479 TIP3 OH2  OT    -0.834000       15.9994           0
  103229 WT6  6479 TIP3 H1   HT     0.417000        1.0080           0
  103230 WT6  6479 TIP3 H2   HT     0.417000        1.0080           0
  103231 WT6  6483 TIP3 OH2  OT    -0.834000       15.9994           0
  103232 WT6  6483 TIP3 H1   HT     0.417000        1.0080           0
  103233 WT6  6483 TIP3 H2   HT     0.417000        1.0080           0
  103234 WT6  6490 TIP3 OH2  OT    -0.834000       15.9994           0
  103235 WT6  6490 TIP3 H1   HT     0.417000        1.0080           0
  103236 WT6  6490 TIP3 H2   HT     0.417000        1.0080           0
  103237 WT6  6491 TIP3 OH2  OT    -0.834000       15.9994           0
  103238 WT6  6491 TIP3 H1   HT     0.417000        1.0080           0
  103239 WT6  6491 TIP3 H2   HT     0.417000        1.0080           0
  103240 WT6  6492 TIP3 OH2  OT    -0.834000       15.9994           0
  103241 WT6  6492 TIP3 H1   HT     0.417000        1.0080           0
  103242 WT6  6492 TIP3 H2   HT     0.417000        1.0080           0
  103243 WT6  6493 TIP3 OH2  OT    -0.834000       15.9994           0
  103244 WT6  6493 TIP3 H1   HT     0.417000        1.0080           0
  103245 WT6  6493 TIP3 H2   HT     0.417000        1.0080           0
  103246 WT6  6499 TIP3 OH2  OT    -0.834000       15.9994           0
  103247 WT6  6499 TIP3 H1   HT     0.417000        1.0080           0
  103248 WT6  6499 TIP3 H2   HT     0.417000        1.0080           0
  103249 WT6  6502 TIP3 OH2  OT    -0.834000       15.9994           0
  103250 WT6  6502 TIP3 H1   HT     0.417000        1.0080           0
  103251 WT6  6502 TIP3 H2   HT     0.417000        1.0080           0
  103252 WT6  6504 TIP3 OH2  OT    -0.834000       15.9994           0
  103253 WT6  6504 TIP3 H1   HT     0.417000        1.0080           0
  103254 WT6  6504 TIP3 H2   HT     0.417000        1.0080           0
  103255 WT6  6505 TIP3 OH2  OT    -0.834000       15.9994           0
  103256 WT6  6505 TIP3 H1   HT     0.417000        1.0080           0
  103257 WT6  6505 TIP3 H2   HT     0.417000        1.0080           0
  103258 WT6  6513 TIP3 OH2  OT    -0.834000       15.9994           0
  103259 WT6  6513 TIP3 H1   HT     0.417000        1.0080           0
  103260 WT6  6513 TIP3 H2   HT     0.417000        1.0080           0
  103261 WT6  6516 TIP3 OH2  OT    -0.834000       15.9994           0
  103262 WT6  6516 TIP3 H1   HT     0.417000        1.0080           0
  103263 WT6  6516 TIP3 H2   HT     0.417000        1.0080           0
  103264 WT6  6518 TIP3 OH2  OT    -0.834000       15.9994           0
  103265 WT6  6518 TIP3 H1   HT     0.417000        1.0080           0
  103266 WT6  6518 TIP3 H2   HT     0.417000        1.0080           0
  103267 WT6  6519 TIP3 OH2  OT    -0.834000       15.9994           0
  103268 WT6  6519 TIP3 H1   HT     0.417000        1.0080           0
  103269 WT6  6519 TIP3 H2   HT     0.417000        1.0080           0
  103270 WT6  6526 TIP3 OH2  OT    -0.834000       15.9994           0
  103271 WT6  6526 TIP3 H1   HT     0.417000        1.0080           0
  103272 WT6  6526 TIP3 H2   HT     0.417000        1.0080           0
  103273 WT6  6528 TIP3 OH2  OT    -0.834000       15.9994           0
  103274 WT6  6528 TIP3 H1   HT     0.417000        1.0080           0
  103275 WT6  6528 TIP3 H2   HT     0.417000        1.0080           0
  103276 WT6  6533 TIP3 OH2  OT    -0.834000       15.9994           0
  103277 WT6  6533 TIP3 H1   HT     0.417000        1.0080           0
  103278 WT6  6533 TIP3 H2   HT     0.417000        1.0080           0
  103279 WT6  6538 TIP3 OH2  OT    -0.834000       15.9994           0
  103280 WT6  6538 TIP3 H1   HT     0.417000        1.0080           0
  103281 WT6  6538 TIP3 H2   HT     0.417000        1.0080           0
  103282 WT6  6539 TIP3 OH2  OT    -0.834000       15.9994           0
  103283 WT6  6539 TIP3 H1   HT     0.417000        1.0080           0
  103284 WT6  6539 TIP3 H2   HT     0.417000        1.0080           0
  103285 WT6  6547 TIP3 OH2  OT    -0.834000       15.9994           0
  103286 WT6  6547 TIP3 H1   HT     0.417000        1.0080           0
  103287 WT6  6547 TIP3 H2   HT     0.417000        1.0080           0
  103288 WT6  6551 TIP3 OH2  OT    -0.834000       15.9994           0
  103289 WT6  6551 TIP3 H1   HT     0.417000        1.0080           0
  103290 WT6  6551 TIP3 H2   HT     0.417000        1.0080           0
  103291 WT6  6552 TIP3 OH2  OT    -0.834000       15.9994           0
  103292 WT6  6552 TIP3 H1   HT     0.417000        1.0080           0
  103293 WT6  6552 TIP3 H2   HT     0.417000        1.0080           0
  103294 WT6  6554 TIP3 OH2  OT    -0.834000       15.9994           0
  103295 WT6  6554 TIP3 H1   HT     0.417000        1.0080           0
  103296 WT6  6554 TIP3 H2   HT     0.417000        1.0080           0
  103297 WT6  6556 TIP3 OH2  OT    -0.834000       15.9994           0
  103298 WT6  6556 TIP3 H1   HT     0.417000        1.0080           0
  103299 WT6  6556 TIP3 H2   HT     0.417000        1.0080           0
  103300 WT6  6557 TIP3 OH2  OT    -0.834000       15.9994           0
  103301 WT6  6557 TIP3 H1   HT     0.417000        1.0080           0
  103302 WT6  6557 TIP3 H2   HT     0.417000        1.0080           0
  103303 WT6  6558 TIP3 OH2  OT    -0.834000       15.9994           0
  103304 WT6  6558 TIP3 H1   HT     0.417000        1.0080           0
  103305 WT6  6558 TIP3 H2   HT     0.417000        1.0080           0
  103306 WT6  6561 TIP3 OH2  OT    -0.834000       15.9994           0
  103307 WT6  6561 TIP3 H1   HT     0.417000        1.0080           0
  103308 WT6  6561 TIP3 H2   HT     0.417000        1.0080           0
  103309 WT6  6562 TIP3 OH2  OT    -0.834000       15.9994           0
  103310 WT6  6562 TIP3 H1   HT     0.417000        1.0080           0
  103311 WT6  6562 TIP3 H2   HT     0.417000        1.0080           0
  103312 WT6  6568 TIP3 OH2  OT    -0.834000       15.9994           0
  103313 WT6  6568 TIP3 H1   HT     0.417000        1.0080           0
  103314 WT6  6568 TIP3 H2   HT     0.417000        1.0080           0
  103315 WT6  6575 TIP3 OH2  OT    -0.834000       15.9994           0
  103316 WT6  6575 TIP3 H1   HT     0.417000        1.0080           0
  103317 WT6  6575 TIP3 H2   HT     0.417000        1.0080           0
  103318 WT6  6577 TIP3 OH2  OT    -0.834000       15.9994           0
  103319 WT6  6577 TIP3 H1   HT     0.417000        1.0080           0
  103320 WT6  6577 TIP3 H2   HT     0.417000        1.0080           0
  103321 WT6  6578 TIP3 OH2  OT    -0.834000       15.9994           0
  103322 WT6  6578 TIP3 H1   HT     0.417000        1.0080           0
  103323 WT6  6578 TIP3 H2   HT     0.417000        1.0080           0
  103324 WT6  6583 TIP3 OH2  OT    -0.834000       15.9994           0
  103325 WT6  6583 TIP3 H1   HT     0.417000        1.0080           0
  103326 WT6  6583 TIP3 H2   HT     0.417000        1.0080           0
  103327 WT6  6597 TIP3 OH2  OT    -0.834000       15.9994           0
  103328 WT6  6597 TIP3 H1   HT     0.417000        1.0080           0
  103329 WT6  6597 TIP3 H2   HT     0.417000        1.0080           0
  103330 WT6  6598 TIP3 OH2  OT    -0.834000       15.9994           0
  103331 WT6  6598 TIP3 H1   HT     0.417000        1.0080           0
  103332 WT6  6598 TIP3 H2   HT     0.417000        1.0080           0
  103333 WT6  6599 TIP3 OH2  OT    -0.834000       15.9994           0
  103334 WT6  6599 TIP3 H1   HT     0.417000        1.0080           0
  103335 WT6  6599 TIP3 H2   HT     0.417000        1.0080           0
  103336 WT6  6602 TIP3 OH2  OT    -0.834000       15.9994           0
  103337 WT6  6602 TIP3 H1   HT     0.417000        1.0080           0
  103338 WT6  6602 TIP3 H2   HT     0.417000        1.0080           0
  103339 WT6  6603 TIP3 OH2  OT    -0.834000       15.9994           0
  103340 WT6  6603 TIP3 H1   HT     0.417000        1.0080           0
  103341 WT6  6603 TIP3 H2   HT     0.417000        1.0080           0
  103342 WT6  6605 TIP3 OH2  OT    -0.834000       15.9994           0
  103343 WT6  6605 TIP3 H1   HT     0.417000        1.0080           0
  103344 WT6  6605 TIP3 H2   HT     0.417000        1.0080           0
  103345 WT6  6612 TIP3 OH2  OT    -0.834000       15.9994           0
  103346 WT6  6612 TIP3 H1   HT     0.417000        1.0080           0
  103347 WT6  6612 TIP3 H2   HT     0.417000        1.0080           0
  103348 WT6  6615 TIP3 OH2  OT    -0.834000       15.9994           0
  103349 WT6  6615 TIP3 H1   HT     0.417000        1.0080           0
  103350 WT6  6615 TIP3 H2   HT     0.417000        1.0080           0
  103351 WT6  6623 TIP3 OH2  OT    -0.834000       15.9994           0
  103352 WT6  6623 TIP3 H1   HT     0.417000        1.0080           0
  103353 WT6  6623 TIP3 H2   HT     0.417000        1.0080           0
  103354 WT6  6624 TIP3 OH2  OT    -0.834000       15.9994           0
  103355 WT6  6624 TIP3 H1   HT     0.417000        1.0080           0
  103356 WT6  6624 TIP3 H2   HT     0.417000        1.0080           0
  103357 WT6  6628 TIP3 OH2  OT    -0.834000       15.9994           0
  103358 WT6  6628 TIP3 H1   HT     0.417000        1.0080           0
  103359 WT6  6628 TIP3 H2   HT     0.417000        1.0080           0
  103360 WT6  6642 TIP3 OH2  OT    -0.834000       15.9994           0
  103361 WT6  6642 TIP3 H1   HT     0.417000        1.0080           0
  103362 WT6  6642 TIP3 H2   HT     0.417000        1.0080           0
  103363 WT6  6657 TIP3 OH2  OT    -0.834000       15.9994           0
  103364 WT6  6657 TIP3 H1   HT     0.417000        1.0080           0
  103365 WT6  6657 TIP3 H2   HT     0.417000        1.0080           0
  103366 WT6  6660 TIP3 OH2  OT    -0.834000       15.9994           0
  103367 WT6  6660 TIP3 H1   HT     0.417000        1.0080           0
  103368 WT6  6660 TIP3 H2   HT     0.417000        1.0080           0
  103369 WT6  6661 TIP3 OH2  OT    -0.834000       15.9994           0
  103370 WT6  6661 TIP3 H1   HT     0.417000        1.0080           0
  103371 WT6  6661 TIP3 H2   HT     0.417000        1.0080           0
  103372 WT6  6663 TIP3 OH2  OT    -0.834000       15.9994           0
  103373 WT6  6663 TIP3 H1   HT     0.417000        1.0080           0
  103374 WT6  6663 TIP3 H2   HT     0.417000        1.0080           0
  103375 WT6  6664 TIP3 OH2  OT    -0.834000       15.9994           0
  103376 WT6  6664 TIP3 H1   HT     0.417000        1.0080           0
  103377 WT6  6664 TIP3 H2   HT     0.417000        1.0080           0
  103378 WT6  6667 TIP3 OH2  OT    -0.834000       15.9994           0
  103379 WT6  6667 TIP3 H1   HT     0.417000        1.0080           0
  103380 WT6  6667 TIP3 H2   HT     0.417000        1.0080           0
  103381 WT6  6669 TIP3 OH2  OT    -0.834000       15.9994           0
  103382 WT6  6669 TIP3 H1   HT     0.417000        1.0080           0
  103383 WT6  6669 TIP3 H2   HT     0.417000        1.0080           0
  103384 WT6  6671 TIP3 OH2  OT    -0.834000       15.9994           0
  103385 WT6  6671 TIP3 H1   HT     0.417000        1.0080           0
  103386 WT6  6671 TIP3 H2   HT     0.417000        1.0080           0
  103387 WT6  6672 TIP3 OH2  OT    -0.834000       15.9994           0
  103388 WT6  6672 TIP3 H1   HT     0.417000        1.0080           0
  103389 WT6  6672 TIP3 H2   HT     0.417000        1.0080           0
  103390 WT6  6681 TIP3 OH2  OT    -0.834000       15.9994           0
  103391 WT6  6681 TIP3 H1   HT     0.417000        1.0080           0
  103392 WT6  6681 TIP3 H2   HT     0.417000        1.0080           0
  103393 WT6  6683 TIP3 OH2  OT    -0.834000       15.9994           0
  103394 WT6  6683 TIP3 H1   HT     0.417000        1.0080           0
  103395 WT6  6683 TIP3 H2   HT     0.417000        1.0080           0
  103396 WT6  6684 TIP3 OH2  OT    -0.834000       15.9994           0
  103397 WT6  6684 TIP3 H1   HT     0.417000        1.0080           0
  103398 WT6  6684 TIP3 H2   HT     0.417000        1.0080           0
  103399 WT6  6693 TIP3 OH2  OT    -0.834000       15.9994           0
  103400 WT6  6693 TIP3 H1   HT     0.417000        1.0080           0
  103401 WT6  6693 TIP3 H2   HT     0.417000        1.0080           0
  103402 WT6  6698 TIP3 OH2  OT    -0.834000       15.9994           0
  103403 WT6  6698 TIP3 H1   HT     0.417000        1.0080           0
  103404 WT6  6698 TIP3 H2   HT     0.417000        1.0080           0
  103405 WT6  6703 TIP3 OH2  OT    -0.834000       15.9994           0
  103406 WT6  6703 TIP3 H1   HT     0.417000        1.0080           0
  103407 WT6  6703 TIP3 H2   HT     0.417000        1.0080           0
  103408 WT6  6705 TIP3 OH2  OT    -0.834000       15.9994           0
  103409 WT6  6705 TIP3 H1   HT     0.417000        1.0080           0
  103410 WT6  6705 TIP3 H2   HT     0.417000        1.0080           0
  103411 WT6  6707 TIP3 OH2  OT    -0.834000       15.9994           0
  103412 WT6  6707 TIP3 H1   HT     0.417000        1.0080           0
  103413 WT6  6707 TIP3 H2   HT     0.417000        1.0080           0
  103414 WT6  6721 TIP3 OH2  OT    -0.834000       15.9994           0
  103415 WT6  6721 TIP3 H1   HT     0.417000        1.0080           0
  103416 WT6  6721 TIP3 H2   HT     0.417000        1.0080           0
  103417 WT6  6722 TIP3 OH2  OT    -0.834000       15.9994           0
  103418 WT6  6722 TIP3 H1   HT     0.417000        1.0080           0
  103419 WT6  6722 TIP3 H2   HT     0.417000        1.0080           0
  103420 WT6  6725 TIP3 OH2  OT    -0.834000       15.9994           0
  103421 WT6  6725 TIP3 H1   HT     0.417000        1.0080           0
  103422 WT6  6725 TIP3 H2   HT     0.417000        1.0080           0
  103423 WT6  6726 TIP3 OH2  OT    -0.834000       15.9994           0
  103424 WT6  6726 TIP3 H1   HT     0.417000        1.0080           0
  103425 WT6  6726 TIP3 H2   HT     0.417000        1.0080           0
  103426 WT6  6727 TIP3 OH2  OT    -0.834000       15.9994           0
  103427 WT6  6727 TIP3 H1   HT     0.417000        1.0080           0
  103428 WT6  6727 TIP3 H2   HT     0.417000        1.0080           0
  103429 WT6  6729 TIP3 OH2  OT    -0.834000       15.9994           0
  103430 WT6  6729 TIP3 H1   HT     0.417000        1.0080           0
  103431 WT6  6729 TIP3 H2   HT     0.417000        1.0080           0
  103432 WT6  6730 TIP3 OH2  OT    -0.834000       15.9994           0
  103433 WT6  6730 TIP3 H1   HT     0.417000        1.0080           0
  103434 WT6  6730 TIP3 H2   HT     0.417000        1.0080           0
  103435 WT6  6736 TIP3 OH2  OT    -0.834000       15.9994           0
  103436 WT6  6736 TIP3 H1   HT     0.417000        1.0080           0
  103437 WT6  6736 TIP3 H2   HT     0.417000        1.0080           0
  103438 WT6  6743 TIP3 OH2  OT    -0.834000       15.9994           0
  103439 WT6  6743 TIP3 H1   HT     0.417000        1.0080           0
  103440 WT6  6743 TIP3 H2   HT     0.417000        1.0080           0
  103441 WT6  6750 TIP3 OH2  OT    -0.834000       15.9994           0
  103442 WT6  6750 TIP3 H1   HT     0.417000        1.0080           0
  103443 WT6  6750 TIP3 H2   HT     0.417000        1.0080           0
  103444 WT6  6751 TIP3 OH2  OT    -0.834000       15.9994           0
  103445 WT6  6751 TIP3 H1   HT     0.417000        1.0080           0
  103446 WT6  6751 TIP3 H2   HT     0.417000        1.0080           0
  103447 WT6  6763 TIP3 OH2  OT    -0.834000       15.9994           0
  103448 WT6  6763 TIP3 H1   HT     0.417000        1.0080           0
  103449 WT6  6763 TIP3 H2   HT     0.417000        1.0080           0
  103450 WT6  6773 TIP3 OH2  OT    -0.834000       15.9994           0
  103451 WT6  6773 TIP3 H1   HT     0.417000        1.0080           0
  103452 WT6  6773 TIP3 H2   HT     0.417000        1.0080           0
  103453 WT6  6774 TIP3 OH2  OT    -0.834000       15.9994           0
  103454 WT6  6774 TIP3 H1   HT     0.417000        1.0080           0
  103455 WT6  6774 TIP3 H2   HT     0.417000        1.0080           0
  103456 WT6  6777 TIP3 OH2  OT    -0.834000       15.9994           0
  103457 WT6  6777 TIP3 H1   HT     0.417000        1.0080           0
  103458 WT6  6777 TIP3 H2   HT     0.417000        1.0080           0
  103459 WT6  6788 TIP3 OH2  OT    -0.834000       15.9994           0
  103460 WT6  6788 TIP3 H1   HT     0.417000        1.0080           0
  103461 WT6  6788 TIP3 H2   HT     0.417000        1.0080           0
  103462 WT6  6789 TIP3 OH2  OT    -0.834000       15.9994           0
  103463 WT6  6789 TIP3 H1   HT     0.417000        1.0080           0
  103464 WT6  6789 TIP3 H2   HT     0.417000        1.0080           0
  103465 WT6  6791 TIP3 OH2  OT    -0.834000       15.9994           0
  103466 WT6  6791 TIP3 H1   HT     0.417000        1.0080           0
  103467 WT6  6791 TIP3 H2   HT     0.417000        1.0080           0
  103468 WT6  6794 TIP3 OH2  OT    -0.834000       15.9994           0
  103469 WT6  6794 TIP3 H1   HT     0.417000        1.0080           0
  103470 WT6  6794 TIP3 H2   HT     0.417000        1.0080           0
  103471 WT6  6802 TIP3 OH2  OT    -0.834000       15.9994           0
  103472 WT6  6802 TIP3 H1   HT     0.417000        1.0080           0
  103473 WT6  6802 TIP3 H2   HT     0.417000        1.0080           0
  103474 WT6  6803 TIP3 OH2  OT    -0.834000       15.9994           0
  103475 WT6  6803 TIP3 H1   HT     0.417000        1.0080           0
  103476 WT6  6803 TIP3 H2   HT     0.417000        1.0080           0
  103477 WT6  6808 TIP3 OH2  OT    -0.834000       15.9994           0
  103478 WT6  6808 TIP3 H1   HT     0.417000        1.0080           0
  103479 WT6  6808 TIP3 H2   HT     0.417000        1.0080           0
  103480 WT6  6811 TIP3 OH2  OT    -0.834000       15.9994           0
  103481 WT6  6811 TIP3 H1   HT     0.417000        1.0080           0
  103482 WT6  6811 TIP3 H2   HT     0.417000        1.0080           0
  103483 WT6  6813 TIP3 OH2  OT    -0.834000       15.9994           0
  103484 WT6  6813 TIP3 H1   HT     0.417000        1.0080           0
  103485 WT6  6813 TIP3 H2   HT     0.417000        1.0080           0
  103486 WT6  6815 TIP3 OH2  OT    -0.834000       15.9994           0
  103487 WT6  6815 TIP3 H1   HT     0.417000        1.0080           0
  103488 WT6  6815 TIP3 H2   HT     0.417000        1.0080           0
  103489 WT6  6816 TIP3 OH2  OT    -0.834000       15.9994           0
  103490 WT6  6816 TIP3 H1   HT     0.417000        1.0080           0
  103491 WT6  6816 TIP3 H2   HT     0.417000        1.0080           0
  103492 WT6  6817 TIP3 OH2  OT    -0.834000       15.9994           0
  103493 WT6  6817 TIP3 H1   HT     0.417000        1.0080           0
  103494 WT6  6817 TIP3 H2   HT     0.417000        1.0080           0
  103495 WT6  6819 TIP3 OH2  OT    -0.834000       15.9994           0
  103496 WT6  6819 TIP3 H1   HT     0.417000        1.0080           0
  103497 WT6  6819 TIP3 H2   HT     0.417000        1.0080           0
  103498 WT6  6820 TIP3 OH2  OT    -0.834000       15.9994           0
  103499 WT6  6820 TIP3 H1   HT     0.417000        1.0080           0
  103500 WT6  6820 TIP3 H2   HT     0.417000        1.0080           0
  103501 WT6  6830 TIP3 OH2  OT    -0.834000       15.9994           0
  103502 WT6  6830 TIP3 H1   HT     0.417000        1.0080           0
  103503 WT6  6830 TIP3 H2   HT     0.417000        1.0080           0
  103504 WT6  6832 TIP3 OH2  OT    -0.834000       15.9994           0
  103505 WT6  6832 TIP3 H1   HT     0.417000        1.0080           0
  103506 WT6  6832 TIP3 H2   HT     0.417000        1.0080           0
  103507 WT6  6834 TIP3 OH2  OT    -0.834000       15.9994           0
  103508 WT6  6834 TIP3 H1   HT     0.417000        1.0080           0
  103509 WT6  6834 TIP3 H2   HT     0.417000        1.0080           0
  103510 WT6  6835 TIP3 OH2  OT    -0.834000       15.9994           0
  103511 WT6  6835 TIP3 H1   HT     0.417000        1.0080           0
  103512 WT6  6835 TIP3 H2   HT     0.417000        1.0080           0
  103513 WT6  6837 TIP3 OH2  OT    -0.834000       15.9994           0
  103514 WT6  6837 TIP3 H1   HT     0.417000        1.0080           0
  103515 WT6  6837 TIP3 H2   HT     0.417000        1.0080           0
  103516 WT6  6846 TIP3 OH2  OT    -0.834000       15.9994           0
  103517 WT6  6846 TIP3 H1   HT     0.417000        1.0080           0
  103518 WT6  6846 TIP3 H2   HT     0.417000        1.0080           0
  103519 WT6  6848 TIP3 OH2  OT    -0.834000       15.9994           0
  103520 WT6  6848 TIP3 H1   HT     0.417000        1.0080           0
  103521 WT6  6848 TIP3 H2   HT     0.417000        1.0080           0
  103522 WT6  6851 TIP3 OH2  OT    -0.834000       15.9994           0
  103523 WT6  6851 TIP3 H1   HT     0.417000        1.0080           0
  103524 WT6  6851 TIP3 H2   HT     0.417000        1.0080           0
  103525 WT6  6852 TIP3 OH2  OT    -0.834000       15.9994           0
  103526 WT6  6852 TIP3 H1   HT     0.417000        1.0080           0
  103527 WT6  6852 TIP3 H2   HT     0.417000        1.0080           0
  103528 WT6  6854 TIP3 OH2  OT    -0.834000       15.9994           0
  103529 WT6  6854 TIP3 H1   HT     0.417000        1.0080           0
  103530 WT6  6854 TIP3 H2   HT     0.417000        1.0080           0
  103531 WT6  6855 TIP3 OH2  OT    -0.834000       15.9994           0
  103532 WT6  6855 TIP3 H1   HT     0.417000        1.0080           0
  103533 WT6  6855 TIP3 H2   HT     0.417000        1.0080           0
  103534 WT6  6859 TIP3 OH2  OT    -0.834000       15.9994           0
  103535 WT6  6859 TIP3 H1   HT     0.417000        1.0080           0
  103536 WT6  6859 TIP3 H2   HT     0.417000        1.0080           0
  103537 WT6  6867 TIP3 OH2  OT    -0.834000       15.9994           0
  103538 WT6  6867 TIP3 H1   HT     0.417000        1.0080           0
  103539 WT6  6867 TIP3 H2   HT     0.417000        1.0080           0
  103540 WT6  6877 TIP3 OH2  OT    -0.834000       15.9994           0
  103541 WT6  6877 TIP3 H1   HT     0.417000        1.0080           0
  103542 WT6  6877 TIP3 H2   HT     0.417000        1.0080           0
  103543 WT6  6882 TIP3 OH2  OT    -0.834000       15.9994           0
  103544 WT6  6882 TIP3 H1   HT     0.417000        1.0080           0
  103545 WT6  6882 TIP3 H2   HT     0.417000        1.0080           0
  103546 WT6  6889 TIP3 OH2  OT    -0.834000       15.9994           0
  103547 WT6  6889 TIP3 H1   HT     0.417000        1.0080           0
  103548 WT6  6889 TIP3 H2   HT     0.417000        1.0080           0
  103549 WT6  6894 TIP3 OH2  OT    -0.834000       15.9994           0
  103550 WT6  6894 TIP3 H1   HT     0.417000        1.0080           0
  103551 WT6  6894 TIP3 H2   HT     0.417000        1.0080           0
  103552 WT6  6897 TIP3 OH2  OT    -0.834000       15.9994           0
  103553 WT6  6897 TIP3 H1   HT     0.417000        1.0080           0
  103554 WT6  6897 TIP3 H2   HT     0.417000        1.0080           0
  103555 WT6  6901 TIP3 OH2  OT    -0.834000       15.9994           0
  103556 WT6  6901 TIP3 H1   HT     0.417000        1.0080           0
  103557 WT6  6901 TIP3 H2   HT     0.417000        1.0080           0
  103558 WT6  6902 TIP3 OH2  OT    -0.834000       15.9994           0
  103559 WT6  6902 TIP3 H1   HT     0.417000        1.0080           0
  103560 WT6  6902 TIP3 H2   HT     0.417000        1.0080           0
  103561 WT6  6917 TIP3 OH2  OT    -0.834000       15.9994           0
  103562 WT6  6917 TIP3 H1   HT     0.417000        1.0080           0
  103563 WT6  6917 TIP3 H2   HT     0.417000        1.0080           0
  103564 WT6  6918 TIP3 OH2  OT    -0.834000       15.9994           0
  103565 WT6  6918 TIP3 H1   HT     0.417000        1.0080           0
  103566 WT6  6918 TIP3 H2   HT     0.417000        1.0080           0
  103567 WT6  6928 TIP3 OH2  OT    -0.834000       15.9994           0
  103568 WT6  6928 TIP3 H1   HT     0.417000        1.0080           0
  103569 WT6  6928 TIP3 H2   HT     0.417000        1.0080           0
  103570 WT6  6930 TIP3 OH2  OT    -0.834000       15.9994           0
  103571 WT6  6930 TIP3 H1   HT     0.417000        1.0080           0
  103572 WT6  6930 TIP3 H2   HT     0.417000        1.0080           0
  103573 WT6  6939 TIP3 OH2  OT    -0.834000       15.9994           0
  103574 WT6  6939 TIP3 H1   HT     0.417000        1.0080           0
  103575 WT6  6939 TIP3 H2   HT     0.417000        1.0080           0
  103576 WT6  6942 TIP3 OH2  OT    -0.834000       15.9994           0
  103577 WT6  6942 TIP3 H1   HT     0.417000        1.0080           0
  103578 WT6  6942 TIP3 H2   HT     0.417000        1.0080           0
  103579 WT6  6952 TIP3 OH2  OT    -0.834000       15.9994           0
  103580 WT6  6952 TIP3 H1   HT     0.417000        1.0080           0
  103581 WT6  6952 TIP3 H2   HT     0.417000        1.0080           0
  103582 WT6  6954 TIP3 OH2  OT    -0.834000       15.9994           0
  103583 WT6  6954 TIP3 H1   HT     0.417000        1.0080           0
  103584 WT6  6954 TIP3 H2   HT     0.417000        1.0080           0
  103585 WT6  6956 TIP3 OH2  OT    -0.834000       15.9994           0
  103586 WT6  6956 TIP3 H1   HT     0.417000        1.0080           0
  103587 WT6  6956 TIP3 H2   HT     0.417000        1.0080           0
  103588 WT6  6957 TIP3 OH2  OT    -0.834000       15.9994           0
  103589 WT6  6957 TIP3 H1   HT     0.417000        1.0080           0
  103590 WT6  6957 TIP3 H2   HT     0.417000        1.0080           0
  103591 WT6  6960 TIP3 OH2  OT    -0.834000       15.9994           0
  103592 WT6  6960 TIP3 H1   HT     0.417000        1.0080           0
  103593 WT6  6960 TIP3 H2   HT     0.417000        1.0080           0
  103594 WT6  6961 TIP3 OH2  OT    -0.834000       15.9994           0
  103595 WT6  6961 TIP3 H1   HT     0.417000        1.0080           0
  103596 WT6  6961 TIP3 H2   HT     0.417000        1.0080           0
  103597 WT6  6962 TIP3 OH2  OT    -0.834000       15.9994           0
  103598 WT6  6962 TIP3 H1   HT     0.417000        1.0080           0
  103599 WT6  6962 TIP3 H2   HT     0.417000        1.0080           0
  103600 WT6  6975 TIP3 OH2  OT    -0.834000       15.9994           0
  103601 WT6  6975 TIP3 H1   HT     0.417000        1.0080           0
  103602 WT6  6975 TIP3 H2   HT     0.417000        1.0080           0
  103603 WT6  6979 TIP3 OH2  OT    -0.834000       15.9994           0
  103604 WT6  6979 TIP3 H1   HT     0.417000        1.0080           0
  103605 WT6  6979 TIP3 H2   HT     0.417000        1.0080           0
  103606 WT6  6980 TIP3 OH2  OT    -0.834000       15.9994           0
  103607 WT6  6980 TIP3 H1   HT     0.417000        1.0080           0
  103608 WT6  6980 TIP3 H2   HT     0.417000        1.0080           0
  103609 WT6  6981 TIP3 OH2  OT    -0.834000       15.9994           0
  103610 WT6  6981 TIP3 H1   HT     0.417000        1.0080           0
  103611 WT6  6981 TIP3 H2   HT     0.417000        1.0080           0
  103612 WT6  6984 TIP3 OH2  OT    -0.834000       15.9994           0
  103613 WT6  6984 TIP3 H1   HT     0.417000        1.0080           0
  103614 WT6  6984 TIP3 H2   HT     0.417000        1.0080           0
  103615 WT6  6986 TIP3 OH2  OT    -0.834000       15.9994           0
  103616 WT6  6986 TIP3 H1   HT     0.417000        1.0080           0
  103617 WT6  6986 TIP3 H2   HT     0.417000        1.0080           0
  103618 WT6  6995 TIP3 OH2  OT    -0.834000       15.9994           0
  103619 WT6  6995 TIP3 H1   HT     0.417000        1.0080           0
  103620 WT6  6995 TIP3 H2   HT     0.417000        1.0080           0
  103621 WT6  7000 TIP3 OH2  OT    -0.834000       15.9994           0
  103622 WT6  7000 TIP3 H1   HT     0.417000        1.0080           0
  103623 WT6  7000 TIP3 H2   HT     0.417000        1.0080           0
  103624 WT6  7014 TIP3 OH2  OT    -0.834000       15.9994           0
  103625 WT6  7014 TIP3 H1   HT     0.417000        1.0080           0
  103626 WT6  7014 TIP3 H2   HT     0.417000        1.0080           0
  103627 WT6  7015 TIP3 OH2  OT    -0.834000       15.9994           0
  103628 WT6  7015 TIP3 H1   HT     0.417000        1.0080           0
  103629 WT6  7015 TIP3 H2   HT     0.417000        1.0080           0
  103630 WT6  7017 TIP3 OH2  OT    -0.834000       15.9994           0
  103631 WT6  7017 TIP3 H1   HT     0.417000        1.0080           0
  103632 WT6  7017 TIP3 H2   HT     0.417000        1.0080           0
  103633 WT6  7018 TIP3 OH2  OT    -0.834000       15.9994           0
  103634 WT6  7018 TIP3 H1   HT     0.417000        1.0080           0
  103635 WT6  7018 TIP3 H2   HT     0.417000        1.0080           0
  103636 WT6  7019 TIP3 OH2  OT    -0.834000       15.9994           0
  103637 WT6  7019 TIP3 H1   HT     0.417000        1.0080           0
  103638 WT6  7019 TIP3 H2   HT     0.417000        1.0080           0
  103639 WT6  7021 TIP3 OH2  OT    -0.834000       15.9994           0
  103640 WT6  7021 TIP3 H1   HT     0.417000        1.0080           0
  103641 WT6  7021 TIP3 H2   HT     0.417000        1.0080           0
  103642 WT6  7022 TIP3 OH2  OT    -0.834000       15.9994           0
  103643 WT6  7022 TIP3 H1   HT     0.417000        1.0080           0
  103644 WT6  7022 TIP3 H2   HT     0.417000        1.0080           0
  103645 WT6  7024 TIP3 OH2  OT    -0.834000       15.9994           0
  103646 WT6  7024 TIP3 H1   HT     0.417000        1.0080           0
  103647 WT6  7024 TIP3 H2   HT     0.417000        1.0080           0
  103648 WT6  7027 TIP3 OH2  OT    -0.834000       15.9994           0
  103649 WT6  7027 TIP3 H1   HT     0.417000        1.0080           0
  103650 WT6  7027 TIP3 H2   HT     0.417000        1.0080           0
  103651 WT6  7041 TIP3 OH2  OT    -0.834000       15.9994           0
  103652 WT6  7041 TIP3 H1   HT     0.417000        1.0080           0
  103653 WT6  7041 TIP3 H2   HT     0.417000        1.0080           0
  103654 WT6  7044 TIP3 OH2  OT    -0.834000       15.9994           0
  103655 WT6  7044 TIP3 H1   HT     0.417000        1.0080           0
  103656 WT6  7044 TIP3 H2   HT     0.417000        1.0080           0
  103657 WT6  7045 TIP3 OH2  OT    -0.834000       15.9994           0
  103658 WT6  7045 TIP3 H1   HT     0.417000        1.0080           0
  103659 WT6  7045 TIP3 H2   HT     0.417000        1.0080           0
  103660 WT6  7052 TIP3 OH2  OT    -0.834000       15.9994           0
  103661 WT6  7052 TIP3 H1   HT     0.417000        1.0080           0
  103662 WT6  7052 TIP3 H2   HT     0.417000        1.0080           0
  103663 WT6  7058 TIP3 OH2  OT    -0.834000       15.9994           0
  103664 WT6  7058 TIP3 H1   HT     0.417000        1.0080           0
  103665 WT6  7058 TIP3 H2   HT     0.417000        1.0080           0
  103666 WT6  7061 TIP3 OH2  OT    -0.834000       15.9994           0
  103667 WT6  7061 TIP3 H1   HT     0.417000        1.0080           0
  103668 WT6  7061 TIP3 H2   HT     0.417000        1.0080           0
  103669 WT6  7062 TIP3 OH2  OT    -0.834000       15.9994           0
  103670 WT6  7062 TIP3 H1   HT     0.417000        1.0080           0
  103671 WT6  7062 TIP3 H2   HT     0.417000        1.0080           0
  103672 WT6  7067 TIP3 OH2  OT    -0.834000       15.9994           0
  103673 WT6  7067 TIP3 H1   HT     0.417000        1.0080           0
  103674 WT6  7067 TIP3 H2   HT     0.417000        1.0080           0
  103675 WT6  7068 TIP3 OH2  OT    -0.834000       15.9994           0
  103676 WT6  7068 TIP3 H1   HT     0.417000        1.0080           0
  103677 WT6  7068 TIP3 H2   HT     0.417000        1.0080           0
  103678 WT6  7078 TIP3 OH2  OT    -0.834000       15.9994           0
  103679 WT6  7078 TIP3 H1   HT     0.417000        1.0080           0
  103680 WT6  7078 TIP3 H2   HT     0.417000        1.0080           0
  103681 WT6  7099 TIP3 OH2  OT    -0.834000       15.9994           0
  103682 WT6  7099 TIP3 H1   HT     0.417000        1.0080           0
  103683 WT6  7099 TIP3 H2   HT     0.417000        1.0080           0
  103684 WT6  7105 TIP3 OH2  OT    -0.834000       15.9994           0
  103685 WT6  7105 TIP3 H1   HT     0.417000        1.0080           0
  103686 WT6  7105 TIP3 H2   HT     0.417000        1.0080           0
  103687 WT6  7109 TIP3 OH2  OT    -0.834000       15.9994           0
  103688 WT6  7109 TIP3 H1   HT     0.417000        1.0080           0
  103689 WT6  7109 TIP3 H2   HT     0.417000        1.0080           0
  103690 WT6  7121 TIP3 OH2  OT    -0.834000       15.9994           0
  103691 WT6  7121 TIP3 H1   HT     0.417000        1.0080           0
  103692 WT6  7121 TIP3 H2   HT     0.417000        1.0080           0
  103693 WT6  7122 TIP3 OH2  OT    -0.834000       15.9994           0
  103694 WT6  7122 TIP3 H1   HT     0.417000        1.0080           0
  103695 WT6  7122 TIP3 H2   HT     0.417000        1.0080           0
  103696 WT6  7123 TIP3 OH2  OT    -0.834000       15.9994           0
  103697 WT6  7123 TIP3 H1   HT     0.417000        1.0080           0
  103698 WT6  7123 TIP3 H2   HT     0.417000        1.0080           0
  103699 WT6  7125 TIP3 OH2  OT    -0.834000       15.9994           0
  103700 WT6  7125 TIP3 H1   HT     0.417000        1.0080           0
  103701 WT6  7125 TIP3 H2   HT     0.417000        1.0080           0
  103702 WT6  7130 TIP3 OH2  OT    -0.834000       15.9994           0
  103703 WT6  7130 TIP3 H1   HT     0.417000        1.0080           0
  103704 WT6  7130 TIP3 H2   HT     0.417000        1.0080           0
  103705 WT6  7132 TIP3 OH2  OT    -0.834000       15.9994           0
  103706 WT6  7132 TIP3 H1   HT     0.417000        1.0080           0
  103707 WT6  7132 TIP3 H2   HT     0.417000        1.0080           0
  103708 WT6  7133 TIP3 OH2  OT    -0.834000       15.9994           0
  103709 WT6  7133 TIP3 H1   HT     0.417000        1.0080           0
  103710 WT6  7133 TIP3 H2   HT     0.417000        1.0080           0
  103711 WT6  7141 TIP3 OH2  OT    -0.834000       15.9994           0
  103712 WT6  7141 TIP3 H1   HT     0.417000        1.0080           0
  103713 WT6  7141 TIP3 H2   HT     0.417000        1.0080           0
  103714 WT6  7145 TIP3 OH2  OT    -0.834000       15.9994           0
  103715 WT6  7145 TIP3 H1   HT     0.417000        1.0080           0
  103716 WT6  7145 TIP3 H2   HT     0.417000        1.0080           0
  103717 WT6  7147 TIP3 OH2  OT    -0.834000       15.9994           0
  103718 WT6  7147 TIP3 H1   HT     0.417000        1.0080           0
  103719 WT6  7147 TIP3 H2   HT     0.417000        1.0080           0
  103720 WT6  7166 TIP3 OH2  OT    -0.834000       15.9994           0
  103721 WT6  7166 TIP3 H1   HT     0.417000        1.0080           0
  103722 WT6  7166 TIP3 H2   HT     0.417000        1.0080           0
  103723 WT6  7168 TIP3 OH2  OT    -0.834000       15.9994           0
  103724 WT6  7168 TIP3 H1   HT     0.417000        1.0080           0
  103725 WT6  7168 TIP3 H2   HT     0.417000        1.0080           0
  103726 WT6  7170 TIP3 OH2  OT    -0.834000       15.9994           0
  103727 WT6  7170 TIP3 H1   HT     0.417000        1.0080           0
  103728 WT6  7170 TIP3 H2   HT     0.417000        1.0080           0
  103729 WT6  7171 TIP3 OH2  OT    -0.834000       15.9994           0
  103730 WT6  7171 TIP3 H1   HT     0.417000        1.0080           0
  103731 WT6  7171 TIP3 H2   HT     0.417000        1.0080           0
  103732 WT6  7174 TIP3 OH2  OT    -0.834000       15.9994           0
  103733 WT6  7174 TIP3 H1   HT     0.417000        1.0080           0
  103734 WT6  7174 TIP3 H2   HT     0.417000        1.0080           0
  103735 WT6  7176 TIP3 OH2  OT    -0.834000       15.9994           0
  103736 WT6  7176 TIP3 H1   HT     0.417000        1.0080           0
  103737 WT6  7176 TIP3 H2   HT     0.417000        1.0080           0
  103738 WT6  7182 TIP3 OH2  OT    -0.834000       15.9994           0
  103739 WT6  7182 TIP3 H1   HT     0.417000        1.0080           0
  103740 WT6  7182 TIP3 H2   HT     0.417000        1.0080           0
  103741 WT6  7185 TIP3 OH2  OT    -0.834000       15.9994           0
  103742 WT6  7185 TIP3 H1   HT     0.417000        1.0080           0
  103743 WT6  7185 TIP3 H2   HT     0.417000        1.0080           0
  103744 WT6  7192 TIP3 OH2  OT    -0.834000       15.9994           0
  103745 WT6  7192 TIP3 H1   HT     0.417000        1.0080           0
  103746 WT6  7192 TIP3 H2   HT     0.417000        1.0080           0
  103747 WT6  7193 TIP3 OH2  OT    -0.834000       15.9994           0
  103748 WT6  7193 TIP3 H1   HT     0.417000        1.0080           0
  103749 WT6  7193 TIP3 H2   HT     0.417000        1.0080           0
  103750 WT6  7196 TIP3 OH2  OT    -0.834000       15.9994           0
  103751 WT6  7196 TIP3 H1   HT     0.417000        1.0080           0
  103752 WT6  7196 TIP3 H2   HT     0.417000        1.0080           0
  103753 WT6  7198 TIP3 OH2  OT    -0.834000       15.9994           0
  103754 WT6  7198 TIP3 H1   HT     0.417000        1.0080           0
  103755 WT6  7198 TIP3 H2   HT     0.417000        1.0080           0
  103756 WT6  7203 TIP3 OH2  OT    -0.834000       15.9994           0
  103757 WT6  7203 TIP3 H1   HT     0.417000        1.0080           0
  103758 WT6  7203 TIP3 H2   HT     0.417000        1.0080           0
  103759 WT6  7210 TIP3 OH2  OT    -0.834000       15.9994           0
  103760 WT6  7210 TIP3 H1   HT     0.417000        1.0080           0
  103761 WT6  7210 TIP3 H2   HT     0.417000        1.0080           0
  103762 WT6  7215 TIP3 OH2  OT    -0.834000       15.9994           0
  103763 WT6  7215 TIP3 H1   HT     0.417000        1.0080           0
  103764 WT6  7215 TIP3 H2   HT     0.417000        1.0080           0
  103765 WT6  7216 TIP3 OH2  OT    -0.834000       15.9994           0
  103766 WT6  7216 TIP3 H1   HT     0.417000        1.0080           0
  103767 WT6  7216 TIP3 H2   HT     0.417000        1.0080           0
  103768 WT6  7218 TIP3 OH2  OT    -0.834000       15.9994           0
  103769 WT6  7218 TIP3 H1   HT     0.417000        1.0080           0
  103770 WT6  7218 TIP3 H2   HT     0.417000        1.0080           0
  103771 WT6  7222 TIP3 OH2  OT    -0.834000       15.9994           0
  103772 WT6  7222 TIP3 H1   HT     0.417000        1.0080           0
  103773 WT6  7222 TIP3 H2   HT     0.417000        1.0080           0
  103774 WT6  7231 TIP3 OH2  OT    -0.834000       15.9994           0
  103775 WT6  7231 TIP3 H1   HT     0.417000        1.0080           0
  103776 WT6  7231 TIP3 H2   HT     0.417000        1.0080           0
  103777 WT6  7252 TIP3 OH2  OT    -0.834000       15.9994           0
  103778 WT6  7252 TIP3 H1   HT     0.417000        1.0080           0
  103779 WT6  7252 TIP3 H2   HT     0.417000        1.0080           0
  103780 WT6  7257 TIP3 OH2  OT    -0.834000       15.9994           0
  103781 WT6  7257 TIP3 H1   HT     0.417000        1.0080           0
  103782 WT6  7257 TIP3 H2   HT     0.417000        1.0080           0
  103783 WT6  7262 TIP3 OH2  OT    -0.834000       15.9994           0
  103784 WT6  7262 TIP3 H1   HT     0.417000        1.0080           0
  103785 WT6  7262 TIP3 H2   HT     0.417000        1.0080           0
  103786 WT6  7271 TIP3 OH2  OT    -0.834000       15.9994           0
  103787 WT6  7271 TIP3 H1   HT     0.417000        1.0080           0
  103788 WT6  7271 TIP3 H2   HT     0.417000        1.0080           0
  103789 WT6  7274 TIP3 OH2  OT    -0.834000       15.9994           0
  103790 WT6  7274 TIP3 H1   HT     0.417000        1.0080           0
  103791 WT6  7274 TIP3 H2   HT     0.417000        1.0080           0
  103792 WT6  7295 TIP3 OH2  OT    -0.834000       15.9994           0
  103793 WT6  7295 TIP3 H1   HT     0.417000        1.0080           0
  103794 WT6  7295 TIP3 H2   HT     0.417000        1.0080           0
  103795 WT6  7296 TIP3 OH2  OT    -0.834000       15.9994           0
  103796 WT6  7296 TIP3 H1   HT     0.417000        1.0080           0
  103797 WT6  7296 TIP3 H2   HT     0.417000        1.0080           0
  103798 WT6  7305 TIP3 OH2  OT    -0.834000       15.9994           0
  103799 WT6  7305 TIP3 H1   HT     0.417000        1.0080           0
  103800 WT6  7305 TIP3 H2   HT     0.417000        1.0080           0
  103801 WT6  7312 TIP3 OH2  OT    -0.834000       15.9994           0
  103802 WT6  7312 TIP3 H1   HT     0.417000        1.0080           0
  103803 WT6  7312 TIP3 H2   HT     0.417000        1.0080           0
  103804 WT6  7314 TIP3 OH2  OT    -0.834000       15.9994           0
  103805 WT6  7314 TIP3 H1   HT     0.417000        1.0080           0
  103806 WT6  7314 TIP3 H2   HT     0.417000        1.0080           0
  103807 WT6  7316 TIP3 OH2  OT    -0.834000       15.9994           0
  103808 WT6  7316 TIP3 H1   HT     0.417000        1.0080           0
  103809 WT6  7316 TIP3 H2   HT     0.417000        1.0080           0
  103810 WT6  7321 TIP3 OH2  OT    -0.834000       15.9994           0
  103811 WT6  7321 TIP3 H1   HT     0.417000        1.0080           0
  103812 WT6  7321 TIP3 H2   HT     0.417000        1.0080           0
  103813 WT6  7331 TIP3 OH2  OT    -0.834000       15.9994           0
  103814 WT6  7331 TIP3 H1   HT     0.417000        1.0080           0
  103815 WT6  7331 TIP3 H2   HT     0.417000        1.0080           0
  103816 WT6  7335 TIP3 OH2  OT    -0.834000       15.9994           0
  103817 WT6  7335 TIP3 H1   HT     0.417000        1.0080           0
  103818 WT6  7335 TIP3 H2   HT     0.417000        1.0080           0
  103819 WT6  7351 TIP3 OH2  OT    -0.834000       15.9994           0
  103820 WT6  7351 TIP3 H1   HT     0.417000        1.0080           0
  103821 WT6  7351 TIP3 H2   HT     0.417000        1.0080           0
  103822 WT6  7352 TIP3 OH2  OT    -0.834000       15.9994           0
  103823 WT6  7352 TIP3 H1   HT     0.417000        1.0080           0
  103824 WT6  7352 TIP3 H2   HT     0.417000        1.0080           0
  103825 WT6  7374 TIP3 OH2  OT    -0.834000       15.9994           0
  103826 WT6  7374 TIP3 H1   HT     0.417000        1.0080           0
  103827 WT6  7374 TIP3 H2   HT     0.417000        1.0080           0
  103828 WT6  7384 TIP3 OH2  OT    -0.834000       15.9994           0
  103829 WT6  7384 TIP3 H1   HT     0.417000        1.0080           0
  103830 WT6  7384 TIP3 H2   HT     0.417000        1.0080           0
  103831 WT6  7395 TIP3 OH2  OT    -0.834000       15.9994           0
  103832 WT6  7395 TIP3 H1   HT     0.417000        1.0080           0
  103833 WT6  7395 TIP3 H2   HT     0.417000        1.0080           0
  103834 WT6  7396 TIP3 OH2  OT    -0.834000       15.9994           0
  103835 WT6  7396 TIP3 H1   HT     0.417000        1.0080           0
  103836 WT6  7396 TIP3 H2   HT     0.417000        1.0080           0
  103837 WT6  7397 TIP3 OH2  OT    -0.834000       15.9994           0
  103838 WT6  7397 TIP3 H1   HT     0.417000        1.0080           0
  103839 WT6  7397 TIP3 H2   HT     0.417000        1.0080           0
  103840 WT6  7398 TIP3 OH2  OT    -0.834000       15.9994           0
  103841 WT6  7398 TIP3 H1   HT     0.417000        1.0080           0
  103842 WT6  7398 TIP3 H2   HT     0.417000        1.0080           0
  103843 WT6  7400 TIP3 OH2  OT    -0.834000       15.9994           0
  103844 WT6  7400 TIP3 H1   HT     0.417000        1.0080           0
  103845 WT6  7400 TIP3 H2   HT     0.417000        1.0080           0
  103846 WT6  7405 TIP3 OH2  OT    -0.834000       15.9994           0
  103847 WT6  7405 TIP3 H1   HT     0.417000        1.0080           0
  103848 WT6  7405 TIP3 H2   HT     0.417000        1.0080           0
  103849 WT6  7420 TIP3 OH2  OT    -0.834000       15.9994           0
  103850 WT6  7420 TIP3 H1   HT     0.417000        1.0080           0
  103851 WT6  7420 TIP3 H2   HT     0.417000        1.0080           0
  103852 WT6  7425 TIP3 OH2  OT    -0.834000       15.9994           0
  103853 WT6  7425 TIP3 H1   HT     0.417000        1.0080           0
  103854 WT6  7425 TIP3 H2   HT     0.417000        1.0080           0
  103855 WT6  7437 TIP3 OH2  OT    -0.834000       15.9994           0
  103856 WT6  7437 TIP3 H1   HT     0.417000        1.0080           0
  103857 WT6  7437 TIP3 H2   HT     0.417000        1.0080           0
  103858 WT6  7438 TIP3 OH2  OT    -0.834000       15.9994           0
  103859 WT6  7438 TIP3 H1   HT     0.417000        1.0080           0
  103860 WT6  7438 TIP3 H2   HT     0.417000        1.0080           0
  103861 WT6  7444 TIP3 OH2  OT    -0.834000       15.9994           0
  103862 WT6  7444 TIP3 H1   HT     0.417000        1.0080           0
  103863 WT6  7444 TIP3 H2   HT     0.417000        1.0080           0
  103864 WT6  7449 TIP3 OH2  OT    -0.834000       15.9994           0
  103865 WT6  7449 TIP3 H1   HT     0.417000        1.0080           0
  103866 WT6  7449 TIP3 H2   HT     0.417000        1.0080           0
  103867 WT6  7479 TIP3 OH2  OT    -0.834000       15.9994           0
  103868 WT6  7479 TIP3 H1   HT     0.417000        1.0080           0
  103869 WT6  7479 TIP3 H2   HT     0.417000        1.0080           0
  103870 WT6  7481 TIP3 OH2  OT    -0.834000       15.9994           0
  103871 WT6  7481 TIP3 H1   HT     0.417000        1.0080           0
  103872 WT6  7481 TIP3 H2   HT     0.417000        1.0080           0
  103873 WT6  7484 TIP3 OH2  OT    -0.834000       15.9994           0
  103874 WT6  7484 TIP3 H1   HT     0.417000        1.0080           0
  103875 WT6  7484 TIP3 H2   HT     0.417000        1.0080           0
  103876 WT6  7488 TIP3 OH2  OT    -0.834000       15.9994           0
  103877 WT6  7488 TIP3 H1   HT     0.417000        1.0080           0
  103878 WT6  7488 TIP3 H2   HT     0.417000        1.0080           0
  103879 WT6  7501 TIP3 OH2  OT    -0.834000       15.9994           0
  103880 WT6  7501 TIP3 H1   HT     0.417000        1.0080           0
  103881 WT6  7501 TIP3 H2   HT     0.417000        1.0080           0
  103882 WT6  7510 TIP3 OH2  OT    -0.834000       15.9994           0
  103883 WT6  7510 TIP3 H1   HT     0.417000        1.0080           0
  103884 WT6  7510 TIP3 H2   HT     0.417000        1.0080           0
  103885 WT6  7525 TIP3 OH2  OT    -0.834000       15.9994           0
  103886 WT6  7525 TIP3 H1   HT     0.417000        1.0080           0
  103887 WT6  7525 TIP3 H2   HT     0.417000        1.0080           0
  103888 WT6  7532 TIP3 OH2  OT    -0.834000       15.9994           0
  103889 WT6  7532 TIP3 H1   HT     0.417000        1.0080           0
  103890 WT6  7532 TIP3 H2   HT     0.417000        1.0080           0
  103891 WT6  7543 TIP3 OH2  OT    -0.834000       15.9994           0
  103892 WT6  7543 TIP3 H1   HT     0.417000        1.0080           0
  103893 WT6  7543 TIP3 H2   HT     0.417000        1.0080           0
  103894 WT6  7557 TIP3 OH2  OT    -0.834000       15.9994           0
  103895 WT6  7557 TIP3 H1   HT     0.417000        1.0080           0
  103896 WT6  7557 TIP3 H2   HT     0.417000        1.0080           0
  103897 WT6  7563 TIP3 OH2  OT    -0.834000       15.9994           0
  103898 WT6  7563 TIP3 H1   HT     0.417000        1.0080           0
  103899 WT6  7563 TIP3 H2   HT     0.417000        1.0080           0
  103900 WT6  7567 TIP3 OH2  OT    -0.834000       15.9994           0
  103901 WT6  7567 TIP3 H1   HT     0.417000        1.0080           0
  103902 WT6  7567 TIP3 H2   HT     0.417000        1.0080           0
  103903 WT6  7568 TIP3 OH2  OT    -0.834000       15.9994           0
  103904 WT6  7568 TIP3 H1   HT     0.417000        1.0080           0
  103905 WT6  7568 TIP3 H2   HT     0.417000        1.0080           0
  103906 WT6  7572 TIP3 OH2  OT    -0.834000       15.9994           0
  103907 WT6  7572 TIP3 H1   HT     0.417000        1.0080           0
  103908 WT6  7572 TIP3 H2   HT     0.417000        1.0080           0
  103909 WT6  7583 TIP3 OH2  OT    -0.834000       15.9994           0
  103910 WT6  7583 TIP3 H1   HT     0.417000        1.0080           0
  103911 WT6  7583 TIP3 H2   HT     0.417000        1.0080           0
  103912 WT6  7592 TIP3 OH2  OT    -0.834000       15.9994           0
  103913 WT6  7592 TIP3 H1   HT     0.417000        1.0080           0
  103914 WT6  7592 TIP3 H2   HT     0.417000        1.0080           0
  103915 WT6  7597 TIP3 OH2  OT    -0.834000       15.9994           0
  103916 WT6  7597 TIP3 H1   HT     0.417000        1.0080           0
  103917 WT6  7597 TIP3 H2   HT     0.417000        1.0080           0
  103918 WT6  7603 TIP3 OH2  OT    -0.834000       15.9994           0
  103919 WT6  7603 TIP3 H1   HT     0.417000        1.0080           0
  103920 WT6  7603 TIP3 H2   HT     0.417000        1.0080           0
  103921 WT6  7605 TIP3 OH2  OT    -0.834000       15.9994           0
  103922 WT6  7605 TIP3 H1   HT     0.417000        1.0080           0
  103923 WT6  7605 TIP3 H2   HT     0.417000        1.0080           0
  103924 WT6  7607 TIP3 OH2  OT    -0.834000       15.9994           0
  103925 WT6  7607 TIP3 H1   HT     0.417000        1.0080           0
  103926 WT6  7607 TIP3 H2   HT     0.417000        1.0080           0
  103927 WT6  7612 TIP3 OH2  OT    -0.834000       15.9994           0
  103928 WT6  7612 TIP3 H1   HT     0.417000        1.0080           0
  103929 WT6  7612 TIP3 H2   HT     0.417000        1.0080           0
  103930 WT6  7617 TIP3 OH2  OT    -0.834000       15.9994           0
  103931 WT6  7617 TIP3 H1   HT     0.417000        1.0080           0
  103932 WT6  7617 TIP3 H2   HT     0.417000        1.0080           0
  103933 WT6  7630 TIP3 OH2  OT    -0.834000       15.9994           0
  103934 WT6  7630 TIP3 H1   HT     0.417000        1.0080           0
  103935 WT6  7630 TIP3 H2   HT     0.417000        1.0080           0
  103936 WT6  7631 TIP3 OH2  OT    -0.834000       15.9994           0
  103937 WT6  7631 TIP3 H1   HT     0.417000        1.0080           0
  103938 WT6  7631 TIP3 H2   HT     0.417000        1.0080           0
  103939 WT6  7634 TIP3 OH2  OT    -0.834000       15.9994           0
  103940 WT6  7634 TIP3 H1   HT     0.417000        1.0080           0
  103941 WT6  7634 TIP3 H2   HT     0.417000        1.0080           0
  103942 WT6  7638 TIP3 OH2  OT    -0.834000       15.9994           0
  103943 WT6  7638 TIP3 H1   HT     0.417000        1.0080           0
  103944 WT6  7638 TIP3 H2   HT     0.417000        1.0080           0
  103945 WT6  7643 TIP3 OH2  OT    -0.834000       15.9994           0
  103946 WT6  7643 TIP3 H1   HT     0.417000        1.0080           0
  103947 WT6  7643 TIP3 H2   HT     0.417000        1.0080           0
  103948 WT6  7647 TIP3 OH2  OT    -0.834000       15.9994           0
  103949 WT6  7647 TIP3 H1   HT     0.417000        1.0080           0
  103950 WT6  7647 TIP3 H2   HT     0.417000        1.0080           0
  103951 WT6  7650 TIP3 OH2  OT    -0.834000       15.9994           0
  103952 WT6  7650 TIP3 H1   HT     0.417000        1.0080           0
  103953 WT6  7650 TIP3 H2   HT     0.417000        1.0080           0
  103954 WT6  7661 TIP3 OH2  OT    -0.834000       15.9994           0
  103955 WT6  7661 TIP3 H1   HT     0.417000        1.0080           0
  103956 WT6  7661 TIP3 H2   HT     0.417000        1.0080           0
  103957 WT6  7668 TIP3 OH2  OT    -0.834000       15.9994           0
  103958 WT6  7668 TIP3 H1   HT     0.417000        1.0080           0
  103959 WT6  7668 TIP3 H2   HT     0.417000        1.0080           0
  103960 WT6  7675 TIP3 OH2  OT    -0.834000       15.9994           0
  103961 WT6  7675 TIP3 H1   HT     0.417000        1.0080           0
  103962 WT6  7675 TIP3 H2   HT     0.417000        1.0080           0
  103963 WT6  7676 TIP3 OH2  OT    -0.834000       15.9994           0
  103964 WT6  7676 TIP3 H1   HT     0.417000        1.0080           0
  103965 WT6  7676 TIP3 H2   HT     0.417000        1.0080           0
  103966 WT6  7689 TIP3 OH2  OT    -0.834000       15.9994           0
  103967 WT6  7689 TIP3 H1   HT     0.417000        1.0080           0
  103968 WT6  7689 TIP3 H2   HT     0.417000        1.0080           0
  103969 WT6  7690 TIP3 OH2  OT    -0.834000       15.9994           0
  103970 WT6  7690 TIP3 H1   HT     0.417000        1.0080           0
  103971 WT6  7690 TIP3 H2   HT     0.417000        1.0080           0
  103972 WT6  7692 TIP3 OH2  OT    -0.834000       15.9994           0
  103973 WT6  7692 TIP3 H1   HT     0.417000        1.0080           0
  103974 WT6  7692 TIP3 H2   HT     0.417000        1.0080           0
  103975 WT6  7698 TIP3 OH2  OT    -0.834000       15.9994           0
  103976 WT6  7698 TIP3 H1   HT     0.417000        1.0080           0
  103977 WT6  7698 TIP3 H2   HT     0.417000        1.0080           0
  103978 WT6  7700 TIP3 OH2  OT    -0.834000       15.9994           0
  103979 WT6  7700 TIP3 H1   HT     0.417000        1.0080           0
  103980 WT6  7700 TIP3 H2   HT     0.417000        1.0080           0
  103981 WT6  7702 TIP3 OH2  OT    -0.834000       15.9994           0
  103982 WT6  7702 TIP3 H1   HT     0.417000        1.0080           0
  103983 WT6  7702 TIP3 H2   HT     0.417000        1.0080           0
  103984 WT6  7707 TIP3 OH2  OT    -0.834000       15.9994           0
  103985 WT6  7707 TIP3 H1   HT     0.417000        1.0080           0
  103986 WT6  7707 TIP3 H2   HT     0.417000        1.0080           0
  103987 WT6  7711 TIP3 OH2  OT    -0.834000       15.9994           0
  103988 WT6  7711 TIP3 H1   HT     0.417000        1.0080           0
  103989 WT6  7711 TIP3 H2   HT     0.417000        1.0080           0
  103990 WT6  7712 TIP3 OH2  OT    -0.834000       15.9994           0
  103991 WT6  7712 TIP3 H1   HT     0.417000        1.0080           0
  103992 WT6  7712 TIP3 H2   HT     0.417000        1.0080           0
  103993 WT6  7714 TIP3 OH2  OT    -0.834000       15.9994           0
  103994 WT6  7714 TIP3 H1   HT     0.417000        1.0080           0
  103995 WT6  7714 TIP3 H2   HT     0.417000        1.0080           0
  103996 WT6  7715 TIP3 OH2  OT    -0.834000       15.9994           0
  103997 WT6  7715 TIP3 H1   HT     0.417000        1.0080           0
  103998 WT6  7715 TIP3 H2   HT     0.417000        1.0080           0
  103999 WT6  7716 TIP3 OH2  OT    -0.834000       15.9994           0
  104000 WT6  7716 TIP3 H1   HT     0.417000        1.0080           0
  104001 WT6  7716 TIP3 H2   HT     0.417000        1.0080           0
  104002 WT6  7736 TIP3 OH2  OT    -0.834000       15.9994           0
  104003 WT6  7736 TIP3 H1   HT     0.417000        1.0080           0
  104004 WT6  7736 TIP3 H2   HT     0.417000        1.0080           0
  104005 WT6  7739 TIP3 OH2  OT    -0.834000       15.9994           0
  104006 WT6  7739 TIP3 H1   HT     0.417000        1.0080           0
  104007 WT6  7739 TIP3 H2   HT     0.417000        1.0080           0
  104008 WT6  7748 TIP3 OH2  OT    -0.834000       15.9994           0
  104009 WT6  7748 TIP3 H1   HT     0.417000        1.0080           0
  104010 WT6  7748 TIP3 H2   HT     0.417000        1.0080           0
  104011 WT6  7750 TIP3 OH2  OT    -0.834000       15.9994           0
  104012 WT6  7750 TIP3 H1   HT     0.417000        1.0080           0
  104013 WT6  7750 TIP3 H2   HT     0.417000        1.0080           0
  104014 WT6  7754 TIP3 OH2  OT    -0.834000       15.9994           0
  104015 WT6  7754 TIP3 H1   HT     0.417000        1.0080           0
  104016 WT6  7754 TIP3 H2   HT     0.417000        1.0080           0
  104017 WT6  7755 TIP3 OH2  OT    -0.834000       15.9994           0
  104018 WT6  7755 TIP3 H1   HT     0.417000        1.0080           0
  104019 WT6  7755 TIP3 H2   HT     0.417000        1.0080           0
  104020 WT6  7756 TIP3 OH2  OT    -0.834000       15.9994           0
  104021 WT6  7756 TIP3 H1   HT     0.417000        1.0080           0
  104022 WT6  7756 TIP3 H2   HT     0.417000        1.0080           0
  104023 WT6  7762 TIP3 OH2  OT    -0.834000       15.9994           0
  104024 WT6  7762 TIP3 H1   HT     0.417000        1.0080           0
  104025 WT6  7762 TIP3 H2   HT     0.417000        1.0080           0
  104026 WT6  7773 TIP3 OH2  OT    -0.834000       15.9994           0
  104027 WT6  7773 TIP3 H1   HT     0.417000        1.0080           0
  104028 WT6  7773 TIP3 H2   HT     0.417000        1.0080           0
  104029 WT6  7798 TIP3 OH2  OT    -0.834000       15.9994           0
  104030 WT6  7798 TIP3 H1   HT     0.417000        1.0080           0
  104031 WT6  7798 TIP3 H2   HT     0.417000        1.0080           0
  104032 WT6  7825 TIP3 OH2  OT    -0.834000       15.9994           0
  104033 WT6  7825 TIP3 H1   HT     0.417000        1.0080           0
  104034 WT6  7825 TIP3 H2   HT     0.417000        1.0080           0
  104035 WT6  7833 TIP3 OH2  OT    -0.834000       15.9994           0
  104036 WT6  7833 TIP3 H1   HT     0.417000        1.0080           0
  104037 WT6  7833 TIP3 H2   HT     0.417000        1.0080           0
  104038 WT6  7846 TIP3 OH2  OT    -0.834000       15.9994           0
  104039 WT6  7846 TIP3 H1   HT     0.417000        1.0080           0
  104040 WT6  7846 TIP3 H2   HT     0.417000        1.0080           0
  104041 WT6  7859 TIP3 OH2  OT    -0.834000       15.9994           0
  104042 WT6  7859 TIP3 H1   HT     0.417000        1.0080           0
  104043 WT6  7859 TIP3 H2   HT     0.417000        1.0080           0
  104044 WT6  7860 TIP3 OH2  OT    -0.834000       15.9994           0
  104045 WT6  7860 TIP3 H1   HT     0.417000        1.0080           0
  104046 WT6  7860 TIP3 H2   HT     0.417000        1.0080           0
  104047 WT6  7873 TIP3 OH2  OT    -0.834000       15.9994           0
  104048 WT6  7873 TIP3 H1   HT     0.417000        1.0080           0
  104049 WT6  7873 TIP3 H2   HT     0.417000        1.0080           0
  104050 WT6  7888 TIP3 OH2  OT    -0.834000       15.9994           0
  104051 WT6  7888 TIP3 H1   HT     0.417000        1.0080           0
  104052 WT6  7888 TIP3 H2   HT     0.417000        1.0080           0
  104053 WT6  7904 TIP3 OH2  OT    -0.834000       15.9994           0
  104054 WT6  7904 TIP3 H1   HT     0.417000        1.0080           0
  104055 WT6  7904 TIP3 H2   HT     0.417000        1.0080           0
  104056 WT6  7905 TIP3 OH2  OT    -0.834000       15.9994           0
  104057 WT6  7905 TIP3 H1   HT     0.417000        1.0080           0
  104058 WT6  7905 TIP3 H2   HT     0.417000        1.0080           0
  104059 WT6  7920 TIP3 OH2  OT    -0.834000       15.9994           0
  104060 WT6  7920 TIP3 H1   HT     0.417000        1.0080           0
  104061 WT6  7920 TIP3 H2   HT     0.417000        1.0080           0
  104062 WT6  7925 TIP3 OH2  OT    -0.834000       15.9994           0
  104063 WT6  7925 TIP3 H1   HT     0.417000        1.0080           0
  104064 WT6  7925 TIP3 H2   HT     0.417000        1.0080           0
  104065 WT6  7944 TIP3 OH2  OT    -0.834000       15.9994           0
  104066 WT6  7944 TIP3 H1   HT     0.417000        1.0080           0
  104067 WT6  7944 TIP3 H2   HT     0.417000        1.0080           0
  104068 WT6  7945 TIP3 OH2  OT    -0.834000       15.9994           0
  104069 WT6  7945 TIP3 H1   HT     0.417000        1.0080           0
  104070 WT6  7945 TIP3 H2   HT     0.417000        1.0080           0
  104071 WT6  7951 TIP3 OH2  OT    -0.834000       15.9994           0
  104072 WT6  7951 TIP3 H1   HT     0.417000        1.0080           0
  104073 WT6  7951 TIP3 H2   HT     0.417000        1.0080           0
  104074 WT6  7959 TIP3 OH2  OT    -0.834000       15.9994           0
  104075 WT6  7959 TIP3 H1   HT     0.417000        1.0080           0
  104076 WT6  7959 TIP3 H2   HT     0.417000        1.0080           0
  104077 WT6  7964 TIP3 OH2  OT    -0.834000       15.9994           0
  104078 WT6  7964 TIP3 H1   HT     0.417000        1.0080           0
  104079 WT6  7964 TIP3 H2   HT     0.417000        1.0080           0
  104080 WT6  7979 TIP3 OH2  OT    -0.834000       15.9994           0
  104081 WT6  7979 TIP3 H1   HT     0.417000        1.0080           0
  104082 WT6  7979 TIP3 H2   HT     0.417000        1.0080           0
  104083 WT6  7985 TIP3 OH2  OT    -0.834000       15.9994           0
  104084 WT6  7985 TIP3 H1   HT     0.417000        1.0080           0
  104085 WT6  7985 TIP3 H2   HT     0.417000        1.0080           0
  104086 WT6  7988 TIP3 OH2  OT    -0.834000       15.9994           0
  104087 WT6  7988 TIP3 H1   HT     0.417000        1.0080           0
  104088 WT6  7988 TIP3 H2   HT     0.417000        1.0080           0
  104089 WT6  8014 TIP3 OH2  OT    -0.834000       15.9994           0
  104090 WT6  8014 TIP3 H1   HT     0.417000        1.0080           0
  104091 WT6  8014 TIP3 H2   HT     0.417000        1.0080           0
  104092 WT6  8023 TIP3 OH2  OT    -0.834000       15.9994           0
  104093 WT6  8023 TIP3 H1   HT     0.417000        1.0080           0
  104094 WT6  8023 TIP3 H2   HT     0.417000        1.0080           0
  104095 WT6  8024 TIP3 OH2  OT    -0.834000       15.9994           0
  104096 WT6  8024 TIP3 H1   HT     0.417000        1.0080           0
  104097 WT6  8024 TIP3 H2   HT     0.417000        1.0080           0
  104098 WT6  8029 TIP3 OH2  OT    -0.834000       15.9994           0
  104099 WT6  8029 TIP3 H1   HT     0.417000        1.0080           0
  104100 WT6  8029 TIP3 H2   HT     0.417000        1.0080           0
  104101 WT6  8030 TIP3 OH2  OT    -0.834000       15.9994           0
  104102 WT6  8030 TIP3 H1   HT     0.417000        1.0080           0
  104103 WT6  8030 TIP3 H2   HT     0.417000        1.0080           0
  104104 WT6  8031 TIP3 OH2  OT    -0.834000       15.9994           0
  104105 WT6  8031 TIP3 H1   HT     0.417000        1.0080           0
  104106 WT6  8031 TIP3 H2   HT     0.417000        1.0080           0
  104107 WT6  8046 TIP3 OH2  OT    -0.834000       15.9994           0
  104108 WT6  8046 TIP3 H1   HT     0.417000        1.0080           0
  104109 WT6  8046 TIP3 H2   HT     0.417000        1.0080           0
  104110 WT6  8055 TIP3 OH2  OT    -0.834000       15.9994           0
  104111 WT6  8055 TIP3 H1   HT     0.417000        1.0080           0
  104112 WT6  8055 TIP3 H2   HT     0.417000        1.0080           0
  104113 WT6  8064 TIP3 OH2  OT    -0.834000       15.9994           0
  104114 WT6  8064 TIP3 H1   HT     0.417000        1.0080           0
  104115 WT6  8064 TIP3 H2   HT     0.417000        1.0080           0
  104116 WT6  8067 TIP3 OH2  OT    -0.834000       15.9994           0
  104117 WT6  8067 TIP3 H1   HT     0.417000        1.0080           0
  104118 WT6  8067 TIP3 H2   HT     0.417000        1.0080           0
  104119 WT6  8068 TIP3 OH2  OT    -0.834000       15.9994           0
  104120 WT6  8068 TIP3 H1   HT     0.417000        1.0080           0
  104121 WT6  8068 TIP3 H2   HT     0.417000        1.0080           0
  104122 WT6  8070 TIP3 OH2  OT    -0.834000       15.9994           0
  104123 WT6  8070 TIP3 H1   HT     0.417000        1.0080           0
  104124 WT6  8070 TIP3 H2   HT     0.417000        1.0080           0
  104125 WT6  8073 TIP3 OH2  OT    -0.834000       15.9994           0
  104126 WT6  8073 TIP3 H1   HT     0.417000        1.0080           0
  104127 WT6  8073 TIP3 H2   HT     0.417000        1.0080           0
  104128 WT6  8076 TIP3 OH2  OT    -0.834000       15.9994           0
  104129 WT6  8076 TIP3 H1   HT     0.417000        1.0080           0
  104130 WT6  8076 TIP3 H2   HT     0.417000        1.0080           0
  104131 WT6  8087 TIP3 OH2  OT    -0.834000       15.9994           0
  104132 WT6  8087 TIP3 H1   HT     0.417000        1.0080           0
  104133 WT6  8087 TIP3 H2   HT     0.417000        1.0080           0
  104134 WT6  8091 TIP3 OH2  OT    -0.834000       15.9994           0
  104135 WT6  8091 TIP3 H1   HT     0.417000        1.0080           0
  104136 WT6  8091 TIP3 H2   HT     0.417000        1.0080           0
  104137 WT6  8094 TIP3 OH2  OT    -0.834000       15.9994           0
  104138 WT6  8094 TIP3 H1   HT     0.417000        1.0080           0
  104139 WT6  8094 TIP3 H2   HT     0.417000        1.0080           0
  104140 WT6  8097 TIP3 OH2  OT    -0.834000       15.9994           0
  104141 WT6  8097 TIP3 H1   HT     0.417000        1.0080           0
  104142 WT6  8097 TIP3 H2   HT     0.417000        1.0080           0
  104143 WT6  8107 TIP3 OH2  OT    -0.834000       15.9994           0
  104144 WT6  8107 TIP3 H1   HT     0.417000        1.0080           0
  104145 WT6  8107 TIP3 H2   HT     0.417000        1.0080           0
  104146 WT6  8109 TIP3 OH2  OT    -0.834000       15.9994           0
  104147 WT6  8109 TIP3 H1   HT     0.417000        1.0080           0
  104148 WT6  8109 TIP3 H2   HT     0.417000        1.0080           0
  104149 WT6  8113 TIP3 OH2  OT    -0.834000       15.9994           0
  104150 WT6  8113 TIP3 H1   HT     0.417000        1.0080           0
  104151 WT6  8113 TIP3 H2   HT     0.417000        1.0080           0
  104152 WT6  8133 TIP3 OH2  OT    -0.834000       15.9994           0
  104153 WT6  8133 TIP3 H1   HT     0.417000        1.0080           0
  104154 WT6  8133 TIP3 H2   HT     0.417000        1.0080           0
  104155 WT6  8136 TIP3 OH2  OT    -0.834000       15.9994           0
  104156 WT6  8136 TIP3 H1   HT     0.417000        1.0080           0
  104157 WT6  8136 TIP3 H2   HT     0.417000        1.0080           0
  104158 WT6  8140 TIP3 OH2  OT    -0.834000       15.9994           0
  104159 WT6  8140 TIP3 H1   HT     0.417000        1.0080           0
  104160 WT6  8140 TIP3 H2   HT     0.417000        1.0080           0
  104161 WT6  8161 TIP3 OH2  OT    -0.834000       15.9994           0
  104162 WT6  8161 TIP3 H1   HT     0.417000        1.0080           0
  104163 WT6  8161 TIP3 H2   HT     0.417000        1.0080           0
  104164 WT6  8173 TIP3 OH2  OT    -0.834000       15.9994           0
  104165 WT6  8173 TIP3 H1   HT     0.417000        1.0080           0
  104166 WT6  8173 TIP3 H2   HT     0.417000        1.0080           0
  104167 WT6  8174 TIP3 OH2  OT    -0.834000       15.9994           0
  104168 WT6  8174 TIP3 H1   HT     0.417000        1.0080           0
  104169 WT6  8174 TIP3 H2   HT     0.417000        1.0080           0
  104170 WT6  8176 TIP3 OH2  OT    -0.834000       15.9994           0
  104171 WT6  8176 TIP3 H1   HT     0.417000        1.0080           0
  104172 WT6  8176 TIP3 H2   HT     0.417000        1.0080           0
  104173 WT6  8181 TIP3 OH2  OT    -0.834000       15.9994           0
  104174 WT6  8181 TIP3 H1   HT     0.417000        1.0080           0
  104175 WT6  8181 TIP3 H2   HT     0.417000        1.0080           0
  104176 WT6  8185 TIP3 OH2  OT    -0.834000       15.9994           0
  104177 WT6  8185 TIP3 H1   HT     0.417000        1.0080           0
  104178 WT6  8185 TIP3 H2   HT     0.417000        1.0080           0
  104179 WT6  8193 TIP3 OH2  OT    -0.834000       15.9994           0
  104180 WT6  8193 TIP3 H1   HT     0.417000        1.0080           0
  104181 WT6  8193 TIP3 H2   HT     0.417000        1.0080           0
  104182 WT6  8201 TIP3 OH2  OT    -0.834000       15.9994           0
  104183 WT6  8201 TIP3 H1   HT     0.417000        1.0080           0
  104184 WT6  8201 TIP3 H2   HT     0.417000        1.0080           0
  104185 WT6  8206 TIP3 OH2  OT    -0.834000       15.9994           0
  104186 WT6  8206 TIP3 H1   HT     0.417000        1.0080           0
  104187 WT6  8206 TIP3 H2   HT     0.417000        1.0080           0
  104188 WT6  8218 TIP3 OH2  OT    -0.834000       15.9994           0
  104189 WT6  8218 TIP3 H1   HT     0.417000        1.0080           0
  104190 WT6  8218 TIP3 H2   HT     0.417000        1.0080           0
  104191 WT6  8222 TIP3 OH2  OT    -0.834000       15.9994           0
  104192 WT6  8222 TIP3 H1   HT     0.417000        1.0080           0
  104193 WT6  8222 TIP3 H2   HT     0.417000        1.0080           0
  104194 WT6  8229 TIP3 OH2  OT    -0.834000       15.9994           0
  104195 WT6  8229 TIP3 H1   HT     0.417000        1.0080           0
  104196 WT6  8229 TIP3 H2   HT     0.417000        1.0080           0
  104197 WT6  8241 TIP3 OH2  OT    -0.834000       15.9994           0
  104198 WT6  8241 TIP3 H1   HT     0.417000        1.0080           0
  104199 WT6  8241 TIP3 H2   HT     0.417000        1.0080           0
  104200 WT6  8242 TIP3 OH2  OT    -0.834000       15.9994           0
  104201 WT6  8242 TIP3 H1   HT     0.417000        1.0080           0
  104202 WT6  8242 TIP3 H2   HT     0.417000        1.0080           0
  104203 WT6  8260 TIP3 OH2  OT    -0.834000       15.9994           0
  104204 WT6  8260 TIP3 H1   HT     0.417000        1.0080           0
  104205 WT6  8260 TIP3 H2   HT     0.417000        1.0080           0
  104206 WT6  8262 TIP3 OH2  OT    -0.834000       15.9994           0
  104207 WT6  8262 TIP3 H1   HT     0.417000        1.0080           0
  104208 WT6  8262 TIP3 H2   HT     0.417000        1.0080           0
  104209 WT6  8263 TIP3 OH2  OT    -0.834000       15.9994           0
  104210 WT6  8263 TIP3 H1   HT     0.417000        1.0080           0
  104211 WT6  8263 TIP3 H2   HT     0.417000        1.0080           0
  104212 WT6  8264 TIP3 OH2  OT    -0.834000       15.9994           0
  104213 WT6  8264 TIP3 H1   HT     0.417000        1.0080           0
  104214 WT6  8264 TIP3 H2   HT     0.417000        1.0080           0
  104215 WT6  8265 TIP3 OH2  OT    -0.834000       15.9994           0
  104216 WT6  8265 TIP3 H1   HT     0.417000        1.0080           0
  104217 WT6  8265 TIP3 H2   HT     0.417000        1.0080           0
  104218 WT6  8266 TIP3 OH2  OT    -0.834000       15.9994           0
  104219 WT6  8266 TIP3 H1   HT     0.417000        1.0080           0
  104220 WT6  8266 TIP3 H2   HT     0.417000        1.0080           0
  104221 WT6  8278 TIP3 OH2  OT    -0.834000       15.9994           0
  104222 WT6  8278 TIP3 H1   HT     0.417000        1.0080           0
  104223 WT6  8278 TIP3 H2   HT     0.417000        1.0080           0
  104224 WT6  8289 TIP3 OH2  OT    -0.834000       15.9994           0
  104225 WT6  8289 TIP3 H1   HT     0.417000        1.0080           0
  104226 WT6  8289 TIP3 H2   HT     0.417000        1.0080           0
  104227 WT6  8290 TIP3 OH2  OT    -0.834000       15.9994           0
  104228 WT6  8290 TIP3 H1   HT     0.417000        1.0080           0
  104229 WT6  8290 TIP3 H2   HT     0.417000        1.0080           0
  104230 WT6  8305 TIP3 OH2  OT    -0.834000       15.9994           0
  104231 WT6  8305 TIP3 H1   HT     0.417000        1.0080           0
  104232 WT6  8305 TIP3 H2   HT     0.417000        1.0080           0
  104233 WT6  8308 TIP3 OH2  OT    -0.834000       15.9994           0
  104234 WT6  8308 TIP3 H1   HT     0.417000        1.0080           0
  104235 WT6  8308 TIP3 H2   HT     0.417000        1.0080           0
  104236 WT6  8313 TIP3 OH2  OT    -0.834000       15.9994           0
  104237 WT6  8313 TIP3 H1   HT     0.417000        1.0080           0
  104238 WT6  8313 TIP3 H2   HT     0.417000        1.0080           0
  104239 WT6  8318 TIP3 OH2  OT    -0.834000       15.9994           0
  104240 WT6  8318 TIP3 H1   HT     0.417000        1.0080           0
  104241 WT6  8318 TIP3 H2   HT     0.417000        1.0080           0
  104242 WT6  8326 TIP3 OH2  OT    -0.834000       15.9994           0
  104243 WT6  8326 TIP3 H1   HT     0.417000        1.0080           0
  104244 WT6  8326 TIP3 H2   HT     0.417000        1.0080           0
  104245 WT6  8333 TIP3 OH2  OT    -0.834000       15.9994           0
  104246 WT6  8333 TIP3 H1   HT     0.417000        1.0080           0
  104247 WT6  8333 TIP3 H2   HT     0.417000        1.0080           0
  104248 WT6  8340 TIP3 OH2  OT    -0.834000       15.9994           0
  104249 WT6  8340 TIP3 H1   HT     0.417000        1.0080           0
  104250 WT6  8340 TIP3 H2   HT     0.417000        1.0080           0
  104251 WT6  8342 TIP3 OH2  OT    -0.834000       15.9994           0
  104252 WT6  8342 TIP3 H1   HT     0.417000        1.0080           0
  104253 WT6  8342 TIP3 H2   HT     0.417000        1.0080           0
  104254 WT6  8345 TIP3 OH2  OT    -0.834000       15.9994           0
  104255 WT6  8345 TIP3 H1   HT     0.417000        1.0080           0
  104256 WT6  8345 TIP3 H2   HT     0.417000        1.0080           0
  104257 WT6  8350 TIP3 OH2  OT    -0.834000       15.9994           0
  104258 WT6  8350 TIP3 H1   HT     0.417000        1.0080           0
  104259 WT6  8350 TIP3 H2   HT     0.417000        1.0080           0
  104260 WT6  8351 TIP3 OH2  OT    -0.834000       15.9994           0
  104261 WT6  8351 TIP3 H1   HT     0.417000        1.0080           0
  104262 WT6  8351 TIP3 H2   HT     0.417000        1.0080           0
  104263 WT6  8352 TIP3 OH2  OT    -0.834000       15.9994           0
  104264 WT6  8352 TIP3 H1   HT     0.417000        1.0080           0
  104265 WT6  8352 TIP3 H2   HT     0.417000        1.0080           0
  104266 WT6  8364 TIP3 OH2  OT    -0.834000       15.9994           0
  104267 WT6  8364 TIP3 H1   HT     0.417000        1.0080           0
  104268 WT6  8364 TIP3 H2   HT     0.417000        1.0080           0
  104269 WT6  8366 TIP3 OH2  OT    -0.834000       15.9994           0
  104270 WT6  8366 TIP3 H1   HT     0.417000        1.0080           0
  104271 WT6  8366 TIP3 H2   HT     0.417000        1.0080           0
  104272 WT6  8368 TIP3 OH2  OT    -0.834000       15.9994           0
  104273 WT6  8368 TIP3 H1   HT     0.417000        1.0080           0
  104274 WT6  8368 TIP3 H2   HT     0.417000        1.0080           0
  104275 WT6  8370 TIP3 OH2  OT    -0.834000       15.9994           0
  104276 WT6  8370 TIP3 H1   HT     0.417000        1.0080           0
  104277 WT6  8370 TIP3 H2   HT     0.417000        1.0080           0
  104278 WT6  8383 TIP3 OH2  OT    -0.834000       15.9994           0
  104279 WT6  8383 TIP3 H1   HT     0.417000        1.0080           0
  104280 WT6  8383 TIP3 H2   HT     0.417000        1.0080           0
  104281 WT6  8387 TIP3 OH2  OT    -0.834000       15.9994           0
  104282 WT6  8387 TIP3 H1   HT     0.417000        1.0080           0
  104283 WT6  8387 TIP3 H2   HT     0.417000        1.0080           0
  104284 WT6  8394 TIP3 OH2  OT    -0.834000       15.9994           0
  104285 WT6  8394 TIP3 H1   HT     0.417000        1.0080           0
  104286 WT6  8394 TIP3 H2   HT     0.417000        1.0080           0
  104287 WT6  8403 TIP3 OH2  OT    -0.834000       15.9994           0
  104288 WT6  8403 TIP3 H1   HT     0.417000        1.0080           0
  104289 WT6  8403 TIP3 H2   HT     0.417000        1.0080           0
  104290 WT6  8408 TIP3 OH2  OT    -0.834000       15.9994           0
  104291 WT6  8408 TIP3 H1   HT     0.417000        1.0080           0
  104292 WT6  8408 TIP3 H2   HT     0.417000        1.0080           0
  104293 WT6  8409 TIP3 OH2  OT    -0.834000       15.9994           0
  104294 WT6  8409 TIP3 H1   HT     0.417000        1.0080           0
  104295 WT6  8409 TIP3 H2   HT     0.417000        1.0080           0
  104296 WT6  8411 TIP3 OH2  OT    -0.834000       15.9994           0
  104297 WT6  8411 TIP3 H1   HT     0.417000        1.0080           0
  104298 WT6  8411 TIP3 H2   HT     0.417000        1.0080           0
  104299 WT6  8412 TIP3 OH2  OT    -0.834000       15.9994           0
  104300 WT6  8412 TIP3 H1   HT     0.417000        1.0080           0
  104301 WT6  8412 TIP3 H2   HT     0.417000        1.0080           0
  104302 WT6  8415 TIP3 OH2  OT    -0.834000       15.9994           0
  104303 WT6  8415 TIP3 H1   HT     0.417000        1.0080           0
  104304 WT6  8415 TIP3 H2   HT     0.417000        1.0080           0
  104305 WT6  8425 TIP3 OH2  OT    -0.834000       15.9994           0
  104306 WT6  8425 TIP3 H1   HT     0.417000        1.0080           0
  104307 WT6  8425 TIP3 H2   HT     0.417000        1.0080           0
  104308 WT6  8436 TIP3 OH2  OT    -0.834000       15.9994           0
  104309 WT6  8436 TIP3 H1   HT     0.417000        1.0080           0
  104310 WT6  8436 TIP3 H2   HT     0.417000        1.0080           0
  104311 WT6  8441 TIP3 OH2  OT    -0.834000       15.9994           0
  104312 WT6  8441 TIP3 H1   HT     0.417000        1.0080           0
  104313 WT6  8441 TIP3 H2   HT     0.417000        1.0080           0
  104314 WT6  8448 TIP3 OH2  OT    -0.834000       15.9994           0
  104315 WT6  8448 TIP3 H1   HT     0.417000        1.0080           0
  104316 WT6  8448 TIP3 H2   HT     0.417000        1.0080           0
  104317 WT6  8452 TIP3 OH2  OT    -0.834000       15.9994           0
  104318 WT6  8452 TIP3 H1   HT     0.417000        1.0080           0
  104319 WT6  8452 TIP3 H2   HT     0.417000        1.0080           0
  104320 WT6  8457 TIP3 OH2  OT    -0.834000       15.9994           0
  104321 WT6  8457 TIP3 H1   HT     0.417000        1.0080           0
  104322 WT6  8457 TIP3 H2   HT     0.417000        1.0080           0
  104323 WT6  8462 TIP3 OH2  OT    -0.834000       15.9994           0
  104324 WT6  8462 TIP3 H1   HT     0.417000        1.0080           0
  104325 WT6  8462 TIP3 H2   HT     0.417000        1.0080           0
  104326 WT6  8466 TIP3 OH2  OT    -0.834000       15.9994           0
  104327 WT6  8466 TIP3 H1   HT     0.417000        1.0080           0
  104328 WT6  8466 TIP3 H2   HT     0.417000        1.0080           0
  104329 WT6  8468 TIP3 OH2  OT    -0.834000       15.9994           0
  104330 WT6  8468 TIP3 H1   HT     0.417000        1.0080           0
  104331 WT6  8468 TIP3 H2   HT     0.417000        1.0080           0
  104332 WT6  8488 TIP3 OH2  OT    -0.834000       15.9994           0
  104333 WT6  8488 TIP3 H1   HT     0.417000        1.0080           0
  104334 WT6  8488 TIP3 H2   HT     0.417000        1.0080           0
  104335 WT6  8491 TIP3 OH2  OT    -0.834000       15.9994           0
  104336 WT6  8491 TIP3 H1   HT     0.417000        1.0080           0
  104337 WT6  8491 TIP3 H2   HT     0.417000        1.0080           0
  104338 WT6  8492 TIP3 OH2  OT    -0.834000       15.9994           0
  104339 WT6  8492 TIP3 H1   HT     0.417000        1.0080           0
  104340 WT6  8492 TIP3 H2   HT     0.417000        1.0080           0
  104341 WT6  8509 TIP3 OH2  OT    -0.834000       15.9994           0
  104342 WT6  8509 TIP3 H1   HT     0.417000        1.0080           0
  104343 WT6  8509 TIP3 H2   HT     0.417000        1.0080           0
  104344 WT6  8520 TIP3 OH2  OT    -0.834000       15.9994           0
  104345 WT6  8520 TIP3 H1   HT     0.417000        1.0080           0
  104346 WT6  8520 TIP3 H2   HT     0.417000        1.0080           0
  104347 WT6  8528 TIP3 OH2  OT    -0.834000       15.9994           0
  104348 WT6  8528 TIP3 H1   HT     0.417000        1.0080           0
  104349 WT6  8528 TIP3 H2   HT     0.417000        1.0080           0
  104350 WT6  8534 TIP3 OH2  OT    -0.834000       15.9994           0
  104351 WT6  8534 TIP3 H1   HT     0.417000        1.0080           0
  104352 WT6  8534 TIP3 H2   HT     0.417000        1.0080           0
  104353 WT6  8536 TIP3 OH2  OT    -0.834000       15.9994           0
  104354 WT6  8536 TIP3 H1   HT     0.417000        1.0080           0
  104355 WT6  8536 TIP3 H2   HT     0.417000        1.0080           0
  104356 WT6  8537 TIP3 OH2  OT    -0.834000       15.9994           0
  104357 WT6  8537 TIP3 H1   HT     0.417000        1.0080           0
  104358 WT6  8537 TIP3 H2   HT     0.417000        1.0080           0
  104359 WT6  8548 TIP3 OH2  OT    -0.834000       15.9994           0
  104360 WT6  8548 TIP3 H1   HT     0.417000        1.0080           0
  104361 WT6  8548 TIP3 H2   HT     0.417000        1.0080           0
  104362 WT6  8549 TIP3 OH2  OT    -0.834000       15.9994           0
  104363 WT6  8549 TIP3 H1   HT     0.417000        1.0080           0
  104364 WT6  8549 TIP3 H2   HT     0.417000        1.0080           0
  104365 WT6  8551 TIP3 OH2  OT    -0.834000       15.9994           0
  104366 WT6  8551 TIP3 H1   HT     0.417000        1.0080           0
  104367 WT6  8551 TIP3 H2   HT     0.417000        1.0080           0
  104368 WT6  8555 TIP3 OH2  OT    -0.834000       15.9994           0
  104369 WT6  8555 TIP3 H1   HT     0.417000        1.0080           0
  104370 WT6  8555 TIP3 H2   HT     0.417000        1.0080           0
  104371 WT6  8556 TIP3 OH2  OT    -0.834000       15.9994           0
  104372 WT6  8556 TIP3 H1   HT     0.417000        1.0080           0
  104373 WT6  8556 TIP3 H2   HT     0.417000        1.0080           0
  104374 WT6  8558 TIP3 OH2  OT    -0.834000       15.9994           0
  104375 WT6  8558 TIP3 H1   HT     0.417000        1.0080           0
  104376 WT6  8558 TIP3 H2   HT     0.417000        1.0080           0
  104377 WT6  8564 TIP3 OH2  OT    -0.834000       15.9994           0
  104378 WT6  8564 TIP3 H1   HT     0.417000        1.0080           0
  104379 WT6  8564 TIP3 H2   HT     0.417000        1.0080           0
  104380 WT6  8566 TIP3 OH2  OT    -0.834000       15.9994           0
  104381 WT6  8566 TIP3 H1   HT     0.417000        1.0080           0
  104382 WT6  8566 TIP3 H2   HT     0.417000        1.0080           0
  104383 WT6  8574 TIP3 OH2  OT    -0.834000       15.9994           0
  104384 WT6  8574 TIP3 H1   HT     0.417000        1.0080           0
  104385 WT6  8574 TIP3 H2   HT     0.417000        1.0080           0
  104386 WT6  8576 TIP3 OH2  OT    -0.834000       15.9994           0
  104387 WT6  8576 TIP3 H1   HT     0.417000        1.0080           0
  104388 WT6  8576 TIP3 H2   HT     0.417000        1.0080           0
  104389 WT6  8577 TIP3 OH2  OT    -0.834000       15.9994           0
  104390 WT6  8577 TIP3 H1   HT     0.417000        1.0080           0
  104391 WT6  8577 TIP3 H2   HT     0.417000        1.0080           0
  104392 WT6  8578 TIP3 OH2  OT    -0.834000       15.9994           0
  104393 WT6  8578 TIP3 H1   HT     0.417000        1.0080           0
  104394 WT6  8578 TIP3 H2   HT     0.417000        1.0080           0
  104395 WT6  8579 TIP3 OH2  OT    -0.834000       15.9994           0
  104396 WT6  8579 TIP3 H1   HT     0.417000        1.0080           0
  104397 WT6  8579 TIP3 H2   HT     0.417000        1.0080           0
  104398 WT6  8589 TIP3 OH2  OT    -0.834000       15.9994           0
  104399 WT6  8589 TIP3 H1   HT     0.417000        1.0080           0
  104400 WT6  8589 TIP3 H2   HT     0.417000        1.0080           0
  104401 WT6  8599 TIP3 OH2  OT    -0.834000       15.9994           0
  104402 WT6  8599 TIP3 H1   HT     0.417000        1.0080           0
  104403 WT6  8599 TIP3 H2   HT     0.417000        1.0080           0
  104404 WT6  8600 TIP3 OH2  OT    -0.834000       15.9994           0
  104405 WT6  8600 TIP3 H1   HT     0.417000        1.0080           0
  104406 WT6  8600 TIP3 H2   HT     0.417000        1.0080           0
  104407 WT6  8613 TIP3 OH2  OT    -0.834000       15.9994           0
  104408 WT6  8613 TIP3 H1   HT     0.417000        1.0080           0
  104409 WT6  8613 TIP3 H2   HT     0.417000        1.0080           0
  104410 WT6  8617 TIP3 OH2  OT    -0.834000       15.9994           0
  104411 WT6  8617 TIP3 H1   HT     0.417000        1.0080           0
  104412 WT6  8617 TIP3 H2   HT     0.417000        1.0080           0
  104413 WT6  8621 TIP3 OH2  OT    -0.834000       15.9994           0
  104414 WT6  8621 TIP3 H1   HT     0.417000        1.0080           0
  104415 WT6  8621 TIP3 H2   HT     0.417000        1.0080           0
  104416 WT6  8622 TIP3 OH2  OT    -0.834000       15.9994           0
  104417 WT6  8622 TIP3 H1   HT     0.417000        1.0080           0
  104418 WT6  8622 TIP3 H2   HT     0.417000        1.0080           0
  104419 WT6  8624 TIP3 OH2  OT    -0.834000       15.9994           0
  104420 WT6  8624 TIP3 H1   HT     0.417000        1.0080           0
  104421 WT6  8624 TIP3 H2   HT     0.417000        1.0080           0
  104422 WT6  8632 TIP3 OH2  OT    -0.834000       15.9994           0
  104423 WT6  8632 TIP3 H1   HT     0.417000        1.0080           0
  104424 WT6  8632 TIP3 H2   HT     0.417000        1.0080           0
  104425 WT6  8642 TIP3 OH2  OT    -0.834000       15.9994           0
  104426 WT6  8642 TIP3 H1   HT     0.417000        1.0080           0
  104427 WT6  8642 TIP3 H2   HT     0.417000        1.0080           0
  104428 WT6  8645 TIP3 OH2  OT    -0.834000       15.9994           0
  104429 WT6  8645 TIP3 H1   HT     0.417000        1.0080           0
  104430 WT6  8645 TIP3 H2   HT     0.417000        1.0080           0
  104431 WT6  8653 TIP3 OH2  OT    -0.834000       15.9994           0
  104432 WT6  8653 TIP3 H1   HT     0.417000        1.0080           0
  104433 WT6  8653 TIP3 H2   HT     0.417000        1.0080           0
  104434 WT6  8658 TIP3 OH2  OT    -0.834000       15.9994           0
  104435 WT6  8658 TIP3 H1   HT     0.417000        1.0080           0
  104436 WT6  8658 TIP3 H2   HT     0.417000        1.0080           0
  104437 WT6  8661 TIP3 OH2  OT    -0.834000       15.9994           0
  104438 WT6  8661 TIP3 H1   HT     0.417000        1.0080           0
  104439 WT6  8661 TIP3 H2   HT     0.417000        1.0080           0
  104440 WT6  8662 TIP3 OH2  OT    -0.834000       15.9994           0
  104441 WT6  8662 TIP3 H1   HT     0.417000        1.0080           0
  104442 WT6  8662 TIP3 H2   HT     0.417000        1.0080           0
  104443 WT6  8668 TIP3 OH2  OT    -0.834000       15.9994           0
  104444 WT6  8668 TIP3 H1   HT     0.417000        1.0080           0
  104445 WT6  8668 TIP3 H2   HT     0.417000        1.0080           0
  104446 WT6  8675 TIP3 OH2  OT    -0.834000       15.9994           0
  104447 WT6  8675 TIP3 H1   HT     0.417000        1.0080           0
  104448 WT6  8675 TIP3 H2   HT     0.417000        1.0080           0
  104449 WT6  8677 TIP3 OH2  OT    -0.834000       15.9994           0
  104450 WT6  8677 TIP3 H1   HT     0.417000        1.0080           0
  104451 WT6  8677 TIP3 H2   HT     0.417000        1.0080           0
  104452 WT6  8679 TIP3 OH2  OT    -0.834000       15.9994           0
  104453 WT6  8679 TIP3 H1   HT     0.417000        1.0080           0
  104454 WT6  8679 TIP3 H2   HT     0.417000        1.0080           0
  104455 WT6  8680 TIP3 OH2  OT    -0.834000       15.9994           0
  104456 WT6  8680 TIP3 H1   HT     0.417000        1.0080           0
  104457 WT6  8680 TIP3 H2   HT     0.417000        1.0080           0
  104458 WT6  8683 TIP3 OH2  OT    -0.834000       15.9994           0
  104459 WT6  8683 TIP3 H1   HT     0.417000        1.0080           0
  104460 WT6  8683 TIP3 H2   HT     0.417000        1.0080           0
  104461 WT6  8687 TIP3 OH2  OT    -0.834000       15.9994           0
  104462 WT6  8687 TIP3 H1   HT     0.417000        1.0080           0
  104463 WT6  8687 TIP3 H2   HT     0.417000        1.0080           0
  104464 WT6  8689 TIP3 OH2  OT    -0.834000       15.9994           0
  104465 WT6  8689 TIP3 H1   HT     0.417000        1.0080           0
  104466 WT6  8689 TIP3 H2   HT     0.417000        1.0080           0
  104467 WT6  8690 TIP3 OH2  OT    -0.834000       15.9994           0
  104468 WT6  8690 TIP3 H1   HT     0.417000        1.0080           0
  104469 WT6  8690 TIP3 H2   HT     0.417000        1.0080           0
  104470 WT6  8691 TIP3 OH2  OT    -0.834000       15.9994           0
  104471 WT6  8691 TIP3 H1   HT     0.417000        1.0080           0
  104472 WT6  8691 TIP3 H2   HT     0.417000        1.0080           0
  104473 WT6  8695 TIP3 OH2  OT    -0.834000       15.9994           0
  104474 WT6  8695 TIP3 H1   HT     0.417000        1.0080           0
  104475 WT6  8695 TIP3 H2   HT     0.417000        1.0080           0
  104476 WT6  8699 TIP3 OH2  OT    -0.834000       15.9994           0
  104477 WT6  8699 TIP3 H1   HT     0.417000        1.0080           0
  104478 WT6  8699 TIP3 H2   HT     0.417000        1.0080           0
  104479 WT6  8701 TIP3 OH2  OT    -0.834000       15.9994           0
  104480 WT6  8701 TIP3 H1   HT     0.417000        1.0080           0
  104481 WT6  8701 TIP3 H2   HT     0.417000        1.0080           0
  104482 WT6  8705 TIP3 OH2  OT    -0.834000       15.9994           0
  104483 WT6  8705 TIP3 H1   HT     0.417000        1.0080           0
  104484 WT6  8705 TIP3 H2   HT     0.417000        1.0080           0
  104485 WT6  8721 TIP3 OH2  OT    -0.834000       15.9994           0
  104486 WT6  8721 TIP3 H1   HT     0.417000        1.0080           0
  104487 WT6  8721 TIP3 H2   HT     0.417000        1.0080           0
  104488 WT6  8722 TIP3 OH2  OT    -0.834000       15.9994           0
  104489 WT6  8722 TIP3 H1   HT     0.417000        1.0080           0
  104490 WT6  8722 TIP3 H2   HT     0.417000        1.0080           0
  104491 WT6  8723 TIP3 OH2  OT    -0.834000       15.9994           0
  104492 WT6  8723 TIP3 H1   HT     0.417000        1.0080           0
  104493 WT6  8723 TIP3 H2   HT     0.417000        1.0080           0
  104494 WT6  8724 TIP3 OH2  OT    -0.834000       15.9994           0
  104495 WT6  8724 TIP3 H1   HT     0.417000        1.0080           0
  104496 WT6  8724 TIP3 H2   HT     0.417000        1.0080           0
  104497 WT6  8726 TIP3 OH2  OT    -0.834000       15.9994           0
  104498 WT6  8726 TIP3 H1   HT     0.417000        1.0080           0
  104499 WT6  8726 TIP3 H2   HT     0.417000        1.0080           0
  104500 WT6  8727 TIP3 OH2  OT    -0.834000       15.9994           0
  104501 WT6  8727 TIP3 H1   HT     0.417000        1.0080           0
  104502 WT6  8727 TIP3 H2   HT     0.417000        1.0080           0
  104503 WT6  8732 TIP3 OH2  OT    -0.834000       15.9994           0
  104504 WT6  8732 TIP3 H1   HT     0.417000        1.0080           0
  104505 WT6  8732 TIP3 H2   HT     0.417000        1.0080           0
  104506 WT6  8746 TIP3 OH2  OT    -0.834000       15.9994           0
  104507 WT6  8746 TIP3 H1   HT     0.417000        1.0080           0
  104508 WT6  8746 TIP3 H2   HT     0.417000        1.0080           0
  104509 WT6  8748 TIP3 OH2  OT    -0.834000       15.9994           0
  104510 WT6  8748 TIP3 H1   HT     0.417000        1.0080           0
  104511 WT6  8748 TIP3 H2   HT     0.417000        1.0080           0
  104512 WT6  8760 TIP3 OH2  OT    -0.834000       15.9994           0
  104513 WT6  8760 TIP3 H1   HT     0.417000        1.0080           0
  104514 WT6  8760 TIP3 H2   HT     0.417000        1.0080           0
  104515 WT6  8761 TIP3 OH2  OT    -0.834000       15.9994           0
  104516 WT6  8761 TIP3 H1   HT     0.417000        1.0080           0
  104517 WT6  8761 TIP3 H2   HT     0.417000        1.0080           0
  104518 WT6  8769 TIP3 OH2  OT    -0.834000       15.9994           0
  104519 WT6  8769 TIP3 H1   HT     0.417000        1.0080           0
  104520 WT6  8769 TIP3 H2   HT     0.417000        1.0080           0
  104521 WT6  8774 TIP3 OH2  OT    -0.834000       15.9994           0
  104522 WT6  8774 TIP3 H1   HT     0.417000        1.0080           0
  104523 WT6  8774 TIP3 H2   HT     0.417000        1.0080           0
  104524 WT6  8780 TIP3 OH2  OT    -0.834000       15.9994           0
  104525 WT6  8780 TIP3 H1   HT     0.417000        1.0080           0
  104526 WT6  8780 TIP3 H2   HT     0.417000        1.0080           0
  104527 WT6  8784 TIP3 OH2  OT    -0.834000       15.9994           0
  104528 WT6  8784 TIP3 H1   HT     0.417000        1.0080           0
  104529 WT6  8784 TIP3 H2   HT     0.417000        1.0080           0
  104530 WT6  8791 TIP3 OH2  OT    -0.834000       15.9994           0
  104531 WT6  8791 TIP3 H1   HT     0.417000        1.0080           0
  104532 WT6  8791 TIP3 H2   HT     0.417000        1.0080           0
  104533 WT6  8793 TIP3 OH2  OT    -0.834000       15.9994           0
  104534 WT6  8793 TIP3 H1   HT     0.417000        1.0080           0
  104535 WT6  8793 TIP3 H2   HT     0.417000        1.0080           0
  104536 WT6  8794 TIP3 OH2  OT    -0.834000       15.9994           0
  104537 WT6  8794 TIP3 H1   HT     0.417000        1.0080           0
  104538 WT6  8794 TIP3 H2   HT     0.417000        1.0080           0
  104539 WT6  8796 TIP3 OH2  OT    -0.834000       15.9994           0
  104540 WT6  8796 TIP3 H1   HT     0.417000        1.0080           0
  104541 WT6  8796 TIP3 H2   HT     0.417000        1.0080           0
  104542 WT6  8800 TIP3 OH2  OT    -0.834000       15.9994           0
  104543 WT6  8800 TIP3 H1   HT     0.417000        1.0080           0
  104544 WT6  8800 TIP3 H2   HT     0.417000        1.0080           0
  104545 WT6  8801 TIP3 OH2  OT    -0.834000       15.9994           0
  104546 WT6  8801 TIP3 H1   HT     0.417000        1.0080           0
  104547 WT6  8801 TIP3 H2   HT     0.417000        1.0080           0
  104548 WT6  8809 TIP3 OH2  OT    -0.834000       15.9994           0
  104549 WT6  8809 TIP3 H1   HT     0.417000        1.0080           0
  104550 WT6  8809 TIP3 H2   HT     0.417000        1.0080           0
  104551 WT6  8813 TIP3 OH2  OT    -0.834000       15.9994           0
  104552 WT6  8813 TIP3 H1   HT     0.417000        1.0080           0
  104553 WT6  8813 TIP3 H2   HT     0.417000        1.0080           0
  104554 WT6  8814 TIP3 OH2  OT    -0.834000       15.9994           0
  104555 WT6  8814 TIP3 H1   HT     0.417000        1.0080           0
  104556 WT6  8814 TIP3 H2   HT     0.417000        1.0080           0
  104557 WT6  8822 TIP3 OH2  OT    -0.834000       15.9994           0
  104558 WT6  8822 TIP3 H1   HT     0.417000        1.0080           0
  104559 WT6  8822 TIP3 H2   HT     0.417000        1.0080           0
  104560 WT6  8826 TIP3 OH2  OT    -0.834000       15.9994           0
  104561 WT6  8826 TIP3 H1   HT     0.417000        1.0080           0
  104562 WT6  8826 TIP3 H2   HT     0.417000        1.0080           0
  104563 WT6  8829 TIP3 OH2  OT    -0.834000       15.9994           0
  104564 WT6  8829 TIP3 H1   HT     0.417000        1.0080           0
  104565 WT6  8829 TIP3 H2   HT     0.417000        1.0080           0
  104566 WT6  8833 TIP3 OH2  OT    -0.834000       15.9994           0
  104567 WT6  8833 TIP3 H1   HT     0.417000        1.0080           0
  104568 WT6  8833 TIP3 H2   HT     0.417000        1.0080           0
  104569 WT6  8836 TIP3 OH2  OT    -0.834000       15.9994           0
  104570 WT6  8836 TIP3 H1   HT     0.417000        1.0080           0
  104571 WT6  8836 TIP3 H2   HT     0.417000        1.0080           0
  104572 WT6  8843 TIP3 OH2  OT    -0.834000       15.9994           0
  104573 WT6  8843 TIP3 H1   HT     0.417000        1.0080           0
  104574 WT6  8843 TIP3 H2   HT     0.417000        1.0080           0
  104575 WT6  8845 TIP3 OH2  OT    -0.834000       15.9994           0
  104576 WT6  8845 TIP3 H1   HT     0.417000        1.0080           0
  104577 WT6  8845 TIP3 H2   HT     0.417000        1.0080           0
  104578 WT6  8848 TIP3 OH2  OT    -0.834000       15.9994           0
  104579 WT6  8848 TIP3 H1   HT     0.417000        1.0080           0
  104580 WT6  8848 TIP3 H2   HT     0.417000        1.0080           0
  104581 WT6  8851 TIP3 OH2  OT    -0.834000       15.9994           0
  104582 WT6  8851 TIP3 H1   HT     0.417000        1.0080           0
  104583 WT6  8851 TIP3 H2   HT     0.417000        1.0080           0
  104584 WT6  8852 TIP3 OH2  OT    -0.834000       15.9994           0
  104585 WT6  8852 TIP3 H1   HT     0.417000        1.0080           0
  104586 WT6  8852 TIP3 H2   HT     0.417000        1.0080           0
  104587 WT6  8865 TIP3 OH2  OT    -0.834000       15.9994           0
  104588 WT6  8865 TIP3 H1   HT     0.417000        1.0080           0
  104589 WT6  8865 TIP3 H2   HT     0.417000        1.0080           0
  104590 WT6  8869 TIP3 OH2  OT    -0.834000       15.9994           0
  104591 WT6  8869 TIP3 H1   HT     0.417000        1.0080           0
  104592 WT6  8869 TIP3 H2   HT     0.417000        1.0080           0
  104593 WT6  8870 TIP3 OH2  OT    -0.834000       15.9994           0
  104594 WT6  8870 TIP3 H1   HT     0.417000        1.0080           0
  104595 WT6  8870 TIP3 H2   HT     0.417000        1.0080           0
  104596 WT6  8872 TIP3 OH2  OT    -0.834000       15.9994           0
  104597 WT6  8872 TIP3 H1   HT     0.417000        1.0080           0
  104598 WT6  8872 TIP3 H2   HT     0.417000        1.0080           0
  104599 WT6  8877 TIP3 OH2  OT    -0.834000       15.9994           0
  104600 WT6  8877 TIP3 H1   HT     0.417000        1.0080           0
  104601 WT6  8877 TIP3 H2   HT     0.417000        1.0080           0
  104602 WT6  8886 TIP3 OH2  OT    -0.834000       15.9994           0
  104603 WT6  8886 TIP3 H1   HT     0.417000        1.0080           0
  104604 WT6  8886 TIP3 H2   HT     0.417000        1.0080           0
  104605 WT6  8887 TIP3 OH2  OT    -0.834000       15.9994           0
  104606 WT6  8887 TIP3 H1   HT     0.417000        1.0080           0
  104607 WT6  8887 TIP3 H2   HT     0.417000        1.0080           0
  104608 WT6  8890 TIP3 OH2  OT    -0.834000       15.9994           0
  104609 WT6  8890 TIP3 H1   HT     0.417000        1.0080           0
  104610 WT6  8890 TIP3 H2   HT     0.417000        1.0080           0
  104611 WT6  8892 TIP3 OH2  OT    -0.834000       15.9994           0
  104612 WT6  8892 TIP3 H1   HT     0.417000        1.0080           0
  104613 WT6  8892 TIP3 H2   HT     0.417000        1.0080           0
  104614 WT6  8893 TIP3 OH2  OT    -0.834000       15.9994           0
  104615 WT6  8893 TIP3 H1   HT     0.417000        1.0080           0
  104616 WT6  8893 TIP3 H2   HT     0.417000        1.0080           0
  104617 WT6  8894 TIP3 OH2  OT    -0.834000       15.9994           0
  104618 WT6  8894 TIP3 H1   HT     0.417000        1.0080           0
  104619 WT6  8894 TIP3 H2   HT     0.417000        1.0080           0
  104620 WT6  8895 TIP3 OH2  OT    -0.834000       15.9994           0
  104621 WT6  8895 TIP3 H1   HT     0.417000        1.0080           0
  104622 WT6  8895 TIP3 H2   HT     0.417000        1.0080           0
  104623 WT6  8896 TIP3 OH2  OT    -0.834000       15.9994           0
  104624 WT6  8896 TIP3 H1   HT     0.417000        1.0080           0
  104625 WT6  8896 TIP3 H2   HT     0.417000        1.0080           0
  104626 WT6  8898 TIP3 OH2  OT    -0.834000       15.9994           0
  104627 WT6  8898 TIP3 H1   HT     0.417000        1.0080           0
  104628 WT6  8898 TIP3 H2   HT     0.417000        1.0080           0
  104629 WT6  8903 TIP3 OH2  OT    -0.834000       15.9994           0
  104630 WT6  8903 TIP3 H1   HT     0.417000        1.0080           0
  104631 WT6  8903 TIP3 H2   HT     0.417000        1.0080           0
  104632 WT6  8905 TIP3 OH2  OT    -0.834000       15.9994           0
  104633 WT6  8905 TIP3 H1   HT     0.417000        1.0080           0
  104634 WT6  8905 TIP3 H2   HT     0.417000        1.0080           0
  104635 WT6  8906 TIP3 OH2  OT    -0.834000       15.9994           0
  104636 WT6  8906 TIP3 H1   HT     0.417000        1.0080           0
  104637 WT6  8906 TIP3 H2   HT     0.417000        1.0080           0
  104638 WT6  8908 TIP3 OH2  OT    -0.834000       15.9994           0
  104639 WT6  8908 TIP3 H1   HT     0.417000        1.0080           0
  104640 WT6  8908 TIP3 H2   HT     0.417000        1.0080           0
  104641 WT6  8916 TIP3 OH2  OT    -0.834000       15.9994           0
  104642 WT6  8916 TIP3 H1   HT     0.417000        1.0080           0
  104643 WT6  8916 TIP3 H2   HT     0.417000        1.0080           0
  104644 WT6  8918 TIP3 OH2  OT    -0.834000       15.9994           0
  104645 WT6  8918 TIP3 H1   HT     0.417000        1.0080           0
  104646 WT6  8918 TIP3 H2   HT     0.417000        1.0080           0
  104647 WT6  8926 TIP3 OH2  OT    -0.834000       15.9994           0
  104648 WT6  8926 TIP3 H1   HT     0.417000        1.0080           0
  104649 WT6  8926 TIP3 H2   HT     0.417000        1.0080           0
  104650 WT6  8927 TIP3 OH2  OT    -0.834000       15.9994           0
  104651 WT6  8927 TIP3 H1   HT     0.417000        1.0080           0
  104652 WT6  8927 TIP3 H2   HT     0.417000        1.0080           0
  104653 WT6  8928 TIP3 OH2  OT    -0.834000       15.9994           0
  104654 WT6  8928 TIP3 H1   HT     0.417000        1.0080           0
  104655 WT6  8928 TIP3 H2   HT     0.417000        1.0080           0
  104656 WT6  8931 TIP3 OH2  OT    -0.834000       15.9994           0
  104657 WT6  8931 TIP3 H1   HT     0.417000        1.0080           0
  104658 WT6  8931 TIP3 H2   HT     0.417000        1.0080           0
  104659 WT6  8932 TIP3 OH2  OT    -0.834000       15.9994           0
  104660 WT6  8932 TIP3 H1   HT     0.417000        1.0080           0
  104661 WT6  8932 TIP3 H2   HT     0.417000        1.0080           0
  104662 WT6  8935 TIP3 OH2  OT    -0.834000       15.9994           0
  104663 WT6  8935 TIP3 H1   HT     0.417000        1.0080           0
  104664 WT6  8935 TIP3 H2   HT     0.417000        1.0080           0
  104665 WT6  8937 TIP3 OH2  OT    -0.834000       15.9994           0
  104666 WT6  8937 TIP3 H1   HT     0.417000        1.0080           0
  104667 WT6  8937 TIP3 H2   HT     0.417000        1.0080           0
  104668 WT6  8939 TIP3 OH2  OT    -0.834000       15.9994           0
  104669 WT6  8939 TIP3 H1   HT     0.417000        1.0080           0
  104670 WT6  8939 TIP3 H2   HT     0.417000        1.0080           0
  104671 WT6  8940 TIP3 OH2  OT    -0.834000       15.9994           0
  104672 WT6  8940 TIP3 H1   HT     0.417000        1.0080           0
  104673 WT6  8940 TIP3 H2   HT     0.417000        1.0080           0
  104674 WT6  8949 TIP3 OH2  OT    -0.834000       15.9994           0
  104675 WT6  8949 TIP3 H1   HT     0.417000        1.0080           0
  104676 WT6  8949 TIP3 H2   HT     0.417000        1.0080           0
  104677 WT6  8952 TIP3 OH2  OT    -0.834000       15.9994           0
  104678 WT6  8952 TIP3 H1   HT     0.417000        1.0080           0
  104679 WT6  8952 TIP3 H2   HT     0.417000        1.0080           0
  104680 WT6  8954 TIP3 OH2  OT    -0.834000       15.9994           0
  104681 WT6  8954 TIP3 H1   HT     0.417000        1.0080           0
  104682 WT6  8954 TIP3 H2   HT     0.417000        1.0080           0
  104683 WT6  8956 TIP3 OH2  OT    -0.834000       15.9994           0
  104684 WT6  8956 TIP3 H1   HT     0.417000        1.0080           0
  104685 WT6  8956 TIP3 H2   HT     0.417000        1.0080           0
  104686 WT6  8960 TIP3 OH2  OT    -0.834000       15.9994           0
  104687 WT6  8960 TIP3 H1   HT     0.417000        1.0080           0
  104688 WT6  8960 TIP3 H2   HT     0.417000        1.0080           0
  104689 WT6  8961 TIP3 OH2  OT    -0.834000       15.9994           0
  104690 WT6  8961 TIP3 H1   HT     0.417000        1.0080           0
  104691 WT6  8961 TIP3 H2   HT     0.417000        1.0080           0
  104692 WT6  8970 TIP3 OH2  OT    -0.834000       15.9994           0
  104693 WT6  8970 TIP3 H1   HT     0.417000        1.0080           0
  104694 WT6  8970 TIP3 H2   HT     0.417000        1.0080           0
  104695 WT6  8972 TIP3 OH2  OT    -0.834000       15.9994           0
  104696 WT6  8972 TIP3 H1   HT     0.417000        1.0080           0
  104697 WT6  8972 TIP3 H2   HT     0.417000        1.0080           0
  104698 WT6  8973 TIP3 OH2  OT    -0.834000       15.9994           0
  104699 WT6  8973 TIP3 H1   HT     0.417000        1.0080           0
  104700 WT6  8973 TIP3 H2   HT     0.417000        1.0080           0
  104701 WT6  8976 TIP3 OH2  OT    -0.834000       15.9994           0
  104702 WT6  8976 TIP3 H1   HT     0.417000        1.0080           0
  104703 WT6  8976 TIP3 H2   HT     0.417000        1.0080           0
  104704 WT6  8977 TIP3 OH2  OT    -0.834000       15.9994           0
  104705 WT6  8977 TIP3 H1   HT     0.417000        1.0080           0
  104706 WT6  8977 TIP3 H2   HT     0.417000        1.0080           0
  104707 WT6  8978 TIP3 OH2  OT    -0.834000       15.9994           0
  104708 WT6  8978 TIP3 H1   HT     0.417000        1.0080           0
  104709 WT6  8978 TIP3 H2   HT     0.417000        1.0080           0
  104710 WT6  8988 TIP3 OH2  OT    -0.834000       15.9994           0
  104711 WT6  8988 TIP3 H1   HT     0.417000        1.0080           0
  104712 WT6  8988 TIP3 H2   HT     0.417000        1.0080           0
  104713 WT6  8994 TIP3 OH2  OT    -0.834000       15.9994           0
  104714 WT6  8994 TIP3 H1   HT     0.417000        1.0080           0
  104715 WT6  8994 TIP3 H2   HT     0.417000        1.0080           0
  104716 WT6  9001 TIP3 OH2  OT    -0.834000       15.9994           0
  104717 WT6  9001 TIP3 H1   HT     0.417000        1.0080           0
  104718 WT6  9001 TIP3 H2   HT     0.417000        1.0080           0
  104719 WT6  9013 TIP3 OH2  OT    -0.834000       15.9994           0
  104720 WT6  9013 TIP3 H1   HT     0.417000        1.0080           0
  104721 WT6  9013 TIP3 H2   HT     0.417000        1.0080           0
  104722 WT6  9015 TIP3 OH2  OT    -0.834000       15.9994           0
  104723 WT6  9015 TIP3 H1   HT     0.417000        1.0080           0
  104724 WT6  9015 TIP3 H2   HT     0.417000        1.0080           0
  104725 WT6  9017 TIP3 OH2  OT    -0.834000       15.9994           0
  104726 WT6  9017 TIP3 H1   HT     0.417000        1.0080           0
  104727 WT6  9017 TIP3 H2   HT     0.417000        1.0080           0
  104728 WT6  9034 TIP3 OH2  OT    -0.834000       15.9994           0
  104729 WT6  9034 TIP3 H1   HT     0.417000        1.0080           0
  104730 WT6  9034 TIP3 H2   HT     0.417000        1.0080           0
  104731 WT6  9035 TIP3 OH2  OT    -0.834000       15.9994           0
  104732 WT6  9035 TIP3 H1   HT     0.417000        1.0080           0
  104733 WT6  9035 TIP3 H2   HT     0.417000        1.0080           0
  104734 WT6  9037 TIP3 OH2  OT    -0.834000       15.9994           0
  104735 WT6  9037 TIP3 H1   HT     0.417000        1.0080           0
  104736 WT6  9037 TIP3 H2   HT     0.417000        1.0080           0
  104737 WT6  9039 TIP3 OH2  OT    -0.834000       15.9994           0
  104738 WT6  9039 TIP3 H1   HT     0.417000        1.0080           0
  104739 WT6  9039 TIP3 H2   HT     0.417000        1.0080           0
  104740 WT6  9044 TIP3 OH2  OT    -0.834000       15.9994           0
  104741 WT6  9044 TIP3 H1   HT     0.417000        1.0080           0
  104742 WT6  9044 TIP3 H2   HT     0.417000        1.0080           0
  104743 WT6  9047 TIP3 OH2  OT    -0.834000       15.9994           0
  104744 WT6  9047 TIP3 H1   HT     0.417000        1.0080           0
  104745 WT6  9047 TIP3 H2   HT     0.417000        1.0080           0
  104746 WT6  9054 TIP3 OH2  OT    -0.834000       15.9994           0
  104747 WT6  9054 TIP3 H1   HT     0.417000        1.0080           0
  104748 WT6  9054 TIP3 H2   HT     0.417000        1.0080           0
  104749 WT6  9055 TIP3 OH2  OT    -0.834000       15.9994           0
  104750 WT6  9055 TIP3 H1   HT     0.417000        1.0080           0
  104751 WT6  9055 TIP3 H2   HT     0.417000        1.0080           0
  104752 WT6  9056 TIP3 OH2  OT    -0.834000       15.9994           0
  104753 WT6  9056 TIP3 H1   HT     0.417000        1.0080           0
  104754 WT6  9056 TIP3 H2   HT     0.417000        1.0080           0
  104755 WT6  9057 TIP3 OH2  OT    -0.834000       15.9994           0
  104756 WT6  9057 TIP3 H1   HT     0.417000        1.0080           0
  104757 WT6  9057 TIP3 H2   HT     0.417000        1.0080           0
  104758 WT6  9058 TIP3 OH2  OT    -0.834000       15.9994           0
  104759 WT6  9058 TIP3 H1   HT     0.417000        1.0080           0
  104760 WT6  9058 TIP3 H2   HT     0.417000        1.0080           0
  104761 WT6  9064 TIP3 OH2  OT    -0.834000       15.9994           0
  104762 WT6  9064 TIP3 H1   HT     0.417000        1.0080           0
  104763 WT6  9064 TIP3 H2   HT     0.417000        1.0080           0
  104764 WT6  9065 TIP3 OH2  OT    -0.834000       15.9994           0
  104765 WT6  9065 TIP3 H1   HT     0.417000        1.0080           0
  104766 WT6  9065 TIP3 H2   HT     0.417000        1.0080           0
  104767 WT6  9073 TIP3 OH2  OT    -0.834000       15.9994           0
  104768 WT6  9073 TIP3 H1   HT     0.417000        1.0080           0
  104769 WT6  9073 TIP3 H2   HT     0.417000        1.0080           0
  104770 WT6  9077 TIP3 OH2  OT    -0.834000       15.9994           0
  104771 WT6  9077 TIP3 H1   HT     0.417000        1.0080           0
  104772 WT6  9077 TIP3 H2   HT     0.417000        1.0080           0
  104773 WT6  9079 TIP3 OH2  OT    -0.834000       15.9994           0
  104774 WT6  9079 TIP3 H1   HT     0.417000        1.0080           0
  104775 WT6  9079 TIP3 H2   HT     0.417000        1.0080           0
  104776 WT6  9080 TIP3 OH2  OT    -0.834000       15.9994           0
  104777 WT6  9080 TIP3 H1   HT     0.417000        1.0080           0
  104778 WT6  9080 TIP3 H2   HT     0.417000        1.0080           0
  104779 WT6  9082 TIP3 OH2  OT    -0.834000       15.9994           0
  104780 WT6  9082 TIP3 H1   HT     0.417000        1.0080           0
  104781 WT6  9082 TIP3 H2   HT     0.417000        1.0080           0
  104782 WT6  9084 TIP3 OH2  OT    -0.834000       15.9994           0
  104783 WT6  9084 TIP3 H1   HT     0.417000        1.0080           0
  104784 WT6  9084 TIP3 H2   HT     0.417000        1.0080           0
  104785 WT6  9085 TIP3 OH2  OT    -0.834000       15.9994           0
  104786 WT6  9085 TIP3 H1   HT     0.417000        1.0080           0
  104787 WT6  9085 TIP3 H2   HT     0.417000        1.0080           0
  104788 WT6  9093 TIP3 OH2  OT    -0.834000       15.9994           0
  104789 WT6  9093 TIP3 H1   HT     0.417000        1.0080           0
  104790 WT6  9093 TIP3 H2   HT     0.417000        1.0080           0
  104791 WT6  9096 TIP3 OH2  OT    -0.834000       15.9994           0
  104792 WT6  9096 TIP3 H1   HT     0.417000        1.0080           0
  104793 WT6  9096 TIP3 H2   HT     0.417000        1.0080           0
  104794 WT6  9097 TIP3 OH2  OT    -0.834000       15.9994           0
  104795 WT6  9097 TIP3 H1   HT     0.417000        1.0080           0
  104796 WT6  9097 TIP3 H2   HT     0.417000        1.0080           0
  104797 WT6  9102 TIP3 OH2  OT    -0.834000       15.9994           0
  104798 WT6  9102 TIP3 H1   HT     0.417000        1.0080           0
  104799 WT6  9102 TIP3 H2   HT     0.417000        1.0080           0
  104800 WT6  9105 TIP3 OH2  OT    -0.834000       15.9994           0
  104801 WT6  9105 TIP3 H1   HT     0.417000        1.0080           0
  104802 WT6  9105 TIP3 H2   HT     0.417000        1.0080           0
  104803 WT6  9106 TIP3 OH2  OT    -0.834000       15.9994           0
  104804 WT6  9106 TIP3 H1   HT     0.417000        1.0080           0
  104805 WT6  9106 TIP3 H2   HT     0.417000        1.0080           0
  104806 WT6  9116 TIP3 OH2  OT    -0.834000       15.9994           0
  104807 WT6  9116 TIP3 H1   HT     0.417000        1.0080           0
  104808 WT6  9116 TIP3 H2   HT     0.417000        1.0080           0
  104809 WT6  9124 TIP3 OH2  OT    -0.834000       15.9994           0
  104810 WT6  9124 TIP3 H1   HT     0.417000        1.0080           0
  104811 WT6  9124 TIP3 H2   HT     0.417000        1.0080           0
  104812 WT6  9125 TIP3 OH2  OT    -0.834000       15.9994           0
  104813 WT6  9125 TIP3 H1   HT     0.417000        1.0080           0
  104814 WT6  9125 TIP3 H2   HT     0.417000        1.0080           0
  104815 WT6  9126 TIP3 OH2  OT    -0.834000       15.9994           0
  104816 WT6  9126 TIP3 H1   HT     0.417000        1.0080           0
  104817 WT6  9126 TIP3 H2   HT     0.417000        1.0080           0
  104818 WT6  9127 TIP3 OH2  OT    -0.834000       15.9994           0
  104819 WT6  9127 TIP3 H1   HT     0.417000        1.0080           0
  104820 WT6  9127 TIP3 H2   HT     0.417000        1.0080           0
  104821 WT6  9128 TIP3 OH2  OT    -0.834000       15.9994           0
  104822 WT6  9128 TIP3 H1   HT     0.417000        1.0080           0
  104823 WT6  9128 TIP3 H2   HT     0.417000        1.0080           0
  104824 WT6  9136 TIP3 OH2  OT    -0.834000       15.9994           0
  104825 WT6  9136 TIP3 H1   HT     0.417000        1.0080           0
  104826 WT6  9136 TIP3 H2   HT     0.417000        1.0080           0
  104827 WT6  9142 TIP3 OH2  OT    -0.834000       15.9994           0
  104828 WT6  9142 TIP3 H1   HT     0.417000        1.0080           0
  104829 WT6  9142 TIP3 H2   HT     0.417000        1.0080           0
  104830 WT6  9143 TIP3 OH2  OT    -0.834000       15.9994           0
  104831 WT6  9143 TIP3 H1   HT     0.417000        1.0080           0
  104832 WT6  9143 TIP3 H2   HT     0.417000        1.0080           0
  104833 WT6  9144 TIP3 OH2  OT    -0.834000       15.9994           0
  104834 WT6  9144 TIP3 H1   HT     0.417000        1.0080           0
  104835 WT6  9144 TIP3 H2   HT     0.417000        1.0080           0
  104836 WT6  9145 TIP3 OH2  OT    -0.834000       15.9994           0
  104837 WT6  9145 TIP3 H1   HT     0.417000        1.0080           0
  104838 WT6  9145 TIP3 H2   HT     0.417000        1.0080           0
  104839 WT6  9157 TIP3 OH2  OT    -0.834000       15.9994           0
  104840 WT6  9157 TIP3 H1   HT     0.417000        1.0080           0
  104841 WT6  9157 TIP3 H2   HT     0.417000        1.0080           0
  104842 WT6  9158 TIP3 OH2  OT    -0.834000       15.9994           0
  104843 WT6  9158 TIP3 H1   HT     0.417000        1.0080           0
  104844 WT6  9158 TIP3 H2   HT     0.417000        1.0080           0
  104845 WT6  9161 TIP3 OH2  OT    -0.834000       15.9994           0
  104846 WT6  9161 TIP3 H1   HT     0.417000        1.0080           0
  104847 WT6  9161 TIP3 H2   HT     0.417000        1.0080           0
  104848 WT6  9162 TIP3 OH2  OT    -0.834000       15.9994           0
  104849 WT6  9162 TIP3 H1   HT     0.417000        1.0080           0
  104850 WT6  9162 TIP3 H2   HT     0.417000        1.0080           0
  104851 WT6  9165 TIP3 OH2  OT    -0.834000       15.9994           0
  104852 WT6  9165 TIP3 H1   HT     0.417000        1.0080           0
  104853 WT6  9165 TIP3 H2   HT     0.417000        1.0080           0
  104854 WT6  9170 TIP3 OH2  OT    -0.834000       15.9994           0
  104855 WT6  9170 TIP3 H1   HT     0.417000        1.0080           0
  104856 WT6  9170 TIP3 H2   HT     0.417000        1.0080           0
  104857 WT6  9180 TIP3 OH2  OT    -0.834000       15.9994           0
  104858 WT6  9180 TIP3 H1   HT     0.417000        1.0080           0
  104859 WT6  9180 TIP3 H2   HT     0.417000        1.0080           0
  104860 WT6  9181 TIP3 OH2  OT    -0.834000       15.9994           0
  104861 WT6  9181 TIP3 H1   HT     0.417000        1.0080           0
  104862 WT6  9181 TIP3 H2   HT     0.417000        1.0080           0
  104863 WT6  9182 TIP3 OH2  OT    -0.834000       15.9994           0
  104864 WT6  9182 TIP3 H1   HT     0.417000        1.0080           0
  104865 WT6  9182 TIP3 H2   HT     0.417000        1.0080           0
  104866 WT6  9183 TIP3 OH2  OT    -0.834000       15.9994           0
  104867 WT6  9183 TIP3 H1   HT     0.417000        1.0080           0
  104868 WT6  9183 TIP3 H2   HT     0.417000        1.0080           0
  104869 WT6  9184 TIP3 OH2  OT    -0.834000       15.9994           0
  104870 WT6  9184 TIP3 H1   HT     0.417000        1.0080           0
  104871 WT6  9184 TIP3 H2   HT     0.417000        1.0080           0
  104872 WT6  9185 TIP3 OH2  OT    -0.834000       15.9994           0
  104873 WT6  9185 TIP3 H1   HT     0.417000        1.0080           0
  104874 WT6  9185 TIP3 H2   HT     0.417000        1.0080           0
  104875 WT6  9186 TIP3 OH2  OT    -0.834000       15.9994           0
  104876 WT6  9186 TIP3 H1   HT     0.417000        1.0080           0
  104877 WT6  9186 TIP3 H2   HT     0.417000        1.0080           0
  104878 WT6  9187 TIP3 OH2  OT    -0.834000       15.9994           0
  104879 WT6  9187 TIP3 H1   HT     0.417000        1.0080           0
  104880 WT6  9187 TIP3 H2   HT     0.417000        1.0080           0
  104881 WT6  9188 TIP3 OH2  OT    -0.834000       15.9994           0
  104882 WT6  9188 TIP3 H1   HT     0.417000        1.0080           0
  104883 WT6  9188 TIP3 H2   HT     0.417000        1.0080           0
  104884 WT6  9189 TIP3 OH2  OT    -0.834000       15.9994           0
  104885 WT6  9189 TIP3 H1   HT     0.417000        1.0080           0
  104886 WT6  9189 TIP3 H2   HT     0.417000        1.0080           0
  104887 WT6  9196 TIP3 OH2  OT    -0.834000       15.9994           0
  104888 WT6  9196 TIP3 H1   HT     0.417000        1.0080           0
  104889 WT6  9196 TIP3 H2   HT     0.417000        1.0080           0
  104890 WT6  9198 TIP3 OH2  OT    -0.834000       15.9994           0
  104891 WT6  9198 TIP3 H1   HT     0.417000        1.0080           0
  104892 WT6  9198 TIP3 H2   HT     0.417000        1.0080           0
  104893 WT6  9206 TIP3 OH2  OT    -0.834000       15.9994           0
  104894 WT6  9206 TIP3 H1   HT     0.417000        1.0080           0
  104895 WT6  9206 TIP3 H2   HT     0.417000        1.0080           0
  104896 WT6  9212 TIP3 OH2  OT    -0.834000       15.9994           0
  104897 WT6  9212 TIP3 H1   HT     0.417000        1.0080           0
  104898 WT6  9212 TIP3 H2   HT     0.417000        1.0080           0
  104899 WT6  9213 TIP3 OH2  OT    -0.834000       15.9994           0
  104900 WT6  9213 TIP3 H1   HT     0.417000        1.0080           0
  104901 WT6  9213 TIP3 H2   HT     0.417000        1.0080           0
  104902 WT6  9222 TIP3 OH2  OT    -0.834000       15.9994           0
  104903 WT6  9222 TIP3 H1   HT     0.417000        1.0080           0
  104904 WT6  9222 TIP3 H2   HT     0.417000        1.0080           0
  104905 WT6  9223 TIP3 OH2  OT    -0.834000       15.9994           0
  104906 WT6  9223 TIP3 H1   HT     0.417000        1.0080           0
  104907 WT6  9223 TIP3 H2   HT     0.417000        1.0080           0
  104908 WT6  9225 TIP3 OH2  OT    -0.834000       15.9994           0
  104909 WT6  9225 TIP3 H1   HT     0.417000        1.0080           0
  104910 WT6  9225 TIP3 H2   HT     0.417000        1.0080           0
  104911 WT6  9226 TIP3 OH2  OT    -0.834000       15.9994           0
  104912 WT6  9226 TIP3 H1   HT     0.417000        1.0080           0
  104913 WT6  9226 TIP3 H2   HT     0.417000        1.0080           0
  104914 WT6  9227 TIP3 OH2  OT    -0.834000       15.9994           0
  104915 WT6  9227 TIP3 H1   HT     0.417000        1.0080           0
  104916 WT6  9227 TIP3 H2   HT     0.417000        1.0080           0
  104917 WT6  9228 TIP3 OH2  OT    -0.834000       15.9994           0
  104918 WT6  9228 TIP3 H1   HT     0.417000        1.0080           0
  104919 WT6  9228 TIP3 H2   HT     0.417000        1.0080           0
  104920 WT6  9229 TIP3 OH2  OT    -0.834000       15.9994           0
  104921 WT6  9229 TIP3 H1   HT     0.417000        1.0080           0
  104922 WT6  9229 TIP3 H2   HT     0.417000        1.0080           0
  104923 WT6  9232 TIP3 OH2  OT    -0.834000       15.9994           0
  104924 WT6  9232 TIP3 H1   HT     0.417000        1.0080           0
  104925 WT6  9232 TIP3 H2   HT     0.417000        1.0080           0
  104926 WT6  9234 TIP3 OH2  OT    -0.834000       15.9994           0
  104927 WT6  9234 TIP3 H1   HT     0.417000        1.0080           0
  104928 WT6  9234 TIP3 H2   HT     0.417000        1.0080           0
  104929 WT6  9241 TIP3 OH2  OT    -0.834000       15.9994           0
  104930 WT6  9241 TIP3 H1   HT     0.417000        1.0080           0
  104931 WT6  9241 TIP3 H2   HT     0.417000        1.0080           0
  104932 WT6  9244 TIP3 OH2  OT    -0.834000       15.9994           0
  104933 WT6  9244 TIP3 H1   HT     0.417000        1.0080           0
  104934 WT6  9244 TIP3 H2   HT     0.417000        1.0080           0
  104935 WT6  9250 TIP3 OH2  OT    -0.834000       15.9994           0
  104936 WT6  9250 TIP3 H1   HT     0.417000        1.0080           0
  104937 WT6  9250 TIP3 H2   HT     0.417000        1.0080           0
  104938 WT6  9251 TIP3 OH2  OT    -0.834000       15.9994           0
  104939 WT6  9251 TIP3 H1   HT     0.417000        1.0080           0
  104940 WT6  9251 TIP3 H2   HT     0.417000        1.0080           0
  104941 WT6  9254 TIP3 OH2  OT    -0.834000       15.9994           0
  104942 WT6  9254 TIP3 H1   HT     0.417000        1.0080           0
  104943 WT6  9254 TIP3 H2   HT     0.417000        1.0080           0
  104944 WT6  9259 TIP3 OH2  OT    -0.834000       15.9994           0
  104945 WT6  9259 TIP3 H1   HT     0.417000        1.0080           0
  104946 WT6  9259 TIP3 H2   HT     0.417000        1.0080           0
  104947 WT7  5    TIP3 OH2  OT    -0.834000       15.9994           0
  104948 WT7  5    TIP3 H1   HT     0.417000        1.0080           0
  104949 WT7  5    TIP3 H2   HT     0.417000        1.0080           0
  104950 WT7  7    TIP3 OH2  OT    -0.834000       15.9994           0
  104951 WT7  7    TIP3 H1   HT     0.417000        1.0080           0
  104952 WT7  7    TIP3 H2   HT     0.417000        1.0080           0
  104953 WT7  8    TIP3 OH2  OT    -0.834000       15.9994           0
  104954 WT7  8    TIP3 H1   HT     0.417000        1.0080           0
  104955 WT7  8    TIP3 H2   HT     0.417000        1.0080           0
  104956 WT7  15   TIP3 OH2  OT    -0.834000       15.9994           0
  104957 WT7  15   TIP3 H1   HT     0.417000        1.0080           0
  104958 WT7  15   TIP3 H2   HT     0.417000        1.0080           0
  104959 WT7  17   TIP3 OH2  OT    -0.834000       15.9994           0
  104960 WT7  17   TIP3 H1   HT     0.417000        1.0080           0
  104961 WT7  17   TIP3 H2   HT     0.417000        1.0080           0
  104962 WT7  19   TIP3 OH2  OT    -0.834000       15.9994           0
  104963 WT7  19   TIP3 H1   HT     0.417000        1.0080           0
  104964 WT7  19   TIP3 H2   HT     0.417000        1.0080           0
  104965 WT7  26   TIP3 OH2  OT    -0.834000       15.9994           0
  104966 WT7  26   TIP3 H1   HT     0.417000        1.0080           0
  104967 WT7  26   TIP3 H2   HT     0.417000        1.0080           0
  104968 WT7  29   TIP3 OH2  OT    -0.834000       15.9994           0
  104969 WT7  29   TIP3 H1   HT     0.417000        1.0080           0
  104970 WT7  29   TIP3 H2   HT     0.417000        1.0080           0
  104971 WT7  30   TIP3 OH2  OT    -0.834000       15.9994           0
  104972 WT7  30   TIP3 H1   HT     0.417000        1.0080           0
  104973 WT7  30   TIP3 H2   HT     0.417000        1.0080           0
  104974 WT7  37   TIP3 OH2  OT    -0.834000       15.9994           0
  104975 WT7  37   TIP3 H1   HT     0.417000        1.0080           0
  104976 WT7  37   TIP3 H2   HT     0.417000        1.0080           0
  104977 WT7  41   TIP3 OH2  OT    -0.834000       15.9994           0
  104978 WT7  41   TIP3 H1   HT     0.417000        1.0080           0
  104979 WT7  41   TIP3 H2   HT     0.417000        1.0080           0
  104980 WT7  42   TIP3 OH2  OT    -0.834000       15.9994           0
  104981 WT7  42   TIP3 H1   HT     0.417000        1.0080           0
  104982 WT7  42   TIP3 H2   HT     0.417000        1.0080           0
  104983 WT7  44   TIP3 OH2  OT    -0.834000       15.9994           0
  104984 WT7  44   TIP3 H1   HT     0.417000        1.0080           0
  104985 WT7  44   TIP3 H2   HT     0.417000        1.0080           0
  104986 WT7  46   TIP3 OH2  OT    -0.834000       15.9994           0
  104987 WT7  46   TIP3 H1   HT     0.417000        1.0080           0
  104988 WT7  46   TIP3 H2   HT     0.417000        1.0080           0
  104989 WT7  47   TIP3 OH2  OT    -0.834000       15.9994           0
  104990 WT7  47   TIP3 H1   HT     0.417000        1.0080           0
  104991 WT7  47   TIP3 H2   HT     0.417000        1.0080           0
  104992 WT7  48   TIP3 OH2  OT    -0.834000       15.9994           0
  104993 WT7  48   TIP3 H1   HT     0.417000        1.0080           0
  104994 WT7  48   TIP3 H2   HT     0.417000        1.0080           0
  104995 WT7  52   TIP3 OH2  OT    -0.834000       15.9994           0
  104996 WT7  52   TIP3 H1   HT     0.417000        1.0080           0
  104997 WT7  52   TIP3 H2   HT     0.417000        1.0080           0
  104998 WT7  53   TIP3 OH2  OT    -0.834000       15.9994           0
  104999 WT7  53   TIP3 H1   HT     0.417000        1.0080           0
  105000 WT7  53   TIP3 H2   HT     0.417000        1.0080           0
  105001 WT7  55   TIP3 OH2  OT    -0.834000       15.9994           0
  105002 WT7  55   TIP3 H1   HT     0.417000        1.0080           0
  105003 WT7  55   TIP3 H2   HT     0.417000        1.0080           0
  105004 WT7  56   TIP3 OH2  OT    -0.834000       15.9994           0
  105005 WT7  56   TIP3 H1   HT     0.417000        1.0080           0
  105006 WT7  56   TIP3 H2   HT     0.417000        1.0080           0
  105007 WT7  61   TIP3 OH2  OT    -0.834000       15.9994           0
  105008 WT7  61   TIP3 H1   HT     0.417000        1.0080           0
  105009 WT7  61   TIP3 H2   HT     0.417000        1.0080           0
  105010 WT7  64   TIP3 OH2  OT    -0.834000       15.9994           0
  105011 WT7  64   TIP3 H1   HT     0.417000        1.0080           0
  105012 WT7  64   TIP3 H2   HT     0.417000        1.0080           0
  105013 WT7  67   TIP3 OH2  OT    -0.834000       15.9994           0
  105014 WT7  67   TIP3 H1   HT     0.417000        1.0080           0
  105015 WT7  67   TIP3 H2   HT     0.417000        1.0080           0
  105016 WT7  68   TIP3 OH2  OT    -0.834000       15.9994           0
  105017 WT7  68   TIP3 H1   HT     0.417000        1.0080           0
  105018 WT7  68   TIP3 H2   HT     0.417000        1.0080           0
  105019 WT7  71   TIP3 OH2  OT    -0.834000       15.9994           0
  105020 WT7  71   TIP3 H1   HT     0.417000        1.0080           0
  105021 WT7  71   TIP3 H2   HT     0.417000        1.0080           0
  105022 WT7  75   TIP3 OH2  OT    -0.834000       15.9994           0
  105023 WT7  75   TIP3 H1   HT     0.417000        1.0080           0
  105024 WT7  75   TIP3 H2   HT     0.417000        1.0080           0
  105025 WT7  76   TIP3 OH2  OT    -0.834000       15.9994           0
  105026 WT7  76   TIP3 H1   HT     0.417000        1.0080           0
  105027 WT7  76   TIP3 H2   HT     0.417000        1.0080           0
  105028 WT7  81   TIP3 OH2  OT    -0.834000       15.9994           0
  105029 WT7  81   TIP3 H1   HT     0.417000        1.0080           0
  105030 WT7  81   TIP3 H2   HT     0.417000        1.0080           0
  105031 WT7  86   TIP3 OH2  OT    -0.834000       15.9994           0
  105032 WT7  86   TIP3 H1   HT     0.417000        1.0080           0
  105033 WT7  86   TIP3 H2   HT     0.417000        1.0080           0
  105034 WT7  87   TIP3 OH2  OT    -0.834000       15.9994           0
  105035 WT7  87   TIP3 H1   HT     0.417000        1.0080           0
  105036 WT7  87   TIP3 H2   HT     0.417000        1.0080           0
  105037 WT7  88   TIP3 OH2  OT    -0.834000       15.9994           0
  105038 WT7  88   TIP3 H1   HT     0.417000        1.0080           0
  105039 WT7  88   TIP3 H2   HT     0.417000        1.0080           0
  105040 WT7  90   TIP3 OH2  OT    -0.834000       15.9994           0
  105041 WT7  90   TIP3 H1   HT     0.417000        1.0080           0
  105042 WT7  90   TIP3 H2   HT     0.417000        1.0080           0
  105043 WT7  94   TIP3 OH2  OT    -0.834000       15.9994           0
  105044 WT7  94   TIP3 H1   HT     0.417000        1.0080           0
  105045 WT7  94   TIP3 H2   HT     0.417000        1.0080           0
  105046 WT7  95   TIP3 OH2  OT    -0.834000       15.9994           0
  105047 WT7  95   TIP3 H1   HT     0.417000        1.0080           0
  105048 WT7  95   TIP3 H2   HT     0.417000        1.0080           0
  105049 WT7  97   TIP3 OH2  OT    -0.834000       15.9994           0
  105050 WT7  97   TIP3 H1   HT     0.417000        1.0080           0
  105051 WT7  97   TIP3 H2   HT     0.417000        1.0080           0
  105052 WT7  98   TIP3 OH2  OT    -0.834000       15.9994           0
  105053 WT7  98   TIP3 H1   HT     0.417000        1.0080           0
  105054 WT7  98   TIP3 H2   HT     0.417000        1.0080           0
  105055 WT7  99   TIP3 OH2  OT    -0.834000       15.9994           0
  105056 WT7  99   TIP3 H1   HT     0.417000        1.0080           0
  105057 WT7  99   TIP3 H2   HT     0.417000        1.0080           0
  105058 WT7  105  TIP3 OH2  OT    -0.834000       15.9994           0
  105059 WT7  105  TIP3 H1   HT     0.417000        1.0080           0
  105060 WT7  105  TIP3 H2   HT     0.417000        1.0080           0
  105061 WT7  108  TIP3 OH2  OT    -0.834000       15.9994           0
  105062 WT7  108  TIP3 H1   HT     0.417000        1.0080           0
  105063 WT7  108  TIP3 H2   HT     0.417000        1.0080           0
  105064 WT7  111  TIP3 OH2  OT    -0.834000       15.9994           0
  105065 WT7  111  TIP3 H1   HT     0.417000        1.0080           0
  105066 WT7  111  TIP3 H2   HT     0.417000        1.0080           0
  105067 WT7  112  TIP3 OH2  OT    -0.834000       15.9994           0
  105068 WT7  112  TIP3 H1   HT     0.417000        1.0080           0
  105069 WT7  112  TIP3 H2   HT     0.417000        1.0080           0
  105070 WT7  113  TIP3 OH2  OT    -0.834000       15.9994           0
  105071 WT7  113  TIP3 H1   HT     0.417000        1.0080           0
  105072 WT7  113  TIP3 H2   HT     0.417000        1.0080           0
  105073 WT7  115  TIP3 OH2  OT    -0.834000       15.9994           0
  105074 WT7  115  TIP3 H1   HT     0.417000        1.0080           0
  105075 WT7  115  TIP3 H2   HT     0.417000        1.0080           0
  105076 WT7  116  TIP3 OH2  OT    -0.834000       15.9994           0
  105077 WT7  116  TIP3 H1   HT     0.417000        1.0080           0
  105078 WT7  116  TIP3 H2   HT     0.417000        1.0080           0
  105079 WT7  122  TIP3 OH2  OT    -0.834000       15.9994           0
  105080 WT7  122  TIP3 H1   HT     0.417000        1.0080           0
  105081 WT7  122  TIP3 H2   HT     0.417000        1.0080           0
  105082 WT7  123  TIP3 OH2  OT    -0.834000       15.9994           0
  105083 WT7  123  TIP3 H1   HT     0.417000        1.0080           0
  105084 WT7  123  TIP3 H2   HT     0.417000        1.0080           0
  105085 WT7  124  TIP3 OH2  OT    -0.834000       15.9994           0
  105086 WT7  124  TIP3 H1   HT     0.417000        1.0080           0
  105087 WT7  124  TIP3 H2   HT     0.417000        1.0080           0
  105088 WT7  125  TIP3 OH2  OT    -0.834000       15.9994           0
  105089 WT7  125  TIP3 H1   HT     0.417000        1.0080           0
  105090 WT7  125  TIP3 H2   HT     0.417000        1.0080           0
  105091 WT7  126  TIP3 OH2  OT    -0.834000       15.9994           0
  105092 WT7  126  TIP3 H1   HT     0.417000        1.0080           0
  105093 WT7  126  TIP3 H2   HT     0.417000        1.0080           0
  105094 WT7  127  TIP3 OH2  OT    -0.834000       15.9994           0
  105095 WT7  127  TIP3 H1   HT     0.417000        1.0080           0
  105096 WT7  127  TIP3 H2   HT     0.417000        1.0080           0
  105097 WT7  128  TIP3 OH2  OT    -0.834000       15.9994           0
  105098 WT7  128  TIP3 H1   HT     0.417000        1.0080           0
  105099 WT7  128  TIP3 H2   HT     0.417000        1.0080           0
  105100 WT7  129  TIP3 OH2  OT    -0.834000       15.9994           0
  105101 WT7  129  TIP3 H1   HT     0.417000        1.0080           0
  105102 WT7  129  TIP3 H2   HT     0.417000        1.0080           0
  105103 WT7  130  TIP3 OH2  OT    -0.834000       15.9994           0
  105104 WT7  130  TIP3 H1   HT     0.417000        1.0080           0
  105105 WT7  130  TIP3 H2   HT     0.417000        1.0080           0
  105106 WT7  131  TIP3 OH2  OT    -0.834000       15.9994           0
  105107 WT7  131  TIP3 H1   HT     0.417000        1.0080           0
  105108 WT7  131  TIP3 H2   HT     0.417000        1.0080           0
  105109 WT7  133  TIP3 OH2  OT    -0.834000       15.9994           0
  105110 WT7  133  TIP3 H1   HT     0.417000        1.0080           0
  105111 WT7  133  TIP3 H2   HT     0.417000        1.0080           0
  105112 WT7  134  TIP3 OH2  OT    -0.834000       15.9994           0
  105113 WT7  134  TIP3 H1   HT     0.417000        1.0080           0
  105114 WT7  134  TIP3 H2   HT     0.417000        1.0080           0
  105115 WT7  135  TIP3 OH2  OT    -0.834000       15.9994           0
  105116 WT7  135  TIP3 H1   HT     0.417000        1.0080           0
  105117 WT7  135  TIP3 H2   HT     0.417000        1.0080           0
  105118 WT7  137  TIP3 OH2  OT    -0.834000       15.9994           0
  105119 WT7  137  TIP3 H1   HT     0.417000        1.0080           0
  105120 WT7  137  TIP3 H2   HT     0.417000        1.0080           0
  105121 WT7  141  TIP3 OH2  OT    -0.834000       15.9994           0
  105122 WT7  141  TIP3 H1   HT     0.417000        1.0080           0
  105123 WT7  141  TIP3 H2   HT     0.417000        1.0080           0
  105124 WT7  145  TIP3 OH2  OT    -0.834000       15.9994           0
  105125 WT7  145  TIP3 H1   HT     0.417000        1.0080           0
  105126 WT7  145  TIP3 H2   HT     0.417000        1.0080           0
  105127 WT7  146  TIP3 OH2  OT    -0.834000       15.9994           0
  105128 WT7  146  TIP3 H1   HT     0.417000        1.0080           0
  105129 WT7  146  TIP3 H2   HT     0.417000        1.0080           0
  105130 WT7  147  TIP3 OH2  OT    -0.834000       15.9994           0
  105131 WT7  147  TIP3 H1   HT     0.417000        1.0080           0
  105132 WT7  147  TIP3 H2   HT     0.417000        1.0080           0
  105133 WT7  149  TIP3 OH2  OT    -0.834000       15.9994           0
  105134 WT7  149  TIP3 H1   HT     0.417000        1.0080           0
  105135 WT7  149  TIP3 H2   HT     0.417000        1.0080           0
  105136 WT7  150  TIP3 OH2  OT    -0.834000       15.9994           0
  105137 WT7  150  TIP3 H1   HT     0.417000        1.0080           0
  105138 WT7  150  TIP3 H2   HT     0.417000        1.0080           0
  105139 WT7  152  TIP3 OH2  OT    -0.834000       15.9994           0
  105140 WT7  152  TIP3 H1   HT     0.417000        1.0080           0
  105141 WT7  152  TIP3 H2   HT     0.417000        1.0080           0
  105142 WT7  153  TIP3 OH2  OT    -0.834000       15.9994           0
  105143 WT7  153  TIP3 H1   HT     0.417000        1.0080           0
  105144 WT7  153  TIP3 H2   HT     0.417000        1.0080           0
  105145 WT7  155  TIP3 OH2  OT    -0.834000       15.9994           0
  105146 WT7  155  TIP3 H1   HT     0.417000        1.0080           0
  105147 WT7  155  TIP3 H2   HT     0.417000        1.0080           0
  105148 WT7  156  TIP3 OH2  OT    -0.834000       15.9994           0
  105149 WT7  156  TIP3 H1   HT     0.417000        1.0080           0
  105150 WT7  156  TIP3 H2   HT     0.417000        1.0080           0
  105151 WT7  162  TIP3 OH2  OT    -0.834000       15.9994           0
  105152 WT7  162  TIP3 H1   HT     0.417000        1.0080           0
  105153 WT7  162  TIP3 H2   HT     0.417000        1.0080           0
  105154 WT7  163  TIP3 OH2  OT    -0.834000       15.9994           0
  105155 WT7  163  TIP3 H1   HT     0.417000        1.0080           0
  105156 WT7  163  TIP3 H2   HT     0.417000        1.0080           0
  105157 WT7  167  TIP3 OH2  OT    -0.834000       15.9994           0
  105158 WT7  167  TIP3 H1   HT     0.417000        1.0080           0
  105159 WT7  167  TIP3 H2   HT     0.417000        1.0080           0
  105160 WT7  168  TIP3 OH2  OT    -0.834000       15.9994           0
  105161 WT7  168  TIP3 H1   HT     0.417000        1.0080           0
  105162 WT7  168  TIP3 H2   HT     0.417000        1.0080           0
  105163 WT7  169  TIP3 OH2  OT    -0.834000       15.9994           0
  105164 WT7  169  TIP3 H1   HT     0.417000        1.0080           0
  105165 WT7  169  TIP3 H2   HT     0.417000        1.0080           0
  105166 WT7  172  TIP3 OH2  OT    -0.834000       15.9994           0
  105167 WT7  172  TIP3 H1   HT     0.417000        1.0080           0
  105168 WT7  172  TIP3 H2   HT     0.417000        1.0080           0
  105169 WT7  174  TIP3 OH2  OT    -0.834000       15.9994           0
  105170 WT7  174  TIP3 H1   HT     0.417000        1.0080           0
  105171 WT7  174  TIP3 H2   HT     0.417000        1.0080           0
  105172 WT7  175  TIP3 OH2  OT    -0.834000       15.9994           0
  105173 WT7  175  TIP3 H1   HT     0.417000        1.0080           0
  105174 WT7  175  TIP3 H2   HT     0.417000        1.0080           0
  105175 WT7  177  TIP3 OH2  OT    -0.834000       15.9994           0
  105176 WT7  177  TIP3 H1   HT     0.417000        1.0080           0
  105177 WT7  177  TIP3 H2   HT     0.417000        1.0080           0
  105178 WT7  178  TIP3 OH2  OT    -0.834000       15.9994           0
  105179 WT7  178  TIP3 H1   HT     0.417000        1.0080           0
  105180 WT7  178  TIP3 H2   HT     0.417000        1.0080           0
  105181 WT7  179  TIP3 OH2  OT    -0.834000       15.9994           0
  105182 WT7  179  TIP3 H1   HT     0.417000        1.0080           0
  105183 WT7  179  TIP3 H2   HT     0.417000        1.0080           0
  105184 WT7  180  TIP3 OH2  OT    -0.834000       15.9994           0
  105185 WT7  180  TIP3 H1   HT     0.417000        1.0080           0
  105186 WT7  180  TIP3 H2   HT     0.417000        1.0080           0
  105187 WT7  190  TIP3 OH2  OT    -0.834000       15.9994           0
  105188 WT7  190  TIP3 H1   HT     0.417000        1.0080           0
  105189 WT7  190  TIP3 H2   HT     0.417000        1.0080           0
  105190 WT7  191  TIP3 OH2  OT    -0.834000       15.9994           0
  105191 WT7  191  TIP3 H1   HT     0.417000        1.0080           0
  105192 WT7  191  TIP3 H2   HT     0.417000        1.0080           0
  105193 WT7  194  TIP3 OH2  OT    -0.834000       15.9994           0
  105194 WT7  194  TIP3 H1   HT     0.417000        1.0080           0
  105195 WT7  194  TIP3 H2   HT     0.417000        1.0080           0
  105196 WT7  195  TIP3 OH2  OT    -0.834000       15.9994           0
  105197 WT7  195  TIP3 H1   HT     0.417000        1.0080           0
  105198 WT7  195  TIP3 H2   HT     0.417000        1.0080           0
  105199 WT7  196  TIP3 OH2  OT    -0.834000       15.9994           0
  105200 WT7  196  TIP3 H1   HT     0.417000        1.0080           0
  105201 WT7  196  TIP3 H2   HT     0.417000        1.0080           0
  105202 WT7  197  TIP3 OH2  OT    -0.834000       15.9994           0
  105203 WT7  197  TIP3 H1   HT     0.417000        1.0080           0
  105204 WT7  197  TIP3 H2   HT     0.417000        1.0080           0
  105205 WT7  198  TIP3 OH2  OT    -0.834000       15.9994           0
  105206 WT7  198  TIP3 H1   HT     0.417000        1.0080           0
  105207 WT7  198  TIP3 H2   HT     0.417000        1.0080           0
  105208 WT7  200  TIP3 OH2  OT    -0.834000       15.9994           0
  105209 WT7  200  TIP3 H1   HT     0.417000        1.0080           0
  105210 WT7  200  TIP3 H2   HT     0.417000        1.0080           0
  105211 WT7  201  TIP3 OH2  OT    -0.834000       15.9994           0
  105212 WT7  201  TIP3 H1   HT     0.417000        1.0080           0
  105213 WT7  201  TIP3 H2   HT     0.417000        1.0080           0
  105214 WT7  202  TIP3 OH2  OT    -0.834000       15.9994           0
  105215 WT7  202  TIP3 H1   HT     0.417000        1.0080           0
  105216 WT7  202  TIP3 H2   HT     0.417000        1.0080           0
  105217 WT7  205  TIP3 OH2  OT    -0.834000       15.9994           0
  105218 WT7  205  TIP3 H1   HT     0.417000        1.0080           0
  105219 WT7  205  TIP3 H2   HT     0.417000        1.0080           0
  105220 WT7  206  TIP3 OH2  OT    -0.834000       15.9994           0
  105221 WT7  206  TIP3 H1   HT     0.417000        1.0080           0
  105222 WT7  206  TIP3 H2   HT     0.417000        1.0080           0
  105223 WT7  210  TIP3 OH2  OT    -0.834000       15.9994           0
  105224 WT7  210  TIP3 H1   HT     0.417000        1.0080           0
  105225 WT7  210  TIP3 H2   HT     0.417000        1.0080           0
  105226 WT7  212  TIP3 OH2  OT    -0.834000       15.9994           0
  105227 WT7  212  TIP3 H1   HT     0.417000        1.0080           0
  105228 WT7  212  TIP3 H2   HT     0.417000        1.0080           0
  105229 WT7  213  TIP3 OH2  OT    -0.834000       15.9994           0
  105230 WT7  213  TIP3 H1   HT     0.417000        1.0080           0
  105231 WT7  213  TIP3 H2   HT     0.417000        1.0080           0
  105232 WT7  218  TIP3 OH2  OT    -0.834000       15.9994           0
  105233 WT7  218  TIP3 H1   HT     0.417000        1.0080           0
  105234 WT7  218  TIP3 H2   HT     0.417000        1.0080           0
  105235 WT7  222  TIP3 OH2  OT    -0.834000       15.9994           0
  105236 WT7  222  TIP3 H1   HT     0.417000        1.0080           0
  105237 WT7  222  TIP3 H2   HT     0.417000        1.0080           0
  105238 WT7  225  TIP3 OH2  OT    -0.834000       15.9994           0
  105239 WT7  225  TIP3 H1   HT     0.417000        1.0080           0
  105240 WT7  225  TIP3 H2   HT     0.417000        1.0080           0
  105241 WT7  227  TIP3 OH2  OT    -0.834000       15.9994           0
  105242 WT7  227  TIP3 H1   HT     0.417000        1.0080           0
  105243 WT7  227  TIP3 H2   HT     0.417000        1.0080           0
  105244 WT7  231  TIP3 OH2  OT    -0.834000       15.9994           0
  105245 WT7  231  TIP3 H1   HT     0.417000        1.0080           0
  105246 WT7  231  TIP3 H2   HT     0.417000        1.0080           0
  105247 WT7  232  TIP3 OH2  OT    -0.834000       15.9994           0
  105248 WT7  232  TIP3 H1   HT     0.417000        1.0080           0
  105249 WT7  232  TIP3 H2   HT     0.417000        1.0080           0
  105250 WT7  234  TIP3 OH2  OT    -0.834000       15.9994           0
  105251 WT7  234  TIP3 H1   HT     0.417000        1.0080           0
  105252 WT7  234  TIP3 H2   HT     0.417000        1.0080           0
  105253 WT7  237  TIP3 OH2  OT    -0.834000       15.9994           0
  105254 WT7  237  TIP3 H1   HT     0.417000        1.0080           0
  105255 WT7  237  TIP3 H2   HT     0.417000        1.0080           0
  105256 WT7  238  TIP3 OH2  OT    -0.834000       15.9994           0
  105257 WT7  238  TIP3 H1   HT     0.417000        1.0080           0
  105258 WT7  238  TIP3 H2   HT     0.417000        1.0080           0
  105259 WT7  239  TIP3 OH2  OT    -0.834000       15.9994           0
  105260 WT7  239  TIP3 H1   HT     0.417000        1.0080           0
  105261 WT7  239  TIP3 H2   HT     0.417000        1.0080           0
  105262 WT7  252  TIP3 OH2  OT    -0.834000       15.9994           0
  105263 WT7  252  TIP3 H1   HT     0.417000        1.0080           0
  105264 WT7  252  TIP3 H2   HT     0.417000        1.0080           0
  105265 WT7  253  TIP3 OH2  OT    -0.834000       15.9994           0
  105266 WT7  253  TIP3 H1   HT     0.417000        1.0080           0
  105267 WT7  253  TIP3 H2   HT     0.417000        1.0080           0
  105268 WT7  254  TIP3 OH2  OT    -0.834000       15.9994           0
  105269 WT7  254  TIP3 H1   HT     0.417000        1.0080           0
  105270 WT7  254  TIP3 H2   HT     0.417000        1.0080           0
  105271 WT7  257  TIP3 OH2  OT    -0.834000       15.9994           0
  105272 WT7  257  TIP3 H1   HT     0.417000        1.0080           0
  105273 WT7  257  TIP3 H2   HT     0.417000        1.0080           0
  105274 WT7  261  TIP3 OH2  OT    -0.834000       15.9994           0
  105275 WT7  261  TIP3 H1   HT     0.417000        1.0080           0
  105276 WT7  261  TIP3 H2   HT     0.417000        1.0080           0
  105277 WT7  262  TIP3 OH2  OT    -0.834000       15.9994           0
  105278 WT7  262  TIP3 H1   HT     0.417000        1.0080           0
  105279 WT7  262  TIP3 H2   HT     0.417000        1.0080           0
  105280 WT7  281  TIP3 OH2  OT    -0.834000       15.9994           0
  105281 WT7  281  TIP3 H1   HT     0.417000        1.0080           0
  105282 WT7  281  TIP3 H2   HT     0.417000        1.0080           0
  105283 WT7  284  TIP3 OH2  OT    -0.834000       15.9994           0
  105284 WT7  284  TIP3 H1   HT     0.417000        1.0080           0
  105285 WT7  284  TIP3 H2   HT     0.417000        1.0080           0
  105286 WT7  295  TIP3 OH2  OT    -0.834000       15.9994           0
  105287 WT7  295  TIP3 H1   HT     0.417000        1.0080           0
  105288 WT7  295  TIP3 H2   HT     0.417000        1.0080           0
  105289 WT7  313  TIP3 OH2  OT    -0.834000       15.9994           0
  105290 WT7  313  TIP3 H1   HT     0.417000        1.0080           0
  105291 WT7  313  TIP3 H2   HT     0.417000        1.0080           0
  105292 WT7  323  TIP3 OH2  OT    -0.834000       15.9994           0
  105293 WT7  323  TIP3 H1   HT     0.417000        1.0080           0
  105294 WT7  323  TIP3 H2   HT     0.417000        1.0080           0
  105295 WT7  327  TIP3 OH2  OT    -0.834000       15.9994           0
  105296 WT7  327  TIP3 H1   HT     0.417000        1.0080           0
  105297 WT7  327  TIP3 H2   HT     0.417000        1.0080           0
  105298 WT7  328  TIP3 OH2  OT    -0.834000       15.9994           0
  105299 WT7  328  TIP3 H1   HT     0.417000        1.0080           0
  105300 WT7  328  TIP3 H2   HT     0.417000        1.0080           0
  105301 WT7  336  TIP3 OH2  OT    -0.834000       15.9994           0
  105302 WT7  336  TIP3 H1   HT     0.417000        1.0080           0
  105303 WT7  336  TIP3 H2   HT     0.417000        1.0080           0
  105304 WT7  365  TIP3 OH2  OT    -0.834000       15.9994           0
  105305 WT7  365  TIP3 H1   HT     0.417000        1.0080           0
  105306 WT7  365  TIP3 H2   HT     0.417000        1.0080           0
  105307 WT7  367  TIP3 OH2  OT    -0.834000       15.9994           0
  105308 WT7  367  TIP3 H1   HT     0.417000        1.0080           0
  105309 WT7  367  TIP3 H2   HT     0.417000        1.0080           0
  105310 WT7  368  TIP3 OH2  OT    -0.834000       15.9994           0
  105311 WT7  368  TIP3 H1   HT     0.417000        1.0080           0
  105312 WT7  368  TIP3 H2   HT     0.417000        1.0080           0
  105313 WT7  379  TIP3 OH2  OT    -0.834000       15.9994           0
  105314 WT7  379  TIP3 H1   HT     0.417000        1.0080           0
  105315 WT7  379  TIP3 H2   HT     0.417000        1.0080           0
  105316 WT7  402  TIP3 OH2  OT    -0.834000       15.9994           0
  105317 WT7  402  TIP3 H1   HT     0.417000        1.0080           0
  105318 WT7  402  TIP3 H2   HT     0.417000        1.0080           0
  105319 WT7  411  TIP3 OH2  OT    -0.834000       15.9994           0
  105320 WT7  411  TIP3 H1   HT     0.417000        1.0080           0
  105321 WT7  411  TIP3 H2   HT     0.417000        1.0080           0
  105322 WT7  424  TIP3 OH2  OT    -0.834000       15.9994           0
  105323 WT7  424  TIP3 H1   HT     0.417000        1.0080           0
  105324 WT7  424  TIP3 H2   HT     0.417000        1.0080           0
  105325 WT7  432  TIP3 OH2  OT    -0.834000       15.9994           0
  105326 WT7  432  TIP3 H1   HT     0.417000        1.0080           0
  105327 WT7  432  TIP3 H2   HT     0.417000        1.0080           0
  105328 WT7  437  TIP3 OH2  OT    -0.834000       15.9994           0
  105329 WT7  437  TIP3 H1   HT     0.417000        1.0080           0
  105330 WT7  437  TIP3 H2   HT     0.417000        1.0080           0
  105331 WT7  438  TIP3 OH2  OT    -0.834000       15.9994           0
  105332 WT7  438  TIP3 H1   HT     0.417000        1.0080           0
  105333 WT7  438  TIP3 H2   HT     0.417000        1.0080           0
  105334 WT7  443  TIP3 OH2  OT    -0.834000       15.9994           0
  105335 WT7  443  TIP3 H1   HT     0.417000        1.0080           0
  105336 WT7  443  TIP3 H2   HT     0.417000        1.0080           0
  105337 WT7  449  TIP3 OH2  OT    -0.834000       15.9994           0
  105338 WT7  449  TIP3 H1   HT     0.417000        1.0080           0
  105339 WT7  449  TIP3 H2   HT     0.417000        1.0080           0
  105340 WT7  452  TIP3 OH2  OT    -0.834000       15.9994           0
  105341 WT7  452  TIP3 H1   HT     0.417000        1.0080           0
  105342 WT7  452  TIP3 H2   HT     0.417000        1.0080           0
  105343 WT7  457  TIP3 OH2  OT    -0.834000       15.9994           0
  105344 WT7  457  TIP3 H1   HT     0.417000        1.0080           0
  105345 WT7  457  TIP3 H2   HT     0.417000        1.0080           0
  105346 WT7  461  TIP3 OH2  OT    -0.834000       15.9994           0
  105347 WT7  461  TIP3 H1   HT     0.417000        1.0080           0
  105348 WT7  461  TIP3 H2   HT     0.417000        1.0080           0
  105349 WT7  463  TIP3 OH2  OT    -0.834000       15.9994           0
  105350 WT7  463  TIP3 H1   HT     0.417000        1.0080           0
  105351 WT7  463  TIP3 H2   HT     0.417000        1.0080           0
  105352 WT7  465  TIP3 OH2  OT    -0.834000       15.9994           0
  105353 WT7  465  TIP3 H1   HT     0.417000        1.0080           0
  105354 WT7  465  TIP3 H2   HT     0.417000        1.0080           0
  105355 WT7  466  TIP3 OH2  OT    -0.834000       15.9994           0
  105356 WT7  466  TIP3 H1   HT     0.417000        1.0080           0
  105357 WT7  466  TIP3 H2   HT     0.417000        1.0080           0
  105358 WT7  469  TIP3 OH2  OT    -0.834000       15.9994           0
  105359 WT7  469  TIP3 H1   HT     0.417000        1.0080           0
  105360 WT7  469  TIP3 H2   HT     0.417000        1.0080           0
  105361 WT7  479  TIP3 OH2  OT    -0.834000       15.9994           0
  105362 WT7  479  TIP3 H1   HT     0.417000        1.0080           0
  105363 WT7  479  TIP3 H2   HT     0.417000        1.0080           0
  105364 WT7  484  TIP3 OH2  OT    -0.834000       15.9994           0
  105365 WT7  484  TIP3 H1   HT     0.417000        1.0080           0
  105366 WT7  484  TIP3 H2   HT     0.417000        1.0080           0
  105367 WT7  485  TIP3 OH2  OT    -0.834000       15.9994           0
  105368 WT7  485  TIP3 H1   HT     0.417000        1.0080           0
  105369 WT7  485  TIP3 H2   HT     0.417000        1.0080           0
  105370 WT7  486  TIP3 OH2  OT    -0.834000       15.9994           0
  105371 WT7  486  TIP3 H1   HT     0.417000        1.0080           0
  105372 WT7  486  TIP3 H2   HT     0.417000        1.0080           0
  105373 WT7  487  TIP3 OH2  OT    -0.834000       15.9994           0
  105374 WT7  487  TIP3 H1   HT     0.417000        1.0080           0
  105375 WT7  487  TIP3 H2   HT     0.417000        1.0080           0
  105376 WT7  489  TIP3 OH2  OT    -0.834000       15.9994           0
  105377 WT7  489  TIP3 H1   HT     0.417000        1.0080           0
  105378 WT7  489  TIP3 H2   HT     0.417000        1.0080           0
  105379 WT7  490  TIP3 OH2  OT    -0.834000       15.9994           0
  105380 WT7  490  TIP3 H1   HT     0.417000        1.0080           0
  105381 WT7  490  TIP3 H2   HT     0.417000        1.0080           0
  105382 WT7  491  TIP3 OH2  OT    -0.834000       15.9994           0
  105383 WT7  491  TIP3 H1   HT     0.417000        1.0080           0
  105384 WT7  491  TIP3 H2   HT     0.417000        1.0080           0
  105385 WT7  493  TIP3 OH2  OT    -0.834000       15.9994           0
  105386 WT7  493  TIP3 H1   HT     0.417000        1.0080           0
  105387 WT7  493  TIP3 H2   HT     0.417000        1.0080           0
  105388 WT7  494  TIP3 OH2  OT    -0.834000       15.9994           0
  105389 WT7  494  TIP3 H1   HT     0.417000        1.0080           0
  105390 WT7  494  TIP3 H2   HT     0.417000        1.0080           0
  105391 WT7  495  TIP3 OH2  OT    -0.834000       15.9994           0
  105392 WT7  495  TIP3 H1   HT     0.417000        1.0080           0
  105393 WT7  495  TIP3 H2   HT     0.417000        1.0080           0
  105394 WT7  498  TIP3 OH2  OT    -0.834000       15.9994           0
  105395 WT7  498  TIP3 H1   HT     0.417000        1.0080           0
  105396 WT7  498  TIP3 H2   HT     0.417000        1.0080           0
  105397 WT7  500  TIP3 OH2  OT    -0.834000       15.9994           0
  105398 WT7  500  TIP3 H1   HT     0.417000        1.0080           0
  105399 WT7  500  TIP3 H2   HT     0.417000        1.0080           0
  105400 WT7  502  TIP3 OH2  OT    -0.834000       15.9994           0
  105401 WT7  502  TIP3 H1   HT     0.417000        1.0080           0
  105402 WT7  502  TIP3 H2   HT     0.417000        1.0080           0
  105403 WT7  503  TIP3 OH2  OT    -0.834000       15.9994           0
  105404 WT7  503  TIP3 H1   HT     0.417000        1.0080           0
  105405 WT7  503  TIP3 H2   HT     0.417000        1.0080           0
  105406 WT7  507  TIP3 OH2  OT    -0.834000       15.9994           0
  105407 WT7  507  TIP3 H1   HT     0.417000        1.0080           0
  105408 WT7  507  TIP3 H2   HT     0.417000        1.0080           0
  105409 WT7  508  TIP3 OH2  OT    -0.834000       15.9994           0
  105410 WT7  508  TIP3 H1   HT     0.417000        1.0080           0
  105411 WT7  508  TIP3 H2   HT     0.417000        1.0080           0
  105412 WT7  509  TIP3 OH2  OT    -0.834000       15.9994           0
  105413 WT7  509  TIP3 H1   HT     0.417000        1.0080           0
  105414 WT7  509  TIP3 H2   HT     0.417000        1.0080           0
  105415 WT7  511  TIP3 OH2  OT    -0.834000       15.9994           0
  105416 WT7  511  TIP3 H1   HT     0.417000        1.0080           0
  105417 WT7  511  TIP3 H2   HT     0.417000        1.0080           0
  105418 WT7  512  TIP3 OH2  OT    -0.834000       15.9994           0
  105419 WT7  512  TIP3 H1   HT     0.417000        1.0080           0
  105420 WT7  512  TIP3 H2   HT     0.417000        1.0080           0
  105421 WT7  514  TIP3 OH2  OT    -0.834000       15.9994           0
  105422 WT7  514  TIP3 H1   HT     0.417000        1.0080           0
  105423 WT7  514  TIP3 H2   HT     0.417000        1.0080           0
  105424 WT7  515  TIP3 OH2  OT    -0.834000       15.9994           0
  105425 WT7  515  TIP3 H1   HT     0.417000        1.0080           0
  105426 WT7  515  TIP3 H2   HT     0.417000        1.0080           0
  105427 WT7  516  TIP3 OH2  OT    -0.834000       15.9994           0
  105428 WT7  516  TIP3 H1   HT     0.417000        1.0080           0
  105429 WT7  516  TIP3 H2   HT     0.417000        1.0080           0
  105430 WT7  517  TIP3 OH2  OT    -0.834000       15.9994           0
  105431 WT7  517  TIP3 H1   HT     0.417000        1.0080           0
  105432 WT7  517  TIP3 H2   HT     0.417000        1.0080           0
  105433 WT7  520  TIP3 OH2  OT    -0.834000       15.9994           0
  105434 WT7  520  TIP3 H1   HT     0.417000        1.0080           0
  105435 WT7  520  TIP3 H2   HT     0.417000        1.0080           0
  105436 WT7  523  TIP3 OH2  OT    -0.834000       15.9994           0
  105437 WT7  523  TIP3 H1   HT     0.417000        1.0080           0
  105438 WT7  523  TIP3 H2   HT     0.417000        1.0080           0
  105439 WT7  524  TIP3 OH2  OT    -0.834000       15.9994           0
  105440 WT7  524  TIP3 H1   HT     0.417000        1.0080           0
  105441 WT7  524  TIP3 H2   HT     0.417000        1.0080           0
  105442 WT7  526  TIP3 OH2  OT    -0.834000       15.9994           0
  105443 WT7  526  TIP3 H1   HT     0.417000        1.0080           0
  105444 WT7  526  TIP3 H2   HT     0.417000        1.0080           0
  105445 WT7  527  TIP3 OH2  OT    -0.834000       15.9994           0
  105446 WT7  527  TIP3 H1   HT     0.417000        1.0080           0
  105447 WT7  527  TIP3 H2   HT     0.417000        1.0080           0
  105448 WT7  528  TIP3 OH2  OT    -0.834000       15.9994           0
  105449 WT7  528  TIP3 H1   HT     0.417000        1.0080           0
  105450 WT7  528  TIP3 H2   HT     0.417000        1.0080           0
  105451 WT7  529  TIP3 OH2  OT    -0.834000       15.9994           0
  105452 WT7  529  TIP3 H1   HT     0.417000        1.0080           0
  105453 WT7  529  TIP3 H2   HT     0.417000        1.0080           0
  105454 WT7  533  TIP3 OH2  OT    -0.834000       15.9994           0
  105455 WT7  533  TIP3 H1   HT     0.417000        1.0080           0
  105456 WT7  533  TIP3 H2   HT     0.417000        1.0080           0
  105457 WT7  534  TIP3 OH2  OT    -0.834000       15.9994           0
  105458 WT7  534  TIP3 H1   HT     0.417000        1.0080           0
  105459 WT7  534  TIP3 H2   HT     0.417000        1.0080           0
  105460 WT7  535  TIP3 OH2  OT    -0.834000       15.9994           0
  105461 WT7  535  TIP3 H1   HT     0.417000        1.0080           0
  105462 WT7  535  TIP3 H2   HT     0.417000        1.0080           0
  105463 WT7  538  TIP3 OH2  OT    -0.834000       15.9994           0
  105464 WT7  538  TIP3 H1   HT     0.417000        1.0080           0
  105465 WT7  538  TIP3 H2   HT     0.417000        1.0080           0
  105466 WT7  540  TIP3 OH2  OT    -0.834000       15.9994           0
  105467 WT7  540  TIP3 H1   HT     0.417000        1.0080           0
  105468 WT7  540  TIP3 H2   HT     0.417000        1.0080           0
  105469 WT7  541  TIP3 OH2  OT    -0.834000       15.9994           0
  105470 WT7  541  TIP3 H1   HT     0.417000        1.0080           0
  105471 WT7  541  TIP3 H2   HT     0.417000        1.0080           0
  105472 WT7  543  TIP3 OH2  OT    -0.834000       15.9994           0
  105473 WT7  543  TIP3 H1   HT     0.417000        1.0080           0
  105474 WT7  543  TIP3 H2   HT     0.417000        1.0080           0
  105475 WT7  548  TIP3 OH2  OT    -0.834000       15.9994           0
  105476 WT7  548  TIP3 H1   HT     0.417000        1.0080           0
  105477 WT7  548  TIP3 H2   HT     0.417000        1.0080           0
  105478 WT7  549  TIP3 OH2  OT    -0.834000       15.9994           0
  105479 WT7  549  TIP3 H1   HT     0.417000        1.0080           0
  105480 WT7  549  TIP3 H2   HT     0.417000        1.0080           0
  105481 WT7  550  TIP3 OH2  OT    -0.834000       15.9994           0
  105482 WT7  550  TIP3 H1   HT     0.417000        1.0080           0
  105483 WT7  550  TIP3 H2   HT     0.417000        1.0080           0
  105484 WT7  551  TIP3 OH2  OT    -0.834000       15.9994           0
  105485 WT7  551  TIP3 H1   HT     0.417000        1.0080           0
  105486 WT7  551  TIP3 H2   HT     0.417000        1.0080           0
  105487 WT7  552  TIP3 OH2  OT    -0.834000       15.9994           0
  105488 WT7  552  TIP3 H1   HT     0.417000        1.0080           0
  105489 WT7  552  TIP3 H2   HT     0.417000        1.0080           0
  105490 WT7  553  TIP3 OH2  OT    -0.834000       15.9994           0
  105491 WT7  553  TIP3 H1   HT     0.417000        1.0080           0
  105492 WT7  553  TIP3 H2   HT     0.417000        1.0080           0
  105493 WT7  554  TIP3 OH2  OT    -0.834000       15.9994           0
  105494 WT7  554  TIP3 H1   HT     0.417000        1.0080           0
  105495 WT7  554  TIP3 H2   HT     0.417000        1.0080           0
  105496 WT7  555  TIP3 OH2  OT    -0.834000       15.9994           0
  105497 WT7  555  TIP3 H1   HT     0.417000        1.0080           0
  105498 WT7  555  TIP3 H2   HT     0.417000        1.0080           0
  105499 WT7  556  TIP3 OH2  OT    -0.834000       15.9994           0
  105500 WT7  556  TIP3 H1   HT     0.417000        1.0080           0
  105501 WT7  556  TIP3 H2   HT     0.417000        1.0080           0
  105502 WT7  558  TIP3 OH2  OT    -0.834000       15.9994           0
  105503 WT7  558  TIP3 H1   HT     0.417000        1.0080           0
  105504 WT7  558  TIP3 H2   HT     0.417000        1.0080           0
  105505 WT7  562  TIP3 OH2  OT    -0.834000       15.9994           0
  105506 WT7  562  TIP3 H1   HT     0.417000        1.0080           0
  105507 WT7  562  TIP3 H2   HT     0.417000        1.0080           0
  105508 WT7  568  TIP3 OH2  OT    -0.834000       15.9994           0
  105509 WT7  568  TIP3 H1   HT     0.417000        1.0080           0
  105510 WT7  568  TIP3 H2   HT     0.417000        1.0080           0
  105511 WT7  570  TIP3 OH2  OT    -0.834000       15.9994           0
  105512 WT7  570  TIP3 H1   HT     0.417000        1.0080           0
  105513 WT7  570  TIP3 H2   HT     0.417000        1.0080           0
  105514 WT7  571  TIP3 OH2  OT    -0.834000       15.9994           0
  105515 WT7  571  TIP3 H1   HT     0.417000        1.0080           0
  105516 WT7  571  TIP3 H2   HT     0.417000        1.0080           0
  105517 WT7  573  TIP3 OH2  OT    -0.834000       15.9994           0
  105518 WT7  573  TIP3 H1   HT     0.417000        1.0080           0
  105519 WT7  573  TIP3 H2   HT     0.417000        1.0080           0
  105520 WT7  575  TIP3 OH2  OT    -0.834000       15.9994           0
  105521 WT7  575  TIP3 H1   HT     0.417000        1.0080           0
  105522 WT7  575  TIP3 H2   HT     0.417000        1.0080           0
  105523 WT7  576  TIP3 OH2  OT    -0.834000       15.9994           0
  105524 WT7  576  TIP3 H1   HT     0.417000        1.0080           0
  105525 WT7  576  TIP3 H2   HT     0.417000        1.0080           0
  105526 WT7  578  TIP3 OH2  OT    -0.834000       15.9994           0
  105527 WT7  578  TIP3 H1   HT     0.417000        1.0080           0
  105528 WT7  578  TIP3 H2   HT     0.417000        1.0080           0
  105529 WT7  580  TIP3 OH2  OT    -0.834000       15.9994           0
  105530 WT7  580  TIP3 H1   HT     0.417000        1.0080           0
  105531 WT7  580  TIP3 H2   HT     0.417000        1.0080           0
  105532 WT7  581  TIP3 OH2  OT    -0.834000       15.9994           0
  105533 WT7  581  TIP3 H1   HT     0.417000        1.0080           0
  105534 WT7  581  TIP3 H2   HT     0.417000        1.0080           0
  105535 WT7  584  TIP3 OH2  OT    -0.834000       15.9994           0
  105536 WT7  584  TIP3 H1   HT     0.417000        1.0080           0
  105537 WT7  584  TIP3 H2   HT     0.417000        1.0080           0
  105538 WT7  585  TIP3 OH2  OT    -0.834000       15.9994           0
  105539 WT7  585  TIP3 H1   HT     0.417000        1.0080           0
  105540 WT7  585  TIP3 H2   HT     0.417000        1.0080           0
  105541 WT7  587  TIP3 OH2  OT    -0.834000       15.9994           0
  105542 WT7  587  TIP3 H1   HT     0.417000        1.0080           0
  105543 WT7  587  TIP3 H2   HT     0.417000        1.0080           0
  105544 WT7  588  TIP3 OH2  OT    -0.834000       15.9994           0
  105545 WT7  588  TIP3 H1   HT     0.417000        1.0080           0
  105546 WT7  588  TIP3 H2   HT     0.417000        1.0080           0
  105547 WT7  589  TIP3 OH2  OT    -0.834000       15.9994           0
  105548 WT7  589  TIP3 H1   HT     0.417000        1.0080           0
  105549 WT7  589  TIP3 H2   HT     0.417000        1.0080           0
  105550 WT7  590  TIP3 OH2  OT    -0.834000       15.9994           0
  105551 WT7  590  TIP3 H1   HT     0.417000        1.0080           0
  105552 WT7  590  TIP3 H2   HT     0.417000        1.0080           0
  105553 WT7  591  TIP3 OH2  OT    -0.834000       15.9994           0
  105554 WT7  591  TIP3 H1   HT     0.417000        1.0080           0
  105555 WT7  591  TIP3 H2   HT     0.417000        1.0080           0
  105556 WT7  592  TIP3 OH2  OT    -0.834000       15.9994           0
  105557 WT7  592  TIP3 H1   HT     0.417000        1.0080           0
  105558 WT7  592  TIP3 H2   HT     0.417000        1.0080           0
  105559 WT7  593  TIP3 OH2  OT    -0.834000       15.9994           0
  105560 WT7  593  TIP3 H1   HT     0.417000        1.0080           0
  105561 WT7  593  TIP3 H2   HT     0.417000        1.0080           0
  105562 WT7  594  TIP3 OH2  OT    -0.834000       15.9994           0
  105563 WT7  594  TIP3 H1   HT     0.417000        1.0080           0
  105564 WT7  594  TIP3 H2   HT     0.417000        1.0080           0
  105565 WT7  595  TIP3 OH2  OT    -0.834000       15.9994           0
  105566 WT7  595  TIP3 H1   HT     0.417000        1.0080           0
  105567 WT7  595  TIP3 H2   HT     0.417000        1.0080           0
  105568 WT7  598  TIP3 OH2  OT    -0.834000       15.9994           0
  105569 WT7  598  TIP3 H1   HT     0.417000        1.0080           0
  105570 WT7  598  TIP3 H2   HT     0.417000        1.0080           0
  105571 WT7  599  TIP3 OH2  OT    -0.834000       15.9994           0
  105572 WT7  599  TIP3 H1   HT     0.417000        1.0080           0
  105573 WT7  599  TIP3 H2   HT     0.417000        1.0080           0
  105574 WT7  600  TIP3 OH2  OT    -0.834000       15.9994           0
  105575 WT7  600  TIP3 H1   HT     0.417000        1.0080           0
  105576 WT7  600  TIP3 H2   HT     0.417000        1.0080           0
  105577 WT7  601  TIP3 OH2  OT    -0.834000       15.9994           0
  105578 WT7  601  TIP3 H1   HT     0.417000        1.0080           0
  105579 WT7  601  TIP3 H2   HT     0.417000        1.0080           0
  105580 WT7  602  TIP3 OH2  OT    -0.834000       15.9994           0
  105581 WT7  602  TIP3 H1   HT     0.417000        1.0080           0
  105582 WT7  602  TIP3 H2   HT     0.417000        1.0080           0
  105583 WT7  603  TIP3 OH2  OT    -0.834000       15.9994           0
  105584 WT7  603  TIP3 H1   HT     0.417000        1.0080           0
  105585 WT7  603  TIP3 H2   HT     0.417000        1.0080           0
  105586 WT7  604  TIP3 OH2  OT    -0.834000       15.9994           0
  105587 WT7  604  TIP3 H1   HT     0.417000        1.0080           0
  105588 WT7  604  TIP3 H2   HT     0.417000        1.0080           0
  105589 WT7  606  TIP3 OH2  OT    -0.834000       15.9994           0
  105590 WT7  606  TIP3 H1   HT     0.417000        1.0080           0
  105591 WT7  606  TIP3 H2   HT     0.417000        1.0080           0
  105592 WT7  607  TIP3 OH2  OT    -0.834000       15.9994           0
  105593 WT7  607  TIP3 H1   HT     0.417000        1.0080           0
  105594 WT7  607  TIP3 H2   HT     0.417000        1.0080           0
  105595 WT7  609  TIP3 OH2  OT    -0.834000       15.9994           0
  105596 WT7  609  TIP3 H1   HT     0.417000        1.0080           0
  105597 WT7  609  TIP3 H2   HT     0.417000        1.0080           0
  105598 WT7  610  TIP3 OH2  OT    -0.834000       15.9994           0
  105599 WT7  610  TIP3 H1   HT     0.417000        1.0080           0
  105600 WT7  610  TIP3 H2   HT     0.417000        1.0080           0
  105601 WT7  611  TIP3 OH2  OT    -0.834000       15.9994           0
  105602 WT7  611  TIP3 H1   HT     0.417000        1.0080           0
  105603 WT7  611  TIP3 H2   HT     0.417000        1.0080           0
  105604 WT7  612  TIP3 OH2  OT    -0.834000       15.9994           0
  105605 WT7  612  TIP3 H1   HT     0.417000        1.0080           0
  105606 WT7  612  TIP3 H2   HT     0.417000        1.0080           0
  105607 WT7  613  TIP3 OH2  OT    -0.834000       15.9994           0
  105608 WT7  613  TIP3 H1   HT     0.417000        1.0080           0
  105609 WT7  613  TIP3 H2   HT     0.417000        1.0080           0
  105610 WT7  615  TIP3 OH2  OT    -0.834000       15.9994           0
  105611 WT7  615  TIP3 H1   HT     0.417000        1.0080           0
  105612 WT7  615  TIP3 H2   HT     0.417000        1.0080           0
  105613 WT7  616  TIP3 OH2  OT    -0.834000       15.9994           0
  105614 WT7  616  TIP3 H1   HT     0.417000        1.0080           0
  105615 WT7  616  TIP3 H2   HT     0.417000        1.0080           0
  105616 WT7  618  TIP3 OH2  OT    -0.834000       15.9994           0
  105617 WT7  618  TIP3 H1   HT     0.417000        1.0080           0
  105618 WT7  618  TIP3 H2   HT     0.417000        1.0080           0
  105619 WT7  619  TIP3 OH2  OT    -0.834000       15.9994           0
  105620 WT7  619  TIP3 H1   HT     0.417000        1.0080           0
  105621 WT7  619  TIP3 H2   HT     0.417000        1.0080           0
  105622 WT7  623  TIP3 OH2  OT    -0.834000       15.9994           0
  105623 WT7  623  TIP3 H1   HT     0.417000        1.0080           0
  105624 WT7  623  TIP3 H2   HT     0.417000        1.0080           0
  105625 WT7  624  TIP3 OH2  OT    -0.834000       15.9994           0
  105626 WT7  624  TIP3 H1   HT     0.417000        1.0080           0
  105627 WT7  624  TIP3 H2   HT     0.417000        1.0080           0
  105628 WT7  626  TIP3 OH2  OT    -0.834000       15.9994           0
  105629 WT7  626  TIP3 H1   HT     0.417000        1.0080           0
  105630 WT7  626  TIP3 H2   HT     0.417000        1.0080           0
  105631 WT7  630  TIP3 OH2  OT    -0.834000       15.9994           0
  105632 WT7  630  TIP3 H1   HT     0.417000        1.0080           0
  105633 WT7  630  TIP3 H2   HT     0.417000        1.0080           0
  105634 WT7  632  TIP3 OH2  OT    -0.834000       15.9994           0
  105635 WT7  632  TIP3 H1   HT     0.417000        1.0080           0
  105636 WT7  632  TIP3 H2   HT     0.417000        1.0080           0
  105637 WT7  634  TIP3 OH2  OT    -0.834000       15.9994           0
  105638 WT7  634  TIP3 H1   HT     0.417000        1.0080           0
  105639 WT7  634  TIP3 H2   HT     0.417000        1.0080           0
  105640 WT7  635  TIP3 OH2  OT    -0.834000       15.9994           0
  105641 WT7  635  TIP3 H1   HT     0.417000        1.0080           0
  105642 WT7  635  TIP3 H2   HT     0.417000        1.0080           0
  105643 WT7  636  TIP3 OH2  OT    -0.834000       15.9994           0
  105644 WT7  636  TIP3 H1   HT     0.417000        1.0080           0
  105645 WT7  636  TIP3 H2   HT     0.417000        1.0080           0
  105646 WT7  637  TIP3 OH2  OT    -0.834000       15.9994           0
  105647 WT7  637  TIP3 H1   HT     0.417000        1.0080           0
  105648 WT7  637  TIP3 H2   HT     0.417000        1.0080           0
  105649 WT7  638  TIP3 OH2  OT    -0.834000       15.9994           0
  105650 WT7  638  TIP3 H1   HT     0.417000        1.0080           0
  105651 WT7  638  TIP3 H2   HT     0.417000        1.0080           0
  105652 WT7  639  TIP3 OH2  OT    -0.834000       15.9994           0
  105653 WT7  639  TIP3 H1   HT     0.417000        1.0080           0
  105654 WT7  639  TIP3 H2   HT     0.417000        1.0080           0
  105655 WT7  640  TIP3 OH2  OT    -0.834000       15.9994           0
  105656 WT7  640  TIP3 H1   HT     0.417000        1.0080           0
  105657 WT7  640  TIP3 H2   HT     0.417000        1.0080           0
  105658 WT7  642  TIP3 OH2  OT    -0.834000       15.9994           0
  105659 WT7  642  TIP3 H1   HT     0.417000        1.0080           0
  105660 WT7  642  TIP3 H2   HT     0.417000        1.0080           0
  105661 WT7  643  TIP3 OH2  OT    -0.834000       15.9994           0
  105662 WT7  643  TIP3 H1   HT     0.417000        1.0080           0
  105663 WT7  643  TIP3 H2   HT     0.417000        1.0080           0
  105664 WT7  644  TIP3 OH2  OT    -0.834000       15.9994           0
  105665 WT7  644  TIP3 H1   HT     0.417000        1.0080           0
  105666 WT7  644  TIP3 H2   HT     0.417000        1.0080           0
  105667 WT7  649  TIP3 OH2  OT    -0.834000       15.9994           0
  105668 WT7  649  TIP3 H1   HT     0.417000        1.0080           0
  105669 WT7  649  TIP3 H2   HT     0.417000        1.0080           0
  105670 WT7  651  TIP3 OH2  OT    -0.834000       15.9994           0
  105671 WT7  651  TIP3 H1   HT     0.417000        1.0080           0
  105672 WT7  651  TIP3 H2   HT     0.417000        1.0080           0
  105673 WT7  653  TIP3 OH2  OT    -0.834000       15.9994           0
  105674 WT7  653  TIP3 H1   HT     0.417000        1.0080           0
  105675 WT7  653  TIP3 H2   HT     0.417000        1.0080           0
  105676 WT7  657  TIP3 OH2  OT    -0.834000       15.9994           0
  105677 WT7  657  TIP3 H1   HT     0.417000        1.0080           0
  105678 WT7  657  TIP3 H2   HT     0.417000        1.0080           0
  105679 WT7  659  TIP3 OH2  OT    -0.834000       15.9994           0
  105680 WT7  659  TIP3 H1   HT     0.417000        1.0080           0
  105681 WT7  659  TIP3 H2   HT     0.417000        1.0080           0
  105682 WT7  661  TIP3 OH2  OT    -0.834000       15.9994           0
  105683 WT7  661  TIP3 H1   HT     0.417000        1.0080           0
  105684 WT7  661  TIP3 H2   HT     0.417000        1.0080           0
  105685 WT7  662  TIP3 OH2  OT    -0.834000       15.9994           0
  105686 WT7  662  TIP3 H1   HT     0.417000        1.0080           0
  105687 WT7  662  TIP3 H2   HT     0.417000        1.0080           0
  105688 WT7  666  TIP3 OH2  OT    -0.834000       15.9994           0
  105689 WT7  666  TIP3 H1   HT     0.417000        1.0080           0
  105690 WT7  666  TIP3 H2   HT     0.417000        1.0080           0
  105691 WT7  667  TIP3 OH2  OT    -0.834000       15.9994           0
  105692 WT7  667  TIP3 H1   HT     0.417000        1.0080           0
  105693 WT7  667  TIP3 H2   HT     0.417000        1.0080           0
  105694 WT7  670  TIP3 OH2  OT    -0.834000       15.9994           0
  105695 WT7  670  TIP3 H1   HT     0.417000        1.0080           0
  105696 WT7  670  TIP3 H2   HT     0.417000        1.0080           0
  105697 WT7  674  TIP3 OH2  OT    -0.834000       15.9994           0
  105698 WT7  674  TIP3 H1   HT     0.417000        1.0080           0
  105699 WT7  674  TIP3 H2   HT     0.417000        1.0080           0
  105700 WT7  675  TIP3 OH2  OT    -0.834000       15.9994           0
  105701 WT7  675  TIP3 H1   HT     0.417000        1.0080           0
  105702 WT7  675  TIP3 H2   HT     0.417000        1.0080           0
  105703 WT7  676  TIP3 OH2  OT    -0.834000       15.9994           0
  105704 WT7  676  TIP3 H1   HT     0.417000        1.0080           0
  105705 WT7  676  TIP3 H2   HT     0.417000        1.0080           0
  105706 WT7  678  TIP3 OH2  OT    -0.834000       15.9994           0
  105707 WT7  678  TIP3 H1   HT     0.417000        1.0080           0
  105708 WT7  678  TIP3 H2   HT     0.417000        1.0080           0
  105709 WT7  679  TIP3 OH2  OT    -0.834000       15.9994           0
  105710 WT7  679  TIP3 H1   HT     0.417000        1.0080           0
  105711 WT7  679  TIP3 H2   HT     0.417000        1.0080           0
  105712 WT7  680  TIP3 OH2  OT    -0.834000       15.9994           0
  105713 WT7  680  TIP3 H1   HT     0.417000        1.0080           0
  105714 WT7  680  TIP3 H2   HT     0.417000        1.0080           0
  105715 WT7  682  TIP3 OH2  OT    -0.834000       15.9994           0
  105716 WT7  682  TIP3 H1   HT     0.417000        1.0080           0
  105717 WT7  682  TIP3 H2   HT     0.417000        1.0080           0
  105718 WT7  684  TIP3 OH2  OT    -0.834000       15.9994           0
  105719 WT7  684  TIP3 H1   HT     0.417000        1.0080           0
  105720 WT7  684  TIP3 H2   HT     0.417000        1.0080           0
  105721 WT7  686  TIP3 OH2  OT    -0.834000       15.9994           0
  105722 WT7  686  TIP3 H1   HT     0.417000        1.0080           0
  105723 WT7  686  TIP3 H2   HT     0.417000        1.0080           0
  105724 WT7  687  TIP3 OH2  OT    -0.834000       15.9994           0
  105725 WT7  687  TIP3 H1   HT     0.417000        1.0080           0
  105726 WT7  687  TIP3 H2   HT     0.417000        1.0080           0
  105727 WT7  688  TIP3 OH2  OT    -0.834000       15.9994           0
  105728 WT7  688  TIP3 H1   HT     0.417000        1.0080           0
  105729 WT7  688  TIP3 H2   HT     0.417000        1.0080           0
  105730 WT7  699  TIP3 OH2  OT    -0.834000       15.9994           0
  105731 WT7  699  TIP3 H1   HT     0.417000        1.0080           0
  105732 WT7  699  TIP3 H2   HT     0.417000        1.0080           0
  105733 WT7  700  TIP3 OH2  OT    -0.834000       15.9994           0
  105734 WT7  700  TIP3 H1   HT     0.417000        1.0080           0
  105735 WT7  700  TIP3 H2   HT     0.417000        1.0080           0
  105736 WT7  701  TIP3 OH2  OT    -0.834000       15.9994           0
  105737 WT7  701  TIP3 H1   HT     0.417000        1.0080           0
  105738 WT7  701  TIP3 H2   HT     0.417000        1.0080           0
  105739 WT7  702  TIP3 OH2  OT    -0.834000       15.9994           0
  105740 WT7  702  TIP3 H1   HT     0.417000        1.0080           0
  105741 WT7  702  TIP3 H2   HT     0.417000        1.0080           0
  105742 WT7  703  TIP3 OH2  OT    -0.834000       15.9994           0
  105743 WT7  703  TIP3 H1   HT     0.417000        1.0080           0
  105744 WT7  703  TIP3 H2   HT     0.417000        1.0080           0
  105745 WT7  704  TIP3 OH2  OT    -0.834000       15.9994           0
  105746 WT7  704  TIP3 H1   HT     0.417000        1.0080           0
  105747 WT7  704  TIP3 H2   HT     0.417000        1.0080           0
  105748 WT7  707  TIP3 OH2  OT    -0.834000       15.9994           0
  105749 WT7  707  TIP3 H1   HT     0.417000        1.0080           0
  105750 WT7  707  TIP3 H2   HT     0.417000        1.0080           0
  105751 WT7  708  TIP3 OH2  OT    -0.834000       15.9994           0
  105752 WT7  708  TIP3 H1   HT     0.417000        1.0080           0
  105753 WT7  708  TIP3 H2   HT     0.417000        1.0080           0
  105754 WT7  710  TIP3 OH2  OT    -0.834000       15.9994           0
  105755 WT7  710  TIP3 H1   HT     0.417000        1.0080           0
  105756 WT7  710  TIP3 H2   HT     0.417000        1.0080           0
  105757 WT7  711  TIP3 OH2  OT    -0.834000       15.9994           0
  105758 WT7  711  TIP3 H1   HT     0.417000        1.0080           0
  105759 WT7  711  TIP3 H2   HT     0.417000        1.0080           0
  105760 WT7  712  TIP3 OH2  OT    -0.834000       15.9994           0
  105761 WT7  712  TIP3 H1   HT     0.417000        1.0080           0
  105762 WT7  712  TIP3 H2   HT     0.417000        1.0080           0
  105763 WT7  713  TIP3 OH2  OT    -0.834000       15.9994           0
  105764 WT7  713  TIP3 H1   HT     0.417000        1.0080           0
  105765 WT7  713  TIP3 H2   HT     0.417000        1.0080           0
  105766 WT7  721  TIP3 OH2  OT    -0.834000       15.9994           0
  105767 WT7  721  TIP3 H1   HT     0.417000        1.0080           0
  105768 WT7  721  TIP3 H2   HT     0.417000        1.0080           0
  105769 WT7  722  TIP3 OH2  OT    -0.834000       15.9994           0
  105770 WT7  722  TIP3 H1   HT     0.417000        1.0080           0
  105771 WT7  722  TIP3 H2   HT     0.417000        1.0080           0
  105772 WT7  725  TIP3 OH2  OT    -0.834000       15.9994           0
  105773 WT7  725  TIP3 H1   HT     0.417000        1.0080           0
  105774 WT7  725  TIP3 H2   HT     0.417000        1.0080           0
  105775 WT7  726  TIP3 OH2  OT    -0.834000       15.9994           0
  105776 WT7  726  TIP3 H1   HT     0.417000        1.0080           0
  105777 WT7  726  TIP3 H2   HT     0.417000        1.0080           0
  105778 WT7  733  TIP3 OH2  OT    -0.834000       15.9994           0
  105779 WT7  733  TIP3 H1   HT     0.417000        1.0080           0
  105780 WT7  733  TIP3 H2   HT     0.417000        1.0080           0
  105781 WT7  736  TIP3 OH2  OT    -0.834000       15.9994           0
  105782 WT7  736  TIP3 H1   HT     0.417000        1.0080           0
  105783 WT7  736  TIP3 H2   HT     0.417000        1.0080           0
  105784 WT7  737  TIP3 OH2  OT    -0.834000       15.9994           0
  105785 WT7  737  TIP3 H1   HT     0.417000        1.0080           0
  105786 WT7  737  TIP3 H2   HT     0.417000        1.0080           0
  105787 WT7  738  TIP3 OH2  OT    -0.834000       15.9994           0
  105788 WT7  738  TIP3 H1   HT     0.417000        1.0080           0
  105789 WT7  738  TIP3 H2   HT     0.417000        1.0080           0
  105790 WT7  741  TIP3 OH2  OT    -0.834000       15.9994           0
  105791 WT7  741  TIP3 H1   HT     0.417000        1.0080           0
  105792 WT7  741  TIP3 H2   HT     0.417000        1.0080           0
  105793 WT7  746  TIP3 OH2  OT    -0.834000       15.9994           0
  105794 WT7  746  TIP3 H1   HT     0.417000        1.0080           0
  105795 WT7  746  TIP3 H2   HT     0.417000        1.0080           0
  105796 WT7  747  TIP3 OH2  OT    -0.834000       15.9994           0
  105797 WT7  747  TIP3 H1   HT     0.417000        1.0080           0
  105798 WT7  747  TIP3 H2   HT     0.417000        1.0080           0
  105799 WT7  748  TIP3 OH2  OT    -0.834000       15.9994           0
  105800 WT7  748  TIP3 H1   HT     0.417000        1.0080           0
  105801 WT7  748  TIP3 H2   HT     0.417000        1.0080           0
  105802 WT7  759  TIP3 OH2  OT    -0.834000       15.9994           0
  105803 WT7  759  TIP3 H1   HT     0.417000        1.0080           0
  105804 WT7  759  TIP3 H2   HT     0.417000        1.0080           0
  105805 WT7  772  TIP3 OH2  OT    -0.834000       15.9994           0
  105806 WT7  772  TIP3 H1   HT     0.417000        1.0080           0
  105807 WT7  772  TIP3 H2   HT     0.417000        1.0080           0
  105808 WT7  778  TIP3 OH2  OT    -0.834000       15.9994           0
  105809 WT7  778  TIP3 H1   HT     0.417000        1.0080           0
  105810 WT7  778  TIP3 H2   HT     0.417000        1.0080           0
  105811 WT7  779  TIP3 OH2  OT    -0.834000       15.9994           0
  105812 WT7  779  TIP3 H1   HT     0.417000        1.0080           0
  105813 WT7  779  TIP3 H2   HT     0.417000        1.0080           0
  105814 WT7  785  TIP3 OH2  OT    -0.834000       15.9994           0
  105815 WT7  785  TIP3 H1   HT     0.417000        1.0080           0
  105816 WT7  785  TIP3 H2   HT     0.417000        1.0080           0
  105817 WT7  787  TIP3 OH2  OT    -0.834000       15.9994           0
  105818 WT7  787  TIP3 H1   HT     0.417000        1.0080           0
  105819 WT7  787  TIP3 H2   HT     0.417000        1.0080           0
  105820 WT7  793  TIP3 OH2  OT    -0.834000       15.9994           0
  105821 WT7  793  TIP3 H1   HT     0.417000        1.0080           0
  105822 WT7  793  TIP3 H2   HT     0.417000        1.0080           0
  105823 WT7  796  TIP3 OH2  OT    -0.834000       15.9994           0
  105824 WT7  796  TIP3 H1   HT     0.417000        1.0080           0
  105825 WT7  796  TIP3 H2   HT     0.417000        1.0080           0
  105826 WT7  806  TIP3 OH2  OT    -0.834000       15.9994           0
  105827 WT7  806  TIP3 H1   HT     0.417000        1.0080           0
  105828 WT7  806  TIP3 H2   HT     0.417000        1.0080           0
  105829 WT7  813  TIP3 OH2  OT    -0.834000       15.9994           0
  105830 WT7  813  TIP3 H1   HT     0.417000        1.0080           0
  105831 WT7  813  TIP3 H2   HT     0.417000        1.0080           0
  105832 WT7  821  TIP3 OH2  OT    -0.834000       15.9994           0
  105833 WT7  821  TIP3 H1   HT     0.417000        1.0080           0
  105834 WT7  821  TIP3 H2   HT     0.417000        1.0080           0
  105835 WT7  822  TIP3 OH2  OT    -0.834000       15.9994           0
  105836 WT7  822  TIP3 H1   HT     0.417000        1.0080           0
  105837 WT7  822  TIP3 H2   HT     0.417000        1.0080           0
  105838 WT7  835  TIP3 OH2  OT    -0.834000       15.9994           0
  105839 WT7  835  TIP3 H1   HT     0.417000        1.0080           0
  105840 WT7  835  TIP3 H2   HT     0.417000        1.0080           0
  105841 WT7  836  TIP3 OH2  OT    -0.834000       15.9994           0
  105842 WT7  836  TIP3 H1   HT     0.417000        1.0080           0
  105843 WT7  836  TIP3 H2   HT     0.417000        1.0080           0
  105844 WT7  849  TIP3 OH2  OT    -0.834000       15.9994           0
  105845 WT7  849  TIP3 H1   HT     0.417000        1.0080           0
  105846 WT7  849  TIP3 H2   HT     0.417000        1.0080           0
  105847 WT7  852  TIP3 OH2  OT    -0.834000       15.9994           0
  105848 WT7  852  TIP3 H1   HT     0.417000        1.0080           0
  105849 WT7  852  TIP3 H2   HT     0.417000        1.0080           0
  105850 WT7  854  TIP3 OH2  OT    -0.834000       15.9994           0
  105851 WT7  854  TIP3 H1   HT     0.417000        1.0080           0
  105852 WT7  854  TIP3 H2   HT     0.417000        1.0080           0
  105853 WT7  855  TIP3 OH2  OT    -0.834000       15.9994           0
  105854 WT7  855  TIP3 H1   HT     0.417000        1.0080           0
  105855 WT7  855  TIP3 H2   HT     0.417000        1.0080           0
  105856 WT7  867  TIP3 OH2  OT    -0.834000       15.9994           0
  105857 WT7  867  TIP3 H1   HT     0.417000        1.0080           0
  105858 WT7  867  TIP3 H2   HT     0.417000        1.0080           0
  105859 WT7  887  TIP3 OH2  OT    -0.834000       15.9994           0
  105860 WT7  887  TIP3 H1   HT     0.417000        1.0080           0
  105861 WT7  887  TIP3 H2   HT     0.417000        1.0080           0
  105862 WT7  889  TIP3 OH2  OT    -0.834000       15.9994           0
  105863 WT7  889  TIP3 H1   HT     0.417000        1.0080           0
  105864 WT7  889  TIP3 H2   HT     0.417000        1.0080           0
  105865 WT7  891  TIP3 OH2  OT    -0.834000       15.9994           0
  105866 WT7  891  TIP3 H1   HT     0.417000        1.0080           0
  105867 WT7  891  TIP3 H2   HT     0.417000        1.0080           0
  105868 WT7  892  TIP3 OH2  OT    -0.834000       15.9994           0
  105869 WT7  892  TIP3 H1   HT     0.417000        1.0080           0
  105870 WT7  892  TIP3 H2   HT     0.417000        1.0080           0
  105871 WT7  894  TIP3 OH2  OT    -0.834000       15.9994           0
  105872 WT7  894  TIP3 H1   HT     0.417000        1.0080           0
  105873 WT7  894  TIP3 H2   HT     0.417000        1.0080           0
  105874 WT7  895  TIP3 OH2  OT    -0.834000       15.9994           0
  105875 WT7  895  TIP3 H1   HT     0.417000        1.0080           0
  105876 WT7  895  TIP3 H2   HT     0.417000        1.0080           0
  105877 WT7  897  TIP3 OH2  OT    -0.834000       15.9994           0
  105878 WT7  897  TIP3 H1   HT     0.417000        1.0080           0
  105879 WT7  897  TIP3 H2   HT     0.417000        1.0080           0
  105880 WT7  899  TIP3 OH2  OT    -0.834000       15.9994           0
  105881 WT7  899  TIP3 H1   HT     0.417000        1.0080           0
  105882 WT7  899  TIP3 H2   HT     0.417000        1.0080           0
  105883 WT7  906  TIP3 OH2  OT    -0.834000       15.9994           0
  105884 WT7  906  TIP3 H1   HT     0.417000        1.0080           0
  105885 WT7  906  TIP3 H2   HT     0.417000        1.0080           0
  105886 WT7  908  TIP3 OH2  OT    -0.834000       15.9994           0
  105887 WT7  908  TIP3 H1   HT     0.417000        1.0080           0
  105888 WT7  908  TIP3 H2   HT     0.417000        1.0080           0
  105889 WT7  911  TIP3 OH2  OT    -0.834000       15.9994           0
  105890 WT7  911  TIP3 H1   HT     0.417000        1.0080           0
  105891 WT7  911  TIP3 H2   HT     0.417000        1.0080           0
  105892 WT7  912  TIP3 OH2  OT    -0.834000       15.9994           0
  105893 WT7  912  TIP3 H1   HT     0.417000        1.0080           0
  105894 WT7  912  TIP3 H2   HT     0.417000        1.0080           0
  105895 WT7  916  TIP3 OH2  OT    -0.834000       15.9994           0
  105896 WT7  916  TIP3 H1   HT     0.417000        1.0080           0
  105897 WT7  916  TIP3 H2   HT     0.417000        1.0080           0
  105898 WT7  917  TIP3 OH2  OT    -0.834000       15.9994           0
  105899 WT7  917  TIP3 H1   HT     0.417000        1.0080           0
  105900 WT7  917  TIP3 H2   HT     0.417000        1.0080           0
  105901 WT7  921  TIP3 OH2  OT    -0.834000       15.9994           0
  105902 WT7  921  TIP3 H1   HT     0.417000        1.0080           0
  105903 WT7  921  TIP3 H2   HT     0.417000        1.0080           0
  105904 WT7  924  TIP3 OH2  OT    -0.834000       15.9994           0
  105905 WT7  924  TIP3 H1   HT     0.417000        1.0080           0
  105906 WT7  924  TIP3 H2   HT     0.417000        1.0080           0
  105907 WT7  927  TIP3 OH2  OT    -0.834000       15.9994           0
  105908 WT7  927  TIP3 H1   HT     0.417000        1.0080           0
  105909 WT7  927  TIP3 H2   HT     0.417000        1.0080           0
  105910 WT7  928  TIP3 OH2  OT    -0.834000       15.9994           0
  105911 WT7  928  TIP3 H1   HT     0.417000        1.0080           0
  105912 WT7  928  TIP3 H2   HT     0.417000        1.0080           0
  105913 WT7  929  TIP3 OH2  OT    -0.834000       15.9994           0
  105914 WT7  929  TIP3 H1   HT     0.417000        1.0080           0
  105915 WT7  929  TIP3 H2   HT     0.417000        1.0080           0
  105916 WT7  930  TIP3 OH2  OT    -0.834000       15.9994           0
  105917 WT7  930  TIP3 H1   HT     0.417000        1.0080           0
  105918 WT7  930  TIP3 H2   HT     0.417000        1.0080           0
  105919 WT7  932  TIP3 OH2  OT    -0.834000       15.9994           0
  105920 WT7  932  TIP3 H1   HT     0.417000        1.0080           0
  105921 WT7  932  TIP3 H2   HT     0.417000        1.0080           0
  105922 WT7  933  TIP3 OH2  OT    -0.834000       15.9994           0
  105923 WT7  933  TIP3 H1   HT     0.417000        1.0080           0
  105924 WT7  933  TIP3 H2   HT     0.417000        1.0080           0
  105925 WT7  936  TIP3 OH2  OT    -0.834000       15.9994           0
  105926 WT7  936  TIP3 H1   HT     0.417000        1.0080           0
  105927 WT7  936  TIP3 H2   HT     0.417000        1.0080           0
  105928 WT7  937  TIP3 OH2  OT    -0.834000       15.9994           0
  105929 WT7  937  TIP3 H1   HT     0.417000        1.0080           0
  105930 WT7  937  TIP3 H2   HT     0.417000        1.0080           0
  105931 WT7  940  TIP3 OH2  OT    -0.834000       15.9994           0
  105932 WT7  940  TIP3 H1   HT     0.417000        1.0080           0
  105933 WT7  940  TIP3 H2   HT     0.417000        1.0080           0
  105934 WT7  941  TIP3 OH2  OT    -0.834000       15.9994           0
  105935 WT7  941  TIP3 H1   HT     0.417000        1.0080           0
  105936 WT7  941  TIP3 H2   HT     0.417000        1.0080           0
  105937 WT7  942  TIP3 OH2  OT    -0.834000       15.9994           0
  105938 WT7  942  TIP3 H1   HT     0.417000        1.0080           0
  105939 WT7  942  TIP3 H2   HT     0.417000        1.0080           0
  105940 WT7  944  TIP3 OH2  OT    -0.834000       15.9994           0
  105941 WT7  944  TIP3 H1   HT     0.417000        1.0080           0
  105942 WT7  944  TIP3 H2   HT     0.417000        1.0080           0
  105943 WT7  946  TIP3 OH2  OT    -0.834000       15.9994           0
  105944 WT7  946  TIP3 H1   HT     0.417000        1.0080           0
  105945 WT7  946  TIP3 H2   HT     0.417000        1.0080           0
  105946 WT7  947  TIP3 OH2  OT    -0.834000       15.9994           0
  105947 WT7  947  TIP3 H1   HT     0.417000        1.0080           0
  105948 WT7  947  TIP3 H2   HT     0.417000        1.0080           0
  105949 WT7  948  TIP3 OH2  OT    -0.834000       15.9994           0
  105950 WT7  948  TIP3 H1   HT     0.417000        1.0080           0
  105951 WT7  948  TIP3 H2   HT     0.417000        1.0080           0
  105952 WT7  949  TIP3 OH2  OT    -0.834000       15.9994           0
  105953 WT7  949  TIP3 H1   HT     0.417000        1.0080           0
  105954 WT7  949  TIP3 H2   HT     0.417000        1.0080           0
  105955 WT7  950  TIP3 OH2  OT    -0.834000       15.9994           0
  105956 WT7  950  TIP3 H1   HT     0.417000        1.0080           0
  105957 WT7  950  TIP3 H2   HT     0.417000        1.0080           0
  105958 WT7  951  TIP3 OH2  OT    -0.834000       15.9994           0
  105959 WT7  951  TIP3 H1   HT     0.417000        1.0080           0
  105960 WT7  951  TIP3 H2   HT     0.417000        1.0080           0
  105961 WT7  952  TIP3 OH2  OT    -0.834000       15.9994           0
  105962 WT7  952  TIP3 H1   HT     0.417000        1.0080           0
  105963 WT7  952  TIP3 H2   HT     0.417000        1.0080           0
  105964 WT7  953  TIP3 OH2  OT    -0.834000       15.9994           0
  105965 WT7  953  TIP3 H1   HT     0.417000        1.0080           0
  105966 WT7  953  TIP3 H2   HT     0.417000        1.0080           0
  105967 WT7  954  TIP3 OH2  OT    -0.834000       15.9994           0
  105968 WT7  954  TIP3 H1   HT     0.417000        1.0080           0
  105969 WT7  954  TIP3 H2   HT     0.417000        1.0080           0
  105970 WT7  957  TIP3 OH2  OT    -0.834000       15.9994           0
  105971 WT7  957  TIP3 H1   HT     0.417000        1.0080           0
  105972 WT7  957  TIP3 H2   HT     0.417000        1.0080           0
  105973 WT7  958  TIP3 OH2  OT    -0.834000       15.9994           0
  105974 WT7  958  TIP3 H1   HT     0.417000        1.0080           0
  105975 WT7  958  TIP3 H2   HT     0.417000        1.0080           0
  105976 WT7  961  TIP3 OH2  OT    -0.834000       15.9994           0
  105977 WT7  961  TIP3 H1   HT     0.417000        1.0080           0
  105978 WT7  961  TIP3 H2   HT     0.417000        1.0080           0
  105979 WT7  962  TIP3 OH2  OT    -0.834000       15.9994           0
  105980 WT7  962  TIP3 H1   HT     0.417000        1.0080           0
  105981 WT7  962  TIP3 H2   HT     0.417000        1.0080           0
  105982 WT7  964  TIP3 OH2  OT    -0.834000       15.9994           0
  105983 WT7  964  TIP3 H1   HT     0.417000        1.0080           0
  105984 WT7  964  TIP3 H2   HT     0.417000        1.0080           0
  105985 WT7  966  TIP3 OH2  OT    -0.834000       15.9994           0
  105986 WT7  966  TIP3 H1   HT     0.417000        1.0080           0
  105987 WT7  966  TIP3 H2   HT     0.417000        1.0080           0
  105988 WT7  970  TIP3 OH2  OT    -0.834000       15.9994           0
  105989 WT7  970  TIP3 H1   HT     0.417000        1.0080           0
  105990 WT7  970  TIP3 H2   HT     0.417000        1.0080           0
  105991 WT7  972  TIP3 OH2  OT    -0.834000       15.9994           0
  105992 WT7  972  TIP3 H1   HT     0.417000        1.0080           0
  105993 WT7  972  TIP3 H2   HT     0.417000        1.0080           0
  105994 WT7  973  TIP3 OH2  OT    -0.834000       15.9994           0
  105995 WT7  973  TIP3 H1   HT     0.417000        1.0080           0
  105996 WT7  973  TIP3 H2   HT     0.417000        1.0080           0
  105997 WT7  974  TIP3 OH2  OT    -0.834000       15.9994           0
  105998 WT7  974  TIP3 H1   HT     0.417000        1.0080           0
  105999 WT7  974  TIP3 H2   HT     0.417000        1.0080           0
  106000 WT7  975  TIP3 OH2  OT    -0.834000       15.9994           0
  106001 WT7  975  TIP3 H1   HT     0.417000        1.0080           0
  106002 WT7  975  TIP3 H2   HT     0.417000        1.0080           0
  106003 WT7  977  TIP3 OH2  OT    -0.834000       15.9994           0
  106004 WT7  977  TIP3 H1   HT     0.417000        1.0080           0
  106005 WT7  977  TIP3 H2   HT     0.417000        1.0080           0
  106006 WT7  978  TIP3 OH2  OT    -0.834000       15.9994           0
  106007 WT7  978  TIP3 H1   HT     0.417000        1.0080           0
  106008 WT7  978  TIP3 H2   HT     0.417000        1.0080           0
  106009 WT7  981  TIP3 OH2  OT    -0.834000       15.9994           0
  106010 WT7  981  TIP3 H1   HT     0.417000        1.0080           0
  106011 WT7  981  TIP3 H2   HT     0.417000        1.0080           0
  106012 WT7  982  TIP3 OH2  OT    -0.834000       15.9994           0
  106013 WT7  982  TIP3 H1   HT     0.417000        1.0080           0
  106014 WT7  982  TIP3 H2   HT     0.417000        1.0080           0
  106015 WT7  983  TIP3 OH2  OT    -0.834000       15.9994           0
  106016 WT7  983  TIP3 H1   HT     0.417000        1.0080           0
  106017 WT7  983  TIP3 H2   HT     0.417000        1.0080           0
  106018 WT7  985  TIP3 OH2  OT    -0.834000       15.9994           0
  106019 WT7  985  TIP3 H1   HT     0.417000        1.0080           0
  106020 WT7  985  TIP3 H2   HT     0.417000        1.0080           0
  106021 WT7  988  TIP3 OH2  OT    -0.834000       15.9994           0
  106022 WT7  988  TIP3 H1   HT     0.417000        1.0080           0
  106023 WT7  988  TIP3 H2   HT     0.417000        1.0080           0
  106024 WT7  989  TIP3 OH2  OT    -0.834000       15.9994           0
  106025 WT7  989  TIP3 H1   HT     0.417000        1.0080           0
  106026 WT7  989  TIP3 H2   HT     0.417000        1.0080           0
  106027 WT7  990  TIP3 OH2  OT    -0.834000       15.9994           0
  106028 WT7  990  TIP3 H1   HT     0.417000        1.0080           0
  106029 WT7  990  TIP3 H2   HT     0.417000        1.0080           0
  106030 WT7  991  TIP3 OH2  OT    -0.834000       15.9994           0
  106031 WT7  991  TIP3 H1   HT     0.417000        1.0080           0
  106032 WT7  991  TIP3 H2   HT     0.417000        1.0080           0
  106033 WT7  992  TIP3 OH2  OT    -0.834000       15.9994           0
  106034 WT7  992  TIP3 H1   HT     0.417000        1.0080           0
  106035 WT7  992  TIP3 H2   HT     0.417000        1.0080           0
  106036 WT7  993  TIP3 OH2  OT    -0.834000       15.9994           0
  106037 WT7  993  TIP3 H1   HT     0.417000        1.0080           0
  106038 WT7  993  TIP3 H2   HT     0.417000        1.0080           0
  106039 WT7  994  TIP3 OH2  OT    -0.834000       15.9994           0
  106040 WT7  994  TIP3 H1   HT     0.417000        1.0080           0
  106041 WT7  994  TIP3 H2   HT     0.417000        1.0080           0
  106042 WT7  995  TIP3 OH2  OT    -0.834000       15.9994           0
  106043 WT7  995  TIP3 H1   HT     0.417000        1.0080           0
  106044 WT7  995  TIP3 H2   HT     0.417000        1.0080           0
  106045 WT7  996  TIP3 OH2  OT    -0.834000       15.9994           0
  106046 WT7  996  TIP3 H1   HT     0.417000        1.0080           0
  106047 WT7  996  TIP3 H2   HT     0.417000        1.0080           0
  106048 WT7  998  TIP3 OH2  OT    -0.834000       15.9994           0
  106049 WT7  998  TIP3 H1   HT     0.417000        1.0080           0
  106050 WT7  998  TIP3 H2   HT     0.417000        1.0080           0
  106051 WT7  999  TIP3 OH2  OT    -0.834000       15.9994           0
  106052 WT7  999  TIP3 H1   HT     0.417000        1.0080           0
  106053 WT7  999  TIP3 H2   HT     0.417000        1.0080           0
  106054 WT7  1002 TIP3 OH2  OT    -0.834000       15.9994           0
  106055 WT7  1002 TIP3 H1   HT     0.417000        1.0080           0
  106056 WT7  1002 TIP3 H2   HT     0.417000        1.0080           0
  106057 WT7  1004 TIP3 OH2  OT    -0.834000       15.9994           0
  106058 WT7  1004 TIP3 H1   HT     0.417000        1.0080           0
  106059 WT7  1004 TIP3 H2   HT     0.417000        1.0080           0
  106060 WT7  1006 TIP3 OH2  OT    -0.834000       15.9994           0
  106061 WT7  1006 TIP3 H1   HT     0.417000        1.0080           0
  106062 WT7  1006 TIP3 H2   HT     0.417000        1.0080           0
  106063 WT7  1007 TIP3 OH2  OT    -0.834000       15.9994           0
  106064 WT7  1007 TIP3 H1   HT     0.417000        1.0080           0
  106065 WT7  1007 TIP3 H2   HT     0.417000        1.0080           0
  106066 WT7  1008 TIP3 OH2  OT    -0.834000       15.9994           0
  106067 WT7  1008 TIP3 H1   HT     0.417000        1.0080           0
  106068 WT7  1008 TIP3 H2   HT     0.417000        1.0080           0
  106069 WT7  1009 TIP3 OH2  OT    -0.834000       15.9994           0
  106070 WT7  1009 TIP3 H1   HT     0.417000        1.0080           0
  106071 WT7  1009 TIP3 H2   HT     0.417000        1.0080           0
  106072 WT7  1011 TIP3 OH2  OT    -0.834000       15.9994           0
  106073 WT7  1011 TIP3 H1   HT     0.417000        1.0080           0
  106074 WT7  1011 TIP3 H2   HT     0.417000        1.0080           0
  106075 WT7  1012 TIP3 OH2  OT    -0.834000       15.9994           0
  106076 WT7  1012 TIP3 H1   HT     0.417000        1.0080           0
  106077 WT7  1012 TIP3 H2   HT     0.417000        1.0080           0
  106078 WT7  1013 TIP3 OH2  OT    -0.834000       15.9994           0
  106079 WT7  1013 TIP3 H1   HT     0.417000        1.0080           0
  106080 WT7  1013 TIP3 H2   HT     0.417000        1.0080           0
  106081 WT7  1014 TIP3 OH2  OT    -0.834000       15.9994           0
  106082 WT7  1014 TIP3 H1   HT     0.417000        1.0080           0
  106083 WT7  1014 TIP3 H2   HT     0.417000        1.0080           0
  106084 WT7  1015 TIP3 OH2  OT    -0.834000       15.9994           0
  106085 WT7  1015 TIP3 H1   HT     0.417000        1.0080           0
  106086 WT7  1015 TIP3 H2   HT     0.417000        1.0080           0
  106087 WT7  1017 TIP3 OH2  OT    -0.834000       15.9994           0
  106088 WT7  1017 TIP3 H1   HT     0.417000        1.0080           0
  106089 WT7  1017 TIP3 H2   HT     0.417000        1.0080           0
  106090 WT7  1018 TIP3 OH2  OT    -0.834000       15.9994           0
  106091 WT7  1018 TIP3 H1   HT     0.417000        1.0080           0
  106092 WT7  1018 TIP3 H2   HT     0.417000        1.0080           0
  106093 WT7  1019 TIP3 OH2  OT    -0.834000       15.9994           0
  106094 WT7  1019 TIP3 H1   HT     0.417000        1.0080           0
  106095 WT7  1019 TIP3 H2   HT     0.417000        1.0080           0
  106096 WT7  1020 TIP3 OH2  OT    -0.834000       15.9994           0
  106097 WT7  1020 TIP3 H1   HT     0.417000        1.0080           0
  106098 WT7  1020 TIP3 H2   HT     0.417000        1.0080           0
  106099 WT7  1022 TIP3 OH2  OT    -0.834000       15.9994           0
  106100 WT7  1022 TIP3 H1   HT     0.417000        1.0080           0
  106101 WT7  1022 TIP3 H2   HT     0.417000        1.0080           0
  106102 WT7  1023 TIP3 OH2  OT    -0.834000       15.9994           0
  106103 WT7  1023 TIP3 H1   HT     0.417000        1.0080           0
  106104 WT7  1023 TIP3 H2   HT     0.417000        1.0080           0
  106105 WT7  1024 TIP3 OH2  OT    -0.834000       15.9994           0
  106106 WT7  1024 TIP3 H1   HT     0.417000        1.0080           0
  106107 WT7  1024 TIP3 H2   HT     0.417000        1.0080           0
  106108 WT7  1027 TIP3 OH2  OT    -0.834000       15.9994           0
  106109 WT7  1027 TIP3 H1   HT     0.417000        1.0080           0
  106110 WT7  1027 TIP3 H2   HT     0.417000        1.0080           0
  106111 WT7  1030 TIP3 OH2  OT    -0.834000       15.9994           0
  106112 WT7  1030 TIP3 H1   HT     0.417000        1.0080           0
  106113 WT7  1030 TIP3 H2   HT     0.417000        1.0080           0
  106114 WT7  1032 TIP3 OH2  OT    -0.834000       15.9994           0
  106115 WT7  1032 TIP3 H1   HT     0.417000        1.0080           0
  106116 WT7  1032 TIP3 H2   HT     0.417000        1.0080           0
  106117 WT7  1033 TIP3 OH2  OT    -0.834000       15.9994           0
  106118 WT7  1033 TIP3 H1   HT     0.417000        1.0080           0
  106119 WT7  1033 TIP3 H2   HT     0.417000        1.0080           0
  106120 WT7  1034 TIP3 OH2  OT    -0.834000       15.9994           0
  106121 WT7  1034 TIP3 H1   HT     0.417000        1.0080           0
  106122 WT7  1034 TIP3 H2   HT     0.417000        1.0080           0
  106123 WT7  1039 TIP3 OH2  OT    -0.834000       15.9994           0
  106124 WT7  1039 TIP3 H1   HT     0.417000        1.0080           0
  106125 WT7  1039 TIP3 H2   HT     0.417000        1.0080           0
  106126 WT7  1040 TIP3 OH2  OT    -0.834000       15.9994           0
  106127 WT7  1040 TIP3 H1   HT     0.417000        1.0080           0
  106128 WT7  1040 TIP3 H2   HT     0.417000        1.0080           0
  106129 WT7  1042 TIP3 OH2  OT    -0.834000       15.9994           0
  106130 WT7  1042 TIP3 H1   HT     0.417000        1.0080           0
  106131 WT7  1042 TIP3 H2   HT     0.417000        1.0080           0
  106132 WT7  1043 TIP3 OH2  OT    -0.834000       15.9994           0
  106133 WT7  1043 TIP3 H1   HT     0.417000        1.0080           0
  106134 WT7  1043 TIP3 H2   HT     0.417000        1.0080           0
  106135 WT7  1045 TIP3 OH2  OT    -0.834000       15.9994           0
  106136 WT7  1045 TIP3 H1   HT     0.417000        1.0080           0
  106137 WT7  1045 TIP3 H2   HT     0.417000        1.0080           0
  106138 WT7  1047 TIP3 OH2  OT    -0.834000       15.9994           0
  106139 WT7  1047 TIP3 H1   HT     0.417000        1.0080           0
  106140 WT7  1047 TIP3 H2   HT     0.417000        1.0080           0
  106141 WT7  1048 TIP3 OH2  OT    -0.834000       15.9994           0
  106142 WT7  1048 TIP3 H1   HT     0.417000        1.0080           0
  106143 WT7  1048 TIP3 H2   HT     0.417000        1.0080           0
  106144 WT7  1050 TIP3 OH2  OT    -0.834000       15.9994           0
  106145 WT7  1050 TIP3 H1   HT     0.417000        1.0080           0
  106146 WT7  1050 TIP3 H2   HT     0.417000        1.0080           0
  106147 WT7  1052 TIP3 OH2  OT    -0.834000       15.9994           0
  106148 WT7  1052 TIP3 H1   HT     0.417000        1.0080           0
  106149 WT7  1052 TIP3 H2   HT     0.417000        1.0080           0
  106150 WT7  1053 TIP3 OH2  OT    -0.834000       15.9994           0
  106151 WT7  1053 TIP3 H1   HT     0.417000        1.0080           0
  106152 WT7  1053 TIP3 H2   HT     0.417000        1.0080           0
  106153 WT7  1054 TIP3 OH2  OT    -0.834000       15.9994           0
  106154 WT7  1054 TIP3 H1   HT     0.417000        1.0080           0
  106155 WT7  1054 TIP3 H2   HT     0.417000        1.0080           0
  106156 WT7  1055 TIP3 OH2  OT    -0.834000       15.9994           0
  106157 WT7  1055 TIP3 H1   HT     0.417000        1.0080           0
  106158 WT7  1055 TIP3 H2   HT     0.417000        1.0080           0
  106159 WT7  1056 TIP3 OH2  OT    -0.834000       15.9994           0
  106160 WT7  1056 TIP3 H1   HT     0.417000        1.0080           0
  106161 WT7  1056 TIP3 H2   HT     0.417000        1.0080           0
  106162 WT7  1057 TIP3 OH2  OT    -0.834000       15.9994           0
  106163 WT7  1057 TIP3 H1   HT     0.417000        1.0080           0
  106164 WT7  1057 TIP3 H2   HT     0.417000        1.0080           0
  106165 WT7  1058 TIP3 OH2  OT    -0.834000       15.9994           0
  106166 WT7  1058 TIP3 H1   HT     0.417000        1.0080           0
  106167 WT7  1058 TIP3 H2   HT     0.417000        1.0080           0
  106168 WT7  1059 TIP3 OH2  OT    -0.834000       15.9994           0
  106169 WT7  1059 TIP3 H1   HT     0.417000        1.0080           0
  106170 WT7  1059 TIP3 H2   HT     0.417000        1.0080           0
  106171 WT7  1060 TIP3 OH2  OT    -0.834000       15.9994           0
  106172 WT7  1060 TIP3 H1   HT     0.417000        1.0080           0
  106173 WT7  1060 TIP3 H2   HT     0.417000        1.0080           0
  106174 WT7  1061 TIP3 OH2  OT    -0.834000       15.9994           0
  106175 WT7  1061 TIP3 H1   HT     0.417000        1.0080           0
  106176 WT7  1061 TIP3 H2   HT     0.417000        1.0080           0
  106177 WT7  1062 TIP3 OH2  OT    -0.834000       15.9994           0
  106178 WT7  1062 TIP3 H1   HT     0.417000        1.0080           0
  106179 WT7  1062 TIP3 H2   HT     0.417000        1.0080           0
  106180 WT7  1063 TIP3 OH2  OT    -0.834000       15.9994           0
  106181 WT7  1063 TIP3 H1   HT     0.417000        1.0080           0
  106182 WT7  1063 TIP3 H2   HT     0.417000        1.0080           0
  106183 WT7  1064 TIP3 OH2  OT    -0.834000       15.9994           0
  106184 WT7  1064 TIP3 H1   HT     0.417000        1.0080           0
  106185 WT7  1064 TIP3 H2   HT     0.417000        1.0080           0
  106186 WT7  1065 TIP3 OH2  OT    -0.834000       15.9994           0
  106187 WT7  1065 TIP3 H1   HT     0.417000        1.0080           0
  106188 WT7  1065 TIP3 H2   HT     0.417000        1.0080           0
  106189 WT7  1066 TIP3 OH2  OT    -0.834000       15.9994           0
  106190 WT7  1066 TIP3 H1   HT     0.417000        1.0080           0
  106191 WT7  1066 TIP3 H2   HT     0.417000        1.0080           0
  106192 WT7  1068 TIP3 OH2  OT    -0.834000       15.9994           0
  106193 WT7  1068 TIP3 H1   HT     0.417000        1.0080           0
  106194 WT7  1068 TIP3 H2   HT     0.417000        1.0080           0
  106195 WT7  1069 TIP3 OH2  OT    -0.834000       15.9994           0
  106196 WT7  1069 TIP3 H1   HT     0.417000        1.0080           0
  106197 WT7  1069 TIP3 H2   HT     0.417000        1.0080           0
  106198 WT7  1071 TIP3 OH2  OT    -0.834000       15.9994           0
  106199 WT7  1071 TIP3 H1   HT     0.417000        1.0080           0
  106200 WT7  1071 TIP3 H2   HT     0.417000        1.0080           0
  106201 WT7  1073 TIP3 OH2  OT    -0.834000       15.9994           0
  106202 WT7  1073 TIP3 H1   HT     0.417000        1.0080           0
  106203 WT7  1073 TIP3 H2   HT     0.417000        1.0080           0
  106204 WT7  1074 TIP3 OH2  OT    -0.834000       15.9994           0
  106205 WT7  1074 TIP3 H1   HT     0.417000        1.0080           0
  106206 WT7  1074 TIP3 H2   HT     0.417000        1.0080           0
  106207 WT7  1076 TIP3 OH2  OT    -0.834000       15.9994           0
  106208 WT7  1076 TIP3 H1   HT     0.417000        1.0080           0
  106209 WT7  1076 TIP3 H2   HT     0.417000        1.0080           0
  106210 WT7  1077 TIP3 OH2  OT    -0.834000       15.9994           0
  106211 WT7  1077 TIP3 H1   HT     0.417000        1.0080           0
  106212 WT7  1077 TIP3 H2   HT     0.417000        1.0080           0
  106213 WT7  1079 TIP3 OH2  OT    -0.834000       15.9994           0
  106214 WT7  1079 TIP3 H1   HT     0.417000        1.0080           0
  106215 WT7  1079 TIP3 H2   HT     0.417000        1.0080           0
  106216 WT7  1080 TIP3 OH2  OT    -0.834000       15.9994           0
  106217 WT7  1080 TIP3 H1   HT     0.417000        1.0080           0
  106218 WT7  1080 TIP3 H2   HT     0.417000        1.0080           0
  106219 WT7  1081 TIP3 OH2  OT    -0.834000       15.9994           0
  106220 WT7  1081 TIP3 H1   HT     0.417000        1.0080           0
  106221 WT7  1081 TIP3 H2   HT     0.417000        1.0080           0
  106222 WT7  1082 TIP3 OH2  OT    -0.834000       15.9994           0
  106223 WT7  1082 TIP3 H1   HT     0.417000        1.0080           0
  106224 WT7  1082 TIP3 H2   HT     0.417000        1.0080           0
  106225 WT7  1083 TIP3 OH2  OT    -0.834000       15.9994           0
  106226 WT7  1083 TIP3 H1   HT     0.417000        1.0080           0
  106227 WT7  1083 TIP3 H2   HT     0.417000        1.0080           0
  106228 WT7  1085 TIP3 OH2  OT    -0.834000       15.9994           0
  106229 WT7  1085 TIP3 H1   HT     0.417000        1.0080           0
  106230 WT7  1085 TIP3 H2   HT     0.417000        1.0080           0
  106231 WT7  1087 TIP3 OH2  OT    -0.834000       15.9994           0
  106232 WT7  1087 TIP3 H1   HT     0.417000        1.0080           0
  106233 WT7  1087 TIP3 H2   HT     0.417000        1.0080           0
  106234 WT7  1088 TIP3 OH2  OT    -0.834000       15.9994           0
  106235 WT7  1088 TIP3 H1   HT     0.417000        1.0080           0
  106236 WT7  1088 TIP3 H2   HT     0.417000        1.0080           0
  106237 WT7  1090 TIP3 OH2  OT    -0.834000       15.9994           0
  106238 WT7  1090 TIP3 H1   HT     0.417000        1.0080           0
  106239 WT7  1090 TIP3 H2   HT     0.417000        1.0080           0
  106240 WT7  1095 TIP3 OH2  OT    -0.834000       15.9994           0
  106241 WT7  1095 TIP3 H1   HT     0.417000        1.0080           0
  106242 WT7  1095 TIP3 H2   HT     0.417000        1.0080           0
  106243 WT7  1096 TIP3 OH2  OT    -0.834000       15.9994           0
  106244 WT7  1096 TIP3 H1   HT     0.417000        1.0080           0
  106245 WT7  1096 TIP3 H2   HT     0.417000        1.0080           0
  106246 WT7  1097 TIP3 OH2  OT    -0.834000       15.9994           0
  106247 WT7  1097 TIP3 H1   HT     0.417000        1.0080           0
  106248 WT7  1097 TIP3 H2   HT     0.417000        1.0080           0
  106249 WT7  1098 TIP3 OH2  OT    -0.834000       15.9994           0
  106250 WT7  1098 TIP3 H1   HT     0.417000        1.0080           0
  106251 WT7  1098 TIP3 H2   HT     0.417000        1.0080           0
  106252 WT7  1099 TIP3 OH2  OT    -0.834000       15.9994           0
  106253 WT7  1099 TIP3 H1   HT     0.417000        1.0080           0
  106254 WT7  1099 TIP3 H2   HT     0.417000        1.0080           0
  106255 WT7  1100 TIP3 OH2  OT    -0.834000       15.9994           0
  106256 WT7  1100 TIP3 H1   HT     0.417000        1.0080           0
  106257 WT7  1100 TIP3 H2   HT     0.417000        1.0080           0
  106258 WT7  1101 TIP3 OH2  OT    -0.834000       15.9994           0
  106259 WT7  1101 TIP3 H1   HT     0.417000        1.0080           0
  106260 WT7  1101 TIP3 H2   HT     0.417000        1.0080           0
  106261 WT7  1102 TIP3 OH2  OT    -0.834000       15.9994           0
  106262 WT7  1102 TIP3 H1   HT     0.417000        1.0080           0
  106263 WT7  1102 TIP3 H2   HT     0.417000        1.0080           0
  106264 WT7  1103 TIP3 OH2  OT    -0.834000       15.9994           0
  106265 WT7  1103 TIP3 H1   HT     0.417000        1.0080           0
  106266 WT7  1103 TIP3 H2   HT     0.417000        1.0080           0
  106267 WT7  1104 TIP3 OH2  OT    -0.834000       15.9994           0
  106268 WT7  1104 TIP3 H1   HT     0.417000        1.0080           0
  106269 WT7  1104 TIP3 H2   HT     0.417000        1.0080           0
  106270 WT7  1105 TIP3 OH2  OT    -0.834000       15.9994           0
  106271 WT7  1105 TIP3 H1   HT     0.417000        1.0080           0
  106272 WT7  1105 TIP3 H2   HT     0.417000        1.0080           0
  106273 WT7  1107 TIP3 OH2  OT    -0.834000       15.9994           0
  106274 WT7  1107 TIP3 H1   HT     0.417000        1.0080           0
  106275 WT7  1107 TIP3 H2   HT     0.417000        1.0080           0
  106276 WT7  1112 TIP3 OH2  OT    -0.834000       15.9994           0
  106277 WT7  1112 TIP3 H1   HT     0.417000        1.0080           0
  106278 WT7  1112 TIP3 H2   HT     0.417000        1.0080           0
  106279 WT7  1113 TIP3 OH2  OT    -0.834000       15.9994           0
  106280 WT7  1113 TIP3 H1   HT     0.417000        1.0080           0
  106281 WT7  1113 TIP3 H2   HT     0.417000        1.0080           0
  106282 WT7  1115 TIP3 OH2  OT    -0.834000       15.9994           0
  106283 WT7  1115 TIP3 H1   HT     0.417000        1.0080           0
  106284 WT7  1115 TIP3 H2   HT     0.417000        1.0080           0
  106285 WT7  1116 TIP3 OH2  OT    -0.834000       15.9994           0
  106286 WT7  1116 TIP3 H1   HT     0.417000        1.0080           0
  106287 WT7  1116 TIP3 H2   HT     0.417000        1.0080           0
  106288 WT7  1117 TIP3 OH2  OT    -0.834000       15.9994           0
  106289 WT7  1117 TIP3 H1   HT     0.417000        1.0080           0
  106290 WT7  1117 TIP3 H2   HT     0.417000        1.0080           0
  106291 WT7  1118 TIP3 OH2  OT    -0.834000       15.9994           0
  106292 WT7  1118 TIP3 H1   HT     0.417000        1.0080           0
  106293 WT7  1118 TIP3 H2   HT     0.417000        1.0080           0
  106294 WT7  1120 TIP3 OH2  OT    -0.834000       15.9994           0
  106295 WT7  1120 TIP3 H1   HT     0.417000        1.0080           0
  106296 WT7  1120 TIP3 H2   HT     0.417000        1.0080           0
  106297 WT7  1121 TIP3 OH2  OT    -0.834000       15.9994           0
  106298 WT7  1121 TIP3 H1   HT     0.417000        1.0080           0
  106299 WT7  1121 TIP3 H2   HT     0.417000        1.0080           0
  106300 WT7  1122 TIP3 OH2  OT    -0.834000       15.9994           0
  106301 WT7  1122 TIP3 H1   HT     0.417000        1.0080           0
  106302 WT7  1122 TIP3 H2   HT     0.417000        1.0080           0
  106303 WT7  1123 TIP3 OH2  OT    -0.834000       15.9994           0
  106304 WT7  1123 TIP3 H1   HT     0.417000        1.0080           0
  106305 WT7  1123 TIP3 H2   HT     0.417000        1.0080           0
  106306 WT7  1127 TIP3 OH2  OT    -0.834000       15.9994           0
  106307 WT7  1127 TIP3 H1   HT     0.417000        1.0080           0
  106308 WT7  1127 TIP3 H2   HT     0.417000        1.0080           0
  106309 WT7  1128 TIP3 OH2  OT    -0.834000       15.9994           0
  106310 WT7  1128 TIP3 H1   HT     0.417000        1.0080           0
  106311 WT7  1128 TIP3 H2   HT     0.417000        1.0080           0
  106312 WT7  1129 TIP3 OH2  OT    -0.834000       15.9994           0
  106313 WT7  1129 TIP3 H1   HT     0.417000        1.0080           0
  106314 WT7  1129 TIP3 H2   HT     0.417000        1.0080           0
  106315 WT7  1132 TIP3 OH2  OT    -0.834000       15.9994           0
  106316 WT7  1132 TIP3 H1   HT     0.417000        1.0080           0
  106317 WT7  1132 TIP3 H2   HT     0.417000        1.0080           0
  106318 WT7  1133 TIP3 OH2  OT    -0.834000       15.9994           0
  106319 WT7  1133 TIP3 H1   HT     0.417000        1.0080           0
  106320 WT7  1133 TIP3 H2   HT     0.417000        1.0080           0
  106321 WT7  1134 TIP3 OH2  OT    -0.834000       15.9994           0
  106322 WT7  1134 TIP3 H1   HT     0.417000        1.0080           0
  106323 WT7  1134 TIP3 H2   HT     0.417000        1.0080           0
  106324 WT7  1138 TIP3 OH2  OT    -0.834000       15.9994           0
  106325 WT7  1138 TIP3 H1   HT     0.417000        1.0080           0
  106326 WT7  1138 TIP3 H2   HT     0.417000        1.0080           0
  106327 WT7  1140 TIP3 OH2  OT    -0.834000       15.9994           0
  106328 WT7  1140 TIP3 H1   HT     0.417000        1.0080           0
  106329 WT7  1140 TIP3 H2   HT     0.417000        1.0080           0
  106330 WT7  1142 TIP3 OH2  OT    -0.834000       15.9994           0
  106331 WT7  1142 TIP3 H1   HT     0.417000        1.0080           0
  106332 WT7  1142 TIP3 H2   HT     0.417000        1.0080           0
  106333 WT7  1143 TIP3 OH2  OT    -0.834000       15.9994           0
  106334 WT7  1143 TIP3 H1   HT     0.417000        1.0080           0
  106335 WT7  1143 TIP3 H2   HT     0.417000        1.0080           0
  106336 WT7  1144 TIP3 OH2  OT    -0.834000       15.9994           0
  106337 WT7  1144 TIP3 H1   HT     0.417000        1.0080           0
  106338 WT7  1144 TIP3 H2   HT     0.417000        1.0080           0
  106339 WT7  1145 TIP3 OH2  OT    -0.834000       15.9994           0
  106340 WT7  1145 TIP3 H1   HT     0.417000        1.0080           0
  106341 WT7  1145 TIP3 H2   HT     0.417000        1.0080           0
  106342 WT7  1147 TIP3 OH2  OT    -0.834000       15.9994           0
  106343 WT7  1147 TIP3 H1   HT     0.417000        1.0080           0
  106344 WT7  1147 TIP3 H2   HT     0.417000        1.0080           0
  106345 WT7  1148 TIP3 OH2  OT    -0.834000       15.9994           0
  106346 WT7  1148 TIP3 H1   HT     0.417000        1.0080           0
  106347 WT7  1148 TIP3 H2   HT     0.417000        1.0080           0
  106348 WT7  1150 TIP3 OH2  OT    -0.834000       15.9994           0
  106349 WT7  1150 TIP3 H1   HT     0.417000        1.0080           0
  106350 WT7  1150 TIP3 H2   HT     0.417000        1.0080           0
  106351 WT7  1151 TIP3 OH2  OT    -0.834000       15.9994           0
  106352 WT7  1151 TIP3 H1   HT     0.417000        1.0080           0
  106353 WT7  1151 TIP3 H2   HT     0.417000        1.0080           0
  106354 WT7  1153 TIP3 OH2  OT    -0.834000       15.9994           0
  106355 WT7  1153 TIP3 H1   HT     0.417000        1.0080           0
  106356 WT7  1153 TIP3 H2   HT     0.417000        1.0080           0
  106357 WT7  1156 TIP3 OH2  OT    -0.834000       15.9994           0
  106358 WT7  1156 TIP3 H1   HT     0.417000        1.0080           0
  106359 WT7  1156 TIP3 H2   HT     0.417000        1.0080           0
  106360 WT7  1158 TIP3 OH2  OT    -0.834000       15.9994           0
  106361 WT7  1158 TIP3 H1   HT     0.417000        1.0080           0
  106362 WT7  1158 TIP3 H2   HT     0.417000        1.0080           0
  106363 WT7  1164 TIP3 OH2  OT    -0.834000       15.9994           0
  106364 WT7  1164 TIP3 H1   HT     0.417000        1.0080           0
  106365 WT7  1164 TIP3 H2   HT     0.417000        1.0080           0
  106366 WT7  1167 TIP3 OH2  OT    -0.834000       15.9994           0
  106367 WT7  1167 TIP3 H1   HT     0.417000        1.0080           0
  106368 WT7  1167 TIP3 H2   HT     0.417000        1.0080           0
  106369 WT7  1168 TIP3 OH2  OT    -0.834000       15.9994           0
  106370 WT7  1168 TIP3 H1   HT     0.417000        1.0080           0
  106371 WT7  1168 TIP3 H2   HT     0.417000        1.0080           0
  106372 WT7  1172 TIP3 OH2  OT    -0.834000       15.9994           0
  106373 WT7  1172 TIP3 H1   HT     0.417000        1.0080           0
  106374 WT7  1172 TIP3 H2   HT     0.417000        1.0080           0
  106375 WT7  1176 TIP3 OH2  OT    -0.834000       15.9994           0
  106376 WT7  1176 TIP3 H1   HT     0.417000        1.0080           0
  106377 WT7  1176 TIP3 H2   HT     0.417000        1.0080           0
  106378 WT7  1178 TIP3 OH2  OT    -0.834000       15.9994           0
  106379 WT7  1178 TIP3 H1   HT     0.417000        1.0080           0
  106380 WT7  1178 TIP3 H2   HT     0.417000        1.0080           0
  106381 WT7  1179 TIP3 OH2  OT    -0.834000       15.9994           0
  106382 WT7  1179 TIP3 H1   HT     0.417000        1.0080           0
  106383 WT7  1179 TIP3 H2   HT     0.417000        1.0080           0
  106384 WT7  1182 TIP3 OH2  OT    -0.834000       15.9994           0
  106385 WT7  1182 TIP3 H1   HT     0.417000        1.0080           0
  106386 WT7  1182 TIP3 H2   HT     0.417000        1.0080           0
  106387 WT7  1183 TIP3 OH2  OT    -0.834000       15.9994           0
  106388 WT7  1183 TIP3 H1   HT     0.417000        1.0080           0
  106389 WT7  1183 TIP3 H2   HT     0.417000        1.0080           0
  106390 WT7  1186 TIP3 OH2  OT    -0.834000       15.9994           0
  106391 WT7  1186 TIP3 H1   HT     0.417000        1.0080           0
  106392 WT7  1186 TIP3 H2   HT     0.417000        1.0080           0
  106393 WT7  1187 TIP3 OH2  OT    -0.834000       15.9994           0
  106394 WT7  1187 TIP3 H1   HT     0.417000        1.0080           0
  106395 WT7  1187 TIP3 H2   HT     0.417000        1.0080           0
  106396 WT7  1188 TIP3 OH2  OT    -0.834000       15.9994           0
  106397 WT7  1188 TIP3 H1   HT     0.417000        1.0080           0
  106398 WT7  1188 TIP3 H2   HT     0.417000        1.0080           0
  106399 WT7  1192 TIP3 OH2  OT    -0.834000       15.9994           0
  106400 WT7  1192 TIP3 H1   HT     0.417000        1.0080           0
  106401 WT7  1192 TIP3 H2   HT     0.417000        1.0080           0
  106402 WT7  1193 TIP3 OH2  OT    -0.834000       15.9994           0
  106403 WT7  1193 TIP3 H1   HT     0.417000        1.0080           0
  106404 WT7  1193 TIP3 H2   HT     0.417000        1.0080           0
  106405 WT7  1194 TIP3 OH2  OT    -0.834000       15.9994           0
  106406 WT7  1194 TIP3 H1   HT     0.417000        1.0080           0
  106407 WT7  1194 TIP3 H2   HT     0.417000        1.0080           0
  106408 WT7  1197 TIP3 OH2  OT    -0.834000       15.9994           0
  106409 WT7  1197 TIP3 H1   HT     0.417000        1.0080           0
  106410 WT7  1197 TIP3 H2   HT     0.417000        1.0080           0
  106411 WT7  1200 TIP3 OH2  OT    -0.834000       15.9994           0
  106412 WT7  1200 TIP3 H1   HT     0.417000        1.0080           0
  106413 WT7  1200 TIP3 H2   HT     0.417000        1.0080           0
  106414 WT7  1201 TIP3 OH2  OT    -0.834000       15.9994           0
  106415 WT7  1201 TIP3 H1   HT     0.417000        1.0080           0
  106416 WT7  1201 TIP3 H2   HT     0.417000        1.0080           0
  106417 WT7  1202 TIP3 OH2  OT    -0.834000       15.9994           0
  106418 WT7  1202 TIP3 H1   HT     0.417000        1.0080           0
  106419 WT7  1202 TIP3 H2   HT     0.417000        1.0080           0
  106420 WT7  1204 TIP3 OH2  OT    -0.834000       15.9994           0
  106421 WT7  1204 TIP3 H1   HT     0.417000        1.0080           0
  106422 WT7  1204 TIP3 H2   HT     0.417000        1.0080           0
  106423 WT7  1206 TIP3 OH2  OT    -0.834000       15.9994           0
  106424 WT7  1206 TIP3 H1   HT     0.417000        1.0080           0
  106425 WT7  1206 TIP3 H2   HT     0.417000        1.0080           0
  106426 WT7  1209 TIP3 OH2  OT    -0.834000       15.9994           0
  106427 WT7  1209 TIP3 H1   HT     0.417000        1.0080           0
  106428 WT7  1209 TIP3 H2   HT     0.417000        1.0080           0
  106429 WT7  1211 TIP3 OH2  OT    -0.834000       15.9994           0
  106430 WT7  1211 TIP3 H1   HT     0.417000        1.0080           0
  106431 WT7  1211 TIP3 H2   HT     0.417000        1.0080           0
  106432 WT7  1215 TIP3 OH2  OT    -0.834000       15.9994           0
  106433 WT7  1215 TIP3 H1   HT     0.417000        1.0080           0
  106434 WT7  1215 TIP3 H2   HT     0.417000        1.0080           0
  106435 WT7  1217 TIP3 OH2  OT    -0.834000       15.9994           0
  106436 WT7  1217 TIP3 H1   HT     0.417000        1.0080           0
  106437 WT7  1217 TIP3 H2   HT     0.417000        1.0080           0
  106438 WT7  1234 TIP3 OH2  OT    -0.834000       15.9994           0
  106439 WT7  1234 TIP3 H1   HT     0.417000        1.0080           0
  106440 WT7  1234 TIP3 H2   HT     0.417000        1.0080           0
  106441 WT7  1237 TIP3 OH2  OT    -0.834000       15.9994           0
  106442 WT7  1237 TIP3 H1   HT     0.417000        1.0080           0
  106443 WT7  1237 TIP3 H2   HT     0.417000        1.0080           0
  106444 WT7  1238 TIP3 OH2  OT    -0.834000       15.9994           0
  106445 WT7  1238 TIP3 H1   HT     0.417000        1.0080           0
  106446 WT7  1238 TIP3 H2   HT     0.417000        1.0080           0
  106447 WT7  1257 TIP3 OH2  OT    -0.834000       15.9994           0
  106448 WT7  1257 TIP3 H1   HT     0.417000        1.0080           0
  106449 WT7  1257 TIP3 H2   HT     0.417000        1.0080           0
  106450 WT7  1271 TIP3 OH2  OT    -0.834000       15.9994           0
  106451 WT7  1271 TIP3 H1   HT     0.417000        1.0080           0
  106452 WT7  1271 TIP3 H2   HT     0.417000        1.0080           0
  106453 WT7  1272 TIP3 OH2  OT    -0.834000       15.9994           0
  106454 WT7  1272 TIP3 H1   HT     0.417000        1.0080           0
  106455 WT7  1272 TIP3 H2   HT     0.417000        1.0080           0
  106456 WT7  1274 TIP3 OH2  OT    -0.834000       15.9994           0
  106457 WT7  1274 TIP3 H1   HT     0.417000        1.0080           0
  106458 WT7  1274 TIP3 H2   HT     0.417000        1.0080           0
  106459 WT7  1297 TIP3 OH2  OT    -0.834000       15.9994           0
  106460 WT7  1297 TIP3 H1   HT     0.417000        1.0080           0
  106461 WT7  1297 TIP3 H2   HT     0.417000        1.0080           0
  106462 WT7  1298 TIP3 OH2  OT    -0.834000       15.9994           0
  106463 WT7  1298 TIP3 H1   HT     0.417000        1.0080           0
  106464 WT7  1298 TIP3 H2   HT     0.417000        1.0080           0
  106465 WT7  1301 TIP3 OH2  OT    -0.834000       15.9994           0
  106466 WT7  1301 TIP3 H1   HT     0.417000        1.0080           0
  106467 WT7  1301 TIP3 H2   HT     0.417000        1.0080           0
  106468 WT7  1302 TIP3 OH2  OT    -0.834000       15.9994           0
  106469 WT7  1302 TIP3 H1   HT     0.417000        1.0080           0
  106470 WT7  1302 TIP3 H2   HT     0.417000        1.0080           0
  106471 WT7  1307 TIP3 OH2  OT    -0.834000       15.9994           0
  106472 WT7  1307 TIP3 H1   HT     0.417000        1.0080           0
  106473 WT7  1307 TIP3 H2   HT     0.417000        1.0080           0
  106474 WT7  1308 TIP3 OH2  OT    -0.834000       15.9994           0
  106475 WT7  1308 TIP3 H1   HT     0.417000        1.0080           0
  106476 WT7  1308 TIP3 H2   HT     0.417000        1.0080           0
  106477 WT7  1309 TIP3 OH2  OT    -0.834000       15.9994           0
  106478 WT7  1309 TIP3 H1   HT     0.417000        1.0080           0
  106479 WT7  1309 TIP3 H2   HT     0.417000        1.0080           0
  106480 WT7  1310 TIP3 OH2  OT    -0.834000       15.9994           0
  106481 WT7  1310 TIP3 H1   HT     0.417000        1.0080           0
  106482 WT7  1310 TIP3 H2   HT     0.417000        1.0080           0
  106483 WT7  1311 TIP3 OH2  OT    -0.834000       15.9994           0
  106484 WT7  1311 TIP3 H1   HT     0.417000        1.0080           0
  106485 WT7  1311 TIP3 H2   HT     0.417000        1.0080           0
  106486 WT7  1313 TIP3 OH2  OT    -0.834000       15.9994           0
  106487 WT7  1313 TIP3 H1   HT     0.417000        1.0080           0
  106488 WT7  1313 TIP3 H2   HT     0.417000        1.0080           0
  106489 WT7  1317 TIP3 OH2  OT    -0.834000       15.9994           0
  106490 WT7  1317 TIP3 H1   HT     0.417000        1.0080           0
  106491 WT7  1317 TIP3 H2   HT     0.417000        1.0080           0
  106492 WT7  1326 TIP3 OH2  OT    -0.834000       15.9994           0
  106493 WT7  1326 TIP3 H1   HT     0.417000        1.0080           0
  106494 WT7  1326 TIP3 H2   HT     0.417000        1.0080           0
  106495 WT7  1327 TIP3 OH2  OT    -0.834000       15.9994           0
  106496 WT7  1327 TIP3 H1   HT     0.417000        1.0080           0
  106497 WT7  1327 TIP3 H2   HT     0.417000        1.0080           0
  106498 WT7  1328 TIP3 OH2  OT    -0.834000       15.9994           0
  106499 WT7  1328 TIP3 H1   HT     0.417000        1.0080           0
  106500 WT7  1328 TIP3 H2   HT     0.417000        1.0080           0
  106501 WT7  1329 TIP3 OH2  OT    -0.834000       15.9994           0
  106502 WT7  1329 TIP3 H1   HT     0.417000        1.0080           0
  106503 WT7  1329 TIP3 H2   HT     0.417000        1.0080           0
  106504 WT7  1330 TIP3 OH2  OT    -0.834000       15.9994           0
  106505 WT7  1330 TIP3 H1   HT     0.417000        1.0080           0
  106506 WT7  1330 TIP3 H2   HT     0.417000        1.0080           0
  106507 WT7  1331 TIP3 OH2  OT    -0.834000       15.9994           0
  106508 WT7  1331 TIP3 H1   HT     0.417000        1.0080           0
  106509 WT7  1331 TIP3 H2   HT     0.417000        1.0080           0
  106510 WT7  1332 TIP3 OH2  OT    -0.834000       15.9994           0
  106511 WT7  1332 TIP3 H1   HT     0.417000        1.0080           0
  106512 WT7  1332 TIP3 H2   HT     0.417000        1.0080           0
  106513 WT7  1333 TIP3 OH2  OT    -0.834000       15.9994           0
  106514 WT7  1333 TIP3 H1   HT     0.417000        1.0080           0
  106515 WT7  1333 TIP3 H2   HT     0.417000        1.0080           0
  106516 WT7  1334 TIP3 OH2  OT    -0.834000       15.9994           0
  106517 WT7  1334 TIP3 H1   HT     0.417000        1.0080           0
  106518 WT7  1334 TIP3 H2   HT     0.417000        1.0080           0
  106519 WT7  1337 TIP3 OH2  OT    -0.834000       15.9994           0
  106520 WT7  1337 TIP3 H1   HT     0.417000        1.0080           0
  106521 WT7  1337 TIP3 H2   HT     0.417000        1.0080           0
  106522 WT7  1340 TIP3 OH2  OT    -0.834000       15.9994           0
  106523 WT7  1340 TIP3 H1   HT     0.417000        1.0080           0
  106524 WT7  1340 TIP3 H2   HT     0.417000        1.0080           0
  106525 WT7  1341 TIP3 OH2  OT    -0.834000       15.9994           0
  106526 WT7  1341 TIP3 H1   HT     0.417000        1.0080           0
  106527 WT7  1341 TIP3 H2   HT     0.417000        1.0080           0
  106528 WT7  1344 TIP3 OH2  OT    -0.834000       15.9994           0
  106529 WT7  1344 TIP3 H1   HT     0.417000        1.0080           0
  106530 WT7  1344 TIP3 H2   HT     0.417000        1.0080           0
  106531 WT7  1346 TIP3 OH2  OT    -0.834000       15.9994           0
  106532 WT7  1346 TIP3 H1   HT     0.417000        1.0080           0
  106533 WT7  1346 TIP3 H2   HT     0.417000        1.0080           0
  106534 WT7  1347 TIP3 OH2  OT    -0.834000       15.9994           0
  106535 WT7  1347 TIP3 H1   HT     0.417000        1.0080           0
  106536 WT7  1347 TIP3 H2   HT     0.417000        1.0080           0
  106537 WT7  1348 TIP3 OH2  OT    -0.834000       15.9994           0
  106538 WT7  1348 TIP3 H1   HT     0.417000        1.0080           0
  106539 WT7  1348 TIP3 H2   HT     0.417000        1.0080           0
  106540 WT7  1349 TIP3 OH2  OT    -0.834000       15.9994           0
  106541 WT7  1349 TIP3 H1   HT     0.417000        1.0080           0
  106542 WT7  1349 TIP3 H2   HT     0.417000        1.0080           0
  106543 WT7  1352 TIP3 OH2  OT    -0.834000       15.9994           0
  106544 WT7  1352 TIP3 H1   HT     0.417000        1.0080           0
  106545 WT7  1352 TIP3 H2   HT     0.417000        1.0080           0
  106546 WT7  1354 TIP3 OH2  OT    -0.834000       15.9994           0
  106547 WT7  1354 TIP3 H1   HT     0.417000        1.0080           0
  106548 WT7  1354 TIP3 H2   HT     0.417000        1.0080           0
  106549 WT7  1355 TIP3 OH2  OT    -0.834000       15.9994           0
  106550 WT7  1355 TIP3 H1   HT     0.417000        1.0080           0
  106551 WT7  1355 TIP3 H2   HT     0.417000        1.0080           0
  106552 WT7  1356 TIP3 OH2  OT    -0.834000       15.9994           0
  106553 WT7  1356 TIP3 H1   HT     0.417000        1.0080           0
  106554 WT7  1356 TIP3 H2   HT     0.417000        1.0080           0
  106555 WT7  1357 TIP3 OH2  OT    -0.834000       15.9994           0
  106556 WT7  1357 TIP3 H1   HT     0.417000        1.0080           0
  106557 WT7  1357 TIP3 H2   HT     0.417000        1.0080           0
  106558 WT7  1361 TIP3 OH2  OT    -0.834000       15.9994           0
  106559 WT7  1361 TIP3 H1   HT     0.417000        1.0080           0
  106560 WT7  1361 TIP3 H2   HT     0.417000        1.0080           0
  106561 WT7  1362 TIP3 OH2  OT    -0.834000       15.9994           0
  106562 WT7  1362 TIP3 H1   HT     0.417000        1.0080           0
  106563 WT7  1362 TIP3 H2   HT     0.417000        1.0080           0
  106564 WT7  1365 TIP3 OH2  OT    -0.834000       15.9994           0
  106565 WT7  1365 TIP3 H1   HT     0.417000        1.0080           0
  106566 WT7  1365 TIP3 H2   HT     0.417000        1.0080           0
  106567 WT7  1367 TIP3 OH2  OT    -0.834000       15.9994           0
  106568 WT7  1367 TIP3 H1   HT     0.417000        1.0080           0
  106569 WT7  1367 TIP3 H2   HT     0.417000        1.0080           0
  106570 WT7  1368 TIP3 OH2  OT    -0.834000       15.9994           0
  106571 WT7  1368 TIP3 H1   HT     0.417000        1.0080           0
  106572 WT7  1368 TIP3 H2   HT     0.417000        1.0080           0
  106573 WT7  1369 TIP3 OH2  OT    -0.834000       15.9994           0
  106574 WT7  1369 TIP3 H1   HT     0.417000        1.0080           0
  106575 WT7  1369 TIP3 H2   HT     0.417000        1.0080           0
  106576 WT7  1370 TIP3 OH2  OT    -0.834000       15.9994           0
  106577 WT7  1370 TIP3 H1   HT     0.417000        1.0080           0
  106578 WT7  1370 TIP3 H2   HT     0.417000        1.0080           0
  106579 WT7  1371 TIP3 OH2  OT    -0.834000       15.9994           0
  106580 WT7  1371 TIP3 H1   HT     0.417000        1.0080           0
  106581 WT7  1371 TIP3 H2   HT     0.417000        1.0080           0
  106582 WT7  1372 TIP3 OH2  OT    -0.834000       15.9994           0
  106583 WT7  1372 TIP3 H1   HT     0.417000        1.0080           0
  106584 WT7  1372 TIP3 H2   HT     0.417000        1.0080           0
  106585 WT7  1374 TIP3 OH2  OT    -0.834000       15.9994           0
  106586 WT7  1374 TIP3 H1   HT     0.417000        1.0080           0
  106587 WT7  1374 TIP3 H2   HT     0.417000        1.0080           0
  106588 WT7  1376 TIP3 OH2  OT    -0.834000       15.9994           0
  106589 WT7  1376 TIP3 H1   HT     0.417000        1.0080           0
  106590 WT7  1376 TIP3 H2   HT     0.417000        1.0080           0
  106591 WT7  1379 TIP3 OH2  OT    -0.834000       15.9994           0
  106592 WT7  1379 TIP3 H1   HT     0.417000        1.0080           0
  106593 WT7  1379 TIP3 H2   HT     0.417000        1.0080           0
  106594 WT7  1380 TIP3 OH2  OT    -0.834000       15.9994           0
  106595 WT7  1380 TIP3 H1   HT     0.417000        1.0080           0
  106596 WT7  1380 TIP3 H2   HT     0.417000        1.0080           0
  106597 WT7  1381 TIP3 OH2  OT    -0.834000       15.9994           0
  106598 WT7  1381 TIP3 H1   HT     0.417000        1.0080           0
  106599 WT7  1381 TIP3 H2   HT     0.417000        1.0080           0
  106600 WT7  1384 TIP3 OH2  OT    -0.834000       15.9994           0
  106601 WT7  1384 TIP3 H1   HT     0.417000        1.0080           0
  106602 WT7  1384 TIP3 H2   HT     0.417000        1.0080           0
  106603 WT7  1387 TIP3 OH2  OT    -0.834000       15.9994           0
  106604 WT7  1387 TIP3 H1   HT     0.417000        1.0080           0
  106605 WT7  1387 TIP3 H2   HT     0.417000        1.0080           0
  106606 WT7  1388 TIP3 OH2  OT    -0.834000       15.9994           0
  106607 WT7  1388 TIP3 H1   HT     0.417000        1.0080           0
  106608 WT7  1388 TIP3 H2   HT     0.417000        1.0080           0
  106609 WT7  1389 TIP3 OH2  OT    -0.834000       15.9994           0
  106610 WT7  1389 TIP3 H1   HT     0.417000        1.0080           0
  106611 WT7  1389 TIP3 H2   HT     0.417000        1.0080           0
  106612 WT7  1390 TIP3 OH2  OT    -0.834000       15.9994           0
  106613 WT7  1390 TIP3 H1   HT     0.417000        1.0080           0
  106614 WT7  1390 TIP3 H2   HT     0.417000        1.0080           0
  106615 WT7  1392 TIP3 OH2  OT    -0.834000       15.9994           0
  106616 WT7  1392 TIP3 H1   HT     0.417000        1.0080           0
  106617 WT7  1392 TIP3 H2   HT     0.417000        1.0080           0
  106618 WT7  1394 TIP3 OH2  OT    -0.834000       15.9994           0
  106619 WT7  1394 TIP3 H1   HT     0.417000        1.0080           0
  106620 WT7  1394 TIP3 H2   HT     0.417000        1.0080           0
  106621 WT7  1395 TIP3 OH2  OT    -0.834000       15.9994           0
  106622 WT7  1395 TIP3 H1   HT     0.417000        1.0080           0
  106623 WT7  1395 TIP3 H2   HT     0.417000        1.0080           0
  106624 WT7  1396 TIP3 OH2  OT    -0.834000       15.9994           0
  106625 WT7  1396 TIP3 H1   HT     0.417000        1.0080           0
  106626 WT7  1396 TIP3 H2   HT     0.417000        1.0080           0
  106627 WT7  1398 TIP3 OH2  OT    -0.834000       15.9994           0
  106628 WT7  1398 TIP3 H1   HT     0.417000        1.0080           0
  106629 WT7  1398 TIP3 H2   HT     0.417000        1.0080           0
  106630 WT7  1400 TIP3 OH2  OT    -0.834000       15.9994           0
  106631 WT7  1400 TIP3 H1   HT     0.417000        1.0080           0
  106632 WT7  1400 TIP3 H2   HT     0.417000        1.0080           0
  106633 WT7  1401 TIP3 OH2  OT    -0.834000       15.9994           0
  106634 WT7  1401 TIP3 H1   HT     0.417000        1.0080           0
  106635 WT7  1401 TIP3 H2   HT     0.417000        1.0080           0
  106636 WT7  1402 TIP3 OH2  OT    -0.834000       15.9994           0
  106637 WT7  1402 TIP3 H1   HT     0.417000        1.0080           0
  106638 WT7  1402 TIP3 H2   HT     0.417000        1.0080           0
  106639 WT7  1404 TIP3 OH2  OT    -0.834000       15.9994           0
  106640 WT7  1404 TIP3 H1   HT     0.417000        1.0080           0
  106641 WT7  1404 TIP3 H2   HT     0.417000        1.0080           0
  106642 WT7  1407 TIP3 OH2  OT    -0.834000       15.9994           0
  106643 WT7  1407 TIP3 H1   HT     0.417000        1.0080           0
  106644 WT7  1407 TIP3 H2   HT     0.417000        1.0080           0
  106645 WT7  1408 TIP3 OH2  OT    -0.834000       15.9994           0
  106646 WT7  1408 TIP3 H1   HT     0.417000        1.0080           0
  106647 WT7  1408 TIP3 H2   HT     0.417000        1.0080           0
  106648 WT7  1410 TIP3 OH2  OT    -0.834000       15.9994           0
  106649 WT7  1410 TIP3 H1   HT     0.417000        1.0080           0
  106650 WT7  1410 TIP3 H2   HT     0.417000        1.0080           0
  106651 WT7  1411 TIP3 OH2  OT    -0.834000       15.9994           0
  106652 WT7  1411 TIP3 H1   HT     0.417000        1.0080           0
  106653 WT7  1411 TIP3 H2   HT     0.417000        1.0080           0
  106654 WT7  1412 TIP3 OH2  OT    -0.834000       15.9994           0
  106655 WT7  1412 TIP3 H1   HT     0.417000        1.0080           0
  106656 WT7  1412 TIP3 H2   HT     0.417000        1.0080           0
  106657 WT7  1413 TIP3 OH2  OT    -0.834000       15.9994           0
  106658 WT7  1413 TIP3 H1   HT     0.417000        1.0080           0
  106659 WT7  1413 TIP3 H2   HT     0.417000        1.0080           0
  106660 WT7  1414 TIP3 OH2  OT    -0.834000       15.9994           0
  106661 WT7  1414 TIP3 H1   HT     0.417000        1.0080           0
  106662 WT7  1414 TIP3 H2   HT     0.417000        1.0080           0
  106663 WT7  1415 TIP3 OH2  OT    -0.834000       15.9994           0
  106664 WT7  1415 TIP3 H1   HT     0.417000        1.0080           0
  106665 WT7  1415 TIP3 H2   HT     0.417000        1.0080           0
  106666 WT7  1416 TIP3 OH2  OT    -0.834000       15.9994           0
  106667 WT7  1416 TIP3 H1   HT     0.417000        1.0080           0
  106668 WT7  1416 TIP3 H2   HT     0.417000        1.0080           0
  106669 WT7  1417 TIP3 OH2  OT    -0.834000       15.9994           0
  106670 WT7  1417 TIP3 H1   HT     0.417000        1.0080           0
  106671 WT7  1417 TIP3 H2   HT     0.417000        1.0080           0
  106672 WT7  1418 TIP3 OH2  OT    -0.834000       15.9994           0
  106673 WT7  1418 TIP3 H1   HT     0.417000        1.0080           0
  106674 WT7  1418 TIP3 H2   HT     0.417000        1.0080           0
  106675 WT7  1419 TIP3 OH2  OT    -0.834000       15.9994           0
  106676 WT7  1419 TIP3 H1   HT     0.417000        1.0080           0
  106677 WT7  1419 TIP3 H2   HT     0.417000        1.0080           0
  106678 WT7  1420 TIP3 OH2  OT    -0.834000       15.9994           0
  106679 WT7  1420 TIP3 H1   HT     0.417000        1.0080           0
  106680 WT7  1420 TIP3 H2   HT     0.417000        1.0080           0
  106681 WT7  1421 TIP3 OH2  OT    -0.834000       15.9994           0
  106682 WT7  1421 TIP3 H1   HT     0.417000        1.0080           0
  106683 WT7  1421 TIP3 H2   HT     0.417000        1.0080           0
  106684 WT7  1424 TIP3 OH2  OT    -0.834000       15.9994           0
  106685 WT7  1424 TIP3 H1   HT     0.417000        1.0080           0
  106686 WT7  1424 TIP3 H2   HT     0.417000        1.0080           0
  106687 WT7  1428 TIP3 OH2  OT    -0.834000       15.9994           0
  106688 WT7  1428 TIP3 H1   HT     0.417000        1.0080           0
  106689 WT7  1428 TIP3 H2   HT     0.417000        1.0080           0
  106690 WT7  1429 TIP3 OH2  OT    -0.834000       15.9994           0
  106691 WT7  1429 TIP3 H1   HT     0.417000        1.0080           0
  106692 WT7  1429 TIP3 H2   HT     0.417000        1.0080           0
  106693 WT7  1430 TIP3 OH2  OT    -0.834000       15.9994           0
  106694 WT7  1430 TIP3 H1   HT     0.417000        1.0080           0
  106695 WT7  1430 TIP3 H2   HT     0.417000        1.0080           0
  106696 WT7  1431 TIP3 OH2  OT    -0.834000       15.9994           0
  106697 WT7  1431 TIP3 H1   HT     0.417000        1.0080           0
  106698 WT7  1431 TIP3 H2   HT     0.417000        1.0080           0
  106699 WT7  1433 TIP3 OH2  OT    -0.834000       15.9994           0
  106700 WT7  1433 TIP3 H1   HT     0.417000        1.0080           0
  106701 WT7  1433 TIP3 H2   HT     0.417000        1.0080           0
  106702 WT7  1435 TIP3 OH2  OT    -0.834000       15.9994           0
  106703 WT7  1435 TIP3 H1   HT     0.417000        1.0080           0
  106704 WT7  1435 TIP3 H2   HT     0.417000        1.0080           0
  106705 WT7  1436 TIP3 OH2  OT    -0.834000       15.9994           0
  106706 WT7  1436 TIP3 H1   HT     0.417000        1.0080           0
  106707 WT7  1436 TIP3 H2   HT     0.417000        1.0080           0
  106708 WT7  1437 TIP3 OH2  OT    -0.834000       15.9994           0
  106709 WT7  1437 TIP3 H1   HT     0.417000        1.0080           0
  106710 WT7  1437 TIP3 H2   HT     0.417000        1.0080           0
  106711 WT7  1439 TIP3 OH2  OT    -0.834000       15.9994           0
  106712 WT7  1439 TIP3 H1   HT     0.417000        1.0080           0
  106713 WT7  1439 TIP3 H2   HT     0.417000        1.0080           0
  106714 WT7  1440 TIP3 OH2  OT    -0.834000       15.9994           0
  106715 WT7  1440 TIP3 H1   HT     0.417000        1.0080           0
  106716 WT7  1440 TIP3 H2   HT     0.417000        1.0080           0
  106717 WT7  1442 TIP3 OH2  OT    -0.834000       15.9994           0
  106718 WT7  1442 TIP3 H1   HT     0.417000        1.0080           0
  106719 WT7  1442 TIP3 H2   HT     0.417000        1.0080           0
  106720 WT7  1443 TIP3 OH2  OT    -0.834000       15.9994           0
  106721 WT7  1443 TIP3 H1   HT     0.417000        1.0080           0
  106722 WT7  1443 TIP3 H2   HT     0.417000        1.0080           0
  106723 WT7  1444 TIP3 OH2  OT    -0.834000       15.9994           0
  106724 WT7  1444 TIP3 H1   HT     0.417000        1.0080           0
  106725 WT7  1444 TIP3 H2   HT     0.417000        1.0080           0
  106726 WT7  1445 TIP3 OH2  OT    -0.834000       15.9994           0
  106727 WT7  1445 TIP3 H1   HT     0.417000        1.0080           0
  106728 WT7  1445 TIP3 H2   HT     0.417000        1.0080           0
  106729 WT7  1447 TIP3 OH2  OT    -0.834000       15.9994           0
  106730 WT7  1447 TIP3 H1   HT     0.417000        1.0080           0
  106731 WT7  1447 TIP3 H2   HT     0.417000        1.0080           0
  106732 WT7  1448 TIP3 OH2  OT    -0.834000       15.9994           0
  106733 WT7  1448 TIP3 H1   HT     0.417000        1.0080           0
  106734 WT7  1448 TIP3 H2   HT     0.417000        1.0080           0
  106735 WT7  1450 TIP3 OH2  OT    -0.834000       15.9994           0
  106736 WT7  1450 TIP3 H1   HT     0.417000        1.0080           0
  106737 WT7  1450 TIP3 H2   HT     0.417000        1.0080           0
  106738 WT7  1451 TIP3 OH2  OT    -0.834000       15.9994           0
  106739 WT7  1451 TIP3 H1   HT     0.417000        1.0080           0
  106740 WT7  1451 TIP3 H2   HT     0.417000        1.0080           0
  106741 WT7  1453 TIP3 OH2  OT    -0.834000       15.9994           0
  106742 WT7  1453 TIP3 H1   HT     0.417000        1.0080           0
  106743 WT7  1453 TIP3 H2   HT     0.417000        1.0080           0
  106744 WT7  1454 TIP3 OH2  OT    -0.834000       15.9994           0
  106745 WT7  1454 TIP3 H1   HT     0.417000        1.0080           0
  106746 WT7  1454 TIP3 H2   HT     0.417000        1.0080           0
  106747 WT7  1455 TIP3 OH2  OT    -0.834000       15.9994           0
  106748 WT7  1455 TIP3 H1   HT     0.417000        1.0080           0
  106749 WT7  1455 TIP3 H2   HT     0.417000        1.0080           0
  106750 WT7  1456 TIP3 OH2  OT    -0.834000       15.9994           0
  106751 WT7  1456 TIP3 H1   HT     0.417000        1.0080           0
  106752 WT7  1456 TIP3 H2   HT     0.417000        1.0080           0
  106753 WT7  1457 TIP3 OH2  OT    -0.834000       15.9994           0
  106754 WT7  1457 TIP3 H1   HT     0.417000        1.0080           0
  106755 WT7  1457 TIP3 H2   HT     0.417000        1.0080           0
  106756 WT7  1458 TIP3 OH2  OT    -0.834000       15.9994           0
  106757 WT7  1458 TIP3 H1   HT     0.417000        1.0080           0
  106758 WT7  1458 TIP3 H2   HT     0.417000        1.0080           0
  106759 WT7  1459 TIP3 OH2  OT    -0.834000       15.9994           0
  106760 WT7  1459 TIP3 H1   HT     0.417000        1.0080           0
  106761 WT7  1459 TIP3 H2   HT     0.417000        1.0080           0
  106762 WT7  1460 TIP3 OH2  OT    -0.834000       15.9994           0
  106763 WT7  1460 TIP3 H1   HT     0.417000        1.0080           0
  106764 WT7  1460 TIP3 H2   HT     0.417000        1.0080           0
  106765 WT7  1461 TIP3 OH2  OT    -0.834000       15.9994           0
  106766 WT7  1461 TIP3 H1   HT     0.417000        1.0080           0
  106767 WT7  1461 TIP3 H2   HT     0.417000        1.0080           0
  106768 WT7  1463 TIP3 OH2  OT    -0.834000       15.9994           0
  106769 WT7  1463 TIP3 H1   HT     0.417000        1.0080           0
  106770 WT7  1463 TIP3 H2   HT     0.417000        1.0080           0
  106771 WT7  1464 TIP3 OH2  OT    -0.834000       15.9994           0
  106772 WT7  1464 TIP3 H1   HT     0.417000        1.0080           0
  106773 WT7  1464 TIP3 H2   HT     0.417000        1.0080           0
  106774 WT7  1465 TIP3 OH2  OT    -0.834000       15.9994           0
  106775 WT7  1465 TIP3 H1   HT     0.417000        1.0080           0
  106776 WT7  1465 TIP3 H2   HT     0.417000        1.0080           0
  106777 WT7  1466 TIP3 OH2  OT    -0.834000       15.9994           0
  106778 WT7  1466 TIP3 H1   HT     0.417000        1.0080           0
  106779 WT7  1466 TIP3 H2   HT     0.417000        1.0080           0
  106780 WT7  1468 TIP3 OH2  OT    -0.834000       15.9994           0
  106781 WT7  1468 TIP3 H1   HT     0.417000        1.0080           0
  106782 WT7  1468 TIP3 H2   HT     0.417000        1.0080           0
  106783 WT7  1469 TIP3 OH2  OT    -0.834000       15.9994           0
  106784 WT7  1469 TIP3 H1   HT     0.417000        1.0080           0
  106785 WT7  1469 TIP3 H2   HT     0.417000        1.0080           0
  106786 WT7  1471 TIP3 OH2  OT    -0.834000       15.9994           0
  106787 WT7  1471 TIP3 H1   HT     0.417000        1.0080           0
  106788 WT7  1471 TIP3 H2   HT     0.417000        1.0080           0
  106789 WT7  1472 TIP3 OH2  OT    -0.834000       15.9994           0
  106790 WT7  1472 TIP3 H1   HT     0.417000        1.0080           0
  106791 WT7  1472 TIP3 H2   HT     0.417000        1.0080           0
  106792 WT7  1473 TIP3 OH2  OT    -0.834000       15.9994           0
  106793 WT7  1473 TIP3 H1   HT     0.417000        1.0080           0
  106794 WT7  1473 TIP3 H2   HT     0.417000        1.0080           0
  106795 WT7  1474 TIP3 OH2  OT    -0.834000       15.9994           0
  106796 WT7  1474 TIP3 H1   HT     0.417000        1.0080           0
  106797 WT7  1474 TIP3 H2   HT     0.417000        1.0080           0
  106798 WT7  1475 TIP3 OH2  OT    -0.834000       15.9994           0
  106799 WT7  1475 TIP3 H1   HT     0.417000        1.0080           0
  106800 WT7  1475 TIP3 H2   HT     0.417000        1.0080           0
  106801 WT7  1476 TIP3 OH2  OT    -0.834000       15.9994           0
  106802 WT7  1476 TIP3 H1   HT     0.417000        1.0080           0
  106803 WT7  1476 TIP3 H2   HT     0.417000        1.0080           0
  106804 WT7  1477 TIP3 OH2  OT    -0.834000       15.9994           0
  106805 WT7  1477 TIP3 H1   HT     0.417000        1.0080           0
  106806 WT7  1477 TIP3 H2   HT     0.417000        1.0080           0
  106807 WT7  1478 TIP3 OH2  OT    -0.834000       15.9994           0
  106808 WT7  1478 TIP3 H1   HT     0.417000        1.0080           0
  106809 WT7  1478 TIP3 H2   HT     0.417000        1.0080           0
  106810 WT7  1479 TIP3 OH2  OT    -0.834000       15.9994           0
  106811 WT7  1479 TIP3 H1   HT     0.417000        1.0080           0
  106812 WT7  1479 TIP3 H2   HT     0.417000        1.0080           0
  106813 WT7  1480 TIP3 OH2  OT    -0.834000       15.9994           0
  106814 WT7  1480 TIP3 H1   HT     0.417000        1.0080           0
  106815 WT7  1480 TIP3 H2   HT     0.417000        1.0080           0
  106816 WT7  1481 TIP3 OH2  OT    -0.834000       15.9994           0
  106817 WT7  1481 TIP3 H1   HT     0.417000        1.0080           0
  106818 WT7  1481 TIP3 H2   HT     0.417000        1.0080           0
  106819 WT7  1483 TIP3 OH2  OT    -0.834000       15.9994           0
  106820 WT7  1483 TIP3 H1   HT     0.417000        1.0080           0
  106821 WT7  1483 TIP3 H2   HT     0.417000        1.0080           0
  106822 WT7  1485 TIP3 OH2  OT    -0.834000       15.9994           0
  106823 WT7  1485 TIP3 H1   HT     0.417000        1.0080           0
  106824 WT7  1485 TIP3 H2   HT     0.417000        1.0080           0
  106825 WT7  1486 TIP3 OH2  OT    -0.834000       15.9994           0
  106826 WT7  1486 TIP3 H1   HT     0.417000        1.0080           0
  106827 WT7  1486 TIP3 H2   HT     0.417000        1.0080           0
  106828 WT7  1487 TIP3 OH2  OT    -0.834000       15.9994           0
  106829 WT7  1487 TIP3 H1   HT     0.417000        1.0080           0
  106830 WT7  1487 TIP3 H2   HT     0.417000        1.0080           0
  106831 WT7  1488 TIP3 OH2  OT    -0.834000       15.9994           0
  106832 WT7  1488 TIP3 H1   HT     0.417000        1.0080           0
  106833 WT7  1488 TIP3 H2   HT     0.417000        1.0080           0
  106834 WT7  1489 TIP3 OH2  OT    -0.834000       15.9994           0
  106835 WT7  1489 TIP3 H1   HT     0.417000        1.0080           0
  106836 WT7  1489 TIP3 H2   HT     0.417000        1.0080           0
  106837 WT7  1491 TIP3 OH2  OT    -0.834000       15.9994           0
  106838 WT7  1491 TIP3 H1   HT     0.417000        1.0080           0
  106839 WT7  1491 TIP3 H2   HT     0.417000        1.0080           0
  106840 WT7  1492 TIP3 OH2  OT    -0.834000       15.9994           0
  106841 WT7  1492 TIP3 H1   HT     0.417000        1.0080           0
  106842 WT7  1492 TIP3 H2   HT     0.417000        1.0080           0
  106843 WT7  1493 TIP3 OH2  OT    -0.834000       15.9994           0
  106844 WT7  1493 TIP3 H1   HT     0.417000        1.0080           0
  106845 WT7  1493 TIP3 H2   HT     0.417000        1.0080           0
  106846 WT7  1494 TIP3 OH2  OT    -0.834000       15.9994           0
  106847 WT7  1494 TIP3 H1   HT     0.417000        1.0080           0
  106848 WT7  1494 TIP3 H2   HT     0.417000        1.0080           0
  106849 WT7  1497 TIP3 OH2  OT    -0.834000       15.9994           0
  106850 WT7  1497 TIP3 H1   HT     0.417000        1.0080           0
  106851 WT7  1497 TIP3 H2   HT     0.417000        1.0080           0
  106852 WT7  1499 TIP3 OH2  OT    -0.834000       15.9994           0
  106853 WT7  1499 TIP3 H1   HT     0.417000        1.0080           0
  106854 WT7  1499 TIP3 H2   HT     0.417000        1.0080           0
  106855 WT7  1500 TIP3 OH2  OT    -0.834000       15.9994           0
  106856 WT7  1500 TIP3 H1   HT     0.417000        1.0080           0
  106857 WT7  1500 TIP3 H2   HT     0.417000        1.0080           0
  106858 WT7  1501 TIP3 OH2  OT    -0.834000       15.9994           0
  106859 WT7  1501 TIP3 H1   HT     0.417000        1.0080           0
  106860 WT7  1501 TIP3 H2   HT     0.417000        1.0080           0
  106861 WT7  1502 TIP3 OH2  OT    -0.834000       15.9994           0
  106862 WT7  1502 TIP3 H1   HT     0.417000        1.0080           0
  106863 WT7  1502 TIP3 H2   HT     0.417000        1.0080           0
  106864 WT7  1504 TIP3 OH2  OT    -0.834000       15.9994           0
  106865 WT7  1504 TIP3 H1   HT     0.417000        1.0080           0
  106866 WT7  1504 TIP3 H2   HT     0.417000        1.0080           0
  106867 WT7  1505 TIP3 OH2  OT    -0.834000       15.9994           0
  106868 WT7  1505 TIP3 H1   HT     0.417000        1.0080           0
  106869 WT7  1505 TIP3 H2   HT     0.417000        1.0080           0
  106870 WT7  1506 TIP3 OH2  OT    -0.834000       15.9994           0
  106871 WT7  1506 TIP3 H1   HT     0.417000        1.0080           0
  106872 WT7  1506 TIP3 H2   HT     0.417000        1.0080           0
  106873 WT7  1508 TIP3 OH2  OT    -0.834000       15.9994           0
  106874 WT7  1508 TIP3 H1   HT     0.417000        1.0080           0
  106875 WT7  1508 TIP3 H2   HT     0.417000        1.0080           0
  106876 WT7  1509 TIP3 OH2  OT    -0.834000       15.9994           0
  106877 WT7  1509 TIP3 H1   HT     0.417000        1.0080           0
  106878 WT7  1509 TIP3 H2   HT     0.417000        1.0080           0
  106879 WT7  1511 TIP3 OH2  OT    -0.834000       15.9994           0
  106880 WT7  1511 TIP3 H1   HT     0.417000        1.0080           0
  106881 WT7  1511 TIP3 H2   HT     0.417000        1.0080           0
  106882 WT7  1512 TIP3 OH2  OT    -0.834000       15.9994           0
  106883 WT7  1512 TIP3 H1   HT     0.417000        1.0080           0
  106884 WT7  1512 TIP3 H2   HT     0.417000        1.0080           0
  106885 WT7  1514 TIP3 OH2  OT    -0.834000       15.9994           0
  106886 WT7  1514 TIP3 H1   HT     0.417000        1.0080           0
  106887 WT7  1514 TIP3 H2   HT     0.417000        1.0080           0
  106888 WT7  1515 TIP3 OH2  OT    -0.834000       15.9994           0
  106889 WT7  1515 TIP3 H1   HT     0.417000        1.0080           0
  106890 WT7  1515 TIP3 H2   HT     0.417000        1.0080           0
  106891 WT7  1516 TIP3 OH2  OT    -0.834000       15.9994           0
  106892 WT7  1516 TIP3 H1   HT     0.417000        1.0080           0
  106893 WT7  1516 TIP3 H2   HT     0.417000        1.0080           0
  106894 WT7  1518 TIP3 OH2  OT    -0.834000       15.9994           0
  106895 WT7  1518 TIP3 H1   HT     0.417000        1.0080           0
  106896 WT7  1518 TIP3 H2   HT     0.417000        1.0080           0
  106897 WT7  1519 TIP3 OH2  OT    -0.834000       15.9994           0
  106898 WT7  1519 TIP3 H1   HT     0.417000        1.0080           0
  106899 WT7  1519 TIP3 H2   HT     0.417000        1.0080           0
  106900 WT7  1520 TIP3 OH2  OT    -0.834000       15.9994           0
  106901 WT7  1520 TIP3 H1   HT     0.417000        1.0080           0
  106902 WT7  1520 TIP3 H2   HT     0.417000        1.0080           0
  106903 WT7  1522 TIP3 OH2  OT    -0.834000       15.9994           0
  106904 WT7  1522 TIP3 H1   HT     0.417000        1.0080           0
  106905 WT7  1522 TIP3 H2   HT     0.417000        1.0080           0
  106906 WT7  1523 TIP3 OH2  OT    -0.834000       15.9994           0
  106907 WT7  1523 TIP3 H1   HT     0.417000        1.0080           0
  106908 WT7  1523 TIP3 H2   HT     0.417000        1.0080           0
  106909 WT7  1524 TIP3 OH2  OT    -0.834000       15.9994           0
  106910 WT7  1524 TIP3 H1   HT     0.417000        1.0080           0
  106911 WT7  1524 TIP3 H2   HT     0.417000        1.0080           0
  106912 WT7  1526 TIP3 OH2  OT    -0.834000       15.9994           0
  106913 WT7  1526 TIP3 H1   HT     0.417000        1.0080           0
  106914 WT7  1526 TIP3 H2   HT     0.417000        1.0080           0
  106915 WT7  1527 TIP3 OH2  OT    -0.834000       15.9994           0
  106916 WT7  1527 TIP3 H1   HT     0.417000        1.0080           0
  106917 WT7  1527 TIP3 H2   HT     0.417000        1.0080           0
  106918 WT7  1529 TIP3 OH2  OT    -0.834000       15.9994           0
  106919 WT7  1529 TIP3 H1   HT     0.417000        1.0080           0
  106920 WT7  1529 TIP3 H2   HT     0.417000        1.0080           0
  106921 WT7  1531 TIP3 OH2  OT    -0.834000       15.9994           0
  106922 WT7  1531 TIP3 H1   HT     0.417000        1.0080           0
  106923 WT7  1531 TIP3 H2   HT     0.417000        1.0080           0
  106924 WT7  1532 TIP3 OH2  OT    -0.834000       15.9994           0
  106925 WT7  1532 TIP3 H1   HT     0.417000        1.0080           0
  106926 WT7  1532 TIP3 H2   HT     0.417000        1.0080           0
  106927 WT7  1534 TIP3 OH2  OT    -0.834000       15.9994           0
  106928 WT7  1534 TIP3 H1   HT     0.417000        1.0080           0
  106929 WT7  1534 TIP3 H2   HT     0.417000        1.0080           0
  106930 WT7  1537 TIP3 OH2  OT    -0.834000       15.9994           0
  106931 WT7  1537 TIP3 H1   HT     0.417000        1.0080           0
  106932 WT7  1537 TIP3 H2   HT     0.417000        1.0080           0
  106933 WT7  1538 TIP3 OH2  OT    -0.834000       15.9994           0
  106934 WT7  1538 TIP3 H1   HT     0.417000        1.0080           0
  106935 WT7  1538 TIP3 H2   HT     0.417000        1.0080           0
  106936 WT7  1540 TIP3 OH2  OT    -0.834000       15.9994           0
  106937 WT7  1540 TIP3 H1   HT     0.417000        1.0080           0
  106938 WT7  1540 TIP3 H2   HT     0.417000        1.0080           0
  106939 WT7  1542 TIP3 OH2  OT    -0.834000       15.9994           0
  106940 WT7  1542 TIP3 H1   HT     0.417000        1.0080           0
  106941 WT7  1542 TIP3 H2   HT     0.417000        1.0080           0
  106942 WT7  1543 TIP3 OH2  OT    -0.834000       15.9994           0
  106943 WT7  1543 TIP3 H1   HT     0.417000        1.0080           0
  106944 WT7  1543 TIP3 H2   HT     0.417000        1.0080           0
  106945 WT7  1544 TIP3 OH2  OT    -0.834000       15.9994           0
  106946 WT7  1544 TIP3 H1   HT     0.417000        1.0080           0
  106947 WT7  1544 TIP3 H2   HT     0.417000        1.0080           0
  106948 WT7  1545 TIP3 OH2  OT    -0.834000       15.9994           0
  106949 WT7  1545 TIP3 H1   HT     0.417000        1.0080           0
  106950 WT7  1545 TIP3 H2   HT     0.417000        1.0080           0
  106951 WT7  1546 TIP3 OH2  OT    -0.834000       15.9994           0
  106952 WT7  1546 TIP3 H1   HT     0.417000        1.0080           0
  106953 WT7  1546 TIP3 H2   HT     0.417000        1.0080           0
  106954 WT7  1547 TIP3 OH2  OT    -0.834000       15.9994           0
  106955 WT7  1547 TIP3 H1   HT     0.417000        1.0080           0
  106956 WT7  1547 TIP3 H2   HT     0.417000        1.0080           0
  106957 WT7  1548 TIP3 OH2  OT    -0.834000       15.9994           0
  106958 WT7  1548 TIP3 H1   HT     0.417000        1.0080           0
  106959 WT7  1548 TIP3 H2   HT     0.417000        1.0080           0
  106960 WT7  1549 TIP3 OH2  OT    -0.834000       15.9994           0
  106961 WT7  1549 TIP3 H1   HT     0.417000        1.0080           0
  106962 WT7  1549 TIP3 H2   HT     0.417000        1.0080           0
  106963 WT7  1552 TIP3 OH2  OT    -0.834000       15.9994           0
  106964 WT7  1552 TIP3 H1   HT     0.417000        1.0080           0
  106965 WT7  1552 TIP3 H2   HT     0.417000        1.0080           0
  106966 WT7  1554 TIP3 OH2  OT    -0.834000       15.9994           0
  106967 WT7  1554 TIP3 H1   HT     0.417000        1.0080           0
  106968 WT7  1554 TIP3 H2   HT     0.417000        1.0080           0
  106969 WT7  1555 TIP3 OH2  OT    -0.834000       15.9994           0
  106970 WT7  1555 TIP3 H1   HT     0.417000        1.0080           0
  106971 WT7  1555 TIP3 H2   HT     0.417000        1.0080           0
  106972 WT7  1557 TIP3 OH2  OT    -0.834000       15.9994           0
  106973 WT7  1557 TIP3 H1   HT     0.417000        1.0080           0
  106974 WT7  1557 TIP3 H2   HT     0.417000        1.0080           0
  106975 WT7  1559 TIP3 OH2  OT    -0.834000       15.9994           0
  106976 WT7  1559 TIP3 H1   HT     0.417000        1.0080           0
  106977 WT7  1559 TIP3 H2   HT     0.417000        1.0080           0
  106978 WT7  1560 TIP3 OH2  OT    -0.834000       15.9994           0
  106979 WT7  1560 TIP3 H1   HT     0.417000        1.0080           0
  106980 WT7  1560 TIP3 H2   HT     0.417000        1.0080           0
  106981 WT7  1565 TIP3 OH2  OT    -0.834000       15.9994           0
  106982 WT7  1565 TIP3 H1   HT     0.417000        1.0080           0
  106983 WT7  1565 TIP3 H2   HT     0.417000        1.0080           0
  106984 WT7  1566 TIP3 OH2  OT    -0.834000       15.9994           0
  106985 WT7  1566 TIP3 H1   HT     0.417000        1.0080           0
  106986 WT7  1566 TIP3 H2   HT     0.417000        1.0080           0
  106987 WT7  1572 TIP3 OH2  OT    -0.834000       15.9994           0
  106988 WT7  1572 TIP3 H1   HT     0.417000        1.0080           0
  106989 WT7  1572 TIP3 H2   HT     0.417000        1.0080           0
  106990 WT7  1574 TIP3 OH2  OT    -0.834000       15.9994           0
  106991 WT7  1574 TIP3 H1   HT     0.417000        1.0080           0
  106992 WT7  1574 TIP3 H2   HT     0.417000        1.0080           0
  106993 WT7  1575 TIP3 OH2  OT    -0.834000       15.9994           0
  106994 WT7  1575 TIP3 H1   HT     0.417000        1.0080           0
  106995 WT7  1575 TIP3 H2   HT     0.417000        1.0080           0
  106996 WT7  1576 TIP3 OH2  OT    -0.834000       15.9994           0
  106997 WT7  1576 TIP3 H1   HT     0.417000        1.0080           0
  106998 WT7  1576 TIP3 H2   HT     0.417000        1.0080           0
  106999 WT7  1577 TIP3 OH2  OT    -0.834000       15.9994           0
  107000 WT7  1577 TIP3 H1   HT     0.417000        1.0080           0
  107001 WT7  1577 TIP3 H2   HT     0.417000        1.0080           0
  107002 WT7  1581 TIP3 OH2  OT    -0.834000       15.9994           0
  107003 WT7  1581 TIP3 H1   HT     0.417000        1.0080           0
  107004 WT7  1581 TIP3 H2   HT     0.417000        1.0080           0
  107005 WT7  1582 TIP3 OH2  OT    -0.834000       15.9994           0
  107006 WT7  1582 TIP3 H1   HT     0.417000        1.0080           0
  107007 WT7  1582 TIP3 H2   HT     0.417000        1.0080           0
  107008 WT7  1583 TIP3 OH2  OT    -0.834000       15.9994           0
  107009 WT7  1583 TIP3 H1   HT     0.417000        1.0080           0
  107010 WT7  1583 TIP3 H2   HT     0.417000        1.0080           0
  107011 WT7  1584 TIP3 OH2  OT    -0.834000       15.9994           0
  107012 WT7  1584 TIP3 H1   HT     0.417000        1.0080           0
  107013 WT7  1584 TIP3 H2   HT     0.417000        1.0080           0
  107014 WT7  1586 TIP3 OH2  OT    -0.834000       15.9994           0
  107015 WT7  1586 TIP3 H1   HT     0.417000        1.0080           0
  107016 WT7  1586 TIP3 H2   HT     0.417000        1.0080           0
  107017 WT7  1587 TIP3 OH2  OT    -0.834000       15.9994           0
  107018 WT7  1587 TIP3 H1   HT     0.417000        1.0080           0
  107019 WT7  1587 TIP3 H2   HT     0.417000        1.0080           0
  107020 WT7  1588 TIP3 OH2  OT    -0.834000       15.9994           0
  107021 WT7  1588 TIP3 H1   HT     0.417000        1.0080           0
  107022 WT7  1588 TIP3 H2   HT     0.417000        1.0080           0
  107023 WT7  1589 TIP3 OH2  OT    -0.834000       15.9994           0
  107024 WT7  1589 TIP3 H1   HT     0.417000        1.0080           0
  107025 WT7  1589 TIP3 H2   HT     0.417000        1.0080           0
  107026 WT7  1590 TIP3 OH2  OT    -0.834000       15.9994           0
  107027 WT7  1590 TIP3 H1   HT     0.417000        1.0080           0
  107028 WT7  1590 TIP3 H2   HT     0.417000        1.0080           0
  107029 WT7  1591 TIP3 OH2  OT    -0.834000       15.9994           0
  107030 WT7  1591 TIP3 H1   HT     0.417000        1.0080           0
  107031 WT7  1591 TIP3 H2   HT     0.417000        1.0080           0
  107032 WT7  1592 TIP3 OH2  OT    -0.834000       15.9994           0
  107033 WT7  1592 TIP3 H1   HT     0.417000        1.0080           0
  107034 WT7  1592 TIP3 H2   HT     0.417000        1.0080           0
  107035 WT7  1593 TIP3 OH2  OT    -0.834000       15.9994           0
  107036 WT7  1593 TIP3 H1   HT     0.417000        1.0080           0
  107037 WT7  1593 TIP3 H2   HT     0.417000        1.0080           0
  107038 WT7  1595 TIP3 OH2  OT    -0.834000       15.9994           0
  107039 WT7  1595 TIP3 H1   HT     0.417000        1.0080           0
  107040 WT7  1595 TIP3 H2   HT     0.417000        1.0080           0
  107041 WT7  1597 TIP3 OH2  OT    -0.834000       15.9994           0
  107042 WT7  1597 TIP3 H1   HT     0.417000        1.0080           0
  107043 WT7  1597 TIP3 H2   HT     0.417000        1.0080           0
  107044 WT7  1598 TIP3 OH2  OT    -0.834000       15.9994           0
  107045 WT7  1598 TIP3 H1   HT     0.417000        1.0080           0
  107046 WT7  1598 TIP3 H2   HT     0.417000        1.0080           0
  107047 WT7  1600 TIP3 OH2  OT    -0.834000       15.9994           0
  107048 WT7  1600 TIP3 H1   HT     0.417000        1.0080           0
  107049 WT7  1600 TIP3 H2   HT     0.417000        1.0080           0
  107050 WT7  1601 TIP3 OH2  OT    -0.834000       15.9994           0
  107051 WT7  1601 TIP3 H1   HT     0.417000        1.0080           0
  107052 WT7  1601 TIP3 H2   HT     0.417000        1.0080           0
  107053 WT7  1603 TIP3 OH2  OT    -0.834000       15.9994           0
  107054 WT7  1603 TIP3 H1   HT     0.417000        1.0080           0
  107055 WT7  1603 TIP3 H2   HT     0.417000        1.0080           0
  107056 WT7  1608 TIP3 OH2  OT    -0.834000       15.9994           0
  107057 WT7  1608 TIP3 H1   HT     0.417000        1.0080           0
  107058 WT7  1608 TIP3 H2   HT     0.417000        1.0080           0
  107059 WT7  1609 TIP3 OH2  OT    -0.834000       15.9994           0
  107060 WT7  1609 TIP3 H1   HT     0.417000        1.0080           0
  107061 WT7  1609 TIP3 H2   HT     0.417000        1.0080           0
  107062 WT7  1610 TIP3 OH2  OT    -0.834000       15.9994           0
  107063 WT7  1610 TIP3 H1   HT     0.417000        1.0080           0
  107064 WT7  1610 TIP3 H2   HT     0.417000        1.0080           0
  107065 WT7  1611 TIP3 OH2  OT    -0.834000       15.9994           0
  107066 WT7  1611 TIP3 H1   HT     0.417000        1.0080           0
  107067 WT7  1611 TIP3 H2   HT     0.417000        1.0080           0
  107068 WT7  1612 TIP3 OH2  OT    -0.834000       15.9994           0
  107069 WT7  1612 TIP3 H1   HT     0.417000        1.0080           0
  107070 WT7  1612 TIP3 H2   HT     0.417000        1.0080           0
  107071 WT7  1616 TIP3 OH2  OT    -0.834000       15.9994           0
  107072 WT7  1616 TIP3 H1   HT     0.417000        1.0080           0
  107073 WT7  1616 TIP3 H2   HT     0.417000        1.0080           0
  107074 WT7  1618 TIP3 OH2  OT    -0.834000       15.9994           0
  107075 WT7  1618 TIP3 H1   HT     0.417000        1.0080           0
  107076 WT7  1618 TIP3 H2   HT     0.417000        1.0080           0
  107077 WT7  1623 TIP3 OH2  OT    -0.834000       15.9994           0
  107078 WT7  1623 TIP3 H1   HT     0.417000        1.0080           0
  107079 WT7  1623 TIP3 H2   HT     0.417000        1.0080           0
  107080 WT7  1624 TIP3 OH2  OT    -0.834000       15.9994           0
  107081 WT7  1624 TIP3 H1   HT     0.417000        1.0080           0
  107082 WT7  1624 TIP3 H2   HT     0.417000        1.0080           0
  107083 WT7  1625 TIP3 OH2  OT    -0.834000       15.9994           0
  107084 WT7  1625 TIP3 H1   HT     0.417000        1.0080           0
  107085 WT7  1625 TIP3 H2   HT     0.417000        1.0080           0
  107086 WT7  1626 TIP3 OH2  OT    -0.834000       15.9994           0
  107087 WT7  1626 TIP3 H1   HT     0.417000        1.0080           0
  107088 WT7  1626 TIP3 H2   HT     0.417000        1.0080           0
  107089 WT7  1629 TIP3 OH2  OT    -0.834000       15.9994           0
  107090 WT7  1629 TIP3 H1   HT     0.417000        1.0080           0
  107091 WT7  1629 TIP3 H2   HT     0.417000        1.0080           0
  107092 WT7  1631 TIP3 OH2  OT    -0.834000       15.9994           0
  107093 WT7  1631 TIP3 H1   HT     0.417000        1.0080           0
  107094 WT7  1631 TIP3 H2   HT     0.417000        1.0080           0
  107095 WT7  1634 TIP3 OH2  OT    -0.834000       15.9994           0
  107096 WT7  1634 TIP3 H1   HT     0.417000        1.0080           0
  107097 WT7  1634 TIP3 H2   HT     0.417000        1.0080           0
  107098 WT7  1638 TIP3 OH2  OT    -0.834000       15.9994           0
  107099 WT7  1638 TIP3 H1   HT     0.417000        1.0080           0
  107100 WT7  1638 TIP3 H2   HT     0.417000        1.0080           0
  107101 WT7  1642 TIP3 OH2  OT    -0.834000       15.9994           0
  107102 WT7  1642 TIP3 H1   HT     0.417000        1.0080           0
  107103 WT7  1642 TIP3 H2   HT     0.417000        1.0080           0
  107104 WT7  1643 TIP3 OH2  OT    -0.834000       15.9994           0
  107105 WT7  1643 TIP3 H1   HT     0.417000        1.0080           0
  107106 WT7  1643 TIP3 H2   HT     0.417000        1.0080           0
  107107 WT7  1655 TIP3 OH2  OT    -0.834000       15.9994           0
  107108 WT7  1655 TIP3 H1   HT     0.417000        1.0080           0
  107109 WT7  1655 TIP3 H2   HT     0.417000        1.0080           0
  107110 WT7  1658 TIP3 OH2  OT    -0.834000       15.9994           0
  107111 WT7  1658 TIP3 H1   HT     0.417000        1.0080           0
  107112 WT7  1658 TIP3 H2   HT     0.417000        1.0080           0
  107113 WT7  1666 TIP3 OH2  OT    -0.834000       15.9994           0
  107114 WT7  1666 TIP3 H1   HT     0.417000        1.0080           0
  107115 WT7  1666 TIP3 H2   HT     0.417000        1.0080           0
  107116 WT7  1670 TIP3 OH2  OT    -0.834000       15.9994           0
  107117 WT7  1670 TIP3 H1   HT     0.417000        1.0080           0
  107118 WT7  1670 TIP3 H2   HT     0.417000        1.0080           0
  107119 WT7  1675 TIP3 OH2  OT    -0.834000       15.9994           0
  107120 WT7  1675 TIP3 H1   HT     0.417000        1.0080           0
  107121 WT7  1675 TIP3 H2   HT     0.417000        1.0080           0
  107122 WT7  1680 TIP3 OH2  OT    -0.834000       15.9994           0
  107123 WT7  1680 TIP3 H1   HT     0.417000        1.0080           0
  107124 WT7  1680 TIP3 H2   HT     0.417000        1.0080           0
  107125 WT7  1692 TIP3 OH2  OT    -0.834000       15.9994           0
  107126 WT7  1692 TIP3 H1   HT     0.417000        1.0080           0
  107127 WT7  1692 TIP3 H2   HT     0.417000        1.0080           0
  107128 WT7  1698 TIP3 OH2  OT    -0.834000       15.9994           0
  107129 WT7  1698 TIP3 H1   HT     0.417000        1.0080           0
  107130 WT7  1698 TIP3 H2   HT     0.417000        1.0080           0
  107131 WT7  1707 TIP3 OH2  OT    -0.834000       15.9994           0
  107132 WT7  1707 TIP3 H1   HT     0.417000        1.0080           0
  107133 WT7  1707 TIP3 H2   HT     0.417000        1.0080           0
  107134 WT7  1711 TIP3 OH2  OT    -0.834000       15.9994           0
  107135 WT7  1711 TIP3 H1   HT     0.417000        1.0080           0
  107136 WT7  1711 TIP3 H2   HT     0.417000        1.0080           0
  107137 WT7  1714 TIP3 OH2  OT    -0.834000       15.9994           0
  107138 WT7  1714 TIP3 H1   HT     0.417000        1.0080           0
  107139 WT7  1714 TIP3 H2   HT     0.417000        1.0080           0
  107140 WT7  1715 TIP3 OH2  OT    -0.834000       15.9994           0
  107141 WT7  1715 TIP3 H1   HT     0.417000        1.0080           0
  107142 WT7  1715 TIP3 H2   HT     0.417000        1.0080           0
  107143 WT7  1718 TIP3 OH2  OT    -0.834000       15.9994           0
  107144 WT7  1718 TIP3 H1   HT     0.417000        1.0080           0
  107145 WT7  1718 TIP3 H2   HT     0.417000        1.0080           0
  107146 WT7  1722 TIP3 OH2  OT    -0.834000       15.9994           0
  107147 WT7  1722 TIP3 H1   HT     0.417000        1.0080           0
  107148 WT7  1722 TIP3 H2   HT     0.417000        1.0080           0
  107149 WT7  1723 TIP3 OH2  OT    -0.834000       15.9994           0
  107150 WT7  1723 TIP3 H1   HT     0.417000        1.0080           0
  107151 WT7  1723 TIP3 H2   HT     0.417000        1.0080           0
  107152 WT7  1725 TIP3 OH2  OT    -0.834000       15.9994           0
  107153 WT7  1725 TIP3 H1   HT     0.417000        1.0080           0
  107154 WT7  1725 TIP3 H2   HT     0.417000        1.0080           0
  107155 WT7  1727 TIP3 OH2  OT    -0.834000       15.9994           0
  107156 WT7  1727 TIP3 H1   HT     0.417000        1.0080           0
  107157 WT7  1727 TIP3 H2   HT     0.417000        1.0080           0
  107158 WT7  1729 TIP3 OH2  OT    -0.834000       15.9994           0
  107159 WT7  1729 TIP3 H1   HT     0.417000        1.0080           0
  107160 WT7  1729 TIP3 H2   HT     0.417000        1.0080           0
  107161 WT7  1730 TIP3 OH2  OT    -0.834000       15.9994           0
  107162 WT7  1730 TIP3 H1   HT     0.417000        1.0080           0
  107163 WT7  1730 TIP3 H2   HT     0.417000        1.0080           0
  107164 WT7  1733 TIP3 OH2  OT    -0.834000       15.9994           0
  107165 WT7  1733 TIP3 H1   HT     0.417000        1.0080           0
  107166 WT7  1733 TIP3 H2   HT     0.417000        1.0080           0
  107167 WT7  1735 TIP3 OH2  OT    -0.834000       15.9994           0
  107168 WT7  1735 TIP3 H1   HT     0.417000        1.0080           0
  107169 WT7  1735 TIP3 H2   HT     0.417000        1.0080           0
  107170 WT7  1740 TIP3 OH2  OT    -0.834000       15.9994           0
  107171 WT7  1740 TIP3 H1   HT     0.417000        1.0080           0
  107172 WT7  1740 TIP3 H2   HT     0.417000        1.0080           0
  107173 WT7  1744 TIP3 OH2  OT    -0.834000       15.9994           0
  107174 WT7  1744 TIP3 H1   HT     0.417000        1.0080           0
  107175 WT7  1744 TIP3 H2   HT     0.417000        1.0080           0
  107176 WT7  1746 TIP3 OH2  OT    -0.834000       15.9994           0
  107177 WT7  1746 TIP3 H1   HT     0.417000        1.0080           0
  107178 WT7  1746 TIP3 H2   HT     0.417000        1.0080           0
  107179 WT7  1750 TIP3 OH2  OT    -0.834000       15.9994           0
  107180 WT7  1750 TIP3 H1   HT     0.417000        1.0080           0
  107181 WT7  1750 TIP3 H2   HT     0.417000        1.0080           0
  107182 WT7  1752 TIP3 OH2  OT    -0.834000       15.9994           0
  107183 WT7  1752 TIP3 H1   HT     0.417000        1.0080           0
  107184 WT7  1752 TIP3 H2   HT     0.417000        1.0080           0
  107185 WT7  1755 TIP3 OH2  OT    -0.834000       15.9994           0
  107186 WT7  1755 TIP3 H1   HT     0.417000        1.0080           0
  107187 WT7  1755 TIP3 H2   HT     0.417000        1.0080           0
  107188 WT7  1756 TIP3 OH2  OT    -0.834000       15.9994           0
  107189 WT7  1756 TIP3 H1   HT     0.417000        1.0080           0
  107190 WT7  1756 TIP3 H2   HT     0.417000        1.0080           0
  107191 WT7  1757 TIP3 OH2  OT    -0.834000       15.9994           0
  107192 WT7  1757 TIP3 H1   HT     0.417000        1.0080           0
  107193 WT7  1757 TIP3 H2   HT     0.417000        1.0080           0
  107194 WT7  1764 TIP3 OH2  OT    -0.834000       15.9994           0
  107195 WT7  1764 TIP3 H1   HT     0.417000        1.0080           0
  107196 WT7  1764 TIP3 H2   HT     0.417000        1.0080           0
  107197 WT7  1766 TIP3 OH2  OT    -0.834000       15.9994           0
  107198 WT7  1766 TIP3 H1   HT     0.417000        1.0080           0
  107199 WT7  1766 TIP3 H2   HT     0.417000        1.0080           0
  107200 WT7  1771 TIP3 OH2  OT    -0.834000       15.9994           0
  107201 WT7  1771 TIP3 H1   HT     0.417000        1.0080           0
  107202 WT7  1771 TIP3 H2   HT     0.417000        1.0080           0
  107203 WT7  1772 TIP3 OH2  OT    -0.834000       15.9994           0
  107204 WT7  1772 TIP3 H1   HT     0.417000        1.0080           0
  107205 WT7  1772 TIP3 H2   HT     0.417000        1.0080           0
  107206 WT7  1773 TIP3 OH2  OT    -0.834000       15.9994           0
  107207 WT7  1773 TIP3 H1   HT     0.417000        1.0080           0
  107208 WT7  1773 TIP3 H2   HT     0.417000        1.0080           0
  107209 WT7  1775 TIP3 OH2  OT    -0.834000       15.9994           0
  107210 WT7  1775 TIP3 H1   HT     0.417000        1.0080           0
  107211 WT7  1775 TIP3 H2   HT     0.417000        1.0080           0
  107212 WT7  1776 TIP3 OH2  OT    -0.834000       15.9994           0
  107213 WT7  1776 TIP3 H1   HT     0.417000        1.0080           0
  107214 WT7  1776 TIP3 H2   HT     0.417000        1.0080           0
  107215 WT7  1778 TIP3 OH2  OT    -0.834000       15.9994           0
  107216 WT7  1778 TIP3 H1   HT     0.417000        1.0080           0
  107217 WT7  1778 TIP3 H2   HT     0.417000        1.0080           0
  107218 WT7  1779 TIP3 OH2  OT    -0.834000       15.9994           0
  107219 WT7  1779 TIP3 H1   HT     0.417000        1.0080           0
  107220 WT7  1779 TIP3 H2   HT     0.417000        1.0080           0
  107221 WT7  1782 TIP3 OH2  OT    -0.834000       15.9994           0
  107222 WT7  1782 TIP3 H1   HT     0.417000        1.0080           0
  107223 WT7  1782 TIP3 H2   HT     0.417000        1.0080           0
  107224 WT7  1786 TIP3 OH2  OT    -0.834000       15.9994           0
  107225 WT7  1786 TIP3 H1   HT     0.417000        1.0080           0
  107226 WT7  1786 TIP3 H2   HT     0.417000        1.0080           0
  107227 WT7  1788 TIP3 OH2  OT    -0.834000       15.9994           0
  107228 WT7  1788 TIP3 H1   HT     0.417000        1.0080           0
  107229 WT7  1788 TIP3 H2   HT     0.417000        1.0080           0
  107230 WT7  1789 TIP3 OH2  OT    -0.834000       15.9994           0
  107231 WT7  1789 TIP3 H1   HT     0.417000        1.0080           0
  107232 WT7  1789 TIP3 H2   HT     0.417000        1.0080           0
  107233 WT7  1790 TIP3 OH2  OT    -0.834000       15.9994           0
  107234 WT7  1790 TIP3 H1   HT     0.417000        1.0080           0
  107235 WT7  1790 TIP3 H2   HT     0.417000        1.0080           0
  107236 WT7  1794 TIP3 OH2  OT    -0.834000       15.9994           0
  107237 WT7  1794 TIP3 H1   HT     0.417000        1.0080           0
  107238 WT7  1794 TIP3 H2   HT     0.417000        1.0080           0
  107239 WT7  1795 TIP3 OH2  OT    -0.834000       15.9994           0
  107240 WT7  1795 TIP3 H1   HT     0.417000        1.0080           0
  107241 WT7  1795 TIP3 H2   HT     0.417000        1.0080           0
  107242 WT7  1796 TIP3 OH2  OT    -0.834000       15.9994           0
  107243 WT7  1796 TIP3 H1   HT     0.417000        1.0080           0
  107244 WT7  1796 TIP3 H2   HT     0.417000        1.0080           0
  107245 WT7  1798 TIP3 OH2  OT    -0.834000       15.9994           0
  107246 WT7  1798 TIP3 H1   HT     0.417000        1.0080           0
  107247 WT7  1798 TIP3 H2   HT     0.417000        1.0080           0
  107248 WT7  1800 TIP3 OH2  OT    -0.834000       15.9994           0
  107249 WT7  1800 TIP3 H1   HT     0.417000        1.0080           0
  107250 WT7  1800 TIP3 H2   HT     0.417000        1.0080           0
  107251 WT7  1805 TIP3 OH2  OT    -0.834000       15.9994           0
  107252 WT7  1805 TIP3 H1   HT     0.417000        1.0080           0
  107253 WT7  1805 TIP3 H2   HT     0.417000        1.0080           0
  107254 WT7  1808 TIP3 OH2  OT    -0.834000       15.9994           0
  107255 WT7  1808 TIP3 H1   HT     0.417000        1.0080           0
  107256 WT7  1808 TIP3 H2   HT     0.417000        1.0080           0
  107257 WT7  1810 TIP3 OH2  OT    -0.834000       15.9994           0
  107258 WT7  1810 TIP3 H1   HT     0.417000        1.0080           0
  107259 WT7  1810 TIP3 H2   HT     0.417000        1.0080           0
  107260 WT7  1811 TIP3 OH2  OT    -0.834000       15.9994           0
  107261 WT7  1811 TIP3 H1   HT     0.417000        1.0080           0
  107262 WT7  1811 TIP3 H2   HT     0.417000        1.0080           0
  107263 WT7  1812 TIP3 OH2  OT    -0.834000       15.9994           0
  107264 WT7  1812 TIP3 H1   HT     0.417000        1.0080           0
  107265 WT7  1812 TIP3 H2   HT     0.417000        1.0080           0
  107266 WT7  1813 TIP3 OH2  OT    -0.834000       15.9994           0
  107267 WT7  1813 TIP3 H1   HT     0.417000        1.0080           0
  107268 WT7  1813 TIP3 H2   HT     0.417000        1.0080           0
  107269 WT7  1814 TIP3 OH2  OT    -0.834000       15.9994           0
  107270 WT7  1814 TIP3 H1   HT     0.417000        1.0080           0
  107271 WT7  1814 TIP3 H2   HT     0.417000        1.0080           0
  107272 WT7  1815 TIP3 OH2  OT    -0.834000       15.9994           0
  107273 WT7  1815 TIP3 H1   HT     0.417000        1.0080           0
  107274 WT7  1815 TIP3 H2   HT     0.417000        1.0080           0
  107275 WT7  1816 TIP3 OH2  OT    -0.834000       15.9994           0
  107276 WT7  1816 TIP3 H1   HT     0.417000        1.0080           0
  107277 WT7  1816 TIP3 H2   HT     0.417000        1.0080           0
  107278 WT7  1817 TIP3 OH2  OT    -0.834000       15.9994           0
  107279 WT7  1817 TIP3 H1   HT     0.417000        1.0080           0
  107280 WT7  1817 TIP3 H2   HT     0.417000        1.0080           0
  107281 WT7  1818 TIP3 OH2  OT    -0.834000       15.9994           0
  107282 WT7  1818 TIP3 H1   HT     0.417000        1.0080           0
  107283 WT7  1818 TIP3 H2   HT     0.417000        1.0080           0
  107284 WT7  1819 TIP3 OH2  OT    -0.834000       15.9994           0
  107285 WT7  1819 TIP3 H1   HT     0.417000        1.0080           0
  107286 WT7  1819 TIP3 H2   HT     0.417000        1.0080           0
  107287 WT7  1820 TIP3 OH2  OT    -0.834000       15.9994           0
  107288 WT7  1820 TIP3 H1   HT     0.417000        1.0080           0
  107289 WT7  1820 TIP3 H2   HT     0.417000        1.0080           0
  107290 WT7  1821 TIP3 OH2  OT    -0.834000       15.9994           0
  107291 WT7  1821 TIP3 H1   HT     0.417000        1.0080           0
  107292 WT7  1821 TIP3 H2   HT     0.417000        1.0080           0
  107293 WT7  1824 TIP3 OH2  OT    -0.834000       15.9994           0
  107294 WT7  1824 TIP3 H1   HT     0.417000        1.0080           0
  107295 WT7  1824 TIP3 H2   HT     0.417000        1.0080           0
  107296 WT7  1825 TIP3 OH2  OT    -0.834000       15.9994           0
  107297 WT7  1825 TIP3 H1   HT     0.417000        1.0080           0
  107298 WT7  1825 TIP3 H2   HT     0.417000        1.0080           0
  107299 WT7  1827 TIP3 OH2  OT    -0.834000       15.9994           0
  107300 WT7  1827 TIP3 H1   HT     0.417000        1.0080           0
  107301 WT7  1827 TIP3 H2   HT     0.417000        1.0080           0
  107302 WT7  1829 TIP3 OH2  OT    -0.834000       15.9994           0
  107303 WT7  1829 TIP3 H1   HT     0.417000        1.0080           0
  107304 WT7  1829 TIP3 H2   HT     0.417000        1.0080           0
  107305 WT7  1830 TIP3 OH2  OT    -0.834000       15.9994           0
  107306 WT7  1830 TIP3 H1   HT     0.417000        1.0080           0
  107307 WT7  1830 TIP3 H2   HT     0.417000        1.0080           0
  107308 WT7  1831 TIP3 OH2  OT    -0.834000       15.9994           0
  107309 WT7  1831 TIP3 H1   HT     0.417000        1.0080           0
  107310 WT7  1831 TIP3 H2   HT     0.417000        1.0080           0
  107311 WT7  1832 TIP3 OH2  OT    -0.834000       15.9994           0
  107312 WT7  1832 TIP3 H1   HT     0.417000        1.0080           0
  107313 WT7  1832 TIP3 H2   HT     0.417000        1.0080           0
  107314 WT7  1833 TIP3 OH2  OT    -0.834000       15.9994           0
  107315 WT7  1833 TIP3 H1   HT     0.417000        1.0080           0
  107316 WT7  1833 TIP3 H2   HT     0.417000        1.0080           0
  107317 WT7  1835 TIP3 OH2  OT    -0.834000       15.9994           0
  107318 WT7  1835 TIP3 H1   HT     0.417000        1.0080           0
  107319 WT7  1835 TIP3 H2   HT     0.417000        1.0080           0
  107320 WT7  1836 TIP3 OH2  OT    -0.834000       15.9994           0
  107321 WT7  1836 TIP3 H1   HT     0.417000        1.0080           0
  107322 WT7  1836 TIP3 H2   HT     0.417000        1.0080           0
  107323 WT7  1837 TIP3 OH2  OT    -0.834000       15.9994           0
  107324 WT7  1837 TIP3 H1   HT     0.417000        1.0080           0
  107325 WT7  1837 TIP3 H2   HT     0.417000        1.0080           0
  107326 WT7  1838 TIP3 OH2  OT    -0.834000       15.9994           0
  107327 WT7  1838 TIP3 H1   HT     0.417000        1.0080           0
  107328 WT7  1838 TIP3 H2   HT     0.417000        1.0080           0
  107329 WT7  1839 TIP3 OH2  OT    -0.834000       15.9994           0
  107330 WT7  1839 TIP3 H1   HT     0.417000        1.0080           0
  107331 WT7  1839 TIP3 H2   HT     0.417000        1.0080           0
  107332 WT7  1840 TIP3 OH2  OT    -0.834000       15.9994           0
  107333 WT7  1840 TIP3 H1   HT     0.417000        1.0080           0
  107334 WT7  1840 TIP3 H2   HT     0.417000        1.0080           0
  107335 WT7  1841 TIP3 OH2  OT    -0.834000       15.9994           0
  107336 WT7  1841 TIP3 H1   HT     0.417000        1.0080           0
  107337 WT7  1841 TIP3 H2   HT     0.417000        1.0080           0
  107338 WT7  1842 TIP3 OH2  OT    -0.834000       15.9994           0
  107339 WT7  1842 TIP3 H1   HT     0.417000        1.0080           0
  107340 WT7  1842 TIP3 H2   HT     0.417000        1.0080           0
  107341 WT7  1843 TIP3 OH2  OT    -0.834000       15.9994           0
  107342 WT7  1843 TIP3 H1   HT     0.417000        1.0080           0
  107343 WT7  1843 TIP3 H2   HT     0.417000        1.0080           0
  107344 WT7  1844 TIP3 OH2  OT    -0.834000       15.9994           0
  107345 WT7  1844 TIP3 H1   HT     0.417000        1.0080           0
  107346 WT7  1844 TIP3 H2   HT     0.417000        1.0080           0
  107347 WT7  1846 TIP3 OH2  OT    -0.834000       15.9994           0
  107348 WT7  1846 TIP3 H1   HT     0.417000        1.0080           0
  107349 WT7  1846 TIP3 H2   HT     0.417000        1.0080           0
  107350 WT7  1847 TIP3 OH2  OT    -0.834000       15.9994           0
  107351 WT7  1847 TIP3 H1   HT     0.417000        1.0080           0
  107352 WT7  1847 TIP3 H2   HT     0.417000        1.0080           0
  107353 WT7  1849 TIP3 OH2  OT    -0.834000       15.9994           0
  107354 WT7  1849 TIP3 H1   HT     0.417000        1.0080           0
  107355 WT7  1849 TIP3 H2   HT     0.417000        1.0080           0
  107356 WT7  1850 TIP3 OH2  OT    -0.834000       15.9994           0
  107357 WT7  1850 TIP3 H1   HT     0.417000        1.0080           0
  107358 WT7  1850 TIP3 H2   HT     0.417000        1.0080           0
  107359 WT7  1851 TIP3 OH2  OT    -0.834000       15.9994           0
  107360 WT7  1851 TIP3 H1   HT     0.417000        1.0080           0
  107361 WT7  1851 TIP3 H2   HT     0.417000        1.0080           0
  107362 WT7  1852 TIP3 OH2  OT    -0.834000       15.9994           0
  107363 WT7  1852 TIP3 H1   HT     0.417000        1.0080           0
  107364 WT7  1852 TIP3 H2   HT     0.417000        1.0080           0
  107365 WT7  1853 TIP3 OH2  OT    -0.834000       15.9994           0
  107366 WT7  1853 TIP3 H1   HT     0.417000        1.0080           0
  107367 WT7  1853 TIP3 H2   HT     0.417000        1.0080           0
  107368 WT7  1854 TIP3 OH2  OT    -0.834000       15.9994           0
  107369 WT7  1854 TIP3 H1   HT     0.417000        1.0080           0
  107370 WT7  1854 TIP3 H2   HT     0.417000        1.0080           0
  107371 WT7  1856 TIP3 OH2  OT    -0.834000       15.9994           0
  107372 WT7  1856 TIP3 H1   HT     0.417000        1.0080           0
  107373 WT7  1856 TIP3 H2   HT     0.417000        1.0080           0
  107374 WT7  1857 TIP3 OH2  OT    -0.834000       15.9994           0
  107375 WT7  1857 TIP3 H1   HT     0.417000        1.0080           0
  107376 WT7  1857 TIP3 H2   HT     0.417000        1.0080           0
  107377 WT7  1858 TIP3 OH2  OT    -0.834000       15.9994           0
  107378 WT7  1858 TIP3 H1   HT     0.417000        1.0080           0
  107379 WT7  1858 TIP3 H2   HT     0.417000        1.0080           0
  107380 WT7  1859 TIP3 OH2  OT    -0.834000       15.9994           0
  107381 WT7  1859 TIP3 H1   HT     0.417000        1.0080           0
  107382 WT7  1859 TIP3 H2   HT     0.417000        1.0080           0
  107383 WT7  1860 TIP3 OH2  OT    -0.834000       15.9994           0
  107384 WT7  1860 TIP3 H1   HT     0.417000        1.0080           0
  107385 WT7  1860 TIP3 H2   HT     0.417000        1.0080           0
  107386 WT7  1861 TIP3 OH2  OT    -0.834000       15.9994           0
  107387 WT7  1861 TIP3 H1   HT     0.417000        1.0080           0
  107388 WT7  1861 TIP3 H2   HT     0.417000        1.0080           0
  107389 WT7  1862 TIP3 OH2  OT    -0.834000       15.9994           0
  107390 WT7  1862 TIP3 H1   HT     0.417000        1.0080           0
  107391 WT7  1862 TIP3 H2   HT     0.417000        1.0080           0
  107392 WT7  1863 TIP3 OH2  OT    -0.834000       15.9994           0
  107393 WT7  1863 TIP3 H1   HT     0.417000        1.0080           0
  107394 WT7  1863 TIP3 H2   HT     0.417000        1.0080           0
  107395 WT7  1864 TIP3 OH2  OT    -0.834000       15.9994           0
  107396 WT7  1864 TIP3 H1   HT     0.417000        1.0080           0
  107397 WT7  1864 TIP3 H2   HT     0.417000        1.0080           0
  107398 WT7  1866 TIP3 OH2  OT    -0.834000       15.9994           0
  107399 WT7  1866 TIP3 H1   HT     0.417000        1.0080           0
  107400 WT7  1866 TIP3 H2   HT     0.417000        1.0080           0
  107401 WT7  1869 TIP3 OH2  OT    -0.834000       15.9994           0
  107402 WT7  1869 TIP3 H1   HT     0.417000        1.0080           0
  107403 WT7  1869 TIP3 H2   HT     0.417000        1.0080           0
  107404 WT7  1870 TIP3 OH2  OT    -0.834000       15.9994           0
  107405 WT7  1870 TIP3 H1   HT     0.417000        1.0080           0
  107406 WT7  1870 TIP3 H2   HT     0.417000        1.0080           0
  107407 WT7  1871 TIP3 OH2  OT    -0.834000       15.9994           0
  107408 WT7  1871 TIP3 H1   HT     0.417000        1.0080           0
  107409 WT7  1871 TIP3 H2   HT     0.417000        1.0080           0
  107410 WT7  1872 TIP3 OH2  OT    -0.834000       15.9994           0
  107411 WT7  1872 TIP3 H1   HT     0.417000        1.0080           0
  107412 WT7  1872 TIP3 H2   HT     0.417000        1.0080           0
  107413 WT7  1873 TIP3 OH2  OT    -0.834000       15.9994           0
  107414 WT7  1873 TIP3 H1   HT     0.417000        1.0080           0
  107415 WT7  1873 TIP3 H2   HT     0.417000        1.0080           0
  107416 WT7  1874 TIP3 OH2  OT    -0.834000       15.9994           0
  107417 WT7  1874 TIP3 H1   HT     0.417000        1.0080           0
  107418 WT7  1874 TIP3 H2   HT     0.417000        1.0080           0
  107419 WT7  1875 TIP3 OH2  OT    -0.834000       15.9994           0
  107420 WT7  1875 TIP3 H1   HT     0.417000        1.0080           0
  107421 WT7  1875 TIP3 H2   HT     0.417000        1.0080           0
  107422 WT7  1876 TIP3 OH2  OT    -0.834000       15.9994           0
  107423 WT7  1876 TIP3 H1   HT     0.417000        1.0080           0
  107424 WT7  1876 TIP3 H2   HT     0.417000        1.0080           0
  107425 WT7  1877 TIP3 OH2  OT    -0.834000       15.9994           0
  107426 WT7  1877 TIP3 H1   HT     0.417000        1.0080           0
  107427 WT7  1877 TIP3 H2   HT     0.417000        1.0080           0
  107428 WT7  1878 TIP3 OH2  OT    -0.834000       15.9994           0
  107429 WT7  1878 TIP3 H1   HT     0.417000        1.0080           0
  107430 WT7  1878 TIP3 H2   HT     0.417000        1.0080           0
  107431 WT7  1879 TIP3 OH2  OT    -0.834000       15.9994           0
  107432 WT7  1879 TIP3 H1   HT     0.417000        1.0080           0
  107433 WT7  1879 TIP3 H2   HT     0.417000        1.0080           0
  107434 WT7  1880 TIP3 OH2  OT    -0.834000       15.9994           0
  107435 WT7  1880 TIP3 H1   HT     0.417000        1.0080           0
  107436 WT7  1880 TIP3 H2   HT     0.417000        1.0080           0
  107437 WT7  1881 TIP3 OH2  OT    -0.834000       15.9994           0
  107438 WT7  1881 TIP3 H1   HT     0.417000        1.0080           0
  107439 WT7  1881 TIP3 H2   HT     0.417000        1.0080           0
  107440 WT7  1882 TIP3 OH2  OT    -0.834000       15.9994           0
  107441 WT7  1882 TIP3 H1   HT     0.417000        1.0080           0
  107442 WT7  1882 TIP3 H2   HT     0.417000        1.0080           0
  107443 WT7  1883 TIP3 OH2  OT    -0.834000       15.9994           0
  107444 WT7  1883 TIP3 H1   HT     0.417000        1.0080           0
  107445 WT7  1883 TIP3 H2   HT     0.417000        1.0080           0
  107446 WT7  1885 TIP3 OH2  OT    -0.834000       15.9994           0
  107447 WT7  1885 TIP3 H1   HT     0.417000        1.0080           0
  107448 WT7  1885 TIP3 H2   HT     0.417000        1.0080           0
  107449 WT7  1888 TIP3 OH2  OT    -0.834000       15.9994           0
  107450 WT7  1888 TIP3 H1   HT     0.417000        1.0080           0
  107451 WT7  1888 TIP3 H2   HT     0.417000        1.0080           0
  107452 WT7  1890 TIP3 OH2  OT    -0.834000       15.9994           0
  107453 WT7  1890 TIP3 H1   HT     0.417000        1.0080           0
  107454 WT7  1890 TIP3 H2   HT     0.417000        1.0080           0
  107455 WT7  1891 TIP3 OH2  OT    -0.834000       15.9994           0
  107456 WT7  1891 TIP3 H1   HT     0.417000        1.0080           0
  107457 WT7  1891 TIP3 H2   HT     0.417000        1.0080           0
  107458 WT7  1892 TIP3 OH2  OT    -0.834000       15.9994           0
  107459 WT7  1892 TIP3 H1   HT     0.417000        1.0080           0
  107460 WT7  1892 TIP3 H2   HT     0.417000        1.0080           0
  107461 WT7  1893 TIP3 OH2  OT    -0.834000       15.9994           0
  107462 WT7  1893 TIP3 H1   HT     0.417000        1.0080           0
  107463 WT7  1893 TIP3 H2   HT     0.417000        1.0080           0
  107464 WT7  1894 TIP3 OH2  OT    -0.834000       15.9994           0
  107465 WT7  1894 TIP3 H1   HT     0.417000        1.0080           0
  107466 WT7  1894 TIP3 H2   HT     0.417000        1.0080           0
  107467 WT7  1895 TIP3 OH2  OT    -0.834000       15.9994           0
  107468 WT7  1895 TIP3 H1   HT     0.417000        1.0080           0
  107469 WT7  1895 TIP3 H2   HT     0.417000        1.0080           0
  107470 WT7  1896 TIP3 OH2  OT    -0.834000       15.9994           0
  107471 WT7  1896 TIP3 H1   HT     0.417000        1.0080           0
  107472 WT7  1896 TIP3 H2   HT     0.417000        1.0080           0
  107473 WT7  1897 TIP3 OH2  OT    -0.834000       15.9994           0
  107474 WT7  1897 TIP3 H1   HT     0.417000        1.0080           0
  107475 WT7  1897 TIP3 H2   HT     0.417000        1.0080           0
  107476 WT7  1898 TIP3 OH2  OT    -0.834000       15.9994           0
  107477 WT7  1898 TIP3 H1   HT     0.417000        1.0080           0
  107478 WT7  1898 TIP3 H2   HT     0.417000        1.0080           0
  107479 WT7  1899 TIP3 OH2  OT    -0.834000       15.9994           0
  107480 WT7  1899 TIP3 H1   HT     0.417000        1.0080           0
  107481 WT7  1899 TIP3 H2   HT     0.417000        1.0080           0
  107482 WT7  1900 TIP3 OH2  OT    -0.834000       15.9994           0
  107483 WT7  1900 TIP3 H1   HT     0.417000        1.0080           0
  107484 WT7  1900 TIP3 H2   HT     0.417000        1.0080           0
  107485 WT7  1901 TIP3 OH2  OT    -0.834000       15.9994           0
  107486 WT7  1901 TIP3 H1   HT     0.417000        1.0080           0
  107487 WT7  1901 TIP3 H2   HT     0.417000        1.0080           0
  107488 WT7  1902 TIP3 OH2  OT    -0.834000       15.9994           0
  107489 WT7  1902 TIP3 H1   HT     0.417000        1.0080           0
  107490 WT7  1902 TIP3 H2   HT     0.417000        1.0080           0
  107491 WT7  1903 TIP3 OH2  OT    -0.834000       15.9994           0
  107492 WT7  1903 TIP3 H1   HT     0.417000        1.0080           0
  107493 WT7  1903 TIP3 H2   HT     0.417000        1.0080           0
  107494 WT7  1904 TIP3 OH2  OT    -0.834000       15.9994           0
  107495 WT7  1904 TIP3 H1   HT     0.417000        1.0080           0
  107496 WT7  1904 TIP3 H2   HT     0.417000        1.0080           0
  107497 WT7  1906 TIP3 OH2  OT    -0.834000       15.9994           0
  107498 WT7  1906 TIP3 H1   HT     0.417000        1.0080           0
  107499 WT7  1906 TIP3 H2   HT     0.417000        1.0080           0
  107500 WT7  1907 TIP3 OH2  OT    -0.834000       15.9994           0
  107501 WT7  1907 TIP3 H1   HT     0.417000        1.0080           0
  107502 WT7  1907 TIP3 H2   HT     0.417000        1.0080           0
  107503 WT7  1909 TIP3 OH2  OT    -0.834000       15.9994           0
  107504 WT7  1909 TIP3 H1   HT     0.417000        1.0080           0
  107505 WT7  1909 TIP3 H2   HT     0.417000        1.0080           0
  107506 WT7  1911 TIP3 OH2  OT    -0.834000       15.9994           0
  107507 WT7  1911 TIP3 H1   HT     0.417000        1.0080           0
  107508 WT7  1911 TIP3 H2   HT     0.417000        1.0080           0
  107509 WT7  1912 TIP3 OH2  OT    -0.834000       15.9994           0
  107510 WT7  1912 TIP3 H1   HT     0.417000        1.0080           0
  107511 WT7  1912 TIP3 H2   HT     0.417000        1.0080           0
  107512 WT7  1913 TIP3 OH2  OT    -0.834000       15.9994           0
  107513 WT7  1913 TIP3 H1   HT     0.417000        1.0080           0
  107514 WT7  1913 TIP3 H2   HT     0.417000        1.0080           0
  107515 WT7  1914 TIP3 OH2  OT    -0.834000       15.9994           0
  107516 WT7  1914 TIP3 H1   HT     0.417000        1.0080           0
  107517 WT7  1914 TIP3 H2   HT     0.417000        1.0080           0
  107518 WT7  1915 TIP3 OH2  OT    -0.834000       15.9994           0
  107519 WT7  1915 TIP3 H1   HT     0.417000        1.0080           0
  107520 WT7  1915 TIP3 H2   HT     0.417000        1.0080           0
  107521 WT7  1916 TIP3 OH2  OT    -0.834000       15.9994           0
  107522 WT7  1916 TIP3 H1   HT     0.417000        1.0080           0
  107523 WT7  1916 TIP3 H2   HT     0.417000        1.0080           0
  107524 WT7  1918 TIP3 OH2  OT    -0.834000       15.9994           0
  107525 WT7  1918 TIP3 H1   HT     0.417000        1.0080           0
  107526 WT7  1918 TIP3 H2   HT     0.417000        1.0080           0
  107527 WT7  1919 TIP3 OH2  OT    -0.834000       15.9994           0
  107528 WT7  1919 TIP3 H1   HT     0.417000        1.0080           0
  107529 WT7  1919 TIP3 H2   HT     0.417000        1.0080           0
  107530 WT7  1920 TIP3 OH2  OT    -0.834000       15.9994           0
  107531 WT7  1920 TIP3 H1   HT     0.417000        1.0080           0
  107532 WT7  1920 TIP3 H2   HT     0.417000        1.0080           0
  107533 WT7  1921 TIP3 OH2  OT    -0.834000       15.9994           0
  107534 WT7  1921 TIP3 H1   HT     0.417000        1.0080           0
  107535 WT7  1921 TIP3 H2   HT     0.417000        1.0080           0
  107536 WT7  1922 TIP3 OH2  OT    -0.834000       15.9994           0
  107537 WT7  1922 TIP3 H1   HT     0.417000        1.0080           0
  107538 WT7  1922 TIP3 H2   HT     0.417000        1.0080           0
  107539 WT7  1923 TIP3 OH2  OT    -0.834000       15.9994           0
  107540 WT7  1923 TIP3 H1   HT     0.417000        1.0080           0
  107541 WT7  1923 TIP3 H2   HT     0.417000        1.0080           0
  107542 WT7  1924 TIP3 OH2  OT    -0.834000       15.9994           0
  107543 WT7  1924 TIP3 H1   HT     0.417000        1.0080           0
  107544 WT7  1924 TIP3 H2   HT     0.417000        1.0080           0
  107545 WT7  1925 TIP3 OH2  OT    -0.834000       15.9994           0
  107546 WT7  1925 TIP3 H1   HT     0.417000        1.0080           0
  107547 WT7  1925 TIP3 H2   HT     0.417000        1.0080           0
  107548 WT7  1926 TIP3 OH2  OT    -0.834000       15.9994           0
  107549 WT7  1926 TIP3 H1   HT     0.417000        1.0080           0
  107550 WT7  1926 TIP3 H2   HT     0.417000        1.0080           0
  107551 WT7  1930 TIP3 OH2  OT    -0.834000       15.9994           0
  107552 WT7  1930 TIP3 H1   HT     0.417000        1.0080           0
  107553 WT7  1930 TIP3 H2   HT     0.417000        1.0080           0
  107554 WT7  1932 TIP3 OH2  OT    -0.834000       15.9994           0
  107555 WT7  1932 TIP3 H1   HT     0.417000        1.0080           0
  107556 WT7  1932 TIP3 H2   HT     0.417000        1.0080           0
  107557 WT7  1934 TIP3 OH2  OT    -0.834000       15.9994           0
  107558 WT7  1934 TIP3 H1   HT     0.417000        1.0080           0
  107559 WT7  1934 TIP3 H2   HT     0.417000        1.0080           0
  107560 WT7  1935 TIP3 OH2  OT    -0.834000       15.9994           0
  107561 WT7  1935 TIP3 H1   HT     0.417000        1.0080           0
  107562 WT7  1935 TIP3 H2   HT     0.417000        1.0080           0
  107563 WT7  1936 TIP3 OH2  OT    -0.834000       15.9994           0
  107564 WT7  1936 TIP3 H1   HT     0.417000        1.0080           0
  107565 WT7  1936 TIP3 H2   HT     0.417000        1.0080           0
  107566 WT7  1937 TIP3 OH2  OT    -0.834000       15.9994           0
  107567 WT7  1937 TIP3 H1   HT     0.417000        1.0080           0
  107568 WT7  1937 TIP3 H2   HT     0.417000        1.0080           0
  107569 WT7  1938 TIP3 OH2  OT    -0.834000       15.9994           0
  107570 WT7  1938 TIP3 H1   HT     0.417000        1.0080           0
  107571 WT7  1938 TIP3 H2   HT     0.417000        1.0080           0
  107572 WT7  1939 TIP3 OH2  OT    -0.834000       15.9994           0
  107573 WT7  1939 TIP3 H1   HT     0.417000        1.0080           0
  107574 WT7  1939 TIP3 H2   HT     0.417000        1.0080           0
  107575 WT7  1940 TIP3 OH2  OT    -0.834000       15.9994           0
  107576 WT7  1940 TIP3 H1   HT     0.417000        1.0080           0
  107577 WT7  1940 TIP3 H2   HT     0.417000        1.0080           0
  107578 WT7  1941 TIP3 OH2  OT    -0.834000       15.9994           0
  107579 WT7  1941 TIP3 H1   HT     0.417000        1.0080           0
  107580 WT7  1941 TIP3 H2   HT     0.417000        1.0080           0
  107581 WT7  1942 TIP3 OH2  OT    -0.834000       15.9994           0
  107582 WT7  1942 TIP3 H1   HT     0.417000        1.0080           0
  107583 WT7  1942 TIP3 H2   HT     0.417000        1.0080           0
  107584 WT7  1943 TIP3 OH2  OT    -0.834000       15.9994           0
  107585 WT7  1943 TIP3 H1   HT     0.417000        1.0080           0
  107586 WT7  1943 TIP3 H2   HT     0.417000        1.0080           0
  107587 WT7  1944 TIP3 OH2  OT    -0.834000       15.9994           0
  107588 WT7  1944 TIP3 H1   HT     0.417000        1.0080           0
  107589 WT7  1944 TIP3 H2   HT     0.417000        1.0080           0
  107590 WT7  1946 TIP3 OH2  OT    -0.834000       15.9994           0
  107591 WT7  1946 TIP3 H1   HT     0.417000        1.0080           0
  107592 WT7  1946 TIP3 H2   HT     0.417000        1.0080           0
  107593 WT7  1947 TIP3 OH2  OT    -0.834000       15.9994           0
  107594 WT7  1947 TIP3 H1   HT     0.417000        1.0080           0
  107595 WT7  1947 TIP3 H2   HT     0.417000        1.0080           0
  107596 WT7  1948 TIP3 OH2  OT    -0.834000       15.9994           0
  107597 WT7  1948 TIP3 H1   HT     0.417000        1.0080           0
  107598 WT7  1948 TIP3 H2   HT     0.417000        1.0080           0
  107599 WT7  1949 TIP3 OH2  OT    -0.834000       15.9994           0
  107600 WT7  1949 TIP3 H1   HT     0.417000        1.0080           0
  107601 WT7  1949 TIP3 H2   HT     0.417000        1.0080           0
  107602 WT7  1950 TIP3 OH2  OT    -0.834000       15.9994           0
  107603 WT7  1950 TIP3 H1   HT     0.417000        1.0080           0
  107604 WT7  1950 TIP3 H2   HT     0.417000        1.0080           0
  107605 WT7  1952 TIP3 OH2  OT    -0.834000       15.9994           0
  107606 WT7  1952 TIP3 H1   HT     0.417000        1.0080           0
  107607 WT7  1952 TIP3 H2   HT     0.417000        1.0080           0
  107608 WT7  1953 TIP3 OH2  OT    -0.834000       15.9994           0
  107609 WT7  1953 TIP3 H1   HT     0.417000        1.0080           0
  107610 WT7  1953 TIP3 H2   HT     0.417000        1.0080           0
  107611 WT7  1954 TIP3 OH2  OT    -0.834000       15.9994           0
  107612 WT7  1954 TIP3 H1   HT     0.417000        1.0080           0
  107613 WT7  1954 TIP3 H2   HT     0.417000        1.0080           0
  107614 WT7  1955 TIP3 OH2  OT    -0.834000       15.9994           0
  107615 WT7  1955 TIP3 H1   HT     0.417000        1.0080           0
  107616 WT7  1955 TIP3 H2   HT     0.417000        1.0080           0
  107617 WT7  1956 TIP3 OH2  OT    -0.834000       15.9994           0
  107618 WT7  1956 TIP3 H1   HT     0.417000        1.0080           0
  107619 WT7  1956 TIP3 H2   HT     0.417000        1.0080           0
  107620 WT7  1957 TIP3 OH2  OT    -0.834000       15.9994           0
  107621 WT7  1957 TIP3 H1   HT     0.417000        1.0080           0
  107622 WT7  1957 TIP3 H2   HT     0.417000        1.0080           0
  107623 WT7  1958 TIP3 OH2  OT    -0.834000       15.9994           0
  107624 WT7  1958 TIP3 H1   HT     0.417000        1.0080           0
  107625 WT7  1958 TIP3 H2   HT     0.417000        1.0080           0
  107626 WT7  1960 TIP3 OH2  OT    -0.834000       15.9994           0
  107627 WT7  1960 TIP3 H1   HT     0.417000        1.0080           0
  107628 WT7  1960 TIP3 H2   HT     0.417000        1.0080           0
  107629 WT7  1961 TIP3 OH2  OT    -0.834000       15.9994           0
  107630 WT7  1961 TIP3 H1   HT     0.417000        1.0080           0
  107631 WT7  1961 TIP3 H2   HT     0.417000        1.0080           0
  107632 WT7  1962 TIP3 OH2  OT    -0.834000       15.9994           0
  107633 WT7  1962 TIP3 H1   HT     0.417000        1.0080           0
  107634 WT7  1962 TIP3 H2   HT     0.417000        1.0080           0
  107635 WT7  1963 TIP3 OH2  OT    -0.834000       15.9994           0
  107636 WT7  1963 TIP3 H1   HT     0.417000        1.0080           0
  107637 WT7  1963 TIP3 H2   HT     0.417000        1.0080           0
  107638 WT7  1964 TIP3 OH2  OT    -0.834000       15.9994           0
  107639 WT7  1964 TIP3 H1   HT     0.417000        1.0080           0
  107640 WT7  1964 TIP3 H2   HT     0.417000        1.0080           0
  107641 WT7  1965 TIP3 OH2  OT    -0.834000       15.9994           0
  107642 WT7  1965 TIP3 H1   HT     0.417000        1.0080           0
  107643 WT7  1965 TIP3 H2   HT     0.417000        1.0080           0
  107644 WT7  1966 TIP3 OH2  OT    -0.834000       15.9994           0
  107645 WT7  1966 TIP3 H1   HT     0.417000        1.0080           0
  107646 WT7  1966 TIP3 H2   HT     0.417000        1.0080           0
  107647 WT7  1967 TIP3 OH2  OT    -0.834000       15.9994           0
  107648 WT7  1967 TIP3 H1   HT     0.417000        1.0080           0
  107649 WT7  1967 TIP3 H2   HT     0.417000        1.0080           0
  107650 WT7  1968 TIP3 OH2  OT    -0.834000       15.9994           0
  107651 WT7  1968 TIP3 H1   HT     0.417000        1.0080           0
  107652 WT7  1968 TIP3 H2   HT     0.417000        1.0080           0
  107653 WT7  1969 TIP3 OH2  OT    -0.834000       15.9994           0
  107654 WT7  1969 TIP3 H1   HT     0.417000        1.0080           0
  107655 WT7  1969 TIP3 H2   HT     0.417000        1.0080           0
  107656 WT7  1970 TIP3 OH2  OT    -0.834000       15.9994           0
  107657 WT7  1970 TIP3 H1   HT     0.417000        1.0080           0
  107658 WT7  1970 TIP3 H2   HT     0.417000        1.0080           0
  107659 WT7  1972 TIP3 OH2  OT    -0.834000       15.9994           0
  107660 WT7  1972 TIP3 H1   HT     0.417000        1.0080           0
  107661 WT7  1972 TIP3 H2   HT     0.417000        1.0080           0
  107662 WT7  1973 TIP3 OH2  OT    -0.834000       15.9994           0
  107663 WT7  1973 TIP3 H1   HT     0.417000        1.0080           0
  107664 WT7  1973 TIP3 H2   HT     0.417000        1.0080           0
  107665 WT7  1975 TIP3 OH2  OT    -0.834000       15.9994           0
  107666 WT7  1975 TIP3 H1   HT     0.417000        1.0080           0
  107667 WT7  1975 TIP3 H2   HT     0.417000        1.0080           0
  107668 WT7  1976 TIP3 OH2  OT    -0.834000       15.9994           0
  107669 WT7  1976 TIP3 H1   HT     0.417000        1.0080           0
  107670 WT7  1976 TIP3 H2   HT     0.417000        1.0080           0
  107671 WT7  1977 TIP3 OH2  OT    -0.834000       15.9994           0
  107672 WT7  1977 TIP3 H1   HT     0.417000        1.0080           0
  107673 WT7  1977 TIP3 H2   HT     0.417000        1.0080           0
  107674 WT7  1979 TIP3 OH2  OT    -0.834000       15.9994           0
  107675 WT7  1979 TIP3 H1   HT     0.417000        1.0080           0
  107676 WT7  1979 TIP3 H2   HT     0.417000        1.0080           0
  107677 WT7  1980 TIP3 OH2  OT    -0.834000       15.9994           0
  107678 WT7  1980 TIP3 H1   HT     0.417000        1.0080           0
  107679 WT7  1980 TIP3 H2   HT     0.417000        1.0080           0
  107680 WT7  1982 TIP3 OH2  OT    -0.834000       15.9994           0
  107681 WT7  1982 TIP3 H1   HT     0.417000        1.0080           0
  107682 WT7  1982 TIP3 H2   HT     0.417000        1.0080           0
  107683 WT7  1984 TIP3 OH2  OT    -0.834000       15.9994           0
  107684 WT7  1984 TIP3 H1   HT     0.417000        1.0080           0
  107685 WT7  1984 TIP3 H2   HT     0.417000        1.0080           0
  107686 WT7  1985 TIP3 OH2  OT    -0.834000       15.9994           0
  107687 WT7  1985 TIP3 H1   HT     0.417000        1.0080           0
  107688 WT7  1985 TIP3 H2   HT     0.417000        1.0080           0
  107689 WT7  1986 TIP3 OH2  OT    -0.834000       15.9994           0
  107690 WT7  1986 TIP3 H1   HT     0.417000        1.0080           0
  107691 WT7  1986 TIP3 H2   HT     0.417000        1.0080           0
  107692 WT7  1987 TIP3 OH2  OT    -0.834000       15.9994           0
  107693 WT7  1987 TIP3 H1   HT     0.417000        1.0080           0
  107694 WT7  1987 TIP3 H2   HT     0.417000        1.0080           0
  107695 WT7  1988 TIP3 OH2  OT    -0.834000       15.9994           0
  107696 WT7  1988 TIP3 H1   HT     0.417000        1.0080           0
  107697 WT7  1988 TIP3 H2   HT     0.417000        1.0080           0
  107698 WT7  1989 TIP3 OH2  OT    -0.834000       15.9994           0
  107699 WT7  1989 TIP3 H1   HT     0.417000        1.0080           0
  107700 WT7  1989 TIP3 H2   HT     0.417000        1.0080           0
  107701 WT7  1991 TIP3 OH2  OT    -0.834000       15.9994           0
  107702 WT7  1991 TIP3 H1   HT     0.417000        1.0080           0
  107703 WT7  1991 TIP3 H2   HT     0.417000        1.0080           0
  107704 WT7  1993 TIP3 OH2  OT    -0.834000       15.9994           0
  107705 WT7  1993 TIP3 H1   HT     0.417000        1.0080           0
  107706 WT7  1993 TIP3 H2   HT     0.417000        1.0080           0
  107707 WT7  1994 TIP3 OH2  OT    -0.834000       15.9994           0
  107708 WT7  1994 TIP3 H1   HT     0.417000        1.0080           0
  107709 WT7  1994 TIP3 H2   HT     0.417000        1.0080           0
  107710 WT7  1996 TIP3 OH2  OT    -0.834000       15.9994           0
  107711 WT7  1996 TIP3 H1   HT     0.417000        1.0080           0
  107712 WT7  1996 TIP3 H2   HT     0.417000        1.0080           0
  107713 WT7  1997 TIP3 OH2  OT    -0.834000       15.9994           0
  107714 WT7  1997 TIP3 H1   HT     0.417000        1.0080           0
  107715 WT7  1997 TIP3 H2   HT     0.417000        1.0080           0
  107716 WT7  1998 TIP3 OH2  OT    -0.834000       15.9994           0
  107717 WT7  1998 TIP3 H1   HT     0.417000        1.0080           0
  107718 WT7  1998 TIP3 H2   HT     0.417000        1.0080           0
  107719 WT7  1999 TIP3 OH2  OT    -0.834000       15.9994           0
  107720 WT7  1999 TIP3 H1   HT     0.417000        1.0080           0
  107721 WT7  1999 TIP3 H2   HT     0.417000        1.0080           0
  107722 WT7  2000 TIP3 OH2  OT    -0.834000       15.9994           0
  107723 WT7  2000 TIP3 H1   HT     0.417000        1.0080           0
  107724 WT7  2000 TIP3 H2   HT     0.417000        1.0080           0
  107725 WT7  2002 TIP3 OH2  OT    -0.834000       15.9994           0
  107726 WT7  2002 TIP3 H1   HT     0.417000        1.0080           0
  107727 WT7  2002 TIP3 H2   HT     0.417000        1.0080           0
  107728 WT7  2003 TIP3 OH2  OT    -0.834000       15.9994           0
  107729 WT7  2003 TIP3 H1   HT     0.417000        1.0080           0
  107730 WT7  2003 TIP3 H2   HT     0.417000        1.0080           0
  107731 WT7  2004 TIP3 OH2  OT    -0.834000       15.9994           0
  107732 WT7  2004 TIP3 H1   HT     0.417000        1.0080           0
  107733 WT7  2004 TIP3 H2   HT     0.417000        1.0080           0
  107734 WT7  2005 TIP3 OH2  OT    -0.834000       15.9994           0
  107735 WT7  2005 TIP3 H1   HT     0.417000        1.0080           0
  107736 WT7  2005 TIP3 H2   HT     0.417000        1.0080           0
  107737 WT7  2007 TIP3 OH2  OT    -0.834000       15.9994           0
  107738 WT7  2007 TIP3 H1   HT     0.417000        1.0080           0
  107739 WT7  2007 TIP3 H2   HT     0.417000        1.0080           0
  107740 WT7  2008 TIP3 OH2  OT    -0.834000       15.9994           0
  107741 WT7  2008 TIP3 H1   HT     0.417000        1.0080           0
  107742 WT7  2008 TIP3 H2   HT     0.417000        1.0080           0
  107743 WT7  2009 TIP3 OH2  OT    -0.834000       15.9994           0
  107744 WT7  2009 TIP3 H1   HT     0.417000        1.0080           0
  107745 WT7  2009 TIP3 H2   HT     0.417000        1.0080           0
  107746 WT7  2012 TIP3 OH2  OT    -0.834000       15.9994           0
  107747 WT7  2012 TIP3 H1   HT     0.417000        1.0080           0
  107748 WT7  2012 TIP3 H2   HT     0.417000        1.0080           0
  107749 WT7  2013 TIP3 OH2  OT    -0.834000       15.9994           0
  107750 WT7  2013 TIP3 H1   HT     0.417000        1.0080           0
  107751 WT7  2013 TIP3 H2   HT     0.417000        1.0080           0
  107752 WT7  2014 TIP3 OH2  OT    -0.834000       15.9994           0
  107753 WT7  2014 TIP3 H1   HT     0.417000        1.0080           0
  107754 WT7  2014 TIP3 H2   HT     0.417000        1.0080           0
  107755 WT7  2015 TIP3 OH2  OT    -0.834000       15.9994           0
  107756 WT7  2015 TIP3 H1   HT     0.417000        1.0080           0
  107757 WT7  2015 TIP3 H2   HT     0.417000        1.0080           0
  107758 WT7  2016 TIP3 OH2  OT    -0.834000       15.9994           0
  107759 WT7  2016 TIP3 H1   HT     0.417000        1.0080           0
  107760 WT7  2016 TIP3 H2   HT     0.417000        1.0080           0
  107761 WT7  2018 TIP3 OH2  OT    -0.834000       15.9994           0
  107762 WT7  2018 TIP3 H1   HT     0.417000        1.0080           0
  107763 WT7  2018 TIP3 H2   HT     0.417000        1.0080           0
  107764 WT7  2019 TIP3 OH2  OT    -0.834000       15.9994           0
  107765 WT7  2019 TIP3 H1   HT     0.417000        1.0080           0
  107766 WT7  2019 TIP3 H2   HT     0.417000        1.0080           0
  107767 WT7  2020 TIP3 OH2  OT    -0.834000       15.9994           0
  107768 WT7  2020 TIP3 H1   HT     0.417000        1.0080           0
  107769 WT7  2020 TIP3 H2   HT     0.417000        1.0080           0
  107770 WT7  2021 TIP3 OH2  OT    -0.834000       15.9994           0
  107771 WT7  2021 TIP3 H1   HT     0.417000        1.0080           0
  107772 WT7  2021 TIP3 H2   HT     0.417000        1.0080           0
  107773 WT7  2022 TIP3 OH2  OT    -0.834000       15.9994           0
  107774 WT7  2022 TIP3 H1   HT     0.417000        1.0080           0
  107775 WT7  2022 TIP3 H2   HT     0.417000        1.0080           0
  107776 WT7  2025 TIP3 OH2  OT    -0.834000       15.9994           0
  107777 WT7  2025 TIP3 H1   HT     0.417000        1.0080           0
  107778 WT7  2025 TIP3 H2   HT     0.417000        1.0080           0
  107779 WT7  2026 TIP3 OH2  OT    -0.834000       15.9994           0
  107780 WT7  2026 TIP3 H1   HT     0.417000        1.0080           0
  107781 WT7  2026 TIP3 H2   HT     0.417000        1.0080           0
  107782 WT7  2027 TIP3 OH2  OT    -0.834000       15.9994           0
  107783 WT7  2027 TIP3 H1   HT     0.417000        1.0080           0
  107784 WT7  2027 TIP3 H2   HT     0.417000        1.0080           0
  107785 WT7  2028 TIP3 OH2  OT    -0.834000       15.9994           0
  107786 WT7  2028 TIP3 H1   HT     0.417000        1.0080           0
  107787 WT7  2028 TIP3 H2   HT     0.417000        1.0080           0
  107788 WT7  2029 TIP3 OH2  OT    -0.834000       15.9994           0
  107789 WT7  2029 TIP3 H1   HT     0.417000        1.0080           0
  107790 WT7  2029 TIP3 H2   HT     0.417000        1.0080           0
  107791 WT7  2031 TIP3 OH2  OT    -0.834000       15.9994           0
  107792 WT7  2031 TIP3 H1   HT     0.417000        1.0080           0
  107793 WT7  2031 TIP3 H2   HT     0.417000        1.0080           0
  107794 WT7  2033 TIP3 OH2  OT    -0.834000       15.9994           0
  107795 WT7  2033 TIP3 H1   HT     0.417000        1.0080           0
  107796 WT7  2033 TIP3 H2   HT     0.417000        1.0080           0
  107797 WT7  2037 TIP3 OH2  OT    -0.834000       15.9994           0
  107798 WT7  2037 TIP3 H1   HT     0.417000        1.0080           0
  107799 WT7  2037 TIP3 H2   HT     0.417000        1.0080           0
  107800 WT7  2038 TIP3 OH2  OT    -0.834000       15.9994           0
  107801 WT7  2038 TIP3 H1   HT     0.417000        1.0080           0
  107802 WT7  2038 TIP3 H2   HT     0.417000        1.0080           0
  107803 WT7  2039 TIP3 OH2  OT    -0.834000       15.9994           0
  107804 WT7  2039 TIP3 H1   HT     0.417000        1.0080           0
  107805 WT7  2039 TIP3 H2   HT     0.417000        1.0080           0
  107806 WT7  2040 TIP3 OH2  OT    -0.834000       15.9994           0
  107807 WT7  2040 TIP3 H1   HT     0.417000        1.0080           0
  107808 WT7  2040 TIP3 H2   HT     0.417000        1.0080           0
  107809 WT7  2042 TIP3 OH2  OT    -0.834000       15.9994           0
  107810 WT7  2042 TIP3 H1   HT     0.417000        1.0080           0
  107811 WT7  2042 TIP3 H2   HT     0.417000        1.0080           0
  107812 WT7  2043 TIP3 OH2  OT    -0.834000       15.9994           0
  107813 WT7  2043 TIP3 H1   HT     0.417000        1.0080           0
  107814 WT7  2043 TIP3 H2   HT     0.417000        1.0080           0
  107815 WT7  2044 TIP3 OH2  OT    -0.834000       15.9994           0
  107816 WT7  2044 TIP3 H1   HT     0.417000        1.0080           0
  107817 WT7  2044 TIP3 H2   HT     0.417000        1.0080           0
  107818 WT7  2045 TIP3 OH2  OT    -0.834000       15.9994           0
  107819 WT7  2045 TIP3 H1   HT     0.417000        1.0080           0
  107820 WT7  2045 TIP3 H2   HT     0.417000        1.0080           0
  107821 WT7  2049 TIP3 OH2  OT    -0.834000       15.9994           0
  107822 WT7  2049 TIP3 H1   HT     0.417000        1.0080           0
  107823 WT7  2049 TIP3 H2   HT     0.417000        1.0080           0
  107824 WT7  2050 TIP3 OH2  OT    -0.834000       15.9994           0
  107825 WT7  2050 TIP3 H1   HT     0.417000        1.0080           0
  107826 WT7  2050 TIP3 H2   HT     0.417000        1.0080           0
  107827 WT7  2052 TIP3 OH2  OT    -0.834000       15.9994           0
  107828 WT7  2052 TIP3 H1   HT     0.417000        1.0080           0
  107829 WT7  2052 TIP3 H2   HT     0.417000        1.0080           0
  107830 WT7  2053 TIP3 OH2  OT    -0.834000       15.9994           0
  107831 WT7  2053 TIP3 H1   HT     0.417000        1.0080           0
  107832 WT7  2053 TIP3 H2   HT     0.417000        1.0080           0
  107833 WT7  2054 TIP3 OH2  OT    -0.834000       15.9994           0
  107834 WT7  2054 TIP3 H1   HT     0.417000        1.0080           0
  107835 WT7  2054 TIP3 H2   HT     0.417000        1.0080           0
  107836 WT7  2056 TIP3 OH2  OT    -0.834000       15.9994           0
  107837 WT7  2056 TIP3 H1   HT     0.417000        1.0080           0
  107838 WT7  2056 TIP3 H2   HT     0.417000        1.0080           0
  107839 WT7  2057 TIP3 OH2  OT    -0.834000       15.9994           0
  107840 WT7  2057 TIP3 H1   HT     0.417000        1.0080           0
  107841 WT7  2057 TIP3 H2   HT     0.417000        1.0080           0
  107842 WT7  2060 TIP3 OH2  OT    -0.834000       15.9994           0
  107843 WT7  2060 TIP3 H1   HT     0.417000        1.0080           0
  107844 WT7  2060 TIP3 H2   HT     0.417000        1.0080           0
  107845 WT7  2061 TIP3 OH2  OT    -0.834000       15.9994           0
  107846 WT7  2061 TIP3 H1   HT     0.417000        1.0080           0
  107847 WT7  2061 TIP3 H2   HT     0.417000        1.0080           0
  107848 WT7  2070 TIP3 OH2  OT    -0.834000       15.9994           0
  107849 WT7  2070 TIP3 H1   HT     0.417000        1.0080           0
  107850 WT7  2070 TIP3 H2   HT     0.417000        1.0080           0
  107851 WT7  2073 TIP3 OH2  OT    -0.834000       15.9994           0
  107852 WT7  2073 TIP3 H1   HT     0.417000        1.0080           0
  107853 WT7  2073 TIP3 H2   HT     0.417000        1.0080           0
  107854 WT7  2075 TIP3 OH2  OT    -0.834000       15.9994           0
  107855 WT7  2075 TIP3 H1   HT     0.417000        1.0080           0
  107856 WT7  2075 TIP3 H2   HT     0.417000        1.0080           0
  107857 WT7  2079 TIP3 OH2  OT    -0.834000       15.9994           0
  107858 WT7  2079 TIP3 H1   HT     0.417000        1.0080           0
  107859 WT7  2079 TIP3 H2   HT     0.417000        1.0080           0
  107860 WT7  2082 TIP3 OH2  OT    -0.834000       15.9994           0
  107861 WT7  2082 TIP3 H1   HT     0.417000        1.0080           0
  107862 WT7  2082 TIP3 H2   HT     0.417000        1.0080           0
  107863 WT7  2083 TIP3 OH2  OT    -0.834000       15.9994           0
  107864 WT7  2083 TIP3 H1   HT     0.417000        1.0080           0
  107865 WT7  2083 TIP3 H2   HT     0.417000        1.0080           0
  107866 WT7  2084 TIP3 OH2  OT    -0.834000       15.9994           0
  107867 WT7  2084 TIP3 H1   HT     0.417000        1.0080           0
  107868 WT7  2084 TIP3 H2   HT     0.417000        1.0080           0
  107869 WT7  2085 TIP3 OH2  OT    -0.834000       15.9994           0
  107870 WT7  2085 TIP3 H1   HT     0.417000        1.0080           0
  107871 WT7  2085 TIP3 H2   HT     0.417000        1.0080           0
  107872 WT7  2086 TIP3 OH2  OT    -0.834000       15.9994           0
  107873 WT7  2086 TIP3 H1   HT     0.417000        1.0080           0
  107874 WT7  2086 TIP3 H2   HT     0.417000        1.0080           0
  107875 WT7  2089 TIP3 OH2  OT    -0.834000       15.9994           0
  107876 WT7  2089 TIP3 H1   HT     0.417000        1.0080           0
  107877 WT7  2089 TIP3 H2   HT     0.417000        1.0080           0
  107878 WT7  2096 TIP3 OH2  OT    -0.834000       15.9994           0
  107879 WT7  2096 TIP3 H1   HT     0.417000        1.0080           0
  107880 WT7  2096 TIP3 H2   HT     0.417000        1.0080           0
  107881 WT7  2098 TIP3 OH2  OT    -0.834000       15.9994           0
  107882 WT7  2098 TIP3 H1   HT     0.417000        1.0080           0
  107883 WT7  2098 TIP3 H2   HT     0.417000        1.0080           0
  107884 WT7  2103 TIP3 OH2  OT    -0.834000       15.9994           0
  107885 WT7  2103 TIP3 H1   HT     0.417000        1.0080           0
  107886 WT7  2103 TIP3 H2   HT     0.417000        1.0080           0
  107887 WT7  2105 TIP3 OH2  OT    -0.834000       15.9994           0
  107888 WT7  2105 TIP3 H1   HT     0.417000        1.0080           0
  107889 WT7  2105 TIP3 H2   HT     0.417000        1.0080           0
  107890 WT7  2106 TIP3 OH2  OT    -0.834000       15.9994           0
  107891 WT7  2106 TIP3 H1   HT     0.417000        1.0080           0
  107892 WT7  2106 TIP3 H2   HT     0.417000        1.0080           0
  107893 WT7  2107 TIP3 OH2  OT    -0.834000       15.9994           0
  107894 WT7  2107 TIP3 H1   HT     0.417000        1.0080           0
  107895 WT7  2107 TIP3 H2   HT     0.417000        1.0080           0
  107896 WT7  2114 TIP3 OH2  OT    -0.834000       15.9994           0
  107897 WT7  2114 TIP3 H1   HT     0.417000        1.0080           0
  107898 WT7  2114 TIP3 H2   HT     0.417000        1.0080           0
  107899 WT7  2115 TIP3 OH2  OT    -0.834000       15.9994           0
  107900 WT7  2115 TIP3 H1   HT     0.417000        1.0080           0
  107901 WT7  2115 TIP3 H2   HT     0.417000        1.0080           0
  107902 WT7  2116 TIP3 OH2  OT    -0.834000       15.9994           0
  107903 WT7  2116 TIP3 H1   HT     0.417000        1.0080           0
  107904 WT7  2116 TIP3 H2   HT     0.417000        1.0080           0
  107905 WT7  2118 TIP3 OH2  OT    -0.834000       15.9994           0
  107906 WT7  2118 TIP3 H1   HT     0.417000        1.0080           0
  107907 WT7  2118 TIP3 H2   HT     0.417000        1.0080           0
  107908 WT7  2123 TIP3 OH2  OT    -0.834000       15.9994           0
  107909 WT7  2123 TIP3 H1   HT     0.417000        1.0080           0
  107910 WT7  2123 TIP3 H2   HT     0.417000        1.0080           0
  107911 WT7  2127 TIP3 OH2  OT    -0.834000       15.9994           0
  107912 WT7  2127 TIP3 H1   HT     0.417000        1.0080           0
  107913 WT7  2127 TIP3 H2   HT     0.417000        1.0080           0
  107914 WT7  2133 TIP3 OH2  OT    -0.834000       15.9994           0
  107915 WT7  2133 TIP3 H1   HT     0.417000        1.0080           0
  107916 WT7  2133 TIP3 H2   HT     0.417000        1.0080           0
  107917 WT7  2134 TIP3 OH2  OT    -0.834000       15.9994           0
  107918 WT7  2134 TIP3 H1   HT     0.417000        1.0080           0
  107919 WT7  2134 TIP3 H2   HT     0.417000        1.0080           0
  107920 WT7  2135 TIP3 OH2  OT    -0.834000       15.9994           0
  107921 WT7  2135 TIP3 H1   HT     0.417000        1.0080           0
  107922 WT7  2135 TIP3 H2   HT     0.417000        1.0080           0
  107923 WT7  2137 TIP3 OH2  OT    -0.834000       15.9994           0
  107924 WT7  2137 TIP3 H1   HT     0.417000        1.0080           0
  107925 WT7  2137 TIP3 H2   HT     0.417000        1.0080           0
  107926 WT7  2145 TIP3 OH2  OT    -0.834000       15.9994           0
  107927 WT7  2145 TIP3 H1   HT     0.417000        1.0080           0
  107928 WT7  2145 TIP3 H2   HT     0.417000        1.0080           0
  107929 WT7  2147 TIP3 OH2  OT    -0.834000       15.9994           0
  107930 WT7  2147 TIP3 H1   HT     0.417000        1.0080           0
  107931 WT7  2147 TIP3 H2   HT     0.417000        1.0080           0
  107932 WT7  2151 TIP3 OH2  OT    -0.834000       15.9994           0
  107933 WT7  2151 TIP3 H1   HT     0.417000        1.0080           0
  107934 WT7  2151 TIP3 H2   HT     0.417000        1.0080           0
  107935 WT7  2155 TIP3 OH2  OT    -0.834000       15.9994           0
  107936 WT7  2155 TIP3 H1   HT     0.417000        1.0080           0
  107937 WT7  2155 TIP3 H2   HT     0.417000        1.0080           0
  107938 WT7  2163 TIP3 OH2  OT    -0.834000       15.9994           0
  107939 WT7  2163 TIP3 H1   HT     0.417000        1.0080           0
  107940 WT7  2163 TIP3 H2   HT     0.417000        1.0080           0
  107941 WT7  2165 TIP3 OH2  OT    -0.834000       15.9994           0
  107942 WT7  2165 TIP3 H1   HT     0.417000        1.0080           0
  107943 WT7  2165 TIP3 H2   HT     0.417000        1.0080           0
  107944 WT7  2167 TIP3 OH2  OT    -0.834000       15.9994           0
  107945 WT7  2167 TIP3 H1   HT     0.417000        1.0080           0
  107946 WT7  2167 TIP3 H2   HT     0.417000        1.0080           0
  107947 WT7  2172 TIP3 OH2  OT    -0.834000       15.9994           0
  107948 WT7  2172 TIP3 H1   HT     0.417000        1.0080           0
  107949 WT7  2172 TIP3 H2   HT     0.417000        1.0080           0
  107950 WT7  2180 TIP3 OH2  OT    -0.834000       15.9994           0
  107951 WT7  2180 TIP3 H1   HT     0.417000        1.0080           0
  107952 WT7  2180 TIP3 H2   HT     0.417000        1.0080           0
  107953 WT7  2185 TIP3 OH2  OT    -0.834000       15.9994           0
  107954 WT7  2185 TIP3 H1   HT     0.417000        1.0080           0
  107955 WT7  2185 TIP3 H2   HT     0.417000        1.0080           0
  107956 WT7  2186 TIP3 OH2  OT    -0.834000       15.9994           0
  107957 WT7  2186 TIP3 H1   HT     0.417000        1.0080           0
  107958 WT7  2186 TIP3 H2   HT     0.417000        1.0080           0
  107959 WT7  2187 TIP3 OH2  OT    -0.834000       15.9994           0
  107960 WT7  2187 TIP3 H1   HT     0.417000        1.0080           0
  107961 WT7  2187 TIP3 H2   HT     0.417000        1.0080           0
  107962 WT7  2194 TIP3 OH2  OT    -0.834000       15.9994           0
  107963 WT7  2194 TIP3 H1   HT     0.417000        1.0080           0
  107964 WT7  2194 TIP3 H2   HT     0.417000        1.0080           0
  107965 WT7  2195 TIP3 OH2  OT    -0.834000       15.9994           0
  107966 WT7  2195 TIP3 H1   HT     0.417000        1.0080           0
  107967 WT7  2195 TIP3 H2   HT     0.417000        1.0080           0
  107968 WT7  2197 TIP3 OH2  OT    -0.834000       15.9994           0
  107969 WT7  2197 TIP3 H1   HT     0.417000        1.0080           0
  107970 WT7  2197 TIP3 H2   HT     0.417000        1.0080           0
  107971 WT7  2198 TIP3 OH2  OT    -0.834000       15.9994           0
  107972 WT7  2198 TIP3 H1   HT     0.417000        1.0080           0
  107973 WT7  2198 TIP3 H2   HT     0.417000        1.0080           0
  107974 WT7  2200 TIP3 OH2  OT    -0.834000       15.9994           0
  107975 WT7  2200 TIP3 H1   HT     0.417000        1.0080           0
  107976 WT7  2200 TIP3 H2   HT     0.417000        1.0080           0
  107977 WT7  2201 TIP3 OH2  OT    -0.834000       15.9994           0
  107978 WT7  2201 TIP3 H1   HT     0.417000        1.0080           0
  107979 WT7  2201 TIP3 H2   HT     0.417000        1.0080           0
  107980 WT7  2208 TIP3 OH2  OT    -0.834000       15.9994           0
  107981 WT7  2208 TIP3 H1   HT     0.417000        1.0080           0
  107982 WT7  2208 TIP3 H2   HT     0.417000        1.0080           0
  107983 WT7  2211 TIP3 OH2  OT    -0.834000       15.9994           0
  107984 WT7  2211 TIP3 H1   HT     0.417000        1.0080           0
  107985 WT7  2211 TIP3 H2   HT     0.417000        1.0080           0
  107986 WT7  2212 TIP3 OH2  OT    -0.834000       15.9994           0
  107987 WT7  2212 TIP3 H1   HT     0.417000        1.0080           0
  107988 WT7  2212 TIP3 H2   HT     0.417000        1.0080           0
  107989 WT7  2213 TIP3 OH2  OT    -0.834000       15.9994           0
  107990 WT7  2213 TIP3 H1   HT     0.417000        1.0080           0
  107991 WT7  2213 TIP3 H2   HT     0.417000        1.0080           0
  107992 WT7  2217 TIP3 OH2  OT    -0.834000       15.9994           0
  107993 WT7  2217 TIP3 H1   HT     0.417000        1.0080           0
  107994 WT7  2217 TIP3 H2   HT     0.417000        1.0080           0
  107995 WT7  2219 TIP3 OH2  OT    -0.834000       15.9994           0
  107996 WT7  2219 TIP3 H1   HT     0.417000        1.0080           0
  107997 WT7  2219 TIP3 H2   HT     0.417000        1.0080           0
  107998 WT7  2225 TIP3 OH2  OT    -0.834000       15.9994           0
  107999 WT7  2225 TIP3 H1   HT     0.417000        1.0080           0
  108000 WT7  2225 TIP3 H2   HT     0.417000        1.0080           0
  108001 WT7  2227 TIP3 OH2  OT    -0.834000       15.9994           0
  108002 WT7  2227 TIP3 H1   HT     0.417000        1.0080           0
  108003 WT7  2227 TIP3 H2   HT     0.417000        1.0080           0
  108004 WT7  2229 TIP3 OH2  OT    -0.834000       15.9994           0
  108005 WT7  2229 TIP3 H1   HT     0.417000        1.0080           0
  108006 WT7  2229 TIP3 H2   HT     0.417000        1.0080           0
  108007 WT7  2231 TIP3 OH2  OT    -0.834000       15.9994           0
  108008 WT7  2231 TIP3 H1   HT     0.417000        1.0080           0
  108009 WT7  2231 TIP3 H2   HT     0.417000        1.0080           0
  108010 WT7  2232 TIP3 OH2  OT    -0.834000       15.9994           0
  108011 WT7  2232 TIP3 H1   HT     0.417000        1.0080           0
  108012 WT7  2232 TIP3 H2   HT     0.417000        1.0080           0
  108013 WT7  2234 TIP3 OH2  OT    -0.834000       15.9994           0
  108014 WT7  2234 TIP3 H1   HT     0.417000        1.0080           0
  108015 WT7  2234 TIP3 H2   HT     0.417000        1.0080           0
  108016 WT7  2235 TIP3 OH2  OT    -0.834000       15.9994           0
  108017 WT7  2235 TIP3 H1   HT     0.417000        1.0080           0
  108018 WT7  2235 TIP3 H2   HT     0.417000        1.0080           0
  108019 WT7  2236 TIP3 OH2  OT    -0.834000       15.9994           0
  108020 WT7  2236 TIP3 H1   HT     0.417000        1.0080           0
  108021 WT7  2236 TIP3 H2   HT     0.417000        1.0080           0
  108022 WT7  2237 TIP3 OH2  OT    -0.834000       15.9994           0
  108023 WT7  2237 TIP3 H1   HT     0.417000        1.0080           0
  108024 WT7  2237 TIP3 H2   HT     0.417000        1.0080           0
  108025 WT7  2238 TIP3 OH2  OT    -0.834000       15.9994           0
  108026 WT7  2238 TIP3 H1   HT     0.417000        1.0080           0
  108027 WT7  2238 TIP3 H2   HT     0.417000        1.0080           0
  108028 WT7  2240 TIP3 OH2  OT    -0.834000       15.9994           0
  108029 WT7  2240 TIP3 H1   HT     0.417000        1.0080           0
  108030 WT7  2240 TIP3 H2   HT     0.417000        1.0080           0
  108031 WT7  2241 TIP3 OH2  OT    -0.834000       15.9994           0
  108032 WT7  2241 TIP3 H1   HT     0.417000        1.0080           0
  108033 WT7  2241 TIP3 H2   HT     0.417000        1.0080           0
  108034 WT7  2242 TIP3 OH2  OT    -0.834000       15.9994           0
  108035 WT7  2242 TIP3 H1   HT     0.417000        1.0080           0
  108036 WT7  2242 TIP3 H2   HT     0.417000        1.0080           0
  108037 WT7  2244 TIP3 OH2  OT    -0.834000       15.9994           0
  108038 WT7  2244 TIP3 H1   HT     0.417000        1.0080           0
  108039 WT7  2244 TIP3 H2   HT     0.417000        1.0080           0
  108040 WT7  2247 TIP3 OH2  OT    -0.834000       15.9994           0
  108041 WT7  2247 TIP3 H1   HT     0.417000        1.0080           0
  108042 WT7  2247 TIP3 H2   HT     0.417000        1.0080           0
  108043 WT7  2249 TIP3 OH2  OT    -0.834000       15.9994           0
  108044 WT7  2249 TIP3 H1   HT     0.417000        1.0080           0
  108045 WT7  2249 TIP3 H2   HT     0.417000        1.0080           0
  108046 WT7  2250 TIP3 OH2  OT    -0.834000       15.9994           0
  108047 WT7  2250 TIP3 H1   HT     0.417000        1.0080           0
  108048 WT7  2250 TIP3 H2   HT     0.417000        1.0080           0
  108049 WT7  2251 TIP3 OH2  OT    -0.834000       15.9994           0
  108050 WT7  2251 TIP3 H1   HT     0.417000        1.0080           0
  108051 WT7  2251 TIP3 H2   HT     0.417000        1.0080           0
  108052 WT7  2253 TIP3 OH2  OT    -0.834000       15.9994           0
  108053 WT7  2253 TIP3 H1   HT     0.417000        1.0080           0
  108054 WT7  2253 TIP3 H2   HT     0.417000        1.0080           0
  108055 WT7  2254 TIP3 OH2  OT    -0.834000       15.9994           0
  108056 WT7  2254 TIP3 H1   HT     0.417000        1.0080           0
  108057 WT7  2254 TIP3 H2   HT     0.417000        1.0080           0
  108058 WT7  2256 TIP3 OH2  OT    -0.834000       15.9994           0
  108059 WT7  2256 TIP3 H1   HT     0.417000        1.0080           0
  108060 WT7  2256 TIP3 H2   HT     0.417000        1.0080           0
  108061 WT7  2257 TIP3 OH2  OT    -0.834000       15.9994           0
  108062 WT7  2257 TIP3 H1   HT     0.417000        1.0080           0
  108063 WT7  2257 TIP3 H2   HT     0.417000        1.0080           0
  108064 WT7  2258 TIP3 OH2  OT    -0.834000       15.9994           0
  108065 WT7  2258 TIP3 H1   HT     0.417000        1.0080           0
  108066 WT7  2258 TIP3 H2   HT     0.417000        1.0080           0
  108067 WT7  2259 TIP3 OH2  OT    -0.834000       15.9994           0
  108068 WT7  2259 TIP3 H1   HT     0.417000        1.0080           0
  108069 WT7  2259 TIP3 H2   HT     0.417000        1.0080           0
  108070 WT7  2260 TIP3 OH2  OT    -0.834000       15.9994           0
  108071 WT7  2260 TIP3 H1   HT     0.417000        1.0080           0
  108072 WT7  2260 TIP3 H2   HT     0.417000        1.0080           0
  108073 WT7  2261 TIP3 OH2  OT    -0.834000       15.9994           0
  108074 WT7  2261 TIP3 H1   HT     0.417000        1.0080           0
  108075 WT7  2261 TIP3 H2   HT     0.417000        1.0080           0
  108076 WT7  2264 TIP3 OH2  OT    -0.834000       15.9994           0
  108077 WT7  2264 TIP3 H1   HT     0.417000        1.0080           0
  108078 WT7  2264 TIP3 H2   HT     0.417000        1.0080           0
  108079 WT7  2265 TIP3 OH2  OT    -0.834000       15.9994           0
  108080 WT7  2265 TIP3 H1   HT     0.417000        1.0080           0
  108081 WT7  2265 TIP3 H2   HT     0.417000        1.0080           0
  108082 WT7  2269 TIP3 OH2  OT    -0.834000       15.9994           0
  108083 WT7  2269 TIP3 H1   HT     0.417000        1.0080           0
  108084 WT7  2269 TIP3 H2   HT     0.417000        1.0080           0
  108085 WT7  2270 TIP3 OH2  OT    -0.834000       15.9994           0
  108086 WT7  2270 TIP3 H1   HT     0.417000        1.0080           0
  108087 WT7  2270 TIP3 H2   HT     0.417000        1.0080           0
  108088 WT7  2271 TIP3 OH2  OT    -0.834000       15.9994           0
  108089 WT7  2271 TIP3 H1   HT     0.417000        1.0080           0
  108090 WT7  2271 TIP3 H2   HT     0.417000        1.0080           0
  108091 WT7  2272 TIP3 OH2  OT    -0.834000       15.9994           0
  108092 WT7  2272 TIP3 H1   HT     0.417000        1.0080           0
  108093 WT7  2272 TIP3 H2   HT     0.417000        1.0080           0
  108094 WT7  2273 TIP3 OH2  OT    -0.834000       15.9994           0
  108095 WT7  2273 TIP3 H1   HT     0.417000        1.0080           0
  108096 WT7  2273 TIP3 H2   HT     0.417000        1.0080           0
  108097 WT7  2274 TIP3 OH2  OT    -0.834000       15.9994           0
  108098 WT7  2274 TIP3 H1   HT     0.417000        1.0080           0
  108099 WT7  2274 TIP3 H2   HT     0.417000        1.0080           0
  108100 WT7  2276 TIP3 OH2  OT    -0.834000       15.9994           0
  108101 WT7  2276 TIP3 H1   HT     0.417000        1.0080           0
  108102 WT7  2276 TIP3 H2   HT     0.417000        1.0080           0
  108103 WT7  2277 TIP3 OH2  OT    -0.834000       15.9994           0
  108104 WT7  2277 TIP3 H1   HT     0.417000        1.0080           0
  108105 WT7  2277 TIP3 H2   HT     0.417000        1.0080           0
  108106 WT7  2278 TIP3 OH2  OT    -0.834000       15.9994           0
  108107 WT7  2278 TIP3 H1   HT     0.417000        1.0080           0
  108108 WT7  2278 TIP3 H2   HT     0.417000        1.0080           0
  108109 WT7  2280 TIP3 OH2  OT    -0.834000       15.9994           0
  108110 WT7  2280 TIP3 H1   HT     0.417000        1.0080           0
  108111 WT7  2280 TIP3 H2   HT     0.417000        1.0080           0
  108112 WT7  2281 TIP3 OH2  OT    -0.834000       15.9994           0
  108113 WT7  2281 TIP3 H1   HT     0.417000        1.0080           0
  108114 WT7  2281 TIP3 H2   HT     0.417000        1.0080           0
  108115 WT7  2282 TIP3 OH2  OT    -0.834000       15.9994           0
  108116 WT7  2282 TIP3 H1   HT     0.417000        1.0080           0
  108117 WT7  2282 TIP3 H2   HT     0.417000        1.0080           0
  108118 WT7  2283 TIP3 OH2  OT    -0.834000       15.9994           0
  108119 WT7  2283 TIP3 H1   HT     0.417000        1.0080           0
  108120 WT7  2283 TIP3 H2   HT     0.417000        1.0080           0
  108121 WT7  2284 TIP3 OH2  OT    -0.834000       15.9994           0
  108122 WT7  2284 TIP3 H1   HT     0.417000        1.0080           0
  108123 WT7  2284 TIP3 H2   HT     0.417000        1.0080           0
  108124 WT7  2285 TIP3 OH2  OT    -0.834000       15.9994           0
  108125 WT7  2285 TIP3 H1   HT     0.417000        1.0080           0
  108126 WT7  2285 TIP3 H2   HT     0.417000        1.0080           0
  108127 WT7  2286 TIP3 OH2  OT    -0.834000       15.9994           0
  108128 WT7  2286 TIP3 H1   HT     0.417000        1.0080           0
  108129 WT7  2286 TIP3 H2   HT     0.417000        1.0080           0
  108130 WT7  2288 TIP3 OH2  OT    -0.834000       15.9994           0
  108131 WT7  2288 TIP3 H1   HT     0.417000        1.0080           0
  108132 WT7  2288 TIP3 H2   HT     0.417000        1.0080           0
  108133 WT7  2289 TIP3 OH2  OT    -0.834000       15.9994           0
  108134 WT7  2289 TIP3 H1   HT     0.417000        1.0080           0
  108135 WT7  2289 TIP3 H2   HT     0.417000        1.0080           0
  108136 WT7  2290 TIP3 OH2  OT    -0.834000       15.9994           0
  108137 WT7  2290 TIP3 H1   HT     0.417000        1.0080           0
  108138 WT7  2290 TIP3 H2   HT     0.417000        1.0080           0
  108139 WT7  2291 TIP3 OH2  OT    -0.834000       15.9994           0
  108140 WT7  2291 TIP3 H1   HT     0.417000        1.0080           0
  108141 WT7  2291 TIP3 H2   HT     0.417000        1.0080           0
  108142 WT7  2292 TIP3 OH2  OT    -0.834000       15.9994           0
  108143 WT7  2292 TIP3 H1   HT     0.417000        1.0080           0
  108144 WT7  2292 TIP3 H2   HT     0.417000        1.0080           0
  108145 WT7  2293 TIP3 OH2  OT    -0.834000       15.9994           0
  108146 WT7  2293 TIP3 H1   HT     0.417000        1.0080           0
  108147 WT7  2293 TIP3 H2   HT     0.417000        1.0080           0
  108148 WT7  2294 TIP3 OH2  OT    -0.834000       15.9994           0
  108149 WT7  2294 TIP3 H1   HT     0.417000        1.0080           0
  108150 WT7  2294 TIP3 H2   HT     0.417000        1.0080           0
  108151 WT7  2295 TIP3 OH2  OT    -0.834000       15.9994           0
  108152 WT7  2295 TIP3 H1   HT     0.417000        1.0080           0
  108153 WT7  2295 TIP3 H2   HT     0.417000        1.0080           0
  108154 WT7  2296 TIP3 OH2  OT    -0.834000       15.9994           0
  108155 WT7  2296 TIP3 H1   HT     0.417000        1.0080           0
  108156 WT7  2296 TIP3 H2   HT     0.417000        1.0080           0
  108157 WT7  2297 TIP3 OH2  OT    -0.834000       15.9994           0
  108158 WT7  2297 TIP3 H1   HT     0.417000        1.0080           0
  108159 WT7  2297 TIP3 H2   HT     0.417000        1.0080           0
  108160 WT7  2298 TIP3 OH2  OT    -0.834000       15.9994           0
  108161 WT7  2298 TIP3 H1   HT     0.417000        1.0080           0
  108162 WT7  2298 TIP3 H2   HT     0.417000        1.0080           0
  108163 WT7  2299 TIP3 OH2  OT    -0.834000       15.9994           0
  108164 WT7  2299 TIP3 H1   HT     0.417000        1.0080           0
  108165 WT7  2299 TIP3 H2   HT     0.417000        1.0080           0
  108166 WT7  2300 TIP3 OH2  OT    -0.834000       15.9994           0
  108167 WT7  2300 TIP3 H1   HT     0.417000        1.0080           0
  108168 WT7  2300 TIP3 H2   HT     0.417000        1.0080           0
  108169 WT7  2301 TIP3 OH2  OT    -0.834000       15.9994           0
  108170 WT7  2301 TIP3 H1   HT     0.417000        1.0080           0
  108171 WT7  2301 TIP3 H2   HT     0.417000        1.0080           0
  108172 WT7  2302 TIP3 OH2  OT    -0.834000       15.9994           0
  108173 WT7  2302 TIP3 H1   HT     0.417000        1.0080           0
  108174 WT7  2302 TIP3 H2   HT     0.417000        1.0080           0
  108175 WT7  2303 TIP3 OH2  OT    -0.834000       15.9994           0
  108176 WT7  2303 TIP3 H1   HT     0.417000        1.0080           0
  108177 WT7  2303 TIP3 H2   HT     0.417000        1.0080           0
  108178 WT7  2304 TIP3 OH2  OT    -0.834000       15.9994           0
  108179 WT7  2304 TIP3 H1   HT     0.417000        1.0080           0
  108180 WT7  2304 TIP3 H2   HT     0.417000        1.0080           0
  108181 WT7  2305 TIP3 OH2  OT    -0.834000       15.9994           0
  108182 WT7  2305 TIP3 H1   HT     0.417000        1.0080           0
  108183 WT7  2305 TIP3 H2   HT     0.417000        1.0080           0
  108184 WT7  2308 TIP3 OH2  OT    -0.834000       15.9994           0
  108185 WT7  2308 TIP3 H1   HT     0.417000        1.0080           0
  108186 WT7  2308 TIP3 H2   HT     0.417000        1.0080           0
  108187 WT7  2309 TIP3 OH2  OT    -0.834000       15.9994           0
  108188 WT7  2309 TIP3 H1   HT     0.417000        1.0080           0
  108189 WT7  2309 TIP3 H2   HT     0.417000        1.0080           0
  108190 WT7  2310 TIP3 OH2  OT    -0.834000       15.9994           0
  108191 WT7  2310 TIP3 H1   HT     0.417000        1.0080           0
  108192 WT7  2310 TIP3 H2   HT     0.417000        1.0080           0
  108193 WT7  2311 TIP3 OH2  OT    -0.834000       15.9994           0
  108194 WT7  2311 TIP3 H1   HT     0.417000        1.0080           0
  108195 WT7  2311 TIP3 H2   HT     0.417000        1.0080           0
  108196 WT7  2313 TIP3 OH2  OT    -0.834000       15.9994           0
  108197 WT7  2313 TIP3 H1   HT     0.417000        1.0080           0
  108198 WT7  2313 TIP3 H2   HT     0.417000        1.0080           0
  108199 WT7  2315 TIP3 OH2  OT    -0.834000       15.9994           0
  108200 WT7  2315 TIP3 H1   HT     0.417000        1.0080           0
  108201 WT7  2315 TIP3 H2   HT     0.417000        1.0080           0
  108202 WT7  2316 TIP3 OH2  OT    -0.834000       15.9994           0
  108203 WT7  2316 TIP3 H1   HT     0.417000        1.0080           0
  108204 WT7  2316 TIP3 H2   HT     0.417000        1.0080           0
  108205 WT7  2317 TIP3 OH2  OT    -0.834000       15.9994           0
  108206 WT7  2317 TIP3 H1   HT     0.417000        1.0080           0
  108207 WT7  2317 TIP3 H2   HT     0.417000        1.0080           0
  108208 WT7  2318 TIP3 OH2  OT    -0.834000       15.9994           0
  108209 WT7  2318 TIP3 H1   HT     0.417000        1.0080           0
  108210 WT7  2318 TIP3 H2   HT     0.417000        1.0080           0
  108211 WT7  2319 TIP3 OH2  OT    -0.834000       15.9994           0
  108212 WT7  2319 TIP3 H1   HT     0.417000        1.0080           0
  108213 WT7  2319 TIP3 H2   HT     0.417000        1.0080           0
  108214 WT7  2320 TIP3 OH2  OT    -0.834000       15.9994           0
  108215 WT7  2320 TIP3 H1   HT     0.417000        1.0080           0
  108216 WT7  2320 TIP3 H2   HT     0.417000        1.0080           0
  108217 WT7  2321 TIP3 OH2  OT    -0.834000       15.9994           0
  108218 WT7  2321 TIP3 H1   HT     0.417000        1.0080           0
  108219 WT7  2321 TIP3 H2   HT     0.417000        1.0080           0
  108220 WT7  2322 TIP3 OH2  OT    -0.834000       15.9994           0
  108221 WT7  2322 TIP3 H1   HT     0.417000        1.0080           0
  108222 WT7  2322 TIP3 H2   HT     0.417000        1.0080           0
  108223 WT7  2323 TIP3 OH2  OT    -0.834000       15.9994           0
  108224 WT7  2323 TIP3 H1   HT     0.417000        1.0080           0
  108225 WT7  2323 TIP3 H2   HT     0.417000        1.0080           0
  108226 WT7  2324 TIP3 OH2  OT    -0.834000       15.9994           0
  108227 WT7  2324 TIP3 H1   HT     0.417000        1.0080           0
  108228 WT7  2324 TIP3 H2   HT     0.417000        1.0080           0
  108229 WT7  2325 TIP3 OH2  OT    -0.834000       15.9994           0
  108230 WT7  2325 TIP3 H1   HT     0.417000        1.0080           0
  108231 WT7  2325 TIP3 H2   HT     0.417000        1.0080           0
  108232 WT7  2326 TIP3 OH2  OT    -0.834000       15.9994           0
  108233 WT7  2326 TIP3 H1   HT     0.417000        1.0080           0
  108234 WT7  2326 TIP3 H2   HT     0.417000        1.0080           0
  108235 WT7  2328 TIP3 OH2  OT    -0.834000       15.9994           0
  108236 WT7  2328 TIP3 H1   HT     0.417000        1.0080           0
  108237 WT7  2328 TIP3 H2   HT     0.417000        1.0080           0
  108238 WT7  2329 TIP3 OH2  OT    -0.834000       15.9994           0
  108239 WT7  2329 TIP3 H1   HT     0.417000        1.0080           0
  108240 WT7  2329 TIP3 H2   HT     0.417000        1.0080           0
  108241 WT7  2331 TIP3 OH2  OT    -0.834000       15.9994           0
  108242 WT7  2331 TIP3 H1   HT     0.417000        1.0080           0
  108243 WT7  2331 TIP3 H2   HT     0.417000        1.0080           0
  108244 WT7  2332 TIP3 OH2  OT    -0.834000       15.9994           0
  108245 WT7  2332 TIP3 H1   HT     0.417000        1.0080           0
  108246 WT7  2332 TIP3 H2   HT     0.417000        1.0080           0
  108247 WT7  2333 TIP3 OH2  OT    -0.834000       15.9994           0
  108248 WT7  2333 TIP3 H1   HT     0.417000        1.0080           0
  108249 WT7  2333 TIP3 H2   HT     0.417000        1.0080           0
  108250 WT7  2334 TIP3 OH2  OT    -0.834000       15.9994           0
  108251 WT7  2334 TIP3 H1   HT     0.417000        1.0080           0
  108252 WT7  2334 TIP3 H2   HT     0.417000        1.0080           0
  108253 WT7  2335 TIP3 OH2  OT    -0.834000       15.9994           0
  108254 WT7  2335 TIP3 H1   HT     0.417000        1.0080           0
  108255 WT7  2335 TIP3 H2   HT     0.417000        1.0080           0
  108256 WT7  2336 TIP3 OH2  OT    -0.834000       15.9994           0
  108257 WT7  2336 TIP3 H1   HT     0.417000        1.0080           0
  108258 WT7  2336 TIP3 H2   HT     0.417000        1.0080           0
  108259 WT7  2337 TIP3 OH2  OT    -0.834000       15.9994           0
  108260 WT7  2337 TIP3 H1   HT     0.417000        1.0080           0
  108261 WT7  2337 TIP3 H2   HT     0.417000        1.0080           0
  108262 WT7  2338 TIP3 OH2  OT    -0.834000       15.9994           0
  108263 WT7  2338 TIP3 H1   HT     0.417000        1.0080           0
  108264 WT7  2338 TIP3 H2   HT     0.417000        1.0080           0
  108265 WT7  2339 TIP3 OH2  OT    -0.834000       15.9994           0
  108266 WT7  2339 TIP3 H1   HT     0.417000        1.0080           0
  108267 WT7  2339 TIP3 H2   HT     0.417000        1.0080           0
  108268 WT7  2340 TIP3 OH2  OT    -0.834000       15.9994           0
  108269 WT7  2340 TIP3 H1   HT     0.417000        1.0080           0
  108270 WT7  2340 TIP3 H2   HT     0.417000        1.0080           0
  108271 WT7  2341 TIP3 OH2  OT    -0.834000       15.9994           0
  108272 WT7  2341 TIP3 H1   HT     0.417000        1.0080           0
  108273 WT7  2341 TIP3 H2   HT     0.417000        1.0080           0
  108274 WT7  2342 TIP3 OH2  OT    -0.834000       15.9994           0
  108275 WT7  2342 TIP3 H1   HT     0.417000        1.0080           0
  108276 WT7  2342 TIP3 H2   HT     0.417000        1.0080           0
  108277 WT7  2343 TIP3 OH2  OT    -0.834000       15.9994           0
  108278 WT7  2343 TIP3 H1   HT     0.417000        1.0080           0
  108279 WT7  2343 TIP3 H2   HT     0.417000        1.0080           0
  108280 WT7  2344 TIP3 OH2  OT    -0.834000       15.9994           0
  108281 WT7  2344 TIP3 H1   HT     0.417000        1.0080           0
  108282 WT7  2344 TIP3 H2   HT     0.417000        1.0080           0
  108283 WT7  2345 TIP3 OH2  OT    -0.834000       15.9994           0
  108284 WT7  2345 TIP3 H1   HT     0.417000        1.0080           0
  108285 WT7  2345 TIP3 H2   HT     0.417000        1.0080           0
  108286 WT7  2346 TIP3 OH2  OT    -0.834000       15.9994           0
  108287 WT7  2346 TIP3 H1   HT     0.417000        1.0080           0
  108288 WT7  2346 TIP3 H2   HT     0.417000        1.0080           0
  108289 WT7  2347 TIP3 OH2  OT    -0.834000       15.9994           0
  108290 WT7  2347 TIP3 H1   HT     0.417000        1.0080           0
  108291 WT7  2347 TIP3 H2   HT     0.417000        1.0080           0
  108292 WT7  2348 TIP3 OH2  OT    -0.834000       15.9994           0
  108293 WT7  2348 TIP3 H1   HT     0.417000        1.0080           0
  108294 WT7  2348 TIP3 H2   HT     0.417000        1.0080           0
  108295 WT7  2349 TIP3 OH2  OT    -0.834000       15.9994           0
  108296 WT7  2349 TIP3 H1   HT     0.417000        1.0080           0
  108297 WT7  2349 TIP3 H2   HT     0.417000        1.0080           0
  108298 WT7  2350 TIP3 OH2  OT    -0.834000       15.9994           0
  108299 WT7  2350 TIP3 H1   HT     0.417000        1.0080           0
  108300 WT7  2350 TIP3 H2   HT     0.417000        1.0080           0
  108301 WT7  2351 TIP3 OH2  OT    -0.834000       15.9994           0
  108302 WT7  2351 TIP3 H1   HT     0.417000        1.0080           0
  108303 WT7  2351 TIP3 H2   HT     0.417000        1.0080           0
  108304 WT7  2352 TIP3 OH2  OT    -0.834000       15.9994           0
  108305 WT7  2352 TIP3 H1   HT     0.417000        1.0080           0
  108306 WT7  2352 TIP3 H2   HT     0.417000        1.0080           0
  108307 WT7  2354 TIP3 OH2  OT    -0.834000       15.9994           0
  108308 WT7  2354 TIP3 H1   HT     0.417000        1.0080           0
  108309 WT7  2354 TIP3 H2   HT     0.417000        1.0080           0
  108310 WT7  2355 TIP3 OH2  OT    -0.834000       15.9994           0
  108311 WT7  2355 TIP3 H1   HT     0.417000        1.0080           0
  108312 WT7  2355 TIP3 H2   HT     0.417000        1.0080           0
  108313 WT7  2357 TIP3 OH2  OT    -0.834000       15.9994           0
  108314 WT7  2357 TIP3 H1   HT     0.417000        1.0080           0
  108315 WT7  2357 TIP3 H2   HT     0.417000        1.0080           0
  108316 WT7  2358 TIP3 OH2  OT    -0.834000       15.9994           0
  108317 WT7  2358 TIP3 H1   HT     0.417000        1.0080           0
  108318 WT7  2358 TIP3 H2   HT     0.417000        1.0080           0
  108319 WT7  2359 TIP3 OH2  OT    -0.834000       15.9994           0
  108320 WT7  2359 TIP3 H1   HT     0.417000        1.0080           0
  108321 WT7  2359 TIP3 H2   HT     0.417000        1.0080           0
  108322 WT7  2360 TIP3 OH2  OT    -0.834000       15.9994           0
  108323 WT7  2360 TIP3 H1   HT     0.417000        1.0080           0
  108324 WT7  2360 TIP3 H2   HT     0.417000        1.0080           0
  108325 WT7  2361 TIP3 OH2  OT    -0.834000       15.9994           0
  108326 WT7  2361 TIP3 H1   HT     0.417000        1.0080           0
  108327 WT7  2361 TIP3 H2   HT     0.417000        1.0080           0
  108328 WT7  2362 TIP3 OH2  OT    -0.834000       15.9994           0
  108329 WT7  2362 TIP3 H1   HT     0.417000        1.0080           0
  108330 WT7  2362 TIP3 H2   HT     0.417000        1.0080           0
  108331 WT7  2363 TIP3 OH2  OT    -0.834000       15.9994           0
  108332 WT7  2363 TIP3 H1   HT     0.417000        1.0080           0
  108333 WT7  2363 TIP3 H2   HT     0.417000        1.0080           0
  108334 WT7  2364 TIP3 OH2  OT    -0.834000       15.9994           0
  108335 WT7  2364 TIP3 H1   HT     0.417000        1.0080           0
  108336 WT7  2364 TIP3 H2   HT     0.417000        1.0080           0
  108337 WT7  2365 TIP3 OH2  OT    -0.834000       15.9994           0
  108338 WT7  2365 TIP3 H1   HT     0.417000        1.0080           0
  108339 WT7  2365 TIP3 H2   HT     0.417000        1.0080           0
  108340 WT7  2366 TIP3 OH2  OT    -0.834000       15.9994           0
  108341 WT7  2366 TIP3 H1   HT     0.417000        1.0080           0
  108342 WT7  2366 TIP3 H2   HT     0.417000        1.0080           0
  108343 WT7  2367 TIP3 OH2  OT    -0.834000       15.9994           0
  108344 WT7  2367 TIP3 H1   HT     0.417000        1.0080           0
  108345 WT7  2367 TIP3 H2   HT     0.417000        1.0080           0
  108346 WT7  2368 TIP3 OH2  OT    -0.834000       15.9994           0
  108347 WT7  2368 TIP3 H1   HT     0.417000        1.0080           0
  108348 WT7  2368 TIP3 H2   HT     0.417000        1.0080           0
  108349 WT7  2369 TIP3 OH2  OT    -0.834000       15.9994           0
  108350 WT7  2369 TIP3 H1   HT     0.417000        1.0080           0
  108351 WT7  2369 TIP3 H2   HT     0.417000        1.0080           0
  108352 WT7  2371 TIP3 OH2  OT    -0.834000       15.9994           0
  108353 WT7  2371 TIP3 H1   HT     0.417000        1.0080           0
  108354 WT7  2371 TIP3 H2   HT     0.417000        1.0080           0
  108355 WT7  2372 TIP3 OH2  OT    -0.834000       15.9994           0
  108356 WT7  2372 TIP3 H1   HT     0.417000        1.0080           0
  108357 WT7  2372 TIP3 H2   HT     0.417000        1.0080           0
  108358 WT7  2373 TIP3 OH2  OT    -0.834000       15.9994           0
  108359 WT7  2373 TIP3 H1   HT     0.417000        1.0080           0
  108360 WT7  2373 TIP3 H2   HT     0.417000        1.0080           0
  108361 WT7  2374 TIP3 OH2  OT    -0.834000       15.9994           0
  108362 WT7  2374 TIP3 H1   HT     0.417000        1.0080           0
  108363 WT7  2374 TIP3 H2   HT     0.417000        1.0080           0
  108364 WT7  2375 TIP3 OH2  OT    -0.834000       15.9994           0
  108365 WT7  2375 TIP3 H1   HT     0.417000        1.0080           0
  108366 WT7  2375 TIP3 H2   HT     0.417000        1.0080           0
  108367 WT7  2376 TIP3 OH2  OT    -0.834000       15.9994           0
  108368 WT7  2376 TIP3 H1   HT     0.417000        1.0080           0
  108369 WT7  2376 TIP3 H2   HT     0.417000        1.0080           0
  108370 WT7  2377 TIP3 OH2  OT    -0.834000       15.9994           0
  108371 WT7  2377 TIP3 H1   HT     0.417000        1.0080           0
  108372 WT7  2377 TIP3 H2   HT     0.417000        1.0080           0
  108373 WT7  2379 TIP3 OH2  OT    -0.834000       15.9994           0
  108374 WT7  2379 TIP3 H1   HT     0.417000        1.0080           0
  108375 WT7  2379 TIP3 H2   HT     0.417000        1.0080           0
  108376 WT7  2380 TIP3 OH2  OT    -0.834000       15.9994           0
  108377 WT7  2380 TIP3 H1   HT     0.417000        1.0080           0
  108378 WT7  2380 TIP3 H2   HT     0.417000        1.0080           0
  108379 WT7  2381 TIP3 OH2  OT    -0.834000       15.9994           0
  108380 WT7  2381 TIP3 H1   HT     0.417000        1.0080           0
  108381 WT7  2381 TIP3 H2   HT     0.417000        1.0080           0
  108382 WT7  2382 TIP3 OH2  OT    -0.834000       15.9994           0
  108383 WT7  2382 TIP3 H1   HT     0.417000        1.0080           0
  108384 WT7  2382 TIP3 H2   HT     0.417000        1.0080           0
  108385 WT7  2383 TIP3 OH2  OT    -0.834000       15.9994           0
  108386 WT7  2383 TIP3 H1   HT     0.417000        1.0080           0
  108387 WT7  2383 TIP3 H2   HT     0.417000        1.0080           0
  108388 WT7  2384 TIP3 OH2  OT    -0.834000       15.9994           0
  108389 WT7  2384 TIP3 H1   HT     0.417000        1.0080           0
  108390 WT7  2384 TIP3 H2   HT     0.417000        1.0080           0
  108391 WT7  2385 TIP3 OH2  OT    -0.834000       15.9994           0
  108392 WT7  2385 TIP3 H1   HT     0.417000        1.0080           0
  108393 WT7  2385 TIP3 H2   HT     0.417000        1.0080           0
  108394 WT7  2386 TIP3 OH2  OT    -0.834000       15.9994           0
  108395 WT7  2386 TIP3 H1   HT     0.417000        1.0080           0
  108396 WT7  2386 TIP3 H2   HT     0.417000        1.0080           0
  108397 WT7  2387 TIP3 OH2  OT    -0.834000       15.9994           0
  108398 WT7  2387 TIP3 H1   HT     0.417000        1.0080           0
  108399 WT7  2387 TIP3 H2   HT     0.417000        1.0080           0
  108400 WT7  2388 TIP3 OH2  OT    -0.834000       15.9994           0
  108401 WT7  2388 TIP3 H1   HT     0.417000        1.0080           0
  108402 WT7  2388 TIP3 H2   HT     0.417000        1.0080           0
  108403 WT7  2390 TIP3 OH2  OT    -0.834000       15.9994           0
  108404 WT7  2390 TIP3 H1   HT     0.417000        1.0080           0
  108405 WT7  2390 TIP3 H2   HT     0.417000        1.0080           0
  108406 WT7  2392 TIP3 OH2  OT    -0.834000       15.9994           0
  108407 WT7  2392 TIP3 H1   HT     0.417000        1.0080           0
  108408 WT7  2392 TIP3 H2   HT     0.417000        1.0080           0
  108409 WT7  2393 TIP3 OH2  OT    -0.834000       15.9994           0
  108410 WT7  2393 TIP3 H1   HT     0.417000        1.0080           0
  108411 WT7  2393 TIP3 H2   HT     0.417000        1.0080           0
  108412 WT7  2394 TIP3 OH2  OT    -0.834000       15.9994           0
  108413 WT7  2394 TIP3 H1   HT     0.417000        1.0080           0
  108414 WT7  2394 TIP3 H2   HT     0.417000        1.0080           0
  108415 WT7  2397 TIP3 OH2  OT    -0.834000       15.9994           0
  108416 WT7  2397 TIP3 H1   HT     0.417000        1.0080           0
  108417 WT7  2397 TIP3 H2   HT     0.417000        1.0080           0
  108418 WT7  2398 TIP3 OH2  OT    -0.834000       15.9994           0
  108419 WT7  2398 TIP3 H1   HT     0.417000        1.0080           0
  108420 WT7  2398 TIP3 H2   HT     0.417000        1.0080           0
  108421 WT7  2399 TIP3 OH2  OT    -0.834000       15.9994           0
  108422 WT7  2399 TIP3 H1   HT     0.417000        1.0080           0
  108423 WT7  2399 TIP3 H2   HT     0.417000        1.0080           0
  108424 WT7  2401 TIP3 OH2  OT    -0.834000       15.9994           0
  108425 WT7  2401 TIP3 H1   HT     0.417000        1.0080           0
  108426 WT7  2401 TIP3 H2   HT     0.417000        1.0080           0
  108427 WT7  2402 TIP3 OH2  OT    -0.834000       15.9994           0
  108428 WT7  2402 TIP3 H1   HT     0.417000        1.0080           0
  108429 WT7  2402 TIP3 H2   HT     0.417000        1.0080           0
  108430 WT7  2404 TIP3 OH2  OT    -0.834000       15.9994           0
  108431 WT7  2404 TIP3 H1   HT     0.417000        1.0080           0
  108432 WT7  2404 TIP3 H2   HT     0.417000        1.0080           0
  108433 WT7  2405 TIP3 OH2  OT    -0.834000       15.9994           0
  108434 WT7  2405 TIP3 H1   HT     0.417000        1.0080           0
  108435 WT7  2405 TIP3 H2   HT     0.417000        1.0080           0
  108436 WT7  2406 TIP3 OH2  OT    -0.834000       15.9994           0
  108437 WT7  2406 TIP3 H1   HT     0.417000        1.0080           0
  108438 WT7  2406 TIP3 H2   HT     0.417000        1.0080           0
  108439 WT7  2407 TIP3 OH2  OT    -0.834000       15.9994           0
  108440 WT7  2407 TIP3 H1   HT     0.417000        1.0080           0
  108441 WT7  2407 TIP3 H2   HT     0.417000        1.0080           0
  108442 WT7  2408 TIP3 OH2  OT    -0.834000       15.9994           0
  108443 WT7  2408 TIP3 H1   HT     0.417000        1.0080           0
  108444 WT7  2408 TIP3 H2   HT     0.417000        1.0080           0
  108445 WT7  2409 TIP3 OH2  OT    -0.834000       15.9994           0
  108446 WT7  2409 TIP3 H1   HT     0.417000        1.0080           0
  108447 WT7  2409 TIP3 H2   HT     0.417000        1.0080           0
  108448 WT7  2411 TIP3 OH2  OT    -0.834000       15.9994           0
  108449 WT7  2411 TIP3 H1   HT     0.417000        1.0080           0
  108450 WT7  2411 TIP3 H2   HT     0.417000        1.0080           0
  108451 WT7  2412 TIP3 OH2  OT    -0.834000       15.9994           0
  108452 WT7  2412 TIP3 H1   HT     0.417000        1.0080           0
  108453 WT7  2412 TIP3 H2   HT     0.417000        1.0080           0
  108454 WT7  2415 TIP3 OH2  OT    -0.834000       15.9994           0
  108455 WT7  2415 TIP3 H1   HT     0.417000        1.0080           0
  108456 WT7  2415 TIP3 H2   HT     0.417000        1.0080           0
  108457 WT7  2416 TIP3 OH2  OT    -0.834000       15.9994           0
  108458 WT7  2416 TIP3 H1   HT     0.417000        1.0080           0
  108459 WT7  2416 TIP3 H2   HT     0.417000        1.0080           0
  108460 WT7  2418 TIP3 OH2  OT    -0.834000       15.9994           0
  108461 WT7  2418 TIP3 H1   HT     0.417000        1.0080           0
  108462 WT7  2418 TIP3 H2   HT     0.417000        1.0080           0
  108463 WT7  2419 TIP3 OH2  OT    -0.834000       15.9994           0
  108464 WT7  2419 TIP3 H1   HT     0.417000        1.0080           0
  108465 WT7  2419 TIP3 H2   HT     0.417000        1.0080           0
  108466 WT7  2420 TIP3 OH2  OT    -0.834000       15.9994           0
  108467 WT7  2420 TIP3 H1   HT     0.417000        1.0080           0
  108468 WT7  2420 TIP3 H2   HT     0.417000        1.0080           0
  108469 WT7  2421 TIP3 OH2  OT    -0.834000       15.9994           0
  108470 WT7  2421 TIP3 H1   HT     0.417000        1.0080           0
  108471 WT7  2421 TIP3 H2   HT     0.417000        1.0080           0
  108472 WT7  2422 TIP3 OH2  OT    -0.834000       15.9994           0
  108473 WT7  2422 TIP3 H1   HT     0.417000        1.0080           0
  108474 WT7  2422 TIP3 H2   HT     0.417000        1.0080           0
  108475 WT7  2423 TIP3 OH2  OT    -0.834000       15.9994           0
  108476 WT7  2423 TIP3 H1   HT     0.417000        1.0080           0
  108477 WT7  2423 TIP3 H2   HT     0.417000        1.0080           0
  108478 WT7  2424 TIP3 OH2  OT    -0.834000       15.9994           0
  108479 WT7  2424 TIP3 H1   HT     0.417000        1.0080           0
  108480 WT7  2424 TIP3 H2   HT     0.417000        1.0080           0
  108481 WT7  2425 TIP3 OH2  OT    -0.834000       15.9994           0
  108482 WT7  2425 TIP3 H1   HT     0.417000        1.0080           0
  108483 WT7  2425 TIP3 H2   HT     0.417000        1.0080           0
  108484 WT7  2427 TIP3 OH2  OT    -0.834000       15.9994           0
  108485 WT7  2427 TIP3 H1   HT     0.417000        1.0080           0
  108486 WT7  2427 TIP3 H2   HT     0.417000        1.0080           0
  108487 WT7  2429 TIP3 OH2  OT    -0.834000       15.9994           0
  108488 WT7  2429 TIP3 H1   HT     0.417000        1.0080           0
  108489 WT7  2429 TIP3 H2   HT     0.417000        1.0080           0
  108490 WT7  2430 TIP3 OH2  OT    -0.834000       15.9994           0
  108491 WT7  2430 TIP3 H1   HT     0.417000        1.0080           0
  108492 WT7  2430 TIP3 H2   HT     0.417000        1.0080           0
  108493 WT7  2432 TIP3 OH2  OT    -0.834000       15.9994           0
  108494 WT7  2432 TIP3 H1   HT     0.417000        1.0080           0
  108495 WT7  2432 TIP3 H2   HT     0.417000        1.0080           0
  108496 WT7  2434 TIP3 OH2  OT    -0.834000       15.9994           0
  108497 WT7  2434 TIP3 H1   HT     0.417000        1.0080           0
  108498 WT7  2434 TIP3 H2   HT     0.417000        1.0080           0
  108499 WT7  2436 TIP3 OH2  OT    -0.834000       15.9994           0
  108500 WT7  2436 TIP3 H1   HT     0.417000        1.0080           0
  108501 WT7  2436 TIP3 H2   HT     0.417000        1.0080           0
  108502 WT7  2437 TIP3 OH2  OT    -0.834000       15.9994           0
  108503 WT7  2437 TIP3 H1   HT     0.417000        1.0080           0
  108504 WT7  2437 TIP3 H2   HT     0.417000        1.0080           0
  108505 WT7  2439 TIP3 OH2  OT    -0.834000       15.9994           0
  108506 WT7  2439 TIP3 H1   HT     0.417000        1.0080           0
  108507 WT7  2439 TIP3 H2   HT     0.417000        1.0080           0
  108508 WT7  2442 TIP3 OH2  OT    -0.834000       15.9994           0
  108509 WT7  2442 TIP3 H1   HT     0.417000        1.0080           0
  108510 WT7  2442 TIP3 H2   HT     0.417000        1.0080           0
  108511 WT7  2443 TIP3 OH2  OT    -0.834000       15.9994           0
  108512 WT7  2443 TIP3 H1   HT     0.417000        1.0080           0
  108513 WT7  2443 TIP3 H2   HT     0.417000        1.0080           0
  108514 WT7  2444 TIP3 OH2  OT    -0.834000       15.9994           0
  108515 WT7  2444 TIP3 H1   HT     0.417000        1.0080           0
  108516 WT7  2444 TIP3 H2   HT     0.417000        1.0080           0
  108517 WT7  2445 TIP3 OH2  OT    -0.834000       15.9994           0
  108518 WT7  2445 TIP3 H1   HT     0.417000        1.0080           0
  108519 WT7  2445 TIP3 H2   HT     0.417000        1.0080           0
  108520 WT7  2446 TIP3 OH2  OT    -0.834000       15.9994           0
  108521 WT7  2446 TIP3 H1   HT     0.417000        1.0080           0
  108522 WT7  2446 TIP3 H2   HT     0.417000        1.0080           0
  108523 WT7  2448 TIP3 OH2  OT    -0.834000       15.9994           0
  108524 WT7  2448 TIP3 H1   HT     0.417000        1.0080           0
  108525 WT7  2448 TIP3 H2   HT     0.417000        1.0080           0
  108526 WT7  2449 TIP3 OH2  OT    -0.834000       15.9994           0
  108527 WT7  2449 TIP3 H1   HT     0.417000        1.0080           0
  108528 WT7  2449 TIP3 H2   HT     0.417000        1.0080           0
  108529 WT7  2450 TIP3 OH2  OT    -0.834000       15.9994           0
  108530 WT7  2450 TIP3 H1   HT     0.417000        1.0080           0
  108531 WT7  2450 TIP3 H2   HT     0.417000        1.0080           0
  108532 WT7  2452 TIP3 OH2  OT    -0.834000       15.9994           0
  108533 WT7  2452 TIP3 H1   HT     0.417000        1.0080           0
  108534 WT7  2452 TIP3 H2   HT     0.417000        1.0080           0
  108535 WT7  2453 TIP3 OH2  OT    -0.834000       15.9994           0
  108536 WT7  2453 TIP3 H1   HT     0.417000        1.0080           0
  108537 WT7  2453 TIP3 H2   HT     0.417000        1.0080           0
  108538 WT7  2454 TIP3 OH2  OT    -0.834000       15.9994           0
  108539 WT7  2454 TIP3 H1   HT     0.417000        1.0080           0
  108540 WT7  2454 TIP3 H2   HT     0.417000        1.0080           0
  108541 WT7  2455 TIP3 OH2  OT    -0.834000       15.9994           0
  108542 WT7  2455 TIP3 H1   HT     0.417000        1.0080           0
  108543 WT7  2455 TIP3 H2   HT     0.417000        1.0080           0
  108544 WT7  2458 TIP3 OH2  OT    -0.834000       15.9994           0
  108545 WT7  2458 TIP3 H1   HT     0.417000        1.0080           0
  108546 WT7  2458 TIP3 H2   HT     0.417000        1.0080           0
  108547 WT7  2460 TIP3 OH2  OT    -0.834000       15.9994           0
  108548 WT7  2460 TIP3 H1   HT     0.417000        1.0080           0
  108549 WT7  2460 TIP3 H2   HT     0.417000        1.0080           0
  108550 WT7  2463 TIP3 OH2  OT    -0.834000       15.9994           0
  108551 WT7  2463 TIP3 H1   HT     0.417000        1.0080           0
  108552 WT7  2463 TIP3 H2   HT     0.417000        1.0080           0
  108553 WT7  2464 TIP3 OH2  OT    -0.834000       15.9994           0
  108554 WT7  2464 TIP3 H1   HT     0.417000        1.0080           0
  108555 WT7  2464 TIP3 H2   HT     0.417000        1.0080           0
  108556 WT7  2465 TIP3 OH2  OT    -0.834000       15.9994           0
  108557 WT7  2465 TIP3 H1   HT     0.417000        1.0080           0
  108558 WT7  2465 TIP3 H2   HT     0.417000        1.0080           0
  108559 WT7  2466 TIP3 OH2  OT    -0.834000       15.9994           0
  108560 WT7  2466 TIP3 H1   HT     0.417000        1.0080           0
  108561 WT7  2466 TIP3 H2   HT     0.417000        1.0080           0
  108562 WT7  2467 TIP3 OH2  OT    -0.834000       15.9994           0
  108563 WT7  2467 TIP3 H1   HT     0.417000        1.0080           0
  108564 WT7  2467 TIP3 H2   HT     0.417000        1.0080           0
  108565 WT7  2469 TIP3 OH2  OT    -0.834000       15.9994           0
  108566 WT7  2469 TIP3 H1   HT     0.417000        1.0080           0
  108567 WT7  2469 TIP3 H2   HT     0.417000        1.0080           0
  108568 WT7  2471 TIP3 OH2  OT    -0.834000       15.9994           0
  108569 WT7  2471 TIP3 H1   HT     0.417000        1.0080           0
  108570 WT7  2471 TIP3 H2   HT     0.417000        1.0080           0
  108571 WT7  2472 TIP3 OH2  OT    -0.834000       15.9994           0
  108572 WT7  2472 TIP3 H1   HT     0.417000        1.0080           0
  108573 WT7  2472 TIP3 H2   HT     0.417000        1.0080           0
  108574 WT7  2473 TIP3 OH2  OT    -0.834000       15.9994           0
  108575 WT7  2473 TIP3 H1   HT     0.417000        1.0080           0
  108576 WT7  2473 TIP3 H2   HT     0.417000        1.0080           0
  108577 WT7  2474 TIP3 OH2  OT    -0.834000       15.9994           0
  108578 WT7  2474 TIP3 H1   HT     0.417000        1.0080           0
  108579 WT7  2474 TIP3 H2   HT     0.417000        1.0080           0
  108580 WT7  2478 TIP3 OH2  OT    -0.834000       15.9994           0
  108581 WT7  2478 TIP3 H1   HT     0.417000        1.0080           0
  108582 WT7  2478 TIP3 H2   HT     0.417000        1.0080           0
  108583 WT7  2479 TIP3 OH2  OT    -0.834000       15.9994           0
  108584 WT7  2479 TIP3 H1   HT     0.417000        1.0080           0
  108585 WT7  2479 TIP3 H2   HT     0.417000        1.0080           0
  108586 WT7  2480 TIP3 OH2  OT    -0.834000       15.9994           0
  108587 WT7  2480 TIP3 H1   HT     0.417000        1.0080           0
  108588 WT7  2480 TIP3 H2   HT     0.417000        1.0080           0
  108589 WT7  2482 TIP3 OH2  OT    -0.834000       15.9994           0
  108590 WT7  2482 TIP3 H1   HT     0.417000        1.0080           0
  108591 WT7  2482 TIP3 H2   HT     0.417000        1.0080           0
  108592 WT7  2484 TIP3 OH2  OT    -0.834000       15.9994           0
  108593 WT7  2484 TIP3 H1   HT     0.417000        1.0080           0
  108594 WT7  2484 TIP3 H2   HT     0.417000        1.0080           0
  108595 WT7  2485 TIP3 OH2  OT    -0.834000       15.9994           0
  108596 WT7  2485 TIP3 H1   HT     0.417000        1.0080           0
  108597 WT7  2485 TIP3 H2   HT     0.417000        1.0080           0
  108598 WT7  2488 TIP3 OH2  OT    -0.834000       15.9994           0
  108599 WT7  2488 TIP3 H1   HT     0.417000        1.0080           0
  108600 WT7  2488 TIP3 H2   HT     0.417000        1.0080           0
  108601 WT7  2489 TIP3 OH2  OT    -0.834000       15.9994           0
  108602 WT7  2489 TIP3 H1   HT     0.417000        1.0080           0
  108603 WT7  2489 TIP3 H2   HT     0.417000        1.0080           0
  108604 WT7  2492 TIP3 OH2  OT    -0.834000       15.9994           0
  108605 WT7  2492 TIP3 H1   HT     0.417000        1.0080           0
  108606 WT7  2492 TIP3 H2   HT     0.417000        1.0080           0
  108607 WT7  2495 TIP3 OH2  OT    -0.834000       15.9994           0
  108608 WT7  2495 TIP3 H1   HT     0.417000        1.0080           0
  108609 WT7  2495 TIP3 H2   HT     0.417000        1.0080           0
  108610 WT7  2500 TIP3 OH2  OT    -0.834000       15.9994           0
  108611 WT7  2500 TIP3 H1   HT     0.417000        1.0080           0
  108612 WT7  2500 TIP3 H2   HT     0.417000        1.0080           0
  108613 WT7  2501 TIP3 OH2  OT    -0.834000       15.9994           0
  108614 WT7  2501 TIP3 H1   HT     0.417000        1.0080           0
  108615 WT7  2501 TIP3 H2   HT     0.417000        1.0080           0
  108616 WT7  2504 TIP3 OH2  OT    -0.834000       15.9994           0
  108617 WT7  2504 TIP3 H1   HT     0.417000        1.0080           0
  108618 WT7  2504 TIP3 H2   HT     0.417000        1.0080           0
  108619 WT7  2505 TIP3 OH2  OT    -0.834000       15.9994           0
  108620 WT7  2505 TIP3 H1   HT     0.417000        1.0080           0
  108621 WT7  2505 TIP3 H2   HT     0.417000        1.0080           0
  108622 WT7  2506 TIP3 OH2  OT    -0.834000       15.9994           0
  108623 WT7  2506 TIP3 H1   HT     0.417000        1.0080           0
  108624 WT7  2506 TIP3 H2   HT     0.417000        1.0080           0
  108625 WT7  2508 TIP3 OH2  OT    -0.834000       15.9994           0
  108626 WT7  2508 TIP3 H1   HT     0.417000        1.0080           0
  108627 WT7  2508 TIP3 H2   HT     0.417000        1.0080           0
  108628 WT7  2511 TIP3 OH2  OT    -0.834000       15.9994           0
  108629 WT7  2511 TIP3 H1   HT     0.417000        1.0080           0
  108630 WT7  2511 TIP3 H2   HT     0.417000        1.0080           0
  108631 WT7  2512 TIP3 OH2  OT    -0.834000       15.9994           0
  108632 WT7  2512 TIP3 H1   HT     0.417000        1.0080           0
  108633 WT7  2512 TIP3 H2   HT     0.417000        1.0080           0
  108634 WT7  2513 TIP3 OH2  OT    -0.834000       15.9994           0
  108635 WT7  2513 TIP3 H1   HT     0.417000        1.0080           0
  108636 WT7  2513 TIP3 H2   HT     0.417000        1.0080           0
  108637 WT7  2515 TIP3 OH2  OT    -0.834000       15.9994           0
  108638 WT7  2515 TIP3 H1   HT     0.417000        1.0080           0
  108639 WT7  2515 TIP3 H2   HT     0.417000        1.0080           0
  108640 WT7  2518 TIP3 OH2  OT    -0.834000       15.9994           0
  108641 WT7  2518 TIP3 H1   HT     0.417000        1.0080           0
  108642 WT7  2518 TIP3 H2   HT     0.417000        1.0080           0
  108643 WT7  2519 TIP3 OH2  OT    -0.834000       15.9994           0
  108644 WT7  2519 TIP3 H1   HT     0.417000        1.0080           0
  108645 WT7  2519 TIP3 H2   HT     0.417000        1.0080           0
  108646 WT7  2523 TIP3 OH2  OT    -0.834000       15.9994           0
  108647 WT7  2523 TIP3 H1   HT     0.417000        1.0080           0
  108648 WT7  2523 TIP3 H2   HT     0.417000        1.0080           0
  108649 WT7  2528 TIP3 OH2  OT    -0.834000       15.9994           0
  108650 WT7  2528 TIP3 H1   HT     0.417000        1.0080           0
  108651 WT7  2528 TIP3 H2   HT     0.417000        1.0080           0
  108652 WT7  2534 TIP3 OH2  OT    -0.834000       15.9994           0
  108653 WT7  2534 TIP3 H1   HT     0.417000        1.0080           0
  108654 WT7  2534 TIP3 H2   HT     0.417000        1.0080           0
  108655 WT7  2536 TIP3 OH2  OT    -0.834000       15.9994           0
  108656 WT7  2536 TIP3 H1   HT     0.417000        1.0080           0
  108657 WT7  2536 TIP3 H2   HT     0.417000        1.0080           0
  108658 WT7  2538 TIP3 OH2  OT    -0.834000       15.9994           0
  108659 WT7  2538 TIP3 H1   HT     0.417000        1.0080           0
  108660 WT7  2538 TIP3 H2   HT     0.417000        1.0080           0
  108661 WT7  2541 TIP3 OH2  OT    -0.834000       15.9994           0
  108662 WT7  2541 TIP3 H1   HT     0.417000        1.0080           0
  108663 WT7  2541 TIP3 H2   HT     0.417000        1.0080           0
  108664 WT7  2561 TIP3 OH2  OT    -0.834000       15.9994           0
  108665 WT7  2561 TIP3 H1   HT     0.417000        1.0080           0
  108666 WT7  2561 TIP3 H2   HT     0.417000        1.0080           0
  108667 WT7  2563 TIP3 OH2  OT    -0.834000       15.9994           0
  108668 WT7  2563 TIP3 H1   HT     0.417000        1.0080           0
  108669 WT7  2563 TIP3 H2   HT     0.417000        1.0080           0
  108670 WT7  2576 TIP3 OH2  OT    -0.834000       15.9994           0
  108671 WT7  2576 TIP3 H1   HT     0.417000        1.0080           0
  108672 WT7  2576 TIP3 H2   HT     0.417000        1.0080           0
  108673 WT7  2582 TIP3 OH2  OT    -0.834000       15.9994           0
  108674 WT7  2582 TIP3 H1   HT     0.417000        1.0080           0
  108675 WT7  2582 TIP3 H2   HT     0.417000        1.0080           0
  108676 WT7  2585 TIP3 OH2  OT    -0.834000       15.9994           0
  108677 WT7  2585 TIP3 H1   HT     0.417000        1.0080           0
  108678 WT7  2585 TIP3 H2   HT     0.417000        1.0080           0
  108679 WT7  2587 TIP3 OH2  OT    -0.834000       15.9994           0
  108680 WT7  2587 TIP3 H1   HT     0.417000        1.0080           0
  108681 WT7  2587 TIP3 H2   HT     0.417000        1.0080           0
  108682 WT7  2590 TIP3 OH2  OT    -0.834000       15.9994           0
  108683 WT7  2590 TIP3 H1   HT     0.417000        1.0080           0
  108684 WT7  2590 TIP3 H2   HT     0.417000        1.0080           0
  108685 WT7  2591 TIP3 OH2  OT    -0.834000       15.9994           0
  108686 WT7  2591 TIP3 H1   HT     0.417000        1.0080           0
  108687 WT7  2591 TIP3 H2   HT     0.417000        1.0080           0
  108688 WT7  2598 TIP3 OH2  OT    -0.834000       15.9994           0
  108689 WT7  2598 TIP3 H1   HT     0.417000        1.0080           0
  108690 WT7  2598 TIP3 H2   HT     0.417000        1.0080           0
  108691 WT7  2606 TIP3 OH2  OT    -0.834000       15.9994           0
  108692 WT7  2606 TIP3 H1   HT     0.417000        1.0080           0
  108693 WT7  2606 TIP3 H2   HT     0.417000        1.0080           0
  108694 WT7  2607 TIP3 OH2  OT    -0.834000       15.9994           0
  108695 WT7  2607 TIP3 H1   HT     0.417000        1.0080           0
  108696 WT7  2607 TIP3 H2   HT     0.417000        1.0080           0
  108697 WT7  2608 TIP3 OH2  OT    -0.834000       15.9994           0
  108698 WT7  2608 TIP3 H1   HT     0.417000        1.0080           0
  108699 WT7  2608 TIP3 H2   HT     0.417000        1.0080           0
  108700 WT7  2610 TIP3 OH2  OT    -0.834000       15.9994           0
  108701 WT7  2610 TIP3 H1   HT     0.417000        1.0080           0
  108702 WT7  2610 TIP3 H2   HT     0.417000        1.0080           0
  108703 WT7  2616 TIP3 OH2  OT    -0.834000       15.9994           0
  108704 WT7  2616 TIP3 H1   HT     0.417000        1.0080           0
  108705 WT7  2616 TIP3 H2   HT     0.417000        1.0080           0
  108706 WT7  2617 TIP3 OH2  OT    -0.834000       15.9994           0
  108707 WT7  2617 TIP3 H1   HT     0.417000        1.0080           0
  108708 WT7  2617 TIP3 H2   HT     0.417000        1.0080           0
  108709 WT7  2624 TIP3 OH2  OT    -0.834000       15.9994           0
  108710 WT7  2624 TIP3 H1   HT     0.417000        1.0080           0
  108711 WT7  2624 TIP3 H2   HT     0.417000        1.0080           0
  108712 WT7  2626 TIP3 OH2  OT    -0.834000       15.9994           0
  108713 WT7  2626 TIP3 H1   HT     0.417000        1.0080           0
  108714 WT7  2626 TIP3 H2   HT     0.417000        1.0080           0
  108715 WT7  2628 TIP3 OH2  OT    -0.834000       15.9994           0
  108716 WT7  2628 TIP3 H1   HT     0.417000        1.0080           0
  108717 WT7  2628 TIP3 H2   HT     0.417000        1.0080           0
  108718 WT7  2629 TIP3 OH2  OT    -0.834000       15.9994           0
  108719 WT7  2629 TIP3 H1   HT     0.417000        1.0080           0
  108720 WT7  2629 TIP3 H2   HT     0.417000        1.0080           0
  108721 WT7  2630 TIP3 OH2  OT    -0.834000       15.9994           0
  108722 WT7  2630 TIP3 H1   HT     0.417000        1.0080           0
  108723 WT7  2630 TIP3 H2   HT     0.417000        1.0080           0
  108724 WT7  2632 TIP3 OH2  OT    -0.834000       15.9994           0
  108725 WT7  2632 TIP3 H1   HT     0.417000        1.0080           0
  108726 WT7  2632 TIP3 H2   HT     0.417000        1.0080           0
  108727 WT7  2633 TIP3 OH2  OT    -0.834000       15.9994           0
  108728 WT7  2633 TIP3 H1   HT     0.417000        1.0080           0
  108729 WT7  2633 TIP3 H2   HT     0.417000        1.0080           0
  108730 WT7  2634 TIP3 OH2  OT    -0.834000       15.9994           0
  108731 WT7  2634 TIP3 H1   HT     0.417000        1.0080           0
  108732 WT7  2634 TIP3 H2   HT     0.417000        1.0080           0
  108733 WT7  2635 TIP3 OH2  OT    -0.834000       15.9994           0
  108734 WT7  2635 TIP3 H1   HT     0.417000        1.0080           0
  108735 WT7  2635 TIP3 H2   HT     0.417000        1.0080           0
  108736 WT7  2636 TIP3 OH2  OT    -0.834000       15.9994           0
  108737 WT7  2636 TIP3 H1   HT     0.417000        1.0080           0
  108738 WT7  2636 TIP3 H2   HT     0.417000        1.0080           0
  108739 WT7  2638 TIP3 OH2  OT    -0.834000       15.9994           0
  108740 WT7  2638 TIP3 H1   HT     0.417000        1.0080           0
  108741 WT7  2638 TIP3 H2   HT     0.417000        1.0080           0
  108742 WT7  2644 TIP3 OH2  OT    -0.834000       15.9994           0
  108743 WT7  2644 TIP3 H1   HT     0.417000        1.0080           0
  108744 WT7  2644 TIP3 H2   HT     0.417000        1.0080           0
  108745 WT7  2646 TIP3 OH2  OT    -0.834000       15.9994           0
  108746 WT7  2646 TIP3 H1   HT     0.417000        1.0080           0
  108747 WT7  2646 TIP3 H2   HT     0.417000        1.0080           0
  108748 WT7  2649 TIP3 OH2  OT    -0.834000       15.9994           0
  108749 WT7  2649 TIP3 H1   HT     0.417000        1.0080           0
  108750 WT7  2649 TIP3 H2   HT     0.417000        1.0080           0
  108751 WT7  2650 TIP3 OH2  OT    -0.834000       15.9994           0
  108752 WT7  2650 TIP3 H1   HT     0.417000        1.0080           0
  108753 WT7  2650 TIP3 H2   HT     0.417000        1.0080           0
  108754 WT7  2652 TIP3 OH2  OT    -0.834000       15.9994           0
  108755 WT7  2652 TIP3 H1   HT     0.417000        1.0080           0
  108756 WT7  2652 TIP3 H2   HT     0.417000        1.0080           0
  108757 WT7  2654 TIP3 OH2  OT    -0.834000       15.9994           0
  108758 WT7  2654 TIP3 H1   HT     0.417000        1.0080           0
  108759 WT7  2654 TIP3 H2   HT     0.417000        1.0080           0
  108760 WT7  2656 TIP3 OH2  OT    -0.834000       15.9994           0
  108761 WT7  2656 TIP3 H1   HT     0.417000        1.0080           0
  108762 WT7  2656 TIP3 H2   HT     0.417000        1.0080           0
  108763 WT7  2657 TIP3 OH2  OT    -0.834000       15.9994           0
  108764 WT7  2657 TIP3 H1   HT     0.417000        1.0080           0
  108765 WT7  2657 TIP3 H2   HT     0.417000        1.0080           0
  108766 WT7  2659 TIP3 OH2  OT    -0.834000       15.9994           0
  108767 WT7  2659 TIP3 H1   HT     0.417000        1.0080           0
  108768 WT7  2659 TIP3 H2   HT     0.417000        1.0080           0
  108769 WT7  2662 TIP3 OH2  OT    -0.834000       15.9994           0
  108770 WT7  2662 TIP3 H1   HT     0.417000        1.0080           0
  108771 WT7  2662 TIP3 H2   HT     0.417000        1.0080           0
  108772 WT7  2665 TIP3 OH2  OT    -0.834000       15.9994           0
  108773 WT7  2665 TIP3 H1   HT     0.417000        1.0080           0
  108774 WT7  2665 TIP3 H2   HT     0.417000        1.0080           0
  108775 WT7  2667 TIP3 OH2  OT    -0.834000       15.9994           0
  108776 WT7  2667 TIP3 H1   HT     0.417000        1.0080           0
  108777 WT7  2667 TIP3 H2   HT     0.417000        1.0080           0
  108778 WT7  2669 TIP3 OH2  OT    -0.834000       15.9994           0
  108779 WT7  2669 TIP3 H1   HT     0.417000        1.0080           0
  108780 WT7  2669 TIP3 H2   HT     0.417000        1.0080           0
  108781 WT7  2670 TIP3 OH2  OT    -0.834000       15.9994           0
  108782 WT7  2670 TIP3 H1   HT     0.417000        1.0080           0
  108783 WT7  2670 TIP3 H2   HT     0.417000        1.0080           0
  108784 WT7  2672 TIP3 OH2  OT    -0.834000       15.9994           0
  108785 WT7  2672 TIP3 H1   HT     0.417000        1.0080           0
  108786 WT7  2672 TIP3 H2   HT     0.417000        1.0080           0
  108787 WT7  2673 TIP3 OH2  OT    -0.834000       15.9994           0
  108788 WT7  2673 TIP3 H1   HT     0.417000        1.0080           0
  108789 WT7  2673 TIP3 H2   HT     0.417000        1.0080           0
  108790 WT7  2674 TIP3 OH2  OT    -0.834000       15.9994           0
  108791 WT7  2674 TIP3 H1   HT     0.417000        1.0080           0
  108792 WT7  2674 TIP3 H2   HT     0.417000        1.0080           0
  108793 WT7  2675 TIP3 OH2  OT    -0.834000       15.9994           0
  108794 WT7  2675 TIP3 H1   HT     0.417000        1.0080           0
  108795 WT7  2675 TIP3 H2   HT     0.417000        1.0080           0
  108796 WT7  2676 TIP3 OH2  OT    -0.834000       15.9994           0
  108797 WT7  2676 TIP3 H1   HT     0.417000        1.0080           0
  108798 WT7  2676 TIP3 H2   HT     0.417000        1.0080           0
  108799 WT7  2677 TIP3 OH2  OT    -0.834000       15.9994           0
  108800 WT7  2677 TIP3 H1   HT     0.417000        1.0080           0
  108801 WT7  2677 TIP3 H2   HT     0.417000        1.0080           0
  108802 WT7  2678 TIP3 OH2  OT    -0.834000       15.9994           0
  108803 WT7  2678 TIP3 H1   HT     0.417000        1.0080           0
  108804 WT7  2678 TIP3 H2   HT     0.417000        1.0080           0
  108805 WT7  2680 TIP3 OH2  OT    -0.834000       15.9994           0
  108806 WT7  2680 TIP3 H1   HT     0.417000        1.0080           0
  108807 WT7  2680 TIP3 H2   HT     0.417000        1.0080           0
  108808 WT7  2681 TIP3 OH2  OT    -0.834000       15.9994           0
  108809 WT7  2681 TIP3 H1   HT     0.417000        1.0080           0
  108810 WT7  2681 TIP3 H2   HT     0.417000        1.0080           0
  108811 WT7  2682 TIP3 OH2  OT    -0.834000       15.9994           0
  108812 WT7  2682 TIP3 H1   HT     0.417000        1.0080           0
  108813 WT7  2682 TIP3 H2   HT     0.417000        1.0080           0
  108814 WT7  2683 TIP3 OH2  OT    -0.834000       15.9994           0
  108815 WT7  2683 TIP3 H1   HT     0.417000        1.0080           0
  108816 WT7  2683 TIP3 H2   HT     0.417000        1.0080           0
  108817 WT7  2684 TIP3 OH2  OT    -0.834000       15.9994           0
  108818 WT7  2684 TIP3 H1   HT     0.417000        1.0080           0
  108819 WT7  2684 TIP3 H2   HT     0.417000        1.0080           0
  108820 WT7  2686 TIP3 OH2  OT    -0.834000       15.9994           0
  108821 WT7  2686 TIP3 H1   HT     0.417000        1.0080           0
  108822 WT7  2686 TIP3 H2   HT     0.417000        1.0080           0
  108823 WT7  2688 TIP3 OH2  OT    -0.834000       15.9994           0
  108824 WT7  2688 TIP3 H1   HT     0.417000        1.0080           0
  108825 WT7  2688 TIP3 H2   HT     0.417000        1.0080           0
  108826 WT7  2689 TIP3 OH2  OT    -0.834000       15.9994           0
  108827 WT7  2689 TIP3 H1   HT     0.417000        1.0080           0
  108828 WT7  2689 TIP3 H2   HT     0.417000        1.0080           0
  108829 WT7  2690 TIP3 OH2  OT    -0.834000       15.9994           0
  108830 WT7  2690 TIP3 H1   HT     0.417000        1.0080           0
  108831 WT7  2690 TIP3 H2   HT     0.417000        1.0080           0
  108832 WT7  2691 TIP3 OH2  OT    -0.834000       15.9994           0
  108833 WT7  2691 TIP3 H1   HT     0.417000        1.0080           0
  108834 WT7  2691 TIP3 H2   HT     0.417000        1.0080           0
  108835 WT7  2692 TIP3 OH2  OT    -0.834000       15.9994           0
  108836 WT7  2692 TIP3 H1   HT     0.417000        1.0080           0
  108837 WT7  2692 TIP3 H2   HT     0.417000        1.0080           0
  108838 WT7  2693 TIP3 OH2  OT    -0.834000       15.9994           0
  108839 WT7  2693 TIP3 H1   HT     0.417000        1.0080           0
  108840 WT7  2693 TIP3 H2   HT     0.417000        1.0080           0
  108841 WT7  2694 TIP3 OH2  OT    -0.834000       15.9994           0
  108842 WT7  2694 TIP3 H1   HT     0.417000        1.0080           0
  108843 WT7  2694 TIP3 H2   HT     0.417000        1.0080           0
  108844 WT7  2695 TIP3 OH2  OT    -0.834000       15.9994           0
  108845 WT7  2695 TIP3 H1   HT     0.417000        1.0080           0
  108846 WT7  2695 TIP3 H2   HT     0.417000        1.0080           0
  108847 WT7  2696 TIP3 OH2  OT    -0.834000       15.9994           0
  108848 WT7  2696 TIP3 H1   HT     0.417000        1.0080           0
  108849 WT7  2696 TIP3 H2   HT     0.417000        1.0080           0
  108850 WT7  2697 TIP3 OH2  OT    -0.834000       15.9994           0
  108851 WT7  2697 TIP3 H1   HT     0.417000        1.0080           0
  108852 WT7  2697 TIP3 H2   HT     0.417000        1.0080           0
  108853 WT7  2698 TIP3 OH2  OT    -0.834000       15.9994           0
  108854 WT7  2698 TIP3 H1   HT     0.417000        1.0080           0
  108855 WT7  2698 TIP3 H2   HT     0.417000        1.0080           0
  108856 WT7  2699 TIP3 OH2  OT    -0.834000       15.9994           0
  108857 WT7  2699 TIP3 H1   HT     0.417000        1.0080           0
  108858 WT7  2699 TIP3 H2   HT     0.417000        1.0080           0
  108859 WT7  2700 TIP3 OH2  OT    -0.834000       15.9994           0
  108860 WT7  2700 TIP3 H1   HT     0.417000        1.0080           0
  108861 WT7  2700 TIP3 H2   HT     0.417000        1.0080           0
  108862 WT7  2701 TIP3 OH2  OT    -0.834000       15.9994           0
  108863 WT7  2701 TIP3 H1   HT     0.417000        1.0080           0
  108864 WT7  2701 TIP3 H2   HT     0.417000        1.0080           0
  108865 WT7  2702 TIP3 OH2  OT    -0.834000       15.9994           0
  108866 WT7  2702 TIP3 H1   HT     0.417000        1.0080           0
  108867 WT7  2702 TIP3 H2   HT     0.417000        1.0080           0
  108868 WT7  2703 TIP3 OH2  OT    -0.834000       15.9994           0
  108869 WT7  2703 TIP3 H1   HT     0.417000        1.0080           0
  108870 WT7  2703 TIP3 H2   HT     0.417000        1.0080           0
  108871 WT7  2705 TIP3 OH2  OT    -0.834000       15.9994           0
  108872 WT7  2705 TIP3 H1   HT     0.417000        1.0080           0
  108873 WT7  2705 TIP3 H2   HT     0.417000        1.0080           0
  108874 WT7  2707 TIP3 OH2  OT    -0.834000       15.9994           0
  108875 WT7  2707 TIP3 H1   HT     0.417000        1.0080           0
  108876 WT7  2707 TIP3 H2   HT     0.417000        1.0080           0
  108877 WT7  2708 TIP3 OH2  OT    -0.834000       15.9994           0
  108878 WT7  2708 TIP3 H1   HT     0.417000        1.0080           0
  108879 WT7  2708 TIP3 H2   HT     0.417000        1.0080           0
  108880 WT7  2709 TIP3 OH2  OT    -0.834000       15.9994           0
  108881 WT7  2709 TIP3 H1   HT     0.417000        1.0080           0
  108882 WT7  2709 TIP3 H2   HT     0.417000        1.0080           0
  108883 WT7  2710 TIP3 OH2  OT    -0.834000       15.9994           0
  108884 WT7  2710 TIP3 H1   HT     0.417000        1.0080           0
  108885 WT7  2710 TIP3 H2   HT     0.417000        1.0080           0
  108886 WT7  2711 TIP3 OH2  OT    -0.834000       15.9994           0
  108887 WT7  2711 TIP3 H1   HT     0.417000        1.0080           0
  108888 WT7  2711 TIP3 H2   HT     0.417000        1.0080           0
  108889 WT7  2713 TIP3 OH2  OT    -0.834000       15.9994           0
  108890 WT7  2713 TIP3 H1   HT     0.417000        1.0080           0
  108891 WT7  2713 TIP3 H2   HT     0.417000        1.0080           0
  108892 WT7  2714 TIP3 OH2  OT    -0.834000       15.9994           0
  108893 WT7  2714 TIP3 H1   HT     0.417000        1.0080           0
  108894 WT7  2714 TIP3 H2   HT     0.417000        1.0080           0
  108895 WT7  2715 TIP3 OH2  OT    -0.834000       15.9994           0
  108896 WT7  2715 TIP3 H1   HT     0.417000        1.0080           0
  108897 WT7  2715 TIP3 H2   HT     0.417000        1.0080           0
  108898 WT7  2717 TIP3 OH2  OT    -0.834000       15.9994           0
  108899 WT7  2717 TIP3 H1   HT     0.417000        1.0080           0
  108900 WT7  2717 TIP3 H2   HT     0.417000        1.0080           0
  108901 WT7  2718 TIP3 OH2  OT    -0.834000       15.9994           0
  108902 WT7  2718 TIP3 H1   HT     0.417000        1.0080           0
  108903 WT7  2718 TIP3 H2   HT     0.417000        1.0080           0
  108904 WT7  2719 TIP3 OH2  OT    -0.834000       15.9994           0
  108905 WT7  2719 TIP3 H1   HT     0.417000        1.0080           0
  108906 WT7  2719 TIP3 H2   HT     0.417000        1.0080           0
  108907 WT7  2720 TIP3 OH2  OT    -0.834000       15.9994           0
  108908 WT7  2720 TIP3 H1   HT     0.417000        1.0080           0
  108909 WT7  2720 TIP3 H2   HT     0.417000        1.0080           0
  108910 WT7  2721 TIP3 OH2  OT    -0.834000       15.9994           0
  108911 WT7  2721 TIP3 H1   HT     0.417000        1.0080           0
  108912 WT7  2721 TIP3 H2   HT     0.417000        1.0080           0
  108913 WT7  2722 TIP3 OH2  OT    -0.834000       15.9994           0
  108914 WT7  2722 TIP3 H1   HT     0.417000        1.0080           0
  108915 WT7  2722 TIP3 H2   HT     0.417000        1.0080           0
  108916 WT7  2723 TIP3 OH2  OT    -0.834000       15.9994           0
  108917 WT7  2723 TIP3 H1   HT     0.417000        1.0080           0
  108918 WT7  2723 TIP3 H2   HT     0.417000        1.0080           0
  108919 WT7  2724 TIP3 OH2  OT    -0.834000       15.9994           0
  108920 WT7  2724 TIP3 H1   HT     0.417000        1.0080           0
  108921 WT7  2724 TIP3 H2   HT     0.417000        1.0080           0
  108922 WT7  2728 TIP3 OH2  OT    -0.834000       15.9994           0
  108923 WT7  2728 TIP3 H1   HT     0.417000        1.0080           0
  108924 WT7  2728 TIP3 H2   HT     0.417000        1.0080           0
  108925 WT7  2730 TIP3 OH2  OT    -0.834000       15.9994           0
  108926 WT7  2730 TIP3 H1   HT     0.417000        1.0080           0
  108927 WT7  2730 TIP3 H2   HT     0.417000        1.0080           0
  108928 WT7  2731 TIP3 OH2  OT    -0.834000       15.9994           0
  108929 WT7  2731 TIP3 H1   HT     0.417000        1.0080           0
  108930 WT7  2731 TIP3 H2   HT     0.417000        1.0080           0
  108931 WT7  2732 TIP3 OH2  OT    -0.834000       15.9994           0
  108932 WT7  2732 TIP3 H1   HT     0.417000        1.0080           0
  108933 WT7  2732 TIP3 H2   HT     0.417000        1.0080           0
  108934 WT7  2733 TIP3 OH2  OT    -0.834000       15.9994           0
  108935 WT7  2733 TIP3 H1   HT     0.417000        1.0080           0
  108936 WT7  2733 TIP3 H2   HT     0.417000        1.0080           0
  108937 WT7  2734 TIP3 OH2  OT    -0.834000       15.9994           0
  108938 WT7  2734 TIP3 H1   HT     0.417000        1.0080           0
  108939 WT7  2734 TIP3 H2   HT     0.417000        1.0080           0
  108940 WT7  2735 TIP3 OH2  OT    -0.834000       15.9994           0
  108941 WT7  2735 TIP3 H1   HT     0.417000        1.0080           0
  108942 WT7  2735 TIP3 H2   HT     0.417000        1.0080           0
  108943 WT7  2736 TIP3 OH2  OT    -0.834000       15.9994           0
  108944 WT7  2736 TIP3 H1   HT     0.417000        1.0080           0
  108945 WT7  2736 TIP3 H2   HT     0.417000        1.0080           0
  108946 WT7  2737 TIP3 OH2  OT    -0.834000       15.9994           0
  108947 WT7  2737 TIP3 H1   HT     0.417000        1.0080           0
  108948 WT7  2737 TIP3 H2   HT     0.417000        1.0080           0
  108949 WT7  2738 TIP3 OH2  OT    -0.834000       15.9994           0
  108950 WT7  2738 TIP3 H1   HT     0.417000        1.0080           0
  108951 WT7  2738 TIP3 H2   HT     0.417000        1.0080           0
  108952 WT7  2739 TIP3 OH2  OT    -0.834000       15.9994           0
  108953 WT7  2739 TIP3 H1   HT     0.417000        1.0080           0
  108954 WT7  2739 TIP3 H2   HT     0.417000        1.0080           0
  108955 WT7  2740 TIP3 OH2  OT    -0.834000       15.9994           0
  108956 WT7  2740 TIP3 H1   HT     0.417000        1.0080           0
  108957 WT7  2740 TIP3 H2   HT     0.417000        1.0080           0
  108958 WT7  2741 TIP3 OH2  OT    -0.834000       15.9994           0
  108959 WT7  2741 TIP3 H1   HT     0.417000        1.0080           0
  108960 WT7  2741 TIP3 H2   HT     0.417000        1.0080           0
  108961 WT7  2743 TIP3 OH2  OT    -0.834000       15.9994           0
  108962 WT7  2743 TIP3 H1   HT     0.417000        1.0080           0
  108963 WT7  2743 TIP3 H2   HT     0.417000        1.0080           0
  108964 WT7  2746 TIP3 OH2  OT    -0.834000       15.9994           0
  108965 WT7  2746 TIP3 H1   HT     0.417000        1.0080           0
  108966 WT7  2746 TIP3 H2   HT     0.417000        1.0080           0
  108967 WT7  2749 TIP3 OH2  OT    -0.834000       15.9994           0
  108968 WT7  2749 TIP3 H1   HT     0.417000        1.0080           0
  108969 WT7  2749 TIP3 H2   HT     0.417000        1.0080           0
  108970 WT7  2750 TIP3 OH2  OT    -0.834000       15.9994           0
  108971 WT7  2750 TIP3 H1   HT     0.417000        1.0080           0
  108972 WT7  2750 TIP3 H2   HT     0.417000        1.0080           0
  108973 WT7  2752 TIP3 OH2  OT    -0.834000       15.9994           0
  108974 WT7  2752 TIP3 H1   HT     0.417000        1.0080           0
  108975 WT7  2752 TIP3 H2   HT     0.417000        1.0080           0
  108976 WT7  2753 TIP3 OH2  OT    -0.834000       15.9994           0
  108977 WT7  2753 TIP3 H1   HT     0.417000        1.0080           0
  108978 WT7  2753 TIP3 H2   HT     0.417000        1.0080           0
  108979 WT7  2754 TIP3 OH2  OT    -0.834000       15.9994           0
  108980 WT7  2754 TIP3 H1   HT     0.417000        1.0080           0
  108981 WT7  2754 TIP3 H2   HT     0.417000        1.0080           0
  108982 WT7  2755 TIP3 OH2  OT    -0.834000       15.9994           0
  108983 WT7  2755 TIP3 H1   HT     0.417000        1.0080           0
  108984 WT7  2755 TIP3 H2   HT     0.417000        1.0080           0
  108985 WT7  2756 TIP3 OH2  OT    -0.834000       15.9994           0
  108986 WT7  2756 TIP3 H1   HT     0.417000        1.0080           0
  108987 WT7  2756 TIP3 H2   HT     0.417000        1.0080           0
  108988 WT7  2757 TIP3 OH2  OT    -0.834000       15.9994           0
  108989 WT7  2757 TIP3 H1   HT     0.417000        1.0080           0
  108990 WT7  2757 TIP3 H2   HT     0.417000        1.0080           0
  108991 WT7  2758 TIP3 OH2  OT    -0.834000       15.9994           0
  108992 WT7  2758 TIP3 H1   HT     0.417000        1.0080           0
  108993 WT7  2758 TIP3 H2   HT     0.417000        1.0080           0
  108994 WT7  2759 TIP3 OH2  OT    -0.834000       15.9994           0
  108995 WT7  2759 TIP3 H1   HT     0.417000        1.0080           0
  108996 WT7  2759 TIP3 H2   HT     0.417000        1.0080           0
  108997 WT7  2760 TIP3 OH2  OT    -0.834000       15.9994           0
  108998 WT7  2760 TIP3 H1   HT     0.417000        1.0080           0
  108999 WT7  2760 TIP3 H2   HT     0.417000        1.0080           0
  109000 WT7  2761 TIP3 OH2  OT    -0.834000       15.9994           0
  109001 WT7  2761 TIP3 H1   HT     0.417000        1.0080           0
  109002 WT7  2761 TIP3 H2   HT     0.417000        1.0080           0
  109003 WT7  2762 TIP3 OH2  OT    -0.834000       15.9994           0
  109004 WT7  2762 TIP3 H1   HT     0.417000        1.0080           0
  109005 WT7  2762 TIP3 H2   HT     0.417000        1.0080           0
  109006 WT7  2765 TIP3 OH2  OT    -0.834000       15.9994           0
  109007 WT7  2765 TIP3 H1   HT     0.417000        1.0080           0
  109008 WT7  2765 TIP3 H2   HT     0.417000        1.0080           0
  109009 WT7  2766 TIP3 OH2  OT    -0.834000       15.9994           0
  109010 WT7  2766 TIP3 H1   HT     0.417000        1.0080           0
  109011 WT7  2766 TIP3 H2   HT     0.417000        1.0080           0
  109012 WT7  2767 TIP3 OH2  OT    -0.834000       15.9994           0
  109013 WT7  2767 TIP3 H1   HT     0.417000        1.0080           0
  109014 WT7  2767 TIP3 H2   HT     0.417000        1.0080           0
  109015 WT7  2768 TIP3 OH2  OT    -0.834000       15.9994           0
  109016 WT7  2768 TIP3 H1   HT     0.417000        1.0080           0
  109017 WT7  2768 TIP3 H2   HT     0.417000        1.0080           0
  109018 WT7  2769 TIP3 OH2  OT    -0.834000       15.9994           0
  109019 WT7  2769 TIP3 H1   HT     0.417000        1.0080           0
  109020 WT7  2769 TIP3 H2   HT     0.417000        1.0080           0
  109021 WT7  2771 TIP3 OH2  OT    -0.834000       15.9994           0
  109022 WT7  2771 TIP3 H1   HT     0.417000        1.0080           0
  109023 WT7  2771 TIP3 H2   HT     0.417000        1.0080           0
  109024 WT7  2772 TIP3 OH2  OT    -0.834000       15.9994           0
  109025 WT7  2772 TIP3 H1   HT     0.417000        1.0080           0
  109026 WT7  2772 TIP3 H2   HT     0.417000        1.0080           0
  109027 WT7  2774 TIP3 OH2  OT    -0.834000       15.9994           0
  109028 WT7  2774 TIP3 H1   HT     0.417000        1.0080           0
  109029 WT7  2774 TIP3 H2   HT     0.417000        1.0080           0
  109030 WT7  2775 TIP3 OH2  OT    -0.834000       15.9994           0
  109031 WT7  2775 TIP3 H1   HT     0.417000        1.0080           0
  109032 WT7  2775 TIP3 H2   HT     0.417000        1.0080           0
  109033 WT7  2776 TIP3 OH2  OT    -0.834000       15.9994           0
  109034 WT7  2776 TIP3 H1   HT     0.417000        1.0080           0
  109035 WT7  2776 TIP3 H2   HT     0.417000        1.0080           0
  109036 WT7  2777 TIP3 OH2  OT    -0.834000       15.9994           0
  109037 WT7  2777 TIP3 H1   HT     0.417000        1.0080           0
  109038 WT7  2777 TIP3 H2   HT     0.417000        1.0080           0
  109039 WT7  2778 TIP3 OH2  OT    -0.834000       15.9994           0
  109040 WT7  2778 TIP3 H1   HT     0.417000        1.0080           0
  109041 WT7  2778 TIP3 H2   HT     0.417000        1.0080           0
  109042 WT7  2779 TIP3 OH2  OT    -0.834000       15.9994           0
  109043 WT7  2779 TIP3 H1   HT     0.417000        1.0080           0
  109044 WT7  2779 TIP3 H2   HT     0.417000        1.0080           0
  109045 WT7  2780 TIP3 OH2  OT    -0.834000       15.9994           0
  109046 WT7  2780 TIP3 H1   HT     0.417000        1.0080           0
  109047 WT7  2780 TIP3 H2   HT     0.417000        1.0080           0
  109048 WT7  2781 TIP3 OH2  OT    -0.834000       15.9994           0
  109049 WT7  2781 TIP3 H1   HT     0.417000        1.0080           0
  109050 WT7  2781 TIP3 H2   HT     0.417000        1.0080           0
  109051 WT7  2782 TIP3 OH2  OT    -0.834000       15.9994           0
  109052 WT7  2782 TIP3 H1   HT     0.417000        1.0080           0
  109053 WT7  2782 TIP3 H2   HT     0.417000        1.0080           0
  109054 WT7  2783 TIP3 OH2  OT    -0.834000       15.9994           0
  109055 WT7  2783 TIP3 H1   HT     0.417000        1.0080           0
  109056 WT7  2783 TIP3 H2   HT     0.417000        1.0080           0
  109057 WT7  2784 TIP3 OH2  OT    -0.834000       15.9994           0
  109058 WT7  2784 TIP3 H1   HT     0.417000        1.0080           0
  109059 WT7  2784 TIP3 H2   HT     0.417000        1.0080           0
  109060 WT7  2785 TIP3 OH2  OT    -0.834000       15.9994           0
  109061 WT7  2785 TIP3 H1   HT     0.417000        1.0080           0
  109062 WT7  2785 TIP3 H2   HT     0.417000        1.0080           0
  109063 WT7  2786 TIP3 OH2  OT    -0.834000       15.9994           0
  109064 WT7  2786 TIP3 H1   HT     0.417000        1.0080           0
  109065 WT7  2786 TIP3 H2   HT     0.417000        1.0080           0
  109066 WT7  2787 TIP3 OH2  OT    -0.834000       15.9994           0
  109067 WT7  2787 TIP3 H1   HT     0.417000        1.0080           0
  109068 WT7  2787 TIP3 H2   HT     0.417000        1.0080           0
  109069 WT7  2790 TIP3 OH2  OT    -0.834000       15.9994           0
  109070 WT7  2790 TIP3 H1   HT     0.417000        1.0080           0
  109071 WT7  2790 TIP3 H2   HT     0.417000        1.0080           0
  109072 WT7  2794 TIP3 OH2  OT    -0.834000       15.9994           0
  109073 WT7  2794 TIP3 H1   HT     0.417000        1.0080           0
  109074 WT7  2794 TIP3 H2   HT     0.417000        1.0080           0
  109075 WT7  2795 TIP3 OH2  OT    -0.834000       15.9994           0
  109076 WT7  2795 TIP3 H1   HT     0.417000        1.0080           0
  109077 WT7  2795 TIP3 H2   HT     0.417000        1.0080           0
  109078 WT7  2796 TIP3 OH2  OT    -0.834000       15.9994           0
  109079 WT7  2796 TIP3 H1   HT     0.417000        1.0080           0
  109080 WT7  2796 TIP3 H2   HT     0.417000        1.0080           0
  109081 WT7  2797 TIP3 OH2  OT    -0.834000       15.9994           0
  109082 WT7  2797 TIP3 H1   HT     0.417000        1.0080           0
  109083 WT7  2797 TIP3 H2   HT     0.417000        1.0080           0
  109084 WT7  2799 TIP3 OH2  OT    -0.834000       15.9994           0
  109085 WT7  2799 TIP3 H1   HT     0.417000        1.0080           0
  109086 WT7  2799 TIP3 H2   HT     0.417000        1.0080           0
  109087 WT7  2800 TIP3 OH2  OT    -0.834000       15.9994           0
  109088 WT7  2800 TIP3 H1   HT     0.417000        1.0080           0
  109089 WT7  2800 TIP3 H2   HT     0.417000        1.0080           0
  109090 WT7  2801 TIP3 OH2  OT    -0.834000       15.9994           0
  109091 WT7  2801 TIP3 H1   HT     0.417000        1.0080           0
  109092 WT7  2801 TIP3 H2   HT     0.417000        1.0080           0
  109093 WT7  2802 TIP3 OH2  OT    -0.834000       15.9994           0
  109094 WT7  2802 TIP3 H1   HT     0.417000        1.0080           0
  109095 WT7  2802 TIP3 H2   HT     0.417000        1.0080           0
  109096 WT7  2803 TIP3 OH2  OT    -0.834000       15.9994           0
  109097 WT7  2803 TIP3 H1   HT     0.417000        1.0080           0
  109098 WT7  2803 TIP3 H2   HT     0.417000        1.0080           0
  109099 WT7  2804 TIP3 OH2  OT    -0.834000       15.9994           0
  109100 WT7  2804 TIP3 H1   HT     0.417000        1.0080           0
  109101 WT7  2804 TIP3 H2   HT     0.417000        1.0080           0
  109102 WT7  2805 TIP3 OH2  OT    -0.834000       15.9994           0
  109103 WT7  2805 TIP3 H1   HT     0.417000        1.0080           0
  109104 WT7  2805 TIP3 H2   HT     0.417000        1.0080           0
  109105 WT7  2806 TIP3 OH2  OT    -0.834000       15.9994           0
  109106 WT7  2806 TIP3 H1   HT     0.417000        1.0080           0
  109107 WT7  2806 TIP3 H2   HT     0.417000        1.0080           0
  109108 WT7  2807 TIP3 OH2  OT    -0.834000       15.9994           0
  109109 WT7  2807 TIP3 H1   HT     0.417000        1.0080           0
  109110 WT7  2807 TIP3 H2   HT     0.417000        1.0080           0
  109111 WT7  2808 TIP3 OH2  OT    -0.834000       15.9994           0
  109112 WT7  2808 TIP3 H1   HT     0.417000        1.0080           0
  109113 WT7  2808 TIP3 H2   HT     0.417000        1.0080           0
  109114 WT7  2809 TIP3 OH2  OT    -0.834000       15.9994           0
  109115 WT7  2809 TIP3 H1   HT     0.417000        1.0080           0
  109116 WT7  2809 TIP3 H2   HT     0.417000        1.0080           0
  109117 WT7  2810 TIP3 OH2  OT    -0.834000       15.9994           0
  109118 WT7  2810 TIP3 H1   HT     0.417000        1.0080           0
  109119 WT7  2810 TIP3 H2   HT     0.417000        1.0080           0
  109120 WT7  2811 TIP3 OH2  OT    -0.834000       15.9994           0
  109121 WT7  2811 TIP3 H1   HT     0.417000        1.0080           0
  109122 WT7  2811 TIP3 H2   HT     0.417000        1.0080           0
  109123 WT7  2815 TIP3 OH2  OT    -0.834000       15.9994           0
  109124 WT7  2815 TIP3 H1   HT     0.417000        1.0080           0
  109125 WT7  2815 TIP3 H2   HT     0.417000        1.0080           0
  109126 WT7  2816 TIP3 OH2  OT    -0.834000       15.9994           0
  109127 WT7  2816 TIP3 H1   HT     0.417000        1.0080           0
  109128 WT7  2816 TIP3 H2   HT     0.417000        1.0080           0
  109129 WT7  2817 TIP3 OH2  OT    -0.834000       15.9994           0
  109130 WT7  2817 TIP3 H1   HT     0.417000        1.0080           0
  109131 WT7  2817 TIP3 H2   HT     0.417000        1.0080           0
  109132 WT7  2818 TIP3 OH2  OT    -0.834000       15.9994           0
  109133 WT7  2818 TIP3 H1   HT     0.417000        1.0080           0
  109134 WT7  2818 TIP3 H2   HT     0.417000        1.0080           0
  109135 WT7  2819 TIP3 OH2  OT    -0.834000       15.9994           0
  109136 WT7  2819 TIP3 H1   HT     0.417000        1.0080           0
  109137 WT7  2819 TIP3 H2   HT     0.417000        1.0080           0
  109138 WT7  2820 TIP3 OH2  OT    -0.834000       15.9994           0
  109139 WT7  2820 TIP3 H1   HT     0.417000        1.0080           0
  109140 WT7  2820 TIP3 H2   HT     0.417000        1.0080           0
  109141 WT7  2822 TIP3 OH2  OT    -0.834000       15.9994           0
  109142 WT7  2822 TIP3 H1   HT     0.417000        1.0080           0
  109143 WT7  2822 TIP3 H2   HT     0.417000        1.0080           0
  109144 WT7  2823 TIP3 OH2  OT    -0.834000       15.9994           0
  109145 WT7  2823 TIP3 H1   HT     0.417000        1.0080           0
  109146 WT7  2823 TIP3 H2   HT     0.417000        1.0080           0
  109147 WT7  2824 TIP3 OH2  OT    -0.834000       15.9994           0
  109148 WT7  2824 TIP3 H1   HT     0.417000        1.0080           0
  109149 WT7  2824 TIP3 H2   HT     0.417000        1.0080           0
  109150 WT7  2825 TIP3 OH2  OT    -0.834000       15.9994           0
  109151 WT7  2825 TIP3 H1   HT     0.417000        1.0080           0
  109152 WT7  2825 TIP3 H2   HT     0.417000        1.0080           0
  109153 WT7  2826 TIP3 OH2  OT    -0.834000       15.9994           0
  109154 WT7  2826 TIP3 H1   HT     0.417000        1.0080           0
  109155 WT7  2826 TIP3 H2   HT     0.417000        1.0080           0
  109156 WT7  2827 TIP3 OH2  OT    -0.834000       15.9994           0
  109157 WT7  2827 TIP3 H1   HT     0.417000        1.0080           0
  109158 WT7  2827 TIP3 H2   HT     0.417000        1.0080           0
  109159 WT7  2829 TIP3 OH2  OT    -0.834000       15.9994           0
  109160 WT7  2829 TIP3 H1   HT     0.417000        1.0080           0
  109161 WT7  2829 TIP3 H2   HT     0.417000        1.0080           0
  109162 WT7  2830 TIP3 OH2  OT    -0.834000       15.9994           0
  109163 WT7  2830 TIP3 H1   HT     0.417000        1.0080           0
  109164 WT7  2830 TIP3 H2   HT     0.417000        1.0080           0
  109165 WT7  2831 TIP3 OH2  OT    -0.834000       15.9994           0
  109166 WT7  2831 TIP3 H1   HT     0.417000        1.0080           0
  109167 WT7  2831 TIP3 H2   HT     0.417000        1.0080           0
  109168 WT7  2832 TIP3 OH2  OT    -0.834000       15.9994           0
  109169 WT7  2832 TIP3 H1   HT     0.417000        1.0080           0
  109170 WT7  2832 TIP3 H2   HT     0.417000        1.0080           0
  109171 WT7  2834 TIP3 OH2  OT    -0.834000       15.9994           0
  109172 WT7  2834 TIP3 H1   HT     0.417000        1.0080           0
  109173 WT7  2834 TIP3 H2   HT     0.417000        1.0080           0
  109174 WT7  2836 TIP3 OH2  OT    -0.834000       15.9994           0
  109175 WT7  2836 TIP3 H1   HT     0.417000        1.0080           0
  109176 WT7  2836 TIP3 H2   HT     0.417000        1.0080           0
  109177 WT7  2837 TIP3 OH2  OT    -0.834000       15.9994           0
  109178 WT7  2837 TIP3 H1   HT     0.417000        1.0080           0
  109179 WT7  2837 TIP3 H2   HT     0.417000        1.0080           0
  109180 WT7  2839 TIP3 OH2  OT    -0.834000       15.9994           0
  109181 WT7  2839 TIP3 H1   HT     0.417000        1.0080           0
  109182 WT7  2839 TIP3 H2   HT     0.417000        1.0080           0
  109183 WT7  2840 TIP3 OH2  OT    -0.834000       15.9994           0
  109184 WT7  2840 TIP3 H1   HT     0.417000        1.0080           0
  109185 WT7  2840 TIP3 H2   HT     0.417000        1.0080           0
  109186 WT7  2841 TIP3 OH2  OT    -0.834000       15.9994           0
  109187 WT7  2841 TIP3 H1   HT     0.417000        1.0080           0
  109188 WT7  2841 TIP3 H2   HT     0.417000        1.0080           0
  109189 WT7  2842 TIP3 OH2  OT    -0.834000       15.9994           0
  109190 WT7  2842 TIP3 H1   HT     0.417000        1.0080           0
  109191 WT7  2842 TIP3 H2   HT     0.417000        1.0080           0
  109192 WT7  2843 TIP3 OH2  OT    -0.834000       15.9994           0
  109193 WT7  2843 TIP3 H1   HT     0.417000        1.0080           0
  109194 WT7  2843 TIP3 H2   HT     0.417000        1.0080           0
  109195 WT7  2844 TIP3 OH2  OT    -0.834000       15.9994           0
  109196 WT7  2844 TIP3 H1   HT     0.417000        1.0080           0
  109197 WT7  2844 TIP3 H2   HT     0.417000        1.0080           0
  109198 WT7  2845 TIP3 OH2  OT    -0.834000       15.9994           0
  109199 WT7  2845 TIP3 H1   HT     0.417000        1.0080           0
  109200 WT7  2845 TIP3 H2   HT     0.417000        1.0080           0
  109201 WT7  2846 TIP3 OH2  OT    -0.834000       15.9994           0
  109202 WT7  2846 TIP3 H1   HT     0.417000        1.0080           0
  109203 WT7  2846 TIP3 H2   HT     0.417000        1.0080           0
  109204 WT7  2847 TIP3 OH2  OT    -0.834000       15.9994           0
  109205 WT7  2847 TIP3 H1   HT     0.417000        1.0080           0
  109206 WT7  2847 TIP3 H2   HT     0.417000        1.0080           0
  109207 WT7  2848 TIP3 OH2  OT    -0.834000       15.9994           0
  109208 WT7  2848 TIP3 H1   HT     0.417000        1.0080           0
  109209 WT7  2848 TIP3 H2   HT     0.417000        1.0080           0
  109210 WT7  2850 TIP3 OH2  OT    -0.834000       15.9994           0
  109211 WT7  2850 TIP3 H1   HT     0.417000        1.0080           0
  109212 WT7  2850 TIP3 H2   HT     0.417000        1.0080           0
  109213 WT7  2852 TIP3 OH2  OT    -0.834000       15.9994           0
  109214 WT7  2852 TIP3 H1   HT     0.417000        1.0080           0
  109215 WT7  2852 TIP3 H2   HT     0.417000        1.0080           0
  109216 WT7  2853 TIP3 OH2  OT    -0.834000       15.9994           0
  109217 WT7  2853 TIP3 H1   HT     0.417000        1.0080           0
  109218 WT7  2853 TIP3 H2   HT     0.417000        1.0080           0
  109219 WT7  2854 TIP3 OH2  OT    -0.834000       15.9994           0
  109220 WT7  2854 TIP3 H1   HT     0.417000        1.0080           0
  109221 WT7  2854 TIP3 H2   HT     0.417000        1.0080           0
  109222 WT7  2855 TIP3 OH2  OT    -0.834000       15.9994           0
  109223 WT7  2855 TIP3 H1   HT     0.417000        1.0080           0
  109224 WT7  2855 TIP3 H2   HT     0.417000        1.0080           0
  109225 WT7  2856 TIP3 OH2  OT    -0.834000       15.9994           0
  109226 WT7  2856 TIP3 H1   HT     0.417000        1.0080           0
  109227 WT7  2856 TIP3 H2   HT     0.417000        1.0080           0
  109228 WT7  2857 TIP3 OH2  OT    -0.834000       15.9994           0
  109229 WT7  2857 TIP3 H1   HT     0.417000        1.0080           0
  109230 WT7  2857 TIP3 H2   HT     0.417000        1.0080           0
  109231 WT7  2858 TIP3 OH2  OT    -0.834000       15.9994           0
  109232 WT7  2858 TIP3 H1   HT     0.417000        1.0080           0
  109233 WT7  2858 TIP3 H2   HT     0.417000        1.0080           0
  109234 WT7  2859 TIP3 OH2  OT    -0.834000       15.9994           0
  109235 WT7  2859 TIP3 H1   HT     0.417000        1.0080           0
  109236 WT7  2859 TIP3 H2   HT     0.417000        1.0080           0
  109237 WT7  2860 TIP3 OH2  OT    -0.834000       15.9994           0
  109238 WT7  2860 TIP3 H1   HT     0.417000        1.0080           0
  109239 WT7  2860 TIP3 H2   HT     0.417000        1.0080           0
  109240 WT7  2862 TIP3 OH2  OT    -0.834000       15.9994           0
  109241 WT7  2862 TIP3 H1   HT     0.417000        1.0080           0
  109242 WT7  2862 TIP3 H2   HT     0.417000        1.0080           0
  109243 WT7  2863 TIP3 OH2  OT    -0.834000       15.9994           0
  109244 WT7  2863 TIP3 H1   HT     0.417000        1.0080           0
  109245 WT7  2863 TIP3 H2   HT     0.417000        1.0080           0
  109246 WT7  2865 TIP3 OH2  OT    -0.834000       15.9994           0
  109247 WT7  2865 TIP3 H1   HT     0.417000        1.0080           0
  109248 WT7  2865 TIP3 H2   HT     0.417000        1.0080           0
  109249 WT7  2866 TIP3 OH2  OT    -0.834000       15.9994           0
  109250 WT7  2866 TIP3 H1   HT     0.417000        1.0080           0
  109251 WT7  2866 TIP3 H2   HT     0.417000        1.0080           0
  109252 WT7  2867 TIP3 OH2  OT    -0.834000       15.9994           0
  109253 WT7  2867 TIP3 H1   HT     0.417000        1.0080           0
  109254 WT7  2867 TIP3 H2   HT     0.417000        1.0080           0
  109255 WT7  2868 TIP3 OH2  OT    -0.834000       15.9994           0
  109256 WT7  2868 TIP3 H1   HT     0.417000        1.0080           0
  109257 WT7  2868 TIP3 H2   HT     0.417000        1.0080           0
  109258 WT7  2869 TIP3 OH2  OT    -0.834000       15.9994           0
  109259 WT7  2869 TIP3 H1   HT     0.417000        1.0080           0
  109260 WT7  2869 TIP3 H2   HT     0.417000        1.0080           0
  109261 WT7  2871 TIP3 OH2  OT    -0.834000       15.9994           0
  109262 WT7  2871 TIP3 H1   HT     0.417000        1.0080           0
  109263 WT7  2871 TIP3 H2   HT     0.417000        1.0080           0
  109264 WT7  2873 TIP3 OH2  OT    -0.834000       15.9994           0
  109265 WT7  2873 TIP3 H1   HT     0.417000        1.0080           0
  109266 WT7  2873 TIP3 H2   HT     0.417000        1.0080           0
  109267 WT7  2874 TIP3 OH2  OT    -0.834000       15.9994           0
  109268 WT7  2874 TIP3 H1   HT     0.417000        1.0080           0
  109269 WT7  2874 TIP3 H2   HT     0.417000        1.0080           0
  109270 WT7  2877 TIP3 OH2  OT    -0.834000       15.9994           0
  109271 WT7  2877 TIP3 H1   HT     0.417000        1.0080           0
  109272 WT7  2877 TIP3 H2   HT     0.417000        1.0080           0
  109273 WT7  2878 TIP3 OH2  OT    -0.834000       15.9994           0
  109274 WT7  2878 TIP3 H1   HT     0.417000        1.0080           0
  109275 WT7  2878 TIP3 H2   HT     0.417000        1.0080           0
  109276 WT7  2882 TIP3 OH2  OT    -0.834000       15.9994           0
  109277 WT7  2882 TIP3 H1   HT     0.417000        1.0080           0
  109278 WT7  2882 TIP3 H2   HT     0.417000        1.0080           0
  109279 WT7  2883 TIP3 OH2  OT    -0.834000       15.9994           0
  109280 WT7  2883 TIP3 H1   HT     0.417000        1.0080           0
  109281 WT7  2883 TIP3 H2   HT     0.417000        1.0080           0
  109282 WT7  2884 TIP3 OH2  OT    -0.834000       15.9994           0
  109283 WT7  2884 TIP3 H1   HT     0.417000        1.0080           0
  109284 WT7  2884 TIP3 H2   HT     0.417000        1.0080           0
  109285 WT7  2885 TIP3 OH2  OT    -0.834000       15.9994           0
  109286 WT7  2885 TIP3 H1   HT     0.417000        1.0080           0
  109287 WT7  2885 TIP3 H2   HT     0.417000        1.0080           0
  109288 WT7  2886 TIP3 OH2  OT    -0.834000       15.9994           0
  109289 WT7  2886 TIP3 H1   HT     0.417000        1.0080           0
  109290 WT7  2886 TIP3 H2   HT     0.417000        1.0080           0
  109291 WT7  2888 TIP3 OH2  OT    -0.834000       15.9994           0
  109292 WT7  2888 TIP3 H1   HT     0.417000        1.0080           0
  109293 WT7  2888 TIP3 H2   HT     0.417000        1.0080           0
  109294 WT7  2889 TIP3 OH2  OT    -0.834000       15.9994           0
  109295 WT7  2889 TIP3 H1   HT     0.417000        1.0080           0
  109296 WT7  2889 TIP3 H2   HT     0.417000        1.0080           0
  109297 WT7  2890 TIP3 OH2  OT    -0.834000       15.9994           0
  109298 WT7  2890 TIP3 H1   HT     0.417000        1.0080           0
  109299 WT7  2890 TIP3 H2   HT     0.417000        1.0080           0
  109300 WT7  2891 TIP3 OH2  OT    -0.834000       15.9994           0
  109301 WT7  2891 TIP3 H1   HT     0.417000        1.0080           0
  109302 WT7  2891 TIP3 H2   HT     0.417000        1.0080           0
  109303 WT7  2893 TIP3 OH2  OT    -0.834000       15.9994           0
  109304 WT7  2893 TIP3 H1   HT     0.417000        1.0080           0
  109305 WT7  2893 TIP3 H2   HT     0.417000        1.0080           0
  109306 WT7  2894 TIP3 OH2  OT    -0.834000       15.9994           0
  109307 WT7  2894 TIP3 H1   HT     0.417000        1.0080           0
  109308 WT7  2894 TIP3 H2   HT     0.417000        1.0080           0
  109309 WT7  2897 TIP3 OH2  OT    -0.834000       15.9994           0
  109310 WT7  2897 TIP3 H1   HT     0.417000        1.0080           0
  109311 WT7  2897 TIP3 H2   HT     0.417000        1.0080           0
  109312 WT7  2898 TIP3 OH2  OT    -0.834000       15.9994           0
  109313 WT7  2898 TIP3 H1   HT     0.417000        1.0080           0
  109314 WT7  2898 TIP3 H2   HT     0.417000        1.0080           0
  109315 WT7  2900 TIP3 OH2  OT    -0.834000       15.9994           0
  109316 WT7  2900 TIP3 H1   HT     0.417000        1.0080           0
  109317 WT7  2900 TIP3 H2   HT     0.417000        1.0080           0
  109318 WT7  2901 TIP3 OH2  OT    -0.834000       15.9994           0
  109319 WT7  2901 TIP3 H1   HT     0.417000        1.0080           0
  109320 WT7  2901 TIP3 H2   HT     0.417000        1.0080           0
  109321 WT7  2903 TIP3 OH2  OT    -0.834000       15.9994           0
  109322 WT7  2903 TIP3 H1   HT     0.417000        1.0080           0
  109323 WT7  2903 TIP3 H2   HT     0.417000        1.0080           0
  109324 WT7  2904 TIP3 OH2  OT    -0.834000       15.9994           0
  109325 WT7  2904 TIP3 H1   HT     0.417000        1.0080           0
  109326 WT7  2904 TIP3 H2   HT     0.417000        1.0080           0
  109327 WT7  2906 TIP3 OH2  OT    -0.834000       15.9994           0
  109328 WT7  2906 TIP3 H1   HT     0.417000        1.0080           0
  109329 WT7  2906 TIP3 H2   HT     0.417000        1.0080           0
  109330 WT7  2907 TIP3 OH2  OT    -0.834000       15.9994           0
  109331 WT7  2907 TIP3 H1   HT     0.417000        1.0080           0
  109332 WT7  2907 TIP3 H2   HT     0.417000        1.0080           0
  109333 WT7  2909 TIP3 OH2  OT    -0.834000       15.9994           0
  109334 WT7  2909 TIP3 H1   HT     0.417000        1.0080           0
  109335 WT7  2909 TIP3 H2   HT     0.417000        1.0080           0
  109336 WT7  2910 TIP3 OH2  OT    -0.834000       15.9994           0
  109337 WT7  2910 TIP3 H1   HT     0.417000        1.0080           0
  109338 WT7  2910 TIP3 H2   HT     0.417000        1.0080           0
  109339 WT7  2911 TIP3 OH2  OT    -0.834000       15.9994           0
  109340 WT7  2911 TIP3 H1   HT     0.417000        1.0080           0
  109341 WT7  2911 TIP3 H2   HT     0.417000        1.0080           0
  109342 WT7  2913 TIP3 OH2  OT    -0.834000       15.9994           0
  109343 WT7  2913 TIP3 H1   HT     0.417000        1.0080           0
  109344 WT7  2913 TIP3 H2   HT     0.417000        1.0080           0
  109345 WT7  2914 TIP3 OH2  OT    -0.834000       15.9994           0
  109346 WT7  2914 TIP3 H1   HT     0.417000        1.0080           0
  109347 WT7  2914 TIP3 H2   HT     0.417000        1.0080           0
  109348 WT7  2916 TIP3 OH2  OT    -0.834000       15.9994           0
  109349 WT7  2916 TIP3 H1   HT     0.417000        1.0080           0
  109350 WT7  2916 TIP3 H2   HT     0.417000        1.0080           0
  109351 WT7  2917 TIP3 OH2  OT    -0.834000       15.9994           0
  109352 WT7  2917 TIP3 H1   HT     0.417000        1.0080           0
  109353 WT7  2917 TIP3 H2   HT     0.417000        1.0080           0
  109354 WT7  2918 TIP3 OH2  OT    -0.834000       15.9994           0
  109355 WT7  2918 TIP3 H1   HT     0.417000        1.0080           0
  109356 WT7  2918 TIP3 H2   HT     0.417000        1.0080           0
  109357 WT7  2919 TIP3 OH2  OT    -0.834000       15.9994           0
  109358 WT7  2919 TIP3 H1   HT     0.417000        1.0080           0
  109359 WT7  2919 TIP3 H2   HT     0.417000        1.0080           0
  109360 WT7  2921 TIP3 OH2  OT    -0.834000       15.9994           0
  109361 WT7  2921 TIP3 H1   HT     0.417000        1.0080           0
  109362 WT7  2921 TIP3 H2   HT     0.417000        1.0080           0
  109363 WT7  2922 TIP3 OH2  OT    -0.834000       15.9994           0
  109364 WT7  2922 TIP3 H1   HT     0.417000        1.0080           0
  109365 WT7  2922 TIP3 H2   HT     0.417000        1.0080           0
  109366 WT7  2923 TIP3 OH2  OT    -0.834000       15.9994           0
  109367 WT7  2923 TIP3 H1   HT     0.417000        1.0080           0
  109368 WT7  2923 TIP3 H2   HT     0.417000        1.0080           0
  109369 WT7  2925 TIP3 OH2  OT    -0.834000       15.9994           0
  109370 WT7  2925 TIP3 H1   HT     0.417000        1.0080           0
  109371 WT7  2925 TIP3 H2   HT     0.417000        1.0080           0
  109372 WT7  2926 TIP3 OH2  OT    -0.834000       15.9994           0
  109373 WT7  2926 TIP3 H1   HT     0.417000        1.0080           0
  109374 WT7  2926 TIP3 H2   HT     0.417000        1.0080           0
  109375 WT7  2927 TIP3 OH2  OT    -0.834000       15.9994           0
  109376 WT7  2927 TIP3 H1   HT     0.417000        1.0080           0
  109377 WT7  2927 TIP3 H2   HT     0.417000        1.0080           0
  109378 WT7  2928 TIP3 OH2  OT    -0.834000       15.9994           0
  109379 WT7  2928 TIP3 H1   HT     0.417000        1.0080           0
  109380 WT7  2928 TIP3 H2   HT     0.417000        1.0080           0
  109381 WT7  2930 TIP3 OH2  OT    -0.834000       15.9994           0
  109382 WT7  2930 TIP3 H1   HT     0.417000        1.0080           0
  109383 WT7  2930 TIP3 H2   HT     0.417000        1.0080           0
  109384 WT7  2936 TIP3 OH2  OT    -0.834000       15.9994           0
  109385 WT7  2936 TIP3 H1   HT     0.417000        1.0080           0
  109386 WT7  2936 TIP3 H2   HT     0.417000        1.0080           0
  109387 WT7  2941 TIP3 OH2  OT    -0.834000       15.9994           0
  109388 WT7  2941 TIP3 H1   HT     0.417000        1.0080           0
  109389 WT7  2941 TIP3 H2   HT     0.417000        1.0080           0
  109390 WT7  2943 TIP3 OH2  OT    -0.834000       15.9994           0
  109391 WT7  2943 TIP3 H1   HT     0.417000        1.0080           0
  109392 WT7  2943 TIP3 H2   HT     0.417000        1.0080           0
  109393 WT7  2944 TIP3 OH2  OT    -0.834000       15.9994           0
  109394 WT7  2944 TIP3 H1   HT     0.417000        1.0080           0
  109395 WT7  2944 TIP3 H2   HT     0.417000        1.0080           0
  109396 WT7  2946 TIP3 OH2  OT    -0.834000       15.9994           0
  109397 WT7  2946 TIP3 H1   HT     0.417000        1.0080           0
  109398 WT7  2946 TIP3 H2   HT     0.417000        1.0080           0
  109399 WT7  2951 TIP3 OH2  OT    -0.834000       15.9994           0
  109400 WT7  2951 TIP3 H1   HT     0.417000        1.0080           0
  109401 WT7  2951 TIP3 H2   HT     0.417000        1.0080           0
  109402 WT7  2957 TIP3 OH2  OT    -0.834000       15.9994           0
  109403 WT7  2957 TIP3 H1   HT     0.417000        1.0080           0
  109404 WT7  2957 TIP3 H2   HT     0.417000        1.0080           0
  109405 WT7  2962 TIP3 OH2  OT    -0.834000       15.9994           0
  109406 WT7  2962 TIP3 H1   HT     0.417000        1.0080           0
  109407 WT7  2962 TIP3 H2   HT     0.417000        1.0080           0
  109408 WT7  2963 TIP3 OH2  OT    -0.834000       15.9994           0
  109409 WT7  2963 TIP3 H1   HT     0.417000        1.0080           0
  109410 WT7  2963 TIP3 H2   HT     0.417000        1.0080           0
  109411 WT7  2965 TIP3 OH2  OT    -0.834000       15.9994           0
  109412 WT7  2965 TIP3 H1   HT     0.417000        1.0080           0
  109413 WT7  2965 TIP3 H2   HT     0.417000        1.0080           0
  109414 WT7  2967 TIP3 OH2  OT    -0.834000       15.9994           0
  109415 WT7  2967 TIP3 H1   HT     0.417000        1.0080           0
  109416 WT7  2967 TIP3 H2   HT     0.417000        1.0080           0
  109417 WT7  2968 TIP3 OH2  OT    -0.834000       15.9994           0
  109418 WT7  2968 TIP3 H1   HT     0.417000        1.0080           0
  109419 WT7  2968 TIP3 H2   HT     0.417000        1.0080           0
  109420 WT7  2972 TIP3 OH2  OT    -0.834000       15.9994           0
  109421 WT7  2972 TIP3 H1   HT     0.417000        1.0080           0
  109422 WT7  2972 TIP3 H2   HT     0.417000        1.0080           0
  109423 WT7  2975 TIP3 OH2  OT    -0.834000       15.9994           0
  109424 WT7  2975 TIP3 H1   HT     0.417000        1.0080           0
  109425 WT7  2975 TIP3 H2   HT     0.417000        1.0080           0
  109426 WT7  2979 TIP3 OH2  OT    -0.834000       15.9994           0
  109427 WT7  2979 TIP3 H1   HT     0.417000        1.0080           0
  109428 WT7  2979 TIP3 H2   HT     0.417000        1.0080           0
  109429 WT7  2980 TIP3 OH2  OT    -0.834000       15.9994           0
  109430 WT7  2980 TIP3 H1   HT     0.417000        1.0080           0
  109431 WT7  2980 TIP3 H2   HT     0.417000        1.0080           0
  109432 WT7  2985 TIP3 OH2  OT    -0.834000       15.9994           0
  109433 WT7  2985 TIP3 H1   HT     0.417000        1.0080           0
  109434 WT7  2985 TIP3 H2   HT     0.417000        1.0080           0
  109435 WT7  2991 TIP3 OH2  OT    -0.834000       15.9994           0
  109436 WT7  2991 TIP3 H1   HT     0.417000        1.0080           0
  109437 WT7  2991 TIP3 H2   HT     0.417000        1.0080           0
  109438 WT7  2994 TIP3 OH2  OT    -0.834000       15.9994           0
  109439 WT7  2994 TIP3 H1   HT     0.417000        1.0080           0
  109440 WT7  2994 TIP3 H2   HT     0.417000        1.0080           0
  109441 WT7  3005 TIP3 OH2  OT    -0.834000       15.9994           0
  109442 WT7  3005 TIP3 H1   HT     0.417000        1.0080           0
  109443 WT7  3005 TIP3 H2   HT     0.417000        1.0080           0
  109444 WT7  3010 TIP3 OH2  OT    -0.834000       15.9994           0
  109445 WT7  3010 TIP3 H1   HT     0.417000        1.0080           0
  109446 WT7  3010 TIP3 H2   HT     0.417000        1.0080           0
  109447 WT7  3012 TIP3 OH2  OT    -0.834000       15.9994           0
  109448 WT7  3012 TIP3 H1   HT     0.417000        1.0080           0
  109449 WT7  3012 TIP3 H2   HT     0.417000        1.0080           0
  109450 WT7  3016 TIP3 OH2  OT    -0.834000       15.9994           0
  109451 WT7  3016 TIP3 H1   HT     0.417000        1.0080           0
  109452 WT7  3016 TIP3 H2   HT     0.417000        1.0080           0
  109453 WT7  3024 TIP3 OH2  OT    -0.834000       15.9994           0
  109454 WT7  3024 TIP3 H1   HT     0.417000        1.0080           0
  109455 WT7  3024 TIP3 H2   HT     0.417000        1.0080           0
  109456 WT7  3027 TIP3 OH2  OT    -0.834000       15.9994           0
  109457 WT7  3027 TIP3 H1   HT     0.417000        1.0080           0
  109458 WT7  3027 TIP3 H2   HT     0.417000        1.0080           0
  109459 WT7  3030 TIP3 OH2  OT    -0.834000       15.9994           0
  109460 WT7  3030 TIP3 H1   HT     0.417000        1.0080           0
  109461 WT7  3030 TIP3 H2   HT     0.417000        1.0080           0
  109462 WT7  3033 TIP3 OH2  OT    -0.834000       15.9994           0
  109463 WT7  3033 TIP3 H1   HT     0.417000        1.0080           0
  109464 WT7  3033 TIP3 H2   HT     0.417000        1.0080           0
  109465 WT7  3036 TIP3 OH2  OT    -0.834000       15.9994           0
  109466 WT7  3036 TIP3 H1   HT     0.417000        1.0080           0
  109467 WT7  3036 TIP3 H2   HT     0.417000        1.0080           0
  109468 WT7  3037 TIP3 OH2  OT    -0.834000       15.9994           0
  109469 WT7  3037 TIP3 H1   HT     0.417000        1.0080           0
  109470 WT7  3037 TIP3 H2   HT     0.417000        1.0080           0
  109471 WT7  3038 TIP3 OH2  OT    -0.834000       15.9994           0
  109472 WT7  3038 TIP3 H1   HT     0.417000        1.0080           0
  109473 WT7  3038 TIP3 H2   HT     0.417000        1.0080           0
  109474 WT7  3042 TIP3 OH2  OT    -0.834000       15.9994           0
  109475 WT7  3042 TIP3 H1   HT     0.417000        1.0080           0
  109476 WT7  3042 TIP3 H2   HT     0.417000        1.0080           0
  109477 WT7  3046 TIP3 OH2  OT    -0.834000       15.9994           0
  109478 WT7  3046 TIP3 H1   HT     0.417000        1.0080           0
  109479 WT7  3046 TIP3 H2   HT     0.417000        1.0080           0
  109480 WT7  3049 TIP3 OH2  OT    -0.834000       15.9994           0
  109481 WT7  3049 TIP3 H1   HT     0.417000        1.0080           0
  109482 WT7  3049 TIP3 H2   HT     0.417000        1.0080           0
  109483 WT7  3050 TIP3 OH2  OT    -0.834000       15.9994           0
  109484 WT7  3050 TIP3 H1   HT     0.417000        1.0080           0
  109485 WT7  3050 TIP3 H2   HT     0.417000        1.0080           0
  109486 WT7  3053 TIP3 OH2  OT    -0.834000       15.9994           0
  109487 WT7  3053 TIP3 H1   HT     0.417000        1.0080           0
  109488 WT7  3053 TIP3 H2   HT     0.417000        1.0080           0
  109489 WT7  3057 TIP3 OH2  OT    -0.834000       15.9994           0
  109490 WT7  3057 TIP3 H1   HT     0.417000        1.0080           0
  109491 WT7  3057 TIP3 H2   HT     0.417000        1.0080           0
  109492 WT7  3058 TIP3 OH2  OT    -0.834000       15.9994           0
  109493 WT7  3058 TIP3 H1   HT     0.417000        1.0080           0
  109494 WT7  3058 TIP3 H2   HT     0.417000        1.0080           0
  109495 WT7  3070 TIP3 OH2  OT    -0.834000       15.9994           0
  109496 WT7  3070 TIP3 H1   HT     0.417000        1.0080           0
  109497 WT7  3070 TIP3 H2   HT     0.417000        1.0080           0
  109498 WT7  3071 TIP3 OH2  OT    -0.834000       15.9994           0
  109499 WT7  3071 TIP3 H1   HT     0.417000        1.0080           0
  109500 WT7  3071 TIP3 H2   HT     0.417000        1.0080           0
  109501 WT7  3072 TIP3 OH2  OT    -0.834000       15.9994           0
  109502 WT7  3072 TIP3 H1   HT     0.417000        1.0080           0
  109503 WT7  3072 TIP3 H2   HT     0.417000        1.0080           0
  109504 WT7  3073 TIP3 OH2  OT    -0.834000       15.9994           0
  109505 WT7  3073 TIP3 H1   HT     0.417000        1.0080           0
  109506 WT7  3073 TIP3 H2   HT     0.417000        1.0080           0
  109507 WT7  3075 TIP3 OH2  OT    -0.834000       15.9994           0
  109508 WT7  3075 TIP3 H1   HT     0.417000        1.0080           0
  109509 WT7  3075 TIP3 H2   HT     0.417000        1.0080           0
  109510 WT7  3079 TIP3 OH2  OT    -0.834000       15.9994           0
  109511 WT7  3079 TIP3 H1   HT     0.417000        1.0080           0
  109512 WT7  3079 TIP3 H2   HT     0.417000        1.0080           0
  109513 WT7  3080 TIP3 OH2  OT    -0.834000       15.9994           0
  109514 WT7  3080 TIP3 H1   HT     0.417000        1.0080           0
  109515 WT7  3080 TIP3 H2   HT     0.417000        1.0080           0
  109516 WT7  3081 TIP3 OH2  OT    -0.834000       15.9994           0
  109517 WT7  3081 TIP3 H1   HT     0.417000        1.0080           0
  109518 WT7  3081 TIP3 H2   HT     0.417000        1.0080           0
  109519 WT7  3082 TIP3 OH2  OT    -0.834000       15.9994           0
  109520 WT7  3082 TIP3 H1   HT     0.417000        1.0080           0
  109521 WT7  3082 TIP3 H2   HT     0.417000        1.0080           0
  109522 WT7  3084 TIP3 OH2  OT    -0.834000       15.9994           0
  109523 WT7  3084 TIP3 H1   HT     0.417000        1.0080           0
  109524 WT7  3084 TIP3 H2   HT     0.417000        1.0080           0
  109525 WT7  3085 TIP3 OH2  OT    -0.834000       15.9994           0
  109526 WT7  3085 TIP3 H1   HT     0.417000        1.0080           0
  109527 WT7  3085 TIP3 H2   HT     0.417000        1.0080           0
  109528 WT7  3086 TIP3 OH2  OT    -0.834000       15.9994           0
  109529 WT7  3086 TIP3 H1   HT     0.417000        1.0080           0
  109530 WT7  3086 TIP3 H2   HT     0.417000        1.0080           0
  109531 WT7  3090 TIP3 OH2  OT    -0.834000       15.9994           0
  109532 WT7  3090 TIP3 H1   HT     0.417000        1.0080           0
  109533 WT7  3090 TIP3 H2   HT     0.417000        1.0080           0
  109534 WT7  3091 TIP3 OH2  OT    -0.834000       15.9994           0
  109535 WT7  3091 TIP3 H1   HT     0.417000        1.0080           0
  109536 WT7  3091 TIP3 H2   HT     0.417000        1.0080           0
  109537 WT7  3092 TIP3 OH2  OT    -0.834000       15.9994           0
  109538 WT7  3092 TIP3 H1   HT     0.417000        1.0080           0
  109539 WT7  3092 TIP3 H2   HT     0.417000        1.0080           0
  109540 WT7  3095 TIP3 OH2  OT    -0.834000       15.9994           0
  109541 WT7  3095 TIP3 H1   HT     0.417000        1.0080           0
  109542 WT7  3095 TIP3 H2   HT     0.417000        1.0080           0
  109543 WT7  3096 TIP3 OH2  OT    -0.834000       15.9994           0
  109544 WT7  3096 TIP3 H1   HT     0.417000        1.0080           0
  109545 WT7  3096 TIP3 H2   HT     0.417000        1.0080           0
  109546 WT7  3097 TIP3 OH2  OT    -0.834000       15.9994           0
  109547 WT7  3097 TIP3 H1   HT     0.417000        1.0080           0
  109548 WT7  3097 TIP3 H2   HT     0.417000        1.0080           0
  109549 WT7  3099 TIP3 OH2  OT    -0.834000       15.9994           0
  109550 WT7  3099 TIP3 H1   HT     0.417000        1.0080           0
  109551 WT7  3099 TIP3 H2   HT     0.417000        1.0080           0
  109552 WT7  3101 TIP3 OH2  OT    -0.834000       15.9994           0
  109553 WT7  3101 TIP3 H1   HT     0.417000        1.0080           0
  109554 WT7  3101 TIP3 H2   HT     0.417000        1.0080           0
  109555 WT7  3102 TIP3 OH2  OT    -0.834000       15.9994           0
  109556 WT7  3102 TIP3 H1   HT     0.417000        1.0080           0
  109557 WT7  3102 TIP3 H2   HT     0.417000        1.0080           0
  109558 WT7  3103 TIP3 OH2  OT    -0.834000       15.9994           0
  109559 WT7  3103 TIP3 H1   HT     0.417000        1.0080           0
  109560 WT7  3103 TIP3 H2   HT     0.417000        1.0080           0
  109561 WT7  3104 TIP3 OH2  OT    -0.834000       15.9994           0
  109562 WT7  3104 TIP3 H1   HT     0.417000        1.0080           0
  109563 WT7  3104 TIP3 H2   HT     0.417000        1.0080           0
  109564 WT7  3106 TIP3 OH2  OT    -0.834000       15.9994           0
  109565 WT7  3106 TIP3 H1   HT     0.417000        1.0080           0
  109566 WT7  3106 TIP3 H2   HT     0.417000        1.0080           0
  109567 WT7  3107 TIP3 OH2  OT    -0.834000       15.9994           0
  109568 WT7  3107 TIP3 H1   HT     0.417000        1.0080           0
  109569 WT7  3107 TIP3 H2   HT     0.417000        1.0080           0
  109570 WT7  3108 TIP3 OH2  OT    -0.834000       15.9994           0
  109571 WT7  3108 TIP3 H1   HT     0.417000        1.0080           0
  109572 WT7  3108 TIP3 H2   HT     0.417000        1.0080           0
  109573 WT7  3109 TIP3 OH2  OT    -0.834000       15.9994           0
  109574 WT7  3109 TIP3 H1   HT     0.417000        1.0080           0
  109575 WT7  3109 TIP3 H2   HT     0.417000        1.0080           0
  109576 WT7  3111 TIP3 OH2  OT    -0.834000       15.9994           0
  109577 WT7  3111 TIP3 H1   HT     0.417000        1.0080           0
  109578 WT7  3111 TIP3 H2   HT     0.417000        1.0080           0
  109579 WT7  3112 TIP3 OH2  OT    -0.834000       15.9994           0
  109580 WT7  3112 TIP3 H1   HT     0.417000        1.0080           0
  109581 WT7  3112 TIP3 H2   HT     0.417000        1.0080           0
  109582 WT7  3113 TIP3 OH2  OT    -0.834000       15.9994           0
  109583 WT7  3113 TIP3 H1   HT     0.417000        1.0080           0
  109584 WT7  3113 TIP3 H2   HT     0.417000        1.0080           0
  109585 WT7  3114 TIP3 OH2  OT    -0.834000       15.9994           0
  109586 WT7  3114 TIP3 H1   HT     0.417000        1.0080           0
  109587 WT7  3114 TIP3 H2   HT     0.417000        1.0080           0
  109588 WT7  3115 TIP3 OH2  OT    -0.834000       15.9994           0
  109589 WT7  3115 TIP3 H1   HT     0.417000        1.0080           0
  109590 WT7  3115 TIP3 H2   HT     0.417000        1.0080           0
  109591 WT7  3116 TIP3 OH2  OT    -0.834000       15.9994           0
  109592 WT7  3116 TIP3 H1   HT     0.417000        1.0080           0
  109593 WT7  3116 TIP3 H2   HT     0.417000        1.0080           0
  109594 WT7  3117 TIP3 OH2  OT    -0.834000       15.9994           0
  109595 WT7  3117 TIP3 H1   HT     0.417000        1.0080           0
  109596 WT7  3117 TIP3 H2   HT     0.417000        1.0080           0
  109597 WT7  3119 TIP3 OH2  OT    -0.834000       15.9994           0
  109598 WT7  3119 TIP3 H1   HT     0.417000        1.0080           0
  109599 WT7  3119 TIP3 H2   HT     0.417000        1.0080           0
  109600 WT7  3120 TIP3 OH2  OT    -0.834000       15.9994           0
  109601 WT7  3120 TIP3 H1   HT     0.417000        1.0080           0
  109602 WT7  3120 TIP3 H2   HT     0.417000        1.0080           0
  109603 WT7  3121 TIP3 OH2  OT    -0.834000       15.9994           0
  109604 WT7  3121 TIP3 H1   HT     0.417000        1.0080           0
  109605 WT7  3121 TIP3 H2   HT     0.417000        1.0080           0
  109606 WT7  3129 TIP3 OH2  OT    -0.834000       15.9994           0
  109607 WT7  3129 TIP3 H1   HT     0.417000        1.0080           0
  109608 WT7  3129 TIP3 H2   HT     0.417000        1.0080           0
  109609 WT7  3131 TIP3 OH2  OT    -0.834000       15.9994           0
  109610 WT7  3131 TIP3 H1   HT     0.417000        1.0080           0
  109611 WT7  3131 TIP3 H2   HT     0.417000        1.0080           0
  109612 WT7  3132 TIP3 OH2  OT    -0.834000       15.9994           0
  109613 WT7  3132 TIP3 H1   HT     0.417000        1.0080           0
  109614 WT7  3132 TIP3 H2   HT     0.417000        1.0080           0
  109615 WT7  3133 TIP3 OH2  OT    -0.834000       15.9994           0
  109616 WT7  3133 TIP3 H1   HT     0.417000        1.0080           0
  109617 WT7  3133 TIP3 H2   HT     0.417000        1.0080           0
  109618 WT7  3134 TIP3 OH2  OT    -0.834000       15.9994           0
  109619 WT7  3134 TIP3 H1   HT     0.417000        1.0080           0
  109620 WT7  3134 TIP3 H2   HT     0.417000        1.0080           0
  109621 WT7  3136 TIP3 OH2  OT    -0.834000       15.9994           0
  109622 WT7  3136 TIP3 H1   HT     0.417000        1.0080           0
  109623 WT7  3136 TIP3 H2   HT     0.417000        1.0080           0
  109624 WT7  3138 TIP3 OH2  OT    -0.834000       15.9994           0
  109625 WT7  3138 TIP3 H1   HT     0.417000        1.0080           0
  109626 WT7  3138 TIP3 H2   HT     0.417000        1.0080           0
  109627 WT7  3139 TIP3 OH2  OT    -0.834000       15.9994           0
  109628 WT7  3139 TIP3 H1   HT     0.417000        1.0080           0
  109629 WT7  3139 TIP3 H2   HT     0.417000        1.0080           0
  109630 WT7  3140 TIP3 OH2  OT    -0.834000       15.9994           0
  109631 WT7  3140 TIP3 H1   HT     0.417000        1.0080           0
  109632 WT7  3140 TIP3 H2   HT     0.417000        1.0080           0
  109633 WT7  3141 TIP3 OH2  OT    -0.834000       15.9994           0
  109634 WT7  3141 TIP3 H1   HT     0.417000        1.0080           0
  109635 WT7  3141 TIP3 H2   HT     0.417000        1.0080           0
  109636 WT7  3142 TIP3 OH2  OT    -0.834000       15.9994           0
  109637 WT7  3142 TIP3 H1   HT     0.417000        1.0080           0
  109638 WT7  3142 TIP3 H2   HT     0.417000        1.0080           0
  109639 WT7  3143 TIP3 OH2  OT    -0.834000       15.9994           0
  109640 WT7  3143 TIP3 H1   HT     0.417000        1.0080           0
  109641 WT7  3143 TIP3 H2   HT     0.417000        1.0080           0
  109642 WT7  3144 TIP3 OH2  OT    -0.834000       15.9994           0
  109643 WT7  3144 TIP3 H1   HT     0.417000        1.0080           0
  109644 WT7  3144 TIP3 H2   HT     0.417000        1.0080           0
  109645 WT7  3145 TIP3 OH2  OT    -0.834000       15.9994           0
  109646 WT7  3145 TIP3 H1   HT     0.417000        1.0080           0
  109647 WT7  3145 TIP3 H2   HT     0.417000        1.0080           0
  109648 WT7  3148 TIP3 OH2  OT    -0.834000       15.9994           0
  109649 WT7  3148 TIP3 H1   HT     0.417000        1.0080           0
  109650 WT7  3148 TIP3 H2   HT     0.417000        1.0080           0
  109651 WT7  3150 TIP3 OH2  OT    -0.834000       15.9994           0
  109652 WT7  3150 TIP3 H1   HT     0.417000        1.0080           0
  109653 WT7  3150 TIP3 H2   HT     0.417000        1.0080           0
  109654 WT7  3152 TIP3 OH2  OT    -0.834000       15.9994           0
  109655 WT7  3152 TIP3 H1   HT     0.417000        1.0080           0
  109656 WT7  3152 TIP3 H2   HT     0.417000        1.0080           0
  109657 WT7  3154 TIP3 OH2  OT    -0.834000       15.9994           0
  109658 WT7  3154 TIP3 H1   HT     0.417000        1.0080           0
  109659 WT7  3154 TIP3 H2   HT     0.417000        1.0080           0
  109660 WT7  3155 TIP3 OH2  OT    -0.834000       15.9994           0
  109661 WT7  3155 TIP3 H1   HT     0.417000        1.0080           0
  109662 WT7  3155 TIP3 H2   HT     0.417000        1.0080           0
  109663 WT7  3156 TIP3 OH2  OT    -0.834000       15.9994           0
  109664 WT7  3156 TIP3 H1   HT     0.417000        1.0080           0
  109665 WT7  3156 TIP3 H2   HT     0.417000        1.0080           0
  109666 WT7  3157 TIP3 OH2  OT    -0.834000       15.9994           0
  109667 WT7  3157 TIP3 H1   HT     0.417000        1.0080           0
  109668 WT7  3157 TIP3 H2   HT     0.417000        1.0080           0
  109669 WT7  3158 TIP3 OH2  OT    -0.834000       15.9994           0
  109670 WT7  3158 TIP3 H1   HT     0.417000        1.0080           0
  109671 WT7  3158 TIP3 H2   HT     0.417000        1.0080           0
  109672 WT7  3159 TIP3 OH2  OT    -0.834000       15.9994           0
  109673 WT7  3159 TIP3 H1   HT     0.417000        1.0080           0
  109674 WT7  3159 TIP3 H2   HT     0.417000        1.0080           0
  109675 WT7  3161 TIP3 OH2  OT    -0.834000       15.9994           0
  109676 WT7  3161 TIP3 H1   HT     0.417000        1.0080           0
  109677 WT7  3161 TIP3 H2   HT     0.417000        1.0080           0
  109678 WT7  3162 TIP3 OH2  OT    -0.834000       15.9994           0
  109679 WT7  3162 TIP3 H1   HT     0.417000        1.0080           0
  109680 WT7  3162 TIP3 H2   HT     0.417000        1.0080           0
  109681 WT7  3163 TIP3 OH2  OT    -0.834000       15.9994           0
  109682 WT7  3163 TIP3 H1   HT     0.417000        1.0080           0
  109683 WT7  3163 TIP3 H2   HT     0.417000        1.0080           0
  109684 WT7  3164 TIP3 OH2  OT    -0.834000       15.9994           0
  109685 WT7  3164 TIP3 H1   HT     0.417000        1.0080           0
  109686 WT7  3164 TIP3 H2   HT     0.417000        1.0080           0
  109687 WT7  3167 TIP3 OH2  OT    -0.834000       15.9994           0
  109688 WT7  3167 TIP3 H1   HT     0.417000        1.0080           0
  109689 WT7  3167 TIP3 H2   HT     0.417000        1.0080           0
  109690 WT7  3169 TIP3 OH2  OT    -0.834000       15.9994           0
  109691 WT7  3169 TIP3 H1   HT     0.417000        1.0080           0
  109692 WT7  3169 TIP3 H2   HT     0.417000        1.0080           0
  109693 WT7  3173 TIP3 OH2  OT    -0.834000       15.9994           0
  109694 WT7  3173 TIP3 H1   HT     0.417000        1.0080           0
  109695 WT7  3173 TIP3 H2   HT     0.417000        1.0080           0
  109696 WT7  3174 TIP3 OH2  OT    -0.834000       15.9994           0
  109697 WT7  3174 TIP3 H1   HT     0.417000        1.0080           0
  109698 WT7  3174 TIP3 H2   HT     0.417000        1.0080           0
  109699 WT7  3175 TIP3 OH2  OT    -0.834000       15.9994           0
  109700 WT7  3175 TIP3 H1   HT     0.417000        1.0080           0
  109701 WT7  3175 TIP3 H2   HT     0.417000        1.0080           0
  109702 WT7  3176 TIP3 OH2  OT    -0.834000       15.9994           0
  109703 WT7  3176 TIP3 H1   HT     0.417000        1.0080           0
  109704 WT7  3176 TIP3 H2   HT     0.417000        1.0080           0
  109705 WT7  3177 TIP3 OH2  OT    -0.834000       15.9994           0
  109706 WT7  3177 TIP3 H1   HT     0.417000        1.0080           0
  109707 WT7  3177 TIP3 H2   HT     0.417000        1.0080           0
  109708 WT7  3178 TIP3 OH2  OT    -0.834000       15.9994           0
  109709 WT7  3178 TIP3 H1   HT     0.417000        1.0080           0
  109710 WT7  3178 TIP3 H2   HT     0.417000        1.0080           0
  109711 WT7  3179 TIP3 OH2  OT    -0.834000       15.9994           0
  109712 WT7  3179 TIP3 H1   HT     0.417000        1.0080           0
  109713 WT7  3179 TIP3 H2   HT     0.417000        1.0080           0
  109714 WT7  3180 TIP3 OH2  OT    -0.834000       15.9994           0
  109715 WT7  3180 TIP3 H1   HT     0.417000        1.0080           0
  109716 WT7  3180 TIP3 H2   HT     0.417000        1.0080           0
  109717 WT7  3181 TIP3 OH2  OT    -0.834000       15.9994           0
  109718 WT7  3181 TIP3 H1   HT     0.417000        1.0080           0
  109719 WT7  3181 TIP3 H2   HT     0.417000        1.0080           0
  109720 WT7  3182 TIP3 OH2  OT    -0.834000       15.9994           0
  109721 WT7  3182 TIP3 H1   HT     0.417000        1.0080           0
  109722 WT7  3182 TIP3 H2   HT     0.417000        1.0080           0
  109723 WT7  3183 TIP3 OH2  OT    -0.834000       15.9994           0
  109724 WT7  3183 TIP3 H1   HT     0.417000        1.0080           0
  109725 WT7  3183 TIP3 H2   HT     0.417000        1.0080           0
  109726 WT7  3184 TIP3 OH2  OT    -0.834000       15.9994           0
  109727 WT7  3184 TIP3 H1   HT     0.417000        1.0080           0
  109728 WT7  3184 TIP3 H2   HT     0.417000        1.0080           0
  109729 WT7  3185 TIP3 OH2  OT    -0.834000       15.9994           0
  109730 WT7  3185 TIP3 H1   HT     0.417000        1.0080           0
  109731 WT7  3185 TIP3 H2   HT     0.417000        1.0080           0
  109732 WT7  3186 TIP3 OH2  OT    -0.834000       15.9994           0
  109733 WT7  3186 TIP3 H1   HT     0.417000        1.0080           0
  109734 WT7  3186 TIP3 H2   HT     0.417000        1.0080           0
  109735 WT7  3187 TIP3 OH2  OT    -0.834000       15.9994           0
  109736 WT7  3187 TIP3 H1   HT     0.417000        1.0080           0
  109737 WT7  3187 TIP3 H2   HT     0.417000        1.0080           0
  109738 WT7  3189 TIP3 OH2  OT    -0.834000       15.9994           0
  109739 WT7  3189 TIP3 H1   HT     0.417000        1.0080           0
  109740 WT7  3189 TIP3 H2   HT     0.417000        1.0080           0
  109741 WT7  3190 TIP3 OH2  OT    -0.834000       15.9994           0
  109742 WT7  3190 TIP3 H1   HT     0.417000        1.0080           0
  109743 WT7  3190 TIP3 H2   HT     0.417000        1.0080           0
  109744 WT7  3191 TIP3 OH2  OT    -0.834000       15.9994           0
  109745 WT7  3191 TIP3 H1   HT     0.417000        1.0080           0
  109746 WT7  3191 TIP3 H2   HT     0.417000        1.0080           0
  109747 WT7  3192 TIP3 OH2  OT    -0.834000       15.9994           0
  109748 WT7  3192 TIP3 H1   HT     0.417000        1.0080           0
  109749 WT7  3192 TIP3 H2   HT     0.417000        1.0080           0
  109750 WT7  3193 TIP3 OH2  OT    -0.834000       15.9994           0
  109751 WT7  3193 TIP3 H1   HT     0.417000        1.0080           0
  109752 WT7  3193 TIP3 H2   HT     0.417000        1.0080           0
  109753 WT7  3194 TIP3 OH2  OT    -0.834000       15.9994           0
  109754 WT7  3194 TIP3 H1   HT     0.417000        1.0080           0
  109755 WT7  3194 TIP3 H2   HT     0.417000        1.0080           0
  109756 WT7  3195 TIP3 OH2  OT    -0.834000       15.9994           0
  109757 WT7  3195 TIP3 H1   HT     0.417000        1.0080           0
  109758 WT7  3195 TIP3 H2   HT     0.417000        1.0080           0
  109759 WT7  3196 TIP3 OH2  OT    -0.834000       15.9994           0
  109760 WT7  3196 TIP3 H1   HT     0.417000        1.0080           0
  109761 WT7  3196 TIP3 H2   HT     0.417000        1.0080           0
  109762 WT7  3197 TIP3 OH2  OT    -0.834000       15.9994           0
  109763 WT7  3197 TIP3 H1   HT     0.417000        1.0080           0
  109764 WT7  3197 TIP3 H2   HT     0.417000        1.0080           0
  109765 WT7  3198 TIP3 OH2  OT    -0.834000       15.9994           0
  109766 WT7  3198 TIP3 H1   HT     0.417000        1.0080           0
  109767 WT7  3198 TIP3 H2   HT     0.417000        1.0080           0
  109768 WT7  3199 TIP3 OH2  OT    -0.834000       15.9994           0
  109769 WT7  3199 TIP3 H1   HT     0.417000        1.0080           0
  109770 WT7  3199 TIP3 H2   HT     0.417000        1.0080           0
  109771 WT7  3200 TIP3 OH2  OT    -0.834000       15.9994           0
  109772 WT7  3200 TIP3 H1   HT     0.417000        1.0080           0
  109773 WT7  3200 TIP3 H2   HT     0.417000        1.0080           0
  109774 WT7  3201 TIP3 OH2  OT    -0.834000       15.9994           0
  109775 WT7  3201 TIP3 H1   HT     0.417000        1.0080           0
  109776 WT7  3201 TIP3 H2   HT     0.417000        1.0080           0
  109777 WT7  3202 TIP3 OH2  OT    -0.834000       15.9994           0
  109778 WT7  3202 TIP3 H1   HT     0.417000        1.0080           0
  109779 WT7  3202 TIP3 H2   HT     0.417000        1.0080           0
  109780 WT7  3203 TIP3 OH2  OT    -0.834000       15.9994           0
  109781 WT7  3203 TIP3 H1   HT     0.417000        1.0080           0
  109782 WT7  3203 TIP3 H2   HT     0.417000        1.0080           0
  109783 WT7  3204 TIP3 OH2  OT    -0.834000       15.9994           0
  109784 WT7  3204 TIP3 H1   HT     0.417000        1.0080           0
  109785 WT7  3204 TIP3 H2   HT     0.417000        1.0080           0
  109786 WT7  3205 TIP3 OH2  OT    -0.834000       15.9994           0
  109787 WT7  3205 TIP3 H1   HT     0.417000        1.0080           0
  109788 WT7  3205 TIP3 H2   HT     0.417000        1.0080           0
  109789 WT7  3207 TIP3 OH2  OT    -0.834000       15.9994           0
  109790 WT7  3207 TIP3 H1   HT     0.417000        1.0080           0
  109791 WT7  3207 TIP3 H2   HT     0.417000        1.0080           0
  109792 WT7  3208 TIP3 OH2  OT    -0.834000       15.9994           0
  109793 WT7  3208 TIP3 H1   HT     0.417000        1.0080           0
  109794 WT7  3208 TIP3 H2   HT     0.417000        1.0080           0
  109795 WT7  3209 TIP3 OH2  OT    -0.834000       15.9994           0
  109796 WT7  3209 TIP3 H1   HT     0.417000        1.0080           0
  109797 WT7  3209 TIP3 H2   HT     0.417000        1.0080           0
  109798 WT7  3210 TIP3 OH2  OT    -0.834000       15.9994           0
  109799 WT7  3210 TIP3 H1   HT     0.417000        1.0080           0
  109800 WT7  3210 TIP3 H2   HT     0.417000        1.0080           0
  109801 WT7  3211 TIP3 OH2  OT    -0.834000       15.9994           0
  109802 WT7  3211 TIP3 H1   HT     0.417000        1.0080           0
  109803 WT7  3211 TIP3 H2   HT     0.417000        1.0080           0
  109804 WT7  3212 TIP3 OH2  OT    -0.834000       15.9994           0
  109805 WT7  3212 TIP3 H1   HT     0.417000        1.0080           0
  109806 WT7  3212 TIP3 H2   HT     0.417000        1.0080           0
  109807 WT7  3214 TIP3 OH2  OT    -0.834000       15.9994           0
  109808 WT7  3214 TIP3 H1   HT     0.417000        1.0080           0
  109809 WT7  3214 TIP3 H2   HT     0.417000        1.0080           0
  109810 WT7  3215 TIP3 OH2  OT    -0.834000       15.9994           0
  109811 WT7  3215 TIP3 H1   HT     0.417000        1.0080           0
  109812 WT7  3215 TIP3 H2   HT     0.417000        1.0080           0
  109813 WT7  3216 TIP3 OH2  OT    -0.834000       15.9994           0
  109814 WT7  3216 TIP3 H1   HT     0.417000        1.0080           0
  109815 WT7  3216 TIP3 H2   HT     0.417000        1.0080           0
  109816 WT7  3218 TIP3 OH2  OT    -0.834000       15.9994           0
  109817 WT7  3218 TIP3 H1   HT     0.417000        1.0080           0
  109818 WT7  3218 TIP3 H2   HT     0.417000        1.0080           0
  109819 WT7  3219 TIP3 OH2  OT    -0.834000       15.9994           0
  109820 WT7  3219 TIP3 H1   HT     0.417000        1.0080           0
  109821 WT7  3219 TIP3 H2   HT     0.417000        1.0080           0
  109822 WT7  3220 TIP3 OH2  OT    -0.834000       15.9994           0
  109823 WT7  3220 TIP3 H1   HT     0.417000        1.0080           0
  109824 WT7  3220 TIP3 H2   HT     0.417000        1.0080           0
  109825 WT7  3221 TIP3 OH2  OT    -0.834000       15.9994           0
  109826 WT7  3221 TIP3 H1   HT     0.417000        1.0080           0
  109827 WT7  3221 TIP3 H2   HT     0.417000        1.0080           0
  109828 WT7  3222 TIP3 OH2  OT    -0.834000       15.9994           0
  109829 WT7  3222 TIP3 H1   HT     0.417000        1.0080           0
  109830 WT7  3222 TIP3 H2   HT     0.417000        1.0080           0
  109831 WT7  3223 TIP3 OH2  OT    -0.834000       15.9994           0
  109832 WT7  3223 TIP3 H1   HT     0.417000        1.0080           0
  109833 WT7  3223 TIP3 H2   HT     0.417000        1.0080           0
  109834 WT7  3224 TIP3 OH2  OT    -0.834000       15.9994           0
  109835 WT7  3224 TIP3 H1   HT     0.417000        1.0080           0
  109836 WT7  3224 TIP3 H2   HT     0.417000        1.0080           0
  109837 WT7  3225 TIP3 OH2  OT    -0.834000       15.9994           0
  109838 WT7  3225 TIP3 H1   HT     0.417000        1.0080           0
  109839 WT7  3225 TIP3 H2   HT     0.417000        1.0080           0
  109840 WT7  3226 TIP3 OH2  OT    -0.834000       15.9994           0
  109841 WT7  3226 TIP3 H1   HT     0.417000        1.0080           0
  109842 WT7  3226 TIP3 H2   HT     0.417000        1.0080           0
  109843 WT7  3227 TIP3 OH2  OT    -0.834000       15.9994           0
  109844 WT7  3227 TIP3 H1   HT     0.417000        1.0080           0
  109845 WT7  3227 TIP3 H2   HT     0.417000        1.0080           0
  109846 WT7  3228 TIP3 OH2  OT    -0.834000       15.9994           0
  109847 WT7  3228 TIP3 H1   HT     0.417000        1.0080           0
  109848 WT7  3228 TIP3 H2   HT     0.417000        1.0080           0
  109849 WT7  3229 TIP3 OH2  OT    -0.834000       15.9994           0
  109850 WT7  3229 TIP3 H1   HT     0.417000        1.0080           0
  109851 WT7  3229 TIP3 H2   HT     0.417000        1.0080           0
  109852 WT7  3232 TIP3 OH2  OT    -0.834000       15.9994           0
  109853 WT7  3232 TIP3 H1   HT     0.417000        1.0080           0
  109854 WT7  3232 TIP3 H2   HT     0.417000        1.0080           0
  109855 WT7  3233 TIP3 OH2  OT    -0.834000       15.9994           0
  109856 WT7  3233 TIP3 H1   HT     0.417000        1.0080           0
  109857 WT7  3233 TIP3 H2   HT     0.417000        1.0080           0
  109858 WT7  3234 TIP3 OH2  OT    -0.834000       15.9994           0
  109859 WT7  3234 TIP3 H1   HT     0.417000        1.0080           0
  109860 WT7  3234 TIP3 H2   HT     0.417000        1.0080           0
  109861 WT7  3235 TIP3 OH2  OT    -0.834000       15.9994           0
  109862 WT7  3235 TIP3 H1   HT     0.417000        1.0080           0
  109863 WT7  3235 TIP3 H2   HT     0.417000        1.0080           0
  109864 WT7  3236 TIP3 OH2  OT    -0.834000       15.9994           0
  109865 WT7  3236 TIP3 H1   HT     0.417000        1.0080           0
  109866 WT7  3236 TIP3 H2   HT     0.417000        1.0080           0
  109867 WT7  3237 TIP3 OH2  OT    -0.834000       15.9994           0
  109868 WT7  3237 TIP3 H1   HT     0.417000        1.0080           0
  109869 WT7  3237 TIP3 H2   HT     0.417000        1.0080           0
  109870 WT7  3238 TIP3 OH2  OT    -0.834000       15.9994           0
  109871 WT7  3238 TIP3 H1   HT     0.417000        1.0080           0
  109872 WT7  3238 TIP3 H2   HT     0.417000        1.0080           0
  109873 WT7  3239 TIP3 OH2  OT    -0.834000       15.9994           0
  109874 WT7  3239 TIP3 H1   HT     0.417000        1.0080           0
  109875 WT7  3239 TIP3 H2   HT     0.417000        1.0080           0
  109876 WT7  3240 TIP3 OH2  OT    -0.834000       15.9994           0
  109877 WT7  3240 TIP3 H1   HT     0.417000        1.0080           0
  109878 WT7  3240 TIP3 H2   HT     0.417000        1.0080           0
  109879 WT7  3241 TIP3 OH2  OT    -0.834000       15.9994           0
  109880 WT7  3241 TIP3 H1   HT     0.417000        1.0080           0
  109881 WT7  3241 TIP3 H2   HT     0.417000        1.0080           0
  109882 WT7  3242 TIP3 OH2  OT    -0.834000       15.9994           0
  109883 WT7  3242 TIP3 H1   HT     0.417000        1.0080           0
  109884 WT7  3242 TIP3 H2   HT     0.417000        1.0080           0
  109885 WT7  3243 TIP3 OH2  OT    -0.834000       15.9994           0
  109886 WT7  3243 TIP3 H1   HT     0.417000        1.0080           0
  109887 WT7  3243 TIP3 H2   HT     0.417000        1.0080           0
  109888 WT7  3244 TIP3 OH2  OT    -0.834000       15.9994           0
  109889 WT7  3244 TIP3 H1   HT     0.417000        1.0080           0
  109890 WT7  3244 TIP3 H2   HT     0.417000        1.0080           0
  109891 WT7  3245 TIP3 OH2  OT    -0.834000       15.9994           0
  109892 WT7  3245 TIP3 H1   HT     0.417000        1.0080           0
  109893 WT7  3245 TIP3 H2   HT     0.417000        1.0080           0
  109894 WT7  3246 TIP3 OH2  OT    -0.834000       15.9994           0
  109895 WT7  3246 TIP3 H1   HT     0.417000        1.0080           0
  109896 WT7  3246 TIP3 H2   HT     0.417000        1.0080           0
  109897 WT7  3247 TIP3 OH2  OT    -0.834000       15.9994           0
  109898 WT7  3247 TIP3 H1   HT     0.417000        1.0080           0
  109899 WT7  3247 TIP3 H2   HT     0.417000        1.0080           0
  109900 WT7  3248 TIP3 OH2  OT    -0.834000       15.9994           0
  109901 WT7  3248 TIP3 H1   HT     0.417000        1.0080           0
  109902 WT7  3248 TIP3 H2   HT     0.417000        1.0080           0
  109903 WT7  3249 TIP3 OH2  OT    -0.834000       15.9994           0
  109904 WT7  3249 TIP3 H1   HT     0.417000        1.0080           0
  109905 WT7  3249 TIP3 H2   HT     0.417000        1.0080           0
  109906 WT7  3250 TIP3 OH2  OT    -0.834000       15.9994           0
  109907 WT7  3250 TIP3 H1   HT     0.417000        1.0080           0
  109908 WT7  3250 TIP3 H2   HT     0.417000        1.0080           0
  109909 WT7  3251 TIP3 OH2  OT    -0.834000       15.9994           0
  109910 WT7  3251 TIP3 H1   HT     0.417000        1.0080           0
  109911 WT7  3251 TIP3 H2   HT     0.417000        1.0080           0
  109912 WT7  3252 TIP3 OH2  OT    -0.834000       15.9994           0
  109913 WT7  3252 TIP3 H1   HT     0.417000        1.0080           0
  109914 WT7  3252 TIP3 H2   HT     0.417000        1.0080           0
  109915 WT7  3253 TIP3 OH2  OT    -0.834000       15.9994           0
  109916 WT7  3253 TIP3 H1   HT     0.417000        1.0080           0
  109917 WT7  3253 TIP3 H2   HT     0.417000        1.0080           0
  109918 WT7  3254 TIP3 OH2  OT    -0.834000       15.9994           0
  109919 WT7  3254 TIP3 H1   HT     0.417000        1.0080           0
  109920 WT7  3254 TIP3 H2   HT     0.417000        1.0080           0
  109921 WT7  3257 TIP3 OH2  OT    -0.834000       15.9994           0
  109922 WT7  3257 TIP3 H1   HT     0.417000        1.0080           0
  109923 WT7  3257 TIP3 H2   HT     0.417000        1.0080           0
  109924 WT7  3258 TIP3 OH2  OT    -0.834000       15.9994           0
  109925 WT7  3258 TIP3 H1   HT     0.417000        1.0080           0
  109926 WT7  3258 TIP3 H2   HT     0.417000        1.0080           0
  109927 WT7  3259 TIP3 OH2  OT    -0.834000       15.9994           0
  109928 WT7  3259 TIP3 H1   HT     0.417000        1.0080           0
  109929 WT7  3259 TIP3 H2   HT     0.417000        1.0080           0
  109930 WT7  3260 TIP3 OH2  OT    -0.834000       15.9994           0
  109931 WT7  3260 TIP3 H1   HT     0.417000        1.0080           0
  109932 WT7  3260 TIP3 H2   HT     0.417000        1.0080           0
  109933 WT7  3261 TIP3 OH2  OT    -0.834000       15.9994           0
  109934 WT7  3261 TIP3 H1   HT     0.417000        1.0080           0
  109935 WT7  3261 TIP3 H2   HT     0.417000        1.0080           0
  109936 WT7  3262 TIP3 OH2  OT    -0.834000       15.9994           0
  109937 WT7  3262 TIP3 H1   HT     0.417000        1.0080           0
  109938 WT7  3262 TIP3 H2   HT     0.417000        1.0080           0
  109939 WT7  3263 TIP3 OH2  OT    -0.834000       15.9994           0
  109940 WT7  3263 TIP3 H1   HT     0.417000        1.0080           0
  109941 WT7  3263 TIP3 H2   HT     0.417000        1.0080           0
  109942 WT7  3264 TIP3 OH2  OT    -0.834000       15.9994           0
  109943 WT7  3264 TIP3 H1   HT     0.417000        1.0080           0
  109944 WT7  3264 TIP3 H2   HT     0.417000        1.0080           0
  109945 WT7  3265 TIP3 OH2  OT    -0.834000       15.9994           0
  109946 WT7  3265 TIP3 H1   HT     0.417000        1.0080           0
  109947 WT7  3265 TIP3 H2   HT     0.417000        1.0080           0
  109948 WT7  3266 TIP3 OH2  OT    -0.834000       15.9994           0
  109949 WT7  3266 TIP3 H1   HT     0.417000        1.0080           0
  109950 WT7  3266 TIP3 H2   HT     0.417000        1.0080           0
  109951 WT7  3267 TIP3 OH2  OT    -0.834000       15.9994           0
  109952 WT7  3267 TIP3 H1   HT     0.417000        1.0080           0
  109953 WT7  3267 TIP3 H2   HT     0.417000        1.0080           0
  109954 WT7  3268 TIP3 OH2  OT    -0.834000       15.9994           0
  109955 WT7  3268 TIP3 H1   HT     0.417000        1.0080           0
  109956 WT7  3268 TIP3 H2   HT     0.417000        1.0080           0
  109957 WT7  3269 TIP3 OH2  OT    -0.834000       15.9994           0
  109958 WT7  3269 TIP3 H1   HT     0.417000        1.0080           0
  109959 WT7  3269 TIP3 H2   HT     0.417000        1.0080           0
  109960 WT7  3270 TIP3 OH2  OT    -0.834000       15.9994           0
  109961 WT7  3270 TIP3 H1   HT     0.417000        1.0080           0
  109962 WT7  3270 TIP3 H2   HT     0.417000        1.0080           0
  109963 WT7  3271 TIP3 OH2  OT    -0.834000       15.9994           0
  109964 WT7  3271 TIP3 H1   HT     0.417000        1.0080           0
  109965 WT7  3271 TIP3 H2   HT     0.417000        1.0080           0
  109966 WT7  3272 TIP3 OH2  OT    -0.834000       15.9994           0
  109967 WT7  3272 TIP3 H1   HT     0.417000        1.0080           0
  109968 WT7  3272 TIP3 H2   HT     0.417000        1.0080           0
  109969 WT7  3273 TIP3 OH2  OT    -0.834000       15.9994           0
  109970 WT7  3273 TIP3 H1   HT     0.417000        1.0080           0
  109971 WT7  3273 TIP3 H2   HT     0.417000        1.0080           0
  109972 WT7  3274 TIP3 OH2  OT    -0.834000       15.9994           0
  109973 WT7  3274 TIP3 H1   HT     0.417000        1.0080           0
  109974 WT7  3274 TIP3 H2   HT     0.417000        1.0080           0
  109975 WT7  3276 TIP3 OH2  OT    -0.834000       15.9994           0
  109976 WT7  3276 TIP3 H1   HT     0.417000        1.0080           0
  109977 WT7  3276 TIP3 H2   HT     0.417000        1.0080           0
  109978 WT7  3277 TIP3 OH2  OT    -0.834000       15.9994           0
  109979 WT7  3277 TIP3 H1   HT     0.417000        1.0080           0
  109980 WT7  3277 TIP3 H2   HT     0.417000        1.0080           0
  109981 WT7  3278 TIP3 OH2  OT    -0.834000       15.9994           0
  109982 WT7  3278 TIP3 H1   HT     0.417000        1.0080           0
  109983 WT7  3278 TIP3 H2   HT     0.417000        1.0080           0
  109984 WT7  3280 TIP3 OH2  OT    -0.834000       15.9994           0
  109985 WT7  3280 TIP3 H1   HT     0.417000        1.0080           0
  109986 WT7  3280 TIP3 H2   HT     0.417000        1.0080           0
  109987 WT7  3281 TIP3 OH2  OT    -0.834000       15.9994           0
  109988 WT7  3281 TIP3 H1   HT     0.417000        1.0080           0
  109989 WT7  3281 TIP3 H2   HT     0.417000        1.0080           0
  109990 WT7  3282 TIP3 OH2  OT    -0.834000       15.9994           0
  109991 WT7  3282 TIP3 H1   HT     0.417000        1.0080           0
  109992 WT7  3282 TIP3 H2   HT     0.417000        1.0080           0
  109993 WT7  3283 TIP3 OH2  OT    -0.834000       15.9994           0
  109994 WT7  3283 TIP3 H1   HT     0.417000        1.0080           0
  109995 WT7  3283 TIP3 H2   HT     0.417000        1.0080           0
  109996 WT7  3284 TIP3 OH2  OT    -0.834000       15.9994           0
  109997 WT7  3284 TIP3 H1   HT     0.417000        1.0080           0
  109998 WT7  3284 TIP3 H2   HT     0.417000        1.0080           0
  109999 WT7  3285 TIP3 OH2  OT    -0.834000       15.9994           0
  110000 WT7  3285 TIP3 H1   HT     0.417000        1.0080           0
  110001 WT7  3285 TIP3 H2   HT     0.417000        1.0080           0
  110002 WT7  3286 TIP3 OH2  OT    -0.834000       15.9994           0
  110003 WT7  3286 TIP3 H1   HT     0.417000        1.0080           0
  110004 WT7  3286 TIP3 H2   HT     0.417000        1.0080           0
  110005 WT7  3287 TIP3 OH2  OT    -0.834000       15.9994           0
  110006 WT7  3287 TIP3 H1   HT     0.417000        1.0080           0
  110007 WT7  3287 TIP3 H2   HT     0.417000        1.0080           0
  110008 WT7  3288 TIP3 OH2  OT    -0.834000       15.9994           0
  110009 WT7  3288 TIP3 H1   HT     0.417000        1.0080           0
  110010 WT7  3288 TIP3 H2   HT     0.417000        1.0080           0
  110011 WT7  3290 TIP3 OH2  OT    -0.834000       15.9994           0
  110012 WT7  3290 TIP3 H1   HT     0.417000        1.0080           0
  110013 WT7  3290 TIP3 H2   HT     0.417000        1.0080           0
  110014 WT7  3291 TIP3 OH2  OT    -0.834000       15.9994           0
  110015 WT7  3291 TIP3 H1   HT     0.417000        1.0080           0
  110016 WT7  3291 TIP3 H2   HT     0.417000        1.0080           0
  110017 WT7  3292 TIP3 OH2  OT    -0.834000       15.9994           0
  110018 WT7  3292 TIP3 H1   HT     0.417000        1.0080           0
  110019 WT7  3292 TIP3 H2   HT     0.417000        1.0080           0
  110020 WT7  3293 TIP3 OH2  OT    -0.834000       15.9994           0
  110021 WT7  3293 TIP3 H1   HT     0.417000        1.0080           0
  110022 WT7  3293 TIP3 H2   HT     0.417000        1.0080           0
  110023 WT7  3294 TIP3 OH2  OT    -0.834000       15.9994           0
  110024 WT7  3294 TIP3 H1   HT     0.417000        1.0080           0
  110025 WT7  3294 TIP3 H2   HT     0.417000        1.0080           0
  110026 WT7  3295 TIP3 OH2  OT    -0.834000       15.9994           0
  110027 WT7  3295 TIP3 H1   HT     0.417000        1.0080           0
  110028 WT7  3295 TIP3 H2   HT     0.417000        1.0080           0
  110029 WT7  3296 TIP3 OH2  OT    -0.834000       15.9994           0
  110030 WT7  3296 TIP3 H1   HT     0.417000        1.0080           0
  110031 WT7  3296 TIP3 H2   HT     0.417000        1.0080           0
  110032 WT7  3297 TIP3 OH2  OT    -0.834000       15.9994           0
  110033 WT7  3297 TIP3 H1   HT     0.417000        1.0080           0
  110034 WT7  3297 TIP3 H2   HT     0.417000        1.0080           0
  110035 WT7  3298 TIP3 OH2  OT    -0.834000       15.9994           0
  110036 WT7  3298 TIP3 H1   HT     0.417000        1.0080           0
  110037 WT7  3298 TIP3 H2   HT     0.417000        1.0080           0
  110038 WT7  3299 TIP3 OH2  OT    -0.834000       15.9994           0
  110039 WT7  3299 TIP3 H1   HT     0.417000        1.0080           0
  110040 WT7  3299 TIP3 H2   HT     0.417000        1.0080           0
  110041 WT7  3300 TIP3 OH2  OT    -0.834000       15.9994           0
  110042 WT7  3300 TIP3 H1   HT     0.417000        1.0080           0
  110043 WT7  3300 TIP3 H2   HT     0.417000        1.0080           0
  110044 WT7  3301 TIP3 OH2  OT    -0.834000       15.9994           0
  110045 WT7  3301 TIP3 H1   HT     0.417000        1.0080           0
  110046 WT7  3301 TIP3 H2   HT     0.417000        1.0080           0
  110047 WT7  3302 TIP3 OH2  OT    -0.834000       15.9994           0
  110048 WT7  3302 TIP3 H1   HT     0.417000        1.0080           0
  110049 WT7  3302 TIP3 H2   HT     0.417000        1.0080           0
  110050 WT7  3303 TIP3 OH2  OT    -0.834000       15.9994           0
  110051 WT7  3303 TIP3 H1   HT     0.417000        1.0080           0
  110052 WT7  3303 TIP3 H2   HT     0.417000        1.0080           0
  110053 WT7  3304 TIP3 OH2  OT    -0.834000       15.9994           0
  110054 WT7  3304 TIP3 H1   HT     0.417000        1.0080           0
  110055 WT7  3304 TIP3 H2   HT     0.417000        1.0080           0
  110056 WT7  3305 TIP3 OH2  OT    -0.834000       15.9994           0
  110057 WT7  3305 TIP3 H1   HT     0.417000        1.0080           0
  110058 WT7  3305 TIP3 H2   HT     0.417000        1.0080           0
  110059 WT7  3306 TIP3 OH2  OT    -0.834000       15.9994           0
  110060 WT7  3306 TIP3 H1   HT     0.417000        1.0080           0
  110061 WT7  3306 TIP3 H2   HT     0.417000        1.0080           0
  110062 WT7  3307 TIP3 OH2  OT    -0.834000       15.9994           0
  110063 WT7  3307 TIP3 H1   HT     0.417000        1.0080           0
  110064 WT7  3307 TIP3 H2   HT     0.417000        1.0080           0
  110065 WT7  3308 TIP3 OH2  OT    -0.834000       15.9994           0
  110066 WT7  3308 TIP3 H1   HT     0.417000        1.0080           0
  110067 WT7  3308 TIP3 H2   HT     0.417000        1.0080           0
  110068 WT7  3309 TIP3 OH2  OT    -0.834000       15.9994           0
  110069 WT7  3309 TIP3 H1   HT     0.417000        1.0080           0
  110070 WT7  3309 TIP3 H2   HT     0.417000        1.0080           0
  110071 WT7  3310 TIP3 OH2  OT    -0.834000       15.9994           0
  110072 WT7  3310 TIP3 H1   HT     0.417000        1.0080           0
  110073 WT7  3310 TIP3 H2   HT     0.417000        1.0080           0
  110074 WT7  3312 TIP3 OH2  OT    -0.834000       15.9994           0
  110075 WT7  3312 TIP3 H1   HT     0.417000        1.0080           0
  110076 WT7  3312 TIP3 H2   HT     0.417000        1.0080           0
  110077 WT7  3314 TIP3 OH2  OT    -0.834000       15.9994           0
  110078 WT7  3314 TIP3 H1   HT     0.417000        1.0080           0
  110079 WT7  3314 TIP3 H2   HT     0.417000        1.0080           0
  110080 WT7  3315 TIP3 OH2  OT    -0.834000       15.9994           0
  110081 WT7  3315 TIP3 H1   HT     0.417000        1.0080           0
  110082 WT7  3315 TIP3 H2   HT     0.417000        1.0080           0
  110083 WT7  3316 TIP3 OH2  OT    -0.834000       15.9994           0
  110084 WT7  3316 TIP3 H1   HT     0.417000        1.0080           0
  110085 WT7  3316 TIP3 H2   HT     0.417000        1.0080           0
  110086 WT7  3317 TIP3 OH2  OT    -0.834000       15.9994           0
  110087 WT7  3317 TIP3 H1   HT     0.417000        1.0080           0
  110088 WT7  3317 TIP3 H2   HT     0.417000        1.0080           0
  110089 WT7  3319 TIP3 OH2  OT    -0.834000       15.9994           0
  110090 WT7  3319 TIP3 H1   HT     0.417000        1.0080           0
  110091 WT7  3319 TIP3 H2   HT     0.417000        1.0080           0
  110092 WT7  3321 TIP3 OH2  OT    -0.834000       15.9994           0
  110093 WT7  3321 TIP3 H1   HT     0.417000        1.0080           0
  110094 WT7  3321 TIP3 H2   HT     0.417000        1.0080           0
  110095 WT7  3322 TIP3 OH2  OT    -0.834000       15.9994           0
  110096 WT7  3322 TIP3 H1   HT     0.417000        1.0080           0
  110097 WT7  3322 TIP3 H2   HT     0.417000        1.0080           0
  110098 WT7  3323 TIP3 OH2  OT    -0.834000       15.9994           0
  110099 WT7  3323 TIP3 H1   HT     0.417000        1.0080           0
  110100 WT7  3323 TIP3 H2   HT     0.417000        1.0080           0
  110101 WT7  3324 TIP3 OH2  OT    -0.834000       15.9994           0
  110102 WT7  3324 TIP3 H1   HT     0.417000        1.0080           0
  110103 WT7  3324 TIP3 H2   HT     0.417000        1.0080           0
  110104 WT7  3325 TIP3 OH2  OT    -0.834000       15.9994           0
  110105 WT7  3325 TIP3 H1   HT     0.417000        1.0080           0
  110106 WT7  3325 TIP3 H2   HT     0.417000        1.0080           0
  110107 WT7  3326 TIP3 OH2  OT    -0.834000       15.9994           0
  110108 WT7  3326 TIP3 H1   HT     0.417000        1.0080           0
  110109 WT7  3326 TIP3 H2   HT     0.417000        1.0080           0
  110110 WT7  3327 TIP3 OH2  OT    -0.834000       15.9994           0
  110111 WT7  3327 TIP3 H1   HT     0.417000        1.0080           0
  110112 WT7  3327 TIP3 H2   HT     0.417000        1.0080           0
  110113 WT7  3329 TIP3 OH2  OT    -0.834000       15.9994           0
  110114 WT7  3329 TIP3 H1   HT     0.417000        1.0080           0
  110115 WT7  3329 TIP3 H2   HT     0.417000        1.0080           0
  110116 WT7  3330 TIP3 OH2  OT    -0.834000       15.9994           0
  110117 WT7  3330 TIP3 H1   HT     0.417000        1.0080           0
  110118 WT7  3330 TIP3 H2   HT     0.417000        1.0080           0
  110119 WT7  3331 TIP3 OH2  OT    -0.834000       15.9994           0
  110120 WT7  3331 TIP3 H1   HT     0.417000        1.0080           0
  110121 WT7  3331 TIP3 H2   HT     0.417000        1.0080           0
  110122 WT7  3333 TIP3 OH2  OT    -0.834000       15.9994           0
  110123 WT7  3333 TIP3 H1   HT     0.417000        1.0080           0
  110124 WT7  3333 TIP3 H2   HT     0.417000        1.0080           0
  110125 WT7  3334 TIP3 OH2  OT    -0.834000       15.9994           0
  110126 WT7  3334 TIP3 H1   HT     0.417000        1.0080           0
  110127 WT7  3334 TIP3 H2   HT     0.417000        1.0080           0
  110128 WT7  3335 TIP3 OH2  OT    -0.834000       15.9994           0
  110129 WT7  3335 TIP3 H1   HT     0.417000        1.0080           0
  110130 WT7  3335 TIP3 H2   HT     0.417000        1.0080           0
  110131 WT7  3339 TIP3 OH2  OT    -0.834000       15.9994           0
  110132 WT7  3339 TIP3 H1   HT     0.417000        1.0080           0
  110133 WT7  3339 TIP3 H2   HT     0.417000        1.0080           0
  110134 WT7  3341 TIP3 OH2  OT    -0.834000       15.9994           0
  110135 WT7  3341 TIP3 H1   HT     0.417000        1.0080           0
  110136 WT7  3341 TIP3 H2   HT     0.417000        1.0080           0
  110137 WT7  3342 TIP3 OH2  OT    -0.834000       15.9994           0
  110138 WT7  3342 TIP3 H1   HT     0.417000        1.0080           0
  110139 WT7  3342 TIP3 H2   HT     0.417000        1.0080           0
  110140 WT7  3344 TIP3 OH2  OT    -0.834000       15.9994           0
  110141 WT7  3344 TIP3 H1   HT     0.417000        1.0080           0
  110142 WT7  3344 TIP3 H2   HT     0.417000        1.0080           0
  110143 WT7  3345 TIP3 OH2  OT    -0.834000       15.9994           0
  110144 WT7  3345 TIP3 H1   HT     0.417000        1.0080           0
  110145 WT7  3345 TIP3 H2   HT     0.417000        1.0080           0
  110146 WT7  3346 TIP3 OH2  OT    -0.834000       15.9994           0
  110147 WT7  3346 TIP3 H1   HT     0.417000        1.0080           0
  110148 WT7  3346 TIP3 H2   HT     0.417000        1.0080           0
  110149 WT7  3347 TIP3 OH2  OT    -0.834000       15.9994           0
  110150 WT7  3347 TIP3 H1   HT     0.417000        1.0080           0
  110151 WT7  3347 TIP3 H2   HT     0.417000        1.0080           0
  110152 WT7  3348 TIP3 OH2  OT    -0.834000       15.9994           0
  110153 WT7  3348 TIP3 H1   HT     0.417000        1.0080           0
  110154 WT7  3348 TIP3 H2   HT     0.417000        1.0080           0
  110155 WT7  3349 TIP3 OH2  OT    -0.834000       15.9994           0
  110156 WT7  3349 TIP3 H1   HT     0.417000        1.0080           0
  110157 WT7  3349 TIP3 H2   HT     0.417000        1.0080           0
  110158 WT7  3352 TIP3 OH2  OT    -0.834000       15.9994           0
  110159 WT7  3352 TIP3 H1   HT     0.417000        1.0080           0
  110160 WT7  3352 TIP3 H2   HT     0.417000        1.0080           0
  110161 WT7  3353 TIP3 OH2  OT    -0.834000       15.9994           0
  110162 WT7  3353 TIP3 H1   HT     0.417000        1.0080           0
  110163 WT7  3353 TIP3 H2   HT     0.417000        1.0080           0
  110164 WT7  3354 TIP3 OH2  OT    -0.834000       15.9994           0
  110165 WT7  3354 TIP3 H1   HT     0.417000        1.0080           0
  110166 WT7  3354 TIP3 H2   HT     0.417000        1.0080           0
  110167 WT7  3355 TIP3 OH2  OT    -0.834000       15.9994           0
  110168 WT7  3355 TIP3 H1   HT     0.417000        1.0080           0
  110169 WT7  3355 TIP3 H2   HT     0.417000        1.0080           0
  110170 WT7  3356 TIP3 OH2  OT    -0.834000       15.9994           0
  110171 WT7  3356 TIP3 H1   HT     0.417000        1.0080           0
  110172 WT7  3356 TIP3 H2   HT     0.417000        1.0080           0
  110173 WT7  3358 TIP3 OH2  OT    -0.834000       15.9994           0
  110174 WT7  3358 TIP3 H1   HT     0.417000        1.0080           0
  110175 WT7  3358 TIP3 H2   HT     0.417000        1.0080           0
  110176 WT7  3359 TIP3 OH2  OT    -0.834000       15.9994           0
  110177 WT7  3359 TIP3 H1   HT     0.417000        1.0080           0
  110178 WT7  3359 TIP3 H2   HT     0.417000        1.0080           0
  110179 WT7  3360 TIP3 OH2  OT    -0.834000       15.9994           0
  110180 WT7  3360 TIP3 H1   HT     0.417000        1.0080           0
  110181 WT7  3360 TIP3 H2   HT     0.417000        1.0080           0
  110182 WT7  3361 TIP3 OH2  OT    -0.834000       15.9994           0
  110183 WT7  3361 TIP3 H1   HT     0.417000        1.0080           0
  110184 WT7  3361 TIP3 H2   HT     0.417000        1.0080           0
  110185 WT7  3362 TIP3 OH2  OT    -0.834000       15.9994           0
  110186 WT7  3362 TIP3 H1   HT     0.417000        1.0080           0
  110187 WT7  3362 TIP3 H2   HT     0.417000        1.0080           0
  110188 WT7  3364 TIP3 OH2  OT    -0.834000       15.9994           0
  110189 WT7  3364 TIP3 H1   HT     0.417000        1.0080           0
  110190 WT7  3364 TIP3 H2   HT     0.417000        1.0080           0
  110191 WT7  3365 TIP3 OH2  OT    -0.834000       15.9994           0
  110192 WT7  3365 TIP3 H1   HT     0.417000        1.0080           0
  110193 WT7  3365 TIP3 H2   HT     0.417000        1.0080           0
  110194 WT7  3366 TIP3 OH2  OT    -0.834000       15.9994           0
  110195 WT7  3366 TIP3 H1   HT     0.417000        1.0080           0
  110196 WT7  3366 TIP3 H2   HT     0.417000        1.0080           0
  110197 WT7  3367 TIP3 OH2  OT    -0.834000       15.9994           0
  110198 WT7  3367 TIP3 H1   HT     0.417000        1.0080           0
  110199 WT7  3367 TIP3 H2   HT     0.417000        1.0080           0
  110200 WT7  3369 TIP3 OH2  OT    -0.834000       15.9994           0
  110201 WT7  3369 TIP3 H1   HT     0.417000        1.0080           0
  110202 WT7  3369 TIP3 H2   HT     0.417000        1.0080           0
  110203 WT7  3371 TIP3 OH2  OT    -0.834000       15.9994           0
  110204 WT7  3371 TIP3 H1   HT     0.417000        1.0080           0
  110205 WT7  3371 TIP3 H2   HT     0.417000        1.0080           0
  110206 WT7  3373 TIP3 OH2  OT    -0.834000       15.9994           0
  110207 WT7  3373 TIP3 H1   HT     0.417000        1.0080           0
  110208 WT7  3373 TIP3 H2   HT     0.417000        1.0080           0
  110209 WT7  3381 TIP3 OH2  OT    -0.834000       15.9994           0
  110210 WT7  3381 TIP3 H1   HT     0.417000        1.0080           0
  110211 WT7  3381 TIP3 H2   HT     0.417000        1.0080           0
  110212 WT7  3382 TIP3 OH2  OT    -0.834000       15.9994           0
  110213 WT7  3382 TIP3 H1   HT     0.417000        1.0080           0
  110214 WT7  3382 TIP3 H2   HT     0.417000        1.0080           0
  110215 WT7  3385 TIP3 OH2  OT    -0.834000       15.9994           0
  110216 WT7  3385 TIP3 H1   HT     0.417000        1.0080           0
  110217 WT7  3385 TIP3 H2   HT     0.417000        1.0080           0
  110218 WT7  3386 TIP3 OH2  OT    -0.834000       15.9994           0
  110219 WT7  3386 TIP3 H1   HT     0.417000        1.0080           0
  110220 WT7  3386 TIP3 H2   HT     0.417000        1.0080           0
  110221 WT7  3387 TIP3 OH2  OT    -0.834000       15.9994           0
  110222 WT7  3387 TIP3 H1   HT     0.417000        1.0080           0
  110223 WT7  3387 TIP3 H2   HT     0.417000        1.0080           0
  110224 WT7  3390 TIP3 OH2  OT    -0.834000       15.9994           0
  110225 WT7  3390 TIP3 H1   HT     0.417000        1.0080           0
  110226 WT7  3390 TIP3 H2   HT     0.417000        1.0080           0
  110227 WT7  3401 TIP3 OH2  OT    -0.834000       15.9994           0
  110228 WT7  3401 TIP3 H1   HT     0.417000        1.0080           0
  110229 WT7  3401 TIP3 H2   HT     0.417000        1.0080           0
  110230 WT7  3402 TIP3 OH2  OT    -0.834000       15.9994           0
  110231 WT7  3402 TIP3 H1   HT     0.417000        1.0080           0
  110232 WT7  3402 TIP3 H2   HT     0.417000        1.0080           0
  110233 WT7  3406 TIP3 OH2  OT    -0.834000       15.9994           0
  110234 WT7  3406 TIP3 H1   HT     0.417000        1.0080           0
  110235 WT7  3406 TIP3 H2   HT     0.417000        1.0080           0
  110236 WT7  3407 TIP3 OH2  OT    -0.834000       15.9994           0
  110237 WT7  3407 TIP3 H1   HT     0.417000        1.0080           0
  110238 WT7  3407 TIP3 H2   HT     0.417000        1.0080           0
  110239 WT7  3408 TIP3 OH2  OT    -0.834000       15.9994           0
  110240 WT7  3408 TIP3 H1   HT     0.417000        1.0080           0
  110241 WT7  3408 TIP3 H2   HT     0.417000        1.0080           0
  110242 WT7  3413 TIP3 OH2  OT    -0.834000       15.9994           0
  110243 WT7  3413 TIP3 H1   HT     0.417000        1.0080           0
  110244 WT7  3413 TIP3 H2   HT     0.417000        1.0080           0
  110245 WT7  3415 TIP3 OH2  OT    -0.834000       15.9994           0
  110246 WT7  3415 TIP3 H1   HT     0.417000        1.0080           0
  110247 WT7  3415 TIP3 H2   HT     0.417000        1.0080           0
  110248 WT7  3418 TIP3 OH2  OT    -0.834000       15.9994           0
  110249 WT7  3418 TIP3 H1   HT     0.417000        1.0080           0
  110250 WT7  3418 TIP3 H2   HT     0.417000        1.0080           0
  110251 WT7  3426 TIP3 OH2  OT    -0.834000       15.9994           0
  110252 WT7  3426 TIP3 H1   HT     0.417000        1.0080           0
  110253 WT7  3426 TIP3 H2   HT     0.417000        1.0080           0
  110254 WT7  3427 TIP3 OH2  OT    -0.834000       15.9994           0
  110255 WT7  3427 TIP3 H1   HT     0.417000        1.0080           0
  110256 WT7  3427 TIP3 H2   HT     0.417000        1.0080           0
  110257 WT7  3429 TIP3 OH2  OT    -0.834000       15.9994           0
  110258 WT7  3429 TIP3 H1   HT     0.417000        1.0080           0
  110259 WT7  3429 TIP3 H2   HT     0.417000        1.0080           0
  110260 WT7  3430 TIP3 OH2  OT    -0.834000       15.9994           0
  110261 WT7  3430 TIP3 H1   HT     0.417000        1.0080           0
  110262 WT7  3430 TIP3 H2   HT     0.417000        1.0080           0
  110263 WT7  3434 TIP3 OH2  OT    -0.834000       15.9994           0
  110264 WT7  3434 TIP3 H1   HT     0.417000        1.0080           0
  110265 WT7  3434 TIP3 H2   HT     0.417000        1.0080           0
  110266 WT7  3438 TIP3 OH2  OT    -0.834000       15.9994           0
  110267 WT7  3438 TIP3 H1   HT     0.417000        1.0080           0
  110268 WT7  3438 TIP3 H2   HT     0.417000        1.0080           0
  110269 WT7  3440 TIP3 OH2  OT    -0.834000       15.9994           0
  110270 WT7  3440 TIP3 H1   HT     0.417000        1.0080           0
  110271 WT7  3440 TIP3 H2   HT     0.417000        1.0080           0
  110272 WT7  3442 TIP3 OH2  OT    -0.834000       15.9994           0
  110273 WT7  3442 TIP3 H1   HT     0.417000        1.0080           0
  110274 WT7  3442 TIP3 H2   HT     0.417000        1.0080           0
  110275 WT7  3447 TIP3 OH2  OT    -0.834000       15.9994           0
  110276 WT7  3447 TIP3 H1   HT     0.417000        1.0080           0
  110277 WT7  3447 TIP3 H2   HT     0.417000        1.0080           0
  110278 WT7  3450 TIP3 OH2  OT    -0.834000       15.9994           0
  110279 WT7  3450 TIP3 H1   HT     0.417000        1.0080           0
  110280 WT7  3450 TIP3 H2   HT     0.417000        1.0080           0
  110281 WT7  3459 TIP3 OH2  OT    -0.834000       15.9994           0
  110282 WT7  3459 TIP3 H1   HT     0.417000        1.0080           0
  110283 WT7  3459 TIP3 H2   HT     0.417000        1.0080           0
  110284 WT7  3473 TIP3 OH2  OT    -0.834000       15.9994           0
  110285 WT7  3473 TIP3 H1   HT     0.417000        1.0080           0
  110286 WT7  3473 TIP3 H2   HT     0.417000        1.0080           0
  110287 WT7  3474 TIP3 OH2  OT    -0.834000       15.9994           0
  110288 WT7  3474 TIP3 H1   HT     0.417000        1.0080           0
  110289 WT7  3474 TIP3 H2   HT     0.417000        1.0080           0
  110290 WT7  3476 TIP3 OH2  OT    -0.834000       15.9994           0
  110291 WT7  3476 TIP3 H1   HT     0.417000        1.0080           0
  110292 WT7  3476 TIP3 H2   HT     0.417000        1.0080           0
  110293 WT7  3480 TIP3 OH2  OT    -0.834000       15.9994           0
  110294 WT7  3480 TIP3 H1   HT     0.417000        1.0080           0
  110295 WT7  3480 TIP3 H2   HT     0.417000        1.0080           0
  110296 WT7  3484 TIP3 OH2  OT    -0.834000       15.9994           0
  110297 WT7  3484 TIP3 H1   HT     0.417000        1.0080           0
  110298 WT7  3484 TIP3 H2   HT     0.417000        1.0080           0
  110299 WT7  3496 TIP3 OH2  OT    -0.834000       15.9994           0
  110300 WT7  3496 TIP3 H1   HT     0.417000        1.0080           0
  110301 WT7  3496 TIP3 H2   HT     0.417000        1.0080           0
  110302 WT7  3497 TIP3 OH2  OT    -0.834000       15.9994           0
  110303 WT7  3497 TIP3 H1   HT     0.417000        1.0080           0
  110304 WT7  3497 TIP3 H2   HT     0.417000        1.0080           0
  110305 WT7  3504 TIP3 OH2  OT    -0.834000       15.9994           0
  110306 WT7  3504 TIP3 H1   HT     0.417000        1.0080           0
  110307 WT7  3504 TIP3 H2   HT     0.417000        1.0080           0
  110308 WT7  3507 TIP3 OH2  OT    -0.834000       15.9994           0
  110309 WT7  3507 TIP3 H1   HT     0.417000        1.0080           0
  110310 WT7  3507 TIP3 H2   HT     0.417000        1.0080           0
  110311 WT7  3511 TIP3 OH2  OT    -0.834000       15.9994           0
  110312 WT7  3511 TIP3 H1   HT     0.417000        1.0080           0
  110313 WT7  3511 TIP3 H2   HT     0.417000        1.0080           0
  110314 WT7  3513 TIP3 OH2  OT    -0.834000       15.9994           0
  110315 WT7  3513 TIP3 H1   HT     0.417000        1.0080           0
  110316 WT7  3513 TIP3 H2   HT     0.417000        1.0080           0
  110317 WT7  3517 TIP3 OH2  OT    -0.834000       15.9994           0
  110318 WT7  3517 TIP3 H1   HT     0.417000        1.0080           0
  110319 WT7  3517 TIP3 H2   HT     0.417000        1.0080           0
  110320 WT7  3521 TIP3 OH2  OT    -0.834000       15.9994           0
  110321 WT7  3521 TIP3 H1   HT     0.417000        1.0080           0
  110322 WT7  3521 TIP3 H2   HT     0.417000        1.0080           0
  110323 WT7  3526 TIP3 OH2  OT    -0.834000       15.9994           0
  110324 WT7  3526 TIP3 H1   HT     0.417000        1.0080           0
  110325 WT7  3526 TIP3 H2   HT     0.417000        1.0080           0
  110326 WT7  3527 TIP3 OH2  OT    -0.834000       15.9994           0
  110327 WT7  3527 TIP3 H1   HT     0.417000        1.0080           0
  110328 WT7  3527 TIP3 H2   HT     0.417000        1.0080           0
  110329 WT7  3533 TIP3 OH2  OT    -0.834000       15.9994           0
  110330 WT7  3533 TIP3 H1   HT     0.417000        1.0080           0
  110331 WT7  3533 TIP3 H2   HT     0.417000        1.0080           0
  110332 WT7  3534 TIP3 OH2  OT    -0.834000       15.9994           0
  110333 WT7  3534 TIP3 H1   HT     0.417000        1.0080           0
  110334 WT7  3534 TIP3 H2   HT     0.417000        1.0080           0
  110335 WT7  3537 TIP3 OH2  OT    -0.834000       15.9994           0
  110336 WT7  3537 TIP3 H1   HT     0.417000        1.0080           0
  110337 WT7  3537 TIP3 H2   HT     0.417000        1.0080           0
  110338 WT7  3545 TIP3 OH2  OT    -0.834000       15.9994           0
  110339 WT7  3545 TIP3 H1   HT     0.417000        1.0080           0
  110340 WT7  3545 TIP3 H2   HT     0.417000        1.0080           0
  110341 WT7  3548 TIP3 OH2  OT    -0.834000       15.9994           0
  110342 WT7  3548 TIP3 H1   HT     0.417000        1.0080           0
  110343 WT7  3548 TIP3 H2   HT     0.417000        1.0080           0
  110344 WT7  3552 TIP3 OH2  OT    -0.834000       15.9994           0
  110345 WT7  3552 TIP3 H1   HT     0.417000        1.0080           0
  110346 WT7  3552 TIP3 H2   HT     0.417000        1.0080           0
  110347 WT7  3554 TIP3 OH2  OT    -0.834000       15.9994           0
  110348 WT7  3554 TIP3 H1   HT     0.417000        1.0080           0
  110349 WT7  3554 TIP3 H2   HT     0.417000        1.0080           0
  110350 WT7  3555 TIP3 OH2  OT    -0.834000       15.9994           0
  110351 WT7  3555 TIP3 H1   HT     0.417000        1.0080           0
  110352 WT7  3555 TIP3 H2   HT     0.417000        1.0080           0
  110353 WT7  3556 TIP3 OH2  OT    -0.834000       15.9994           0
  110354 WT7  3556 TIP3 H1   HT     0.417000        1.0080           0
  110355 WT7  3556 TIP3 H2   HT     0.417000        1.0080           0
  110356 WT7  3557 TIP3 OH2  OT    -0.834000       15.9994           0
  110357 WT7  3557 TIP3 H1   HT     0.417000        1.0080           0
  110358 WT7  3557 TIP3 H2   HT     0.417000        1.0080           0
  110359 WT7  3558 TIP3 OH2  OT    -0.834000       15.9994           0
  110360 WT7  3558 TIP3 H1   HT     0.417000        1.0080           0
  110361 WT7  3558 TIP3 H2   HT     0.417000        1.0080           0
  110362 WT7  3560 TIP3 OH2  OT    -0.834000       15.9994           0
  110363 WT7  3560 TIP3 H1   HT     0.417000        1.0080           0
  110364 WT7  3560 TIP3 H2   HT     0.417000        1.0080           0
  110365 WT7  3561 TIP3 OH2  OT    -0.834000       15.9994           0
  110366 WT7  3561 TIP3 H1   HT     0.417000        1.0080           0
  110367 WT7  3561 TIP3 H2   HT     0.417000        1.0080           0
  110368 WT7  3562 TIP3 OH2  OT    -0.834000       15.9994           0
  110369 WT7  3562 TIP3 H1   HT     0.417000        1.0080           0
  110370 WT7  3562 TIP3 H2   HT     0.417000        1.0080           0
  110371 WT7  3563 TIP3 OH2  OT    -0.834000       15.9994           0
  110372 WT7  3563 TIP3 H1   HT     0.417000        1.0080           0
  110373 WT7  3563 TIP3 H2   HT     0.417000        1.0080           0
  110374 WT7  3564 TIP3 OH2  OT    -0.834000       15.9994           0
  110375 WT7  3564 TIP3 H1   HT     0.417000        1.0080           0
  110376 WT7  3564 TIP3 H2   HT     0.417000        1.0080           0
  110377 WT7  3569 TIP3 OH2  OT    -0.834000       15.9994           0
  110378 WT7  3569 TIP3 H1   HT     0.417000        1.0080           0
  110379 WT7  3569 TIP3 H2   HT     0.417000        1.0080           0
  110380 WT7  3573 TIP3 OH2  OT    -0.834000       15.9994           0
  110381 WT7  3573 TIP3 H1   HT     0.417000        1.0080           0
  110382 WT7  3573 TIP3 H2   HT     0.417000        1.0080           0
  110383 WT7  3575 TIP3 OH2  OT    -0.834000       15.9994           0
  110384 WT7  3575 TIP3 H1   HT     0.417000        1.0080           0
  110385 WT7  3575 TIP3 H2   HT     0.417000        1.0080           0
  110386 WT7  3576 TIP3 OH2  OT    -0.834000       15.9994           0
  110387 WT7  3576 TIP3 H1   HT     0.417000        1.0080           0
  110388 WT7  3576 TIP3 H2   HT     0.417000        1.0080           0
  110389 WT7  3578 TIP3 OH2  OT    -0.834000       15.9994           0
  110390 WT7  3578 TIP3 H1   HT     0.417000        1.0080           0
  110391 WT7  3578 TIP3 H2   HT     0.417000        1.0080           0
  110392 WT7  3579 TIP3 OH2  OT    -0.834000       15.9994           0
  110393 WT7  3579 TIP3 H1   HT     0.417000        1.0080           0
  110394 WT7  3579 TIP3 H2   HT     0.417000        1.0080           0
  110395 WT7  3580 TIP3 OH2  OT    -0.834000       15.9994           0
  110396 WT7  3580 TIP3 H1   HT     0.417000        1.0080           0
  110397 WT7  3580 TIP3 H2   HT     0.417000        1.0080           0
  110398 WT7  3582 TIP3 OH2  OT    -0.834000       15.9994           0
  110399 WT7  3582 TIP3 H1   HT     0.417000        1.0080           0
  110400 WT7  3582 TIP3 H2   HT     0.417000        1.0080           0
  110401 WT7  3583 TIP3 OH2  OT    -0.834000       15.9994           0
  110402 WT7  3583 TIP3 H1   HT     0.417000        1.0080           0
  110403 WT7  3583 TIP3 H2   HT     0.417000        1.0080           0
  110404 WT7  3585 TIP3 OH2  OT    -0.834000       15.9994           0
  110405 WT7  3585 TIP3 H1   HT     0.417000        1.0080           0
  110406 WT7  3585 TIP3 H2   HT     0.417000        1.0080           0
  110407 WT7  3586 TIP3 OH2  OT    -0.834000       15.9994           0
  110408 WT7  3586 TIP3 H1   HT     0.417000        1.0080           0
  110409 WT7  3586 TIP3 H2   HT     0.417000        1.0080           0
  110410 WT7  3587 TIP3 OH2  OT    -0.834000       15.9994           0
  110411 WT7  3587 TIP3 H1   HT     0.417000        1.0080           0
  110412 WT7  3587 TIP3 H2   HT     0.417000        1.0080           0
  110413 WT7  3588 TIP3 OH2  OT    -0.834000       15.9994           0
  110414 WT7  3588 TIP3 H1   HT     0.417000        1.0080           0
  110415 WT7  3588 TIP3 H2   HT     0.417000        1.0080           0
  110416 WT7  3589 TIP3 OH2  OT    -0.834000       15.9994           0
  110417 WT7  3589 TIP3 H1   HT     0.417000        1.0080           0
  110418 WT7  3589 TIP3 H2   HT     0.417000        1.0080           0
  110419 WT7  3590 TIP3 OH2  OT    -0.834000       15.9994           0
  110420 WT7  3590 TIP3 H1   HT     0.417000        1.0080           0
  110421 WT7  3590 TIP3 H2   HT     0.417000        1.0080           0
  110422 WT7  3592 TIP3 OH2  OT    -0.834000       15.9994           0
  110423 WT7  3592 TIP3 H1   HT     0.417000        1.0080           0
  110424 WT7  3592 TIP3 H2   HT     0.417000        1.0080           0
  110425 WT7  3593 TIP3 OH2  OT    -0.834000       15.9994           0
  110426 WT7  3593 TIP3 H1   HT     0.417000        1.0080           0
  110427 WT7  3593 TIP3 H2   HT     0.417000        1.0080           0
  110428 WT7  3595 TIP3 OH2  OT    -0.834000       15.9994           0
  110429 WT7  3595 TIP3 H1   HT     0.417000        1.0080           0
  110430 WT7  3595 TIP3 H2   HT     0.417000        1.0080           0
  110431 WT7  3596 TIP3 OH2  OT    -0.834000       15.9994           0
  110432 WT7  3596 TIP3 H1   HT     0.417000        1.0080           0
  110433 WT7  3596 TIP3 H2   HT     0.417000        1.0080           0
  110434 WT7  3597 TIP3 OH2  OT    -0.834000       15.9994           0
  110435 WT7  3597 TIP3 H1   HT     0.417000        1.0080           0
  110436 WT7  3597 TIP3 H2   HT     0.417000        1.0080           0
  110437 WT7  3598 TIP3 OH2  OT    -0.834000       15.9994           0
  110438 WT7  3598 TIP3 H1   HT     0.417000        1.0080           0
  110439 WT7  3598 TIP3 H2   HT     0.417000        1.0080           0
  110440 WT7  3599 TIP3 OH2  OT    -0.834000       15.9994           0
  110441 WT7  3599 TIP3 H1   HT     0.417000        1.0080           0
  110442 WT7  3599 TIP3 H2   HT     0.417000        1.0080           0
  110443 WT7  3600 TIP3 OH2  OT    -0.834000       15.9994           0
  110444 WT7  3600 TIP3 H1   HT     0.417000        1.0080           0
  110445 WT7  3600 TIP3 H2   HT     0.417000        1.0080           0
  110446 WT7  3602 TIP3 OH2  OT    -0.834000       15.9994           0
  110447 WT7  3602 TIP3 H1   HT     0.417000        1.0080           0
  110448 WT7  3602 TIP3 H2   HT     0.417000        1.0080           0
  110449 WT7  3603 TIP3 OH2  OT    -0.834000       15.9994           0
  110450 WT7  3603 TIP3 H1   HT     0.417000        1.0080           0
  110451 WT7  3603 TIP3 H2   HT     0.417000        1.0080           0
  110452 WT7  3604 TIP3 OH2  OT    -0.834000       15.9994           0
  110453 WT7  3604 TIP3 H1   HT     0.417000        1.0080           0
  110454 WT7  3604 TIP3 H2   HT     0.417000        1.0080           0
  110455 WT7  3607 TIP3 OH2  OT    -0.834000       15.9994           0
  110456 WT7  3607 TIP3 H1   HT     0.417000        1.0080           0
  110457 WT7  3607 TIP3 H2   HT     0.417000        1.0080           0
  110458 WT7  3608 TIP3 OH2  OT    -0.834000       15.9994           0
  110459 WT7  3608 TIP3 H1   HT     0.417000        1.0080           0
  110460 WT7  3608 TIP3 H2   HT     0.417000        1.0080           0
  110461 WT7  3610 TIP3 OH2  OT    -0.834000       15.9994           0
  110462 WT7  3610 TIP3 H1   HT     0.417000        1.0080           0
  110463 WT7  3610 TIP3 H2   HT     0.417000        1.0080           0
  110464 WT7  3611 TIP3 OH2  OT    -0.834000       15.9994           0
  110465 WT7  3611 TIP3 H1   HT     0.417000        1.0080           0
  110466 WT7  3611 TIP3 H2   HT     0.417000        1.0080           0
  110467 WT7  3612 TIP3 OH2  OT    -0.834000       15.9994           0
  110468 WT7  3612 TIP3 H1   HT     0.417000        1.0080           0
  110469 WT7  3612 TIP3 H2   HT     0.417000        1.0080           0
  110470 WT7  3613 TIP3 OH2  OT    -0.834000       15.9994           0
  110471 WT7  3613 TIP3 H1   HT     0.417000        1.0080           0
  110472 WT7  3613 TIP3 H2   HT     0.417000        1.0080           0
  110473 WT7  3614 TIP3 OH2  OT    -0.834000       15.9994           0
  110474 WT7  3614 TIP3 H1   HT     0.417000        1.0080           0
  110475 WT7  3614 TIP3 H2   HT     0.417000        1.0080           0
  110476 WT7  3615 TIP3 OH2  OT    -0.834000       15.9994           0
  110477 WT7  3615 TIP3 H1   HT     0.417000        1.0080           0
  110478 WT7  3615 TIP3 H2   HT     0.417000        1.0080           0
  110479 WT7  3616 TIP3 OH2  OT    -0.834000       15.9994           0
  110480 WT7  3616 TIP3 H1   HT     0.417000        1.0080           0
  110481 WT7  3616 TIP3 H2   HT     0.417000        1.0080           0
  110482 WT7  3617 TIP3 OH2  OT    -0.834000       15.9994           0
  110483 WT7  3617 TIP3 H1   HT     0.417000        1.0080           0
  110484 WT7  3617 TIP3 H2   HT     0.417000        1.0080           0
  110485 WT7  3618 TIP3 OH2  OT    -0.834000       15.9994           0
  110486 WT7  3618 TIP3 H1   HT     0.417000        1.0080           0
  110487 WT7  3618 TIP3 H2   HT     0.417000        1.0080           0
  110488 WT7  3619 TIP3 OH2  OT    -0.834000       15.9994           0
  110489 WT7  3619 TIP3 H1   HT     0.417000        1.0080           0
  110490 WT7  3619 TIP3 H2   HT     0.417000        1.0080           0
  110491 WT7  3620 TIP3 OH2  OT    -0.834000       15.9994           0
  110492 WT7  3620 TIP3 H1   HT     0.417000        1.0080           0
  110493 WT7  3620 TIP3 H2   HT     0.417000        1.0080           0
  110494 WT7  3621 TIP3 OH2  OT    -0.834000       15.9994           0
  110495 WT7  3621 TIP3 H1   HT     0.417000        1.0080           0
  110496 WT7  3621 TIP3 H2   HT     0.417000        1.0080           0
  110497 WT7  3622 TIP3 OH2  OT    -0.834000       15.9994           0
  110498 WT7  3622 TIP3 H1   HT     0.417000        1.0080           0
  110499 WT7  3622 TIP3 H2   HT     0.417000        1.0080           0
  110500 WT7  3623 TIP3 OH2  OT    -0.834000       15.9994           0
  110501 WT7  3623 TIP3 H1   HT     0.417000        1.0080           0
  110502 WT7  3623 TIP3 H2   HT     0.417000        1.0080           0
  110503 WT7  3624 TIP3 OH2  OT    -0.834000       15.9994           0
  110504 WT7  3624 TIP3 H1   HT     0.417000        1.0080           0
  110505 WT7  3624 TIP3 H2   HT     0.417000        1.0080           0
  110506 WT7  3625 TIP3 OH2  OT    -0.834000       15.9994           0
  110507 WT7  3625 TIP3 H1   HT     0.417000        1.0080           0
  110508 WT7  3625 TIP3 H2   HT     0.417000        1.0080           0
  110509 WT7  3626 TIP3 OH2  OT    -0.834000       15.9994           0
  110510 WT7  3626 TIP3 H1   HT     0.417000        1.0080           0
  110511 WT7  3626 TIP3 H2   HT     0.417000        1.0080           0
  110512 WT7  3628 TIP3 OH2  OT    -0.834000       15.9994           0
  110513 WT7  3628 TIP3 H1   HT     0.417000        1.0080           0
  110514 WT7  3628 TIP3 H2   HT     0.417000        1.0080           0
  110515 WT7  3629 TIP3 OH2  OT    -0.834000       15.9994           0
  110516 WT7  3629 TIP3 H1   HT     0.417000        1.0080           0
  110517 WT7  3629 TIP3 H2   HT     0.417000        1.0080           0
  110518 WT7  3630 TIP3 OH2  OT    -0.834000       15.9994           0
  110519 WT7  3630 TIP3 H1   HT     0.417000        1.0080           0
  110520 WT7  3630 TIP3 H2   HT     0.417000        1.0080           0
  110521 WT7  3632 TIP3 OH2  OT    -0.834000       15.9994           0
  110522 WT7  3632 TIP3 H1   HT     0.417000        1.0080           0
  110523 WT7  3632 TIP3 H2   HT     0.417000        1.0080           0
  110524 WT7  3633 TIP3 OH2  OT    -0.834000       15.9994           0
  110525 WT7  3633 TIP3 H1   HT     0.417000        1.0080           0
  110526 WT7  3633 TIP3 H2   HT     0.417000        1.0080           0
  110527 WT7  3634 TIP3 OH2  OT    -0.834000       15.9994           0
  110528 WT7  3634 TIP3 H1   HT     0.417000        1.0080           0
  110529 WT7  3634 TIP3 H2   HT     0.417000        1.0080           0
  110530 WT7  3636 TIP3 OH2  OT    -0.834000       15.9994           0
  110531 WT7  3636 TIP3 H1   HT     0.417000        1.0080           0
  110532 WT7  3636 TIP3 H2   HT     0.417000        1.0080           0
  110533 WT7  3638 TIP3 OH2  OT    -0.834000       15.9994           0
  110534 WT7  3638 TIP3 H1   HT     0.417000        1.0080           0
  110535 WT7  3638 TIP3 H2   HT     0.417000        1.0080           0
  110536 WT7  3639 TIP3 OH2  OT    -0.834000       15.9994           0
  110537 WT7  3639 TIP3 H1   HT     0.417000        1.0080           0
  110538 WT7  3639 TIP3 H2   HT     0.417000        1.0080           0
  110539 WT7  3640 TIP3 OH2  OT    -0.834000       15.9994           0
  110540 WT7  3640 TIP3 H1   HT     0.417000        1.0080           0
  110541 WT7  3640 TIP3 H2   HT     0.417000        1.0080           0
  110542 WT7  3641 TIP3 OH2  OT    -0.834000       15.9994           0
  110543 WT7  3641 TIP3 H1   HT     0.417000        1.0080           0
  110544 WT7  3641 TIP3 H2   HT     0.417000        1.0080           0
  110545 WT7  3642 TIP3 OH2  OT    -0.834000       15.9994           0
  110546 WT7  3642 TIP3 H1   HT     0.417000        1.0080           0
  110547 WT7  3642 TIP3 H2   HT     0.417000        1.0080           0
  110548 WT7  3643 TIP3 OH2  OT    -0.834000       15.9994           0
  110549 WT7  3643 TIP3 H1   HT     0.417000        1.0080           0
  110550 WT7  3643 TIP3 H2   HT     0.417000        1.0080           0
  110551 WT7  3644 TIP3 OH2  OT    -0.834000       15.9994           0
  110552 WT7  3644 TIP3 H1   HT     0.417000        1.0080           0
  110553 WT7  3644 TIP3 H2   HT     0.417000        1.0080           0
  110554 WT7  3645 TIP3 OH2  OT    -0.834000       15.9994           0
  110555 WT7  3645 TIP3 H1   HT     0.417000        1.0080           0
  110556 WT7  3645 TIP3 H2   HT     0.417000        1.0080           0
  110557 WT7  3646 TIP3 OH2  OT    -0.834000       15.9994           0
  110558 WT7  3646 TIP3 H1   HT     0.417000        1.0080           0
  110559 WT7  3646 TIP3 H2   HT     0.417000        1.0080           0
  110560 WT7  3647 TIP3 OH2  OT    -0.834000       15.9994           0
  110561 WT7  3647 TIP3 H1   HT     0.417000        1.0080           0
  110562 WT7  3647 TIP3 H2   HT     0.417000        1.0080           0
  110563 WT7  3648 TIP3 OH2  OT    -0.834000       15.9994           0
  110564 WT7  3648 TIP3 H1   HT     0.417000        1.0080           0
  110565 WT7  3648 TIP3 H2   HT     0.417000        1.0080           0
  110566 WT7  3650 TIP3 OH2  OT    -0.834000       15.9994           0
  110567 WT7  3650 TIP3 H1   HT     0.417000        1.0080           0
  110568 WT7  3650 TIP3 H2   HT     0.417000        1.0080           0
  110569 WT7  3651 TIP3 OH2  OT    -0.834000       15.9994           0
  110570 WT7  3651 TIP3 H1   HT     0.417000        1.0080           0
  110571 WT7  3651 TIP3 H2   HT     0.417000        1.0080           0
  110572 WT7  3653 TIP3 OH2  OT    -0.834000       15.9994           0
  110573 WT7  3653 TIP3 H1   HT     0.417000        1.0080           0
  110574 WT7  3653 TIP3 H2   HT     0.417000        1.0080           0
  110575 WT7  3654 TIP3 OH2  OT    -0.834000       15.9994           0
  110576 WT7  3654 TIP3 H1   HT     0.417000        1.0080           0
  110577 WT7  3654 TIP3 H2   HT     0.417000        1.0080           0
  110578 WT7  3655 TIP3 OH2  OT    -0.834000       15.9994           0
  110579 WT7  3655 TIP3 H1   HT     0.417000        1.0080           0
  110580 WT7  3655 TIP3 H2   HT     0.417000        1.0080           0
  110581 WT7  3657 TIP3 OH2  OT    -0.834000       15.9994           0
  110582 WT7  3657 TIP3 H1   HT     0.417000        1.0080           0
  110583 WT7  3657 TIP3 H2   HT     0.417000        1.0080           0
  110584 WT7  3658 TIP3 OH2  OT    -0.834000       15.9994           0
  110585 WT7  3658 TIP3 H1   HT     0.417000        1.0080           0
  110586 WT7  3658 TIP3 H2   HT     0.417000        1.0080           0
  110587 WT7  3659 TIP3 OH2  OT    -0.834000       15.9994           0
  110588 WT7  3659 TIP3 H1   HT     0.417000        1.0080           0
  110589 WT7  3659 TIP3 H2   HT     0.417000        1.0080           0
  110590 WT7  3660 TIP3 OH2  OT    -0.834000       15.9994           0
  110591 WT7  3660 TIP3 H1   HT     0.417000        1.0080           0
  110592 WT7  3660 TIP3 H2   HT     0.417000        1.0080           0
  110593 WT7  3661 TIP3 OH2  OT    -0.834000       15.9994           0
  110594 WT7  3661 TIP3 H1   HT     0.417000        1.0080           0
  110595 WT7  3661 TIP3 H2   HT     0.417000        1.0080           0
  110596 WT7  3662 TIP3 OH2  OT    -0.834000       15.9994           0
  110597 WT7  3662 TIP3 H1   HT     0.417000        1.0080           0
  110598 WT7  3662 TIP3 H2   HT     0.417000        1.0080           0
  110599 WT7  3663 TIP3 OH2  OT    -0.834000       15.9994           0
  110600 WT7  3663 TIP3 H1   HT     0.417000        1.0080           0
  110601 WT7  3663 TIP3 H2   HT     0.417000        1.0080           0
  110602 WT7  3664 TIP3 OH2  OT    -0.834000       15.9994           0
  110603 WT7  3664 TIP3 H1   HT     0.417000        1.0080           0
  110604 WT7  3664 TIP3 H2   HT     0.417000        1.0080           0
  110605 WT7  3665 TIP3 OH2  OT    -0.834000       15.9994           0
  110606 WT7  3665 TIP3 H1   HT     0.417000        1.0080           0
  110607 WT7  3665 TIP3 H2   HT     0.417000        1.0080           0
  110608 WT7  3666 TIP3 OH2  OT    -0.834000       15.9994           0
  110609 WT7  3666 TIP3 H1   HT     0.417000        1.0080           0
  110610 WT7  3666 TIP3 H2   HT     0.417000        1.0080           0
  110611 WT7  3667 TIP3 OH2  OT    -0.834000       15.9994           0
  110612 WT7  3667 TIP3 H1   HT     0.417000        1.0080           0
  110613 WT7  3667 TIP3 H2   HT     0.417000        1.0080           0
  110614 WT7  3668 TIP3 OH2  OT    -0.834000       15.9994           0
  110615 WT7  3668 TIP3 H1   HT     0.417000        1.0080           0
  110616 WT7  3668 TIP3 H2   HT     0.417000        1.0080           0
  110617 WT7  3670 TIP3 OH2  OT    -0.834000       15.9994           0
  110618 WT7  3670 TIP3 H1   HT     0.417000        1.0080           0
  110619 WT7  3670 TIP3 H2   HT     0.417000        1.0080           0
  110620 WT7  3671 TIP3 OH2  OT    -0.834000       15.9994           0
  110621 WT7  3671 TIP3 H1   HT     0.417000        1.0080           0
  110622 WT7  3671 TIP3 H2   HT     0.417000        1.0080           0
  110623 WT7  3673 TIP3 OH2  OT    -0.834000       15.9994           0
  110624 WT7  3673 TIP3 H1   HT     0.417000        1.0080           0
  110625 WT7  3673 TIP3 H2   HT     0.417000        1.0080           0
  110626 WT7  3674 TIP3 OH2  OT    -0.834000       15.9994           0
  110627 WT7  3674 TIP3 H1   HT     0.417000        1.0080           0
  110628 WT7  3674 TIP3 H2   HT     0.417000        1.0080           0
  110629 WT7  3675 TIP3 OH2  OT    -0.834000       15.9994           0
  110630 WT7  3675 TIP3 H1   HT     0.417000        1.0080           0
  110631 WT7  3675 TIP3 H2   HT     0.417000        1.0080           0
  110632 WT7  3678 TIP3 OH2  OT    -0.834000       15.9994           0
  110633 WT7  3678 TIP3 H1   HT     0.417000        1.0080           0
  110634 WT7  3678 TIP3 H2   HT     0.417000        1.0080           0
  110635 WT7  3679 TIP3 OH2  OT    -0.834000       15.9994           0
  110636 WT7  3679 TIP3 H1   HT     0.417000        1.0080           0
  110637 WT7  3679 TIP3 H2   HT     0.417000        1.0080           0
  110638 WT7  3680 TIP3 OH2  OT    -0.834000       15.9994           0
  110639 WT7  3680 TIP3 H1   HT     0.417000        1.0080           0
  110640 WT7  3680 TIP3 H2   HT     0.417000        1.0080           0
  110641 WT7  3681 TIP3 OH2  OT    -0.834000       15.9994           0
  110642 WT7  3681 TIP3 H1   HT     0.417000        1.0080           0
  110643 WT7  3681 TIP3 H2   HT     0.417000        1.0080           0
  110644 WT7  3682 TIP3 OH2  OT    -0.834000       15.9994           0
  110645 WT7  3682 TIP3 H1   HT     0.417000        1.0080           0
  110646 WT7  3682 TIP3 H2   HT     0.417000        1.0080           0
  110647 WT7  3683 TIP3 OH2  OT    -0.834000       15.9994           0
  110648 WT7  3683 TIP3 H1   HT     0.417000        1.0080           0
  110649 WT7  3683 TIP3 H2   HT     0.417000        1.0080           0
  110650 WT7  3684 TIP3 OH2  OT    -0.834000       15.9994           0
  110651 WT7  3684 TIP3 H1   HT     0.417000        1.0080           0
  110652 WT7  3684 TIP3 H2   HT     0.417000        1.0080           0
  110653 WT7  3685 TIP3 OH2  OT    -0.834000       15.9994           0
  110654 WT7  3685 TIP3 H1   HT     0.417000        1.0080           0
  110655 WT7  3685 TIP3 H2   HT     0.417000        1.0080           0
  110656 WT7  3686 TIP3 OH2  OT    -0.834000       15.9994           0
  110657 WT7  3686 TIP3 H1   HT     0.417000        1.0080           0
  110658 WT7  3686 TIP3 H2   HT     0.417000        1.0080           0
  110659 WT7  3687 TIP3 OH2  OT    -0.834000       15.9994           0
  110660 WT7  3687 TIP3 H1   HT     0.417000        1.0080           0
  110661 WT7  3687 TIP3 H2   HT     0.417000        1.0080           0
  110662 WT7  3688 TIP3 OH2  OT    -0.834000       15.9994           0
  110663 WT7  3688 TIP3 H1   HT     0.417000        1.0080           0
  110664 WT7  3688 TIP3 H2   HT     0.417000        1.0080           0
  110665 WT7  3689 TIP3 OH2  OT    -0.834000       15.9994           0
  110666 WT7  3689 TIP3 H1   HT     0.417000        1.0080           0
  110667 WT7  3689 TIP3 H2   HT     0.417000        1.0080           0
  110668 WT7  3690 TIP3 OH2  OT    -0.834000       15.9994           0
  110669 WT7  3690 TIP3 H1   HT     0.417000        1.0080           0
  110670 WT7  3690 TIP3 H2   HT     0.417000        1.0080           0
  110671 WT7  3691 TIP3 OH2  OT    -0.834000       15.9994           0
  110672 WT7  3691 TIP3 H1   HT     0.417000        1.0080           0
  110673 WT7  3691 TIP3 H2   HT     0.417000        1.0080           0
  110674 WT7  3692 TIP3 OH2  OT    -0.834000       15.9994           0
  110675 WT7  3692 TIP3 H1   HT     0.417000        1.0080           0
  110676 WT7  3692 TIP3 H2   HT     0.417000        1.0080           0
  110677 WT7  3693 TIP3 OH2  OT    -0.834000       15.9994           0
  110678 WT7  3693 TIP3 H1   HT     0.417000        1.0080           0
  110679 WT7  3693 TIP3 H2   HT     0.417000        1.0080           0
  110680 WT7  3694 TIP3 OH2  OT    -0.834000       15.9994           0
  110681 WT7  3694 TIP3 H1   HT     0.417000        1.0080           0
  110682 WT7  3694 TIP3 H2   HT     0.417000        1.0080           0
  110683 WT7  3695 TIP3 OH2  OT    -0.834000       15.9994           0
  110684 WT7  3695 TIP3 H1   HT     0.417000        1.0080           0
  110685 WT7  3695 TIP3 H2   HT     0.417000        1.0080           0
  110686 WT7  3696 TIP3 OH2  OT    -0.834000       15.9994           0
  110687 WT7  3696 TIP3 H1   HT     0.417000        1.0080           0
  110688 WT7  3696 TIP3 H2   HT     0.417000        1.0080           0
  110689 WT7  3697 TIP3 OH2  OT    -0.834000       15.9994           0
  110690 WT7  3697 TIP3 H1   HT     0.417000        1.0080           0
  110691 WT7  3697 TIP3 H2   HT     0.417000        1.0080           0
  110692 WT7  3698 TIP3 OH2  OT    -0.834000       15.9994           0
  110693 WT7  3698 TIP3 H1   HT     0.417000        1.0080           0
  110694 WT7  3698 TIP3 H2   HT     0.417000        1.0080           0
  110695 WT7  3699 TIP3 OH2  OT    -0.834000       15.9994           0
  110696 WT7  3699 TIP3 H1   HT     0.417000        1.0080           0
  110697 WT7  3699 TIP3 H2   HT     0.417000        1.0080           0
  110698 WT7  3700 TIP3 OH2  OT    -0.834000       15.9994           0
  110699 WT7  3700 TIP3 H1   HT     0.417000        1.0080           0
  110700 WT7  3700 TIP3 H2   HT     0.417000        1.0080           0
  110701 WT7  3701 TIP3 OH2  OT    -0.834000       15.9994           0
  110702 WT7  3701 TIP3 H1   HT     0.417000        1.0080           0
  110703 WT7  3701 TIP3 H2   HT     0.417000        1.0080           0
  110704 WT7  3702 TIP3 OH2  OT    -0.834000       15.9994           0
  110705 WT7  3702 TIP3 H1   HT     0.417000        1.0080           0
  110706 WT7  3702 TIP3 H2   HT     0.417000        1.0080           0
  110707 WT7  3703 TIP3 OH2  OT    -0.834000       15.9994           0
  110708 WT7  3703 TIP3 H1   HT     0.417000        1.0080           0
  110709 WT7  3703 TIP3 H2   HT     0.417000        1.0080           0
  110710 WT7  3704 TIP3 OH2  OT    -0.834000       15.9994           0
  110711 WT7  3704 TIP3 H1   HT     0.417000        1.0080           0
  110712 WT7  3704 TIP3 H2   HT     0.417000        1.0080           0
  110713 WT7  3705 TIP3 OH2  OT    -0.834000       15.9994           0
  110714 WT7  3705 TIP3 H1   HT     0.417000        1.0080           0
  110715 WT7  3705 TIP3 H2   HT     0.417000        1.0080           0
  110716 WT7  3706 TIP3 OH2  OT    -0.834000       15.9994           0
  110717 WT7  3706 TIP3 H1   HT     0.417000        1.0080           0
  110718 WT7  3706 TIP3 H2   HT     0.417000        1.0080           0
  110719 WT7  3707 TIP3 OH2  OT    -0.834000       15.9994           0
  110720 WT7  3707 TIP3 H1   HT     0.417000        1.0080           0
  110721 WT7  3707 TIP3 H2   HT     0.417000        1.0080           0
  110722 WT7  3708 TIP3 OH2  OT    -0.834000       15.9994           0
  110723 WT7  3708 TIP3 H1   HT     0.417000        1.0080           0
  110724 WT7  3708 TIP3 H2   HT     0.417000        1.0080           0
  110725 WT7  3709 TIP3 OH2  OT    -0.834000       15.9994           0
  110726 WT7  3709 TIP3 H1   HT     0.417000        1.0080           0
  110727 WT7  3709 TIP3 H2   HT     0.417000        1.0080           0
  110728 WT7  3710 TIP3 OH2  OT    -0.834000       15.9994           0
  110729 WT7  3710 TIP3 H1   HT     0.417000        1.0080           0
  110730 WT7  3710 TIP3 H2   HT     0.417000        1.0080           0
  110731 WT7  3713 TIP3 OH2  OT    -0.834000       15.9994           0
  110732 WT7  3713 TIP3 H1   HT     0.417000        1.0080           0
  110733 WT7  3713 TIP3 H2   HT     0.417000        1.0080           0
  110734 WT7  3714 TIP3 OH2  OT    -0.834000       15.9994           0
  110735 WT7  3714 TIP3 H1   HT     0.417000        1.0080           0
  110736 WT7  3714 TIP3 H2   HT     0.417000        1.0080           0
  110737 WT7  3716 TIP3 OH2  OT    -0.834000       15.9994           0
  110738 WT7  3716 TIP3 H1   HT     0.417000        1.0080           0
  110739 WT7  3716 TIP3 H2   HT     0.417000        1.0080           0
  110740 WT7  3718 TIP3 OH2  OT    -0.834000       15.9994           0
  110741 WT7  3718 TIP3 H1   HT     0.417000        1.0080           0
  110742 WT7  3718 TIP3 H2   HT     0.417000        1.0080           0
  110743 WT7  3719 TIP3 OH2  OT    -0.834000       15.9994           0
  110744 WT7  3719 TIP3 H1   HT     0.417000        1.0080           0
  110745 WT7  3719 TIP3 H2   HT     0.417000        1.0080           0
  110746 WT7  3720 TIP3 OH2  OT    -0.834000       15.9994           0
  110747 WT7  3720 TIP3 H1   HT     0.417000        1.0080           0
  110748 WT7  3720 TIP3 H2   HT     0.417000        1.0080           0
  110749 WT7  3721 TIP3 OH2  OT    -0.834000       15.9994           0
  110750 WT7  3721 TIP3 H1   HT     0.417000        1.0080           0
  110751 WT7  3721 TIP3 H2   HT     0.417000        1.0080           0
  110752 WT7  3722 TIP3 OH2  OT    -0.834000       15.9994           0
  110753 WT7  3722 TIP3 H1   HT     0.417000        1.0080           0
  110754 WT7  3722 TIP3 H2   HT     0.417000        1.0080           0
  110755 WT7  3723 TIP3 OH2  OT    -0.834000       15.9994           0
  110756 WT7  3723 TIP3 H1   HT     0.417000        1.0080           0
  110757 WT7  3723 TIP3 H2   HT     0.417000        1.0080           0
  110758 WT7  3724 TIP3 OH2  OT    -0.834000       15.9994           0
  110759 WT7  3724 TIP3 H1   HT     0.417000        1.0080           0
  110760 WT7  3724 TIP3 H2   HT     0.417000        1.0080           0
  110761 WT7  3725 TIP3 OH2  OT    -0.834000       15.9994           0
  110762 WT7  3725 TIP3 H1   HT     0.417000        1.0080           0
  110763 WT7  3725 TIP3 H2   HT     0.417000        1.0080           0
  110764 WT7  3726 TIP3 OH2  OT    -0.834000       15.9994           0
  110765 WT7  3726 TIP3 H1   HT     0.417000        1.0080           0
  110766 WT7  3726 TIP3 H2   HT     0.417000        1.0080           0
  110767 WT7  3727 TIP3 OH2  OT    -0.834000       15.9994           0
  110768 WT7  3727 TIP3 H1   HT     0.417000        1.0080           0
  110769 WT7  3727 TIP3 H2   HT     0.417000        1.0080           0
  110770 WT7  3728 TIP3 OH2  OT    -0.834000       15.9994           0
  110771 WT7  3728 TIP3 H1   HT     0.417000        1.0080           0
  110772 WT7  3728 TIP3 H2   HT     0.417000        1.0080           0
  110773 WT7  3729 TIP3 OH2  OT    -0.834000       15.9994           0
  110774 WT7  3729 TIP3 H1   HT     0.417000        1.0080           0
  110775 WT7  3729 TIP3 H2   HT     0.417000        1.0080           0
  110776 WT7  3730 TIP3 OH2  OT    -0.834000       15.9994           0
  110777 WT7  3730 TIP3 H1   HT     0.417000        1.0080           0
  110778 WT7  3730 TIP3 H2   HT     0.417000        1.0080           0
  110779 WT7  3731 TIP3 OH2  OT    -0.834000       15.9994           0
  110780 WT7  3731 TIP3 H1   HT     0.417000        1.0080           0
  110781 WT7  3731 TIP3 H2   HT     0.417000        1.0080           0
  110782 WT7  3732 TIP3 OH2  OT    -0.834000       15.9994           0
  110783 WT7  3732 TIP3 H1   HT     0.417000        1.0080           0
  110784 WT7  3732 TIP3 H2   HT     0.417000        1.0080           0
  110785 WT7  3733 TIP3 OH2  OT    -0.834000       15.9994           0
  110786 WT7  3733 TIP3 H1   HT     0.417000        1.0080           0
  110787 WT7  3733 TIP3 H2   HT     0.417000        1.0080           0
  110788 WT7  3734 TIP3 OH2  OT    -0.834000       15.9994           0
  110789 WT7  3734 TIP3 H1   HT     0.417000        1.0080           0
  110790 WT7  3734 TIP3 H2   HT     0.417000        1.0080           0
  110791 WT7  3735 TIP3 OH2  OT    -0.834000       15.9994           0
  110792 WT7  3735 TIP3 H1   HT     0.417000        1.0080           0
  110793 WT7  3735 TIP3 H2   HT     0.417000        1.0080           0
  110794 WT7  3736 TIP3 OH2  OT    -0.834000       15.9994           0
  110795 WT7  3736 TIP3 H1   HT     0.417000        1.0080           0
  110796 WT7  3736 TIP3 H2   HT     0.417000        1.0080           0
  110797 WT7  3737 TIP3 OH2  OT    -0.834000       15.9994           0
  110798 WT7  3737 TIP3 H1   HT     0.417000        1.0080           0
  110799 WT7  3737 TIP3 H2   HT     0.417000        1.0080           0
  110800 WT7  3739 TIP3 OH2  OT    -0.834000       15.9994           0
  110801 WT7  3739 TIP3 H1   HT     0.417000        1.0080           0
  110802 WT7  3739 TIP3 H2   HT     0.417000        1.0080           0
  110803 WT7  3740 TIP3 OH2  OT    -0.834000       15.9994           0
  110804 WT7  3740 TIP3 H1   HT     0.417000        1.0080           0
  110805 WT7  3740 TIP3 H2   HT     0.417000        1.0080           0
  110806 WT7  3742 TIP3 OH2  OT    -0.834000       15.9994           0
  110807 WT7  3742 TIP3 H1   HT     0.417000        1.0080           0
  110808 WT7  3742 TIP3 H2   HT     0.417000        1.0080           0
  110809 WT7  3743 TIP3 OH2  OT    -0.834000       15.9994           0
  110810 WT7  3743 TIP3 H1   HT     0.417000        1.0080           0
  110811 WT7  3743 TIP3 H2   HT     0.417000        1.0080           0
  110812 WT7  3744 TIP3 OH2  OT    -0.834000       15.9994           0
  110813 WT7  3744 TIP3 H1   HT     0.417000        1.0080           0
  110814 WT7  3744 TIP3 H2   HT     0.417000        1.0080           0
  110815 WT7  3745 TIP3 OH2  OT    -0.834000       15.9994           0
  110816 WT7  3745 TIP3 H1   HT     0.417000        1.0080           0
  110817 WT7  3745 TIP3 H2   HT     0.417000        1.0080           0
  110818 WT7  3747 TIP3 OH2  OT    -0.834000       15.9994           0
  110819 WT7  3747 TIP3 H1   HT     0.417000        1.0080           0
  110820 WT7  3747 TIP3 H2   HT     0.417000        1.0080           0
  110821 WT7  3749 TIP3 OH2  OT    -0.834000       15.9994           0
  110822 WT7  3749 TIP3 H1   HT     0.417000        1.0080           0
  110823 WT7  3749 TIP3 H2   HT     0.417000        1.0080           0
  110824 WT7  3750 TIP3 OH2  OT    -0.834000       15.9994           0
  110825 WT7  3750 TIP3 H1   HT     0.417000        1.0080           0
  110826 WT7  3750 TIP3 H2   HT     0.417000        1.0080           0
  110827 WT7  3751 TIP3 OH2  OT    -0.834000       15.9994           0
  110828 WT7  3751 TIP3 H1   HT     0.417000        1.0080           0
  110829 WT7  3751 TIP3 H2   HT     0.417000        1.0080           0
  110830 WT7  3752 TIP3 OH2  OT    -0.834000       15.9994           0
  110831 WT7  3752 TIP3 H1   HT     0.417000        1.0080           0
  110832 WT7  3752 TIP3 H2   HT     0.417000        1.0080           0
  110833 WT7  3753 TIP3 OH2  OT    -0.834000       15.9994           0
  110834 WT7  3753 TIP3 H1   HT     0.417000        1.0080           0
  110835 WT7  3753 TIP3 H2   HT     0.417000        1.0080           0
  110836 WT7  3754 TIP3 OH2  OT    -0.834000       15.9994           0
  110837 WT7  3754 TIP3 H1   HT     0.417000        1.0080           0
  110838 WT7  3754 TIP3 H2   HT     0.417000        1.0080           0
  110839 WT7  3756 TIP3 OH2  OT    -0.834000       15.9994           0
  110840 WT7  3756 TIP3 H1   HT     0.417000        1.0080           0
  110841 WT7  3756 TIP3 H2   HT     0.417000        1.0080           0
  110842 WT7  3757 TIP3 OH2  OT    -0.834000       15.9994           0
  110843 WT7  3757 TIP3 H1   HT     0.417000        1.0080           0
  110844 WT7  3757 TIP3 H2   HT     0.417000        1.0080           0
  110845 WT7  3758 TIP3 OH2  OT    -0.834000       15.9994           0
  110846 WT7  3758 TIP3 H1   HT     0.417000        1.0080           0
  110847 WT7  3758 TIP3 H2   HT     0.417000        1.0080           0
  110848 WT7  3759 TIP3 OH2  OT    -0.834000       15.9994           0
  110849 WT7  3759 TIP3 H1   HT     0.417000        1.0080           0
  110850 WT7  3759 TIP3 H2   HT     0.417000        1.0080           0
  110851 WT7  3760 TIP3 OH2  OT    -0.834000       15.9994           0
  110852 WT7  3760 TIP3 H1   HT     0.417000        1.0080           0
  110853 WT7  3760 TIP3 H2   HT     0.417000        1.0080           0
  110854 WT7  3761 TIP3 OH2  OT    -0.834000       15.9994           0
  110855 WT7  3761 TIP3 H1   HT     0.417000        1.0080           0
  110856 WT7  3761 TIP3 H2   HT     0.417000        1.0080           0
  110857 WT7  3762 TIP3 OH2  OT    -0.834000       15.9994           0
  110858 WT7  3762 TIP3 H1   HT     0.417000        1.0080           0
  110859 WT7  3762 TIP3 H2   HT     0.417000        1.0080           0
  110860 WT7  3764 TIP3 OH2  OT    -0.834000       15.9994           0
  110861 WT7  3764 TIP3 H1   HT     0.417000        1.0080           0
  110862 WT7  3764 TIP3 H2   HT     0.417000        1.0080           0
  110863 WT7  3766 TIP3 OH2  OT    -0.834000       15.9994           0
  110864 WT7  3766 TIP3 H1   HT     0.417000        1.0080           0
  110865 WT7  3766 TIP3 H2   HT     0.417000        1.0080           0
  110866 WT7  3767 TIP3 OH2  OT    -0.834000       15.9994           0
  110867 WT7  3767 TIP3 H1   HT     0.417000        1.0080           0
  110868 WT7  3767 TIP3 H2   HT     0.417000        1.0080           0
  110869 WT7  3770 TIP3 OH2  OT    -0.834000       15.9994           0
  110870 WT7  3770 TIP3 H1   HT     0.417000        1.0080           0
  110871 WT7  3770 TIP3 H2   HT     0.417000        1.0080           0
  110872 WT7  3771 TIP3 OH2  OT    -0.834000       15.9994           0
  110873 WT7  3771 TIP3 H1   HT     0.417000        1.0080           0
  110874 WT7  3771 TIP3 H2   HT     0.417000        1.0080           0
  110875 WT7  3772 TIP3 OH2  OT    -0.834000       15.9994           0
  110876 WT7  3772 TIP3 H1   HT     0.417000        1.0080           0
  110877 WT7  3772 TIP3 H2   HT     0.417000        1.0080           0
  110878 WT7  3773 TIP3 OH2  OT    -0.834000       15.9994           0
  110879 WT7  3773 TIP3 H1   HT     0.417000        1.0080           0
  110880 WT7  3773 TIP3 H2   HT     0.417000        1.0080           0
  110881 WT7  3774 TIP3 OH2  OT    -0.834000       15.9994           0
  110882 WT7  3774 TIP3 H1   HT     0.417000        1.0080           0
  110883 WT7  3774 TIP3 H2   HT     0.417000        1.0080           0
  110884 WT7  3776 TIP3 OH2  OT    -0.834000       15.9994           0
  110885 WT7  3776 TIP3 H1   HT     0.417000        1.0080           0
  110886 WT7  3776 TIP3 H2   HT     0.417000        1.0080           0
  110887 WT7  3777 TIP3 OH2  OT    -0.834000       15.9994           0
  110888 WT7  3777 TIP3 H1   HT     0.417000        1.0080           0
  110889 WT7  3777 TIP3 H2   HT     0.417000        1.0080           0
  110890 WT7  3778 TIP3 OH2  OT    -0.834000       15.9994           0
  110891 WT7  3778 TIP3 H1   HT     0.417000        1.0080           0
  110892 WT7  3778 TIP3 H2   HT     0.417000        1.0080           0
  110893 WT7  3779 TIP3 OH2  OT    -0.834000       15.9994           0
  110894 WT7  3779 TIP3 H1   HT     0.417000        1.0080           0
  110895 WT7  3779 TIP3 H2   HT     0.417000        1.0080           0
  110896 WT7  3781 TIP3 OH2  OT    -0.834000       15.9994           0
  110897 WT7  3781 TIP3 H1   HT     0.417000        1.0080           0
  110898 WT7  3781 TIP3 H2   HT     0.417000        1.0080           0
  110899 WT7  3782 TIP3 OH2  OT    -0.834000       15.9994           0
  110900 WT7  3782 TIP3 H1   HT     0.417000        1.0080           0
  110901 WT7  3782 TIP3 H2   HT     0.417000        1.0080           0
  110902 WT7  3785 TIP3 OH2  OT    -0.834000       15.9994           0
  110903 WT7  3785 TIP3 H1   HT     0.417000        1.0080           0
  110904 WT7  3785 TIP3 H2   HT     0.417000        1.0080           0
  110905 WT7  3786 TIP3 OH2  OT    -0.834000       15.9994           0
  110906 WT7  3786 TIP3 H1   HT     0.417000        1.0080           0
  110907 WT7  3786 TIP3 H2   HT     0.417000        1.0080           0
  110908 WT7  3787 TIP3 OH2  OT    -0.834000       15.9994           0
  110909 WT7  3787 TIP3 H1   HT     0.417000        1.0080           0
  110910 WT7  3787 TIP3 H2   HT     0.417000        1.0080           0
  110911 WT7  3788 TIP3 OH2  OT    -0.834000       15.9994           0
  110912 WT7  3788 TIP3 H1   HT     0.417000        1.0080           0
  110913 WT7  3788 TIP3 H2   HT     0.417000        1.0080           0
  110914 WT7  3789 TIP3 OH2  OT    -0.834000       15.9994           0
  110915 WT7  3789 TIP3 H1   HT     0.417000        1.0080           0
  110916 WT7  3789 TIP3 H2   HT     0.417000        1.0080           0
  110917 WT7  3790 TIP3 OH2  OT    -0.834000       15.9994           0
  110918 WT7  3790 TIP3 H1   HT     0.417000        1.0080           0
  110919 WT7  3790 TIP3 H2   HT     0.417000        1.0080           0
  110920 WT7  3792 TIP3 OH2  OT    -0.834000       15.9994           0
  110921 WT7  3792 TIP3 H1   HT     0.417000        1.0080           0
  110922 WT7  3792 TIP3 H2   HT     0.417000        1.0080           0
  110923 WT7  3793 TIP3 OH2  OT    -0.834000       15.9994           0
  110924 WT7  3793 TIP3 H1   HT     0.417000        1.0080           0
  110925 WT7  3793 TIP3 H2   HT     0.417000        1.0080           0
  110926 WT7  3795 TIP3 OH2  OT    -0.834000       15.9994           0
  110927 WT7  3795 TIP3 H1   HT     0.417000        1.0080           0
  110928 WT7  3795 TIP3 H2   HT     0.417000        1.0080           0
  110929 WT7  3796 TIP3 OH2  OT    -0.834000       15.9994           0
  110930 WT7  3796 TIP3 H1   HT     0.417000        1.0080           0
  110931 WT7  3796 TIP3 H2   HT     0.417000        1.0080           0
  110932 WT7  3798 TIP3 OH2  OT    -0.834000       15.9994           0
  110933 WT7  3798 TIP3 H1   HT     0.417000        1.0080           0
  110934 WT7  3798 TIP3 H2   HT     0.417000        1.0080           0
  110935 WT7  3799 TIP3 OH2  OT    -0.834000       15.9994           0
  110936 WT7  3799 TIP3 H1   HT     0.417000        1.0080           0
  110937 WT7  3799 TIP3 H2   HT     0.417000        1.0080           0
  110938 WT7  3800 TIP3 OH2  OT    -0.834000       15.9994           0
  110939 WT7  3800 TIP3 H1   HT     0.417000        1.0080           0
  110940 WT7  3800 TIP3 H2   HT     0.417000        1.0080           0
  110941 WT7  3801 TIP3 OH2  OT    -0.834000       15.9994           0
  110942 WT7  3801 TIP3 H1   HT     0.417000        1.0080           0
  110943 WT7  3801 TIP3 H2   HT     0.417000        1.0080           0
  110944 WT7  3803 TIP3 OH2  OT    -0.834000       15.9994           0
  110945 WT7  3803 TIP3 H1   HT     0.417000        1.0080           0
  110946 WT7  3803 TIP3 H2   HT     0.417000        1.0080           0
  110947 WT7  3804 TIP3 OH2  OT    -0.834000       15.9994           0
  110948 WT7  3804 TIP3 H1   HT     0.417000        1.0080           0
  110949 WT7  3804 TIP3 H2   HT     0.417000        1.0080           0
  110950 WT7  3807 TIP3 OH2  OT    -0.834000       15.9994           0
  110951 WT7  3807 TIP3 H1   HT     0.417000        1.0080           0
  110952 WT7  3807 TIP3 H2   HT     0.417000        1.0080           0
  110953 WT7  3808 TIP3 OH2  OT    -0.834000       15.9994           0
  110954 WT7  3808 TIP3 H1   HT     0.417000        1.0080           0
  110955 WT7  3808 TIP3 H2   HT     0.417000        1.0080           0
  110956 WT7  3810 TIP3 OH2  OT    -0.834000       15.9994           0
  110957 WT7  3810 TIP3 H1   HT     0.417000        1.0080           0
  110958 WT7  3810 TIP3 H2   HT     0.417000        1.0080           0
  110959 WT7  3811 TIP3 OH2  OT    -0.834000       15.9994           0
  110960 WT7  3811 TIP3 H1   HT     0.417000        1.0080           0
  110961 WT7  3811 TIP3 H2   HT     0.417000        1.0080           0
  110962 WT7  3814 TIP3 OH2  OT    -0.834000       15.9994           0
  110963 WT7  3814 TIP3 H1   HT     0.417000        1.0080           0
  110964 WT7  3814 TIP3 H2   HT     0.417000        1.0080           0
  110965 WT7  3817 TIP3 OH2  OT    -0.834000       15.9994           0
  110966 WT7  3817 TIP3 H1   HT     0.417000        1.0080           0
  110967 WT7  3817 TIP3 H2   HT     0.417000        1.0080           0
  110968 WT7  3818 TIP3 OH2  OT    -0.834000       15.9994           0
  110969 WT7  3818 TIP3 H1   HT     0.417000        1.0080           0
  110970 WT7  3818 TIP3 H2   HT     0.417000        1.0080           0
  110971 WT7  3820 TIP3 OH2  OT    -0.834000       15.9994           0
  110972 WT7  3820 TIP3 H1   HT     0.417000        1.0080           0
  110973 WT7  3820 TIP3 H2   HT     0.417000        1.0080           0
  110974 WT7  3821 TIP3 OH2  OT    -0.834000       15.9994           0
  110975 WT7  3821 TIP3 H1   HT     0.417000        1.0080           0
  110976 WT7  3821 TIP3 H2   HT     0.417000        1.0080           0
  110977 WT7  3822 TIP3 OH2  OT    -0.834000       15.9994           0
  110978 WT7  3822 TIP3 H1   HT     0.417000        1.0080           0
  110979 WT7  3822 TIP3 H2   HT     0.417000        1.0080           0
  110980 WT7  3827 TIP3 OH2  OT    -0.834000       15.9994           0
  110981 WT7  3827 TIP3 H1   HT     0.417000        1.0080           0
  110982 WT7  3827 TIP3 H2   HT     0.417000        1.0080           0
  110983 WT7  3828 TIP3 OH2  OT    -0.834000       15.9994           0
  110984 WT7  3828 TIP3 H1   HT     0.417000        1.0080           0
  110985 WT7  3828 TIP3 H2   HT     0.417000        1.0080           0
  110986 WT7  3829 TIP3 OH2  OT    -0.834000       15.9994           0
  110987 WT7  3829 TIP3 H1   HT     0.417000        1.0080           0
  110988 WT7  3829 TIP3 H2   HT     0.417000        1.0080           0
  110989 WT7  3830 TIP3 OH2  OT    -0.834000       15.9994           0
  110990 WT7  3830 TIP3 H1   HT     0.417000        1.0080           0
  110991 WT7  3830 TIP3 H2   HT     0.417000        1.0080           0
  110992 WT7  3831 TIP3 OH2  OT    -0.834000       15.9994           0
  110993 WT7  3831 TIP3 H1   HT     0.417000        1.0080           0
  110994 WT7  3831 TIP3 H2   HT     0.417000        1.0080           0
  110995 WT7  3833 TIP3 OH2  OT    -0.834000       15.9994           0
  110996 WT7  3833 TIP3 H1   HT     0.417000        1.0080           0
  110997 WT7  3833 TIP3 H2   HT     0.417000        1.0080           0
  110998 WT7  3834 TIP3 OH2  OT    -0.834000       15.9994           0
  110999 WT7  3834 TIP3 H1   HT     0.417000        1.0080           0
  111000 WT7  3834 TIP3 H2   HT     0.417000        1.0080           0
  111001 WT7  3835 TIP3 OH2  OT    -0.834000       15.9994           0
  111002 WT7  3835 TIP3 H1   HT     0.417000        1.0080           0
  111003 WT7  3835 TIP3 H2   HT     0.417000        1.0080           0
  111004 WT7  3838 TIP3 OH2  OT    -0.834000       15.9994           0
  111005 WT7  3838 TIP3 H1   HT     0.417000        1.0080           0
  111006 WT7  3838 TIP3 H2   HT     0.417000        1.0080           0
  111007 WT7  3840 TIP3 OH2  OT    -0.834000       15.9994           0
  111008 WT7  3840 TIP3 H1   HT     0.417000        1.0080           0
  111009 WT7  3840 TIP3 H2   HT     0.417000        1.0080           0
  111010 WT7  3841 TIP3 OH2  OT    -0.834000       15.9994           0
  111011 WT7  3841 TIP3 H1   HT     0.417000        1.0080           0
  111012 WT7  3841 TIP3 H2   HT     0.417000        1.0080           0
  111013 WT7  3844 TIP3 OH2  OT    -0.834000       15.9994           0
  111014 WT7  3844 TIP3 H1   HT     0.417000        1.0080           0
  111015 WT7  3844 TIP3 H2   HT     0.417000        1.0080           0
  111016 WT7  3850 TIP3 OH2  OT    -0.834000       15.9994           0
  111017 WT7  3850 TIP3 H1   HT     0.417000        1.0080           0
  111018 WT7  3850 TIP3 H2   HT     0.417000        1.0080           0
  111019 WT7  3851 TIP3 OH2  OT    -0.834000       15.9994           0
  111020 WT7  3851 TIP3 H1   HT     0.417000        1.0080           0
  111021 WT7  3851 TIP3 H2   HT     0.417000        1.0080           0
  111022 WT7  3852 TIP3 OH2  OT    -0.834000       15.9994           0
  111023 WT7  3852 TIP3 H1   HT     0.417000        1.0080           0
  111024 WT7  3852 TIP3 H2   HT     0.417000        1.0080           0
  111025 WT7  3860 TIP3 OH2  OT    -0.834000       15.9994           0
  111026 WT7  3860 TIP3 H1   HT     0.417000        1.0080           0
  111027 WT7  3860 TIP3 H2   HT     0.417000        1.0080           0
  111028 WT7  3864 TIP3 OH2  OT    -0.834000       15.9994           0
  111029 WT7  3864 TIP3 H1   HT     0.417000        1.0080           0
  111030 WT7  3864 TIP3 H2   HT     0.417000        1.0080           0
  111031 WT7  3872 TIP3 OH2  OT    -0.834000       15.9994           0
  111032 WT7  3872 TIP3 H1   HT     0.417000        1.0080           0
  111033 WT7  3872 TIP3 H2   HT     0.417000        1.0080           0
  111034 WT7  3892 TIP3 OH2  OT    -0.834000       15.9994           0
  111035 WT7  3892 TIP3 H1   HT     0.417000        1.0080           0
  111036 WT7  3892 TIP3 H2   HT     0.417000        1.0080           0
  111037 WT7  3906 TIP3 OH2  OT    -0.834000       15.9994           0
  111038 WT7  3906 TIP3 H1   HT     0.417000        1.0080           0
  111039 WT7  3906 TIP3 H2   HT     0.417000        1.0080           0
  111040 WT7  3908 TIP3 OH2  OT    -0.834000       15.9994           0
  111041 WT7  3908 TIP3 H1   HT     0.417000        1.0080           0
  111042 WT7  3908 TIP3 H2   HT     0.417000        1.0080           0
  111043 WT7  3919 TIP3 OH2  OT    -0.834000       15.9994           0
  111044 WT7  3919 TIP3 H1   HT     0.417000        1.0080           0
  111045 WT7  3919 TIP3 H2   HT     0.417000        1.0080           0
  111046 WT7  3924 TIP3 OH2  OT    -0.834000       15.9994           0
  111047 WT7  3924 TIP3 H1   HT     0.417000        1.0080           0
  111048 WT7  3924 TIP3 H2   HT     0.417000        1.0080           0
  111049 WT7  3925 TIP3 OH2  OT    -0.834000       15.9994           0
  111050 WT7  3925 TIP3 H1   HT     0.417000        1.0080           0
  111051 WT7  3925 TIP3 H2   HT     0.417000        1.0080           0
  111052 WT7  3931 TIP3 OH2  OT    -0.834000       15.9994           0
  111053 WT7  3931 TIP3 H1   HT     0.417000        1.0080           0
  111054 WT7  3931 TIP3 H2   HT     0.417000        1.0080           0
  111055 WT7  3933 TIP3 OH2  OT    -0.834000       15.9994           0
  111056 WT7  3933 TIP3 H1   HT     0.417000        1.0080           0
  111057 WT7  3933 TIP3 H2   HT     0.417000        1.0080           0
  111058 WT7  3935 TIP3 OH2  OT    -0.834000       15.9994           0
  111059 WT7  3935 TIP3 H1   HT     0.417000        1.0080           0
  111060 WT7  3935 TIP3 H2   HT     0.417000        1.0080           0
  111061 WT7  3938 TIP3 OH2  OT    -0.834000       15.9994           0
  111062 WT7  3938 TIP3 H1   HT     0.417000        1.0080           0
  111063 WT7  3938 TIP3 H2   HT     0.417000        1.0080           0
  111064 WT7  3943 TIP3 OH2  OT    -0.834000       15.9994           0
  111065 WT7  3943 TIP3 H1   HT     0.417000        1.0080           0
  111066 WT7  3943 TIP3 H2   HT     0.417000        1.0080           0
  111067 WT7  3950 TIP3 OH2  OT    -0.834000       15.9994           0
  111068 WT7  3950 TIP3 H1   HT     0.417000        1.0080           0
  111069 WT7  3950 TIP3 H2   HT     0.417000        1.0080           0
  111070 WT7  3951 TIP3 OH2  OT    -0.834000       15.9994           0
  111071 WT7  3951 TIP3 H1   HT     0.417000        1.0080           0
  111072 WT7  3951 TIP3 H2   HT     0.417000        1.0080           0
  111073 WT7  3953 TIP3 OH2  OT    -0.834000       15.9994           0
  111074 WT7  3953 TIP3 H1   HT     0.417000        1.0080           0
  111075 WT7  3953 TIP3 H2   HT     0.417000        1.0080           0
  111076 WT7  3957 TIP3 OH2  OT    -0.834000       15.9994           0
  111077 WT7  3957 TIP3 H1   HT     0.417000        1.0080           0
  111078 WT7  3957 TIP3 H2   HT     0.417000        1.0080           0
  111079 WT7  3962 TIP3 OH2  OT    -0.834000       15.9994           0
  111080 WT7  3962 TIP3 H1   HT     0.417000        1.0080           0
  111081 WT7  3962 TIP3 H2   HT     0.417000        1.0080           0
  111082 WT7  3967 TIP3 OH2  OT    -0.834000       15.9994           0
  111083 WT7  3967 TIP3 H1   HT     0.417000        1.0080           0
  111084 WT7  3967 TIP3 H2   HT     0.417000        1.0080           0
  111085 WT7  3968 TIP3 OH2  OT    -0.834000       15.9994           0
  111086 WT7  3968 TIP3 H1   HT     0.417000        1.0080           0
  111087 WT7  3968 TIP3 H2   HT     0.417000        1.0080           0
  111088 WT7  3974 TIP3 OH2  OT    -0.834000       15.9994           0
  111089 WT7  3974 TIP3 H1   HT     0.417000        1.0080           0
  111090 WT7  3974 TIP3 H2   HT     0.417000        1.0080           0
  111091 WT7  3975 TIP3 OH2  OT    -0.834000       15.9994           0
  111092 WT7  3975 TIP3 H1   HT     0.417000        1.0080           0
  111093 WT7  3975 TIP3 H2   HT     0.417000        1.0080           0
  111094 WT7  3976 TIP3 OH2  OT    -0.834000       15.9994           0
  111095 WT7  3976 TIP3 H1   HT     0.417000        1.0080           0
  111096 WT7  3976 TIP3 H2   HT     0.417000        1.0080           0
  111097 WT7  3977 TIP3 OH2  OT    -0.834000       15.9994           0
  111098 WT7  3977 TIP3 H1   HT     0.417000        1.0080           0
  111099 WT7  3977 TIP3 H2   HT     0.417000        1.0080           0
  111100 WT7  3982 TIP3 OH2  OT    -0.834000       15.9994           0
  111101 WT7  3982 TIP3 H1   HT     0.417000        1.0080           0
  111102 WT7  3982 TIP3 H2   HT     0.417000        1.0080           0
  111103 WT7  3983 TIP3 OH2  OT    -0.834000       15.9994           0
  111104 WT7  3983 TIP3 H1   HT     0.417000        1.0080           0
  111105 WT7  3983 TIP3 H2   HT     0.417000        1.0080           0
  111106 WT7  3985 TIP3 OH2  OT    -0.834000       15.9994           0
  111107 WT7  3985 TIP3 H1   HT     0.417000        1.0080           0
  111108 WT7  3985 TIP3 H2   HT     0.417000        1.0080           0
  111109 WT7  3986 TIP3 OH2  OT    -0.834000       15.9994           0
  111110 WT7  3986 TIP3 H1   HT     0.417000        1.0080           0
  111111 WT7  3986 TIP3 H2   HT     0.417000        1.0080           0
  111112 WT7  3990 TIP3 OH2  OT    -0.834000       15.9994           0
  111113 WT7  3990 TIP3 H1   HT     0.417000        1.0080           0
  111114 WT7  3990 TIP3 H2   HT     0.417000        1.0080           0
  111115 WT7  3991 TIP3 OH2  OT    -0.834000       15.9994           0
  111116 WT7  3991 TIP3 H1   HT     0.417000        1.0080           0
  111117 WT7  3991 TIP3 H2   HT     0.417000        1.0080           0
  111118 WT7  3992 TIP3 OH2  OT    -0.834000       15.9994           0
  111119 WT7  3992 TIP3 H1   HT     0.417000        1.0080           0
  111120 WT7  3992 TIP3 H2   HT     0.417000        1.0080           0
  111121 WT7  3993 TIP3 OH2  OT    -0.834000       15.9994           0
  111122 WT7  3993 TIP3 H1   HT     0.417000        1.0080           0
  111123 WT7  3993 TIP3 H2   HT     0.417000        1.0080           0
  111124 WT7  3995 TIP3 OH2  OT    -0.834000       15.9994           0
  111125 WT7  3995 TIP3 H1   HT     0.417000        1.0080           0
  111126 WT7  3995 TIP3 H2   HT     0.417000        1.0080           0
  111127 WT7  3996 TIP3 OH2  OT    -0.834000       15.9994           0
  111128 WT7  3996 TIP3 H1   HT     0.417000        1.0080           0
  111129 WT7  3996 TIP3 H2   HT     0.417000        1.0080           0
  111130 WT7  3997 TIP3 OH2  OT    -0.834000       15.9994           0
  111131 WT7  3997 TIP3 H1   HT     0.417000        1.0080           0
  111132 WT7  3997 TIP3 H2   HT     0.417000        1.0080           0
  111133 WT7  3998 TIP3 OH2  OT    -0.834000       15.9994           0
  111134 WT7  3998 TIP3 H1   HT     0.417000        1.0080           0
  111135 WT7  3998 TIP3 H2   HT     0.417000        1.0080           0
  111136 WT7  3999 TIP3 OH2  OT    -0.834000       15.9994           0
  111137 WT7  3999 TIP3 H1   HT     0.417000        1.0080           0
  111138 WT7  3999 TIP3 H2   HT     0.417000        1.0080           0
  111139 WT7  4000 TIP3 OH2  OT    -0.834000       15.9994           0
  111140 WT7  4000 TIP3 H1   HT     0.417000        1.0080           0
  111141 WT7  4000 TIP3 H2   HT     0.417000        1.0080           0
  111142 WT7  4001 TIP3 OH2  OT    -0.834000       15.9994           0
  111143 WT7  4001 TIP3 H1   HT     0.417000        1.0080           0
  111144 WT7  4001 TIP3 H2   HT     0.417000        1.0080           0
  111145 WT7  4002 TIP3 OH2  OT    -0.834000       15.9994           0
  111146 WT7  4002 TIP3 H1   HT     0.417000        1.0080           0
  111147 WT7  4002 TIP3 H2   HT     0.417000        1.0080           0
  111148 WT7  4003 TIP3 OH2  OT    -0.834000       15.9994           0
  111149 WT7  4003 TIP3 H1   HT     0.417000        1.0080           0
  111150 WT7  4003 TIP3 H2   HT     0.417000        1.0080           0
  111151 WT7  4004 TIP3 OH2  OT    -0.834000       15.9994           0
  111152 WT7  4004 TIP3 H1   HT     0.417000        1.0080           0
  111153 WT7  4004 TIP3 H2   HT     0.417000        1.0080           0
  111154 WT7  4005 TIP3 OH2  OT    -0.834000       15.9994           0
  111155 WT7  4005 TIP3 H1   HT     0.417000        1.0080           0
  111156 WT7  4005 TIP3 H2   HT     0.417000        1.0080           0
  111157 WT7  4006 TIP3 OH2  OT    -0.834000       15.9994           0
  111158 WT7  4006 TIP3 H1   HT     0.417000        1.0080           0
  111159 WT7  4006 TIP3 H2   HT     0.417000        1.0080           0
  111160 WT7  4007 TIP3 OH2  OT    -0.834000       15.9994           0
  111161 WT7  4007 TIP3 H1   HT     0.417000        1.0080           0
  111162 WT7  4007 TIP3 H2   HT     0.417000        1.0080           0
  111163 WT7  4008 TIP3 OH2  OT    -0.834000       15.9994           0
  111164 WT7  4008 TIP3 H1   HT     0.417000        1.0080           0
  111165 WT7  4008 TIP3 H2   HT     0.417000        1.0080           0
  111166 WT7  4009 TIP3 OH2  OT    -0.834000       15.9994           0
  111167 WT7  4009 TIP3 H1   HT     0.417000        1.0080           0
  111168 WT7  4009 TIP3 H2   HT     0.417000        1.0080           0
  111169 WT7  4010 TIP3 OH2  OT    -0.834000       15.9994           0
  111170 WT7  4010 TIP3 H1   HT     0.417000        1.0080           0
  111171 WT7  4010 TIP3 H2   HT     0.417000        1.0080           0
  111172 WT7  4012 TIP3 OH2  OT    -0.834000       15.9994           0
  111173 WT7  4012 TIP3 H1   HT     0.417000        1.0080           0
  111174 WT7  4012 TIP3 H2   HT     0.417000        1.0080           0
  111175 WT7  4013 TIP3 OH2  OT    -0.834000       15.9994           0
  111176 WT7  4013 TIP3 H1   HT     0.417000        1.0080           0
  111177 WT7  4013 TIP3 H2   HT     0.417000        1.0080           0
  111178 WT7  4014 TIP3 OH2  OT    -0.834000       15.9994           0
  111179 WT7  4014 TIP3 H1   HT     0.417000        1.0080           0
  111180 WT7  4014 TIP3 H2   HT     0.417000        1.0080           0
  111181 WT7  4015 TIP3 OH2  OT    -0.834000       15.9994           0
  111182 WT7  4015 TIP3 H1   HT     0.417000        1.0080           0
  111183 WT7  4015 TIP3 H2   HT     0.417000        1.0080           0
  111184 WT7  4016 TIP3 OH2  OT    -0.834000       15.9994           0
  111185 WT7  4016 TIP3 H1   HT     0.417000        1.0080           0
  111186 WT7  4016 TIP3 H2   HT     0.417000        1.0080           0
  111187 WT7  4017 TIP3 OH2  OT    -0.834000       15.9994           0
  111188 WT7  4017 TIP3 H1   HT     0.417000        1.0080           0
  111189 WT7  4017 TIP3 H2   HT     0.417000        1.0080           0
  111190 WT7  4018 TIP3 OH2  OT    -0.834000       15.9994           0
  111191 WT7  4018 TIP3 H1   HT     0.417000        1.0080           0
  111192 WT7  4018 TIP3 H2   HT     0.417000        1.0080           0
  111193 WT7  4019 TIP3 OH2  OT    -0.834000       15.9994           0
  111194 WT7  4019 TIP3 H1   HT     0.417000        1.0080           0
  111195 WT7  4019 TIP3 H2   HT     0.417000        1.0080           0
  111196 WT7  4020 TIP3 OH2  OT    -0.834000       15.9994           0
  111197 WT7  4020 TIP3 H1   HT     0.417000        1.0080           0
  111198 WT7  4020 TIP3 H2   HT     0.417000        1.0080           0
  111199 WT7  4021 TIP3 OH2  OT    -0.834000       15.9994           0
  111200 WT7  4021 TIP3 H1   HT     0.417000        1.0080           0
  111201 WT7  4021 TIP3 H2   HT     0.417000        1.0080           0
  111202 WT7  4022 TIP3 OH2  OT    -0.834000       15.9994           0
  111203 WT7  4022 TIP3 H1   HT     0.417000        1.0080           0
  111204 WT7  4022 TIP3 H2   HT     0.417000        1.0080           0
  111205 WT7  4025 TIP3 OH2  OT    -0.834000       15.9994           0
  111206 WT7  4025 TIP3 H1   HT     0.417000        1.0080           0
  111207 WT7  4025 TIP3 H2   HT     0.417000        1.0080           0
  111208 WT7  4026 TIP3 OH2  OT    -0.834000       15.9994           0
  111209 WT7  4026 TIP3 H1   HT     0.417000        1.0080           0
  111210 WT7  4026 TIP3 H2   HT     0.417000        1.0080           0
  111211 WT7  4027 TIP3 OH2  OT    -0.834000       15.9994           0
  111212 WT7  4027 TIP3 H1   HT     0.417000        1.0080           0
  111213 WT7  4027 TIP3 H2   HT     0.417000        1.0080           0
  111214 WT7  4030 TIP3 OH2  OT    -0.834000       15.9994           0
  111215 WT7  4030 TIP3 H1   HT     0.417000        1.0080           0
  111216 WT7  4030 TIP3 H2   HT     0.417000        1.0080           0
  111217 WT7  4033 TIP3 OH2  OT    -0.834000       15.9994           0
  111218 WT7  4033 TIP3 H1   HT     0.417000        1.0080           0
  111219 WT7  4033 TIP3 H2   HT     0.417000        1.0080           0
  111220 WT7  4034 TIP3 OH2  OT    -0.834000       15.9994           0
  111221 WT7  4034 TIP3 H1   HT     0.417000        1.0080           0
  111222 WT7  4034 TIP3 H2   HT     0.417000        1.0080           0
  111223 WT7  4035 TIP3 OH2  OT    -0.834000       15.9994           0
  111224 WT7  4035 TIP3 H1   HT     0.417000        1.0080           0
  111225 WT7  4035 TIP3 H2   HT     0.417000        1.0080           0
  111226 WT7  4036 TIP3 OH2  OT    -0.834000       15.9994           0
  111227 WT7  4036 TIP3 H1   HT     0.417000        1.0080           0
  111228 WT7  4036 TIP3 H2   HT     0.417000        1.0080           0
  111229 WT7  4037 TIP3 OH2  OT    -0.834000       15.9994           0
  111230 WT7  4037 TIP3 H1   HT     0.417000        1.0080           0
  111231 WT7  4037 TIP3 H2   HT     0.417000        1.0080           0
  111232 WT7  4038 TIP3 OH2  OT    -0.834000       15.9994           0
  111233 WT7  4038 TIP3 H1   HT     0.417000        1.0080           0
  111234 WT7  4038 TIP3 H2   HT     0.417000        1.0080           0
  111235 WT7  4039 TIP3 OH2  OT    -0.834000       15.9994           0
  111236 WT7  4039 TIP3 H1   HT     0.417000        1.0080           0
  111237 WT7  4039 TIP3 H2   HT     0.417000        1.0080           0
  111238 WT7  4040 TIP3 OH2  OT    -0.834000       15.9994           0
  111239 WT7  4040 TIP3 H1   HT     0.417000        1.0080           0
  111240 WT7  4040 TIP3 H2   HT     0.417000        1.0080           0
  111241 WT7  4041 TIP3 OH2  OT    -0.834000       15.9994           0
  111242 WT7  4041 TIP3 H1   HT     0.417000        1.0080           0
  111243 WT7  4041 TIP3 H2   HT     0.417000        1.0080           0
  111244 WT7  4043 TIP3 OH2  OT    -0.834000       15.9994           0
  111245 WT7  4043 TIP3 H1   HT     0.417000        1.0080           0
  111246 WT7  4043 TIP3 H2   HT     0.417000        1.0080           0
  111247 WT7  4044 TIP3 OH2  OT    -0.834000       15.9994           0
  111248 WT7  4044 TIP3 H1   HT     0.417000        1.0080           0
  111249 WT7  4044 TIP3 H2   HT     0.417000        1.0080           0
  111250 WT7  4045 TIP3 OH2  OT    -0.834000       15.9994           0
  111251 WT7  4045 TIP3 H1   HT     0.417000        1.0080           0
  111252 WT7  4045 TIP3 H2   HT     0.417000        1.0080           0
  111253 WT7  4046 TIP3 OH2  OT    -0.834000       15.9994           0
  111254 WT7  4046 TIP3 H1   HT     0.417000        1.0080           0
  111255 WT7  4046 TIP3 H2   HT     0.417000        1.0080           0
  111256 WT7  4047 TIP3 OH2  OT    -0.834000       15.9994           0
  111257 WT7  4047 TIP3 H1   HT     0.417000        1.0080           0
  111258 WT7  4047 TIP3 H2   HT     0.417000        1.0080           0
  111259 WT7  4050 TIP3 OH2  OT    -0.834000       15.9994           0
  111260 WT7  4050 TIP3 H1   HT     0.417000        1.0080           0
  111261 WT7  4050 TIP3 H2   HT     0.417000        1.0080           0
  111262 WT7  4053 TIP3 OH2  OT    -0.834000       15.9994           0
  111263 WT7  4053 TIP3 H1   HT     0.417000        1.0080           0
  111264 WT7  4053 TIP3 H2   HT     0.417000        1.0080           0
  111265 WT7  4054 TIP3 OH2  OT    -0.834000       15.9994           0
  111266 WT7  4054 TIP3 H1   HT     0.417000        1.0080           0
  111267 WT7  4054 TIP3 H2   HT     0.417000        1.0080           0
  111268 WT7  4055 TIP3 OH2  OT    -0.834000       15.9994           0
  111269 WT7  4055 TIP3 H1   HT     0.417000        1.0080           0
  111270 WT7  4055 TIP3 H2   HT     0.417000        1.0080           0
  111271 WT7  4056 TIP3 OH2  OT    -0.834000       15.9994           0
  111272 WT7  4056 TIP3 H1   HT     0.417000        1.0080           0
  111273 WT7  4056 TIP3 H2   HT     0.417000        1.0080           0
  111274 WT7  4057 TIP3 OH2  OT    -0.834000       15.9994           0
  111275 WT7  4057 TIP3 H1   HT     0.417000        1.0080           0
  111276 WT7  4057 TIP3 H2   HT     0.417000        1.0080           0
  111277 WT7  4059 TIP3 OH2  OT    -0.834000       15.9994           0
  111278 WT7  4059 TIP3 H1   HT     0.417000        1.0080           0
  111279 WT7  4059 TIP3 H2   HT     0.417000        1.0080           0
  111280 WT7  4060 TIP3 OH2  OT    -0.834000       15.9994           0
  111281 WT7  4060 TIP3 H1   HT     0.417000        1.0080           0
  111282 WT7  4060 TIP3 H2   HT     0.417000        1.0080           0
  111283 WT7  4062 TIP3 OH2  OT    -0.834000       15.9994           0
  111284 WT7  4062 TIP3 H1   HT     0.417000        1.0080           0
  111285 WT7  4062 TIP3 H2   HT     0.417000        1.0080           0
  111286 WT7  4063 TIP3 OH2  OT    -0.834000       15.9994           0
  111287 WT7  4063 TIP3 H1   HT     0.417000        1.0080           0
  111288 WT7  4063 TIP3 H2   HT     0.417000        1.0080           0
  111289 WT7  4064 TIP3 OH2  OT    -0.834000       15.9994           0
  111290 WT7  4064 TIP3 H1   HT     0.417000        1.0080           0
  111291 WT7  4064 TIP3 H2   HT     0.417000        1.0080           0
  111292 WT7  4065 TIP3 OH2  OT    -0.834000       15.9994           0
  111293 WT7  4065 TIP3 H1   HT     0.417000        1.0080           0
  111294 WT7  4065 TIP3 H2   HT     0.417000        1.0080           0
  111295 WT7  4066 TIP3 OH2  OT    -0.834000       15.9994           0
  111296 WT7  4066 TIP3 H1   HT     0.417000        1.0080           0
  111297 WT7  4066 TIP3 H2   HT     0.417000        1.0080           0
  111298 WT7  4067 TIP3 OH2  OT    -0.834000       15.9994           0
  111299 WT7  4067 TIP3 H1   HT     0.417000        1.0080           0
  111300 WT7  4067 TIP3 H2   HT     0.417000        1.0080           0
  111301 WT7  4068 TIP3 OH2  OT    -0.834000       15.9994           0
  111302 WT7  4068 TIP3 H1   HT     0.417000        1.0080           0
  111303 WT7  4068 TIP3 H2   HT     0.417000        1.0080           0
  111304 WT7  4072 TIP3 OH2  OT    -0.834000       15.9994           0
  111305 WT7  4072 TIP3 H1   HT     0.417000        1.0080           0
  111306 WT7  4072 TIP3 H2   HT     0.417000        1.0080           0
  111307 WT7  4073 TIP3 OH2  OT    -0.834000       15.9994           0
  111308 WT7  4073 TIP3 H1   HT     0.417000        1.0080           0
  111309 WT7  4073 TIP3 H2   HT     0.417000        1.0080           0
  111310 WT7  4074 TIP3 OH2  OT    -0.834000       15.9994           0
  111311 WT7  4074 TIP3 H1   HT     0.417000        1.0080           0
  111312 WT7  4074 TIP3 H2   HT     0.417000        1.0080           0
  111313 WT7  4075 TIP3 OH2  OT    -0.834000       15.9994           0
  111314 WT7  4075 TIP3 H1   HT     0.417000        1.0080           0
  111315 WT7  4075 TIP3 H2   HT     0.417000        1.0080           0
  111316 WT7  4076 TIP3 OH2  OT    -0.834000       15.9994           0
  111317 WT7  4076 TIP3 H1   HT     0.417000        1.0080           0
  111318 WT7  4076 TIP3 H2   HT     0.417000        1.0080           0
  111319 WT7  4077 TIP3 OH2  OT    -0.834000       15.9994           0
  111320 WT7  4077 TIP3 H1   HT     0.417000        1.0080           0
  111321 WT7  4077 TIP3 H2   HT     0.417000        1.0080           0
  111322 WT7  4079 TIP3 OH2  OT    -0.834000       15.9994           0
  111323 WT7  4079 TIP3 H1   HT     0.417000        1.0080           0
  111324 WT7  4079 TIP3 H2   HT     0.417000        1.0080           0
  111325 WT7  4080 TIP3 OH2  OT    -0.834000       15.9994           0
  111326 WT7  4080 TIP3 H1   HT     0.417000        1.0080           0
  111327 WT7  4080 TIP3 H2   HT     0.417000        1.0080           0
  111328 WT7  4081 TIP3 OH2  OT    -0.834000       15.9994           0
  111329 WT7  4081 TIP3 H1   HT     0.417000        1.0080           0
  111330 WT7  4081 TIP3 H2   HT     0.417000        1.0080           0
  111331 WT7  4082 TIP3 OH2  OT    -0.834000       15.9994           0
  111332 WT7  4082 TIP3 H1   HT     0.417000        1.0080           0
  111333 WT7  4082 TIP3 H2   HT     0.417000        1.0080           0
  111334 WT7  4083 TIP3 OH2  OT    -0.834000       15.9994           0
  111335 WT7  4083 TIP3 H1   HT     0.417000        1.0080           0
  111336 WT7  4083 TIP3 H2   HT     0.417000        1.0080           0
  111337 WT7  4084 TIP3 OH2  OT    -0.834000       15.9994           0
  111338 WT7  4084 TIP3 H1   HT     0.417000        1.0080           0
  111339 WT7  4084 TIP3 H2   HT     0.417000        1.0080           0
  111340 WT7  4085 TIP3 OH2  OT    -0.834000       15.9994           0
  111341 WT7  4085 TIP3 H1   HT     0.417000        1.0080           0
  111342 WT7  4085 TIP3 H2   HT     0.417000        1.0080           0
  111343 WT7  4086 TIP3 OH2  OT    -0.834000       15.9994           0
  111344 WT7  4086 TIP3 H1   HT     0.417000        1.0080           0
  111345 WT7  4086 TIP3 H2   HT     0.417000        1.0080           0
  111346 WT7  4087 TIP3 OH2  OT    -0.834000       15.9994           0
  111347 WT7  4087 TIP3 H1   HT     0.417000        1.0080           0
  111348 WT7  4087 TIP3 H2   HT     0.417000        1.0080           0
  111349 WT7  4088 TIP3 OH2  OT    -0.834000       15.9994           0
  111350 WT7  4088 TIP3 H1   HT     0.417000        1.0080           0
  111351 WT7  4088 TIP3 H2   HT     0.417000        1.0080           0
  111352 WT7  4089 TIP3 OH2  OT    -0.834000       15.9994           0
  111353 WT7  4089 TIP3 H1   HT     0.417000        1.0080           0
  111354 WT7  4089 TIP3 H2   HT     0.417000        1.0080           0
  111355 WT7  4091 TIP3 OH2  OT    -0.834000       15.9994           0
  111356 WT7  4091 TIP3 H1   HT     0.417000        1.0080           0
  111357 WT7  4091 TIP3 H2   HT     0.417000        1.0080           0
  111358 WT7  4092 TIP3 OH2  OT    -0.834000       15.9994           0
  111359 WT7  4092 TIP3 H1   HT     0.417000        1.0080           0
  111360 WT7  4092 TIP3 H2   HT     0.417000        1.0080           0
  111361 WT7  4093 TIP3 OH2  OT    -0.834000       15.9994           0
  111362 WT7  4093 TIP3 H1   HT     0.417000        1.0080           0
  111363 WT7  4093 TIP3 H2   HT     0.417000        1.0080           0
  111364 WT7  4095 TIP3 OH2  OT    -0.834000       15.9994           0
  111365 WT7  4095 TIP3 H1   HT     0.417000        1.0080           0
  111366 WT7  4095 TIP3 H2   HT     0.417000        1.0080           0
  111367 WT7  4096 TIP3 OH2  OT    -0.834000       15.9994           0
  111368 WT7  4096 TIP3 H1   HT     0.417000        1.0080           0
  111369 WT7  4096 TIP3 H2   HT     0.417000        1.0080           0
  111370 WT7  4097 TIP3 OH2  OT    -0.834000       15.9994           0
  111371 WT7  4097 TIP3 H1   HT     0.417000        1.0080           0
  111372 WT7  4097 TIP3 H2   HT     0.417000        1.0080           0
  111373 WT7  4098 TIP3 OH2  OT    -0.834000       15.9994           0
  111374 WT7  4098 TIP3 H1   HT     0.417000        1.0080           0
  111375 WT7  4098 TIP3 H2   HT     0.417000        1.0080           0
  111376 WT7  4099 TIP3 OH2  OT    -0.834000       15.9994           0
  111377 WT7  4099 TIP3 H1   HT     0.417000        1.0080           0
  111378 WT7  4099 TIP3 H2   HT     0.417000        1.0080           0
  111379 WT7  4101 TIP3 OH2  OT    -0.834000       15.9994           0
  111380 WT7  4101 TIP3 H1   HT     0.417000        1.0080           0
  111381 WT7  4101 TIP3 H2   HT     0.417000        1.0080           0
  111382 WT7  4102 TIP3 OH2  OT    -0.834000       15.9994           0
  111383 WT7  4102 TIP3 H1   HT     0.417000        1.0080           0
  111384 WT7  4102 TIP3 H2   HT     0.417000        1.0080           0
  111385 WT7  4103 TIP3 OH2  OT    -0.834000       15.9994           0
  111386 WT7  4103 TIP3 H1   HT     0.417000        1.0080           0
  111387 WT7  4103 TIP3 H2   HT     0.417000        1.0080           0
  111388 WT7  4104 TIP3 OH2  OT    -0.834000       15.9994           0
  111389 WT7  4104 TIP3 H1   HT     0.417000        1.0080           0
  111390 WT7  4104 TIP3 H2   HT     0.417000        1.0080           0
  111391 WT7  4105 TIP3 OH2  OT    -0.834000       15.9994           0
  111392 WT7  4105 TIP3 H1   HT     0.417000        1.0080           0
  111393 WT7  4105 TIP3 H2   HT     0.417000        1.0080           0
  111394 WT7  4106 TIP3 OH2  OT    -0.834000       15.9994           0
  111395 WT7  4106 TIP3 H1   HT     0.417000        1.0080           0
  111396 WT7  4106 TIP3 H2   HT     0.417000        1.0080           0
  111397 WT7  4107 TIP3 OH2  OT    -0.834000       15.9994           0
  111398 WT7  4107 TIP3 H1   HT     0.417000        1.0080           0
  111399 WT7  4107 TIP3 H2   HT     0.417000        1.0080           0
  111400 WT7  4108 TIP3 OH2  OT    -0.834000       15.9994           0
  111401 WT7  4108 TIP3 H1   HT     0.417000        1.0080           0
  111402 WT7  4108 TIP3 H2   HT     0.417000        1.0080           0
  111403 WT7  4109 TIP3 OH2  OT    -0.834000       15.9994           0
  111404 WT7  4109 TIP3 H1   HT     0.417000        1.0080           0
  111405 WT7  4109 TIP3 H2   HT     0.417000        1.0080           0
  111406 WT7  4110 TIP3 OH2  OT    -0.834000       15.9994           0
  111407 WT7  4110 TIP3 H1   HT     0.417000        1.0080           0
  111408 WT7  4110 TIP3 H2   HT     0.417000        1.0080           0
  111409 WT7  4111 TIP3 OH2  OT    -0.834000       15.9994           0
  111410 WT7  4111 TIP3 H1   HT     0.417000        1.0080           0
  111411 WT7  4111 TIP3 H2   HT     0.417000        1.0080           0
  111412 WT7  4114 TIP3 OH2  OT    -0.834000       15.9994           0
  111413 WT7  4114 TIP3 H1   HT     0.417000        1.0080           0
  111414 WT7  4114 TIP3 H2   HT     0.417000        1.0080           0
  111415 WT7  4116 TIP3 OH2  OT    -0.834000       15.9994           0
  111416 WT7  4116 TIP3 H1   HT     0.417000        1.0080           0
  111417 WT7  4116 TIP3 H2   HT     0.417000        1.0080           0
  111418 WT7  4117 TIP3 OH2  OT    -0.834000       15.9994           0
  111419 WT7  4117 TIP3 H1   HT     0.417000        1.0080           0
  111420 WT7  4117 TIP3 H2   HT     0.417000        1.0080           0
  111421 WT7  4118 TIP3 OH2  OT    -0.834000       15.9994           0
  111422 WT7  4118 TIP3 H1   HT     0.417000        1.0080           0
  111423 WT7  4118 TIP3 H2   HT     0.417000        1.0080           0
  111424 WT7  4119 TIP3 OH2  OT    -0.834000       15.9994           0
  111425 WT7  4119 TIP3 H1   HT     0.417000        1.0080           0
  111426 WT7  4119 TIP3 H2   HT     0.417000        1.0080           0
  111427 WT7  4120 TIP3 OH2  OT    -0.834000       15.9994           0
  111428 WT7  4120 TIP3 H1   HT     0.417000        1.0080           0
  111429 WT7  4120 TIP3 H2   HT     0.417000        1.0080           0
  111430 WT7  4121 TIP3 OH2  OT    -0.834000       15.9994           0
  111431 WT7  4121 TIP3 H1   HT     0.417000        1.0080           0
  111432 WT7  4121 TIP3 H2   HT     0.417000        1.0080           0
  111433 WT7  4122 TIP3 OH2  OT    -0.834000       15.9994           0
  111434 WT7  4122 TIP3 H1   HT     0.417000        1.0080           0
  111435 WT7  4122 TIP3 H2   HT     0.417000        1.0080           0
  111436 WT7  4123 TIP3 OH2  OT    -0.834000       15.9994           0
  111437 WT7  4123 TIP3 H1   HT     0.417000        1.0080           0
  111438 WT7  4123 TIP3 H2   HT     0.417000        1.0080           0
  111439 WT7  4124 TIP3 OH2  OT    -0.834000       15.9994           0
  111440 WT7  4124 TIP3 H1   HT     0.417000        1.0080           0
  111441 WT7  4124 TIP3 H2   HT     0.417000        1.0080           0
  111442 WT7  4126 TIP3 OH2  OT    -0.834000       15.9994           0
  111443 WT7  4126 TIP3 H1   HT     0.417000        1.0080           0
  111444 WT7  4126 TIP3 H2   HT     0.417000        1.0080           0
  111445 WT7  4127 TIP3 OH2  OT    -0.834000       15.9994           0
  111446 WT7  4127 TIP3 H1   HT     0.417000        1.0080           0
  111447 WT7  4127 TIP3 H2   HT     0.417000        1.0080           0
  111448 WT7  4128 TIP3 OH2  OT    -0.834000       15.9994           0
  111449 WT7  4128 TIP3 H1   HT     0.417000        1.0080           0
  111450 WT7  4128 TIP3 H2   HT     0.417000        1.0080           0
  111451 WT7  4129 TIP3 OH2  OT    -0.834000       15.9994           0
  111452 WT7  4129 TIP3 H1   HT     0.417000        1.0080           0
  111453 WT7  4129 TIP3 H2   HT     0.417000        1.0080           0
  111454 WT7  4131 TIP3 OH2  OT    -0.834000       15.9994           0
  111455 WT7  4131 TIP3 H1   HT     0.417000        1.0080           0
  111456 WT7  4131 TIP3 H2   HT     0.417000        1.0080           0
  111457 WT7  4133 TIP3 OH2  OT    -0.834000       15.9994           0
  111458 WT7  4133 TIP3 H1   HT     0.417000        1.0080           0
  111459 WT7  4133 TIP3 H2   HT     0.417000        1.0080           0
  111460 WT7  4134 TIP3 OH2  OT    -0.834000       15.9994           0
  111461 WT7  4134 TIP3 H1   HT     0.417000        1.0080           0
  111462 WT7  4134 TIP3 H2   HT     0.417000        1.0080           0
  111463 WT7  4136 TIP3 OH2  OT    -0.834000       15.9994           0
  111464 WT7  4136 TIP3 H1   HT     0.417000        1.0080           0
  111465 WT7  4136 TIP3 H2   HT     0.417000        1.0080           0
  111466 WT7  4138 TIP3 OH2  OT    -0.834000       15.9994           0
  111467 WT7  4138 TIP3 H1   HT     0.417000        1.0080           0
  111468 WT7  4138 TIP3 H2   HT     0.417000        1.0080           0
  111469 WT7  4139 TIP3 OH2  OT    -0.834000       15.9994           0
  111470 WT7  4139 TIP3 H1   HT     0.417000        1.0080           0
  111471 WT7  4139 TIP3 H2   HT     0.417000        1.0080           0
  111472 WT7  4140 TIP3 OH2  OT    -0.834000       15.9994           0
  111473 WT7  4140 TIP3 H1   HT     0.417000        1.0080           0
  111474 WT7  4140 TIP3 H2   HT     0.417000        1.0080           0
  111475 WT7  4141 TIP3 OH2  OT    -0.834000       15.9994           0
  111476 WT7  4141 TIP3 H1   HT     0.417000        1.0080           0
  111477 WT7  4141 TIP3 H2   HT     0.417000        1.0080           0
  111478 WT7  4142 TIP3 OH2  OT    -0.834000       15.9994           0
  111479 WT7  4142 TIP3 H1   HT     0.417000        1.0080           0
  111480 WT7  4142 TIP3 H2   HT     0.417000        1.0080           0
  111481 WT7  4143 TIP3 OH2  OT    -0.834000       15.9994           0
  111482 WT7  4143 TIP3 H1   HT     0.417000        1.0080           0
  111483 WT7  4143 TIP3 H2   HT     0.417000        1.0080           0
  111484 WT7  4144 TIP3 OH2  OT    -0.834000       15.9994           0
  111485 WT7  4144 TIP3 H1   HT     0.417000        1.0080           0
  111486 WT7  4144 TIP3 H2   HT     0.417000        1.0080           0
  111487 WT7  4145 TIP3 OH2  OT    -0.834000       15.9994           0
  111488 WT7  4145 TIP3 H1   HT     0.417000        1.0080           0
  111489 WT7  4145 TIP3 H2   HT     0.417000        1.0080           0
  111490 WT7  4146 TIP3 OH2  OT    -0.834000       15.9994           0
  111491 WT7  4146 TIP3 H1   HT     0.417000        1.0080           0
  111492 WT7  4146 TIP3 H2   HT     0.417000        1.0080           0
  111493 WT7  4147 TIP3 OH2  OT    -0.834000       15.9994           0
  111494 WT7  4147 TIP3 H1   HT     0.417000        1.0080           0
  111495 WT7  4147 TIP3 H2   HT     0.417000        1.0080           0
  111496 WT7  4148 TIP3 OH2  OT    -0.834000       15.9994           0
  111497 WT7  4148 TIP3 H1   HT     0.417000        1.0080           0
  111498 WT7  4148 TIP3 H2   HT     0.417000        1.0080           0
  111499 WT7  4149 TIP3 OH2  OT    -0.834000       15.9994           0
  111500 WT7  4149 TIP3 H1   HT     0.417000        1.0080           0
  111501 WT7  4149 TIP3 H2   HT     0.417000        1.0080           0
  111502 WT7  4150 TIP3 OH2  OT    -0.834000       15.9994           0
  111503 WT7  4150 TIP3 H1   HT     0.417000        1.0080           0
  111504 WT7  4150 TIP3 H2   HT     0.417000        1.0080           0
  111505 WT7  4151 TIP3 OH2  OT    -0.834000       15.9994           0
  111506 WT7  4151 TIP3 H1   HT     0.417000        1.0080           0
  111507 WT7  4151 TIP3 H2   HT     0.417000        1.0080           0
  111508 WT7  4152 TIP3 OH2  OT    -0.834000       15.9994           0
  111509 WT7  4152 TIP3 H1   HT     0.417000        1.0080           0
  111510 WT7  4152 TIP3 H2   HT     0.417000        1.0080           0
  111511 WT7  4154 TIP3 OH2  OT    -0.834000       15.9994           0
  111512 WT7  4154 TIP3 H1   HT     0.417000        1.0080           0
  111513 WT7  4154 TIP3 H2   HT     0.417000        1.0080           0
  111514 WT7  4155 TIP3 OH2  OT    -0.834000       15.9994           0
  111515 WT7  4155 TIP3 H1   HT     0.417000        1.0080           0
  111516 WT7  4155 TIP3 H2   HT     0.417000        1.0080           0
  111517 WT7  4156 TIP3 OH2  OT    -0.834000       15.9994           0
  111518 WT7  4156 TIP3 H1   HT     0.417000        1.0080           0
  111519 WT7  4156 TIP3 H2   HT     0.417000        1.0080           0
  111520 WT7  4157 TIP3 OH2  OT    -0.834000       15.9994           0
  111521 WT7  4157 TIP3 H1   HT     0.417000        1.0080           0
  111522 WT7  4157 TIP3 H2   HT     0.417000        1.0080           0
  111523 WT7  4158 TIP3 OH2  OT    -0.834000       15.9994           0
  111524 WT7  4158 TIP3 H1   HT     0.417000        1.0080           0
  111525 WT7  4158 TIP3 H2   HT     0.417000        1.0080           0
  111526 WT7  4159 TIP3 OH2  OT    -0.834000       15.9994           0
  111527 WT7  4159 TIP3 H1   HT     0.417000        1.0080           0
  111528 WT7  4159 TIP3 H2   HT     0.417000        1.0080           0
  111529 WT7  4160 TIP3 OH2  OT    -0.834000       15.9994           0
  111530 WT7  4160 TIP3 H1   HT     0.417000        1.0080           0
  111531 WT7  4160 TIP3 H2   HT     0.417000        1.0080           0
  111532 WT7  4161 TIP3 OH2  OT    -0.834000       15.9994           0
  111533 WT7  4161 TIP3 H1   HT     0.417000        1.0080           0
  111534 WT7  4161 TIP3 H2   HT     0.417000        1.0080           0
  111535 WT7  4162 TIP3 OH2  OT    -0.834000       15.9994           0
  111536 WT7  4162 TIP3 H1   HT     0.417000        1.0080           0
  111537 WT7  4162 TIP3 H2   HT     0.417000        1.0080           0
  111538 WT7  4163 TIP3 OH2  OT    -0.834000       15.9994           0
  111539 WT7  4163 TIP3 H1   HT     0.417000        1.0080           0
  111540 WT7  4163 TIP3 H2   HT     0.417000        1.0080           0
  111541 WT7  4164 TIP3 OH2  OT    -0.834000       15.9994           0
  111542 WT7  4164 TIP3 H1   HT     0.417000        1.0080           0
  111543 WT7  4164 TIP3 H2   HT     0.417000        1.0080           0
  111544 WT7  4165 TIP3 OH2  OT    -0.834000       15.9994           0
  111545 WT7  4165 TIP3 H1   HT     0.417000        1.0080           0
  111546 WT7  4165 TIP3 H2   HT     0.417000        1.0080           0
  111547 WT7  4166 TIP3 OH2  OT    -0.834000       15.9994           0
  111548 WT7  4166 TIP3 H1   HT     0.417000        1.0080           0
  111549 WT7  4166 TIP3 H2   HT     0.417000        1.0080           0
  111550 WT7  4167 TIP3 OH2  OT    -0.834000       15.9994           0
  111551 WT7  4167 TIP3 H1   HT     0.417000        1.0080           0
  111552 WT7  4167 TIP3 H2   HT     0.417000        1.0080           0
  111553 WT7  4168 TIP3 OH2  OT    -0.834000       15.9994           0
  111554 WT7  4168 TIP3 H1   HT     0.417000        1.0080           0
  111555 WT7  4168 TIP3 H2   HT     0.417000        1.0080           0
  111556 WT7  4170 TIP3 OH2  OT    -0.834000       15.9994           0
  111557 WT7  4170 TIP3 H1   HT     0.417000        1.0080           0
  111558 WT7  4170 TIP3 H2   HT     0.417000        1.0080           0
  111559 WT7  4171 TIP3 OH2  OT    -0.834000       15.9994           0
  111560 WT7  4171 TIP3 H1   HT     0.417000        1.0080           0
  111561 WT7  4171 TIP3 H2   HT     0.417000        1.0080           0
  111562 WT7  4172 TIP3 OH2  OT    -0.834000       15.9994           0
  111563 WT7  4172 TIP3 H1   HT     0.417000        1.0080           0
  111564 WT7  4172 TIP3 H2   HT     0.417000        1.0080           0
  111565 WT7  4174 TIP3 OH2  OT    -0.834000       15.9994           0
  111566 WT7  4174 TIP3 H1   HT     0.417000        1.0080           0
  111567 WT7  4174 TIP3 H2   HT     0.417000        1.0080           0
  111568 WT7  4175 TIP3 OH2  OT    -0.834000       15.9994           0
  111569 WT7  4175 TIP3 H1   HT     0.417000        1.0080           0
  111570 WT7  4175 TIP3 H2   HT     0.417000        1.0080           0
  111571 WT7  4176 TIP3 OH2  OT    -0.834000       15.9994           0
  111572 WT7  4176 TIP3 H1   HT     0.417000        1.0080           0
  111573 WT7  4176 TIP3 H2   HT     0.417000        1.0080           0
  111574 WT7  4177 TIP3 OH2  OT    -0.834000       15.9994           0
  111575 WT7  4177 TIP3 H1   HT     0.417000        1.0080           0
  111576 WT7  4177 TIP3 H2   HT     0.417000        1.0080           0
  111577 WT7  4179 TIP3 OH2  OT    -0.834000       15.9994           0
  111578 WT7  4179 TIP3 H1   HT     0.417000        1.0080           0
  111579 WT7  4179 TIP3 H2   HT     0.417000        1.0080           0
  111580 WT7  4181 TIP3 OH2  OT    -0.834000       15.9994           0
  111581 WT7  4181 TIP3 H1   HT     0.417000        1.0080           0
  111582 WT7  4181 TIP3 H2   HT     0.417000        1.0080           0
  111583 WT7  4182 TIP3 OH2  OT    -0.834000       15.9994           0
  111584 WT7  4182 TIP3 H1   HT     0.417000        1.0080           0
  111585 WT7  4182 TIP3 H2   HT     0.417000        1.0080           0
  111586 WT7  4183 TIP3 OH2  OT    -0.834000       15.9994           0
  111587 WT7  4183 TIP3 H1   HT     0.417000        1.0080           0
  111588 WT7  4183 TIP3 H2   HT     0.417000        1.0080           0
  111589 WT7  4184 TIP3 OH2  OT    -0.834000       15.9994           0
  111590 WT7  4184 TIP3 H1   HT     0.417000        1.0080           0
  111591 WT7  4184 TIP3 H2   HT     0.417000        1.0080           0
  111592 WT7  4185 TIP3 OH2  OT    -0.834000       15.9994           0
  111593 WT7  4185 TIP3 H1   HT     0.417000        1.0080           0
  111594 WT7  4185 TIP3 H2   HT     0.417000        1.0080           0
  111595 WT7  4187 TIP3 OH2  OT    -0.834000       15.9994           0
  111596 WT7  4187 TIP3 H1   HT     0.417000        1.0080           0
  111597 WT7  4187 TIP3 H2   HT     0.417000        1.0080           0
  111598 WT7  4188 TIP3 OH2  OT    -0.834000       15.9994           0
  111599 WT7  4188 TIP3 H1   HT     0.417000        1.0080           0
  111600 WT7  4188 TIP3 H2   HT     0.417000        1.0080           0
  111601 WT7  4190 TIP3 OH2  OT    -0.834000       15.9994           0
  111602 WT7  4190 TIP3 H1   HT     0.417000        1.0080           0
  111603 WT7  4190 TIP3 H2   HT     0.417000        1.0080           0
  111604 WT7  4191 TIP3 OH2  OT    -0.834000       15.9994           0
  111605 WT7  4191 TIP3 H1   HT     0.417000        1.0080           0
  111606 WT7  4191 TIP3 H2   HT     0.417000        1.0080           0
  111607 WT7  4193 TIP3 OH2  OT    -0.834000       15.9994           0
  111608 WT7  4193 TIP3 H1   HT     0.417000        1.0080           0
  111609 WT7  4193 TIP3 H2   HT     0.417000        1.0080           0
  111610 WT7  4195 TIP3 OH2  OT    -0.834000       15.9994           0
  111611 WT7  4195 TIP3 H1   HT     0.417000        1.0080           0
  111612 WT7  4195 TIP3 H2   HT     0.417000        1.0080           0
  111613 WT7  4196 TIP3 OH2  OT    -0.834000       15.9994           0
  111614 WT7  4196 TIP3 H1   HT     0.417000        1.0080           0
  111615 WT7  4196 TIP3 H2   HT     0.417000        1.0080           0
  111616 WT7  4198 TIP3 OH2  OT    -0.834000       15.9994           0
  111617 WT7  4198 TIP3 H1   HT     0.417000        1.0080           0
  111618 WT7  4198 TIP3 H2   HT     0.417000        1.0080           0
  111619 WT7  4199 TIP3 OH2  OT    -0.834000       15.9994           0
  111620 WT7  4199 TIP3 H1   HT     0.417000        1.0080           0
  111621 WT7  4199 TIP3 H2   HT     0.417000        1.0080           0
  111622 WT7  4200 TIP3 OH2  OT    -0.834000       15.9994           0
  111623 WT7  4200 TIP3 H1   HT     0.417000        1.0080           0
  111624 WT7  4200 TIP3 H2   HT     0.417000        1.0080           0
  111625 WT7  4201 TIP3 OH2  OT    -0.834000       15.9994           0
  111626 WT7  4201 TIP3 H1   HT     0.417000        1.0080           0
  111627 WT7  4201 TIP3 H2   HT     0.417000        1.0080           0
  111628 WT7  4202 TIP3 OH2  OT    -0.834000       15.9994           0
  111629 WT7  4202 TIP3 H1   HT     0.417000        1.0080           0
  111630 WT7  4202 TIP3 H2   HT     0.417000        1.0080           0
  111631 WT7  4205 TIP3 OH2  OT    -0.834000       15.9994           0
  111632 WT7  4205 TIP3 H1   HT     0.417000        1.0080           0
  111633 WT7  4205 TIP3 H2   HT     0.417000        1.0080           0
  111634 WT7  4207 TIP3 OH2  OT    -0.834000       15.9994           0
  111635 WT7  4207 TIP3 H1   HT     0.417000        1.0080           0
  111636 WT7  4207 TIP3 H2   HT     0.417000        1.0080           0
  111637 WT7  4208 TIP3 OH2  OT    -0.834000       15.9994           0
  111638 WT7  4208 TIP3 H1   HT     0.417000        1.0080           0
  111639 WT7  4208 TIP3 H2   HT     0.417000        1.0080           0
  111640 WT7  4209 TIP3 OH2  OT    -0.834000       15.9994           0
  111641 WT7  4209 TIP3 H1   HT     0.417000        1.0080           0
  111642 WT7  4209 TIP3 H2   HT     0.417000        1.0080           0
  111643 WT7  4211 TIP3 OH2  OT    -0.834000       15.9994           0
  111644 WT7  4211 TIP3 H1   HT     0.417000        1.0080           0
  111645 WT7  4211 TIP3 H2   HT     0.417000        1.0080           0
  111646 WT7  4212 TIP3 OH2  OT    -0.834000       15.9994           0
  111647 WT7  4212 TIP3 H1   HT     0.417000        1.0080           0
  111648 WT7  4212 TIP3 H2   HT     0.417000        1.0080           0
  111649 WT7  4215 TIP3 OH2  OT    -0.834000       15.9994           0
  111650 WT7  4215 TIP3 H1   HT     0.417000        1.0080           0
  111651 WT7  4215 TIP3 H2   HT     0.417000        1.0080           0
  111652 WT7  4216 TIP3 OH2  OT    -0.834000       15.9994           0
  111653 WT7  4216 TIP3 H1   HT     0.417000        1.0080           0
  111654 WT7  4216 TIP3 H2   HT     0.417000        1.0080           0
  111655 WT7  4217 TIP3 OH2  OT    -0.834000       15.9994           0
  111656 WT7  4217 TIP3 H1   HT     0.417000        1.0080           0
  111657 WT7  4217 TIP3 H2   HT     0.417000        1.0080           0
  111658 WT7  4218 TIP3 OH2  OT    -0.834000       15.9994           0
  111659 WT7  4218 TIP3 H1   HT     0.417000        1.0080           0
  111660 WT7  4218 TIP3 H2   HT     0.417000        1.0080           0
  111661 WT7  4219 TIP3 OH2  OT    -0.834000       15.9994           0
  111662 WT7  4219 TIP3 H1   HT     0.417000        1.0080           0
  111663 WT7  4219 TIP3 H2   HT     0.417000        1.0080           0
  111664 WT7  4222 TIP3 OH2  OT    -0.834000       15.9994           0
  111665 WT7  4222 TIP3 H1   HT     0.417000        1.0080           0
  111666 WT7  4222 TIP3 H2   HT     0.417000        1.0080           0
  111667 WT7  4224 TIP3 OH2  OT    -0.834000       15.9994           0
  111668 WT7  4224 TIP3 H1   HT     0.417000        1.0080           0
  111669 WT7  4224 TIP3 H2   HT     0.417000        1.0080           0
  111670 WT7  4225 TIP3 OH2  OT    -0.834000       15.9994           0
  111671 WT7  4225 TIP3 H1   HT     0.417000        1.0080           0
  111672 WT7  4225 TIP3 H2   HT     0.417000        1.0080           0
  111673 WT7  4227 TIP3 OH2  OT    -0.834000       15.9994           0
  111674 WT7  4227 TIP3 H1   HT     0.417000        1.0080           0
  111675 WT7  4227 TIP3 H2   HT     0.417000        1.0080           0
  111676 WT7  4228 TIP3 OH2  OT    -0.834000       15.9994           0
  111677 WT7  4228 TIP3 H1   HT     0.417000        1.0080           0
  111678 WT7  4228 TIP3 H2   HT     0.417000        1.0080           0
  111679 WT7  4231 TIP3 OH2  OT    -0.834000       15.9994           0
  111680 WT7  4231 TIP3 H1   HT     0.417000        1.0080           0
  111681 WT7  4231 TIP3 H2   HT     0.417000        1.0080           0
  111682 WT7  4232 TIP3 OH2  OT    -0.834000       15.9994           0
  111683 WT7  4232 TIP3 H1   HT     0.417000        1.0080           0
  111684 WT7  4232 TIP3 H2   HT     0.417000        1.0080           0
  111685 WT7  4233 TIP3 OH2  OT    -0.834000       15.9994           0
  111686 WT7  4233 TIP3 H1   HT     0.417000        1.0080           0
  111687 WT7  4233 TIP3 H2   HT     0.417000        1.0080           0
  111688 WT7  4234 TIP3 OH2  OT    -0.834000       15.9994           0
  111689 WT7  4234 TIP3 H1   HT     0.417000        1.0080           0
  111690 WT7  4234 TIP3 H2   HT     0.417000        1.0080           0
  111691 WT7  4235 TIP3 OH2  OT    -0.834000       15.9994           0
  111692 WT7  4235 TIP3 H1   HT     0.417000        1.0080           0
  111693 WT7  4235 TIP3 H2   HT     0.417000        1.0080           0
  111694 WT7  4236 TIP3 OH2  OT    -0.834000       15.9994           0
  111695 WT7  4236 TIP3 H1   HT     0.417000        1.0080           0
  111696 WT7  4236 TIP3 H2   HT     0.417000        1.0080           0
  111697 WT7  4243 TIP3 OH2  OT    -0.834000       15.9994           0
  111698 WT7  4243 TIP3 H1   HT     0.417000        1.0080           0
  111699 WT7  4243 TIP3 H2   HT     0.417000        1.0080           0
  111700 WT7  4247 TIP3 OH2  OT    -0.834000       15.9994           0
  111701 WT7  4247 TIP3 H1   HT     0.417000        1.0080           0
  111702 WT7  4247 TIP3 H2   HT     0.417000        1.0080           0
  111703 WT7  4249 TIP3 OH2  OT    -0.834000       15.9994           0
  111704 WT7  4249 TIP3 H1   HT     0.417000        1.0080           0
  111705 WT7  4249 TIP3 H2   HT     0.417000        1.0080           0
  111706 WT7  4251 TIP3 OH2  OT    -0.834000       15.9994           0
  111707 WT7  4251 TIP3 H1   HT     0.417000        1.0080           0
  111708 WT7  4251 TIP3 H2   HT     0.417000        1.0080           0
  111709 WT7  4255 TIP3 OH2  OT    -0.834000       15.9994           0
  111710 WT7  4255 TIP3 H1   HT     0.417000        1.0080           0
  111711 WT7  4255 TIP3 H2   HT     0.417000        1.0080           0
  111712 WT7  4256 TIP3 OH2  OT    -0.834000       15.9994           0
  111713 WT7  4256 TIP3 H1   HT     0.417000        1.0080           0
  111714 WT7  4256 TIP3 H2   HT     0.417000        1.0080           0
  111715 WT7  4257 TIP3 OH2  OT    -0.834000       15.9994           0
  111716 WT7  4257 TIP3 H1   HT     0.417000        1.0080           0
  111717 WT7  4257 TIP3 H2   HT     0.417000        1.0080           0
  111718 WT7  4260 TIP3 OH2  OT    -0.834000       15.9994           0
  111719 WT7  4260 TIP3 H1   HT     0.417000        1.0080           0
  111720 WT7  4260 TIP3 H2   HT     0.417000        1.0080           0
  111721 WT7  4263 TIP3 OH2  OT    -0.834000       15.9994           0
  111722 WT7  4263 TIP3 H1   HT     0.417000        1.0080           0
  111723 WT7  4263 TIP3 H2   HT     0.417000        1.0080           0
  111724 WT7  4266 TIP3 OH2  OT    -0.834000       15.9994           0
  111725 WT7  4266 TIP3 H1   HT     0.417000        1.0080           0
  111726 WT7  4266 TIP3 H2   HT     0.417000        1.0080           0
  111727 WT7  4268 TIP3 OH2  OT    -0.834000       15.9994           0
  111728 WT7  4268 TIP3 H1   HT     0.417000        1.0080           0
  111729 WT7  4268 TIP3 H2   HT     0.417000        1.0080           0
  111730 WT7  4272 TIP3 OH2  OT    -0.834000       15.9994           0
  111731 WT7  4272 TIP3 H1   HT     0.417000        1.0080           0
  111732 WT7  4272 TIP3 H2   HT     0.417000        1.0080           0
  111733 WT7  4273 TIP3 OH2  OT    -0.834000       15.9994           0
  111734 WT7  4273 TIP3 H1   HT     0.417000        1.0080           0
  111735 WT7  4273 TIP3 H2   HT     0.417000        1.0080           0
  111736 WT7  4274 TIP3 OH2  OT    -0.834000       15.9994           0
  111737 WT7  4274 TIP3 H1   HT     0.417000        1.0080           0
  111738 WT7  4274 TIP3 H2   HT     0.417000        1.0080           0
  111739 WT7  4278 TIP3 OH2  OT    -0.834000       15.9994           0
  111740 WT7  4278 TIP3 H1   HT     0.417000        1.0080           0
  111741 WT7  4278 TIP3 H2   HT     0.417000        1.0080           0
  111742 WT7  4282 TIP3 OH2  OT    -0.834000       15.9994           0
  111743 WT7  4282 TIP3 H1   HT     0.417000        1.0080           0
  111744 WT7  4282 TIP3 H2   HT     0.417000        1.0080           0
  111745 WT7  4284 TIP3 OH2  OT    -0.834000       15.9994           0
  111746 WT7  4284 TIP3 H1   HT     0.417000        1.0080           0
  111747 WT7  4284 TIP3 H2   HT     0.417000        1.0080           0
  111748 WT7  4285 TIP3 OH2  OT    -0.834000       15.9994           0
  111749 WT7  4285 TIP3 H1   HT     0.417000        1.0080           0
  111750 WT7  4285 TIP3 H2   HT     0.417000        1.0080           0
  111751 WT7  4286 TIP3 OH2  OT    -0.834000       15.9994           0
  111752 WT7  4286 TIP3 H1   HT     0.417000        1.0080           0
  111753 WT7  4286 TIP3 H2   HT     0.417000        1.0080           0
  111754 WT7  4287 TIP3 OH2  OT    -0.834000       15.9994           0
  111755 WT7  4287 TIP3 H1   HT     0.417000        1.0080           0
  111756 WT7  4287 TIP3 H2   HT     0.417000        1.0080           0
  111757 WT7  4294 TIP3 OH2  OT    -0.834000       15.9994           0
  111758 WT7  4294 TIP3 H1   HT     0.417000        1.0080           0
  111759 WT7  4294 TIP3 H2   HT     0.417000        1.0080           0
  111760 WT7  4297 TIP3 OH2  OT    -0.834000       15.9994           0
  111761 WT7  4297 TIP3 H1   HT     0.417000        1.0080           0
  111762 WT7  4297 TIP3 H2   HT     0.417000        1.0080           0
  111763 WT7  4298 TIP3 OH2  OT    -0.834000       15.9994           0
  111764 WT7  4298 TIP3 H1   HT     0.417000        1.0080           0
  111765 WT7  4298 TIP3 H2   HT     0.417000        1.0080           0
  111766 WT7  4303 TIP3 OH2  OT    -0.834000       15.9994           0
  111767 WT7  4303 TIP3 H1   HT     0.417000        1.0080           0
  111768 WT7  4303 TIP3 H2   HT     0.417000        1.0080           0
  111769 WT7  4304 TIP3 OH2  OT    -0.834000       15.9994           0
  111770 WT7  4304 TIP3 H1   HT     0.417000        1.0080           0
  111771 WT7  4304 TIP3 H2   HT     0.417000        1.0080           0
  111772 WT7  4307 TIP3 OH2  OT    -0.834000       15.9994           0
  111773 WT7  4307 TIP3 H1   HT     0.417000        1.0080           0
  111774 WT7  4307 TIP3 H2   HT     0.417000        1.0080           0
  111775 WT7  4313 TIP3 OH2  OT    -0.834000       15.9994           0
  111776 WT7  4313 TIP3 H1   HT     0.417000        1.0080           0
  111777 WT7  4313 TIP3 H2   HT     0.417000        1.0080           0
  111778 WT7  4315 TIP3 OH2  OT    -0.834000       15.9994           0
  111779 WT7  4315 TIP3 H1   HT     0.417000        1.0080           0
  111780 WT7  4315 TIP3 H2   HT     0.417000        1.0080           0
  111781 WT7  4319 TIP3 OH2  OT    -0.834000       15.9994           0
  111782 WT7  4319 TIP3 H1   HT     0.417000        1.0080           0
  111783 WT7  4319 TIP3 H2   HT     0.417000        1.0080           0
  111784 WT7  4328 TIP3 OH2  OT    -0.834000       15.9994           0
  111785 WT7  4328 TIP3 H1   HT     0.417000        1.0080           0
  111786 WT7  4328 TIP3 H2   HT     0.417000        1.0080           0
  111787 WT7  4337 TIP3 OH2  OT    -0.834000       15.9994           0
  111788 WT7  4337 TIP3 H1   HT     0.417000        1.0080           0
  111789 WT7  4337 TIP3 H2   HT     0.417000        1.0080           0
  111790 WT7  4345 TIP3 OH2  OT    -0.834000       15.9994           0
  111791 WT7  4345 TIP3 H1   HT     0.417000        1.0080           0
  111792 WT7  4345 TIP3 H2   HT     0.417000        1.0080           0
  111793 WT7  4347 TIP3 OH2  OT    -0.834000       15.9994           0
  111794 WT7  4347 TIP3 H1   HT     0.417000        1.0080           0
  111795 WT7  4347 TIP3 H2   HT     0.417000        1.0080           0
  111796 WT7  4356 TIP3 OH2  OT    -0.834000       15.9994           0
  111797 WT7  4356 TIP3 H1   HT     0.417000        1.0080           0
  111798 WT7  4356 TIP3 H2   HT     0.417000        1.0080           0
  111799 WT7  4365 TIP3 OH2  OT    -0.834000       15.9994           0
  111800 WT7  4365 TIP3 H1   HT     0.417000        1.0080           0
  111801 WT7  4365 TIP3 H2   HT     0.417000        1.0080           0
  111802 WT7  4380 TIP3 OH2  OT    -0.834000       15.9994           0
  111803 WT7  4380 TIP3 H1   HT     0.417000        1.0080           0
  111804 WT7  4380 TIP3 H2   HT     0.417000        1.0080           0
  111805 WT7  4382 TIP3 OH2  OT    -0.834000       15.9994           0
  111806 WT7  4382 TIP3 H1   HT     0.417000        1.0080           0
  111807 WT7  4382 TIP3 H2   HT     0.417000        1.0080           0
  111808 WT7  4386 TIP3 OH2  OT    -0.834000       15.9994           0
  111809 WT7  4386 TIP3 H1   HT     0.417000        1.0080           0
  111810 WT7  4386 TIP3 H2   HT     0.417000        1.0080           0
  111811 WT7  4390 TIP3 OH2  OT    -0.834000       15.9994           0
  111812 WT7  4390 TIP3 H1   HT     0.417000        1.0080           0
  111813 WT7  4390 TIP3 H2   HT     0.417000        1.0080           0
  111814 WT7  4394 TIP3 OH2  OT    -0.834000       15.9994           0
  111815 WT7  4394 TIP3 H1   HT     0.417000        1.0080           0
  111816 WT7  4394 TIP3 H2   HT     0.417000        1.0080           0
  111817 WT7  4396 TIP3 OH2  OT    -0.834000       15.9994           0
  111818 WT7  4396 TIP3 H1   HT     0.417000        1.0080           0
  111819 WT7  4396 TIP3 H2   HT     0.417000        1.0080           0
  111820 WT7  4401 TIP3 OH2  OT    -0.834000       15.9994           0
  111821 WT7  4401 TIP3 H1   HT     0.417000        1.0080           0
  111822 WT7  4401 TIP3 H2   HT     0.417000        1.0080           0
  111823 WT7  4404 TIP3 OH2  OT    -0.834000       15.9994           0
  111824 WT7  4404 TIP3 H1   HT     0.417000        1.0080           0
  111825 WT7  4404 TIP3 H2   HT     0.417000        1.0080           0
  111826 WT7  4407 TIP3 OH2  OT    -0.834000       15.9994           0
  111827 WT7  4407 TIP3 H1   HT     0.417000        1.0080           0
  111828 WT7  4407 TIP3 H2   HT     0.417000        1.0080           0
  111829 WT7  4414 TIP3 OH2  OT    -0.834000       15.9994           0
  111830 WT7  4414 TIP3 H1   HT     0.417000        1.0080           0
  111831 WT7  4414 TIP3 H2   HT     0.417000        1.0080           0
  111832 WT7  4417 TIP3 OH2  OT    -0.834000       15.9994           0
  111833 WT7  4417 TIP3 H1   HT     0.417000        1.0080           0
  111834 WT7  4417 TIP3 H2   HT     0.417000        1.0080           0
  111835 WT7  4419 TIP3 OH2  OT    -0.834000       15.9994           0
  111836 WT7  4419 TIP3 H1   HT     0.417000        1.0080           0
  111837 WT7  4419 TIP3 H2   HT     0.417000        1.0080           0
  111838 WT7  4420 TIP3 OH2  OT    -0.834000       15.9994           0
  111839 WT7  4420 TIP3 H1   HT     0.417000        1.0080           0
  111840 WT7  4420 TIP3 H2   HT     0.417000        1.0080           0
  111841 WT7  4421 TIP3 OH2  OT    -0.834000       15.9994           0
  111842 WT7  4421 TIP3 H1   HT     0.417000        1.0080           0
  111843 WT7  4421 TIP3 H2   HT     0.417000        1.0080           0
  111844 WT7  4422 TIP3 OH2  OT    -0.834000       15.9994           0
  111845 WT7  4422 TIP3 H1   HT     0.417000        1.0080           0
  111846 WT7  4422 TIP3 H2   HT     0.417000        1.0080           0
  111847 WT7  4428 TIP3 OH2  OT    -0.834000       15.9994           0
  111848 WT7  4428 TIP3 H1   HT     0.417000        1.0080           0
  111849 WT7  4428 TIP3 H2   HT     0.417000        1.0080           0
  111850 WT7  4432 TIP3 OH2  OT    -0.834000       15.9994           0
  111851 WT7  4432 TIP3 H1   HT     0.417000        1.0080           0
  111852 WT7  4432 TIP3 H2   HT     0.417000        1.0080           0
  111853 WT7  4433 TIP3 OH2  OT    -0.834000       15.9994           0
  111854 WT7  4433 TIP3 H1   HT     0.417000        1.0080           0
  111855 WT7  4433 TIP3 H2   HT     0.417000        1.0080           0
  111856 WT7  4434 TIP3 OH2  OT    -0.834000       15.9994           0
  111857 WT7  4434 TIP3 H1   HT     0.417000        1.0080           0
  111858 WT7  4434 TIP3 H2   HT     0.417000        1.0080           0
  111859 WT7  4437 TIP3 OH2  OT    -0.834000       15.9994           0
  111860 WT7  4437 TIP3 H1   HT     0.417000        1.0080           0
  111861 WT7  4437 TIP3 H2   HT     0.417000        1.0080           0
  111862 WT7  4438 TIP3 OH2  OT    -0.834000       15.9994           0
  111863 WT7  4438 TIP3 H1   HT     0.417000        1.0080           0
  111864 WT7  4438 TIP3 H2   HT     0.417000        1.0080           0
  111865 WT7  4441 TIP3 OH2  OT    -0.834000       15.9994           0
  111866 WT7  4441 TIP3 H1   HT     0.417000        1.0080           0
  111867 WT7  4441 TIP3 H2   HT     0.417000        1.0080           0
  111868 WT7  4442 TIP3 OH2  OT    -0.834000       15.9994           0
  111869 WT7  4442 TIP3 H1   HT     0.417000        1.0080           0
  111870 WT7  4442 TIP3 H2   HT     0.417000        1.0080           0
  111871 WT7  4443 TIP3 OH2  OT    -0.834000       15.9994           0
  111872 WT7  4443 TIP3 H1   HT     0.417000        1.0080           0
  111873 WT7  4443 TIP3 H2   HT     0.417000        1.0080           0
  111874 WT7  4446 TIP3 OH2  OT    -0.834000       15.9994           0
  111875 WT7  4446 TIP3 H1   HT     0.417000        1.0080           0
  111876 WT7  4446 TIP3 H2   HT     0.417000        1.0080           0
  111877 WT7  4451 TIP3 OH2  OT    -0.834000       15.9994           0
  111878 WT7  4451 TIP3 H1   HT     0.417000        1.0080           0
  111879 WT7  4451 TIP3 H2   HT     0.417000        1.0080           0
  111880 WT7  4455 TIP3 OH2  OT    -0.834000       15.9994           0
  111881 WT7  4455 TIP3 H1   HT     0.417000        1.0080           0
  111882 WT7  4455 TIP3 H2   HT     0.417000        1.0080           0
  111883 WT7  4456 TIP3 OH2  OT    -0.834000       15.9994           0
  111884 WT7  4456 TIP3 H1   HT     0.417000        1.0080           0
  111885 WT7  4456 TIP3 H2   HT     0.417000        1.0080           0
  111886 WT7  4457 TIP3 OH2  OT    -0.834000       15.9994           0
  111887 WT7  4457 TIP3 H1   HT     0.417000        1.0080           0
  111888 WT7  4457 TIP3 H2   HT     0.417000        1.0080           0
  111889 WT7  4460 TIP3 OH2  OT    -0.834000       15.9994           0
  111890 WT7  4460 TIP3 H1   HT     0.417000        1.0080           0
  111891 WT7  4460 TIP3 H2   HT     0.417000        1.0080           0
  111892 WT7  4461 TIP3 OH2  OT    -0.834000       15.9994           0
  111893 WT7  4461 TIP3 H1   HT     0.417000        1.0080           0
  111894 WT7  4461 TIP3 H2   HT     0.417000        1.0080           0
  111895 WT7  4462 TIP3 OH2  OT    -0.834000       15.9994           0
  111896 WT7  4462 TIP3 H1   HT     0.417000        1.0080           0
  111897 WT7  4462 TIP3 H2   HT     0.417000        1.0080           0
  111898 WT7  4463 TIP3 OH2  OT    -0.834000       15.9994           0
  111899 WT7  4463 TIP3 H1   HT     0.417000        1.0080           0
  111900 WT7  4463 TIP3 H2   HT     0.417000        1.0080           0
  111901 WT7  4464 TIP3 OH2  OT    -0.834000       15.9994           0
  111902 WT7  4464 TIP3 H1   HT     0.417000        1.0080           0
  111903 WT7  4464 TIP3 H2   HT     0.417000        1.0080           0
  111904 WT7  4465 TIP3 OH2  OT    -0.834000       15.9994           0
  111905 WT7  4465 TIP3 H1   HT     0.417000        1.0080           0
  111906 WT7  4465 TIP3 H2   HT     0.417000        1.0080           0
  111907 WT7  4466 TIP3 OH2  OT    -0.834000       15.9994           0
  111908 WT7  4466 TIP3 H1   HT     0.417000        1.0080           0
  111909 WT7  4466 TIP3 H2   HT     0.417000        1.0080           0
  111910 WT7  4469 TIP3 OH2  OT    -0.834000       15.9994           0
  111911 WT7  4469 TIP3 H1   HT     0.417000        1.0080           0
  111912 WT7  4469 TIP3 H2   HT     0.417000        1.0080           0
  111913 WT7  4470 TIP3 OH2  OT    -0.834000       15.9994           0
  111914 WT7  4470 TIP3 H1   HT     0.417000        1.0080           0
  111915 WT7  4470 TIP3 H2   HT     0.417000        1.0080           0
  111916 WT7  4472 TIP3 OH2  OT    -0.834000       15.9994           0
  111917 WT7  4472 TIP3 H1   HT     0.417000        1.0080           0
  111918 WT7  4472 TIP3 H2   HT     0.417000        1.0080           0
  111919 WT7  4473 TIP3 OH2  OT    -0.834000       15.9994           0
  111920 WT7  4473 TIP3 H1   HT     0.417000        1.0080           0
  111921 WT7  4473 TIP3 H2   HT     0.417000        1.0080           0
  111922 WT7  4474 TIP3 OH2  OT    -0.834000       15.9994           0
  111923 WT7  4474 TIP3 H1   HT     0.417000        1.0080           0
  111924 WT7  4474 TIP3 H2   HT     0.417000        1.0080           0
  111925 WT7  4475 TIP3 OH2  OT    -0.834000       15.9994           0
  111926 WT7  4475 TIP3 H1   HT     0.417000        1.0080           0
  111927 WT7  4475 TIP3 H2   HT     0.417000        1.0080           0
  111928 WT7  4477 TIP3 OH2  OT    -0.834000       15.9994           0
  111929 WT7  4477 TIP3 H1   HT     0.417000        1.0080           0
  111930 WT7  4477 TIP3 H2   HT     0.417000        1.0080           0
  111931 WT7  4479 TIP3 OH2  OT    -0.834000       15.9994           0
  111932 WT7  4479 TIP3 H1   HT     0.417000        1.0080           0
  111933 WT7  4479 TIP3 H2   HT     0.417000        1.0080           0
  111934 WT7  4480 TIP3 OH2  OT    -0.834000       15.9994           0
  111935 WT7  4480 TIP3 H1   HT     0.417000        1.0080           0
  111936 WT7  4480 TIP3 H2   HT     0.417000        1.0080           0
  111937 WT7  4482 TIP3 OH2  OT    -0.834000       15.9994           0
  111938 WT7  4482 TIP3 H1   HT     0.417000        1.0080           0
  111939 WT7  4482 TIP3 H2   HT     0.417000        1.0080           0
  111940 WT7  4483 TIP3 OH2  OT    -0.834000       15.9994           0
  111941 WT7  4483 TIP3 H1   HT     0.417000        1.0080           0
  111942 WT7  4483 TIP3 H2   HT     0.417000        1.0080           0
  111943 WT7  4484 TIP3 OH2  OT    -0.834000       15.9994           0
  111944 WT7  4484 TIP3 H1   HT     0.417000        1.0080           0
  111945 WT7  4484 TIP3 H2   HT     0.417000        1.0080           0
  111946 WT7  4485 TIP3 OH2  OT    -0.834000       15.9994           0
  111947 WT7  4485 TIP3 H1   HT     0.417000        1.0080           0
  111948 WT7  4485 TIP3 H2   HT     0.417000        1.0080           0
  111949 WT7  4487 TIP3 OH2  OT    -0.834000       15.9994           0
  111950 WT7  4487 TIP3 H1   HT     0.417000        1.0080           0
  111951 WT7  4487 TIP3 H2   HT     0.417000        1.0080           0
  111952 WT7  4489 TIP3 OH2  OT    -0.834000       15.9994           0
  111953 WT7  4489 TIP3 H1   HT     0.417000        1.0080           0
  111954 WT7  4489 TIP3 H2   HT     0.417000        1.0080           0
  111955 WT7  4493 TIP3 OH2  OT    -0.834000       15.9994           0
  111956 WT7  4493 TIP3 H1   HT     0.417000        1.0080           0
  111957 WT7  4493 TIP3 H2   HT     0.417000        1.0080           0
  111958 WT7  4494 TIP3 OH2  OT    -0.834000       15.9994           0
  111959 WT7  4494 TIP3 H1   HT     0.417000        1.0080           0
  111960 WT7  4494 TIP3 H2   HT     0.417000        1.0080           0
  111961 WT7  4495 TIP3 OH2  OT    -0.834000       15.9994           0
  111962 WT7  4495 TIP3 H1   HT     0.417000        1.0080           0
  111963 WT7  4495 TIP3 H2   HT     0.417000        1.0080           0
  111964 WT7  4496 TIP3 OH2  OT    -0.834000       15.9994           0
  111965 WT7  4496 TIP3 H1   HT     0.417000        1.0080           0
  111966 WT7  4496 TIP3 H2   HT     0.417000        1.0080           0
  111967 WT7  4497 TIP3 OH2  OT    -0.834000       15.9994           0
  111968 WT7  4497 TIP3 H1   HT     0.417000        1.0080           0
  111969 WT7  4497 TIP3 H2   HT     0.417000        1.0080           0
  111970 WT7  4498 TIP3 OH2  OT    -0.834000       15.9994           0
  111971 WT7  4498 TIP3 H1   HT     0.417000        1.0080           0
  111972 WT7  4498 TIP3 H2   HT     0.417000        1.0080           0
  111973 WT7  4499 TIP3 OH2  OT    -0.834000       15.9994           0
  111974 WT7  4499 TIP3 H1   HT     0.417000        1.0080           0
  111975 WT7  4499 TIP3 H2   HT     0.417000        1.0080           0
  111976 WT7  4500 TIP3 OH2  OT    -0.834000       15.9994           0
  111977 WT7  4500 TIP3 H1   HT     0.417000        1.0080           0
  111978 WT7  4500 TIP3 H2   HT     0.417000        1.0080           0
  111979 WT7  4501 TIP3 OH2  OT    -0.834000       15.9994           0
  111980 WT7  4501 TIP3 H1   HT     0.417000        1.0080           0
  111981 WT7  4501 TIP3 H2   HT     0.417000        1.0080           0
  111982 WT7  4503 TIP3 OH2  OT    -0.834000       15.9994           0
  111983 WT7  4503 TIP3 H1   HT     0.417000        1.0080           0
  111984 WT7  4503 TIP3 H2   HT     0.417000        1.0080           0
  111985 WT7  4504 TIP3 OH2  OT    -0.834000       15.9994           0
  111986 WT7  4504 TIP3 H1   HT     0.417000        1.0080           0
  111987 WT7  4504 TIP3 H2   HT     0.417000        1.0080           0
  111988 WT7  4505 TIP3 OH2  OT    -0.834000       15.9994           0
  111989 WT7  4505 TIP3 H1   HT     0.417000        1.0080           0
  111990 WT7  4505 TIP3 H2   HT     0.417000        1.0080           0
  111991 WT7  4506 TIP3 OH2  OT    -0.834000       15.9994           0
  111992 WT7  4506 TIP3 H1   HT     0.417000        1.0080           0
  111993 WT7  4506 TIP3 H2   HT     0.417000        1.0080           0
  111994 WT7  4507 TIP3 OH2  OT    -0.834000       15.9994           0
  111995 WT7  4507 TIP3 H1   HT     0.417000        1.0080           0
  111996 WT7  4507 TIP3 H2   HT     0.417000        1.0080           0
  111997 WT7  4508 TIP3 OH2  OT    -0.834000       15.9994           0
  111998 WT7  4508 TIP3 H1   HT     0.417000        1.0080           0
  111999 WT7  4508 TIP3 H2   HT     0.417000        1.0080           0
  112000 WT7  4509 TIP3 OH2  OT    -0.834000       15.9994           0
  112001 WT7  4509 TIP3 H1   HT     0.417000        1.0080           0
  112002 WT7  4509 TIP3 H2   HT     0.417000        1.0080           0
  112003 WT7  4510 TIP3 OH2  OT    -0.834000       15.9994           0
  112004 WT7  4510 TIP3 H1   HT     0.417000        1.0080           0
  112005 WT7  4510 TIP3 H2   HT     0.417000        1.0080           0
  112006 WT7  4513 TIP3 OH2  OT    -0.834000       15.9994           0
  112007 WT7  4513 TIP3 H1   HT     0.417000        1.0080           0
  112008 WT7  4513 TIP3 H2   HT     0.417000        1.0080           0
  112009 WT7  4515 TIP3 OH2  OT    -0.834000       15.9994           0
  112010 WT7  4515 TIP3 H1   HT     0.417000        1.0080           0
  112011 WT7  4515 TIP3 H2   HT     0.417000        1.0080           0
  112012 WT7  4516 TIP3 OH2  OT    -0.834000       15.9994           0
  112013 WT7  4516 TIP3 H1   HT     0.417000        1.0080           0
  112014 WT7  4516 TIP3 H2   HT     0.417000        1.0080           0
  112015 WT7  4518 TIP3 OH2  OT    -0.834000       15.9994           0
  112016 WT7  4518 TIP3 H1   HT     0.417000        1.0080           0
  112017 WT7  4518 TIP3 H2   HT     0.417000        1.0080           0
  112018 WT7  4519 TIP3 OH2  OT    -0.834000       15.9994           0
  112019 WT7  4519 TIP3 H1   HT     0.417000        1.0080           0
  112020 WT7  4519 TIP3 H2   HT     0.417000        1.0080           0
  112021 WT7  4520 TIP3 OH2  OT    -0.834000       15.9994           0
  112022 WT7  4520 TIP3 H1   HT     0.417000        1.0080           0
  112023 WT7  4520 TIP3 H2   HT     0.417000        1.0080           0
  112024 WT7  4522 TIP3 OH2  OT    -0.834000       15.9994           0
  112025 WT7  4522 TIP3 H1   HT     0.417000        1.0080           0
  112026 WT7  4522 TIP3 H2   HT     0.417000        1.0080           0
  112027 WT7  4523 TIP3 OH2  OT    -0.834000       15.9994           0
  112028 WT7  4523 TIP3 H1   HT     0.417000        1.0080           0
  112029 WT7  4523 TIP3 H2   HT     0.417000        1.0080           0
  112030 WT7  4524 TIP3 OH2  OT    -0.834000       15.9994           0
  112031 WT7  4524 TIP3 H1   HT     0.417000        1.0080           0
  112032 WT7  4524 TIP3 H2   HT     0.417000        1.0080           0
  112033 WT7  4525 TIP3 OH2  OT    -0.834000       15.9994           0
  112034 WT7  4525 TIP3 H1   HT     0.417000        1.0080           0
  112035 WT7  4525 TIP3 H2   HT     0.417000        1.0080           0
  112036 WT7  4529 TIP3 OH2  OT    -0.834000       15.9994           0
  112037 WT7  4529 TIP3 H1   HT     0.417000        1.0080           0
  112038 WT7  4529 TIP3 H2   HT     0.417000        1.0080           0
  112039 WT7  4530 TIP3 OH2  OT    -0.834000       15.9994           0
  112040 WT7  4530 TIP3 H1   HT     0.417000        1.0080           0
  112041 WT7  4530 TIP3 H2   HT     0.417000        1.0080           0
  112042 WT7  4532 TIP3 OH2  OT    -0.834000       15.9994           0
  112043 WT7  4532 TIP3 H1   HT     0.417000        1.0080           0
  112044 WT7  4532 TIP3 H2   HT     0.417000        1.0080           0
  112045 WT7  4536 TIP3 OH2  OT    -0.834000       15.9994           0
  112046 WT7  4536 TIP3 H1   HT     0.417000        1.0080           0
  112047 WT7  4536 TIP3 H2   HT     0.417000        1.0080           0
  112048 WT7  4537 TIP3 OH2  OT    -0.834000       15.9994           0
  112049 WT7  4537 TIP3 H1   HT     0.417000        1.0080           0
  112050 WT7  4537 TIP3 H2   HT     0.417000        1.0080           0
  112051 WT7  4538 TIP3 OH2  OT    -0.834000       15.9994           0
  112052 WT7  4538 TIP3 H1   HT     0.417000        1.0080           0
  112053 WT7  4538 TIP3 H2   HT     0.417000        1.0080           0
  112054 WT7  4539 TIP3 OH2  OT    -0.834000       15.9994           0
  112055 WT7  4539 TIP3 H1   HT     0.417000        1.0080           0
  112056 WT7  4539 TIP3 H2   HT     0.417000        1.0080           0
  112057 WT7  4540 TIP3 OH2  OT    -0.834000       15.9994           0
  112058 WT7  4540 TIP3 H1   HT     0.417000        1.0080           0
  112059 WT7  4540 TIP3 H2   HT     0.417000        1.0080           0
  112060 WT7  4541 TIP3 OH2  OT    -0.834000       15.9994           0
  112061 WT7  4541 TIP3 H1   HT     0.417000        1.0080           0
  112062 WT7  4541 TIP3 H2   HT     0.417000        1.0080           0
  112063 WT7  4543 TIP3 OH2  OT    -0.834000       15.9994           0
  112064 WT7  4543 TIP3 H1   HT     0.417000        1.0080           0
  112065 WT7  4543 TIP3 H2   HT     0.417000        1.0080           0
  112066 WT7  4545 TIP3 OH2  OT    -0.834000       15.9994           0
  112067 WT7  4545 TIP3 H1   HT     0.417000        1.0080           0
  112068 WT7  4545 TIP3 H2   HT     0.417000        1.0080           0
  112069 WT7  4548 TIP3 OH2  OT    -0.834000       15.9994           0
  112070 WT7  4548 TIP3 H1   HT     0.417000        1.0080           0
  112071 WT7  4548 TIP3 H2   HT     0.417000        1.0080           0
  112072 WT7  4549 TIP3 OH2  OT    -0.834000       15.9994           0
  112073 WT7  4549 TIP3 H1   HT     0.417000        1.0080           0
  112074 WT7  4549 TIP3 H2   HT     0.417000        1.0080           0
  112075 WT7  4550 TIP3 OH2  OT    -0.834000       15.9994           0
  112076 WT7  4550 TIP3 H1   HT     0.417000        1.0080           0
  112077 WT7  4550 TIP3 H2   HT     0.417000        1.0080           0
  112078 WT7  4551 TIP3 OH2  OT    -0.834000       15.9994           0
  112079 WT7  4551 TIP3 H1   HT     0.417000        1.0080           0
  112080 WT7  4551 TIP3 H2   HT     0.417000        1.0080           0
  112081 WT7  4552 TIP3 OH2  OT    -0.834000       15.9994           0
  112082 WT7  4552 TIP3 H1   HT     0.417000        1.0080           0
  112083 WT7  4552 TIP3 H2   HT     0.417000        1.0080           0
  112084 WT7  4553 TIP3 OH2  OT    -0.834000       15.9994           0
  112085 WT7  4553 TIP3 H1   HT     0.417000        1.0080           0
  112086 WT7  4553 TIP3 H2   HT     0.417000        1.0080           0
  112087 WT7  4557 TIP3 OH2  OT    -0.834000       15.9994           0
  112088 WT7  4557 TIP3 H1   HT     0.417000        1.0080           0
  112089 WT7  4557 TIP3 H2   HT     0.417000        1.0080           0
  112090 WT7  4558 TIP3 OH2  OT    -0.834000       15.9994           0
  112091 WT7  4558 TIP3 H1   HT     0.417000        1.0080           0
  112092 WT7  4558 TIP3 H2   HT     0.417000        1.0080           0
  112093 WT7  4559 TIP3 OH2  OT    -0.834000       15.9994           0
  112094 WT7  4559 TIP3 H1   HT     0.417000        1.0080           0
  112095 WT7  4559 TIP3 H2   HT     0.417000        1.0080           0
  112096 WT7  4560 TIP3 OH2  OT    -0.834000       15.9994           0
  112097 WT7  4560 TIP3 H1   HT     0.417000        1.0080           0
  112098 WT7  4560 TIP3 H2   HT     0.417000        1.0080           0
  112099 WT7  4561 TIP3 OH2  OT    -0.834000       15.9994           0
  112100 WT7  4561 TIP3 H1   HT     0.417000        1.0080           0
  112101 WT7  4561 TIP3 H2   HT     0.417000        1.0080           0
  112102 WT7  4562 TIP3 OH2  OT    -0.834000       15.9994           0
  112103 WT7  4562 TIP3 H1   HT     0.417000        1.0080           0
  112104 WT7  4562 TIP3 H2   HT     0.417000        1.0080           0
  112105 WT7  4563 TIP3 OH2  OT    -0.834000       15.9994           0
  112106 WT7  4563 TIP3 H1   HT     0.417000        1.0080           0
  112107 WT7  4563 TIP3 H2   HT     0.417000        1.0080           0
  112108 WT7  4564 TIP3 OH2  OT    -0.834000       15.9994           0
  112109 WT7  4564 TIP3 H1   HT     0.417000        1.0080           0
  112110 WT7  4564 TIP3 H2   HT     0.417000        1.0080           0
  112111 WT7  4565 TIP3 OH2  OT    -0.834000       15.9994           0
  112112 WT7  4565 TIP3 H1   HT     0.417000        1.0080           0
  112113 WT7  4565 TIP3 H2   HT     0.417000        1.0080           0
  112114 WT7  4566 TIP3 OH2  OT    -0.834000       15.9994           0
  112115 WT7  4566 TIP3 H1   HT     0.417000        1.0080           0
  112116 WT7  4566 TIP3 H2   HT     0.417000        1.0080           0
  112117 WT7  4567 TIP3 OH2  OT    -0.834000       15.9994           0
  112118 WT7  4567 TIP3 H1   HT     0.417000        1.0080           0
  112119 WT7  4567 TIP3 H2   HT     0.417000        1.0080           0
  112120 WT7  4568 TIP3 OH2  OT    -0.834000       15.9994           0
  112121 WT7  4568 TIP3 H1   HT     0.417000        1.0080           0
  112122 WT7  4568 TIP3 H2   HT     0.417000        1.0080           0
  112123 WT7  4569 TIP3 OH2  OT    -0.834000       15.9994           0
  112124 WT7  4569 TIP3 H1   HT     0.417000        1.0080           0
  112125 WT7  4569 TIP3 H2   HT     0.417000        1.0080           0
  112126 WT7  4570 TIP3 OH2  OT    -0.834000       15.9994           0
  112127 WT7  4570 TIP3 H1   HT     0.417000        1.0080           0
  112128 WT7  4570 TIP3 H2   HT     0.417000        1.0080           0
  112129 WT7  4571 TIP3 OH2  OT    -0.834000       15.9994           0
  112130 WT7  4571 TIP3 H1   HT     0.417000        1.0080           0
  112131 WT7  4571 TIP3 H2   HT     0.417000        1.0080           0
  112132 WT7  4572 TIP3 OH2  OT    -0.834000       15.9994           0
  112133 WT7  4572 TIP3 H1   HT     0.417000        1.0080           0
  112134 WT7  4572 TIP3 H2   HT     0.417000        1.0080           0
  112135 WT7  4573 TIP3 OH2  OT    -0.834000       15.9994           0
  112136 WT7  4573 TIP3 H1   HT     0.417000        1.0080           0
  112137 WT7  4573 TIP3 H2   HT     0.417000        1.0080           0
  112138 WT7  4574 TIP3 OH2  OT    -0.834000       15.9994           0
  112139 WT7  4574 TIP3 H1   HT     0.417000        1.0080           0
  112140 WT7  4574 TIP3 H2   HT     0.417000        1.0080           0
  112141 WT7  4576 TIP3 OH2  OT    -0.834000       15.9994           0
  112142 WT7  4576 TIP3 H1   HT     0.417000        1.0080           0
  112143 WT7  4576 TIP3 H2   HT     0.417000        1.0080           0
  112144 WT7  4578 TIP3 OH2  OT    -0.834000       15.9994           0
  112145 WT7  4578 TIP3 H1   HT     0.417000        1.0080           0
  112146 WT7  4578 TIP3 H2   HT     0.417000        1.0080           0
  112147 WT7  4580 TIP3 OH2  OT    -0.834000       15.9994           0
  112148 WT7  4580 TIP3 H1   HT     0.417000        1.0080           0
  112149 WT7  4580 TIP3 H2   HT     0.417000        1.0080           0
  112150 WT7  4581 TIP3 OH2  OT    -0.834000       15.9994           0
  112151 WT7  4581 TIP3 H1   HT     0.417000        1.0080           0
  112152 WT7  4581 TIP3 H2   HT     0.417000        1.0080           0
  112153 WT7  4582 TIP3 OH2  OT    -0.834000       15.9994           0
  112154 WT7  4582 TIP3 H1   HT     0.417000        1.0080           0
  112155 WT7  4582 TIP3 H2   HT     0.417000        1.0080           0
  112156 WT7  4585 TIP3 OH2  OT    -0.834000       15.9994           0
  112157 WT7  4585 TIP3 H1   HT     0.417000        1.0080           0
  112158 WT7  4585 TIP3 H2   HT     0.417000        1.0080           0
  112159 WT7  4587 TIP3 OH2  OT    -0.834000       15.9994           0
  112160 WT7  4587 TIP3 H1   HT     0.417000        1.0080           0
  112161 WT7  4587 TIP3 H2   HT     0.417000        1.0080           0
  112162 WT7  4588 TIP3 OH2  OT    -0.834000       15.9994           0
  112163 WT7  4588 TIP3 H1   HT     0.417000        1.0080           0
  112164 WT7  4588 TIP3 H2   HT     0.417000        1.0080           0
  112165 WT7  4590 TIP3 OH2  OT    -0.834000       15.9994           0
  112166 WT7  4590 TIP3 H1   HT     0.417000        1.0080           0
  112167 WT7  4590 TIP3 H2   HT     0.417000        1.0080           0
  112168 WT7  4591 TIP3 OH2  OT    -0.834000       15.9994           0
  112169 WT7  4591 TIP3 H1   HT     0.417000        1.0080           0
  112170 WT7  4591 TIP3 H2   HT     0.417000        1.0080           0
  112171 WT7  4592 TIP3 OH2  OT    -0.834000       15.9994           0
  112172 WT7  4592 TIP3 H1   HT     0.417000        1.0080           0
  112173 WT7  4592 TIP3 H2   HT     0.417000        1.0080           0
  112174 WT7  4593 TIP3 OH2  OT    -0.834000       15.9994           0
  112175 WT7  4593 TIP3 H1   HT     0.417000        1.0080           0
  112176 WT7  4593 TIP3 H2   HT     0.417000        1.0080           0
  112177 WT7  4595 TIP3 OH2  OT    -0.834000       15.9994           0
  112178 WT7  4595 TIP3 H1   HT     0.417000        1.0080           0
  112179 WT7  4595 TIP3 H2   HT     0.417000        1.0080           0
  112180 WT7  4596 TIP3 OH2  OT    -0.834000       15.9994           0
  112181 WT7  4596 TIP3 H1   HT     0.417000        1.0080           0
  112182 WT7  4596 TIP3 H2   HT     0.417000        1.0080           0
  112183 WT7  4600 TIP3 OH2  OT    -0.834000       15.9994           0
  112184 WT7  4600 TIP3 H1   HT     0.417000        1.0080           0
  112185 WT7  4600 TIP3 H2   HT     0.417000        1.0080           0
  112186 WT7  4602 TIP3 OH2  OT    -0.834000       15.9994           0
  112187 WT7  4602 TIP3 H1   HT     0.417000        1.0080           0
  112188 WT7  4602 TIP3 H2   HT     0.417000        1.0080           0
  112189 WT7  4605 TIP3 OH2  OT    -0.834000       15.9994           0
  112190 WT7  4605 TIP3 H1   HT     0.417000        1.0080           0
  112191 WT7  4605 TIP3 H2   HT     0.417000        1.0080           0
  112192 WT7  4606 TIP3 OH2  OT    -0.834000       15.9994           0
  112193 WT7  4606 TIP3 H1   HT     0.417000        1.0080           0
  112194 WT7  4606 TIP3 H2   HT     0.417000        1.0080           0
  112195 WT7  4607 TIP3 OH2  OT    -0.834000       15.9994           0
  112196 WT7  4607 TIP3 H1   HT     0.417000        1.0080           0
  112197 WT7  4607 TIP3 H2   HT     0.417000        1.0080           0
  112198 WT7  4608 TIP3 OH2  OT    -0.834000       15.9994           0
  112199 WT7  4608 TIP3 H1   HT     0.417000        1.0080           0
  112200 WT7  4608 TIP3 H2   HT     0.417000        1.0080           0
  112201 WT7  4610 TIP3 OH2  OT    -0.834000       15.9994           0
  112202 WT7  4610 TIP3 H1   HT     0.417000        1.0080           0
  112203 WT7  4610 TIP3 H2   HT     0.417000        1.0080           0
  112204 WT7  4611 TIP3 OH2  OT    -0.834000       15.9994           0
  112205 WT7  4611 TIP3 H1   HT     0.417000        1.0080           0
  112206 WT7  4611 TIP3 H2   HT     0.417000        1.0080           0
  112207 WT7  4612 TIP3 OH2  OT    -0.834000       15.9994           0
  112208 WT7  4612 TIP3 H1   HT     0.417000        1.0080           0
  112209 WT7  4612 TIP3 H2   HT     0.417000        1.0080           0
  112210 WT7  4614 TIP3 OH2  OT    -0.834000       15.9994           0
  112211 WT7  4614 TIP3 H1   HT     0.417000        1.0080           0
  112212 WT7  4614 TIP3 H2   HT     0.417000        1.0080           0
  112213 WT7  4615 TIP3 OH2  OT    -0.834000       15.9994           0
  112214 WT7  4615 TIP3 H1   HT     0.417000        1.0080           0
  112215 WT7  4615 TIP3 H2   HT     0.417000        1.0080           0
  112216 WT7  4617 TIP3 OH2  OT    -0.834000       15.9994           0
  112217 WT7  4617 TIP3 H1   HT     0.417000        1.0080           0
  112218 WT7  4617 TIP3 H2   HT     0.417000        1.0080           0
  112219 WT7  4619 TIP3 OH2  OT    -0.834000       15.9994           0
  112220 WT7  4619 TIP3 H1   HT     0.417000        1.0080           0
  112221 WT7  4619 TIP3 H2   HT     0.417000        1.0080           0
  112222 WT7  4620 TIP3 OH2  OT    -0.834000       15.9994           0
  112223 WT7  4620 TIP3 H1   HT     0.417000        1.0080           0
  112224 WT7  4620 TIP3 H2   HT     0.417000        1.0080           0
  112225 WT7  4621 TIP3 OH2  OT    -0.834000       15.9994           0
  112226 WT7  4621 TIP3 H1   HT     0.417000        1.0080           0
  112227 WT7  4621 TIP3 H2   HT     0.417000        1.0080           0
  112228 WT7  4622 TIP3 OH2  OT    -0.834000       15.9994           0
  112229 WT7  4622 TIP3 H1   HT     0.417000        1.0080           0
  112230 WT7  4622 TIP3 H2   HT     0.417000        1.0080           0
  112231 WT7  4623 TIP3 OH2  OT    -0.834000       15.9994           0
  112232 WT7  4623 TIP3 H1   HT     0.417000        1.0080           0
  112233 WT7  4623 TIP3 H2   HT     0.417000        1.0080           0
  112234 WT7  4624 TIP3 OH2  OT    -0.834000       15.9994           0
  112235 WT7  4624 TIP3 H1   HT     0.417000        1.0080           0
  112236 WT7  4624 TIP3 H2   HT     0.417000        1.0080           0
  112237 WT7  4625 TIP3 OH2  OT    -0.834000       15.9994           0
  112238 WT7  4625 TIP3 H1   HT     0.417000        1.0080           0
  112239 WT7  4625 TIP3 H2   HT     0.417000        1.0080           0
  112240 WT7  4626 TIP3 OH2  OT    -0.834000       15.9994           0
  112241 WT7  4626 TIP3 H1   HT     0.417000        1.0080           0
  112242 WT7  4626 TIP3 H2   HT     0.417000        1.0080           0
  112243 WT7  4627 TIP3 OH2  OT    -0.834000       15.9994           0
  112244 WT7  4627 TIP3 H1   HT     0.417000        1.0080           0
  112245 WT7  4627 TIP3 H2   HT     0.417000        1.0080           0
  112246 WT7  4628 TIP3 OH2  OT    -0.834000       15.9994           0
  112247 WT7  4628 TIP3 H1   HT     0.417000        1.0080           0
  112248 WT7  4628 TIP3 H2   HT     0.417000        1.0080           0
  112249 WT7  4630 TIP3 OH2  OT    -0.834000       15.9994           0
  112250 WT7  4630 TIP3 H1   HT     0.417000        1.0080           0
  112251 WT7  4630 TIP3 H2   HT     0.417000        1.0080           0
  112252 WT7  4631 TIP3 OH2  OT    -0.834000       15.9994           0
  112253 WT7  4631 TIP3 H1   HT     0.417000        1.0080           0
  112254 WT7  4631 TIP3 H2   HT     0.417000        1.0080           0
  112255 WT7  4632 TIP3 OH2  OT    -0.834000       15.9994           0
  112256 WT7  4632 TIP3 H1   HT     0.417000        1.0080           0
  112257 WT7  4632 TIP3 H2   HT     0.417000        1.0080           0
  112258 WT7  4633 TIP3 OH2  OT    -0.834000       15.9994           0
  112259 WT7  4633 TIP3 H1   HT     0.417000        1.0080           0
  112260 WT7  4633 TIP3 H2   HT     0.417000        1.0080           0
  112261 WT7  4634 TIP3 OH2  OT    -0.834000       15.9994           0
  112262 WT7  4634 TIP3 H1   HT     0.417000        1.0080           0
  112263 WT7  4634 TIP3 H2   HT     0.417000        1.0080           0
  112264 WT7  4636 TIP3 OH2  OT    -0.834000       15.9994           0
  112265 WT7  4636 TIP3 H1   HT     0.417000        1.0080           0
  112266 WT7  4636 TIP3 H2   HT     0.417000        1.0080           0
  112267 WT7  4640 TIP3 OH2  OT    -0.834000       15.9994           0
  112268 WT7  4640 TIP3 H1   HT     0.417000        1.0080           0
  112269 WT7  4640 TIP3 H2   HT     0.417000        1.0080           0
  112270 WT7  4641 TIP3 OH2  OT    -0.834000       15.9994           0
  112271 WT7  4641 TIP3 H1   HT     0.417000        1.0080           0
  112272 WT7  4641 TIP3 H2   HT     0.417000        1.0080           0
  112273 WT7  4644 TIP3 OH2  OT    -0.834000       15.9994           0
  112274 WT7  4644 TIP3 H1   HT     0.417000        1.0080           0
  112275 WT7  4644 TIP3 H2   HT     0.417000        1.0080           0
  112276 WT7  4645 TIP3 OH2  OT    -0.834000       15.9994           0
  112277 WT7  4645 TIP3 H1   HT     0.417000        1.0080           0
  112278 WT7  4645 TIP3 H2   HT     0.417000        1.0080           0
  112279 WT7  4646 TIP3 OH2  OT    -0.834000       15.9994           0
  112280 WT7  4646 TIP3 H1   HT     0.417000        1.0080           0
  112281 WT7  4646 TIP3 H2   HT     0.417000        1.0080           0
  112282 WT7  4647 TIP3 OH2  OT    -0.834000       15.9994           0
  112283 WT7  4647 TIP3 H1   HT     0.417000        1.0080           0
  112284 WT7  4647 TIP3 H2   HT     0.417000        1.0080           0
  112285 WT7  4648 TIP3 OH2  OT    -0.834000       15.9994           0
  112286 WT7  4648 TIP3 H1   HT     0.417000        1.0080           0
  112287 WT7  4648 TIP3 H2   HT     0.417000        1.0080           0
  112288 WT7  4649 TIP3 OH2  OT    -0.834000       15.9994           0
  112289 WT7  4649 TIP3 H1   HT     0.417000        1.0080           0
  112290 WT7  4649 TIP3 H2   HT     0.417000        1.0080           0
  112291 WT7  4650 TIP3 OH2  OT    -0.834000       15.9994           0
  112292 WT7  4650 TIP3 H1   HT     0.417000        1.0080           0
  112293 WT7  4650 TIP3 H2   HT     0.417000        1.0080           0
  112294 WT7  4651 TIP3 OH2  OT    -0.834000       15.9994           0
  112295 WT7  4651 TIP3 H1   HT     0.417000        1.0080           0
  112296 WT7  4651 TIP3 H2   HT     0.417000        1.0080           0
  112297 WT7  4652 TIP3 OH2  OT    -0.834000       15.9994           0
  112298 WT7  4652 TIP3 H1   HT     0.417000        1.0080           0
  112299 WT7  4652 TIP3 H2   HT     0.417000        1.0080           0
  112300 WT7  4653 TIP3 OH2  OT    -0.834000       15.9994           0
  112301 WT7  4653 TIP3 H1   HT     0.417000        1.0080           0
  112302 WT7  4653 TIP3 H2   HT     0.417000        1.0080           0
  112303 WT7  4654 TIP3 OH2  OT    -0.834000       15.9994           0
  112304 WT7  4654 TIP3 H1   HT     0.417000        1.0080           0
  112305 WT7  4654 TIP3 H2   HT     0.417000        1.0080           0
  112306 WT7  4655 TIP3 OH2  OT    -0.834000       15.9994           0
  112307 WT7  4655 TIP3 H1   HT     0.417000        1.0080           0
  112308 WT7  4655 TIP3 H2   HT     0.417000        1.0080           0
  112309 WT7  4656 TIP3 OH2  OT    -0.834000       15.9994           0
  112310 WT7  4656 TIP3 H1   HT     0.417000        1.0080           0
  112311 WT7  4656 TIP3 H2   HT     0.417000        1.0080           0
  112312 WT7  4657 TIP3 OH2  OT    -0.834000       15.9994           0
  112313 WT7  4657 TIP3 H1   HT     0.417000        1.0080           0
  112314 WT7  4657 TIP3 H2   HT     0.417000        1.0080           0
  112315 WT7  4663 TIP3 OH2  OT    -0.834000       15.9994           0
  112316 WT7  4663 TIP3 H1   HT     0.417000        1.0080           0
  112317 WT7  4663 TIP3 H2   HT     0.417000        1.0080           0
  112318 WT7  4665 TIP3 OH2  OT    -0.834000       15.9994           0
  112319 WT7  4665 TIP3 H1   HT     0.417000        1.0080           0
  112320 WT7  4665 TIP3 H2   HT     0.417000        1.0080           0
  112321 WT7  4666 TIP3 OH2  OT    -0.834000       15.9994           0
  112322 WT7  4666 TIP3 H1   HT     0.417000        1.0080           0
  112323 WT7  4666 TIP3 H2   HT     0.417000        1.0080           0
  112324 WT7  4667 TIP3 OH2  OT    -0.834000       15.9994           0
  112325 WT7  4667 TIP3 H1   HT     0.417000        1.0080           0
  112326 WT7  4667 TIP3 H2   HT     0.417000        1.0080           0
  112327 WT7  4668 TIP3 OH2  OT    -0.834000       15.9994           0
  112328 WT7  4668 TIP3 H1   HT     0.417000        1.0080           0
  112329 WT7  4668 TIP3 H2   HT     0.417000        1.0080           0
  112330 WT7  4669 TIP3 OH2  OT    -0.834000       15.9994           0
  112331 WT7  4669 TIP3 H1   HT     0.417000        1.0080           0
  112332 WT7  4669 TIP3 H2   HT     0.417000        1.0080           0
  112333 WT7  4670 TIP3 OH2  OT    -0.834000       15.9994           0
  112334 WT7  4670 TIP3 H1   HT     0.417000        1.0080           0
  112335 WT7  4670 TIP3 H2   HT     0.417000        1.0080           0
  112336 WT7  4671 TIP3 OH2  OT    -0.834000       15.9994           0
  112337 WT7  4671 TIP3 H1   HT     0.417000        1.0080           0
  112338 WT7  4671 TIP3 H2   HT     0.417000        1.0080           0
  112339 WT7  4672 TIP3 OH2  OT    -0.834000       15.9994           0
  112340 WT7  4672 TIP3 H1   HT     0.417000        1.0080           0
  112341 WT7  4672 TIP3 H2   HT     0.417000        1.0080           0
  112342 WT7  4674 TIP3 OH2  OT    -0.834000       15.9994           0
  112343 WT7  4674 TIP3 H1   HT     0.417000        1.0080           0
  112344 WT7  4674 TIP3 H2   HT     0.417000        1.0080           0
  112345 WT7  4676 TIP3 OH2  OT    -0.834000       15.9994           0
  112346 WT7  4676 TIP3 H1   HT     0.417000        1.0080           0
  112347 WT7  4676 TIP3 H2   HT     0.417000        1.0080           0
  112348 WT7  4677 TIP3 OH2  OT    -0.834000       15.9994           0
  112349 WT7  4677 TIP3 H1   HT     0.417000        1.0080           0
  112350 WT7  4677 TIP3 H2   HT     0.417000        1.0080           0
  112351 WT7  4679 TIP3 OH2  OT    -0.834000       15.9994           0
  112352 WT7  4679 TIP3 H1   HT     0.417000        1.0080           0
  112353 WT7  4679 TIP3 H2   HT     0.417000        1.0080           0
  112354 WT7  4682 TIP3 OH2  OT    -0.834000       15.9994           0
  112355 WT7  4682 TIP3 H1   HT     0.417000        1.0080           0
  112356 WT7  4682 TIP3 H2   HT     0.417000        1.0080           0
  112357 WT7  4685 TIP3 OH2  OT    -0.834000       15.9994           0
  112358 WT7  4685 TIP3 H1   HT     0.417000        1.0080           0
  112359 WT7  4685 TIP3 H2   HT     0.417000        1.0080           0
  112360 WT7  4687 TIP3 OH2  OT    -0.834000       15.9994           0
  112361 WT7  4687 TIP3 H1   HT     0.417000        1.0080           0
  112362 WT7  4687 TIP3 H2   HT     0.417000        1.0080           0
  112363 WT7  4689 TIP3 OH2  OT    -0.834000       15.9994           0
  112364 WT7  4689 TIP3 H1   HT     0.417000        1.0080           0
  112365 WT7  4689 TIP3 H2   HT     0.417000        1.0080           0
  112366 WT7  4691 TIP3 OH2  OT    -0.834000       15.9994           0
  112367 WT7  4691 TIP3 H1   HT     0.417000        1.0080           0
  112368 WT7  4691 TIP3 H2   HT     0.417000        1.0080           0
  112369 WT7  4692 TIP3 OH2  OT    -0.834000       15.9994           0
  112370 WT7  4692 TIP3 H1   HT     0.417000        1.0080           0
  112371 WT7  4692 TIP3 H2   HT     0.417000        1.0080           0
  112372 WT7  4695 TIP3 OH2  OT    -0.834000       15.9994           0
  112373 WT7  4695 TIP3 H1   HT     0.417000        1.0080           0
  112374 WT7  4695 TIP3 H2   HT     0.417000        1.0080           0
  112375 WT7  4696 TIP3 OH2  OT    -0.834000       15.9994           0
  112376 WT7  4696 TIP3 H1   HT     0.417000        1.0080           0
  112377 WT7  4696 TIP3 H2   HT     0.417000        1.0080           0
  112378 WT7  4698 TIP3 OH2  OT    -0.834000       15.9994           0
  112379 WT7  4698 TIP3 H1   HT     0.417000        1.0080           0
  112380 WT7  4698 TIP3 H2   HT     0.417000        1.0080           0
  112381 WT7  4699 TIP3 OH2  OT    -0.834000       15.9994           0
  112382 WT7  4699 TIP3 H1   HT     0.417000        1.0080           0
  112383 WT7  4699 TIP3 H2   HT     0.417000        1.0080           0
  112384 WT7  4703 TIP3 OH2  OT    -0.834000       15.9994           0
  112385 WT7  4703 TIP3 H1   HT     0.417000        1.0080           0
  112386 WT7  4703 TIP3 H2   HT     0.417000        1.0080           0
  112387 WT7  4706 TIP3 OH2  OT    -0.834000       15.9994           0
  112388 WT7  4706 TIP3 H1   HT     0.417000        1.0080           0
  112389 WT7  4706 TIP3 H2   HT     0.417000        1.0080           0
  112390 WT7  4710 TIP3 OH2  OT    -0.834000       15.9994           0
  112391 WT7  4710 TIP3 H1   HT     0.417000        1.0080           0
  112392 WT7  4710 TIP3 H2   HT     0.417000        1.0080           0
  112393 WT7  4712 TIP3 OH2  OT    -0.834000       15.9994           0
  112394 WT7  4712 TIP3 H1   HT     0.417000        1.0080           0
  112395 WT7  4712 TIP3 H2   HT     0.417000        1.0080           0
  112396 WT7  4713 TIP3 OH2  OT    -0.834000       15.9994           0
  112397 WT7  4713 TIP3 H1   HT     0.417000        1.0080           0
  112398 WT7  4713 TIP3 H2   HT     0.417000        1.0080           0
  112399 WT7  4715 TIP3 OH2  OT    -0.834000       15.9994           0
  112400 WT7  4715 TIP3 H1   HT     0.417000        1.0080           0
  112401 WT7  4715 TIP3 H2   HT     0.417000        1.0080           0
  112402 WT7  4719 TIP3 OH2  OT    -0.834000       15.9994           0
  112403 WT7  4719 TIP3 H1   HT     0.417000        1.0080           0
  112404 WT7  4719 TIP3 H2   HT     0.417000        1.0080           0
  112405 WT7  4720 TIP3 OH2  OT    -0.834000       15.9994           0
  112406 WT7  4720 TIP3 H1   HT     0.417000        1.0080           0
  112407 WT7  4720 TIP3 H2   HT     0.417000        1.0080           0
  112408 WT7  4723 TIP3 OH2  OT    -0.834000       15.9994           0
  112409 WT7  4723 TIP3 H1   HT     0.417000        1.0080           0
  112410 WT7  4723 TIP3 H2   HT     0.417000        1.0080           0
  112411 WT7  4725 TIP3 OH2  OT    -0.834000       15.9994           0
  112412 WT7  4725 TIP3 H1   HT     0.417000        1.0080           0
  112413 WT7  4725 TIP3 H2   HT     0.417000        1.0080           0
  112414 WT7  4726 TIP3 OH2  OT    -0.834000       15.9994           0
  112415 WT7  4726 TIP3 H1   HT     0.417000        1.0080           0
  112416 WT7  4726 TIP3 H2   HT     0.417000        1.0080           0
  112417 WT7  4732 TIP3 OH2  OT    -0.834000       15.9994           0
  112418 WT7  4732 TIP3 H1   HT     0.417000        1.0080           0
  112419 WT7  4732 TIP3 H2   HT     0.417000        1.0080           0
  112420 WT7  4735 TIP3 OH2  OT    -0.834000       15.9994           0
  112421 WT7  4735 TIP3 H1   HT     0.417000        1.0080           0
  112422 WT7  4735 TIP3 H2   HT     0.417000        1.0080           0
  112423 WT7  4739 TIP3 OH2  OT    -0.834000       15.9994           0
  112424 WT7  4739 TIP3 H1   HT     0.417000        1.0080           0
  112425 WT7  4739 TIP3 H2   HT     0.417000        1.0080           0
  112426 WT7  4750 TIP3 OH2  OT    -0.834000       15.9994           0
  112427 WT7  4750 TIP3 H1   HT     0.417000        1.0080           0
  112428 WT7  4750 TIP3 H2   HT     0.417000        1.0080           0
  112429 WT7  4751 TIP3 OH2  OT    -0.834000       15.9994           0
  112430 WT7  4751 TIP3 H1   HT     0.417000        1.0080           0
  112431 WT7  4751 TIP3 H2   HT     0.417000        1.0080           0
  112432 WT7  4765 TIP3 OH2  OT    -0.834000       15.9994           0
  112433 WT7  4765 TIP3 H1   HT     0.417000        1.0080           0
  112434 WT7  4765 TIP3 H2   HT     0.417000        1.0080           0
  112435 WT7  4778 TIP3 OH2  OT    -0.834000       15.9994           0
  112436 WT7  4778 TIP3 H1   HT     0.417000        1.0080           0
  112437 WT7  4778 TIP3 H2   HT     0.417000        1.0080           0
  112438 WT7  4787 TIP3 OH2  OT    -0.834000       15.9994           0
  112439 WT7  4787 TIP3 H1   HT     0.417000        1.0080           0
  112440 WT7  4787 TIP3 H2   HT     0.417000        1.0080           0
  112441 WT7  4791 TIP3 OH2  OT    -0.834000       15.9994           0
  112442 WT7  4791 TIP3 H1   HT     0.417000        1.0080           0
  112443 WT7  4791 TIP3 H2   HT     0.417000        1.0080           0
  112444 WT7  4797 TIP3 OH2  OT    -0.834000       15.9994           0
  112445 WT7  4797 TIP3 H1   HT     0.417000        1.0080           0
  112446 WT7  4797 TIP3 H2   HT     0.417000        1.0080           0
  112447 WT7  4798 TIP3 OH2  OT    -0.834000       15.9994           0
  112448 WT7  4798 TIP3 H1   HT     0.417000        1.0080           0
  112449 WT7  4798 TIP3 H2   HT     0.417000        1.0080           0
  112450 WT7  4800 TIP3 OH2  OT    -0.834000       15.9994           0
  112451 WT7  4800 TIP3 H1   HT     0.417000        1.0080           0
  112452 WT7  4800 TIP3 H2   HT     0.417000        1.0080           0
  112453 WT7  4801 TIP3 OH2  OT    -0.834000       15.9994           0
  112454 WT7  4801 TIP3 H1   HT     0.417000        1.0080           0
  112455 WT7  4801 TIP3 H2   HT     0.417000        1.0080           0
  112456 WT7  4808 TIP3 OH2  OT    -0.834000       15.9994           0
  112457 WT7  4808 TIP3 H1   HT     0.417000        1.0080           0
  112458 WT7  4808 TIP3 H2   HT     0.417000        1.0080           0
  112459 WT7  4809 TIP3 OH2  OT    -0.834000       15.9994           0
  112460 WT7  4809 TIP3 H1   HT     0.417000        1.0080           0
  112461 WT7  4809 TIP3 H2   HT     0.417000        1.0080           0
  112462 WT7  4814 TIP3 OH2  OT    -0.834000       15.9994           0
  112463 WT7  4814 TIP3 H1   HT     0.417000        1.0080           0
  112464 WT7  4814 TIP3 H2   HT     0.417000        1.0080           0
  112465 WT7  4815 TIP3 OH2  OT    -0.834000       15.9994           0
  112466 WT7  4815 TIP3 H1   HT     0.417000        1.0080           0
  112467 WT7  4815 TIP3 H2   HT     0.417000        1.0080           0
  112468 WT7  4820 TIP3 OH2  OT    -0.834000       15.9994           0
  112469 WT7  4820 TIP3 H1   HT     0.417000        1.0080           0
  112470 WT7  4820 TIP3 H2   HT     0.417000        1.0080           0
  112471 WT7  4821 TIP3 OH2  OT    -0.834000       15.9994           0
  112472 WT7  4821 TIP3 H1   HT     0.417000        1.0080           0
  112473 WT7  4821 TIP3 H2   HT     0.417000        1.0080           0
  112474 WT7  4822 TIP3 OH2  OT    -0.834000       15.9994           0
  112475 WT7  4822 TIP3 H1   HT     0.417000        1.0080           0
  112476 WT7  4822 TIP3 H2   HT     0.417000        1.0080           0
  112477 WT7  4834 TIP3 OH2  OT    -0.834000       15.9994           0
  112478 WT7  4834 TIP3 H1   HT     0.417000        1.0080           0
  112479 WT7  4834 TIP3 H2   HT     0.417000        1.0080           0
  112480 WT7  4835 TIP3 OH2  OT    -0.834000       15.9994           0
  112481 WT7  4835 TIP3 H1   HT     0.417000        1.0080           0
  112482 WT7  4835 TIP3 H2   HT     0.417000        1.0080           0
  112483 WT7  4836 TIP3 OH2  OT    -0.834000       15.9994           0
  112484 WT7  4836 TIP3 H1   HT     0.417000        1.0080           0
  112485 WT7  4836 TIP3 H2   HT     0.417000        1.0080           0
  112486 WT7  4837 TIP3 OH2  OT    -0.834000       15.9994           0
  112487 WT7  4837 TIP3 H1   HT     0.417000        1.0080           0
  112488 WT7  4837 TIP3 H2   HT     0.417000        1.0080           0
  112489 WT7  4844 TIP3 OH2  OT    -0.834000       15.9994           0
  112490 WT7  4844 TIP3 H1   HT     0.417000        1.0080           0
  112491 WT7  4844 TIP3 H2   HT     0.417000        1.0080           0
  112492 WT7  4845 TIP3 OH2  OT    -0.834000       15.9994           0
  112493 WT7  4845 TIP3 H1   HT     0.417000        1.0080           0
  112494 WT7  4845 TIP3 H2   HT     0.417000        1.0080           0
  112495 WT7  4849 TIP3 OH2  OT    -0.834000       15.9994           0
  112496 WT7  4849 TIP3 H1   HT     0.417000        1.0080           0
  112497 WT7  4849 TIP3 H2   HT     0.417000        1.0080           0
  112498 WT7  4851 TIP3 OH2  OT    -0.834000       15.9994           0
  112499 WT7  4851 TIP3 H1   HT     0.417000        1.0080           0
  112500 WT7  4851 TIP3 H2   HT     0.417000        1.0080           0
  112501 WT7  4853 TIP3 OH2  OT    -0.834000       15.9994           0
  112502 WT7  4853 TIP3 H1   HT     0.417000        1.0080           0
  112503 WT7  4853 TIP3 H2   HT     0.417000        1.0080           0
  112504 WT7  4855 TIP3 OH2  OT    -0.834000       15.9994           0
  112505 WT7  4855 TIP3 H1   HT     0.417000        1.0080           0
  112506 WT7  4855 TIP3 H2   HT     0.417000        1.0080           0
  112507 WT7  4856 TIP3 OH2  OT    -0.834000       15.9994           0
  112508 WT7  4856 TIP3 H1   HT     0.417000        1.0080           0
  112509 WT7  4856 TIP3 H2   HT     0.417000        1.0080           0
  112510 WT7  4857 TIP3 OH2  OT    -0.834000       15.9994           0
  112511 WT7  4857 TIP3 H1   HT     0.417000        1.0080           0
  112512 WT7  4857 TIP3 H2   HT     0.417000        1.0080           0
  112513 WT7  4861 TIP3 OH2  OT    -0.834000       15.9994           0
  112514 WT7  4861 TIP3 H1   HT     0.417000        1.0080           0
  112515 WT7  4861 TIP3 H2   HT     0.417000        1.0080           0
  112516 WT7  4863 TIP3 OH2  OT    -0.834000       15.9994           0
  112517 WT7  4863 TIP3 H1   HT     0.417000        1.0080           0
  112518 WT7  4863 TIP3 H2   HT     0.417000        1.0080           0
  112519 WT7  4864 TIP3 OH2  OT    -0.834000       15.9994           0
  112520 WT7  4864 TIP3 H1   HT     0.417000        1.0080           0
  112521 WT7  4864 TIP3 H2   HT     0.417000        1.0080           0
  112522 WT7  4866 TIP3 OH2  OT    -0.834000       15.9994           0
  112523 WT7  4866 TIP3 H1   HT     0.417000        1.0080           0
  112524 WT7  4866 TIP3 H2   HT     0.417000        1.0080           0
  112525 WT7  4872 TIP3 OH2  OT    -0.834000       15.9994           0
  112526 WT7  4872 TIP3 H1   HT     0.417000        1.0080           0
  112527 WT7  4872 TIP3 H2   HT     0.417000        1.0080           0
  112528 WT7  4873 TIP3 OH2  OT    -0.834000       15.9994           0
  112529 WT7  4873 TIP3 H1   HT     0.417000        1.0080           0
  112530 WT7  4873 TIP3 H2   HT     0.417000        1.0080           0
  112531 WT7  4875 TIP3 OH2  OT    -0.834000       15.9994           0
  112532 WT7  4875 TIP3 H1   HT     0.417000        1.0080           0
  112533 WT7  4875 TIP3 H2   HT     0.417000        1.0080           0
  112534 WT7  4880 TIP3 OH2  OT    -0.834000       15.9994           0
  112535 WT7  4880 TIP3 H1   HT     0.417000        1.0080           0
  112536 WT7  4880 TIP3 H2   HT     0.417000        1.0080           0
  112537 WT7  4881 TIP3 OH2  OT    -0.834000       15.9994           0
  112538 WT7  4881 TIP3 H1   HT     0.417000        1.0080           0
  112539 WT7  4881 TIP3 H2   HT     0.417000        1.0080           0
  112540 WT7  4882 TIP3 OH2  OT    -0.834000       15.9994           0
  112541 WT7  4882 TIP3 H1   HT     0.417000        1.0080           0
  112542 WT7  4882 TIP3 H2   HT     0.417000        1.0080           0
  112543 WT7  4884 TIP3 OH2  OT    -0.834000       15.9994           0
  112544 WT7  4884 TIP3 H1   HT     0.417000        1.0080           0
  112545 WT7  4884 TIP3 H2   HT     0.417000        1.0080           0
  112546 WT7  4887 TIP3 OH2  OT    -0.834000       15.9994           0
  112547 WT7  4887 TIP3 H1   HT     0.417000        1.0080           0
  112548 WT7  4887 TIP3 H2   HT     0.417000        1.0080           0
  112549 WT7  4893 TIP3 OH2  OT    -0.834000       15.9994           0
  112550 WT7  4893 TIP3 H1   HT     0.417000        1.0080           0
  112551 WT7  4893 TIP3 H2   HT     0.417000        1.0080           0
  112552 WT7  4895 TIP3 OH2  OT    -0.834000       15.9994           0
  112553 WT7  4895 TIP3 H1   HT     0.417000        1.0080           0
  112554 WT7  4895 TIP3 H2   HT     0.417000        1.0080           0
  112555 WT7  4896 TIP3 OH2  OT    -0.834000       15.9994           0
  112556 WT7  4896 TIP3 H1   HT     0.417000        1.0080           0
  112557 WT7  4896 TIP3 H2   HT     0.417000        1.0080           0
  112558 WT7  4897 TIP3 OH2  OT    -0.834000       15.9994           0
  112559 WT7  4897 TIP3 H1   HT     0.417000        1.0080           0
  112560 WT7  4897 TIP3 H2   HT     0.417000        1.0080           0
  112561 WT7  4899 TIP3 OH2  OT    -0.834000       15.9994           0
  112562 WT7  4899 TIP3 H1   HT     0.417000        1.0080           0
  112563 WT7  4899 TIP3 H2   HT     0.417000        1.0080           0
  112564 WT7  4901 TIP3 OH2  OT    -0.834000       15.9994           0
  112565 WT7  4901 TIP3 H1   HT     0.417000        1.0080           0
  112566 WT7  4901 TIP3 H2   HT     0.417000        1.0080           0
  112567 WT7  4902 TIP3 OH2  OT    -0.834000       15.9994           0
  112568 WT7  4902 TIP3 H1   HT     0.417000        1.0080           0
  112569 WT7  4902 TIP3 H2   HT     0.417000        1.0080           0
  112570 WT7  4903 TIP3 OH2  OT    -0.834000       15.9994           0
  112571 WT7  4903 TIP3 H1   HT     0.417000        1.0080           0
  112572 WT7  4903 TIP3 H2   HT     0.417000        1.0080           0
  112573 WT7  4905 TIP3 OH2  OT    -0.834000       15.9994           0
  112574 WT7  4905 TIP3 H1   HT     0.417000        1.0080           0
  112575 WT7  4905 TIP3 H2   HT     0.417000        1.0080           0
  112576 WT7  4908 TIP3 OH2  OT    -0.834000       15.9994           0
  112577 WT7  4908 TIP3 H1   HT     0.417000        1.0080           0
  112578 WT7  4908 TIP3 H2   HT     0.417000        1.0080           0
  112579 WT7  4909 TIP3 OH2  OT    -0.834000       15.9994           0
  112580 WT7  4909 TIP3 H1   HT     0.417000        1.0080           0
  112581 WT7  4909 TIP3 H2   HT     0.417000        1.0080           0
  112582 WT7  4911 TIP3 OH2  OT    -0.834000       15.9994           0
  112583 WT7  4911 TIP3 H1   HT     0.417000        1.0080           0
  112584 WT7  4911 TIP3 H2   HT     0.417000        1.0080           0
  112585 WT7  4912 TIP3 OH2  OT    -0.834000       15.9994           0
  112586 WT7  4912 TIP3 H1   HT     0.417000        1.0080           0
  112587 WT7  4912 TIP3 H2   HT     0.417000        1.0080           0
  112588 WT7  4914 TIP3 OH2  OT    -0.834000       15.9994           0
  112589 WT7  4914 TIP3 H1   HT     0.417000        1.0080           0
  112590 WT7  4914 TIP3 H2   HT     0.417000        1.0080           0
  112591 WT7  4915 TIP3 OH2  OT    -0.834000       15.9994           0
  112592 WT7  4915 TIP3 H1   HT     0.417000        1.0080           0
  112593 WT7  4915 TIP3 H2   HT     0.417000        1.0080           0
  112594 WT7  4917 TIP3 OH2  OT    -0.834000       15.9994           0
  112595 WT7  4917 TIP3 H1   HT     0.417000        1.0080           0
  112596 WT7  4917 TIP3 H2   HT     0.417000        1.0080           0
  112597 WT7  4919 TIP3 OH2  OT    -0.834000       15.9994           0
  112598 WT7  4919 TIP3 H1   HT     0.417000        1.0080           0
  112599 WT7  4919 TIP3 H2   HT     0.417000        1.0080           0
  112600 WT7  4920 TIP3 OH2  OT    -0.834000       15.9994           0
  112601 WT7  4920 TIP3 H1   HT     0.417000        1.0080           0
  112602 WT7  4920 TIP3 H2   HT     0.417000        1.0080           0
  112603 WT7  4922 TIP3 OH2  OT    -0.834000       15.9994           0
  112604 WT7  4922 TIP3 H1   HT     0.417000        1.0080           0
  112605 WT7  4922 TIP3 H2   HT     0.417000        1.0080           0
  112606 WT7  4924 TIP3 OH2  OT    -0.834000       15.9994           0
  112607 WT7  4924 TIP3 H1   HT     0.417000        1.0080           0
  112608 WT7  4924 TIP3 H2   HT     0.417000        1.0080           0
  112609 WT7  4925 TIP3 OH2  OT    -0.834000       15.9994           0
  112610 WT7  4925 TIP3 H1   HT     0.417000        1.0080           0
  112611 WT7  4925 TIP3 H2   HT     0.417000        1.0080           0
  112612 WT7  4926 TIP3 OH2  OT    -0.834000       15.9994           0
  112613 WT7  4926 TIP3 H1   HT     0.417000        1.0080           0
  112614 WT7  4926 TIP3 H2   HT     0.417000        1.0080           0
  112615 WT7  4927 TIP3 OH2  OT    -0.834000       15.9994           0
  112616 WT7  4927 TIP3 H1   HT     0.417000        1.0080           0
  112617 WT7  4927 TIP3 H2   HT     0.417000        1.0080           0
  112618 WT7  4929 TIP3 OH2  OT    -0.834000       15.9994           0
  112619 WT7  4929 TIP3 H1   HT     0.417000        1.0080           0
  112620 WT7  4929 TIP3 H2   HT     0.417000        1.0080           0
  112621 WT7  4932 TIP3 OH2  OT    -0.834000       15.9994           0
  112622 WT7  4932 TIP3 H1   HT     0.417000        1.0080           0
  112623 WT7  4932 TIP3 H2   HT     0.417000        1.0080           0
  112624 WT7  4933 TIP3 OH2  OT    -0.834000       15.9994           0
  112625 WT7  4933 TIP3 H1   HT     0.417000        1.0080           0
  112626 WT7  4933 TIP3 H2   HT     0.417000        1.0080           0
  112627 WT7  4936 TIP3 OH2  OT    -0.834000       15.9994           0
  112628 WT7  4936 TIP3 H1   HT     0.417000        1.0080           0
  112629 WT7  4936 TIP3 H2   HT     0.417000        1.0080           0
  112630 WT7  4937 TIP3 OH2  OT    -0.834000       15.9994           0
  112631 WT7  4937 TIP3 H1   HT     0.417000        1.0080           0
  112632 WT7  4937 TIP3 H2   HT     0.417000        1.0080           0
  112633 WT7  4941 TIP3 OH2  OT    -0.834000       15.9994           0
  112634 WT7  4941 TIP3 H1   HT     0.417000        1.0080           0
  112635 WT7  4941 TIP3 H2   HT     0.417000        1.0080           0
  112636 WT7  4942 TIP3 OH2  OT    -0.834000       15.9994           0
  112637 WT7  4942 TIP3 H1   HT     0.417000        1.0080           0
  112638 WT7  4942 TIP3 H2   HT     0.417000        1.0080           0
  112639 WT7  4943 TIP3 OH2  OT    -0.834000       15.9994           0
  112640 WT7  4943 TIP3 H1   HT     0.417000        1.0080           0
  112641 WT7  4943 TIP3 H2   HT     0.417000        1.0080           0
  112642 WT7  4944 TIP3 OH2  OT    -0.834000       15.9994           0
  112643 WT7  4944 TIP3 H1   HT     0.417000        1.0080           0
  112644 WT7  4944 TIP3 H2   HT     0.417000        1.0080           0
  112645 WT7  4945 TIP3 OH2  OT    -0.834000       15.9994           0
  112646 WT7  4945 TIP3 H1   HT     0.417000        1.0080           0
  112647 WT7  4945 TIP3 H2   HT     0.417000        1.0080           0
  112648 WT7  4946 TIP3 OH2  OT    -0.834000       15.9994           0
  112649 WT7  4946 TIP3 H1   HT     0.417000        1.0080           0
  112650 WT7  4946 TIP3 H2   HT     0.417000        1.0080           0
  112651 WT7  4947 TIP3 OH2  OT    -0.834000       15.9994           0
  112652 WT7  4947 TIP3 H1   HT     0.417000        1.0080           0
  112653 WT7  4947 TIP3 H2   HT     0.417000        1.0080           0
  112654 WT7  4948 TIP3 OH2  OT    -0.834000       15.9994           0
  112655 WT7  4948 TIP3 H1   HT     0.417000        1.0080           0
  112656 WT7  4948 TIP3 H2   HT     0.417000        1.0080           0
  112657 WT7  4949 TIP3 OH2  OT    -0.834000       15.9994           0
  112658 WT7  4949 TIP3 H1   HT     0.417000        1.0080           0
  112659 WT7  4949 TIP3 H2   HT     0.417000        1.0080           0
  112660 WT7  4950 TIP3 OH2  OT    -0.834000       15.9994           0
  112661 WT7  4950 TIP3 H1   HT     0.417000        1.0080           0
  112662 WT7  4950 TIP3 H2   HT     0.417000        1.0080           0
  112663 WT7  4951 TIP3 OH2  OT    -0.834000       15.9994           0
  112664 WT7  4951 TIP3 H1   HT     0.417000        1.0080           0
  112665 WT7  4951 TIP3 H2   HT     0.417000        1.0080           0
  112666 WT7  4954 TIP3 OH2  OT    -0.834000       15.9994           0
  112667 WT7  4954 TIP3 H1   HT     0.417000        1.0080           0
  112668 WT7  4954 TIP3 H2   HT     0.417000        1.0080           0
  112669 WT7  4955 TIP3 OH2  OT    -0.834000       15.9994           0
  112670 WT7  4955 TIP3 H1   HT     0.417000        1.0080           0
  112671 WT7  4955 TIP3 H2   HT     0.417000        1.0080           0
  112672 WT7  4957 TIP3 OH2  OT    -0.834000       15.9994           0
  112673 WT7  4957 TIP3 H1   HT     0.417000        1.0080           0
  112674 WT7  4957 TIP3 H2   HT     0.417000        1.0080           0
  112675 WT7  4958 TIP3 OH2  OT    -0.834000       15.9994           0
  112676 WT7  4958 TIP3 H1   HT     0.417000        1.0080           0
  112677 WT7  4958 TIP3 H2   HT     0.417000        1.0080           0
  112678 WT7  4960 TIP3 OH2  OT    -0.834000       15.9994           0
  112679 WT7  4960 TIP3 H1   HT     0.417000        1.0080           0
  112680 WT7  4960 TIP3 H2   HT     0.417000        1.0080           0
  112681 WT7  4961 TIP3 OH2  OT    -0.834000       15.9994           0
  112682 WT7  4961 TIP3 H1   HT     0.417000        1.0080           0
  112683 WT7  4961 TIP3 H2   HT     0.417000        1.0080           0
  112684 WT7  4963 TIP3 OH2  OT    -0.834000       15.9994           0
  112685 WT7  4963 TIP3 H1   HT     0.417000        1.0080           0
  112686 WT7  4963 TIP3 H2   HT     0.417000        1.0080           0
  112687 WT7  4964 TIP3 OH2  OT    -0.834000       15.9994           0
  112688 WT7  4964 TIP3 H1   HT     0.417000        1.0080           0
  112689 WT7  4964 TIP3 H2   HT     0.417000        1.0080           0
  112690 WT7  4965 TIP3 OH2  OT    -0.834000       15.9994           0
  112691 WT7  4965 TIP3 H1   HT     0.417000        1.0080           0
  112692 WT7  4965 TIP3 H2   HT     0.417000        1.0080           0
  112693 WT7  4966 TIP3 OH2  OT    -0.834000       15.9994           0
  112694 WT7  4966 TIP3 H1   HT     0.417000        1.0080           0
  112695 WT7  4966 TIP3 H2   HT     0.417000        1.0080           0
  112696 WT7  4969 TIP3 OH2  OT    -0.834000       15.9994           0
  112697 WT7  4969 TIP3 H1   HT     0.417000        1.0080           0
  112698 WT7  4969 TIP3 H2   HT     0.417000        1.0080           0
  112699 WT7  4971 TIP3 OH2  OT    -0.834000       15.9994           0
  112700 WT7  4971 TIP3 H1   HT     0.417000        1.0080           0
  112701 WT7  4971 TIP3 H2   HT     0.417000        1.0080           0
  112702 WT7  4972 TIP3 OH2  OT    -0.834000       15.9994           0
  112703 WT7  4972 TIP3 H1   HT     0.417000        1.0080           0
  112704 WT7  4972 TIP3 H2   HT     0.417000        1.0080           0
  112705 WT7  4973 TIP3 OH2  OT    -0.834000       15.9994           0
  112706 WT7  4973 TIP3 H1   HT     0.417000        1.0080           0
  112707 WT7  4973 TIP3 H2   HT     0.417000        1.0080           0
  112708 WT7  4975 TIP3 OH2  OT    -0.834000       15.9994           0
  112709 WT7  4975 TIP3 H1   HT     0.417000        1.0080           0
  112710 WT7  4975 TIP3 H2   HT     0.417000        1.0080           0
  112711 WT7  4976 TIP3 OH2  OT    -0.834000       15.9994           0
  112712 WT7  4976 TIP3 H1   HT     0.417000        1.0080           0
  112713 WT7  4976 TIP3 H2   HT     0.417000        1.0080           0
  112714 WT7  4977 TIP3 OH2  OT    -0.834000       15.9994           0
  112715 WT7  4977 TIP3 H1   HT     0.417000        1.0080           0
  112716 WT7  4977 TIP3 H2   HT     0.417000        1.0080           0
  112717 WT7  4978 TIP3 OH2  OT    -0.834000       15.9994           0
  112718 WT7  4978 TIP3 H1   HT     0.417000        1.0080           0
  112719 WT7  4978 TIP3 H2   HT     0.417000        1.0080           0
  112720 WT7  4979 TIP3 OH2  OT    -0.834000       15.9994           0
  112721 WT7  4979 TIP3 H1   HT     0.417000        1.0080           0
  112722 WT7  4979 TIP3 H2   HT     0.417000        1.0080           0
  112723 WT7  4980 TIP3 OH2  OT    -0.834000       15.9994           0
  112724 WT7  4980 TIP3 H1   HT     0.417000        1.0080           0
  112725 WT7  4980 TIP3 H2   HT     0.417000        1.0080           0
  112726 WT7  4981 TIP3 OH2  OT    -0.834000       15.9994           0
  112727 WT7  4981 TIP3 H1   HT     0.417000        1.0080           0
  112728 WT7  4981 TIP3 H2   HT     0.417000        1.0080           0
  112729 WT7  4982 TIP3 OH2  OT    -0.834000       15.9994           0
  112730 WT7  4982 TIP3 H1   HT     0.417000        1.0080           0
  112731 WT7  4982 TIP3 H2   HT     0.417000        1.0080           0
  112732 WT7  4983 TIP3 OH2  OT    -0.834000       15.9994           0
  112733 WT7  4983 TIP3 H1   HT     0.417000        1.0080           0
  112734 WT7  4983 TIP3 H2   HT     0.417000        1.0080           0
  112735 WT7  4985 TIP3 OH2  OT    -0.834000       15.9994           0
  112736 WT7  4985 TIP3 H1   HT     0.417000        1.0080           0
  112737 WT7  4985 TIP3 H2   HT     0.417000        1.0080           0
  112738 WT7  4986 TIP3 OH2  OT    -0.834000       15.9994           0
  112739 WT7  4986 TIP3 H1   HT     0.417000        1.0080           0
  112740 WT7  4986 TIP3 H2   HT     0.417000        1.0080           0
  112741 WT7  4987 TIP3 OH2  OT    -0.834000       15.9994           0
  112742 WT7  4987 TIP3 H1   HT     0.417000        1.0080           0
  112743 WT7  4987 TIP3 H2   HT     0.417000        1.0080           0
  112744 WT7  4988 TIP3 OH2  OT    -0.834000       15.9994           0
  112745 WT7  4988 TIP3 H1   HT     0.417000        1.0080           0
  112746 WT7  4988 TIP3 H2   HT     0.417000        1.0080           0
  112747 WT7  4989 TIP3 OH2  OT    -0.834000       15.9994           0
  112748 WT7  4989 TIP3 H1   HT     0.417000        1.0080           0
  112749 WT7  4989 TIP3 H2   HT     0.417000        1.0080           0
  112750 WT7  4991 TIP3 OH2  OT    -0.834000       15.9994           0
  112751 WT7  4991 TIP3 H1   HT     0.417000        1.0080           0
  112752 WT7  4991 TIP3 H2   HT     0.417000        1.0080           0
  112753 WT7  4992 TIP3 OH2  OT    -0.834000       15.9994           0
  112754 WT7  4992 TIP3 H1   HT     0.417000        1.0080           0
  112755 WT7  4992 TIP3 H2   HT     0.417000        1.0080           0
  112756 WT7  4993 TIP3 OH2  OT    -0.834000       15.9994           0
  112757 WT7  4993 TIP3 H1   HT     0.417000        1.0080           0
  112758 WT7  4993 TIP3 H2   HT     0.417000        1.0080           0
  112759 WT7  4994 TIP3 OH2  OT    -0.834000       15.9994           0
  112760 WT7  4994 TIP3 H1   HT     0.417000        1.0080           0
  112761 WT7  4994 TIP3 H2   HT     0.417000        1.0080           0
  112762 WT7  4995 TIP3 OH2  OT    -0.834000       15.9994           0
  112763 WT7  4995 TIP3 H1   HT     0.417000        1.0080           0
  112764 WT7  4995 TIP3 H2   HT     0.417000        1.0080           0
  112765 WT7  4996 TIP3 OH2  OT    -0.834000       15.9994           0
  112766 WT7  4996 TIP3 H1   HT     0.417000        1.0080           0
  112767 WT7  4996 TIP3 H2   HT     0.417000        1.0080           0
  112768 WT7  4998 TIP3 OH2  OT    -0.834000       15.9994           0
  112769 WT7  4998 TIP3 H1   HT     0.417000        1.0080           0
  112770 WT7  4998 TIP3 H2   HT     0.417000        1.0080           0
  112771 WT7  4999 TIP3 OH2  OT    -0.834000       15.9994           0
  112772 WT7  4999 TIP3 H1   HT     0.417000        1.0080           0
  112773 WT7  4999 TIP3 H2   HT     0.417000        1.0080           0
  112774 WT7  5000 TIP3 OH2  OT    -0.834000       15.9994           0
  112775 WT7  5000 TIP3 H1   HT     0.417000        1.0080           0
  112776 WT7  5000 TIP3 H2   HT     0.417000        1.0080           0
  112777 WT7  5001 TIP3 OH2  OT    -0.834000       15.9994           0
  112778 WT7  5001 TIP3 H1   HT     0.417000        1.0080           0
  112779 WT7  5001 TIP3 H2   HT     0.417000        1.0080           0
  112780 WT7  5002 TIP3 OH2  OT    -0.834000       15.9994           0
  112781 WT7  5002 TIP3 H1   HT     0.417000        1.0080           0
  112782 WT7  5002 TIP3 H2   HT     0.417000        1.0080           0
  112783 WT7  5003 TIP3 OH2  OT    -0.834000       15.9994           0
  112784 WT7  5003 TIP3 H1   HT     0.417000        1.0080           0
  112785 WT7  5003 TIP3 H2   HT     0.417000        1.0080           0
  112786 WT7  5005 TIP3 OH2  OT    -0.834000       15.9994           0
  112787 WT7  5005 TIP3 H1   HT     0.417000        1.0080           0
  112788 WT7  5005 TIP3 H2   HT     0.417000        1.0080           0
  112789 WT7  5006 TIP3 OH2  OT    -0.834000       15.9994           0
  112790 WT7  5006 TIP3 H1   HT     0.417000        1.0080           0
  112791 WT7  5006 TIP3 H2   HT     0.417000        1.0080           0
  112792 WT7  5007 TIP3 OH2  OT    -0.834000       15.9994           0
  112793 WT7  5007 TIP3 H1   HT     0.417000        1.0080           0
  112794 WT7  5007 TIP3 H2   HT     0.417000        1.0080           0
  112795 WT7  5009 TIP3 OH2  OT    -0.834000       15.9994           0
  112796 WT7  5009 TIP3 H1   HT     0.417000        1.0080           0
  112797 WT7  5009 TIP3 H2   HT     0.417000        1.0080           0
  112798 WT7  5010 TIP3 OH2  OT    -0.834000       15.9994           0
  112799 WT7  5010 TIP3 H1   HT     0.417000        1.0080           0
  112800 WT7  5010 TIP3 H2   HT     0.417000        1.0080           0
  112801 WT7  5012 TIP3 OH2  OT    -0.834000       15.9994           0
  112802 WT7  5012 TIP3 H1   HT     0.417000        1.0080           0
  112803 WT7  5012 TIP3 H2   HT     0.417000        1.0080           0
  112804 WT7  5013 TIP3 OH2  OT    -0.834000       15.9994           0
  112805 WT7  5013 TIP3 H1   HT     0.417000        1.0080           0
  112806 WT7  5013 TIP3 H2   HT     0.417000        1.0080           0
  112807 WT7  5014 TIP3 OH2  OT    -0.834000       15.9994           0
  112808 WT7  5014 TIP3 H1   HT     0.417000        1.0080           0
  112809 WT7  5014 TIP3 H2   HT     0.417000        1.0080           0
  112810 WT7  5015 TIP3 OH2  OT    -0.834000       15.9994           0
  112811 WT7  5015 TIP3 H1   HT     0.417000        1.0080           0
  112812 WT7  5015 TIP3 H2   HT     0.417000        1.0080           0
  112813 WT7  5016 TIP3 OH2  OT    -0.834000       15.9994           0
  112814 WT7  5016 TIP3 H1   HT     0.417000        1.0080           0
  112815 WT7  5016 TIP3 H2   HT     0.417000        1.0080           0
  112816 WT7  5017 TIP3 OH2  OT    -0.834000       15.9994           0
  112817 WT7  5017 TIP3 H1   HT     0.417000        1.0080           0
  112818 WT7  5017 TIP3 H2   HT     0.417000        1.0080           0
  112819 WT7  5020 TIP3 OH2  OT    -0.834000       15.9994           0
  112820 WT7  5020 TIP3 H1   HT     0.417000        1.0080           0
  112821 WT7  5020 TIP3 H2   HT     0.417000        1.0080           0
  112822 WT7  5021 TIP3 OH2  OT    -0.834000       15.9994           0
  112823 WT7  5021 TIP3 H1   HT     0.417000        1.0080           0
  112824 WT7  5021 TIP3 H2   HT     0.417000        1.0080           0
  112825 WT7  5022 TIP3 OH2  OT    -0.834000       15.9994           0
  112826 WT7  5022 TIP3 H1   HT     0.417000        1.0080           0
  112827 WT7  5022 TIP3 H2   HT     0.417000        1.0080           0
  112828 WT7  5023 TIP3 OH2  OT    -0.834000       15.9994           0
  112829 WT7  5023 TIP3 H1   HT     0.417000        1.0080           0
  112830 WT7  5023 TIP3 H2   HT     0.417000        1.0080           0
  112831 WT7  5024 TIP3 OH2  OT    -0.834000       15.9994           0
  112832 WT7  5024 TIP3 H1   HT     0.417000        1.0080           0
  112833 WT7  5024 TIP3 H2   HT     0.417000        1.0080           0
  112834 WT7  5025 TIP3 OH2  OT    -0.834000       15.9994           0
  112835 WT7  5025 TIP3 H1   HT     0.417000        1.0080           0
  112836 WT7  5025 TIP3 H2   HT     0.417000        1.0080           0
  112837 WT7  5026 TIP3 OH2  OT    -0.834000       15.9994           0
  112838 WT7  5026 TIP3 H1   HT     0.417000        1.0080           0
  112839 WT7  5026 TIP3 H2   HT     0.417000        1.0080           0
  112840 WT7  5027 TIP3 OH2  OT    -0.834000       15.9994           0
  112841 WT7  5027 TIP3 H1   HT     0.417000        1.0080           0
  112842 WT7  5027 TIP3 H2   HT     0.417000        1.0080           0
  112843 WT7  5028 TIP3 OH2  OT    -0.834000       15.9994           0
  112844 WT7  5028 TIP3 H1   HT     0.417000        1.0080           0
  112845 WT7  5028 TIP3 H2   HT     0.417000        1.0080           0
  112846 WT7  5029 TIP3 OH2  OT    -0.834000       15.9994           0
  112847 WT7  5029 TIP3 H1   HT     0.417000        1.0080           0
  112848 WT7  5029 TIP3 H2   HT     0.417000        1.0080           0
  112849 WT7  5032 TIP3 OH2  OT    -0.834000       15.9994           0
  112850 WT7  5032 TIP3 H1   HT     0.417000        1.0080           0
  112851 WT7  5032 TIP3 H2   HT     0.417000        1.0080           0
  112852 WT7  5033 TIP3 OH2  OT    -0.834000       15.9994           0
  112853 WT7  5033 TIP3 H1   HT     0.417000        1.0080           0
  112854 WT7  5033 TIP3 H2   HT     0.417000        1.0080           0
  112855 WT7  5034 TIP3 OH2  OT    -0.834000       15.9994           0
  112856 WT7  5034 TIP3 H1   HT     0.417000        1.0080           0
  112857 WT7  5034 TIP3 H2   HT     0.417000        1.0080           0
  112858 WT7  5036 TIP3 OH2  OT    -0.834000       15.9994           0
  112859 WT7  5036 TIP3 H1   HT     0.417000        1.0080           0
  112860 WT7  5036 TIP3 H2   HT     0.417000        1.0080           0
  112861 WT7  5039 TIP3 OH2  OT    -0.834000       15.9994           0
  112862 WT7  5039 TIP3 H1   HT     0.417000        1.0080           0
  112863 WT7  5039 TIP3 H2   HT     0.417000        1.0080           0
  112864 WT7  5041 TIP3 OH2  OT    -0.834000       15.9994           0
  112865 WT7  5041 TIP3 H1   HT     0.417000        1.0080           0
  112866 WT7  5041 TIP3 H2   HT     0.417000        1.0080           0
  112867 WT7  5042 TIP3 OH2  OT    -0.834000       15.9994           0
  112868 WT7  5042 TIP3 H1   HT     0.417000        1.0080           0
  112869 WT7  5042 TIP3 H2   HT     0.417000        1.0080           0
  112870 WT7  5043 TIP3 OH2  OT    -0.834000       15.9994           0
  112871 WT7  5043 TIP3 H1   HT     0.417000        1.0080           0
  112872 WT7  5043 TIP3 H2   HT     0.417000        1.0080           0
  112873 WT7  5044 TIP3 OH2  OT    -0.834000       15.9994           0
  112874 WT7  5044 TIP3 H1   HT     0.417000        1.0080           0
  112875 WT7  5044 TIP3 H2   HT     0.417000        1.0080           0
  112876 WT7  5046 TIP3 OH2  OT    -0.834000       15.9994           0
  112877 WT7  5046 TIP3 H1   HT     0.417000        1.0080           0
  112878 WT7  5046 TIP3 H2   HT     0.417000        1.0080           0
  112879 WT7  5047 TIP3 OH2  OT    -0.834000       15.9994           0
  112880 WT7  5047 TIP3 H1   HT     0.417000        1.0080           0
  112881 WT7  5047 TIP3 H2   HT     0.417000        1.0080           0
  112882 WT7  5048 TIP3 OH2  OT    -0.834000       15.9994           0
  112883 WT7  5048 TIP3 H1   HT     0.417000        1.0080           0
  112884 WT7  5048 TIP3 H2   HT     0.417000        1.0080           0
  112885 WT7  5049 TIP3 OH2  OT    -0.834000       15.9994           0
  112886 WT7  5049 TIP3 H1   HT     0.417000        1.0080           0
  112887 WT7  5049 TIP3 H2   HT     0.417000        1.0080           0
  112888 WT7  5050 TIP3 OH2  OT    -0.834000       15.9994           0
  112889 WT7  5050 TIP3 H1   HT     0.417000        1.0080           0
  112890 WT7  5050 TIP3 H2   HT     0.417000        1.0080           0
  112891 WT7  5052 TIP3 OH2  OT    -0.834000       15.9994           0
  112892 WT7  5052 TIP3 H1   HT     0.417000        1.0080           0
  112893 WT7  5052 TIP3 H2   HT     0.417000        1.0080           0
  112894 WT7  5053 TIP3 OH2  OT    -0.834000       15.9994           0
  112895 WT7  5053 TIP3 H1   HT     0.417000        1.0080           0
  112896 WT7  5053 TIP3 H2   HT     0.417000        1.0080           0
  112897 WT7  5054 TIP3 OH2  OT    -0.834000       15.9994           0
  112898 WT7  5054 TIP3 H1   HT     0.417000        1.0080           0
  112899 WT7  5054 TIP3 H2   HT     0.417000        1.0080           0
  112900 WT7  5056 TIP3 OH2  OT    -0.834000       15.9994           0
  112901 WT7  5056 TIP3 H1   HT     0.417000        1.0080           0
  112902 WT7  5056 TIP3 H2   HT     0.417000        1.0080           0
  112903 WT7  5059 TIP3 OH2  OT    -0.834000       15.9994           0
  112904 WT7  5059 TIP3 H1   HT     0.417000        1.0080           0
  112905 WT7  5059 TIP3 H2   HT     0.417000        1.0080           0
  112906 WT7  5061 TIP3 OH2  OT    -0.834000       15.9994           0
  112907 WT7  5061 TIP3 H1   HT     0.417000        1.0080           0
  112908 WT7  5061 TIP3 H2   HT     0.417000        1.0080           0
  112909 WT7  5063 TIP3 OH2  OT    -0.834000       15.9994           0
  112910 WT7  5063 TIP3 H1   HT     0.417000        1.0080           0
  112911 WT7  5063 TIP3 H2   HT     0.417000        1.0080           0
  112912 WT7  5064 TIP3 OH2  OT    -0.834000       15.9994           0
  112913 WT7  5064 TIP3 H1   HT     0.417000        1.0080           0
  112914 WT7  5064 TIP3 H2   HT     0.417000        1.0080           0
  112915 WT7  5065 TIP3 OH2  OT    -0.834000       15.9994           0
  112916 WT7  5065 TIP3 H1   HT     0.417000        1.0080           0
  112917 WT7  5065 TIP3 H2   HT     0.417000        1.0080           0
  112918 WT7  5066 TIP3 OH2  OT    -0.834000       15.9994           0
  112919 WT7  5066 TIP3 H1   HT     0.417000        1.0080           0
  112920 WT7  5066 TIP3 H2   HT     0.417000        1.0080           0
  112921 WT7  5067 TIP3 OH2  OT    -0.834000       15.9994           0
  112922 WT7  5067 TIP3 H1   HT     0.417000        1.0080           0
  112923 WT7  5067 TIP3 H2   HT     0.417000        1.0080           0
  112924 WT7  5068 TIP3 OH2  OT    -0.834000       15.9994           0
  112925 WT7  5068 TIP3 H1   HT     0.417000        1.0080           0
  112926 WT7  5068 TIP3 H2   HT     0.417000        1.0080           0
  112927 WT7  5069 TIP3 OH2  OT    -0.834000       15.9994           0
  112928 WT7  5069 TIP3 H1   HT     0.417000        1.0080           0
  112929 WT7  5069 TIP3 H2   HT     0.417000        1.0080           0
  112930 WT7  5073 TIP3 OH2  OT    -0.834000       15.9994           0
  112931 WT7  5073 TIP3 H1   HT     0.417000        1.0080           0
  112932 WT7  5073 TIP3 H2   HT     0.417000        1.0080           0
  112933 WT7  5081 TIP3 OH2  OT    -0.834000       15.9994           0
  112934 WT7  5081 TIP3 H1   HT     0.417000        1.0080           0
  112935 WT7  5081 TIP3 H2   HT     0.417000        1.0080           0
  112936 WT7  5082 TIP3 OH2  OT    -0.834000       15.9994           0
  112937 WT7  5082 TIP3 H1   HT     0.417000        1.0080           0
  112938 WT7  5082 TIP3 H2   HT     0.417000        1.0080           0
  112939 WT7  5083 TIP3 OH2  OT    -0.834000       15.9994           0
  112940 WT7  5083 TIP3 H1   HT     0.417000        1.0080           0
  112941 WT7  5083 TIP3 H2   HT     0.417000        1.0080           0
  112942 WT7  5086 TIP3 OH2  OT    -0.834000       15.9994           0
  112943 WT7  5086 TIP3 H1   HT     0.417000        1.0080           0
  112944 WT7  5086 TIP3 H2   HT     0.417000        1.0080           0
  112945 WT7  5087 TIP3 OH2  OT    -0.834000       15.9994           0
  112946 WT7  5087 TIP3 H1   HT     0.417000        1.0080           0
  112947 WT7  5087 TIP3 H2   HT     0.417000        1.0080           0
  112948 WT7  5088 TIP3 OH2  OT    -0.834000       15.9994           0
  112949 WT7  5088 TIP3 H1   HT     0.417000        1.0080           0
  112950 WT7  5088 TIP3 H2   HT     0.417000        1.0080           0
  112951 WT7  5089 TIP3 OH2  OT    -0.834000       15.9994           0
  112952 WT7  5089 TIP3 H1   HT     0.417000        1.0080           0
  112953 WT7  5089 TIP3 H2   HT     0.417000        1.0080           0
  112954 WT7  5091 TIP3 OH2  OT    -0.834000       15.9994           0
  112955 WT7  5091 TIP3 H1   HT     0.417000        1.0080           0
  112956 WT7  5091 TIP3 H2   HT     0.417000        1.0080           0
  112957 WT7  5093 TIP3 OH2  OT    -0.834000       15.9994           0
  112958 WT7  5093 TIP3 H1   HT     0.417000        1.0080           0
  112959 WT7  5093 TIP3 H2   HT     0.417000        1.0080           0
  112960 WT7  5094 TIP3 OH2  OT    -0.834000       15.9994           0
  112961 WT7  5094 TIP3 H1   HT     0.417000        1.0080           0
  112962 WT7  5094 TIP3 H2   HT     0.417000        1.0080           0
  112963 WT7  5097 TIP3 OH2  OT    -0.834000       15.9994           0
  112964 WT7  5097 TIP3 H1   HT     0.417000        1.0080           0
  112965 WT7  5097 TIP3 H2   HT     0.417000        1.0080           0
  112966 WT7  5098 TIP3 OH2  OT    -0.834000       15.9994           0
  112967 WT7  5098 TIP3 H1   HT     0.417000        1.0080           0
  112968 WT7  5098 TIP3 H2   HT     0.417000        1.0080           0
  112969 WT7  5099 TIP3 OH2  OT    -0.834000       15.9994           0
  112970 WT7  5099 TIP3 H1   HT     0.417000        1.0080           0
  112971 WT7  5099 TIP3 H2   HT     0.417000        1.0080           0
  112972 WT7  5103 TIP3 OH2  OT    -0.834000       15.9994           0
  112973 WT7  5103 TIP3 H1   HT     0.417000        1.0080           0
  112974 WT7  5103 TIP3 H2   HT     0.417000        1.0080           0
  112975 WT7  5106 TIP3 OH2  OT    -0.834000       15.9994           0
  112976 WT7  5106 TIP3 H1   HT     0.417000        1.0080           0
  112977 WT7  5106 TIP3 H2   HT     0.417000        1.0080           0
  112978 WT7  5108 TIP3 OH2  OT    -0.834000       15.9994           0
  112979 WT7  5108 TIP3 H1   HT     0.417000        1.0080           0
  112980 WT7  5108 TIP3 H2   HT     0.417000        1.0080           0
  112981 WT7  5110 TIP3 OH2  OT    -0.834000       15.9994           0
  112982 WT7  5110 TIP3 H1   HT     0.417000        1.0080           0
  112983 WT7  5110 TIP3 H2   HT     0.417000        1.0080           0
  112984 WT7  5115 TIP3 OH2  OT    -0.834000       15.9994           0
  112985 WT7  5115 TIP3 H1   HT     0.417000        1.0080           0
  112986 WT7  5115 TIP3 H2   HT     0.417000        1.0080           0
  112987 WT7  5117 TIP3 OH2  OT    -0.834000       15.9994           0
  112988 WT7  5117 TIP3 H1   HT     0.417000        1.0080           0
  112989 WT7  5117 TIP3 H2   HT     0.417000        1.0080           0
  112990 WT7  5118 TIP3 OH2  OT    -0.834000       15.9994           0
  112991 WT7  5118 TIP3 H1   HT     0.417000        1.0080           0
  112992 WT7  5118 TIP3 H2   HT     0.417000        1.0080           0
  112993 WT7  5119 TIP3 OH2  OT    -0.834000       15.9994           0
  112994 WT7  5119 TIP3 H1   HT     0.417000        1.0080           0
  112995 WT7  5119 TIP3 H2   HT     0.417000        1.0080           0
  112996 WT7  5121 TIP3 OH2  OT    -0.834000       15.9994           0
  112997 WT7  5121 TIP3 H1   HT     0.417000        1.0080           0
  112998 WT7  5121 TIP3 H2   HT     0.417000        1.0080           0
  112999 WT7  5122 TIP3 OH2  OT    -0.834000       15.9994           0
  113000 WT7  5122 TIP3 H1   HT     0.417000        1.0080           0
  113001 WT7  5122 TIP3 H2   HT     0.417000        1.0080           0
  113002 WT7  5124 TIP3 OH2  OT    -0.834000       15.9994           0
  113003 WT7  5124 TIP3 H1   HT     0.417000        1.0080           0
  113004 WT7  5124 TIP3 H2   HT     0.417000        1.0080           0
  113005 WT7  5125 TIP3 OH2  OT    -0.834000       15.9994           0
  113006 WT7  5125 TIP3 H1   HT     0.417000        1.0080           0
  113007 WT7  5125 TIP3 H2   HT     0.417000        1.0080           0
  113008 WT7  5127 TIP3 OH2  OT    -0.834000       15.9994           0
  113009 WT7  5127 TIP3 H1   HT     0.417000        1.0080           0
  113010 WT7  5127 TIP3 H2   HT     0.417000        1.0080           0
  113011 WT7  5133 TIP3 OH2  OT    -0.834000       15.9994           0
  113012 WT7  5133 TIP3 H1   HT     0.417000        1.0080           0
  113013 WT7  5133 TIP3 H2   HT     0.417000        1.0080           0
  113014 WT7  5134 TIP3 OH2  OT    -0.834000       15.9994           0
  113015 WT7  5134 TIP3 H1   HT     0.417000        1.0080           0
  113016 WT7  5134 TIP3 H2   HT     0.417000        1.0080           0
  113017 WT7  5136 TIP3 OH2  OT    -0.834000       15.9994           0
  113018 WT7  5136 TIP3 H1   HT     0.417000        1.0080           0
  113019 WT7  5136 TIP3 H2   HT     0.417000        1.0080           0
  113020 WT7  5140 TIP3 OH2  OT    -0.834000       15.9994           0
  113021 WT7  5140 TIP3 H1   HT     0.417000        1.0080           0
  113022 WT7  5140 TIP3 H2   HT     0.417000        1.0080           0
  113023 WT7  5142 TIP3 OH2  OT    -0.834000       15.9994           0
  113024 WT7  5142 TIP3 H1   HT     0.417000        1.0080           0
  113025 WT7  5142 TIP3 H2   HT     0.417000        1.0080           0
  113026 WT7  5157 TIP3 OH2  OT    -0.834000       15.9994           0
  113027 WT7  5157 TIP3 H1   HT     0.417000        1.0080           0
  113028 WT7  5157 TIP3 H2   HT     0.417000        1.0080           0
  113029 WT7  5158 TIP3 OH2  OT    -0.834000       15.9994           0
  113030 WT7  5158 TIP3 H1   HT     0.417000        1.0080           0
  113031 WT7  5158 TIP3 H2   HT     0.417000        1.0080           0
  113032 WT7  5161 TIP3 OH2  OT    -0.834000       15.9994           0
  113033 WT7  5161 TIP3 H1   HT     0.417000        1.0080           0
  113034 WT7  5161 TIP3 H2   HT     0.417000        1.0080           0
  113035 WT7  5162 TIP3 OH2  OT    -0.834000       15.9994           0
  113036 WT7  5162 TIP3 H1   HT     0.417000        1.0080           0
  113037 WT7  5162 TIP3 H2   HT     0.417000        1.0080           0
  113038 WT7  5164 TIP3 OH2  OT    -0.834000       15.9994           0
  113039 WT7  5164 TIP3 H1   HT     0.417000        1.0080           0
  113040 WT7  5164 TIP3 H2   HT     0.417000        1.0080           0
  113041 WT7  5165 TIP3 OH2  OT    -0.834000       15.9994           0
  113042 WT7  5165 TIP3 H1   HT     0.417000        1.0080           0
  113043 WT7  5165 TIP3 H2   HT     0.417000        1.0080           0
  113044 WT7  5169 TIP3 OH2  OT    -0.834000       15.9994           0
  113045 WT7  5169 TIP3 H1   HT     0.417000        1.0080           0
  113046 WT7  5169 TIP3 H2   HT     0.417000        1.0080           0
  113047 WT7  5170 TIP3 OH2  OT    -0.834000       15.9994           0
  113048 WT7  5170 TIP3 H1   HT     0.417000        1.0080           0
  113049 WT7  5170 TIP3 H2   HT     0.417000        1.0080           0
  113050 WT7  5176 TIP3 OH2  OT    -0.834000       15.9994           0
  113051 WT7  5176 TIP3 H1   HT     0.417000        1.0080           0
  113052 WT7  5176 TIP3 H2   HT     0.417000        1.0080           0
  113053 WT7  5195 TIP3 OH2  OT    -0.834000       15.9994           0
  113054 WT7  5195 TIP3 H1   HT     0.417000        1.0080           0
  113055 WT7  5195 TIP3 H2   HT     0.417000        1.0080           0
  113056 WT7  5196 TIP3 OH2  OT    -0.834000       15.9994           0
  113057 WT7  5196 TIP3 H1   HT     0.417000        1.0080           0
  113058 WT7  5196 TIP3 H2   HT     0.417000        1.0080           0
  113059 WT7  5213 TIP3 OH2  OT    -0.834000       15.9994           0
  113060 WT7  5213 TIP3 H1   HT     0.417000        1.0080           0
  113061 WT7  5213 TIP3 H2   HT     0.417000        1.0080           0
  113062 WT7  5218 TIP3 OH2  OT    -0.834000       15.9994           0
  113063 WT7  5218 TIP3 H1   HT     0.417000        1.0080           0
  113064 WT7  5218 TIP3 H2   HT     0.417000        1.0080           0
  113065 WT7  5228 TIP3 OH2  OT    -0.834000       15.9994           0
  113066 WT7  5228 TIP3 H1   HT     0.417000        1.0080           0
  113067 WT7  5228 TIP3 H2   HT     0.417000        1.0080           0
  113068 WT7  5234 TIP3 OH2  OT    -0.834000       15.9994           0
  113069 WT7  5234 TIP3 H1   HT     0.417000        1.0080           0
  113070 WT7  5234 TIP3 H2   HT     0.417000        1.0080           0
  113071 WT7  5241 TIP3 OH2  OT    -0.834000       15.9994           0
  113072 WT7  5241 TIP3 H1   HT     0.417000        1.0080           0
  113073 WT7  5241 TIP3 H2   HT     0.417000        1.0080           0
  113074 WT7  5251 TIP3 OH2  OT    -0.834000       15.9994           0
  113075 WT7  5251 TIP3 H1   HT     0.417000        1.0080           0
  113076 WT7  5251 TIP3 H2   HT     0.417000        1.0080           0
  113077 WT7  5252 TIP3 OH2  OT    -0.834000       15.9994           0
  113078 WT7  5252 TIP3 H1   HT     0.417000        1.0080           0
  113079 WT7  5252 TIP3 H2   HT     0.417000        1.0080           0
  113080 WT7  5259 TIP3 OH2  OT    -0.834000       15.9994           0
  113081 WT7  5259 TIP3 H1   HT     0.417000        1.0080           0
  113082 WT7  5259 TIP3 H2   HT     0.417000        1.0080           0
  113083 WT7  5260 TIP3 OH2  OT    -0.834000       15.9994           0
  113084 WT7  5260 TIP3 H1   HT     0.417000        1.0080           0
  113085 WT7  5260 TIP3 H2   HT     0.417000        1.0080           0
  113086 WT7  5264 TIP3 OH2  OT    -0.834000       15.9994           0
  113087 WT7  5264 TIP3 H1   HT     0.417000        1.0080           0
  113088 WT7  5264 TIP3 H2   HT     0.417000        1.0080           0
  113089 WT7  5266 TIP3 OH2  OT    -0.834000       15.9994           0
  113090 WT7  5266 TIP3 H1   HT     0.417000        1.0080           0
  113091 WT7  5266 TIP3 H2   HT     0.417000        1.0080           0
  113092 WT7  5267 TIP3 OH2  OT    -0.834000       15.9994           0
  113093 WT7  5267 TIP3 H1   HT     0.417000        1.0080           0
  113094 WT7  5267 TIP3 H2   HT     0.417000        1.0080           0
  113095 WT7  5272 TIP3 OH2  OT    -0.834000       15.9994           0
  113096 WT7  5272 TIP3 H1   HT     0.417000        1.0080           0
  113097 WT7  5272 TIP3 H2   HT     0.417000        1.0080           0
  113098 WT7  5273 TIP3 OH2  OT    -0.834000       15.9994           0
  113099 WT7  5273 TIP3 H1   HT     0.417000        1.0080           0
  113100 WT7  5273 TIP3 H2   HT     0.417000        1.0080           0
  113101 WT7  5284 TIP3 OH2  OT    -0.834000       15.9994           0
  113102 WT7  5284 TIP3 H1   HT     0.417000        1.0080           0
  113103 WT7  5284 TIP3 H2   HT     0.417000        1.0080           0
  113104 WT7  5285 TIP3 OH2  OT    -0.834000       15.9994           0
  113105 WT7  5285 TIP3 H1   HT     0.417000        1.0080           0
  113106 WT7  5285 TIP3 H2   HT     0.417000        1.0080           0
  113107 WT7  5286 TIP3 OH2  OT    -0.834000       15.9994           0
  113108 WT7  5286 TIP3 H1   HT     0.417000        1.0080           0
  113109 WT7  5286 TIP3 H2   HT     0.417000        1.0080           0
  113110 WT7  5289 TIP3 OH2  OT    -0.834000       15.9994           0
  113111 WT7  5289 TIP3 H1   HT     0.417000        1.0080           0
  113112 WT7  5289 TIP3 H2   HT     0.417000        1.0080           0
  113113 WT7  5302 TIP3 OH2  OT    -0.834000       15.9994           0
  113114 WT7  5302 TIP3 H1   HT     0.417000        1.0080           0
  113115 WT7  5302 TIP3 H2   HT     0.417000        1.0080           0
  113116 WT7  5309 TIP3 OH2  OT    -0.834000       15.9994           0
  113117 WT7  5309 TIP3 H1   HT     0.417000        1.0080           0
  113118 WT7  5309 TIP3 H2   HT     0.417000        1.0080           0
  113119 WT7  5317 TIP3 OH2  OT    -0.834000       15.9994           0
  113120 WT7  5317 TIP3 H1   HT     0.417000        1.0080           0
  113121 WT7  5317 TIP3 H2   HT     0.417000        1.0080           0
  113122 WT7  5318 TIP3 OH2  OT    -0.834000       15.9994           0
  113123 WT7  5318 TIP3 H1   HT     0.417000        1.0080           0
  113124 WT7  5318 TIP3 H2   HT     0.417000        1.0080           0
  113125 WT7  5319 TIP3 OH2  OT    -0.834000       15.9994           0
  113126 WT7  5319 TIP3 H1   HT     0.417000        1.0080           0
  113127 WT7  5319 TIP3 H2   HT     0.417000        1.0080           0
  113128 WT7  5320 TIP3 OH2  OT    -0.834000       15.9994           0
  113129 WT7  5320 TIP3 H1   HT     0.417000        1.0080           0
  113130 WT7  5320 TIP3 H2   HT     0.417000        1.0080           0
  113131 WT7  5323 TIP3 OH2  OT    -0.834000       15.9994           0
  113132 WT7  5323 TIP3 H1   HT     0.417000        1.0080           0
  113133 WT7  5323 TIP3 H2   HT     0.417000        1.0080           0
  113134 WT7  5325 TIP3 OH2  OT    -0.834000       15.9994           0
  113135 WT7  5325 TIP3 H1   HT     0.417000        1.0080           0
  113136 WT7  5325 TIP3 H2   HT     0.417000        1.0080           0
  113137 WT7  5327 TIP3 OH2  OT    -0.834000       15.9994           0
  113138 WT7  5327 TIP3 H1   HT     0.417000        1.0080           0
  113139 WT7  5327 TIP3 H2   HT     0.417000        1.0080           0
  113140 WT7  5328 TIP3 OH2  OT    -0.834000       15.9994           0
  113141 WT7  5328 TIP3 H1   HT     0.417000        1.0080           0
  113142 WT7  5328 TIP3 H2   HT     0.417000        1.0080           0
  113143 WT7  5331 TIP3 OH2  OT    -0.834000       15.9994           0
  113144 WT7  5331 TIP3 H1   HT     0.417000        1.0080           0
  113145 WT7  5331 TIP3 H2   HT     0.417000        1.0080           0
  113146 WT7  5333 TIP3 OH2  OT    -0.834000       15.9994           0
  113147 WT7  5333 TIP3 H1   HT     0.417000        1.0080           0
  113148 WT7  5333 TIP3 H2   HT     0.417000        1.0080           0
  113149 WT7  5334 TIP3 OH2  OT    -0.834000       15.9994           0
  113150 WT7  5334 TIP3 H1   HT     0.417000        1.0080           0
  113151 WT7  5334 TIP3 H2   HT     0.417000        1.0080           0
  113152 WT7  5338 TIP3 OH2  OT    -0.834000       15.9994           0
  113153 WT7  5338 TIP3 H1   HT     0.417000        1.0080           0
  113154 WT7  5338 TIP3 H2   HT     0.417000        1.0080           0
  113155 WT7  5341 TIP3 OH2  OT    -0.834000       15.9994           0
  113156 WT7  5341 TIP3 H1   HT     0.417000        1.0080           0
  113157 WT7  5341 TIP3 H2   HT     0.417000        1.0080           0
  113158 WT7  5343 TIP3 OH2  OT    -0.834000       15.9994           0
  113159 WT7  5343 TIP3 H1   HT     0.417000        1.0080           0
  113160 WT7  5343 TIP3 H2   HT     0.417000        1.0080           0
  113161 WT7  5344 TIP3 OH2  OT    -0.834000       15.9994           0
  113162 WT7  5344 TIP3 H1   HT     0.417000        1.0080           0
  113163 WT7  5344 TIP3 H2   HT     0.417000        1.0080           0
  113164 WT7  5348 TIP3 OH2  OT    -0.834000       15.9994           0
  113165 WT7  5348 TIP3 H1   HT     0.417000        1.0080           0
  113166 WT7  5348 TIP3 H2   HT     0.417000        1.0080           0
  113167 WT7  5349 TIP3 OH2  OT    -0.834000       15.9994           0
  113168 WT7  5349 TIP3 H1   HT     0.417000        1.0080           0
  113169 WT7  5349 TIP3 H2   HT     0.417000        1.0080           0
  113170 WT7  5350 TIP3 OH2  OT    -0.834000       15.9994           0
  113171 WT7  5350 TIP3 H1   HT     0.417000        1.0080           0
  113172 WT7  5350 TIP3 H2   HT     0.417000        1.0080           0
  113173 WT7  5353 TIP3 OH2  OT    -0.834000       15.9994           0
  113174 WT7  5353 TIP3 H1   HT     0.417000        1.0080           0
  113175 WT7  5353 TIP3 H2   HT     0.417000        1.0080           0
  113176 WT7  5355 TIP3 OH2  OT    -0.834000       15.9994           0
  113177 WT7  5355 TIP3 H1   HT     0.417000        1.0080           0
  113178 WT7  5355 TIP3 H2   HT     0.417000        1.0080           0
  113179 WT7  5356 TIP3 OH2  OT    -0.834000       15.9994           0
  113180 WT7  5356 TIP3 H1   HT     0.417000        1.0080           0
  113181 WT7  5356 TIP3 H2   HT     0.417000        1.0080           0
  113182 WT7  5358 TIP3 OH2  OT    -0.834000       15.9994           0
  113183 WT7  5358 TIP3 H1   HT     0.417000        1.0080           0
  113184 WT7  5358 TIP3 H2   HT     0.417000        1.0080           0
  113185 WT7  5360 TIP3 OH2  OT    -0.834000       15.9994           0
  113186 WT7  5360 TIP3 H1   HT     0.417000        1.0080           0
  113187 WT7  5360 TIP3 H2   HT     0.417000        1.0080           0
  113188 WT7  5363 TIP3 OH2  OT    -0.834000       15.9994           0
  113189 WT7  5363 TIP3 H1   HT     0.417000        1.0080           0
  113190 WT7  5363 TIP3 H2   HT     0.417000        1.0080           0
  113191 WT7  5364 TIP3 OH2  OT    -0.834000       15.9994           0
  113192 WT7  5364 TIP3 H1   HT     0.417000        1.0080           0
  113193 WT7  5364 TIP3 H2   HT     0.417000        1.0080           0
  113194 WT7  5365 TIP3 OH2  OT    -0.834000       15.9994           0
  113195 WT7  5365 TIP3 H1   HT     0.417000        1.0080           0
  113196 WT7  5365 TIP3 H2   HT     0.417000        1.0080           0
  113197 WT7  5366 TIP3 OH2  OT    -0.834000       15.9994           0
  113198 WT7  5366 TIP3 H1   HT     0.417000        1.0080           0
  113199 WT7  5366 TIP3 H2   HT     0.417000        1.0080           0
  113200 WT7  5368 TIP3 OH2  OT    -0.834000       15.9994           0
  113201 WT7  5368 TIP3 H1   HT     0.417000        1.0080           0
  113202 WT7  5368 TIP3 H2   HT     0.417000        1.0080           0
  113203 WT7  5369 TIP3 OH2  OT    -0.834000       15.9994           0
  113204 WT7  5369 TIP3 H1   HT     0.417000        1.0080           0
  113205 WT7  5369 TIP3 H2   HT     0.417000        1.0080           0
  113206 WT7  5370 TIP3 OH2  OT    -0.834000       15.9994           0
  113207 WT7  5370 TIP3 H1   HT     0.417000        1.0080           0
  113208 WT7  5370 TIP3 H2   HT     0.417000        1.0080           0
  113209 WT7  5371 TIP3 OH2  OT    -0.834000       15.9994           0
  113210 WT7  5371 TIP3 H1   HT     0.417000        1.0080           0
  113211 WT7  5371 TIP3 H2   HT     0.417000        1.0080           0
  113212 WT7  5372 TIP3 OH2  OT    -0.834000       15.9994           0
  113213 WT7  5372 TIP3 H1   HT     0.417000        1.0080           0
  113214 WT7  5372 TIP3 H2   HT     0.417000        1.0080           0
  113215 WT7  5375 TIP3 OH2  OT    -0.834000       15.9994           0
  113216 WT7  5375 TIP3 H1   HT     0.417000        1.0080           0
  113217 WT7  5375 TIP3 H2   HT     0.417000        1.0080           0
  113218 WT7  5376 TIP3 OH2  OT    -0.834000       15.9994           0
  113219 WT7  5376 TIP3 H1   HT     0.417000        1.0080           0
  113220 WT7  5376 TIP3 H2   HT     0.417000        1.0080           0
  113221 WT7  5377 TIP3 OH2  OT    -0.834000       15.9994           0
  113222 WT7  5377 TIP3 H1   HT     0.417000        1.0080           0
  113223 WT7  5377 TIP3 H2   HT     0.417000        1.0080           0
  113224 WT7  5378 TIP3 OH2  OT    -0.834000       15.9994           0
  113225 WT7  5378 TIP3 H1   HT     0.417000        1.0080           0
  113226 WT7  5378 TIP3 H2   HT     0.417000        1.0080           0
  113227 WT7  5380 TIP3 OH2  OT    -0.834000       15.9994           0
  113228 WT7  5380 TIP3 H1   HT     0.417000        1.0080           0
  113229 WT7  5380 TIP3 H2   HT     0.417000        1.0080           0
  113230 WT7  5381 TIP3 OH2  OT    -0.834000       15.9994           0
  113231 WT7  5381 TIP3 H1   HT     0.417000        1.0080           0
  113232 WT7  5381 TIP3 H2   HT     0.417000        1.0080           0
  113233 WT7  5382 TIP3 OH2  OT    -0.834000       15.9994           0
  113234 WT7  5382 TIP3 H1   HT     0.417000        1.0080           0
  113235 WT7  5382 TIP3 H2   HT     0.417000        1.0080           0
  113236 WT7  5383 TIP3 OH2  OT    -0.834000       15.9994           0
  113237 WT7  5383 TIP3 H1   HT     0.417000        1.0080           0
  113238 WT7  5383 TIP3 H2   HT     0.417000        1.0080           0
  113239 WT7  5384 TIP3 OH2  OT    -0.834000       15.9994           0
  113240 WT7  5384 TIP3 H1   HT     0.417000        1.0080           0
  113241 WT7  5384 TIP3 H2   HT     0.417000        1.0080           0
  113242 WT7  5388 TIP3 OH2  OT    -0.834000       15.9994           0
  113243 WT7  5388 TIP3 H1   HT     0.417000        1.0080           0
  113244 WT7  5388 TIP3 H2   HT     0.417000        1.0080           0
  113245 WT7  5389 TIP3 OH2  OT    -0.834000       15.9994           0
  113246 WT7  5389 TIP3 H1   HT     0.417000        1.0080           0
  113247 WT7  5389 TIP3 H2   HT     0.417000        1.0080           0
  113248 WT7  5392 TIP3 OH2  OT    -0.834000       15.9994           0
  113249 WT7  5392 TIP3 H1   HT     0.417000        1.0080           0
  113250 WT7  5392 TIP3 H2   HT     0.417000        1.0080           0
  113251 WT7  5393 TIP3 OH2  OT    -0.834000       15.9994           0
  113252 WT7  5393 TIP3 H1   HT     0.417000        1.0080           0
  113253 WT7  5393 TIP3 H2   HT     0.417000        1.0080           0
  113254 WT7  5394 TIP3 OH2  OT    -0.834000       15.9994           0
  113255 WT7  5394 TIP3 H1   HT     0.417000        1.0080           0
  113256 WT7  5394 TIP3 H2   HT     0.417000        1.0080           0
  113257 WT7  5395 TIP3 OH2  OT    -0.834000       15.9994           0
  113258 WT7  5395 TIP3 H1   HT     0.417000        1.0080           0
  113259 WT7  5395 TIP3 H2   HT     0.417000        1.0080           0
  113260 WT7  5396 TIP3 OH2  OT    -0.834000       15.9994           0
  113261 WT7  5396 TIP3 H1   HT     0.417000        1.0080           0
  113262 WT7  5396 TIP3 H2   HT     0.417000        1.0080           0
  113263 WT7  5398 TIP3 OH2  OT    -0.834000       15.9994           0
  113264 WT7  5398 TIP3 H1   HT     0.417000        1.0080           0
  113265 WT7  5398 TIP3 H2   HT     0.417000        1.0080           0
  113266 WT7  5400 TIP3 OH2  OT    -0.834000       15.9994           0
  113267 WT7  5400 TIP3 H1   HT     0.417000        1.0080           0
  113268 WT7  5400 TIP3 H2   HT     0.417000        1.0080           0
  113269 WT7  5401 TIP3 OH2  OT    -0.834000       15.9994           0
  113270 WT7  5401 TIP3 H1   HT     0.417000        1.0080           0
  113271 WT7  5401 TIP3 H2   HT     0.417000        1.0080           0
  113272 WT7  5403 TIP3 OH2  OT    -0.834000       15.9994           0
  113273 WT7  5403 TIP3 H1   HT     0.417000        1.0080           0
  113274 WT7  5403 TIP3 H2   HT     0.417000        1.0080           0
  113275 WT7  5404 TIP3 OH2  OT    -0.834000       15.9994           0
  113276 WT7  5404 TIP3 H1   HT     0.417000        1.0080           0
  113277 WT7  5404 TIP3 H2   HT     0.417000        1.0080           0
  113278 WT7  5406 TIP3 OH2  OT    -0.834000       15.9994           0
  113279 WT7  5406 TIP3 H1   HT     0.417000        1.0080           0
  113280 WT7  5406 TIP3 H2   HT     0.417000        1.0080           0
  113281 WT7  5408 TIP3 OH2  OT    -0.834000       15.9994           0
  113282 WT7  5408 TIP3 H1   HT     0.417000        1.0080           0
  113283 WT7  5408 TIP3 H2   HT     0.417000        1.0080           0
  113284 WT7  5409 TIP3 OH2  OT    -0.834000       15.9994           0
  113285 WT7  5409 TIP3 H1   HT     0.417000        1.0080           0
  113286 WT7  5409 TIP3 H2   HT     0.417000        1.0080           0
  113287 WT7  5410 TIP3 OH2  OT    -0.834000       15.9994           0
  113288 WT7  5410 TIP3 H1   HT     0.417000        1.0080           0
  113289 WT7  5410 TIP3 H2   HT     0.417000        1.0080           0
  113290 WT7  5411 TIP3 OH2  OT    -0.834000       15.9994           0
  113291 WT7  5411 TIP3 H1   HT     0.417000        1.0080           0
  113292 WT7  5411 TIP3 H2   HT     0.417000        1.0080           0
  113293 WT7  5412 TIP3 OH2  OT    -0.834000       15.9994           0
  113294 WT7  5412 TIP3 H1   HT     0.417000        1.0080           0
  113295 WT7  5412 TIP3 H2   HT     0.417000        1.0080           0
  113296 WT7  5413 TIP3 OH2  OT    -0.834000       15.9994           0
  113297 WT7  5413 TIP3 H1   HT     0.417000        1.0080           0
  113298 WT7  5413 TIP3 H2   HT     0.417000        1.0080           0
  113299 WT7  5415 TIP3 OH2  OT    -0.834000       15.9994           0
  113300 WT7  5415 TIP3 H1   HT     0.417000        1.0080           0
  113301 WT7  5415 TIP3 H2   HT     0.417000        1.0080           0
  113302 WT7  5417 TIP3 OH2  OT    -0.834000       15.9994           0
  113303 WT7  5417 TIP3 H1   HT     0.417000        1.0080           0
  113304 WT7  5417 TIP3 H2   HT     0.417000        1.0080           0
  113305 WT7  5418 TIP3 OH2  OT    -0.834000       15.9994           0
  113306 WT7  5418 TIP3 H1   HT     0.417000        1.0080           0
  113307 WT7  5418 TIP3 H2   HT     0.417000        1.0080           0
  113308 WT7  5423 TIP3 OH2  OT    -0.834000       15.9994           0
  113309 WT7  5423 TIP3 H1   HT     0.417000        1.0080           0
  113310 WT7  5423 TIP3 H2   HT     0.417000        1.0080           0
  113311 WT7  5424 TIP3 OH2  OT    -0.834000       15.9994           0
  113312 WT7  5424 TIP3 H1   HT     0.417000        1.0080           0
  113313 WT7  5424 TIP3 H2   HT     0.417000        1.0080           0
  113314 WT7  5425 TIP3 OH2  OT    -0.834000       15.9994           0
  113315 WT7  5425 TIP3 H1   HT     0.417000        1.0080           0
  113316 WT7  5425 TIP3 H2   HT     0.417000        1.0080           0
  113317 WT7  5426 TIP3 OH2  OT    -0.834000       15.9994           0
  113318 WT7  5426 TIP3 H1   HT     0.417000        1.0080           0
  113319 WT7  5426 TIP3 H2   HT     0.417000        1.0080           0
  113320 WT7  5427 TIP3 OH2  OT    -0.834000       15.9994           0
  113321 WT7  5427 TIP3 H1   HT     0.417000        1.0080           0
  113322 WT7  5427 TIP3 H2   HT     0.417000        1.0080           0
  113323 WT7  5428 TIP3 OH2  OT    -0.834000       15.9994           0
  113324 WT7  5428 TIP3 H1   HT     0.417000        1.0080           0
  113325 WT7  5428 TIP3 H2   HT     0.417000        1.0080           0
  113326 WT7  5429 TIP3 OH2  OT    -0.834000       15.9994           0
  113327 WT7  5429 TIP3 H1   HT     0.417000        1.0080           0
  113328 WT7  5429 TIP3 H2   HT     0.417000        1.0080           0
  113329 WT7  5430 TIP3 OH2  OT    -0.834000       15.9994           0
  113330 WT7  5430 TIP3 H1   HT     0.417000        1.0080           0
  113331 WT7  5430 TIP3 H2   HT     0.417000        1.0080           0
  113332 WT7  5431 TIP3 OH2  OT    -0.834000       15.9994           0
  113333 WT7  5431 TIP3 H1   HT     0.417000        1.0080           0
  113334 WT7  5431 TIP3 H2   HT     0.417000        1.0080           0
  113335 WT7  5432 TIP3 OH2  OT    -0.834000       15.9994           0
  113336 WT7  5432 TIP3 H1   HT     0.417000        1.0080           0
  113337 WT7  5432 TIP3 H2   HT     0.417000        1.0080           0
  113338 WT7  5434 TIP3 OH2  OT    -0.834000       15.9994           0
  113339 WT7  5434 TIP3 H1   HT     0.417000        1.0080           0
  113340 WT7  5434 TIP3 H2   HT     0.417000        1.0080           0
  113341 WT7  5435 TIP3 OH2  OT    -0.834000       15.9994           0
  113342 WT7  5435 TIP3 H1   HT     0.417000        1.0080           0
  113343 WT7  5435 TIP3 H2   HT     0.417000        1.0080           0
  113344 WT7  5443 TIP3 OH2  OT    -0.834000       15.9994           0
  113345 WT7  5443 TIP3 H1   HT     0.417000        1.0080           0
  113346 WT7  5443 TIP3 H2   HT     0.417000        1.0080           0
  113347 WT7  5444 TIP3 OH2  OT    -0.834000       15.9994           0
  113348 WT7  5444 TIP3 H1   HT     0.417000        1.0080           0
  113349 WT7  5444 TIP3 H2   HT     0.417000        1.0080           0
  113350 WT7  5445 TIP3 OH2  OT    -0.834000       15.9994           0
  113351 WT7  5445 TIP3 H1   HT     0.417000        1.0080           0
  113352 WT7  5445 TIP3 H2   HT     0.417000        1.0080           0
  113353 WT7  5446 TIP3 OH2  OT    -0.834000       15.9994           0
  113354 WT7  5446 TIP3 H1   HT     0.417000        1.0080           0
  113355 WT7  5446 TIP3 H2   HT     0.417000        1.0080           0
  113356 WT7  5448 TIP3 OH2  OT    -0.834000       15.9994           0
  113357 WT7  5448 TIP3 H1   HT     0.417000        1.0080           0
  113358 WT7  5448 TIP3 H2   HT     0.417000        1.0080           0
  113359 WT7  5451 TIP3 OH2  OT    -0.834000       15.9994           0
  113360 WT7  5451 TIP3 H1   HT     0.417000        1.0080           0
  113361 WT7  5451 TIP3 H2   HT     0.417000        1.0080           0
  113362 WT7  5453 TIP3 OH2  OT    -0.834000       15.9994           0
  113363 WT7  5453 TIP3 H1   HT     0.417000        1.0080           0
  113364 WT7  5453 TIP3 H2   HT     0.417000        1.0080           0
  113365 WT7  5454 TIP3 OH2  OT    -0.834000       15.9994           0
  113366 WT7  5454 TIP3 H1   HT     0.417000        1.0080           0
  113367 WT7  5454 TIP3 H2   HT     0.417000        1.0080           0
  113368 WT7  5455 TIP3 OH2  OT    -0.834000       15.9994           0
  113369 WT7  5455 TIP3 H1   HT     0.417000        1.0080           0
  113370 WT7  5455 TIP3 H2   HT     0.417000        1.0080           0
  113371 WT7  5456 TIP3 OH2  OT    -0.834000       15.9994           0
  113372 WT7  5456 TIP3 H1   HT     0.417000        1.0080           0
  113373 WT7  5456 TIP3 H2   HT     0.417000        1.0080           0
  113374 WT7  5457 TIP3 OH2  OT    -0.834000       15.9994           0
  113375 WT7  5457 TIP3 H1   HT     0.417000        1.0080           0
  113376 WT7  5457 TIP3 H2   HT     0.417000        1.0080           0
  113377 WT7  5461 TIP3 OH2  OT    -0.834000       15.9994           0
  113378 WT7  5461 TIP3 H1   HT     0.417000        1.0080           0
  113379 WT7  5461 TIP3 H2   HT     0.417000        1.0080           0
  113380 WT7  5462 TIP3 OH2  OT    -0.834000       15.9994           0
  113381 WT7  5462 TIP3 H1   HT     0.417000        1.0080           0
  113382 WT7  5462 TIP3 H2   HT     0.417000        1.0080           0
  113383 WT7  5463 TIP3 OH2  OT    -0.834000       15.9994           0
  113384 WT7  5463 TIP3 H1   HT     0.417000        1.0080           0
  113385 WT7  5463 TIP3 H2   HT     0.417000        1.0080           0
  113386 WT7  5465 TIP3 OH2  OT    -0.834000       15.9994           0
  113387 WT7  5465 TIP3 H1   HT     0.417000        1.0080           0
  113388 WT7  5465 TIP3 H2   HT     0.417000        1.0080           0
  113389 WT7  5466 TIP3 OH2  OT    -0.834000       15.9994           0
  113390 WT7  5466 TIP3 H1   HT     0.417000        1.0080           0
  113391 WT7  5466 TIP3 H2   HT     0.417000        1.0080           0
  113392 WT7  5468 TIP3 OH2  OT    -0.834000       15.9994           0
  113393 WT7  5468 TIP3 H1   HT     0.417000        1.0080           0
  113394 WT7  5468 TIP3 H2   HT     0.417000        1.0080           0
  113395 WT7  5470 TIP3 OH2  OT    -0.834000       15.9994           0
  113396 WT7  5470 TIP3 H1   HT     0.417000        1.0080           0
  113397 WT7  5470 TIP3 H2   HT     0.417000        1.0080           0
  113398 WT7  5472 TIP3 OH2  OT    -0.834000       15.9994           0
  113399 WT7  5472 TIP3 H1   HT     0.417000        1.0080           0
  113400 WT7  5472 TIP3 H2   HT     0.417000        1.0080           0
  113401 WT7  5473 TIP3 OH2  OT    -0.834000       15.9994           0
  113402 WT7  5473 TIP3 H1   HT     0.417000        1.0080           0
  113403 WT7  5473 TIP3 H2   HT     0.417000        1.0080           0
  113404 WT7  5477 TIP3 OH2  OT    -0.834000       15.9994           0
  113405 WT7  5477 TIP3 H1   HT     0.417000        1.0080           0
  113406 WT7  5477 TIP3 H2   HT     0.417000        1.0080           0
  113407 WT7  5479 TIP3 OH2  OT    -0.834000       15.9994           0
  113408 WT7  5479 TIP3 H1   HT     0.417000        1.0080           0
  113409 WT7  5479 TIP3 H2   HT     0.417000        1.0080           0
  113410 WT7  5484 TIP3 OH2  OT    -0.834000       15.9994           0
  113411 WT7  5484 TIP3 H1   HT     0.417000        1.0080           0
  113412 WT7  5484 TIP3 H2   HT     0.417000        1.0080           0
  113413 WT7  5485 TIP3 OH2  OT    -0.834000       15.9994           0
  113414 WT7  5485 TIP3 H1   HT     0.417000        1.0080           0
  113415 WT7  5485 TIP3 H2   HT     0.417000        1.0080           0
  113416 WT7  5487 TIP3 OH2  OT    -0.834000       15.9994           0
  113417 WT7  5487 TIP3 H1   HT     0.417000        1.0080           0
  113418 WT7  5487 TIP3 H2   HT     0.417000        1.0080           0
  113419 WT7  5489 TIP3 OH2  OT    -0.834000       15.9994           0
  113420 WT7  5489 TIP3 H1   HT     0.417000        1.0080           0
  113421 WT7  5489 TIP3 H2   HT     0.417000        1.0080           0
  113422 WT7  5490 TIP3 OH2  OT    -0.834000       15.9994           0
  113423 WT7  5490 TIP3 H1   HT     0.417000        1.0080           0
  113424 WT7  5490 TIP3 H2   HT     0.417000        1.0080           0
  113425 WT7  5493 TIP3 OH2  OT    -0.834000       15.9994           0
  113426 WT7  5493 TIP3 H1   HT     0.417000        1.0080           0
  113427 WT7  5493 TIP3 H2   HT     0.417000        1.0080           0
  113428 WT7  5496 TIP3 OH2  OT    -0.834000       15.9994           0
  113429 WT7  5496 TIP3 H1   HT     0.417000        1.0080           0
  113430 WT7  5496 TIP3 H2   HT     0.417000        1.0080           0
  113431 WT7  5497 TIP3 OH2  OT    -0.834000       15.9994           0
  113432 WT7  5497 TIP3 H1   HT     0.417000        1.0080           0
  113433 WT7  5497 TIP3 H2   HT     0.417000        1.0080           0
  113434 WT7  5499 TIP3 OH2  OT    -0.834000       15.9994           0
  113435 WT7  5499 TIP3 H1   HT     0.417000        1.0080           0
  113436 WT7  5499 TIP3 H2   HT     0.417000        1.0080           0
  113437 WT7  5501 TIP3 OH2  OT    -0.834000       15.9994           0
  113438 WT7  5501 TIP3 H1   HT     0.417000        1.0080           0
  113439 WT7  5501 TIP3 H2   HT     0.417000        1.0080           0
  113440 WT7  5502 TIP3 OH2  OT    -0.834000       15.9994           0
  113441 WT7  5502 TIP3 H1   HT     0.417000        1.0080           0
  113442 WT7  5502 TIP3 H2   HT     0.417000        1.0080           0
  113443 WT7  5504 TIP3 OH2  OT    -0.834000       15.9994           0
  113444 WT7  5504 TIP3 H1   HT     0.417000        1.0080           0
  113445 WT7  5504 TIP3 H2   HT     0.417000        1.0080           0
  113446 WT7  5505 TIP3 OH2  OT    -0.834000       15.9994           0
  113447 WT7  5505 TIP3 H1   HT     0.417000        1.0080           0
  113448 WT7  5505 TIP3 H2   HT     0.417000        1.0080           0
  113449 WT7  5507 TIP3 OH2  OT    -0.834000       15.9994           0
  113450 WT7  5507 TIP3 H1   HT     0.417000        1.0080           0
  113451 WT7  5507 TIP3 H2   HT     0.417000        1.0080           0
  113452 WT7  5508 TIP3 OH2  OT    -0.834000       15.9994           0
  113453 WT7  5508 TIP3 H1   HT     0.417000        1.0080           0
  113454 WT7  5508 TIP3 H2   HT     0.417000        1.0080           0
  113455 WT7  5511 TIP3 OH2  OT    -0.834000       15.9994           0
  113456 WT7  5511 TIP3 H1   HT     0.417000        1.0080           0
  113457 WT7  5511 TIP3 H2   HT     0.417000        1.0080           0
  113458 WT7  5514 TIP3 OH2  OT    -0.834000       15.9994           0
  113459 WT7  5514 TIP3 H1   HT     0.417000        1.0080           0
  113460 WT7  5514 TIP3 H2   HT     0.417000        1.0080           0
  113461 WT7  5518 TIP3 OH2  OT    -0.834000       15.9994           0
  113462 WT7  5518 TIP3 H1   HT     0.417000        1.0080           0
  113463 WT7  5518 TIP3 H2   HT     0.417000        1.0080           0
  113464 WT7  5520 TIP3 OH2  OT    -0.834000       15.9994           0
  113465 WT7  5520 TIP3 H1   HT     0.417000        1.0080           0
  113466 WT7  5520 TIP3 H2   HT     0.417000        1.0080           0
  113467 WT7  5522 TIP3 OH2  OT    -0.834000       15.9994           0
  113468 WT7  5522 TIP3 H1   HT     0.417000        1.0080           0
  113469 WT7  5522 TIP3 H2   HT     0.417000        1.0080           0
  113470 WT7  5523 TIP3 OH2  OT    -0.834000       15.9994           0
  113471 WT7  5523 TIP3 H1   HT     0.417000        1.0080           0
  113472 WT7  5523 TIP3 H2   HT     0.417000        1.0080           0
  113473 WT7  5528 TIP3 OH2  OT    -0.834000       15.9994           0
  113474 WT7  5528 TIP3 H1   HT     0.417000        1.0080           0
  113475 WT7  5528 TIP3 H2   HT     0.417000        1.0080           0
  113476 WT7  5530 TIP3 OH2  OT    -0.834000       15.9994           0
  113477 WT7  5530 TIP3 H1   HT     0.417000        1.0080           0
  113478 WT7  5530 TIP3 H2   HT     0.417000        1.0080           0
  113479 WT7  5531 TIP3 OH2  OT    -0.834000       15.9994           0
  113480 WT7  5531 TIP3 H1   HT     0.417000        1.0080           0
  113481 WT7  5531 TIP3 H2   HT     0.417000        1.0080           0
  113482 WT7  5532 TIP3 OH2  OT    -0.834000       15.9994           0
  113483 WT7  5532 TIP3 H1   HT     0.417000        1.0080           0
  113484 WT7  5532 TIP3 H2   HT     0.417000        1.0080           0
  113485 WT7  5535 TIP3 OH2  OT    -0.834000       15.9994           0
  113486 WT7  5535 TIP3 H1   HT     0.417000        1.0080           0
  113487 WT7  5535 TIP3 H2   HT     0.417000        1.0080           0
  113488 WT7  5537 TIP3 OH2  OT    -0.834000       15.9994           0
  113489 WT7  5537 TIP3 H1   HT     0.417000        1.0080           0
  113490 WT7  5537 TIP3 H2   HT     0.417000        1.0080           0
  113491 WT7  5539 TIP3 OH2  OT    -0.834000       15.9994           0
  113492 WT7  5539 TIP3 H1   HT     0.417000        1.0080           0
  113493 WT7  5539 TIP3 H2   HT     0.417000        1.0080           0
  113494 WT7  5540 TIP3 OH2  OT    -0.834000       15.9994           0
  113495 WT7  5540 TIP3 H1   HT     0.417000        1.0080           0
  113496 WT7  5540 TIP3 H2   HT     0.417000        1.0080           0
  113497 WT7  5545 TIP3 OH2  OT    -0.834000       15.9994           0
  113498 WT7  5545 TIP3 H1   HT     0.417000        1.0080           0
  113499 WT7  5545 TIP3 H2   HT     0.417000        1.0080           0
  113500 WT7  5549 TIP3 OH2  OT    -0.834000       15.9994           0
  113501 WT7  5549 TIP3 H1   HT     0.417000        1.0080           0
  113502 WT7  5549 TIP3 H2   HT     0.417000        1.0080           0
  113503 WT7  5550 TIP3 OH2  OT    -0.834000       15.9994           0
  113504 WT7  5550 TIP3 H1   HT     0.417000        1.0080           0
  113505 WT7  5550 TIP3 H2   HT     0.417000        1.0080           0
  113506 WT7  5551 TIP3 OH2  OT    -0.834000       15.9994           0
  113507 WT7  5551 TIP3 H1   HT     0.417000        1.0080           0
  113508 WT7  5551 TIP3 H2   HT     0.417000        1.0080           0
  113509 WT7  5552 TIP3 OH2  OT    -0.834000       15.9994           0
  113510 WT7  5552 TIP3 H1   HT     0.417000        1.0080           0
  113511 WT7  5552 TIP3 H2   HT     0.417000        1.0080           0
  113512 WT7  5555 TIP3 OH2  OT    -0.834000       15.9994           0
  113513 WT7  5555 TIP3 H1   HT     0.417000        1.0080           0
  113514 WT7  5555 TIP3 H2   HT     0.417000        1.0080           0
  113515 WT7  5557 TIP3 OH2  OT    -0.834000       15.9994           0
  113516 WT7  5557 TIP3 H1   HT     0.417000        1.0080           0
  113517 WT7  5557 TIP3 H2   HT     0.417000        1.0080           0
  113518 WT7  5560 TIP3 OH2  OT    -0.834000       15.9994           0
  113519 WT7  5560 TIP3 H1   HT     0.417000        1.0080           0
  113520 WT7  5560 TIP3 H2   HT     0.417000        1.0080           0
  113521 WT7  5561 TIP3 OH2  OT    -0.834000       15.9994           0
  113522 WT7  5561 TIP3 H1   HT     0.417000        1.0080           0
  113523 WT7  5561 TIP3 H2   HT     0.417000        1.0080           0
  113524 WT7  5565 TIP3 OH2  OT    -0.834000       15.9994           0
  113525 WT7  5565 TIP3 H1   HT     0.417000        1.0080           0
  113526 WT7  5565 TIP3 H2   HT     0.417000        1.0080           0
  113527 WT7  5566 TIP3 OH2  OT    -0.834000       15.9994           0
  113528 WT7  5566 TIP3 H1   HT     0.417000        1.0080           0
  113529 WT7  5566 TIP3 H2   HT     0.417000        1.0080           0
  113530 WT7  5568 TIP3 OH2  OT    -0.834000       15.9994           0
  113531 WT7  5568 TIP3 H1   HT     0.417000        1.0080           0
  113532 WT7  5568 TIP3 H2   HT     0.417000        1.0080           0
  113533 WT7  5570 TIP3 OH2  OT    -0.834000       15.9994           0
  113534 WT7  5570 TIP3 H1   HT     0.417000        1.0080           0
  113535 WT7  5570 TIP3 H2   HT     0.417000        1.0080           0
  113536 WT7  5571 TIP3 OH2  OT    -0.834000       15.9994           0
  113537 WT7  5571 TIP3 H1   HT     0.417000        1.0080           0
  113538 WT7  5571 TIP3 H2   HT     0.417000        1.0080           0
  113539 WT7  5572 TIP3 OH2  OT    -0.834000       15.9994           0
  113540 WT7  5572 TIP3 H1   HT     0.417000        1.0080           0
  113541 WT7  5572 TIP3 H2   HT     0.417000        1.0080           0
  113542 WT7  5575 TIP3 OH2  OT    -0.834000       15.9994           0
  113543 WT7  5575 TIP3 H1   HT     0.417000        1.0080           0
  113544 WT7  5575 TIP3 H2   HT     0.417000        1.0080           0
  113545 WT7  5582 TIP3 OH2  OT    -0.834000       15.9994           0
  113546 WT7  5582 TIP3 H1   HT     0.417000        1.0080           0
  113547 WT7  5582 TIP3 H2   HT     0.417000        1.0080           0
  113548 WT7  5591 TIP3 OH2  OT    -0.834000       15.9994           0
  113549 WT7  5591 TIP3 H1   HT     0.417000        1.0080           0
  113550 WT7  5591 TIP3 H2   HT     0.417000        1.0080           0
  113551 WT7  5594 TIP3 OH2  OT    -0.834000       15.9994           0
  113552 WT7  5594 TIP3 H1   HT     0.417000        1.0080           0
  113553 WT7  5594 TIP3 H2   HT     0.417000        1.0080           0
  113554 WT7  5598 TIP3 OH2  OT    -0.834000       15.9994           0
  113555 WT7  5598 TIP3 H1   HT     0.417000        1.0080           0
  113556 WT7  5598 TIP3 H2   HT     0.417000        1.0080           0
  113557 WT7  5599 TIP3 OH2  OT    -0.834000       15.9994           0
  113558 WT7  5599 TIP3 H1   HT     0.417000        1.0080           0
  113559 WT7  5599 TIP3 H2   HT     0.417000        1.0080           0
  113560 WT7  5602 TIP3 OH2  OT    -0.834000       15.9994           0
  113561 WT7  5602 TIP3 H1   HT     0.417000        1.0080           0
  113562 WT7  5602 TIP3 H2   HT     0.417000        1.0080           0
  113563 WT7  5607 TIP3 OH2  OT    -0.834000       15.9994           0
  113564 WT7  5607 TIP3 H1   HT     0.417000        1.0080           0
  113565 WT7  5607 TIP3 H2   HT     0.417000        1.0080           0
  113566 WT7  5609 TIP3 OH2  OT    -0.834000       15.9994           0
  113567 WT7  5609 TIP3 H1   HT     0.417000        1.0080           0
  113568 WT7  5609 TIP3 H2   HT     0.417000        1.0080           0
  113569 WT7  5610 TIP3 OH2  OT    -0.834000       15.9994           0
  113570 WT7  5610 TIP3 H1   HT     0.417000        1.0080           0
  113571 WT7  5610 TIP3 H2   HT     0.417000        1.0080           0
  113572 WT7  5613 TIP3 OH2  OT    -0.834000       15.9994           0
  113573 WT7  5613 TIP3 H1   HT     0.417000        1.0080           0
  113574 WT7  5613 TIP3 H2   HT     0.417000        1.0080           0
  113575 WT7  5628 TIP3 OH2  OT    -0.834000       15.9994           0
  113576 WT7  5628 TIP3 H1   HT     0.417000        1.0080           0
  113577 WT7  5628 TIP3 H2   HT     0.417000        1.0080           0
  113578 WT7  5638 TIP3 OH2  OT    -0.834000       15.9994           0
  113579 WT7  5638 TIP3 H1   HT     0.417000        1.0080           0
  113580 WT7  5638 TIP3 H2   HT     0.417000        1.0080           0
  113581 WT7  5640 TIP3 OH2  OT    -0.834000       15.9994           0
  113582 WT7  5640 TIP3 H1   HT     0.417000        1.0080           0
  113583 WT7  5640 TIP3 H2   HT     0.417000        1.0080           0
  113584 WT7  5646 TIP3 OH2  OT    -0.834000       15.9994           0
  113585 WT7  5646 TIP3 H1   HT     0.417000        1.0080           0
  113586 WT7  5646 TIP3 H2   HT     0.417000        1.0080           0
  113587 WT7  5669 TIP3 OH2  OT    -0.834000       15.9994           0
  113588 WT7  5669 TIP3 H1   HT     0.417000        1.0080           0
  113589 WT7  5669 TIP3 H2   HT     0.417000        1.0080           0
  113590 WT7  5676 TIP3 OH2  OT    -0.834000       15.9994           0
  113591 WT7  5676 TIP3 H1   HT     0.417000        1.0080           0
  113592 WT7  5676 TIP3 H2   HT     0.417000        1.0080           0
  113593 WT7  5679 TIP3 OH2  OT    -0.834000       15.9994           0
  113594 WT7  5679 TIP3 H1   HT     0.417000        1.0080           0
  113595 WT7  5679 TIP3 H2   HT     0.417000        1.0080           0
  113596 WT7  5690 TIP3 OH2  OT    -0.834000       15.9994           0
  113597 WT7  5690 TIP3 H1   HT     0.417000        1.0080           0
  113598 WT7  5690 TIP3 H2   HT     0.417000        1.0080           0
  113599 WT7  5710 TIP3 OH2  OT    -0.834000       15.9994           0
  113600 WT7  5710 TIP3 H1   HT     0.417000        1.0080           0
  113601 WT7  5710 TIP3 H2   HT     0.417000        1.0080           0
  113602 WT7  5713 TIP3 OH2  OT    -0.834000       15.9994           0
  113603 WT7  5713 TIP3 H1   HT     0.417000        1.0080           0
  113604 WT7  5713 TIP3 H2   HT     0.417000        1.0080           0
  113605 WT7  5714 TIP3 OH2  OT    -0.834000       15.9994           0
  113606 WT7  5714 TIP3 H1   HT     0.417000        1.0080           0
  113607 WT7  5714 TIP3 H2   HT     0.417000        1.0080           0
  113608 WT7  5715 TIP3 OH2  OT    -0.834000       15.9994           0
  113609 WT7  5715 TIP3 H1   HT     0.417000        1.0080           0
  113610 WT7  5715 TIP3 H2   HT     0.417000        1.0080           0
  113611 WT7  5719 TIP3 OH2  OT    -0.834000       15.9994           0
  113612 WT7  5719 TIP3 H1   HT     0.417000        1.0080           0
  113613 WT7  5719 TIP3 H2   HT     0.417000        1.0080           0
  113614 WT7  5720 TIP3 OH2  OT    -0.834000       15.9994           0
  113615 WT7  5720 TIP3 H1   HT     0.417000        1.0080           0
  113616 WT7  5720 TIP3 H2   HT     0.417000        1.0080           0
  113617 WT7  5723 TIP3 OH2  OT    -0.834000       15.9994           0
  113618 WT7  5723 TIP3 H1   HT     0.417000        1.0080           0
  113619 WT7  5723 TIP3 H2   HT     0.417000        1.0080           0
  113620 WT7  5733 TIP3 OH2  OT    -0.834000       15.9994           0
  113621 WT7  5733 TIP3 H1   HT     0.417000        1.0080           0
  113622 WT7  5733 TIP3 H2   HT     0.417000        1.0080           0
  113623 WT7  5734 TIP3 OH2  OT    -0.834000       15.9994           0
  113624 WT7  5734 TIP3 H1   HT     0.417000        1.0080           0
  113625 WT7  5734 TIP3 H2   HT     0.417000        1.0080           0
  113626 WT7  5736 TIP3 OH2  OT    -0.834000       15.9994           0
  113627 WT7  5736 TIP3 H1   HT     0.417000        1.0080           0
  113628 WT7  5736 TIP3 H2   HT     0.417000        1.0080           0
  113629 WT7  5741 TIP3 OH2  OT    -0.834000       15.9994           0
  113630 WT7  5741 TIP3 H1   HT     0.417000        1.0080           0
  113631 WT7  5741 TIP3 H2   HT     0.417000        1.0080           0
  113632 WT7  5750 TIP3 OH2  OT    -0.834000       15.9994           0
  113633 WT7  5750 TIP3 H1   HT     0.417000        1.0080           0
  113634 WT7  5750 TIP3 H2   HT     0.417000        1.0080           0
  113635 WT7  5753 TIP3 OH2  OT    -0.834000       15.9994           0
  113636 WT7  5753 TIP3 H1   HT     0.417000        1.0080           0
  113637 WT7  5753 TIP3 H2   HT     0.417000        1.0080           0
  113638 WT7  5755 TIP3 OH2  OT    -0.834000       15.9994           0
  113639 WT7  5755 TIP3 H1   HT     0.417000        1.0080           0
  113640 WT7  5755 TIP3 H2   HT     0.417000        1.0080           0
  113641 WT7  5756 TIP3 OH2  OT    -0.834000       15.9994           0
  113642 WT7  5756 TIP3 H1   HT     0.417000        1.0080           0
  113643 WT7  5756 TIP3 H2   HT     0.417000        1.0080           0
  113644 WT7  5758 TIP3 OH2  OT    -0.834000       15.9994           0
  113645 WT7  5758 TIP3 H1   HT     0.417000        1.0080           0
  113646 WT7  5758 TIP3 H2   HT     0.417000        1.0080           0
  113647 WT7  5760 TIP3 OH2  OT    -0.834000       15.9994           0
  113648 WT7  5760 TIP3 H1   HT     0.417000        1.0080           0
  113649 WT7  5760 TIP3 H2   HT     0.417000        1.0080           0
  113650 WT7  5762 TIP3 OH2  OT    -0.834000       15.9994           0
  113651 WT7  5762 TIP3 H1   HT     0.417000        1.0080           0
  113652 WT7  5762 TIP3 H2   HT     0.417000        1.0080           0
  113653 WT7  5765 TIP3 OH2  OT    -0.834000       15.9994           0
  113654 WT7  5765 TIP3 H1   HT     0.417000        1.0080           0
  113655 WT7  5765 TIP3 H2   HT     0.417000        1.0080           0
  113656 WT7  5767 TIP3 OH2  OT    -0.834000       15.9994           0
  113657 WT7  5767 TIP3 H1   HT     0.417000        1.0080           0
  113658 WT7  5767 TIP3 H2   HT     0.417000        1.0080           0
  113659 WT7  5768 TIP3 OH2  OT    -0.834000       15.9994           0
  113660 WT7  5768 TIP3 H1   HT     0.417000        1.0080           0
  113661 WT7  5768 TIP3 H2   HT     0.417000        1.0080           0
  113662 WT7  5772 TIP3 OH2  OT    -0.834000       15.9994           0
  113663 WT7  5772 TIP3 H1   HT     0.417000        1.0080           0
  113664 WT7  5772 TIP3 H2   HT     0.417000        1.0080           0
  113665 WT7  5777 TIP3 OH2  OT    -0.834000       15.9994           0
  113666 WT7  5777 TIP3 H1   HT     0.417000        1.0080           0
  113667 WT7  5777 TIP3 H2   HT     0.417000        1.0080           0
  113668 WT7  5780 TIP3 OH2  OT    -0.834000       15.9994           0
  113669 WT7  5780 TIP3 H1   HT     0.417000        1.0080           0
  113670 WT7  5780 TIP3 H2   HT     0.417000        1.0080           0
  113671 WT7  5782 TIP3 OH2  OT    -0.834000       15.9994           0
  113672 WT7  5782 TIP3 H1   HT     0.417000        1.0080           0
  113673 WT7  5782 TIP3 H2   HT     0.417000        1.0080           0
  113674 WT7  5783 TIP3 OH2  OT    -0.834000       15.9994           0
  113675 WT7  5783 TIP3 H1   HT     0.417000        1.0080           0
  113676 WT7  5783 TIP3 H2   HT     0.417000        1.0080           0
  113677 WT7  5784 TIP3 OH2  OT    -0.834000       15.9994           0
  113678 WT7  5784 TIP3 H1   HT     0.417000        1.0080           0
  113679 WT7  5784 TIP3 H2   HT     0.417000        1.0080           0
  113680 WT7  5785 TIP3 OH2  OT    -0.834000       15.9994           0
  113681 WT7  5785 TIP3 H1   HT     0.417000        1.0080           0
  113682 WT7  5785 TIP3 H2   HT     0.417000        1.0080           0
  113683 WT7  5786 TIP3 OH2  OT    -0.834000       15.9994           0
  113684 WT7  5786 TIP3 H1   HT     0.417000        1.0080           0
  113685 WT7  5786 TIP3 H2   HT     0.417000        1.0080           0
  113686 WT7  5787 TIP3 OH2  OT    -0.834000       15.9994           0
  113687 WT7  5787 TIP3 H1   HT     0.417000        1.0080           0
  113688 WT7  5787 TIP3 H2   HT     0.417000        1.0080           0
  113689 WT7  5788 TIP3 OH2  OT    -0.834000       15.9994           0
  113690 WT7  5788 TIP3 H1   HT     0.417000        1.0080           0
  113691 WT7  5788 TIP3 H2   HT     0.417000        1.0080           0
  113692 WT7  5790 TIP3 OH2  OT    -0.834000       15.9994           0
  113693 WT7  5790 TIP3 H1   HT     0.417000        1.0080           0
  113694 WT7  5790 TIP3 H2   HT     0.417000        1.0080           0
  113695 WT7  5791 TIP3 OH2  OT    -0.834000       15.9994           0
  113696 WT7  5791 TIP3 H1   HT     0.417000        1.0080           0
  113697 WT7  5791 TIP3 H2   HT     0.417000        1.0080           0
  113698 WT7  5794 TIP3 OH2  OT    -0.834000       15.9994           0
  113699 WT7  5794 TIP3 H1   HT     0.417000        1.0080           0
  113700 WT7  5794 TIP3 H2   HT     0.417000        1.0080           0
  113701 WT7  5795 TIP3 OH2  OT    -0.834000       15.9994           0
  113702 WT7  5795 TIP3 H1   HT     0.417000        1.0080           0
  113703 WT7  5795 TIP3 H2   HT     0.417000        1.0080           0
  113704 WT7  5796 TIP3 OH2  OT    -0.834000       15.9994           0
  113705 WT7  5796 TIP3 H1   HT     0.417000        1.0080           0
  113706 WT7  5796 TIP3 H2   HT     0.417000        1.0080           0
  113707 WT7  5797 TIP3 OH2  OT    -0.834000       15.9994           0
  113708 WT7  5797 TIP3 H1   HT     0.417000        1.0080           0
  113709 WT7  5797 TIP3 H2   HT     0.417000        1.0080           0
  113710 WT7  5799 TIP3 OH2  OT    -0.834000       15.9994           0
  113711 WT7  5799 TIP3 H1   HT     0.417000        1.0080           0
  113712 WT7  5799 TIP3 H2   HT     0.417000        1.0080           0
  113713 WT7  5803 TIP3 OH2  OT    -0.834000       15.9994           0
  113714 WT7  5803 TIP3 H1   HT     0.417000        1.0080           0
  113715 WT7  5803 TIP3 H2   HT     0.417000        1.0080           0
  113716 WT7  5804 TIP3 OH2  OT    -0.834000       15.9994           0
  113717 WT7  5804 TIP3 H1   HT     0.417000        1.0080           0
  113718 WT7  5804 TIP3 H2   HT     0.417000        1.0080           0
  113719 WT7  5805 TIP3 OH2  OT    -0.834000       15.9994           0
  113720 WT7  5805 TIP3 H1   HT     0.417000        1.0080           0
  113721 WT7  5805 TIP3 H2   HT     0.417000        1.0080           0
  113722 WT7  5806 TIP3 OH2  OT    -0.834000       15.9994           0
  113723 WT7  5806 TIP3 H1   HT     0.417000        1.0080           0
  113724 WT7  5806 TIP3 H2   HT     0.417000        1.0080           0
  113725 WT7  5807 TIP3 OH2  OT    -0.834000       15.9994           0
  113726 WT7  5807 TIP3 H1   HT     0.417000        1.0080           0
  113727 WT7  5807 TIP3 H2   HT     0.417000        1.0080           0
  113728 WT7  5808 TIP3 OH2  OT    -0.834000       15.9994           0
  113729 WT7  5808 TIP3 H1   HT     0.417000        1.0080           0
  113730 WT7  5808 TIP3 H2   HT     0.417000        1.0080           0
  113731 WT7  5810 TIP3 OH2  OT    -0.834000       15.9994           0
  113732 WT7  5810 TIP3 H1   HT     0.417000        1.0080           0
  113733 WT7  5810 TIP3 H2   HT     0.417000        1.0080           0
  113734 WT7  5812 TIP3 OH2  OT    -0.834000       15.9994           0
  113735 WT7  5812 TIP3 H1   HT     0.417000        1.0080           0
  113736 WT7  5812 TIP3 H2   HT     0.417000        1.0080           0
  113737 WT7  5814 TIP3 OH2  OT    -0.834000       15.9994           0
  113738 WT7  5814 TIP3 H1   HT     0.417000        1.0080           0
  113739 WT7  5814 TIP3 H2   HT     0.417000        1.0080           0
  113740 WT7  5818 TIP3 OH2  OT    -0.834000       15.9994           0
  113741 WT7  5818 TIP3 H1   HT     0.417000        1.0080           0
  113742 WT7  5818 TIP3 H2   HT     0.417000        1.0080           0
  113743 WT7  5820 TIP3 OH2  OT    -0.834000       15.9994           0
  113744 WT7  5820 TIP3 H1   HT     0.417000        1.0080           0
  113745 WT7  5820 TIP3 H2   HT     0.417000        1.0080           0
  113746 WT7  5821 TIP3 OH2  OT    -0.834000       15.9994           0
  113747 WT7  5821 TIP3 H1   HT     0.417000        1.0080           0
  113748 WT7  5821 TIP3 H2   HT     0.417000        1.0080           0
  113749 WT7  5823 TIP3 OH2  OT    -0.834000       15.9994           0
  113750 WT7  5823 TIP3 H1   HT     0.417000        1.0080           0
  113751 WT7  5823 TIP3 H2   HT     0.417000        1.0080           0
  113752 WT7  5824 TIP3 OH2  OT    -0.834000       15.9994           0
  113753 WT7  5824 TIP3 H1   HT     0.417000        1.0080           0
  113754 WT7  5824 TIP3 H2   HT     0.417000        1.0080           0
  113755 WT7  5826 TIP3 OH2  OT    -0.834000       15.9994           0
  113756 WT7  5826 TIP3 H1   HT     0.417000        1.0080           0
  113757 WT7  5826 TIP3 H2   HT     0.417000        1.0080           0
  113758 WT7  5827 TIP3 OH2  OT    -0.834000       15.9994           0
  113759 WT7  5827 TIP3 H1   HT     0.417000        1.0080           0
  113760 WT7  5827 TIP3 H2   HT     0.417000        1.0080           0
  113761 WT7  5829 TIP3 OH2  OT    -0.834000       15.9994           0
  113762 WT7  5829 TIP3 H1   HT     0.417000        1.0080           0
  113763 WT7  5829 TIP3 H2   HT     0.417000        1.0080           0
  113764 WT7  5830 TIP3 OH2  OT    -0.834000       15.9994           0
  113765 WT7  5830 TIP3 H1   HT     0.417000        1.0080           0
  113766 WT7  5830 TIP3 H2   HT     0.417000        1.0080           0
  113767 WT7  5832 TIP3 OH2  OT    -0.834000       15.9994           0
  113768 WT7  5832 TIP3 H1   HT     0.417000        1.0080           0
  113769 WT7  5832 TIP3 H2   HT     0.417000        1.0080           0
  113770 WT7  5834 TIP3 OH2  OT    -0.834000       15.9994           0
  113771 WT7  5834 TIP3 H1   HT     0.417000        1.0080           0
  113772 WT7  5834 TIP3 H2   HT     0.417000        1.0080           0
  113773 WT7  5835 TIP3 OH2  OT    -0.834000       15.9994           0
  113774 WT7  5835 TIP3 H1   HT     0.417000        1.0080           0
  113775 WT7  5835 TIP3 H2   HT     0.417000        1.0080           0
  113776 WT7  5839 TIP3 OH2  OT    -0.834000       15.9994           0
  113777 WT7  5839 TIP3 H1   HT     0.417000        1.0080           0
  113778 WT7  5839 TIP3 H2   HT     0.417000        1.0080           0
  113779 WT7  5840 TIP3 OH2  OT    -0.834000       15.9994           0
  113780 WT7  5840 TIP3 H1   HT     0.417000        1.0080           0
  113781 WT7  5840 TIP3 H2   HT     0.417000        1.0080           0
  113782 WT7  5841 TIP3 OH2  OT    -0.834000       15.9994           0
  113783 WT7  5841 TIP3 H1   HT     0.417000        1.0080           0
  113784 WT7  5841 TIP3 H2   HT     0.417000        1.0080           0
  113785 WT7  5842 TIP3 OH2  OT    -0.834000       15.9994           0
  113786 WT7  5842 TIP3 H1   HT     0.417000        1.0080           0
  113787 WT7  5842 TIP3 H2   HT     0.417000        1.0080           0
  113788 WT7  5844 TIP3 OH2  OT    -0.834000       15.9994           0
  113789 WT7  5844 TIP3 H1   HT     0.417000        1.0080           0
  113790 WT7  5844 TIP3 H2   HT     0.417000        1.0080           0
  113791 WT7  5845 TIP3 OH2  OT    -0.834000       15.9994           0
  113792 WT7  5845 TIP3 H1   HT     0.417000        1.0080           0
  113793 WT7  5845 TIP3 H2   HT     0.417000        1.0080           0
  113794 WT7  5846 TIP3 OH2  OT    -0.834000       15.9994           0
  113795 WT7  5846 TIP3 H1   HT     0.417000        1.0080           0
  113796 WT7  5846 TIP3 H2   HT     0.417000        1.0080           0
  113797 WT7  5847 TIP3 OH2  OT    -0.834000       15.9994           0
  113798 WT7  5847 TIP3 H1   HT     0.417000        1.0080           0
  113799 WT7  5847 TIP3 H2   HT     0.417000        1.0080           0
  113800 WT7  5849 TIP3 OH2  OT    -0.834000       15.9994           0
  113801 WT7  5849 TIP3 H1   HT     0.417000        1.0080           0
  113802 WT7  5849 TIP3 H2   HT     0.417000        1.0080           0
  113803 WT7  5855 TIP3 OH2  OT    -0.834000       15.9994           0
  113804 WT7  5855 TIP3 H1   HT     0.417000        1.0080           0
  113805 WT7  5855 TIP3 H2   HT     0.417000        1.0080           0
  113806 WT7  5860 TIP3 OH2  OT    -0.834000       15.9994           0
  113807 WT7  5860 TIP3 H1   HT     0.417000        1.0080           0
  113808 WT7  5860 TIP3 H2   HT     0.417000        1.0080           0
  113809 WT7  5861 TIP3 OH2  OT    -0.834000       15.9994           0
  113810 WT7  5861 TIP3 H1   HT     0.417000        1.0080           0
  113811 WT7  5861 TIP3 H2   HT     0.417000        1.0080           0
  113812 WT7  5862 TIP3 OH2  OT    -0.834000       15.9994           0
  113813 WT7  5862 TIP3 H1   HT     0.417000        1.0080           0
  113814 WT7  5862 TIP3 H2   HT     0.417000        1.0080           0
  113815 WT7  5864 TIP3 OH2  OT    -0.834000       15.9994           0
  113816 WT7  5864 TIP3 H1   HT     0.417000        1.0080           0
  113817 WT7  5864 TIP3 H2   HT     0.417000        1.0080           0
  113818 WT7  5865 TIP3 OH2  OT    -0.834000       15.9994           0
  113819 WT7  5865 TIP3 H1   HT     0.417000        1.0080           0
  113820 WT7  5865 TIP3 H2   HT     0.417000        1.0080           0
  113821 WT7  5867 TIP3 OH2  OT    -0.834000       15.9994           0
  113822 WT7  5867 TIP3 H1   HT     0.417000        1.0080           0
  113823 WT7  5867 TIP3 H2   HT     0.417000        1.0080           0
  113824 WT7  5868 TIP3 OH2  OT    -0.834000       15.9994           0
  113825 WT7  5868 TIP3 H1   HT     0.417000        1.0080           0
  113826 WT7  5868 TIP3 H2   HT     0.417000        1.0080           0
  113827 WT7  5869 TIP3 OH2  OT    -0.834000       15.9994           0
  113828 WT7  5869 TIP3 H1   HT     0.417000        1.0080           0
  113829 WT7  5869 TIP3 H2   HT     0.417000        1.0080           0
  113830 WT7  5870 TIP3 OH2  OT    -0.834000       15.9994           0
  113831 WT7  5870 TIP3 H1   HT     0.417000        1.0080           0
  113832 WT7  5870 TIP3 H2   HT     0.417000        1.0080           0
  113833 WT7  5873 TIP3 OH2  OT    -0.834000       15.9994           0
  113834 WT7  5873 TIP3 H1   HT     0.417000        1.0080           0
  113835 WT7  5873 TIP3 H2   HT     0.417000        1.0080           0
  113836 WT7  5874 TIP3 OH2  OT    -0.834000       15.9994           0
  113837 WT7  5874 TIP3 H1   HT     0.417000        1.0080           0
  113838 WT7  5874 TIP3 H2   HT     0.417000        1.0080           0
  113839 WT7  5878 TIP3 OH2  OT    -0.834000       15.9994           0
  113840 WT7  5878 TIP3 H1   HT     0.417000        1.0080           0
  113841 WT7  5878 TIP3 H2   HT     0.417000        1.0080           0
  113842 WT7  5879 TIP3 OH2  OT    -0.834000       15.9994           0
  113843 WT7  5879 TIP3 H1   HT     0.417000        1.0080           0
  113844 WT7  5879 TIP3 H2   HT     0.417000        1.0080           0
  113845 WT7  5881 TIP3 OH2  OT    -0.834000       15.9994           0
  113846 WT7  5881 TIP3 H1   HT     0.417000        1.0080           0
  113847 WT7  5881 TIP3 H2   HT     0.417000        1.0080           0
  113848 WT7  5884 TIP3 OH2  OT    -0.834000       15.9994           0
  113849 WT7  5884 TIP3 H1   HT     0.417000        1.0080           0
  113850 WT7  5884 TIP3 H2   HT     0.417000        1.0080           0
  113851 WT7  5889 TIP3 OH2  OT    -0.834000       15.9994           0
  113852 WT7  5889 TIP3 H1   HT     0.417000        1.0080           0
  113853 WT7  5889 TIP3 H2   HT     0.417000        1.0080           0
  113854 WT7  5890 TIP3 OH2  OT    -0.834000       15.9994           0
  113855 WT7  5890 TIP3 H1   HT     0.417000        1.0080           0
  113856 WT7  5890 TIP3 H2   HT     0.417000        1.0080           0
  113857 WT7  5891 TIP3 OH2  OT    -0.834000       15.9994           0
  113858 WT7  5891 TIP3 H1   HT     0.417000        1.0080           0
  113859 WT7  5891 TIP3 H2   HT     0.417000        1.0080           0
  113860 WT7  5892 TIP3 OH2  OT    -0.834000       15.9994           0
  113861 WT7  5892 TIP3 H1   HT     0.417000        1.0080           0
  113862 WT7  5892 TIP3 H2   HT     0.417000        1.0080           0
  113863 WT7  5894 TIP3 OH2  OT    -0.834000       15.9994           0
  113864 WT7  5894 TIP3 H1   HT     0.417000        1.0080           0
  113865 WT7  5894 TIP3 H2   HT     0.417000        1.0080           0
  113866 WT7  5895 TIP3 OH2  OT    -0.834000       15.9994           0
  113867 WT7  5895 TIP3 H1   HT     0.417000        1.0080           0
  113868 WT7  5895 TIP3 H2   HT     0.417000        1.0080           0
  113869 WT7  5897 TIP3 OH2  OT    -0.834000       15.9994           0
  113870 WT7  5897 TIP3 H1   HT     0.417000        1.0080           0
  113871 WT7  5897 TIP3 H2   HT     0.417000        1.0080           0
  113872 WT7  5898 TIP3 OH2  OT    -0.834000       15.9994           0
  113873 WT7  5898 TIP3 H1   HT     0.417000        1.0080           0
  113874 WT7  5898 TIP3 H2   HT     0.417000        1.0080           0
  113875 WT7  5899 TIP3 OH2  OT    -0.834000       15.9994           0
  113876 WT7  5899 TIP3 H1   HT     0.417000        1.0080           0
  113877 WT7  5899 TIP3 H2   HT     0.417000        1.0080           0
  113878 WT7  5901 TIP3 OH2  OT    -0.834000       15.9994           0
  113879 WT7  5901 TIP3 H1   HT     0.417000        1.0080           0
  113880 WT7  5901 TIP3 H2   HT     0.417000        1.0080           0
  113881 WT7  5902 TIP3 OH2  OT    -0.834000       15.9994           0
  113882 WT7  5902 TIP3 H1   HT     0.417000        1.0080           0
  113883 WT7  5902 TIP3 H2   HT     0.417000        1.0080           0
  113884 WT7  5903 TIP3 OH2  OT    -0.834000       15.9994           0
  113885 WT7  5903 TIP3 H1   HT     0.417000        1.0080           0
  113886 WT7  5903 TIP3 H2   HT     0.417000        1.0080           0
  113887 WT7  5906 TIP3 OH2  OT    -0.834000       15.9994           0
  113888 WT7  5906 TIP3 H1   HT     0.417000        1.0080           0
  113889 WT7  5906 TIP3 H2   HT     0.417000        1.0080           0
  113890 WT7  5907 TIP3 OH2  OT    -0.834000       15.9994           0
  113891 WT7  5907 TIP3 H1   HT     0.417000        1.0080           0
  113892 WT7  5907 TIP3 H2   HT     0.417000        1.0080           0
  113893 WT7  5908 TIP3 OH2  OT    -0.834000       15.9994           0
  113894 WT7  5908 TIP3 H1   HT     0.417000        1.0080           0
  113895 WT7  5908 TIP3 H2   HT     0.417000        1.0080           0
  113896 WT7  5909 TIP3 OH2  OT    -0.834000       15.9994           0
  113897 WT7  5909 TIP3 H1   HT     0.417000        1.0080           0
  113898 WT7  5909 TIP3 H2   HT     0.417000        1.0080           0
  113899 WT7  5910 TIP3 OH2  OT    -0.834000       15.9994           0
  113900 WT7  5910 TIP3 H1   HT     0.417000        1.0080           0
  113901 WT7  5910 TIP3 H2   HT     0.417000        1.0080           0
  113902 WT7  5911 TIP3 OH2  OT    -0.834000       15.9994           0
  113903 WT7  5911 TIP3 H1   HT     0.417000        1.0080           0
  113904 WT7  5911 TIP3 H2   HT     0.417000        1.0080           0
  113905 WT7  5913 TIP3 OH2  OT    -0.834000       15.9994           0
  113906 WT7  5913 TIP3 H1   HT     0.417000        1.0080           0
  113907 WT7  5913 TIP3 H2   HT     0.417000        1.0080           0
  113908 WT7  5914 TIP3 OH2  OT    -0.834000       15.9994           0
  113909 WT7  5914 TIP3 H1   HT     0.417000        1.0080           0
  113910 WT7  5914 TIP3 H2   HT     0.417000        1.0080           0
  113911 WT7  5918 TIP3 OH2  OT    -0.834000       15.9994           0
  113912 WT7  5918 TIP3 H1   HT     0.417000        1.0080           0
  113913 WT7  5918 TIP3 H2   HT     0.417000        1.0080           0
  113914 WT7  5919 TIP3 OH2  OT    -0.834000       15.9994           0
  113915 WT7  5919 TIP3 H1   HT     0.417000        1.0080           0
  113916 WT7  5919 TIP3 H2   HT     0.417000        1.0080           0
  113917 WT7  5920 TIP3 OH2  OT    -0.834000       15.9994           0
  113918 WT7  5920 TIP3 H1   HT     0.417000        1.0080           0
  113919 WT7  5920 TIP3 H2   HT     0.417000        1.0080           0
  113920 WT7  5924 TIP3 OH2  OT    -0.834000       15.9994           0
  113921 WT7  5924 TIP3 H1   HT     0.417000        1.0080           0
  113922 WT7  5924 TIP3 H2   HT     0.417000        1.0080           0
  113923 WT7  5925 TIP3 OH2  OT    -0.834000       15.9994           0
  113924 WT7  5925 TIP3 H1   HT     0.417000        1.0080           0
  113925 WT7  5925 TIP3 H2   HT     0.417000        1.0080           0
  113926 WT7  5926 TIP3 OH2  OT    -0.834000       15.9994           0
  113927 WT7  5926 TIP3 H1   HT     0.417000        1.0080           0
  113928 WT7  5926 TIP3 H2   HT     0.417000        1.0080           0
  113929 WT7  5927 TIP3 OH2  OT    -0.834000       15.9994           0
  113930 WT7  5927 TIP3 H1   HT     0.417000        1.0080           0
  113931 WT7  5927 TIP3 H2   HT     0.417000        1.0080           0
  113932 WT7  5929 TIP3 OH2  OT    -0.834000       15.9994           0
  113933 WT7  5929 TIP3 H1   HT     0.417000        1.0080           0
  113934 WT7  5929 TIP3 H2   HT     0.417000        1.0080           0
  113935 WT7  5930 TIP3 OH2  OT    -0.834000       15.9994           0
  113936 WT7  5930 TIP3 H1   HT     0.417000        1.0080           0
  113937 WT7  5930 TIP3 H2   HT     0.417000        1.0080           0
  113938 WT7  5932 TIP3 OH2  OT    -0.834000       15.9994           0
  113939 WT7  5932 TIP3 H1   HT     0.417000        1.0080           0
  113940 WT7  5932 TIP3 H2   HT     0.417000        1.0080           0
  113941 WT7  5933 TIP3 OH2  OT    -0.834000       15.9994           0
  113942 WT7  5933 TIP3 H1   HT     0.417000        1.0080           0
  113943 WT7  5933 TIP3 H2   HT     0.417000        1.0080           0
  113944 WT7  5935 TIP3 OH2  OT    -0.834000       15.9994           0
  113945 WT7  5935 TIP3 H1   HT     0.417000        1.0080           0
  113946 WT7  5935 TIP3 H2   HT     0.417000        1.0080           0
  113947 WT7  5938 TIP3 OH2  OT    -0.834000       15.9994           0
  113948 WT7  5938 TIP3 H1   HT     0.417000        1.0080           0
  113949 WT7  5938 TIP3 H2   HT     0.417000        1.0080           0
  113950 WT7  5941 TIP3 OH2  OT    -0.834000       15.9994           0
  113951 WT7  5941 TIP3 H1   HT     0.417000        1.0080           0
  113952 WT7  5941 TIP3 H2   HT     0.417000        1.0080           0
  113953 WT7  5945 TIP3 OH2  OT    -0.834000       15.9994           0
  113954 WT7  5945 TIP3 H1   HT     0.417000        1.0080           0
  113955 WT7  5945 TIP3 H2   HT     0.417000        1.0080           0
  113956 WT7  5952 TIP3 OH2  OT    -0.834000       15.9994           0
  113957 WT7  5952 TIP3 H1   HT     0.417000        1.0080           0
  113958 WT7  5952 TIP3 H2   HT     0.417000        1.0080           0
  113959 WT7  5954 TIP3 OH2  OT    -0.834000       15.9994           0
  113960 WT7  5954 TIP3 H1   HT     0.417000        1.0080           0
  113961 WT7  5954 TIP3 H2   HT     0.417000        1.0080           0
  113962 WT7  5958 TIP3 OH2  OT    -0.834000       15.9994           0
  113963 WT7  5958 TIP3 H1   HT     0.417000        1.0080           0
  113964 WT7  5958 TIP3 H2   HT     0.417000        1.0080           0
  113965 WT7  5961 TIP3 OH2  OT    -0.834000       15.9994           0
  113966 WT7  5961 TIP3 H1   HT     0.417000        1.0080           0
  113967 WT7  5961 TIP3 H2   HT     0.417000        1.0080           0
  113968 WT7  5963 TIP3 OH2  OT    -0.834000       15.9994           0
  113969 WT7  5963 TIP3 H1   HT     0.417000        1.0080           0
  113970 WT7  5963 TIP3 H2   HT     0.417000        1.0080           0
  113971 WT7  5965 TIP3 OH2  OT    -0.834000       15.9994           0
  113972 WT7  5965 TIP3 H1   HT     0.417000        1.0080           0
  113973 WT7  5965 TIP3 H2   HT     0.417000        1.0080           0
  113974 WT7  5967 TIP3 OH2  OT    -0.834000       15.9994           0
  113975 WT7  5967 TIP3 H1   HT     0.417000        1.0080           0
  113976 WT7  5967 TIP3 H2   HT     0.417000        1.0080           0
  113977 WT7  5971 TIP3 OH2  OT    -0.834000       15.9994           0
  113978 WT7  5971 TIP3 H1   HT     0.417000        1.0080           0
  113979 WT7  5971 TIP3 H2   HT     0.417000        1.0080           0
  113980 WT7  5972 TIP3 OH2  OT    -0.834000       15.9994           0
  113981 WT7  5972 TIP3 H1   HT     0.417000        1.0080           0
  113982 WT7  5972 TIP3 H2   HT     0.417000        1.0080           0
  113983 WT7  5973 TIP3 OH2  OT    -0.834000       15.9994           0
  113984 WT7  5973 TIP3 H1   HT     0.417000        1.0080           0
  113985 WT7  5973 TIP3 H2   HT     0.417000        1.0080           0
  113986 WT7  5975 TIP3 OH2  OT    -0.834000       15.9994           0
  113987 WT7  5975 TIP3 H1   HT     0.417000        1.0080           0
  113988 WT7  5975 TIP3 H2   HT     0.417000        1.0080           0
  113989 WT7  5976 TIP3 OH2  OT    -0.834000       15.9994           0
  113990 WT7  5976 TIP3 H1   HT     0.417000        1.0080           0
  113991 WT7  5976 TIP3 H2   HT     0.417000        1.0080           0
  113992 WT7  5977 TIP3 OH2  OT    -0.834000       15.9994           0
  113993 WT7  5977 TIP3 H1   HT     0.417000        1.0080           0
  113994 WT7  5977 TIP3 H2   HT     0.417000        1.0080           0
  113995 WT7  5984 TIP3 OH2  OT    -0.834000       15.9994           0
  113996 WT7  5984 TIP3 H1   HT     0.417000        1.0080           0
  113997 WT7  5984 TIP3 H2   HT     0.417000        1.0080           0
  113998 WT7  5985 TIP3 OH2  OT    -0.834000       15.9994           0
  113999 WT7  5985 TIP3 H1   HT     0.417000        1.0080           0
  114000 WT7  5985 TIP3 H2   HT     0.417000        1.0080           0
  114001 WT7  5986 TIP3 OH2  OT    -0.834000       15.9994           0
  114002 WT7  5986 TIP3 H1   HT     0.417000        1.0080           0
  114003 WT7  5986 TIP3 H2   HT     0.417000        1.0080           0
  114004 WT7  5988 TIP3 OH2  OT    -0.834000       15.9994           0
  114005 WT7  5988 TIP3 H1   HT     0.417000        1.0080           0
  114006 WT7  5988 TIP3 H2   HT     0.417000        1.0080           0
  114007 WT7  5989 TIP3 OH2  OT    -0.834000       15.9994           0
  114008 WT7  5989 TIP3 H1   HT     0.417000        1.0080           0
  114009 WT7  5989 TIP3 H2   HT     0.417000        1.0080           0
  114010 WT7  5992 TIP3 OH2  OT    -0.834000       15.9994           0
  114011 WT7  5992 TIP3 H1   HT     0.417000        1.0080           0
  114012 WT7  5992 TIP3 H2   HT     0.417000        1.0080           0
  114013 WT7  5993 TIP3 OH2  OT    -0.834000       15.9994           0
  114014 WT7  5993 TIP3 H1   HT     0.417000        1.0080           0
  114015 WT7  5993 TIP3 H2   HT     0.417000        1.0080           0
  114016 WT7  5996 TIP3 OH2  OT    -0.834000       15.9994           0
  114017 WT7  5996 TIP3 H1   HT     0.417000        1.0080           0
  114018 WT7  5996 TIP3 H2   HT     0.417000        1.0080           0
  114019 WT7  6000 TIP3 OH2  OT    -0.834000       15.9994           0
  114020 WT7  6000 TIP3 H1   HT     0.417000        1.0080           0
  114021 WT7  6000 TIP3 H2   HT     0.417000        1.0080           0
  114022 WT7  6005 TIP3 OH2  OT    -0.834000       15.9994           0
  114023 WT7  6005 TIP3 H1   HT     0.417000        1.0080           0
  114024 WT7  6005 TIP3 H2   HT     0.417000        1.0080           0
  114025 WT7  6008 TIP3 OH2  OT    -0.834000       15.9994           0
  114026 WT7  6008 TIP3 H1   HT     0.417000        1.0080           0
  114027 WT7  6008 TIP3 H2   HT     0.417000        1.0080           0
  114028 WT7  6010 TIP3 OH2  OT    -0.834000       15.9994           0
  114029 WT7  6010 TIP3 H1   HT     0.417000        1.0080           0
  114030 WT7  6010 TIP3 H2   HT     0.417000        1.0080           0
  114031 WT7  6012 TIP3 OH2  OT    -0.834000       15.9994           0
  114032 WT7  6012 TIP3 H1   HT     0.417000        1.0080           0
  114033 WT7  6012 TIP3 H2   HT     0.417000        1.0080           0
  114034 WT7  6014 TIP3 OH2  OT    -0.834000       15.9994           0
  114035 WT7  6014 TIP3 H1   HT     0.417000        1.0080           0
  114036 WT7  6014 TIP3 H2   HT     0.417000        1.0080           0
  114037 WT7  6019 TIP3 OH2  OT    -0.834000       15.9994           0
  114038 WT7  6019 TIP3 H1   HT     0.417000        1.0080           0
  114039 WT7  6019 TIP3 H2   HT     0.417000        1.0080           0
  114040 WT7  6021 TIP3 OH2  OT    -0.834000       15.9994           0
  114041 WT7  6021 TIP3 H1   HT     0.417000        1.0080           0
  114042 WT7  6021 TIP3 H2   HT     0.417000        1.0080           0
  114043 WT7  6036 TIP3 OH2  OT    -0.834000       15.9994           0
  114044 WT7  6036 TIP3 H1   HT     0.417000        1.0080           0
  114045 WT7  6036 TIP3 H2   HT     0.417000        1.0080           0
  114046 WT7  6038 TIP3 OH2  OT    -0.834000       15.9994           0
  114047 WT7  6038 TIP3 H1   HT     0.417000        1.0080           0
  114048 WT7  6038 TIP3 H2   HT     0.417000        1.0080           0
  114049 WT7  6039 TIP3 OH2  OT    -0.834000       15.9994           0
  114050 WT7  6039 TIP3 H1   HT     0.417000        1.0080           0
  114051 WT7  6039 TIP3 H2   HT     0.417000        1.0080           0
  114052 WT7  6046 TIP3 OH2  OT    -0.834000       15.9994           0
  114053 WT7  6046 TIP3 H1   HT     0.417000        1.0080           0
  114054 WT7  6046 TIP3 H2   HT     0.417000        1.0080           0
  114055 WT7  6048 TIP3 OH2  OT    -0.834000       15.9994           0
  114056 WT7  6048 TIP3 H1   HT     0.417000        1.0080           0
  114057 WT7  6048 TIP3 H2   HT     0.417000        1.0080           0
  114058 WT7  6057 TIP3 OH2  OT    -0.834000       15.9994           0
  114059 WT7  6057 TIP3 H1   HT     0.417000        1.0080           0
  114060 WT7  6057 TIP3 H2   HT     0.417000        1.0080           0
  114061 WT7  6060 TIP3 OH2  OT    -0.834000       15.9994           0
  114062 WT7  6060 TIP3 H1   HT     0.417000        1.0080           0
  114063 WT7  6060 TIP3 H2   HT     0.417000        1.0080           0
  114064 WT7  6061 TIP3 OH2  OT    -0.834000       15.9994           0
  114065 WT7  6061 TIP3 H1   HT     0.417000        1.0080           0
  114066 WT7  6061 TIP3 H2   HT     0.417000        1.0080           0
  114067 WT7  6080 TIP3 OH2  OT    -0.834000       15.9994           0
  114068 WT7  6080 TIP3 H1   HT     0.417000        1.0080           0
  114069 WT7  6080 TIP3 H2   HT     0.417000        1.0080           0
  114070 WT7  6090 TIP3 OH2  OT    -0.834000       15.9994           0
  114071 WT7  6090 TIP3 H1   HT     0.417000        1.0080           0
  114072 WT7  6090 TIP3 H2   HT     0.417000        1.0080           0
  114073 WT7  6107 TIP3 OH2  OT    -0.834000       15.9994           0
  114074 WT7  6107 TIP3 H1   HT     0.417000        1.0080           0
  114075 WT7  6107 TIP3 H2   HT     0.417000        1.0080           0
  114076 WT7  6110 TIP3 OH2  OT    -0.834000       15.9994           0
  114077 WT7  6110 TIP3 H1   HT     0.417000        1.0080           0
  114078 WT7  6110 TIP3 H2   HT     0.417000        1.0080           0
  114079 WT7  6117 TIP3 OH2  OT    -0.834000       15.9994           0
  114080 WT7  6117 TIP3 H1   HT     0.417000        1.0080           0
  114081 WT7  6117 TIP3 H2   HT     0.417000        1.0080           0
  114082 WT7  6131 TIP3 OH2  OT    -0.834000       15.9994           0
  114083 WT7  6131 TIP3 H1   HT     0.417000        1.0080           0
  114084 WT7  6131 TIP3 H2   HT     0.417000        1.0080           0
  114085 WT7  6136 TIP3 OH2  OT    -0.834000       15.9994           0
  114086 WT7  6136 TIP3 H1   HT     0.417000        1.0080           0
  114087 WT7  6136 TIP3 H2   HT     0.417000        1.0080           0
  114088 WT7  6138 TIP3 OH2  OT    -0.834000       15.9994           0
  114089 WT7  6138 TIP3 H1   HT     0.417000        1.0080           0
  114090 WT7  6138 TIP3 H2   HT     0.417000        1.0080           0
  114091 WT7  6139 TIP3 OH2  OT    -0.834000       15.9994           0
  114092 WT7  6139 TIP3 H1   HT     0.417000        1.0080           0
  114093 WT7  6139 TIP3 H2   HT     0.417000        1.0080           0
  114094 WT7  6157 TIP3 OH2  OT    -0.834000       15.9994           0
  114095 WT7  6157 TIP3 H1   HT     0.417000        1.0080           0
  114096 WT7  6157 TIP3 H2   HT     0.417000        1.0080           0
  114097 WT7  6158 TIP3 OH2  OT    -0.834000       15.9994           0
  114098 WT7  6158 TIP3 H1   HT     0.417000        1.0080           0
  114099 WT7  6158 TIP3 H2   HT     0.417000        1.0080           0
  114100 WT7  6172 TIP3 OH2  OT    -0.834000       15.9994           0
  114101 WT7  6172 TIP3 H1   HT     0.417000        1.0080           0
  114102 WT7  6172 TIP3 H2   HT     0.417000        1.0080           0
  114103 WT7  6173 TIP3 OH2  OT    -0.834000       15.9994           0
  114104 WT7  6173 TIP3 H1   HT     0.417000        1.0080           0
  114105 WT7  6173 TIP3 H2   HT     0.417000        1.0080           0
  114106 WT7  6174 TIP3 OH2  OT    -0.834000       15.9994           0
  114107 WT7  6174 TIP3 H1   HT     0.417000        1.0080           0
  114108 WT7  6174 TIP3 H2   HT     0.417000        1.0080           0
  114109 WT7  6177 TIP3 OH2  OT    -0.834000       15.9994           0
  114110 WT7  6177 TIP3 H1   HT     0.417000        1.0080           0
  114111 WT7  6177 TIP3 H2   HT     0.417000        1.0080           0
  114112 WT7  6178 TIP3 OH2  OT    -0.834000       15.9994           0
  114113 WT7  6178 TIP3 H1   HT     0.417000        1.0080           0
  114114 WT7  6178 TIP3 H2   HT     0.417000        1.0080           0
  114115 WT7  6180 TIP3 OH2  OT    -0.834000       15.9994           0
  114116 WT7  6180 TIP3 H1   HT     0.417000        1.0080           0
  114117 WT7  6180 TIP3 H2   HT     0.417000        1.0080           0
  114118 WT7  6183 TIP3 OH2  OT    -0.834000       15.9994           0
  114119 WT7  6183 TIP3 H1   HT     0.417000        1.0080           0
  114120 WT7  6183 TIP3 H2   HT     0.417000        1.0080           0
  114121 WT7  6184 TIP3 OH2  OT    -0.834000       15.9994           0
  114122 WT7  6184 TIP3 H1   HT     0.417000        1.0080           0
  114123 WT7  6184 TIP3 H2   HT     0.417000        1.0080           0
  114124 WT7  6187 TIP3 OH2  OT    -0.834000       15.9994           0
  114125 WT7  6187 TIP3 H1   HT     0.417000        1.0080           0
  114126 WT7  6187 TIP3 H2   HT     0.417000        1.0080           0
  114127 WT7  6188 TIP3 OH2  OT    -0.834000       15.9994           0
  114128 WT7  6188 TIP3 H1   HT     0.417000        1.0080           0
  114129 WT7  6188 TIP3 H2   HT     0.417000        1.0080           0
  114130 WT7  6195 TIP3 OH2  OT    -0.834000       15.9994           0
  114131 WT7  6195 TIP3 H1   HT     0.417000        1.0080           0
  114132 WT7  6195 TIP3 H2   HT     0.417000        1.0080           0
  114133 WT7  6198 TIP3 OH2  OT    -0.834000       15.9994           0
  114134 WT7  6198 TIP3 H1   HT     0.417000        1.0080           0
  114135 WT7  6198 TIP3 H2   HT     0.417000        1.0080           0
  114136 WT7  6200 TIP3 OH2  OT    -0.834000       15.9994           0
  114137 WT7  6200 TIP3 H1   HT     0.417000        1.0080           0
  114138 WT7  6200 TIP3 H2   HT     0.417000        1.0080           0
  114139 WT7  6208 TIP3 OH2  OT    -0.834000       15.9994           0
  114140 WT7  6208 TIP3 H1   HT     0.417000        1.0080           0
  114141 WT7  6208 TIP3 H2   HT     0.417000        1.0080           0
  114142 WT7  6218 TIP3 OH2  OT    -0.834000       15.9994           0
  114143 WT7  6218 TIP3 H1   HT     0.417000        1.0080           0
  114144 WT7  6218 TIP3 H2   HT     0.417000        1.0080           0
  114145 WT7  6219 TIP3 OH2  OT    -0.834000       15.9994           0
  114146 WT7  6219 TIP3 H1   HT     0.417000        1.0080           0
  114147 WT7  6219 TIP3 H2   HT     0.417000        1.0080           0
  114148 WT7  6220 TIP3 OH2  OT    -0.834000       15.9994           0
  114149 WT7  6220 TIP3 H1   HT     0.417000        1.0080           0
  114150 WT7  6220 TIP3 H2   HT     0.417000        1.0080           0
  114151 WT7  6224 TIP3 OH2  OT    -0.834000       15.9994           0
  114152 WT7  6224 TIP3 H1   HT     0.417000        1.0080           0
  114153 WT7  6224 TIP3 H2   HT     0.417000        1.0080           0
  114154 WT7  6227 TIP3 OH2  OT    -0.834000       15.9994           0
  114155 WT7  6227 TIP3 H1   HT     0.417000        1.0080           0
  114156 WT7  6227 TIP3 H2   HT     0.417000        1.0080           0
  114157 WT7  6228 TIP3 OH2  OT    -0.834000       15.9994           0
  114158 WT7  6228 TIP3 H1   HT     0.417000        1.0080           0
  114159 WT7  6228 TIP3 H2   HT     0.417000        1.0080           0
  114160 WT7  6229 TIP3 OH2  OT    -0.834000       15.9994           0
  114161 WT7  6229 TIP3 H1   HT     0.417000        1.0080           0
  114162 WT7  6229 TIP3 H2   HT     0.417000        1.0080           0
  114163 WT7  6230 TIP3 OH2  OT    -0.834000       15.9994           0
  114164 WT7  6230 TIP3 H1   HT     0.417000        1.0080           0
  114165 WT7  6230 TIP3 H2   HT     0.417000        1.0080           0
  114166 WT7  6231 TIP3 OH2  OT    -0.834000       15.9994           0
  114167 WT7  6231 TIP3 H1   HT     0.417000        1.0080           0
  114168 WT7  6231 TIP3 H2   HT     0.417000        1.0080           0
  114169 WT7  6240 TIP3 OH2  OT    -0.834000       15.9994           0
  114170 WT7  6240 TIP3 H1   HT     0.417000        1.0080           0
  114171 WT7  6240 TIP3 H2   HT     0.417000        1.0080           0
  114172 WT7  6241 TIP3 OH2  OT    -0.834000       15.9994           0
  114173 WT7  6241 TIP3 H1   HT     0.417000        1.0080           0
  114174 WT7  6241 TIP3 H2   HT     0.417000        1.0080           0
  114175 WT7  6242 TIP3 OH2  OT    -0.834000       15.9994           0
  114176 WT7  6242 TIP3 H1   HT     0.417000        1.0080           0
  114177 WT7  6242 TIP3 H2   HT     0.417000        1.0080           0
  114178 WT7  6243 TIP3 OH2  OT    -0.834000       15.9994           0
  114179 WT7  6243 TIP3 H1   HT     0.417000        1.0080           0
  114180 WT7  6243 TIP3 H2   HT     0.417000        1.0080           0
  114181 WT7  6246 TIP3 OH2  OT    -0.834000       15.9994           0
  114182 WT7  6246 TIP3 H1   HT     0.417000        1.0080           0
  114183 WT7  6246 TIP3 H2   HT     0.417000        1.0080           0
  114184 WT7  6247 TIP3 OH2  OT    -0.834000       15.9994           0
  114185 WT7  6247 TIP3 H1   HT     0.417000        1.0080           0
  114186 WT7  6247 TIP3 H2   HT     0.417000        1.0080           0
  114187 WT7  6252 TIP3 OH2  OT    -0.834000       15.9994           0
  114188 WT7  6252 TIP3 H1   HT     0.417000        1.0080           0
  114189 WT7  6252 TIP3 H2   HT     0.417000        1.0080           0
  114190 WT7  6256 TIP3 OH2  OT    -0.834000       15.9994           0
  114191 WT7  6256 TIP3 H1   HT     0.417000        1.0080           0
  114192 WT7  6256 TIP3 H2   HT     0.417000        1.0080           0
  114193 WT7  6258 TIP3 OH2  OT    -0.834000       15.9994           0
  114194 WT7  6258 TIP3 H1   HT     0.417000        1.0080           0
  114195 WT7  6258 TIP3 H2   HT     0.417000        1.0080           0
  114196 WT7  6260 TIP3 OH2  OT    -0.834000       15.9994           0
  114197 WT7  6260 TIP3 H1   HT     0.417000        1.0080           0
  114198 WT7  6260 TIP3 H2   HT     0.417000        1.0080           0
  114199 WT7  6262 TIP3 OH2  OT    -0.834000       15.9994           0
  114200 WT7  6262 TIP3 H1   HT     0.417000        1.0080           0
  114201 WT7  6262 TIP3 H2   HT     0.417000        1.0080           0
  114202 WT7  6263 TIP3 OH2  OT    -0.834000       15.9994           0
  114203 WT7  6263 TIP3 H1   HT     0.417000        1.0080           0
  114204 WT7  6263 TIP3 H2   HT     0.417000        1.0080           0
  114205 WT7  6266 TIP3 OH2  OT    -0.834000       15.9994           0
  114206 WT7  6266 TIP3 H1   HT     0.417000        1.0080           0
  114207 WT7  6266 TIP3 H2   HT     0.417000        1.0080           0
  114208 WT7  6269 TIP3 OH2  OT    -0.834000       15.9994           0
  114209 WT7  6269 TIP3 H1   HT     0.417000        1.0080           0
  114210 WT7  6269 TIP3 H2   HT     0.417000        1.0080           0
  114211 WT7  6270 TIP3 OH2  OT    -0.834000       15.9994           0
  114212 WT7  6270 TIP3 H1   HT     0.417000        1.0080           0
  114213 WT7  6270 TIP3 H2   HT     0.417000        1.0080           0
  114214 WT7  6277 TIP3 OH2  OT    -0.834000       15.9994           0
  114215 WT7  6277 TIP3 H1   HT     0.417000        1.0080           0
  114216 WT7  6277 TIP3 H2   HT     0.417000        1.0080           0
  114217 WT7  6279 TIP3 OH2  OT    -0.834000       15.9994           0
  114218 WT7  6279 TIP3 H1   HT     0.417000        1.0080           0
  114219 WT7  6279 TIP3 H2   HT     0.417000        1.0080           0
  114220 WT7  6285 TIP3 OH2  OT    -0.834000       15.9994           0
  114221 WT7  6285 TIP3 H1   HT     0.417000        1.0080           0
  114222 WT7  6285 TIP3 H2   HT     0.417000        1.0080           0
  114223 WT7  6290 TIP3 OH2  OT    -0.834000       15.9994           0
  114224 WT7  6290 TIP3 H1   HT     0.417000        1.0080           0
  114225 WT7  6290 TIP3 H2   HT     0.417000        1.0080           0
  114226 WT7  6291 TIP3 OH2  OT    -0.834000       15.9994           0
  114227 WT7  6291 TIP3 H1   HT     0.417000        1.0080           0
  114228 WT7  6291 TIP3 H2   HT     0.417000        1.0080           0
  114229 WT7  6296 TIP3 OH2  OT    -0.834000       15.9994           0
  114230 WT7  6296 TIP3 H1   HT     0.417000        1.0080           0
  114231 WT7  6296 TIP3 H2   HT     0.417000        1.0080           0
  114232 WT7  6297 TIP3 OH2  OT    -0.834000       15.9994           0
  114233 WT7  6297 TIP3 H1   HT     0.417000        1.0080           0
  114234 WT7  6297 TIP3 H2   HT     0.417000        1.0080           0
  114235 WT7  6298 TIP3 OH2  OT    -0.834000       15.9994           0
  114236 WT7  6298 TIP3 H1   HT     0.417000        1.0080           0
  114237 WT7  6298 TIP3 H2   HT     0.417000        1.0080           0
  114238 WT7  6300 TIP3 OH2  OT    -0.834000       15.9994           0
  114239 WT7  6300 TIP3 H1   HT     0.417000        1.0080           0
  114240 WT7  6300 TIP3 H2   HT     0.417000        1.0080           0
  114241 WT7  6302 TIP3 OH2  OT    -0.834000       15.9994           0
  114242 WT7  6302 TIP3 H1   HT     0.417000        1.0080           0
  114243 WT7  6302 TIP3 H2   HT     0.417000        1.0080           0
  114244 WT7  6309 TIP3 OH2  OT    -0.834000       15.9994           0
  114245 WT7  6309 TIP3 H1   HT     0.417000        1.0080           0
  114246 WT7  6309 TIP3 H2   HT     0.417000        1.0080           0
  114247 WT7  6310 TIP3 OH2  OT    -0.834000       15.9994           0
  114248 WT7  6310 TIP3 H1   HT     0.417000        1.0080           0
  114249 WT7  6310 TIP3 H2   HT     0.417000        1.0080           0
  114250 WT7  6311 TIP3 OH2  OT    -0.834000       15.9994           0
  114251 WT7  6311 TIP3 H1   HT     0.417000        1.0080           0
  114252 WT7  6311 TIP3 H2   HT     0.417000        1.0080           0
  114253 WT7  6312 TIP3 OH2  OT    -0.834000       15.9994           0
  114254 WT7  6312 TIP3 H1   HT     0.417000        1.0080           0
  114255 WT7  6312 TIP3 H2   HT     0.417000        1.0080           0
  114256 WT7  6313 TIP3 OH2  OT    -0.834000       15.9994           0
  114257 WT7  6313 TIP3 H1   HT     0.417000        1.0080           0
  114258 WT7  6313 TIP3 H2   HT     0.417000        1.0080           0
  114259 WT7  6314 TIP3 OH2  OT    -0.834000       15.9994           0
  114260 WT7  6314 TIP3 H1   HT     0.417000        1.0080           0
  114261 WT7  6314 TIP3 H2   HT     0.417000        1.0080           0
  114262 WT7  6315 TIP3 OH2  OT    -0.834000       15.9994           0
  114263 WT7  6315 TIP3 H1   HT     0.417000        1.0080           0
  114264 WT7  6315 TIP3 H2   HT     0.417000        1.0080           0
  114265 WT7  6316 TIP3 OH2  OT    -0.834000       15.9994           0
  114266 WT7  6316 TIP3 H1   HT     0.417000        1.0080           0
  114267 WT7  6316 TIP3 H2   HT     0.417000        1.0080           0
  114268 WT7  6317 TIP3 OH2  OT    -0.834000       15.9994           0
  114269 WT7  6317 TIP3 H1   HT     0.417000        1.0080           0
  114270 WT7  6317 TIP3 H2   HT     0.417000        1.0080           0
  114271 WT7  6319 TIP3 OH2  OT    -0.834000       15.9994           0
  114272 WT7  6319 TIP3 H1   HT     0.417000        1.0080           0
  114273 WT7  6319 TIP3 H2   HT     0.417000        1.0080           0
  114274 WT7  6321 TIP3 OH2  OT    -0.834000       15.9994           0
  114275 WT7  6321 TIP3 H1   HT     0.417000        1.0080           0
  114276 WT7  6321 TIP3 H2   HT     0.417000        1.0080           0
  114277 WT7  6323 TIP3 OH2  OT    -0.834000       15.9994           0
  114278 WT7  6323 TIP3 H1   HT     0.417000        1.0080           0
  114279 WT7  6323 TIP3 H2   HT     0.417000        1.0080           0
  114280 WT7  6324 TIP3 OH2  OT    -0.834000       15.9994           0
  114281 WT7  6324 TIP3 H1   HT     0.417000        1.0080           0
  114282 WT7  6324 TIP3 H2   HT     0.417000        1.0080           0
  114283 WT7  6325 TIP3 OH2  OT    -0.834000       15.9994           0
  114284 WT7  6325 TIP3 H1   HT     0.417000        1.0080           0
  114285 WT7  6325 TIP3 H2   HT     0.417000        1.0080           0
  114286 WT7  6326 TIP3 OH2  OT    -0.834000       15.9994           0
  114287 WT7  6326 TIP3 H1   HT     0.417000        1.0080           0
  114288 WT7  6326 TIP3 H2   HT     0.417000        1.0080           0
  114289 WT7  6327 TIP3 OH2  OT    -0.834000       15.9994           0
  114290 WT7  6327 TIP3 H1   HT     0.417000        1.0080           0
  114291 WT7  6327 TIP3 H2   HT     0.417000        1.0080           0
  114292 WT7  6330 TIP3 OH2  OT    -0.834000       15.9994           0
  114293 WT7  6330 TIP3 H1   HT     0.417000        1.0080           0
  114294 WT7  6330 TIP3 H2   HT     0.417000        1.0080           0
  114295 WT7  6331 TIP3 OH2  OT    -0.834000       15.9994           0
  114296 WT7  6331 TIP3 H1   HT     0.417000        1.0080           0
  114297 WT7  6331 TIP3 H2   HT     0.417000        1.0080           0
  114298 WT7  6333 TIP3 OH2  OT    -0.834000       15.9994           0
  114299 WT7  6333 TIP3 H1   HT     0.417000        1.0080           0
  114300 WT7  6333 TIP3 H2   HT     0.417000        1.0080           0
  114301 WT7  6334 TIP3 OH2  OT    -0.834000       15.9994           0
  114302 WT7  6334 TIP3 H1   HT     0.417000        1.0080           0
  114303 WT7  6334 TIP3 H2   HT     0.417000        1.0080           0
  114304 WT7  6335 TIP3 OH2  OT    -0.834000       15.9994           0
  114305 WT7  6335 TIP3 H1   HT     0.417000        1.0080           0
  114306 WT7  6335 TIP3 H2   HT     0.417000        1.0080           0
  114307 WT7  6336 TIP3 OH2  OT    -0.834000       15.9994           0
  114308 WT7  6336 TIP3 H1   HT     0.417000        1.0080           0
  114309 WT7  6336 TIP3 H2   HT     0.417000        1.0080           0
  114310 WT7  6337 TIP3 OH2  OT    -0.834000       15.9994           0
  114311 WT7  6337 TIP3 H1   HT     0.417000        1.0080           0
  114312 WT7  6337 TIP3 H2   HT     0.417000        1.0080           0
  114313 WT7  6341 TIP3 OH2  OT    -0.834000       15.9994           0
  114314 WT7  6341 TIP3 H1   HT     0.417000        1.0080           0
  114315 WT7  6341 TIP3 H2   HT     0.417000        1.0080           0
  114316 WT7  6343 TIP3 OH2  OT    -0.834000       15.9994           0
  114317 WT7  6343 TIP3 H1   HT     0.417000        1.0080           0
  114318 WT7  6343 TIP3 H2   HT     0.417000        1.0080           0
  114319 WT7  6344 TIP3 OH2  OT    -0.834000       15.9994           0
  114320 WT7  6344 TIP3 H1   HT     0.417000        1.0080           0
  114321 WT7  6344 TIP3 H2   HT     0.417000        1.0080           0
  114322 WT7  6345 TIP3 OH2  OT    -0.834000       15.9994           0
  114323 WT7  6345 TIP3 H1   HT     0.417000        1.0080           0
  114324 WT7  6345 TIP3 H2   HT     0.417000        1.0080           0
  114325 WT7  6346 TIP3 OH2  OT    -0.834000       15.9994           0
  114326 WT7  6346 TIP3 H1   HT     0.417000        1.0080           0
  114327 WT7  6346 TIP3 H2   HT     0.417000        1.0080           0
  114328 WT7  6347 TIP3 OH2  OT    -0.834000       15.9994           0
  114329 WT7  6347 TIP3 H1   HT     0.417000        1.0080           0
  114330 WT7  6347 TIP3 H2   HT     0.417000        1.0080           0
  114331 WT7  6348 TIP3 OH2  OT    -0.834000       15.9994           0
  114332 WT7  6348 TIP3 H1   HT     0.417000        1.0080           0
  114333 WT7  6348 TIP3 H2   HT     0.417000        1.0080           0
  114334 WT7  6350 TIP3 OH2  OT    -0.834000       15.9994           0
  114335 WT7  6350 TIP3 H1   HT     0.417000        1.0080           0
  114336 WT7  6350 TIP3 H2   HT     0.417000        1.0080           0
  114337 WT7  6351 TIP3 OH2  OT    -0.834000       15.9994           0
  114338 WT7  6351 TIP3 H1   HT     0.417000        1.0080           0
  114339 WT7  6351 TIP3 H2   HT     0.417000        1.0080           0
  114340 WT7  6352 TIP3 OH2  OT    -0.834000       15.9994           0
  114341 WT7  6352 TIP3 H1   HT     0.417000        1.0080           0
  114342 WT7  6352 TIP3 H2   HT     0.417000        1.0080           0
  114343 WT7  6355 TIP3 OH2  OT    -0.834000       15.9994           0
  114344 WT7  6355 TIP3 H1   HT     0.417000        1.0080           0
  114345 WT7  6355 TIP3 H2   HT     0.417000        1.0080           0
  114346 WT7  6356 TIP3 OH2  OT    -0.834000       15.9994           0
  114347 WT7  6356 TIP3 H1   HT     0.417000        1.0080           0
  114348 WT7  6356 TIP3 H2   HT     0.417000        1.0080           0
  114349 WT7  6361 TIP3 OH2  OT    -0.834000       15.9994           0
  114350 WT7  6361 TIP3 H1   HT     0.417000        1.0080           0
  114351 WT7  6361 TIP3 H2   HT     0.417000        1.0080           0
  114352 WT7  6366 TIP3 OH2  OT    -0.834000       15.9994           0
  114353 WT7  6366 TIP3 H1   HT     0.417000        1.0080           0
  114354 WT7  6366 TIP3 H2   HT     0.417000        1.0080           0
  114355 WT7  6370 TIP3 OH2  OT    -0.834000       15.9994           0
  114356 WT7  6370 TIP3 H1   HT     0.417000        1.0080           0
  114357 WT7  6370 TIP3 H2   HT     0.417000        1.0080           0
  114358 WT7  6373 TIP3 OH2  OT    -0.834000       15.9994           0
  114359 WT7  6373 TIP3 H1   HT     0.417000        1.0080           0
  114360 WT7  6373 TIP3 H2   HT     0.417000        1.0080           0
  114361 WT7  6375 TIP3 OH2  OT    -0.834000       15.9994           0
  114362 WT7  6375 TIP3 H1   HT     0.417000        1.0080           0
  114363 WT7  6375 TIP3 H2   HT     0.417000        1.0080           0
  114364 WT7  6376 TIP3 OH2  OT    -0.834000       15.9994           0
  114365 WT7  6376 TIP3 H1   HT     0.417000        1.0080           0
  114366 WT7  6376 TIP3 H2   HT     0.417000        1.0080           0
  114367 WT7  6381 TIP3 OH2  OT    -0.834000       15.9994           0
  114368 WT7  6381 TIP3 H1   HT     0.417000        1.0080           0
  114369 WT7  6381 TIP3 H2   HT     0.417000        1.0080           0
  114370 WT7  6384 TIP3 OH2  OT    -0.834000       15.9994           0
  114371 WT7  6384 TIP3 H1   HT     0.417000        1.0080           0
  114372 WT7  6384 TIP3 H2   HT     0.417000        1.0080           0
  114373 WT7  6390 TIP3 OH2  OT    -0.834000       15.9994           0
  114374 WT7  6390 TIP3 H1   HT     0.417000        1.0080           0
  114375 WT7  6390 TIP3 H2   HT     0.417000        1.0080           0
  114376 WT7  6391 TIP3 OH2  OT    -0.834000       15.9994           0
  114377 WT7  6391 TIP3 H1   HT     0.417000        1.0080           0
  114378 WT7  6391 TIP3 H2   HT     0.417000        1.0080           0
  114379 WT7  6396 TIP3 OH2  OT    -0.834000       15.9994           0
  114380 WT7  6396 TIP3 H1   HT     0.417000        1.0080           0
  114381 WT7  6396 TIP3 H2   HT     0.417000        1.0080           0
  114382 WT7  6398 TIP3 OH2  OT    -0.834000       15.9994           0
  114383 WT7  6398 TIP3 H1   HT     0.417000        1.0080           0
  114384 WT7  6398 TIP3 H2   HT     0.417000        1.0080           0
  114385 WT7  6404 TIP3 OH2  OT    -0.834000       15.9994           0
  114386 WT7  6404 TIP3 H1   HT     0.417000        1.0080           0
  114387 WT7  6404 TIP3 H2   HT     0.417000        1.0080           0
  114388 WT7  6406 TIP3 OH2  OT    -0.834000       15.9994           0
  114389 WT7  6406 TIP3 H1   HT     0.417000        1.0080           0
  114390 WT7  6406 TIP3 H2   HT     0.417000        1.0080           0
  114391 WT7  6407 TIP3 OH2  OT    -0.834000       15.9994           0
  114392 WT7  6407 TIP3 H1   HT     0.417000        1.0080           0
  114393 WT7  6407 TIP3 H2   HT     0.417000        1.0080           0
  114394 WT7  6408 TIP3 OH2  OT    -0.834000       15.9994           0
  114395 WT7  6408 TIP3 H1   HT     0.417000        1.0080           0
  114396 WT7  6408 TIP3 H2   HT     0.417000        1.0080           0
  114397 WT7  6409 TIP3 OH2  OT    -0.834000       15.9994           0
  114398 WT7  6409 TIP3 H1   HT     0.417000        1.0080           0
  114399 WT7  6409 TIP3 H2   HT     0.417000        1.0080           0
  114400 WT7  6414 TIP3 OH2  OT    -0.834000       15.9994           0
  114401 WT7  6414 TIP3 H1   HT     0.417000        1.0080           0
  114402 WT7  6414 TIP3 H2   HT     0.417000        1.0080           0
  114403 WT7  6417 TIP3 OH2  OT    -0.834000       15.9994           0
  114404 WT7  6417 TIP3 H1   HT     0.417000        1.0080           0
  114405 WT7  6417 TIP3 H2   HT     0.417000        1.0080           0
  114406 WT7  6423 TIP3 OH2  OT    -0.834000       15.9994           0
  114407 WT7  6423 TIP3 H1   HT     0.417000        1.0080           0
  114408 WT7  6423 TIP3 H2   HT     0.417000        1.0080           0
  114409 WT7  6424 TIP3 OH2  OT    -0.834000       15.9994           0
  114410 WT7  6424 TIP3 H1   HT     0.417000        1.0080           0
  114411 WT7  6424 TIP3 H2   HT     0.417000        1.0080           0
  114412 WT7  6425 TIP3 OH2  OT    -0.834000       15.9994           0
  114413 WT7  6425 TIP3 H1   HT     0.417000        1.0080           0
  114414 WT7  6425 TIP3 H2   HT     0.417000        1.0080           0
  114415 WT7  6428 TIP3 OH2  OT    -0.834000       15.9994           0
  114416 WT7  6428 TIP3 H1   HT     0.417000        1.0080           0
  114417 WT7  6428 TIP3 H2   HT     0.417000        1.0080           0
  114418 WT7  6429 TIP3 OH2  OT    -0.834000       15.9994           0
  114419 WT7  6429 TIP3 H1   HT     0.417000        1.0080           0
  114420 WT7  6429 TIP3 H2   HT     0.417000        1.0080           0
  114421 WT7  6436 TIP3 OH2  OT    -0.834000       15.9994           0
  114422 WT7  6436 TIP3 H1   HT     0.417000        1.0080           0
  114423 WT7  6436 TIP3 H2   HT     0.417000        1.0080           0
  114424 WT7  6439 TIP3 OH2  OT    -0.834000       15.9994           0
  114425 WT7  6439 TIP3 H1   HT     0.417000        1.0080           0
  114426 WT7  6439 TIP3 H2   HT     0.417000        1.0080           0
  114427 WT7  6440 TIP3 OH2  OT    -0.834000       15.9994           0
  114428 WT7  6440 TIP3 H1   HT     0.417000        1.0080           0
  114429 WT7  6440 TIP3 H2   HT     0.417000        1.0080           0
  114430 WT7  6445 TIP3 OH2  OT    -0.834000       15.9994           0
  114431 WT7  6445 TIP3 H1   HT     0.417000        1.0080           0
  114432 WT7  6445 TIP3 H2   HT     0.417000        1.0080           0
  114433 WT7  6447 TIP3 OH2  OT    -0.834000       15.9994           0
  114434 WT7  6447 TIP3 H1   HT     0.417000        1.0080           0
  114435 WT7  6447 TIP3 H2   HT     0.417000        1.0080           0
  114436 WT7  6448 TIP3 OH2  OT    -0.834000       15.9994           0
  114437 WT7  6448 TIP3 H1   HT     0.417000        1.0080           0
  114438 WT7  6448 TIP3 H2   HT     0.417000        1.0080           0
  114439 WT7  6452 TIP3 OH2  OT    -0.834000       15.9994           0
  114440 WT7  6452 TIP3 H1   HT     0.417000        1.0080           0
  114441 WT7  6452 TIP3 H2   HT     0.417000        1.0080           0
  114442 WT7  6456 TIP3 OH2  OT    -0.834000       15.9994           0
  114443 WT7  6456 TIP3 H1   HT     0.417000        1.0080           0
  114444 WT7  6456 TIP3 H2   HT     0.417000        1.0080           0
  114445 WT7  6459 TIP3 OH2  OT    -0.834000       15.9994           0
  114446 WT7  6459 TIP3 H1   HT     0.417000        1.0080           0
  114447 WT7  6459 TIP3 H2   HT     0.417000        1.0080           0
  114448 WT7  6468 TIP3 OH2  OT    -0.834000       15.9994           0
  114449 WT7  6468 TIP3 H1   HT     0.417000        1.0080           0
  114450 WT7  6468 TIP3 H2   HT     0.417000        1.0080           0
  114451 WT7  6483 TIP3 OH2  OT    -0.834000       15.9994           0
  114452 WT7  6483 TIP3 H1   HT     0.417000        1.0080           0
  114453 WT7  6483 TIP3 H2   HT     0.417000        1.0080           0
  114454 WT7  6485 TIP3 OH2  OT    -0.834000       15.9994           0
  114455 WT7  6485 TIP3 H1   HT     0.417000        1.0080           0
  114456 WT7  6485 TIP3 H2   HT     0.417000        1.0080           0
  114457 WT7  6488 TIP3 OH2  OT    -0.834000       15.9994           0
  114458 WT7  6488 TIP3 H1   HT     0.417000        1.0080           0
  114459 WT7  6488 TIP3 H2   HT     0.417000        1.0080           0
  114460 WT7  6491 TIP3 OH2  OT    -0.834000       15.9994           0
  114461 WT7  6491 TIP3 H1   HT     0.417000        1.0080           0
  114462 WT7  6491 TIP3 H2   HT     0.417000        1.0080           0
  114463 WT7  6492 TIP3 OH2  OT    -0.834000       15.9994           0
  114464 WT7  6492 TIP3 H1   HT     0.417000        1.0080           0
  114465 WT7  6492 TIP3 H2   HT     0.417000        1.0080           0
  114466 WT7  6498 TIP3 OH2  OT    -0.834000       15.9994           0
  114467 WT7  6498 TIP3 H1   HT     0.417000        1.0080           0
  114468 WT7  6498 TIP3 H2   HT     0.417000        1.0080           0
  114469 WT7  6499 TIP3 OH2  OT    -0.834000       15.9994           0
  114470 WT7  6499 TIP3 H1   HT     0.417000        1.0080           0
  114471 WT7  6499 TIP3 H2   HT     0.417000        1.0080           0
  114472 WT7  6502 TIP3 OH2  OT    -0.834000       15.9994           0
  114473 WT7  6502 TIP3 H1   HT     0.417000        1.0080           0
  114474 WT7  6502 TIP3 H2   HT     0.417000        1.0080           0
  114475 WT7  6505 TIP3 OH2  OT    -0.834000       15.9994           0
  114476 WT7  6505 TIP3 H1   HT     0.417000        1.0080           0
  114477 WT7  6505 TIP3 H2   HT     0.417000        1.0080           0
  114478 WT7  6518 TIP3 OH2  OT    -0.834000       15.9994           0
  114479 WT7  6518 TIP3 H1   HT     0.417000        1.0080           0
  114480 WT7  6518 TIP3 H2   HT     0.417000        1.0080           0
  114481 WT7  6519 TIP3 OH2  OT    -0.834000       15.9994           0
  114482 WT7  6519 TIP3 H1   HT     0.417000        1.0080           0
  114483 WT7  6519 TIP3 H2   HT     0.417000        1.0080           0
  114484 WT7  6529 TIP3 OH2  OT    -0.834000       15.9994           0
  114485 WT7  6529 TIP3 H1   HT     0.417000        1.0080           0
  114486 WT7  6529 TIP3 H2   HT     0.417000        1.0080           0
  114487 WT7  6547 TIP3 OH2  OT    -0.834000       15.9994           0
  114488 WT7  6547 TIP3 H1   HT     0.417000        1.0080           0
  114489 WT7  6547 TIP3 H2   HT     0.417000        1.0080           0
  114490 WT7  6551 TIP3 OH2  OT    -0.834000       15.9994           0
  114491 WT7  6551 TIP3 H1   HT     0.417000        1.0080           0
  114492 WT7  6551 TIP3 H2   HT     0.417000        1.0080           0
  114493 WT7  6575 TIP3 OH2  OT    -0.834000       15.9994           0
  114494 WT7  6575 TIP3 H1   HT     0.417000        1.0080           0
  114495 WT7  6575 TIP3 H2   HT     0.417000        1.0080           0
  114496 WT7  6577 TIP3 OH2  OT    -0.834000       15.9994           0
  114497 WT7  6577 TIP3 H1   HT     0.417000        1.0080           0
  114498 WT7  6577 TIP3 H2   HT     0.417000        1.0080           0
  114499 WT7  6578 TIP3 OH2  OT    -0.834000       15.9994           0
  114500 WT7  6578 TIP3 H1   HT     0.417000        1.0080           0
  114501 WT7  6578 TIP3 H2   HT     0.417000        1.0080           0
  114502 WT7  6583 TIP3 OH2  OT    -0.834000       15.9994           0
  114503 WT7  6583 TIP3 H1   HT     0.417000        1.0080           0
  114504 WT7  6583 TIP3 H2   HT     0.417000        1.0080           0
  114505 WT7  6588 TIP3 OH2  OT    -0.834000       15.9994           0
  114506 WT7  6588 TIP3 H1   HT     0.417000        1.0080           0
  114507 WT7  6588 TIP3 H2   HT     0.417000        1.0080           0
  114508 WT7  6591 TIP3 OH2  OT    -0.834000       15.9994           0
  114509 WT7  6591 TIP3 H1   HT     0.417000        1.0080           0
  114510 WT7  6591 TIP3 H2   HT     0.417000        1.0080           0
  114511 WT7  6592 TIP3 OH2  OT    -0.834000       15.9994           0
  114512 WT7  6592 TIP3 H1   HT     0.417000        1.0080           0
  114513 WT7  6592 TIP3 H2   HT     0.417000        1.0080           0
  114514 WT7  6597 TIP3 OH2  OT    -0.834000       15.9994           0
  114515 WT7  6597 TIP3 H1   HT     0.417000        1.0080           0
  114516 WT7  6597 TIP3 H2   HT     0.417000        1.0080           0
  114517 WT7  6602 TIP3 OH2  OT    -0.834000       15.9994           0
  114518 WT7  6602 TIP3 H1   HT     0.417000        1.0080           0
  114519 WT7  6602 TIP3 H2   HT     0.417000        1.0080           0
  114520 WT7  6603 TIP3 OH2  OT    -0.834000       15.9994           0
  114521 WT7  6603 TIP3 H1   HT     0.417000        1.0080           0
  114522 WT7  6603 TIP3 H2   HT     0.417000        1.0080           0
  114523 WT7  6613 TIP3 OH2  OT    -0.834000       15.9994           0
  114524 WT7  6613 TIP3 H1   HT     0.417000        1.0080           0
  114525 WT7  6613 TIP3 H2   HT     0.417000        1.0080           0
  114526 WT7  6614 TIP3 OH2  OT    -0.834000       15.9994           0
  114527 WT7  6614 TIP3 H1   HT     0.417000        1.0080           0
  114528 WT7  6614 TIP3 H2   HT     0.417000        1.0080           0
  114529 WT7  6615 TIP3 OH2  OT    -0.834000       15.9994           0
  114530 WT7  6615 TIP3 H1   HT     0.417000        1.0080           0
  114531 WT7  6615 TIP3 H2   HT     0.417000        1.0080           0
  114532 WT7  6623 TIP3 OH2  OT    -0.834000       15.9994           0
  114533 WT7  6623 TIP3 H1   HT     0.417000        1.0080           0
  114534 WT7  6623 TIP3 H2   HT     0.417000        1.0080           0
  114535 WT7  6628 TIP3 OH2  OT    -0.834000       15.9994           0
  114536 WT7  6628 TIP3 H1   HT     0.417000        1.0080           0
  114537 WT7  6628 TIP3 H2   HT     0.417000        1.0080           0
  114538 WT7  6650 TIP3 OH2  OT    -0.834000       15.9994           0
  114539 WT7  6650 TIP3 H1   HT     0.417000        1.0080           0
  114540 WT7  6650 TIP3 H2   HT     0.417000        1.0080           0
  114541 WT7  6653 TIP3 OH2  OT    -0.834000       15.9994           0
  114542 WT7  6653 TIP3 H1   HT     0.417000        1.0080           0
  114543 WT7  6653 TIP3 H2   HT     0.417000        1.0080           0
  114544 WT7  6657 TIP3 OH2  OT    -0.834000       15.9994           0
  114545 WT7  6657 TIP3 H1   HT     0.417000        1.0080           0
  114546 WT7  6657 TIP3 H2   HT     0.417000        1.0080           0
  114547 WT7  6660 TIP3 OH2  OT    -0.834000       15.9994           0
  114548 WT7  6660 TIP3 H1   HT     0.417000        1.0080           0
  114549 WT7  6660 TIP3 H2   HT     0.417000        1.0080           0
  114550 WT7  6661 TIP3 OH2  OT    -0.834000       15.9994           0
  114551 WT7  6661 TIP3 H1   HT     0.417000        1.0080           0
  114552 WT7  6661 TIP3 H2   HT     0.417000        1.0080           0
  114553 WT7  6663 TIP3 OH2  OT    -0.834000       15.9994           0
  114554 WT7  6663 TIP3 H1   HT     0.417000        1.0080           0
  114555 WT7  6663 TIP3 H2   HT     0.417000        1.0080           0
  114556 WT7  6664 TIP3 OH2  OT    -0.834000       15.9994           0
  114557 WT7  6664 TIP3 H1   HT     0.417000        1.0080           0
  114558 WT7  6664 TIP3 H2   HT     0.417000        1.0080           0
  114559 WT7  6667 TIP3 OH2  OT    -0.834000       15.9994           0
  114560 WT7  6667 TIP3 H1   HT     0.417000        1.0080           0
  114561 WT7  6667 TIP3 H2   HT     0.417000        1.0080           0
  114562 WT7  6669 TIP3 OH2  OT    -0.834000       15.9994           0
  114563 WT7  6669 TIP3 H1   HT     0.417000        1.0080           0
  114564 WT7  6669 TIP3 H2   HT     0.417000        1.0080           0
  114565 WT7  6671 TIP3 OH2  OT    -0.834000       15.9994           0
  114566 WT7  6671 TIP3 H1   HT     0.417000        1.0080           0
  114567 WT7  6671 TIP3 H2   HT     0.417000        1.0080           0
  114568 WT7  6672 TIP3 OH2  OT    -0.834000       15.9994           0
  114569 WT7  6672 TIP3 H1   HT     0.417000        1.0080           0
  114570 WT7  6672 TIP3 H2   HT     0.417000        1.0080           0
  114571 WT7  6677 TIP3 OH2  OT    -0.834000       15.9994           0
  114572 WT7  6677 TIP3 H1   HT     0.417000        1.0080           0
  114573 WT7  6677 TIP3 H2   HT     0.417000        1.0080           0
  114574 WT7  6680 TIP3 OH2  OT    -0.834000       15.9994           0
  114575 WT7  6680 TIP3 H1   HT     0.417000        1.0080           0
  114576 WT7  6680 TIP3 H2   HT     0.417000        1.0080           0
  114577 WT7  6681 TIP3 OH2  OT    -0.834000       15.9994           0
  114578 WT7  6681 TIP3 H1   HT     0.417000        1.0080           0
  114579 WT7  6681 TIP3 H2   HT     0.417000        1.0080           0
  114580 WT7  6683 TIP3 OH2  OT    -0.834000       15.9994           0
  114581 WT7  6683 TIP3 H1   HT     0.417000        1.0080           0
  114582 WT7  6683 TIP3 H2   HT     0.417000        1.0080           0
  114583 WT7  6684 TIP3 OH2  OT    -0.834000       15.9994           0
  114584 WT7  6684 TIP3 H1   HT     0.417000        1.0080           0
  114585 WT7  6684 TIP3 H2   HT     0.417000        1.0080           0
  114586 WT7  6693 TIP3 OH2  OT    -0.834000       15.9994           0
  114587 WT7  6693 TIP3 H1   HT     0.417000        1.0080           0
  114588 WT7  6693 TIP3 H2   HT     0.417000        1.0080           0
  114589 WT7  6698 TIP3 OH2  OT    -0.834000       15.9994           0
  114590 WT7  6698 TIP3 H1   HT     0.417000        1.0080           0
  114591 WT7  6698 TIP3 H2   HT     0.417000        1.0080           0
  114592 WT7  6702 TIP3 OH2  OT    -0.834000       15.9994           0
  114593 WT7  6702 TIP3 H1   HT     0.417000        1.0080           0
  114594 WT7  6702 TIP3 H2   HT     0.417000        1.0080           0
  114595 WT7  6703 TIP3 OH2  OT    -0.834000       15.9994           0
  114596 WT7  6703 TIP3 H1   HT     0.417000        1.0080           0
  114597 WT7  6703 TIP3 H2   HT     0.417000        1.0080           0
  114598 WT7  6705 TIP3 OH2  OT    -0.834000       15.9994           0
  114599 WT7  6705 TIP3 H1   HT     0.417000        1.0080           0
  114600 WT7  6705 TIP3 H2   HT     0.417000        1.0080           0
  114601 WT7  6707 TIP3 OH2  OT    -0.834000       15.9994           0
  114602 WT7  6707 TIP3 H1   HT     0.417000        1.0080           0
  114603 WT7  6707 TIP3 H2   HT     0.417000        1.0080           0
  114604 WT7  6708 TIP3 OH2  OT    -0.834000       15.9994           0
  114605 WT7  6708 TIP3 H1   HT     0.417000        1.0080           0
  114606 WT7  6708 TIP3 H2   HT     0.417000        1.0080           0
  114607 WT7  6717 TIP3 OH2  OT    -0.834000       15.9994           0
  114608 WT7  6717 TIP3 H1   HT     0.417000        1.0080           0
  114609 WT7  6717 TIP3 H2   HT     0.417000        1.0080           0
  114610 WT7  6719 TIP3 OH2  OT    -0.834000       15.9994           0
  114611 WT7  6719 TIP3 H1   HT     0.417000        1.0080           0
  114612 WT7  6719 TIP3 H2   HT     0.417000        1.0080           0
  114613 WT7  6721 TIP3 OH2  OT    -0.834000       15.9994           0
  114614 WT7  6721 TIP3 H1   HT     0.417000        1.0080           0
  114615 WT7  6721 TIP3 H2   HT     0.417000        1.0080           0
  114616 WT7  6722 TIP3 OH2  OT    -0.834000       15.9994           0
  114617 WT7  6722 TIP3 H1   HT     0.417000        1.0080           0
  114618 WT7  6722 TIP3 H2   HT     0.417000        1.0080           0
  114619 WT7  6725 TIP3 OH2  OT    -0.834000       15.9994           0
  114620 WT7  6725 TIP3 H1   HT     0.417000        1.0080           0
  114621 WT7  6725 TIP3 H2   HT     0.417000        1.0080           0
  114622 WT7  6726 TIP3 OH2  OT    -0.834000       15.9994           0
  114623 WT7  6726 TIP3 H1   HT     0.417000        1.0080           0
  114624 WT7  6726 TIP3 H2   HT     0.417000        1.0080           0
  114625 WT7  6727 TIP3 OH2  OT    -0.834000       15.9994           0
  114626 WT7  6727 TIP3 H1   HT     0.417000        1.0080           0
  114627 WT7  6727 TIP3 H2   HT     0.417000        1.0080           0
  114628 WT7  6729 TIP3 OH2  OT    -0.834000       15.9994           0
  114629 WT7  6729 TIP3 H1   HT     0.417000        1.0080           0
  114630 WT7  6729 TIP3 H2   HT     0.417000        1.0080           0
  114631 WT7  6730 TIP3 OH2  OT    -0.834000       15.9994           0
  114632 WT7  6730 TIP3 H1   HT     0.417000        1.0080           0
  114633 WT7  6730 TIP3 H2   HT     0.417000        1.0080           0
  114634 WT7  6735 TIP3 OH2  OT    -0.834000       15.9994           0
  114635 WT7  6735 TIP3 H1   HT     0.417000        1.0080           0
  114636 WT7  6735 TIP3 H2   HT     0.417000        1.0080           0
  114637 WT7  6736 TIP3 OH2  OT    -0.834000       15.9994           0
  114638 WT7  6736 TIP3 H1   HT     0.417000        1.0080           0
  114639 WT7  6736 TIP3 H2   HT     0.417000        1.0080           0
  114640 WT7  6741 TIP3 OH2  OT    -0.834000       15.9994           0
  114641 WT7  6741 TIP3 H1   HT     0.417000        1.0080           0
  114642 WT7  6741 TIP3 H2   HT     0.417000        1.0080           0
  114643 WT7  6743 TIP3 OH2  OT    -0.834000       15.9994           0
  114644 WT7  6743 TIP3 H1   HT     0.417000        1.0080           0
  114645 WT7  6743 TIP3 H2   HT     0.417000        1.0080           0
  114646 WT7  6744 TIP3 OH2  OT    -0.834000       15.9994           0
  114647 WT7  6744 TIP3 H1   HT     0.417000        1.0080           0
  114648 WT7  6744 TIP3 H2   HT     0.417000        1.0080           0
  114649 WT7  6750 TIP3 OH2  OT    -0.834000       15.9994           0
  114650 WT7  6750 TIP3 H1   HT     0.417000        1.0080           0
  114651 WT7  6750 TIP3 H2   HT     0.417000        1.0080           0
  114652 WT7  6751 TIP3 OH2  OT    -0.834000       15.9994           0
  114653 WT7  6751 TIP3 H1   HT     0.417000        1.0080           0
  114654 WT7  6751 TIP3 H2   HT     0.417000        1.0080           0
  114655 WT7  6754 TIP3 OH2  OT    -0.834000       15.9994           0
  114656 WT7  6754 TIP3 H1   HT     0.417000        1.0080           0
  114657 WT7  6754 TIP3 H2   HT     0.417000        1.0080           0
  114658 WT7  6755 TIP3 OH2  OT    -0.834000       15.9994           0
  114659 WT7  6755 TIP3 H1   HT     0.417000        1.0080           0
  114660 WT7  6755 TIP3 H2   HT     0.417000        1.0080           0
  114661 WT7  6757 TIP3 OH2  OT    -0.834000       15.9994           0
  114662 WT7  6757 TIP3 H1   HT     0.417000        1.0080           0
  114663 WT7  6757 TIP3 H2   HT     0.417000        1.0080           0
  114664 WT7  6758 TIP3 OH2  OT    -0.834000       15.9994           0
  114665 WT7  6758 TIP3 H1   HT     0.417000        1.0080           0
  114666 WT7  6758 TIP3 H2   HT     0.417000        1.0080           0
  114667 WT7  6761 TIP3 OH2  OT    -0.834000       15.9994           0
  114668 WT7  6761 TIP3 H1   HT     0.417000        1.0080           0
  114669 WT7  6761 TIP3 H2   HT     0.417000        1.0080           0
  114670 WT7  6763 TIP3 OH2  OT    -0.834000       15.9994           0
  114671 WT7  6763 TIP3 H1   HT     0.417000        1.0080           0
  114672 WT7  6763 TIP3 H2   HT     0.417000        1.0080           0
  114673 WT7  6773 TIP3 OH2  OT    -0.834000       15.9994           0
  114674 WT7  6773 TIP3 H1   HT     0.417000        1.0080           0
  114675 WT7  6773 TIP3 H2   HT     0.417000        1.0080           0
  114676 WT7  6774 TIP3 OH2  OT    -0.834000       15.9994           0
  114677 WT7  6774 TIP3 H1   HT     0.417000        1.0080           0
  114678 WT7  6774 TIP3 H2   HT     0.417000        1.0080           0
  114679 WT7  6776 TIP3 OH2  OT    -0.834000       15.9994           0
  114680 WT7  6776 TIP3 H1   HT     0.417000        1.0080           0
  114681 WT7  6776 TIP3 H2   HT     0.417000        1.0080           0
  114682 WT7  6777 TIP3 OH2  OT    -0.834000       15.9994           0
  114683 WT7  6777 TIP3 H1   HT     0.417000        1.0080           0
  114684 WT7  6777 TIP3 H2   HT     0.417000        1.0080           0
  114685 WT7  6779 TIP3 OH2  OT    -0.834000       15.9994           0
  114686 WT7  6779 TIP3 H1   HT     0.417000        1.0080           0
  114687 WT7  6779 TIP3 H2   HT     0.417000        1.0080           0
  114688 WT7  6782 TIP3 OH2  OT    -0.834000       15.9994           0
  114689 WT7  6782 TIP3 H1   HT     0.417000        1.0080           0
  114690 WT7  6782 TIP3 H2   HT     0.417000        1.0080           0
  114691 WT7  6788 TIP3 OH2  OT    -0.834000       15.9994           0
  114692 WT7  6788 TIP3 H1   HT     0.417000        1.0080           0
  114693 WT7  6788 TIP3 H2   HT     0.417000        1.0080           0
  114694 WT7  6789 TIP3 OH2  OT    -0.834000       15.9994           0
  114695 WT7  6789 TIP3 H1   HT     0.417000        1.0080           0
  114696 WT7  6789 TIP3 H2   HT     0.417000        1.0080           0
  114697 WT7  6794 TIP3 OH2  OT    -0.834000       15.9994           0
  114698 WT7  6794 TIP3 H1   HT     0.417000        1.0080           0
  114699 WT7  6794 TIP3 H2   HT     0.417000        1.0080           0
  114700 WT7  6797 TIP3 OH2  OT    -0.834000       15.9994           0
  114701 WT7  6797 TIP3 H1   HT     0.417000        1.0080           0
  114702 WT7  6797 TIP3 H2   HT     0.417000        1.0080           0
  114703 WT7  6802 TIP3 OH2  OT    -0.834000       15.9994           0
  114704 WT7  6802 TIP3 H1   HT     0.417000        1.0080           0
  114705 WT7  6802 TIP3 H2   HT     0.417000        1.0080           0
  114706 WT7  6803 TIP3 OH2  OT    -0.834000       15.9994           0
  114707 WT7  6803 TIP3 H1   HT     0.417000        1.0080           0
  114708 WT7  6803 TIP3 H2   HT     0.417000        1.0080           0
  114709 WT7  6808 TIP3 OH2  OT    -0.834000       15.9994           0
  114710 WT7  6808 TIP3 H1   HT     0.417000        1.0080           0
  114711 WT7  6808 TIP3 H2   HT     0.417000        1.0080           0
  114712 WT7  6813 TIP3 OH2  OT    -0.834000       15.9994           0
  114713 WT7  6813 TIP3 H1   HT     0.417000        1.0080           0
  114714 WT7  6813 TIP3 H2   HT     0.417000        1.0080           0
  114715 WT7  6816 TIP3 OH2  OT    -0.834000       15.9994           0
  114716 WT7  6816 TIP3 H1   HT     0.417000        1.0080           0
  114717 WT7  6816 TIP3 H2   HT     0.417000        1.0080           0
  114718 WT7  6817 TIP3 OH2  OT    -0.834000       15.9994           0
  114719 WT7  6817 TIP3 H1   HT     0.417000        1.0080           0
  114720 WT7  6817 TIP3 H2   HT     0.417000        1.0080           0
  114721 WT7  6819 TIP3 OH2  OT    -0.834000       15.9994           0
  114722 WT7  6819 TIP3 H1   HT     0.417000        1.0080           0
  114723 WT7  6819 TIP3 H2   HT     0.417000        1.0080           0
  114724 WT7  6820 TIP3 OH2  OT    -0.834000       15.9994           0
  114725 WT7  6820 TIP3 H1   HT     0.417000        1.0080           0
  114726 WT7  6820 TIP3 H2   HT     0.417000        1.0080           0
  114727 WT7  6821 TIP3 OH2  OT    -0.834000       15.9994           0
  114728 WT7  6821 TIP3 H1   HT     0.417000        1.0080           0
  114729 WT7  6821 TIP3 H2   HT     0.417000        1.0080           0
  114730 WT7  6834 TIP3 OH2  OT    -0.834000       15.9994           0
  114731 WT7  6834 TIP3 H1   HT     0.417000        1.0080           0
  114732 WT7  6834 TIP3 H2   HT     0.417000        1.0080           0
  114733 WT7  6835 TIP3 OH2  OT    -0.834000       15.9994           0
  114734 WT7  6835 TIP3 H1   HT     0.417000        1.0080           0
  114735 WT7  6835 TIP3 H2   HT     0.417000        1.0080           0
  114736 WT7  6837 TIP3 OH2  OT    -0.834000       15.9994           0
  114737 WT7  6837 TIP3 H1   HT     0.417000        1.0080           0
  114738 WT7  6837 TIP3 H2   HT     0.417000        1.0080           0
  114739 WT7  6845 TIP3 OH2  OT    -0.834000       15.9994           0
  114740 WT7  6845 TIP3 H1   HT     0.417000        1.0080           0
  114741 WT7  6845 TIP3 H2   HT     0.417000        1.0080           0
  114742 WT7  6846 TIP3 OH2  OT    -0.834000       15.9994           0
  114743 WT7  6846 TIP3 H1   HT     0.417000        1.0080           0
  114744 WT7  6846 TIP3 H2   HT     0.417000        1.0080           0
  114745 WT7  6847 TIP3 OH2  OT    -0.834000       15.9994           0
  114746 WT7  6847 TIP3 H1   HT     0.417000        1.0080           0
  114747 WT7  6847 TIP3 H2   HT     0.417000        1.0080           0
  114748 WT7  6848 TIP3 OH2  OT    -0.834000       15.9994           0
  114749 WT7  6848 TIP3 H1   HT     0.417000        1.0080           0
  114750 WT7  6848 TIP3 H2   HT     0.417000        1.0080           0
  114751 WT7  6851 TIP3 OH2  OT    -0.834000       15.9994           0
  114752 WT7  6851 TIP3 H1   HT     0.417000        1.0080           0
  114753 WT7  6851 TIP3 H2   HT     0.417000        1.0080           0
  114754 WT7  6854 TIP3 OH2  OT    -0.834000       15.9994           0
  114755 WT7  6854 TIP3 H1   HT     0.417000        1.0080           0
  114756 WT7  6854 TIP3 H2   HT     0.417000        1.0080           0
  114757 WT7  6855 TIP3 OH2  OT    -0.834000       15.9994           0
  114758 WT7  6855 TIP3 H1   HT     0.417000        1.0080           0
  114759 WT7  6855 TIP3 H2   HT     0.417000        1.0080           0
  114760 WT7  6859 TIP3 OH2  OT    -0.834000       15.9994           0
  114761 WT7  6859 TIP3 H1   HT     0.417000        1.0080           0
  114762 WT7  6859 TIP3 H2   HT     0.417000        1.0080           0
  114763 WT7  6864 TIP3 OH2  OT    -0.834000       15.9994           0
  114764 WT7  6864 TIP3 H1   HT     0.417000        1.0080           0
  114765 WT7  6864 TIP3 H2   HT     0.417000        1.0080           0
  114766 WT7  6867 TIP3 OH2  OT    -0.834000       15.9994           0
  114767 WT7  6867 TIP3 H1   HT     0.417000        1.0080           0
  114768 WT7  6867 TIP3 H2   HT     0.417000        1.0080           0
  114769 WT7  6877 TIP3 OH2  OT    -0.834000       15.9994           0
  114770 WT7  6877 TIP3 H1   HT     0.417000        1.0080           0
  114771 WT7  6877 TIP3 H2   HT     0.417000        1.0080           0
  114772 WT7  6881 TIP3 OH2  OT    -0.834000       15.9994           0
  114773 WT7  6881 TIP3 H1   HT     0.417000        1.0080           0
  114774 WT7  6881 TIP3 H2   HT     0.417000        1.0080           0
  114775 WT7  6882 TIP3 OH2  OT    -0.834000       15.9994           0
  114776 WT7  6882 TIP3 H1   HT     0.417000        1.0080           0
  114777 WT7  6882 TIP3 H2   HT     0.417000        1.0080           0
  114778 WT7  6885 TIP3 OH2  OT    -0.834000       15.9994           0
  114779 WT7  6885 TIP3 H1   HT     0.417000        1.0080           0
  114780 WT7  6885 TIP3 H2   HT     0.417000        1.0080           0
  114781 WT7  6897 TIP3 OH2  OT    -0.834000       15.9994           0
  114782 WT7  6897 TIP3 H1   HT     0.417000        1.0080           0
  114783 WT7  6897 TIP3 H2   HT     0.417000        1.0080           0
  114784 WT7  6901 TIP3 OH2  OT    -0.834000       15.9994           0
  114785 WT7  6901 TIP3 H1   HT     0.417000        1.0080           0
  114786 WT7  6901 TIP3 H2   HT     0.417000        1.0080           0
  114787 WT7  6902 TIP3 OH2  OT    -0.834000       15.9994           0
  114788 WT7  6902 TIP3 H1   HT     0.417000        1.0080           0
  114789 WT7  6902 TIP3 H2   HT     0.417000        1.0080           0
  114790 WT7  6906 TIP3 OH2  OT    -0.834000       15.9994           0
  114791 WT7  6906 TIP3 H1   HT     0.417000        1.0080           0
  114792 WT7  6906 TIP3 H2   HT     0.417000        1.0080           0
  114793 WT7  6909 TIP3 OH2  OT    -0.834000       15.9994           0
  114794 WT7  6909 TIP3 H1   HT     0.417000        1.0080           0
  114795 WT7  6909 TIP3 H2   HT     0.417000        1.0080           0
  114796 WT7  6912 TIP3 OH2  OT    -0.834000       15.9994           0
  114797 WT7  6912 TIP3 H1   HT     0.417000        1.0080           0
  114798 WT7  6912 TIP3 H2   HT     0.417000        1.0080           0
  114799 WT7  6917 TIP3 OH2  OT    -0.834000       15.9994           0
  114800 WT7  6917 TIP3 H1   HT     0.417000        1.0080           0
  114801 WT7  6917 TIP3 H2   HT     0.417000        1.0080           0
  114802 WT7  6949 TIP3 OH2  OT    -0.834000       15.9994           0
  114803 WT7  6949 TIP3 H1   HT     0.417000        1.0080           0
  114804 WT7  6949 TIP3 H2   HT     0.417000        1.0080           0
  114805 WT7  6952 TIP3 OH2  OT    -0.834000       15.9994           0
  114806 WT7  6952 TIP3 H1   HT     0.417000        1.0080           0
  114807 WT7  6952 TIP3 H2   HT     0.417000        1.0080           0
  114808 WT7  6962 TIP3 OH2  OT    -0.834000       15.9994           0
  114809 WT7  6962 TIP3 H1   HT     0.417000        1.0080           0
  114810 WT7  6962 TIP3 H2   HT     0.417000        1.0080           0
  114811 WT7  6968 TIP3 OH2  OT    -0.834000       15.9994           0
  114812 WT7  6968 TIP3 H1   HT     0.417000        1.0080           0
  114813 WT7  6968 TIP3 H2   HT     0.417000        1.0080           0
  114814 WT7  6975 TIP3 OH2  OT    -0.834000       15.9994           0
  114815 WT7  6975 TIP3 H1   HT     0.417000        1.0080           0
  114816 WT7  6975 TIP3 H2   HT     0.417000        1.0080           0
  114817 WT7  6979 TIP3 OH2  OT    -0.834000       15.9994           0
  114818 WT7  6979 TIP3 H1   HT     0.417000        1.0080           0
  114819 WT7  6979 TIP3 H2   HT     0.417000        1.0080           0
  114820 WT7  7003 TIP3 OH2  OT    -0.834000       15.9994           0
  114821 WT7  7003 TIP3 H1   HT     0.417000        1.0080           0
  114822 WT7  7003 TIP3 H2   HT     0.417000        1.0080           0
  114823 WT7  7017 TIP3 OH2  OT    -0.834000       15.9994           0
  114824 WT7  7017 TIP3 H1   HT     0.417000        1.0080           0
  114825 WT7  7017 TIP3 H2   HT     0.417000        1.0080           0
  114826 WT7  7019 TIP3 OH2  OT    -0.834000       15.9994           0
  114827 WT7  7019 TIP3 H1   HT     0.417000        1.0080           0
  114828 WT7  7019 TIP3 H2   HT     0.417000        1.0080           0
  114829 WT7  7021 TIP3 OH2  OT    -0.834000       15.9994           0
  114830 WT7  7021 TIP3 H1   HT     0.417000        1.0080           0
  114831 WT7  7021 TIP3 H2   HT     0.417000        1.0080           0
  114832 WT7  7027 TIP3 OH2  OT    -0.834000       15.9994           0
  114833 WT7  7027 TIP3 H1   HT     0.417000        1.0080           0
  114834 WT7  7027 TIP3 H2   HT     0.417000        1.0080           0
  114835 WT7  7041 TIP3 OH2  OT    -0.834000       15.9994           0
  114836 WT7  7041 TIP3 H1   HT     0.417000        1.0080           0
  114837 WT7  7041 TIP3 H2   HT     0.417000        1.0080           0
  114838 WT7  7046 TIP3 OH2  OT    -0.834000       15.9994           0
  114839 WT7  7046 TIP3 H1   HT     0.417000        1.0080           0
  114840 WT7  7046 TIP3 H2   HT     0.417000        1.0080           0
  114841 WT7  7052 TIP3 OH2  OT    -0.834000       15.9994           0
  114842 WT7  7052 TIP3 H1   HT     0.417000        1.0080           0
  114843 WT7  7052 TIP3 H2   HT     0.417000        1.0080           0
  114844 WT7  7058 TIP3 OH2  OT    -0.834000       15.9994           0
  114845 WT7  7058 TIP3 H1   HT     0.417000        1.0080           0
  114846 WT7  7058 TIP3 H2   HT     0.417000        1.0080           0
  114847 WT7  7060 TIP3 OH2  OT    -0.834000       15.9994           0
  114848 WT7  7060 TIP3 H1   HT     0.417000        1.0080           0
  114849 WT7  7060 TIP3 H2   HT     0.417000        1.0080           0
  114850 WT7  7062 TIP3 OH2  OT    -0.834000       15.9994           0
  114851 WT7  7062 TIP3 H1   HT     0.417000        1.0080           0
  114852 WT7  7062 TIP3 H2   HT     0.417000        1.0080           0
  114853 WT7  7067 TIP3 OH2  OT    -0.834000       15.9994           0
  114854 WT7  7067 TIP3 H1   HT     0.417000        1.0080           0
  114855 WT7  7067 TIP3 H2   HT     0.417000        1.0080           0
  114856 WT7  7068 TIP3 OH2  OT    -0.834000       15.9994           0
  114857 WT7  7068 TIP3 H1   HT     0.417000        1.0080           0
  114858 WT7  7068 TIP3 H2   HT     0.417000        1.0080           0
  114859 WT7  7078 TIP3 OH2  OT    -0.834000       15.9994           0
  114860 WT7  7078 TIP3 H1   HT     0.417000        1.0080           0
  114861 WT7  7078 TIP3 H2   HT     0.417000        1.0080           0
  114862 WT7  7082 TIP3 OH2  OT    -0.834000       15.9994           0
  114863 WT7  7082 TIP3 H1   HT     0.417000        1.0080           0
  114864 WT7  7082 TIP3 H2   HT     0.417000        1.0080           0
  114865 WT7  7088 TIP3 OH2  OT    -0.834000       15.9994           0
  114866 WT7  7088 TIP3 H1   HT     0.417000        1.0080           0
  114867 WT7  7088 TIP3 H2   HT     0.417000        1.0080           0
  114868 WT7  7095 TIP3 OH2  OT    -0.834000       15.9994           0
  114869 WT7  7095 TIP3 H1   HT     0.417000        1.0080           0
  114870 WT7  7095 TIP3 H2   HT     0.417000        1.0080           0
  114871 WT7  7098 TIP3 OH2  OT    -0.834000       15.9994           0
  114872 WT7  7098 TIP3 H1   HT     0.417000        1.0080           0
  114873 WT7  7098 TIP3 H2   HT     0.417000        1.0080           0
  114874 WT7  7099 TIP3 OH2  OT    -0.834000       15.9994           0
  114875 WT7  7099 TIP3 H1   HT     0.417000        1.0080           0
  114876 WT7  7099 TIP3 H2   HT     0.417000        1.0080           0
  114877 WT7  7105 TIP3 OH2  OT    -0.834000       15.9994           0
  114878 WT7  7105 TIP3 H1   HT     0.417000        1.0080           0
  114879 WT7  7105 TIP3 H2   HT     0.417000        1.0080           0
  114880 WT7  7109 TIP3 OH2  OT    -0.834000       15.9994           0
  114881 WT7  7109 TIP3 H1   HT     0.417000        1.0080           0
  114882 WT7  7109 TIP3 H2   HT     0.417000        1.0080           0
  114883 WT7  7112 TIP3 OH2  OT    -0.834000       15.9994           0
  114884 WT7  7112 TIP3 H1   HT     0.417000        1.0080           0
  114885 WT7  7112 TIP3 H2   HT     0.417000        1.0080           0
  114886 WT7  7114 TIP3 OH2  OT    -0.834000       15.9994           0
  114887 WT7  7114 TIP3 H1   HT     0.417000        1.0080           0
  114888 WT7  7114 TIP3 H2   HT     0.417000        1.0080           0
  114889 WT7  7118 TIP3 OH2  OT    -0.834000       15.9994           0
  114890 WT7  7118 TIP3 H1   HT     0.417000        1.0080           0
  114891 WT7  7118 TIP3 H2   HT     0.417000        1.0080           0
  114892 WT7  7121 TIP3 OH2  OT    -0.834000       15.9994           0
  114893 WT7  7121 TIP3 H1   HT     0.417000        1.0080           0
  114894 WT7  7121 TIP3 H2   HT     0.417000        1.0080           0
  114895 WT7  7122 TIP3 OH2  OT    -0.834000       15.9994           0
  114896 WT7  7122 TIP3 H1   HT     0.417000        1.0080           0
  114897 WT7  7122 TIP3 H2   HT     0.417000        1.0080           0
  114898 WT7  7123 TIP3 OH2  OT    -0.834000       15.9994           0
  114899 WT7  7123 TIP3 H1   HT     0.417000        1.0080           0
  114900 WT7  7123 TIP3 H2   HT     0.417000        1.0080           0
  114901 WT7  7125 TIP3 OH2  OT    -0.834000       15.9994           0
  114902 WT7  7125 TIP3 H1   HT     0.417000        1.0080           0
  114903 WT7  7125 TIP3 H2   HT     0.417000        1.0080           0
  114904 WT7  7130 TIP3 OH2  OT    -0.834000       15.9994           0
  114905 WT7  7130 TIP3 H1   HT     0.417000        1.0080           0
  114906 WT7  7130 TIP3 H2   HT     0.417000        1.0080           0
  114907 WT7  7132 TIP3 OH2  OT    -0.834000       15.9994           0
  114908 WT7  7132 TIP3 H1   HT     0.417000        1.0080           0
  114909 WT7  7132 TIP3 H2   HT     0.417000        1.0080           0
  114910 WT7  7133 TIP3 OH2  OT    -0.834000       15.9994           0
  114911 WT7  7133 TIP3 H1   HT     0.417000        1.0080           0
  114912 WT7  7133 TIP3 H2   HT     0.417000        1.0080           0
  114913 WT7  7141 TIP3 OH2  OT    -0.834000       15.9994           0
  114914 WT7  7141 TIP3 H1   HT     0.417000        1.0080           0
  114915 WT7  7141 TIP3 H2   HT     0.417000        1.0080           0
  114916 WT7  7147 TIP3 OH2  OT    -0.834000       15.9994           0
  114917 WT7  7147 TIP3 H1   HT     0.417000        1.0080           0
  114918 WT7  7147 TIP3 H2   HT     0.417000        1.0080           0
  114919 WT7  7165 TIP3 OH2  OT    -0.834000       15.9994           0
  114920 WT7  7165 TIP3 H1   HT     0.417000        1.0080           0
  114921 WT7  7165 TIP3 H2   HT     0.417000        1.0080           0
  114922 WT7  7166 TIP3 OH2  OT    -0.834000       15.9994           0
  114923 WT7  7166 TIP3 H1   HT     0.417000        1.0080           0
  114924 WT7  7166 TIP3 H2   HT     0.417000        1.0080           0
  114925 WT7  7168 TIP3 OH2  OT    -0.834000       15.9994           0
  114926 WT7  7168 TIP3 H1   HT     0.417000        1.0080           0
  114927 WT7  7168 TIP3 H2   HT     0.417000        1.0080           0
  114928 WT7  7170 TIP3 OH2  OT    -0.834000       15.9994           0
  114929 WT7  7170 TIP3 H1   HT     0.417000        1.0080           0
  114930 WT7  7170 TIP3 H2   HT     0.417000        1.0080           0
  114931 WT7  7171 TIP3 OH2  OT    -0.834000       15.9994           0
  114932 WT7  7171 TIP3 H1   HT     0.417000        1.0080           0
  114933 WT7  7171 TIP3 H2   HT     0.417000        1.0080           0
  114934 WT7  7174 TIP3 OH2  OT    -0.834000       15.9994           0
  114935 WT7  7174 TIP3 H1   HT     0.417000        1.0080           0
  114936 WT7  7174 TIP3 H2   HT     0.417000        1.0080           0
  114937 WT7  7176 TIP3 OH2  OT    -0.834000       15.9994           0
  114938 WT7  7176 TIP3 H1   HT     0.417000        1.0080           0
  114939 WT7  7176 TIP3 H2   HT     0.417000        1.0080           0
  114940 WT7  7182 TIP3 OH2  OT    -0.834000       15.9994           0
  114941 WT7  7182 TIP3 H1   HT     0.417000        1.0080           0
  114942 WT7  7182 TIP3 H2   HT     0.417000        1.0080           0
  114943 WT7  7185 TIP3 OH2  OT    -0.834000       15.9994           0
  114944 WT7  7185 TIP3 H1   HT     0.417000        1.0080           0
  114945 WT7  7185 TIP3 H2   HT     0.417000        1.0080           0
  114946 WT7  7192 TIP3 OH2  OT    -0.834000       15.9994           0
  114947 WT7  7192 TIP3 H1   HT     0.417000        1.0080           0
  114948 WT7  7192 TIP3 H2   HT     0.417000        1.0080           0
  114949 WT7  7193 TIP3 OH2  OT    -0.834000       15.9994           0
  114950 WT7  7193 TIP3 H1   HT     0.417000        1.0080           0
  114951 WT7  7193 TIP3 H2   HT     0.417000        1.0080           0
  114952 WT7  7196 TIP3 OH2  OT    -0.834000       15.9994           0
  114953 WT7  7196 TIP3 H1   HT     0.417000        1.0080           0
  114954 WT7  7196 TIP3 H2   HT     0.417000        1.0080           0
  114955 WT7  7198 TIP3 OH2  OT    -0.834000       15.9994           0
  114956 WT7  7198 TIP3 H1   HT     0.417000        1.0080           0
  114957 WT7  7198 TIP3 H2   HT     0.417000        1.0080           0
  114958 WT7  7203 TIP3 OH2  OT    -0.834000       15.9994           0
  114959 WT7  7203 TIP3 H1   HT     0.417000        1.0080           0
  114960 WT7  7203 TIP3 H2   HT     0.417000        1.0080           0
  114961 WT7  7210 TIP3 OH2  OT    -0.834000       15.9994           0
  114962 WT7  7210 TIP3 H1   HT     0.417000        1.0080           0
  114963 WT7  7210 TIP3 H2   HT     0.417000        1.0080           0
  114964 WT7  7214 TIP3 OH2  OT    -0.834000       15.9994           0
  114965 WT7  7214 TIP3 H1   HT     0.417000        1.0080           0
  114966 WT7  7214 TIP3 H2   HT     0.417000        1.0080           0
  114967 WT7  7215 TIP3 OH2  OT    -0.834000       15.9994           0
  114968 WT7  7215 TIP3 H1   HT     0.417000        1.0080           0
  114969 WT7  7215 TIP3 H2   HT     0.417000        1.0080           0
  114970 WT7  7216 TIP3 OH2  OT    -0.834000       15.9994           0
  114971 WT7  7216 TIP3 H1   HT     0.417000        1.0080           0
  114972 WT7  7216 TIP3 H2   HT     0.417000        1.0080           0
  114973 WT7  7222 TIP3 OH2  OT    -0.834000       15.9994           0
  114974 WT7  7222 TIP3 H1   HT     0.417000        1.0080           0
  114975 WT7  7222 TIP3 H2   HT     0.417000        1.0080           0
  114976 WT7  7225 TIP3 OH2  OT    -0.834000       15.9994           0
  114977 WT7  7225 TIP3 H1   HT     0.417000        1.0080           0
  114978 WT7  7225 TIP3 H2   HT     0.417000        1.0080           0
  114979 WT7  7231 TIP3 OH2  OT    -0.834000       15.9994           0
  114980 WT7  7231 TIP3 H1   HT     0.417000        1.0080           0
  114981 WT7  7231 TIP3 H2   HT     0.417000        1.0080           0
  114982 WT7  7241 TIP3 OH2  OT    -0.834000       15.9994           0
  114983 WT7  7241 TIP3 H1   HT     0.417000        1.0080           0
  114984 WT7  7241 TIP3 H2   HT     0.417000        1.0080           0
  114985 WT7  7252 TIP3 OH2  OT    -0.834000       15.9994           0
  114986 WT7  7252 TIP3 H1   HT     0.417000        1.0080           0
  114987 WT7  7252 TIP3 H2   HT     0.417000        1.0080           0
  114988 WT7  7257 TIP3 OH2  OT    -0.834000       15.9994           0
  114989 WT7  7257 TIP3 H1   HT     0.417000        1.0080           0
  114990 WT7  7257 TIP3 H2   HT     0.417000        1.0080           0
  114991 WT7  7262 TIP3 OH2  OT    -0.834000       15.9994           0
  114992 WT7  7262 TIP3 H1   HT     0.417000        1.0080           0
  114993 WT7  7262 TIP3 H2   HT     0.417000        1.0080           0
  114994 WT7  7266 TIP3 OH2  OT    -0.834000       15.9994           0
  114995 WT7  7266 TIP3 H1   HT     0.417000        1.0080           0
  114996 WT7  7266 TIP3 H2   HT     0.417000        1.0080           0
  114997 WT7  7290 TIP3 OH2  OT    -0.834000       15.9994           0
  114998 WT7  7290 TIP3 H1   HT     0.417000        1.0080           0
  114999 WT7  7290 TIP3 H2   HT     0.417000        1.0080           0
  115000 WT7  7295 TIP3 OH2  OT    -0.834000       15.9994           0
  115001 WT7  7295 TIP3 H1   HT     0.417000        1.0080           0
  115002 WT7  7295 TIP3 H2   HT     0.417000        1.0080           0
  115003 WT7  7296 TIP3 OH2  OT    -0.834000       15.9994           0
  115004 WT7  7296 TIP3 H1   HT     0.417000        1.0080           0
  115005 WT7  7296 TIP3 H2   HT     0.417000        1.0080           0
  115006 WT7  7305 TIP3 OH2  OT    -0.834000       15.9994           0
  115007 WT7  7305 TIP3 H1   HT     0.417000        1.0080           0
  115008 WT7  7305 TIP3 H2   HT     0.417000        1.0080           0
  115009 WT7  7312 TIP3 OH2  OT    -0.834000       15.9994           0
  115010 WT7  7312 TIP3 H1   HT     0.417000        1.0080           0
  115011 WT7  7312 TIP3 H2   HT     0.417000        1.0080           0
  115012 WT7  7314 TIP3 OH2  OT    -0.834000       15.9994           0
  115013 WT7  7314 TIP3 H1   HT     0.417000        1.0080           0
  115014 WT7  7314 TIP3 H2   HT     0.417000        1.0080           0
  115015 WT7  7316 TIP3 OH2  OT    -0.834000       15.9994           0
  115016 WT7  7316 TIP3 H1   HT     0.417000        1.0080           0
  115017 WT7  7316 TIP3 H2   HT     0.417000        1.0080           0
  115018 WT7  7331 TIP3 OH2  OT    -0.834000       15.9994           0
  115019 WT7  7331 TIP3 H1   HT     0.417000        1.0080           0
  115020 WT7  7331 TIP3 H2   HT     0.417000        1.0080           0
  115021 WT7  7349 TIP3 OH2  OT    -0.834000       15.9994           0
  115022 WT7  7349 TIP3 H1   HT     0.417000        1.0080           0
  115023 WT7  7349 TIP3 H2   HT     0.417000        1.0080           0
  115024 WT7  7352 TIP3 OH2  OT    -0.834000       15.9994           0
  115025 WT7  7352 TIP3 H1   HT     0.417000        1.0080           0
  115026 WT7  7352 TIP3 H2   HT     0.417000        1.0080           0
  115027 WT7  7374 TIP3 OH2  OT    -0.834000       15.9994           0
  115028 WT7  7374 TIP3 H1   HT     0.417000        1.0080           0
  115029 WT7  7374 TIP3 H2   HT     0.417000        1.0080           0
  115030 WT7  7375 TIP3 OH2  OT    -0.834000       15.9994           0
  115031 WT7  7375 TIP3 H1   HT     0.417000        1.0080           0
  115032 WT7  7375 TIP3 H2   HT     0.417000        1.0080           0
  115033 WT7  7395 TIP3 OH2  OT    -0.834000       15.9994           0
  115034 WT7  7395 TIP3 H1   HT     0.417000        1.0080           0
  115035 WT7  7395 TIP3 H2   HT     0.417000        1.0080           0
  115036 WT7  7398 TIP3 OH2  OT    -0.834000       15.9994           0
  115037 WT7  7398 TIP3 H1   HT     0.417000        1.0080           0
  115038 WT7  7398 TIP3 H2   HT     0.417000        1.0080           0
  115039 WT7  7412 TIP3 OH2  OT    -0.834000       15.9994           0
  115040 WT7  7412 TIP3 H1   HT     0.417000        1.0080           0
  115041 WT7  7412 TIP3 H2   HT     0.417000        1.0080           0
  115042 WT7  7414 TIP3 OH2  OT    -0.834000       15.9994           0
  115043 WT7  7414 TIP3 H1   HT     0.417000        1.0080           0
  115044 WT7  7414 TIP3 H2   HT     0.417000        1.0080           0
  115045 WT7  7437 TIP3 OH2  OT    -0.834000       15.9994           0
  115046 WT7  7437 TIP3 H1   HT     0.417000        1.0080           0
  115047 WT7  7437 TIP3 H2   HT     0.417000        1.0080           0
  115048 WT7  7444 TIP3 OH2  OT    -0.834000       15.9994           0
  115049 WT7  7444 TIP3 H1   HT     0.417000        1.0080           0
  115050 WT7  7444 TIP3 H2   HT     0.417000        1.0080           0
  115051 WT7  7479 TIP3 OH2  OT    -0.834000       15.9994           0
  115052 WT7  7479 TIP3 H1   HT     0.417000        1.0080           0
  115053 WT7  7479 TIP3 H2   HT     0.417000        1.0080           0
  115054 WT7  7481 TIP3 OH2  OT    -0.834000       15.9994           0
  115055 WT7  7481 TIP3 H1   HT     0.417000        1.0080           0
  115056 WT7  7481 TIP3 H2   HT     0.417000        1.0080           0
  115057 WT7  7501 TIP3 OH2  OT    -0.834000       15.9994           0
  115058 WT7  7501 TIP3 H1   HT     0.417000        1.0080           0
  115059 WT7  7501 TIP3 H2   HT     0.417000        1.0080           0
  115060 WT7  7510 TIP3 OH2  OT    -0.834000       15.9994           0
  115061 WT7  7510 TIP3 H1   HT     0.417000        1.0080           0
  115062 WT7  7510 TIP3 H2   HT     0.417000        1.0080           0
  115063 WT7  7525 TIP3 OH2  OT    -0.834000       15.9994           0
  115064 WT7  7525 TIP3 H1   HT     0.417000        1.0080           0
  115065 WT7  7525 TIP3 H2   HT     0.417000        1.0080           0
  115066 WT7  7532 TIP3 OH2  OT    -0.834000       15.9994           0
  115067 WT7  7532 TIP3 H1   HT     0.417000        1.0080           0
  115068 WT7  7532 TIP3 H2   HT     0.417000        1.0080           0
  115069 WT7  7550 TIP3 OH2  OT    -0.834000       15.9994           0
  115070 WT7  7550 TIP3 H1   HT     0.417000        1.0080           0
  115071 WT7  7550 TIP3 H2   HT     0.417000        1.0080           0
  115072 WT7  7554 TIP3 OH2  OT    -0.834000       15.9994           0
  115073 WT7  7554 TIP3 H1   HT     0.417000        1.0080           0
  115074 WT7  7554 TIP3 H2   HT     0.417000        1.0080           0
  115075 WT7  7557 TIP3 OH2  OT    -0.834000       15.9994           0
  115076 WT7  7557 TIP3 H1   HT     0.417000        1.0080           0
  115077 WT7  7557 TIP3 H2   HT     0.417000        1.0080           0
  115078 WT7  7563 TIP3 OH2  OT    -0.834000       15.9994           0
  115079 WT7  7563 TIP3 H1   HT     0.417000        1.0080           0
  115080 WT7  7563 TIP3 H2   HT     0.417000        1.0080           0
  115081 WT7  7567 TIP3 OH2  OT    -0.834000       15.9994           0
  115082 WT7  7567 TIP3 H1   HT     0.417000        1.0080           0
  115083 WT7  7567 TIP3 H2   HT     0.417000        1.0080           0
  115084 WT7  7568 TIP3 OH2  OT    -0.834000       15.9994           0
  115085 WT7  7568 TIP3 H1   HT     0.417000        1.0080           0
  115086 WT7  7568 TIP3 H2   HT     0.417000        1.0080           0
  115087 WT7  7572 TIP3 OH2  OT    -0.834000       15.9994           0
  115088 WT7  7572 TIP3 H1   HT     0.417000        1.0080           0
  115089 WT7  7572 TIP3 H2   HT     0.417000        1.0080           0
  115090 WT7  7576 TIP3 OH2  OT    -0.834000       15.9994           0
  115091 WT7  7576 TIP3 H1   HT     0.417000        1.0080           0
  115092 WT7  7576 TIP3 H2   HT     0.417000        1.0080           0
  115093 WT7  7583 TIP3 OH2  OT    -0.834000       15.9994           0
  115094 WT7  7583 TIP3 H1   HT     0.417000        1.0080           0
  115095 WT7  7583 TIP3 H2   HT     0.417000        1.0080           0
  115096 WT7  7592 TIP3 OH2  OT    -0.834000       15.9994           0
  115097 WT7  7592 TIP3 H1   HT     0.417000        1.0080           0
  115098 WT7  7592 TIP3 H2   HT     0.417000        1.0080           0
  115099 WT7  7595 TIP3 OH2  OT    -0.834000       15.9994           0
  115100 WT7  7595 TIP3 H1   HT     0.417000        1.0080           0
  115101 WT7  7595 TIP3 H2   HT     0.417000        1.0080           0
  115102 WT7  7597 TIP3 OH2  OT    -0.834000       15.9994           0
  115103 WT7  7597 TIP3 H1   HT     0.417000        1.0080           0
  115104 WT7  7597 TIP3 H2   HT     0.417000        1.0080           0
  115105 WT7  7603 TIP3 OH2  OT    -0.834000       15.9994           0
  115106 WT7  7603 TIP3 H1   HT     0.417000        1.0080           0
  115107 WT7  7603 TIP3 H2   HT     0.417000        1.0080           0
  115108 WT7  7605 TIP3 OH2  OT    -0.834000       15.9994           0
  115109 WT7  7605 TIP3 H1   HT     0.417000        1.0080           0
  115110 WT7  7605 TIP3 H2   HT     0.417000        1.0080           0
  115111 WT7  7607 TIP3 OH2  OT    -0.834000       15.9994           0
  115112 WT7  7607 TIP3 H1   HT     0.417000        1.0080           0
  115113 WT7  7607 TIP3 H2   HT     0.417000        1.0080           0
  115114 WT7  7612 TIP3 OH2  OT    -0.834000       15.9994           0
  115115 WT7  7612 TIP3 H1   HT     0.417000        1.0080           0
  115116 WT7  7612 TIP3 H2   HT     0.417000        1.0080           0
  115117 WT7  7617 TIP3 OH2  OT    -0.834000       15.9994           0
  115118 WT7  7617 TIP3 H1   HT     0.417000        1.0080           0
  115119 WT7  7617 TIP3 H2   HT     0.417000        1.0080           0
  115120 WT7  7630 TIP3 OH2  OT    -0.834000       15.9994           0
  115121 WT7  7630 TIP3 H1   HT     0.417000        1.0080           0
  115122 WT7  7630 TIP3 H2   HT     0.417000        1.0080           0
  115123 WT7  7631 TIP3 OH2  OT    -0.834000       15.9994           0
  115124 WT7  7631 TIP3 H1   HT     0.417000        1.0080           0
  115125 WT7  7631 TIP3 H2   HT     0.417000        1.0080           0
  115126 WT7  7634 TIP3 OH2  OT    -0.834000       15.9994           0
  115127 WT7  7634 TIP3 H1   HT     0.417000        1.0080           0
  115128 WT7  7634 TIP3 H2   HT     0.417000        1.0080           0
  115129 WT7  7638 TIP3 OH2  OT    -0.834000       15.9994           0
  115130 WT7  7638 TIP3 H1   HT     0.417000        1.0080           0
  115131 WT7  7638 TIP3 H2   HT     0.417000        1.0080           0
  115132 WT7  7643 TIP3 OH2  OT    -0.834000       15.9994           0
  115133 WT7  7643 TIP3 H1   HT     0.417000        1.0080           0
  115134 WT7  7643 TIP3 H2   HT     0.417000        1.0080           0
  115135 WT7  7647 TIP3 OH2  OT    -0.834000       15.9994           0
  115136 WT7  7647 TIP3 H1   HT     0.417000        1.0080           0
  115137 WT7  7647 TIP3 H2   HT     0.417000        1.0080           0
  115138 WT7  7650 TIP3 OH2  OT    -0.834000       15.9994           0
  115139 WT7  7650 TIP3 H1   HT     0.417000        1.0080           0
  115140 WT7  7650 TIP3 H2   HT     0.417000        1.0080           0
  115141 WT7  7661 TIP3 OH2  OT    -0.834000       15.9994           0
  115142 WT7  7661 TIP3 H1   HT     0.417000        1.0080           0
  115143 WT7  7661 TIP3 H2   HT     0.417000        1.0080           0
  115144 WT7  7664 TIP3 OH2  OT    -0.834000       15.9994           0
  115145 WT7  7664 TIP3 H1   HT     0.417000        1.0080           0
  115146 WT7  7664 TIP3 H2   HT     0.417000        1.0080           0
  115147 WT7  7667 TIP3 OH2  OT    -0.834000       15.9994           0
  115148 WT7  7667 TIP3 H1   HT     0.417000        1.0080           0
  115149 WT7  7667 TIP3 H2   HT     0.417000        1.0080           0
  115150 WT7  7668 TIP3 OH2  OT    -0.834000       15.9994           0
  115151 WT7  7668 TIP3 H1   HT     0.417000        1.0080           0
  115152 WT7  7668 TIP3 H2   HT     0.417000        1.0080           0
  115153 WT7  7675 TIP3 OH2  OT    -0.834000       15.9994           0
  115154 WT7  7675 TIP3 H1   HT     0.417000        1.0080           0
  115155 WT7  7675 TIP3 H2   HT     0.417000        1.0080           0
  115156 WT7  7676 TIP3 OH2  OT    -0.834000       15.9994           0
  115157 WT7  7676 TIP3 H1   HT     0.417000        1.0080           0
  115158 WT7  7676 TIP3 H2   HT     0.417000        1.0080           0
  115159 WT7  7689 TIP3 OH2  OT    -0.834000       15.9994           0
  115160 WT7  7689 TIP3 H1   HT     0.417000        1.0080           0
  115161 WT7  7689 TIP3 H2   HT     0.417000        1.0080           0
  115162 WT7  7690 TIP3 OH2  OT    -0.834000       15.9994           0
  115163 WT7  7690 TIP3 H1   HT     0.417000        1.0080           0
  115164 WT7  7690 TIP3 H2   HT     0.417000        1.0080           0
  115165 WT7  7698 TIP3 OH2  OT    -0.834000       15.9994           0
  115166 WT7  7698 TIP3 H1   HT     0.417000        1.0080           0
  115167 WT7  7698 TIP3 H2   HT     0.417000        1.0080           0
  115168 WT7  7700 TIP3 OH2  OT    -0.834000       15.9994           0
  115169 WT7  7700 TIP3 H1   HT     0.417000        1.0080           0
  115170 WT7  7700 TIP3 H2   HT     0.417000        1.0080           0
  115171 WT7  7702 TIP3 OH2  OT    -0.834000       15.9994           0
  115172 WT7  7702 TIP3 H1   HT     0.417000        1.0080           0
  115173 WT7  7702 TIP3 H2   HT     0.417000        1.0080           0
  115174 WT7  7707 TIP3 OH2  OT    -0.834000       15.9994           0
  115175 WT7  7707 TIP3 H1   HT     0.417000        1.0080           0
  115176 WT7  7707 TIP3 H2   HT     0.417000        1.0080           0
  115177 WT7  7711 TIP3 OH2  OT    -0.834000       15.9994           0
  115178 WT7  7711 TIP3 H1   HT     0.417000        1.0080           0
  115179 WT7  7711 TIP3 H2   HT     0.417000        1.0080           0
  115180 WT7  7712 TIP3 OH2  OT    -0.834000       15.9994           0
  115181 WT7  7712 TIP3 H1   HT     0.417000        1.0080           0
  115182 WT7  7712 TIP3 H2   HT     0.417000        1.0080           0
  115183 WT7  7714 TIP3 OH2  OT    -0.834000       15.9994           0
  115184 WT7  7714 TIP3 H1   HT     0.417000        1.0080           0
  115185 WT7  7714 TIP3 H2   HT     0.417000        1.0080           0
  115186 WT7  7715 TIP3 OH2  OT    -0.834000       15.9994           0
  115187 WT7  7715 TIP3 H1   HT     0.417000        1.0080           0
  115188 WT7  7715 TIP3 H2   HT     0.417000        1.0080           0
  115189 WT7  7716 TIP3 OH2  OT    -0.834000       15.9994           0
  115190 WT7  7716 TIP3 H1   HT     0.417000        1.0080           0
  115191 WT7  7716 TIP3 H2   HT     0.417000        1.0080           0
  115192 WT7  7722 TIP3 OH2  OT    -0.834000       15.9994           0
  115193 WT7  7722 TIP3 H1   HT     0.417000        1.0080           0
  115194 WT7  7722 TIP3 H2   HT     0.417000        1.0080           0
  115195 WT7  7739 TIP3 OH2  OT    -0.834000       15.9994           0
  115196 WT7  7739 TIP3 H1   HT     0.417000        1.0080           0
  115197 WT7  7739 TIP3 H2   HT     0.417000        1.0080           0
  115198 WT7  7748 TIP3 OH2  OT    -0.834000       15.9994           0
  115199 WT7  7748 TIP3 H1   HT     0.417000        1.0080           0
  115200 WT7  7748 TIP3 H2   HT     0.417000        1.0080           0
  115201 WT7  7750 TIP3 OH2  OT    -0.834000       15.9994           0
  115202 WT7  7750 TIP3 H1   HT     0.417000        1.0080           0
  115203 WT7  7750 TIP3 H2   HT     0.417000        1.0080           0
  115204 WT7  7754 TIP3 OH2  OT    -0.834000       15.9994           0
  115205 WT7  7754 TIP3 H1   HT     0.417000        1.0080           0
  115206 WT7  7754 TIP3 H2   HT     0.417000        1.0080           0
  115207 WT7  7755 TIP3 OH2  OT    -0.834000       15.9994           0
  115208 WT7  7755 TIP3 H1   HT     0.417000        1.0080           0
  115209 WT7  7755 TIP3 H2   HT     0.417000        1.0080           0
  115210 WT7  7756 TIP3 OH2  OT    -0.834000       15.9994           0
  115211 WT7  7756 TIP3 H1   HT     0.417000        1.0080           0
  115212 WT7  7756 TIP3 H2   HT     0.417000        1.0080           0
  115213 WT7  7773 TIP3 OH2  OT    -0.834000       15.9994           0
  115214 WT7  7773 TIP3 H1   HT     0.417000        1.0080           0
  115215 WT7  7773 TIP3 H2   HT     0.417000        1.0080           0
  115216 WT7  7784 TIP3 OH2  OT    -0.834000       15.9994           0
  115217 WT7  7784 TIP3 H1   HT     0.417000        1.0080           0
  115218 WT7  7784 TIP3 H2   HT     0.417000        1.0080           0
  115219 WT7  7786 TIP3 OH2  OT    -0.834000       15.9994           0
  115220 WT7  7786 TIP3 H1   HT     0.417000        1.0080           0
  115221 WT7  7786 TIP3 H2   HT     0.417000        1.0080           0
  115222 WT7  7798 TIP3 OH2  OT    -0.834000       15.9994           0
  115223 WT7  7798 TIP3 H1   HT     0.417000        1.0080           0
  115224 WT7  7798 TIP3 H2   HT     0.417000        1.0080           0
  115225 WT7  7860 TIP3 OH2  OT    -0.834000       15.9994           0
  115226 WT7  7860 TIP3 H1   HT     0.417000        1.0080           0
  115227 WT7  7860 TIP3 H2   HT     0.417000        1.0080           0
  115228 WT7  7867 TIP3 OH2  OT    -0.834000       15.9994           0
  115229 WT7  7867 TIP3 H1   HT     0.417000        1.0080           0
  115230 WT7  7867 TIP3 H2   HT     0.417000        1.0080           0
  115231 WT7  7873 TIP3 OH2  OT    -0.834000       15.9994           0
  115232 WT7  7873 TIP3 H1   HT     0.417000        1.0080           0
  115233 WT7  7873 TIP3 H2   HT     0.417000        1.0080           0
  115234 WT7  7897 TIP3 OH2  OT    -0.834000       15.9994           0
  115235 WT7  7897 TIP3 H1   HT     0.417000        1.0080           0
  115236 WT7  7897 TIP3 H2   HT     0.417000        1.0080           0
  115237 WT7  7904 TIP3 OH2  OT    -0.834000       15.9994           0
  115238 WT7  7904 TIP3 H1   HT     0.417000        1.0080           0
  115239 WT7  7904 TIP3 H2   HT     0.417000        1.0080           0
  115240 WT7  7932 TIP3 OH2  OT    -0.834000       15.9994           0
  115241 WT7  7932 TIP3 H1   HT     0.417000        1.0080           0
  115242 WT7  7932 TIP3 H2   HT     0.417000        1.0080           0
  115243 WT7  7945 TIP3 OH2  OT    -0.834000       15.9994           0
  115244 WT7  7945 TIP3 H1   HT     0.417000        1.0080           0
  115245 WT7  7945 TIP3 H2   HT     0.417000        1.0080           0
  115246 WT7  7951 TIP3 OH2  OT    -0.834000       15.9994           0
  115247 WT7  7951 TIP3 H1   HT     0.417000        1.0080           0
  115248 WT7  7951 TIP3 H2   HT     0.417000        1.0080           0
  115249 WT7  7961 TIP3 OH2  OT    -0.834000       15.9994           0
  115250 WT7  7961 TIP3 H1   HT     0.417000        1.0080           0
  115251 WT7  7961 TIP3 H2   HT     0.417000        1.0080           0
  115252 WT7  7964 TIP3 OH2  OT    -0.834000       15.9994           0
  115253 WT7  7964 TIP3 H1   HT     0.417000        1.0080           0
  115254 WT7  7964 TIP3 H2   HT     0.417000        1.0080           0
  115255 WT7  7978 TIP3 OH2  OT    -0.834000       15.9994           0
  115256 WT7  7978 TIP3 H1   HT     0.417000        1.0080           0
  115257 WT7  7978 TIP3 H2   HT     0.417000        1.0080           0
  115258 WT7  7985 TIP3 OH2  OT    -0.834000       15.9994           0
  115259 WT7  7985 TIP3 H1   HT     0.417000        1.0080           0
  115260 WT7  7985 TIP3 H2   HT     0.417000        1.0080           0
  115261 WT7  7988 TIP3 OH2  OT    -0.834000       15.9994           0
  115262 WT7  7988 TIP3 H1   HT     0.417000        1.0080           0
  115263 WT7  7988 TIP3 H2   HT     0.417000        1.0080           0
  115264 WT7  7997 TIP3 OH2  OT    -0.834000       15.9994           0
  115265 WT7  7997 TIP3 H1   HT     0.417000        1.0080           0
  115266 WT7  7997 TIP3 H2   HT     0.417000        1.0080           0
  115267 WT7  7998 TIP3 OH2  OT    -0.834000       15.9994           0
  115268 WT7  7998 TIP3 H1   HT     0.417000        1.0080           0
  115269 WT7  7998 TIP3 H2   HT     0.417000        1.0080           0
  115270 WT7  8009 TIP3 OH2  OT    -0.834000       15.9994           0
  115271 WT7  8009 TIP3 H1   HT     0.417000        1.0080           0
  115272 WT7  8009 TIP3 H2   HT     0.417000        1.0080           0
  115273 WT7  8014 TIP3 OH2  OT    -0.834000       15.9994           0
  115274 WT7  8014 TIP3 H1   HT     0.417000        1.0080           0
  115275 WT7  8014 TIP3 H2   HT     0.417000        1.0080           0
  115276 WT7  8023 TIP3 OH2  OT    -0.834000       15.9994           0
  115277 WT7  8023 TIP3 H1   HT     0.417000        1.0080           0
  115278 WT7  8023 TIP3 H2   HT     0.417000        1.0080           0
  115279 WT7  8024 TIP3 OH2  OT    -0.834000       15.9994           0
  115280 WT7  8024 TIP3 H1   HT     0.417000        1.0080           0
  115281 WT7  8024 TIP3 H2   HT     0.417000        1.0080           0
  115282 WT7  8029 TIP3 OH2  OT    -0.834000       15.9994           0
  115283 WT7  8029 TIP3 H1   HT     0.417000        1.0080           0
  115284 WT7  8029 TIP3 H2   HT     0.417000        1.0080           0
  115285 WT7  8030 TIP3 OH2  OT    -0.834000       15.9994           0
  115286 WT7  8030 TIP3 H1   HT     0.417000        1.0080           0
  115287 WT7  8030 TIP3 H2   HT     0.417000        1.0080           0
  115288 WT7  8031 TIP3 OH2  OT    -0.834000       15.9994           0
  115289 WT7  8031 TIP3 H1   HT     0.417000        1.0080           0
  115290 WT7  8031 TIP3 H2   HT     0.417000        1.0080           0
  115291 WT7  8034 TIP3 OH2  OT    -0.834000       15.9994           0
  115292 WT7  8034 TIP3 H1   HT     0.417000        1.0080           0
  115293 WT7  8034 TIP3 H2   HT     0.417000        1.0080           0
  115294 WT7  8046 TIP3 OH2  OT    -0.834000       15.9994           0
  115295 WT7  8046 TIP3 H1   HT     0.417000        1.0080           0
  115296 WT7  8046 TIP3 H2   HT     0.417000        1.0080           0
  115297 WT7  8055 TIP3 OH2  OT    -0.834000       15.9994           0
  115298 WT7  8055 TIP3 H1   HT     0.417000        1.0080           0
  115299 WT7  8055 TIP3 H2   HT     0.417000        1.0080           0
  115300 WT7  8064 TIP3 OH2  OT    -0.834000       15.9994           0
  115301 WT7  8064 TIP3 H1   HT     0.417000        1.0080           0
  115302 WT7  8064 TIP3 H2   HT     0.417000        1.0080           0
  115303 WT7  8065 TIP3 OH2  OT    -0.834000       15.9994           0
  115304 WT7  8065 TIP3 H1   HT     0.417000        1.0080           0
  115305 WT7  8065 TIP3 H2   HT     0.417000        1.0080           0
  115306 WT7  8066 TIP3 OH2  OT    -0.834000       15.9994           0
  115307 WT7  8066 TIP3 H1   HT     0.417000        1.0080           0
  115308 WT7  8066 TIP3 H2   HT     0.417000        1.0080           0
  115309 WT7  8067 TIP3 OH2  OT    -0.834000       15.9994           0
  115310 WT7  8067 TIP3 H1   HT     0.417000        1.0080           0
  115311 WT7  8067 TIP3 H2   HT     0.417000        1.0080           0
  115312 WT7  8068 TIP3 OH2  OT    -0.834000       15.9994           0
  115313 WT7  8068 TIP3 H1   HT     0.417000        1.0080           0
  115314 WT7  8068 TIP3 H2   HT     0.417000        1.0080           0
  115315 WT7  8070 TIP3 OH2  OT    -0.834000       15.9994           0
  115316 WT7  8070 TIP3 H1   HT     0.417000        1.0080           0
  115317 WT7  8070 TIP3 H2   HT     0.417000        1.0080           0
  115318 WT7  8073 TIP3 OH2  OT    -0.834000       15.9994           0
  115319 WT7  8073 TIP3 H1   HT     0.417000        1.0080           0
  115320 WT7  8073 TIP3 H2   HT     0.417000        1.0080           0
  115321 WT7  8076 TIP3 OH2  OT    -0.834000       15.9994           0
  115322 WT7  8076 TIP3 H1   HT     0.417000        1.0080           0
  115323 WT7  8076 TIP3 H2   HT     0.417000        1.0080           0
  115324 WT7  8087 TIP3 OH2  OT    -0.834000       15.9994           0
  115325 WT7  8087 TIP3 H1   HT     0.417000        1.0080           0
  115326 WT7  8087 TIP3 H2   HT     0.417000        1.0080           0
  115327 WT7  8091 TIP3 OH2  OT    -0.834000       15.9994           0
  115328 WT7  8091 TIP3 H1   HT     0.417000        1.0080           0
  115329 WT7  8091 TIP3 H2   HT     0.417000        1.0080           0
  115330 WT7  8094 TIP3 OH2  OT    -0.834000       15.9994           0
  115331 WT7  8094 TIP3 H1   HT     0.417000        1.0080           0
  115332 WT7  8094 TIP3 H2   HT     0.417000        1.0080           0
  115333 WT7  8097 TIP3 OH2  OT    -0.834000       15.9994           0
  115334 WT7  8097 TIP3 H1   HT     0.417000        1.0080           0
  115335 WT7  8097 TIP3 H2   HT     0.417000        1.0080           0
  115336 WT7  8107 TIP3 OH2  OT    -0.834000       15.9994           0
  115337 WT7  8107 TIP3 H1   HT     0.417000        1.0080           0
  115338 WT7  8107 TIP3 H2   HT     0.417000        1.0080           0
  115339 WT7  8109 TIP3 OH2  OT    -0.834000       15.9994           0
  115340 WT7  8109 TIP3 H1   HT     0.417000        1.0080           0
  115341 WT7  8109 TIP3 H2   HT     0.417000        1.0080           0
  115342 WT7  8113 TIP3 OH2  OT    -0.834000       15.9994           0
  115343 WT7  8113 TIP3 H1   HT     0.417000        1.0080           0
  115344 WT7  8113 TIP3 H2   HT     0.417000        1.0080           0
  115345 WT7  8133 TIP3 OH2  OT    -0.834000       15.9994           0
  115346 WT7  8133 TIP3 H1   HT     0.417000        1.0080           0
  115347 WT7  8133 TIP3 H2   HT     0.417000        1.0080           0
  115348 WT7  8136 TIP3 OH2  OT    -0.834000       15.9994           0
  115349 WT7  8136 TIP3 H1   HT     0.417000        1.0080           0
  115350 WT7  8136 TIP3 H2   HT     0.417000        1.0080           0
  115351 WT7  8140 TIP3 OH2  OT    -0.834000       15.9994           0
  115352 WT7  8140 TIP3 H1   HT     0.417000        1.0080           0
  115353 WT7  8140 TIP3 H2   HT     0.417000        1.0080           0
  115354 WT7  8143 TIP3 OH2  OT    -0.834000       15.9994           0
  115355 WT7  8143 TIP3 H1   HT     0.417000        1.0080           0
  115356 WT7  8143 TIP3 H2   HT     0.417000        1.0080           0
  115357 WT7  8161 TIP3 OH2  OT    -0.834000       15.9994           0
  115358 WT7  8161 TIP3 H1   HT     0.417000        1.0080           0
  115359 WT7  8161 TIP3 H2   HT     0.417000        1.0080           0
  115360 WT7  8174 TIP3 OH2  OT    -0.834000       15.9994           0
  115361 WT7  8174 TIP3 H1   HT     0.417000        1.0080           0
  115362 WT7  8174 TIP3 H2   HT     0.417000        1.0080           0
  115363 WT7  8176 TIP3 OH2  OT    -0.834000       15.9994           0
  115364 WT7  8176 TIP3 H1   HT     0.417000        1.0080           0
  115365 WT7  8176 TIP3 H2   HT     0.417000        1.0080           0
  115366 WT7  8185 TIP3 OH2  OT    -0.834000       15.9994           0
  115367 WT7  8185 TIP3 H1   HT     0.417000        1.0080           0
  115368 WT7  8185 TIP3 H2   HT     0.417000        1.0080           0
  115369 WT7  8191 TIP3 OH2  OT    -0.834000       15.9994           0
  115370 WT7  8191 TIP3 H1   HT     0.417000        1.0080           0
  115371 WT7  8191 TIP3 H2   HT     0.417000        1.0080           0
  115372 WT7  8193 TIP3 OH2  OT    -0.834000       15.9994           0
  115373 WT7  8193 TIP3 H1   HT     0.417000        1.0080           0
  115374 WT7  8193 TIP3 H2   HT     0.417000        1.0080           0
  115375 WT7  8195 TIP3 OH2  OT    -0.834000       15.9994           0
  115376 WT7  8195 TIP3 H1   HT     0.417000        1.0080           0
  115377 WT7  8195 TIP3 H2   HT     0.417000        1.0080           0
  115378 WT7  8201 TIP3 OH2  OT    -0.834000       15.9994           0
  115379 WT7  8201 TIP3 H1   HT     0.417000        1.0080           0
  115380 WT7  8201 TIP3 H2   HT     0.417000        1.0080           0
  115381 WT7  8202 TIP3 OH2  OT    -0.834000       15.9994           0
  115382 WT7  8202 TIP3 H1   HT     0.417000        1.0080           0
  115383 WT7  8202 TIP3 H2   HT     0.417000        1.0080           0
  115384 WT7  8206 TIP3 OH2  OT    -0.834000       15.9994           0
  115385 WT7  8206 TIP3 H1   HT     0.417000        1.0080           0
  115386 WT7  8206 TIP3 H2   HT     0.417000        1.0080           0
  115387 WT7  8214 TIP3 OH2  OT    -0.834000       15.9994           0
  115388 WT7  8214 TIP3 H1   HT     0.417000        1.0080           0
  115389 WT7  8214 TIP3 H2   HT     0.417000        1.0080           0
  115390 WT7  8222 TIP3 OH2  OT    -0.834000       15.9994           0
  115391 WT7  8222 TIP3 H1   HT     0.417000        1.0080           0
  115392 WT7  8222 TIP3 H2   HT     0.417000        1.0080           0
  115393 WT7  8242 TIP3 OH2  OT    -0.834000       15.9994           0
  115394 WT7  8242 TIP3 H1   HT     0.417000        1.0080           0
  115395 WT7  8242 TIP3 H2   HT     0.417000        1.0080           0
  115396 WT7  8263 TIP3 OH2  OT    -0.834000       15.9994           0
  115397 WT7  8263 TIP3 H1   HT     0.417000        1.0080           0
  115398 WT7  8263 TIP3 H2   HT     0.417000        1.0080           0
  115399 WT7  8265 TIP3 OH2  OT    -0.834000       15.9994           0
  115400 WT7  8265 TIP3 H1   HT     0.417000        1.0080           0
  115401 WT7  8265 TIP3 H2   HT     0.417000        1.0080           0
  115402 WT7  8266 TIP3 OH2  OT    -0.834000       15.9994           0
  115403 WT7  8266 TIP3 H1   HT     0.417000        1.0080           0
  115404 WT7  8266 TIP3 H2   HT     0.417000        1.0080           0
  115405 WT7  8270 TIP3 OH2  OT    -0.834000       15.9994           0
  115406 WT7  8270 TIP3 H1   HT     0.417000        1.0080           0
  115407 WT7  8270 TIP3 H2   HT     0.417000        1.0080           0
  115408 WT7  8290 TIP3 OH2  OT    -0.834000       15.9994           0
  115409 WT7  8290 TIP3 H1   HT     0.417000        1.0080           0
  115410 WT7  8290 TIP3 H2   HT     0.417000        1.0080           0
  115411 WT7  8309 TIP3 OH2  OT    -0.834000       15.9994           0
  115412 WT7  8309 TIP3 H1   HT     0.417000        1.0080           0
  115413 WT7  8309 TIP3 H2   HT     0.417000        1.0080           0
  115414 WT7  8326 TIP3 OH2  OT    -0.834000       15.9994           0
  115415 WT7  8326 TIP3 H1   HT     0.417000        1.0080           0
  115416 WT7  8326 TIP3 H2   HT     0.417000        1.0080           0
  115417 WT7  8342 TIP3 OH2  OT    -0.834000       15.9994           0
  115418 WT7  8342 TIP3 H1   HT     0.417000        1.0080           0
  115419 WT7  8342 TIP3 H2   HT     0.417000        1.0080           0
  115420 WT7  8345 TIP3 OH2  OT    -0.834000       15.9994           0
  115421 WT7  8345 TIP3 H1   HT     0.417000        1.0080           0
  115422 WT7  8345 TIP3 H2   HT     0.417000        1.0080           0
  115423 WT7  8364 TIP3 OH2  OT    -0.834000       15.9994           0
  115424 WT7  8364 TIP3 H1   HT     0.417000        1.0080           0
  115425 WT7  8364 TIP3 H2   HT     0.417000        1.0080           0
  115426 WT7  8370 TIP3 OH2  OT    -0.834000       15.9994           0
  115427 WT7  8370 TIP3 H1   HT     0.417000        1.0080           0
  115428 WT7  8370 TIP3 H2   HT     0.417000        1.0080           0
  115429 WT7  8393 TIP3 OH2  OT    -0.834000       15.9994           0
  115430 WT7  8393 TIP3 H1   HT     0.417000        1.0080           0
  115431 WT7  8393 TIP3 H2   HT     0.417000        1.0080           0
  115432 WT7  8394 TIP3 OH2  OT    -0.834000       15.9994           0
  115433 WT7  8394 TIP3 H1   HT     0.417000        1.0080           0
  115434 WT7  8394 TIP3 H2   HT     0.417000        1.0080           0
  115435 WT7  8395 TIP3 OH2  OT    -0.834000       15.9994           0
  115436 WT7  8395 TIP3 H1   HT     0.417000        1.0080           0
  115437 WT7  8395 TIP3 H2   HT     0.417000        1.0080           0
  115438 WT7  8403 TIP3 OH2  OT    -0.834000       15.9994           0
  115439 WT7  8403 TIP3 H1   HT     0.417000        1.0080           0
  115440 WT7  8403 TIP3 H2   HT     0.417000        1.0080           0
  115441 WT7  8408 TIP3 OH2  OT    -0.834000       15.9994           0
  115442 WT7  8408 TIP3 H1   HT     0.417000        1.0080           0
  115443 WT7  8408 TIP3 H2   HT     0.417000        1.0080           0
  115444 WT7  8409 TIP3 OH2  OT    -0.834000       15.9994           0
  115445 WT7  8409 TIP3 H1   HT     0.417000        1.0080           0
  115446 WT7  8409 TIP3 H2   HT     0.417000        1.0080           0
  115447 WT7  8411 TIP3 OH2  OT    -0.834000       15.9994           0
  115448 WT7  8411 TIP3 H1   HT     0.417000        1.0080           0
  115449 WT7  8411 TIP3 H2   HT     0.417000        1.0080           0
  115450 WT7  8412 TIP3 OH2  OT    -0.834000       15.9994           0
  115451 WT7  8412 TIP3 H1   HT     0.417000        1.0080           0
  115452 WT7  8412 TIP3 H2   HT     0.417000        1.0080           0
  115453 WT7  8414 TIP3 OH2  OT    -0.834000       15.9994           0
  115454 WT7  8414 TIP3 H1   HT     0.417000        1.0080           0
  115455 WT7  8414 TIP3 H2   HT     0.417000        1.0080           0
  115456 WT7  8415 TIP3 OH2  OT    -0.834000       15.9994           0
  115457 WT7  8415 TIP3 H1   HT     0.417000        1.0080           0
  115458 WT7  8415 TIP3 H2   HT     0.417000        1.0080           0
  115459 WT7  8419 TIP3 OH2  OT    -0.834000       15.9994           0
  115460 WT7  8419 TIP3 H1   HT     0.417000        1.0080           0
  115461 WT7  8419 TIP3 H2   HT     0.417000        1.0080           0
  115462 WT7  8420 TIP3 OH2  OT    -0.834000       15.9994           0
  115463 WT7  8420 TIP3 H1   HT     0.417000        1.0080           0
  115464 WT7  8420 TIP3 H2   HT     0.417000        1.0080           0
  115465 WT7  8423 TIP3 OH2  OT    -0.834000       15.9994           0
  115466 WT7  8423 TIP3 H1   HT     0.417000        1.0080           0
  115467 WT7  8423 TIP3 H2   HT     0.417000        1.0080           0
  115468 WT7  8425 TIP3 OH2  OT    -0.834000       15.9994           0
  115469 WT7  8425 TIP3 H1   HT     0.417000        1.0080           0
  115470 WT7  8425 TIP3 H2   HT     0.417000        1.0080           0
  115471 WT7  8436 TIP3 OH2  OT    -0.834000       15.9994           0
  115472 WT7  8436 TIP3 H1   HT     0.417000        1.0080           0
  115473 WT7  8436 TIP3 H2   HT     0.417000        1.0080           0
  115474 WT7  8440 TIP3 OH2  OT    -0.834000       15.9994           0
  115475 WT7  8440 TIP3 H1   HT     0.417000        1.0080           0
  115476 WT7  8440 TIP3 H2   HT     0.417000        1.0080           0
  115477 WT7  8441 TIP3 OH2  OT    -0.834000       15.9994           0
  115478 WT7  8441 TIP3 H1   HT     0.417000        1.0080           0
  115479 WT7  8441 TIP3 H2   HT     0.417000        1.0080           0
  115480 WT7  8443 TIP3 OH2  OT    -0.834000       15.9994           0
  115481 WT7  8443 TIP3 H1   HT     0.417000        1.0080           0
  115482 WT7  8443 TIP3 H2   HT     0.417000        1.0080           0
  115483 WT7  8448 TIP3 OH2  OT    -0.834000       15.9994           0
  115484 WT7  8448 TIP3 H1   HT     0.417000        1.0080           0
  115485 WT7  8448 TIP3 H2   HT     0.417000        1.0080           0
  115486 WT7  8452 TIP3 OH2  OT    -0.834000       15.9994           0
  115487 WT7  8452 TIP3 H1   HT     0.417000        1.0080           0
  115488 WT7  8452 TIP3 H2   HT     0.417000        1.0080           0
  115489 WT7  8457 TIP3 OH2  OT    -0.834000       15.9994           0
  115490 WT7  8457 TIP3 H1   HT     0.417000        1.0080           0
  115491 WT7  8457 TIP3 H2   HT     0.417000        1.0080           0
  115492 WT7  8459 TIP3 OH2  OT    -0.834000       15.9994           0
  115493 WT7  8459 TIP3 H1   HT     0.417000        1.0080           0
  115494 WT7  8459 TIP3 H2   HT     0.417000        1.0080           0
  115495 WT7  8462 TIP3 OH2  OT    -0.834000       15.9994           0
  115496 WT7  8462 TIP3 H1   HT     0.417000        1.0080           0
  115497 WT7  8462 TIP3 H2   HT     0.417000        1.0080           0
  115498 WT7  8466 TIP3 OH2  OT    -0.834000       15.9994           0
  115499 WT7  8466 TIP3 H1   HT     0.417000        1.0080           0
  115500 WT7  8466 TIP3 H2   HT     0.417000        1.0080           0
  115501 WT7  8467 TIP3 OH2  OT    -0.834000       15.9994           0
  115502 WT7  8467 TIP3 H1   HT     0.417000        1.0080           0
  115503 WT7  8467 TIP3 H2   HT     0.417000        1.0080           0
  115504 WT7  8468 TIP3 OH2  OT    -0.834000       15.9994           0
  115505 WT7  8468 TIP3 H1   HT     0.417000        1.0080           0
  115506 WT7  8468 TIP3 H2   HT     0.417000        1.0080           0
  115507 WT7  8491 TIP3 OH2  OT    -0.834000       15.9994           0
  115508 WT7  8491 TIP3 H1   HT     0.417000        1.0080           0
  115509 WT7  8491 TIP3 H2   HT     0.417000        1.0080           0
  115510 WT7  8492 TIP3 OH2  OT    -0.834000       15.9994           0
  115511 WT7  8492 TIP3 H1   HT     0.417000        1.0080           0
  115512 WT7  8492 TIP3 H2   HT     0.417000        1.0080           0
  115513 WT7  8509 TIP3 OH2  OT    -0.834000       15.9994           0
  115514 WT7  8509 TIP3 H1   HT     0.417000        1.0080           0
  115515 WT7  8509 TIP3 H2   HT     0.417000        1.0080           0
  115516 WT7  8518 TIP3 OH2  OT    -0.834000       15.9994           0
  115517 WT7  8518 TIP3 H1   HT     0.417000        1.0080           0
  115518 WT7  8518 TIP3 H2   HT     0.417000        1.0080           0
  115519 WT7  8520 TIP3 OH2  OT    -0.834000       15.9994           0
  115520 WT7  8520 TIP3 H1   HT     0.417000        1.0080           0
  115521 WT7  8520 TIP3 H2   HT     0.417000        1.0080           0
  115522 WT7  8527 TIP3 OH2  OT    -0.834000       15.9994           0
  115523 WT7  8527 TIP3 H1   HT     0.417000        1.0080           0
  115524 WT7  8527 TIP3 H2   HT     0.417000        1.0080           0
  115525 WT7  8528 TIP3 OH2  OT    -0.834000       15.9994           0
  115526 WT7  8528 TIP3 H1   HT     0.417000        1.0080           0
  115527 WT7  8528 TIP3 H2   HT     0.417000        1.0080           0
  115528 WT7  8534 TIP3 OH2  OT    -0.834000       15.9994           0
  115529 WT7  8534 TIP3 H1   HT     0.417000        1.0080           0
  115530 WT7  8534 TIP3 H2   HT     0.417000        1.0080           0
  115531 WT7  8536 TIP3 OH2  OT    -0.834000       15.9994           0
  115532 WT7  8536 TIP3 H1   HT     0.417000        1.0080           0
  115533 WT7  8536 TIP3 H2   HT     0.417000        1.0080           0
  115534 WT7  8537 TIP3 OH2  OT    -0.834000       15.9994           0
  115535 WT7  8537 TIP3 H1   HT     0.417000        1.0080           0
  115536 WT7  8537 TIP3 H2   HT     0.417000        1.0080           0
  115537 WT7  8548 TIP3 OH2  OT    -0.834000       15.9994           0
  115538 WT7  8548 TIP3 H1   HT     0.417000        1.0080           0
  115539 WT7  8548 TIP3 H2   HT     0.417000        1.0080           0
  115540 WT7  8549 TIP3 OH2  OT    -0.834000       15.9994           0
  115541 WT7  8549 TIP3 H1   HT     0.417000        1.0080           0
  115542 WT7  8549 TIP3 H2   HT     0.417000        1.0080           0
  115543 WT7  8551 TIP3 OH2  OT    -0.834000       15.9994           0
  115544 WT7  8551 TIP3 H1   HT     0.417000        1.0080           0
  115545 WT7  8551 TIP3 H2   HT     0.417000        1.0080           0
  115546 WT7  8555 TIP3 OH2  OT    -0.834000       15.9994           0
  115547 WT7  8555 TIP3 H1   HT     0.417000        1.0080           0
  115548 WT7  8555 TIP3 H2   HT     0.417000        1.0080           0
  115549 WT7  8556 TIP3 OH2  OT    -0.834000       15.9994           0
  115550 WT7  8556 TIP3 H1   HT     0.417000        1.0080           0
  115551 WT7  8556 TIP3 H2   HT     0.417000        1.0080           0
  115552 WT7  8558 TIP3 OH2  OT    -0.834000       15.9994           0
  115553 WT7  8558 TIP3 H1   HT     0.417000        1.0080           0
  115554 WT7  8558 TIP3 H2   HT     0.417000        1.0080           0
  115555 WT7  8560 TIP3 OH2  OT    -0.834000       15.9994           0
  115556 WT7  8560 TIP3 H1   HT     0.417000        1.0080           0
  115557 WT7  8560 TIP3 H2   HT     0.417000        1.0080           0
  115558 WT7  8561 TIP3 OH2  OT    -0.834000       15.9994           0
  115559 WT7  8561 TIP3 H1   HT     0.417000        1.0080           0
  115560 WT7  8561 TIP3 H2   HT     0.417000        1.0080           0
  115561 WT7  8564 TIP3 OH2  OT    -0.834000       15.9994           0
  115562 WT7  8564 TIP3 H1   HT     0.417000        1.0080           0
  115563 WT7  8564 TIP3 H2   HT     0.417000        1.0080           0
  115564 WT7  8566 TIP3 OH2  OT    -0.834000       15.9994           0
  115565 WT7  8566 TIP3 H1   HT     0.417000        1.0080           0
  115566 WT7  8566 TIP3 H2   HT     0.417000        1.0080           0
  115567 WT7  8567 TIP3 OH2  OT    -0.834000       15.9994           0
  115568 WT7  8567 TIP3 H1   HT     0.417000        1.0080           0
  115569 WT7  8567 TIP3 H2   HT     0.417000        1.0080           0
  115570 WT7  8568 TIP3 OH2  OT    -0.834000       15.9994           0
  115571 WT7  8568 TIP3 H1   HT     0.417000        1.0080           0
  115572 WT7  8568 TIP3 H2   HT     0.417000        1.0080           0
  115573 WT7  8574 TIP3 OH2  OT    -0.834000       15.9994           0
  115574 WT7  8574 TIP3 H1   HT     0.417000        1.0080           0
  115575 WT7  8574 TIP3 H2   HT     0.417000        1.0080           0
  115576 WT7  8576 TIP3 OH2  OT    -0.834000       15.9994           0
  115577 WT7  8576 TIP3 H1   HT     0.417000        1.0080           0
  115578 WT7  8576 TIP3 H2   HT     0.417000        1.0080           0
  115579 WT7  8577 TIP3 OH2  OT    -0.834000       15.9994           0
  115580 WT7  8577 TIP3 H1   HT     0.417000        1.0080           0
  115581 WT7  8577 TIP3 H2   HT     0.417000        1.0080           0
  115582 WT7  8578 TIP3 OH2  OT    -0.834000       15.9994           0
  115583 WT7  8578 TIP3 H1   HT     0.417000        1.0080           0
  115584 WT7  8578 TIP3 H2   HT     0.417000        1.0080           0
  115585 WT7  8579 TIP3 OH2  OT    -0.834000       15.9994           0
  115586 WT7  8579 TIP3 H1   HT     0.417000        1.0080           0
  115587 WT7  8579 TIP3 H2   HT     0.417000        1.0080           0
  115588 WT7  8585 TIP3 OH2  OT    -0.834000       15.9994           0
  115589 WT7  8585 TIP3 H1   HT     0.417000        1.0080           0
  115590 WT7  8585 TIP3 H2   HT     0.417000        1.0080           0
  115591 WT7  8599 TIP3 OH2  OT    -0.834000       15.9994           0
  115592 WT7  8599 TIP3 H1   HT     0.417000        1.0080           0
  115593 WT7  8599 TIP3 H2   HT     0.417000        1.0080           0
  115594 WT7  8600 TIP3 OH2  OT    -0.834000       15.9994           0
  115595 WT7  8600 TIP3 H1   HT     0.417000        1.0080           0
  115596 WT7  8600 TIP3 H2   HT     0.417000        1.0080           0
  115597 WT7  8608 TIP3 OH2  OT    -0.834000       15.9994           0
  115598 WT7  8608 TIP3 H1   HT     0.417000        1.0080           0
  115599 WT7  8608 TIP3 H2   HT     0.417000        1.0080           0
  115600 WT7  8613 TIP3 OH2  OT    -0.834000       15.9994           0
  115601 WT7  8613 TIP3 H1   HT     0.417000        1.0080           0
  115602 WT7  8613 TIP3 H2   HT     0.417000        1.0080           0
  115603 WT7  8617 TIP3 OH2  OT    -0.834000       15.9994           0
  115604 WT7  8617 TIP3 H1   HT     0.417000        1.0080           0
  115605 WT7  8617 TIP3 H2   HT     0.417000        1.0080           0
  115606 WT7  8621 TIP3 OH2  OT    -0.834000       15.9994           0
  115607 WT7  8621 TIP3 H1   HT     0.417000        1.0080           0
  115608 WT7  8621 TIP3 H2   HT     0.417000        1.0080           0
  115609 WT7  8622 TIP3 OH2  OT    -0.834000       15.9994           0
  115610 WT7  8622 TIP3 H1   HT     0.417000        1.0080           0
  115611 WT7  8622 TIP3 H2   HT     0.417000        1.0080           0
  115612 WT7  8624 TIP3 OH2  OT    -0.834000       15.9994           0
  115613 WT7  8624 TIP3 H1   HT     0.417000        1.0080           0
  115614 WT7  8624 TIP3 H2   HT     0.417000        1.0080           0
  115615 WT7  8635 TIP3 OH2  OT    -0.834000       15.9994           0
  115616 WT7  8635 TIP3 H1   HT     0.417000        1.0080           0
  115617 WT7  8635 TIP3 H2   HT     0.417000        1.0080           0
  115618 WT7  8642 TIP3 OH2  OT    -0.834000       15.9994           0
  115619 WT7  8642 TIP3 H1   HT     0.417000        1.0080           0
  115620 WT7  8642 TIP3 H2   HT     0.417000        1.0080           0
  115621 WT7  8645 TIP3 OH2  OT    -0.834000       15.9994           0
  115622 WT7  8645 TIP3 H1   HT     0.417000        1.0080           0
  115623 WT7  8645 TIP3 H2   HT     0.417000        1.0080           0
  115624 WT7  8653 TIP3 OH2  OT    -0.834000       15.9994           0
  115625 WT7  8653 TIP3 H1   HT     0.417000        1.0080           0
  115626 WT7  8653 TIP3 H2   HT     0.417000        1.0080           0
  115627 WT7  8658 TIP3 OH2  OT    -0.834000       15.9994           0
  115628 WT7  8658 TIP3 H1   HT     0.417000        1.0080           0
  115629 WT7  8658 TIP3 H2   HT     0.417000        1.0080           0
  115630 WT7  8661 TIP3 OH2  OT    -0.834000       15.9994           0
  115631 WT7  8661 TIP3 H1   HT     0.417000        1.0080           0
  115632 WT7  8661 TIP3 H2   HT     0.417000        1.0080           0
  115633 WT7  8662 TIP3 OH2  OT    -0.834000       15.9994           0
  115634 WT7  8662 TIP3 H1   HT     0.417000        1.0080           0
  115635 WT7  8662 TIP3 H2   HT     0.417000        1.0080           0
  115636 WT7  8668 TIP3 OH2  OT    -0.834000       15.9994           0
  115637 WT7  8668 TIP3 H1   HT     0.417000        1.0080           0
  115638 WT7  8668 TIP3 H2   HT     0.417000        1.0080           0
  115639 WT7  8675 TIP3 OH2  OT    -0.834000       15.9994           0
  115640 WT7  8675 TIP3 H1   HT     0.417000        1.0080           0
  115641 WT7  8675 TIP3 H2   HT     0.417000        1.0080           0
  115642 WT7  8679 TIP3 OH2  OT    -0.834000       15.9994           0
  115643 WT7  8679 TIP3 H1   HT     0.417000        1.0080           0
  115644 WT7  8679 TIP3 H2   HT     0.417000        1.0080           0
  115645 WT7  8683 TIP3 OH2  OT    -0.834000       15.9994           0
  115646 WT7  8683 TIP3 H1   HT     0.417000        1.0080           0
  115647 WT7  8683 TIP3 H2   HT     0.417000        1.0080           0
  115648 WT7  8687 TIP3 OH2  OT    -0.834000       15.9994           0
  115649 WT7  8687 TIP3 H1   HT     0.417000        1.0080           0
  115650 WT7  8687 TIP3 H2   HT     0.417000        1.0080           0
  115651 WT7  8721 TIP3 OH2  OT    -0.834000       15.9994           0
  115652 WT7  8721 TIP3 H1   HT     0.417000        1.0080           0
  115653 WT7  8721 TIP3 H2   HT     0.417000        1.0080           0
  115654 WT7  8748 TIP3 OH2  OT    -0.834000       15.9994           0
  115655 WT7  8748 TIP3 H1   HT     0.417000        1.0080           0
  115656 WT7  8748 TIP3 H2   HT     0.417000        1.0080           0
  115657 WT7  8760 TIP3 OH2  OT    -0.834000       15.9994           0
  115658 WT7  8760 TIP3 H1   HT     0.417000        1.0080           0
  115659 WT7  8760 TIP3 H2   HT     0.417000        1.0080           0
  115660 WT7  8771 TIP3 OH2  OT    -0.834000       15.9994           0
  115661 WT7  8771 TIP3 H1   HT     0.417000        1.0080           0
  115662 WT7  8771 TIP3 H2   HT     0.417000        1.0080           0
  115663 WT7  8780 TIP3 OH2  OT    -0.834000       15.9994           0
  115664 WT7  8780 TIP3 H1   HT     0.417000        1.0080           0
  115665 WT7  8780 TIP3 H2   HT     0.417000        1.0080           0
  115666 WT7  8794 TIP3 OH2  OT    -0.834000       15.9994           0
  115667 WT7  8794 TIP3 H1   HT     0.417000        1.0080           0
  115668 WT7  8794 TIP3 H2   HT     0.417000        1.0080           0
  115669 WT7  8801 TIP3 OH2  OT    -0.834000       15.9994           0
  115670 WT7  8801 TIP3 H1   HT     0.417000        1.0080           0
  115671 WT7  8801 TIP3 H2   HT     0.417000        1.0080           0
  115672 WT7  8813 TIP3 OH2  OT    -0.834000       15.9994           0
  115673 WT7  8813 TIP3 H1   HT     0.417000        1.0080           0
  115674 WT7  8813 TIP3 H2   HT     0.417000        1.0080           0
  115675 WT7  8822 TIP3 OH2  OT    -0.834000       15.9994           0
  115676 WT7  8822 TIP3 H1   HT     0.417000        1.0080           0
  115677 WT7  8822 TIP3 H2   HT     0.417000        1.0080           0
  115678 WT7  8824 TIP3 OH2  OT    -0.834000       15.9994           0
  115679 WT7  8824 TIP3 H1   HT     0.417000        1.0080           0
  115680 WT7  8824 TIP3 H2   HT     0.417000        1.0080           0
  115681 WT7  8829 TIP3 OH2  OT    -0.834000       15.9994           0
  115682 WT7  8829 TIP3 H1   HT     0.417000        1.0080           0
  115683 WT7  8829 TIP3 H2   HT     0.417000        1.0080           0
  115684 WT7  8833 TIP3 OH2  OT    -0.834000       15.9994           0
  115685 WT7  8833 TIP3 H1   HT     0.417000        1.0080           0
  115686 WT7  8833 TIP3 H2   HT     0.417000        1.0080           0
  115687 WT7  8836 TIP3 OH2  OT    -0.834000       15.9994           0
  115688 WT7  8836 TIP3 H1   HT     0.417000        1.0080           0
  115689 WT7  8836 TIP3 H2   HT     0.417000        1.0080           0
  115690 WT7  8843 TIP3 OH2  OT    -0.834000       15.9994           0
  115691 WT7  8843 TIP3 H1   HT     0.417000        1.0080           0
  115692 WT7  8843 TIP3 H2   HT     0.417000        1.0080           0
  115693 WT7  8845 TIP3 OH2  OT    -0.834000       15.9994           0
  115694 WT7  8845 TIP3 H1   HT     0.417000        1.0080           0
  115695 WT7  8845 TIP3 H2   HT     0.417000        1.0080           0
  115696 WT7  8848 TIP3 OH2  OT    -0.834000       15.9994           0
  115697 WT7  8848 TIP3 H1   HT     0.417000        1.0080           0
  115698 WT7  8848 TIP3 H2   HT     0.417000        1.0080           0
  115699 WT7  8852 TIP3 OH2  OT    -0.834000       15.9994           0
  115700 WT7  8852 TIP3 H1   HT     0.417000        1.0080           0
  115701 WT7  8852 TIP3 H2   HT     0.417000        1.0080           0
  115702 WT7  8855 TIP3 OH2  OT    -0.834000       15.9994           0
  115703 WT7  8855 TIP3 H1   HT     0.417000        1.0080           0
  115704 WT7  8855 TIP3 H2   HT     0.417000        1.0080           0
  115705 WT7  8864 TIP3 OH2  OT    -0.834000       15.9994           0
  115706 WT7  8864 TIP3 H1   HT     0.417000        1.0080           0
  115707 WT7  8864 TIP3 H2   HT     0.417000        1.0080           0
  115708 WT7  8865 TIP3 OH2  OT    -0.834000       15.9994           0
  115709 WT7  8865 TIP3 H1   HT     0.417000        1.0080           0
  115710 WT7  8865 TIP3 H2   HT     0.417000        1.0080           0
  115711 WT7  8869 TIP3 OH2  OT    -0.834000       15.9994           0
  115712 WT7  8869 TIP3 H1   HT     0.417000        1.0080           0
  115713 WT7  8869 TIP3 H2   HT     0.417000        1.0080           0
  115714 WT7  8870 TIP3 OH2  OT    -0.834000       15.9994           0
  115715 WT7  8870 TIP3 H1   HT     0.417000        1.0080           0
  115716 WT7  8870 TIP3 H2   HT     0.417000        1.0080           0
  115717 WT7  8879 TIP3 OH2  OT    -0.834000       15.9994           0
  115718 WT7  8879 TIP3 H1   HT     0.417000        1.0080           0
  115719 WT7  8879 TIP3 H2   HT     0.417000        1.0080           0
  115720 WT7  8886 TIP3 OH2  OT    -0.834000       15.9994           0
  115721 WT7  8886 TIP3 H1   HT     0.417000        1.0080           0
  115722 WT7  8886 TIP3 H2   HT     0.417000        1.0080           0
  115723 WT7  8887 TIP3 OH2  OT    -0.834000       15.9994           0
  115724 WT7  8887 TIP3 H1   HT     0.417000        1.0080           0
  115725 WT7  8887 TIP3 H2   HT     0.417000        1.0080           0
  115726 WT7  8892 TIP3 OH2  OT    -0.834000       15.9994           0
  115727 WT7  8892 TIP3 H1   HT     0.417000        1.0080           0
  115728 WT7  8892 TIP3 H2   HT     0.417000        1.0080           0
  115729 WT7  8893 TIP3 OH2  OT    -0.834000       15.9994           0
  115730 WT7  8893 TIP3 H1   HT     0.417000        1.0080           0
  115731 WT7  8893 TIP3 H2   HT     0.417000        1.0080           0
  115732 WT7  8894 TIP3 OH2  OT    -0.834000       15.9994           0
  115733 WT7  8894 TIP3 H1   HT     0.417000        1.0080           0
  115734 WT7  8894 TIP3 H2   HT     0.417000        1.0080           0
  115735 WT7  8895 TIP3 OH2  OT    -0.834000       15.9994           0
  115736 WT7  8895 TIP3 H1   HT     0.417000        1.0080           0
  115737 WT7  8895 TIP3 H2   HT     0.417000        1.0080           0
  115738 WT7  8896 TIP3 OH2  OT    -0.834000       15.9994           0
  115739 WT7  8896 TIP3 H1   HT     0.417000        1.0080           0
  115740 WT7  8896 TIP3 H2   HT     0.417000        1.0080           0
  115741 WT7  8898 TIP3 OH2  OT    -0.834000       15.9994           0
  115742 WT7  8898 TIP3 H1   HT     0.417000        1.0080           0
  115743 WT7  8898 TIP3 H2   HT     0.417000        1.0080           0
  115744 WT7  8902 TIP3 OH2  OT    -0.834000       15.9994           0
  115745 WT7  8902 TIP3 H1   HT     0.417000        1.0080           0
  115746 WT7  8902 TIP3 H2   HT     0.417000        1.0080           0
  115747 WT7  8903 TIP3 OH2  OT    -0.834000       15.9994           0
  115748 WT7  8903 TIP3 H1   HT     0.417000        1.0080           0
  115749 WT7  8903 TIP3 H2   HT     0.417000        1.0080           0
  115750 WT7  8904 TIP3 OH2  OT    -0.834000       15.9994           0
  115751 WT7  8904 TIP3 H1   HT     0.417000        1.0080           0
  115752 WT7  8904 TIP3 H2   HT     0.417000        1.0080           0
  115753 WT7  8905 TIP3 OH2  OT    -0.834000       15.9994           0
  115754 WT7  8905 TIP3 H1   HT     0.417000        1.0080           0
  115755 WT7  8905 TIP3 H2   HT     0.417000        1.0080           0
  115756 WT7  8908 TIP3 OH2  OT    -0.834000       15.9994           0
  115757 WT7  8908 TIP3 H1   HT     0.417000        1.0080           0
  115758 WT7  8908 TIP3 H2   HT     0.417000        1.0080           0
  115759 WT7  8918 TIP3 OH2  OT    -0.834000       15.9994           0
  115760 WT7  8918 TIP3 H1   HT     0.417000        1.0080           0
  115761 WT7  8918 TIP3 H2   HT     0.417000        1.0080           0
  115762 WT7  8919 TIP3 OH2  OT    -0.834000       15.9994           0
  115763 WT7  8919 TIP3 H1   HT     0.417000        1.0080           0
  115764 WT7  8919 TIP3 H2   HT     0.417000        1.0080           0
  115765 WT7  8922 TIP3 OH2  OT    -0.834000       15.9994           0
  115766 WT7  8922 TIP3 H1   HT     0.417000        1.0080           0
  115767 WT7  8922 TIP3 H2   HT     0.417000        1.0080           0
  115768 WT7  8923 TIP3 OH2  OT    -0.834000       15.9994           0
  115769 WT7  8923 TIP3 H1   HT     0.417000        1.0080           0
  115770 WT7  8923 TIP3 H2   HT     0.417000        1.0080           0
  115771 WT7  8926 TIP3 OH2  OT    -0.834000       15.9994           0
  115772 WT7  8926 TIP3 H1   HT     0.417000        1.0080           0
  115773 WT7  8926 TIP3 H2   HT     0.417000        1.0080           0
  115774 WT7  8927 TIP3 OH2  OT    -0.834000       15.9994           0
  115775 WT7  8927 TIP3 H1   HT     0.417000        1.0080           0
  115776 WT7  8927 TIP3 H2   HT     0.417000        1.0080           0
  115777 WT7  8928 TIP3 OH2  OT    -0.834000       15.9994           0
  115778 WT7  8928 TIP3 H1   HT     0.417000        1.0080           0
  115779 WT7  8928 TIP3 H2   HT     0.417000        1.0080           0
  115780 WT7  8931 TIP3 OH2  OT    -0.834000       15.9994           0
  115781 WT7  8931 TIP3 H1   HT     0.417000        1.0080           0
  115782 WT7  8931 TIP3 H2   HT     0.417000        1.0080           0
  115783 WT7  8932 TIP3 OH2  OT    -0.834000       15.9994           0
  115784 WT7  8932 TIP3 H1   HT     0.417000        1.0080           0
  115785 WT7  8932 TIP3 H2   HT     0.417000        1.0080           0
  115786 WT7  8935 TIP3 OH2  OT    -0.834000       15.9994           0
  115787 WT7  8935 TIP3 H1   HT     0.417000        1.0080           0
  115788 WT7  8935 TIP3 H2   HT     0.417000        1.0080           0
  115789 WT7  8936 TIP3 OH2  OT    -0.834000       15.9994           0
  115790 WT7  8936 TIP3 H1   HT     0.417000        1.0080           0
  115791 WT7  8936 TIP3 H2   HT     0.417000        1.0080           0
  115792 WT7  8937 TIP3 OH2  OT    -0.834000       15.9994           0
  115793 WT7  8937 TIP3 H1   HT     0.417000        1.0080           0
  115794 WT7  8937 TIP3 H2   HT     0.417000        1.0080           0
  115795 WT7  8938 TIP3 OH2  OT    -0.834000       15.9994           0
  115796 WT7  8938 TIP3 H1   HT     0.417000        1.0080           0
  115797 WT7  8938 TIP3 H2   HT     0.417000        1.0080           0
  115798 WT7  8939 TIP3 OH2  OT    -0.834000       15.9994           0
  115799 WT7  8939 TIP3 H1   HT     0.417000        1.0080           0
  115800 WT7  8939 TIP3 H2   HT     0.417000        1.0080           0
  115801 WT7  8940 TIP3 OH2  OT    -0.834000       15.9994           0
  115802 WT7  8940 TIP3 H1   HT     0.417000        1.0080           0
  115803 WT7  8940 TIP3 H2   HT     0.417000        1.0080           0
  115804 WT7  8942 TIP3 OH2  OT    -0.834000       15.9994           0
  115805 WT7  8942 TIP3 H1   HT     0.417000        1.0080           0
  115806 WT7  8942 TIP3 H2   HT     0.417000        1.0080           0
  115807 WT7  8949 TIP3 OH2  OT    -0.834000       15.9994           0
  115808 WT7  8949 TIP3 H1   HT     0.417000        1.0080           0
  115809 WT7  8949 TIP3 H2   HT     0.417000        1.0080           0
  115810 WT7  8952 TIP3 OH2  OT    -0.834000       15.9994           0
  115811 WT7  8952 TIP3 H1   HT     0.417000        1.0080           0
  115812 WT7  8952 TIP3 H2   HT     0.417000        1.0080           0
  115813 WT7  8954 TIP3 OH2  OT    -0.834000       15.9994           0
  115814 WT7  8954 TIP3 H1   HT     0.417000        1.0080           0
  115815 WT7  8954 TIP3 H2   HT     0.417000        1.0080           0
  115816 WT7  8956 TIP3 OH2  OT    -0.834000       15.9994           0
  115817 WT7  8956 TIP3 H1   HT     0.417000        1.0080           0
  115818 WT7  8956 TIP3 H2   HT     0.417000        1.0080           0
  115819 WT7  8959 TIP3 OH2  OT    -0.834000       15.9994           0
  115820 WT7  8959 TIP3 H1   HT     0.417000        1.0080           0
  115821 WT7  8959 TIP3 H2   HT     0.417000        1.0080           0
  115822 WT7  8960 TIP3 OH2  OT    -0.834000       15.9994           0
  115823 WT7  8960 TIP3 H1   HT     0.417000        1.0080           0
  115824 WT7  8960 TIP3 H2   HT     0.417000        1.0080           0
  115825 WT7  8961 TIP3 OH2  OT    -0.834000       15.9994           0
  115826 WT7  8961 TIP3 H1   HT     0.417000        1.0080           0
  115827 WT7  8961 TIP3 H2   HT     0.417000        1.0080           0
  115828 WT7  8962 TIP3 OH2  OT    -0.834000       15.9994           0
  115829 WT7  8962 TIP3 H1   HT     0.417000        1.0080           0
  115830 WT7  8962 TIP3 H2   HT     0.417000        1.0080           0
  115831 WT7  8964 TIP3 OH2  OT    -0.834000       15.9994           0
  115832 WT7  8964 TIP3 H1   HT     0.417000        1.0080           0
  115833 WT7  8964 TIP3 H2   HT     0.417000        1.0080           0
  115834 WT7  8970 TIP3 OH2  OT    -0.834000       15.9994           0
  115835 WT7  8970 TIP3 H1   HT     0.417000        1.0080           0
  115836 WT7  8970 TIP3 H2   HT     0.417000        1.0080           0
  115837 WT7  8972 TIP3 OH2  OT    -0.834000       15.9994           0
  115838 WT7  8972 TIP3 H1   HT     0.417000        1.0080           0
  115839 WT7  8972 TIP3 H2   HT     0.417000        1.0080           0
  115840 WT7  8973 TIP3 OH2  OT    -0.834000       15.9994           0
  115841 WT7  8973 TIP3 H1   HT     0.417000        1.0080           0
  115842 WT7  8973 TIP3 H2   HT     0.417000        1.0080           0
  115843 WT7  8976 TIP3 OH2  OT    -0.834000       15.9994           0
  115844 WT7  8976 TIP3 H1   HT     0.417000        1.0080           0
  115845 WT7  8976 TIP3 H2   HT     0.417000        1.0080           0
  115846 WT7  8977 TIP3 OH2  OT    -0.834000       15.9994           0
  115847 WT7  8977 TIP3 H1   HT     0.417000        1.0080           0
  115848 WT7  8977 TIP3 H2   HT     0.417000        1.0080           0
  115849 WT7  8978 TIP3 OH2  OT    -0.834000       15.9994           0
  115850 WT7  8978 TIP3 H1   HT     0.417000        1.0080           0
  115851 WT7  8978 TIP3 H2   HT     0.417000        1.0080           0
  115852 WT7  8984 TIP3 OH2  OT    -0.834000       15.9994           0
  115853 WT7  8984 TIP3 H1   HT     0.417000        1.0080           0
  115854 WT7  8984 TIP3 H2   HT     0.417000        1.0080           0
  115855 WT7  8988 TIP3 OH2  OT    -0.834000       15.9994           0
  115856 WT7  8988 TIP3 H1   HT     0.417000        1.0080           0
  115857 WT7  8988 TIP3 H2   HT     0.417000        1.0080           0
  115858 WT7  8994 TIP3 OH2  OT    -0.834000       15.9994           0
  115859 WT7  8994 TIP3 H1   HT     0.417000        1.0080           0
  115860 WT7  8994 TIP3 H2   HT     0.417000        1.0080           0
  115861 WT7  9001 TIP3 OH2  OT    -0.834000       15.9994           0
  115862 WT7  9001 TIP3 H1   HT     0.417000        1.0080           0
  115863 WT7  9001 TIP3 H2   HT     0.417000        1.0080           0
  115864 WT7  9004 TIP3 OH2  OT    -0.834000       15.9994           0
  115865 WT7  9004 TIP3 H1   HT     0.417000        1.0080           0
  115866 WT7  9004 TIP3 H2   HT     0.417000        1.0080           0
  115867 WT7  9005 TIP3 OH2  OT    -0.834000       15.9994           0
  115868 WT7  9005 TIP3 H1   HT     0.417000        1.0080           0
  115869 WT7  9005 TIP3 H2   HT     0.417000        1.0080           0
  115870 WT7  9007 TIP3 OH2  OT    -0.834000       15.9994           0
  115871 WT7  9007 TIP3 H1   HT     0.417000        1.0080           0
  115872 WT7  9007 TIP3 H2   HT     0.417000        1.0080           0
  115873 WT7  9012 TIP3 OH2  OT    -0.834000       15.9994           0
  115874 WT7  9012 TIP3 H1   HT     0.417000        1.0080           0
  115875 WT7  9012 TIP3 H2   HT     0.417000        1.0080           0
  115876 WT7  9013 TIP3 OH2  OT    -0.834000       15.9994           0
  115877 WT7  9013 TIP3 H1   HT     0.417000        1.0080           0
  115878 WT7  9013 TIP3 H2   HT     0.417000        1.0080           0
  115879 WT7  9015 TIP3 OH2  OT    -0.834000       15.9994           0
  115880 WT7  9015 TIP3 H1   HT     0.417000        1.0080           0
  115881 WT7  9015 TIP3 H2   HT     0.417000        1.0080           0
  115882 WT7  9017 TIP3 OH2  OT    -0.834000       15.9994           0
  115883 WT7  9017 TIP3 H1   HT     0.417000        1.0080           0
  115884 WT7  9017 TIP3 H2   HT     0.417000        1.0080           0
  115885 WT7  9022 TIP3 OH2  OT    -0.834000       15.9994           0
  115886 WT7  9022 TIP3 H1   HT     0.417000        1.0080           0
  115887 WT7  9022 TIP3 H2   HT     0.417000        1.0080           0
  115888 WT7  9027 TIP3 OH2  OT    -0.834000       15.9994           0
  115889 WT7  9027 TIP3 H1   HT     0.417000        1.0080           0
  115890 WT7  9027 TIP3 H2   HT     0.417000        1.0080           0
  115891 WT7  9029 TIP3 OH2  OT    -0.834000       15.9994           0
  115892 WT7  9029 TIP3 H1   HT     0.417000        1.0080           0
  115893 WT7  9029 TIP3 H2   HT     0.417000        1.0080           0
  115894 WT7  9032 TIP3 OH2  OT    -0.834000       15.9994           0
  115895 WT7  9032 TIP3 H1   HT     0.417000        1.0080           0
  115896 WT7  9032 TIP3 H2   HT     0.417000        1.0080           0
  115897 WT7  9034 TIP3 OH2  OT    -0.834000       15.9994           0
  115898 WT7  9034 TIP3 H1   HT     0.417000        1.0080           0
  115899 WT7  9034 TIP3 H2   HT     0.417000        1.0080           0
  115900 WT7  9035 TIP3 OH2  OT    -0.834000       15.9994           0
  115901 WT7  9035 TIP3 H1   HT     0.417000        1.0080           0
  115902 WT7  9035 TIP3 H2   HT     0.417000        1.0080           0
  115903 WT7  9037 TIP3 OH2  OT    -0.834000       15.9994           0
  115904 WT7  9037 TIP3 H1   HT     0.417000        1.0080           0
  115905 WT7  9037 TIP3 H2   HT     0.417000        1.0080           0
  115906 WT7  9039 TIP3 OH2  OT    -0.834000       15.9994           0
  115907 WT7  9039 TIP3 H1   HT     0.417000        1.0080           0
  115908 WT7  9039 TIP3 H2   HT     0.417000        1.0080           0
  115909 WT7  9047 TIP3 OH2  OT    -0.834000       15.9994           0
  115910 WT7  9047 TIP3 H1   HT     0.417000        1.0080           0
  115911 WT7  9047 TIP3 H2   HT     0.417000        1.0080           0
  115912 WT7  9049 TIP3 OH2  OT    -0.834000       15.9994           0
  115913 WT7  9049 TIP3 H1   HT     0.417000        1.0080           0
  115914 WT7  9049 TIP3 H2   HT     0.417000        1.0080           0
  115915 WT7  9050 TIP3 OH2  OT    -0.834000       15.9994           0
  115916 WT7  9050 TIP3 H1   HT     0.417000        1.0080           0
  115917 WT7  9050 TIP3 H2   HT     0.417000        1.0080           0
  115918 WT7  9054 TIP3 OH2  OT    -0.834000       15.9994           0
  115919 WT7  9054 TIP3 H1   HT     0.417000        1.0080           0
  115920 WT7  9054 TIP3 H2   HT     0.417000        1.0080           0
  115921 WT7  9055 TIP3 OH2  OT    -0.834000       15.9994           0
  115922 WT7  9055 TIP3 H1   HT     0.417000        1.0080           0
  115923 WT7  9055 TIP3 H2   HT     0.417000        1.0080           0
  115924 WT7  9056 TIP3 OH2  OT    -0.834000       15.9994           0
  115925 WT7  9056 TIP3 H1   HT     0.417000        1.0080           0
  115926 WT7  9056 TIP3 H2   HT     0.417000        1.0080           0
  115927 WT7  9057 TIP3 OH2  OT    -0.834000       15.9994           0
  115928 WT7  9057 TIP3 H1   HT     0.417000        1.0080           0
  115929 WT7  9057 TIP3 H2   HT     0.417000        1.0080           0
  115930 WT7  9058 TIP3 OH2  OT    -0.834000       15.9994           0
  115931 WT7  9058 TIP3 H1   HT     0.417000        1.0080           0
  115932 WT7  9058 TIP3 H2   HT     0.417000        1.0080           0
  115933 WT7  9063 TIP3 OH2  OT    -0.834000       15.9994           0
  115934 WT7  9063 TIP3 H1   HT     0.417000        1.0080           0
  115935 WT7  9063 TIP3 H2   HT     0.417000        1.0080           0
  115936 WT7  9065 TIP3 OH2  OT    -0.834000       15.9994           0
  115937 WT7  9065 TIP3 H1   HT     0.417000        1.0080           0
  115938 WT7  9065 TIP3 H2   HT     0.417000        1.0080           0
  115939 WT7  9079 TIP3 OH2  OT    -0.834000       15.9994           0
  115940 WT7  9079 TIP3 H1   HT     0.417000        1.0080           0
  115941 WT7  9079 TIP3 H2   HT     0.417000        1.0080           0
  115942 WT7  9082 TIP3 OH2  OT    -0.834000       15.9994           0
  115943 WT7  9082 TIP3 H1   HT     0.417000        1.0080           0
  115944 WT7  9082 TIP3 H2   HT     0.417000        1.0080           0
  115945 WT7  9084 TIP3 OH2  OT    -0.834000       15.9994           0
  115946 WT7  9084 TIP3 H1   HT     0.417000        1.0080           0
  115947 WT7  9084 TIP3 H2   HT     0.417000        1.0080           0
  115948 WT7  9085 TIP3 OH2  OT    -0.834000       15.9994           0
  115949 WT7  9085 TIP3 H1   HT     0.417000        1.0080           0
  115950 WT7  9085 TIP3 H2   HT     0.417000        1.0080           0
  115951 WT7  9093 TIP3 OH2  OT    -0.834000       15.9994           0
  115952 WT7  9093 TIP3 H1   HT     0.417000        1.0080           0
  115953 WT7  9093 TIP3 H2   HT     0.417000        1.0080           0
  115954 WT7  9096 TIP3 OH2  OT    -0.834000       15.9994           0
  115955 WT7  9096 TIP3 H1   HT     0.417000        1.0080           0
  115956 WT7  9096 TIP3 H2   HT     0.417000        1.0080           0
  115957 WT7  9102 TIP3 OH2  OT    -0.834000       15.9994           0
  115958 WT7  9102 TIP3 H1   HT     0.417000        1.0080           0
  115959 WT7  9102 TIP3 H2   HT     0.417000        1.0080           0
  115960 WT7  9105 TIP3 OH2  OT    -0.834000       15.9994           0
  115961 WT7  9105 TIP3 H1   HT     0.417000        1.0080           0
  115962 WT7  9105 TIP3 H2   HT     0.417000        1.0080           0
  115963 WT7  9109 TIP3 OH2  OT    -0.834000       15.9994           0
  115964 WT7  9109 TIP3 H1   HT     0.417000        1.0080           0
  115965 WT7  9109 TIP3 H2   HT     0.417000        1.0080           0
  115966 WT7  9115 TIP3 OH2  OT    -0.834000       15.9994           0
  115967 WT7  9115 TIP3 H1   HT     0.417000        1.0080           0
  115968 WT7  9115 TIP3 H2   HT     0.417000        1.0080           0
  115969 WT7  9126 TIP3 OH2  OT    -0.834000       15.9994           0
  115970 WT7  9126 TIP3 H1   HT     0.417000        1.0080           0
  115971 WT7  9126 TIP3 H2   HT     0.417000        1.0080           0
  115972 WT7  9127 TIP3 OH2  OT    -0.834000       15.9994           0
  115973 WT7  9127 TIP3 H1   HT     0.417000        1.0080           0
  115974 WT7  9127 TIP3 H2   HT     0.417000        1.0080           0
  115975 WT7  9128 TIP3 OH2  OT    -0.834000       15.9994           0
  115976 WT7  9128 TIP3 H1   HT     0.417000        1.0080           0
  115977 WT7  9128 TIP3 H2   HT     0.417000        1.0080           0
  115978 WT7  9129 TIP3 OH2  OT    -0.834000       15.9994           0
  115979 WT7  9129 TIP3 H1   HT     0.417000        1.0080           0
  115980 WT7  9129 TIP3 H2   HT     0.417000        1.0080           0
  115981 WT7  9132 TIP3 OH2  OT    -0.834000       15.9994           0
  115982 WT7  9132 TIP3 H1   HT     0.417000        1.0080           0
  115983 WT7  9132 TIP3 H2   HT     0.417000        1.0080           0
  115984 WT7  9134 TIP3 OH2  OT    -0.834000       15.9994           0
  115985 WT7  9134 TIP3 H1   HT     0.417000        1.0080           0
  115986 WT7  9134 TIP3 H2   HT     0.417000        1.0080           0
  115987 WT7  9135 TIP3 OH2  OT    -0.834000       15.9994           0
  115988 WT7  9135 TIP3 H1   HT     0.417000        1.0080           0
  115989 WT7  9135 TIP3 H2   HT     0.417000        1.0080           0
  115990 WT7  9144 TIP3 OH2  OT    -0.834000       15.9994           0
  115991 WT7  9144 TIP3 H1   HT     0.417000        1.0080           0
  115992 WT7  9144 TIP3 H2   HT     0.417000        1.0080           0
  115993 WT7  9165 TIP3 OH2  OT    -0.834000       15.9994           0
  115994 WT7  9165 TIP3 H1   HT     0.417000        1.0080           0
  115995 WT7  9165 TIP3 H2   HT     0.417000        1.0080           0
  115996 WT7  9170 TIP3 OH2  OT    -0.834000       15.9994           0
  115997 WT7  9170 TIP3 H1   HT     0.417000        1.0080           0
  115998 WT7  9170 TIP3 H2   HT     0.417000        1.0080           0
  115999 WT7  9178 TIP3 OH2  OT    -0.834000       15.9994           0
  116000 WT7  9178 TIP3 H1   HT     0.417000        1.0080           0
  116001 WT7  9178 TIP3 H2   HT     0.417000        1.0080           0
  116002 WT7  9179 TIP3 OH2  OT    -0.834000       15.9994           0
  116003 WT7  9179 TIP3 H1   HT     0.417000        1.0080           0
  116004 WT7  9179 TIP3 H2   HT     0.417000        1.0080           0
  116005 WT7  9188 TIP3 OH2  OT    -0.834000       15.9994           0
  116006 WT7  9188 TIP3 H1   HT     0.417000        1.0080           0
  116007 WT7  9188 TIP3 H2   HT     0.417000        1.0080           0
  116008 WT7  9212 TIP3 OH2  OT    -0.834000       15.9994           0
  116009 WT7  9212 TIP3 H1   HT     0.417000        1.0080           0
  116010 WT7  9212 TIP3 H2   HT     0.417000        1.0080           0
  116011 WT7  9226 TIP3 OH2  OT    -0.834000       15.9994           0
  116012 WT7  9226 TIP3 H1   HT     0.417000        1.0080           0
  116013 WT7  9226 TIP3 H2   HT     0.417000        1.0080           0
  116014 WT7  9234 TIP3 OH2  OT    -0.834000       15.9994           0
  116015 WT7  9234 TIP3 H1   HT     0.417000        1.0080           0
  116016 WT7  9234 TIP3 H2   HT     0.417000        1.0080           0
  116017 WT7  9235 TIP3 OH2  OT    -0.834000       15.9994           0
  116018 WT7  9235 TIP3 H1   HT     0.417000        1.0080           0
  116019 WT7  9235 TIP3 H2   HT     0.417000        1.0080           0
  116020 WT7  9241 TIP3 OH2  OT    -0.834000       15.9994           0
  116021 WT7  9241 TIP3 H1   HT     0.417000        1.0080           0
  116022 WT7  9241 TIP3 H2   HT     0.417000        1.0080           0
  116023 WT7  9250 TIP3 OH2  OT    -0.834000       15.9994           0
  116024 WT7  9250 TIP3 H1   HT     0.417000        1.0080           0
  116025 WT7  9250 TIP3 H2   HT     0.417000        1.0080           0
  116026 WT8  5    TIP3 OH2  OT    -0.834000       15.9994           0
  116027 WT8  5    TIP3 H1   HT     0.417000        1.0080           0
  116028 WT8  5    TIP3 H2   HT     0.417000        1.0080           0
  116029 WT8  7    TIP3 OH2  OT    -0.834000       15.9994           0
  116030 WT8  7    TIP3 H1   HT     0.417000        1.0080           0
  116031 WT8  7    TIP3 H2   HT     0.417000        1.0080           0
  116032 WT8  8    TIP3 OH2  OT    -0.834000       15.9994           0
  116033 WT8  8    TIP3 H1   HT     0.417000        1.0080           0
  116034 WT8  8    TIP3 H2   HT     0.417000        1.0080           0
  116035 WT8  15   TIP3 OH2  OT    -0.834000       15.9994           0
  116036 WT8  15   TIP3 H1   HT     0.417000        1.0080           0
  116037 WT8  15   TIP3 H2   HT     0.417000        1.0080           0
  116038 WT8  21   TIP3 OH2  OT    -0.834000       15.9994           0
  116039 WT8  21   TIP3 H1   HT     0.417000        1.0080           0
  116040 WT8  21   TIP3 H2   HT     0.417000        1.0080           0
  116041 WT8  26   TIP3 OH2  OT    -0.834000       15.9994           0
  116042 WT8  26   TIP3 H1   HT     0.417000        1.0080           0
  116043 WT8  26   TIP3 H2   HT     0.417000        1.0080           0
  116044 WT8  29   TIP3 OH2  OT    -0.834000       15.9994           0
  116045 WT8  29   TIP3 H1   HT     0.417000        1.0080           0
  116046 WT8  29   TIP3 H2   HT     0.417000        1.0080           0
  116047 WT8  44   TIP3 OH2  OT    -0.834000       15.9994           0
  116048 WT8  44   TIP3 H1   HT     0.417000        1.0080           0
  116049 WT8  44   TIP3 H2   HT     0.417000        1.0080           0
  116050 WT8  46   TIP3 OH2  OT    -0.834000       15.9994           0
  116051 WT8  46   TIP3 H1   HT     0.417000        1.0080           0
  116052 WT8  46   TIP3 H2   HT     0.417000        1.0080           0
  116053 WT8  47   TIP3 OH2  OT    -0.834000       15.9994           0
  116054 WT8  47   TIP3 H1   HT     0.417000        1.0080           0
  116055 WT8  47   TIP3 H2   HT     0.417000        1.0080           0
  116056 WT8  48   TIP3 OH2  OT    -0.834000       15.9994           0
  116057 WT8  48   TIP3 H1   HT     0.417000        1.0080           0
  116058 WT8  48   TIP3 H2   HT     0.417000        1.0080           0
  116059 WT8  52   TIP3 OH2  OT    -0.834000       15.9994           0
  116060 WT8  52   TIP3 H1   HT     0.417000        1.0080           0
  116061 WT8  52   TIP3 H2   HT     0.417000        1.0080           0
  116062 WT8  53   TIP3 OH2  OT    -0.834000       15.9994           0
  116063 WT8  53   TIP3 H1   HT     0.417000        1.0080           0
  116064 WT8  53   TIP3 H2   HT     0.417000        1.0080           0
  116065 WT8  55   TIP3 OH2  OT    -0.834000       15.9994           0
  116066 WT8  55   TIP3 H1   HT     0.417000        1.0080           0
  116067 WT8  55   TIP3 H2   HT     0.417000        1.0080           0
  116068 WT8  56   TIP3 OH2  OT    -0.834000       15.9994           0
  116069 WT8  56   TIP3 H1   HT     0.417000        1.0080           0
  116070 WT8  56   TIP3 H2   HT     0.417000        1.0080           0
  116071 WT8  64   TIP3 OH2  OT    -0.834000       15.9994           0
  116072 WT8  64   TIP3 H1   HT     0.417000        1.0080           0
  116073 WT8  64   TIP3 H2   HT     0.417000        1.0080           0
  116074 WT8  67   TIP3 OH2  OT    -0.834000       15.9994           0
  116075 WT8  67   TIP3 H1   HT     0.417000        1.0080           0
  116076 WT8  67   TIP3 H2   HT     0.417000        1.0080           0
  116077 WT8  68   TIP3 OH2  OT    -0.834000       15.9994           0
  116078 WT8  68   TIP3 H1   HT     0.417000        1.0080           0
  116079 WT8  68   TIP3 H2   HT     0.417000        1.0080           0
  116080 WT8  71   TIP3 OH2  OT    -0.834000       15.9994           0
  116081 WT8  71   TIP3 H1   HT     0.417000        1.0080           0
  116082 WT8  71   TIP3 H2   HT     0.417000        1.0080           0
  116083 WT8  75   TIP3 OH2  OT    -0.834000       15.9994           0
  116084 WT8  75   TIP3 H1   HT     0.417000        1.0080           0
  116085 WT8  75   TIP3 H2   HT     0.417000        1.0080           0
  116086 WT8  76   TIP3 OH2  OT    -0.834000       15.9994           0
  116087 WT8  76   TIP3 H1   HT     0.417000        1.0080           0
  116088 WT8  76   TIP3 H2   HT     0.417000        1.0080           0
  116089 WT8  86   TIP3 OH2  OT    -0.834000       15.9994           0
  116090 WT8  86   TIP3 H1   HT     0.417000        1.0080           0
  116091 WT8  86   TIP3 H2   HT     0.417000        1.0080           0
  116092 WT8  88   TIP3 OH2  OT    -0.834000       15.9994           0
  116093 WT8  88   TIP3 H1   HT     0.417000        1.0080           0
  116094 WT8  88   TIP3 H2   HT     0.417000        1.0080           0
  116095 WT8  90   TIP3 OH2  OT    -0.834000       15.9994           0
  116096 WT8  90   TIP3 H1   HT     0.417000        1.0080           0
  116097 WT8  90   TIP3 H2   HT     0.417000        1.0080           0
  116098 WT8  94   TIP3 OH2  OT    -0.834000       15.9994           0
  116099 WT8  94   TIP3 H1   HT     0.417000        1.0080           0
  116100 WT8  94   TIP3 H2   HT     0.417000        1.0080           0
  116101 WT8  95   TIP3 OH2  OT    -0.834000       15.9994           0
  116102 WT8  95   TIP3 H1   HT     0.417000        1.0080           0
  116103 WT8  95   TIP3 H2   HT     0.417000        1.0080           0
  116104 WT8  97   TIP3 OH2  OT    -0.834000       15.9994           0
  116105 WT8  97   TIP3 H1   HT     0.417000        1.0080           0
  116106 WT8  97   TIP3 H2   HT     0.417000        1.0080           0
  116107 WT8  98   TIP3 OH2  OT    -0.834000       15.9994           0
  116108 WT8  98   TIP3 H1   HT     0.417000        1.0080           0
  116109 WT8  98   TIP3 H2   HT     0.417000        1.0080           0
  116110 WT8  99   TIP3 OH2  OT    -0.834000       15.9994           0
  116111 WT8  99   TIP3 H1   HT     0.417000        1.0080           0
  116112 WT8  99   TIP3 H2   HT     0.417000        1.0080           0
  116113 WT8  108  TIP3 OH2  OT    -0.834000       15.9994           0
  116114 WT8  108  TIP3 H1   HT     0.417000        1.0080           0
  116115 WT8  108  TIP3 H2   HT     0.417000        1.0080           0
  116116 WT8  111  TIP3 OH2  OT    -0.834000       15.9994           0
  116117 WT8  111  TIP3 H1   HT     0.417000        1.0080           0
  116118 WT8  111  TIP3 H2   HT     0.417000        1.0080           0
  116119 WT8  112  TIP3 OH2  OT    -0.834000       15.9994           0
  116120 WT8  112  TIP3 H1   HT     0.417000        1.0080           0
  116121 WT8  112  TIP3 H2   HT     0.417000        1.0080           0
  116122 WT8  113  TIP3 OH2  OT    -0.834000       15.9994           0
  116123 WT8  113  TIP3 H1   HT     0.417000        1.0080           0
  116124 WT8  113  TIP3 H2   HT     0.417000        1.0080           0
  116125 WT8  115  TIP3 OH2  OT    -0.834000       15.9994           0
  116126 WT8  115  TIP3 H1   HT     0.417000        1.0080           0
  116127 WT8  115  TIP3 H2   HT     0.417000        1.0080           0
  116128 WT8  116  TIP3 OH2  OT    -0.834000       15.9994           0
  116129 WT8  116  TIP3 H1   HT     0.417000        1.0080           0
  116130 WT8  116  TIP3 H2   HT     0.417000        1.0080           0
  116131 WT8  123  TIP3 OH2  OT    -0.834000       15.9994           0
  116132 WT8  123  TIP3 H1   HT     0.417000        1.0080           0
  116133 WT8  123  TIP3 H2   HT     0.417000        1.0080           0
  116134 WT8  125  TIP3 OH2  OT    -0.834000       15.9994           0
  116135 WT8  125  TIP3 H1   HT     0.417000        1.0080           0
  116136 WT8  125  TIP3 H2   HT     0.417000        1.0080           0
  116137 WT8  129  TIP3 OH2  OT    -0.834000       15.9994           0
  116138 WT8  129  TIP3 H1   HT     0.417000        1.0080           0
  116139 WT8  129  TIP3 H2   HT     0.417000        1.0080           0
  116140 WT8  130  TIP3 OH2  OT    -0.834000       15.9994           0
  116141 WT8  130  TIP3 H1   HT     0.417000        1.0080           0
  116142 WT8  130  TIP3 H2   HT     0.417000        1.0080           0
  116143 WT8  131  TIP3 OH2  OT    -0.834000       15.9994           0
  116144 WT8  131  TIP3 H1   HT     0.417000        1.0080           0
  116145 WT8  131  TIP3 H2   HT     0.417000        1.0080           0
  116146 WT8  133  TIP3 OH2  OT    -0.834000       15.9994           0
  116147 WT8  133  TIP3 H1   HT     0.417000        1.0080           0
  116148 WT8  133  TIP3 H2   HT     0.417000        1.0080           0
  116149 WT8  134  TIP3 OH2  OT    -0.834000       15.9994           0
  116150 WT8  134  TIP3 H1   HT     0.417000        1.0080           0
  116151 WT8  134  TIP3 H2   HT     0.417000        1.0080           0
  116152 WT8  135  TIP3 OH2  OT    -0.834000       15.9994           0
  116153 WT8  135  TIP3 H1   HT     0.417000        1.0080           0
  116154 WT8  135  TIP3 H2   HT     0.417000        1.0080           0
  116155 WT8  137  TIP3 OH2  OT    -0.834000       15.9994           0
  116156 WT8  137  TIP3 H1   HT     0.417000        1.0080           0
  116157 WT8  137  TIP3 H2   HT     0.417000        1.0080           0
  116158 WT8  145  TIP3 OH2  OT    -0.834000       15.9994           0
  116159 WT8  145  TIP3 H1   HT     0.417000        1.0080           0
  116160 WT8  145  TIP3 H2   HT     0.417000        1.0080           0
  116161 WT8  146  TIP3 OH2  OT    -0.834000       15.9994           0
  116162 WT8  146  TIP3 H1   HT     0.417000        1.0080           0
  116163 WT8  146  TIP3 H2   HT     0.417000        1.0080           0
  116164 WT8  149  TIP3 OH2  OT    -0.834000       15.9994           0
  116165 WT8  149  TIP3 H1   HT     0.417000        1.0080           0
  116166 WT8  149  TIP3 H2   HT     0.417000        1.0080           0
  116167 WT8  150  TIP3 OH2  OT    -0.834000       15.9994           0
  116168 WT8  150  TIP3 H1   HT     0.417000        1.0080           0
  116169 WT8  150  TIP3 H2   HT     0.417000        1.0080           0
  116170 WT8  152  TIP3 OH2  OT    -0.834000       15.9994           0
  116171 WT8  152  TIP3 H1   HT     0.417000        1.0080           0
  116172 WT8  152  TIP3 H2   HT     0.417000        1.0080           0
  116173 WT8  153  TIP3 OH2  OT    -0.834000       15.9994           0
  116174 WT8  153  TIP3 H1   HT     0.417000        1.0080           0
  116175 WT8  153  TIP3 H2   HT     0.417000        1.0080           0
  116176 WT8  155  TIP3 OH2  OT    -0.834000       15.9994           0
  116177 WT8  155  TIP3 H1   HT     0.417000        1.0080           0
  116178 WT8  155  TIP3 H2   HT     0.417000        1.0080           0
  116179 WT8  156  TIP3 OH2  OT    -0.834000       15.9994           0
  116180 WT8  156  TIP3 H1   HT     0.417000        1.0080           0
  116181 WT8  156  TIP3 H2   HT     0.417000        1.0080           0
  116182 WT8  163  TIP3 OH2  OT    -0.834000       15.9994           0
  116183 WT8  163  TIP3 H1   HT     0.417000        1.0080           0
  116184 WT8  163  TIP3 H2   HT     0.417000        1.0080           0
  116185 WT8  167  TIP3 OH2  OT    -0.834000       15.9994           0
  116186 WT8  167  TIP3 H1   HT     0.417000        1.0080           0
  116187 WT8  167  TIP3 H2   HT     0.417000        1.0080           0
  116188 WT8  174  TIP3 OH2  OT    -0.834000       15.9994           0
  116189 WT8  174  TIP3 H1   HT     0.417000        1.0080           0
  116190 WT8  174  TIP3 H2   HT     0.417000        1.0080           0
  116191 WT8  175  TIP3 OH2  OT    -0.834000       15.9994           0
  116192 WT8  175  TIP3 H1   HT     0.417000        1.0080           0
  116193 WT8  175  TIP3 H2   HT     0.417000        1.0080           0
  116194 WT8  177  TIP3 OH2  OT    -0.834000       15.9994           0
  116195 WT8  177  TIP3 H1   HT     0.417000        1.0080           0
  116196 WT8  177  TIP3 H2   HT     0.417000        1.0080           0
  116197 WT8  178  TIP3 OH2  OT    -0.834000       15.9994           0
  116198 WT8  178  TIP3 H1   HT     0.417000        1.0080           0
  116199 WT8  178  TIP3 H2   HT     0.417000        1.0080           0
  116200 WT8  179  TIP3 OH2  OT    -0.834000       15.9994           0
  116201 WT8  179  TIP3 H1   HT     0.417000        1.0080           0
  116202 WT8  179  TIP3 H2   HT     0.417000        1.0080           0
  116203 WT8  180  TIP3 OH2  OT    -0.834000       15.9994           0
  116204 WT8  180  TIP3 H1   HT     0.417000        1.0080           0
  116205 WT8  180  TIP3 H2   HT     0.417000        1.0080           0
  116206 WT8  189  TIP3 OH2  OT    -0.834000       15.9994           0
  116207 WT8  189  TIP3 H1   HT     0.417000        1.0080           0
  116208 WT8  189  TIP3 H2   HT     0.417000        1.0080           0
  116209 WT8  190  TIP3 OH2  OT    -0.834000       15.9994           0
  116210 WT8  190  TIP3 H1   HT     0.417000        1.0080           0
  116211 WT8  190  TIP3 H2   HT     0.417000        1.0080           0
  116212 WT8  191  TIP3 OH2  OT    -0.834000       15.9994           0
  116213 WT8  191  TIP3 H1   HT     0.417000        1.0080           0
  116214 WT8  191  TIP3 H2   HT     0.417000        1.0080           0
  116215 WT8  194  TIP3 OH2  OT    -0.834000       15.9994           0
  116216 WT8  194  TIP3 H1   HT     0.417000        1.0080           0
  116217 WT8  194  TIP3 H2   HT     0.417000        1.0080           0
  116218 WT8  195  TIP3 OH2  OT    -0.834000       15.9994           0
  116219 WT8  195  TIP3 H1   HT     0.417000        1.0080           0
  116220 WT8  195  TIP3 H2   HT     0.417000        1.0080           0
  116221 WT8  196  TIP3 OH2  OT    -0.834000       15.9994           0
  116222 WT8  196  TIP3 H1   HT     0.417000        1.0080           0
  116223 WT8  196  TIP3 H2   HT     0.417000        1.0080           0
  116224 WT8  197  TIP3 OH2  OT    -0.834000       15.9994           0
  116225 WT8  197  TIP3 H1   HT     0.417000        1.0080           0
  116226 WT8  197  TIP3 H2   HT     0.417000        1.0080           0
  116227 WT8  198  TIP3 OH2  OT    -0.834000       15.9994           0
  116228 WT8  198  TIP3 H1   HT     0.417000        1.0080           0
  116229 WT8  198  TIP3 H2   HT     0.417000        1.0080           0
  116230 WT8  201  TIP3 OH2  OT    -0.834000       15.9994           0
  116231 WT8  201  TIP3 H1   HT     0.417000        1.0080           0
  116232 WT8  201  TIP3 H2   HT     0.417000        1.0080           0
  116233 WT8  202  TIP3 OH2  OT    -0.834000       15.9994           0
  116234 WT8  202  TIP3 H1   HT     0.417000        1.0080           0
  116235 WT8  202  TIP3 H2   HT     0.417000        1.0080           0
  116236 WT8  212  TIP3 OH2  OT    -0.834000       15.9994           0
  116237 WT8  212  TIP3 H1   HT     0.417000        1.0080           0
  116238 WT8  212  TIP3 H2   HT     0.417000        1.0080           0
  116239 WT8  218  TIP3 OH2  OT    -0.834000       15.9994           0
  116240 WT8  218  TIP3 H1   HT     0.417000        1.0080           0
  116241 WT8  218  TIP3 H2   HT     0.417000        1.0080           0
  116242 WT8  222  TIP3 OH2  OT    -0.834000       15.9994           0
  116243 WT8  222  TIP3 H1   HT     0.417000        1.0080           0
  116244 WT8  222  TIP3 H2   HT     0.417000        1.0080           0
  116245 WT8  231  TIP3 OH2  OT    -0.834000       15.9994           0
  116246 WT8  231  TIP3 H1   HT     0.417000        1.0080           0
  116247 WT8  231  TIP3 H2   HT     0.417000        1.0080           0
  116248 WT8  237  TIP3 OH2  OT    -0.834000       15.9994           0
  116249 WT8  237  TIP3 H1   HT     0.417000        1.0080           0
  116250 WT8  237  TIP3 H2   HT     0.417000        1.0080           0
  116251 WT8  238  TIP3 OH2  OT    -0.834000       15.9994           0
  116252 WT8  238  TIP3 H1   HT     0.417000        1.0080           0
  116253 WT8  238  TIP3 H2   HT     0.417000        1.0080           0
  116254 WT8  239  TIP3 OH2  OT    -0.834000       15.9994           0
  116255 WT8  239  TIP3 H1   HT     0.417000        1.0080           0
  116256 WT8  239  TIP3 H2   HT     0.417000        1.0080           0
  116257 WT8  252  TIP3 OH2  OT    -0.834000       15.9994           0
  116258 WT8  252  TIP3 H1   HT     0.417000        1.0080           0
  116259 WT8  252  TIP3 H2   HT     0.417000        1.0080           0
  116260 WT8  253  TIP3 OH2  OT    -0.834000       15.9994           0
  116261 WT8  253  TIP3 H1   HT     0.417000        1.0080           0
  116262 WT8  253  TIP3 H2   HT     0.417000        1.0080           0
  116263 WT8  257  TIP3 OH2  OT    -0.834000       15.9994           0
  116264 WT8  257  TIP3 H1   HT     0.417000        1.0080           0
  116265 WT8  257  TIP3 H2   HT     0.417000        1.0080           0
  116266 WT8  261  TIP3 OH2  OT    -0.834000       15.9994           0
  116267 WT8  261  TIP3 H1   HT     0.417000        1.0080           0
  116268 WT8  261  TIP3 H2   HT     0.417000        1.0080           0
  116269 WT8  262  TIP3 OH2  OT    -0.834000       15.9994           0
  116270 WT8  262  TIP3 H1   HT     0.417000        1.0080           0
  116271 WT8  262  TIP3 H2   HT     0.417000        1.0080           0
  116272 WT8  281  TIP3 OH2  OT    -0.834000       15.9994           0
  116273 WT8  281  TIP3 H1   HT     0.417000        1.0080           0
  116274 WT8  281  TIP3 H2   HT     0.417000        1.0080           0
  116275 WT8  284  TIP3 OH2  OT    -0.834000       15.9994           0
  116276 WT8  284  TIP3 H1   HT     0.417000        1.0080           0
  116277 WT8  284  TIP3 H2   HT     0.417000        1.0080           0
  116278 WT8  295  TIP3 OH2  OT    -0.834000       15.9994           0
  116279 WT8  295  TIP3 H1   HT     0.417000        1.0080           0
  116280 WT8  295  TIP3 H2   HT     0.417000        1.0080           0
  116281 WT8  323  TIP3 OH2  OT    -0.834000       15.9994           0
  116282 WT8  323  TIP3 H1   HT     0.417000        1.0080           0
  116283 WT8  323  TIP3 H2   HT     0.417000        1.0080           0
  116284 WT8  327  TIP3 OH2  OT    -0.834000       15.9994           0
  116285 WT8  327  TIP3 H1   HT     0.417000        1.0080           0
  116286 WT8  327  TIP3 H2   HT     0.417000        1.0080           0
  116287 WT8  365  TIP3 OH2  OT    -0.834000       15.9994           0
  116288 WT8  365  TIP3 H1   HT     0.417000        1.0080           0
  116289 WT8  365  TIP3 H2   HT     0.417000        1.0080           0
  116290 WT8  367  TIP3 OH2  OT    -0.834000       15.9994           0
  116291 WT8  367  TIP3 H1   HT     0.417000        1.0080           0
  116292 WT8  367  TIP3 H2   HT     0.417000        1.0080           0
  116293 WT8  368  TIP3 OH2  OT    -0.834000       15.9994           0
  116294 WT8  368  TIP3 H1   HT     0.417000        1.0080           0
  116295 WT8  368  TIP3 H2   HT     0.417000        1.0080           0
  116296 WT8  411  TIP3 OH2  OT    -0.834000       15.9994           0
  116297 WT8  411  TIP3 H1   HT     0.417000        1.0080           0
  116298 WT8  411  TIP3 H2   HT     0.417000        1.0080           0
  116299 WT8  416  TIP3 OH2  OT    -0.834000       15.9994           0
  116300 WT8  416  TIP3 H1   HT     0.417000        1.0080           0
  116301 WT8  416  TIP3 H2   HT     0.417000        1.0080           0
  116302 WT8  424  TIP3 OH2  OT    -0.834000       15.9994           0
  116303 WT8  424  TIP3 H1   HT     0.417000        1.0080           0
  116304 WT8  424  TIP3 H2   HT     0.417000        1.0080           0
  116305 WT8  432  TIP3 OH2  OT    -0.834000       15.9994           0
  116306 WT8  432  TIP3 H1   HT     0.417000        1.0080           0
  116307 WT8  432  TIP3 H2   HT     0.417000        1.0080           0
  116308 WT8  443  TIP3 OH2  OT    -0.834000       15.9994           0
  116309 WT8  443  TIP3 H1   HT     0.417000        1.0080           0
  116310 WT8  443  TIP3 H2   HT     0.417000        1.0080           0
  116311 WT8  449  TIP3 OH2  OT    -0.834000       15.9994           0
  116312 WT8  449  TIP3 H1   HT     0.417000        1.0080           0
  116313 WT8  449  TIP3 H2   HT     0.417000        1.0080           0
  116314 WT8  450  TIP3 OH2  OT    -0.834000       15.9994           0
  116315 WT8  450  TIP3 H1   HT     0.417000        1.0080           0
  116316 WT8  450  TIP3 H2   HT     0.417000        1.0080           0
  116317 WT8  452  TIP3 OH2  OT    -0.834000       15.9994           0
  116318 WT8  452  TIP3 H1   HT     0.417000        1.0080           0
  116319 WT8  452  TIP3 H2   HT     0.417000        1.0080           0
  116320 WT8  465  TIP3 OH2  OT    -0.834000       15.9994           0
  116321 WT8  465  TIP3 H1   HT     0.417000        1.0080           0
  116322 WT8  465  TIP3 H2   HT     0.417000        1.0080           0
  116323 WT8  466  TIP3 OH2  OT    -0.834000       15.9994           0
  116324 WT8  466  TIP3 H1   HT     0.417000        1.0080           0
  116325 WT8  466  TIP3 H2   HT     0.417000        1.0080           0
  116326 WT8  469  TIP3 OH2  OT    -0.834000       15.9994           0
  116327 WT8  469  TIP3 H1   HT     0.417000        1.0080           0
  116328 WT8  469  TIP3 H2   HT     0.417000        1.0080           0
  116329 WT8  484  TIP3 OH2  OT    -0.834000       15.9994           0
  116330 WT8  484  TIP3 H1   HT     0.417000        1.0080           0
  116331 WT8  484  TIP3 H2   HT     0.417000        1.0080           0
  116332 WT8  485  TIP3 OH2  OT    -0.834000       15.9994           0
  116333 WT8  485  TIP3 H1   HT     0.417000        1.0080           0
  116334 WT8  485  TIP3 H2   HT     0.417000        1.0080           0
  116335 WT8  486  TIP3 OH2  OT    -0.834000       15.9994           0
  116336 WT8  486  TIP3 H1   HT     0.417000        1.0080           0
  116337 WT8  486  TIP3 H2   HT     0.417000        1.0080           0
  116338 WT8  489  TIP3 OH2  OT    -0.834000       15.9994           0
  116339 WT8  489  TIP3 H1   HT     0.417000        1.0080           0
  116340 WT8  489  TIP3 H2   HT     0.417000        1.0080           0
  116341 WT8  490  TIP3 OH2  OT    -0.834000       15.9994           0
  116342 WT8  490  TIP3 H1   HT     0.417000        1.0080           0
  116343 WT8  490  TIP3 H2   HT     0.417000        1.0080           0
  116344 WT8  491  TIP3 OH2  OT    -0.834000       15.9994           0
  116345 WT8  491  TIP3 H1   HT     0.417000        1.0080           0
  116346 WT8  491  TIP3 H2   HT     0.417000        1.0080           0
  116347 WT8  494  TIP3 OH2  OT    -0.834000       15.9994           0
  116348 WT8  494  TIP3 H1   HT     0.417000        1.0080           0
  116349 WT8  494  TIP3 H2   HT     0.417000        1.0080           0
  116350 WT8  495  TIP3 OH2  OT    -0.834000       15.9994           0
  116351 WT8  495  TIP3 H1   HT     0.417000        1.0080           0
  116352 WT8  495  TIP3 H2   HT     0.417000        1.0080           0
  116353 WT8  498  TIP3 OH2  OT    -0.834000       15.9994           0
  116354 WT8  498  TIP3 H1   HT     0.417000        1.0080           0
  116355 WT8  498  TIP3 H2   HT     0.417000        1.0080           0
  116356 WT8  503  TIP3 OH2  OT    -0.834000       15.9994           0
  116357 WT8  503  TIP3 H1   HT     0.417000        1.0080           0
  116358 WT8  503  TIP3 H2   HT     0.417000        1.0080           0
  116359 WT8  506  TIP3 OH2  OT    -0.834000       15.9994           0
  116360 WT8  506  TIP3 H1   HT     0.417000        1.0080           0
  116361 WT8  506  TIP3 H2   HT     0.417000        1.0080           0
  116362 WT8  507  TIP3 OH2  OT    -0.834000       15.9994           0
  116363 WT8  507  TIP3 H1   HT     0.417000        1.0080           0
  116364 WT8  507  TIP3 H2   HT     0.417000        1.0080           0
  116365 WT8  508  TIP3 OH2  OT    -0.834000       15.9994           0
  116366 WT8  508  TIP3 H1   HT     0.417000        1.0080           0
  116367 WT8  508  TIP3 H2   HT     0.417000        1.0080           0
  116368 WT8  509  TIP3 OH2  OT    -0.834000       15.9994           0
  116369 WT8  509  TIP3 H1   HT     0.417000        1.0080           0
  116370 WT8  509  TIP3 H2   HT     0.417000        1.0080           0
  116371 WT8  511  TIP3 OH2  OT    -0.834000       15.9994           0
  116372 WT8  511  TIP3 H1   HT     0.417000        1.0080           0
  116373 WT8  511  TIP3 H2   HT     0.417000        1.0080           0
  116374 WT8  512  TIP3 OH2  OT    -0.834000       15.9994           0
  116375 WT8  512  TIP3 H1   HT     0.417000        1.0080           0
  116376 WT8  512  TIP3 H2   HT     0.417000        1.0080           0
  116377 WT8  514  TIP3 OH2  OT    -0.834000       15.9994           0
  116378 WT8  514  TIP3 H1   HT     0.417000        1.0080           0
  116379 WT8  514  TIP3 H2   HT     0.417000        1.0080           0
  116380 WT8  515  TIP3 OH2  OT    -0.834000       15.9994           0
  116381 WT8  515  TIP3 H1   HT     0.417000        1.0080           0
  116382 WT8  515  TIP3 H2   HT     0.417000        1.0080           0
  116383 WT8  516  TIP3 OH2  OT    -0.834000       15.9994           0
  116384 WT8  516  TIP3 H1   HT     0.417000        1.0080           0
  116385 WT8  516  TIP3 H2   HT     0.417000        1.0080           0
  116386 WT8  517  TIP3 OH2  OT    -0.834000       15.9994           0
  116387 WT8  517  TIP3 H1   HT     0.417000        1.0080           0
  116388 WT8  517  TIP3 H2   HT     0.417000        1.0080           0
  116389 WT8  528  TIP3 OH2  OT    -0.834000       15.9994           0
  116390 WT8  528  TIP3 H1   HT     0.417000        1.0080           0
  116391 WT8  528  TIP3 H2   HT     0.417000        1.0080           0
  116392 WT8  529  TIP3 OH2  OT    -0.834000       15.9994           0
  116393 WT8  529  TIP3 H1   HT     0.417000        1.0080           0
  116394 WT8  529  TIP3 H2   HT     0.417000        1.0080           0
  116395 WT8  533  TIP3 OH2  OT    -0.834000       15.9994           0
  116396 WT8  533  TIP3 H1   HT     0.417000        1.0080           0
  116397 WT8  533  TIP3 H2   HT     0.417000        1.0080           0
  116398 WT8  534  TIP3 OH2  OT    -0.834000       15.9994           0
  116399 WT8  534  TIP3 H1   HT     0.417000        1.0080           0
  116400 WT8  534  TIP3 H2   HT     0.417000        1.0080           0
  116401 WT8  535  TIP3 OH2  OT    -0.834000       15.9994           0
  116402 WT8  535  TIP3 H1   HT     0.417000        1.0080           0
  116403 WT8  535  TIP3 H2   HT     0.417000        1.0080           0
  116404 WT8  538  TIP3 OH2  OT    -0.834000       15.9994           0
  116405 WT8  538  TIP3 H1   HT     0.417000        1.0080           0
  116406 WT8  538  TIP3 H2   HT     0.417000        1.0080           0
  116407 WT8  540  TIP3 OH2  OT    -0.834000       15.9994           0
  116408 WT8  540  TIP3 H1   HT     0.417000        1.0080           0
  116409 WT8  540  TIP3 H2   HT     0.417000        1.0080           0
  116410 WT8  543  TIP3 OH2  OT    -0.834000       15.9994           0
  116411 WT8  543  TIP3 H1   HT     0.417000        1.0080           0
  116412 WT8  543  TIP3 H2   HT     0.417000        1.0080           0
  116413 WT8  548  TIP3 OH2  OT    -0.834000       15.9994           0
  116414 WT8  548  TIP3 H1   HT     0.417000        1.0080           0
  116415 WT8  548  TIP3 H2   HT     0.417000        1.0080           0
  116416 WT8  549  TIP3 OH2  OT    -0.834000       15.9994           0
  116417 WT8  549  TIP3 H1   HT     0.417000        1.0080           0
  116418 WT8  549  TIP3 H2   HT     0.417000        1.0080           0
  116419 WT8  550  TIP3 OH2  OT    -0.834000       15.9994           0
  116420 WT8  550  TIP3 H1   HT     0.417000        1.0080           0
  116421 WT8  550  TIP3 H2   HT     0.417000        1.0080           0
  116422 WT8  551  TIP3 OH2  OT    -0.834000       15.9994           0
  116423 WT8  551  TIP3 H1   HT     0.417000        1.0080           0
  116424 WT8  551  TIP3 H2   HT     0.417000        1.0080           0
  116425 WT8  552  TIP3 OH2  OT    -0.834000       15.9994           0
  116426 WT8  552  TIP3 H1   HT     0.417000        1.0080           0
  116427 WT8  552  TIP3 H2   HT     0.417000        1.0080           0
  116428 WT8  553  TIP3 OH2  OT    -0.834000       15.9994           0
  116429 WT8  553  TIP3 H1   HT     0.417000        1.0080           0
  116430 WT8  553  TIP3 H2   HT     0.417000        1.0080           0
  116431 WT8  554  TIP3 OH2  OT    -0.834000       15.9994           0
  116432 WT8  554  TIP3 H1   HT     0.417000        1.0080           0
  116433 WT8  554  TIP3 H2   HT     0.417000        1.0080           0
  116434 WT8  555  TIP3 OH2  OT    -0.834000       15.9994           0
  116435 WT8  555  TIP3 H1   HT     0.417000        1.0080           0
  116436 WT8  555  TIP3 H2   HT     0.417000        1.0080           0
  116437 WT8  558  TIP3 OH2  OT    -0.834000       15.9994           0
  116438 WT8  558  TIP3 H1   HT     0.417000        1.0080           0
  116439 WT8  558  TIP3 H2   HT     0.417000        1.0080           0
  116440 WT8  562  TIP3 OH2  OT    -0.834000       15.9994           0
  116441 WT8  562  TIP3 H1   HT     0.417000        1.0080           0
  116442 WT8  562  TIP3 H2   HT     0.417000        1.0080           0
  116443 WT8  568  TIP3 OH2  OT    -0.834000       15.9994           0
  116444 WT8  568  TIP3 H1   HT     0.417000        1.0080           0
  116445 WT8  568  TIP3 H2   HT     0.417000        1.0080           0
  116446 WT8  570  TIP3 OH2  OT    -0.834000       15.9994           0
  116447 WT8  570  TIP3 H1   HT     0.417000        1.0080           0
  116448 WT8  570  TIP3 H2   HT     0.417000        1.0080           0
  116449 WT8  573  TIP3 OH2  OT    -0.834000       15.9994           0
  116450 WT8  573  TIP3 H1   HT     0.417000        1.0080           0
  116451 WT8  573  TIP3 H2   HT     0.417000        1.0080           0
  116452 WT8  575  TIP3 OH2  OT    -0.834000       15.9994           0
  116453 WT8  575  TIP3 H1   HT     0.417000        1.0080           0
  116454 WT8  575  TIP3 H2   HT     0.417000        1.0080           0
  116455 WT8  576  TIP3 OH2  OT    -0.834000       15.9994           0
  116456 WT8  576  TIP3 H1   HT     0.417000        1.0080           0
  116457 WT8  576  TIP3 H2   HT     0.417000        1.0080           0
  116458 WT8  578  TIP3 OH2  OT    -0.834000       15.9994           0
  116459 WT8  578  TIP3 H1   HT     0.417000        1.0080           0
  116460 WT8  578  TIP3 H2   HT     0.417000        1.0080           0
  116461 WT8  579  TIP3 OH2  OT    -0.834000       15.9994           0
  116462 WT8  579  TIP3 H1   HT     0.417000        1.0080           0
  116463 WT8  579  TIP3 H2   HT     0.417000        1.0080           0
  116464 WT8  580  TIP3 OH2  OT    -0.834000       15.9994           0
  116465 WT8  580  TIP3 H1   HT     0.417000        1.0080           0
  116466 WT8  580  TIP3 H2   HT     0.417000        1.0080           0
  116467 WT8  584  TIP3 OH2  OT    -0.834000       15.9994           0
  116468 WT8  584  TIP3 H1   HT     0.417000        1.0080           0
  116469 WT8  584  TIP3 H2   HT     0.417000        1.0080           0
  116470 WT8  588  TIP3 OH2  OT    -0.834000       15.9994           0
  116471 WT8  588  TIP3 H1   HT     0.417000        1.0080           0
  116472 WT8  588  TIP3 H2   HT     0.417000        1.0080           0
  116473 WT8  591  TIP3 OH2  OT    -0.834000       15.9994           0
  116474 WT8  591  TIP3 H1   HT     0.417000        1.0080           0
  116475 WT8  591  TIP3 H2   HT     0.417000        1.0080           0
  116476 WT8  592  TIP3 OH2  OT    -0.834000       15.9994           0
  116477 WT8  592  TIP3 H1   HT     0.417000        1.0080           0
  116478 WT8  592  TIP3 H2   HT     0.417000        1.0080           0
  116479 WT8  593  TIP3 OH2  OT    -0.834000       15.9994           0
  116480 WT8  593  TIP3 H1   HT     0.417000        1.0080           0
  116481 WT8  593  TIP3 H2   HT     0.417000        1.0080           0
  116482 WT8  594  TIP3 OH2  OT    -0.834000       15.9994           0
  116483 WT8  594  TIP3 H1   HT     0.417000        1.0080           0
  116484 WT8  594  TIP3 H2   HT     0.417000        1.0080           0
  116485 WT8  595  TIP3 OH2  OT    -0.834000       15.9994           0
  116486 WT8  595  TIP3 H1   HT     0.417000        1.0080           0
  116487 WT8  595  TIP3 H2   HT     0.417000        1.0080           0
  116488 WT8  598  TIP3 OH2  OT    -0.834000       15.9994           0
  116489 WT8  598  TIP3 H1   HT     0.417000        1.0080           0
  116490 WT8  598  TIP3 H2   HT     0.417000        1.0080           0
  116491 WT8  599  TIP3 OH2  OT    -0.834000       15.9994           0
  116492 WT8  599  TIP3 H1   HT     0.417000        1.0080           0
  116493 WT8  599  TIP3 H2   HT     0.417000        1.0080           0
  116494 WT8  600  TIP3 OH2  OT    -0.834000       15.9994           0
  116495 WT8  600  TIP3 H1   HT     0.417000        1.0080           0
  116496 WT8  600  TIP3 H2   HT     0.417000        1.0080           0
  116497 WT8  602  TIP3 OH2  OT    -0.834000       15.9994           0
  116498 WT8  602  TIP3 H1   HT     0.417000        1.0080           0
  116499 WT8  602  TIP3 H2   HT     0.417000        1.0080           0
  116500 WT8  611  TIP3 OH2  OT    -0.834000       15.9994           0
  116501 WT8  611  TIP3 H1   HT     0.417000        1.0080           0
  116502 WT8  611  TIP3 H2   HT     0.417000        1.0080           0
  116503 WT8  612  TIP3 OH2  OT    -0.834000       15.9994           0
  116504 WT8  612  TIP3 H1   HT     0.417000        1.0080           0
  116505 WT8  612  TIP3 H2   HT     0.417000        1.0080           0
  116506 WT8  613  TIP3 OH2  OT    -0.834000       15.9994           0
  116507 WT8  613  TIP3 H1   HT     0.417000        1.0080           0
  116508 WT8  613  TIP3 H2   HT     0.417000        1.0080           0
  116509 WT8  615  TIP3 OH2  OT    -0.834000       15.9994           0
  116510 WT8  615  TIP3 H1   HT     0.417000        1.0080           0
  116511 WT8  615  TIP3 H2   HT     0.417000        1.0080           0
  116512 WT8  618  TIP3 OH2  OT    -0.834000       15.9994           0
  116513 WT8  618  TIP3 H1   HT     0.417000        1.0080           0
  116514 WT8  618  TIP3 H2   HT     0.417000        1.0080           0
  116515 WT8  619  TIP3 OH2  OT    -0.834000       15.9994           0
  116516 WT8  619  TIP3 H1   HT     0.417000        1.0080           0
  116517 WT8  619  TIP3 H2   HT     0.417000        1.0080           0
  116518 WT8  623  TIP3 OH2  OT    -0.834000       15.9994           0
  116519 WT8  623  TIP3 H1   HT     0.417000        1.0080           0
  116520 WT8  623  TIP3 H2   HT     0.417000        1.0080           0
  116521 WT8  624  TIP3 OH2  OT    -0.834000       15.9994           0
  116522 WT8  624  TIP3 H1   HT     0.417000        1.0080           0
  116523 WT8  624  TIP3 H2   HT     0.417000        1.0080           0
  116524 WT8  626  TIP3 OH2  OT    -0.834000       15.9994           0
  116525 WT8  626  TIP3 H1   HT     0.417000        1.0080           0
  116526 WT8  626  TIP3 H2   HT     0.417000        1.0080           0
  116527 WT8  632  TIP3 OH2  OT    -0.834000       15.9994           0
  116528 WT8  632  TIP3 H1   HT     0.417000        1.0080           0
  116529 WT8  632  TIP3 H2   HT     0.417000        1.0080           0
  116530 WT8  634  TIP3 OH2  OT    -0.834000       15.9994           0
  116531 WT8  634  TIP3 H1   HT     0.417000        1.0080           0
  116532 WT8  634  TIP3 H2   HT     0.417000        1.0080           0
  116533 WT8  635  TIP3 OH2  OT    -0.834000       15.9994           0
  116534 WT8  635  TIP3 H1   HT     0.417000        1.0080           0
  116535 WT8  635  TIP3 H2   HT     0.417000        1.0080           0
  116536 WT8  636  TIP3 OH2  OT    -0.834000       15.9994           0
  116537 WT8  636  TIP3 H1   HT     0.417000        1.0080           0
  116538 WT8  636  TIP3 H2   HT     0.417000        1.0080           0
  116539 WT8  637  TIP3 OH2  OT    -0.834000       15.9994           0
  116540 WT8  637  TIP3 H1   HT     0.417000        1.0080           0
  116541 WT8  637  TIP3 H2   HT     0.417000        1.0080           0
  116542 WT8  638  TIP3 OH2  OT    -0.834000       15.9994           0
  116543 WT8  638  TIP3 H1   HT     0.417000        1.0080           0
  116544 WT8  638  TIP3 H2   HT     0.417000        1.0080           0
  116545 WT8  639  TIP3 OH2  OT    -0.834000       15.9994           0
  116546 WT8  639  TIP3 H1   HT     0.417000        1.0080           0
  116547 WT8  639  TIP3 H2   HT     0.417000        1.0080           0
  116548 WT8  640  TIP3 OH2  OT    -0.834000       15.9994           0
  116549 WT8  640  TIP3 H1   HT     0.417000        1.0080           0
  116550 WT8  640  TIP3 H2   HT     0.417000        1.0080           0
  116551 WT8  642  TIP3 OH2  OT    -0.834000       15.9994           0
  116552 WT8  642  TIP3 H1   HT     0.417000        1.0080           0
  116553 WT8  642  TIP3 H2   HT     0.417000        1.0080           0
  116554 WT8  643  TIP3 OH2  OT    -0.834000       15.9994           0
  116555 WT8  643  TIP3 H1   HT     0.417000        1.0080           0
  116556 WT8  643  TIP3 H2   HT     0.417000        1.0080           0
  116557 WT8  653  TIP3 OH2  OT    -0.834000       15.9994           0
  116558 WT8  653  TIP3 H1   HT     0.417000        1.0080           0
  116559 WT8  653  TIP3 H2   HT     0.417000        1.0080           0
  116560 WT8  657  TIP3 OH2  OT    -0.834000       15.9994           0
  116561 WT8  657  TIP3 H1   HT     0.417000        1.0080           0
  116562 WT8  657  TIP3 H2   HT     0.417000        1.0080           0
  116563 WT8  659  TIP3 OH2  OT    -0.834000       15.9994           0
  116564 WT8  659  TIP3 H1   HT     0.417000        1.0080           0
  116565 WT8  659  TIP3 H2   HT     0.417000        1.0080           0
  116566 WT8  661  TIP3 OH2  OT    -0.834000       15.9994           0
  116567 WT8  661  TIP3 H1   HT     0.417000        1.0080           0
  116568 WT8  661  TIP3 H2   HT     0.417000        1.0080           0
  116569 WT8  662  TIP3 OH2  OT    -0.834000       15.9994           0
  116570 WT8  662  TIP3 H1   HT     0.417000        1.0080           0
  116571 WT8  662  TIP3 H2   HT     0.417000        1.0080           0
  116572 WT8  666  TIP3 OH2  OT    -0.834000       15.9994           0
  116573 WT8  666  TIP3 H1   HT     0.417000        1.0080           0
  116574 WT8  666  TIP3 H2   HT     0.417000        1.0080           0
  116575 WT8  674  TIP3 OH2  OT    -0.834000       15.9994           0
  116576 WT8  674  TIP3 H1   HT     0.417000        1.0080           0
  116577 WT8  674  TIP3 H2   HT     0.417000        1.0080           0
  116578 WT8  675  TIP3 OH2  OT    -0.834000       15.9994           0
  116579 WT8  675  TIP3 H1   HT     0.417000        1.0080           0
  116580 WT8  675  TIP3 H2   HT     0.417000        1.0080           0
  116581 WT8  676  TIP3 OH2  OT    -0.834000       15.9994           0
  116582 WT8  676  TIP3 H1   HT     0.417000        1.0080           0
  116583 WT8  676  TIP3 H2   HT     0.417000        1.0080           0
  116584 WT8  678  TIP3 OH2  OT    -0.834000       15.9994           0
  116585 WT8  678  TIP3 H1   HT     0.417000        1.0080           0
  116586 WT8  678  TIP3 H2   HT     0.417000        1.0080           0
  116587 WT8  680  TIP3 OH2  OT    -0.834000       15.9994           0
  116588 WT8  680  TIP3 H1   HT     0.417000        1.0080           0
  116589 WT8  680  TIP3 H2   HT     0.417000        1.0080           0
  116590 WT8  682  TIP3 OH2  OT    -0.834000       15.9994           0
  116591 WT8  682  TIP3 H1   HT     0.417000        1.0080           0
  116592 WT8  682  TIP3 H2   HT     0.417000        1.0080           0
  116593 WT8  686  TIP3 OH2  OT    -0.834000       15.9994           0
  116594 WT8  686  TIP3 H1   HT     0.417000        1.0080           0
  116595 WT8  686  TIP3 H2   HT     0.417000        1.0080           0
  116596 WT8  687  TIP3 OH2  OT    -0.834000       15.9994           0
  116597 WT8  687  TIP3 H1   HT     0.417000        1.0080           0
  116598 WT8  687  TIP3 H2   HT     0.417000        1.0080           0
  116599 WT8  699  TIP3 OH2  OT    -0.834000       15.9994           0
  116600 WT8  699  TIP3 H1   HT     0.417000        1.0080           0
  116601 WT8  699  TIP3 H2   HT     0.417000        1.0080           0
  116602 WT8  700  TIP3 OH2  OT    -0.834000       15.9994           0
  116603 WT8  700  TIP3 H1   HT     0.417000        1.0080           0
  116604 WT8  700  TIP3 H2   HT     0.417000        1.0080           0
  116605 WT8  701  TIP3 OH2  OT    -0.834000       15.9994           0
  116606 WT8  701  TIP3 H1   HT     0.417000        1.0080           0
  116607 WT8  701  TIP3 H2   HT     0.417000        1.0080           0
  116608 WT8  702  TIP3 OH2  OT    -0.834000       15.9994           0
  116609 WT8  702  TIP3 H1   HT     0.417000        1.0080           0
  116610 WT8  702  TIP3 H2   HT     0.417000        1.0080           0
  116611 WT8  703  TIP3 OH2  OT    -0.834000       15.9994           0
  116612 WT8  703  TIP3 H1   HT     0.417000        1.0080           0
  116613 WT8  703  TIP3 H2   HT     0.417000        1.0080           0
  116614 WT8  704  TIP3 OH2  OT    -0.834000       15.9994           0
  116615 WT8  704  TIP3 H1   HT     0.417000        1.0080           0
  116616 WT8  704  TIP3 H2   HT     0.417000        1.0080           0
  116617 WT8  707  TIP3 OH2  OT    -0.834000       15.9994           0
  116618 WT8  707  TIP3 H1   HT     0.417000        1.0080           0
  116619 WT8  707  TIP3 H2   HT     0.417000        1.0080           0
  116620 WT8  708  TIP3 OH2  OT    -0.834000       15.9994           0
  116621 WT8  708  TIP3 H1   HT     0.417000        1.0080           0
  116622 WT8  708  TIP3 H2   HT     0.417000        1.0080           0
  116623 WT8  710  TIP3 OH2  OT    -0.834000       15.9994           0
  116624 WT8  710  TIP3 H1   HT     0.417000        1.0080           0
  116625 WT8  710  TIP3 H2   HT     0.417000        1.0080           0
  116626 WT8  721  TIP3 OH2  OT    -0.834000       15.9994           0
  116627 WT8  721  TIP3 H1   HT     0.417000        1.0080           0
  116628 WT8  721  TIP3 H2   HT     0.417000        1.0080           0
  116629 WT8  722  TIP3 OH2  OT    -0.834000       15.9994           0
  116630 WT8  722  TIP3 H1   HT     0.417000        1.0080           0
  116631 WT8  722  TIP3 H2   HT     0.417000        1.0080           0
  116632 WT8  725  TIP3 OH2  OT    -0.834000       15.9994           0
  116633 WT8  725  TIP3 H1   HT     0.417000        1.0080           0
  116634 WT8  725  TIP3 H2   HT     0.417000        1.0080           0
  116635 WT8  726  TIP3 OH2  OT    -0.834000       15.9994           0
  116636 WT8  726  TIP3 H1   HT     0.417000        1.0080           0
  116637 WT8  726  TIP3 H2   HT     0.417000        1.0080           0
  116638 WT8  736  TIP3 OH2  OT    -0.834000       15.9994           0
  116639 WT8  736  TIP3 H1   HT     0.417000        1.0080           0
  116640 WT8  736  TIP3 H2   HT     0.417000        1.0080           0
  116641 WT8  737  TIP3 OH2  OT    -0.834000       15.9994           0
  116642 WT8  737  TIP3 H1   HT     0.417000        1.0080           0
  116643 WT8  737  TIP3 H2   HT     0.417000        1.0080           0
  116644 WT8  738  TIP3 OH2  OT    -0.834000       15.9994           0
  116645 WT8  738  TIP3 H1   HT     0.417000        1.0080           0
  116646 WT8  738  TIP3 H2   HT     0.417000        1.0080           0
  116647 WT8  741  TIP3 OH2  OT    -0.834000       15.9994           0
  116648 WT8  741  TIP3 H1   HT     0.417000        1.0080           0
  116649 WT8  741  TIP3 H2   HT     0.417000        1.0080           0
  116650 WT8  746  TIP3 OH2  OT    -0.834000       15.9994           0
  116651 WT8  746  TIP3 H1   HT     0.417000        1.0080           0
  116652 WT8  746  TIP3 H2   HT     0.417000        1.0080           0
  116653 WT8  747  TIP3 OH2  OT    -0.834000       15.9994           0
  116654 WT8  747  TIP3 H1   HT     0.417000        1.0080           0
  116655 WT8  747  TIP3 H2   HT     0.417000        1.0080           0
  116656 WT8  748  TIP3 OH2  OT    -0.834000       15.9994           0
  116657 WT8  748  TIP3 H1   HT     0.417000        1.0080           0
  116658 WT8  748  TIP3 H2   HT     0.417000        1.0080           0
  116659 WT8  759  TIP3 OH2  OT    -0.834000       15.9994           0
  116660 WT8  759  TIP3 H1   HT     0.417000        1.0080           0
  116661 WT8  759  TIP3 H2   HT     0.417000        1.0080           0
  116662 WT8  778  TIP3 OH2  OT    -0.834000       15.9994           0
  116663 WT8  778  TIP3 H1   HT     0.417000        1.0080           0
  116664 WT8  778  TIP3 H2   HT     0.417000        1.0080           0
  116665 WT8  779  TIP3 OH2  OT    -0.834000       15.9994           0
  116666 WT8  779  TIP3 H1   HT     0.417000        1.0080           0
  116667 WT8  779  TIP3 H2   HT     0.417000        1.0080           0
  116668 WT8  785  TIP3 OH2  OT    -0.834000       15.9994           0
  116669 WT8  785  TIP3 H1   HT     0.417000        1.0080           0
  116670 WT8  785  TIP3 H2   HT     0.417000        1.0080           0
  116671 WT8  787  TIP3 OH2  OT    -0.834000       15.9994           0
  116672 WT8  787  TIP3 H1   HT     0.417000        1.0080           0
  116673 WT8  787  TIP3 H2   HT     0.417000        1.0080           0
  116674 WT8  796  TIP3 OH2  OT    -0.834000       15.9994           0
  116675 WT8  796  TIP3 H1   HT     0.417000        1.0080           0
  116676 WT8  796  TIP3 H2   HT     0.417000        1.0080           0
  116677 WT8  806  TIP3 OH2  OT    -0.834000       15.9994           0
  116678 WT8  806  TIP3 H1   HT     0.417000        1.0080           0
  116679 WT8  806  TIP3 H2   HT     0.417000        1.0080           0
  116680 WT8  813  TIP3 OH2  OT    -0.834000       15.9994           0
  116681 WT8  813  TIP3 H1   HT     0.417000        1.0080           0
  116682 WT8  813  TIP3 H2   HT     0.417000        1.0080           0
  116683 WT8  822  TIP3 OH2  OT    -0.834000       15.9994           0
  116684 WT8  822  TIP3 H1   HT     0.417000        1.0080           0
  116685 WT8  822  TIP3 H2   HT     0.417000        1.0080           0
  116686 WT8  849  TIP3 OH2  OT    -0.834000       15.9994           0
  116687 WT8  849  TIP3 H1   HT     0.417000        1.0080           0
  116688 WT8  849  TIP3 H2   HT     0.417000        1.0080           0
  116689 WT8  852  TIP3 OH2  OT    -0.834000       15.9994           0
  116690 WT8  852  TIP3 H1   HT     0.417000        1.0080           0
  116691 WT8  852  TIP3 H2   HT     0.417000        1.0080           0
  116692 WT8  854  TIP3 OH2  OT    -0.834000       15.9994           0
  116693 WT8  854  TIP3 H1   HT     0.417000        1.0080           0
  116694 WT8  854  TIP3 H2   HT     0.417000        1.0080           0
  116695 WT8  867  TIP3 OH2  OT    -0.834000       15.9994           0
  116696 WT8  867  TIP3 H1   HT     0.417000        1.0080           0
  116697 WT8  867  TIP3 H2   HT     0.417000        1.0080           0
  116698 WT8  887  TIP3 OH2  OT    -0.834000       15.9994           0
  116699 WT8  887  TIP3 H1   HT     0.417000        1.0080           0
  116700 WT8  887  TIP3 H2   HT     0.417000        1.0080           0
  116701 WT8  888  TIP3 OH2  OT    -0.834000       15.9994           0
  116702 WT8  888  TIP3 H1   HT     0.417000        1.0080           0
  116703 WT8  888  TIP3 H2   HT     0.417000        1.0080           0
  116704 WT8  889  TIP3 OH2  OT    -0.834000       15.9994           0
  116705 WT8  889  TIP3 H1   HT     0.417000        1.0080           0
  116706 WT8  889  TIP3 H2   HT     0.417000        1.0080           0
  116707 WT8  891  TIP3 OH2  OT    -0.834000       15.9994           0
  116708 WT8  891  TIP3 H1   HT     0.417000        1.0080           0
  116709 WT8  891  TIP3 H2   HT     0.417000        1.0080           0
  116710 WT8  892  TIP3 OH2  OT    -0.834000       15.9994           0
  116711 WT8  892  TIP3 H1   HT     0.417000        1.0080           0
  116712 WT8  892  TIP3 H2   HT     0.417000        1.0080           0
  116713 WT8  894  TIP3 OH2  OT    -0.834000       15.9994           0
  116714 WT8  894  TIP3 H1   HT     0.417000        1.0080           0
  116715 WT8  894  TIP3 H2   HT     0.417000        1.0080           0
  116716 WT8  895  TIP3 OH2  OT    -0.834000       15.9994           0
  116717 WT8  895  TIP3 H1   HT     0.417000        1.0080           0
  116718 WT8  895  TIP3 H2   HT     0.417000        1.0080           0
  116719 WT8  897  TIP3 OH2  OT    -0.834000       15.9994           0
  116720 WT8  897  TIP3 H1   HT     0.417000        1.0080           0
  116721 WT8  897  TIP3 H2   HT     0.417000        1.0080           0
  116722 WT8  906  TIP3 OH2  OT    -0.834000       15.9994           0
  116723 WT8  906  TIP3 H1   HT     0.417000        1.0080           0
  116724 WT8  906  TIP3 H2   HT     0.417000        1.0080           0
  116725 WT8  907  TIP3 OH2  OT    -0.834000       15.9994           0
  116726 WT8  907  TIP3 H1   HT     0.417000        1.0080           0
  116727 WT8  907  TIP3 H2   HT     0.417000        1.0080           0
  116728 WT8  908  TIP3 OH2  OT    -0.834000       15.9994           0
  116729 WT8  908  TIP3 H1   HT     0.417000        1.0080           0
  116730 WT8  908  TIP3 H2   HT     0.417000        1.0080           0
  116731 WT8  911  TIP3 OH2  OT    -0.834000       15.9994           0
  116732 WT8  911  TIP3 H1   HT     0.417000        1.0080           0
  116733 WT8  911  TIP3 H2   HT     0.417000        1.0080           0
  116734 WT8  912  TIP3 OH2  OT    -0.834000       15.9994           0
  116735 WT8  912  TIP3 H1   HT     0.417000        1.0080           0
  116736 WT8  912  TIP3 H2   HT     0.417000        1.0080           0
  116737 WT8  916  TIP3 OH2  OT    -0.834000       15.9994           0
  116738 WT8  916  TIP3 H1   HT     0.417000        1.0080           0
  116739 WT8  916  TIP3 H2   HT     0.417000        1.0080           0
  116740 WT8  924  TIP3 OH2  OT    -0.834000       15.9994           0
  116741 WT8  924  TIP3 H1   HT     0.417000        1.0080           0
  116742 WT8  924  TIP3 H2   HT     0.417000        1.0080           0
  116743 WT8  927  TIP3 OH2  OT    -0.834000       15.9994           0
  116744 WT8  927  TIP3 H1   HT     0.417000        1.0080           0
  116745 WT8  927  TIP3 H2   HT     0.417000        1.0080           0
  116746 WT8  928  TIP3 OH2  OT    -0.834000       15.9994           0
  116747 WT8  928  TIP3 H1   HT     0.417000        1.0080           0
  116748 WT8  928  TIP3 H2   HT     0.417000        1.0080           0
  116749 WT8  929  TIP3 OH2  OT    -0.834000       15.9994           0
  116750 WT8  929  TIP3 H1   HT     0.417000        1.0080           0
  116751 WT8  929  TIP3 H2   HT     0.417000        1.0080           0
  116752 WT8  930  TIP3 OH2  OT    -0.834000       15.9994           0
  116753 WT8  930  TIP3 H1   HT     0.417000        1.0080           0
  116754 WT8  930  TIP3 H2   HT     0.417000        1.0080           0
  116755 WT8  932  TIP3 OH2  OT    -0.834000       15.9994           0
  116756 WT8  932  TIP3 H1   HT     0.417000        1.0080           0
  116757 WT8  932  TIP3 H2   HT     0.417000        1.0080           0
  116758 WT8  933  TIP3 OH2  OT    -0.834000       15.9994           0
  116759 WT8  933  TIP3 H1   HT     0.417000        1.0080           0
  116760 WT8  933  TIP3 H2   HT     0.417000        1.0080           0
  116761 WT8  936  TIP3 OH2  OT    -0.834000       15.9994           0
  116762 WT8  936  TIP3 H1   HT     0.417000        1.0080           0
  116763 WT8  936  TIP3 H2   HT     0.417000        1.0080           0
  116764 WT8  940  TIP3 OH2  OT    -0.834000       15.9994           0
  116765 WT8  940  TIP3 H1   HT     0.417000        1.0080           0
  116766 WT8  940  TIP3 H2   HT     0.417000        1.0080           0
  116767 WT8  941  TIP3 OH2  OT    -0.834000       15.9994           0
  116768 WT8  941  TIP3 H1   HT     0.417000        1.0080           0
  116769 WT8  941  TIP3 H2   HT     0.417000        1.0080           0
  116770 WT8  942  TIP3 OH2  OT    -0.834000       15.9994           0
  116771 WT8  942  TIP3 H1   HT     0.417000        1.0080           0
  116772 WT8  942  TIP3 H2   HT     0.417000        1.0080           0
  116773 WT8  947  TIP3 OH2  OT    -0.834000       15.9994           0
  116774 WT8  947  TIP3 H1   HT     0.417000        1.0080           0
  116775 WT8  947  TIP3 H2   HT     0.417000        1.0080           0
  116776 WT8  948  TIP3 OH2  OT    -0.834000       15.9994           0
  116777 WT8  948  TIP3 H1   HT     0.417000        1.0080           0
  116778 WT8  948  TIP3 H2   HT     0.417000        1.0080           0
  116779 WT8  949  TIP3 OH2  OT    -0.834000       15.9994           0
  116780 WT8  949  TIP3 H1   HT     0.417000        1.0080           0
  116781 WT8  949  TIP3 H2   HT     0.417000        1.0080           0
  116782 WT8  950  TIP3 OH2  OT    -0.834000       15.9994           0
  116783 WT8  950  TIP3 H1   HT     0.417000        1.0080           0
  116784 WT8  950  TIP3 H2   HT     0.417000        1.0080           0
  116785 WT8  951  TIP3 OH2  OT    -0.834000       15.9994           0
  116786 WT8  951  TIP3 H1   HT     0.417000        1.0080           0
  116787 WT8  951  TIP3 H2   HT     0.417000        1.0080           0
  116788 WT8  952  TIP3 OH2  OT    -0.834000       15.9994           0
  116789 WT8  952  TIP3 H1   HT     0.417000        1.0080           0
  116790 WT8  952  TIP3 H2   HT     0.417000        1.0080           0
  116791 WT8  953  TIP3 OH2  OT    -0.834000       15.9994           0
  116792 WT8  953  TIP3 H1   HT     0.417000        1.0080           0
  116793 WT8  953  TIP3 H2   HT     0.417000        1.0080           0
  116794 WT8  954  TIP3 OH2  OT    -0.834000       15.9994           0
  116795 WT8  954  TIP3 H1   HT     0.417000        1.0080           0
  116796 WT8  954  TIP3 H2   HT     0.417000        1.0080           0
  116797 WT8  964  TIP3 OH2  OT    -0.834000       15.9994           0
  116798 WT8  964  TIP3 H1   HT     0.417000        1.0080           0
  116799 WT8  964  TIP3 H2   HT     0.417000        1.0080           0
  116800 WT8  970  TIP3 OH2  OT    -0.834000       15.9994           0
  116801 WT8  970  TIP3 H1   HT     0.417000        1.0080           0
  116802 WT8  970  TIP3 H2   HT     0.417000        1.0080           0
  116803 WT8  972  TIP3 OH2  OT    -0.834000       15.9994           0
  116804 WT8  972  TIP3 H1   HT     0.417000        1.0080           0
  116805 WT8  972  TIP3 H2   HT     0.417000        1.0080           0
  116806 WT8  973  TIP3 OH2  OT    -0.834000       15.9994           0
  116807 WT8  973  TIP3 H1   HT     0.417000        1.0080           0
  116808 WT8  973  TIP3 H2   HT     0.417000        1.0080           0
  116809 WT8  974  TIP3 OH2  OT    -0.834000       15.9994           0
  116810 WT8  974  TIP3 H1   HT     0.417000        1.0080           0
  116811 WT8  974  TIP3 H2   HT     0.417000        1.0080           0
  116812 WT8  975  TIP3 OH2  OT    -0.834000       15.9994           0
  116813 WT8  975  TIP3 H1   HT     0.417000        1.0080           0
  116814 WT8  975  TIP3 H2   HT     0.417000        1.0080           0
  116815 WT8  977  TIP3 OH2  OT    -0.834000       15.9994           0
  116816 WT8  977  TIP3 H1   HT     0.417000        1.0080           0
  116817 WT8  977  TIP3 H2   HT     0.417000        1.0080           0
  116818 WT8  978  TIP3 OH2  OT    -0.834000       15.9994           0
  116819 WT8  978  TIP3 H1   HT     0.417000        1.0080           0
  116820 WT8  978  TIP3 H2   HT     0.417000        1.0080           0
  116821 WT8  985  TIP3 OH2  OT    -0.834000       15.9994           0
  116822 WT8  985  TIP3 H1   HT     0.417000        1.0080           0
  116823 WT8  985  TIP3 H2   HT     0.417000        1.0080           0
  116824 WT8  987  TIP3 OH2  OT    -0.834000       15.9994           0
  116825 WT8  987  TIP3 H1   HT     0.417000        1.0080           0
  116826 WT8  987  TIP3 H2   HT     0.417000        1.0080           0
  116827 WT8  988  TIP3 OH2  OT    -0.834000       15.9994           0
  116828 WT8  988  TIP3 H1   HT     0.417000        1.0080           0
  116829 WT8  988  TIP3 H2   HT     0.417000        1.0080           0
  116830 WT8  989  TIP3 OH2  OT    -0.834000       15.9994           0
  116831 WT8  989  TIP3 H1   HT     0.417000        1.0080           0
  116832 WT8  989  TIP3 H2   HT     0.417000        1.0080           0
  116833 WT8  990  TIP3 OH2  OT    -0.834000       15.9994           0
  116834 WT8  990  TIP3 H1   HT     0.417000        1.0080           0
  116835 WT8  990  TIP3 H2   HT     0.417000        1.0080           0
  116836 WT8  991  TIP3 OH2  OT    -0.834000       15.9994           0
  116837 WT8  991  TIP3 H1   HT     0.417000        1.0080           0
  116838 WT8  991  TIP3 H2   HT     0.417000        1.0080           0
  116839 WT8  992  TIP3 OH2  OT    -0.834000       15.9994           0
  116840 WT8  992  TIP3 H1   HT     0.417000        1.0080           0
  116841 WT8  992  TIP3 H2   HT     0.417000        1.0080           0
  116842 WT8  993  TIP3 OH2  OT    -0.834000       15.9994           0
  116843 WT8  993  TIP3 H1   HT     0.417000        1.0080           0
  116844 WT8  993  TIP3 H2   HT     0.417000        1.0080           0
  116845 WT8  994  TIP3 OH2  OT    -0.834000       15.9994           0
  116846 WT8  994  TIP3 H1   HT     0.417000        1.0080           0
  116847 WT8  994  TIP3 H2   HT     0.417000        1.0080           0
  116848 WT8  995  TIP3 OH2  OT    -0.834000       15.9994           0
  116849 WT8  995  TIP3 H1   HT     0.417000        1.0080           0
  116850 WT8  995  TIP3 H2   HT     0.417000        1.0080           0
  116851 WT8  996  TIP3 OH2  OT    -0.834000       15.9994           0
  116852 WT8  996  TIP3 H1   HT     0.417000        1.0080           0
  116853 WT8  996  TIP3 H2   HT     0.417000        1.0080           0
  116854 WT8  998  TIP3 OH2  OT    -0.834000       15.9994           0
  116855 WT8  998  TIP3 H1   HT     0.417000        1.0080           0
  116856 WT8  998  TIP3 H2   HT     0.417000        1.0080           0
  116857 WT8  1007 TIP3 OH2  OT    -0.834000       15.9994           0
  116858 WT8  1007 TIP3 H1   HT     0.417000        1.0080           0
  116859 WT8  1007 TIP3 H2   HT     0.417000        1.0080           0
  116860 WT8  1011 TIP3 OH2  OT    -0.834000       15.9994           0
  116861 WT8  1011 TIP3 H1   HT     0.417000        1.0080           0
  116862 WT8  1011 TIP3 H2   HT     0.417000        1.0080           0
  116863 WT8  1012 TIP3 OH2  OT    -0.834000       15.9994           0
  116864 WT8  1012 TIP3 H1   HT     0.417000        1.0080           0
  116865 WT8  1012 TIP3 H2   HT     0.417000        1.0080           0
  116866 WT8  1013 TIP3 OH2  OT    -0.834000       15.9994           0
  116867 WT8  1013 TIP3 H1   HT     0.417000        1.0080           0
  116868 WT8  1013 TIP3 H2   HT     0.417000        1.0080           0
  116869 WT8  1014 TIP3 OH2  OT    -0.834000       15.9994           0
  116870 WT8  1014 TIP3 H1   HT     0.417000        1.0080           0
  116871 WT8  1014 TIP3 H2   HT     0.417000        1.0080           0
  116872 WT8  1015 TIP3 OH2  OT    -0.834000       15.9994           0
  116873 WT8  1015 TIP3 H1   HT     0.417000        1.0080           0
  116874 WT8  1015 TIP3 H2   HT     0.417000        1.0080           0
  116875 WT8  1017 TIP3 OH2  OT    -0.834000       15.9994           0
  116876 WT8  1017 TIP3 H1   HT     0.417000        1.0080           0
  116877 WT8  1017 TIP3 H2   HT     0.417000        1.0080           0
  116878 WT8  1018 TIP3 OH2  OT    -0.834000       15.9994           0
  116879 WT8  1018 TIP3 H1   HT     0.417000        1.0080           0
  116880 WT8  1018 TIP3 H2   HT     0.417000        1.0080           0
  116881 WT8  1020 TIP3 OH2  OT    -0.834000       15.9994           0
  116882 WT8  1020 TIP3 H1   HT     0.417000        1.0080           0
  116883 WT8  1020 TIP3 H2   HT     0.417000        1.0080           0
  116884 WT8  1022 TIP3 OH2  OT    -0.834000       15.9994           0
  116885 WT8  1022 TIP3 H1   HT     0.417000        1.0080           0
  116886 WT8  1022 TIP3 H2   HT     0.417000        1.0080           0
  116887 WT8  1023 TIP3 OH2  OT    -0.834000       15.9994           0
  116888 WT8  1023 TIP3 H1   HT     0.417000        1.0080           0
  116889 WT8  1023 TIP3 H2   HT     0.417000        1.0080           0
  116890 WT8  1027 TIP3 OH2  OT    -0.834000       15.9994           0
  116891 WT8  1027 TIP3 H1   HT     0.417000        1.0080           0
  116892 WT8  1027 TIP3 H2   HT     0.417000        1.0080           0
  116893 WT8  1032 TIP3 OH2  OT    -0.834000       15.9994           0
  116894 WT8  1032 TIP3 H1   HT     0.417000        1.0080           0
  116895 WT8  1032 TIP3 H2   HT     0.417000        1.0080           0
  116896 WT8  1033 TIP3 OH2  OT    -0.834000       15.9994           0
  116897 WT8  1033 TIP3 H1   HT     0.417000        1.0080           0
  116898 WT8  1033 TIP3 H2   HT     0.417000        1.0080           0
  116899 WT8  1039 TIP3 OH2  OT    -0.834000       15.9994           0
  116900 WT8  1039 TIP3 H1   HT     0.417000        1.0080           0
  116901 WT8  1039 TIP3 H2   HT     0.417000        1.0080           0
  116902 WT8  1040 TIP3 OH2  OT    -0.834000       15.9994           0
  116903 WT8  1040 TIP3 H1   HT     0.417000        1.0080           0
  116904 WT8  1040 TIP3 H2   HT     0.417000        1.0080           0
  116905 WT8  1042 TIP3 OH2  OT    -0.834000       15.9994           0
  116906 WT8  1042 TIP3 H1   HT     0.417000        1.0080           0
  116907 WT8  1042 TIP3 H2   HT     0.417000        1.0080           0
  116908 WT8  1043 TIP3 OH2  OT    -0.834000       15.9994           0
  116909 WT8  1043 TIP3 H1   HT     0.417000        1.0080           0
  116910 WT8  1043 TIP3 H2   HT     0.417000        1.0080           0
  116911 WT8  1053 TIP3 OH2  OT    -0.834000       15.9994           0
  116912 WT8  1053 TIP3 H1   HT     0.417000        1.0080           0
  116913 WT8  1053 TIP3 H2   HT     0.417000        1.0080           0
  116914 WT8  1054 TIP3 OH2  OT    -0.834000       15.9994           0
  116915 WT8  1054 TIP3 H1   HT     0.417000        1.0080           0
  116916 WT8  1054 TIP3 H2   HT     0.417000        1.0080           0
  116917 WT8  1055 TIP3 OH2  OT    -0.834000       15.9994           0
  116918 WT8  1055 TIP3 H1   HT     0.417000        1.0080           0
  116919 WT8  1055 TIP3 H2   HT     0.417000        1.0080           0
  116920 WT8  1056 TIP3 OH2  OT    -0.834000       15.9994           0
  116921 WT8  1056 TIP3 H1   HT     0.417000        1.0080           0
  116922 WT8  1056 TIP3 H2   HT     0.417000        1.0080           0
  116923 WT8  1057 TIP3 OH2  OT    -0.834000       15.9994           0
  116924 WT8  1057 TIP3 H1   HT     0.417000        1.0080           0
  116925 WT8  1057 TIP3 H2   HT     0.417000        1.0080           0
  116926 WT8  1058 TIP3 OH2  OT    -0.834000       15.9994           0
  116927 WT8  1058 TIP3 H1   HT     0.417000        1.0080           0
  116928 WT8  1058 TIP3 H2   HT     0.417000        1.0080           0
  116929 WT8  1059 TIP3 OH2  OT    -0.834000       15.9994           0
  116930 WT8  1059 TIP3 H1   HT     0.417000        1.0080           0
  116931 WT8  1059 TIP3 H2   HT     0.417000        1.0080           0
  116932 WT8  1060 TIP3 OH2  OT    -0.834000       15.9994           0
  116933 WT8  1060 TIP3 H1   HT     0.417000        1.0080           0
  116934 WT8  1060 TIP3 H2   HT     0.417000        1.0080           0
  116935 WT8  1061 TIP3 OH2  OT    -0.834000       15.9994           0
  116936 WT8  1061 TIP3 H1   HT     0.417000        1.0080           0
  116937 WT8  1061 TIP3 H2   HT     0.417000        1.0080           0
  116938 WT8  1062 TIP3 OH2  OT    -0.834000       15.9994           0
  116939 WT8  1062 TIP3 H1   HT     0.417000        1.0080           0
  116940 WT8  1062 TIP3 H2   HT     0.417000        1.0080           0
  116941 WT8  1063 TIP3 OH2  OT    -0.834000       15.9994           0
  116942 WT8  1063 TIP3 H1   HT     0.417000        1.0080           0
  116943 WT8  1063 TIP3 H2   HT     0.417000        1.0080           0
  116944 WT8  1065 TIP3 OH2  OT    -0.834000       15.9994           0
  116945 WT8  1065 TIP3 H1   HT     0.417000        1.0080           0
  116946 WT8  1065 TIP3 H2   HT     0.417000        1.0080           0
  116947 WT8  1066 TIP3 OH2  OT    -0.834000       15.9994           0
  116948 WT8  1066 TIP3 H1   HT     0.417000        1.0080           0
  116949 WT8  1066 TIP3 H2   HT     0.417000        1.0080           0
  116950 WT8  1076 TIP3 OH2  OT    -0.834000       15.9994           0
  116951 WT8  1076 TIP3 H1   HT     0.417000        1.0080           0
  116952 WT8  1076 TIP3 H2   HT     0.417000        1.0080           0
  116953 WT8  1077 TIP3 OH2  OT    -0.834000       15.9994           0
  116954 WT8  1077 TIP3 H1   HT     0.417000        1.0080           0
  116955 WT8  1077 TIP3 H2   HT     0.417000        1.0080           0
  116956 WT8  1079 TIP3 OH2  OT    -0.834000       15.9994           0
  116957 WT8  1079 TIP3 H1   HT     0.417000        1.0080           0
  116958 WT8  1079 TIP3 H2   HT     0.417000        1.0080           0
  116959 WT8  1080 TIP3 OH2  OT    -0.834000       15.9994           0
  116960 WT8  1080 TIP3 H1   HT     0.417000        1.0080           0
  116961 WT8  1080 TIP3 H2   HT     0.417000        1.0080           0
  116962 WT8  1081 TIP3 OH2  OT    -0.834000       15.9994           0
  116963 WT8  1081 TIP3 H1   HT     0.417000        1.0080           0
  116964 WT8  1081 TIP3 H2   HT     0.417000        1.0080           0
  116965 WT8  1082 TIP3 OH2  OT    -0.834000       15.9994           0
  116966 WT8  1082 TIP3 H1   HT     0.417000        1.0080           0
  116967 WT8  1082 TIP3 H2   HT     0.417000        1.0080           0
  116968 WT8  1083 TIP3 OH2  OT    -0.834000       15.9994           0
  116969 WT8  1083 TIP3 H1   HT     0.417000        1.0080           0
  116970 WT8  1083 TIP3 H2   HT     0.417000        1.0080           0
  116971 WT8  1085 TIP3 OH2  OT    -0.834000       15.9994           0
  116972 WT8  1085 TIP3 H1   HT     0.417000        1.0080           0
  116973 WT8  1085 TIP3 H2   HT     0.417000        1.0080           0
  116974 WT8  1090 TIP3 OH2  OT    -0.834000       15.9994           0
  116975 WT8  1090 TIP3 H1   HT     0.417000        1.0080           0
  116976 WT8  1090 TIP3 H2   HT     0.417000        1.0080           0
  116977 WT8  1096 TIP3 OH2  OT    -0.834000       15.9994           0
  116978 WT8  1096 TIP3 H1   HT     0.417000        1.0080           0
  116979 WT8  1096 TIP3 H2   HT     0.417000        1.0080           0
  116980 WT8  1097 TIP3 OH2  OT    -0.834000       15.9994           0
  116981 WT8  1097 TIP3 H1   HT     0.417000        1.0080           0
  116982 WT8  1097 TIP3 H2   HT     0.417000        1.0080           0
  116983 WT8  1098 TIP3 OH2  OT    -0.834000       15.9994           0
  116984 WT8  1098 TIP3 H1   HT     0.417000        1.0080           0
  116985 WT8  1098 TIP3 H2   HT     0.417000        1.0080           0
  116986 WT8  1099 TIP3 OH2  OT    -0.834000       15.9994           0
  116987 WT8  1099 TIP3 H1   HT     0.417000        1.0080           0
  116988 WT8  1099 TIP3 H2   HT     0.417000        1.0080           0
  116989 WT8  1100 TIP3 OH2  OT    -0.834000       15.9994           0
  116990 WT8  1100 TIP3 H1   HT     0.417000        1.0080           0
  116991 WT8  1100 TIP3 H2   HT     0.417000        1.0080           0
  116992 WT8  1101 TIP3 OH2  OT    -0.834000       15.9994           0
  116993 WT8  1101 TIP3 H1   HT     0.417000        1.0080           0
  116994 WT8  1101 TIP3 H2   HT     0.417000        1.0080           0
  116995 WT8  1102 TIP3 OH2  OT    -0.834000       15.9994           0
  116996 WT8  1102 TIP3 H1   HT     0.417000        1.0080           0
  116997 WT8  1102 TIP3 H2   HT     0.417000        1.0080           0
  116998 WT8  1103 TIP3 OH2  OT    -0.834000       15.9994           0
  116999 WT8  1103 TIP3 H1   HT     0.417000        1.0080           0
  117000 WT8  1103 TIP3 H2   HT     0.417000        1.0080           0
  117001 WT8  1104 TIP3 OH2  OT    -0.834000       15.9994           0
  117002 WT8  1104 TIP3 H1   HT     0.417000        1.0080           0
  117003 WT8  1104 TIP3 H2   HT     0.417000        1.0080           0
  117004 WT8  1105 TIP3 OH2  OT    -0.834000       15.9994           0
  117005 WT8  1105 TIP3 H1   HT     0.417000        1.0080           0
  117006 WT8  1105 TIP3 H2   HT     0.417000        1.0080           0
  117007 WT8  1107 TIP3 OH2  OT    -0.834000       15.9994           0
  117008 WT8  1107 TIP3 H1   HT     0.417000        1.0080           0
  117009 WT8  1107 TIP3 H2   HT     0.417000        1.0080           0
  117010 WT8  1112 TIP3 OH2  OT    -0.834000       15.9994           0
  117011 WT8  1112 TIP3 H1   HT     0.417000        1.0080           0
  117012 WT8  1112 TIP3 H2   HT     0.417000        1.0080           0
  117013 WT8  1113 TIP3 OH2  OT    -0.834000       15.9994           0
  117014 WT8  1113 TIP3 H1   HT     0.417000        1.0080           0
  117015 WT8  1113 TIP3 H2   HT     0.417000        1.0080           0
  117016 WT8  1115 TIP3 OH2  OT    -0.834000       15.9994           0
  117017 WT8  1115 TIP3 H1   HT     0.417000        1.0080           0
  117018 WT8  1115 TIP3 H2   HT     0.417000        1.0080           0
  117019 WT8  1116 TIP3 OH2  OT    -0.834000       15.9994           0
  117020 WT8  1116 TIP3 H1   HT     0.417000        1.0080           0
  117021 WT8  1116 TIP3 H2   HT     0.417000        1.0080           0
  117022 WT8  1117 TIP3 OH2  OT    -0.834000       15.9994           0
  117023 WT8  1117 TIP3 H1   HT     0.417000        1.0080           0
  117024 WT8  1117 TIP3 H2   HT     0.417000        1.0080           0
  117025 WT8  1118 TIP3 OH2  OT    -0.834000       15.9994           0
  117026 WT8  1118 TIP3 H1   HT     0.417000        1.0080           0
  117027 WT8  1118 TIP3 H2   HT     0.417000        1.0080           0
  117028 WT8  1120 TIP3 OH2  OT    -0.834000       15.9994           0
  117029 WT8  1120 TIP3 H1   HT     0.417000        1.0080           0
  117030 WT8  1120 TIP3 H2   HT     0.417000        1.0080           0
  117031 WT8  1121 TIP3 OH2  OT    -0.834000       15.9994           0
  117032 WT8  1121 TIP3 H1   HT     0.417000        1.0080           0
  117033 WT8  1121 TIP3 H2   HT     0.417000        1.0080           0
  117034 WT8  1122 TIP3 OH2  OT    -0.834000       15.9994           0
  117035 WT8  1122 TIP3 H1   HT     0.417000        1.0080           0
  117036 WT8  1122 TIP3 H2   HT     0.417000        1.0080           0
  117037 WT8  1123 TIP3 OH2  OT    -0.834000       15.9994           0
  117038 WT8  1123 TIP3 H1   HT     0.417000        1.0080           0
  117039 WT8  1123 TIP3 H2   HT     0.417000        1.0080           0
  117040 WT8  1128 TIP3 OH2  OT    -0.834000       15.9994           0
  117041 WT8  1128 TIP3 H1   HT     0.417000        1.0080           0
  117042 WT8  1128 TIP3 H2   HT     0.417000        1.0080           0
  117043 WT8  1134 TIP3 OH2  OT    -0.834000       15.9994           0
  117044 WT8  1134 TIP3 H1   HT     0.417000        1.0080           0
  117045 WT8  1134 TIP3 H2   HT     0.417000        1.0080           0
  117046 WT8  1138 TIP3 OH2  OT    -0.834000       15.9994           0
  117047 WT8  1138 TIP3 H1   HT     0.417000        1.0080           0
  117048 WT8  1138 TIP3 H2   HT     0.417000        1.0080           0
  117049 WT8  1140 TIP3 OH2  OT    -0.834000       15.9994           0
  117050 WT8  1140 TIP3 H1   HT     0.417000        1.0080           0
  117051 WT8  1140 TIP3 H2   HT     0.417000        1.0080           0
  117052 WT8  1142 TIP3 OH2  OT    -0.834000       15.9994           0
  117053 WT8  1142 TIP3 H1   HT     0.417000        1.0080           0
  117054 WT8  1142 TIP3 H2   HT     0.417000        1.0080           0
  117055 WT8  1143 TIP3 OH2  OT    -0.834000       15.9994           0
  117056 WT8  1143 TIP3 H1   HT     0.417000        1.0080           0
  117057 WT8  1143 TIP3 H2   HT     0.417000        1.0080           0
  117058 WT8  1144 TIP3 OH2  OT    -0.834000       15.9994           0
  117059 WT8  1144 TIP3 H1   HT     0.417000        1.0080           0
  117060 WT8  1144 TIP3 H2   HT     0.417000        1.0080           0
  117061 WT8  1145 TIP3 OH2  OT    -0.834000       15.9994           0
  117062 WT8  1145 TIP3 H1   HT     0.417000        1.0080           0
  117063 WT8  1145 TIP3 H2   HT     0.417000        1.0080           0
  117064 WT8  1147 TIP3 OH2  OT    -0.834000       15.9994           0
  117065 WT8  1147 TIP3 H1   HT     0.417000        1.0080           0
  117066 WT8  1147 TIP3 H2   HT     0.417000        1.0080           0
  117067 WT8  1148 TIP3 OH2  OT    -0.834000       15.9994           0
  117068 WT8  1148 TIP3 H1   HT     0.417000        1.0080           0
  117069 WT8  1148 TIP3 H2   HT     0.417000        1.0080           0
  117070 WT8  1150 TIP3 OH2  OT    -0.834000       15.9994           0
  117071 WT8  1150 TIP3 H1   HT     0.417000        1.0080           0
  117072 WT8  1150 TIP3 H2   HT     0.417000        1.0080           0
  117073 WT8  1158 TIP3 OH2  OT    -0.834000       15.9994           0
  117074 WT8  1158 TIP3 H1   HT     0.417000        1.0080           0
  117075 WT8  1158 TIP3 H2   HT     0.417000        1.0080           0
  117076 WT8  1164 TIP3 OH2  OT    -0.834000       15.9994           0
  117077 WT8  1164 TIP3 H1   HT     0.417000        1.0080           0
  117078 WT8  1164 TIP3 H2   HT     0.417000        1.0080           0
  117079 WT8  1167 TIP3 OH2  OT    -0.834000       15.9994           0
  117080 WT8  1167 TIP3 H1   HT     0.417000        1.0080           0
  117081 WT8  1167 TIP3 H2   HT     0.417000        1.0080           0
  117082 WT8  1178 TIP3 OH2  OT    -0.834000       15.9994           0
  117083 WT8  1178 TIP3 H1   HT     0.417000        1.0080           0
  117084 WT8  1178 TIP3 H2   HT     0.417000        1.0080           0
  117085 WT8  1179 TIP3 OH2  OT    -0.834000       15.9994           0
  117086 WT8  1179 TIP3 H1   HT     0.417000        1.0080           0
  117087 WT8  1179 TIP3 H2   HT     0.417000        1.0080           0
  117088 WT8  1182 TIP3 OH2  OT    -0.834000       15.9994           0
  117089 WT8  1182 TIP3 H1   HT     0.417000        1.0080           0
  117090 WT8  1182 TIP3 H2   HT     0.417000        1.0080           0
  117091 WT8  1183 TIP3 OH2  OT    -0.834000       15.9994           0
  117092 WT8  1183 TIP3 H1   HT     0.417000        1.0080           0
  117093 WT8  1183 TIP3 H2   HT     0.417000        1.0080           0
  117094 WT8  1186 TIP3 OH2  OT    -0.834000       15.9994           0
  117095 WT8  1186 TIP3 H1   HT     0.417000        1.0080           0
  117096 WT8  1186 TIP3 H2   HT     0.417000        1.0080           0
  117097 WT8  1187 TIP3 OH2  OT    -0.834000       15.9994           0
  117098 WT8  1187 TIP3 H1   HT     0.417000        1.0080           0
  117099 WT8  1187 TIP3 H2   HT     0.417000        1.0080           0
  117100 WT8  1188 TIP3 OH2  OT    -0.834000       15.9994           0
  117101 WT8  1188 TIP3 H1   HT     0.417000        1.0080           0
  117102 WT8  1188 TIP3 H2   HT     0.417000        1.0080           0
  117103 WT8  1194 TIP3 OH2  OT    -0.834000       15.9994           0
  117104 WT8  1194 TIP3 H1   HT     0.417000        1.0080           0
  117105 WT8  1194 TIP3 H2   HT     0.417000        1.0080           0
  117106 WT8  1197 TIP3 OH2  OT    -0.834000       15.9994           0
  117107 WT8  1197 TIP3 H1   HT     0.417000        1.0080           0
  117108 WT8  1197 TIP3 H2   HT     0.417000        1.0080           0
  117109 WT8  1200 TIP3 OH2  OT    -0.834000       15.9994           0
  117110 WT8  1200 TIP3 H1   HT     0.417000        1.0080           0
  117111 WT8  1200 TIP3 H2   HT     0.417000        1.0080           0
  117112 WT8  1201 TIP3 OH2  OT    -0.834000       15.9994           0
  117113 WT8  1201 TIP3 H1   HT     0.417000        1.0080           0
  117114 WT8  1201 TIP3 H2   HT     0.417000        1.0080           0
  117115 WT8  1202 TIP3 OH2  OT    -0.834000       15.9994           0
  117116 WT8  1202 TIP3 H1   HT     0.417000        1.0080           0
  117117 WT8  1202 TIP3 H2   HT     0.417000        1.0080           0
  117118 WT8  1204 TIP3 OH2  OT    -0.834000       15.9994           0
  117119 WT8  1204 TIP3 H1   HT     0.417000        1.0080           0
  117120 WT8  1204 TIP3 H2   HT     0.417000        1.0080           0
  117121 WT8  1206 TIP3 OH2  OT    -0.834000       15.9994           0
  117122 WT8  1206 TIP3 H1   HT     0.417000        1.0080           0
  117123 WT8  1206 TIP3 H2   HT     0.417000        1.0080           0
  117124 WT8  1215 TIP3 OH2  OT    -0.834000       15.9994           0
  117125 WT8  1215 TIP3 H1   HT     0.417000        1.0080           0
  117126 WT8  1215 TIP3 H2   HT     0.417000        1.0080           0
  117127 WT8  1217 TIP3 OH2  OT    -0.834000       15.9994           0
  117128 WT8  1217 TIP3 H1   HT     0.417000        1.0080           0
  117129 WT8  1217 TIP3 H2   HT     0.417000        1.0080           0
  117130 WT8  1241 TIP3 OH2  OT    -0.834000       15.9994           0
  117131 WT8  1241 TIP3 H1   HT     0.417000        1.0080           0
  117132 WT8  1241 TIP3 H2   HT     0.417000        1.0080           0
  117133 WT8  1271 TIP3 OH2  OT    -0.834000       15.9994           0
  117134 WT8  1271 TIP3 H1   HT     0.417000        1.0080           0
  117135 WT8  1271 TIP3 H2   HT     0.417000        1.0080           0
  117136 WT8  1272 TIP3 OH2  OT    -0.834000       15.9994           0
  117137 WT8  1272 TIP3 H1   HT     0.417000        1.0080           0
  117138 WT8  1272 TIP3 H2   HT     0.417000        1.0080           0
  117139 WT8  1274 TIP3 OH2  OT    -0.834000       15.9994           0
  117140 WT8  1274 TIP3 H1   HT     0.417000        1.0080           0
  117141 WT8  1274 TIP3 H2   HT     0.417000        1.0080           0
  117142 WT8  1297 TIP3 OH2  OT    -0.834000       15.9994           0
  117143 WT8  1297 TIP3 H1   HT     0.417000        1.0080           0
  117144 WT8  1297 TIP3 H2   HT     0.417000        1.0080           0
  117145 WT8  1298 TIP3 OH2  OT    -0.834000       15.9994           0
  117146 WT8  1298 TIP3 H1   HT     0.417000        1.0080           0
  117147 WT8  1298 TIP3 H2   HT     0.417000        1.0080           0
  117148 WT8  1301 TIP3 OH2  OT    -0.834000       15.9994           0
  117149 WT8  1301 TIP3 H1   HT     0.417000        1.0080           0
  117150 WT8  1301 TIP3 H2   HT     0.417000        1.0080           0
  117151 WT8  1307 TIP3 OH2  OT    -0.834000       15.9994           0
  117152 WT8  1307 TIP3 H1   HT     0.417000        1.0080           0
  117153 WT8  1307 TIP3 H2   HT     0.417000        1.0080           0
  117154 WT8  1308 TIP3 OH2  OT    -0.834000       15.9994           0
  117155 WT8  1308 TIP3 H1   HT     0.417000        1.0080           0
  117156 WT8  1308 TIP3 H2   HT     0.417000        1.0080           0
  117157 WT8  1309 TIP3 OH2  OT    -0.834000       15.9994           0
  117158 WT8  1309 TIP3 H1   HT     0.417000        1.0080           0
  117159 WT8  1309 TIP3 H2   HT     0.417000        1.0080           0
  117160 WT8  1310 TIP3 OH2  OT    -0.834000       15.9994           0
  117161 WT8  1310 TIP3 H1   HT     0.417000        1.0080           0
  117162 WT8  1310 TIP3 H2   HT     0.417000        1.0080           0
  117163 WT8  1311 TIP3 OH2  OT    -0.834000       15.9994           0
  117164 WT8  1311 TIP3 H1   HT     0.417000        1.0080           0
  117165 WT8  1311 TIP3 H2   HT     0.417000        1.0080           0
  117166 WT8  1313 TIP3 OH2  OT    -0.834000       15.9994           0
  117167 WT8  1313 TIP3 H1   HT     0.417000        1.0080           0
  117168 WT8  1313 TIP3 H2   HT     0.417000        1.0080           0
  117169 WT8  1317 TIP3 OH2  OT    -0.834000       15.9994           0
  117170 WT8  1317 TIP3 H1   HT     0.417000        1.0080           0
  117171 WT8  1317 TIP3 H2   HT     0.417000        1.0080           0
  117172 WT8  1326 TIP3 OH2  OT    -0.834000       15.9994           0
  117173 WT8  1326 TIP3 H1   HT     0.417000        1.0080           0
  117174 WT8  1326 TIP3 H2   HT     0.417000        1.0080           0
  117175 WT8  1327 TIP3 OH2  OT    -0.834000       15.9994           0
  117176 WT8  1327 TIP3 H1   HT     0.417000        1.0080           0
  117177 WT8  1327 TIP3 H2   HT     0.417000        1.0080           0
  117178 WT8  1328 TIP3 OH2  OT    -0.834000       15.9994           0
  117179 WT8  1328 TIP3 H1   HT     0.417000        1.0080           0
  117180 WT8  1328 TIP3 H2   HT     0.417000        1.0080           0
  117181 WT8  1329 TIP3 OH2  OT    -0.834000       15.9994           0
  117182 WT8  1329 TIP3 H1   HT     0.417000        1.0080           0
  117183 WT8  1329 TIP3 H2   HT     0.417000        1.0080           0
  117184 WT8  1330 TIP3 OH2  OT    -0.834000       15.9994           0
  117185 WT8  1330 TIP3 H1   HT     0.417000        1.0080           0
  117186 WT8  1330 TIP3 H2   HT     0.417000        1.0080           0
  117187 WT8  1331 TIP3 OH2  OT    -0.834000       15.9994           0
  117188 WT8  1331 TIP3 H1   HT     0.417000        1.0080           0
  117189 WT8  1331 TIP3 H2   HT     0.417000        1.0080           0
  117190 WT8  1332 TIP3 OH2  OT    -0.834000       15.9994           0
  117191 WT8  1332 TIP3 H1   HT     0.417000        1.0080           0
  117192 WT8  1332 TIP3 H2   HT     0.417000        1.0080           0
  117193 WT8  1333 TIP3 OH2  OT    -0.834000       15.9994           0
  117194 WT8  1333 TIP3 H1   HT     0.417000        1.0080           0
  117195 WT8  1333 TIP3 H2   HT     0.417000        1.0080           0
  117196 WT8  1334 TIP3 OH2  OT    -0.834000       15.9994           0
  117197 WT8  1334 TIP3 H1   HT     0.417000        1.0080           0
  117198 WT8  1334 TIP3 H2   HT     0.417000        1.0080           0
  117199 WT8  1337 TIP3 OH2  OT    -0.834000       15.9994           0
  117200 WT8  1337 TIP3 H1   HT     0.417000        1.0080           0
  117201 WT8  1337 TIP3 H2   HT     0.417000        1.0080           0
  117202 WT8  1344 TIP3 OH2  OT    -0.834000       15.9994           0
  117203 WT8  1344 TIP3 H1   HT     0.417000        1.0080           0
  117204 WT8  1344 TIP3 H2   HT     0.417000        1.0080           0
  117205 WT8  1346 TIP3 OH2  OT    -0.834000       15.9994           0
  117206 WT8  1346 TIP3 H1   HT     0.417000        1.0080           0
  117207 WT8  1346 TIP3 H2   HT     0.417000        1.0080           0
  117208 WT8  1347 TIP3 OH2  OT    -0.834000       15.9994           0
  117209 WT8  1347 TIP3 H1   HT     0.417000        1.0080           0
  117210 WT8  1347 TIP3 H2   HT     0.417000        1.0080           0
  117211 WT8  1349 TIP3 OH2  OT    -0.834000       15.9994           0
  117212 WT8  1349 TIP3 H1   HT     0.417000        1.0080           0
  117213 WT8  1349 TIP3 H2   HT     0.417000        1.0080           0
  117214 WT8  1352 TIP3 OH2  OT    -0.834000       15.9994           0
  117215 WT8  1352 TIP3 H1   HT     0.417000        1.0080           0
  117216 WT8  1352 TIP3 H2   HT     0.417000        1.0080           0
  117217 WT8  1354 TIP3 OH2  OT    -0.834000       15.9994           0
  117218 WT8  1354 TIP3 H1   HT     0.417000        1.0080           0
  117219 WT8  1354 TIP3 H2   HT     0.417000        1.0080           0
  117220 WT8  1355 TIP3 OH2  OT    -0.834000       15.9994           0
  117221 WT8  1355 TIP3 H1   HT     0.417000        1.0080           0
  117222 WT8  1355 TIP3 H2   HT     0.417000        1.0080           0
  117223 WT8  1356 TIP3 OH2  OT    -0.834000       15.9994           0
  117224 WT8  1356 TIP3 H1   HT     0.417000        1.0080           0
  117225 WT8  1356 TIP3 H2   HT     0.417000        1.0080           0
  117226 WT8  1357 TIP3 OH2  OT    -0.834000       15.9994           0
  117227 WT8  1357 TIP3 H1   HT     0.417000        1.0080           0
  117228 WT8  1357 TIP3 H2   HT     0.417000        1.0080           0
  117229 WT8  1361 TIP3 OH2  OT    -0.834000       15.9994           0
  117230 WT8  1361 TIP3 H1   HT     0.417000        1.0080           0
  117231 WT8  1361 TIP3 H2   HT     0.417000        1.0080           0
  117232 WT8  1367 TIP3 OH2  OT    -0.834000       15.9994           0
  117233 WT8  1367 TIP3 H1   HT     0.417000        1.0080           0
  117234 WT8  1367 TIP3 H2   HT     0.417000        1.0080           0
  117235 WT8  1368 TIP3 OH2  OT    -0.834000       15.9994           0
  117236 WT8  1368 TIP3 H1   HT     0.417000        1.0080           0
  117237 WT8  1368 TIP3 H2   HT     0.417000        1.0080           0
  117238 WT8  1370 TIP3 OH2  OT    -0.834000       15.9994           0
  117239 WT8  1370 TIP3 H1   HT     0.417000        1.0080           0
  117240 WT8  1370 TIP3 H2   HT     0.417000        1.0080           0
  117241 WT8  1371 TIP3 OH2  OT    -0.834000       15.9994           0
  117242 WT8  1371 TIP3 H1   HT     0.417000        1.0080           0
  117243 WT8  1371 TIP3 H2   HT     0.417000        1.0080           0
  117244 WT8  1372 TIP3 OH2  OT    -0.834000       15.9994           0
  117245 WT8  1372 TIP3 H1   HT     0.417000        1.0080           0
  117246 WT8  1372 TIP3 H2   HT     0.417000        1.0080           0
  117247 WT8  1374 TIP3 OH2  OT    -0.834000       15.9994           0
  117248 WT8  1374 TIP3 H1   HT     0.417000        1.0080           0
  117249 WT8  1374 TIP3 H2   HT     0.417000        1.0080           0
  117250 WT8  1376 TIP3 OH2  OT    -0.834000       15.9994           0
  117251 WT8  1376 TIP3 H1   HT     0.417000        1.0080           0
  117252 WT8  1376 TIP3 H2   HT     0.417000        1.0080           0
  117253 WT8  1379 TIP3 OH2  OT    -0.834000       15.9994           0
  117254 WT8  1379 TIP3 H1   HT     0.417000        1.0080           0
  117255 WT8  1379 TIP3 H2   HT     0.417000        1.0080           0
  117256 WT8  1380 TIP3 OH2  OT    -0.834000       15.9994           0
  117257 WT8  1380 TIP3 H1   HT     0.417000        1.0080           0
  117258 WT8  1380 TIP3 H2   HT     0.417000        1.0080           0
  117259 WT8  1387 TIP3 OH2  OT    -0.834000       15.9994           0
  117260 WT8  1387 TIP3 H1   HT     0.417000        1.0080           0
  117261 WT8  1387 TIP3 H2   HT     0.417000        1.0080           0
  117262 WT8  1388 TIP3 OH2  OT    -0.834000       15.9994           0
  117263 WT8  1388 TIP3 H1   HT     0.417000        1.0080           0
  117264 WT8  1388 TIP3 H2   HT     0.417000        1.0080           0
  117265 WT8  1389 TIP3 OH2  OT    -0.834000       15.9994           0
  117266 WT8  1389 TIP3 H1   HT     0.417000        1.0080           0
  117267 WT8  1389 TIP3 H2   HT     0.417000        1.0080           0
  117268 WT8  1392 TIP3 OH2  OT    -0.834000       15.9994           0
  117269 WT8  1392 TIP3 H1   HT     0.417000        1.0080           0
  117270 WT8  1392 TIP3 H2   HT     0.417000        1.0080           0
  117271 WT8  1394 TIP3 OH2  OT    -0.834000       15.9994           0
  117272 WT8  1394 TIP3 H1   HT     0.417000        1.0080           0
  117273 WT8  1394 TIP3 H2   HT     0.417000        1.0080           0
  117274 WT8  1395 TIP3 OH2  OT    -0.834000       15.9994           0
  117275 WT8  1395 TIP3 H1   HT     0.417000        1.0080           0
  117276 WT8  1395 TIP3 H2   HT     0.417000        1.0080           0
  117277 WT8  1396 TIP3 OH2  OT    -0.834000       15.9994           0
  117278 WT8  1396 TIP3 H1   HT     0.417000        1.0080           0
  117279 WT8  1396 TIP3 H2   HT     0.417000        1.0080           0
  117280 WT8  1398 TIP3 OH2  OT    -0.834000       15.9994           0
  117281 WT8  1398 TIP3 H1   HT     0.417000        1.0080           0
  117282 WT8  1398 TIP3 H2   HT     0.417000        1.0080           0
  117283 WT8  1407 TIP3 OH2  OT    -0.834000       15.9994           0
  117284 WT8  1407 TIP3 H1   HT     0.417000        1.0080           0
  117285 WT8  1407 TIP3 H2   HT     0.417000        1.0080           0
  117286 WT8  1408 TIP3 OH2  OT    -0.834000       15.9994           0
  117287 WT8  1408 TIP3 H1   HT     0.417000        1.0080           0
  117288 WT8  1408 TIP3 H2   HT     0.417000        1.0080           0
  117289 WT8  1411 TIP3 OH2  OT    -0.834000       15.9994           0
  117290 WT8  1411 TIP3 H1   HT     0.417000        1.0080           0
  117291 WT8  1411 TIP3 H2   HT     0.417000        1.0080           0
  117292 WT8  1412 TIP3 OH2  OT    -0.834000       15.9994           0
  117293 WT8  1412 TIP3 H1   HT     0.417000        1.0080           0
  117294 WT8  1412 TIP3 H2   HT     0.417000        1.0080           0
  117295 WT8  1413 TIP3 OH2  OT    -0.834000       15.9994           0
  117296 WT8  1413 TIP3 H1   HT     0.417000        1.0080           0
  117297 WT8  1413 TIP3 H2   HT     0.417000        1.0080           0
  117298 WT8  1414 TIP3 OH2  OT    -0.834000       15.9994           0
  117299 WT8  1414 TIP3 H1   HT     0.417000        1.0080           0
  117300 WT8  1414 TIP3 H2   HT     0.417000        1.0080           0
  117301 WT8  1415 TIP3 OH2  OT    -0.834000       15.9994           0
  117302 WT8  1415 TIP3 H1   HT     0.417000        1.0080           0
  117303 WT8  1415 TIP3 H2   HT     0.417000        1.0080           0
  117304 WT8  1416 TIP3 OH2  OT    -0.834000       15.9994           0
  117305 WT8  1416 TIP3 H1   HT     0.417000        1.0080           0
  117306 WT8  1416 TIP3 H2   HT     0.417000        1.0080           0
  117307 WT8  1417 TIP3 OH2  OT    -0.834000       15.9994           0
  117308 WT8  1417 TIP3 H1   HT     0.417000        1.0080           0
  117309 WT8  1417 TIP3 H2   HT     0.417000        1.0080           0
  117310 WT8  1418 TIP3 OH2  OT    -0.834000       15.9994           0
  117311 WT8  1418 TIP3 H1   HT     0.417000        1.0080           0
  117312 WT8  1418 TIP3 H2   HT     0.417000        1.0080           0
  117313 WT8  1419 TIP3 OH2  OT    -0.834000       15.9994           0
  117314 WT8  1419 TIP3 H1   HT     0.417000        1.0080           0
  117315 WT8  1419 TIP3 H2   HT     0.417000        1.0080           0
  117316 WT8  1420 TIP3 OH2  OT    -0.834000       15.9994           0
  117317 WT8  1420 TIP3 H1   HT     0.417000        1.0080           0
  117318 WT8  1420 TIP3 H2   HT     0.417000        1.0080           0
  117319 WT8  1421 TIP3 OH2  OT    -0.834000       15.9994           0
  117320 WT8  1421 TIP3 H1   HT     0.417000        1.0080           0
  117321 WT8  1421 TIP3 H2   HT     0.417000        1.0080           0
  117322 WT8  1425 TIP3 OH2  OT    -0.834000       15.9994           0
  117323 WT8  1425 TIP3 H1   HT     0.417000        1.0080           0
  117324 WT8  1425 TIP3 H2   HT     0.417000        1.0080           0
  117325 WT8  1427 TIP3 OH2  OT    -0.834000       15.9994           0
  117326 WT8  1427 TIP3 H1   HT     0.417000        1.0080           0
  117327 WT8  1427 TIP3 H2   HT     0.417000        1.0080           0
  117328 WT8  1428 TIP3 OH2  OT    -0.834000       15.9994           0
  117329 WT8  1428 TIP3 H1   HT     0.417000        1.0080           0
  117330 WT8  1428 TIP3 H2   HT     0.417000        1.0080           0
  117331 WT8  1429 TIP3 OH2  OT    -0.834000       15.9994           0
  117332 WT8  1429 TIP3 H1   HT     0.417000        1.0080           0
  117333 WT8  1429 TIP3 H2   HT     0.417000        1.0080           0
  117334 WT8  1430 TIP3 OH2  OT    -0.834000       15.9994           0
  117335 WT8  1430 TIP3 H1   HT     0.417000        1.0080           0
  117336 WT8  1430 TIP3 H2   HT     0.417000        1.0080           0
  117337 WT8  1431 TIP3 OH2  OT    -0.834000       15.9994           0
  117338 WT8  1431 TIP3 H1   HT     0.417000        1.0080           0
  117339 WT8  1431 TIP3 H2   HT     0.417000        1.0080           0
  117340 WT8  1433 TIP3 OH2  OT    -0.834000       15.9994           0
  117341 WT8  1433 TIP3 H1   HT     0.417000        1.0080           0
  117342 WT8  1433 TIP3 H2   HT     0.417000        1.0080           0
  117343 WT8  1435 TIP3 OH2  OT    -0.834000       15.9994           0
  117344 WT8  1435 TIP3 H1   HT     0.417000        1.0080           0
  117345 WT8  1435 TIP3 H2   HT     0.417000        1.0080           0
  117346 WT8  1436 TIP3 OH2  OT    -0.834000       15.9994           0
  117347 WT8  1436 TIP3 H1   HT     0.417000        1.0080           0
  117348 WT8  1436 TIP3 H2   HT     0.417000        1.0080           0
  117349 WT8  1437 TIP3 OH2  OT    -0.834000       15.9994           0
  117350 WT8  1437 TIP3 H1   HT     0.417000        1.0080           0
  117351 WT8  1437 TIP3 H2   HT     0.417000        1.0080           0
  117352 WT8  1439 TIP3 OH2  OT    -0.834000       15.9994           0
  117353 WT8  1439 TIP3 H1   HT     0.417000        1.0080           0
  117354 WT8  1439 TIP3 H2   HT     0.417000        1.0080           0
  117355 WT8  1440 TIP3 OH2  OT    -0.834000       15.9994           0
  117356 WT8  1440 TIP3 H1   HT     0.417000        1.0080           0
  117357 WT8  1440 TIP3 H2   HT     0.417000        1.0080           0
  117358 WT8  1442 TIP3 OH2  OT    -0.834000       15.9994           0
  117359 WT8  1442 TIP3 H1   HT     0.417000        1.0080           0
  117360 WT8  1442 TIP3 H2   HT     0.417000        1.0080           0
  117361 WT8  1443 TIP3 OH2  OT    -0.834000       15.9994           0
  117362 WT8  1443 TIP3 H1   HT     0.417000        1.0080           0
  117363 WT8  1443 TIP3 H2   HT     0.417000        1.0080           0
  117364 WT8  1450 TIP3 OH2  OT    -0.834000       15.9994           0
  117365 WT8  1450 TIP3 H1   HT     0.417000        1.0080           0
  117366 WT8  1450 TIP3 H2   HT     0.417000        1.0080           0
  117367 WT8  1451 TIP3 OH2  OT    -0.834000       15.9994           0
  117368 WT8  1451 TIP3 H1   HT     0.417000        1.0080           0
  117369 WT8  1451 TIP3 H2   HT     0.417000        1.0080           0
  117370 WT8  1452 TIP3 OH2  OT    -0.834000       15.9994           0
  117371 WT8  1452 TIP3 H1   HT     0.417000        1.0080           0
  117372 WT8  1452 TIP3 H2   HT     0.417000        1.0080           0
  117373 WT8  1453 TIP3 OH2  OT    -0.834000       15.9994           0
  117374 WT8  1453 TIP3 H1   HT     0.417000        1.0080           0
  117375 WT8  1453 TIP3 H2   HT     0.417000        1.0080           0
  117376 WT8  1454 TIP3 OH2  OT    -0.834000       15.9994           0
  117377 WT8  1454 TIP3 H1   HT     0.417000        1.0080           0
  117378 WT8  1454 TIP3 H2   HT     0.417000        1.0080           0
  117379 WT8  1455 TIP3 OH2  OT    -0.834000       15.9994           0
  117380 WT8  1455 TIP3 H1   HT     0.417000        1.0080           0
  117381 WT8  1455 TIP3 H2   HT     0.417000        1.0080           0
  117382 WT8  1456 TIP3 OH2  OT    -0.834000       15.9994           0
  117383 WT8  1456 TIP3 H1   HT     0.417000        1.0080           0
  117384 WT8  1456 TIP3 H2   HT     0.417000        1.0080           0
  117385 WT8  1457 TIP3 OH2  OT    -0.834000       15.9994           0
  117386 WT8  1457 TIP3 H1   HT     0.417000        1.0080           0
  117387 WT8  1457 TIP3 H2   HT     0.417000        1.0080           0
  117388 WT8  1458 TIP3 OH2  OT    -0.834000       15.9994           0
  117389 WT8  1458 TIP3 H1   HT     0.417000        1.0080           0
  117390 WT8  1458 TIP3 H2   HT     0.417000        1.0080           0
  117391 WT8  1459 TIP3 OH2  OT    -0.834000       15.9994           0
  117392 WT8  1459 TIP3 H1   HT     0.417000        1.0080           0
  117393 WT8  1459 TIP3 H2   HT     0.417000        1.0080           0
  117394 WT8  1460 TIP3 OH2  OT    -0.834000       15.9994           0
  117395 WT8  1460 TIP3 H1   HT     0.417000        1.0080           0
  117396 WT8  1460 TIP3 H2   HT     0.417000        1.0080           0
  117397 WT8  1461 TIP3 OH2  OT    -0.834000       15.9994           0
  117398 WT8  1461 TIP3 H1   HT     0.417000        1.0080           0
  117399 WT8  1461 TIP3 H2   HT     0.417000        1.0080           0
  117400 WT8  1463 TIP3 OH2  OT    -0.834000       15.9994           0
  117401 WT8  1463 TIP3 H1   HT     0.417000        1.0080           0
  117402 WT8  1463 TIP3 H2   HT     0.417000        1.0080           0
  117403 WT8  1465 TIP3 OH2  OT    -0.834000       15.9994           0
  117404 WT8  1465 TIP3 H1   HT     0.417000        1.0080           0
  117405 WT8  1465 TIP3 H2   HT     0.417000        1.0080           0
  117406 WT8  1466 TIP3 OH2  OT    -0.834000       15.9994           0
  117407 WT8  1466 TIP3 H1   HT     0.417000        1.0080           0
  117408 WT8  1466 TIP3 H2   HT     0.417000        1.0080           0
  117409 WT8  1471 TIP3 OH2  OT    -0.834000       15.9994           0
  117410 WT8  1471 TIP3 H1   HT     0.417000        1.0080           0
  117411 WT8  1471 TIP3 H2   HT     0.417000        1.0080           0
  117412 WT8  1474 TIP3 OH2  OT    -0.834000       15.9994           0
  117413 WT8  1474 TIP3 H1   HT     0.417000        1.0080           0
  117414 WT8  1474 TIP3 H2   HT     0.417000        1.0080           0
  117415 WT8  1475 TIP3 OH2  OT    -0.834000       15.9994           0
  117416 WT8  1475 TIP3 H1   HT     0.417000        1.0080           0
  117417 WT8  1475 TIP3 H2   HT     0.417000        1.0080           0
  117418 WT8  1476 TIP3 OH2  OT    -0.834000       15.9994           0
  117419 WT8  1476 TIP3 H1   HT     0.417000        1.0080           0
  117420 WT8  1476 TIP3 H2   HT     0.417000        1.0080           0
  117421 WT8  1477 TIP3 OH2  OT    -0.834000       15.9994           0
  117422 WT8  1477 TIP3 H1   HT     0.417000        1.0080           0
  117423 WT8  1477 TIP3 H2   HT     0.417000        1.0080           0
  117424 WT8  1478 TIP3 OH2  OT    -0.834000       15.9994           0
  117425 WT8  1478 TIP3 H1   HT     0.417000        1.0080           0
  117426 WT8  1478 TIP3 H2   HT     0.417000        1.0080           0
  117427 WT8  1479 TIP3 OH2  OT    -0.834000       15.9994           0
  117428 WT8  1479 TIP3 H1   HT     0.417000        1.0080           0
  117429 WT8  1479 TIP3 H2   HT     0.417000        1.0080           0
  117430 WT8  1480 TIP3 OH2  OT    -0.834000       15.9994           0
  117431 WT8  1480 TIP3 H1   HT     0.417000        1.0080           0
  117432 WT8  1480 TIP3 H2   HT     0.417000        1.0080           0
  117433 WT8  1481 TIP3 OH2  OT    -0.834000       15.9994           0
  117434 WT8  1481 TIP3 H1   HT     0.417000        1.0080           0
  117435 WT8  1481 TIP3 H2   HT     0.417000        1.0080           0
  117436 WT8  1483 TIP3 OH2  OT    -0.834000       15.9994           0
  117437 WT8  1483 TIP3 H1   HT     0.417000        1.0080           0
  117438 WT8  1483 TIP3 H2   HT     0.417000        1.0080           0
  117439 WT8  1485 TIP3 OH2  OT    -0.834000       15.9994           0
  117440 WT8  1485 TIP3 H1   HT     0.417000        1.0080           0
  117441 WT8  1485 TIP3 H2   HT     0.417000        1.0080           0
  117442 WT8  1492 TIP3 OH2  OT    -0.834000       15.9994           0
  117443 WT8  1492 TIP3 H1   HT     0.417000        1.0080           0
  117444 WT8  1492 TIP3 H2   HT     0.417000        1.0080           0
  117445 WT8  1493 TIP3 OH2  OT    -0.834000       15.9994           0
  117446 WT8  1493 TIP3 H1   HT     0.417000        1.0080           0
  117447 WT8  1493 TIP3 H2   HT     0.417000        1.0080           0
  117448 WT8  1494 TIP3 OH2  OT    -0.834000       15.9994           0
  117449 WT8  1494 TIP3 H1   HT     0.417000        1.0080           0
  117450 WT8  1494 TIP3 H2   HT     0.417000        1.0080           0
  117451 WT8  1497 TIP3 OH2  OT    -0.834000       15.9994           0
  117452 WT8  1497 TIP3 H1   HT     0.417000        1.0080           0
  117453 WT8  1497 TIP3 H2   HT     0.417000        1.0080           0
  117454 WT8  1499 TIP3 OH2  OT    -0.834000       15.9994           0
  117455 WT8  1499 TIP3 H1   HT     0.417000        1.0080           0
  117456 WT8  1499 TIP3 H2   HT     0.417000        1.0080           0
  117457 WT8  1500 TIP3 OH2  OT    -0.834000       15.9994           0
  117458 WT8  1500 TIP3 H1   HT     0.417000        1.0080           0
  117459 WT8  1500 TIP3 H2   HT     0.417000        1.0080           0
  117460 WT8  1501 TIP3 OH2  OT    -0.834000       15.9994           0
  117461 WT8  1501 TIP3 H1   HT     0.417000        1.0080           0
  117462 WT8  1501 TIP3 H2   HT     0.417000        1.0080           0
  117463 WT8  1502 TIP3 OH2  OT    -0.834000       15.9994           0
  117464 WT8  1502 TIP3 H1   HT     0.417000        1.0080           0
  117465 WT8  1502 TIP3 H2   HT     0.417000        1.0080           0
  117466 WT8  1504 TIP3 OH2  OT    -0.834000       15.9994           0
  117467 WT8  1504 TIP3 H1   HT     0.417000        1.0080           0
  117468 WT8  1504 TIP3 H2   HT     0.417000        1.0080           0
  117469 WT8  1506 TIP3 OH2  OT    -0.834000       15.9994           0
  117470 WT8  1506 TIP3 H1   HT     0.417000        1.0080           0
  117471 WT8  1506 TIP3 H2   HT     0.417000        1.0080           0
  117472 WT8  1512 TIP3 OH2  OT    -0.834000       15.9994           0
  117473 WT8  1512 TIP3 H1   HT     0.417000        1.0080           0
  117474 WT8  1512 TIP3 H2   HT     0.417000        1.0080           0
  117475 WT8  1514 TIP3 OH2  OT    -0.834000       15.9994           0
  117476 WT8  1514 TIP3 H1   HT     0.417000        1.0080           0
  117477 WT8  1514 TIP3 H2   HT     0.417000        1.0080           0
  117478 WT8  1515 TIP3 OH2  OT    -0.834000       15.9994           0
  117479 WT8  1515 TIP3 H1   HT     0.417000        1.0080           0
  117480 WT8  1515 TIP3 H2   HT     0.417000        1.0080           0
  117481 WT8  1518 TIP3 OH2  OT    -0.834000       15.9994           0
  117482 WT8  1518 TIP3 H1   HT     0.417000        1.0080           0
  117483 WT8  1518 TIP3 H2   HT     0.417000        1.0080           0
  117484 WT8  1519 TIP3 OH2  OT    -0.834000       15.9994           0
  117485 WT8  1519 TIP3 H1   HT     0.417000        1.0080           0
  117486 WT8  1519 TIP3 H2   HT     0.417000        1.0080           0
  117487 WT8  1520 TIP3 OH2  OT    -0.834000       15.9994           0
  117488 WT8  1520 TIP3 H1   HT     0.417000        1.0080           0
  117489 WT8  1520 TIP3 H2   HT     0.417000        1.0080           0
  117490 WT8  1522 TIP3 OH2  OT    -0.834000       15.9994           0
  117491 WT8  1522 TIP3 H1   HT     0.417000        1.0080           0
  117492 WT8  1522 TIP3 H2   HT     0.417000        1.0080           0
  117493 WT8  1523 TIP3 OH2  OT    -0.834000       15.9994           0
  117494 WT8  1523 TIP3 H1   HT     0.417000        1.0080           0
  117495 WT8  1523 TIP3 H2   HT     0.417000        1.0080           0
  117496 WT8  1526 TIP3 OH2  OT    -0.834000       15.9994           0
  117497 WT8  1526 TIP3 H1   HT     0.417000        1.0080           0
  117498 WT8  1526 TIP3 H2   HT     0.417000        1.0080           0
  117499 WT8  1527 TIP3 OH2  OT    -0.834000       15.9994           0
  117500 WT8  1527 TIP3 H1   HT     0.417000        1.0080           0
  117501 WT8  1527 TIP3 H2   HT     0.417000        1.0080           0
  117502 WT8  1531 TIP3 OH2  OT    -0.834000       15.9994           0
  117503 WT8  1531 TIP3 H1   HT     0.417000        1.0080           0
  117504 WT8  1531 TIP3 H2   HT     0.417000        1.0080           0
  117505 WT8  1532 TIP3 OH2  OT    -0.834000       15.9994           0
  117506 WT8  1532 TIP3 H1   HT     0.417000        1.0080           0
  117507 WT8  1532 TIP3 H2   HT     0.417000        1.0080           0
  117508 WT8  1534 TIP3 OH2  OT    -0.834000       15.9994           0
  117509 WT8  1534 TIP3 H1   HT     0.417000        1.0080           0
  117510 WT8  1534 TIP3 H2   HT     0.417000        1.0080           0
  117511 WT8  1535 TIP3 OH2  OT    -0.834000       15.9994           0
  117512 WT8  1535 TIP3 H1   HT     0.417000        1.0080           0
  117513 WT8  1535 TIP3 H2   HT     0.417000        1.0080           0
  117514 WT8  1537 TIP3 OH2  OT    -0.834000       15.9994           0
  117515 WT8  1537 TIP3 H1   HT     0.417000        1.0080           0
  117516 WT8  1537 TIP3 H2   HT     0.417000        1.0080           0
  117517 WT8  1538 TIP3 OH2  OT    -0.834000       15.9994           0
  117518 WT8  1538 TIP3 H1   HT     0.417000        1.0080           0
  117519 WT8  1538 TIP3 H2   HT     0.417000        1.0080           0
  117520 WT8  1540 TIP3 OH2  OT    -0.834000       15.9994           0
  117521 WT8  1540 TIP3 H1   HT     0.417000        1.0080           0
  117522 WT8  1540 TIP3 H2   HT     0.417000        1.0080           0
  117523 WT8  1542 TIP3 OH2  OT    -0.834000       15.9994           0
  117524 WT8  1542 TIP3 H1   HT     0.417000        1.0080           0
  117525 WT8  1542 TIP3 H2   HT     0.417000        1.0080           0
  117526 WT8  1543 TIP3 OH2  OT    -0.834000       15.9994           0
  117527 WT8  1543 TIP3 H1   HT     0.417000        1.0080           0
  117528 WT8  1543 TIP3 H2   HT     0.417000        1.0080           0
  117529 WT8  1544 TIP3 OH2  OT    -0.834000       15.9994           0
  117530 WT8  1544 TIP3 H1   HT     0.417000        1.0080           0
  117531 WT8  1544 TIP3 H2   HT     0.417000        1.0080           0
  117532 WT8  1545 TIP3 OH2  OT    -0.834000       15.9994           0
  117533 WT8  1545 TIP3 H1   HT     0.417000        1.0080           0
  117534 WT8  1545 TIP3 H2   HT     0.417000        1.0080           0
  117535 WT8  1546 TIP3 OH2  OT    -0.834000       15.9994           0
  117536 WT8  1546 TIP3 H1   HT     0.417000        1.0080           0
  117537 WT8  1546 TIP3 H2   HT     0.417000        1.0080           0
  117538 WT8  1547 TIP3 OH2  OT    -0.834000       15.9994           0
  117539 WT8  1547 TIP3 H1   HT     0.417000        1.0080           0
  117540 WT8  1547 TIP3 H2   HT     0.417000        1.0080           0
  117541 WT8  1552 TIP3 OH2  OT    -0.834000       15.9994           0
  117542 WT8  1552 TIP3 H1   HT     0.417000        1.0080           0
  117543 WT8  1552 TIP3 H2   HT     0.417000        1.0080           0
  117544 WT8  1555 TIP3 OH2  OT    -0.834000       15.9994           0
  117545 WT8  1555 TIP3 H1   HT     0.417000        1.0080           0
  117546 WT8  1555 TIP3 H2   HT     0.417000        1.0080           0
  117547 WT8  1557 TIP3 OH2  OT    -0.834000       15.9994           0
  117548 WT8  1557 TIP3 H1   HT     0.417000        1.0080           0
  117549 WT8  1557 TIP3 H2   HT     0.417000        1.0080           0
  117550 WT8  1559 TIP3 OH2  OT    -0.834000       15.9994           0
  117551 WT8  1559 TIP3 H1   HT     0.417000        1.0080           0
  117552 WT8  1559 TIP3 H2   HT     0.417000        1.0080           0
  117553 WT8  1560 TIP3 OH2  OT    -0.834000       15.9994           0
  117554 WT8  1560 TIP3 H1   HT     0.417000        1.0080           0
  117555 WT8  1560 TIP3 H2   HT     0.417000        1.0080           0
  117556 WT8  1565 TIP3 OH2  OT    -0.834000       15.9994           0
  117557 WT8  1565 TIP3 H1   HT     0.417000        1.0080           0
  117558 WT8  1565 TIP3 H2   HT     0.417000        1.0080           0
  117559 WT8  1573 TIP3 OH2  OT    -0.834000       15.9994           0
  117560 WT8  1573 TIP3 H1   HT     0.417000        1.0080           0
  117561 WT8  1573 TIP3 H2   HT     0.417000        1.0080           0
  117562 WT8  1576 TIP3 OH2  OT    -0.834000       15.9994           0
  117563 WT8  1576 TIP3 H1   HT     0.417000        1.0080           0
  117564 WT8  1576 TIP3 H2   HT     0.417000        1.0080           0
  117565 WT8  1577 TIP3 OH2  OT    -0.834000       15.9994           0
  117566 WT8  1577 TIP3 H1   HT     0.417000        1.0080           0
  117567 WT8  1577 TIP3 H2   HT     0.417000        1.0080           0
  117568 WT8  1581 TIP3 OH2  OT    -0.834000       15.9994           0
  117569 WT8  1581 TIP3 H1   HT     0.417000        1.0080           0
  117570 WT8  1581 TIP3 H2   HT     0.417000        1.0080           0
  117571 WT8  1582 TIP3 OH2  OT    -0.834000       15.9994           0
  117572 WT8  1582 TIP3 H1   HT     0.417000        1.0080           0
  117573 WT8  1582 TIP3 H2   HT     0.417000        1.0080           0
  117574 WT8  1583 TIP3 OH2  OT    -0.834000       15.9994           0
  117575 WT8  1583 TIP3 H1   HT     0.417000        1.0080           0
  117576 WT8  1583 TIP3 H2   HT     0.417000        1.0080           0
  117577 WT8  1584 TIP3 OH2  OT    -0.834000       15.9994           0
  117578 WT8  1584 TIP3 H1   HT     0.417000        1.0080           0
  117579 WT8  1584 TIP3 H2   HT     0.417000        1.0080           0
  117580 WT8  1586 TIP3 OH2  OT    -0.834000       15.9994           0
  117581 WT8  1586 TIP3 H1   HT     0.417000        1.0080           0
  117582 WT8  1586 TIP3 H2   HT     0.417000        1.0080           0
  117583 WT8  1587 TIP3 OH2  OT    -0.834000       15.9994           0
  117584 WT8  1587 TIP3 H1   HT     0.417000        1.0080           0
  117585 WT8  1587 TIP3 H2   HT     0.417000        1.0080           0
  117586 WT8  1589 TIP3 OH2  OT    -0.834000       15.9994           0
  117587 WT8  1589 TIP3 H1   HT     0.417000        1.0080           0
  117588 WT8  1589 TIP3 H2   HT     0.417000        1.0080           0
  117589 WT8  1590 TIP3 OH2  OT    -0.834000       15.9994           0
  117590 WT8  1590 TIP3 H1   HT     0.417000        1.0080           0
  117591 WT8  1590 TIP3 H2   HT     0.417000        1.0080           0
  117592 WT8  1592 TIP3 OH2  OT    -0.834000       15.9994           0
  117593 WT8  1592 TIP3 H1   HT     0.417000        1.0080           0
  117594 WT8  1592 TIP3 H2   HT     0.417000        1.0080           0
  117595 WT8  1593 TIP3 OH2  OT    -0.834000       15.9994           0
  117596 WT8  1593 TIP3 H1   HT     0.417000        1.0080           0
  117597 WT8  1593 TIP3 H2   HT     0.417000        1.0080           0
  117598 WT8  1598 TIP3 OH2  OT    -0.834000       15.9994           0
  117599 WT8  1598 TIP3 H1   HT     0.417000        1.0080           0
  117600 WT8  1598 TIP3 H2   HT     0.417000        1.0080           0
  117601 WT8  1600 TIP3 OH2  OT    -0.834000       15.9994           0
  117602 WT8  1600 TIP3 H1   HT     0.417000        1.0080           0
  117603 WT8  1600 TIP3 H2   HT     0.417000        1.0080           0
  117604 WT8  1601 TIP3 OH2  OT    -0.834000       15.9994           0
  117605 WT8  1601 TIP3 H1   HT     0.417000        1.0080           0
  117606 WT8  1601 TIP3 H2   HT     0.417000        1.0080           0
  117607 WT8  1603 TIP3 OH2  OT    -0.834000       15.9994           0
  117608 WT8  1603 TIP3 H1   HT     0.417000        1.0080           0
  117609 WT8  1603 TIP3 H2   HT     0.417000        1.0080           0
  117610 WT8  1608 TIP3 OH2  OT    -0.834000       15.9994           0
  117611 WT8  1608 TIP3 H1   HT     0.417000        1.0080           0
  117612 WT8  1608 TIP3 H2   HT     0.417000        1.0080           0
  117613 WT8  1609 TIP3 OH2  OT    -0.834000       15.9994           0
  117614 WT8  1609 TIP3 H1   HT     0.417000        1.0080           0
  117615 WT8  1609 TIP3 H2   HT     0.417000        1.0080           0
  117616 WT8  1610 TIP3 OH2  OT    -0.834000       15.9994           0
  117617 WT8  1610 TIP3 H1   HT     0.417000        1.0080           0
  117618 WT8  1610 TIP3 H2   HT     0.417000        1.0080           0
  117619 WT8  1611 TIP3 OH2  OT    -0.834000       15.9994           0
  117620 WT8  1611 TIP3 H1   HT     0.417000        1.0080           0
  117621 WT8  1611 TIP3 H2   HT     0.417000        1.0080           0
  117622 WT8  1612 TIP3 OH2  OT    -0.834000       15.9994           0
  117623 WT8  1612 TIP3 H1   HT     0.417000        1.0080           0
  117624 WT8  1612 TIP3 H2   HT     0.417000        1.0080           0
  117625 WT8  1616 TIP3 OH2  OT    -0.834000       15.9994           0
  117626 WT8  1616 TIP3 H1   HT     0.417000        1.0080           0
  117627 WT8  1616 TIP3 H2   HT     0.417000        1.0080           0
  117628 WT8  1618 TIP3 OH2  OT    -0.834000       15.9994           0
  117629 WT8  1618 TIP3 H1   HT     0.417000        1.0080           0
  117630 WT8  1618 TIP3 H2   HT     0.417000        1.0080           0
  117631 WT8  1623 TIP3 OH2  OT    -0.834000       15.9994           0
  117632 WT8  1623 TIP3 H1   HT     0.417000        1.0080           0
  117633 WT8  1623 TIP3 H2   HT     0.417000        1.0080           0
  117634 WT8  1624 TIP3 OH2  OT    -0.834000       15.9994           0
  117635 WT8  1624 TIP3 H1   HT     0.417000        1.0080           0
  117636 WT8  1624 TIP3 H2   HT     0.417000        1.0080           0
  117637 WT8  1625 TIP3 OH2  OT    -0.834000       15.9994           0
  117638 WT8  1625 TIP3 H1   HT     0.417000        1.0080           0
  117639 WT8  1625 TIP3 H2   HT     0.417000        1.0080           0
  117640 WT8  1626 TIP3 OH2  OT    -0.834000       15.9994           0
  117641 WT8  1626 TIP3 H1   HT     0.417000        1.0080           0
  117642 WT8  1626 TIP3 H2   HT     0.417000        1.0080           0
  117643 WT8  1629 TIP3 OH2  OT    -0.834000       15.9994           0
  117644 WT8  1629 TIP3 H1   HT     0.417000        1.0080           0
  117645 WT8  1629 TIP3 H2   HT     0.417000        1.0080           0
  117646 WT8  1638 TIP3 OH2  OT    -0.834000       15.9994           0
  117647 WT8  1638 TIP3 H1   HT     0.417000        1.0080           0
  117648 WT8  1638 TIP3 H2   HT     0.417000        1.0080           0
  117649 WT8  1642 TIP3 OH2  OT    -0.834000       15.9994           0
  117650 WT8  1642 TIP3 H1   HT     0.417000        1.0080           0
  117651 WT8  1642 TIP3 H2   HT     0.417000        1.0080           0
  117652 WT8  1643 TIP3 OH2  OT    -0.834000       15.9994           0
  117653 WT8  1643 TIP3 H1   HT     0.417000        1.0080           0
  117654 WT8  1643 TIP3 H2   HT     0.417000        1.0080           0
  117655 WT8  1658 TIP3 OH2  OT    -0.834000       15.9994           0
  117656 WT8  1658 TIP3 H1   HT     0.417000        1.0080           0
  117657 WT8  1658 TIP3 H2   HT     0.417000        1.0080           0
  117658 WT8  1666 TIP3 OH2  OT    -0.834000       15.9994           0
  117659 WT8  1666 TIP3 H1   HT     0.417000        1.0080           0
  117660 WT8  1666 TIP3 H2   HT     0.417000        1.0080           0
  117661 WT8  1670 TIP3 OH2  OT    -0.834000       15.9994           0
  117662 WT8  1670 TIP3 H1   HT     0.417000        1.0080           0
  117663 WT8  1670 TIP3 H2   HT     0.417000        1.0080           0
  117664 WT8  1692 TIP3 OH2  OT    -0.834000       15.9994           0
  117665 WT8  1692 TIP3 H1   HT     0.417000        1.0080           0
  117666 WT8  1692 TIP3 H2   HT     0.417000        1.0080           0
  117667 WT8  1707 TIP3 OH2  OT    -0.834000       15.9994           0
  117668 WT8  1707 TIP3 H1   HT     0.417000        1.0080           0
  117669 WT8  1707 TIP3 H2   HT     0.417000        1.0080           0
  117670 WT8  1711 TIP3 OH2  OT    -0.834000       15.9994           0
  117671 WT8  1711 TIP3 H1   HT     0.417000        1.0080           0
  117672 WT8  1711 TIP3 H2   HT     0.417000        1.0080           0
  117673 WT8  1718 TIP3 OH2  OT    -0.834000       15.9994           0
  117674 WT8  1718 TIP3 H1   HT     0.417000        1.0080           0
  117675 WT8  1718 TIP3 H2   HT     0.417000        1.0080           0
  117676 WT8  1722 TIP3 OH2  OT    -0.834000       15.9994           0
  117677 WT8  1722 TIP3 H1   HT     0.417000        1.0080           0
  117678 WT8  1722 TIP3 H2   HT     0.417000        1.0080           0
  117679 WT8  1723 TIP3 OH2  OT    -0.834000       15.9994           0
  117680 WT8  1723 TIP3 H1   HT     0.417000        1.0080           0
  117681 WT8  1723 TIP3 H2   HT     0.417000        1.0080           0
  117682 WT8  1725 TIP3 OH2  OT    -0.834000       15.9994           0
  117683 WT8  1725 TIP3 H1   HT     0.417000        1.0080           0
  117684 WT8  1725 TIP3 H2   HT     0.417000        1.0080           0
  117685 WT8  1727 TIP3 OH2  OT    -0.834000       15.9994           0
  117686 WT8  1727 TIP3 H1   HT     0.417000        1.0080           0
  117687 WT8  1727 TIP3 H2   HT     0.417000        1.0080           0
  117688 WT8  1729 TIP3 OH2  OT    -0.834000       15.9994           0
  117689 WT8  1729 TIP3 H1   HT     0.417000        1.0080           0
  117690 WT8  1729 TIP3 H2   HT     0.417000        1.0080           0
  117691 WT8  1730 TIP3 OH2  OT    -0.834000       15.9994           0
  117692 WT8  1730 TIP3 H1   HT     0.417000        1.0080           0
  117693 WT8  1730 TIP3 H2   HT     0.417000        1.0080           0
  117694 WT8  1733 TIP3 OH2  OT    -0.834000       15.9994           0
  117695 WT8  1733 TIP3 H1   HT     0.417000        1.0080           0
  117696 WT8  1733 TIP3 H2   HT     0.417000        1.0080           0
  117697 WT8  1735 TIP3 OH2  OT    -0.834000       15.9994           0
  117698 WT8  1735 TIP3 H1   HT     0.417000        1.0080           0
  117699 WT8  1735 TIP3 H2   HT     0.417000        1.0080           0
  117700 WT8  1744 TIP3 OH2  OT    -0.834000       15.9994           0
  117701 WT8  1744 TIP3 H1   HT     0.417000        1.0080           0
  117702 WT8  1744 TIP3 H2   HT     0.417000        1.0080           0
  117703 WT8  1746 TIP3 OH2  OT    -0.834000       15.9994           0
  117704 WT8  1746 TIP3 H1   HT     0.417000        1.0080           0
  117705 WT8  1746 TIP3 H2   HT     0.417000        1.0080           0
  117706 WT8  1750 TIP3 OH2  OT    -0.834000       15.9994           0
  117707 WT8  1750 TIP3 H1   HT     0.417000        1.0080           0
  117708 WT8  1750 TIP3 H2   HT     0.417000        1.0080           0
  117709 WT8  1752 TIP3 OH2  OT    -0.834000       15.9994           0
  117710 WT8  1752 TIP3 H1   HT     0.417000        1.0080           0
  117711 WT8  1752 TIP3 H2   HT     0.417000        1.0080           0
  117712 WT8  1755 TIP3 OH2  OT    -0.834000       15.9994           0
  117713 WT8  1755 TIP3 H1   HT     0.417000        1.0080           0
  117714 WT8  1755 TIP3 H2   HT     0.417000        1.0080           0
  117715 WT8  1757 TIP3 OH2  OT    -0.834000       15.9994           0
  117716 WT8  1757 TIP3 H1   HT     0.417000        1.0080           0
  117717 WT8  1757 TIP3 H2   HT     0.417000        1.0080           0
  117718 WT8  1764 TIP3 OH2  OT    -0.834000       15.9994           0
  117719 WT8  1764 TIP3 H1   HT     0.417000        1.0080           0
  117720 WT8  1764 TIP3 H2   HT     0.417000        1.0080           0
  117721 WT8  1766 TIP3 OH2  OT    -0.834000       15.9994           0
  117722 WT8  1766 TIP3 H1   HT     0.417000        1.0080           0
  117723 WT8  1766 TIP3 H2   HT     0.417000        1.0080           0
  117724 WT8  1771 TIP3 OH2  OT    -0.834000       15.9994           0
  117725 WT8  1771 TIP3 H1   HT     0.417000        1.0080           0
  117726 WT8  1771 TIP3 H2   HT     0.417000        1.0080           0
  117727 WT8  1772 TIP3 OH2  OT    -0.834000       15.9994           0
  117728 WT8  1772 TIP3 H1   HT     0.417000        1.0080           0
  117729 WT8  1772 TIP3 H2   HT     0.417000        1.0080           0
  117730 WT8  1773 TIP3 OH2  OT    -0.834000       15.9994           0
  117731 WT8  1773 TIP3 H1   HT     0.417000        1.0080           0
  117732 WT8  1773 TIP3 H2   HT     0.417000        1.0080           0
  117733 WT8  1775 TIP3 OH2  OT    -0.834000       15.9994           0
  117734 WT8  1775 TIP3 H1   HT     0.417000        1.0080           0
  117735 WT8  1775 TIP3 H2   HT     0.417000        1.0080           0
  117736 WT8  1776 TIP3 OH2  OT    -0.834000       15.9994           0
  117737 WT8  1776 TIP3 H1   HT     0.417000        1.0080           0
  117738 WT8  1776 TIP3 H2   HT     0.417000        1.0080           0
  117739 WT8  1778 TIP3 OH2  OT    -0.834000       15.9994           0
  117740 WT8  1778 TIP3 H1   HT     0.417000        1.0080           0
  117741 WT8  1778 TIP3 H2   HT     0.417000        1.0080           0
  117742 WT8  1788 TIP3 OH2  OT    -0.834000       15.9994           0
  117743 WT8  1788 TIP3 H1   HT     0.417000        1.0080           0
  117744 WT8  1788 TIP3 H2   HT     0.417000        1.0080           0
  117745 WT8  1789 TIP3 OH2  OT    -0.834000       15.9994           0
  117746 WT8  1789 TIP3 H1   HT     0.417000        1.0080           0
  117747 WT8  1789 TIP3 H2   HT     0.417000        1.0080           0
  117748 WT8  1790 TIP3 OH2  OT    -0.834000       15.9994           0
  117749 WT8  1790 TIP3 H1   HT     0.417000        1.0080           0
  117750 WT8  1790 TIP3 H2   HT     0.417000        1.0080           0
  117751 WT8  1794 TIP3 OH2  OT    -0.834000       15.9994           0
  117752 WT8  1794 TIP3 H1   HT     0.417000        1.0080           0
  117753 WT8  1794 TIP3 H2   HT     0.417000        1.0080           0
  117754 WT8  1795 TIP3 OH2  OT    -0.834000       15.9994           0
  117755 WT8  1795 TIP3 H1   HT     0.417000        1.0080           0
  117756 WT8  1795 TIP3 H2   HT     0.417000        1.0080           0
  117757 WT8  1796 TIP3 OH2  OT    -0.834000       15.9994           0
  117758 WT8  1796 TIP3 H1   HT     0.417000        1.0080           0
  117759 WT8  1796 TIP3 H2   HT     0.417000        1.0080           0
  117760 WT8  1798 TIP3 OH2  OT    -0.834000       15.9994           0
  117761 WT8  1798 TIP3 H1   HT     0.417000        1.0080           0
  117762 WT8  1798 TIP3 H2   HT     0.417000        1.0080           0
  117763 WT8  1808 TIP3 OH2  OT    -0.834000       15.9994           0
  117764 WT8  1808 TIP3 H1   HT     0.417000        1.0080           0
  117765 WT8  1808 TIP3 H2   HT     0.417000        1.0080           0
  117766 WT8  1810 TIP3 OH2  OT    -0.834000       15.9994           0
  117767 WT8  1810 TIP3 H1   HT     0.417000        1.0080           0
  117768 WT8  1810 TIP3 H2   HT     0.417000        1.0080           0
  117769 WT8  1811 TIP3 OH2  OT    -0.834000       15.9994           0
  117770 WT8  1811 TIP3 H1   HT     0.417000        1.0080           0
  117771 WT8  1811 TIP3 H2   HT     0.417000        1.0080           0
  117772 WT8  1812 TIP3 OH2  OT    -0.834000       15.9994           0
  117773 WT8  1812 TIP3 H1   HT     0.417000        1.0080           0
  117774 WT8  1812 TIP3 H2   HT     0.417000        1.0080           0
  117775 WT8  1813 TIP3 OH2  OT    -0.834000       15.9994           0
  117776 WT8  1813 TIP3 H1   HT     0.417000        1.0080           0
  117777 WT8  1813 TIP3 H2   HT     0.417000        1.0080           0
  117778 WT8  1814 TIP3 OH2  OT    -0.834000       15.9994           0
  117779 WT8  1814 TIP3 H1   HT     0.417000        1.0080           0
  117780 WT8  1814 TIP3 H2   HT     0.417000        1.0080           0
  117781 WT8  1815 TIP3 OH2  OT    -0.834000       15.9994           0
  117782 WT8  1815 TIP3 H1   HT     0.417000        1.0080           0
  117783 WT8  1815 TIP3 H2   HT     0.417000        1.0080           0
  117784 WT8  1816 TIP3 OH2  OT    -0.834000       15.9994           0
  117785 WT8  1816 TIP3 H1   HT     0.417000        1.0080           0
  117786 WT8  1816 TIP3 H2   HT     0.417000        1.0080           0
  117787 WT8  1817 TIP3 OH2  OT    -0.834000       15.9994           0
  117788 WT8  1817 TIP3 H1   HT     0.417000        1.0080           0
  117789 WT8  1817 TIP3 H2   HT     0.417000        1.0080           0
  117790 WT8  1818 TIP3 OH2  OT    -0.834000       15.9994           0
  117791 WT8  1818 TIP3 H1   HT     0.417000        1.0080           0
  117792 WT8  1818 TIP3 H2   HT     0.417000        1.0080           0
  117793 WT8  1820 TIP3 OH2  OT    -0.834000       15.9994           0
  117794 WT8  1820 TIP3 H1   HT     0.417000        1.0080           0
  117795 WT8  1820 TIP3 H2   HT     0.417000        1.0080           0
  117796 WT8  1821 TIP3 OH2  OT    -0.834000       15.9994           0
  117797 WT8  1821 TIP3 H1   HT     0.417000        1.0080           0
  117798 WT8  1821 TIP3 H2   HT     0.417000        1.0080           0
  117799 WT8  1824 TIP3 OH2  OT    -0.834000       15.9994           0
  117800 WT8  1824 TIP3 H1   HT     0.417000        1.0080           0
  117801 WT8  1824 TIP3 H2   HT     0.417000        1.0080           0
  117802 WT8  1829 TIP3 OH2  OT    -0.834000       15.9994           0
  117803 WT8  1829 TIP3 H1   HT     0.417000        1.0080           0
  117804 WT8  1829 TIP3 H2   HT     0.417000        1.0080           0
  117805 WT8  1830 TIP3 OH2  OT    -0.834000       15.9994           0
  117806 WT8  1830 TIP3 H1   HT     0.417000        1.0080           0
  117807 WT8  1830 TIP3 H2   HT     0.417000        1.0080           0
  117808 WT8  1831 TIP3 OH2  OT    -0.834000       15.9994           0
  117809 WT8  1831 TIP3 H1   HT     0.417000        1.0080           0
  117810 WT8  1831 TIP3 H2   HT     0.417000        1.0080           0
  117811 WT8  1832 TIP3 OH2  OT    -0.834000       15.9994           0
  117812 WT8  1832 TIP3 H1   HT     0.417000        1.0080           0
  117813 WT8  1832 TIP3 H2   HT     0.417000        1.0080           0
  117814 WT8  1833 TIP3 OH2  OT    -0.834000       15.9994           0
  117815 WT8  1833 TIP3 H1   HT     0.417000        1.0080           0
  117816 WT8  1833 TIP3 H2   HT     0.417000        1.0080           0
  117817 WT8  1835 TIP3 OH2  OT    -0.834000       15.9994           0
  117818 WT8  1835 TIP3 H1   HT     0.417000        1.0080           0
  117819 WT8  1835 TIP3 H2   HT     0.417000        1.0080           0
  117820 WT8  1836 TIP3 OH2  OT    -0.834000       15.9994           0
  117821 WT8  1836 TIP3 H1   HT     0.417000        1.0080           0
  117822 WT8  1836 TIP3 H2   HT     0.417000        1.0080           0
  117823 WT8  1837 TIP3 OH2  OT    -0.834000       15.9994           0
  117824 WT8  1837 TIP3 H1   HT     0.417000        1.0080           0
  117825 WT8  1837 TIP3 H2   HT     0.417000        1.0080           0
  117826 WT8  1838 TIP3 OH2  OT    -0.834000       15.9994           0
  117827 WT8  1838 TIP3 H1   HT     0.417000        1.0080           0
  117828 WT8  1838 TIP3 H2   HT     0.417000        1.0080           0
  117829 WT8  1839 TIP3 OH2  OT    -0.834000       15.9994           0
  117830 WT8  1839 TIP3 H1   HT     0.417000        1.0080           0
  117831 WT8  1839 TIP3 H2   HT     0.417000        1.0080           0
  117832 WT8  1840 TIP3 OH2  OT    -0.834000       15.9994           0
  117833 WT8  1840 TIP3 H1   HT     0.417000        1.0080           0
  117834 WT8  1840 TIP3 H2   HT     0.417000        1.0080           0
  117835 WT8  1841 TIP3 OH2  OT    -0.834000       15.9994           0
  117836 WT8  1841 TIP3 H1   HT     0.417000        1.0080           0
  117837 WT8  1841 TIP3 H2   HT     0.417000        1.0080           0
  117838 WT8  1844 TIP3 OH2  OT    -0.834000       15.9994           0
  117839 WT8  1844 TIP3 H1   HT     0.417000        1.0080           0
  117840 WT8  1844 TIP3 H2   HT     0.417000        1.0080           0
  117841 WT8  1847 TIP3 OH2  OT    -0.834000       15.9994           0
  117842 WT8  1847 TIP3 H1   HT     0.417000        1.0080           0
  117843 WT8  1847 TIP3 H2   HT     0.417000        1.0080           0
  117844 WT8  1849 TIP3 OH2  OT    -0.834000       15.9994           0
  117845 WT8  1849 TIP3 H1   HT     0.417000        1.0080           0
  117846 WT8  1849 TIP3 H2   HT     0.417000        1.0080           0
  117847 WT8  1850 TIP3 OH2  OT    -0.834000       15.9994           0
  117848 WT8  1850 TIP3 H1   HT     0.417000        1.0080           0
  117849 WT8  1850 TIP3 H2   HT     0.417000        1.0080           0
  117850 WT8  1851 TIP3 OH2  OT    -0.834000       15.9994           0
  117851 WT8  1851 TIP3 H1   HT     0.417000        1.0080           0
  117852 WT8  1851 TIP3 H2   HT     0.417000        1.0080           0
  117853 WT8  1852 TIP3 OH2  OT    -0.834000       15.9994           0
  117854 WT8  1852 TIP3 H1   HT     0.417000        1.0080           0
  117855 WT8  1852 TIP3 H2   HT     0.417000        1.0080           0
  117856 WT8  1853 TIP3 OH2  OT    -0.834000       15.9994           0
  117857 WT8  1853 TIP3 H1   HT     0.417000        1.0080           0
  117858 WT8  1853 TIP3 H2   HT     0.417000        1.0080           0
  117859 WT8  1854 TIP3 OH2  OT    -0.834000       15.9994           0
  117860 WT8  1854 TIP3 H1   HT     0.417000        1.0080           0
  117861 WT8  1854 TIP3 H2   HT     0.417000        1.0080           0
  117862 WT8  1856 TIP3 OH2  OT    -0.834000       15.9994           0
  117863 WT8  1856 TIP3 H1   HT     0.417000        1.0080           0
  117864 WT8  1856 TIP3 H2   HT     0.417000        1.0080           0
  117865 WT8  1857 TIP3 OH2  OT    -0.834000       15.9994           0
  117866 WT8  1857 TIP3 H1   HT     0.417000        1.0080           0
  117867 WT8  1857 TIP3 H2   HT     0.417000        1.0080           0
  117868 WT8  1858 TIP3 OH2  OT    -0.834000       15.9994           0
  117869 WT8  1858 TIP3 H1   HT     0.417000        1.0080           0
  117870 WT8  1858 TIP3 H2   HT     0.417000        1.0080           0
  117871 WT8  1859 TIP3 OH2  OT    -0.834000       15.9994           0
  117872 WT8  1859 TIP3 H1   HT     0.417000        1.0080           0
  117873 WT8  1859 TIP3 H2   HT     0.417000        1.0080           0
  117874 WT8  1860 TIP3 OH2  OT    -0.834000       15.9994           0
  117875 WT8  1860 TIP3 H1   HT     0.417000        1.0080           0
  117876 WT8  1860 TIP3 H2   HT     0.417000        1.0080           0
  117877 WT8  1861 TIP3 OH2  OT    -0.834000       15.9994           0
  117878 WT8  1861 TIP3 H1   HT     0.417000        1.0080           0
  117879 WT8  1861 TIP3 H2   HT     0.417000        1.0080           0
  117880 WT8  1862 TIP3 OH2  OT    -0.834000       15.9994           0
  117881 WT8  1862 TIP3 H1   HT     0.417000        1.0080           0
  117882 WT8  1862 TIP3 H2   HT     0.417000        1.0080           0
  117883 WT8  1864 TIP3 OH2  OT    -0.834000       15.9994           0
  117884 WT8  1864 TIP3 H1   HT     0.417000        1.0080           0
  117885 WT8  1864 TIP3 H2   HT     0.417000        1.0080           0
  117886 WT8  1866 TIP3 OH2  OT    -0.834000       15.9994           0
  117887 WT8  1866 TIP3 H1   HT     0.417000        1.0080           0
  117888 WT8  1866 TIP3 H2   HT     0.417000        1.0080           0
  117889 WT8  1870 TIP3 OH2  OT    -0.834000       15.9994           0
  117890 WT8  1870 TIP3 H1   HT     0.417000        1.0080           0
  117891 WT8  1870 TIP3 H2   HT     0.417000        1.0080           0
  117892 WT8  1872 TIP3 OH2  OT    -0.834000       15.9994           0
  117893 WT8  1872 TIP3 H1   HT     0.417000        1.0080           0
  117894 WT8  1872 TIP3 H2   HT     0.417000        1.0080           0
  117895 WT8  1873 TIP3 OH2  OT    -0.834000       15.9994           0
  117896 WT8  1873 TIP3 H1   HT     0.417000        1.0080           0
  117897 WT8  1873 TIP3 H2   HT     0.417000        1.0080           0
  117898 WT8  1874 TIP3 OH2  OT    -0.834000       15.9994           0
  117899 WT8  1874 TIP3 H1   HT     0.417000        1.0080           0
  117900 WT8  1874 TIP3 H2   HT     0.417000        1.0080           0
  117901 WT8  1875 TIP3 OH2  OT    -0.834000       15.9994           0
  117902 WT8  1875 TIP3 H1   HT     0.417000        1.0080           0
  117903 WT8  1875 TIP3 H2   HT     0.417000        1.0080           0
  117904 WT8  1876 TIP3 OH2  OT    -0.834000       15.9994           0
  117905 WT8  1876 TIP3 H1   HT     0.417000        1.0080           0
  117906 WT8  1876 TIP3 H2   HT     0.417000        1.0080           0
  117907 WT8  1877 TIP3 OH2  OT    -0.834000       15.9994           0
  117908 WT8  1877 TIP3 H1   HT     0.417000        1.0080           0
  117909 WT8  1877 TIP3 H2   HT     0.417000        1.0080           0
  117910 WT8  1878 TIP3 OH2  OT    -0.834000       15.9994           0
  117911 WT8  1878 TIP3 H1   HT     0.417000        1.0080           0
  117912 WT8  1878 TIP3 H2   HT     0.417000        1.0080           0
  117913 WT8  1879 TIP3 OH2  OT    -0.834000       15.9994           0
  117914 WT8  1879 TIP3 H1   HT     0.417000        1.0080           0
  117915 WT8  1879 TIP3 H2   HT     0.417000        1.0080           0
  117916 WT8  1880 TIP3 OH2  OT    -0.834000       15.9994           0
  117917 WT8  1880 TIP3 H1   HT     0.417000        1.0080           0
  117918 WT8  1880 TIP3 H2   HT     0.417000        1.0080           0
  117919 WT8  1881 TIP3 OH2  OT    -0.834000       15.9994           0
  117920 WT8  1881 TIP3 H1   HT     0.417000        1.0080           0
  117921 WT8  1881 TIP3 H2   HT     0.417000        1.0080           0
  117922 WT8  1883 TIP3 OH2  OT    -0.834000       15.9994           0
  117923 WT8  1883 TIP3 H1   HT     0.417000        1.0080           0
  117924 WT8  1883 TIP3 H2   HT     0.417000        1.0080           0
  117925 WT8  1885 TIP3 OH2  OT    -0.834000       15.9994           0
  117926 WT8  1885 TIP3 H1   HT     0.417000        1.0080           0
  117927 WT8  1885 TIP3 H2   HT     0.417000        1.0080           0
  117928 WT8  1891 TIP3 OH2  OT    -0.834000       15.9994           0
  117929 WT8  1891 TIP3 H1   HT     0.417000        1.0080           0
  117930 WT8  1891 TIP3 H2   HT     0.417000        1.0080           0
  117931 WT8  1892 TIP3 OH2  OT    -0.834000       15.9994           0
  117932 WT8  1892 TIP3 H1   HT     0.417000        1.0080           0
  117933 WT8  1892 TIP3 H2   HT     0.417000        1.0080           0
  117934 WT8  1894 TIP3 OH2  OT    -0.834000       15.9994           0
  117935 WT8  1894 TIP3 H1   HT     0.417000        1.0080           0
  117936 WT8  1894 TIP3 H2   HT     0.417000        1.0080           0
  117937 WT8  1895 TIP3 OH2  OT    -0.834000       15.9994           0
  117938 WT8  1895 TIP3 H1   HT     0.417000        1.0080           0
  117939 WT8  1895 TIP3 H2   HT     0.417000        1.0080           0
  117940 WT8  1896 TIP3 OH2  OT    -0.834000       15.9994           0
  117941 WT8  1896 TIP3 H1   HT     0.417000        1.0080           0
  117942 WT8  1896 TIP3 H2   HT     0.417000        1.0080           0
  117943 WT8  1897 TIP3 OH2  OT    -0.834000       15.9994           0
  117944 WT8  1897 TIP3 H1   HT     0.417000        1.0080           0
  117945 WT8  1897 TIP3 H2   HT     0.417000        1.0080           0
  117946 WT8  1898 TIP3 OH2  OT    -0.834000       15.9994           0
  117947 WT8  1898 TIP3 H1   HT     0.417000        1.0080           0
  117948 WT8  1898 TIP3 H2   HT     0.417000        1.0080           0
  117949 WT8  1899 TIP3 OH2  OT    -0.834000       15.9994           0
  117950 WT8  1899 TIP3 H1   HT     0.417000        1.0080           0
  117951 WT8  1899 TIP3 H2   HT     0.417000        1.0080           0
  117952 WT8  1900 TIP3 OH2  OT    -0.834000       15.9994           0
  117953 WT8  1900 TIP3 H1   HT     0.417000        1.0080           0
  117954 WT8  1900 TIP3 H2   HT     0.417000        1.0080           0
  117955 WT8  1901 TIP3 OH2  OT    -0.834000       15.9994           0
  117956 WT8  1901 TIP3 H1   HT     0.417000        1.0080           0
  117957 WT8  1901 TIP3 H2   HT     0.417000        1.0080           0
  117958 WT8  1902 TIP3 OH2  OT    -0.834000       15.9994           0
  117959 WT8  1902 TIP3 H1   HT     0.417000        1.0080           0
  117960 WT8  1902 TIP3 H2   HT     0.417000        1.0080           0
  117961 WT8  1906 TIP3 OH2  OT    -0.834000       15.9994           0
  117962 WT8  1906 TIP3 H1   HT     0.417000        1.0080           0
  117963 WT8  1906 TIP3 H2   HT     0.417000        1.0080           0
  117964 WT8  1907 TIP3 OH2  OT    -0.834000       15.9994           0
  117965 WT8  1907 TIP3 H1   HT     0.417000        1.0080           0
  117966 WT8  1907 TIP3 H2   HT     0.417000        1.0080           0
  117967 WT8  1911 TIP3 OH2  OT    -0.834000       15.9994           0
  117968 WT8  1911 TIP3 H1   HT     0.417000        1.0080           0
  117969 WT8  1911 TIP3 H2   HT     0.417000        1.0080           0
  117970 WT8  1912 TIP3 OH2  OT    -0.834000       15.9994           0
  117971 WT8  1912 TIP3 H1   HT     0.417000        1.0080           0
  117972 WT8  1912 TIP3 H2   HT     0.417000        1.0080           0
  117973 WT8  1913 TIP3 OH2  OT    -0.834000       15.9994           0
  117974 WT8  1913 TIP3 H1   HT     0.417000        1.0080           0
  117975 WT8  1913 TIP3 H2   HT     0.417000        1.0080           0
  117976 WT8  1914 TIP3 OH2  OT    -0.834000       15.9994           0
  117977 WT8  1914 TIP3 H1   HT     0.417000        1.0080           0
  117978 WT8  1914 TIP3 H2   HT     0.417000        1.0080           0
  117979 WT8  1915 TIP3 OH2  OT    -0.834000       15.9994           0
  117980 WT8  1915 TIP3 H1   HT     0.417000        1.0080           0
  117981 WT8  1915 TIP3 H2   HT     0.417000        1.0080           0
  117982 WT8  1916 TIP3 OH2  OT    -0.834000       15.9994           0
  117983 WT8  1916 TIP3 H1   HT     0.417000        1.0080           0
  117984 WT8  1916 TIP3 H2   HT     0.417000        1.0080           0
  117985 WT8  1918 TIP3 OH2  OT    -0.834000       15.9994           0
  117986 WT8  1918 TIP3 H1   HT     0.417000        1.0080           0
  117987 WT8  1918 TIP3 H2   HT     0.417000        1.0080           0
  117988 WT8  1919 TIP3 OH2  OT    -0.834000       15.9994           0
  117989 WT8  1919 TIP3 H1   HT     0.417000        1.0080           0
  117990 WT8  1919 TIP3 H2   HT     0.417000        1.0080           0
  117991 WT8  1920 TIP3 OH2  OT    -0.834000       15.9994           0
  117992 WT8  1920 TIP3 H1   HT     0.417000        1.0080           0
  117993 WT8  1920 TIP3 H2   HT     0.417000        1.0080           0
  117994 WT8  1921 TIP3 OH2  OT    -0.834000       15.9994           0
  117995 WT8  1921 TIP3 H1   HT     0.417000        1.0080           0
  117996 WT8  1921 TIP3 H2   HT     0.417000        1.0080           0
  117997 WT8  1922 TIP3 OH2  OT    -0.834000       15.9994           0
  117998 WT8  1922 TIP3 H1   HT     0.417000        1.0080           0
  117999 WT8  1922 TIP3 H2   HT     0.417000        1.0080           0
  118000 WT8  1923 TIP3 OH2  OT    -0.834000       15.9994           0
  118001 WT8  1923 TIP3 H1   HT     0.417000        1.0080           0
  118002 WT8  1923 TIP3 H2   HT     0.417000        1.0080           0
  118003 WT8  1924 TIP3 OH2  OT    -0.834000       15.9994           0
  118004 WT8  1924 TIP3 H1   HT     0.417000        1.0080           0
  118005 WT8  1924 TIP3 H2   HT     0.417000        1.0080           0
  118006 WT8  1925 TIP3 OH2  OT    -0.834000       15.9994           0
  118007 WT8  1925 TIP3 H1   HT     0.417000        1.0080           0
  118008 WT8  1925 TIP3 H2   HT     0.417000        1.0080           0
  118009 WT8  1926 TIP3 OH2  OT    -0.834000       15.9994           0
  118010 WT8  1926 TIP3 H1   HT     0.417000        1.0080           0
  118011 WT8  1926 TIP3 H2   HT     0.417000        1.0080           0
  118012 WT8  1934 TIP3 OH2  OT    -0.834000       15.9994           0
  118013 WT8  1934 TIP3 H1   HT     0.417000        1.0080           0
  118014 WT8  1934 TIP3 H2   HT     0.417000        1.0080           0
  118015 WT8  1935 TIP3 OH2  OT    -0.834000       15.9994           0
  118016 WT8  1935 TIP3 H1   HT     0.417000        1.0080           0
  118017 WT8  1935 TIP3 H2   HT     0.417000        1.0080           0
  118018 WT8  1936 TIP3 OH2  OT    -0.834000       15.9994           0
  118019 WT8  1936 TIP3 H1   HT     0.417000        1.0080           0
  118020 WT8  1936 TIP3 H2   HT     0.417000        1.0080           0
  118021 WT8  1937 TIP3 OH2  OT    -0.834000       15.9994           0
  118022 WT8  1937 TIP3 H1   HT     0.417000        1.0080           0
  118023 WT8  1937 TIP3 H2   HT     0.417000        1.0080           0
  118024 WT8  1938 TIP3 OH2  OT    -0.834000       15.9994           0
  118025 WT8  1938 TIP3 H1   HT     0.417000        1.0080           0
  118026 WT8  1938 TIP3 H2   HT     0.417000        1.0080           0
  118027 WT8  1939 TIP3 OH2  OT    -0.834000       15.9994           0
  118028 WT8  1939 TIP3 H1   HT     0.417000        1.0080           0
  118029 WT8  1939 TIP3 H2   HT     0.417000        1.0080           0
  118030 WT8  1940 TIP3 OH2  OT    -0.834000       15.9994           0
  118031 WT8  1940 TIP3 H1   HT     0.417000        1.0080           0
  118032 WT8  1940 TIP3 H2   HT     0.417000        1.0080           0
  118033 WT8  1941 TIP3 OH2  OT    -0.834000       15.9994           0
  118034 WT8  1941 TIP3 H1   HT     0.417000        1.0080           0
  118035 WT8  1941 TIP3 H2   HT     0.417000        1.0080           0
  118036 WT8  1942 TIP3 OH2  OT    -0.834000       15.9994           0
  118037 WT8  1942 TIP3 H1   HT     0.417000        1.0080           0
  118038 WT8  1942 TIP3 H2   HT     0.417000        1.0080           0
  118039 WT8  1943 TIP3 OH2  OT    -0.834000       15.9994           0
  118040 WT8  1943 TIP3 H1   HT     0.417000        1.0080           0
  118041 WT8  1943 TIP3 H2   HT     0.417000        1.0080           0
  118042 WT8  1944 TIP3 OH2  OT    -0.834000       15.9994           0
  118043 WT8  1944 TIP3 H1   HT     0.417000        1.0080           0
  118044 WT8  1944 TIP3 H2   HT     0.417000        1.0080           0
  118045 WT8  1945 TIP3 OH2  OT    -0.834000       15.9994           0
  118046 WT8  1945 TIP3 H1   HT     0.417000        1.0080           0
  118047 WT8  1945 TIP3 H2   HT     0.417000        1.0080           0
  118048 WT8  1946 TIP3 OH2  OT    -0.834000       15.9994           0
  118049 WT8  1946 TIP3 H1   HT     0.417000        1.0080           0
  118050 WT8  1946 TIP3 H2   HT     0.417000        1.0080           0
  118051 WT8  1947 TIP3 OH2  OT    -0.834000       15.9994           0
  118052 WT8  1947 TIP3 H1   HT     0.417000        1.0080           0
  118053 WT8  1947 TIP3 H2   HT     0.417000        1.0080           0
  118054 WT8  1948 TIP3 OH2  OT    -0.834000       15.9994           0
  118055 WT8  1948 TIP3 H1   HT     0.417000        1.0080           0
  118056 WT8  1948 TIP3 H2   HT     0.417000        1.0080           0
  118057 WT8  1949 TIP3 OH2  OT    -0.834000       15.9994           0
  118058 WT8  1949 TIP3 H1   HT     0.417000        1.0080           0
  118059 WT8  1949 TIP3 H2   HT     0.417000        1.0080           0
  118060 WT8  1950 TIP3 OH2  OT    -0.834000       15.9994           0
  118061 WT8  1950 TIP3 H1   HT     0.417000        1.0080           0
  118062 WT8  1950 TIP3 H2   HT     0.417000        1.0080           0
  118063 WT8  1952 TIP3 OH2  OT    -0.834000       15.9994           0
  118064 WT8  1952 TIP3 H1   HT     0.417000        1.0080           0
  118065 WT8  1952 TIP3 H2   HT     0.417000        1.0080           0
  118066 WT8  1953 TIP3 OH2  OT    -0.834000       15.9994           0
  118067 WT8  1953 TIP3 H1   HT     0.417000        1.0080           0
  118068 WT8  1953 TIP3 H2   HT     0.417000        1.0080           0
  118069 WT8  1954 TIP3 OH2  OT    -0.834000       15.9994           0
  118070 WT8  1954 TIP3 H1   HT     0.417000        1.0080           0
  118071 WT8  1954 TIP3 H2   HT     0.417000        1.0080           0
  118072 WT8  1955 TIP3 OH2  OT    -0.834000       15.9994           0
  118073 WT8  1955 TIP3 H1   HT     0.417000        1.0080           0
  118074 WT8  1955 TIP3 H2   HT     0.417000        1.0080           0
  118075 WT8  1960 TIP3 OH2  OT    -0.834000       15.9994           0
  118076 WT8  1960 TIP3 H1   HT     0.417000        1.0080           0
  118077 WT8  1960 TIP3 H2   HT     0.417000        1.0080           0
  118078 WT8  1961 TIP3 OH2  OT    -0.834000       15.9994           0
  118079 WT8  1961 TIP3 H1   HT     0.417000        1.0080           0
  118080 WT8  1961 TIP3 H2   HT     0.417000        1.0080           0
  118081 WT8  1962 TIP3 OH2  OT    -0.834000       15.9994           0
  118082 WT8  1962 TIP3 H1   HT     0.417000        1.0080           0
  118083 WT8  1962 TIP3 H2   HT     0.417000        1.0080           0
  118084 WT8  1963 TIP3 OH2  OT    -0.834000       15.9994           0
  118085 WT8  1963 TIP3 H1   HT     0.417000        1.0080           0
  118086 WT8  1963 TIP3 H2   HT     0.417000        1.0080           0
  118087 WT8  1965 TIP3 OH2  OT    -0.834000       15.9994           0
  118088 WT8  1965 TIP3 H1   HT     0.417000        1.0080           0
  118089 WT8  1965 TIP3 H2   HT     0.417000        1.0080           0
  118090 WT8  1966 TIP3 OH2  OT    -0.834000       15.9994           0
  118091 WT8  1966 TIP3 H1   HT     0.417000        1.0080           0
  118092 WT8  1966 TIP3 H2   HT     0.417000        1.0080           0
  118093 WT8  1967 TIP3 OH2  OT    -0.834000       15.9994           0
  118094 WT8  1967 TIP3 H1   HT     0.417000        1.0080           0
  118095 WT8  1967 TIP3 H2   HT     0.417000        1.0080           0
  118096 WT8  1969 TIP3 OH2  OT    -0.834000       15.9994           0
  118097 WT8  1969 TIP3 H1   HT     0.417000        1.0080           0
  118098 WT8  1969 TIP3 H2   HT     0.417000        1.0080           0
  118099 WT8  1976 TIP3 OH2  OT    -0.834000       15.9994           0
  118100 WT8  1976 TIP3 H1   HT     0.417000        1.0080           0
  118101 WT8  1976 TIP3 H2   HT     0.417000        1.0080           0
  118102 WT8  1977 TIP3 OH2  OT    -0.834000       15.9994           0
  118103 WT8  1977 TIP3 H1   HT     0.417000        1.0080           0
  118104 WT8  1977 TIP3 H2   HT     0.417000        1.0080           0
  118105 WT8  1978 TIP3 OH2  OT    -0.834000       15.9994           0
  118106 WT8  1978 TIP3 H1   HT     0.417000        1.0080           0
  118107 WT8  1978 TIP3 H2   HT     0.417000        1.0080           0
  118108 WT8  1979 TIP3 OH2  OT    -0.834000       15.9994           0
  118109 WT8  1979 TIP3 H1   HT     0.417000        1.0080           0
  118110 WT8  1979 TIP3 H2   HT     0.417000        1.0080           0
  118111 WT8  1980 TIP3 OH2  OT    -0.834000       15.9994           0
  118112 WT8  1980 TIP3 H1   HT     0.417000        1.0080           0
  118113 WT8  1980 TIP3 H2   HT     0.417000        1.0080           0
  118114 WT8  1982 TIP3 OH2  OT    -0.834000       15.9994           0
  118115 WT8  1982 TIP3 H1   HT     0.417000        1.0080           0
  118116 WT8  1982 TIP3 H2   HT     0.417000        1.0080           0
  118117 WT8  1984 TIP3 OH2  OT    -0.834000       15.9994           0
  118118 WT8  1984 TIP3 H1   HT     0.417000        1.0080           0
  118119 WT8  1984 TIP3 H2   HT     0.417000        1.0080           0
  118120 WT8  1986 TIP3 OH2  OT    -0.834000       15.9994           0
  118121 WT8  1986 TIP3 H1   HT     0.417000        1.0080           0
  118122 WT8  1986 TIP3 H2   HT     0.417000        1.0080           0
  118123 WT8  1987 TIP3 OH2  OT    -0.834000       15.9994           0
  118124 WT8  1987 TIP3 H1   HT     0.417000        1.0080           0
  118125 WT8  1987 TIP3 H2   HT     0.417000        1.0080           0
  118126 WT8  1988 TIP3 OH2  OT    -0.834000       15.9994           0
  118127 WT8  1988 TIP3 H1   HT     0.417000        1.0080           0
  118128 WT8  1988 TIP3 H2   HT     0.417000        1.0080           0
  118129 WT8  1989 TIP3 OH2  OT    -0.834000       15.9994           0
  118130 WT8  1989 TIP3 H1   HT     0.417000        1.0080           0
  118131 WT8  1989 TIP3 H2   HT     0.417000        1.0080           0
  118132 WT8  1993 TIP3 OH2  OT    -0.834000       15.9994           0
  118133 WT8  1993 TIP3 H1   HT     0.417000        1.0080           0
  118134 WT8  1993 TIP3 H2   HT     0.417000        1.0080           0
  118135 WT8  1998 TIP3 OH2  OT    -0.834000       15.9994           0
  118136 WT8  1998 TIP3 H1   HT     0.417000        1.0080           0
  118137 WT8  1998 TIP3 H2   HT     0.417000        1.0080           0
  118138 WT8  1999 TIP3 OH2  OT    -0.834000       15.9994           0
  118139 WT8  1999 TIP3 H1   HT     0.417000        1.0080           0
  118140 WT8  1999 TIP3 H2   HT     0.417000        1.0080           0
  118141 WT8  2000 TIP3 OH2  OT    -0.834000       15.9994           0
  118142 WT8  2000 TIP3 H1   HT     0.417000        1.0080           0
  118143 WT8  2000 TIP3 H2   HT     0.417000        1.0080           0
  118144 WT8  2002 TIP3 OH2  OT    -0.834000       15.9994           0
  118145 WT8  2002 TIP3 H1   HT     0.417000        1.0080           0
  118146 WT8  2002 TIP3 H2   HT     0.417000        1.0080           0
  118147 WT8  2003 TIP3 OH2  OT    -0.834000       15.9994           0
  118148 WT8  2003 TIP3 H1   HT     0.417000        1.0080           0
  118149 WT8  2003 TIP3 H2   HT     0.417000        1.0080           0
  118150 WT8  2004 TIP3 OH2  OT    -0.834000       15.9994           0
  118151 WT8  2004 TIP3 H1   HT     0.417000        1.0080           0
  118152 WT8  2004 TIP3 H2   HT     0.417000        1.0080           0
  118153 WT8  2005 TIP3 OH2  OT    -0.834000       15.9994           0
  118154 WT8  2005 TIP3 H1   HT     0.417000        1.0080           0
  118155 WT8  2005 TIP3 H2   HT     0.417000        1.0080           0
  118156 WT8  2007 TIP3 OH2  OT    -0.834000       15.9994           0
  118157 WT8  2007 TIP3 H1   HT     0.417000        1.0080           0
  118158 WT8  2007 TIP3 H2   HT     0.417000        1.0080           0
  118159 WT8  2009 TIP3 OH2  OT    -0.834000       15.9994           0
  118160 WT8  2009 TIP3 H1   HT     0.417000        1.0080           0
  118161 WT8  2009 TIP3 H2   HT     0.417000        1.0080           0
  118162 WT8  2014 TIP3 OH2  OT    -0.834000       15.9994           0
  118163 WT8  2014 TIP3 H1   HT     0.417000        1.0080           0
  118164 WT8  2014 TIP3 H2   HT     0.417000        1.0080           0
  118165 WT8  2016 TIP3 OH2  OT    -0.834000       15.9994           0
  118166 WT8  2016 TIP3 H1   HT     0.417000        1.0080           0
  118167 WT8  2016 TIP3 H2   HT     0.417000        1.0080           0
  118168 WT8  2018 TIP3 OH2  OT    -0.834000       15.9994           0
  118169 WT8  2018 TIP3 H1   HT     0.417000        1.0080           0
  118170 WT8  2018 TIP3 H2   HT     0.417000        1.0080           0
  118171 WT8  2019 TIP3 OH2  OT    -0.834000       15.9994           0
  118172 WT8  2019 TIP3 H1   HT     0.417000        1.0080           0
  118173 WT8  2019 TIP3 H2   HT     0.417000        1.0080           0
  118174 WT8  2020 TIP3 OH2  OT    -0.834000       15.9994           0
  118175 WT8  2020 TIP3 H1   HT     0.417000        1.0080           0
  118176 WT8  2020 TIP3 H2   HT     0.417000        1.0080           0
  118177 WT8  2021 TIP3 OH2  OT    -0.834000       15.9994           0
  118178 WT8  2021 TIP3 H1   HT     0.417000        1.0080           0
  118179 WT8  2021 TIP3 H2   HT     0.417000        1.0080           0
  118180 WT8  2022 TIP3 OH2  OT    -0.834000       15.9994           0
  118181 WT8  2022 TIP3 H1   HT     0.417000        1.0080           0
  118182 WT8  2022 TIP3 H2   HT     0.417000        1.0080           0
  118183 WT8  2025 TIP3 OH2  OT    -0.834000       15.9994           0
  118184 WT8  2025 TIP3 H1   HT     0.417000        1.0080           0
  118185 WT8  2025 TIP3 H2   HT     0.417000        1.0080           0
  118186 WT8  2026 TIP3 OH2  OT    -0.834000       15.9994           0
  118187 WT8  2026 TIP3 H1   HT     0.417000        1.0080           0
  118188 WT8  2026 TIP3 H2   HT     0.417000        1.0080           0
  118189 WT8  2027 TIP3 OH2  OT    -0.834000       15.9994           0
  118190 WT8  2027 TIP3 H1   HT     0.417000        1.0080           0
  118191 WT8  2027 TIP3 H2   HT     0.417000        1.0080           0
  118192 WT8  2028 TIP3 OH2  OT    -0.834000       15.9994           0
  118193 WT8  2028 TIP3 H1   HT     0.417000        1.0080           0
  118194 WT8  2028 TIP3 H2   HT     0.417000        1.0080           0
  118195 WT8  2029 TIP3 OH2  OT    -0.834000       15.9994           0
  118196 WT8  2029 TIP3 H1   HT     0.417000        1.0080           0
  118197 WT8  2029 TIP3 H2   HT     0.417000        1.0080           0
  118198 WT8  2031 TIP3 OH2  OT    -0.834000       15.9994           0
  118199 WT8  2031 TIP3 H1   HT     0.417000        1.0080           0
  118200 WT8  2031 TIP3 H2   HT     0.417000        1.0080           0
  118201 WT8  2037 TIP3 OH2  OT    -0.834000       15.9994           0
  118202 WT8  2037 TIP3 H1   HT     0.417000        1.0080           0
  118203 WT8  2037 TIP3 H2   HT     0.417000        1.0080           0
  118204 WT8  2038 TIP3 OH2  OT    -0.834000       15.9994           0
  118205 WT8  2038 TIP3 H1   HT     0.417000        1.0080           0
  118206 WT8  2038 TIP3 H2   HT     0.417000        1.0080           0
  118207 WT8  2039 TIP3 OH2  OT    -0.834000       15.9994           0
  118208 WT8  2039 TIP3 H1   HT     0.417000        1.0080           0
  118209 WT8  2039 TIP3 H2   HT     0.417000        1.0080           0
  118210 WT8  2040 TIP3 OH2  OT    -0.834000       15.9994           0
  118211 WT8  2040 TIP3 H1   HT     0.417000        1.0080           0
  118212 WT8  2040 TIP3 H2   HT     0.417000        1.0080           0
  118213 WT8  2042 TIP3 OH2  OT    -0.834000       15.9994           0
  118214 WT8  2042 TIP3 H1   HT     0.417000        1.0080           0
  118215 WT8  2042 TIP3 H2   HT     0.417000        1.0080           0
  118216 WT8  2043 TIP3 OH2  OT    -0.834000       15.9994           0
  118217 WT8  2043 TIP3 H1   HT     0.417000        1.0080           0
  118218 WT8  2043 TIP3 H2   HT     0.417000        1.0080           0
  118219 WT8  2044 TIP3 OH2  OT    -0.834000       15.9994           0
  118220 WT8  2044 TIP3 H1   HT     0.417000        1.0080           0
  118221 WT8  2044 TIP3 H2   HT     0.417000        1.0080           0
  118222 WT8  2045 TIP3 OH2  OT    -0.834000       15.9994           0
  118223 WT8  2045 TIP3 H1   HT     0.417000        1.0080           0
  118224 WT8  2045 TIP3 H2   HT     0.417000        1.0080           0
  118225 WT8  2049 TIP3 OH2  OT    -0.834000       15.9994           0
  118226 WT8  2049 TIP3 H1   HT     0.417000        1.0080           0
  118227 WT8  2049 TIP3 H2   HT     0.417000        1.0080           0
  118228 WT8  2050 TIP3 OH2  OT    -0.834000       15.9994           0
  118229 WT8  2050 TIP3 H1   HT     0.417000        1.0080           0
  118230 WT8  2050 TIP3 H2   HT     0.417000        1.0080           0
  118231 WT8  2052 TIP3 OH2  OT    -0.834000       15.9994           0
  118232 WT8  2052 TIP3 H1   HT     0.417000        1.0080           0
  118233 WT8  2052 TIP3 H2   HT     0.417000        1.0080           0
  118234 WT8  2053 TIP3 OH2  OT    -0.834000       15.9994           0
  118235 WT8  2053 TIP3 H1   HT     0.417000        1.0080           0
  118236 WT8  2053 TIP3 H2   HT     0.417000        1.0080           0
  118237 WT8  2060 TIP3 OH2  OT    -0.834000       15.9994           0
  118238 WT8  2060 TIP3 H1   HT     0.417000        1.0080           0
  118239 WT8  2060 TIP3 H2   HT     0.417000        1.0080           0
  118240 WT8  2061 TIP3 OH2  OT    -0.834000       15.9994           0
  118241 WT8  2061 TIP3 H1   HT     0.417000        1.0080           0
  118242 WT8  2061 TIP3 H2   HT     0.417000        1.0080           0
  118243 WT8  2070 TIP3 OH2  OT    -0.834000       15.9994           0
  118244 WT8  2070 TIP3 H1   HT     0.417000        1.0080           0
  118245 WT8  2070 TIP3 H2   HT     0.417000        1.0080           0
  118246 WT8  2073 TIP3 OH2  OT    -0.834000       15.9994           0
  118247 WT8  2073 TIP3 H1   HT     0.417000        1.0080           0
  118248 WT8  2073 TIP3 H2   HT     0.417000        1.0080           0
  118249 WT8  2075 TIP3 OH2  OT    -0.834000       15.9994           0
  118250 WT8  2075 TIP3 H1   HT     0.417000        1.0080           0
  118251 WT8  2075 TIP3 H2   HT     0.417000        1.0080           0
  118252 WT8  2079 TIP3 OH2  OT    -0.834000       15.9994           0
  118253 WT8  2079 TIP3 H1   HT     0.417000        1.0080           0
  118254 WT8  2079 TIP3 H2   HT     0.417000        1.0080           0
  118255 WT8  2082 TIP3 OH2  OT    -0.834000       15.9994           0
  118256 WT8  2082 TIP3 H1   HT     0.417000        1.0080           0
  118257 WT8  2082 TIP3 H2   HT     0.417000        1.0080           0
  118258 WT8  2083 TIP3 OH2  OT    -0.834000       15.9994           0
  118259 WT8  2083 TIP3 H1   HT     0.417000        1.0080           0
  118260 WT8  2083 TIP3 H2   HT     0.417000        1.0080           0
  118261 WT8  2084 TIP3 OH2  OT    -0.834000       15.9994           0
  118262 WT8  2084 TIP3 H1   HT     0.417000        1.0080           0
  118263 WT8  2084 TIP3 H2   HT     0.417000        1.0080           0
  118264 WT8  2085 TIP3 OH2  OT    -0.834000       15.9994           0
  118265 WT8  2085 TIP3 H1   HT     0.417000        1.0080           0
  118266 WT8  2085 TIP3 H2   HT     0.417000        1.0080           0
  118267 WT8  2086 TIP3 OH2  OT    -0.834000       15.9994           0
  118268 WT8  2086 TIP3 H1   HT     0.417000        1.0080           0
  118269 WT8  2086 TIP3 H2   HT     0.417000        1.0080           0
  118270 WT8  2089 TIP3 OH2  OT    -0.834000       15.9994           0
  118271 WT8  2089 TIP3 H1   HT     0.417000        1.0080           0
  118272 WT8  2089 TIP3 H2   HT     0.417000        1.0080           0
  118273 WT8  2095 TIP3 OH2  OT    -0.834000       15.9994           0
  118274 WT8  2095 TIP3 H1   HT     0.417000        1.0080           0
  118275 WT8  2095 TIP3 H2   HT     0.417000        1.0080           0
  118276 WT8  2101 TIP3 OH2  OT    -0.834000       15.9994           0
  118277 WT8  2101 TIP3 H1   HT     0.417000        1.0080           0
  118278 WT8  2101 TIP3 H2   HT     0.417000        1.0080           0
  118279 WT8  2103 TIP3 OH2  OT    -0.834000       15.9994           0
  118280 WT8  2103 TIP3 H1   HT     0.417000        1.0080           0
  118281 WT8  2103 TIP3 H2   HT     0.417000        1.0080           0
  118282 WT8  2105 TIP3 OH2  OT    -0.834000       15.9994           0
  118283 WT8  2105 TIP3 H1   HT     0.417000        1.0080           0
  118284 WT8  2105 TIP3 H2   HT     0.417000        1.0080           0
  118285 WT8  2106 TIP3 OH2  OT    -0.834000       15.9994           0
  118286 WT8  2106 TIP3 H1   HT     0.417000        1.0080           0
  118287 WT8  2106 TIP3 H2   HT     0.417000        1.0080           0
  118288 WT8  2107 TIP3 OH2  OT    -0.834000       15.9994           0
  118289 WT8  2107 TIP3 H1   HT     0.417000        1.0080           0
  118290 WT8  2107 TIP3 H2   HT     0.417000        1.0080           0
  118291 WT8  2116 TIP3 OH2  OT    -0.834000       15.9994           0
  118292 WT8  2116 TIP3 H1   HT     0.417000        1.0080           0
  118293 WT8  2116 TIP3 H2   HT     0.417000        1.0080           0
  118294 WT8  2123 TIP3 OH2  OT    -0.834000       15.9994           0
  118295 WT8  2123 TIP3 H1   HT     0.417000        1.0080           0
  118296 WT8  2123 TIP3 H2   HT     0.417000        1.0080           0
  118297 WT8  2127 TIP3 OH2  OT    -0.834000       15.9994           0
  118298 WT8  2127 TIP3 H1   HT     0.417000        1.0080           0
  118299 WT8  2127 TIP3 H2   HT     0.417000        1.0080           0
  118300 WT8  2133 TIP3 OH2  OT    -0.834000       15.9994           0
  118301 WT8  2133 TIP3 H1   HT     0.417000        1.0080           0
  118302 WT8  2133 TIP3 H2   HT     0.417000        1.0080           0
  118303 WT8  2135 TIP3 OH2  OT    -0.834000       15.9994           0
  118304 WT8  2135 TIP3 H1   HT     0.417000        1.0080           0
  118305 WT8  2135 TIP3 H2   HT     0.417000        1.0080           0
  118306 WT8  2147 TIP3 OH2  OT    -0.834000       15.9994           0
  118307 WT8  2147 TIP3 H1   HT     0.417000        1.0080           0
  118308 WT8  2147 TIP3 H2   HT     0.417000        1.0080           0
  118309 WT8  2151 TIP3 OH2  OT    -0.834000       15.9994           0
  118310 WT8  2151 TIP3 H1   HT     0.417000        1.0080           0
  118311 WT8  2151 TIP3 H2   HT     0.417000        1.0080           0
  118312 WT8  2155 TIP3 OH2  OT    -0.834000       15.9994           0
  118313 WT8  2155 TIP3 H1   HT     0.417000        1.0080           0
  118314 WT8  2155 TIP3 H2   HT     0.417000        1.0080           0
  118315 WT8  2163 TIP3 OH2  OT    -0.834000       15.9994           0
  118316 WT8  2163 TIP3 H1   HT     0.417000        1.0080           0
  118317 WT8  2163 TIP3 H2   HT     0.417000        1.0080           0
  118318 WT8  2165 TIP3 OH2  OT    -0.834000       15.9994           0
  118319 WT8  2165 TIP3 H1   HT     0.417000        1.0080           0
  118320 WT8  2165 TIP3 H2   HT     0.417000        1.0080           0
  118321 WT8  2167 TIP3 OH2  OT    -0.834000       15.9994           0
  118322 WT8  2167 TIP3 H1   HT     0.417000        1.0080           0
  118323 WT8  2167 TIP3 H2   HT     0.417000        1.0080           0
  118324 WT8  2172 TIP3 OH2  OT    -0.834000       15.9994           0
  118325 WT8  2172 TIP3 H1   HT     0.417000        1.0080           0
  118326 WT8  2172 TIP3 H2   HT     0.417000        1.0080           0
  118327 WT8  2185 TIP3 OH2  OT    -0.834000       15.9994           0
  118328 WT8  2185 TIP3 H1   HT     0.417000        1.0080           0
  118329 WT8  2185 TIP3 H2   HT     0.417000        1.0080           0
  118330 WT8  2186 TIP3 OH2  OT    -0.834000       15.9994           0
  118331 WT8  2186 TIP3 H1   HT     0.417000        1.0080           0
  118332 WT8  2186 TIP3 H2   HT     0.417000        1.0080           0
  118333 WT8  2187 TIP3 OH2  OT    -0.834000       15.9994           0
  118334 WT8  2187 TIP3 H1   HT     0.417000        1.0080           0
  118335 WT8  2187 TIP3 H2   HT     0.417000        1.0080           0
  118336 WT8  2194 TIP3 OH2  OT    -0.834000       15.9994           0
  118337 WT8  2194 TIP3 H1   HT     0.417000        1.0080           0
  118338 WT8  2194 TIP3 H2   HT     0.417000        1.0080           0
  118339 WT8  2195 TIP3 OH2  OT    -0.834000       15.9994           0
  118340 WT8  2195 TIP3 H1   HT     0.417000        1.0080           0
  118341 WT8  2195 TIP3 H2   HT     0.417000        1.0080           0
  118342 WT8  2197 TIP3 OH2  OT    -0.834000       15.9994           0
  118343 WT8  2197 TIP3 H1   HT     0.417000        1.0080           0
  118344 WT8  2197 TIP3 H2   HT     0.417000        1.0080           0
  118345 WT8  2198 TIP3 OH2  OT    -0.834000       15.9994           0
  118346 WT8  2198 TIP3 H1   HT     0.417000        1.0080           0
  118347 WT8  2198 TIP3 H2   HT     0.417000        1.0080           0
  118348 WT8  2208 TIP3 OH2  OT    -0.834000       15.9994           0
  118349 WT8  2208 TIP3 H1   HT     0.417000        1.0080           0
  118350 WT8  2208 TIP3 H2   HT     0.417000        1.0080           0
  118351 WT8  2211 TIP3 OH2  OT    -0.834000       15.9994           0
  118352 WT8  2211 TIP3 H1   HT     0.417000        1.0080           0
  118353 WT8  2211 TIP3 H2   HT     0.417000        1.0080           0
  118354 WT8  2212 TIP3 OH2  OT    -0.834000       15.9994           0
  118355 WT8  2212 TIP3 H1   HT     0.417000        1.0080           0
  118356 WT8  2212 TIP3 H2   HT     0.417000        1.0080           0
  118357 WT8  2213 TIP3 OH2  OT    -0.834000       15.9994           0
  118358 WT8  2213 TIP3 H1   HT     0.417000        1.0080           0
  118359 WT8  2213 TIP3 H2   HT     0.417000        1.0080           0
  118360 WT8  2217 TIP3 OH2  OT    -0.834000       15.9994           0
  118361 WT8  2217 TIP3 H1   HT     0.417000        1.0080           0
  118362 WT8  2217 TIP3 H2   HT     0.417000        1.0080           0
  118363 WT8  2219 TIP3 OH2  OT    -0.834000       15.9994           0
  118364 WT8  2219 TIP3 H1   HT     0.417000        1.0080           0
  118365 WT8  2219 TIP3 H2   HT     0.417000        1.0080           0
  118366 WT8  2227 TIP3 OH2  OT    -0.834000       15.9994           0
  118367 WT8  2227 TIP3 H1   HT     0.417000        1.0080           0
  118368 WT8  2227 TIP3 H2   HT     0.417000        1.0080           0
  118369 WT8  2229 TIP3 OH2  OT    -0.834000       15.9994           0
  118370 WT8  2229 TIP3 H1   HT     0.417000        1.0080           0
  118371 WT8  2229 TIP3 H2   HT     0.417000        1.0080           0
  118372 WT8  2231 TIP3 OH2  OT    -0.834000       15.9994           0
  118373 WT8  2231 TIP3 H1   HT     0.417000        1.0080           0
  118374 WT8  2231 TIP3 H2   HT     0.417000        1.0080           0
  118375 WT8  2232 TIP3 OH2  OT    -0.834000       15.9994           0
  118376 WT8  2232 TIP3 H1   HT     0.417000        1.0080           0
  118377 WT8  2232 TIP3 H2   HT     0.417000        1.0080           0
  118378 WT8  2234 TIP3 OH2  OT    -0.834000       15.9994           0
  118379 WT8  2234 TIP3 H1   HT     0.417000        1.0080           0
  118380 WT8  2234 TIP3 H2   HT     0.417000        1.0080           0
  118381 WT8  2235 TIP3 OH2  OT    -0.834000       15.9994           0
  118382 WT8  2235 TIP3 H1   HT     0.417000        1.0080           0
  118383 WT8  2235 TIP3 H2   HT     0.417000        1.0080           0
  118384 WT8  2236 TIP3 OH2  OT    -0.834000       15.9994           0
  118385 WT8  2236 TIP3 H1   HT     0.417000        1.0080           0
  118386 WT8  2236 TIP3 H2   HT     0.417000        1.0080           0
  118387 WT8  2237 TIP3 OH2  OT    -0.834000       15.9994           0
  118388 WT8  2237 TIP3 H1   HT     0.417000        1.0080           0
  118389 WT8  2237 TIP3 H2   HT     0.417000        1.0080           0
  118390 WT8  2240 TIP3 OH2  OT    -0.834000       15.9994           0
  118391 WT8  2240 TIP3 H1   HT     0.417000        1.0080           0
  118392 WT8  2240 TIP3 H2   HT     0.417000        1.0080           0
  118393 WT8  2241 TIP3 OH2  OT    -0.834000       15.9994           0
  118394 WT8  2241 TIP3 H1   HT     0.417000        1.0080           0
  118395 WT8  2241 TIP3 H2   HT     0.417000        1.0080           0
  118396 WT8  2244 TIP3 OH2  OT    -0.834000       15.9994           0
  118397 WT8  2244 TIP3 H1   HT     0.417000        1.0080           0
  118398 WT8  2244 TIP3 H2   HT     0.417000        1.0080           0
  118399 WT8  2250 TIP3 OH2  OT    -0.834000       15.9994           0
  118400 WT8  2250 TIP3 H1   HT     0.417000        1.0080           0
  118401 WT8  2250 TIP3 H2   HT     0.417000        1.0080           0
  118402 WT8  2251 TIP3 OH2  OT    -0.834000       15.9994           0
  118403 WT8  2251 TIP3 H1   HT     0.417000        1.0080           0
  118404 WT8  2251 TIP3 H2   HT     0.417000        1.0080           0
  118405 WT8  2253 TIP3 OH2  OT    -0.834000       15.9994           0
  118406 WT8  2253 TIP3 H1   HT     0.417000        1.0080           0
  118407 WT8  2253 TIP3 H2   HT     0.417000        1.0080           0
  118408 WT8  2254 TIP3 OH2  OT    -0.834000       15.9994           0
  118409 WT8  2254 TIP3 H1   HT     0.417000        1.0080           0
  118410 WT8  2254 TIP3 H2   HT     0.417000        1.0080           0
  118411 WT8  2256 TIP3 OH2  OT    -0.834000       15.9994           0
  118412 WT8  2256 TIP3 H1   HT     0.417000        1.0080           0
  118413 WT8  2256 TIP3 H2   HT     0.417000        1.0080           0
  118414 WT8  2257 TIP3 OH2  OT    -0.834000       15.9994           0
  118415 WT8  2257 TIP3 H1   HT     0.417000        1.0080           0
  118416 WT8  2257 TIP3 H2   HT     0.417000        1.0080           0
  118417 WT8  2258 TIP3 OH2  OT    -0.834000       15.9994           0
  118418 WT8  2258 TIP3 H1   HT     0.417000        1.0080           0
  118419 WT8  2258 TIP3 H2   HT     0.417000        1.0080           0
  118420 WT8  2259 TIP3 OH2  OT    -0.834000       15.9994           0
  118421 WT8  2259 TIP3 H1   HT     0.417000        1.0080           0
  118422 WT8  2259 TIP3 H2   HT     0.417000        1.0080           0
  118423 WT8  2260 TIP3 OH2  OT    -0.834000       15.9994           0
  118424 WT8  2260 TIP3 H1   HT     0.417000        1.0080           0
  118425 WT8  2260 TIP3 H2   HT     0.417000        1.0080           0
  118426 WT8  2261 TIP3 OH2  OT    -0.834000       15.9994           0
  118427 WT8  2261 TIP3 H1   HT     0.417000        1.0080           0
  118428 WT8  2261 TIP3 H2   HT     0.417000        1.0080           0
  118429 WT8  2269 TIP3 OH2  OT    -0.834000       15.9994           0
  118430 WT8  2269 TIP3 H1   HT     0.417000        1.0080           0
  118431 WT8  2269 TIP3 H2   HT     0.417000        1.0080           0
  118432 WT8  2270 TIP3 OH2  OT    -0.834000       15.9994           0
  118433 WT8  2270 TIP3 H1   HT     0.417000        1.0080           0
  118434 WT8  2270 TIP3 H2   HT     0.417000        1.0080           0
  118435 WT8  2271 TIP3 OH2  OT    -0.834000       15.9994           0
  118436 WT8  2271 TIP3 H1   HT     0.417000        1.0080           0
  118437 WT8  2271 TIP3 H2   HT     0.417000        1.0080           0
  118438 WT8  2272 TIP3 OH2  OT    -0.834000       15.9994           0
  118439 WT8  2272 TIP3 H1   HT     0.417000        1.0080           0
  118440 WT8  2272 TIP3 H2   HT     0.417000        1.0080           0
  118441 WT8  2273 TIP3 OH2  OT    -0.834000       15.9994           0
  118442 WT8  2273 TIP3 H1   HT     0.417000        1.0080           0
  118443 WT8  2273 TIP3 H2   HT     0.417000        1.0080           0
  118444 WT8  2274 TIP3 OH2  OT    -0.834000       15.9994           0
  118445 WT8  2274 TIP3 H1   HT     0.417000        1.0080           0
  118446 WT8  2274 TIP3 H2   HT     0.417000        1.0080           0
  118447 WT8  2275 TIP3 OH2  OT    -0.834000       15.9994           0
  118448 WT8  2275 TIP3 H1   HT     0.417000        1.0080           0
  118449 WT8  2275 TIP3 H2   HT     0.417000        1.0080           0
  118450 WT8  2276 TIP3 OH2  OT    -0.834000       15.9994           0
  118451 WT8  2276 TIP3 H1   HT     0.417000        1.0080           0
  118452 WT8  2276 TIP3 H2   HT     0.417000        1.0080           0
  118453 WT8  2277 TIP3 OH2  OT    -0.834000       15.9994           0
  118454 WT8  2277 TIP3 H1   HT     0.417000        1.0080           0
  118455 WT8  2277 TIP3 H2   HT     0.417000        1.0080           0
  118456 WT8  2278 TIP3 OH2  OT    -0.834000       15.9994           0
  118457 WT8  2278 TIP3 H1   HT     0.417000        1.0080           0
  118458 WT8  2278 TIP3 H2   HT     0.417000        1.0080           0
  118459 WT8  2280 TIP3 OH2  OT    -0.834000       15.9994           0
  118460 WT8  2280 TIP3 H1   HT     0.417000        1.0080           0
  118461 WT8  2280 TIP3 H2   HT     0.417000        1.0080           0
  118462 WT8  2281 TIP3 OH2  OT    -0.834000       15.9994           0
  118463 WT8  2281 TIP3 H1   HT     0.417000        1.0080           0
  118464 WT8  2281 TIP3 H2   HT     0.417000        1.0080           0
  118465 WT8  2282 TIP3 OH2  OT    -0.834000       15.9994           0
  118466 WT8  2282 TIP3 H1   HT     0.417000        1.0080           0
  118467 WT8  2282 TIP3 H2   HT     0.417000        1.0080           0
  118468 WT8  2283 TIP3 OH2  OT    -0.834000       15.9994           0
  118469 WT8  2283 TIP3 H1   HT     0.417000        1.0080           0
  118470 WT8  2283 TIP3 H2   HT     0.417000        1.0080           0
  118471 WT8  2284 TIP3 OH2  OT    -0.834000       15.9994           0
  118472 WT8  2284 TIP3 H1   HT     0.417000        1.0080           0
  118473 WT8  2284 TIP3 H2   HT     0.417000        1.0080           0
  118474 WT8  2285 TIP3 OH2  OT    -0.834000       15.9994           0
  118475 WT8  2285 TIP3 H1   HT     0.417000        1.0080           0
  118476 WT8  2285 TIP3 H2   HT     0.417000        1.0080           0
  118477 WT8  2286 TIP3 OH2  OT    -0.834000       15.9994           0
  118478 WT8  2286 TIP3 H1   HT     0.417000        1.0080           0
  118479 WT8  2286 TIP3 H2   HT     0.417000        1.0080           0
  118480 WT8  2288 TIP3 OH2  OT    -0.834000       15.9994           0
  118481 WT8  2288 TIP3 H1   HT     0.417000        1.0080           0
  118482 WT8  2288 TIP3 H2   HT     0.417000        1.0080           0
  118483 WT8  2290 TIP3 OH2  OT    -0.834000       15.9994           0
  118484 WT8  2290 TIP3 H1   HT     0.417000        1.0080           0
  118485 WT8  2290 TIP3 H2   HT     0.417000        1.0080           0
  118486 WT8  2292 TIP3 OH2  OT    -0.834000       15.9994           0
  118487 WT8  2292 TIP3 H1   HT     0.417000        1.0080           0
  118488 WT8  2292 TIP3 H2   HT     0.417000        1.0080           0
  118489 WT8  2293 TIP3 OH2  OT    -0.834000       15.9994           0
  118490 WT8  2293 TIP3 H1   HT     0.417000        1.0080           0
  118491 WT8  2293 TIP3 H2   HT     0.417000        1.0080           0
  118492 WT8  2294 TIP3 OH2  OT    -0.834000       15.9994           0
  118493 WT8  2294 TIP3 H1   HT     0.417000        1.0080           0
  118494 WT8  2294 TIP3 H2   HT     0.417000        1.0080           0
  118495 WT8  2295 TIP3 OH2  OT    -0.834000       15.9994           0
  118496 WT8  2295 TIP3 H1   HT     0.417000        1.0080           0
  118497 WT8  2295 TIP3 H2   HT     0.417000        1.0080           0
  118498 WT8  2296 TIP3 OH2  OT    -0.834000       15.9994           0
  118499 WT8  2296 TIP3 H1   HT     0.417000        1.0080           0
  118500 WT8  2296 TIP3 H2   HT     0.417000        1.0080           0
  118501 WT8  2297 TIP3 OH2  OT    -0.834000       15.9994           0
  118502 WT8  2297 TIP3 H1   HT     0.417000        1.0080           0
  118503 WT8  2297 TIP3 H2   HT     0.417000        1.0080           0
  118504 WT8  2298 TIP3 OH2  OT    -0.834000       15.9994           0
  118505 WT8  2298 TIP3 H1   HT     0.417000        1.0080           0
  118506 WT8  2298 TIP3 H2   HT     0.417000        1.0080           0
  118507 WT8  2299 TIP3 OH2  OT    -0.834000       15.9994           0
  118508 WT8  2299 TIP3 H1   HT     0.417000        1.0080           0
  118509 WT8  2299 TIP3 H2   HT     0.417000        1.0080           0
  118510 WT8  2300 TIP3 OH2  OT    -0.834000       15.9994           0
  118511 WT8  2300 TIP3 H1   HT     0.417000        1.0080           0
  118512 WT8  2300 TIP3 H2   HT     0.417000        1.0080           0
  118513 WT8  2301 TIP3 OH2  OT    -0.834000       15.9994           0
  118514 WT8  2301 TIP3 H1   HT     0.417000        1.0080           0
  118515 WT8  2301 TIP3 H2   HT     0.417000        1.0080           0
  118516 WT8  2302 TIP3 OH2  OT    -0.834000       15.9994           0
  118517 WT8  2302 TIP3 H1   HT     0.417000        1.0080           0
  118518 WT8  2302 TIP3 H2   HT     0.417000        1.0080           0
  118519 WT8  2304 TIP3 OH2  OT    -0.834000       15.9994           0
  118520 WT8  2304 TIP3 H1   HT     0.417000        1.0080           0
  118521 WT8  2304 TIP3 H2   HT     0.417000        1.0080           0
  118522 WT8  2309 TIP3 OH2  OT    -0.834000       15.9994           0
  118523 WT8  2309 TIP3 H1   HT     0.417000        1.0080           0
  118524 WT8  2309 TIP3 H2   HT     0.417000        1.0080           0
  118525 WT8  2311 TIP3 OH2  OT    -0.834000       15.9994           0
  118526 WT8  2311 TIP3 H1   HT     0.417000        1.0080           0
  118527 WT8  2311 TIP3 H2   HT     0.417000        1.0080           0
  118528 WT8  2312 TIP3 OH2  OT    -0.834000       15.9994           0
  118529 WT8  2312 TIP3 H1   HT     0.417000        1.0080           0
  118530 WT8  2312 TIP3 H2   HT     0.417000        1.0080           0
  118531 WT8  2313 TIP3 OH2  OT    -0.834000       15.9994           0
  118532 WT8  2313 TIP3 H1   HT     0.417000        1.0080           0
  118533 WT8  2313 TIP3 H2   HT     0.417000        1.0080           0
  118534 WT8  2315 TIP3 OH2  OT    -0.834000       15.9994           0
  118535 WT8  2315 TIP3 H1   HT     0.417000        1.0080           0
  118536 WT8  2315 TIP3 H2   HT     0.417000        1.0080           0
  118537 WT8  2316 TIP3 OH2  OT    -0.834000       15.9994           0
  118538 WT8  2316 TIP3 H1   HT     0.417000        1.0080           0
  118539 WT8  2316 TIP3 H2   HT     0.417000        1.0080           0
  118540 WT8  2317 TIP3 OH2  OT    -0.834000       15.9994           0
  118541 WT8  2317 TIP3 H1   HT     0.417000        1.0080           0
  118542 WT8  2317 TIP3 H2   HT     0.417000        1.0080           0
  118543 WT8  2318 TIP3 OH2  OT    -0.834000       15.9994           0
  118544 WT8  2318 TIP3 H1   HT     0.417000        1.0080           0
  118545 WT8  2318 TIP3 H2   HT     0.417000        1.0080           0
  118546 WT8  2319 TIP3 OH2  OT    -0.834000       15.9994           0
  118547 WT8  2319 TIP3 H1   HT     0.417000        1.0080           0
  118548 WT8  2319 TIP3 H2   HT     0.417000        1.0080           0
  118549 WT8  2320 TIP3 OH2  OT    -0.834000       15.9994           0
  118550 WT8  2320 TIP3 H1   HT     0.417000        1.0080           0
  118551 WT8  2320 TIP3 H2   HT     0.417000        1.0080           0
  118552 WT8  2321 TIP3 OH2  OT    -0.834000       15.9994           0
  118553 WT8  2321 TIP3 H1   HT     0.417000        1.0080           0
  118554 WT8  2321 TIP3 H2   HT     0.417000        1.0080           0
  118555 WT8  2322 TIP3 OH2  OT    -0.834000       15.9994           0
  118556 WT8  2322 TIP3 H1   HT     0.417000        1.0080           0
  118557 WT8  2322 TIP3 H2   HT     0.417000        1.0080           0
  118558 WT8  2324 TIP3 OH2  OT    -0.834000       15.9994           0
  118559 WT8  2324 TIP3 H1   HT     0.417000        1.0080           0
  118560 WT8  2324 TIP3 H2   HT     0.417000        1.0080           0
  118561 WT8  2325 TIP3 OH2  OT    -0.834000       15.9994           0
  118562 WT8  2325 TIP3 H1   HT     0.417000        1.0080           0
  118563 WT8  2325 TIP3 H2   HT     0.417000        1.0080           0
  118564 WT8  2326 TIP3 OH2  OT    -0.834000       15.9994           0
  118565 WT8  2326 TIP3 H1   HT     0.417000        1.0080           0
  118566 WT8  2326 TIP3 H2   HT     0.417000        1.0080           0
  118567 WT8  2327 TIP3 OH2  OT    -0.834000       15.9994           0
  118568 WT8  2327 TIP3 H1   HT     0.417000        1.0080           0
  118569 WT8  2327 TIP3 H2   HT     0.417000        1.0080           0
  118570 WT8  2329 TIP3 OH2  OT    -0.834000       15.9994           0
  118571 WT8  2329 TIP3 H1   HT     0.417000        1.0080           0
  118572 WT8  2329 TIP3 H2   HT     0.417000        1.0080           0
  118573 WT8  2331 TIP3 OH2  OT    -0.834000       15.9994           0
  118574 WT8  2331 TIP3 H1   HT     0.417000        1.0080           0
  118575 WT8  2331 TIP3 H2   HT     0.417000        1.0080           0
  118576 WT8  2332 TIP3 OH2  OT    -0.834000       15.9994           0
  118577 WT8  2332 TIP3 H1   HT     0.417000        1.0080           0
  118578 WT8  2332 TIP3 H2   HT     0.417000        1.0080           0
  118579 WT8  2333 TIP3 OH2  OT    -0.834000       15.9994           0
  118580 WT8  2333 TIP3 H1   HT     0.417000        1.0080           0
  118581 WT8  2333 TIP3 H2   HT     0.417000        1.0080           0
  118582 WT8  2335 TIP3 OH2  OT    -0.834000       15.9994           0
  118583 WT8  2335 TIP3 H1   HT     0.417000        1.0080           0
  118584 WT8  2335 TIP3 H2   HT     0.417000        1.0080           0
  118585 WT8  2336 TIP3 OH2  OT    -0.834000       15.9994           0
  118586 WT8  2336 TIP3 H1   HT     0.417000        1.0080           0
  118587 WT8  2336 TIP3 H2   HT     0.417000        1.0080           0
  118588 WT8  2337 TIP3 OH2  OT    -0.834000       15.9994           0
  118589 WT8  2337 TIP3 H1   HT     0.417000        1.0080           0
  118590 WT8  2337 TIP3 H2   HT     0.417000        1.0080           0
  118591 WT8  2338 TIP3 OH2  OT    -0.834000       15.9994           0
  118592 WT8  2338 TIP3 H1   HT     0.417000        1.0080           0
  118593 WT8  2338 TIP3 H2   HT     0.417000        1.0080           0
  118594 WT8  2339 TIP3 OH2  OT    -0.834000       15.9994           0
  118595 WT8  2339 TIP3 H1   HT     0.417000        1.0080           0
  118596 WT8  2339 TIP3 H2   HT     0.417000        1.0080           0
  118597 WT8  2340 TIP3 OH2  OT    -0.834000       15.9994           0
  118598 WT8  2340 TIP3 H1   HT     0.417000        1.0080           0
  118599 WT8  2340 TIP3 H2   HT     0.417000        1.0080           0
  118600 WT8  2341 TIP3 OH2  OT    -0.834000       15.9994           0
  118601 WT8  2341 TIP3 H1   HT     0.417000        1.0080           0
  118602 WT8  2341 TIP3 H2   HT     0.417000        1.0080           0
  118603 WT8  2342 TIP3 OH2  OT    -0.834000       15.9994           0
  118604 WT8  2342 TIP3 H1   HT     0.417000        1.0080           0
  118605 WT8  2342 TIP3 H2   HT     0.417000        1.0080           0
  118606 WT8  2343 TIP3 OH2  OT    -0.834000       15.9994           0
  118607 WT8  2343 TIP3 H1   HT     0.417000        1.0080           0
  118608 WT8  2343 TIP3 H2   HT     0.417000        1.0080           0
  118609 WT8  2345 TIP3 OH2  OT    -0.834000       15.9994           0
  118610 WT8  2345 TIP3 H1   HT     0.417000        1.0080           0
  118611 WT8  2345 TIP3 H2   HT     0.417000        1.0080           0
  118612 WT8  2346 TIP3 OH2  OT    -0.834000       15.9994           0
  118613 WT8  2346 TIP3 H1   HT     0.417000        1.0080           0
  118614 WT8  2346 TIP3 H2   HT     0.417000        1.0080           0
  118615 WT8  2351 TIP3 OH2  OT    -0.834000       15.9994           0
  118616 WT8  2351 TIP3 H1   HT     0.417000        1.0080           0
  118617 WT8  2351 TIP3 H2   HT     0.417000        1.0080           0
  118618 WT8  2352 TIP3 OH2  OT    -0.834000       15.9994           0
  118619 WT8  2352 TIP3 H1   HT     0.417000        1.0080           0
  118620 WT8  2352 TIP3 H2   HT     0.417000        1.0080           0
  118621 WT8  2354 TIP3 OH2  OT    -0.834000       15.9994           0
  118622 WT8  2354 TIP3 H1   HT     0.417000        1.0080           0
  118623 WT8  2354 TIP3 H2   HT     0.417000        1.0080           0
  118624 WT8  2355 TIP3 OH2  OT    -0.834000       15.9994           0
  118625 WT8  2355 TIP3 H1   HT     0.417000        1.0080           0
  118626 WT8  2355 TIP3 H2   HT     0.417000        1.0080           0
  118627 WT8  2357 TIP3 OH2  OT    -0.834000       15.9994           0
  118628 WT8  2357 TIP3 H1   HT     0.417000        1.0080           0
  118629 WT8  2357 TIP3 H2   HT     0.417000        1.0080           0
  118630 WT8  2358 TIP3 OH2  OT    -0.834000       15.9994           0
  118631 WT8  2358 TIP3 H1   HT     0.417000        1.0080           0
  118632 WT8  2358 TIP3 H2   HT     0.417000        1.0080           0
  118633 WT8  2359 TIP3 OH2  OT    -0.834000       15.9994           0
  118634 WT8  2359 TIP3 H1   HT     0.417000        1.0080           0
  118635 WT8  2359 TIP3 H2   HT     0.417000        1.0080           0
  118636 WT8  2360 TIP3 OH2  OT    -0.834000       15.9994           0
  118637 WT8  2360 TIP3 H1   HT     0.417000        1.0080           0
  118638 WT8  2360 TIP3 H2   HT     0.417000        1.0080           0
  118639 WT8  2361 TIP3 OH2  OT    -0.834000       15.9994           0
  118640 WT8  2361 TIP3 H1   HT     0.417000        1.0080           0
  118641 WT8  2361 TIP3 H2   HT     0.417000        1.0080           0
  118642 WT8  2362 TIP3 OH2  OT    -0.834000       15.9994           0
  118643 WT8  2362 TIP3 H1   HT     0.417000        1.0080           0
  118644 WT8  2362 TIP3 H2   HT     0.417000        1.0080           0
  118645 WT8  2363 TIP3 OH2  OT    -0.834000       15.9994           0
  118646 WT8  2363 TIP3 H1   HT     0.417000        1.0080           0
  118647 WT8  2363 TIP3 H2   HT     0.417000        1.0080           0
  118648 WT8  2364 TIP3 OH2  OT    -0.834000       15.9994           0
  118649 WT8  2364 TIP3 H1   HT     0.417000        1.0080           0
  118650 WT8  2364 TIP3 H2   HT     0.417000        1.0080           0
  118651 WT8  2365 TIP3 OH2  OT    -0.834000       15.9994           0
  118652 WT8  2365 TIP3 H1   HT     0.417000        1.0080           0
  118653 WT8  2365 TIP3 H2   HT     0.417000        1.0080           0
  118654 WT8  2367 TIP3 OH2  OT    -0.834000       15.9994           0
  118655 WT8  2367 TIP3 H1   HT     0.417000        1.0080           0
  118656 WT8  2367 TIP3 H2   HT     0.417000        1.0080           0
  118657 WT8  2368 TIP3 OH2  OT    -0.834000       15.9994           0
  118658 WT8  2368 TIP3 H1   HT     0.417000        1.0080           0
  118659 WT8  2368 TIP3 H2   HT     0.417000        1.0080           0
  118660 WT8  2375 TIP3 OH2  OT    -0.834000       15.9994           0
  118661 WT8  2375 TIP3 H1   HT     0.417000        1.0080           0
  118662 WT8  2375 TIP3 H2   HT     0.417000        1.0080           0
  118663 WT8  2376 TIP3 OH2  OT    -0.834000       15.9994           0
  118664 WT8  2376 TIP3 H1   HT     0.417000        1.0080           0
  118665 WT8  2376 TIP3 H2   HT     0.417000        1.0080           0
  118666 WT8  2377 TIP3 OH2  OT    -0.834000       15.9994           0
  118667 WT8  2377 TIP3 H1   HT     0.417000        1.0080           0
  118668 WT8  2377 TIP3 H2   HT     0.417000        1.0080           0
  118669 WT8  2378 TIP3 OH2  OT    -0.834000       15.9994           0
  118670 WT8  2378 TIP3 H1   HT     0.417000        1.0080           0
  118671 WT8  2378 TIP3 H2   HT     0.417000        1.0080           0
  118672 WT8  2379 TIP3 OH2  OT    -0.834000       15.9994           0
  118673 WT8  2379 TIP3 H1   HT     0.417000        1.0080           0
  118674 WT8  2379 TIP3 H2   HT     0.417000        1.0080           0
  118675 WT8  2380 TIP3 OH2  OT    -0.834000       15.9994           0
  118676 WT8  2380 TIP3 H1   HT     0.417000        1.0080           0
  118677 WT8  2380 TIP3 H2   HT     0.417000        1.0080           0
  118678 WT8  2381 TIP3 OH2  OT    -0.834000       15.9994           0
  118679 WT8  2381 TIP3 H1   HT     0.417000        1.0080           0
  118680 WT8  2381 TIP3 H2   HT     0.417000        1.0080           0
  118681 WT8  2382 TIP3 OH2  OT    -0.834000       15.9994           0
  118682 WT8  2382 TIP3 H1   HT     0.417000        1.0080           0
  118683 WT8  2382 TIP3 H2   HT     0.417000        1.0080           0
  118684 WT8  2383 TIP3 OH2  OT    -0.834000       15.9994           0
  118685 WT8  2383 TIP3 H1   HT     0.417000        1.0080           0
  118686 WT8  2383 TIP3 H2   HT     0.417000        1.0080           0
  118687 WT8  2384 TIP3 OH2  OT    -0.834000       15.9994           0
  118688 WT8  2384 TIP3 H1   HT     0.417000        1.0080           0
  118689 WT8  2384 TIP3 H2   HT     0.417000        1.0080           0
  118690 WT8  2385 TIP3 OH2  OT    -0.834000       15.9994           0
  118691 WT8  2385 TIP3 H1   HT     0.417000        1.0080           0
  118692 WT8  2385 TIP3 H2   HT     0.417000        1.0080           0
  118693 WT8  2388 TIP3 OH2  OT    -0.834000       15.9994           0
  118694 WT8  2388 TIP3 H1   HT     0.417000        1.0080           0
  118695 WT8  2388 TIP3 H2   HT     0.417000        1.0080           0
  118696 WT8  2397 TIP3 OH2  OT    -0.834000       15.9994           0
  118697 WT8  2397 TIP3 H1   HT     0.417000        1.0080           0
  118698 WT8  2397 TIP3 H2   HT     0.417000        1.0080           0
  118699 WT8  2398 TIP3 OH2  OT    -0.834000       15.9994           0
  118700 WT8  2398 TIP3 H1   HT     0.417000        1.0080           0
  118701 WT8  2398 TIP3 H2   HT     0.417000        1.0080           0
  118702 WT8  2399 TIP3 OH2  OT    -0.834000       15.9994           0
  118703 WT8  2399 TIP3 H1   HT     0.417000        1.0080           0
  118704 WT8  2399 TIP3 H2   HT     0.417000        1.0080           0
  118705 WT8  2400 TIP3 OH2  OT    -0.834000       15.9994           0
  118706 WT8  2400 TIP3 H1   HT     0.417000        1.0080           0
  118707 WT8  2400 TIP3 H2   HT     0.417000        1.0080           0
  118708 WT8  2402 TIP3 OH2  OT    -0.834000       15.9994           0
  118709 WT8  2402 TIP3 H1   HT     0.417000        1.0080           0
  118710 WT8  2402 TIP3 H2   HT     0.417000        1.0080           0
  118711 WT8  2404 TIP3 OH2  OT    -0.834000       15.9994           0
  118712 WT8  2404 TIP3 H1   HT     0.417000        1.0080           0
  118713 WT8  2404 TIP3 H2   HT     0.417000        1.0080           0
  118714 WT8  2405 TIP3 OH2  OT    -0.834000       15.9994           0
  118715 WT8  2405 TIP3 H1   HT     0.417000        1.0080           0
  118716 WT8  2405 TIP3 H2   HT     0.417000        1.0080           0
  118717 WT8  2406 TIP3 OH2  OT    -0.834000       15.9994           0
  118718 WT8  2406 TIP3 H1   HT     0.417000        1.0080           0
  118719 WT8  2406 TIP3 H2   HT     0.417000        1.0080           0
  118720 WT8  2407 TIP3 OH2  OT    -0.834000       15.9994           0
  118721 WT8  2407 TIP3 H1   HT     0.417000        1.0080           0
  118722 WT8  2407 TIP3 H2   HT     0.417000        1.0080           0
  118723 WT8  2416 TIP3 OH2  OT    -0.834000       15.9994           0
  118724 WT8  2416 TIP3 H1   HT     0.417000        1.0080           0
  118725 WT8  2416 TIP3 H2   HT     0.417000        1.0080           0
  118726 WT8  2418 TIP3 OH2  OT    -0.834000       15.9994           0
  118727 WT8  2418 TIP3 H1   HT     0.417000        1.0080           0
  118728 WT8  2418 TIP3 H2   HT     0.417000        1.0080           0
  118729 WT8  2419 TIP3 OH2  OT    -0.834000       15.9994           0
  118730 WT8  2419 TIP3 H1   HT     0.417000        1.0080           0
  118731 WT8  2419 TIP3 H2   HT     0.417000        1.0080           0
  118732 WT8  2420 TIP3 OH2  OT    -0.834000       15.9994           0
  118733 WT8  2420 TIP3 H1   HT     0.417000        1.0080           0
  118734 WT8  2420 TIP3 H2   HT     0.417000        1.0080           0
  118735 WT8  2421 TIP3 OH2  OT    -0.834000       15.9994           0
  118736 WT8  2421 TIP3 H1   HT     0.417000        1.0080           0
  118737 WT8  2421 TIP3 H2   HT     0.417000        1.0080           0
  118738 WT8  2422 TIP3 OH2  OT    -0.834000       15.9994           0
  118739 WT8  2422 TIP3 H1   HT     0.417000        1.0080           0
  118740 WT8  2422 TIP3 H2   HT     0.417000        1.0080           0
  118741 WT8  2423 TIP3 OH2  OT    -0.834000       15.9994           0
  118742 WT8  2423 TIP3 H1   HT     0.417000        1.0080           0
  118743 WT8  2423 TIP3 H2   HT     0.417000        1.0080           0
  118744 WT8  2424 TIP3 OH2  OT    -0.834000       15.9994           0
  118745 WT8  2424 TIP3 H1   HT     0.417000        1.0080           0
  118746 WT8  2424 TIP3 H2   HT     0.417000        1.0080           0
  118747 WT8  2425 TIP3 OH2  OT    -0.834000       15.9994           0
  118748 WT8  2425 TIP3 H1   HT     0.417000        1.0080           0
  118749 WT8  2425 TIP3 H2   HT     0.417000        1.0080           0
  118750 WT8  2427 TIP3 OH2  OT    -0.834000       15.9994           0
  118751 WT8  2427 TIP3 H1   HT     0.417000        1.0080           0
  118752 WT8  2427 TIP3 H2   HT     0.417000        1.0080           0
  118753 WT8  2430 TIP3 OH2  OT    -0.834000       15.9994           0
  118754 WT8  2430 TIP3 H1   HT     0.417000        1.0080           0
  118755 WT8  2430 TIP3 H2   HT     0.417000        1.0080           0
  118756 WT8  2436 TIP3 OH2  OT    -0.834000       15.9994           0
  118757 WT8  2436 TIP3 H1   HT     0.417000        1.0080           0
  118758 WT8  2436 TIP3 H2   HT     0.417000        1.0080           0
  118759 WT8  2439 TIP3 OH2  OT    -0.834000       15.9994           0
  118760 WT8  2439 TIP3 H1   HT     0.417000        1.0080           0
  118761 WT8  2439 TIP3 H2   HT     0.417000        1.0080           0
  118762 WT8  2442 TIP3 OH2  OT    -0.834000       15.9994           0
  118763 WT8  2442 TIP3 H1   HT     0.417000        1.0080           0
  118764 WT8  2442 TIP3 H2   HT     0.417000        1.0080           0
  118765 WT8  2443 TIP3 OH2  OT    -0.834000       15.9994           0
  118766 WT8  2443 TIP3 H1   HT     0.417000        1.0080           0
  118767 WT8  2443 TIP3 H2   HT     0.417000        1.0080           0
  118768 WT8  2444 TIP3 OH2  OT    -0.834000       15.9994           0
  118769 WT8  2444 TIP3 H1   HT     0.417000        1.0080           0
  118770 WT8  2444 TIP3 H2   HT     0.417000        1.0080           0
  118771 WT8  2445 TIP3 OH2  OT    -0.834000       15.9994           0
  118772 WT8  2445 TIP3 H1   HT     0.417000        1.0080           0
  118773 WT8  2445 TIP3 H2   HT     0.417000        1.0080           0
  118774 WT8  2446 TIP3 OH2  OT    -0.834000       15.9994           0
  118775 WT8  2446 TIP3 H1   HT     0.417000        1.0080           0
  118776 WT8  2446 TIP3 H2   HT     0.417000        1.0080           0
  118777 WT8  2448 TIP3 OH2  OT    -0.834000       15.9994           0
  118778 WT8  2448 TIP3 H1   HT     0.417000        1.0080           0
  118779 WT8  2448 TIP3 H2   HT     0.417000        1.0080           0
  118780 WT8  2449 TIP3 OH2  OT    -0.834000       15.9994           0
  118781 WT8  2449 TIP3 H1   HT     0.417000        1.0080           0
  118782 WT8  2449 TIP3 H2   HT     0.417000        1.0080           0
  118783 WT8  2450 TIP3 OH2  OT    -0.834000       15.9994           0
  118784 WT8  2450 TIP3 H1   HT     0.417000        1.0080           0
  118785 WT8  2450 TIP3 H2   HT     0.417000        1.0080           0
  118786 WT8  2458 TIP3 OH2  OT    -0.834000       15.9994           0
  118787 WT8  2458 TIP3 H1   HT     0.417000        1.0080           0
  118788 WT8  2458 TIP3 H2   HT     0.417000        1.0080           0
  118789 WT8  2460 TIP3 OH2  OT    -0.834000       15.9994           0
  118790 WT8  2460 TIP3 H1   HT     0.417000        1.0080           0
  118791 WT8  2460 TIP3 H2   HT     0.417000        1.0080           0
  118792 WT8  2463 TIP3 OH2  OT    -0.834000       15.9994           0
  118793 WT8  2463 TIP3 H1   HT     0.417000        1.0080           0
  118794 WT8  2463 TIP3 H2   HT     0.417000        1.0080           0
  118795 WT8  2464 TIP3 OH2  OT    -0.834000       15.9994           0
  118796 WT8  2464 TIP3 H1   HT     0.417000        1.0080           0
  118797 WT8  2464 TIP3 H2   HT     0.417000        1.0080           0
  118798 WT8  2465 TIP3 OH2  OT    -0.834000       15.9994           0
  118799 WT8  2465 TIP3 H1   HT     0.417000        1.0080           0
  118800 WT8  2465 TIP3 H2   HT     0.417000        1.0080           0
  118801 WT8  2466 TIP3 OH2  OT    -0.834000       15.9994           0
  118802 WT8  2466 TIP3 H1   HT     0.417000        1.0080           0
  118803 WT8  2466 TIP3 H2   HT     0.417000        1.0080           0
  118804 WT8  2467 TIP3 OH2  OT    -0.834000       15.9994           0
  118805 WT8  2467 TIP3 H1   HT     0.417000        1.0080           0
  118806 WT8  2467 TIP3 H2   HT     0.417000        1.0080           0
  118807 WT8  2469 TIP3 OH2  OT    -0.834000       15.9994           0
  118808 WT8  2469 TIP3 H1   HT     0.417000        1.0080           0
  118809 WT8  2469 TIP3 H2   HT     0.417000        1.0080           0
  118810 WT8  2471 TIP3 OH2  OT    -0.834000       15.9994           0
  118811 WT8  2471 TIP3 H1   HT     0.417000        1.0080           0
  118812 WT8  2471 TIP3 H2   HT     0.417000        1.0080           0
  118813 WT8  2473 TIP3 OH2  OT    -0.834000       15.9994           0
  118814 WT8  2473 TIP3 H1   HT     0.417000        1.0080           0
  118815 WT8  2473 TIP3 H2   HT     0.417000        1.0080           0
  118816 WT8  2477 TIP3 OH2  OT    -0.834000       15.9994           0
  118817 WT8  2477 TIP3 H1   HT     0.417000        1.0080           0
  118818 WT8  2477 TIP3 H2   HT     0.417000        1.0080           0
  118819 WT8  2479 TIP3 OH2  OT    -0.834000       15.9994           0
  118820 WT8  2479 TIP3 H1   HT     0.417000        1.0080           0
  118821 WT8  2479 TIP3 H2   HT     0.417000        1.0080           0
  118822 WT8  2480 TIP3 OH2  OT    -0.834000       15.9994           0
  118823 WT8  2480 TIP3 H1   HT     0.417000        1.0080           0
  118824 WT8  2480 TIP3 H2   HT     0.417000        1.0080           0
  118825 WT8  2482 TIP3 OH2  OT    -0.834000       15.9994           0
  118826 WT8  2482 TIP3 H1   HT     0.417000        1.0080           0
  118827 WT8  2482 TIP3 H2   HT     0.417000        1.0080           0
  118828 WT8  2484 TIP3 OH2  OT    -0.834000       15.9994           0
  118829 WT8  2484 TIP3 H1   HT     0.417000        1.0080           0
  118830 WT8  2484 TIP3 H2   HT     0.417000        1.0080           0
  118831 WT8  2485 TIP3 OH2  OT    -0.834000       15.9994           0
  118832 WT8  2485 TIP3 H1   HT     0.417000        1.0080           0
  118833 WT8  2485 TIP3 H2   HT     0.417000        1.0080           0
  118834 WT8  2488 TIP3 OH2  OT    -0.834000       15.9994           0
  118835 WT8  2488 TIP3 H1   HT     0.417000        1.0080           0
  118836 WT8  2488 TIP3 H2   HT     0.417000        1.0080           0
  118837 WT8  2489 TIP3 OH2  OT    -0.834000       15.9994           0
  118838 WT8  2489 TIP3 H1   HT     0.417000        1.0080           0
  118839 WT8  2489 TIP3 H2   HT     0.417000        1.0080           0
  118840 WT8  2492 TIP3 OH2  OT    -0.834000       15.9994           0
  118841 WT8  2492 TIP3 H1   HT     0.417000        1.0080           0
  118842 WT8  2492 TIP3 H2   HT     0.417000        1.0080           0
  118843 WT8  2500 TIP3 OH2  OT    -0.834000       15.9994           0
  118844 WT8  2500 TIP3 H1   HT     0.417000        1.0080           0
  118845 WT8  2500 TIP3 H2   HT     0.417000        1.0080           0
  118846 WT8  2501 TIP3 OH2  OT    -0.834000       15.9994           0
  118847 WT8  2501 TIP3 H1   HT     0.417000        1.0080           0
  118848 WT8  2501 TIP3 H2   HT     0.417000        1.0080           0
  118849 WT8  2504 TIP3 OH2  OT    -0.834000       15.9994           0
  118850 WT8  2504 TIP3 H1   HT     0.417000        1.0080           0
  118851 WT8  2504 TIP3 H2   HT     0.417000        1.0080           0
  118852 WT8  2505 TIP3 OH2  OT    -0.834000       15.9994           0
  118853 WT8  2505 TIP3 H1   HT     0.417000        1.0080           0
  118854 WT8  2505 TIP3 H2   HT     0.417000        1.0080           0
  118855 WT8  2506 TIP3 OH2  OT    -0.834000       15.9994           0
  118856 WT8  2506 TIP3 H1   HT     0.417000        1.0080           0
  118857 WT8  2506 TIP3 H2   HT     0.417000        1.0080           0
  118858 WT8  2507 TIP3 OH2  OT    -0.834000       15.9994           0
  118859 WT8  2507 TIP3 H1   HT     0.417000        1.0080           0
  118860 WT8  2507 TIP3 H2   HT     0.417000        1.0080           0
  118861 WT8  2508 TIP3 OH2  OT    -0.834000       15.9994           0
  118862 WT8  2508 TIP3 H1   HT     0.417000        1.0080           0
  118863 WT8  2508 TIP3 H2   HT     0.417000        1.0080           0
  118864 WT8  2511 TIP3 OH2  OT    -0.834000       15.9994           0
  118865 WT8  2511 TIP3 H1   HT     0.417000        1.0080           0
  118866 WT8  2511 TIP3 H2   HT     0.417000        1.0080           0
  118867 WT8  2512 TIP3 OH2  OT    -0.834000       15.9994           0
  118868 WT8  2512 TIP3 H1   HT     0.417000        1.0080           0
  118869 WT8  2512 TIP3 H2   HT     0.417000        1.0080           0
  118870 WT8  2513 TIP3 OH2  OT    -0.834000       15.9994           0
  118871 WT8  2513 TIP3 H1   HT     0.417000        1.0080           0
  118872 WT8  2513 TIP3 H2   HT     0.417000        1.0080           0
  118873 WT8  2515 TIP3 OH2  OT    -0.834000       15.9994           0
  118874 WT8  2515 TIP3 H1   HT     0.417000        1.0080           0
  118875 WT8  2515 TIP3 H2   HT     0.417000        1.0080           0
  118876 WT8  2519 TIP3 OH2  OT    -0.834000       15.9994           0
  118877 WT8  2519 TIP3 H1   HT     0.417000        1.0080           0
  118878 WT8  2519 TIP3 H2   HT     0.417000        1.0080           0
  118879 WT8  2523 TIP3 OH2  OT    -0.834000       15.9994           0
  118880 WT8  2523 TIP3 H1   HT     0.417000        1.0080           0
  118881 WT8  2523 TIP3 H2   HT     0.417000        1.0080           0
  118882 WT8  2528 TIP3 OH2  OT    -0.834000       15.9994           0
  118883 WT8  2528 TIP3 H1   HT     0.417000        1.0080           0
  118884 WT8  2528 TIP3 H2   HT     0.417000        1.0080           0
  118885 WT8  2541 TIP3 OH2  OT    -0.834000       15.9994           0
  118886 WT8  2541 TIP3 H1   HT     0.417000        1.0080           0
  118887 WT8  2541 TIP3 H2   HT     0.417000        1.0080           0
  118888 WT8  2563 TIP3 OH2  OT    -0.834000       15.9994           0
  118889 WT8  2563 TIP3 H1   HT     0.417000        1.0080           0
  118890 WT8  2563 TIP3 H2   HT     0.417000        1.0080           0
  118891 WT8  2582 TIP3 OH2  OT    -0.834000       15.9994           0
  118892 WT8  2582 TIP3 H1   HT     0.417000        1.0080           0
  118893 WT8  2582 TIP3 H2   HT     0.417000        1.0080           0
  118894 WT8  2587 TIP3 OH2  OT    -0.834000       15.9994           0
  118895 WT8  2587 TIP3 H1   HT     0.417000        1.0080           0
  118896 WT8  2587 TIP3 H2   HT     0.417000        1.0080           0
  118897 WT8  2591 TIP3 OH2  OT    -0.834000       15.9994           0
  118898 WT8  2591 TIP3 H1   HT     0.417000        1.0080           0
  118899 WT8  2591 TIP3 H2   HT     0.417000        1.0080           0
  118900 WT8  2598 TIP3 OH2  OT    -0.834000       15.9994           0
  118901 WT8  2598 TIP3 H1   HT     0.417000        1.0080           0
  118902 WT8  2598 TIP3 H2   HT     0.417000        1.0080           0
  118903 WT8  2606 TIP3 OH2  OT    -0.834000       15.9994           0
  118904 WT8  2606 TIP3 H1   HT     0.417000        1.0080           0
  118905 WT8  2606 TIP3 H2   HT     0.417000        1.0080           0
  118906 WT8  2607 TIP3 OH2  OT    -0.834000       15.9994           0
  118907 WT8  2607 TIP3 H1   HT     0.417000        1.0080           0
  118908 WT8  2607 TIP3 H2   HT     0.417000        1.0080           0
  118909 WT8  2610 TIP3 OH2  OT    -0.834000       15.9994           0
  118910 WT8  2610 TIP3 H1   HT     0.417000        1.0080           0
  118911 WT8  2610 TIP3 H2   HT     0.417000        1.0080           0
  118912 WT8  2616 TIP3 OH2  OT    -0.834000       15.9994           0
  118913 WT8  2616 TIP3 H1   HT     0.417000        1.0080           0
  118914 WT8  2616 TIP3 H2   HT     0.417000        1.0080           0
  118915 WT8  2617 TIP3 OH2  OT    -0.834000       15.9994           0
  118916 WT8  2617 TIP3 H1   HT     0.417000        1.0080           0
  118917 WT8  2617 TIP3 H2   HT     0.417000        1.0080           0
  118918 WT8  2624 TIP3 OH2  OT    -0.834000       15.9994           0
  118919 WT8  2624 TIP3 H1   HT     0.417000        1.0080           0
  118920 WT8  2624 TIP3 H2   HT     0.417000        1.0080           0
  118921 WT8  2628 TIP3 OH2  OT    -0.834000       15.9994           0
  118922 WT8  2628 TIP3 H1   HT     0.417000        1.0080           0
  118923 WT8  2628 TIP3 H2   HT     0.417000        1.0080           0
  118924 WT8  2630 TIP3 OH2  OT    -0.834000       15.9994           0
  118925 WT8  2630 TIP3 H1   HT     0.417000        1.0080           0
  118926 WT8  2630 TIP3 H2   HT     0.417000        1.0080           0
  118927 WT8  2632 TIP3 OH2  OT    -0.834000       15.9994           0
  118928 WT8  2632 TIP3 H1   HT     0.417000        1.0080           0
  118929 WT8  2632 TIP3 H2   HT     0.417000        1.0080           0
  118930 WT8  2633 TIP3 OH2  OT    -0.834000       15.9994           0
  118931 WT8  2633 TIP3 H1   HT     0.417000        1.0080           0
  118932 WT8  2633 TIP3 H2   HT     0.417000        1.0080           0
  118933 WT8  2634 TIP3 OH2  OT    -0.834000       15.9994           0
  118934 WT8  2634 TIP3 H1   HT     0.417000        1.0080           0
  118935 WT8  2634 TIP3 H2   HT     0.417000        1.0080           0
  118936 WT8  2635 TIP3 OH2  OT    -0.834000       15.9994           0
  118937 WT8  2635 TIP3 H1   HT     0.417000        1.0080           0
  118938 WT8  2635 TIP3 H2   HT     0.417000        1.0080           0
  118939 WT8  2643 TIP3 OH2  OT    -0.834000       15.9994           0
  118940 WT8  2643 TIP3 H1   HT     0.417000        1.0080           0
  118941 WT8  2643 TIP3 H2   HT     0.417000        1.0080           0
  118942 WT8  2644 TIP3 OH2  OT    -0.834000       15.9994           0
  118943 WT8  2644 TIP3 H1   HT     0.417000        1.0080           0
  118944 WT8  2644 TIP3 H2   HT     0.417000        1.0080           0
  118945 WT8  2649 TIP3 OH2  OT    -0.834000       15.9994           0
  118946 WT8  2649 TIP3 H1   HT     0.417000        1.0080           0
  118947 WT8  2649 TIP3 H2   HT     0.417000        1.0080           0
  118948 WT8  2650 TIP3 OH2  OT    -0.834000       15.9994           0
  118949 WT8  2650 TIP3 H1   HT     0.417000        1.0080           0
  118950 WT8  2650 TIP3 H2   HT     0.417000        1.0080           0
  118951 WT8  2652 TIP3 OH2  OT    -0.834000       15.9994           0
  118952 WT8  2652 TIP3 H1   HT     0.417000        1.0080           0
  118953 WT8  2652 TIP3 H2   HT     0.417000        1.0080           0
  118954 WT8  2654 TIP3 OH2  OT    -0.834000       15.9994           0
  118955 WT8  2654 TIP3 H1   HT     0.417000        1.0080           0
  118956 WT8  2654 TIP3 H2   HT     0.417000        1.0080           0
  118957 WT8  2656 TIP3 OH2  OT    -0.834000       15.9994           0
  118958 WT8  2656 TIP3 H1   HT     0.417000        1.0080           0
  118959 WT8  2656 TIP3 H2   HT     0.417000        1.0080           0
  118960 WT8  2657 TIP3 OH2  OT    -0.834000       15.9994           0
  118961 WT8  2657 TIP3 H1   HT     0.417000        1.0080           0
  118962 WT8  2657 TIP3 H2   HT     0.417000        1.0080           0
  118963 WT8  2659 TIP3 OH2  OT    -0.834000       15.9994           0
  118964 WT8  2659 TIP3 H1   HT     0.417000        1.0080           0
  118965 WT8  2659 TIP3 H2   HT     0.417000        1.0080           0
  118966 WT8  2662 TIP3 OH2  OT    -0.834000       15.9994           0
  118967 WT8  2662 TIP3 H1   HT     0.417000        1.0080           0
  118968 WT8  2662 TIP3 H2   HT     0.417000        1.0080           0
  118969 WT8  2667 TIP3 OH2  OT    -0.834000       15.9994           0
  118970 WT8  2667 TIP3 H1   HT     0.417000        1.0080           0
  118971 WT8  2667 TIP3 H2   HT     0.417000        1.0080           0
  118972 WT8  2669 TIP3 OH2  OT    -0.834000       15.9994           0
  118973 WT8  2669 TIP3 H1   HT     0.417000        1.0080           0
  118974 WT8  2669 TIP3 H2   HT     0.417000        1.0080           0
  118975 WT8  2670 TIP3 OH2  OT    -0.834000       15.9994           0
  118976 WT8  2670 TIP3 H1   HT     0.417000        1.0080           0
  118977 WT8  2670 TIP3 H2   HT     0.417000        1.0080           0
  118978 WT8  2672 TIP3 OH2  OT    -0.834000       15.9994           0
  118979 WT8  2672 TIP3 H1   HT     0.417000        1.0080           0
  118980 WT8  2672 TIP3 H2   HT     0.417000        1.0080           0
  118981 WT8  2673 TIP3 OH2  OT    -0.834000       15.9994           0
  118982 WT8  2673 TIP3 H1   HT     0.417000        1.0080           0
  118983 WT8  2673 TIP3 H2   HT     0.417000        1.0080           0
  118984 WT8  2674 TIP3 OH2  OT    -0.834000       15.9994           0
  118985 WT8  2674 TIP3 H1   HT     0.417000        1.0080           0
  118986 WT8  2674 TIP3 H2   HT     0.417000        1.0080           0
  118987 WT8  2675 TIP3 OH2  OT    -0.834000       15.9994           0
  118988 WT8  2675 TIP3 H1   HT     0.417000        1.0080           0
  118989 WT8  2675 TIP3 H2   HT     0.417000        1.0080           0
  118990 WT8  2676 TIP3 OH2  OT    -0.834000       15.9994           0
  118991 WT8  2676 TIP3 H1   HT     0.417000        1.0080           0
  118992 WT8  2676 TIP3 H2   HT     0.417000        1.0080           0
  118993 WT8  2677 TIP3 OH2  OT    -0.834000       15.9994           0
  118994 WT8  2677 TIP3 H1   HT     0.417000        1.0080           0
  118995 WT8  2677 TIP3 H2   HT     0.417000        1.0080           0
  118996 WT8  2678 TIP3 OH2  OT    -0.834000       15.9994           0
  118997 WT8  2678 TIP3 H1   HT     0.417000        1.0080           0
  118998 WT8  2678 TIP3 H2   HT     0.417000        1.0080           0
  118999 WT8  2680 TIP3 OH2  OT    -0.834000       15.9994           0
  119000 WT8  2680 TIP3 H1   HT     0.417000        1.0080           0
  119001 WT8  2680 TIP3 H2   HT     0.417000        1.0080           0
  119002 WT8  2681 TIP3 OH2  OT    -0.834000       15.9994           0
  119003 WT8  2681 TIP3 H1   HT     0.417000        1.0080           0
  119004 WT8  2681 TIP3 H2   HT     0.417000        1.0080           0
  119005 WT8  2682 TIP3 OH2  OT    -0.834000       15.9994           0
  119006 WT8  2682 TIP3 H1   HT     0.417000        1.0080           0
  119007 WT8  2682 TIP3 H2   HT     0.417000        1.0080           0
  119008 WT8  2683 TIP3 OH2  OT    -0.834000       15.9994           0
  119009 WT8  2683 TIP3 H1   HT     0.417000        1.0080           0
  119010 WT8  2683 TIP3 H2   HT     0.417000        1.0080           0
  119011 WT8  2684 TIP3 OH2  OT    -0.834000       15.9994           0
  119012 WT8  2684 TIP3 H1   HT     0.417000        1.0080           0
  119013 WT8  2684 TIP3 H2   HT     0.417000        1.0080           0
  119014 WT8  2689 TIP3 OH2  OT    -0.834000       15.9994           0
  119015 WT8  2689 TIP3 H1   HT     0.417000        1.0080           0
  119016 WT8  2689 TIP3 H2   HT     0.417000        1.0080           0
  119017 WT8  2690 TIP3 OH2  OT    -0.834000       15.9994           0
  119018 WT8  2690 TIP3 H1   HT     0.417000        1.0080           0
  119019 WT8  2690 TIP3 H2   HT     0.417000        1.0080           0
  119020 WT8  2691 TIP3 OH2  OT    -0.834000       15.9994           0
  119021 WT8  2691 TIP3 H1   HT     0.417000        1.0080           0
  119022 WT8  2691 TIP3 H2   HT     0.417000        1.0080           0
  119023 WT8  2692 TIP3 OH2  OT    -0.834000       15.9994           0
  119024 WT8  2692 TIP3 H1   HT     0.417000        1.0080           0
  119025 WT8  2692 TIP3 H2   HT     0.417000        1.0080           0
  119026 WT8  2693 TIP3 OH2  OT    -0.834000       15.9994           0
  119027 WT8  2693 TIP3 H1   HT     0.417000        1.0080           0
  119028 WT8  2693 TIP3 H2   HT     0.417000        1.0080           0
  119029 WT8  2694 TIP3 OH2  OT    -0.834000       15.9994           0
  119030 WT8  2694 TIP3 H1   HT     0.417000        1.0080           0
  119031 WT8  2694 TIP3 H2   HT     0.417000        1.0080           0
  119032 WT8  2695 TIP3 OH2  OT    -0.834000       15.9994           0
  119033 WT8  2695 TIP3 H1   HT     0.417000        1.0080           0
  119034 WT8  2695 TIP3 H2   HT     0.417000        1.0080           0
  119035 WT8  2696 TIP3 OH2  OT    -0.834000       15.9994           0
  119036 WT8  2696 TIP3 H1   HT     0.417000        1.0080           0
  119037 WT8  2696 TIP3 H2   HT     0.417000        1.0080           0
  119038 WT8  2697 TIP3 OH2  OT    -0.834000       15.9994           0
  119039 WT8  2697 TIP3 H1   HT     0.417000        1.0080           0
  119040 WT8  2697 TIP3 H2   HT     0.417000        1.0080           0
  119041 WT8  2698 TIP3 OH2  OT    -0.834000       15.9994           0
  119042 WT8  2698 TIP3 H1   HT     0.417000        1.0080           0
  119043 WT8  2698 TIP3 H2   HT     0.417000        1.0080           0
  119044 WT8  2699 TIP3 OH2  OT    -0.834000       15.9994           0
  119045 WT8  2699 TIP3 H1   HT     0.417000        1.0080           0
  119046 WT8  2699 TIP3 H2   HT     0.417000        1.0080           0
  119047 WT8  2701 TIP3 OH2  OT    -0.834000       15.9994           0
  119048 WT8  2701 TIP3 H1   HT     0.417000        1.0080           0
  119049 WT8  2701 TIP3 H2   HT     0.417000        1.0080           0
  119050 WT8  2703 TIP3 OH2  OT    -0.834000       15.9994           0
  119051 WT8  2703 TIP3 H1   HT     0.417000        1.0080           0
  119052 WT8  2703 TIP3 H2   HT     0.417000        1.0080           0
  119053 WT8  2709 TIP3 OH2  OT    -0.834000       15.9994           0
  119054 WT8  2709 TIP3 H1   HT     0.417000        1.0080           0
  119055 WT8  2709 TIP3 H2   HT     0.417000        1.0080           0
  119056 WT8  2710 TIP3 OH2  OT    -0.834000       15.9994           0
  119057 WT8  2710 TIP3 H1   HT     0.417000        1.0080           0
  119058 WT8  2710 TIP3 H2   HT     0.417000        1.0080           0
  119059 WT8  2713 TIP3 OH2  OT    -0.834000       15.9994           0
  119060 WT8  2713 TIP3 H1   HT     0.417000        1.0080           0
  119061 WT8  2713 TIP3 H2   HT     0.417000        1.0080           0
  119062 WT8  2714 TIP3 OH2  OT    -0.834000       15.9994           0
  119063 WT8  2714 TIP3 H1   HT     0.417000        1.0080           0
  119064 WT8  2714 TIP3 H2   HT     0.417000        1.0080           0
  119065 WT8  2715 TIP3 OH2  OT    -0.834000       15.9994           0
  119066 WT8  2715 TIP3 H1   HT     0.417000        1.0080           0
  119067 WT8  2715 TIP3 H2   HT     0.417000        1.0080           0
  119068 WT8  2717 TIP3 OH2  OT    -0.834000       15.9994           0
  119069 WT8  2717 TIP3 H1   HT     0.417000        1.0080           0
  119070 WT8  2717 TIP3 H2   HT     0.417000        1.0080           0
  119071 WT8  2718 TIP3 OH2  OT    -0.834000       15.9994           0
  119072 WT8  2718 TIP3 H1   HT     0.417000        1.0080           0
  119073 WT8  2718 TIP3 H2   HT     0.417000        1.0080           0
  119074 WT8  2719 TIP3 OH2  OT    -0.834000       15.9994           0
  119075 WT8  2719 TIP3 H1   HT     0.417000        1.0080           0
  119076 WT8  2719 TIP3 H2   HT     0.417000        1.0080           0
  119077 WT8  2720 TIP3 OH2  OT    -0.834000       15.9994           0
  119078 WT8  2720 TIP3 H1   HT     0.417000        1.0080           0
  119079 WT8  2720 TIP3 H2   HT     0.417000        1.0080           0
  119080 WT8  2721 TIP3 OH2  OT    -0.834000       15.9994           0
  119081 WT8  2721 TIP3 H1   HT     0.417000        1.0080           0
  119082 WT8  2721 TIP3 H2   HT     0.417000        1.0080           0
  119083 WT8  2722 TIP3 OH2  OT    -0.834000       15.9994           0
  119084 WT8  2722 TIP3 H1   HT     0.417000        1.0080           0
  119085 WT8  2722 TIP3 H2   HT     0.417000        1.0080           0
  119086 WT8  2723 TIP3 OH2  OT    -0.834000       15.9994           0
  119087 WT8  2723 TIP3 H1   HT     0.417000        1.0080           0
  119088 WT8  2723 TIP3 H2   HT     0.417000        1.0080           0
  119089 WT8  2724 TIP3 OH2  OT    -0.834000       15.9994           0
  119090 WT8  2724 TIP3 H1   HT     0.417000        1.0080           0
  119091 WT8  2724 TIP3 H2   HT     0.417000        1.0080           0
  119092 WT8  2732 TIP3 OH2  OT    -0.834000       15.9994           0
  119093 WT8  2732 TIP3 H1   HT     0.417000        1.0080           0
  119094 WT8  2732 TIP3 H2   HT     0.417000        1.0080           0
  119095 WT8  2734 TIP3 OH2  OT    -0.834000       15.9994           0
  119096 WT8  2734 TIP3 H1   HT     0.417000        1.0080           0
  119097 WT8  2734 TIP3 H2   HT     0.417000        1.0080           0
  119098 WT8  2735 TIP3 OH2  OT    -0.834000       15.9994           0
  119099 WT8  2735 TIP3 H1   HT     0.417000        1.0080           0
  119100 WT8  2735 TIP3 H2   HT     0.417000        1.0080           0
  119101 WT8  2736 TIP3 OH2  OT    -0.834000       15.9994           0
  119102 WT8  2736 TIP3 H1   HT     0.417000        1.0080           0
  119103 WT8  2736 TIP3 H2   HT     0.417000        1.0080           0
  119104 WT8  2737 TIP3 OH2  OT    -0.834000       15.9994           0
  119105 WT8  2737 TIP3 H1   HT     0.417000        1.0080           0
  119106 WT8  2737 TIP3 H2   HT     0.417000        1.0080           0
  119107 WT8  2738 TIP3 OH2  OT    -0.834000       15.9994           0
  119108 WT8  2738 TIP3 H1   HT     0.417000        1.0080           0
  119109 WT8  2738 TIP3 H2   HT     0.417000        1.0080           0
  119110 WT8  2739 TIP3 OH2  OT    -0.834000       15.9994           0
  119111 WT8  2739 TIP3 H1   HT     0.417000        1.0080           0
  119112 WT8  2739 TIP3 H2   HT     0.417000        1.0080           0
  119113 WT8  2740 TIP3 OH2  OT    -0.834000       15.9994           0
  119114 WT8  2740 TIP3 H1   HT     0.417000        1.0080           0
  119115 WT8  2740 TIP3 H2   HT     0.417000        1.0080           0
  119116 WT8  2741 TIP3 OH2  OT    -0.834000       15.9994           0
  119117 WT8  2741 TIP3 H1   HT     0.417000        1.0080           0
  119118 WT8  2741 TIP3 H2   HT     0.417000        1.0080           0
  119119 WT8  2743 TIP3 OH2  OT    -0.834000       15.9994           0
  119120 WT8  2743 TIP3 H1   HT     0.417000        1.0080           0
  119121 WT8  2743 TIP3 H2   HT     0.417000        1.0080           0
  119122 WT8  2746 TIP3 OH2  OT    -0.834000       15.9994           0
  119123 WT8  2746 TIP3 H1   HT     0.417000        1.0080           0
  119124 WT8  2746 TIP3 H2   HT     0.417000        1.0080           0
  119125 WT8  2753 TIP3 OH2  OT    -0.834000       15.9994           0
  119126 WT8  2753 TIP3 H1   HT     0.417000        1.0080           0
  119127 WT8  2753 TIP3 H2   HT     0.417000        1.0080           0
  119128 WT8  2754 TIP3 OH2  OT    -0.834000       15.9994           0
  119129 WT8  2754 TIP3 H1   HT     0.417000        1.0080           0
  119130 WT8  2754 TIP3 H2   HT     0.417000        1.0080           0
  119131 WT8  2755 TIP3 OH2  OT    -0.834000       15.9994           0
  119132 WT8  2755 TIP3 H1   HT     0.417000        1.0080           0
  119133 WT8  2755 TIP3 H2   HT     0.417000        1.0080           0
  119134 WT8  2756 TIP3 OH2  OT    -0.834000       15.9994           0
  119135 WT8  2756 TIP3 H1   HT     0.417000        1.0080           0
  119136 WT8  2756 TIP3 H2   HT     0.417000        1.0080           0
  119137 WT8  2757 TIP3 OH2  OT    -0.834000       15.9994           0
  119138 WT8  2757 TIP3 H1   HT     0.417000        1.0080           0
  119139 WT8  2757 TIP3 H2   HT     0.417000        1.0080           0
  119140 WT8  2758 TIP3 OH2  OT    -0.834000       15.9994           0
  119141 WT8  2758 TIP3 H1   HT     0.417000        1.0080           0
  119142 WT8  2758 TIP3 H2   HT     0.417000        1.0080           0
  119143 WT8  2759 TIP3 OH2  OT    -0.834000       15.9994           0
  119144 WT8  2759 TIP3 H1   HT     0.417000        1.0080           0
  119145 WT8  2759 TIP3 H2   HT     0.417000        1.0080           0
  119146 WT8  2760 TIP3 OH2  OT    -0.834000       15.9994           0
  119147 WT8  2760 TIP3 H1   HT     0.417000        1.0080           0
  119148 WT8  2760 TIP3 H2   HT     0.417000        1.0080           0
  119149 WT8  2761 TIP3 OH2  OT    -0.834000       15.9994           0
  119150 WT8  2761 TIP3 H1   HT     0.417000        1.0080           0
  119151 WT8  2761 TIP3 H2   HT     0.417000        1.0080           0
  119152 WT8  2762 TIP3 OH2  OT    -0.834000       15.9994           0
  119153 WT8  2762 TIP3 H1   HT     0.417000        1.0080           0
  119154 WT8  2762 TIP3 H2   HT     0.417000        1.0080           0
  119155 WT8  2767 TIP3 OH2  OT    -0.834000       15.9994           0
  119156 WT8  2767 TIP3 H1   HT     0.417000        1.0080           0
  119157 WT8  2767 TIP3 H2   HT     0.417000        1.0080           0
  119158 WT8  2771 TIP3 OH2  OT    -0.834000       15.9994           0
  119159 WT8  2771 TIP3 H1   HT     0.417000        1.0080           0
  119160 WT8  2771 TIP3 H2   HT     0.417000        1.0080           0
  119161 WT8  2773 TIP3 OH2  OT    -0.834000       15.9994           0
  119162 WT8  2773 TIP3 H1   HT     0.417000        1.0080           0
  119163 WT8  2773 TIP3 H2   HT     0.417000        1.0080           0
  119164 WT8  2774 TIP3 OH2  OT    -0.834000       15.9994           0
  119165 WT8  2774 TIP3 H1   HT     0.417000        1.0080           0
  119166 WT8  2774 TIP3 H2   HT     0.417000        1.0080           0
  119167 WT8  2775 TIP3 OH2  OT    -0.834000       15.9994           0
  119168 WT8  2775 TIP3 H1   HT     0.417000        1.0080           0
  119169 WT8  2775 TIP3 H2   HT     0.417000        1.0080           0
  119170 WT8  2776 TIP3 OH2  OT    -0.834000       15.9994           0
  119171 WT8  2776 TIP3 H1   HT     0.417000        1.0080           0
  119172 WT8  2776 TIP3 H2   HT     0.417000        1.0080           0
  119173 WT8  2777 TIP3 OH2  OT    -0.834000       15.9994           0
  119174 WT8  2777 TIP3 H1   HT     0.417000        1.0080           0
  119175 WT8  2777 TIP3 H2   HT     0.417000        1.0080           0
  119176 WT8  2778 TIP3 OH2  OT    -0.834000       15.9994           0
  119177 WT8  2778 TIP3 H1   HT     0.417000        1.0080           0
  119178 WT8  2778 TIP3 H2   HT     0.417000        1.0080           0
  119179 WT8  2779 TIP3 OH2  OT    -0.834000       15.9994           0
  119180 WT8  2779 TIP3 H1   HT     0.417000        1.0080           0
  119181 WT8  2779 TIP3 H2   HT     0.417000        1.0080           0
  119182 WT8  2780 TIP3 OH2  OT    -0.834000       15.9994           0
  119183 WT8  2780 TIP3 H1   HT     0.417000        1.0080           0
  119184 WT8  2780 TIP3 H2   HT     0.417000        1.0080           0
  119185 WT8  2781 TIP3 OH2  OT    -0.834000       15.9994           0
  119186 WT8  2781 TIP3 H1   HT     0.417000        1.0080           0
  119187 WT8  2781 TIP3 H2   HT     0.417000        1.0080           0
  119188 WT8  2782 TIP3 OH2  OT    -0.834000       15.9994           0
  119189 WT8  2782 TIP3 H1   HT     0.417000        1.0080           0
  119190 WT8  2782 TIP3 H2   HT     0.417000        1.0080           0
  119191 WT8  2783 TIP3 OH2  OT    -0.834000       15.9994           0
  119192 WT8  2783 TIP3 H1   HT     0.417000        1.0080           0
  119193 WT8  2783 TIP3 H2   HT     0.417000        1.0080           0
  119194 WT8  2784 TIP3 OH2  OT    -0.834000       15.9994           0
  119195 WT8  2784 TIP3 H1   HT     0.417000        1.0080           0
  119196 WT8  2784 TIP3 H2   HT     0.417000        1.0080           0
  119197 WT8  2785 TIP3 OH2  OT    -0.834000       15.9994           0
  119198 WT8  2785 TIP3 H1   HT     0.417000        1.0080           0
  119199 WT8  2785 TIP3 H2   HT     0.417000        1.0080           0
  119200 WT8  2790 TIP3 OH2  OT    -0.834000       15.9994           0
  119201 WT8  2790 TIP3 H1   HT     0.417000        1.0080           0
  119202 WT8  2790 TIP3 H2   HT     0.417000        1.0080           0
  119203 WT8  2793 TIP3 OH2  OT    -0.834000       15.9994           0
  119204 WT8  2793 TIP3 H1   HT     0.417000        1.0080           0
  119205 WT8  2793 TIP3 H2   HT     0.417000        1.0080           0
  119206 WT8  2794 TIP3 OH2  OT    -0.834000       15.9994           0
  119207 WT8  2794 TIP3 H1   HT     0.417000        1.0080           0
  119208 WT8  2794 TIP3 H2   HT     0.417000        1.0080           0
  119209 WT8  2795 TIP3 OH2  OT    -0.834000       15.9994           0
  119210 WT8  2795 TIP3 H1   HT     0.417000        1.0080           0
  119211 WT8  2795 TIP3 H2   HT     0.417000        1.0080           0
  119212 WT8  2796 TIP3 OH2  OT    -0.834000       15.9994           0
  119213 WT8  2796 TIP3 H1   HT     0.417000        1.0080           0
  119214 WT8  2796 TIP3 H2   HT     0.417000        1.0080           0
  119215 WT8  2797 TIP3 OH2  OT    -0.834000       15.9994           0
  119216 WT8  2797 TIP3 H1   HT     0.417000        1.0080           0
  119217 WT8  2797 TIP3 H2   HT     0.417000        1.0080           0
  119218 WT8  2799 TIP3 OH2  OT    -0.834000       15.9994           0
  119219 WT8  2799 TIP3 H1   HT     0.417000        1.0080           0
  119220 WT8  2799 TIP3 H2   HT     0.417000        1.0080           0
  119221 WT8  2800 TIP3 OH2  OT    -0.834000       15.9994           0
  119222 WT8  2800 TIP3 H1   HT     0.417000        1.0080           0
  119223 WT8  2800 TIP3 H2   HT     0.417000        1.0080           0
  119224 WT8  2801 TIP3 OH2  OT    -0.834000       15.9994           0
  119225 WT8  2801 TIP3 H1   HT     0.417000        1.0080           0
  119226 WT8  2801 TIP3 H2   HT     0.417000        1.0080           0
  119227 WT8  2802 TIP3 OH2  OT    -0.834000       15.9994           0
  119228 WT8  2802 TIP3 H1   HT     0.417000        1.0080           0
  119229 WT8  2802 TIP3 H2   HT     0.417000        1.0080           0
  119230 WT8  2803 TIP3 OH2  OT    -0.834000       15.9994           0
  119231 WT8  2803 TIP3 H1   HT     0.417000        1.0080           0
  119232 WT8  2803 TIP3 H2   HT     0.417000        1.0080           0
  119233 WT8  2806 TIP3 OH2  OT    -0.834000       15.9994           0
  119234 WT8  2806 TIP3 H1   HT     0.417000        1.0080           0
  119235 WT8  2806 TIP3 H2   HT     0.417000        1.0080           0
  119236 WT8  2815 TIP3 OH2  OT    -0.834000       15.9994           0
  119237 WT8  2815 TIP3 H1   HT     0.417000        1.0080           0
  119238 WT8  2815 TIP3 H2   HT     0.417000        1.0080           0
  119239 WT8  2817 TIP3 OH2  OT    -0.834000       15.9994           0
  119240 WT8  2817 TIP3 H1   HT     0.417000        1.0080           0
  119241 WT8  2817 TIP3 H2   HT     0.417000        1.0080           0
  119242 WT8  2818 TIP3 OH2  OT    -0.834000       15.9994           0
  119243 WT8  2818 TIP3 H1   HT     0.417000        1.0080           0
  119244 WT8  2818 TIP3 H2   HT     0.417000        1.0080           0
  119245 WT8  2819 TIP3 OH2  OT    -0.834000       15.9994           0
  119246 WT8  2819 TIP3 H1   HT     0.417000        1.0080           0
  119247 WT8  2819 TIP3 H2   HT     0.417000        1.0080           0
  119248 WT8  2820 TIP3 OH2  OT    -0.834000       15.9994           0
  119249 WT8  2820 TIP3 H1   HT     0.417000        1.0080           0
  119250 WT8  2820 TIP3 H2   HT     0.417000        1.0080           0
  119251 WT8  2821 TIP3 OH2  OT    -0.834000       15.9994           0
  119252 WT8  2821 TIP3 H1   HT     0.417000        1.0080           0
  119253 WT8  2821 TIP3 H2   HT     0.417000        1.0080           0
  119254 WT8  2822 TIP3 OH2  OT    -0.834000       15.9994           0
  119255 WT8  2822 TIP3 H1   HT     0.417000        1.0080           0
  119256 WT8  2822 TIP3 H2   HT     0.417000        1.0080           0
  119257 WT8  2823 TIP3 OH2  OT    -0.834000       15.9994           0
  119258 WT8  2823 TIP3 H1   HT     0.417000        1.0080           0
  119259 WT8  2823 TIP3 H2   HT     0.417000        1.0080           0
  119260 WT8  2824 TIP3 OH2  OT    -0.834000       15.9994           0
  119261 WT8  2824 TIP3 H1   HT     0.417000        1.0080           0
  119262 WT8  2824 TIP3 H2   HT     0.417000        1.0080           0
  119263 WT8  2825 TIP3 OH2  OT    -0.834000       15.9994           0
  119264 WT8  2825 TIP3 H1   HT     0.417000        1.0080           0
  119265 WT8  2825 TIP3 H2   HT     0.417000        1.0080           0
  119266 WT8  2826 TIP3 OH2  OT    -0.834000       15.9994           0
  119267 WT8  2826 TIP3 H1   HT     0.417000        1.0080           0
  119268 WT8  2826 TIP3 H2   HT     0.417000        1.0080           0
  119269 WT8  2827 TIP3 OH2  OT    -0.834000       15.9994           0
  119270 WT8  2827 TIP3 H1   HT     0.417000        1.0080           0
  119271 WT8  2827 TIP3 H2   HT     0.417000        1.0080           0
  119272 WT8  2829 TIP3 OH2  OT    -0.834000       15.9994           0
  119273 WT8  2829 TIP3 H1   HT     0.417000        1.0080           0
  119274 WT8  2829 TIP3 H2   HT     0.417000        1.0080           0
  119275 WT8  2830 TIP3 OH2  OT    -0.834000       15.9994           0
  119276 WT8  2830 TIP3 H1   HT     0.417000        1.0080           0
  119277 WT8  2830 TIP3 H2   HT     0.417000        1.0080           0
  119278 WT8  2831 TIP3 OH2  OT    -0.834000       15.9994           0
  119279 WT8  2831 TIP3 H1   HT     0.417000        1.0080           0
  119280 WT8  2831 TIP3 H2   HT     0.417000        1.0080           0
  119281 WT8  2832 TIP3 OH2  OT    -0.834000       15.9994           0
  119282 WT8  2832 TIP3 H1   HT     0.417000        1.0080           0
  119283 WT8  2832 TIP3 H2   HT     0.417000        1.0080           0
  119284 WT8  2839 TIP3 OH2  OT    -0.834000       15.9994           0
  119285 WT8  2839 TIP3 H1   HT     0.417000        1.0080           0
  119286 WT8  2839 TIP3 H2   HT     0.417000        1.0080           0
  119287 WT8  2840 TIP3 OH2  OT    -0.834000       15.9994           0
  119288 WT8  2840 TIP3 H1   HT     0.417000        1.0080           0
  119289 WT8  2840 TIP3 H2   HT     0.417000        1.0080           0
  119290 WT8  2841 TIP3 OH2  OT    -0.834000       15.9994           0
  119291 WT8  2841 TIP3 H1   HT     0.417000        1.0080           0
  119292 WT8  2841 TIP3 H2   HT     0.417000        1.0080           0
  119293 WT8  2842 TIP3 OH2  OT    -0.834000       15.9994           0
  119294 WT8  2842 TIP3 H1   HT     0.417000        1.0080           0
  119295 WT8  2842 TIP3 H2   HT     0.417000        1.0080           0
  119296 WT8  2843 TIP3 OH2  OT    -0.834000       15.9994           0
  119297 WT8  2843 TIP3 H1   HT     0.417000        1.0080           0
  119298 WT8  2843 TIP3 H2   HT     0.417000        1.0080           0
  119299 WT8  2845 TIP3 OH2  OT    -0.834000       15.9994           0
  119300 WT8  2845 TIP3 H1   HT     0.417000        1.0080           0
  119301 WT8  2845 TIP3 H2   HT     0.417000        1.0080           0
  119302 WT8  2846 TIP3 OH2  OT    -0.834000       15.9994           0
  119303 WT8  2846 TIP3 H1   HT     0.417000        1.0080           0
  119304 WT8  2846 TIP3 H2   HT     0.417000        1.0080           0
  119305 WT8  2847 TIP3 OH2  OT    -0.834000       15.9994           0
  119306 WT8  2847 TIP3 H1   HT     0.417000        1.0080           0
  119307 WT8  2847 TIP3 H2   HT     0.417000        1.0080           0
  119308 WT8  2848 TIP3 OH2  OT    -0.834000       15.9994           0
  119309 WT8  2848 TIP3 H1   HT     0.417000        1.0080           0
  119310 WT8  2848 TIP3 H2   HT     0.417000        1.0080           0
  119311 WT8  2853 TIP3 OH2  OT    -0.834000       15.9994           0
  119312 WT8  2853 TIP3 H1   HT     0.417000        1.0080           0
  119313 WT8  2853 TIP3 H2   HT     0.417000        1.0080           0
  119314 WT8  2857 TIP3 OH2  OT    -0.834000       15.9994           0
  119315 WT8  2857 TIP3 H1   HT     0.417000        1.0080           0
  119316 WT8  2857 TIP3 H2   HT     0.417000        1.0080           0
  119317 WT8  2858 TIP3 OH2  OT    -0.834000       15.9994           0
  119318 WT8  2858 TIP3 H1   HT     0.417000        1.0080           0
  119319 WT8  2858 TIP3 H2   HT     0.417000        1.0080           0
  119320 WT8  2859 TIP3 OH2  OT    -0.834000       15.9994           0
  119321 WT8  2859 TIP3 H1   HT     0.417000        1.0080           0
  119322 WT8  2859 TIP3 H2   HT     0.417000        1.0080           0
  119323 WT8  2860 TIP3 OH2  OT    -0.834000       15.9994           0
  119324 WT8  2860 TIP3 H1   HT     0.417000        1.0080           0
  119325 WT8  2860 TIP3 H2   HT     0.417000        1.0080           0
  119326 WT8  2862 TIP3 OH2  OT    -0.834000       15.9994           0
  119327 WT8  2862 TIP3 H1   HT     0.417000        1.0080           0
  119328 WT8  2862 TIP3 H2   HT     0.417000        1.0080           0
  119329 WT8  2863 TIP3 OH2  OT    -0.834000       15.9994           0
  119330 WT8  2863 TIP3 H1   HT     0.417000        1.0080           0
  119331 WT8  2863 TIP3 H2   HT     0.417000        1.0080           0
  119332 WT8  2865 TIP3 OH2  OT    -0.834000       15.9994           0
  119333 WT8  2865 TIP3 H1   HT     0.417000        1.0080           0
  119334 WT8  2865 TIP3 H2   HT     0.417000        1.0080           0
  119335 WT8  2866 TIP3 OH2  OT    -0.834000       15.9994           0
  119336 WT8  2866 TIP3 H1   HT     0.417000        1.0080           0
  119337 WT8  2866 TIP3 H2   HT     0.417000        1.0080           0
  119338 WT8  2867 TIP3 OH2  OT    -0.834000       15.9994           0
  119339 WT8  2867 TIP3 H1   HT     0.417000        1.0080           0
  119340 WT8  2867 TIP3 H2   HT     0.417000        1.0080           0
  119341 WT8  2877 TIP3 OH2  OT    -0.834000       15.9994           0
  119342 WT8  2877 TIP3 H1   HT     0.417000        1.0080           0
  119343 WT8  2877 TIP3 H2   HT     0.417000        1.0080           0
  119344 WT8  2878 TIP3 OH2  OT    -0.834000       15.9994           0
  119345 WT8  2878 TIP3 H1   HT     0.417000        1.0080           0
  119346 WT8  2878 TIP3 H2   HT     0.417000        1.0080           0
  119347 WT8  2883 TIP3 OH2  OT    -0.834000       15.9994           0
  119348 WT8  2883 TIP3 H1   HT     0.417000        1.0080           0
  119349 WT8  2883 TIP3 H2   HT     0.417000        1.0080           0
  119350 WT8  2884 TIP3 OH2  OT    -0.834000       15.9994           0
  119351 WT8  2884 TIP3 H1   HT     0.417000        1.0080           0
  119352 WT8  2884 TIP3 H2   HT     0.417000        1.0080           0
  119353 WT8  2885 TIP3 OH2  OT    -0.834000       15.9994           0
  119354 WT8  2885 TIP3 H1   HT     0.417000        1.0080           0
  119355 WT8  2885 TIP3 H2   HT     0.417000        1.0080           0
  119356 WT8  2886 TIP3 OH2  OT    -0.834000       15.9994           0
  119357 WT8  2886 TIP3 H1   HT     0.417000        1.0080           0
  119358 WT8  2886 TIP3 H2   HT     0.417000        1.0080           0
  119359 WT8  2888 TIP3 OH2  OT    -0.834000       15.9994           0
  119360 WT8  2888 TIP3 H1   HT     0.417000        1.0080           0
  119361 WT8  2888 TIP3 H2   HT     0.417000        1.0080           0
  119362 WT8  2890 TIP3 OH2  OT    -0.834000       15.9994           0
  119363 WT8  2890 TIP3 H1   HT     0.417000        1.0080           0
  119364 WT8  2890 TIP3 H2   HT     0.417000        1.0080           0
  119365 WT8  2891 TIP3 OH2  OT    -0.834000       15.9994           0
  119366 WT8  2891 TIP3 H1   HT     0.417000        1.0080           0
  119367 WT8  2891 TIP3 H2   HT     0.417000        1.0080           0
  119368 WT8  2893 TIP3 OH2  OT    -0.834000       15.9994           0
  119369 WT8  2893 TIP3 H1   HT     0.417000        1.0080           0
  119370 WT8  2893 TIP3 H2   HT     0.417000        1.0080           0
  119371 WT8  2900 TIP3 OH2  OT    -0.834000       15.9994           0
  119372 WT8  2900 TIP3 H1   HT     0.417000        1.0080           0
  119373 WT8  2900 TIP3 H2   HT     0.417000        1.0080           0
  119374 WT8  2901 TIP3 OH2  OT    -0.834000       15.9994           0
  119375 WT8  2901 TIP3 H1   HT     0.417000        1.0080           0
  119376 WT8  2901 TIP3 H2   HT     0.417000        1.0080           0
  119377 WT8  2903 TIP3 OH2  OT    -0.834000       15.9994           0
  119378 WT8  2903 TIP3 H1   HT     0.417000        1.0080           0
  119379 WT8  2903 TIP3 H2   HT     0.417000        1.0080           0
  119380 WT8  2904 TIP3 OH2  OT    -0.834000       15.9994           0
  119381 WT8  2904 TIP3 H1   HT     0.417000        1.0080           0
  119382 WT8  2904 TIP3 H2   HT     0.417000        1.0080           0
  119383 WT8  2906 TIP3 OH2  OT    -0.834000       15.9994           0
  119384 WT8  2906 TIP3 H1   HT     0.417000        1.0080           0
  119385 WT8  2906 TIP3 H2   HT     0.417000        1.0080           0
  119386 WT8  2907 TIP3 OH2  OT    -0.834000       15.9994           0
  119387 WT8  2907 TIP3 H1   HT     0.417000        1.0080           0
  119388 WT8  2907 TIP3 H2   HT     0.417000        1.0080           0
  119389 WT8  2909 TIP3 OH2  OT    -0.834000       15.9994           0
  119390 WT8  2909 TIP3 H1   HT     0.417000        1.0080           0
  119391 WT8  2909 TIP3 H2   HT     0.417000        1.0080           0
  119392 WT8  2911 TIP3 OH2  OT    -0.834000       15.9994           0
  119393 WT8  2911 TIP3 H1   HT     0.417000        1.0080           0
  119394 WT8  2911 TIP3 H2   HT     0.417000        1.0080           0
  119395 WT8  2913 TIP3 OH2  OT    -0.834000       15.9994           0
  119396 WT8  2913 TIP3 H1   HT     0.417000        1.0080           0
  119397 WT8  2913 TIP3 H2   HT     0.417000        1.0080           0
  119398 WT8  2918 TIP3 OH2  OT    -0.834000       15.9994           0
  119399 WT8  2918 TIP3 H1   HT     0.417000        1.0080           0
  119400 WT8  2918 TIP3 H2   HT     0.417000        1.0080           0
  119401 WT8  2919 TIP3 OH2  OT    -0.834000       15.9994           0
  119402 WT8  2919 TIP3 H1   HT     0.417000        1.0080           0
  119403 WT8  2919 TIP3 H2   HT     0.417000        1.0080           0
  119404 WT8  2922 TIP3 OH2  OT    -0.834000       15.9994           0
  119405 WT8  2922 TIP3 H1   HT     0.417000        1.0080           0
  119406 WT8  2922 TIP3 H2   HT     0.417000        1.0080           0
  119407 WT8  2923 TIP3 OH2  OT    -0.834000       15.9994           0
  119408 WT8  2923 TIP3 H1   HT     0.417000        1.0080           0
  119409 WT8  2923 TIP3 H2   HT     0.417000        1.0080           0
  119410 WT8  2925 TIP3 OH2  OT    -0.834000       15.9994           0
  119411 WT8  2925 TIP3 H1   HT     0.417000        1.0080           0
  119412 WT8  2925 TIP3 H2   HT     0.417000        1.0080           0
  119413 WT8  2926 TIP3 OH2  OT    -0.834000       15.9994           0
  119414 WT8  2926 TIP3 H1   HT     0.417000        1.0080           0
  119415 WT8  2926 TIP3 H2   HT     0.417000        1.0080           0
  119416 WT8  2927 TIP3 OH2  OT    -0.834000       15.9994           0
  119417 WT8  2927 TIP3 H1   HT     0.417000        1.0080           0
  119418 WT8  2927 TIP3 H2   HT     0.417000        1.0080           0
  119419 WT8  2928 TIP3 OH2  OT    -0.834000       15.9994           0
  119420 WT8  2928 TIP3 H1   HT     0.417000        1.0080           0
  119421 WT8  2928 TIP3 H2   HT     0.417000        1.0080           0
  119422 WT8  2930 TIP3 OH2  OT    -0.834000       15.9994           0
  119423 WT8  2930 TIP3 H1   HT     0.417000        1.0080           0
  119424 WT8  2930 TIP3 H2   HT     0.417000        1.0080           0
  119425 WT8  2941 TIP3 OH2  OT    -0.834000       15.9994           0
  119426 WT8  2941 TIP3 H1   HT     0.417000        1.0080           0
  119427 WT8  2941 TIP3 H2   HT     0.417000        1.0080           0
  119428 WT8  2943 TIP3 OH2  OT    -0.834000       15.9994           0
  119429 WT8  2943 TIP3 H1   HT     0.417000        1.0080           0
  119430 WT8  2943 TIP3 H2   HT     0.417000        1.0080           0
  119431 WT8  2944 TIP3 OH2  OT    -0.834000       15.9994           0
  119432 WT8  2944 TIP3 H1   HT     0.417000        1.0080           0
  119433 WT8  2944 TIP3 H2   HT     0.417000        1.0080           0
  119434 WT8  2946 TIP3 OH2  OT    -0.834000       15.9994           0
  119435 WT8  2946 TIP3 H1   HT     0.417000        1.0080           0
  119436 WT8  2946 TIP3 H2   HT     0.417000        1.0080           0
  119437 WT8  2963 TIP3 OH2  OT    -0.834000       15.9994           0
  119438 WT8  2963 TIP3 H1   HT     0.417000        1.0080           0
  119439 WT8  2963 TIP3 H2   HT     0.417000        1.0080           0
  119440 WT8  2965 TIP3 OH2  OT    -0.834000       15.9994           0
  119441 WT8  2965 TIP3 H1   HT     0.417000        1.0080           0
  119442 WT8  2965 TIP3 H2   HT     0.417000        1.0080           0
  119443 WT8  2967 TIP3 OH2  OT    -0.834000       15.9994           0
  119444 WT8  2967 TIP3 H1   HT     0.417000        1.0080           0
  119445 WT8  2967 TIP3 H2   HT     0.417000        1.0080           0
  119446 WT8  2968 TIP3 OH2  OT    -0.834000       15.9994           0
  119447 WT8  2968 TIP3 H1   HT     0.417000        1.0080           0
  119448 WT8  2968 TIP3 H2   HT     0.417000        1.0080           0
  119449 WT8  2972 TIP3 OH2  OT    -0.834000       15.9994           0
  119450 WT8  2972 TIP3 H1   HT     0.417000        1.0080           0
  119451 WT8  2972 TIP3 H2   HT     0.417000        1.0080           0
  119452 WT8  2975 TIP3 OH2  OT    -0.834000       15.9994           0
  119453 WT8  2975 TIP3 H1   HT     0.417000        1.0080           0
  119454 WT8  2975 TIP3 H2   HT     0.417000        1.0080           0
  119455 WT8  2979 TIP3 OH2  OT    -0.834000       15.9994           0
  119456 WT8  2979 TIP3 H1   HT     0.417000        1.0080           0
  119457 WT8  2979 TIP3 H2   HT     0.417000        1.0080           0
  119458 WT8  2991 TIP3 OH2  OT    -0.834000       15.9994           0
  119459 WT8  2991 TIP3 H1   HT     0.417000        1.0080           0
  119460 WT8  2991 TIP3 H2   HT     0.417000        1.0080           0
  119461 WT8  2994 TIP3 OH2  OT    -0.834000       15.9994           0
  119462 WT8  2994 TIP3 H1   HT     0.417000        1.0080           0
  119463 WT8  2994 TIP3 H2   HT     0.417000        1.0080           0
  119464 WT8  3010 TIP3 OH2  OT    -0.834000       15.9994           0
  119465 WT8  3010 TIP3 H1   HT     0.417000        1.0080           0
  119466 WT8  3010 TIP3 H2   HT     0.417000        1.0080           0
  119467 WT8  3012 TIP3 OH2  OT    -0.834000       15.9994           0
  119468 WT8  3012 TIP3 H1   HT     0.417000        1.0080           0
  119469 WT8  3012 TIP3 H2   HT     0.417000        1.0080           0
  119470 WT8  3016 TIP3 OH2  OT    -0.834000       15.9994           0
  119471 WT8  3016 TIP3 H1   HT     0.417000        1.0080           0
  119472 WT8  3016 TIP3 H2   HT     0.417000        1.0080           0
  119473 WT8  3027 TIP3 OH2  OT    -0.834000       15.9994           0
  119474 WT8  3027 TIP3 H1   HT     0.417000        1.0080           0
  119475 WT8  3027 TIP3 H2   HT     0.417000        1.0080           0
  119476 WT8  3030 TIP3 OH2  OT    -0.834000       15.9994           0
  119477 WT8  3030 TIP3 H1   HT     0.417000        1.0080           0
  119478 WT8  3030 TIP3 H2   HT     0.417000        1.0080           0
  119479 WT8  3033 TIP3 OH2  OT    -0.834000       15.9994           0
  119480 WT8  3033 TIP3 H1   HT     0.417000        1.0080           0
  119481 WT8  3033 TIP3 H2   HT     0.417000        1.0080           0
  119482 WT8  3036 TIP3 OH2  OT    -0.834000       15.9994           0
  119483 WT8  3036 TIP3 H1   HT     0.417000        1.0080           0
  119484 WT8  3036 TIP3 H2   HT     0.417000        1.0080           0
  119485 WT8  3037 TIP3 OH2  OT    -0.834000       15.9994           0
  119486 WT8  3037 TIP3 H1   HT     0.417000        1.0080           0
  119487 WT8  3037 TIP3 H2   HT     0.417000        1.0080           0
  119488 WT8  3046 TIP3 OH2  OT    -0.834000       15.9994           0
  119489 WT8  3046 TIP3 H1   HT     0.417000        1.0080           0
  119490 WT8  3046 TIP3 H2   HT     0.417000        1.0080           0
  119491 WT8  3049 TIP3 OH2  OT    -0.834000       15.9994           0
  119492 WT8  3049 TIP3 H1   HT     0.417000        1.0080           0
  119493 WT8  3049 TIP3 H2   HT     0.417000        1.0080           0
  119494 WT8  3050 TIP3 OH2  OT    -0.834000       15.9994           0
  119495 WT8  3050 TIP3 H1   HT     0.417000        1.0080           0
  119496 WT8  3050 TIP3 H2   HT     0.417000        1.0080           0
  119497 WT8  3053 TIP3 OH2  OT    -0.834000       15.9994           0
  119498 WT8  3053 TIP3 H1   HT     0.417000        1.0080           0
  119499 WT8  3053 TIP3 H2   HT     0.417000        1.0080           0
  119500 WT8  3057 TIP3 OH2  OT    -0.834000       15.9994           0
  119501 WT8  3057 TIP3 H1   HT     0.417000        1.0080           0
  119502 WT8  3057 TIP3 H2   HT     0.417000        1.0080           0
  119503 WT8  3058 TIP3 OH2  OT    -0.834000       15.9994           0
  119504 WT8  3058 TIP3 H1   HT     0.417000        1.0080           0
  119505 WT8  3058 TIP3 H2   HT     0.417000        1.0080           0
  119506 WT8  3068 TIP3 OH2  OT    -0.834000       15.9994           0
  119507 WT8  3068 TIP3 H1   HT     0.417000        1.0080           0
  119508 WT8  3068 TIP3 H2   HT     0.417000        1.0080           0
  119509 WT8  3070 TIP3 OH2  OT    -0.834000       15.9994           0
  119510 WT8  3070 TIP3 H1   HT     0.417000        1.0080           0
  119511 WT8  3070 TIP3 H2   HT     0.417000        1.0080           0
  119512 WT8  3071 TIP3 OH2  OT    -0.834000       15.9994           0
  119513 WT8  3071 TIP3 H1   HT     0.417000        1.0080           0
  119514 WT8  3071 TIP3 H2   HT     0.417000        1.0080           0
  119515 WT8  3072 TIP3 OH2  OT    -0.834000       15.9994           0
  119516 WT8  3072 TIP3 H1   HT     0.417000        1.0080           0
  119517 WT8  3072 TIP3 H2   HT     0.417000        1.0080           0
  119518 WT8  3073 TIP3 OH2  OT    -0.834000       15.9994           0
  119519 WT8  3073 TIP3 H1   HT     0.417000        1.0080           0
  119520 WT8  3073 TIP3 H2   HT     0.417000        1.0080           0
  119521 WT8  3075 TIP3 OH2  OT    -0.834000       15.9994           0
  119522 WT8  3075 TIP3 H1   HT     0.417000        1.0080           0
  119523 WT8  3075 TIP3 H2   HT     0.417000        1.0080           0
  119524 WT8  3079 TIP3 OH2  OT    -0.834000       15.9994           0
  119525 WT8  3079 TIP3 H1   HT     0.417000        1.0080           0
  119526 WT8  3079 TIP3 H2   HT     0.417000        1.0080           0
  119527 WT8  3080 TIP3 OH2  OT    -0.834000       15.9994           0
  119528 WT8  3080 TIP3 H1   HT     0.417000        1.0080           0
  119529 WT8  3080 TIP3 H2   HT     0.417000        1.0080           0
  119530 WT8  3081 TIP3 OH2  OT    -0.834000       15.9994           0
  119531 WT8  3081 TIP3 H1   HT     0.417000        1.0080           0
  119532 WT8  3081 TIP3 H2   HT     0.417000        1.0080           0
  119533 WT8  3085 TIP3 OH2  OT    -0.834000       15.9994           0
  119534 WT8  3085 TIP3 H1   HT     0.417000        1.0080           0
  119535 WT8  3085 TIP3 H2   HT     0.417000        1.0080           0
  119536 WT8  3086 TIP3 OH2  OT    -0.834000       15.9994           0
  119537 WT8  3086 TIP3 H1   HT     0.417000        1.0080           0
  119538 WT8  3086 TIP3 H2   HT     0.417000        1.0080           0
  119539 WT8  3091 TIP3 OH2  OT    -0.834000       15.9994           0
  119540 WT8  3091 TIP3 H1   HT     0.417000        1.0080           0
  119541 WT8  3091 TIP3 H2   HT     0.417000        1.0080           0
  119542 WT8  3092 TIP3 OH2  OT    -0.834000       15.9994           0
  119543 WT8  3092 TIP3 H1   HT     0.417000        1.0080           0
  119544 WT8  3092 TIP3 H2   HT     0.417000        1.0080           0
  119545 WT8  3095 TIP3 OH2  OT    -0.834000       15.9994           0
  119546 WT8  3095 TIP3 H1   HT     0.417000        1.0080           0
  119547 WT8  3095 TIP3 H2   HT     0.417000        1.0080           0
  119548 WT8  3096 TIP3 OH2  OT    -0.834000       15.9994           0
  119549 WT8  3096 TIP3 H1   HT     0.417000        1.0080           0
  119550 WT8  3096 TIP3 H2   HT     0.417000        1.0080           0
  119551 WT8  3097 TIP3 OH2  OT    -0.834000       15.9994           0
  119552 WT8  3097 TIP3 H1   HT     0.417000        1.0080           0
  119553 WT8  3097 TIP3 H2   HT     0.417000        1.0080           0
  119554 WT8  3101 TIP3 OH2  OT    -0.834000       15.9994           0
  119555 WT8  3101 TIP3 H1   HT     0.417000        1.0080           0
  119556 WT8  3101 TIP3 H2   HT     0.417000        1.0080           0
  119557 WT8  3102 TIP3 OH2  OT    -0.834000       15.9994           0
  119558 WT8  3102 TIP3 H1   HT     0.417000        1.0080           0
  119559 WT8  3102 TIP3 H2   HT     0.417000        1.0080           0
  119560 WT8  3104 TIP3 OH2  OT    -0.834000       15.9994           0
  119561 WT8  3104 TIP3 H1   HT     0.417000        1.0080           0
  119562 WT8  3104 TIP3 H2   HT     0.417000        1.0080           0
  119563 WT8  3108 TIP3 OH2  OT    -0.834000       15.9994           0
  119564 WT8  3108 TIP3 H1   HT     0.417000        1.0080           0
  119565 WT8  3108 TIP3 H2   HT     0.417000        1.0080           0
  119566 WT8  3109 TIP3 OH2  OT    -0.834000       15.9994           0
  119567 WT8  3109 TIP3 H1   HT     0.417000        1.0080           0
  119568 WT8  3109 TIP3 H2   HT     0.417000        1.0080           0
  119569 WT8  3111 TIP3 OH2  OT    -0.834000       15.9994           0
  119570 WT8  3111 TIP3 H1   HT     0.417000        1.0080           0
  119571 WT8  3111 TIP3 H2   HT     0.417000        1.0080           0
  119572 WT8  3112 TIP3 OH2  OT    -0.834000       15.9994           0
  119573 WT8  3112 TIP3 H1   HT     0.417000        1.0080           0
  119574 WT8  3112 TIP3 H2   HT     0.417000        1.0080           0
  119575 WT8  3113 TIP3 OH2  OT    -0.834000       15.9994           0
  119576 WT8  3113 TIP3 H1   HT     0.417000        1.0080           0
  119577 WT8  3113 TIP3 H2   HT     0.417000        1.0080           0
  119578 WT8  3114 TIP3 OH2  OT    -0.834000       15.9994           0
  119579 WT8  3114 TIP3 H1   HT     0.417000        1.0080           0
  119580 WT8  3114 TIP3 H2   HT     0.417000        1.0080           0
  119581 WT8  3115 TIP3 OH2  OT    -0.834000       15.9994           0
  119582 WT8  3115 TIP3 H1   HT     0.417000        1.0080           0
  119583 WT8  3115 TIP3 H2   HT     0.417000        1.0080           0
  119584 WT8  3116 TIP3 OH2  OT    -0.834000       15.9994           0
  119585 WT8  3116 TIP3 H1   HT     0.417000        1.0080           0
  119586 WT8  3116 TIP3 H2   HT     0.417000        1.0080           0
  119587 WT8  3117 TIP3 OH2  OT    -0.834000       15.9994           0
  119588 WT8  3117 TIP3 H1   HT     0.417000        1.0080           0
  119589 WT8  3117 TIP3 H2   HT     0.417000        1.0080           0
  119590 WT8  3119 TIP3 OH2  OT    -0.834000       15.9994           0
  119591 WT8  3119 TIP3 H1   HT     0.417000        1.0080           0
  119592 WT8  3119 TIP3 H2   HT     0.417000        1.0080           0
  119593 WT8  3120 TIP3 OH2  OT    -0.834000       15.9994           0
  119594 WT8  3120 TIP3 H1   HT     0.417000        1.0080           0
  119595 WT8  3120 TIP3 H2   HT     0.417000        1.0080           0
  119596 WT8  3121 TIP3 OH2  OT    -0.834000       15.9994           0
  119597 WT8  3121 TIP3 H1   HT     0.417000        1.0080           0
  119598 WT8  3121 TIP3 H2   HT     0.417000        1.0080           0
  119599 WT8  3129 TIP3 OH2  OT    -0.834000       15.9994           0
  119600 WT8  3129 TIP3 H1   HT     0.417000        1.0080           0
  119601 WT8  3129 TIP3 H2   HT     0.417000        1.0080           0
  119602 WT8  3131 TIP3 OH2  OT    -0.834000       15.9994           0
  119603 WT8  3131 TIP3 H1   HT     0.417000        1.0080           0
  119604 WT8  3131 TIP3 H2   HT     0.417000        1.0080           0
  119605 WT8  3133 TIP3 OH2  OT    -0.834000       15.9994           0
  119606 WT8  3133 TIP3 H1   HT     0.417000        1.0080           0
  119607 WT8  3133 TIP3 H2   HT     0.417000        1.0080           0
  119608 WT8  3134 TIP3 OH2  OT    -0.834000       15.9994           0
  119609 WT8  3134 TIP3 H1   HT     0.417000        1.0080           0
  119610 WT8  3134 TIP3 H2   HT     0.417000        1.0080           0
  119611 WT8  3136 TIP3 OH2  OT    -0.834000       15.9994           0
  119612 WT8  3136 TIP3 H1   HT     0.417000        1.0080           0
  119613 WT8  3136 TIP3 H2   HT     0.417000        1.0080           0
  119614 WT8  3138 TIP3 OH2  OT    -0.834000       15.9994           0
  119615 WT8  3138 TIP3 H1   HT     0.417000        1.0080           0
  119616 WT8  3138 TIP3 H2   HT     0.417000        1.0080           0
  119617 WT8  3139 TIP3 OH2  OT    -0.834000       15.9994           0
  119618 WT8  3139 TIP3 H1   HT     0.417000        1.0080           0
  119619 WT8  3139 TIP3 H2   HT     0.417000        1.0080           0
  119620 WT8  3140 TIP3 OH2  OT    -0.834000       15.9994           0
  119621 WT8  3140 TIP3 H1   HT     0.417000        1.0080           0
  119622 WT8  3140 TIP3 H2   HT     0.417000        1.0080           0
  119623 WT8  3141 TIP3 OH2  OT    -0.834000       15.9994           0
  119624 WT8  3141 TIP3 H1   HT     0.417000        1.0080           0
  119625 WT8  3141 TIP3 H2   HT     0.417000        1.0080           0
  119626 WT8  3142 TIP3 OH2  OT    -0.834000       15.9994           0
  119627 WT8  3142 TIP3 H1   HT     0.417000        1.0080           0
  119628 WT8  3142 TIP3 H2   HT     0.417000        1.0080           0
  119629 WT8  3143 TIP3 OH2  OT    -0.834000       15.9994           0
  119630 WT8  3143 TIP3 H1   HT     0.417000        1.0080           0
  119631 WT8  3143 TIP3 H2   HT     0.417000        1.0080           0
  119632 WT8  3145 TIP3 OH2  OT    -0.834000       15.9994           0
  119633 WT8  3145 TIP3 H1   HT     0.417000        1.0080           0
  119634 WT8  3145 TIP3 H2   HT     0.417000        1.0080           0
  119635 WT8  3150 TIP3 OH2  OT    -0.834000       15.9994           0
  119636 WT8  3150 TIP3 H1   HT     0.417000        1.0080           0
  119637 WT8  3150 TIP3 H2   HT     0.417000        1.0080           0
  119638 WT8  3151 TIP3 OH2  OT    -0.834000       15.9994           0
  119639 WT8  3151 TIP3 H1   HT     0.417000        1.0080           0
  119640 WT8  3151 TIP3 H2   HT     0.417000        1.0080           0
  119641 WT8  3152 TIP3 OH2  OT    -0.834000       15.9994           0
  119642 WT8  3152 TIP3 H1   HT     0.417000        1.0080           0
  119643 WT8  3152 TIP3 H2   HT     0.417000        1.0080           0
  119644 WT8  3154 TIP3 OH2  OT    -0.834000       15.9994           0
  119645 WT8  3154 TIP3 H1   HT     0.417000        1.0080           0
  119646 WT8  3154 TIP3 H2   HT     0.417000        1.0080           0
  119647 WT8  3155 TIP3 OH2  OT    -0.834000       15.9994           0
  119648 WT8  3155 TIP3 H1   HT     0.417000        1.0080           0
  119649 WT8  3155 TIP3 H2   HT     0.417000        1.0080           0
  119650 WT8  3156 TIP3 OH2  OT    -0.834000       15.9994           0
  119651 WT8  3156 TIP3 H1   HT     0.417000        1.0080           0
  119652 WT8  3156 TIP3 H2   HT     0.417000        1.0080           0
  119653 WT8  3157 TIP3 OH2  OT    -0.834000       15.9994           0
  119654 WT8  3157 TIP3 H1   HT     0.417000        1.0080           0
  119655 WT8  3157 TIP3 H2   HT     0.417000        1.0080           0
  119656 WT8  3158 TIP3 OH2  OT    -0.834000       15.9994           0
  119657 WT8  3158 TIP3 H1   HT     0.417000        1.0080           0
  119658 WT8  3158 TIP3 H2   HT     0.417000        1.0080           0
  119659 WT8  3159 TIP3 OH2  OT    -0.834000       15.9994           0
  119660 WT8  3159 TIP3 H1   HT     0.417000        1.0080           0
  119661 WT8  3159 TIP3 H2   HT     0.417000        1.0080           0
  119662 WT8  3160 TIP3 OH2  OT    -0.834000       15.9994           0
  119663 WT8  3160 TIP3 H1   HT     0.417000        1.0080           0
  119664 WT8  3160 TIP3 H2   HT     0.417000        1.0080           0
  119665 WT8  3161 TIP3 OH2  OT    -0.834000       15.9994           0
  119666 WT8  3161 TIP3 H1   HT     0.417000        1.0080           0
  119667 WT8  3161 TIP3 H2   HT     0.417000        1.0080           0
  119668 WT8  3162 TIP3 OH2  OT    -0.834000       15.9994           0
  119669 WT8  3162 TIP3 H1   HT     0.417000        1.0080           0
  119670 WT8  3162 TIP3 H2   HT     0.417000        1.0080           0
  119671 WT8  3173 TIP3 OH2  OT    -0.834000       15.9994           0
  119672 WT8  3173 TIP3 H1   HT     0.417000        1.0080           0
  119673 WT8  3173 TIP3 H2   HT     0.417000        1.0080           0
  119674 WT8  3174 TIP3 OH2  OT    -0.834000       15.9994           0
  119675 WT8  3174 TIP3 H1   HT     0.417000        1.0080           0
  119676 WT8  3174 TIP3 H2   HT     0.417000        1.0080           0
  119677 WT8  3175 TIP3 OH2  OT    -0.834000       15.9994           0
  119678 WT8  3175 TIP3 H1   HT     0.417000        1.0080           0
  119679 WT8  3175 TIP3 H2   HT     0.417000        1.0080           0
  119680 WT8  3176 TIP3 OH2  OT    -0.834000       15.9994           0
  119681 WT8  3176 TIP3 H1   HT     0.417000        1.0080           0
  119682 WT8  3176 TIP3 H2   HT     0.417000        1.0080           0
  119683 WT8  3177 TIP3 OH2  OT    -0.834000       15.9994           0
  119684 WT8  3177 TIP3 H1   HT     0.417000        1.0080           0
  119685 WT8  3177 TIP3 H2   HT     0.417000        1.0080           0
  119686 WT8  3178 TIP3 OH2  OT    -0.834000       15.9994           0
  119687 WT8  3178 TIP3 H1   HT     0.417000        1.0080           0
  119688 WT8  3178 TIP3 H2   HT     0.417000        1.0080           0
  119689 WT8  3179 TIP3 OH2  OT    -0.834000       15.9994           0
  119690 WT8  3179 TIP3 H1   HT     0.417000        1.0080           0
  119691 WT8  3179 TIP3 H2   HT     0.417000        1.0080           0
  119692 WT8  3180 TIP3 OH2  OT    -0.834000       15.9994           0
  119693 WT8  3180 TIP3 H1   HT     0.417000        1.0080           0
  119694 WT8  3180 TIP3 H2   HT     0.417000        1.0080           0
  119695 WT8  3181 TIP3 OH2  OT    -0.834000       15.9994           0
  119696 WT8  3181 TIP3 H1   HT     0.417000        1.0080           0
  119697 WT8  3181 TIP3 H2   HT     0.417000        1.0080           0
  119698 WT8  3182 TIP3 OH2  OT    -0.834000       15.9994           0
  119699 WT8  3182 TIP3 H1   HT     0.417000        1.0080           0
  119700 WT8  3182 TIP3 H2   HT     0.417000        1.0080           0
  119701 WT8  3183 TIP3 OH2  OT    -0.834000       15.9994           0
  119702 WT8  3183 TIP3 H1   HT     0.417000        1.0080           0
  119703 WT8  3183 TIP3 H2   HT     0.417000        1.0080           0
  119704 WT8  3184 TIP3 OH2  OT    -0.834000       15.9994           0
  119705 WT8  3184 TIP3 H1   HT     0.417000        1.0080           0
  119706 WT8  3184 TIP3 H2   HT     0.417000        1.0080           0
  119707 WT8  3187 TIP3 OH2  OT    -0.834000       15.9994           0
  119708 WT8  3187 TIP3 H1   HT     0.417000        1.0080           0
  119709 WT8  3187 TIP3 H2   HT     0.417000        1.0080           0
  119710 WT8  3189 TIP3 OH2  OT    -0.834000       15.9994           0
  119711 WT8  3189 TIP3 H1   HT     0.417000        1.0080           0
  119712 WT8  3189 TIP3 H2   HT     0.417000        1.0080           0
  119713 WT8  3192 TIP3 OH2  OT    -0.834000       15.9994           0
  119714 WT8  3192 TIP3 H1   HT     0.417000        1.0080           0
  119715 WT8  3192 TIP3 H2   HT     0.417000        1.0080           0
  119716 WT8  3193 TIP3 OH2  OT    -0.834000       15.9994           0
  119717 WT8  3193 TIP3 H1   HT     0.417000        1.0080           0
  119718 WT8  3193 TIP3 H2   HT     0.417000        1.0080           0
  119719 WT8  3195 TIP3 OH2  OT    -0.834000       15.9994           0
  119720 WT8  3195 TIP3 H1   HT     0.417000        1.0080           0
  119721 WT8  3195 TIP3 H2   HT     0.417000        1.0080           0
  119722 WT8  3196 TIP3 OH2  OT    -0.834000       15.9994           0
  119723 WT8  3196 TIP3 H1   HT     0.417000        1.0080           0
  119724 WT8  3196 TIP3 H2   HT     0.417000        1.0080           0
  119725 WT8  3197 TIP3 OH2  OT    -0.834000       15.9994           0
  119726 WT8  3197 TIP3 H1   HT     0.417000        1.0080           0
  119727 WT8  3197 TIP3 H2   HT     0.417000        1.0080           0
  119728 WT8  3198 TIP3 OH2  OT    -0.834000       15.9994           0
  119729 WT8  3198 TIP3 H1   HT     0.417000        1.0080           0
  119730 WT8  3198 TIP3 H2   HT     0.417000        1.0080           0
  119731 WT8  3199 TIP3 OH2  OT    -0.834000       15.9994           0
  119732 WT8  3199 TIP3 H1   HT     0.417000        1.0080           0
  119733 WT8  3199 TIP3 H2   HT     0.417000        1.0080           0
  119734 WT8  3200 TIP3 OH2  OT    -0.834000       15.9994           0
  119735 WT8  3200 TIP3 H1   HT     0.417000        1.0080           0
  119736 WT8  3200 TIP3 H2   HT     0.417000        1.0080           0
  119737 WT8  3201 TIP3 OH2  OT    -0.834000       15.9994           0
  119738 WT8  3201 TIP3 H1   HT     0.417000        1.0080           0
  119739 WT8  3201 TIP3 H2   HT     0.417000        1.0080           0
  119740 WT8  3202 TIP3 OH2  OT    -0.834000       15.9994           0
  119741 WT8  3202 TIP3 H1   HT     0.417000        1.0080           0
  119742 WT8  3202 TIP3 H2   HT     0.417000        1.0080           0
  119743 WT8  3203 TIP3 OH2  OT    -0.834000       15.9994           0
  119744 WT8  3203 TIP3 H1   HT     0.417000        1.0080           0
  119745 WT8  3203 TIP3 H2   HT     0.417000        1.0080           0
  119746 WT8  3204 TIP3 OH2  OT    -0.834000       15.9994           0
  119747 WT8  3204 TIP3 H1   HT     0.417000        1.0080           0
  119748 WT8  3204 TIP3 H2   HT     0.417000        1.0080           0
  119749 WT8  3205 TIP3 OH2  OT    -0.834000       15.9994           0
  119750 WT8  3205 TIP3 H1   HT     0.417000        1.0080           0
  119751 WT8  3205 TIP3 H2   HT     0.417000        1.0080           0
  119752 WT8  3210 TIP3 OH2  OT    -0.834000       15.9994           0
  119753 WT8  3210 TIP3 H1   HT     0.417000        1.0080           0
  119754 WT8  3210 TIP3 H2   HT     0.417000        1.0080           0
  119755 WT8  3214 TIP3 OH2  OT    -0.834000       15.9994           0
  119756 WT8  3214 TIP3 H1   HT     0.417000        1.0080           0
  119757 WT8  3214 TIP3 H2   HT     0.417000        1.0080           0
  119758 WT8  3215 TIP3 OH2  OT    -0.834000       15.9994           0
  119759 WT8  3215 TIP3 H1   HT     0.417000        1.0080           0
  119760 WT8  3215 TIP3 H2   HT     0.417000        1.0080           0
  119761 WT8  3216 TIP3 OH2  OT    -0.834000       15.9994           0
  119762 WT8  3216 TIP3 H1   HT     0.417000        1.0080           0
  119763 WT8  3216 TIP3 H2   HT     0.417000        1.0080           0
  119764 WT8  3218 TIP3 OH2  OT    -0.834000       15.9994           0
  119765 WT8  3218 TIP3 H1   HT     0.417000        1.0080           0
  119766 WT8  3218 TIP3 H2   HT     0.417000        1.0080           0
  119767 WT8  3219 TIP3 OH2  OT    -0.834000       15.9994           0
  119768 WT8  3219 TIP3 H1   HT     0.417000        1.0080           0
  119769 WT8  3219 TIP3 H2   HT     0.417000        1.0080           0
  119770 WT8  3220 TIP3 OH2  OT    -0.834000       15.9994           0
  119771 WT8  3220 TIP3 H1   HT     0.417000        1.0080           0
  119772 WT8  3220 TIP3 H2   HT     0.417000        1.0080           0
  119773 WT8  3221 TIP3 OH2  OT    -0.834000       15.9994           0
  119774 WT8  3221 TIP3 H1   HT     0.417000        1.0080           0
  119775 WT8  3221 TIP3 H2   HT     0.417000        1.0080           0
  119776 WT8  3222 TIP3 OH2  OT    -0.834000       15.9994           0
  119777 WT8  3222 TIP3 H1   HT     0.417000        1.0080           0
  119778 WT8  3222 TIP3 H2   HT     0.417000        1.0080           0
  119779 WT8  3223 TIP3 OH2  OT    -0.834000       15.9994           0
  119780 WT8  3223 TIP3 H1   HT     0.417000        1.0080           0
  119781 WT8  3223 TIP3 H2   HT     0.417000        1.0080           0
  119782 WT8  3224 TIP3 OH2  OT    -0.834000       15.9994           0
  119783 WT8  3224 TIP3 H1   HT     0.417000        1.0080           0
  119784 WT8  3224 TIP3 H2   HT     0.417000        1.0080           0
  119785 WT8  3225 TIP3 OH2  OT    -0.834000       15.9994           0
  119786 WT8  3225 TIP3 H1   HT     0.417000        1.0080           0
  119787 WT8  3225 TIP3 H2   HT     0.417000        1.0080           0
  119788 WT8  3226 TIP3 OH2  OT    -0.834000       15.9994           0
  119789 WT8  3226 TIP3 H1   HT     0.417000        1.0080           0
  119790 WT8  3226 TIP3 H2   HT     0.417000        1.0080           0
  119791 WT8  3227 TIP3 OH2  OT    -0.834000       15.9994           0
  119792 WT8  3227 TIP3 H1   HT     0.417000        1.0080           0
  119793 WT8  3227 TIP3 H2   HT     0.417000        1.0080           0
  119794 WT8  3228 TIP3 OH2  OT    -0.834000       15.9994           0
  119795 WT8  3228 TIP3 H1   HT     0.417000        1.0080           0
  119796 WT8  3228 TIP3 H2   HT     0.417000        1.0080           0
  119797 WT8  3229 TIP3 OH2  OT    -0.834000       15.9994           0
  119798 WT8  3229 TIP3 H1   HT     0.417000        1.0080           0
  119799 WT8  3229 TIP3 H2   HT     0.417000        1.0080           0
  119800 WT8  3233 TIP3 OH2  OT    -0.834000       15.9994           0
  119801 WT8  3233 TIP3 H1   HT     0.417000        1.0080           0
  119802 WT8  3233 TIP3 H2   HT     0.417000        1.0080           0
  119803 WT8  3234 TIP3 OH2  OT    -0.834000       15.9994           0
  119804 WT8  3234 TIP3 H1   HT     0.417000        1.0080           0
  119805 WT8  3234 TIP3 H2   HT     0.417000        1.0080           0
  119806 WT8  3236 TIP3 OH2  OT    -0.834000       15.9994           0
  119807 WT8  3236 TIP3 H1   HT     0.417000        1.0080           0
  119808 WT8  3236 TIP3 H2   HT     0.417000        1.0080           0
  119809 WT8  3237 TIP3 OH2  OT    -0.834000       15.9994           0
  119810 WT8  3237 TIP3 H1   HT     0.417000        1.0080           0
  119811 WT8  3237 TIP3 H2   HT     0.417000        1.0080           0
  119812 WT8  3238 TIP3 OH2  OT    -0.834000       15.9994           0
  119813 WT8  3238 TIP3 H1   HT     0.417000        1.0080           0
  119814 WT8  3238 TIP3 H2   HT     0.417000        1.0080           0
  119815 WT8  3239 TIP3 OH2  OT    -0.834000       15.9994           0
  119816 WT8  3239 TIP3 H1   HT     0.417000        1.0080           0
  119817 WT8  3239 TIP3 H2   HT     0.417000        1.0080           0
  119818 WT8  3240 TIP3 OH2  OT    -0.834000       15.9994           0
  119819 WT8  3240 TIP3 H1   HT     0.417000        1.0080           0
  119820 WT8  3240 TIP3 H2   HT     0.417000        1.0080           0
  119821 WT8  3241 TIP3 OH2  OT    -0.834000       15.9994           0
  119822 WT8  3241 TIP3 H1   HT     0.417000        1.0080           0
  119823 WT8  3241 TIP3 H2   HT     0.417000        1.0080           0
  119824 WT8  3242 TIP3 OH2  OT    -0.834000       15.9994           0
  119825 WT8  3242 TIP3 H1   HT     0.417000        1.0080           0
  119826 WT8  3242 TIP3 H2   HT     0.417000        1.0080           0
  119827 WT8  3243 TIP3 OH2  OT    -0.834000       15.9994           0
  119828 WT8  3243 TIP3 H1   HT     0.417000        1.0080           0
  119829 WT8  3243 TIP3 H2   HT     0.417000        1.0080           0
  119830 WT8  3244 TIP3 OH2  OT    -0.834000       15.9994           0
  119831 WT8  3244 TIP3 H1   HT     0.417000        1.0080           0
  119832 WT8  3244 TIP3 H2   HT     0.417000        1.0080           0
  119833 WT8  3245 TIP3 OH2  OT    -0.834000       15.9994           0
  119834 WT8  3245 TIP3 H1   HT     0.417000        1.0080           0
  119835 WT8  3245 TIP3 H2   HT     0.417000        1.0080           0
  119836 WT8  3246 TIP3 OH2  OT    -0.834000       15.9994           0
  119837 WT8  3246 TIP3 H1   HT     0.417000        1.0080           0
  119838 WT8  3246 TIP3 H2   HT     0.417000        1.0080           0
  119839 WT8  3247 TIP3 OH2  OT    -0.834000       15.9994           0
  119840 WT8  3247 TIP3 H1   HT     0.417000        1.0080           0
  119841 WT8  3247 TIP3 H2   HT     0.417000        1.0080           0
  119842 WT8  3249 TIP3 OH2  OT    -0.834000       15.9994           0
  119843 WT8  3249 TIP3 H1   HT     0.417000        1.0080           0
  119844 WT8  3249 TIP3 H2   HT     0.417000        1.0080           0
  119845 WT8  3257 TIP3 OH2  OT    -0.834000       15.9994           0
  119846 WT8  3257 TIP3 H1   HT     0.417000        1.0080           0
  119847 WT8  3257 TIP3 H2   HT     0.417000        1.0080           0
  119848 WT8  3258 TIP3 OH2  OT    -0.834000       15.9994           0
  119849 WT8  3258 TIP3 H1   HT     0.417000        1.0080           0
  119850 WT8  3258 TIP3 H2   HT     0.417000        1.0080           0
  119851 WT8  3261 TIP3 OH2  OT    -0.834000       15.9994           0
  119852 WT8  3261 TIP3 H1   HT     0.417000        1.0080           0
  119853 WT8  3261 TIP3 H2   HT     0.417000        1.0080           0
  119854 WT8  3262 TIP3 OH2  OT    -0.834000       15.9994           0
  119855 WT8  3262 TIP3 H1   HT     0.417000        1.0080           0
  119856 WT8  3262 TIP3 H2   HT     0.417000        1.0080           0
  119857 WT8  3263 TIP3 OH2  OT    -0.834000       15.9994           0
  119858 WT8  3263 TIP3 H1   HT     0.417000        1.0080           0
  119859 WT8  3263 TIP3 H2   HT     0.417000        1.0080           0
  119860 WT8  3264 TIP3 OH2  OT    -0.834000       15.9994           0
  119861 WT8  3264 TIP3 H1   HT     0.417000        1.0080           0
  119862 WT8  3264 TIP3 H2   HT     0.417000        1.0080           0
  119863 WT8  3265 TIP3 OH2  OT    -0.834000       15.9994           0
  119864 WT8  3265 TIP3 H1   HT     0.417000        1.0080           0
  119865 WT8  3265 TIP3 H2   HT     0.417000        1.0080           0
  119866 WT8  3266 TIP3 OH2  OT    -0.834000       15.9994           0
  119867 WT8  3266 TIP3 H1   HT     0.417000        1.0080           0
  119868 WT8  3266 TIP3 H2   HT     0.417000        1.0080           0
  119869 WT8  3267 TIP3 OH2  OT    -0.834000       15.9994           0
  119870 WT8  3267 TIP3 H1   HT     0.417000        1.0080           0
  119871 WT8  3267 TIP3 H2   HT     0.417000        1.0080           0
  119872 WT8  3269 TIP3 OH2  OT    -0.834000       15.9994           0
  119873 WT8  3269 TIP3 H1   HT     0.417000        1.0080           0
  119874 WT8  3269 TIP3 H2   HT     0.417000        1.0080           0
  119875 WT8  3270 TIP3 OH2  OT    -0.834000       15.9994           0
  119876 WT8  3270 TIP3 H1   HT     0.417000        1.0080           0
  119877 WT8  3270 TIP3 H2   HT     0.417000        1.0080           0
  119878 WT8  3272 TIP3 OH2  OT    -0.834000       15.9994           0
  119879 WT8  3272 TIP3 H1   HT     0.417000        1.0080           0
  119880 WT8  3272 TIP3 H2   HT     0.417000        1.0080           0
  119881 WT8  3274 TIP3 OH2  OT    -0.834000       15.9994           0
  119882 WT8  3274 TIP3 H1   HT     0.417000        1.0080           0
  119883 WT8  3274 TIP3 H2   HT     0.417000        1.0080           0
  119884 WT8  3275 TIP3 OH2  OT    -0.834000       15.9994           0
  119885 WT8  3275 TIP3 H1   HT     0.417000        1.0080           0
  119886 WT8  3275 TIP3 H2   HT     0.417000        1.0080           0
  119887 WT8  3276 TIP3 OH2  OT    -0.834000       15.9994           0
  119888 WT8  3276 TIP3 H1   HT     0.417000        1.0080           0
  119889 WT8  3276 TIP3 H2   HT     0.417000        1.0080           0
  119890 WT8  3277 TIP3 OH2  OT    -0.834000       15.9994           0
  119891 WT8  3277 TIP3 H1   HT     0.417000        1.0080           0
  119892 WT8  3277 TIP3 H2   HT     0.417000        1.0080           0
  119893 WT8  3278 TIP3 OH2  OT    -0.834000       15.9994           0
  119894 WT8  3278 TIP3 H1   HT     0.417000        1.0080           0
  119895 WT8  3278 TIP3 H2   HT     0.417000        1.0080           0
  119896 WT8  3280 TIP3 OH2  OT    -0.834000       15.9994           0
  119897 WT8  3280 TIP3 H1   HT     0.417000        1.0080           0
  119898 WT8  3280 TIP3 H2   HT     0.417000        1.0080           0
  119899 WT8  3282 TIP3 OH2  OT    -0.834000       15.9994           0
  119900 WT8  3282 TIP3 H1   HT     0.417000        1.0080           0
  119901 WT8  3282 TIP3 H2   HT     0.417000        1.0080           0
  119902 WT8  3283 TIP3 OH2  OT    -0.834000       15.9994           0
  119903 WT8  3283 TIP3 H1   HT     0.417000        1.0080           0
  119904 WT8  3283 TIP3 H2   HT     0.417000        1.0080           0
  119905 WT8  3284 TIP3 OH2  OT    -0.834000       15.9994           0
  119906 WT8  3284 TIP3 H1   HT     0.417000        1.0080           0
  119907 WT8  3284 TIP3 H2   HT     0.417000        1.0080           0
  119908 WT8  3285 TIP3 OH2  OT    -0.834000       15.9994           0
  119909 WT8  3285 TIP3 H1   HT     0.417000        1.0080           0
  119910 WT8  3285 TIP3 H2   HT     0.417000        1.0080           0
  119911 WT8  3286 TIP3 OH2  OT    -0.834000       15.9994           0
  119912 WT8  3286 TIP3 H1   HT     0.417000        1.0080           0
  119913 WT8  3286 TIP3 H2   HT     0.417000        1.0080           0
  119914 WT8  3287 TIP3 OH2  OT    -0.834000       15.9994           0
  119915 WT8  3287 TIP3 H1   HT     0.417000        1.0080           0
  119916 WT8  3287 TIP3 H2   HT     0.417000        1.0080           0
  119917 WT8  3288 TIP3 OH2  OT    -0.834000       15.9994           0
  119918 WT8  3288 TIP3 H1   HT     0.417000        1.0080           0
  119919 WT8  3288 TIP3 H2   HT     0.417000        1.0080           0
  119920 WT8  3291 TIP3 OH2  OT    -0.834000       15.9994           0
  119921 WT8  3291 TIP3 H1   HT     0.417000        1.0080           0
  119922 WT8  3291 TIP3 H2   HT     0.417000        1.0080           0
  119923 WT8  3293 TIP3 OH2  OT    -0.834000       15.9994           0
  119924 WT8  3293 TIP3 H1   HT     0.417000        1.0080           0
  119925 WT8  3293 TIP3 H2   HT     0.417000        1.0080           0
  119926 WT8  3296 TIP3 OH2  OT    -0.834000       15.9994           0
  119927 WT8  3296 TIP3 H1   HT     0.417000        1.0080           0
  119928 WT8  3296 TIP3 H2   HT     0.417000        1.0080           0
  119929 WT8  3298 TIP3 OH2  OT    -0.834000       15.9994           0
  119930 WT8  3298 TIP3 H1   HT     0.417000        1.0080           0
  119931 WT8  3298 TIP3 H2   HT     0.417000        1.0080           0
  119932 WT8  3301 TIP3 OH2  OT    -0.834000       15.9994           0
  119933 WT8  3301 TIP3 H1   HT     0.417000        1.0080           0
  119934 WT8  3301 TIP3 H2   HT     0.417000        1.0080           0
  119935 WT8  3302 TIP3 OH2  OT    -0.834000       15.9994           0
  119936 WT8  3302 TIP3 H1   HT     0.417000        1.0080           0
  119937 WT8  3302 TIP3 H2   HT     0.417000        1.0080           0
  119938 WT8  3303 TIP3 OH2  OT    -0.834000       15.9994           0
  119939 WT8  3303 TIP3 H1   HT     0.417000        1.0080           0
  119940 WT8  3303 TIP3 H2   HT     0.417000        1.0080           0
  119941 WT8  3304 TIP3 OH2  OT    -0.834000       15.9994           0
  119942 WT8  3304 TIP3 H1   HT     0.417000        1.0080           0
  119943 WT8  3304 TIP3 H2   HT     0.417000        1.0080           0
  119944 WT8  3305 TIP3 OH2  OT    -0.834000       15.9994           0
  119945 WT8  3305 TIP3 H1   HT     0.417000        1.0080           0
  119946 WT8  3305 TIP3 H2   HT     0.417000        1.0080           0
  119947 WT8  3306 TIP3 OH2  OT    -0.834000       15.9994           0
  119948 WT8  3306 TIP3 H1   HT     0.417000        1.0080           0
  119949 WT8  3306 TIP3 H2   HT     0.417000        1.0080           0
  119950 WT8  3307 TIP3 OH2  OT    -0.834000       15.9994           0
  119951 WT8  3307 TIP3 H1   HT     0.417000        1.0080           0
  119952 WT8  3307 TIP3 H2   HT     0.417000        1.0080           0
  119953 WT8  3308 TIP3 OH2  OT    -0.834000       15.9994           0
  119954 WT8  3308 TIP3 H1   HT     0.417000        1.0080           0
  119955 WT8  3308 TIP3 H2   HT     0.417000        1.0080           0
  119956 WT8  3310 TIP3 OH2  OT    -0.834000       15.9994           0
  119957 WT8  3310 TIP3 H1   HT     0.417000        1.0080           0
  119958 WT8  3310 TIP3 H2   HT     0.417000        1.0080           0
  119959 WT8  3312 TIP3 OH2  OT    -0.834000       15.9994           0
  119960 WT8  3312 TIP3 H1   HT     0.417000        1.0080           0
  119961 WT8  3312 TIP3 H2   HT     0.417000        1.0080           0
  119962 WT8  3317 TIP3 OH2  OT    -0.834000       15.9994           0
  119963 WT8  3317 TIP3 H1   HT     0.417000        1.0080           0
  119964 WT8  3317 TIP3 H2   HT     0.417000        1.0080           0
  119965 WT8  3319 TIP3 OH2  OT    -0.834000       15.9994           0
  119966 WT8  3319 TIP3 H1   HT     0.417000        1.0080           0
  119967 WT8  3319 TIP3 H2   HT     0.417000        1.0080           0
  119968 WT8  3321 TIP3 OH2  OT    -0.834000       15.9994           0
  119969 WT8  3321 TIP3 H1   HT     0.417000        1.0080           0
  119970 WT8  3321 TIP3 H2   HT     0.417000        1.0080           0
  119971 WT8  3322 TIP3 OH2  OT    -0.834000       15.9994           0
  119972 WT8  3322 TIP3 H1   HT     0.417000        1.0080           0
  119973 WT8  3322 TIP3 H2   HT     0.417000        1.0080           0
  119974 WT8  3323 TIP3 OH2  OT    -0.834000       15.9994           0
  119975 WT8  3323 TIP3 H1   HT     0.417000        1.0080           0
  119976 WT8  3323 TIP3 H2   HT     0.417000        1.0080           0
  119977 WT8  3325 TIP3 OH2  OT    -0.834000       15.9994           0
  119978 WT8  3325 TIP3 H1   HT     0.417000        1.0080           0
  119979 WT8  3325 TIP3 H2   HT     0.417000        1.0080           0
  119980 WT8  3326 TIP3 OH2  OT    -0.834000       15.9994           0
  119981 WT8  3326 TIP3 H1   HT     0.417000        1.0080           0
  119982 WT8  3326 TIP3 H2   HT     0.417000        1.0080           0
  119983 WT8  3327 TIP3 OH2  OT    -0.834000       15.9994           0
  119984 WT8  3327 TIP3 H1   HT     0.417000        1.0080           0
  119985 WT8  3327 TIP3 H2   HT     0.417000        1.0080           0
  119986 WT8  3330 TIP3 OH2  OT    -0.834000       15.9994           0
  119987 WT8  3330 TIP3 H1   HT     0.417000        1.0080           0
  119988 WT8  3330 TIP3 H2   HT     0.417000        1.0080           0
  119989 WT8  3331 TIP3 OH2  OT    -0.834000       15.9994           0
  119990 WT8  3331 TIP3 H1   HT     0.417000        1.0080           0
  119991 WT8  3331 TIP3 H2   HT     0.417000        1.0080           0
  119992 WT8  3341 TIP3 OH2  OT    -0.834000       15.9994           0
  119993 WT8  3341 TIP3 H1   HT     0.417000        1.0080           0
  119994 WT8  3341 TIP3 H2   HT     0.417000        1.0080           0
  119995 WT8  3342 TIP3 OH2  OT    -0.834000       15.9994           0
  119996 WT8  3342 TIP3 H1   HT     0.417000        1.0080           0
  119997 WT8  3342 TIP3 H2   HT     0.417000        1.0080           0
  119998 WT8  3344 TIP3 OH2  OT    -0.834000       15.9994           0
  119999 WT8  3344 TIP3 H1   HT     0.417000        1.0080           0
  120000 WT8  3344 TIP3 H2   HT     0.417000        1.0080           0
  120001 WT8  3345 TIP3 OH2  OT    -0.834000       15.9994           0
  120002 WT8  3345 TIP3 H1   HT     0.417000        1.0080           0
  120003 WT8  3345 TIP3 H2   HT     0.417000        1.0080           0
  120004 WT8  3346 TIP3 OH2  OT    -0.834000       15.9994           0
  120005 WT8  3346 TIP3 H1   HT     0.417000        1.0080           0
  120006 WT8  3346 TIP3 H2   HT     0.417000        1.0080           0
  120007 WT8  3347 TIP3 OH2  OT    -0.834000       15.9994           0
  120008 WT8  3347 TIP3 H1   HT     0.417000        1.0080           0
  120009 WT8  3347 TIP3 H2   HT     0.417000        1.0080           0
  120010 WT8  3348 TIP3 OH2  OT    -0.834000       15.9994           0
  120011 WT8  3348 TIP3 H1   HT     0.417000        1.0080           0
  120012 WT8  3348 TIP3 H2   HT     0.417000        1.0080           0
  120013 WT8  3349 TIP3 OH2  OT    -0.834000       15.9994           0
  120014 WT8  3349 TIP3 H1   HT     0.417000        1.0080           0
  120015 WT8  3349 TIP3 H2   HT     0.417000        1.0080           0
  120016 WT8  3353 TIP3 OH2  OT    -0.834000       15.9994           0
  120017 WT8  3353 TIP3 H1   HT     0.417000        1.0080           0
  120018 WT8  3353 TIP3 H2   HT     0.417000        1.0080           0
  120019 WT8  3354 TIP3 OH2  OT    -0.834000       15.9994           0
  120020 WT8  3354 TIP3 H1   HT     0.417000        1.0080           0
  120021 WT8  3354 TIP3 H2   HT     0.417000        1.0080           0
  120022 WT8  3355 TIP3 OH2  OT    -0.834000       15.9994           0
  120023 WT8  3355 TIP3 H1   HT     0.417000        1.0080           0
  120024 WT8  3355 TIP3 H2   HT     0.417000        1.0080           0
  120025 WT8  3360 TIP3 OH2  OT    -0.834000       15.9994           0
  120026 WT8  3360 TIP3 H1   HT     0.417000        1.0080           0
  120027 WT8  3360 TIP3 H2   HT     0.417000        1.0080           0
  120028 WT8  3361 TIP3 OH2  OT    -0.834000       15.9994           0
  120029 WT8  3361 TIP3 H1   HT     0.417000        1.0080           0
  120030 WT8  3361 TIP3 H2   HT     0.417000        1.0080           0
  120031 WT8  3362 TIP3 OH2  OT    -0.834000       15.9994           0
  120032 WT8  3362 TIP3 H1   HT     0.417000        1.0080           0
  120033 WT8  3362 TIP3 H2   HT     0.417000        1.0080           0
  120034 WT8  3364 TIP3 OH2  OT    -0.834000       15.9994           0
  120035 WT8  3364 TIP3 H1   HT     0.417000        1.0080           0
  120036 WT8  3364 TIP3 H2   HT     0.417000        1.0080           0
  120037 WT8  3365 TIP3 OH2  OT    -0.834000       15.9994           0
  120038 WT8  3365 TIP3 H1   HT     0.417000        1.0080           0
  120039 WT8  3365 TIP3 H2   HT     0.417000        1.0080           0
  120040 WT8  3366 TIP3 OH2  OT    -0.834000       15.9994           0
  120041 WT8  3366 TIP3 H1   HT     0.417000        1.0080           0
  120042 WT8  3366 TIP3 H2   HT     0.417000        1.0080           0
  120043 WT8  3367 TIP3 OH2  OT    -0.834000       15.9994           0
  120044 WT8  3367 TIP3 H1   HT     0.417000        1.0080           0
  120045 WT8  3367 TIP3 H2   HT     0.417000        1.0080           0
  120046 WT8  3369 TIP3 OH2  OT    -0.834000       15.9994           0
  120047 WT8  3369 TIP3 H1   HT     0.417000        1.0080           0
  120048 WT8  3369 TIP3 H2   HT     0.417000        1.0080           0
  120049 WT8  3371 TIP3 OH2  OT    -0.834000       15.9994           0
  120050 WT8  3371 TIP3 H1   HT     0.417000        1.0080           0
  120051 WT8  3371 TIP3 H2   HT     0.417000        1.0080           0
  120052 WT8  3373 TIP3 OH2  OT    -0.834000       15.9994           0
  120053 WT8  3373 TIP3 H1   HT     0.417000        1.0080           0
  120054 WT8  3373 TIP3 H2   HT     0.417000        1.0080           0
  120055 WT8  3381 TIP3 OH2  OT    -0.834000       15.9994           0
  120056 WT8  3381 TIP3 H1   HT     0.417000        1.0080           0
  120057 WT8  3381 TIP3 H2   HT     0.417000        1.0080           0
  120058 WT8  3382 TIP3 OH2  OT    -0.834000       15.9994           0
  120059 WT8  3382 TIP3 H1   HT     0.417000        1.0080           0
  120060 WT8  3382 TIP3 H2   HT     0.417000        1.0080           0
  120061 WT8  3386 TIP3 OH2  OT    -0.834000       15.9994           0
  120062 WT8  3386 TIP3 H1   HT     0.417000        1.0080           0
  120063 WT8  3386 TIP3 H2   HT     0.417000        1.0080           0
  120064 WT8  3387 TIP3 OH2  OT    -0.834000       15.9994           0
  120065 WT8  3387 TIP3 H1   HT     0.417000        1.0080           0
  120066 WT8  3387 TIP3 H2   HT     0.417000        1.0080           0
  120067 WT8  3390 TIP3 OH2  OT    -0.834000       15.9994           0
  120068 WT8  3390 TIP3 H1   HT     0.417000        1.0080           0
  120069 WT8  3390 TIP3 H2   HT     0.417000        1.0080           0
  120070 WT8  3401 TIP3 OH2  OT    -0.834000       15.9994           0
  120071 WT8  3401 TIP3 H1   HT     0.417000        1.0080           0
  120072 WT8  3401 TIP3 H2   HT     0.417000        1.0080           0
  120073 WT8  3402 TIP3 OH2  OT    -0.834000       15.9994           0
  120074 WT8  3402 TIP3 H1   HT     0.417000        1.0080           0
  120075 WT8  3402 TIP3 H2   HT     0.417000        1.0080           0
  120076 WT8  3406 TIP3 OH2  OT    -0.834000       15.9994           0
  120077 WT8  3406 TIP3 H1   HT     0.417000        1.0080           0
  120078 WT8  3406 TIP3 H2   HT     0.417000        1.0080           0
  120079 WT8  3407 TIP3 OH2  OT    -0.834000       15.9994           0
  120080 WT8  3407 TIP3 H1   HT     0.417000        1.0080           0
  120081 WT8  3407 TIP3 H2   HT     0.417000        1.0080           0
  120082 WT8  3408 TIP3 OH2  OT    -0.834000       15.9994           0
  120083 WT8  3408 TIP3 H1   HT     0.417000        1.0080           0
  120084 WT8  3408 TIP3 H2   HT     0.417000        1.0080           0
  120085 WT8  3415 TIP3 OH2  OT    -0.834000       15.9994           0
  120086 WT8  3415 TIP3 H1   HT     0.417000        1.0080           0
  120087 WT8  3415 TIP3 H2   HT     0.417000        1.0080           0
  120088 WT8  3426 TIP3 OH2  OT    -0.834000       15.9994           0
  120089 WT8  3426 TIP3 H1   HT     0.417000        1.0080           0
  120090 WT8  3426 TIP3 H2   HT     0.417000        1.0080           0
  120091 WT8  3427 TIP3 OH2  OT    -0.834000       15.9994           0
  120092 WT8  3427 TIP3 H1   HT     0.417000        1.0080           0
  120093 WT8  3427 TIP3 H2   HT     0.417000        1.0080           0
  120094 WT8  3429 TIP3 OH2  OT    -0.834000       15.9994           0
  120095 WT8  3429 TIP3 H1   HT     0.417000        1.0080           0
  120096 WT8  3429 TIP3 H2   HT     0.417000        1.0080           0
  120097 WT8  3430 TIP3 OH2  OT    -0.834000       15.9994           0
  120098 WT8  3430 TIP3 H1   HT     0.417000        1.0080           0
  120099 WT8  3430 TIP3 H2   HT     0.417000        1.0080           0
  120100 WT8  3434 TIP3 OH2  OT    -0.834000       15.9994           0
  120101 WT8  3434 TIP3 H1   HT     0.417000        1.0080           0
  120102 WT8  3434 TIP3 H2   HT     0.417000        1.0080           0
  120103 WT8  3442 TIP3 OH2  OT    -0.834000       15.9994           0
  120104 WT8  3442 TIP3 H1   HT     0.417000        1.0080           0
  120105 WT8  3442 TIP3 H2   HT     0.417000        1.0080           0
  120106 WT8  3447 TIP3 OH2  OT    -0.834000       15.9994           0
  120107 WT8  3447 TIP3 H1   HT     0.417000        1.0080           0
  120108 WT8  3447 TIP3 H2   HT     0.417000        1.0080           0
  120109 WT8  3450 TIP3 OH2  OT    -0.834000       15.9994           0
  120110 WT8  3450 TIP3 H1   HT     0.417000        1.0080           0
  120111 WT8  3450 TIP3 H2   HT     0.417000        1.0080           0
  120112 WT8  3473 TIP3 OH2  OT    -0.834000       15.9994           0
  120113 WT8  3473 TIP3 H1   HT     0.417000        1.0080           0
  120114 WT8  3473 TIP3 H2   HT     0.417000        1.0080           0
  120115 WT8  3474 TIP3 OH2  OT    -0.834000       15.9994           0
  120116 WT8  3474 TIP3 H1   HT     0.417000        1.0080           0
  120117 WT8  3474 TIP3 H2   HT     0.417000        1.0080           0
  120118 WT8  3476 TIP3 OH2  OT    -0.834000       15.9994           0
  120119 WT8  3476 TIP3 H1   HT     0.417000        1.0080           0
  120120 WT8  3476 TIP3 H2   HT     0.417000        1.0080           0
  120121 WT8  3480 TIP3 OH2  OT    -0.834000       15.9994           0
  120122 WT8  3480 TIP3 H1   HT     0.417000        1.0080           0
  120123 WT8  3480 TIP3 H2   HT     0.417000        1.0080           0
  120124 WT8  3484 TIP3 OH2  OT    -0.834000       15.9994           0
  120125 WT8  3484 TIP3 H1   HT     0.417000        1.0080           0
  120126 WT8  3484 TIP3 H2   HT     0.417000        1.0080           0
  120127 WT8  3496 TIP3 OH2  OT    -0.834000       15.9994           0
  120128 WT8  3496 TIP3 H1   HT     0.417000        1.0080           0
  120129 WT8  3496 TIP3 H2   HT     0.417000        1.0080           0
  120130 WT8  3504 TIP3 OH2  OT    -0.834000       15.9994           0
  120131 WT8  3504 TIP3 H1   HT     0.417000        1.0080           0
  120132 WT8  3504 TIP3 H2   HT     0.417000        1.0080           0
  120133 WT8  3511 TIP3 OH2  OT    -0.834000       15.9994           0
  120134 WT8  3511 TIP3 H1   HT     0.417000        1.0080           0
  120135 WT8  3511 TIP3 H2   HT     0.417000        1.0080           0
  120136 WT8  3513 TIP3 OH2  OT    -0.834000       15.9994           0
  120137 WT8  3513 TIP3 H1   HT     0.417000        1.0080           0
  120138 WT8  3513 TIP3 H2   HT     0.417000        1.0080           0
  120139 WT8  3517 TIP3 OH2  OT    -0.834000       15.9994           0
  120140 WT8  3517 TIP3 H1   HT     0.417000        1.0080           0
  120141 WT8  3517 TIP3 H2   HT     0.417000        1.0080           0
  120142 WT8  3526 TIP3 OH2  OT    -0.834000       15.9994           0
  120143 WT8  3526 TIP3 H1   HT     0.417000        1.0080           0
  120144 WT8  3526 TIP3 H2   HT     0.417000        1.0080           0
  120145 WT8  3527 TIP3 OH2  OT    -0.834000       15.9994           0
  120146 WT8  3527 TIP3 H1   HT     0.417000        1.0080           0
  120147 WT8  3527 TIP3 H2   HT     0.417000        1.0080           0
  120148 WT8  3533 TIP3 OH2  OT    -0.834000       15.9994           0
  120149 WT8  3533 TIP3 H1   HT     0.417000        1.0080           0
  120150 WT8  3533 TIP3 H2   HT     0.417000        1.0080           0
  120151 WT8  3534 TIP3 OH2  OT    -0.834000       15.9994           0
  120152 WT8  3534 TIP3 H1   HT     0.417000        1.0080           0
  120153 WT8  3534 TIP3 H2   HT     0.417000        1.0080           0
  120154 WT8  3537 TIP3 OH2  OT    -0.834000       15.9994           0
  120155 WT8  3537 TIP3 H1   HT     0.417000        1.0080           0
  120156 WT8  3537 TIP3 H2   HT     0.417000        1.0080           0
  120157 WT8  3554 TIP3 OH2  OT    -0.834000       15.9994           0
  120158 WT8  3554 TIP3 H1   HT     0.417000        1.0080           0
  120159 WT8  3554 TIP3 H2   HT     0.417000        1.0080           0
  120160 WT8  3555 TIP3 OH2  OT    -0.834000       15.9994           0
  120161 WT8  3555 TIP3 H1   HT     0.417000        1.0080           0
  120162 WT8  3555 TIP3 H2   HT     0.417000        1.0080           0
  120163 WT8  3556 TIP3 OH2  OT    -0.834000       15.9994           0
  120164 WT8  3556 TIP3 H1   HT     0.417000        1.0080           0
  120165 WT8  3556 TIP3 H2   HT     0.417000        1.0080           0
  120166 WT8  3557 TIP3 OH2  OT    -0.834000       15.9994           0
  120167 WT8  3557 TIP3 H1   HT     0.417000        1.0080           0
  120168 WT8  3557 TIP3 H2   HT     0.417000        1.0080           0
  120169 WT8  3558 TIP3 OH2  OT    -0.834000       15.9994           0
  120170 WT8  3558 TIP3 H1   HT     0.417000        1.0080           0
  120171 WT8  3558 TIP3 H2   HT     0.417000        1.0080           0
  120172 WT8  3560 TIP3 OH2  OT    -0.834000       15.9994           0
  120173 WT8  3560 TIP3 H1   HT     0.417000        1.0080           0
  120174 WT8  3560 TIP3 H2   HT     0.417000        1.0080           0
  120175 WT8  3561 TIP3 OH2  OT    -0.834000       15.9994           0
  120176 WT8  3561 TIP3 H1   HT     0.417000        1.0080           0
  120177 WT8  3561 TIP3 H2   HT     0.417000        1.0080           0
  120178 WT8  3562 TIP3 OH2  OT    -0.834000       15.9994           0
  120179 WT8  3562 TIP3 H1   HT     0.417000        1.0080           0
  120180 WT8  3562 TIP3 H2   HT     0.417000        1.0080           0
  120181 WT8  3563 TIP3 OH2  OT    -0.834000       15.9994           0
  120182 WT8  3563 TIP3 H1   HT     0.417000        1.0080           0
  120183 WT8  3563 TIP3 H2   HT     0.417000        1.0080           0
  120184 WT8  3569 TIP3 OH2  OT    -0.834000       15.9994           0
  120185 WT8  3569 TIP3 H1   HT     0.417000        1.0080           0
  120186 WT8  3569 TIP3 H2   HT     0.417000        1.0080           0
  120187 WT8  3573 TIP3 OH2  OT    -0.834000       15.9994           0
  120188 WT8  3573 TIP3 H1   HT     0.417000        1.0080           0
  120189 WT8  3573 TIP3 H2   HT     0.417000        1.0080           0
  120190 WT8  3575 TIP3 OH2  OT    -0.834000       15.9994           0
  120191 WT8  3575 TIP3 H1   HT     0.417000        1.0080           0
  120192 WT8  3575 TIP3 H2   HT     0.417000        1.0080           0
  120193 WT8  3576 TIP3 OH2  OT    -0.834000       15.9994           0
  120194 WT8  3576 TIP3 H1   HT     0.417000        1.0080           0
  120195 WT8  3576 TIP3 H2   HT     0.417000        1.0080           0
  120196 WT8  3578 TIP3 OH2  OT    -0.834000       15.9994           0
  120197 WT8  3578 TIP3 H1   HT     0.417000        1.0080           0
  120198 WT8  3578 TIP3 H2   HT     0.417000        1.0080           0
  120199 WT8  3579 TIP3 OH2  OT    -0.834000       15.9994           0
  120200 WT8  3579 TIP3 H1   HT     0.417000        1.0080           0
  120201 WT8  3579 TIP3 H2   HT     0.417000        1.0080           0
  120202 WT8  3580 TIP3 OH2  OT    -0.834000       15.9994           0
  120203 WT8  3580 TIP3 H1   HT     0.417000        1.0080           0
  120204 WT8  3580 TIP3 H2   HT     0.417000        1.0080           0
  120205 WT8  3582 TIP3 OH2  OT    -0.834000       15.9994           0
  120206 WT8  3582 TIP3 H1   HT     0.417000        1.0080           0
  120207 WT8  3582 TIP3 H2   HT     0.417000        1.0080           0
  120208 WT8  3583 TIP3 OH2  OT    -0.834000       15.9994           0
  120209 WT8  3583 TIP3 H1   HT     0.417000        1.0080           0
  120210 WT8  3583 TIP3 H2   HT     0.417000        1.0080           0
  120211 WT8  3586 TIP3 OH2  OT    -0.834000       15.9994           0
  120212 WT8  3586 TIP3 H1   HT     0.417000        1.0080           0
  120213 WT8  3586 TIP3 H2   HT     0.417000        1.0080           0
  120214 WT8  3592 TIP3 OH2  OT    -0.834000       15.9994           0
  120215 WT8  3592 TIP3 H1   HT     0.417000        1.0080           0
  120216 WT8  3592 TIP3 H2   HT     0.417000        1.0080           0
  120217 WT8  3593 TIP3 OH2  OT    -0.834000       15.9994           0
  120218 WT8  3593 TIP3 H1   HT     0.417000        1.0080           0
  120219 WT8  3593 TIP3 H2   HT     0.417000        1.0080           0
  120220 WT8  3595 TIP3 OH2  OT    -0.834000       15.9994           0
  120221 WT8  3595 TIP3 H1   HT     0.417000        1.0080           0
  120222 WT8  3595 TIP3 H2   HT     0.417000        1.0080           0
  120223 WT8  3596 TIP3 OH2  OT    -0.834000       15.9994           0
  120224 WT8  3596 TIP3 H1   HT     0.417000        1.0080           0
  120225 WT8  3596 TIP3 H2   HT     0.417000        1.0080           0
  120226 WT8  3597 TIP3 OH2  OT    -0.834000       15.9994           0
  120227 WT8  3597 TIP3 H1   HT     0.417000        1.0080           0
  120228 WT8  3597 TIP3 H2   HT     0.417000        1.0080           0
  120229 WT8  3598 TIP3 OH2  OT    -0.834000       15.9994           0
  120230 WT8  3598 TIP3 H1   HT     0.417000        1.0080           0
  120231 WT8  3598 TIP3 H2   HT     0.417000        1.0080           0
  120232 WT8  3599 TIP3 OH2  OT    -0.834000       15.9994           0
  120233 WT8  3599 TIP3 H1   HT     0.417000        1.0080           0
  120234 WT8  3599 TIP3 H2   HT     0.417000        1.0080           0
  120235 WT8  3600 TIP3 OH2  OT    -0.834000       15.9994           0
  120236 WT8  3600 TIP3 H1   HT     0.417000        1.0080           0
  120237 WT8  3600 TIP3 H2   HT     0.417000        1.0080           0
  120238 WT8  3601 TIP3 OH2  OT    -0.834000       15.9994           0
  120239 WT8  3601 TIP3 H1   HT     0.417000        1.0080           0
  120240 WT8  3601 TIP3 H2   HT     0.417000        1.0080           0
  120241 WT8  3602 TIP3 OH2  OT    -0.834000       15.9994           0
  120242 WT8  3602 TIP3 H1   HT     0.417000        1.0080           0
  120243 WT8  3602 TIP3 H2   HT     0.417000        1.0080           0
  120244 WT8  3603 TIP3 OH2  OT    -0.834000       15.9994           0
  120245 WT8  3603 TIP3 H1   HT     0.417000        1.0080           0
  120246 WT8  3603 TIP3 H2   HT     0.417000        1.0080           0
  120247 WT8  3604 TIP3 OH2  OT    -0.834000       15.9994           0
  120248 WT8  3604 TIP3 H1   HT     0.417000        1.0080           0
  120249 WT8  3604 TIP3 H2   HT     0.417000        1.0080           0
  120250 WT8  3612 TIP3 OH2  OT    -0.834000       15.9994           0
  120251 WT8  3612 TIP3 H1   HT     0.417000        1.0080           0
  120252 WT8  3612 TIP3 H2   HT     0.417000        1.0080           0
  120253 WT8  3614 TIP3 OH2  OT    -0.834000       15.9994           0
  120254 WT8  3614 TIP3 H1   HT     0.417000        1.0080           0
  120255 WT8  3614 TIP3 H2   HT     0.417000        1.0080           0
  120256 WT8  3615 TIP3 OH2  OT    -0.834000       15.9994           0
  120257 WT8  3615 TIP3 H1   HT     0.417000        1.0080           0
  120258 WT8  3615 TIP3 H2   HT     0.417000        1.0080           0
  120259 WT8  3616 TIP3 OH2  OT    -0.834000       15.9994           0
  120260 WT8  3616 TIP3 H1   HT     0.417000        1.0080           0
  120261 WT8  3616 TIP3 H2   HT     0.417000        1.0080           0
  120262 WT8  3617 TIP3 OH2  OT    -0.834000       15.9994           0
  120263 WT8  3617 TIP3 H1   HT     0.417000        1.0080           0
  120264 WT8  3617 TIP3 H2   HT     0.417000        1.0080           0
  120265 WT8  3618 TIP3 OH2  OT    -0.834000       15.9994           0
  120266 WT8  3618 TIP3 H1   HT     0.417000        1.0080           0
  120267 WT8  3618 TIP3 H2   HT     0.417000        1.0080           0
  120268 WT8  3619 TIP3 OH2  OT    -0.834000       15.9994           0
  120269 WT8  3619 TIP3 H1   HT     0.417000        1.0080           0
  120270 WT8  3619 TIP3 H2   HT     0.417000        1.0080           0
  120271 WT8  3620 TIP3 OH2  OT    -0.834000       15.9994           0
  120272 WT8  3620 TIP3 H1   HT     0.417000        1.0080           0
  120273 WT8  3620 TIP3 H2   HT     0.417000        1.0080           0
  120274 WT8  3621 TIP3 OH2  OT    -0.834000       15.9994           0
  120275 WT8  3621 TIP3 H1   HT     0.417000        1.0080           0
  120276 WT8  3621 TIP3 H2   HT     0.417000        1.0080           0
  120277 WT8  3622 TIP3 OH2  OT    -0.834000       15.9994           0
  120278 WT8  3622 TIP3 H1   HT     0.417000        1.0080           0
  120279 WT8  3622 TIP3 H2   HT     0.417000        1.0080           0
  120280 WT8  3623 TIP3 OH2  OT    -0.834000       15.9994           0
  120281 WT8  3623 TIP3 H1   HT     0.417000        1.0080           0
  120282 WT8  3623 TIP3 H2   HT     0.417000        1.0080           0
  120283 WT8  3625 TIP3 OH2  OT    -0.834000       15.9994           0
  120284 WT8  3625 TIP3 H1   HT     0.417000        1.0080           0
  120285 WT8  3625 TIP3 H2   HT     0.417000        1.0080           0
  120286 WT8  3626 TIP3 OH2  OT    -0.834000       15.9994           0
  120287 WT8  3626 TIP3 H1   HT     0.417000        1.0080           0
  120288 WT8  3626 TIP3 H2   HT     0.417000        1.0080           0
  120289 WT8  3627 TIP3 OH2  OT    -0.834000       15.9994           0
  120290 WT8  3627 TIP3 H1   HT     0.417000        1.0080           0
  120291 WT8  3627 TIP3 H2   HT     0.417000        1.0080           0
  120292 WT8  3628 TIP3 OH2  OT    -0.834000       15.9994           0
  120293 WT8  3628 TIP3 H1   HT     0.417000        1.0080           0
  120294 WT8  3628 TIP3 H2   HT     0.417000        1.0080           0
  120295 WT8  3633 TIP3 OH2  OT    -0.834000       15.9994           0
  120296 WT8  3633 TIP3 H1   HT     0.417000        1.0080           0
  120297 WT8  3633 TIP3 H2   HT     0.417000        1.0080           0
  120298 WT8  3634 TIP3 OH2  OT    -0.834000       15.9994           0
  120299 WT8  3634 TIP3 H1   HT     0.417000        1.0080           0
  120300 WT8  3634 TIP3 H2   HT     0.417000        1.0080           0
  120301 WT8  3636 TIP3 OH2  OT    -0.834000       15.9994           0
  120302 WT8  3636 TIP3 H1   HT     0.417000        1.0080           0
  120303 WT8  3636 TIP3 H2   HT     0.417000        1.0080           0
  120304 WT8  3638 TIP3 OH2  OT    -0.834000       15.9994           0
  120305 WT8  3638 TIP3 H1   HT     0.417000        1.0080           0
  120306 WT8  3638 TIP3 H2   HT     0.417000        1.0080           0
  120307 WT8  3639 TIP3 OH2  OT    -0.834000       15.9994           0
  120308 WT8  3639 TIP3 H1   HT     0.417000        1.0080           0
  120309 WT8  3639 TIP3 H2   HT     0.417000        1.0080           0
  120310 WT8  3640 TIP3 OH2  OT    -0.834000       15.9994           0
  120311 WT8  3640 TIP3 H1   HT     0.417000        1.0080           0
  120312 WT8  3640 TIP3 H2   HT     0.417000        1.0080           0
  120313 WT8  3641 TIP3 OH2  OT    -0.834000       15.9994           0
  120314 WT8  3641 TIP3 H1   HT     0.417000        1.0080           0
  120315 WT8  3641 TIP3 H2   HT     0.417000        1.0080           0
  120316 WT8  3642 TIP3 OH2  OT    -0.834000       15.9994           0
  120317 WT8  3642 TIP3 H1   HT     0.417000        1.0080           0
  120318 WT8  3642 TIP3 H2   HT     0.417000        1.0080           0
  120319 WT8  3643 TIP3 OH2  OT    -0.834000       15.9994           0
  120320 WT8  3643 TIP3 H1   HT     0.417000        1.0080           0
  120321 WT8  3643 TIP3 H2   HT     0.417000        1.0080           0
  120322 WT8  3645 TIP3 OH2  OT    -0.834000       15.9994           0
  120323 WT8  3645 TIP3 H1   HT     0.417000        1.0080           0
  120324 WT8  3645 TIP3 H2   HT     0.417000        1.0080           0
  120325 WT8  3646 TIP3 OH2  OT    -0.834000       15.9994           0
  120326 WT8  3646 TIP3 H1   HT     0.417000        1.0080           0
  120327 WT8  3646 TIP3 H2   HT     0.417000        1.0080           0
  120328 WT8  3650 TIP3 OH2  OT    -0.834000       15.9994           0
  120329 WT8  3650 TIP3 H1   HT     0.417000        1.0080           0
  120330 WT8  3650 TIP3 H2   HT     0.417000        1.0080           0
  120331 WT8  3651 TIP3 OH2  OT    -0.834000       15.9994           0
  120332 WT8  3651 TIP3 H1   HT     0.417000        1.0080           0
  120333 WT8  3651 TIP3 H2   HT     0.417000        1.0080           0
  120334 WT8  3653 TIP3 OH2  OT    -0.834000       15.9994           0
  120335 WT8  3653 TIP3 H1   HT     0.417000        1.0080           0
  120336 WT8  3653 TIP3 H2   HT     0.417000        1.0080           0
  120337 WT8  3657 TIP3 OH2  OT    -0.834000       15.9994           0
  120338 WT8  3657 TIP3 H1   HT     0.417000        1.0080           0
  120339 WT8  3657 TIP3 H2   HT     0.417000        1.0080           0
  120340 WT8  3658 TIP3 OH2  OT    -0.834000       15.9994           0
  120341 WT8  3658 TIP3 H1   HT     0.417000        1.0080           0
  120342 WT8  3658 TIP3 H2   HT     0.417000        1.0080           0
  120343 WT8  3659 TIP3 OH2  OT    -0.834000       15.9994           0
  120344 WT8  3659 TIP3 H1   HT     0.417000        1.0080           0
  120345 WT8  3659 TIP3 H2   HT     0.417000        1.0080           0
  120346 WT8  3660 TIP3 OH2  OT    -0.834000       15.9994           0
  120347 WT8  3660 TIP3 H1   HT     0.417000        1.0080           0
  120348 WT8  3660 TIP3 H2   HT     0.417000        1.0080           0
  120349 WT8  3661 TIP3 OH2  OT    -0.834000       15.9994           0
  120350 WT8  3661 TIP3 H1   HT     0.417000        1.0080           0
  120351 WT8  3661 TIP3 H2   HT     0.417000        1.0080           0
  120352 WT8  3662 TIP3 OH2  OT    -0.834000       15.9994           0
  120353 WT8  3662 TIP3 H1   HT     0.417000        1.0080           0
  120354 WT8  3662 TIP3 H2   HT     0.417000        1.0080           0
  120355 WT8  3663 TIP3 OH2  OT    -0.834000       15.9994           0
  120356 WT8  3663 TIP3 H1   HT     0.417000        1.0080           0
  120357 WT8  3663 TIP3 H2   HT     0.417000        1.0080           0
  120358 WT8  3664 TIP3 OH2  OT    -0.834000       15.9994           0
  120359 WT8  3664 TIP3 H1   HT     0.417000        1.0080           0
  120360 WT8  3664 TIP3 H2   HT     0.417000        1.0080           0
  120361 WT8  3665 TIP3 OH2  OT    -0.834000       15.9994           0
  120362 WT8  3665 TIP3 H1   HT     0.417000        1.0080           0
  120363 WT8  3665 TIP3 H2   HT     0.417000        1.0080           0
  120364 WT8  3666 TIP3 OH2  OT    -0.834000       15.9994           0
  120365 WT8  3666 TIP3 H1   HT     0.417000        1.0080           0
  120366 WT8  3666 TIP3 H2   HT     0.417000        1.0080           0
  120367 WT8  3667 TIP3 OH2  OT    -0.834000       15.9994           0
  120368 WT8  3667 TIP3 H1   HT     0.417000        1.0080           0
  120369 WT8  3667 TIP3 H2   HT     0.417000        1.0080           0
  120370 WT8  3674 TIP3 OH2  OT    -0.834000       15.9994           0
  120371 WT8  3674 TIP3 H1   HT     0.417000        1.0080           0
  120372 WT8  3674 TIP3 H2   HT     0.417000        1.0080           0
  120373 WT8  3675 TIP3 OH2  OT    -0.834000       15.9994           0
  120374 WT8  3675 TIP3 H1   HT     0.417000        1.0080           0
  120375 WT8  3675 TIP3 H2   HT     0.417000        1.0080           0
  120376 WT8  3677 TIP3 OH2  OT    -0.834000       15.9994           0
  120377 WT8  3677 TIP3 H1   HT     0.417000        1.0080           0
  120378 WT8  3677 TIP3 H2   HT     0.417000        1.0080           0
  120379 WT8  3678 TIP3 OH2  OT    -0.834000       15.9994           0
  120380 WT8  3678 TIP3 H1   HT     0.417000        1.0080           0
  120381 WT8  3678 TIP3 H2   HT     0.417000        1.0080           0
  120382 WT8  3680 TIP3 OH2  OT    -0.834000       15.9994           0
  120383 WT8  3680 TIP3 H1   HT     0.417000        1.0080           0
  120384 WT8  3680 TIP3 H2   HT     0.417000        1.0080           0
  120385 WT8  3681 TIP3 OH2  OT    -0.834000       15.9994           0
  120386 WT8  3681 TIP3 H1   HT     0.417000        1.0080           0
  120387 WT8  3681 TIP3 H2   HT     0.417000        1.0080           0
  120388 WT8  3682 TIP3 OH2  OT    -0.834000       15.9994           0
  120389 WT8  3682 TIP3 H1   HT     0.417000        1.0080           0
  120390 WT8  3682 TIP3 H2   HT     0.417000        1.0080           0
  120391 WT8  3683 TIP3 OH2  OT    -0.834000       15.9994           0
  120392 WT8  3683 TIP3 H1   HT     0.417000        1.0080           0
  120393 WT8  3683 TIP3 H2   HT     0.417000        1.0080           0
  120394 WT8  3684 TIP3 OH2  OT    -0.834000       15.9994           0
  120395 WT8  3684 TIP3 H1   HT     0.417000        1.0080           0
  120396 WT8  3684 TIP3 H2   HT     0.417000        1.0080           0
  120397 WT8  3685 TIP3 OH2  OT    -0.834000       15.9994           0
  120398 WT8  3685 TIP3 H1   HT     0.417000        1.0080           0
  120399 WT8  3685 TIP3 H2   HT     0.417000        1.0080           0
  120400 WT8  3686 TIP3 OH2  OT    -0.834000       15.9994           0
  120401 WT8  3686 TIP3 H1   HT     0.417000        1.0080           0
  120402 WT8  3686 TIP3 H2   HT     0.417000        1.0080           0
  120403 WT8  3687 TIP3 OH2  OT    -0.834000       15.9994           0
  120404 WT8  3687 TIP3 H1   HT     0.417000        1.0080           0
  120405 WT8  3687 TIP3 H2   HT     0.417000        1.0080           0
  120406 WT8  3688 TIP3 OH2  OT    -0.834000       15.9994           0
  120407 WT8  3688 TIP3 H1   HT     0.417000        1.0080           0
  120408 WT8  3688 TIP3 H2   HT     0.417000        1.0080           0
  120409 WT8  3693 TIP3 OH2  OT    -0.834000       15.9994           0
  120410 WT8  3693 TIP3 H1   HT     0.417000        1.0080           0
  120411 WT8  3693 TIP3 H2   HT     0.417000        1.0080           0
  120412 WT8  3697 TIP3 OH2  OT    -0.834000       15.9994           0
  120413 WT8  3697 TIP3 H1   HT     0.417000        1.0080           0
  120414 WT8  3697 TIP3 H2   HT     0.417000        1.0080           0
  120415 WT8  3698 TIP3 OH2  OT    -0.834000       15.9994           0
  120416 WT8  3698 TIP3 H1   HT     0.417000        1.0080           0
  120417 WT8  3698 TIP3 H2   HT     0.417000        1.0080           0
  120418 WT8  3700 TIP3 OH2  OT    -0.834000       15.9994           0
  120419 WT8  3700 TIP3 H1   HT     0.417000        1.0080           0
  120420 WT8  3700 TIP3 H2   HT     0.417000        1.0080           0
  120421 WT8  3701 TIP3 OH2  OT    -0.834000       15.9994           0
  120422 WT8  3701 TIP3 H1   HT     0.417000        1.0080           0
  120423 WT8  3701 TIP3 H2   HT     0.417000        1.0080           0
  120424 WT8  3702 TIP3 OH2  OT    -0.834000       15.9994           0
  120425 WT8  3702 TIP3 H1   HT     0.417000        1.0080           0
  120426 WT8  3702 TIP3 H2   HT     0.417000        1.0080           0
  120427 WT8  3703 TIP3 OH2  OT    -0.834000       15.9994           0
  120428 WT8  3703 TIP3 H1   HT     0.417000        1.0080           0
  120429 WT8  3703 TIP3 H2   HT     0.417000        1.0080           0
  120430 WT8  3704 TIP3 OH2  OT    -0.834000       15.9994           0
  120431 WT8  3704 TIP3 H1   HT     0.417000        1.0080           0
  120432 WT8  3704 TIP3 H2   HT     0.417000        1.0080           0
  120433 WT8  3705 TIP3 OH2  OT    -0.834000       15.9994           0
  120434 WT8  3705 TIP3 H1   HT     0.417000        1.0080           0
  120435 WT8  3705 TIP3 H2   HT     0.417000        1.0080           0
  120436 WT8  3706 TIP3 OH2  OT    -0.834000       15.9994           0
  120437 WT8  3706 TIP3 H1   HT     0.417000        1.0080           0
  120438 WT8  3706 TIP3 H2   HT     0.417000        1.0080           0
  120439 WT8  3707 TIP3 OH2  OT    -0.834000       15.9994           0
  120440 WT8  3707 TIP3 H1   HT     0.417000        1.0080           0
  120441 WT8  3707 TIP3 H2   HT     0.417000        1.0080           0
  120442 WT8  3708 TIP3 OH2  OT    -0.834000       15.9994           0
  120443 WT8  3708 TIP3 H1   HT     0.417000        1.0080           0
  120444 WT8  3708 TIP3 H2   HT     0.417000        1.0080           0
  120445 WT8  3709 TIP3 OH2  OT    -0.834000       15.9994           0
  120446 WT8  3709 TIP3 H1   HT     0.417000        1.0080           0
  120447 WT8  3709 TIP3 H2   HT     0.417000        1.0080           0
  120448 WT8  3710 TIP3 OH2  OT    -0.834000       15.9994           0
  120449 WT8  3710 TIP3 H1   HT     0.417000        1.0080           0
  120450 WT8  3710 TIP3 H2   HT     0.417000        1.0080           0
  120451 WT8  3718 TIP3 OH2  OT    -0.834000       15.9994           0
  120452 WT8  3718 TIP3 H1   HT     0.417000        1.0080           0
  120453 WT8  3718 TIP3 H2   HT     0.417000        1.0080           0
  120454 WT8  3719 TIP3 OH2  OT    -0.834000       15.9994           0
  120455 WT8  3719 TIP3 H1   HT     0.417000        1.0080           0
  120456 WT8  3719 TIP3 H2   HT     0.417000        1.0080           0
  120457 WT8  3720 TIP3 OH2  OT    -0.834000       15.9994           0
  120458 WT8  3720 TIP3 H1   HT     0.417000        1.0080           0
  120459 WT8  3720 TIP3 H2   HT     0.417000        1.0080           0
  120460 WT8  3721 TIP3 OH2  OT    -0.834000       15.9994           0
  120461 WT8  3721 TIP3 H1   HT     0.417000        1.0080           0
  120462 WT8  3721 TIP3 H2   HT     0.417000        1.0080           0
  120463 WT8  3722 TIP3 OH2  OT    -0.834000       15.9994           0
  120464 WT8  3722 TIP3 H1   HT     0.417000        1.0080           0
  120465 WT8  3722 TIP3 H2   HT     0.417000        1.0080           0
  120466 WT8  3723 TIP3 OH2  OT    -0.834000       15.9994           0
  120467 WT8  3723 TIP3 H1   HT     0.417000        1.0080           0
  120468 WT8  3723 TIP3 H2   HT     0.417000        1.0080           0
  120469 WT8  3724 TIP3 OH2  OT    -0.834000       15.9994           0
  120470 WT8  3724 TIP3 H1   HT     0.417000        1.0080           0
  120471 WT8  3724 TIP3 H2   HT     0.417000        1.0080           0
  120472 WT8  3725 TIP3 OH2  OT    -0.834000       15.9994           0
  120473 WT8  3725 TIP3 H1   HT     0.417000        1.0080           0
  120474 WT8  3725 TIP3 H2   HT     0.417000        1.0080           0
  120475 WT8  3726 TIP3 OH2  OT    -0.834000       15.9994           0
  120476 WT8  3726 TIP3 H1   HT     0.417000        1.0080           0
  120477 WT8  3726 TIP3 H2   HT     0.417000        1.0080           0
  120478 WT8  3727 TIP3 OH2  OT    -0.834000       15.9994           0
  120479 WT8  3727 TIP3 H1   HT     0.417000        1.0080           0
  120480 WT8  3727 TIP3 H2   HT     0.417000        1.0080           0
  120481 WT8  3728 TIP3 OH2  OT    -0.834000       15.9994           0
  120482 WT8  3728 TIP3 H1   HT     0.417000        1.0080           0
  120483 WT8  3728 TIP3 H2   HT     0.417000        1.0080           0
  120484 WT8  3729 TIP3 OH2  OT    -0.834000       15.9994           0
  120485 WT8  3729 TIP3 H1   HT     0.417000        1.0080           0
  120486 WT8  3729 TIP3 H2   HT     0.417000        1.0080           0
  120487 WT8  3730 TIP3 OH2  OT    -0.834000       15.9994           0
  120488 WT8  3730 TIP3 H1   HT     0.417000        1.0080           0
  120489 WT8  3730 TIP3 H2   HT     0.417000        1.0080           0
  120490 WT8  3731 TIP3 OH2  OT    -0.834000       15.9994           0
  120491 WT8  3731 TIP3 H1   HT     0.417000        1.0080           0
  120492 WT8  3731 TIP3 H2   HT     0.417000        1.0080           0
  120493 WT8  3732 TIP3 OH2  OT    -0.834000       15.9994           0
  120494 WT8  3732 TIP3 H1   HT     0.417000        1.0080           0
  120495 WT8  3732 TIP3 H2   HT     0.417000        1.0080           0
  120496 WT8  3736 TIP3 OH2  OT    -0.834000       15.9994           0
  120497 WT8  3736 TIP3 H1   HT     0.417000        1.0080           0
  120498 WT8  3736 TIP3 H2   HT     0.417000        1.0080           0
  120499 WT8  3737 TIP3 OH2  OT    -0.834000       15.9994           0
  120500 WT8  3737 TIP3 H1   HT     0.417000        1.0080           0
  120501 WT8  3737 TIP3 H2   HT     0.417000        1.0080           0
  120502 WT8  3740 TIP3 OH2  OT    -0.834000       15.9994           0
  120503 WT8  3740 TIP3 H1   HT     0.417000        1.0080           0
  120504 WT8  3740 TIP3 H2   HT     0.417000        1.0080           0
  120505 WT8  3743 TIP3 OH2  OT    -0.834000       15.9994           0
  120506 WT8  3743 TIP3 H1   HT     0.417000        1.0080           0
  120507 WT8  3743 TIP3 H2   HT     0.417000        1.0080           0
  120508 WT8  3744 TIP3 OH2  OT    -0.834000       15.9994           0
  120509 WT8  3744 TIP3 H1   HT     0.417000        1.0080           0
  120510 WT8  3744 TIP3 H2   HT     0.417000        1.0080           0
  120511 WT8  3745 TIP3 OH2  OT    -0.834000       15.9994           0
  120512 WT8  3745 TIP3 H1   HT     0.417000        1.0080           0
  120513 WT8  3745 TIP3 H2   HT     0.417000        1.0080           0
  120514 WT8  3746 TIP3 OH2  OT    -0.834000       15.9994           0
  120515 WT8  3746 TIP3 H1   HT     0.417000        1.0080           0
  120516 WT8  3746 TIP3 H2   HT     0.417000        1.0080           0
  120517 WT8  3747 TIP3 OH2  OT    -0.834000       15.9994           0
  120518 WT8  3747 TIP3 H1   HT     0.417000        1.0080           0
  120519 WT8  3747 TIP3 H2   HT     0.417000        1.0080           0
  120520 WT8  3749 TIP3 OH2  OT    -0.834000       15.9994           0
  120521 WT8  3749 TIP3 H1   HT     0.417000        1.0080           0
  120522 WT8  3749 TIP3 H2   HT     0.417000        1.0080           0
  120523 WT8  3751 TIP3 OH2  OT    -0.834000       15.9994           0
  120524 WT8  3751 TIP3 H1   HT     0.417000        1.0080           0
  120525 WT8  3751 TIP3 H2   HT     0.417000        1.0080           0
  120526 WT8  3752 TIP3 OH2  OT    -0.834000       15.9994           0
  120527 WT8  3752 TIP3 H1   HT     0.417000        1.0080           0
  120528 WT8  3752 TIP3 H2   HT     0.417000        1.0080           0
  120529 WT8  3753 TIP3 OH2  OT    -0.834000       15.9994           0
  120530 WT8  3753 TIP3 H1   HT     0.417000        1.0080           0
  120531 WT8  3753 TIP3 H2   HT     0.417000        1.0080           0
  120532 WT8  3757 TIP3 OH2  OT    -0.834000       15.9994           0
  120533 WT8  3757 TIP3 H1   HT     0.417000        1.0080           0
  120534 WT8  3757 TIP3 H2   HT     0.417000        1.0080           0
  120535 WT8  3758 TIP3 OH2  OT    -0.834000       15.9994           0
  120536 WT8  3758 TIP3 H1   HT     0.417000        1.0080           0
  120537 WT8  3758 TIP3 H2   HT     0.417000        1.0080           0
  120538 WT8  3761 TIP3 OH2  OT    -0.834000       15.9994           0
  120539 WT8  3761 TIP3 H1   HT     0.417000        1.0080           0
  120540 WT8  3761 TIP3 H2   HT     0.417000        1.0080           0
  120541 WT8  3762 TIP3 OH2  OT    -0.834000       15.9994           0
  120542 WT8  3762 TIP3 H1   HT     0.417000        1.0080           0
  120543 WT8  3762 TIP3 H2   HT     0.417000        1.0080           0
  120544 WT8  3764 TIP3 OH2  OT    -0.834000       15.9994           0
  120545 WT8  3764 TIP3 H1   HT     0.417000        1.0080           0
  120546 WT8  3764 TIP3 H2   HT     0.417000        1.0080           0
  120547 WT8  3766 TIP3 OH2  OT    -0.834000       15.9994           0
  120548 WT8  3766 TIP3 H1   HT     0.417000        1.0080           0
  120549 WT8  3766 TIP3 H2   HT     0.417000        1.0080           0
  120550 WT8  3767 TIP3 OH2  OT    -0.834000       15.9994           0
  120551 WT8  3767 TIP3 H1   HT     0.417000        1.0080           0
  120552 WT8  3767 TIP3 H2   HT     0.417000        1.0080           0
  120553 WT8  3770 TIP3 OH2  OT    -0.834000       15.9994           0
  120554 WT8  3770 TIP3 H1   HT     0.417000        1.0080           0
  120555 WT8  3770 TIP3 H2   HT     0.417000        1.0080           0
  120556 WT8  3771 TIP3 OH2  OT    -0.834000       15.9994           0
  120557 WT8  3771 TIP3 H1   HT     0.417000        1.0080           0
  120558 WT8  3771 TIP3 H2   HT     0.417000        1.0080           0
  120559 WT8  3776 TIP3 OH2  OT    -0.834000       15.9994           0
  120560 WT8  3776 TIP3 H1   HT     0.417000        1.0080           0
  120561 WT8  3776 TIP3 H2   HT     0.417000        1.0080           0
  120562 WT8  3779 TIP3 OH2  OT    -0.834000       15.9994           0
  120563 WT8  3779 TIP3 H1   HT     0.417000        1.0080           0
  120564 WT8  3779 TIP3 H2   HT     0.417000        1.0080           0
  120565 WT8  3782 TIP3 OH2  OT    -0.834000       15.9994           0
  120566 WT8  3782 TIP3 H1   HT     0.417000        1.0080           0
  120567 WT8  3782 TIP3 H2   HT     0.417000        1.0080           0
  120568 WT8  3786 TIP3 OH2  OT    -0.834000       15.9994           0
  120569 WT8  3786 TIP3 H1   HT     0.417000        1.0080           0
  120570 WT8  3786 TIP3 H2   HT     0.417000        1.0080           0
  120571 WT8  3787 TIP3 OH2  OT    -0.834000       15.9994           0
  120572 WT8  3787 TIP3 H1   HT     0.417000        1.0080           0
  120573 WT8  3787 TIP3 H2   HT     0.417000        1.0080           0
  120574 WT8  3788 TIP3 OH2  OT    -0.834000       15.9994           0
  120575 WT8  3788 TIP3 H1   HT     0.417000        1.0080           0
  120576 WT8  3788 TIP3 H2   HT     0.417000        1.0080           0
  120577 WT8  3789 TIP3 OH2  OT    -0.834000       15.9994           0
  120578 WT8  3789 TIP3 H1   HT     0.417000        1.0080           0
  120579 WT8  3789 TIP3 H2   HT     0.417000        1.0080           0
  120580 WT8  3790 TIP3 OH2  OT    -0.834000       15.9994           0
  120581 WT8  3790 TIP3 H1   HT     0.417000        1.0080           0
  120582 WT8  3790 TIP3 H2   HT     0.417000        1.0080           0
  120583 WT8  3792 TIP3 OH2  OT    -0.834000       15.9994           0
  120584 WT8  3792 TIP3 H1   HT     0.417000        1.0080           0
  120585 WT8  3792 TIP3 H2   HT     0.417000        1.0080           0
  120586 WT8  3793 TIP3 OH2  OT    -0.834000       15.9994           0
  120587 WT8  3793 TIP3 H1   HT     0.417000        1.0080           0
  120588 WT8  3793 TIP3 H2   HT     0.417000        1.0080           0
  120589 WT8  3796 TIP3 OH2  OT    -0.834000       15.9994           0
  120590 WT8  3796 TIP3 H1   HT     0.417000        1.0080           0
  120591 WT8  3796 TIP3 H2   HT     0.417000        1.0080           0
  120592 WT8  3798 TIP3 OH2  OT    -0.834000       15.9994           0
  120593 WT8  3798 TIP3 H1   HT     0.417000        1.0080           0
  120594 WT8  3798 TIP3 H2   HT     0.417000        1.0080           0
  120595 WT8  3800 TIP3 OH2  OT    -0.834000       15.9994           0
  120596 WT8  3800 TIP3 H1   HT     0.417000        1.0080           0
  120597 WT8  3800 TIP3 H2   HT     0.417000        1.0080           0
  120598 WT8  3801 TIP3 OH2  OT    -0.834000       15.9994           0
  120599 WT8  3801 TIP3 H1   HT     0.417000        1.0080           0
  120600 WT8  3801 TIP3 H2   HT     0.417000        1.0080           0
  120601 WT8  3804 TIP3 OH2  OT    -0.834000       15.9994           0
  120602 WT8  3804 TIP3 H1   HT     0.417000        1.0080           0
  120603 WT8  3804 TIP3 H2   HT     0.417000        1.0080           0
  120604 WT8  3807 TIP3 OH2  OT    -0.834000       15.9994           0
  120605 WT8  3807 TIP3 H1   HT     0.417000        1.0080           0
  120606 WT8  3807 TIP3 H2   HT     0.417000        1.0080           0
  120607 WT8  3808 TIP3 OH2  OT    -0.834000       15.9994           0
  120608 WT8  3808 TIP3 H1   HT     0.417000        1.0080           0
  120609 WT8  3808 TIP3 H2   HT     0.417000        1.0080           0
  120610 WT8  3810 TIP3 OH2  OT    -0.834000       15.9994           0
  120611 WT8  3810 TIP3 H1   HT     0.417000        1.0080           0
  120612 WT8  3810 TIP3 H2   HT     0.417000        1.0080           0
  120613 WT8  3811 TIP3 OH2  OT    -0.834000       15.9994           0
  120614 WT8  3811 TIP3 H1   HT     0.417000        1.0080           0
  120615 WT8  3811 TIP3 H2   HT     0.417000        1.0080           0
  120616 WT8  3814 TIP3 OH2  OT    -0.834000       15.9994           0
  120617 WT8  3814 TIP3 H1   HT     0.417000        1.0080           0
  120618 WT8  3814 TIP3 H2   HT     0.417000        1.0080           0
  120619 WT8  3821 TIP3 OH2  OT    -0.834000       15.9994           0
  120620 WT8  3821 TIP3 H1   HT     0.417000        1.0080           0
  120621 WT8  3821 TIP3 H2   HT     0.417000        1.0080           0
  120622 WT8  3827 TIP3 OH2  OT    -0.834000       15.9994           0
  120623 WT8  3827 TIP3 H1   HT     0.417000        1.0080           0
  120624 WT8  3827 TIP3 H2   HT     0.417000        1.0080           0
  120625 WT8  3828 TIP3 OH2  OT    -0.834000       15.9994           0
  120626 WT8  3828 TIP3 H1   HT     0.417000        1.0080           0
  120627 WT8  3828 TIP3 H2   HT     0.417000        1.0080           0
  120628 WT8  3829 TIP3 OH2  OT    -0.834000       15.9994           0
  120629 WT8  3829 TIP3 H1   HT     0.417000        1.0080           0
  120630 WT8  3829 TIP3 H2   HT     0.417000        1.0080           0
  120631 WT8  3830 TIP3 OH2  OT    -0.834000       15.9994           0
  120632 WT8  3830 TIP3 H1   HT     0.417000        1.0080           0
  120633 WT8  3830 TIP3 H2   HT     0.417000        1.0080           0
  120634 WT8  3831 TIP3 OH2  OT    -0.834000       15.9994           0
  120635 WT8  3831 TIP3 H1   HT     0.417000        1.0080           0
  120636 WT8  3831 TIP3 H2   HT     0.417000        1.0080           0
  120637 WT8  3833 TIP3 OH2  OT    -0.834000       15.9994           0
  120638 WT8  3833 TIP3 H1   HT     0.417000        1.0080           0
  120639 WT8  3833 TIP3 H2   HT     0.417000        1.0080           0
  120640 WT8  3834 TIP3 OH2  OT    -0.834000       15.9994           0
  120641 WT8  3834 TIP3 H1   HT     0.417000        1.0080           0
  120642 WT8  3834 TIP3 H2   HT     0.417000        1.0080           0
  120643 WT8  3835 TIP3 OH2  OT    -0.834000       15.9994           0
  120644 WT8  3835 TIP3 H1   HT     0.417000        1.0080           0
  120645 WT8  3835 TIP3 H2   HT     0.417000        1.0080           0
  120646 WT8  3838 TIP3 OH2  OT    -0.834000       15.9994           0
  120647 WT8  3838 TIP3 H1   HT     0.417000        1.0080           0
  120648 WT8  3838 TIP3 H2   HT     0.417000        1.0080           0
  120649 WT8  3850 TIP3 OH2  OT    -0.834000       15.9994           0
  120650 WT8  3850 TIP3 H1   HT     0.417000        1.0080           0
  120651 WT8  3850 TIP3 H2   HT     0.417000        1.0080           0
  120652 WT8  3851 TIP3 OH2  OT    -0.834000       15.9994           0
  120653 WT8  3851 TIP3 H1   HT     0.417000        1.0080           0
  120654 WT8  3851 TIP3 H2   HT     0.417000        1.0080           0
  120655 WT8  3852 TIP3 OH2  OT    -0.834000       15.9994           0
  120656 WT8  3852 TIP3 H1   HT     0.417000        1.0080           0
  120657 WT8  3852 TIP3 H2   HT     0.417000        1.0080           0
  120658 WT8  3872 TIP3 OH2  OT    -0.834000       15.9994           0
  120659 WT8  3872 TIP3 H1   HT     0.417000        1.0080           0
  120660 WT8  3872 TIP3 H2   HT     0.417000        1.0080           0
  120661 WT8  3892 TIP3 OH2  OT    -0.834000       15.9994           0
  120662 WT8  3892 TIP3 H1   HT     0.417000        1.0080           0
  120663 WT8  3892 TIP3 H2   HT     0.417000        1.0080           0
  120664 WT8  3919 TIP3 OH2  OT    -0.834000       15.9994           0
  120665 WT8  3919 TIP3 H1   HT     0.417000        1.0080           0
  120666 WT8  3919 TIP3 H2   HT     0.417000        1.0080           0
  120667 WT8  3924 TIP3 OH2  OT    -0.834000       15.9994           0
  120668 WT8  3924 TIP3 H1   HT     0.417000        1.0080           0
  120669 WT8  3924 TIP3 H2   HT     0.417000        1.0080           0
  120670 WT8  3925 TIP3 OH2  OT    -0.834000       15.9994           0
  120671 WT8  3925 TIP3 H1   HT     0.417000        1.0080           0
  120672 WT8  3925 TIP3 H2   HT     0.417000        1.0080           0
  120673 WT8  3931 TIP3 OH2  OT    -0.834000       15.9994           0
  120674 WT8  3931 TIP3 H1   HT     0.417000        1.0080           0
  120675 WT8  3931 TIP3 H2   HT     0.417000        1.0080           0
  120676 WT8  3933 TIP3 OH2  OT    -0.834000       15.9994           0
  120677 WT8  3933 TIP3 H1   HT     0.417000        1.0080           0
  120678 WT8  3933 TIP3 H2   HT     0.417000        1.0080           0
  120679 WT8  3935 TIP3 OH2  OT    -0.834000       15.9994           0
  120680 WT8  3935 TIP3 H1   HT     0.417000        1.0080           0
  120681 WT8  3935 TIP3 H2   HT     0.417000        1.0080           0
  120682 WT8  3938 TIP3 OH2  OT    -0.834000       15.9994           0
  120683 WT8  3938 TIP3 H1   HT     0.417000        1.0080           0
  120684 WT8  3938 TIP3 H2   HT     0.417000        1.0080           0
  120685 WT8  3951 TIP3 OH2  OT    -0.834000       15.9994           0
  120686 WT8  3951 TIP3 H1   HT     0.417000        1.0080           0
  120687 WT8  3951 TIP3 H2   HT     0.417000        1.0080           0
  120688 WT8  3957 TIP3 OH2  OT    -0.834000       15.9994           0
  120689 WT8  3957 TIP3 H1   HT     0.417000        1.0080           0
  120690 WT8  3957 TIP3 H2   HT     0.417000        1.0080           0
  120691 WT8  3974 TIP3 OH2  OT    -0.834000       15.9994           0
  120692 WT8  3974 TIP3 H1   HT     0.417000        1.0080           0
  120693 WT8  3974 TIP3 H2   HT     0.417000        1.0080           0
  120694 WT8  3975 TIP3 OH2  OT    -0.834000       15.9994           0
  120695 WT8  3975 TIP3 H1   HT     0.417000        1.0080           0
  120696 WT8  3975 TIP3 H2   HT     0.417000        1.0080           0
  120697 WT8  3976 TIP3 OH2  OT    -0.834000       15.9994           0
  120698 WT8  3976 TIP3 H1   HT     0.417000        1.0080           0
  120699 WT8  3976 TIP3 H2   HT     0.417000        1.0080           0
  120700 WT8  3977 TIP3 OH2  OT    -0.834000       15.9994           0
  120701 WT8  3977 TIP3 H1   HT     0.417000        1.0080           0
  120702 WT8  3977 TIP3 H2   HT     0.417000        1.0080           0
  120703 WT8  3982 TIP3 OH2  OT    -0.834000       15.9994           0
  120704 WT8  3982 TIP3 H1   HT     0.417000        1.0080           0
  120705 WT8  3982 TIP3 H2   HT     0.417000        1.0080           0
  120706 WT8  3983 TIP3 OH2  OT    -0.834000       15.9994           0
  120707 WT8  3983 TIP3 H1   HT     0.417000        1.0080           0
  120708 WT8  3983 TIP3 H2   HT     0.417000        1.0080           0
  120709 WT8  3986 TIP3 OH2  OT    -0.834000       15.9994           0
  120710 WT8  3986 TIP3 H1   HT     0.417000        1.0080           0
  120711 WT8  3986 TIP3 H2   HT     0.417000        1.0080           0
  120712 WT8  3991 TIP3 OH2  OT    -0.834000       15.9994           0
  120713 WT8  3991 TIP3 H1   HT     0.417000        1.0080           0
  120714 WT8  3991 TIP3 H2   HT     0.417000        1.0080           0
  120715 WT8  3992 TIP3 OH2  OT    -0.834000       15.9994           0
  120716 WT8  3992 TIP3 H1   HT     0.417000        1.0080           0
  120717 WT8  3992 TIP3 H2   HT     0.417000        1.0080           0
  120718 WT8  3993 TIP3 OH2  OT    -0.834000       15.9994           0
  120719 WT8  3993 TIP3 H1   HT     0.417000        1.0080           0
  120720 WT8  3993 TIP3 H2   HT     0.417000        1.0080           0
  120721 WT8  3994 TIP3 OH2  OT    -0.834000       15.9994           0
  120722 WT8  3994 TIP3 H1   HT     0.417000        1.0080           0
  120723 WT8  3994 TIP3 H2   HT     0.417000        1.0080           0
  120724 WT8  3995 TIP3 OH2  OT    -0.834000       15.9994           0
  120725 WT8  3995 TIP3 H1   HT     0.417000        1.0080           0
  120726 WT8  3995 TIP3 H2   HT     0.417000        1.0080           0
  120727 WT8  3996 TIP3 OH2  OT    -0.834000       15.9994           0
  120728 WT8  3996 TIP3 H1   HT     0.417000        1.0080           0
  120729 WT8  3996 TIP3 H2   HT     0.417000        1.0080           0
  120730 WT8  3997 TIP3 OH2  OT    -0.834000       15.9994           0
  120731 WT8  3997 TIP3 H1   HT     0.417000        1.0080           0
  120732 WT8  3997 TIP3 H2   HT     0.417000        1.0080           0
  120733 WT8  3998 TIP3 OH2  OT    -0.834000       15.9994           0
  120734 WT8  3998 TIP3 H1   HT     0.417000        1.0080           0
  120735 WT8  3998 TIP3 H2   HT     0.417000        1.0080           0
  120736 WT8  3999 TIP3 OH2  OT    -0.834000       15.9994           0
  120737 WT8  3999 TIP3 H1   HT     0.417000        1.0080           0
  120738 WT8  3999 TIP3 H2   HT     0.417000        1.0080           0
  120739 WT8  4000 TIP3 OH2  OT    -0.834000       15.9994           0
  120740 WT8  4000 TIP3 H1   HT     0.417000        1.0080           0
  120741 WT8  4000 TIP3 H2   HT     0.417000        1.0080           0
  120742 WT8  4002 TIP3 OH2  OT    -0.834000       15.9994           0
  120743 WT8  4002 TIP3 H1   HT     0.417000        1.0080           0
  120744 WT8  4002 TIP3 H2   HT     0.417000        1.0080           0
  120745 WT8  4003 TIP3 OH2  OT    -0.834000       15.9994           0
  120746 WT8  4003 TIP3 H1   HT     0.417000        1.0080           0
  120747 WT8  4003 TIP3 H2   HT     0.417000        1.0080           0
  120748 WT8  4005 TIP3 OH2  OT    -0.834000       15.9994           0
  120749 WT8  4005 TIP3 H1   HT     0.417000        1.0080           0
  120750 WT8  4005 TIP3 H2   HT     0.417000        1.0080           0
  120751 WT8  4008 TIP3 OH2  OT    -0.834000       15.9994           0
  120752 WT8  4008 TIP3 H1   HT     0.417000        1.0080           0
  120753 WT8  4008 TIP3 H2   HT     0.417000        1.0080           0
  120754 WT8  4009 TIP3 OH2  OT    -0.834000       15.9994           0
  120755 WT8  4009 TIP3 H1   HT     0.417000        1.0080           0
  120756 WT8  4009 TIP3 H2   HT     0.417000        1.0080           0
  120757 WT8  4010 TIP3 OH2  OT    -0.834000       15.9994           0
  120758 WT8  4010 TIP3 H1   HT     0.417000        1.0080           0
  120759 WT8  4010 TIP3 H2   HT     0.417000        1.0080           0
  120760 WT8  4012 TIP3 OH2  OT    -0.834000       15.9994           0
  120761 WT8  4012 TIP3 H1   HT     0.417000        1.0080           0
  120762 WT8  4012 TIP3 H2   HT     0.417000        1.0080           0
  120763 WT8  4014 TIP3 OH2  OT    -0.834000       15.9994           0
  120764 WT8  4014 TIP3 H1   HT     0.417000        1.0080           0
  120765 WT8  4014 TIP3 H2   HT     0.417000        1.0080           0
  120766 WT8  4015 TIP3 OH2  OT    -0.834000       15.9994           0
  120767 WT8  4015 TIP3 H1   HT     0.417000        1.0080           0
  120768 WT8  4015 TIP3 H2   HT     0.417000        1.0080           0
  120769 WT8  4016 TIP3 OH2  OT    -0.834000       15.9994           0
  120770 WT8  4016 TIP3 H1   HT     0.417000        1.0080           0
  120771 WT8  4016 TIP3 H2   HT     0.417000        1.0080           0
  120772 WT8  4017 TIP3 OH2  OT    -0.834000       15.9994           0
  120773 WT8  4017 TIP3 H1   HT     0.417000        1.0080           0
  120774 WT8  4017 TIP3 H2   HT     0.417000        1.0080           0
  120775 WT8  4018 TIP3 OH2  OT    -0.834000       15.9994           0
  120776 WT8  4018 TIP3 H1   HT     0.417000        1.0080           0
  120777 WT8  4018 TIP3 H2   HT     0.417000        1.0080           0
  120778 WT8  4019 TIP3 OH2  OT    -0.834000       15.9994           0
  120779 WT8  4019 TIP3 H1   HT     0.417000        1.0080           0
  120780 WT8  4019 TIP3 H2   HT     0.417000        1.0080           0
  120781 WT8  4020 TIP3 OH2  OT    -0.834000       15.9994           0
  120782 WT8  4020 TIP3 H1   HT     0.417000        1.0080           0
  120783 WT8  4020 TIP3 H2   HT     0.417000        1.0080           0
  120784 WT8  4021 TIP3 OH2  OT    -0.834000       15.9994           0
  120785 WT8  4021 TIP3 H1   HT     0.417000        1.0080           0
  120786 WT8  4021 TIP3 H2   HT     0.417000        1.0080           0
  120787 WT8  4022 TIP3 OH2  OT    -0.834000       15.9994           0
  120788 WT8  4022 TIP3 H1   HT     0.417000        1.0080           0
  120789 WT8  4022 TIP3 H2   HT     0.417000        1.0080           0
  120790 WT8  4030 TIP3 OH2  OT    -0.834000       15.9994           0
  120791 WT8  4030 TIP3 H1   HT     0.417000        1.0080           0
  120792 WT8  4030 TIP3 H2   HT     0.417000        1.0080           0
  120793 WT8  4033 TIP3 OH2  OT    -0.834000       15.9994           0
  120794 WT8  4033 TIP3 H1   HT     0.417000        1.0080           0
  120795 WT8  4033 TIP3 H2   HT     0.417000        1.0080           0
  120796 WT8  4035 TIP3 OH2  OT    -0.834000       15.9994           0
  120797 WT8  4035 TIP3 H1   HT     0.417000        1.0080           0
  120798 WT8  4035 TIP3 H2   HT     0.417000        1.0080           0
  120799 WT8  4036 TIP3 OH2  OT    -0.834000       15.9994           0
  120800 WT8  4036 TIP3 H1   HT     0.417000        1.0080           0
  120801 WT8  4036 TIP3 H2   HT     0.417000        1.0080           0
  120802 WT8  4037 TIP3 OH2  OT    -0.834000       15.9994           0
  120803 WT8  4037 TIP3 H1   HT     0.417000        1.0080           0
  120804 WT8  4037 TIP3 H2   HT     0.417000        1.0080           0
  120805 WT8  4038 TIP3 OH2  OT    -0.834000       15.9994           0
  120806 WT8  4038 TIP3 H1   HT     0.417000        1.0080           0
  120807 WT8  4038 TIP3 H2   HT     0.417000        1.0080           0
  120808 WT8  4039 TIP3 OH2  OT    -0.834000       15.9994           0
  120809 WT8  4039 TIP3 H1   HT     0.417000        1.0080           0
  120810 WT8  4039 TIP3 H2   HT     0.417000        1.0080           0
  120811 WT8  4040 TIP3 OH2  OT    -0.834000       15.9994           0
  120812 WT8  4040 TIP3 H1   HT     0.417000        1.0080           0
  120813 WT8  4040 TIP3 H2   HT     0.417000        1.0080           0
  120814 WT8  4041 TIP3 OH2  OT    -0.834000       15.9994           0
  120815 WT8  4041 TIP3 H1   HT     0.417000        1.0080           0
  120816 WT8  4041 TIP3 H2   HT     0.417000        1.0080           0
  120817 WT8  4046 TIP3 OH2  OT    -0.834000       15.9994           0
  120818 WT8  4046 TIP3 H1   HT     0.417000        1.0080           0
  120819 WT8  4046 TIP3 H2   HT     0.417000        1.0080           0
  120820 WT8  4047 TIP3 OH2  OT    -0.834000       15.9994           0
  120821 WT8  4047 TIP3 H1   HT     0.417000        1.0080           0
  120822 WT8  4047 TIP3 H2   HT     0.417000        1.0080           0
  120823 WT8  4053 TIP3 OH2  OT    -0.834000       15.9994           0
  120824 WT8  4053 TIP3 H1   HT     0.417000        1.0080           0
  120825 WT8  4053 TIP3 H2   HT     0.417000        1.0080           0
  120826 WT8  4054 TIP3 OH2  OT    -0.834000       15.9994           0
  120827 WT8  4054 TIP3 H1   HT     0.417000        1.0080           0
  120828 WT8  4054 TIP3 H2   HT     0.417000        1.0080           0
  120829 WT8  4055 TIP3 OH2  OT    -0.834000       15.9994           0
  120830 WT8  4055 TIP3 H1   HT     0.417000        1.0080           0
  120831 WT8  4055 TIP3 H2   HT     0.417000        1.0080           0
  120832 WT8  4056 TIP3 OH2  OT    -0.834000       15.9994           0
  120833 WT8  4056 TIP3 H1   HT     0.417000        1.0080           0
  120834 WT8  4056 TIP3 H2   HT     0.417000        1.0080           0
  120835 WT8  4057 TIP3 OH2  OT    -0.834000       15.9994           0
  120836 WT8  4057 TIP3 H1   HT     0.417000        1.0080           0
  120837 WT8  4057 TIP3 H2   HT     0.417000        1.0080           0
  120838 WT8  4058 TIP3 OH2  OT    -0.834000       15.9994           0
  120839 WT8  4058 TIP3 H1   HT     0.417000        1.0080           0
  120840 WT8  4058 TIP3 H2   HT     0.417000        1.0080           0
  120841 WT8  4059 TIP3 OH2  OT    -0.834000       15.9994           0
  120842 WT8  4059 TIP3 H1   HT     0.417000        1.0080           0
  120843 WT8  4059 TIP3 H2   HT     0.417000        1.0080           0
  120844 WT8  4060 TIP3 OH2  OT    -0.834000       15.9994           0
  120845 WT8  4060 TIP3 H1   HT     0.417000        1.0080           0
  120846 WT8  4060 TIP3 H2   HT     0.417000        1.0080           0
  120847 WT8  4062 TIP3 OH2  OT    -0.834000       15.9994           0
  120848 WT8  4062 TIP3 H1   HT     0.417000        1.0080           0
  120849 WT8  4062 TIP3 H2   HT     0.417000        1.0080           0
  120850 WT8  4063 TIP3 OH2  OT    -0.834000       15.9994           0
  120851 WT8  4063 TIP3 H1   HT     0.417000        1.0080           0
  120852 WT8  4063 TIP3 H2   HT     0.417000        1.0080           0
  120853 WT8  4064 TIP3 OH2  OT    -0.834000       15.9994           0
  120854 WT8  4064 TIP3 H1   HT     0.417000        1.0080           0
  120855 WT8  4064 TIP3 H2   HT     0.417000        1.0080           0
  120856 WT8  4065 TIP3 OH2  OT    -0.834000       15.9994           0
  120857 WT8  4065 TIP3 H1   HT     0.417000        1.0080           0
  120858 WT8  4065 TIP3 H2   HT     0.417000        1.0080           0
  120859 WT8  4066 TIP3 OH2  OT    -0.834000       15.9994           0
  120860 WT8  4066 TIP3 H1   HT     0.417000        1.0080           0
  120861 WT8  4066 TIP3 H2   HT     0.417000        1.0080           0
  120862 WT8  4072 TIP3 OH2  OT    -0.834000       15.9994           0
  120863 WT8  4072 TIP3 H1   HT     0.417000        1.0080           0
  120864 WT8  4072 TIP3 H2   HT     0.417000        1.0080           0
  120865 WT8  4074 TIP3 OH2  OT    -0.834000       15.9994           0
  120866 WT8  4074 TIP3 H1   HT     0.417000        1.0080           0
  120867 WT8  4074 TIP3 H2   HT     0.417000        1.0080           0
  120868 WT8  4076 TIP3 OH2  OT    -0.834000       15.9994           0
  120869 WT8  4076 TIP3 H1   HT     0.417000        1.0080           0
  120870 WT8  4076 TIP3 H2   HT     0.417000        1.0080           0
  120871 WT8  4077 TIP3 OH2  OT    -0.834000       15.9994           0
  120872 WT8  4077 TIP3 H1   HT     0.417000        1.0080           0
  120873 WT8  4077 TIP3 H2   HT     0.417000        1.0080           0
  120874 WT8  4079 TIP3 OH2  OT    -0.834000       15.9994           0
  120875 WT8  4079 TIP3 H1   HT     0.417000        1.0080           0
  120876 WT8  4079 TIP3 H2   HT     0.417000        1.0080           0
  120877 WT8  4080 TIP3 OH2  OT    -0.834000       15.9994           0
  120878 WT8  4080 TIP3 H1   HT     0.417000        1.0080           0
  120879 WT8  4080 TIP3 H2   HT     0.417000        1.0080           0
  120880 WT8  4081 TIP3 OH2  OT    -0.834000       15.9994           0
  120881 WT8  4081 TIP3 H1   HT     0.417000        1.0080           0
  120882 WT8  4081 TIP3 H2   HT     0.417000        1.0080           0
  120883 WT8  4082 TIP3 OH2  OT    -0.834000       15.9994           0
  120884 WT8  4082 TIP3 H1   HT     0.417000        1.0080           0
  120885 WT8  4082 TIP3 H2   HT     0.417000        1.0080           0
  120886 WT8  4083 TIP3 OH2  OT    -0.834000       15.9994           0
  120887 WT8  4083 TIP3 H1   HT     0.417000        1.0080           0
  120888 WT8  4083 TIP3 H2   HT     0.417000        1.0080           0
  120889 WT8  4084 TIP3 OH2  OT    -0.834000       15.9994           0
  120890 WT8  4084 TIP3 H1   HT     0.417000        1.0080           0
  120891 WT8  4084 TIP3 H2   HT     0.417000        1.0080           0
  120892 WT8  4085 TIP3 OH2  OT    -0.834000       15.9994           0
  120893 WT8  4085 TIP3 H1   HT     0.417000        1.0080           0
  120894 WT8  4085 TIP3 H2   HT     0.417000        1.0080           0
  120895 WT8  4086 TIP3 OH2  OT    -0.834000       15.9994           0
  120896 WT8  4086 TIP3 H1   HT     0.417000        1.0080           0
  120897 WT8  4086 TIP3 H2   HT     0.417000        1.0080           0
  120898 WT8  4088 TIP3 OH2  OT    -0.834000       15.9994           0
  120899 WT8  4088 TIP3 H1   HT     0.417000        1.0080           0
  120900 WT8  4088 TIP3 H2   HT     0.417000        1.0080           0
  120901 WT8  4091 TIP3 OH2  OT    -0.834000       15.9994           0
  120902 WT8  4091 TIP3 H1   HT     0.417000        1.0080           0
  120903 WT8  4091 TIP3 H2   HT     0.417000        1.0080           0
  120904 WT8  4093 TIP3 OH2  OT    -0.834000       15.9994           0
  120905 WT8  4093 TIP3 H1   HT     0.417000        1.0080           0
  120906 WT8  4093 TIP3 H2   HT     0.417000        1.0080           0
  120907 WT8  4096 TIP3 OH2  OT    -0.834000       15.9994           0
  120908 WT8  4096 TIP3 H1   HT     0.417000        1.0080           0
  120909 WT8  4096 TIP3 H2   HT     0.417000        1.0080           0
  120910 WT8  4097 TIP3 OH2  OT    -0.834000       15.9994           0
  120911 WT8  4097 TIP3 H1   HT     0.417000        1.0080           0
  120912 WT8  4097 TIP3 H2   HT     0.417000        1.0080           0
  120913 WT8  4098 TIP3 OH2  OT    -0.834000       15.9994           0
  120914 WT8  4098 TIP3 H1   HT     0.417000        1.0080           0
  120915 WT8  4098 TIP3 H2   HT     0.417000        1.0080           0
  120916 WT8  4099 TIP3 OH2  OT    -0.834000       15.9994           0
  120917 WT8  4099 TIP3 H1   HT     0.417000        1.0080           0
  120918 WT8  4099 TIP3 H2   HT     0.417000        1.0080           0
  120919 WT8  4101 TIP3 OH2  OT    -0.834000       15.9994           0
  120920 WT8  4101 TIP3 H1   HT     0.417000        1.0080           0
  120921 WT8  4101 TIP3 H2   HT     0.417000        1.0080           0
  120922 WT8  4102 TIP3 OH2  OT    -0.834000       15.9994           0
  120923 WT8  4102 TIP3 H1   HT     0.417000        1.0080           0
  120924 WT8  4102 TIP3 H2   HT     0.417000        1.0080           0
  120925 WT8  4103 TIP3 OH2  OT    -0.834000       15.9994           0
  120926 WT8  4103 TIP3 H1   HT     0.417000        1.0080           0
  120927 WT8  4103 TIP3 H2   HT     0.417000        1.0080           0
  120928 WT8  4104 TIP3 OH2  OT    -0.834000       15.9994           0
  120929 WT8  4104 TIP3 H1   HT     0.417000        1.0080           0
  120930 WT8  4104 TIP3 H2   HT     0.417000        1.0080           0
  120931 WT8  4105 TIP3 OH2  OT    -0.834000       15.9994           0
  120932 WT8  4105 TIP3 H1   HT     0.417000        1.0080           0
  120933 WT8  4105 TIP3 H2   HT     0.417000        1.0080           0
  120934 WT8  4106 TIP3 OH2  OT    -0.834000       15.9994           0
  120935 WT8  4106 TIP3 H1   HT     0.417000        1.0080           0
  120936 WT8  4106 TIP3 H2   HT     0.417000        1.0080           0
  120937 WT8  4107 TIP3 OH2  OT    -0.834000       15.9994           0
  120938 WT8  4107 TIP3 H1   HT     0.417000        1.0080           0
  120939 WT8  4107 TIP3 H2   HT     0.417000        1.0080           0
  120940 WT8  4109 TIP3 OH2  OT    -0.834000       15.9994           0
  120941 WT8  4109 TIP3 H1   HT     0.417000        1.0080           0
  120942 WT8  4109 TIP3 H2   HT     0.417000        1.0080           0
  120943 WT8  4110 TIP3 OH2  OT    -0.834000       15.9994           0
  120944 WT8  4110 TIP3 H1   HT     0.417000        1.0080           0
  120945 WT8  4110 TIP3 H2   HT     0.417000        1.0080           0
  120946 WT8  4111 TIP3 OH2  OT    -0.834000       15.9994           0
  120947 WT8  4111 TIP3 H1   HT     0.417000        1.0080           0
  120948 WT8  4111 TIP3 H2   HT     0.417000        1.0080           0
  120949 WT8  4116 TIP3 OH2  OT    -0.834000       15.9994           0
  120950 WT8  4116 TIP3 H1   HT     0.417000        1.0080           0
  120951 WT8  4116 TIP3 H2   HT     0.417000        1.0080           0
  120952 WT8  4119 TIP3 OH2  OT    -0.834000       15.9994           0
  120953 WT8  4119 TIP3 H1   HT     0.417000        1.0080           0
  120954 WT8  4119 TIP3 H2   HT     0.417000        1.0080           0
  120955 WT8  4120 TIP3 OH2  OT    -0.834000       15.9994           0
  120956 WT8  4120 TIP3 H1   HT     0.417000        1.0080           0
  120957 WT8  4120 TIP3 H2   HT     0.417000        1.0080           0
  120958 WT8  4121 TIP3 OH2  OT    -0.834000       15.9994           0
  120959 WT8  4121 TIP3 H1   HT     0.417000        1.0080           0
  120960 WT8  4121 TIP3 H2   HT     0.417000        1.0080           0
  120961 WT8  4122 TIP3 OH2  OT    -0.834000       15.9994           0
  120962 WT8  4122 TIP3 H1   HT     0.417000        1.0080           0
  120963 WT8  4122 TIP3 H2   HT     0.417000        1.0080           0
  120964 WT8  4123 TIP3 OH2  OT    -0.834000       15.9994           0
  120965 WT8  4123 TIP3 H1   HT     0.417000        1.0080           0
  120966 WT8  4123 TIP3 H2   HT     0.417000        1.0080           0
  120967 WT8  4124 TIP3 OH2  OT    -0.834000       15.9994           0
  120968 WT8  4124 TIP3 H1   HT     0.417000        1.0080           0
  120969 WT8  4124 TIP3 H2   HT     0.417000        1.0080           0
  120970 WT8  4126 TIP3 OH2  OT    -0.834000       15.9994           0
  120971 WT8  4126 TIP3 H1   HT     0.417000        1.0080           0
  120972 WT8  4126 TIP3 H2   HT     0.417000        1.0080           0
  120973 WT8  4127 TIP3 OH2  OT    -0.834000       15.9994           0
  120974 WT8  4127 TIP3 H1   HT     0.417000        1.0080           0
  120975 WT8  4127 TIP3 H2   HT     0.417000        1.0080           0
  120976 WT8  4131 TIP3 OH2  OT    -0.834000       15.9994           0
  120977 WT8  4131 TIP3 H1   HT     0.417000        1.0080           0
  120978 WT8  4131 TIP3 H2   HT     0.417000        1.0080           0
  120979 WT8  4138 TIP3 OH2  OT    -0.834000       15.9994           0
  120980 WT8  4138 TIP3 H1   HT     0.417000        1.0080           0
  120981 WT8  4138 TIP3 H2   HT     0.417000        1.0080           0
  120982 WT8  4139 TIP3 OH2  OT    -0.834000       15.9994           0
  120983 WT8  4139 TIP3 H1   HT     0.417000        1.0080           0
  120984 WT8  4139 TIP3 H2   HT     0.417000        1.0080           0
  120985 WT8  4140 TIP3 OH2  OT    -0.834000       15.9994           0
  120986 WT8  4140 TIP3 H1   HT     0.417000        1.0080           0
  120987 WT8  4140 TIP3 H2   HT     0.417000        1.0080           0
  120988 WT8  4141 TIP3 OH2  OT    -0.834000       15.9994           0
  120989 WT8  4141 TIP3 H1   HT     0.417000        1.0080           0
  120990 WT8  4141 TIP3 H2   HT     0.417000        1.0080           0
  120991 WT8  4142 TIP3 OH2  OT    -0.834000       15.9994           0
  120992 WT8  4142 TIP3 H1   HT     0.417000        1.0080           0
  120993 WT8  4142 TIP3 H2   HT     0.417000        1.0080           0
  120994 WT8  4143 TIP3 OH2  OT    -0.834000       15.9994           0
  120995 WT8  4143 TIP3 H1   HT     0.417000        1.0080           0
  120996 WT8  4143 TIP3 H2   HT     0.417000        1.0080           0
  120997 WT8  4144 TIP3 OH2  OT    -0.834000       15.9994           0
  120998 WT8  4144 TIP3 H1   HT     0.417000        1.0080           0
  120999 WT8  4144 TIP3 H2   HT     0.417000        1.0080           0
  121000 WT8  4145 TIP3 OH2  OT    -0.834000       15.9994           0
  121001 WT8  4145 TIP3 H1   HT     0.417000        1.0080           0
  121002 WT8  4145 TIP3 H2   HT     0.417000        1.0080           0
  121003 WT8  4146 TIP3 OH2  OT    -0.834000       15.9994           0
  121004 WT8  4146 TIP3 H1   HT     0.417000        1.0080           0
  121005 WT8  4146 TIP3 H2   HT     0.417000        1.0080           0
  121006 WT8  4147 TIP3 OH2  OT    -0.834000       15.9994           0
  121007 WT8  4147 TIP3 H1   HT     0.417000        1.0080           0
  121008 WT8  4147 TIP3 H2   HT     0.417000        1.0080           0
  121009 WT8  4148 TIP3 OH2  OT    -0.834000       15.9994           0
  121010 WT8  4148 TIP3 H1   HT     0.417000        1.0080           0
  121011 WT8  4148 TIP3 H2   HT     0.417000        1.0080           0
  121012 WT8  4150 TIP3 OH2  OT    -0.834000       15.9994           0
  121013 WT8  4150 TIP3 H1   HT     0.417000        1.0080           0
  121014 WT8  4150 TIP3 H2   HT     0.417000        1.0080           0
  121015 WT8  4151 TIP3 OH2  OT    -0.834000       15.9994           0
  121016 WT8  4151 TIP3 H1   HT     0.417000        1.0080           0
  121017 WT8  4151 TIP3 H2   HT     0.417000        1.0080           0
  121018 WT8  4152 TIP3 OH2  OT    -0.834000       15.9994           0
  121019 WT8  4152 TIP3 H1   HT     0.417000        1.0080           0
  121020 WT8  4152 TIP3 H2   HT     0.417000        1.0080           0
  121021 WT8  4157 TIP3 OH2  OT    -0.834000       15.9994           0
  121022 WT8  4157 TIP3 H1   HT     0.417000        1.0080           0
  121023 WT8  4157 TIP3 H2   HT     0.417000        1.0080           0
  121024 WT8  4158 TIP3 OH2  OT    -0.834000       15.9994           0
  121025 WT8  4158 TIP3 H1   HT     0.417000        1.0080           0
  121026 WT8  4158 TIP3 H2   HT     0.417000        1.0080           0
  121027 WT8  4159 TIP3 OH2  OT    -0.834000       15.9994           0
  121028 WT8  4159 TIP3 H1   HT     0.417000        1.0080           0
  121029 WT8  4159 TIP3 H2   HT     0.417000        1.0080           0
  121030 WT8  4161 TIP3 OH2  OT    -0.834000       15.9994           0
  121031 WT8  4161 TIP3 H1   HT     0.417000        1.0080           0
  121032 WT8  4161 TIP3 H2   HT     0.417000        1.0080           0
  121033 WT8  4162 TIP3 OH2  OT    -0.834000       15.9994           0
  121034 WT8  4162 TIP3 H1   HT     0.417000        1.0080           0
  121035 WT8  4162 TIP3 H2   HT     0.417000        1.0080           0
  121036 WT8  4163 TIP3 OH2  OT    -0.834000       15.9994           0
  121037 WT8  4163 TIP3 H1   HT     0.417000        1.0080           0
  121038 WT8  4163 TIP3 H2   HT     0.417000        1.0080           0
  121039 WT8  4164 TIP3 OH2  OT    -0.834000       15.9994           0
  121040 WT8  4164 TIP3 H1   HT     0.417000        1.0080           0
  121041 WT8  4164 TIP3 H2   HT     0.417000        1.0080           0
  121042 WT8  4165 TIP3 OH2  OT    -0.834000       15.9994           0
  121043 WT8  4165 TIP3 H1   HT     0.417000        1.0080           0
  121044 WT8  4165 TIP3 H2   HT     0.417000        1.0080           0
  121045 WT8  4166 TIP3 OH2  OT    -0.834000       15.9994           0
  121046 WT8  4166 TIP3 H1   HT     0.417000        1.0080           0
  121047 WT8  4166 TIP3 H2   HT     0.417000        1.0080           0
  121048 WT8  4167 TIP3 OH2  OT    -0.834000       15.9994           0
  121049 WT8  4167 TIP3 H1   HT     0.417000        1.0080           0
  121050 WT8  4167 TIP3 H2   HT     0.417000        1.0080           0
  121051 WT8  4168 TIP3 OH2  OT    -0.834000       15.9994           0
  121052 WT8  4168 TIP3 H1   HT     0.417000        1.0080           0
  121053 WT8  4168 TIP3 H2   HT     0.417000        1.0080           0
  121054 WT8  4170 TIP3 OH2  OT    -0.834000       15.9994           0
  121055 WT8  4170 TIP3 H1   HT     0.417000        1.0080           0
  121056 WT8  4170 TIP3 H2   HT     0.417000        1.0080           0
  121057 WT8  4171 TIP3 OH2  OT    -0.834000       15.9994           0
  121058 WT8  4171 TIP3 H1   HT     0.417000        1.0080           0
  121059 WT8  4171 TIP3 H2   HT     0.417000        1.0080           0
  121060 WT8  4179 TIP3 OH2  OT    -0.834000       15.9994           0
  121061 WT8  4179 TIP3 H1   HT     0.417000        1.0080           0
  121062 WT8  4179 TIP3 H2   HT     0.417000        1.0080           0
  121063 WT8  4181 TIP3 OH2  OT    -0.834000       15.9994           0
  121064 WT8  4181 TIP3 H1   HT     0.417000        1.0080           0
  121065 WT8  4181 TIP3 H2   HT     0.417000        1.0080           0
  121066 WT8  4182 TIP3 OH2  OT    -0.834000       15.9994           0
  121067 WT8  4182 TIP3 H1   HT     0.417000        1.0080           0
  121068 WT8  4182 TIP3 H2   HT     0.417000        1.0080           0
  121069 WT8  4183 TIP3 OH2  OT    -0.834000       15.9994           0
  121070 WT8  4183 TIP3 H1   HT     0.417000        1.0080           0
  121071 WT8  4183 TIP3 H2   HT     0.417000        1.0080           0
  121072 WT8  4184 TIP3 OH2  OT    -0.834000       15.9994           0
  121073 WT8  4184 TIP3 H1   HT     0.417000        1.0080           0
  121074 WT8  4184 TIP3 H2   HT     0.417000        1.0080           0
  121075 WT8  4185 TIP3 OH2  OT    -0.834000       15.9994           0
  121076 WT8  4185 TIP3 H1   HT     0.417000        1.0080           0
  121077 WT8  4185 TIP3 H2   HT     0.417000        1.0080           0
  121078 WT8  4186 TIP3 OH2  OT    -0.834000       15.9994           0
  121079 WT8  4186 TIP3 H1   HT     0.417000        1.0080           0
  121080 WT8  4186 TIP3 H2   HT     0.417000        1.0080           0
  121081 WT8  4187 TIP3 OH2  OT    -0.834000       15.9994           0
  121082 WT8  4187 TIP3 H1   HT     0.417000        1.0080           0
  121083 WT8  4187 TIP3 H2   HT     0.417000        1.0080           0
  121084 WT8  4188 TIP3 OH2  OT    -0.834000       15.9994           0
  121085 WT8  4188 TIP3 H1   HT     0.417000        1.0080           0
  121086 WT8  4188 TIP3 H2   HT     0.417000        1.0080           0
  121087 WT8  4190 TIP3 OH2  OT    -0.834000       15.9994           0
  121088 WT8  4190 TIP3 H1   HT     0.417000        1.0080           0
  121089 WT8  4190 TIP3 H2   HT     0.417000        1.0080           0
  121090 WT8  4191 TIP3 OH2  OT    -0.834000       15.9994           0
  121091 WT8  4191 TIP3 H1   HT     0.417000        1.0080           0
  121092 WT8  4191 TIP3 H2   HT     0.417000        1.0080           0
  121093 WT8  4198 TIP3 OH2  OT    -0.834000       15.9994           0
  121094 WT8  4198 TIP3 H1   HT     0.417000        1.0080           0
  121095 WT8  4198 TIP3 H2   HT     0.417000        1.0080           0
  121096 WT8  4200 TIP3 OH2  OT    -0.834000       15.9994           0
  121097 WT8  4200 TIP3 H1   HT     0.417000        1.0080           0
  121098 WT8  4200 TIP3 H2   HT     0.417000        1.0080           0
  121099 WT8  4201 TIP3 OH2  OT    -0.834000       15.9994           0
  121100 WT8  4201 TIP3 H1   HT     0.417000        1.0080           0
  121101 WT8  4201 TIP3 H2   HT     0.417000        1.0080           0
  121102 WT8  4202 TIP3 OH2  OT    -0.834000       15.9994           0
  121103 WT8  4202 TIP3 H1   HT     0.417000        1.0080           0
  121104 WT8  4202 TIP3 H2   HT     0.417000        1.0080           0
  121105 WT8  4205 TIP3 OH2  OT    -0.834000       15.9994           0
  121106 WT8  4205 TIP3 H1   HT     0.417000        1.0080           0
  121107 WT8  4205 TIP3 H2   HT     0.417000        1.0080           0
  121108 WT8  4207 TIP3 OH2  OT    -0.834000       15.9994           0
  121109 WT8  4207 TIP3 H1   HT     0.417000        1.0080           0
  121110 WT8  4207 TIP3 H2   HT     0.417000        1.0080           0
  121111 WT8  4208 TIP3 OH2  OT    -0.834000       15.9994           0
  121112 WT8  4208 TIP3 H1   HT     0.417000        1.0080           0
  121113 WT8  4208 TIP3 H2   HT     0.417000        1.0080           0
  121114 WT8  4209 TIP3 OH2  OT    -0.834000       15.9994           0
  121115 WT8  4209 TIP3 H1   HT     0.417000        1.0080           0
  121116 WT8  4209 TIP3 H2   HT     0.417000        1.0080           0
  121117 WT8  4211 TIP3 OH2  OT    -0.834000       15.9994           0
  121118 WT8  4211 TIP3 H1   HT     0.417000        1.0080           0
  121119 WT8  4211 TIP3 H2   HT     0.417000        1.0080           0
  121120 WT8  4215 TIP3 OH2  OT    -0.834000       15.9994           0
  121121 WT8  4215 TIP3 H1   HT     0.417000        1.0080           0
  121122 WT8  4215 TIP3 H2   HT     0.417000        1.0080           0
  121123 WT8  4218 TIP3 OH2  OT    -0.834000       15.9994           0
  121124 WT8  4218 TIP3 H1   HT     0.417000        1.0080           0
  121125 WT8  4218 TIP3 H2   HT     0.417000        1.0080           0
  121126 WT8  4219 TIP3 OH2  OT    -0.834000       15.9994           0
  121127 WT8  4219 TIP3 H1   HT     0.417000        1.0080           0
  121128 WT8  4219 TIP3 H2   HT     0.417000        1.0080           0
  121129 WT8  4224 TIP3 OH2  OT    -0.834000       15.9994           0
  121130 WT8  4224 TIP3 H1   HT     0.417000        1.0080           0
  121131 WT8  4224 TIP3 H2   HT     0.417000        1.0080           0
  121132 WT8  4225 TIP3 OH2  OT    -0.834000       15.9994           0
  121133 WT8  4225 TIP3 H1   HT     0.417000        1.0080           0
  121134 WT8  4225 TIP3 H2   HT     0.417000        1.0080           0
  121135 WT8  4227 TIP3 OH2  OT    -0.834000       15.9994           0
  121136 WT8  4227 TIP3 H1   HT     0.417000        1.0080           0
  121137 WT8  4227 TIP3 H2   HT     0.417000        1.0080           0
  121138 WT8  4228 TIP3 OH2  OT    -0.834000       15.9994           0
  121139 WT8  4228 TIP3 H1   HT     0.417000        1.0080           0
  121140 WT8  4228 TIP3 H2   HT     0.417000        1.0080           0
  121141 WT8  4231 TIP3 OH2  OT    -0.834000       15.9994           0
  121142 WT8  4231 TIP3 H1   HT     0.417000        1.0080           0
  121143 WT8  4231 TIP3 H2   HT     0.417000        1.0080           0
  121144 WT8  4232 TIP3 OH2  OT    -0.834000       15.9994           0
  121145 WT8  4232 TIP3 H1   HT     0.417000        1.0080           0
  121146 WT8  4232 TIP3 H2   HT     0.417000        1.0080           0
  121147 WT8  4233 TIP3 OH2  OT    -0.834000       15.9994           0
  121148 WT8  4233 TIP3 H1   HT     0.417000        1.0080           0
  121149 WT8  4233 TIP3 H2   HT     0.417000        1.0080           0
  121150 WT8  4234 TIP3 OH2  OT    -0.834000       15.9994           0
  121151 WT8  4234 TIP3 H1   HT     0.417000        1.0080           0
  121152 WT8  4234 TIP3 H2   HT     0.417000        1.0080           0
  121153 WT8  4235 TIP3 OH2  OT    -0.834000       15.9994           0
  121154 WT8  4235 TIP3 H1   HT     0.417000        1.0080           0
  121155 WT8  4235 TIP3 H2   HT     0.417000        1.0080           0
  121156 WT8  4236 TIP3 OH2  OT    -0.834000       15.9994           0
  121157 WT8  4236 TIP3 H1   HT     0.417000        1.0080           0
  121158 WT8  4236 TIP3 H2   HT     0.417000        1.0080           0
  121159 WT8  4243 TIP3 OH2  OT    -0.834000       15.9994           0
  121160 WT8  4243 TIP3 H1   HT     0.417000        1.0080           0
  121161 WT8  4243 TIP3 H2   HT     0.417000        1.0080           0
  121162 WT8  4244 TIP3 OH2  OT    -0.834000       15.9994           0
  121163 WT8  4244 TIP3 H1   HT     0.417000        1.0080           0
  121164 WT8  4244 TIP3 H2   HT     0.417000        1.0080           0
  121165 WT8  4247 TIP3 OH2  OT    -0.834000       15.9994           0
  121166 WT8  4247 TIP3 H1   HT     0.417000        1.0080           0
  121167 WT8  4247 TIP3 H2   HT     0.417000        1.0080           0
  121168 WT8  4249 TIP3 OH2  OT    -0.834000       15.9994           0
  121169 WT8  4249 TIP3 H1   HT     0.417000        1.0080           0
  121170 WT8  4249 TIP3 H2   HT     0.417000        1.0080           0
  121171 WT8  4251 TIP3 OH2  OT    -0.834000       15.9994           0
  121172 WT8  4251 TIP3 H1   HT     0.417000        1.0080           0
  121173 WT8  4251 TIP3 H2   HT     0.417000        1.0080           0
  121174 WT8  4255 TIP3 OH2  OT    -0.834000       15.9994           0
  121175 WT8  4255 TIP3 H1   HT     0.417000        1.0080           0
  121176 WT8  4255 TIP3 H2   HT     0.417000        1.0080           0
  121177 WT8  4266 TIP3 OH2  OT    -0.834000       15.9994           0
  121178 WT8  4266 TIP3 H1   HT     0.417000        1.0080           0
  121179 WT8  4266 TIP3 H2   HT     0.417000        1.0080           0
  121180 WT8  4268 TIP3 OH2  OT    -0.834000       15.9994           0
  121181 WT8  4268 TIP3 H1   HT     0.417000        1.0080           0
  121182 WT8  4268 TIP3 H2   HT     0.417000        1.0080           0
  121183 WT8  4272 TIP3 OH2  OT    -0.834000       15.9994           0
  121184 WT8  4272 TIP3 H1   HT     0.417000        1.0080           0
  121185 WT8  4272 TIP3 H2   HT     0.417000        1.0080           0
  121186 WT8  4273 TIP3 OH2  OT    -0.834000       15.9994           0
  121187 WT8  4273 TIP3 H1   HT     0.417000        1.0080           0
  121188 WT8  4273 TIP3 H2   HT     0.417000        1.0080           0
  121189 WT8  4274 TIP3 OH2  OT    -0.834000       15.9994           0
  121190 WT8  4274 TIP3 H1   HT     0.417000        1.0080           0
  121191 WT8  4274 TIP3 H2   HT     0.417000        1.0080           0
  121192 WT8  4278 TIP3 OH2  OT    -0.834000       15.9994           0
  121193 WT8  4278 TIP3 H1   HT     0.417000        1.0080           0
  121194 WT8  4278 TIP3 H2   HT     0.417000        1.0080           0
  121195 WT8  4282 TIP3 OH2  OT    -0.834000       15.9994           0
  121196 WT8  4282 TIP3 H1   HT     0.417000        1.0080           0
  121197 WT8  4282 TIP3 H2   HT     0.417000        1.0080           0
  121198 WT8  4287 TIP3 OH2  OT    -0.834000       15.9994           0
  121199 WT8  4287 TIP3 H1   HT     0.417000        1.0080           0
  121200 WT8  4287 TIP3 H2   HT     0.417000        1.0080           0
  121201 WT8  4294 TIP3 OH2  OT    -0.834000       15.9994           0
  121202 WT8  4294 TIP3 H1   HT     0.417000        1.0080           0
  121203 WT8  4294 TIP3 H2   HT     0.417000        1.0080           0
  121204 WT8  4297 TIP3 OH2  OT    -0.834000       15.9994           0
  121205 WT8  4297 TIP3 H1   HT     0.417000        1.0080           0
  121206 WT8  4297 TIP3 H2   HT     0.417000        1.0080           0
  121207 WT8  4298 TIP3 OH2  OT    -0.834000       15.9994           0
  121208 WT8  4298 TIP3 H1   HT     0.417000        1.0080           0
  121209 WT8  4298 TIP3 H2   HT     0.417000        1.0080           0
  121210 WT8  4304 TIP3 OH2  OT    -0.834000       15.9994           0
  121211 WT8  4304 TIP3 H1   HT     0.417000        1.0080           0
  121212 WT8  4304 TIP3 H2   HT     0.417000        1.0080           0
  121213 WT8  4307 TIP3 OH2  OT    -0.834000       15.9994           0
  121214 WT8  4307 TIP3 H1   HT     0.417000        1.0080           0
  121215 WT8  4307 TIP3 H2   HT     0.417000        1.0080           0
  121216 WT8  4313 TIP3 OH2  OT    -0.834000       15.9994           0
  121217 WT8  4313 TIP3 H1   HT     0.417000        1.0080           0
  121218 WT8  4313 TIP3 H2   HT     0.417000        1.0080           0
  121219 WT8  4315 TIP3 OH2  OT    -0.834000       15.9994           0
  121220 WT8  4315 TIP3 H1   HT     0.417000        1.0080           0
  121221 WT8  4315 TIP3 H2   HT     0.417000        1.0080           0
  121222 WT8  4328 TIP3 OH2  OT    -0.834000       15.9994           0
  121223 WT8  4328 TIP3 H1   HT     0.417000        1.0080           0
  121224 WT8  4328 TIP3 H2   HT     0.417000        1.0080           0
  121225 WT8  4337 TIP3 OH2  OT    -0.834000       15.9994           0
  121226 WT8  4337 TIP3 H1   HT     0.417000        1.0080           0
  121227 WT8  4337 TIP3 H2   HT     0.417000        1.0080           0
  121228 WT8  4356 TIP3 OH2  OT    -0.834000       15.9994           0
  121229 WT8  4356 TIP3 H1   HT     0.417000        1.0080           0
  121230 WT8  4356 TIP3 H2   HT     0.417000        1.0080           0
  121231 WT8  4380 TIP3 OH2  OT    -0.834000       15.9994           0
  121232 WT8  4380 TIP3 H1   HT     0.417000        1.0080           0
  121233 WT8  4380 TIP3 H2   HT     0.417000        1.0080           0
  121234 WT8  4382 TIP3 OH2  OT    -0.834000       15.9994           0
  121235 WT8  4382 TIP3 H1   HT     0.417000        1.0080           0
  121236 WT8  4382 TIP3 H2   HT     0.417000        1.0080           0
  121237 WT8  4394 TIP3 OH2  OT    -0.834000       15.9994           0
  121238 WT8  4394 TIP3 H1   HT     0.417000        1.0080           0
  121239 WT8  4394 TIP3 H2   HT     0.417000        1.0080           0
  121240 WT8  4396 TIP3 OH2  OT    -0.834000       15.9994           0
  121241 WT8  4396 TIP3 H1   HT     0.417000        1.0080           0
  121242 WT8  4396 TIP3 H2   HT     0.417000        1.0080           0
  121243 WT8  4401 TIP3 OH2  OT    -0.834000       15.9994           0
  121244 WT8  4401 TIP3 H1   HT     0.417000        1.0080           0
  121245 WT8  4401 TIP3 H2   HT     0.417000        1.0080           0
  121246 WT8  4414 TIP3 OH2  OT    -0.834000       15.9994           0
  121247 WT8  4414 TIP3 H1   HT     0.417000        1.0080           0
  121248 WT8  4414 TIP3 H2   HT     0.417000        1.0080           0
  121249 WT8  4417 TIP3 OH2  OT    -0.834000       15.9994           0
  121250 WT8  4417 TIP3 H1   HT     0.417000        1.0080           0
  121251 WT8  4417 TIP3 H2   HT     0.417000        1.0080           0
  121252 WT8  4419 TIP3 OH2  OT    -0.834000       15.9994           0
  121253 WT8  4419 TIP3 H1   HT     0.417000        1.0080           0
  121254 WT8  4419 TIP3 H2   HT     0.417000        1.0080           0
  121255 WT8  4420 TIP3 OH2  OT    -0.834000       15.9994           0
  121256 WT8  4420 TIP3 H1   HT     0.417000        1.0080           0
  121257 WT8  4420 TIP3 H2   HT     0.417000        1.0080           0
  121258 WT8  4421 TIP3 OH2  OT    -0.834000       15.9994           0
  121259 WT8  4421 TIP3 H1   HT     0.417000        1.0080           0
  121260 WT8  4421 TIP3 H2   HT     0.417000        1.0080           0
  121261 WT8  4422 TIP3 OH2  OT    -0.834000       15.9994           0
  121262 WT8  4422 TIP3 H1   HT     0.417000        1.0080           0
  121263 WT8  4422 TIP3 H2   HT     0.417000        1.0080           0
  121264 WT8  4432 TIP3 OH2  OT    -0.834000       15.9994           0
  121265 WT8  4432 TIP3 H1   HT     0.417000        1.0080           0
  121266 WT8  4432 TIP3 H2   HT     0.417000        1.0080           0
  121267 WT8  4434 TIP3 OH2  OT    -0.834000       15.9994           0
  121268 WT8  4434 TIP3 H1   HT     0.417000        1.0080           0
  121269 WT8  4434 TIP3 H2   HT     0.417000        1.0080           0
  121270 WT8  4438 TIP3 OH2  OT    -0.834000       15.9994           0
  121271 WT8  4438 TIP3 H1   HT     0.417000        1.0080           0
  121272 WT8  4438 TIP3 H2   HT     0.417000        1.0080           0
  121273 WT8  4441 TIP3 OH2  OT    -0.834000       15.9994           0
  121274 WT8  4441 TIP3 H1   HT     0.417000        1.0080           0
  121275 WT8  4441 TIP3 H2   HT     0.417000        1.0080           0
  121276 WT8  4442 TIP3 OH2  OT    -0.834000       15.9994           0
  121277 WT8  4442 TIP3 H1   HT     0.417000        1.0080           0
  121278 WT8  4442 TIP3 H2   HT     0.417000        1.0080           0
  121279 WT8  4443 TIP3 OH2  OT    -0.834000       15.9994           0
  121280 WT8  4443 TIP3 H1   HT     0.417000        1.0080           0
  121281 WT8  4443 TIP3 H2   HT     0.417000        1.0080           0
  121282 WT8  4446 TIP3 OH2  OT    -0.834000       15.9994           0
  121283 WT8  4446 TIP3 H1   HT     0.417000        1.0080           0
  121284 WT8  4446 TIP3 H2   HT     0.417000        1.0080           0
  121285 WT8  4455 TIP3 OH2  OT    -0.834000       15.9994           0
  121286 WT8  4455 TIP3 H1   HT     0.417000        1.0080           0
  121287 WT8  4455 TIP3 H2   HT     0.417000        1.0080           0
  121288 WT8  4456 TIP3 OH2  OT    -0.834000       15.9994           0
  121289 WT8  4456 TIP3 H1   HT     0.417000        1.0080           0
  121290 WT8  4456 TIP3 H2   HT     0.417000        1.0080           0
  121291 WT8  4457 TIP3 OH2  OT    -0.834000       15.9994           0
  121292 WT8  4457 TIP3 H1   HT     0.417000        1.0080           0
  121293 WT8  4457 TIP3 H2   HT     0.417000        1.0080           0
  121294 WT8  4460 TIP3 OH2  OT    -0.834000       15.9994           0
  121295 WT8  4460 TIP3 H1   HT     0.417000        1.0080           0
  121296 WT8  4460 TIP3 H2   HT     0.417000        1.0080           0
  121297 WT8  4461 TIP3 OH2  OT    -0.834000       15.9994           0
  121298 WT8  4461 TIP3 H1   HT     0.417000        1.0080           0
  121299 WT8  4461 TIP3 H2   HT     0.417000        1.0080           0
  121300 WT8  4462 TIP3 OH2  OT    -0.834000       15.9994           0
  121301 WT8  4462 TIP3 H1   HT     0.417000        1.0080           0
  121302 WT8  4462 TIP3 H2   HT     0.417000        1.0080           0
  121303 WT8  4463 TIP3 OH2  OT    -0.834000       15.9994           0
  121304 WT8  4463 TIP3 H1   HT     0.417000        1.0080           0
  121305 WT8  4463 TIP3 H2   HT     0.417000        1.0080           0
  121306 WT8  4465 TIP3 OH2  OT    -0.834000       15.9994           0
  121307 WT8  4465 TIP3 H1   HT     0.417000        1.0080           0
  121308 WT8  4465 TIP3 H2   HT     0.417000        1.0080           0
  121309 WT8  4466 TIP3 OH2  OT    -0.834000       15.9994           0
  121310 WT8  4466 TIP3 H1   HT     0.417000        1.0080           0
  121311 WT8  4466 TIP3 H2   HT     0.417000        1.0080           0
  121312 WT8  4473 TIP3 OH2  OT    -0.834000       15.9994           0
  121313 WT8  4473 TIP3 H1   HT     0.417000        1.0080           0
  121314 WT8  4473 TIP3 H2   HT     0.417000        1.0080           0
  121315 WT8  4474 TIP3 OH2  OT    -0.834000       15.9994           0
  121316 WT8  4474 TIP3 H1   HT     0.417000        1.0080           0
  121317 WT8  4474 TIP3 H2   HT     0.417000        1.0080           0
  121318 WT8  4477 TIP3 OH2  OT    -0.834000       15.9994           0
  121319 WT8  4477 TIP3 H1   HT     0.417000        1.0080           0
  121320 WT8  4477 TIP3 H2   HT     0.417000        1.0080           0
  121321 WT8  4479 TIP3 OH2  OT    -0.834000       15.9994           0
  121322 WT8  4479 TIP3 H1   HT     0.417000        1.0080           0
  121323 WT8  4479 TIP3 H2   HT     0.417000        1.0080           0
  121324 WT8  4480 TIP3 OH2  OT    -0.834000       15.9994           0
  121325 WT8  4480 TIP3 H1   HT     0.417000        1.0080           0
  121326 WT8  4480 TIP3 H2   HT     0.417000        1.0080           0
  121327 WT8  4482 TIP3 OH2  OT    -0.834000       15.9994           0
  121328 WT8  4482 TIP3 H1   HT     0.417000        1.0080           0
  121329 WT8  4482 TIP3 H2   HT     0.417000        1.0080           0
  121330 WT8  4483 TIP3 OH2  OT    -0.834000       15.9994           0
  121331 WT8  4483 TIP3 H1   HT     0.417000        1.0080           0
  121332 WT8  4483 TIP3 H2   HT     0.417000        1.0080           0
  121333 WT8  4484 TIP3 OH2  OT    -0.834000       15.9994           0
  121334 WT8  4484 TIP3 H1   HT     0.417000        1.0080           0
  121335 WT8  4484 TIP3 H2   HT     0.417000        1.0080           0
  121336 WT8  4485 TIP3 OH2  OT    -0.834000       15.9994           0
  121337 WT8  4485 TIP3 H1   HT     0.417000        1.0080           0
  121338 WT8  4485 TIP3 H2   HT     0.417000        1.0080           0
  121339 WT8  4496 TIP3 OH2  OT    -0.834000       15.9994           0
  121340 WT8  4496 TIP3 H1   HT     0.417000        1.0080           0
  121341 WT8  4496 TIP3 H2   HT     0.417000        1.0080           0
  121342 WT8  4497 TIP3 OH2  OT    -0.834000       15.9994           0
  121343 WT8  4497 TIP3 H1   HT     0.417000        1.0080           0
  121344 WT8  4497 TIP3 H2   HT     0.417000        1.0080           0
  121345 WT8  4498 TIP3 OH2  OT    -0.834000       15.9994           0
  121346 WT8  4498 TIP3 H1   HT     0.417000        1.0080           0
  121347 WT8  4498 TIP3 H2   HT     0.417000        1.0080           0
  121348 WT8  4499 TIP3 OH2  OT    -0.834000       15.9994           0
  121349 WT8  4499 TIP3 H1   HT     0.417000        1.0080           0
  121350 WT8  4499 TIP3 H2   HT     0.417000        1.0080           0
  121351 WT8  4500 TIP3 OH2  OT    -0.834000       15.9994           0
  121352 WT8  4500 TIP3 H1   HT     0.417000        1.0080           0
  121353 WT8  4500 TIP3 H2   HT     0.417000        1.0080           0
  121354 WT8  4501 TIP3 OH2  OT    -0.834000       15.9994           0
  121355 WT8  4501 TIP3 H1   HT     0.417000        1.0080           0
  121356 WT8  4501 TIP3 H2   HT     0.417000        1.0080           0
  121357 WT8  4503 TIP3 OH2  OT    -0.834000       15.9994           0
  121358 WT8  4503 TIP3 H1   HT     0.417000        1.0080           0
  121359 WT8  4503 TIP3 H2   HT     0.417000        1.0080           0
  121360 WT8  4504 TIP3 OH2  OT    -0.834000       15.9994           0
  121361 WT8  4504 TIP3 H1   HT     0.417000        1.0080           0
  121362 WT8  4504 TIP3 H2   HT     0.417000        1.0080           0
  121363 WT8  4506 TIP3 OH2  OT    -0.834000       15.9994           0
  121364 WT8  4506 TIP3 H1   HT     0.417000        1.0080           0
  121365 WT8  4506 TIP3 H2   HT     0.417000        1.0080           0
  121366 WT8  4507 TIP3 OH2  OT    -0.834000       15.9994           0
  121367 WT8  4507 TIP3 H1   HT     0.417000        1.0080           0
  121368 WT8  4507 TIP3 H2   HT     0.417000        1.0080           0
  121369 WT8  4509 TIP3 OH2  OT    -0.834000       15.9994           0
  121370 WT8  4509 TIP3 H1   HT     0.417000        1.0080           0
  121371 WT8  4509 TIP3 H2   HT     0.417000        1.0080           0
  121372 WT8  4513 TIP3 OH2  OT    -0.834000       15.9994           0
  121373 WT8  4513 TIP3 H1   HT     0.417000        1.0080           0
  121374 WT8  4513 TIP3 H2   HT     0.417000        1.0080           0
  121375 WT8  4515 TIP3 OH2  OT    -0.834000       15.9994           0
  121376 WT8  4515 TIP3 H1   HT     0.417000        1.0080           0
  121377 WT8  4515 TIP3 H2   HT     0.417000        1.0080           0
  121378 WT8  4516 TIP3 OH2  OT    -0.834000       15.9994           0
  121379 WT8  4516 TIP3 H1   HT     0.417000        1.0080           0
  121380 WT8  4516 TIP3 H2   HT     0.417000        1.0080           0
  121381 WT8  4518 TIP3 OH2  OT    -0.834000       15.9994           0
  121382 WT8  4518 TIP3 H1   HT     0.417000        1.0080           0
  121383 WT8  4518 TIP3 H2   HT     0.417000        1.0080           0
  121384 WT8  4519 TIP3 OH2  OT    -0.834000       15.9994           0
  121385 WT8  4519 TIP3 H1   HT     0.417000        1.0080           0
  121386 WT8  4519 TIP3 H2   HT     0.417000        1.0080           0
  121387 WT8  4520 TIP3 OH2  OT    -0.834000       15.9994           0
  121388 WT8  4520 TIP3 H1   HT     0.417000        1.0080           0
  121389 WT8  4520 TIP3 H2   HT     0.417000        1.0080           0
  121390 WT8  4522 TIP3 OH2  OT    -0.834000       15.9994           0
  121391 WT8  4522 TIP3 H1   HT     0.417000        1.0080           0
  121392 WT8  4522 TIP3 H2   HT     0.417000        1.0080           0
  121393 WT8  4523 TIP3 OH2  OT    -0.834000       15.9994           0
  121394 WT8  4523 TIP3 H1   HT     0.417000        1.0080           0
  121395 WT8  4523 TIP3 H2   HT     0.417000        1.0080           0
  121396 WT8  4524 TIP3 OH2  OT    -0.834000       15.9994           0
  121397 WT8  4524 TIP3 H1   HT     0.417000        1.0080           0
  121398 WT8  4524 TIP3 H2   HT     0.417000        1.0080           0
  121399 WT8  4525 TIP3 OH2  OT    -0.834000       15.9994           0
  121400 WT8  4525 TIP3 H1   HT     0.417000        1.0080           0
  121401 WT8  4525 TIP3 H2   HT     0.417000        1.0080           0
  121402 WT8  4536 TIP3 OH2  OT    -0.834000       15.9994           0
  121403 WT8  4536 TIP3 H1   HT     0.417000        1.0080           0
  121404 WT8  4536 TIP3 H2   HT     0.417000        1.0080           0
  121405 WT8  4537 TIP3 OH2  OT    -0.834000       15.9994           0
  121406 WT8  4537 TIP3 H1   HT     0.417000        1.0080           0
  121407 WT8  4537 TIP3 H2   HT     0.417000        1.0080           0
  121408 WT8  4538 TIP3 OH2  OT    -0.834000       15.9994           0
  121409 WT8  4538 TIP3 H1   HT     0.417000        1.0080           0
  121410 WT8  4538 TIP3 H2   HT     0.417000        1.0080           0
  121411 WT8  4539 TIP3 OH2  OT    -0.834000       15.9994           0
  121412 WT8  4539 TIP3 H1   HT     0.417000        1.0080           0
  121413 WT8  4539 TIP3 H2   HT     0.417000        1.0080           0
  121414 WT8  4540 TIP3 OH2  OT    -0.834000       15.9994           0
  121415 WT8  4540 TIP3 H1   HT     0.417000        1.0080           0
  121416 WT8  4540 TIP3 H2   HT     0.417000        1.0080           0
  121417 WT8  4541 TIP3 OH2  OT    -0.834000       15.9994           0
  121418 WT8  4541 TIP3 H1   HT     0.417000        1.0080           0
  121419 WT8  4541 TIP3 H2   HT     0.417000        1.0080           0
  121420 WT8  4543 TIP3 OH2  OT    -0.834000       15.9994           0
  121421 WT8  4543 TIP3 H1   HT     0.417000        1.0080           0
  121422 WT8  4543 TIP3 H2   HT     0.417000        1.0080           0
  121423 WT8  4545 TIP3 OH2  OT    -0.834000       15.9994           0
  121424 WT8  4545 TIP3 H1   HT     0.417000        1.0080           0
  121425 WT8  4545 TIP3 H2   HT     0.417000        1.0080           0
  121426 WT8  4548 TIP3 OH2  OT    -0.834000       15.9994           0
  121427 WT8  4548 TIP3 H1   HT     0.417000        1.0080           0
  121428 WT8  4548 TIP3 H2   HT     0.417000        1.0080           0
  121429 WT8  4549 TIP3 OH2  OT    -0.834000       15.9994           0
  121430 WT8  4549 TIP3 H1   HT     0.417000        1.0080           0
  121431 WT8  4549 TIP3 H2   HT     0.417000        1.0080           0
  121432 WT8  4551 TIP3 OH2  OT    -0.834000       15.9994           0
  121433 WT8  4551 TIP3 H1   HT     0.417000        1.0080           0
  121434 WT8  4551 TIP3 H2   HT     0.417000        1.0080           0
  121435 WT8  4553 TIP3 OH2  OT    -0.834000       15.9994           0
  121436 WT8  4553 TIP3 H1   HT     0.417000        1.0080           0
  121437 WT8  4553 TIP3 H2   HT     0.417000        1.0080           0
  121438 WT8  4558 TIP3 OH2  OT    -0.834000       15.9994           0
  121439 WT8  4558 TIP3 H1   HT     0.417000        1.0080           0
  121440 WT8  4558 TIP3 H2   HT     0.417000        1.0080           0
  121441 WT8  4559 TIP3 OH2  OT    -0.834000       15.9994           0
  121442 WT8  4559 TIP3 H1   HT     0.417000        1.0080           0
  121443 WT8  4559 TIP3 H2   HT     0.417000        1.0080           0
  121444 WT8  4560 TIP3 OH2  OT    -0.834000       15.9994           0
  121445 WT8  4560 TIP3 H1   HT     0.417000        1.0080           0
  121446 WT8  4560 TIP3 H2   HT     0.417000        1.0080           0
  121447 WT8  4561 TIP3 OH2  OT    -0.834000       15.9994           0
  121448 WT8  4561 TIP3 H1   HT     0.417000        1.0080           0
  121449 WT8  4561 TIP3 H2   HT     0.417000        1.0080           0
  121450 WT8  4562 TIP3 OH2  OT    -0.834000       15.9994           0
  121451 WT8  4562 TIP3 H1   HT     0.417000        1.0080           0
  121452 WT8  4562 TIP3 H2   HT     0.417000        1.0080           0
  121453 WT8  4563 TIP3 OH2  OT    -0.834000       15.9994           0
  121454 WT8  4563 TIP3 H1   HT     0.417000        1.0080           0
  121455 WT8  4563 TIP3 H2   HT     0.417000        1.0080           0
  121456 WT8  4564 TIP3 OH2  OT    -0.834000       15.9994           0
  121457 WT8  4564 TIP3 H1   HT     0.417000        1.0080           0
  121458 WT8  4564 TIP3 H2   HT     0.417000        1.0080           0
  121459 WT8  4565 TIP3 OH2  OT    -0.834000       15.9994           0
  121460 WT8  4565 TIP3 H1   HT     0.417000        1.0080           0
  121461 WT8  4565 TIP3 H2   HT     0.417000        1.0080           0
  121462 WT8  4566 TIP3 OH2  OT    -0.834000       15.9994           0
  121463 WT8  4566 TIP3 H1   HT     0.417000        1.0080           0
  121464 WT8  4566 TIP3 H2   HT     0.417000        1.0080           0
  121465 WT8  4567 TIP3 OH2  OT    -0.834000       15.9994           0
  121466 WT8  4567 TIP3 H1   HT     0.417000        1.0080           0
  121467 WT8  4567 TIP3 H2   HT     0.417000        1.0080           0
  121468 WT8  4568 TIP3 OH2  OT    -0.834000       15.9994           0
  121469 WT8  4568 TIP3 H1   HT     0.417000        1.0080           0
  121470 WT8  4568 TIP3 H2   HT     0.417000        1.0080           0
  121471 WT8  4569 TIP3 OH2  OT    -0.834000       15.9994           0
  121472 WT8  4569 TIP3 H1   HT     0.417000        1.0080           0
  121473 WT8  4569 TIP3 H2   HT     0.417000        1.0080           0
  121474 WT8  4574 TIP3 OH2  OT    -0.834000       15.9994           0
  121475 WT8  4574 TIP3 H1   HT     0.417000        1.0080           0
  121476 WT8  4574 TIP3 H2   HT     0.417000        1.0080           0
  121477 WT8  4578 TIP3 OH2  OT    -0.834000       15.9994           0
  121478 WT8  4578 TIP3 H1   HT     0.417000        1.0080           0
  121479 WT8  4578 TIP3 H2   HT     0.417000        1.0080           0
  121480 WT8  4581 TIP3 OH2  OT    -0.834000       15.9994           0
  121481 WT8  4581 TIP3 H1   HT     0.417000        1.0080           0
  121482 WT8  4581 TIP3 H2   HT     0.417000        1.0080           0
  121483 WT8  4582 TIP3 OH2  OT    -0.834000       15.9994           0
  121484 WT8  4582 TIP3 H1   HT     0.417000        1.0080           0
  121485 WT8  4582 TIP3 H2   HT     0.417000        1.0080           0
  121486 WT8  4585 TIP3 OH2  OT    -0.834000       15.9994           0
  121487 WT8  4585 TIP3 H1   HT     0.417000        1.0080           0
  121488 WT8  4585 TIP3 H2   HT     0.417000        1.0080           0
  121489 WT8  4587 TIP3 OH2  OT    -0.834000       15.9994           0
  121490 WT8  4587 TIP3 H1   HT     0.417000        1.0080           0
  121491 WT8  4587 TIP3 H2   HT     0.417000        1.0080           0
  121492 WT8  4588 TIP3 OH2  OT    -0.834000       15.9994           0
  121493 WT8  4588 TIP3 H1   HT     0.417000        1.0080           0
  121494 WT8  4588 TIP3 H2   HT     0.417000        1.0080           0
  121495 WT8  4592 TIP3 OH2  OT    -0.834000       15.9994           0
  121496 WT8  4592 TIP3 H1   HT     0.417000        1.0080           0
  121497 WT8  4592 TIP3 H2   HT     0.417000        1.0080           0
  121498 WT8  4593 TIP3 OH2  OT    -0.834000       15.9994           0
  121499 WT8  4593 TIP3 H1   HT     0.417000        1.0080           0
  121500 WT8  4593 TIP3 H2   HT     0.417000        1.0080           0
  121501 WT8  4599 TIP3 OH2  OT    -0.834000       15.9994           0
  121502 WT8  4599 TIP3 H1   HT     0.417000        1.0080           0
  121503 WT8  4599 TIP3 H2   HT     0.417000        1.0080           0
  121504 WT8  4600 TIP3 OH2  OT    -0.834000       15.9994           0
  121505 WT8  4600 TIP3 H1   HT     0.417000        1.0080           0
  121506 WT8  4600 TIP3 H2   HT     0.417000        1.0080           0
  121507 WT8  4602 TIP3 OH2  OT    -0.834000       15.9994           0
  121508 WT8  4602 TIP3 H1   HT     0.417000        1.0080           0
  121509 WT8  4602 TIP3 H2   HT     0.417000        1.0080           0
  121510 WT8  4605 TIP3 OH2  OT    -0.834000       15.9994           0
  121511 WT8  4605 TIP3 H1   HT     0.417000        1.0080           0
  121512 WT8  4605 TIP3 H2   HT     0.417000        1.0080           0
  121513 WT8  4606 TIP3 OH2  OT    -0.834000       15.9994           0
  121514 WT8  4606 TIP3 H1   HT     0.417000        1.0080           0
  121515 WT8  4606 TIP3 H2   HT     0.417000        1.0080           0
  121516 WT8  4607 TIP3 OH2  OT    -0.834000       15.9994           0
  121517 WT8  4607 TIP3 H1   HT     0.417000        1.0080           0
  121518 WT8  4607 TIP3 H2   HT     0.417000        1.0080           0
  121519 WT8  4608 TIP3 OH2  OT    -0.834000       15.9994           0
  121520 WT8  4608 TIP3 H1   HT     0.417000        1.0080           0
  121521 WT8  4608 TIP3 H2   HT     0.417000        1.0080           0
  121522 WT8  4610 TIP3 OH2  OT    -0.834000       15.9994           0
  121523 WT8  4610 TIP3 H1   HT     0.417000        1.0080           0
  121524 WT8  4610 TIP3 H2   HT     0.417000        1.0080           0
  121525 WT8  4611 TIP3 OH2  OT    -0.834000       15.9994           0
  121526 WT8  4611 TIP3 H1   HT     0.417000        1.0080           0
  121527 WT8  4611 TIP3 H2   HT     0.417000        1.0080           0
  121528 WT8  4619 TIP3 OH2  OT    -0.834000       15.9994           0
  121529 WT8  4619 TIP3 H1   HT     0.417000        1.0080           0
  121530 WT8  4619 TIP3 H2   HT     0.417000        1.0080           0
  121531 WT8  4621 TIP3 OH2  OT    -0.834000       15.9994           0
  121532 WT8  4621 TIP3 H1   HT     0.417000        1.0080           0
  121533 WT8  4621 TIP3 H2   HT     0.417000        1.0080           0
  121534 WT8  4622 TIP3 OH2  OT    -0.834000       15.9994           0
  121535 WT8  4622 TIP3 H1   HT     0.417000        1.0080           0
  121536 WT8  4622 TIP3 H2   HT     0.417000        1.0080           0
  121537 WT8  4623 TIP3 OH2  OT    -0.834000       15.9994           0
  121538 WT8  4623 TIP3 H1   HT     0.417000        1.0080           0
  121539 WT8  4623 TIP3 H2   HT     0.417000        1.0080           0
  121540 WT8  4624 TIP3 OH2  OT    -0.834000       15.9994           0
  121541 WT8  4624 TIP3 H1   HT     0.417000        1.0080           0
  121542 WT8  4624 TIP3 H2   HT     0.417000        1.0080           0
  121543 WT8  4625 TIP3 OH2  OT    -0.834000       15.9994           0
  121544 WT8  4625 TIP3 H1   HT     0.417000        1.0080           0
  121545 WT8  4625 TIP3 H2   HT     0.417000        1.0080           0
  121546 WT8  4626 TIP3 OH2  OT    -0.834000       15.9994           0
  121547 WT8  4626 TIP3 H1   HT     0.417000        1.0080           0
  121548 WT8  4626 TIP3 H2   HT     0.417000        1.0080           0
  121549 WT8  4627 TIP3 OH2  OT    -0.834000       15.9994           0
  121550 WT8  4627 TIP3 H1   HT     0.417000        1.0080           0
  121551 WT8  4627 TIP3 H2   HT     0.417000        1.0080           0
  121552 WT8  4628 TIP3 OH2  OT    -0.834000       15.9994           0
  121553 WT8  4628 TIP3 H1   HT     0.417000        1.0080           0
  121554 WT8  4628 TIP3 H2   HT     0.417000        1.0080           0
  121555 WT8  4630 TIP3 OH2  OT    -0.834000       15.9994           0
  121556 WT8  4630 TIP3 H1   HT     0.417000        1.0080           0
  121557 WT8  4630 TIP3 H2   HT     0.417000        1.0080           0
  121558 WT8  4631 TIP3 OH2  OT    -0.834000       15.9994           0
  121559 WT8  4631 TIP3 H1   HT     0.417000        1.0080           0
  121560 WT8  4631 TIP3 H2   HT     0.417000        1.0080           0
  121561 WT8  4632 TIP3 OH2  OT    -0.834000       15.9994           0
  121562 WT8  4632 TIP3 H1   HT     0.417000        1.0080           0
  121563 WT8  4632 TIP3 H2   HT     0.417000        1.0080           0
  121564 WT8  4633 TIP3 OH2  OT    -0.834000       15.9994           0
  121565 WT8  4633 TIP3 H1   HT     0.417000        1.0080           0
  121566 WT8  4633 TIP3 H2   HT     0.417000        1.0080           0
  121567 WT8  4634 TIP3 OH2  OT    -0.834000       15.9994           0
  121568 WT8  4634 TIP3 H1   HT     0.417000        1.0080           0
  121569 WT8  4634 TIP3 H2   HT     0.417000        1.0080           0
  121570 WT8  4641 TIP3 OH2  OT    -0.834000       15.9994           0
  121571 WT8  4641 TIP3 H1   HT     0.417000        1.0080           0
  121572 WT8  4641 TIP3 H2   HT     0.417000        1.0080           0
  121573 WT8  4644 TIP3 OH2  OT    -0.834000       15.9994           0
  121574 WT8  4644 TIP3 H1   HT     0.417000        1.0080           0
  121575 WT8  4644 TIP3 H2   HT     0.417000        1.0080           0
  121576 WT8  4645 TIP3 OH2  OT    -0.834000       15.9994           0
  121577 WT8  4645 TIP3 H1   HT     0.417000        1.0080           0
  121578 WT8  4645 TIP3 H2   HT     0.417000        1.0080           0
  121579 WT8  4647 TIP3 OH2  OT    -0.834000       15.9994           0
  121580 WT8  4647 TIP3 H1   HT     0.417000        1.0080           0
  121581 WT8  4647 TIP3 H2   HT     0.417000        1.0080           0
  121582 WT8  4648 TIP3 OH2  OT    -0.834000       15.9994           0
  121583 WT8  4648 TIP3 H1   HT     0.417000        1.0080           0
  121584 WT8  4648 TIP3 H2   HT     0.417000        1.0080           0
  121585 WT8  4649 TIP3 OH2  OT    -0.834000       15.9994           0
  121586 WT8  4649 TIP3 H1   HT     0.417000        1.0080           0
  121587 WT8  4649 TIP3 H2   HT     0.417000        1.0080           0
  121588 WT8  4650 TIP3 OH2  OT    -0.834000       15.9994           0
  121589 WT8  4650 TIP3 H1   HT     0.417000        1.0080           0
  121590 WT8  4650 TIP3 H2   HT     0.417000        1.0080           0
  121591 WT8  4651 TIP3 OH2  OT    -0.834000       15.9994           0
  121592 WT8  4651 TIP3 H1   HT     0.417000        1.0080           0
  121593 WT8  4651 TIP3 H2   HT     0.417000        1.0080           0
  121594 WT8  4652 TIP3 OH2  OT    -0.834000       15.9994           0
  121595 WT8  4652 TIP3 H1   HT     0.417000        1.0080           0
  121596 WT8  4652 TIP3 H2   HT     0.417000        1.0080           0
  121597 WT8  4653 TIP3 OH2  OT    -0.834000       15.9994           0
  121598 WT8  4653 TIP3 H1   HT     0.417000        1.0080           0
  121599 WT8  4653 TIP3 H2   HT     0.417000        1.0080           0
  121600 WT8  4654 TIP3 OH2  OT    -0.834000       15.9994           0
  121601 WT8  4654 TIP3 H1   HT     0.417000        1.0080           0
  121602 WT8  4654 TIP3 H2   HT     0.417000        1.0080           0
  121603 WT8  4655 TIP3 OH2  OT    -0.834000       15.9994           0
  121604 WT8  4655 TIP3 H1   HT     0.417000        1.0080           0
  121605 WT8  4655 TIP3 H2   HT     0.417000        1.0080           0
  121606 WT8  4663 TIP3 OH2  OT    -0.834000       15.9994           0
  121607 WT8  4663 TIP3 H1   HT     0.417000        1.0080           0
  121608 WT8  4663 TIP3 H2   HT     0.417000        1.0080           0
  121609 WT8  4665 TIP3 OH2  OT    -0.834000       15.9994           0
  121610 WT8  4665 TIP3 H1   HT     0.417000        1.0080           0
  121611 WT8  4665 TIP3 H2   HT     0.417000        1.0080           0
  121612 WT8  4666 TIP3 OH2  OT    -0.834000       15.9994           0
  121613 WT8  4666 TIP3 H1   HT     0.417000        1.0080           0
  121614 WT8  4666 TIP3 H2   HT     0.417000        1.0080           0
  121615 WT8  4667 TIP3 OH2  OT    -0.834000       15.9994           0
  121616 WT8  4667 TIP3 H1   HT     0.417000        1.0080           0
  121617 WT8  4667 TIP3 H2   HT     0.417000        1.0080           0
  121618 WT8  4668 TIP3 OH2  OT    -0.834000       15.9994           0
  121619 WT8  4668 TIP3 H1   HT     0.417000        1.0080           0
  121620 WT8  4668 TIP3 H2   HT     0.417000        1.0080           0
  121621 WT8  4669 TIP3 OH2  OT    -0.834000       15.9994           0
  121622 WT8  4669 TIP3 H1   HT     0.417000        1.0080           0
  121623 WT8  4669 TIP3 H2   HT     0.417000        1.0080           0
  121624 WT8  4670 TIP3 OH2  OT    -0.834000       15.9994           0
  121625 WT8  4670 TIP3 H1   HT     0.417000        1.0080           0
  121626 WT8  4670 TIP3 H2   HT     0.417000        1.0080           0
  121627 WT8  4671 TIP3 OH2  OT    -0.834000       15.9994           0
  121628 WT8  4671 TIP3 H1   HT     0.417000        1.0080           0
  121629 WT8  4671 TIP3 H2   HT     0.417000        1.0080           0
  121630 WT8  4672 TIP3 OH2  OT    -0.834000       15.9994           0
  121631 WT8  4672 TIP3 H1   HT     0.417000        1.0080           0
  121632 WT8  4672 TIP3 H2   HT     0.417000        1.0080           0
  121633 WT8  4674 TIP3 OH2  OT    -0.834000       15.9994           0
  121634 WT8  4674 TIP3 H1   HT     0.417000        1.0080           0
  121635 WT8  4674 TIP3 H2   HT     0.417000        1.0080           0
  121636 WT8  4676 TIP3 OH2  OT    -0.834000       15.9994           0
  121637 WT8  4676 TIP3 H1   HT     0.417000        1.0080           0
  121638 WT8  4676 TIP3 H2   HT     0.417000        1.0080           0
  121639 WT8  4677 TIP3 OH2  OT    -0.834000       15.9994           0
  121640 WT8  4677 TIP3 H1   HT     0.417000        1.0080           0
  121641 WT8  4677 TIP3 H2   HT     0.417000        1.0080           0
  121642 WT8  4685 TIP3 OH2  OT    -0.834000       15.9994           0
  121643 WT8  4685 TIP3 H1   HT     0.417000        1.0080           0
  121644 WT8  4685 TIP3 H2   HT     0.417000        1.0080           0
  121645 WT8  4687 TIP3 OH2  OT    -0.834000       15.9994           0
  121646 WT8  4687 TIP3 H1   HT     0.417000        1.0080           0
  121647 WT8  4687 TIP3 H2   HT     0.417000        1.0080           0
  121648 WT8  4689 TIP3 OH2  OT    -0.834000       15.9994           0
  121649 WT8  4689 TIP3 H1   HT     0.417000        1.0080           0
  121650 WT8  4689 TIP3 H2   HT     0.417000        1.0080           0
  121651 WT8  4691 TIP3 OH2  OT    -0.834000       15.9994           0
  121652 WT8  4691 TIP3 H1   HT     0.417000        1.0080           0
  121653 WT8  4691 TIP3 H2   HT     0.417000        1.0080           0
  121654 WT8  4692 TIP3 OH2  OT    -0.834000       15.9994           0
  121655 WT8  4692 TIP3 H1   HT     0.417000        1.0080           0
  121656 WT8  4692 TIP3 H2   HT     0.417000        1.0080           0
  121657 WT8  4695 TIP3 OH2  OT    -0.834000       15.9994           0
  121658 WT8  4695 TIP3 H1   HT     0.417000        1.0080           0
  121659 WT8  4695 TIP3 H2   HT     0.417000        1.0080           0
  121660 WT8  4696 TIP3 OH2  OT    -0.834000       15.9994           0
  121661 WT8  4696 TIP3 H1   HT     0.417000        1.0080           0
  121662 WT8  4696 TIP3 H2   HT     0.417000        1.0080           0
  121663 WT8  4706 TIP3 OH2  OT    -0.834000       15.9994           0
  121664 WT8  4706 TIP3 H1   HT     0.417000        1.0080           0
  121665 WT8  4706 TIP3 H2   HT     0.417000        1.0080           0
  121666 WT8  4710 TIP3 OH2  OT    -0.834000       15.9994           0
  121667 WT8  4710 TIP3 H1   HT     0.417000        1.0080           0
  121668 WT8  4710 TIP3 H2   HT     0.417000        1.0080           0
  121669 WT8  4712 TIP3 OH2  OT    -0.834000       15.9994           0
  121670 WT8  4712 TIP3 H1   HT     0.417000        1.0080           0
  121671 WT8  4712 TIP3 H2   HT     0.417000        1.0080           0
  121672 WT8  4713 TIP3 OH2  OT    -0.834000       15.9994           0
  121673 WT8  4713 TIP3 H1   HT     0.417000        1.0080           0
  121674 WT8  4713 TIP3 H2   HT     0.417000        1.0080           0
  121675 WT8  4715 TIP3 OH2  OT    -0.834000       15.9994           0
  121676 WT8  4715 TIP3 H1   HT     0.417000        1.0080           0
  121677 WT8  4715 TIP3 H2   HT     0.417000        1.0080           0
  121678 WT8  4725 TIP3 OH2  OT    -0.834000       15.9994           0
  121679 WT8  4725 TIP3 H1   HT     0.417000        1.0080           0
  121680 WT8  4725 TIP3 H2   HT     0.417000        1.0080           0
  121681 WT8  4732 TIP3 OH2  OT    -0.834000       15.9994           0
  121682 WT8  4732 TIP3 H1   HT     0.417000        1.0080           0
  121683 WT8  4732 TIP3 H2   HT     0.417000        1.0080           0
  121684 WT8  4735 TIP3 OH2  OT    -0.834000       15.9994           0
  121685 WT8  4735 TIP3 H1   HT     0.417000        1.0080           0
  121686 WT8  4735 TIP3 H2   HT     0.417000        1.0080           0
  121687 WT8  4750 TIP3 OH2  OT    -0.834000       15.9994           0
  121688 WT8  4750 TIP3 H1   HT     0.417000        1.0080           0
  121689 WT8  4750 TIP3 H2   HT     0.417000        1.0080           0
  121690 WT8  4751 TIP3 OH2  OT    -0.834000       15.9994           0
  121691 WT8  4751 TIP3 H1   HT     0.417000        1.0080           0
  121692 WT8  4751 TIP3 H2   HT     0.417000        1.0080           0
  121693 WT8  4778 TIP3 OH2  OT    -0.834000       15.9994           0
  121694 WT8  4778 TIP3 H1   HT     0.417000        1.0080           0
  121695 WT8  4778 TIP3 H2   HT     0.417000        1.0080           0
  121696 WT8  4787 TIP3 OH2  OT    -0.834000       15.9994           0
  121697 WT8  4787 TIP3 H1   HT     0.417000        1.0080           0
  121698 WT8  4787 TIP3 H2   HT     0.417000        1.0080           0
  121699 WT8  4791 TIP3 OH2  OT    -0.834000       15.9994           0
  121700 WT8  4791 TIP3 H1   HT     0.417000        1.0080           0
  121701 WT8  4791 TIP3 H2   HT     0.417000        1.0080           0
  121702 WT8  4797 TIP3 OH2  OT    -0.834000       15.9994           0
  121703 WT8  4797 TIP3 H1   HT     0.417000        1.0080           0
  121704 WT8  4797 TIP3 H2   HT     0.417000        1.0080           0
  121705 WT8  4798 TIP3 OH2  OT    -0.834000       15.9994           0
  121706 WT8  4798 TIP3 H1   HT     0.417000        1.0080           0
  121707 WT8  4798 TIP3 H2   HT     0.417000        1.0080           0
  121708 WT8  4800 TIP3 OH2  OT    -0.834000       15.9994           0
  121709 WT8  4800 TIP3 H1   HT     0.417000        1.0080           0
  121710 WT8  4800 TIP3 H2   HT     0.417000        1.0080           0
  121711 WT8  4801 TIP3 OH2  OT    -0.834000       15.9994           0
  121712 WT8  4801 TIP3 H1   HT     0.417000        1.0080           0
  121713 WT8  4801 TIP3 H2   HT     0.417000        1.0080           0
  121714 WT8  4808 TIP3 OH2  OT    -0.834000       15.9994           0
  121715 WT8  4808 TIP3 H1   HT     0.417000        1.0080           0
  121716 WT8  4808 TIP3 H2   HT     0.417000        1.0080           0
  121717 WT8  4809 TIP3 OH2  OT    -0.834000       15.9994           0
  121718 WT8  4809 TIP3 H1   HT     0.417000        1.0080           0
  121719 WT8  4809 TIP3 H2   HT     0.417000        1.0080           0
  121720 WT8  4814 TIP3 OH2  OT    -0.834000       15.9994           0
  121721 WT8  4814 TIP3 H1   HT     0.417000        1.0080           0
  121722 WT8  4814 TIP3 H2   HT     0.417000        1.0080           0
  121723 WT8  4815 TIP3 OH2  OT    -0.834000       15.9994           0
  121724 WT8  4815 TIP3 H1   HT     0.417000        1.0080           0
  121725 WT8  4815 TIP3 H2   HT     0.417000        1.0080           0
  121726 WT8  4820 TIP3 OH2  OT    -0.834000       15.9994           0
  121727 WT8  4820 TIP3 H1   HT     0.417000        1.0080           0
  121728 WT8  4820 TIP3 H2   HT     0.417000        1.0080           0
  121729 WT8  4821 TIP3 OH2  OT    -0.834000       15.9994           0
  121730 WT8  4821 TIP3 H1   HT     0.417000        1.0080           0
  121731 WT8  4821 TIP3 H2   HT     0.417000        1.0080           0
  121732 WT8  4822 TIP3 OH2  OT    -0.834000       15.9994           0
  121733 WT8  4822 TIP3 H1   HT     0.417000        1.0080           0
  121734 WT8  4822 TIP3 H2   HT     0.417000        1.0080           0
  121735 WT8  4834 TIP3 OH2  OT    -0.834000       15.9994           0
  121736 WT8  4834 TIP3 H1   HT     0.417000        1.0080           0
  121737 WT8  4834 TIP3 H2   HT     0.417000        1.0080           0
  121738 WT8  4835 TIP3 OH2  OT    -0.834000       15.9994           0
  121739 WT8  4835 TIP3 H1   HT     0.417000        1.0080           0
  121740 WT8  4835 TIP3 H2   HT     0.417000        1.0080           0
  121741 WT8  4836 TIP3 OH2  OT    -0.834000       15.9994           0
  121742 WT8  4836 TIP3 H1   HT     0.417000        1.0080           0
  121743 WT8  4836 TIP3 H2   HT     0.417000        1.0080           0
  121744 WT8  4837 TIP3 OH2  OT    -0.834000       15.9994           0
  121745 WT8  4837 TIP3 H1   HT     0.417000        1.0080           0
  121746 WT8  4837 TIP3 H2   HT     0.417000        1.0080           0
  121747 WT8  4844 TIP3 OH2  OT    -0.834000       15.9994           0
  121748 WT8  4844 TIP3 H1   HT     0.417000        1.0080           0
  121749 WT8  4844 TIP3 H2   HT     0.417000        1.0080           0
  121750 WT8  4849 TIP3 OH2  OT    -0.834000       15.9994           0
  121751 WT8  4849 TIP3 H1   HT     0.417000        1.0080           0
  121752 WT8  4849 TIP3 H2   HT     0.417000        1.0080           0
  121753 WT8  4851 TIP3 OH2  OT    -0.834000       15.9994           0
  121754 WT8  4851 TIP3 H1   HT     0.417000        1.0080           0
  121755 WT8  4851 TIP3 H2   HT     0.417000        1.0080           0
  121756 WT8  4853 TIP3 OH2  OT    -0.834000       15.9994           0
  121757 WT8  4853 TIP3 H1   HT     0.417000        1.0080           0
  121758 WT8  4853 TIP3 H2   HT     0.417000        1.0080           0
  121759 WT8  4855 TIP3 OH2  OT    -0.834000       15.9994           0
  121760 WT8  4855 TIP3 H1   HT     0.417000        1.0080           0
  121761 WT8  4855 TIP3 H2   HT     0.417000        1.0080           0
  121762 WT8  4856 TIP3 OH2  OT    -0.834000       15.9994           0
  121763 WT8  4856 TIP3 H1   HT     0.417000        1.0080           0
  121764 WT8  4856 TIP3 H2   HT     0.417000        1.0080           0
  121765 WT8  4857 TIP3 OH2  OT    -0.834000       15.9994           0
  121766 WT8  4857 TIP3 H1   HT     0.417000        1.0080           0
  121767 WT8  4857 TIP3 H2   HT     0.417000        1.0080           0
  121768 WT8  4861 TIP3 OH2  OT    -0.834000       15.9994           0
  121769 WT8  4861 TIP3 H1   HT     0.417000        1.0080           0
  121770 WT8  4861 TIP3 H2   HT     0.417000        1.0080           0
  121771 WT8  4863 TIP3 OH2  OT    -0.834000       15.9994           0
  121772 WT8  4863 TIP3 H1   HT     0.417000        1.0080           0
  121773 WT8  4863 TIP3 H2   HT     0.417000        1.0080           0
  121774 WT8  4864 TIP3 OH2  OT    -0.834000       15.9994           0
  121775 WT8  4864 TIP3 H1   HT     0.417000        1.0080           0
  121776 WT8  4864 TIP3 H2   HT     0.417000        1.0080           0
  121777 WT8  4866 TIP3 OH2  OT    -0.834000       15.9994           0
  121778 WT8  4866 TIP3 H1   HT     0.417000        1.0080           0
  121779 WT8  4866 TIP3 H2   HT     0.417000        1.0080           0
  121780 WT8  4872 TIP3 OH2  OT    -0.834000       15.9994           0
  121781 WT8  4872 TIP3 H1   HT     0.417000        1.0080           0
  121782 WT8  4872 TIP3 H2   HT     0.417000        1.0080           0
  121783 WT8  4875 TIP3 OH2  OT    -0.834000       15.9994           0
  121784 WT8  4875 TIP3 H1   HT     0.417000        1.0080           0
  121785 WT8  4875 TIP3 H2   HT     0.417000        1.0080           0
  121786 WT8  4880 TIP3 OH2  OT    -0.834000       15.9994           0
  121787 WT8  4880 TIP3 H1   HT     0.417000        1.0080           0
  121788 WT8  4880 TIP3 H2   HT     0.417000        1.0080           0
  121789 WT8  4881 TIP3 OH2  OT    -0.834000       15.9994           0
  121790 WT8  4881 TIP3 H1   HT     0.417000        1.0080           0
  121791 WT8  4881 TIP3 H2   HT     0.417000        1.0080           0
  121792 WT8  4882 TIP3 OH2  OT    -0.834000       15.9994           0
  121793 WT8  4882 TIP3 H1   HT     0.417000        1.0080           0
  121794 WT8  4882 TIP3 H2   HT     0.417000        1.0080           0
  121795 WT8  4884 TIP3 OH2  OT    -0.834000       15.9994           0
  121796 WT8  4884 TIP3 H1   HT     0.417000        1.0080           0
  121797 WT8  4884 TIP3 H2   HT     0.417000        1.0080           0
  121798 WT8  4887 TIP3 OH2  OT    -0.834000       15.9994           0
  121799 WT8  4887 TIP3 H1   HT     0.417000        1.0080           0
  121800 WT8  4887 TIP3 H2   HT     0.417000        1.0080           0
  121801 WT8  4893 TIP3 OH2  OT    -0.834000       15.9994           0
  121802 WT8  4893 TIP3 H1   HT     0.417000        1.0080           0
  121803 WT8  4893 TIP3 H2   HT     0.417000        1.0080           0
  121804 WT8  4896 TIP3 OH2  OT    -0.834000       15.9994           0
  121805 WT8  4896 TIP3 H1   HT     0.417000        1.0080           0
  121806 WT8  4896 TIP3 H2   HT     0.417000        1.0080           0
  121807 WT8  4897 TIP3 OH2  OT    -0.834000       15.9994           0
  121808 WT8  4897 TIP3 H1   HT     0.417000        1.0080           0
  121809 WT8  4897 TIP3 H2   HT     0.417000        1.0080           0
  121810 WT8  4899 TIP3 OH2  OT    -0.834000       15.9994           0
  121811 WT8  4899 TIP3 H1   HT     0.417000        1.0080           0
  121812 WT8  4899 TIP3 H2   HT     0.417000        1.0080           0
  121813 WT8  4901 TIP3 OH2  OT    -0.834000       15.9994           0
  121814 WT8  4901 TIP3 H1   HT     0.417000        1.0080           0
  121815 WT8  4901 TIP3 H2   HT     0.417000        1.0080           0
  121816 WT8  4902 TIP3 OH2  OT    -0.834000       15.9994           0
  121817 WT8  4902 TIP3 H1   HT     0.417000        1.0080           0
  121818 WT8  4902 TIP3 H2   HT     0.417000        1.0080           0
  121819 WT8  4903 TIP3 OH2  OT    -0.834000       15.9994           0
  121820 WT8  4903 TIP3 H1   HT     0.417000        1.0080           0
  121821 WT8  4903 TIP3 H2   HT     0.417000        1.0080           0
  121822 WT8  4905 TIP3 OH2  OT    -0.834000       15.9994           0
  121823 WT8  4905 TIP3 H1   HT     0.417000        1.0080           0
  121824 WT8  4905 TIP3 H2   HT     0.417000        1.0080           0
  121825 WT8  4908 TIP3 OH2  OT    -0.834000       15.9994           0
  121826 WT8  4908 TIP3 H1   HT     0.417000        1.0080           0
  121827 WT8  4908 TIP3 H2   HT     0.417000        1.0080           0
  121828 WT8  4911 TIP3 OH2  OT    -0.834000       15.9994           0
  121829 WT8  4911 TIP3 H1   HT     0.417000        1.0080           0
  121830 WT8  4911 TIP3 H2   HT     0.417000        1.0080           0
  121831 WT8  4914 TIP3 OH2  OT    -0.834000       15.9994           0
  121832 WT8  4914 TIP3 H1   HT     0.417000        1.0080           0
  121833 WT8  4914 TIP3 H2   HT     0.417000        1.0080           0
  121834 WT8  4915 TIP3 OH2  OT    -0.834000       15.9994           0
  121835 WT8  4915 TIP3 H1   HT     0.417000        1.0080           0
  121836 WT8  4915 TIP3 H2   HT     0.417000        1.0080           0
  121837 WT8  4916 TIP3 OH2  OT    -0.834000       15.9994           0
  121838 WT8  4916 TIP3 H1   HT     0.417000        1.0080           0
  121839 WT8  4916 TIP3 H2   HT     0.417000        1.0080           0
  121840 WT8  4919 TIP3 OH2  OT    -0.834000       15.9994           0
  121841 WT8  4919 TIP3 H1   HT     0.417000        1.0080           0
  121842 WT8  4919 TIP3 H2   HT     0.417000        1.0080           0
  121843 WT8  4920 TIP3 OH2  OT    -0.834000       15.9994           0
  121844 WT8  4920 TIP3 H1   HT     0.417000        1.0080           0
  121845 WT8  4920 TIP3 H2   HT     0.417000        1.0080           0
  121846 WT8  4922 TIP3 OH2  OT    -0.834000       15.9994           0
  121847 WT8  4922 TIP3 H1   HT     0.417000        1.0080           0
  121848 WT8  4922 TIP3 H2   HT     0.417000        1.0080           0
  121849 WT8  4924 TIP3 OH2  OT    -0.834000       15.9994           0
  121850 WT8  4924 TIP3 H1   HT     0.417000        1.0080           0
  121851 WT8  4924 TIP3 H2   HT     0.417000        1.0080           0
  121852 WT8  4925 TIP3 OH2  OT    -0.834000       15.9994           0
  121853 WT8  4925 TIP3 H1   HT     0.417000        1.0080           0
  121854 WT8  4925 TIP3 H2   HT     0.417000        1.0080           0
  121855 WT8  4926 TIP3 OH2  OT    -0.834000       15.9994           0
  121856 WT8  4926 TIP3 H1   HT     0.417000        1.0080           0
  121857 WT8  4926 TIP3 H2   HT     0.417000        1.0080           0
  121858 WT8  4927 TIP3 OH2  OT    -0.834000       15.9994           0
  121859 WT8  4927 TIP3 H1   HT     0.417000        1.0080           0
  121860 WT8  4927 TIP3 H2   HT     0.417000        1.0080           0
  121861 WT8  4933 TIP3 OH2  OT    -0.834000       15.9994           0
  121862 WT8  4933 TIP3 H1   HT     0.417000        1.0080           0
  121863 WT8  4933 TIP3 H2   HT     0.417000        1.0080           0
  121864 WT8  4936 TIP3 OH2  OT    -0.834000       15.9994           0
  121865 WT8  4936 TIP3 H1   HT     0.417000        1.0080           0
  121866 WT8  4936 TIP3 H2   HT     0.417000        1.0080           0
  121867 WT8  4937 TIP3 OH2  OT    -0.834000       15.9994           0
  121868 WT8  4937 TIP3 H1   HT     0.417000        1.0080           0
  121869 WT8  4937 TIP3 H2   HT     0.417000        1.0080           0
  121870 WT8  4941 TIP3 OH2  OT    -0.834000       15.9994           0
  121871 WT8  4941 TIP3 H1   HT     0.417000        1.0080           0
  121872 WT8  4941 TIP3 H2   HT     0.417000        1.0080           0
  121873 WT8  4942 TIP3 OH2  OT    -0.834000       15.9994           0
  121874 WT8  4942 TIP3 H1   HT     0.417000        1.0080           0
  121875 WT8  4942 TIP3 H2   HT     0.417000        1.0080           0
  121876 WT8  4944 TIP3 OH2  OT    -0.834000       15.9994           0
  121877 WT8  4944 TIP3 H1   HT     0.417000        1.0080           0
  121878 WT8  4944 TIP3 H2   HT     0.417000        1.0080           0
  121879 WT8  4945 TIP3 OH2  OT    -0.834000       15.9994           0
  121880 WT8  4945 TIP3 H1   HT     0.417000        1.0080           0
  121881 WT8  4945 TIP3 H2   HT     0.417000        1.0080           0
  121882 WT8  4946 TIP3 OH2  OT    -0.834000       15.9994           0
  121883 WT8  4946 TIP3 H1   HT     0.417000        1.0080           0
  121884 WT8  4946 TIP3 H2   HT     0.417000        1.0080           0
  121885 WT8  4947 TIP3 OH2  OT    -0.834000       15.9994           0
  121886 WT8  4947 TIP3 H1   HT     0.417000        1.0080           0
  121887 WT8  4947 TIP3 H2   HT     0.417000        1.0080           0
  121888 WT8  4957 TIP3 OH2  OT    -0.834000       15.9994           0
  121889 WT8  4957 TIP3 H1   HT     0.417000        1.0080           0
  121890 WT8  4957 TIP3 H2   HT     0.417000        1.0080           0
  121891 WT8  4961 TIP3 OH2  OT    -0.834000       15.9994           0
  121892 WT8  4961 TIP3 H1   HT     0.417000        1.0080           0
  121893 WT8  4961 TIP3 H2   HT     0.417000        1.0080           0
  121894 WT8  4963 TIP3 OH2  OT    -0.834000       15.9994           0
  121895 WT8  4963 TIP3 H1   HT     0.417000        1.0080           0
  121896 WT8  4963 TIP3 H2   HT     0.417000        1.0080           0
  121897 WT8  4964 TIP3 OH2  OT    -0.834000       15.9994           0
  121898 WT8  4964 TIP3 H1   HT     0.417000        1.0080           0
  121899 WT8  4964 TIP3 H2   HT     0.417000        1.0080           0
  121900 WT8  4965 TIP3 OH2  OT    -0.834000       15.9994           0
  121901 WT8  4965 TIP3 H1   HT     0.417000        1.0080           0
  121902 WT8  4965 TIP3 H2   HT     0.417000        1.0080           0
  121903 WT8  4966 TIP3 OH2  OT    -0.834000       15.9994           0
  121904 WT8  4966 TIP3 H1   HT     0.417000        1.0080           0
  121905 WT8  4966 TIP3 H2   HT     0.417000        1.0080           0
  121906 WT8  4971 TIP3 OH2  OT    -0.834000       15.9994           0
  121907 WT8  4971 TIP3 H1   HT     0.417000        1.0080           0
  121908 WT8  4971 TIP3 H2   HT     0.417000        1.0080           0
  121909 WT8  4978 TIP3 OH2  OT    -0.834000       15.9994           0
  121910 WT8  4978 TIP3 H1   HT     0.417000        1.0080           0
  121911 WT8  4978 TIP3 H2   HT     0.417000        1.0080           0
  121912 WT8  4979 TIP3 OH2  OT    -0.834000       15.9994           0
  121913 WT8  4979 TIP3 H1   HT     0.417000        1.0080           0
  121914 WT8  4979 TIP3 H2   HT     0.417000        1.0080           0
  121915 WT8  4980 TIP3 OH2  OT    -0.834000       15.9994           0
  121916 WT8  4980 TIP3 H1   HT     0.417000        1.0080           0
  121917 WT8  4980 TIP3 H2   HT     0.417000        1.0080           0
  121918 WT8  4981 TIP3 OH2  OT    -0.834000       15.9994           0
  121919 WT8  4981 TIP3 H1   HT     0.417000        1.0080           0
  121920 WT8  4981 TIP3 H2   HT     0.417000        1.0080           0
  121921 WT8  4982 TIP3 OH2  OT    -0.834000       15.9994           0
  121922 WT8  4982 TIP3 H1   HT     0.417000        1.0080           0
  121923 WT8  4982 TIP3 H2   HT     0.417000        1.0080           0
  121924 WT8  4983 TIP3 OH2  OT    -0.834000       15.9994           0
  121925 WT8  4983 TIP3 H1   HT     0.417000        1.0080           0
  121926 WT8  4983 TIP3 H2   HT     0.417000        1.0080           0
  121927 WT8  4985 TIP3 OH2  OT    -0.834000       15.9994           0
  121928 WT8  4985 TIP3 H1   HT     0.417000        1.0080           0
  121929 WT8  4985 TIP3 H2   HT     0.417000        1.0080           0
  121930 WT8  4986 TIP3 OH2  OT    -0.834000       15.9994           0
  121931 WT8  4986 TIP3 H1   HT     0.417000        1.0080           0
  121932 WT8  4986 TIP3 H2   HT     0.417000        1.0080           0
  121933 WT8  4987 TIP3 OH2  OT    -0.834000       15.9994           0
  121934 WT8  4987 TIP3 H1   HT     0.417000        1.0080           0
  121935 WT8  4987 TIP3 H2   HT     0.417000        1.0080           0
  121936 WT8  4988 TIP3 OH2  OT    -0.834000       15.9994           0
  121937 WT8  4988 TIP3 H1   HT     0.417000        1.0080           0
  121938 WT8  4988 TIP3 H2   HT     0.417000        1.0080           0
  121939 WT8  4993 TIP3 OH2  OT    -0.834000       15.9994           0
  121940 WT8  4993 TIP3 H1   HT     0.417000        1.0080           0
  121941 WT8  4993 TIP3 H2   HT     0.417000        1.0080           0
  121942 WT8  4996 TIP3 OH2  OT    -0.834000       15.9994           0
  121943 WT8  4996 TIP3 H1   HT     0.417000        1.0080           0
  121944 WT8  4996 TIP3 H2   HT     0.417000        1.0080           0
  121945 WT8  4998 TIP3 OH2  OT    -0.834000       15.9994           0
  121946 WT8  4998 TIP3 H1   HT     0.417000        1.0080           0
  121947 WT8  4998 TIP3 H2   HT     0.417000        1.0080           0
  121948 WT8  4999 TIP3 OH2  OT    -0.834000       15.9994           0
  121949 WT8  4999 TIP3 H1   HT     0.417000        1.0080           0
  121950 WT8  4999 TIP3 H2   HT     0.417000        1.0080           0
  121951 WT8  5000 TIP3 OH2  OT    -0.834000       15.9994           0
  121952 WT8  5000 TIP3 H1   HT     0.417000        1.0080           0
  121953 WT8  5000 TIP3 H2   HT     0.417000        1.0080           0
  121954 WT8  5001 TIP3 OH2  OT    -0.834000       15.9994           0
  121955 WT8  5001 TIP3 H1   HT     0.417000        1.0080           0
  121956 WT8  5001 TIP3 H2   HT     0.417000        1.0080           0
  121957 WT8  5002 TIP3 OH2  OT    -0.834000       15.9994           0
  121958 WT8  5002 TIP3 H1   HT     0.417000        1.0080           0
  121959 WT8  5002 TIP3 H2   HT     0.417000        1.0080           0
  121960 WT8  5005 TIP3 OH2  OT    -0.834000       15.9994           0
  121961 WT8  5005 TIP3 H1   HT     0.417000        1.0080           0
  121962 WT8  5005 TIP3 H2   HT     0.417000        1.0080           0
  121963 WT8  5006 TIP3 OH2  OT    -0.834000       15.9994           0
  121964 WT8  5006 TIP3 H1   HT     0.417000        1.0080           0
  121965 WT8  5006 TIP3 H2   HT     0.417000        1.0080           0
  121966 WT8  5007 TIP3 OH2  OT    -0.834000       15.9994           0
  121967 WT8  5007 TIP3 H1   HT     0.417000        1.0080           0
  121968 WT8  5007 TIP3 H2   HT     0.417000        1.0080           0
  121969 WT8  5009 TIP3 OH2  OT    -0.834000       15.9994           0
  121970 WT8  5009 TIP3 H1   HT     0.417000        1.0080           0
  121971 WT8  5009 TIP3 H2   HT     0.417000        1.0080           0
  121972 WT8  5010 TIP3 OH2  OT    -0.834000       15.9994           0
  121973 WT8  5010 TIP3 H1   HT     0.417000        1.0080           0
  121974 WT8  5010 TIP3 H2   HT     0.417000        1.0080           0
  121975 WT8  5012 TIP3 OH2  OT    -0.834000       15.9994           0
  121976 WT8  5012 TIP3 H1   HT     0.417000        1.0080           0
  121977 WT8  5012 TIP3 H2   HT     0.417000        1.0080           0
  121978 WT8  5013 TIP3 OH2  OT    -0.834000       15.9994           0
  121979 WT8  5013 TIP3 H1   HT     0.417000        1.0080           0
  121980 WT8  5013 TIP3 H2   HT     0.417000        1.0080           0
  121981 WT8  5021 TIP3 OH2  OT    -0.834000       15.9994           0
  121982 WT8  5021 TIP3 H1   HT     0.417000        1.0080           0
  121983 WT8  5021 TIP3 H2   HT     0.417000        1.0080           0
  121984 WT8  5023 TIP3 OH2  OT    -0.834000       15.9994           0
  121985 WT8  5023 TIP3 H1   HT     0.417000        1.0080           0
  121986 WT8  5023 TIP3 H2   HT     0.417000        1.0080           0
  121987 WT8  5024 TIP3 OH2  OT    -0.834000       15.9994           0
  121988 WT8  5024 TIP3 H1   HT     0.417000        1.0080           0
  121989 WT8  5024 TIP3 H2   HT     0.417000        1.0080           0
  121990 WT8  5025 TIP3 OH2  OT    -0.834000       15.9994           0
  121991 WT8  5025 TIP3 H1   HT     0.417000        1.0080           0
  121992 WT8  5025 TIP3 H2   HT     0.417000        1.0080           0
  121993 WT8  5026 TIP3 OH2  OT    -0.834000       15.9994           0
  121994 WT8  5026 TIP3 H1   HT     0.417000        1.0080           0
  121995 WT8  5026 TIP3 H2   HT     0.417000        1.0080           0
  121996 WT8  5027 TIP3 OH2  OT    -0.834000       15.9994           0
  121997 WT8  5027 TIP3 H1   HT     0.417000        1.0080           0
  121998 WT8  5027 TIP3 H2   HT     0.417000        1.0080           0
  121999 WT8  5028 TIP3 OH2  OT    -0.834000       15.9994           0
  122000 WT8  5028 TIP3 H1   HT     0.417000        1.0080           0
  122001 WT8  5028 TIP3 H2   HT     0.417000        1.0080           0
  122002 WT8  5029 TIP3 OH2  OT    -0.834000       15.9994           0
  122003 WT8  5029 TIP3 H1   HT     0.417000        1.0080           0
  122004 WT8  5029 TIP3 H2   HT     0.417000        1.0080           0
  122005 WT8  5030 TIP3 OH2  OT    -0.834000       15.9994           0
  122006 WT8  5030 TIP3 H1   HT     0.417000        1.0080           0
  122007 WT8  5030 TIP3 H2   HT     0.417000        1.0080           0
  122008 WT8  5042 TIP3 OH2  OT    -0.834000       15.9994           0
  122009 WT8  5042 TIP3 H1   HT     0.417000        1.0080           0
  122010 WT8  5042 TIP3 H2   HT     0.417000        1.0080           0
  122011 WT8  5043 TIP3 OH2  OT    -0.834000       15.9994           0
  122012 WT8  5043 TIP3 H1   HT     0.417000        1.0080           0
  122013 WT8  5043 TIP3 H2   HT     0.417000        1.0080           0
  122014 WT8  5044 TIP3 OH2  OT    -0.834000       15.9994           0
  122015 WT8  5044 TIP3 H1   HT     0.417000        1.0080           0
  122016 WT8  5044 TIP3 H2   HT     0.417000        1.0080           0
  122017 WT8  5046 TIP3 OH2  OT    -0.834000       15.9994           0
  122018 WT8  5046 TIP3 H1   HT     0.417000        1.0080           0
  122019 WT8  5046 TIP3 H2   HT     0.417000        1.0080           0
  122020 WT8  5047 TIP3 OH2  OT    -0.834000       15.9994           0
  122021 WT8  5047 TIP3 H1   HT     0.417000        1.0080           0
  122022 WT8  5047 TIP3 H2   HT     0.417000        1.0080           0
  122023 WT8  5048 TIP3 OH2  OT    -0.834000       15.9994           0
  122024 WT8  5048 TIP3 H1   HT     0.417000        1.0080           0
  122025 WT8  5048 TIP3 H2   HT     0.417000        1.0080           0
  122026 WT8  5049 TIP3 OH2  OT    -0.834000       15.9994           0
  122027 WT8  5049 TIP3 H1   HT     0.417000        1.0080           0
  122028 WT8  5049 TIP3 H2   HT     0.417000        1.0080           0
  122029 WT8  5050 TIP3 OH2  OT    -0.834000       15.9994           0
  122030 WT8  5050 TIP3 H1   HT     0.417000        1.0080           0
  122031 WT8  5050 TIP3 H2   HT     0.417000        1.0080           0
  122032 WT8  5053 TIP3 OH2  OT    -0.834000       15.9994           0
  122033 WT8  5053 TIP3 H1   HT     0.417000        1.0080           0
  122034 WT8  5053 TIP3 H2   HT     0.417000        1.0080           0
  122035 WT8  5056 TIP3 OH2  OT    -0.834000       15.9994           0
  122036 WT8  5056 TIP3 H1   HT     0.417000        1.0080           0
  122037 WT8  5056 TIP3 H2   HT     0.417000        1.0080           0
  122038 WT8  5060 TIP3 OH2  OT    -0.834000       15.9994           0
  122039 WT8  5060 TIP3 H1   HT     0.417000        1.0080           0
  122040 WT8  5060 TIP3 H2   HT     0.417000        1.0080           0
  122041 WT8  5061 TIP3 OH2  OT    -0.834000       15.9994           0
  122042 WT8  5061 TIP3 H1   HT     0.417000        1.0080           0
  122043 WT8  5061 TIP3 H2   HT     0.417000        1.0080           0
  122044 WT8  5063 TIP3 OH2  OT    -0.834000       15.9994           0
  122045 WT8  5063 TIP3 H1   HT     0.417000        1.0080           0
  122046 WT8  5063 TIP3 H2   HT     0.417000        1.0080           0
  122047 WT8  5064 TIP3 OH2  OT    -0.834000       15.9994           0
  122048 WT8  5064 TIP3 H1   HT     0.417000        1.0080           0
  122049 WT8  5064 TIP3 H2   HT     0.417000        1.0080           0
  122050 WT8  5065 TIP3 OH2  OT    -0.834000       15.9994           0
  122051 WT8  5065 TIP3 H1   HT     0.417000        1.0080           0
  122052 WT8  5065 TIP3 H2   HT     0.417000        1.0080           0
  122053 WT8  5066 TIP3 OH2  OT    -0.834000       15.9994           0
  122054 WT8  5066 TIP3 H1   HT     0.417000        1.0080           0
  122055 WT8  5066 TIP3 H2   HT     0.417000        1.0080           0
  122056 WT8  5067 TIP3 OH2  OT    -0.834000       15.9994           0
  122057 WT8  5067 TIP3 H1   HT     0.417000        1.0080           0
  122058 WT8  5067 TIP3 H2   HT     0.417000        1.0080           0
  122059 WT8  5068 TIP3 OH2  OT    -0.834000       15.9994           0
  122060 WT8  5068 TIP3 H1   HT     0.417000        1.0080           0
  122061 WT8  5068 TIP3 H2   HT     0.417000        1.0080           0
  122062 WT8  5069 TIP3 OH2  OT    -0.834000       15.9994           0
  122063 WT8  5069 TIP3 H1   HT     0.417000        1.0080           0
  122064 WT8  5069 TIP3 H2   HT     0.417000        1.0080           0
  122065 WT8  5075 TIP3 OH2  OT    -0.834000       15.9994           0
  122066 WT8  5075 TIP3 H1   HT     0.417000        1.0080           0
  122067 WT8  5075 TIP3 H2   HT     0.417000        1.0080           0
  122068 WT8  5086 TIP3 OH2  OT    -0.834000       15.9994           0
  122069 WT8  5086 TIP3 H1   HT     0.417000        1.0080           0
  122070 WT8  5086 TIP3 H2   HT     0.417000        1.0080           0
  122071 WT8  5087 TIP3 OH2  OT    -0.834000       15.9994           0
  122072 WT8  5087 TIP3 H1   HT     0.417000        1.0080           0
  122073 WT8  5087 TIP3 H2   HT     0.417000        1.0080           0
  122074 WT8  5088 TIP3 OH2  OT    -0.834000       15.9994           0
  122075 WT8  5088 TIP3 H1   HT     0.417000        1.0080           0
  122076 WT8  5088 TIP3 H2   HT     0.417000        1.0080           0
  122077 WT8  5089 TIP3 OH2  OT    -0.834000       15.9994           0
  122078 WT8  5089 TIP3 H1   HT     0.417000        1.0080           0
  122079 WT8  5089 TIP3 H2   HT     0.417000        1.0080           0
  122080 WT8  5091 TIP3 OH2  OT    -0.834000       15.9994           0
  122081 WT8  5091 TIP3 H1   HT     0.417000        1.0080           0
  122082 WT8  5091 TIP3 H2   HT     0.417000        1.0080           0
  122083 WT8  5093 TIP3 OH2  OT    -0.834000       15.9994           0
  122084 WT8  5093 TIP3 H1   HT     0.417000        1.0080           0
  122085 WT8  5093 TIP3 H2   HT     0.417000        1.0080           0
  122086 WT8  5097 TIP3 OH2  OT    -0.834000       15.9994           0
  122087 WT8  5097 TIP3 H1   HT     0.417000        1.0080           0
  122088 WT8  5097 TIP3 H2   HT     0.417000        1.0080           0
  122089 WT8  5098 TIP3 OH2  OT    -0.834000       15.9994           0
  122090 WT8  5098 TIP3 H1   HT     0.417000        1.0080           0
  122091 WT8  5098 TIP3 H2   HT     0.417000        1.0080           0
  122092 WT8  5106 TIP3 OH2  OT    -0.834000       15.9994           0
  122093 WT8  5106 TIP3 H1   HT     0.417000        1.0080           0
  122094 WT8  5106 TIP3 H2   HT     0.417000        1.0080           0
  122095 WT8  5108 TIP3 OH2  OT    -0.834000       15.9994           0
  122096 WT8  5108 TIP3 H1   HT     0.417000        1.0080           0
  122097 WT8  5108 TIP3 H2   HT     0.417000        1.0080           0
  122098 WT8  5110 TIP3 OH2  OT    -0.834000       15.9994           0
  122099 WT8  5110 TIP3 H1   HT     0.417000        1.0080           0
  122100 WT8  5110 TIP3 H2   HT     0.417000        1.0080           0
  122101 WT8  5115 TIP3 OH2  OT    -0.834000       15.9994           0
  122102 WT8  5115 TIP3 H1   HT     0.417000        1.0080           0
  122103 WT8  5115 TIP3 H2   HT     0.417000        1.0080           0
  122104 WT8  5117 TIP3 OH2  OT    -0.834000       15.9994           0
  122105 WT8  5117 TIP3 H1   HT     0.417000        1.0080           0
  122106 WT8  5117 TIP3 H2   HT     0.417000        1.0080           0
  122107 WT8  5118 TIP3 OH2  OT    -0.834000       15.9994           0
  122108 WT8  5118 TIP3 H1   HT     0.417000        1.0080           0
  122109 WT8  5118 TIP3 H2   HT     0.417000        1.0080           0
  122110 WT8  5125 TIP3 OH2  OT    -0.834000       15.9994           0
  122111 WT8  5125 TIP3 H1   HT     0.417000        1.0080           0
  122112 WT8  5125 TIP3 H2   HT     0.417000        1.0080           0
  122113 WT8  5127 TIP3 OH2  OT    -0.834000       15.9994           0
  122114 WT8  5127 TIP3 H1   HT     0.417000        1.0080           0
  122115 WT8  5127 TIP3 H2   HT     0.417000        1.0080           0
  122116 WT8  5133 TIP3 OH2  OT    -0.834000       15.9994           0
  122117 WT8  5133 TIP3 H1   HT     0.417000        1.0080           0
  122118 WT8  5133 TIP3 H2   HT     0.417000        1.0080           0
  122119 WT8  5134 TIP3 OH2  OT    -0.834000       15.9994           0
  122120 WT8  5134 TIP3 H1   HT     0.417000        1.0080           0
  122121 WT8  5134 TIP3 H2   HT     0.417000        1.0080           0
  122122 WT8  5140 TIP3 OH2  OT    -0.834000       15.9994           0
  122123 WT8  5140 TIP3 H1   HT     0.417000        1.0080           0
  122124 WT8  5140 TIP3 H2   HT     0.417000        1.0080           0
  122125 WT8  5157 TIP3 OH2  OT    -0.834000       15.9994           0
  122126 WT8  5157 TIP3 H1   HT     0.417000        1.0080           0
  122127 WT8  5157 TIP3 H2   HT     0.417000        1.0080           0
  122128 WT8  5158 TIP3 OH2  OT    -0.834000       15.9994           0
  122129 WT8  5158 TIP3 H1   HT     0.417000        1.0080           0
  122130 WT8  5158 TIP3 H2   HT     0.417000        1.0080           0
  122131 WT8  5161 TIP3 OH2  OT    -0.834000       15.9994           0
  122132 WT8  5161 TIP3 H1   HT     0.417000        1.0080           0
  122133 WT8  5161 TIP3 H2   HT     0.417000        1.0080           0
  122134 WT8  5162 TIP3 OH2  OT    -0.834000       15.9994           0
  122135 WT8  5162 TIP3 H1   HT     0.417000        1.0080           0
  122136 WT8  5162 TIP3 H2   HT     0.417000        1.0080           0
  122137 WT8  5164 TIP3 OH2  OT    -0.834000       15.9994           0
  122138 WT8  5164 TIP3 H1   HT     0.417000        1.0080           0
  122139 WT8  5164 TIP3 H2   HT     0.417000        1.0080           0
  122140 WT8  5165 TIP3 OH2  OT    -0.834000       15.9994           0
  122141 WT8  5165 TIP3 H1   HT     0.417000        1.0080           0
  122142 WT8  5165 TIP3 H2   HT     0.417000        1.0080           0
  122143 WT8  5176 TIP3 OH2  OT    -0.834000       15.9994           0
  122144 WT8  5176 TIP3 H1   HT     0.417000        1.0080           0
  122145 WT8  5176 TIP3 H2   HT     0.417000        1.0080           0
  122146 WT8  5195 TIP3 OH2  OT    -0.834000       15.9994           0
  122147 WT8  5195 TIP3 H1   HT     0.417000        1.0080           0
  122148 WT8  5195 TIP3 H2   HT     0.417000        1.0080           0
  122149 WT8  5196 TIP3 OH2  OT    -0.834000       15.9994           0
  122150 WT8  5196 TIP3 H1   HT     0.417000        1.0080           0
  122151 WT8  5196 TIP3 H2   HT     0.417000        1.0080           0
  122152 WT8  5218 TIP3 OH2  OT    -0.834000       15.9994           0
  122153 WT8  5218 TIP3 H1   HT     0.417000        1.0080           0
  122154 WT8  5218 TIP3 H2   HT     0.417000        1.0080           0
  122155 WT8  5234 TIP3 OH2  OT    -0.834000       15.9994           0
  122156 WT8  5234 TIP3 H1   HT     0.417000        1.0080           0
  122157 WT8  5234 TIP3 H2   HT     0.417000        1.0080           0
  122158 WT8  5241 TIP3 OH2  OT    -0.834000       15.9994           0
  122159 WT8  5241 TIP3 H1   HT     0.417000        1.0080           0
  122160 WT8  5241 TIP3 H2   HT     0.417000        1.0080           0
  122161 WT8  5251 TIP3 OH2  OT    -0.834000       15.9994           0
  122162 WT8  5251 TIP3 H1   HT     0.417000        1.0080           0
  122163 WT8  5251 TIP3 H2   HT     0.417000        1.0080           0
  122164 WT8  5259 TIP3 OH2  OT    -0.834000       15.9994           0
  122165 WT8  5259 TIP3 H1   HT     0.417000        1.0080           0
  122166 WT8  5259 TIP3 H2   HT     0.417000        1.0080           0
  122167 WT8  5260 TIP3 OH2  OT    -0.834000       15.9994           0
  122168 WT8  5260 TIP3 H1   HT     0.417000        1.0080           0
  122169 WT8  5260 TIP3 H2   HT     0.417000        1.0080           0
  122170 WT8  5267 TIP3 OH2  OT    -0.834000       15.9994           0
  122171 WT8  5267 TIP3 H1   HT     0.417000        1.0080           0
  122172 WT8  5267 TIP3 H2   HT     0.417000        1.0080           0
  122173 WT8  5272 TIP3 OH2  OT    -0.834000       15.9994           0
  122174 WT8  5272 TIP3 H1   HT     0.417000        1.0080           0
  122175 WT8  5272 TIP3 H2   HT     0.417000        1.0080           0
  122176 WT8  5302 TIP3 OH2  OT    -0.834000       15.9994           0
  122177 WT8  5302 TIP3 H1   HT     0.417000        1.0080           0
  122178 WT8  5302 TIP3 H2   HT     0.417000        1.0080           0
  122179 WT8  5317 TIP3 OH2  OT    -0.834000       15.9994           0
  122180 WT8  5317 TIP3 H1   HT     0.417000        1.0080           0
  122181 WT8  5317 TIP3 H2   HT     0.417000        1.0080           0
  122182 WT8  5318 TIP3 OH2  OT    -0.834000       15.9994           0
  122183 WT8  5318 TIP3 H1   HT     0.417000        1.0080           0
  122184 WT8  5318 TIP3 H2   HT     0.417000        1.0080           0
  122185 WT8  5319 TIP3 OH2  OT    -0.834000       15.9994           0
  122186 WT8  5319 TIP3 H1   HT     0.417000        1.0080           0
  122187 WT8  5319 TIP3 H2   HT     0.417000        1.0080           0
  122188 WT8  5320 TIP3 OH2  OT    -0.834000       15.9994           0
  122189 WT8  5320 TIP3 H1   HT     0.417000        1.0080           0
  122190 WT8  5320 TIP3 H2   HT     0.417000        1.0080           0
  122191 WT8  5323 TIP3 OH2  OT    -0.834000       15.9994           0
  122192 WT8  5323 TIP3 H1   HT     0.417000        1.0080           0
  122193 WT8  5323 TIP3 H2   HT     0.417000        1.0080           0
  122194 WT8  5325 TIP3 OH2  OT    -0.834000       15.9994           0
  122195 WT8  5325 TIP3 H1   HT     0.417000        1.0080           0
  122196 WT8  5325 TIP3 H2   HT     0.417000        1.0080           0
  122197 WT8  5327 TIP3 OH2  OT    -0.834000       15.9994           0
  122198 WT8  5327 TIP3 H1   HT     0.417000        1.0080           0
  122199 WT8  5327 TIP3 H2   HT     0.417000        1.0080           0
  122200 WT8  5341 TIP3 OH2  OT    -0.834000       15.9994           0
  122201 WT8  5341 TIP3 H1   HT     0.417000        1.0080           0
  122202 WT8  5341 TIP3 H2   HT     0.417000        1.0080           0
  122203 WT8  5343 TIP3 OH2  OT    -0.834000       15.9994           0
  122204 WT8  5343 TIP3 H1   HT     0.417000        1.0080           0
  122205 WT8  5343 TIP3 H2   HT     0.417000        1.0080           0
  122206 WT8  5344 TIP3 OH2  OT    -0.834000       15.9994           0
  122207 WT8  5344 TIP3 H1   HT     0.417000        1.0080           0
  122208 WT8  5344 TIP3 H2   HT     0.417000        1.0080           0
  122209 WT8  5348 TIP3 OH2  OT    -0.834000       15.9994           0
  122210 WT8  5348 TIP3 H1   HT     0.417000        1.0080           0
  122211 WT8  5348 TIP3 H2   HT     0.417000        1.0080           0
  122212 WT8  5349 TIP3 OH2  OT    -0.834000       15.9994           0
  122213 WT8  5349 TIP3 H1   HT     0.417000        1.0080           0
  122214 WT8  5349 TIP3 H2   HT     0.417000        1.0080           0
  122215 WT8  5355 TIP3 OH2  OT    -0.834000       15.9994           0
  122216 WT8  5355 TIP3 H1   HT     0.417000        1.0080           0
  122217 WT8  5355 TIP3 H2   HT     0.417000        1.0080           0
  122218 WT8  5356 TIP3 OH2  OT    -0.834000       15.9994           0
  122219 WT8  5356 TIP3 H1   HT     0.417000        1.0080           0
  122220 WT8  5356 TIP3 H2   HT     0.417000        1.0080           0
  122221 WT8  5358 TIP3 OH2  OT    -0.834000       15.9994           0
  122222 WT8  5358 TIP3 H1   HT     0.417000        1.0080           0
  122223 WT8  5358 TIP3 H2   HT     0.417000        1.0080           0
  122224 WT8  5360 TIP3 OH2  OT    -0.834000       15.9994           0
  122225 WT8  5360 TIP3 H1   HT     0.417000        1.0080           0
  122226 WT8  5360 TIP3 H2   HT     0.417000        1.0080           0
  122227 WT8  5363 TIP3 OH2  OT    -0.834000       15.9994           0
  122228 WT8  5363 TIP3 H1   HT     0.417000        1.0080           0
  122229 WT8  5363 TIP3 H2   HT     0.417000        1.0080           0
  122230 WT8  5364 TIP3 OH2  OT    -0.834000       15.9994           0
  122231 WT8  5364 TIP3 H1   HT     0.417000        1.0080           0
  122232 WT8  5364 TIP3 H2   HT     0.417000        1.0080           0
  122233 WT8  5365 TIP3 OH2  OT    -0.834000       15.9994           0
  122234 WT8  5365 TIP3 H1   HT     0.417000        1.0080           0
  122235 WT8  5365 TIP3 H2   HT     0.417000        1.0080           0
  122236 WT8  5366 TIP3 OH2  OT    -0.834000       15.9994           0
  122237 WT8  5366 TIP3 H1   HT     0.417000        1.0080           0
  122238 WT8  5366 TIP3 H2   HT     0.417000        1.0080           0
  122239 WT8  5368 TIP3 OH2  OT    -0.834000       15.9994           0
  122240 WT8  5368 TIP3 H1   HT     0.417000        1.0080           0
  122241 WT8  5368 TIP3 H2   HT     0.417000        1.0080           0
  122242 WT8  5369 TIP3 OH2  OT    -0.834000       15.9994           0
  122243 WT8  5369 TIP3 H1   HT     0.417000        1.0080           0
  122244 WT8  5369 TIP3 H2   HT     0.417000        1.0080           0
  122245 WT8  5370 TIP3 OH2  OT    -0.834000       15.9994           0
  122246 WT8  5370 TIP3 H1   HT     0.417000        1.0080           0
  122247 WT8  5370 TIP3 H2   HT     0.417000        1.0080           0
  122248 WT8  5371 TIP3 OH2  OT    -0.834000       15.9994           0
  122249 WT8  5371 TIP3 H1   HT     0.417000        1.0080           0
  122250 WT8  5371 TIP3 H2   HT     0.417000        1.0080           0
  122251 WT8  5375 TIP3 OH2  OT    -0.834000       15.9994           0
  122252 WT8  5375 TIP3 H1   HT     0.417000        1.0080           0
  122253 WT8  5375 TIP3 H2   HT     0.417000        1.0080           0
  122254 WT8  5377 TIP3 OH2  OT    -0.834000       15.9994           0
  122255 WT8  5377 TIP3 H1   HT     0.417000        1.0080           0
  122256 WT8  5377 TIP3 H2   HT     0.417000        1.0080           0
  122257 WT8  5378 TIP3 OH2  OT    -0.834000       15.9994           0
  122258 WT8  5378 TIP3 H1   HT     0.417000        1.0080           0
  122259 WT8  5378 TIP3 H2   HT     0.417000        1.0080           0
  122260 WT8  5380 TIP3 OH2  OT    -0.834000       15.9994           0
  122261 WT8  5380 TIP3 H1   HT     0.417000        1.0080           0
  122262 WT8  5380 TIP3 H2   HT     0.417000        1.0080           0
  122263 WT8  5381 TIP3 OH2  OT    -0.834000       15.9994           0
  122264 WT8  5381 TIP3 H1   HT     0.417000        1.0080           0
  122265 WT8  5381 TIP3 H2   HT     0.417000        1.0080           0
  122266 WT8  5382 TIP3 OH2  OT    -0.834000       15.9994           0
  122267 WT8  5382 TIP3 H1   HT     0.417000        1.0080           0
  122268 WT8  5382 TIP3 H2   HT     0.417000        1.0080           0
  122269 WT8  5383 TIP3 OH2  OT    -0.834000       15.9994           0
  122270 WT8  5383 TIP3 H1   HT     0.417000        1.0080           0
  122271 WT8  5383 TIP3 H2   HT     0.417000        1.0080           0
  122272 WT8  5384 TIP3 OH2  OT    -0.834000       15.9994           0
  122273 WT8  5384 TIP3 H1   HT     0.417000        1.0080           0
  122274 WT8  5384 TIP3 H2   HT     0.417000        1.0080           0
  122275 WT8  5385 TIP3 OH2  OT    -0.834000       15.9994           0
  122276 WT8  5385 TIP3 H1   HT     0.417000        1.0080           0
  122277 WT8  5385 TIP3 H2   HT     0.417000        1.0080           0
  122278 WT8  5389 TIP3 OH2  OT    -0.834000       15.9994           0
  122279 WT8  5389 TIP3 H1   HT     0.417000        1.0080           0
  122280 WT8  5389 TIP3 H2   HT     0.417000        1.0080           0
  122281 WT8  5392 TIP3 OH2  OT    -0.834000       15.9994           0
  122282 WT8  5392 TIP3 H1   HT     0.417000        1.0080           0
  122283 WT8  5392 TIP3 H2   HT     0.417000        1.0080           0
  122284 WT8  5393 TIP3 OH2  OT    -0.834000       15.9994           0
  122285 WT8  5393 TIP3 H1   HT     0.417000        1.0080           0
  122286 WT8  5393 TIP3 H2   HT     0.417000        1.0080           0
  122287 WT8  5396 TIP3 OH2  OT    -0.834000       15.9994           0
  122288 WT8  5396 TIP3 H1   HT     0.417000        1.0080           0
  122289 WT8  5396 TIP3 H2   HT     0.417000        1.0080           0
  122290 WT8  5401 TIP3 OH2  OT    -0.834000       15.9994           0
  122291 WT8  5401 TIP3 H1   HT     0.417000        1.0080           0
  122292 WT8  5401 TIP3 H2   HT     0.417000        1.0080           0
  122293 WT8  5403 TIP3 OH2  OT    -0.834000       15.9994           0
  122294 WT8  5403 TIP3 H1   HT     0.417000        1.0080           0
  122295 WT8  5403 TIP3 H2   HT     0.417000        1.0080           0
  122296 WT8  5404 TIP3 OH2  OT    -0.834000       15.9994           0
  122297 WT8  5404 TIP3 H1   HT     0.417000        1.0080           0
  122298 WT8  5404 TIP3 H2   HT     0.417000        1.0080           0
  122299 WT8  5406 TIP3 OH2  OT    -0.834000       15.9994           0
  122300 WT8  5406 TIP3 H1   HT     0.417000        1.0080           0
  122301 WT8  5406 TIP3 H2   HT     0.417000        1.0080           0
  122302 WT8  5408 TIP3 OH2  OT    -0.834000       15.9994           0
  122303 WT8  5408 TIP3 H1   HT     0.417000        1.0080           0
  122304 WT8  5408 TIP3 H2   HT     0.417000        1.0080           0
  122305 WT8  5409 TIP3 OH2  OT    -0.834000       15.9994           0
  122306 WT8  5409 TIP3 H1   HT     0.417000        1.0080           0
  122307 WT8  5409 TIP3 H2   HT     0.417000        1.0080           0
  122308 WT8  5410 TIP3 OH2  OT    -0.834000       15.9994           0
  122309 WT8  5410 TIP3 H1   HT     0.417000        1.0080           0
  122310 WT8  5410 TIP3 H2   HT     0.417000        1.0080           0
  122311 WT8  5411 TIP3 OH2  OT    -0.834000       15.9994           0
  122312 WT8  5411 TIP3 H1   HT     0.417000        1.0080           0
  122313 WT8  5411 TIP3 H2   HT     0.417000        1.0080           0
  122314 WT8  5412 TIP3 OH2  OT    -0.834000       15.9994           0
  122315 WT8  5412 TIP3 H1   HT     0.417000        1.0080           0
  122316 WT8  5412 TIP3 H2   HT     0.417000        1.0080           0
  122317 WT8  5418 TIP3 OH2  OT    -0.834000       15.9994           0
  122318 WT8  5418 TIP3 H1   HT     0.417000        1.0080           0
  122319 WT8  5418 TIP3 H2   HT     0.417000        1.0080           0
  122320 WT8  5421 TIP3 OH2  OT    -0.834000       15.9994           0
  122321 WT8  5421 TIP3 H1   HT     0.417000        1.0080           0
  122322 WT8  5421 TIP3 H2   HT     0.417000        1.0080           0
  122323 WT8  5423 TIP3 OH2  OT    -0.834000       15.9994           0
  122324 WT8  5423 TIP3 H1   HT     0.417000        1.0080           0
  122325 WT8  5423 TIP3 H2   HT     0.417000        1.0080           0
  122326 WT8  5424 TIP3 OH2  OT    -0.834000       15.9994           0
  122327 WT8  5424 TIP3 H1   HT     0.417000        1.0080           0
  122328 WT8  5424 TIP3 H2   HT     0.417000        1.0080           0
  122329 WT8  5425 TIP3 OH2  OT    -0.834000       15.9994           0
  122330 WT8  5425 TIP3 H1   HT     0.417000        1.0080           0
  122331 WT8  5425 TIP3 H2   HT     0.417000        1.0080           0
  122332 WT8  5426 TIP3 OH2  OT    -0.834000       15.9994           0
  122333 WT8  5426 TIP3 H1   HT     0.417000        1.0080           0
  122334 WT8  5426 TIP3 H2   HT     0.417000        1.0080           0
  122335 WT8  5427 TIP3 OH2  OT    -0.834000       15.9994           0
  122336 WT8  5427 TIP3 H1   HT     0.417000        1.0080           0
  122337 WT8  5427 TIP3 H2   HT     0.417000        1.0080           0
  122338 WT8  5428 TIP3 OH2  OT    -0.834000       15.9994           0
  122339 WT8  5428 TIP3 H1   HT     0.417000        1.0080           0
  122340 WT8  5428 TIP3 H2   HT     0.417000        1.0080           0
  122341 WT8  5429 TIP3 OH2  OT    -0.834000       15.9994           0
  122342 WT8  5429 TIP3 H1   HT     0.417000        1.0080           0
  122343 WT8  5429 TIP3 H2   HT     0.417000        1.0080           0
  122344 WT8  5430 TIP3 OH2  OT    -0.834000       15.9994           0
  122345 WT8  5430 TIP3 H1   HT     0.417000        1.0080           0
  122346 WT8  5430 TIP3 H2   HT     0.417000        1.0080           0
  122347 WT8  5431 TIP3 OH2  OT    -0.834000       15.9994           0
  122348 WT8  5431 TIP3 H1   HT     0.417000        1.0080           0
  122349 WT8  5431 TIP3 H2   HT     0.417000        1.0080           0
  122350 WT8  5434 TIP3 OH2  OT    -0.834000       15.9994           0
  122351 WT8  5434 TIP3 H1   HT     0.417000        1.0080           0
  122352 WT8  5434 TIP3 H2   HT     0.417000        1.0080           0
  122353 WT8  5440 TIP3 OH2  OT    -0.834000       15.9994           0
  122354 WT8  5440 TIP3 H1   HT     0.417000        1.0080           0
  122355 WT8  5440 TIP3 H2   HT     0.417000        1.0080           0
  122356 WT8  5443 TIP3 OH2  OT    -0.834000       15.9994           0
  122357 WT8  5443 TIP3 H1   HT     0.417000        1.0080           0
  122358 WT8  5443 TIP3 H2   HT     0.417000        1.0080           0
  122359 WT8  5444 TIP3 OH2  OT    -0.834000       15.9994           0
  122360 WT8  5444 TIP3 H1   HT     0.417000        1.0080           0
  122361 WT8  5444 TIP3 H2   HT     0.417000        1.0080           0
  122362 WT8  5445 TIP3 OH2  OT    -0.834000       15.9994           0
  122363 WT8  5445 TIP3 H1   HT     0.417000        1.0080           0
  122364 WT8  5445 TIP3 H2   HT     0.417000        1.0080           0
  122365 WT8  5446 TIP3 OH2  OT    -0.834000       15.9994           0
  122366 WT8  5446 TIP3 H1   HT     0.417000        1.0080           0
  122367 WT8  5446 TIP3 H2   HT     0.417000        1.0080           0
  122368 WT8  5448 TIP3 OH2  OT    -0.834000       15.9994           0
  122369 WT8  5448 TIP3 H1   HT     0.417000        1.0080           0
  122370 WT8  5448 TIP3 H2   HT     0.417000        1.0080           0
  122371 WT8  5451 TIP3 OH2  OT    -0.834000       15.9994           0
  122372 WT8  5451 TIP3 H1   HT     0.417000        1.0080           0
  122373 WT8  5451 TIP3 H2   HT     0.417000        1.0080           0
  122374 WT8  5454 TIP3 OH2  OT    -0.834000       15.9994           0
  122375 WT8  5454 TIP3 H1   HT     0.417000        1.0080           0
  122376 WT8  5454 TIP3 H2   HT     0.417000        1.0080           0
  122377 WT8  5455 TIP3 OH2  OT    -0.834000       15.9994           0
  122378 WT8  5455 TIP3 H1   HT     0.417000        1.0080           0
  122379 WT8  5455 TIP3 H2   HT     0.417000        1.0080           0
  122380 WT8  5456 TIP3 OH2  OT    -0.834000       15.9994           0
  122381 WT8  5456 TIP3 H1   HT     0.417000        1.0080           0
  122382 WT8  5456 TIP3 H2   HT     0.417000        1.0080           0
  122383 WT8  5461 TIP3 OH2  OT    -0.834000       15.9994           0
  122384 WT8  5461 TIP3 H1   HT     0.417000        1.0080           0
  122385 WT8  5461 TIP3 H2   HT     0.417000        1.0080           0
  122386 WT8  5462 TIP3 OH2  OT    -0.834000       15.9994           0
  122387 WT8  5462 TIP3 H1   HT     0.417000        1.0080           0
  122388 WT8  5462 TIP3 H2   HT     0.417000        1.0080           0
  122389 WT8  5463 TIP3 OH2  OT    -0.834000       15.9994           0
  122390 WT8  5463 TIP3 H1   HT     0.417000        1.0080           0
  122391 WT8  5463 TIP3 H2   HT     0.417000        1.0080           0
  122392 WT8  5465 TIP3 OH2  OT    -0.834000       15.9994           0
  122393 WT8  5465 TIP3 H1   HT     0.417000        1.0080           0
  122394 WT8  5465 TIP3 H2   HT     0.417000        1.0080           0
  122395 WT8  5466 TIP3 OH2  OT    -0.834000       15.9994           0
  122396 WT8  5466 TIP3 H1   HT     0.417000        1.0080           0
  122397 WT8  5466 TIP3 H2   HT     0.417000        1.0080           0
  122398 WT8  5468 TIP3 OH2  OT    -0.834000       15.9994           0
  122399 WT8  5468 TIP3 H1   HT     0.417000        1.0080           0
  122400 WT8  5468 TIP3 H2   HT     0.417000        1.0080           0
  122401 WT8  5470 TIP3 OH2  OT    -0.834000       15.9994           0
  122402 WT8  5470 TIP3 H1   HT     0.417000        1.0080           0
  122403 WT8  5470 TIP3 H2   HT     0.417000        1.0080           0
  122404 WT8  5472 TIP3 OH2  OT    -0.834000       15.9994           0
  122405 WT8  5472 TIP3 H1   HT     0.417000        1.0080           0
  122406 WT8  5472 TIP3 H2   HT     0.417000        1.0080           0
  122407 WT8  5473 TIP3 OH2  OT    -0.834000       15.9994           0
  122408 WT8  5473 TIP3 H1   HT     0.417000        1.0080           0
  122409 WT8  5473 TIP3 H2   HT     0.417000        1.0080           0
  122410 WT8  5484 TIP3 OH2  OT    -0.834000       15.9994           0
  122411 WT8  5484 TIP3 H1   HT     0.417000        1.0080           0
  122412 WT8  5484 TIP3 H2   HT     0.417000        1.0080           0
  122413 WT8  5485 TIP3 OH2  OT    -0.834000       15.9994           0
  122414 WT8  5485 TIP3 H1   HT     0.417000        1.0080           0
  122415 WT8  5485 TIP3 H2   HT     0.417000        1.0080           0
  122416 WT8  5487 TIP3 OH2  OT    -0.834000       15.9994           0
  122417 WT8  5487 TIP3 H1   HT     0.417000        1.0080           0
  122418 WT8  5487 TIP3 H2   HT     0.417000        1.0080           0
  122419 WT8  5489 TIP3 OH2  OT    -0.834000       15.9994           0
  122420 WT8  5489 TIP3 H1   HT     0.417000        1.0080           0
  122421 WT8  5489 TIP3 H2   HT     0.417000        1.0080           0
  122422 WT8  5490 TIP3 OH2  OT    -0.834000       15.9994           0
  122423 WT8  5490 TIP3 H1   HT     0.417000        1.0080           0
  122424 WT8  5490 TIP3 H2   HT     0.417000        1.0080           0
  122425 WT8  5493 TIP3 OH2  OT    -0.834000       15.9994           0
  122426 WT8  5493 TIP3 H1   HT     0.417000        1.0080           0
  122427 WT8  5493 TIP3 H2   HT     0.417000        1.0080           0
  122428 WT8  5497 TIP3 OH2  OT    -0.834000       15.9994           0
  122429 WT8  5497 TIP3 H1   HT     0.417000        1.0080           0
  122430 WT8  5497 TIP3 H2   HT     0.417000        1.0080           0
  122431 WT8  5501 TIP3 OH2  OT    -0.834000       15.9994           0
  122432 WT8  5501 TIP3 H1   HT     0.417000        1.0080           0
  122433 WT8  5501 TIP3 H2   HT     0.417000        1.0080           0
  122434 WT8  5504 TIP3 OH2  OT    -0.834000       15.9994           0
  122435 WT8  5504 TIP3 H1   HT     0.417000        1.0080           0
  122436 WT8  5504 TIP3 H2   HT     0.417000        1.0080           0
  122437 WT8  5505 TIP3 OH2  OT    -0.834000       15.9994           0
  122438 WT8  5505 TIP3 H1   HT     0.417000        1.0080           0
  122439 WT8  5505 TIP3 H2   HT     0.417000        1.0080           0
  122440 WT8  5507 TIP3 OH2  OT    -0.834000       15.9994           0
  122441 WT8  5507 TIP3 H1   HT     0.417000        1.0080           0
  122442 WT8  5507 TIP3 H2   HT     0.417000        1.0080           0
  122443 WT8  5508 TIP3 OH2  OT    -0.834000       15.9994           0
  122444 WT8  5508 TIP3 H1   HT     0.417000        1.0080           0
  122445 WT8  5508 TIP3 H2   HT     0.417000        1.0080           0
  122446 WT8  5511 TIP3 OH2  OT    -0.834000       15.9994           0
  122447 WT8  5511 TIP3 H1   HT     0.417000        1.0080           0
  122448 WT8  5511 TIP3 H2   HT     0.417000        1.0080           0
  122449 WT8  5514 TIP3 OH2  OT    -0.834000       15.9994           0
  122450 WT8  5514 TIP3 H1   HT     0.417000        1.0080           0
  122451 WT8  5514 TIP3 H2   HT     0.417000        1.0080           0
  122452 WT8  5520 TIP3 OH2  OT    -0.834000       15.9994           0
  122453 WT8  5520 TIP3 H1   HT     0.417000        1.0080           0
  122454 WT8  5520 TIP3 H2   HT     0.417000        1.0080           0
  122455 WT8  5522 TIP3 OH2  OT    -0.834000       15.9994           0
  122456 WT8  5522 TIP3 H1   HT     0.417000        1.0080           0
  122457 WT8  5522 TIP3 H2   HT     0.417000        1.0080           0
  122458 WT8  5528 TIP3 OH2  OT    -0.834000       15.9994           0
  122459 WT8  5528 TIP3 H1   HT     0.417000        1.0080           0
  122460 WT8  5528 TIP3 H2   HT     0.417000        1.0080           0
  122461 WT8  5530 TIP3 OH2  OT    -0.834000       15.9994           0
  122462 WT8  5530 TIP3 H1   HT     0.417000        1.0080           0
  122463 WT8  5530 TIP3 H2   HT     0.417000        1.0080           0
  122464 WT8  5531 TIP3 OH2  OT    -0.834000       15.9994           0
  122465 WT8  5531 TIP3 H1   HT     0.417000        1.0080           0
  122466 WT8  5531 TIP3 H2   HT     0.417000        1.0080           0
  122467 WT8  5532 TIP3 OH2  OT    -0.834000       15.9994           0
  122468 WT8  5532 TIP3 H1   HT     0.417000        1.0080           0
  122469 WT8  5532 TIP3 H2   HT     0.417000        1.0080           0
  122470 WT8  5535 TIP3 OH2  OT    -0.834000       15.9994           0
  122471 WT8  5535 TIP3 H1   HT     0.417000        1.0080           0
  122472 WT8  5535 TIP3 H2   HT     0.417000        1.0080           0
  122473 WT8  5537 TIP3 OH2  OT    -0.834000       15.9994           0
  122474 WT8  5537 TIP3 H1   HT     0.417000        1.0080           0
  122475 WT8  5537 TIP3 H2   HT     0.417000        1.0080           0
  122476 WT8  5545 TIP3 OH2  OT    -0.834000       15.9994           0
  122477 WT8  5545 TIP3 H1   HT     0.417000        1.0080           0
  122478 WT8  5545 TIP3 H2   HT     0.417000        1.0080           0
  122479 WT8  5549 TIP3 OH2  OT    -0.834000       15.9994           0
  122480 WT8  5549 TIP3 H1   HT     0.417000        1.0080           0
  122481 WT8  5549 TIP3 H2   HT     0.417000        1.0080           0
  122482 WT8  5550 TIP3 OH2  OT    -0.834000       15.9994           0
  122483 WT8  5550 TIP3 H1   HT     0.417000        1.0080           0
  122484 WT8  5550 TIP3 H2   HT     0.417000        1.0080           0
  122485 WT8  5551 TIP3 OH2  OT    -0.834000       15.9994           0
  122486 WT8  5551 TIP3 H1   HT     0.417000        1.0080           0
  122487 WT8  5551 TIP3 H2   HT     0.417000        1.0080           0
  122488 WT8  5552 TIP3 OH2  OT    -0.834000       15.9994           0
  122489 WT8  5552 TIP3 H1   HT     0.417000        1.0080           0
  122490 WT8  5552 TIP3 H2   HT     0.417000        1.0080           0
  122491 WT8  5555 TIP3 OH2  OT    -0.834000       15.9994           0
  122492 WT8  5555 TIP3 H1   HT     0.417000        1.0080           0
  122493 WT8  5555 TIP3 H2   HT     0.417000        1.0080           0
  122494 WT8  5557 TIP3 OH2  OT    -0.834000       15.9994           0
  122495 WT8  5557 TIP3 H1   HT     0.417000        1.0080           0
  122496 WT8  5557 TIP3 H2   HT     0.417000        1.0080           0
  122497 WT8  5560 TIP3 OH2  OT    -0.834000       15.9994           0
  122498 WT8  5560 TIP3 H1   HT     0.417000        1.0080           0
  122499 WT8  5560 TIP3 H2   HT     0.417000        1.0080           0
  122500 WT8  5566 TIP3 OH2  OT    -0.834000       15.9994           0
  122501 WT8  5566 TIP3 H1   HT     0.417000        1.0080           0
  122502 WT8  5566 TIP3 H2   HT     0.417000        1.0080           0
  122503 WT8  5568 TIP3 OH2  OT    -0.834000       15.9994           0
  122504 WT8  5568 TIP3 H1   HT     0.417000        1.0080           0
  122505 WT8  5568 TIP3 H2   HT     0.417000        1.0080           0
  122506 WT8  5570 TIP3 OH2  OT    -0.834000       15.9994           0
  122507 WT8  5570 TIP3 H1   HT     0.417000        1.0080           0
  122508 WT8  5570 TIP3 H2   HT     0.417000        1.0080           0
  122509 WT8  5571 TIP3 OH2  OT    -0.834000       15.9994           0
  122510 WT8  5571 TIP3 H1   HT     0.417000        1.0080           0
  122511 WT8  5571 TIP3 H2   HT     0.417000        1.0080           0
  122512 WT8  5572 TIP3 OH2  OT    -0.834000       15.9994           0
  122513 WT8  5572 TIP3 H1   HT     0.417000        1.0080           0
  122514 WT8  5572 TIP3 H2   HT     0.417000        1.0080           0
  122515 WT8  5575 TIP3 OH2  OT    -0.834000       15.9994           0
  122516 WT8  5575 TIP3 H1   HT     0.417000        1.0080           0
  122517 WT8  5575 TIP3 H2   HT     0.417000        1.0080           0
  122518 WT8  5591 TIP3 OH2  OT    -0.834000       15.9994           0
  122519 WT8  5591 TIP3 H1   HT     0.417000        1.0080           0
  122520 WT8  5591 TIP3 H2   HT     0.417000        1.0080           0
  122521 WT8  5594 TIP3 OH2  OT    -0.834000       15.9994           0
  122522 WT8  5594 TIP3 H1   HT     0.417000        1.0080           0
  122523 WT8  5594 TIP3 H2   HT     0.417000        1.0080           0
  122524 WT8  5607 TIP3 OH2  OT    -0.834000       15.9994           0
  122525 WT8  5607 TIP3 H1   HT     0.417000        1.0080           0
  122526 WT8  5607 TIP3 H2   HT     0.417000        1.0080           0
  122527 WT8  5609 TIP3 OH2  OT    -0.834000       15.9994           0
  122528 WT8  5609 TIP3 H1   HT     0.417000        1.0080           0
  122529 WT8  5609 TIP3 H2   HT     0.417000        1.0080           0
  122530 WT8  5610 TIP3 OH2  OT    -0.834000       15.9994           0
  122531 WT8  5610 TIP3 H1   HT     0.417000        1.0080           0
  122532 WT8  5610 TIP3 H2   HT     0.417000        1.0080           0
  122533 WT8  5613 TIP3 OH2  OT    -0.834000       15.9994           0
  122534 WT8  5613 TIP3 H1   HT     0.417000        1.0080           0
  122535 WT8  5613 TIP3 H2   HT     0.417000        1.0080           0
  122536 WT8  5628 TIP3 OH2  OT    -0.834000       15.9994           0
  122537 WT8  5628 TIP3 H1   HT     0.417000        1.0080           0
  122538 WT8  5628 TIP3 H2   HT     0.417000        1.0080           0
  122539 WT8  5638 TIP3 OH2  OT    -0.834000       15.9994           0
  122540 WT8  5638 TIP3 H1   HT     0.417000        1.0080           0
  122541 WT8  5638 TIP3 H2   HT     0.417000        1.0080           0
  122542 WT8  5669 TIP3 OH2  OT    -0.834000       15.9994           0
  122543 WT8  5669 TIP3 H1   HT     0.417000        1.0080           0
  122544 WT8  5669 TIP3 H2   HT     0.417000        1.0080           0
  122545 WT8  5676 TIP3 OH2  OT    -0.834000       15.9994           0
  122546 WT8  5676 TIP3 H1   HT     0.417000        1.0080           0
  122547 WT8  5676 TIP3 H2   HT     0.417000        1.0080           0
  122548 WT8  5679 TIP3 OH2  OT    -0.834000       15.9994           0
  122549 WT8  5679 TIP3 H1   HT     0.417000        1.0080           0
  122550 WT8  5679 TIP3 H2   HT     0.417000        1.0080           0
  122551 WT8  5690 TIP3 OH2  OT    -0.834000       15.9994           0
  122552 WT8  5690 TIP3 H1   HT     0.417000        1.0080           0
  122553 WT8  5690 TIP3 H2   HT     0.417000        1.0080           0
  122554 WT8  5710 TIP3 OH2  OT    -0.834000       15.9994           0
  122555 WT8  5710 TIP3 H1   HT     0.417000        1.0080           0
  122556 WT8  5710 TIP3 H2   HT     0.417000        1.0080           0
  122557 WT8  5713 TIP3 OH2  OT    -0.834000       15.9994           0
  122558 WT8  5713 TIP3 H1   HT     0.417000        1.0080           0
  122559 WT8  5713 TIP3 H2   HT     0.417000        1.0080           0
  122560 WT8  5714 TIP3 OH2  OT    -0.834000       15.9994           0
  122561 WT8  5714 TIP3 H1   HT     0.417000        1.0080           0
  122562 WT8  5714 TIP3 H2   HT     0.417000        1.0080           0
  122563 WT8  5715 TIP3 OH2  OT    -0.834000       15.9994           0
  122564 WT8  5715 TIP3 H1   HT     0.417000        1.0080           0
  122565 WT8  5715 TIP3 H2   HT     0.417000        1.0080           0
  122566 WT8  5719 TIP3 OH2  OT    -0.834000       15.9994           0
  122567 WT8  5719 TIP3 H1   HT     0.417000        1.0080           0
  122568 WT8  5719 TIP3 H2   HT     0.417000        1.0080           0
  122569 WT8  5720 TIP3 OH2  OT    -0.834000       15.9994           0
  122570 WT8  5720 TIP3 H1   HT     0.417000        1.0080           0
  122571 WT8  5720 TIP3 H2   HT     0.417000        1.0080           0
  122572 WT8  5723 TIP3 OH2  OT    -0.834000       15.9994           0
  122573 WT8  5723 TIP3 H1   HT     0.417000        1.0080           0
  122574 WT8  5723 TIP3 H2   HT     0.417000        1.0080           0
  122575 WT8  5734 TIP3 OH2  OT    -0.834000       15.9994           0
  122576 WT8  5734 TIP3 H1   HT     0.417000        1.0080           0
  122577 WT8  5734 TIP3 H2   HT     0.417000        1.0080           0
  122578 WT8  5736 TIP3 OH2  OT    -0.834000       15.9994           0
  122579 WT8  5736 TIP3 H1   HT     0.417000        1.0080           0
  122580 WT8  5736 TIP3 H2   HT     0.417000        1.0080           0
  122581 WT8  5741 TIP3 OH2  OT    -0.834000       15.9994           0
  122582 WT8  5741 TIP3 H1   HT     0.417000        1.0080           0
  122583 WT8  5741 TIP3 H2   HT     0.417000        1.0080           0
  122584 WT8  5755 TIP3 OH2  OT    -0.834000       15.9994           0
  122585 WT8  5755 TIP3 H1   HT     0.417000        1.0080           0
  122586 WT8  5755 TIP3 H2   HT     0.417000        1.0080           0
  122587 WT8  5756 TIP3 OH2  OT    -0.834000       15.9994           0
  122588 WT8  5756 TIP3 H1   HT     0.417000        1.0080           0
  122589 WT8  5756 TIP3 H2   HT     0.417000        1.0080           0
  122590 WT8  5758 TIP3 OH2  OT    -0.834000       15.9994           0
  122591 WT8  5758 TIP3 H1   HT     0.417000        1.0080           0
  122592 WT8  5758 TIP3 H2   HT     0.417000        1.0080           0
  122593 WT8  5760 TIP3 OH2  OT    -0.834000       15.9994           0
  122594 WT8  5760 TIP3 H1   HT     0.417000        1.0080           0
  122595 WT8  5760 TIP3 H2   HT     0.417000        1.0080           0
  122596 WT8  5762 TIP3 OH2  OT    -0.834000       15.9994           0
  122597 WT8  5762 TIP3 H1   HT     0.417000        1.0080           0
  122598 WT8  5762 TIP3 H2   HT     0.417000        1.0080           0
  122599 WT8  5765 TIP3 OH2  OT    -0.834000       15.9994           0
  122600 WT8  5765 TIP3 H1   HT     0.417000        1.0080           0
  122601 WT8  5765 TIP3 H2   HT     0.417000        1.0080           0
  122602 WT8  5767 TIP3 OH2  OT    -0.834000       15.9994           0
  122603 WT8  5767 TIP3 H1   HT     0.417000        1.0080           0
  122604 WT8  5767 TIP3 H2   HT     0.417000        1.0080           0
  122605 WT8  5768 TIP3 OH2  OT    -0.834000       15.9994           0
  122606 WT8  5768 TIP3 H1   HT     0.417000        1.0080           0
  122607 WT8  5768 TIP3 H2   HT     0.417000        1.0080           0
  122608 WT8  5777 TIP3 OH2  OT    -0.834000       15.9994           0
  122609 WT8  5777 TIP3 H1   HT     0.417000        1.0080           0
  122610 WT8  5777 TIP3 H2   HT     0.417000        1.0080           0
  122611 WT8  5780 TIP3 OH2  OT    -0.834000       15.9994           0
  122612 WT8  5780 TIP3 H1   HT     0.417000        1.0080           0
  122613 WT8  5780 TIP3 H2   HT     0.417000        1.0080           0
  122614 WT8  5782 TIP3 OH2  OT    -0.834000       15.9994           0
  122615 WT8  5782 TIP3 H1   HT     0.417000        1.0080           0
  122616 WT8  5782 TIP3 H2   HT     0.417000        1.0080           0
  122617 WT8  5783 TIP3 OH2  OT    -0.834000       15.9994           0
  122618 WT8  5783 TIP3 H1   HT     0.417000        1.0080           0
  122619 WT8  5783 TIP3 H2   HT     0.417000        1.0080           0
  122620 WT8  5784 TIP3 OH2  OT    -0.834000       15.9994           0
  122621 WT8  5784 TIP3 H1   HT     0.417000        1.0080           0
  122622 WT8  5784 TIP3 H2   HT     0.417000        1.0080           0
  122623 WT8  5785 TIP3 OH2  OT    -0.834000       15.9994           0
  122624 WT8  5785 TIP3 H1   HT     0.417000        1.0080           0
  122625 WT8  5785 TIP3 H2   HT     0.417000        1.0080           0
  122626 WT8  5786 TIP3 OH2  OT    -0.834000       15.9994           0
  122627 WT8  5786 TIP3 H1   HT     0.417000        1.0080           0
  122628 WT8  5786 TIP3 H2   HT     0.417000        1.0080           0
  122629 WT8  5787 TIP3 OH2  OT    -0.834000       15.9994           0
  122630 WT8  5787 TIP3 H1   HT     0.417000        1.0080           0
  122631 WT8  5787 TIP3 H2   HT     0.417000        1.0080           0
  122632 WT8  5788 TIP3 OH2  OT    -0.834000       15.9994           0
  122633 WT8  5788 TIP3 H1   HT     0.417000        1.0080           0
  122634 WT8  5788 TIP3 H2   HT     0.417000        1.0080           0
  122635 WT8  5791 TIP3 OH2  OT    -0.834000       15.9994           0
  122636 WT8  5791 TIP3 H1   HT     0.417000        1.0080           0
  122637 WT8  5791 TIP3 H2   HT     0.417000        1.0080           0
  122638 WT8  5795 TIP3 OH2  OT    -0.834000       15.9994           0
  122639 WT8  5795 TIP3 H1   HT     0.417000        1.0080           0
  122640 WT8  5795 TIP3 H2   HT     0.417000        1.0080           0
  122641 WT8  5797 TIP3 OH2  OT    -0.834000       15.9994           0
  122642 WT8  5797 TIP3 H1   HT     0.417000        1.0080           0
  122643 WT8  5797 TIP3 H2   HT     0.417000        1.0080           0
  122644 WT8  5799 TIP3 OH2  OT    -0.834000       15.9994           0
  122645 WT8  5799 TIP3 H1   HT     0.417000        1.0080           0
  122646 WT8  5799 TIP3 H2   HT     0.417000        1.0080           0
  122647 WT8  5803 TIP3 OH2  OT    -0.834000       15.9994           0
  122648 WT8  5803 TIP3 H1   HT     0.417000        1.0080           0
  122649 WT8  5803 TIP3 H2   HT     0.417000        1.0080           0
  122650 WT8  5804 TIP3 OH2  OT    -0.834000       15.9994           0
  122651 WT8  5804 TIP3 H1   HT     0.417000        1.0080           0
  122652 WT8  5804 TIP3 H2   HT     0.417000        1.0080           0
  122653 WT8  5805 TIP3 OH2  OT    -0.834000       15.9994           0
  122654 WT8  5805 TIP3 H1   HT     0.417000        1.0080           0
  122655 WT8  5805 TIP3 H2   HT     0.417000        1.0080           0
  122656 WT8  5806 TIP3 OH2  OT    -0.834000       15.9994           0
  122657 WT8  5806 TIP3 H1   HT     0.417000        1.0080           0
  122658 WT8  5806 TIP3 H2   HT     0.417000        1.0080           0
  122659 WT8  5807 TIP3 OH2  OT    -0.834000       15.9994           0
  122660 WT8  5807 TIP3 H1   HT     0.417000        1.0080           0
  122661 WT8  5807 TIP3 H2   HT     0.417000        1.0080           0
  122662 WT8  5808 TIP3 OH2  OT    -0.834000       15.9994           0
  122663 WT8  5808 TIP3 H1   HT     0.417000        1.0080           0
  122664 WT8  5808 TIP3 H2   HT     0.417000        1.0080           0
  122665 WT8  5812 TIP3 OH2  OT    -0.834000       15.9994           0
  122666 WT8  5812 TIP3 H1   HT     0.417000        1.0080           0
  122667 WT8  5812 TIP3 H2   HT     0.417000        1.0080           0
  122668 WT8  5818 TIP3 OH2  OT    -0.834000       15.9994           0
  122669 WT8  5818 TIP3 H1   HT     0.417000        1.0080           0
  122670 WT8  5818 TIP3 H2   HT     0.417000        1.0080           0
  122671 WT8  5820 TIP3 OH2  OT    -0.834000       15.9994           0
  122672 WT8  5820 TIP3 H1   HT     0.417000        1.0080           0
  122673 WT8  5820 TIP3 H2   HT     0.417000        1.0080           0
  122674 WT8  5821 TIP3 OH2  OT    -0.834000       15.9994           0
  122675 WT8  5821 TIP3 H1   HT     0.417000        1.0080           0
  122676 WT8  5821 TIP3 H2   HT     0.417000        1.0080           0
  122677 WT8  5823 TIP3 OH2  OT    -0.834000       15.9994           0
  122678 WT8  5823 TIP3 H1   HT     0.417000        1.0080           0
  122679 WT8  5823 TIP3 H2   HT     0.417000        1.0080           0
  122680 WT8  5824 TIP3 OH2  OT    -0.834000       15.9994           0
  122681 WT8  5824 TIP3 H1   HT     0.417000        1.0080           0
  122682 WT8  5824 TIP3 H2   HT     0.417000        1.0080           0
  122683 WT8  5826 TIP3 OH2  OT    -0.834000       15.9994           0
  122684 WT8  5826 TIP3 H1   HT     0.417000        1.0080           0
  122685 WT8  5826 TIP3 H2   HT     0.417000        1.0080           0
  122686 WT8  5827 TIP3 OH2  OT    -0.834000       15.9994           0
  122687 WT8  5827 TIP3 H1   HT     0.417000        1.0080           0
  122688 WT8  5827 TIP3 H2   HT     0.417000        1.0080           0
  122689 WT8  5829 TIP3 OH2  OT    -0.834000       15.9994           0
  122690 WT8  5829 TIP3 H1   HT     0.417000        1.0080           0
  122691 WT8  5829 TIP3 H2   HT     0.417000        1.0080           0
  122692 WT8  5832 TIP3 OH2  OT    -0.834000       15.9994           0
  122693 WT8  5832 TIP3 H1   HT     0.417000        1.0080           0
  122694 WT8  5832 TIP3 H2   HT     0.417000        1.0080           0
  122695 WT8  5834 TIP3 OH2  OT    -0.834000       15.9994           0
  122696 WT8  5834 TIP3 H1   HT     0.417000        1.0080           0
  122697 WT8  5834 TIP3 H2   HT     0.417000        1.0080           0
  122698 WT8  5839 TIP3 OH2  OT    -0.834000       15.9994           0
  122699 WT8  5839 TIP3 H1   HT     0.417000        1.0080           0
  122700 WT8  5839 TIP3 H2   HT     0.417000        1.0080           0
  122701 WT8  5840 TIP3 OH2  OT    -0.834000       15.9994           0
  122702 WT8  5840 TIP3 H1   HT     0.417000        1.0080           0
  122703 WT8  5840 TIP3 H2   HT     0.417000        1.0080           0
  122704 WT8  5841 TIP3 OH2  OT    -0.834000       15.9994           0
  122705 WT8  5841 TIP3 H1   HT     0.417000        1.0080           0
  122706 WT8  5841 TIP3 H2   HT     0.417000        1.0080           0
  122707 WT8  5842 TIP3 OH2  OT    -0.834000       15.9994           0
  122708 WT8  5842 TIP3 H1   HT     0.417000        1.0080           0
  122709 WT8  5842 TIP3 H2   HT     0.417000        1.0080           0
  122710 WT8  5844 TIP3 OH2  OT    -0.834000       15.9994           0
  122711 WT8  5844 TIP3 H1   HT     0.417000        1.0080           0
  122712 WT8  5844 TIP3 H2   HT     0.417000        1.0080           0
  122713 WT8  5845 TIP3 OH2  OT    -0.834000       15.9994           0
  122714 WT8  5845 TIP3 H1   HT     0.417000        1.0080           0
  122715 WT8  5845 TIP3 H2   HT     0.417000        1.0080           0
  122716 WT8  5846 TIP3 OH2  OT    -0.834000       15.9994           0
  122717 WT8  5846 TIP3 H1   HT     0.417000        1.0080           0
  122718 WT8  5846 TIP3 H2   HT     0.417000        1.0080           0
  122719 WT8  5847 TIP3 OH2  OT    -0.834000       15.9994           0
  122720 WT8  5847 TIP3 H1   HT     0.417000        1.0080           0
  122721 WT8  5847 TIP3 H2   HT     0.417000        1.0080           0
  122722 WT8  5849 TIP3 OH2  OT    -0.834000       15.9994           0
  122723 WT8  5849 TIP3 H1   HT     0.417000        1.0080           0
  122724 WT8  5849 TIP3 H2   HT     0.417000        1.0080           0
  122725 WT8  5860 TIP3 OH2  OT    -0.834000       15.9994           0
  122726 WT8  5860 TIP3 H1   HT     0.417000        1.0080           0
  122727 WT8  5860 TIP3 H2   HT     0.417000        1.0080           0
  122728 WT8  5861 TIP3 OH2  OT    -0.834000       15.9994           0
  122729 WT8  5861 TIP3 H1   HT     0.417000        1.0080           0
  122730 WT8  5861 TIP3 H2   HT     0.417000        1.0080           0
  122731 WT8  5862 TIP3 OH2  OT    -0.834000       15.9994           0
  122732 WT8  5862 TIP3 H1   HT     0.417000        1.0080           0
  122733 WT8  5862 TIP3 H2   HT     0.417000        1.0080           0
  122734 WT8  5864 TIP3 OH2  OT    -0.834000       15.9994           0
  122735 WT8  5864 TIP3 H1   HT     0.417000        1.0080           0
  122736 WT8  5864 TIP3 H2   HT     0.417000        1.0080           0
  122737 WT8  5865 TIP3 OH2  OT    -0.834000       15.9994           0
  122738 WT8  5865 TIP3 H1   HT     0.417000        1.0080           0
  122739 WT8  5865 TIP3 H2   HT     0.417000        1.0080           0
  122740 WT8  5867 TIP3 OH2  OT    -0.834000       15.9994           0
  122741 WT8  5867 TIP3 H1   HT     0.417000        1.0080           0
  122742 WT8  5867 TIP3 H2   HT     0.417000        1.0080           0
  122743 WT8  5868 TIP3 OH2  OT    -0.834000       15.9994           0
  122744 WT8  5868 TIP3 H1   HT     0.417000        1.0080           0
  122745 WT8  5868 TIP3 H2   HT     0.417000        1.0080           0
  122746 WT8  5869 TIP3 OH2  OT    -0.834000       15.9994           0
  122747 WT8  5869 TIP3 H1   HT     0.417000        1.0080           0
  122748 WT8  5869 TIP3 H2   HT     0.417000        1.0080           0
  122749 WT8  5870 TIP3 OH2  OT    -0.834000       15.9994           0
  122750 WT8  5870 TIP3 H1   HT     0.417000        1.0080           0
  122751 WT8  5870 TIP3 H2   HT     0.417000        1.0080           0
  122752 WT8  5873 TIP3 OH2  OT    -0.834000       15.9994           0
  122753 WT8  5873 TIP3 H1   HT     0.417000        1.0080           0
  122754 WT8  5873 TIP3 H2   HT     0.417000        1.0080           0
  122755 WT8  5881 TIP3 OH2  OT    -0.834000       15.9994           0
  122756 WT8  5881 TIP3 H1   HT     0.417000        1.0080           0
  122757 WT8  5881 TIP3 H2   HT     0.417000        1.0080           0
  122758 WT8  5884 TIP3 OH2  OT    -0.834000       15.9994           0
  122759 WT8  5884 TIP3 H1   HT     0.417000        1.0080           0
  122760 WT8  5884 TIP3 H2   HT     0.417000        1.0080           0
  122761 WT8  5889 TIP3 OH2  OT    -0.834000       15.9994           0
  122762 WT8  5889 TIP3 H1   HT     0.417000        1.0080           0
  122763 WT8  5889 TIP3 H2   HT     0.417000        1.0080           0
  122764 WT8  5890 TIP3 OH2  OT    -0.834000       15.9994           0
  122765 WT8  5890 TIP3 H1   HT     0.417000        1.0080           0
  122766 WT8  5890 TIP3 H2   HT     0.417000        1.0080           0
  122767 WT8  5891 TIP3 OH2  OT    -0.834000       15.9994           0
  122768 WT8  5891 TIP3 H1   HT     0.417000        1.0080           0
  122769 WT8  5891 TIP3 H2   HT     0.417000        1.0080           0
  122770 WT8  5897 TIP3 OH2  OT    -0.834000       15.9994           0
  122771 WT8  5897 TIP3 H1   HT     0.417000        1.0080           0
  122772 WT8  5897 TIP3 H2   HT     0.417000        1.0080           0
  122773 WT8  5899 TIP3 OH2  OT    -0.834000       15.9994           0
  122774 WT8  5899 TIP3 H1   HT     0.417000        1.0080           0
  122775 WT8  5899 TIP3 H2   HT     0.417000        1.0080           0
  122776 WT8  5901 TIP3 OH2  OT    -0.834000       15.9994           0
  122777 WT8  5901 TIP3 H1   HT     0.417000        1.0080           0
  122778 WT8  5901 TIP3 H2   HT     0.417000        1.0080           0
  122779 WT8  5903 TIP3 OH2  OT    -0.834000       15.9994           0
  122780 WT8  5903 TIP3 H1   HT     0.417000        1.0080           0
  122781 WT8  5903 TIP3 H2   HT     0.417000        1.0080           0
  122782 WT8  5905 TIP3 OH2  OT    -0.834000       15.9994           0
  122783 WT8  5905 TIP3 H1   HT     0.417000        1.0080           0
  122784 WT8  5905 TIP3 H2   HT     0.417000        1.0080           0
  122785 WT8  5906 TIP3 OH2  OT    -0.834000       15.9994           0
  122786 WT8  5906 TIP3 H1   HT     0.417000        1.0080           0
  122787 WT8  5906 TIP3 H2   HT     0.417000        1.0080           0
  122788 WT8  5907 TIP3 OH2  OT    -0.834000       15.9994           0
  122789 WT8  5907 TIP3 H1   HT     0.417000        1.0080           0
  122790 WT8  5907 TIP3 H2   HT     0.417000        1.0080           0
  122791 WT8  5908 TIP3 OH2  OT    -0.834000       15.9994           0
  122792 WT8  5908 TIP3 H1   HT     0.417000        1.0080           0
  122793 WT8  5908 TIP3 H2   HT     0.417000        1.0080           0
  122794 WT8  5909 TIP3 OH2  OT    -0.834000       15.9994           0
  122795 WT8  5909 TIP3 H1   HT     0.417000        1.0080           0
  122796 WT8  5909 TIP3 H2   HT     0.417000        1.0080           0
  122797 WT8  5910 TIP3 OH2  OT    -0.834000       15.9994           0
  122798 WT8  5910 TIP3 H1   HT     0.417000        1.0080           0
  122799 WT8  5910 TIP3 H2   HT     0.417000        1.0080           0
  122800 WT8  5911 TIP3 OH2  OT    -0.834000       15.9994           0
  122801 WT8  5911 TIP3 H1   HT     0.417000        1.0080           0
  122802 WT8  5911 TIP3 H2   HT     0.417000        1.0080           0
  122803 WT8  5913 TIP3 OH2  OT    -0.834000       15.9994           0
  122804 WT8  5913 TIP3 H1   HT     0.417000        1.0080           0
  122805 WT8  5913 TIP3 H2   HT     0.417000        1.0080           0
  122806 WT8  5914 TIP3 OH2  OT    -0.834000       15.9994           0
  122807 WT8  5914 TIP3 H1   HT     0.417000        1.0080           0
  122808 WT8  5914 TIP3 H2   HT     0.417000        1.0080           0
  122809 WT8  5920 TIP3 OH2  OT    -0.834000       15.9994           0
  122810 WT8  5920 TIP3 H1   HT     0.417000        1.0080           0
  122811 WT8  5920 TIP3 H2   HT     0.417000        1.0080           0
  122812 WT8  5924 TIP3 OH2  OT    -0.834000       15.9994           0
  122813 WT8  5924 TIP3 H1   HT     0.417000        1.0080           0
  122814 WT8  5924 TIP3 H2   HT     0.417000        1.0080           0
  122815 WT8  5925 TIP3 OH2  OT    -0.834000       15.9994           0
  122816 WT8  5925 TIP3 H1   HT     0.417000        1.0080           0
  122817 WT8  5925 TIP3 H2   HT     0.417000        1.0080           0
  122818 WT8  5926 TIP3 OH2  OT    -0.834000       15.9994           0
  122819 WT8  5926 TIP3 H1   HT     0.417000        1.0080           0
  122820 WT8  5926 TIP3 H2   HT     0.417000        1.0080           0
  122821 WT8  5927 TIP3 OH2  OT    -0.834000       15.9994           0
  122822 WT8  5927 TIP3 H1   HT     0.417000        1.0080           0
  122823 WT8  5927 TIP3 H2   HT     0.417000        1.0080           0
  122824 WT8  5929 TIP3 OH2  OT    -0.834000       15.9994           0
  122825 WT8  5929 TIP3 H1   HT     0.417000        1.0080           0
  122826 WT8  5929 TIP3 H2   HT     0.417000        1.0080           0
  122827 WT8  5930 TIP3 OH2  OT    -0.834000       15.9994           0
  122828 WT8  5930 TIP3 H1   HT     0.417000        1.0080           0
  122829 WT8  5930 TIP3 H2   HT     0.417000        1.0080           0
  122830 WT8  5932 TIP3 OH2  OT    -0.834000       15.9994           0
  122831 WT8  5932 TIP3 H1   HT     0.417000        1.0080           0
  122832 WT8  5932 TIP3 H2   HT     0.417000        1.0080           0
  122833 WT8  5933 TIP3 OH2  OT    -0.834000       15.9994           0
  122834 WT8  5933 TIP3 H1   HT     0.417000        1.0080           0
  122835 WT8  5933 TIP3 H2   HT     0.417000        1.0080           0
  122836 WT8  5935 TIP3 OH2  OT    -0.834000       15.9994           0
  122837 WT8  5935 TIP3 H1   HT     0.417000        1.0080           0
  122838 WT8  5935 TIP3 H2   HT     0.417000        1.0080           0
  122839 WT8  5941 TIP3 OH2  OT    -0.834000       15.9994           0
  122840 WT8  5941 TIP3 H1   HT     0.417000        1.0080           0
  122841 WT8  5941 TIP3 H2   HT     0.417000        1.0080           0
  122842 WT8  5945 TIP3 OH2  OT    -0.834000       15.9994           0
  122843 WT8  5945 TIP3 H1   HT     0.417000        1.0080           0
  122844 WT8  5945 TIP3 H2   HT     0.417000        1.0080           0
  122845 WT8  5952 TIP3 OH2  OT    -0.834000       15.9994           0
  122846 WT8  5952 TIP3 H1   HT     0.417000        1.0080           0
  122847 WT8  5952 TIP3 H2   HT     0.417000        1.0080           0
  122848 WT8  5954 TIP3 OH2  OT    -0.834000       15.9994           0
  122849 WT8  5954 TIP3 H1   HT     0.417000        1.0080           0
  122850 WT8  5954 TIP3 H2   HT     0.417000        1.0080           0
  122851 WT8  5967 TIP3 OH2  OT    -0.834000       15.9994           0
  122852 WT8  5967 TIP3 H1   HT     0.417000        1.0080           0
  122853 WT8  5967 TIP3 H2   HT     0.417000        1.0080           0
  122854 WT8  5971 TIP3 OH2  OT    -0.834000       15.9994           0
  122855 WT8  5971 TIP3 H1   HT     0.417000        1.0080           0
  122856 WT8  5971 TIP3 H2   HT     0.417000        1.0080           0
  122857 WT8  5972 TIP3 OH2  OT    -0.834000       15.9994           0
  122858 WT8  5972 TIP3 H1   HT     0.417000        1.0080           0
  122859 WT8  5972 TIP3 H2   HT     0.417000        1.0080           0
  122860 WT8  5973 TIP3 OH2  OT    -0.834000       15.9994           0
  122861 WT8  5973 TIP3 H1   HT     0.417000        1.0080           0
  122862 WT8  5973 TIP3 H2   HT     0.417000        1.0080           0
  122863 WT8  5975 TIP3 OH2  OT    -0.834000       15.9994           0
  122864 WT8  5975 TIP3 H1   HT     0.417000        1.0080           0
  122865 WT8  5975 TIP3 H2   HT     0.417000        1.0080           0
  122866 WT8  5976 TIP3 OH2  OT    -0.834000       15.9994           0
  122867 WT8  5976 TIP3 H1   HT     0.417000        1.0080           0
  122868 WT8  5976 TIP3 H2   HT     0.417000        1.0080           0
  122869 WT8  5977 TIP3 OH2  OT    -0.834000       15.9994           0
  122870 WT8  5977 TIP3 H1   HT     0.417000        1.0080           0
  122871 WT8  5977 TIP3 H2   HT     0.417000        1.0080           0
  122872 WT8  5984 TIP3 OH2  OT    -0.834000       15.9994           0
  122873 WT8  5984 TIP3 H1   HT     0.417000        1.0080           0
  122874 WT8  5984 TIP3 H2   HT     0.417000        1.0080           0
  122875 WT8  5986 TIP3 OH2  OT    -0.834000       15.9994           0
  122876 WT8  5986 TIP3 H1   HT     0.417000        1.0080           0
  122877 WT8  5986 TIP3 H2   HT     0.417000        1.0080           0
  122878 WT8  5988 TIP3 OH2  OT    -0.834000       15.9994           0
  122879 WT8  5988 TIP3 H1   HT     0.417000        1.0080           0
  122880 WT8  5988 TIP3 H2   HT     0.417000        1.0080           0
  122881 WT8  5989 TIP3 OH2  OT    -0.834000       15.9994           0
  122882 WT8  5989 TIP3 H1   HT     0.417000        1.0080           0
  122883 WT8  5989 TIP3 H2   HT     0.417000        1.0080           0
  122884 WT8  5992 TIP3 OH2  OT    -0.834000       15.9994           0
  122885 WT8  5992 TIP3 H1   HT     0.417000        1.0080           0
  122886 WT8  5992 TIP3 H2   HT     0.417000        1.0080           0
  122887 WT8  5993 TIP3 OH2  OT    -0.834000       15.9994           0
  122888 WT8  5993 TIP3 H1   HT     0.417000        1.0080           0
  122889 WT8  5993 TIP3 H2   HT     0.417000        1.0080           0
  122890 WT8  5996 TIP3 OH2  OT    -0.834000       15.9994           0
  122891 WT8  5996 TIP3 H1   HT     0.417000        1.0080           0
  122892 WT8  5996 TIP3 H2   HT     0.417000        1.0080           0
  122893 WT8  6000 TIP3 OH2  OT    -0.834000       15.9994           0
  122894 WT8  6000 TIP3 H1   HT     0.417000        1.0080           0
  122895 WT8  6000 TIP3 H2   HT     0.417000        1.0080           0
  122896 WT8  6008 TIP3 OH2  OT    -0.834000       15.9994           0
  122897 WT8  6008 TIP3 H1   HT     0.417000        1.0080           0
  122898 WT8  6008 TIP3 H2   HT     0.417000        1.0080           0
  122899 WT8  6012 TIP3 OH2  OT    -0.834000       15.9994           0
  122900 WT8  6012 TIP3 H1   HT     0.417000        1.0080           0
  122901 WT8  6012 TIP3 H2   HT     0.417000        1.0080           0
  122902 WT8  6014 TIP3 OH2  OT    -0.834000       15.9994           0
  122903 WT8  6014 TIP3 H1   HT     0.417000        1.0080           0
  122904 WT8  6014 TIP3 H2   HT     0.417000        1.0080           0
  122905 WT8  6019 TIP3 OH2  OT    -0.834000       15.9994           0
  122906 WT8  6019 TIP3 H1   HT     0.417000        1.0080           0
  122907 WT8  6019 TIP3 H2   HT     0.417000        1.0080           0
  122908 WT8  6021 TIP3 OH2  OT    -0.834000       15.9994           0
  122909 WT8  6021 TIP3 H1   HT     0.417000        1.0080           0
  122910 WT8  6021 TIP3 H2   HT     0.417000        1.0080           0
  122911 WT8  6036 TIP3 OH2  OT    -0.834000       15.9994           0
  122912 WT8  6036 TIP3 H1   HT     0.417000        1.0080           0
  122913 WT8  6036 TIP3 H2   HT     0.417000        1.0080           0
  122914 WT8  6038 TIP3 OH2  OT    -0.834000       15.9994           0
  122915 WT8  6038 TIP3 H1   HT     0.417000        1.0080           0
  122916 WT8  6038 TIP3 H2   HT     0.417000        1.0080           0
  122917 WT8  6039 TIP3 OH2  OT    -0.834000       15.9994           0
  122918 WT8  6039 TIP3 H1   HT     0.417000        1.0080           0
  122919 WT8  6039 TIP3 H2   HT     0.417000        1.0080           0
  122920 WT8  6046 TIP3 OH2  OT    -0.834000       15.9994           0
  122921 WT8  6046 TIP3 H1   HT     0.417000        1.0080           0
  122922 WT8  6046 TIP3 H2   HT     0.417000        1.0080           0
  122923 WT8  6048 TIP3 OH2  OT    -0.834000       15.9994           0
  122924 WT8  6048 TIP3 H1   HT     0.417000        1.0080           0
  122925 WT8  6048 TIP3 H2   HT     0.417000        1.0080           0
  122926 WT8  6057 TIP3 OH2  OT    -0.834000       15.9994           0
  122927 WT8  6057 TIP3 H1   HT     0.417000        1.0080           0
  122928 WT8  6057 TIP3 H2   HT     0.417000        1.0080           0
  122929 WT8  6060 TIP3 OH2  OT    -0.834000       15.9994           0
  122930 WT8  6060 TIP3 H1   HT     0.417000        1.0080           0
  122931 WT8  6060 TIP3 H2   HT     0.417000        1.0080           0
  122932 WT8  6080 TIP3 OH2  OT    -0.834000       15.9994           0
  122933 WT8  6080 TIP3 H1   HT     0.417000        1.0080           0
  122934 WT8  6080 TIP3 H2   HT     0.417000        1.0080           0
  122935 WT8  6090 TIP3 OH2  OT    -0.834000       15.9994           0
  122936 WT8  6090 TIP3 H1   HT     0.417000        1.0080           0
  122937 WT8  6090 TIP3 H2   HT     0.417000        1.0080           0
  122938 WT8  6110 TIP3 OH2  OT    -0.834000       15.9994           0
  122939 WT8  6110 TIP3 H1   HT     0.417000        1.0080           0
  122940 WT8  6110 TIP3 H2   HT     0.417000        1.0080           0
  122941 WT8  6117 TIP3 OH2  OT    -0.834000       15.9994           0
  122942 WT8  6117 TIP3 H1   HT     0.417000        1.0080           0
  122943 WT8  6117 TIP3 H2   HT     0.417000        1.0080           0
  122944 WT8  6136 TIP3 OH2  OT    -0.834000       15.9994           0
  122945 WT8  6136 TIP3 H1   HT     0.417000        1.0080           0
  122946 WT8  6136 TIP3 H2   HT     0.417000        1.0080           0
  122947 WT8  6138 TIP3 OH2  OT    -0.834000       15.9994           0
  122948 WT8  6138 TIP3 H1   HT     0.417000        1.0080           0
  122949 WT8  6138 TIP3 H2   HT     0.417000        1.0080           0
  122950 WT8  6139 TIP3 OH2  OT    -0.834000       15.9994           0
  122951 WT8  6139 TIP3 H1   HT     0.417000        1.0080           0
  122952 WT8  6139 TIP3 H2   HT     0.417000        1.0080           0
  122953 WT8  6157 TIP3 OH2  OT    -0.834000       15.9994           0
  122954 WT8  6157 TIP3 H1   HT     0.417000        1.0080           0
  122955 WT8  6157 TIP3 H2   HT     0.417000        1.0080           0
  122956 WT8  6158 TIP3 OH2  OT    -0.834000       15.9994           0
  122957 WT8  6158 TIP3 H1   HT     0.417000        1.0080           0
  122958 WT8  6158 TIP3 H2   HT     0.417000        1.0080           0
  122959 WT8  6174 TIP3 OH2  OT    -0.834000       15.9994           0
  122960 WT8  6174 TIP3 H1   HT     0.417000        1.0080           0
  122961 WT8  6174 TIP3 H2   HT     0.417000        1.0080           0
  122962 WT8  6177 TIP3 OH2  OT    -0.834000       15.9994           0
  122963 WT8  6177 TIP3 H1   HT     0.417000        1.0080           0
  122964 WT8  6177 TIP3 H2   HT     0.417000        1.0080           0
  122965 WT8  6178 TIP3 OH2  OT    -0.834000       15.9994           0
  122966 WT8  6178 TIP3 H1   HT     0.417000        1.0080           0
  122967 WT8  6178 TIP3 H2   HT     0.417000        1.0080           0
  122968 WT8  6180 TIP3 OH2  OT    -0.834000       15.9994           0
  122969 WT8  6180 TIP3 H1   HT     0.417000        1.0080           0
  122970 WT8  6180 TIP3 H2   HT     0.417000        1.0080           0
  122971 WT8  6183 TIP3 OH2  OT    -0.834000       15.9994           0
  122972 WT8  6183 TIP3 H1   HT     0.417000        1.0080           0
  122973 WT8  6183 TIP3 H2   HT     0.417000        1.0080           0
  122974 WT8  6184 TIP3 OH2  OT    -0.834000       15.9994           0
  122975 WT8  6184 TIP3 H1   HT     0.417000        1.0080           0
  122976 WT8  6184 TIP3 H2   HT     0.417000        1.0080           0
  122977 WT8  6187 TIP3 OH2  OT    -0.834000       15.9994           0
  122978 WT8  6187 TIP3 H1   HT     0.417000        1.0080           0
  122979 WT8  6187 TIP3 H2   HT     0.417000        1.0080           0
  122980 WT8  6188 TIP3 OH2  OT    -0.834000       15.9994           0
  122981 WT8  6188 TIP3 H1   HT     0.417000        1.0080           0
  122982 WT8  6188 TIP3 H2   HT     0.417000        1.0080           0
  122983 WT8  6195 TIP3 OH2  OT    -0.834000       15.9994           0
  122984 WT8  6195 TIP3 H1   HT     0.417000        1.0080           0
  122985 WT8  6195 TIP3 H2   HT     0.417000        1.0080           0
  122986 WT8  6198 TIP3 OH2  OT    -0.834000       15.9994           0
  122987 WT8  6198 TIP3 H1   HT     0.417000        1.0080           0
  122988 WT8  6198 TIP3 H2   HT     0.417000        1.0080           0
  122989 WT8  6200 TIP3 OH2  OT    -0.834000       15.9994           0
  122990 WT8  6200 TIP3 H1   HT     0.417000        1.0080           0
  122991 WT8  6200 TIP3 H2   HT     0.417000        1.0080           0
  122992 WT8  6208 TIP3 OH2  OT    -0.834000       15.9994           0
  122993 WT8  6208 TIP3 H1   HT     0.417000        1.0080           0
  122994 WT8  6208 TIP3 H2   HT     0.417000        1.0080           0
  122995 WT8  6218 TIP3 OH2  OT    -0.834000       15.9994           0
  122996 WT8  6218 TIP3 H1   HT     0.417000        1.0080           0
  122997 WT8  6218 TIP3 H2   HT     0.417000        1.0080           0
  122998 WT8  6219 TIP3 OH2  OT    -0.834000       15.9994           0
  122999 WT8  6219 TIP3 H1   HT     0.417000        1.0080           0
  123000 WT8  6219 TIP3 H2   HT     0.417000        1.0080           0
  123001 WT8  6220 TIP3 OH2  OT    -0.834000       15.9994           0
  123002 WT8  6220 TIP3 H1   HT     0.417000        1.0080           0
  123003 WT8  6220 TIP3 H2   HT     0.417000        1.0080           0
  123004 WT8  6224 TIP3 OH2  OT    -0.834000       15.9994           0
  123005 WT8  6224 TIP3 H1   HT     0.417000        1.0080           0
  123006 WT8  6224 TIP3 H2   HT     0.417000        1.0080           0
  123007 WT8  6227 TIP3 OH2  OT    -0.834000       15.9994           0
  123008 WT8  6227 TIP3 H1   HT     0.417000        1.0080           0
  123009 WT8  6227 TIP3 H2   HT     0.417000        1.0080           0
  123010 WT8  6228 TIP3 OH2  OT    -0.834000       15.9994           0
  123011 WT8  6228 TIP3 H1   HT     0.417000        1.0080           0
  123012 WT8  6228 TIP3 H2   HT     0.417000        1.0080           0
  123013 WT8  6230 TIP3 OH2  OT    -0.834000       15.9994           0
  123014 WT8  6230 TIP3 H1   HT     0.417000        1.0080           0
  123015 WT8  6230 TIP3 H2   HT     0.417000        1.0080           0
  123016 WT8  6231 TIP3 OH2  OT    -0.834000       15.9994           0
  123017 WT8  6231 TIP3 H1   HT     0.417000        1.0080           0
  123018 WT8  6231 TIP3 H2   HT     0.417000        1.0080           0
  123019 WT8  6240 TIP3 OH2  OT    -0.834000       15.9994           0
  123020 WT8  6240 TIP3 H1   HT     0.417000        1.0080           0
  123021 WT8  6240 TIP3 H2   HT     0.417000        1.0080           0
  123022 WT8  6241 TIP3 OH2  OT    -0.834000       15.9994           0
  123023 WT8  6241 TIP3 H1   HT     0.417000        1.0080           0
  123024 WT8  6241 TIP3 H2   HT     0.417000        1.0080           0
  123025 WT8  6242 TIP3 OH2  OT    -0.834000       15.9994           0
  123026 WT8  6242 TIP3 H1   HT     0.417000        1.0080           0
  123027 WT8  6242 TIP3 H2   HT     0.417000        1.0080           0
  123028 WT8  6243 TIP3 OH2  OT    -0.834000       15.9994           0
  123029 WT8  6243 TIP3 H1   HT     0.417000        1.0080           0
  123030 WT8  6243 TIP3 H2   HT     0.417000        1.0080           0
  123031 WT8  6246 TIP3 OH2  OT    -0.834000       15.9994           0
  123032 WT8  6246 TIP3 H1   HT     0.417000        1.0080           0
  123033 WT8  6246 TIP3 H2   HT     0.417000        1.0080           0
  123034 WT8  6247 TIP3 OH2  OT    -0.834000       15.9994           0
  123035 WT8  6247 TIP3 H1   HT     0.417000        1.0080           0
  123036 WT8  6247 TIP3 H2   HT     0.417000        1.0080           0
  123037 WT8  6252 TIP3 OH2  OT    -0.834000       15.9994           0
  123038 WT8  6252 TIP3 H1   HT     0.417000        1.0080           0
  123039 WT8  6252 TIP3 H2   HT     0.417000        1.0080           0
  123040 WT8  6256 TIP3 OH2  OT    -0.834000       15.9994           0
  123041 WT8  6256 TIP3 H1   HT     0.417000        1.0080           0
  123042 WT8  6256 TIP3 H2   HT     0.417000        1.0080           0
  123043 WT8  6258 TIP3 OH2  OT    -0.834000       15.9994           0
  123044 WT8  6258 TIP3 H1   HT     0.417000        1.0080           0
  123045 WT8  6258 TIP3 H2   HT     0.417000        1.0080           0
  123046 WT8  6259 TIP3 OH2  OT    -0.834000       15.9994           0
  123047 WT8  6259 TIP3 H1   HT     0.417000        1.0080           0
  123048 WT8  6259 TIP3 H2   HT     0.417000        1.0080           0
  123049 WT8  6262 TIP3 OH2  OT    -0.834000       15.9994           0
  123050 WT8  6262 TIP3 H1   HT     0.417000        1.0080           0
  123051 WT8  6262 TIP3 H2   HT     0.417000        1.0080           0
  123052 WT8  6263 TIP3 OH2  OT    -0.834000       15.9994           0
  123053 WT8  6263 TIP3 H1   HT     0.417000        1.0080           0
  123054 WT8  6263 TIP3 H2   HT     0.417000        1.0080           0
  123055 WT8  6266 TIP3 OH2  OT    -0.834000       15.9994           0
  123056 WT8  6266 TIP3 H1   HT     0.417000        1.0080           0
  123057 WT8  6266 TIP3 H2   HT     0.417000        1.0080           0
  123058 WT8  6269 TIP3 OH2  OT    -0.834000       15.9994           0
  123059 WT8  6269 TIP3 H1   HT     0.417000        1.0080           0
  123060 WT8  6269 TIP3 H2   HT     0.417000        1.0080           0
  123061 WT8  6270 TIP3 OH2  OT    -0.834000       15.9994           0
  123062 WT8  6270 TIP3 H1   HT     0.417000        1.0080           0
  123063 WT8  6270 TIP3 H2   HT     0.417000        1.0080           0
  123064 WT8  6285 TIP3 OH2  OT    -0.834000       15.9994           0
  123065 WT8  6285 TIP3 H1   HT     0.417000        1.0080           0
  123066 WT8  6285 TIP3 H2   HT     0.417000        1.0080           0
  123067 WT8  6290 TIP3 OH2  OT    -0.834000       15.9994           0
  123068 WT8  6290 TIP3 H1   HT     0.417000        1.0080           0
  123069 WT8  6290 TIP3 H2   HT     0.417000        1.0080           0
  123070 WT8  6291 TIP3 OH2  OT    -0.834000       15.9994           0
  123071 WT8  6291 TIP3 H1   HT     0.417000        1.0080           0
  123072 WT8  6291 TIP3 H2   HT     0.417000        1.0080           0
  123073 WT8  6297 TIP3 OH2  OT    -0.834000       15.9994           0
  123074 WT8  6297 TIP3 H1   HT     0.417000        1.0080           0
  123075 WT8  6297 TIP3 H2   HT     0.417000        1.0080           0
  123076 WT8  6300 TIP3 OH2  OT    -0.834000       15.9994           0
  123077 WT8  6300 TIP3 H1   HT     0.417000        1.0080           0
  123078 WT8  6300 TIP3 H2   HT     0.417000        1.0080           0
  123079 WT8  6302 TIP3 OH2  OT    -0.834000       15.9994           0
  123080 WT8  6302 TIP3 H1   HT     0.417000        1.0080           0
  123081 WT8  6302 TIP3 H2   HT     0.417000        1.0080           0
  123082 WT8  6309 TIP3 OH2  OT    -0.834000       15.9994           0
  123083 WT8  6309 TIP3 H1   HT     0.417000        1.0080           0
  123084 WT8  6309 TIP3 H2   HT     0.417000        1.0080           0
  123085 WT8  6310 TIP3 OH2  OT    -0.834000       15.9994           0
  123086 WT8  6310 TIP3 H1   HT     0.417000        1.0080           0
  123087 WT8  6310 TIP3 H2   HT     0.417000        1.0080           0
  123088 WT8  6311 TIP3 OH2  OT    -0.834000       15.9994           0
  123089 WT8  6311 TIP3 H1   HT     0.417000        1.0080           0
  123090 WT8  6311 TIP3 H2   HT     0.417000        1.0080           0
  123091 WT8  6313 TIP3 OH2  OT    -0.834000       15.9994           0
  123092 WT8  6313 TIP3 H1   HT     0.417000        1.0080           0
  123093 WT8  6313 TIP3 H2   HT     0.417000        1.0080           0
  123094 WT8  6314 TIP3 OH2  OT    -0.834000       15.9994           0
  123095 WT8  6314 TIP3 H1   HT     0.417000        1.0080           0
  123096 WT8  6314 TIP3 H2   HT     0.417000        1.0080           0
  123097 WT8  6315 TIP3 OH2  OT    -0.834000       15.9994           0
  123098 WT8  6315 TIP3 H1   HT     0.417000        1.0080           0
  123099 WT8  6315 TIP3 H2   HT     0.417000        1.0080           0
  123100 WT8  6319 TIP3 OH2  OT    -0.834000       15.9994           0
  123101 WT8  6319 TIP3 H1   HT     0.417000        1.0080           0
  123102 WT8  6319 TIP3 H2   HT     0.417000        1.0080           0
  123103 WT8  6321 TIP3 OH2  OT    -0.834000       15.9994           0
  123104 WT8  6321 TIP3 H1   HT     0.417000        1.0080           0
  123105 WT8  6321 TIP3 H2   HT     0.417000        1.0080           0
  123106 WT8  6323 TIP3 OH2  OT    -0.834000       15.9994           0
  123107 WT8  6323 TIP3 H1   HT     0.417000        1.0080           0
  123108 WT8  6323 TIP3 H2   HT     0.417000        1.0080           0
  123109 WT8  6324 TIP3 OH2  OT    -0.834000       15.9994           0
  123110 WT8  6324 TIP3 H1   HT     0.417000        1.0080           0
  123111 WT8  6324 TIP3 H2   HT     0.417000        1.0080           0
  123112 WT8  6325 TIP3 OH2  OT    -0.834000       15.9994           0
  123113 WT8  6325 TIP3 H1   HT     0.417000        1.0080           0
  123114 WT8  6325 TIP3 H2   HT     0.417000        1.0080           0
  123115 WT8  6326 TIP3 OH2  OT    -0.834000       15.9994           0
  123116 WT8  6326 TIP3 H1   HT     0.417000        1.0080           0
  123117 WT8  6326 TIP3 H2   HT     0.417000        1.0080           0
  123118 WT8  6327 TIP3 OH2  OT    -0.834000       15.9994           0
  123119 WT8  6327 TIP3 H1   HT     0.417000        1.0080           0
  123120 WT8  6327 TIP3 H2   HT     0.417000        1.0080           0
  123121 WT8  6330 TIP3 OH2  OT    -0.834000       15.9994           0
  123122 WT8  6330 TIP3 H1   HT     0.417000        1.0080           0
  123123 WT8  6330 TIP3 H2   HT     0.417000        1.0080           0
  123124 WT8  6331 TIP3 OH2  OT    -0.834000       15.9994           0
  123125 WT8  6331 TIP3 H1   HT     0.417000        1.0080           0
  123126 WT8  6331 TIP3 H2   HT     0.417000        1.0080           0
  123127 WT8  6333 TIP3 OH2  OT    -0.834000       15.9994           0
  123128 WT8  6333 TIP3 H1   HT     0.417000        1.0080           0
  123129 WT8  6333 TIP3 H2   HT     0.417000        1.0080           0
  123130 WT8  6334 TIP3 OH2  OT    -0.834000       15.9994           0
  123131 WT8  6334 TIP3 H1   HT     0.417000        1.0080           0
  123132 WT8  6334 TIP3 H2   HT     0.417000        1.0080           0
  123133 WT8  6341 TIP3 OH2  OT    -0.834000       15.9994           0
  123134 WT8  6341 TIP3 H1   HT     0.417000        1.0080           0
  123135 WT8  6341 TIP3 H2   HT     0.417000        1.0080           0
  123136 WT8  6345 TIP3 OH2  OT    -0.834000       15.9994           0
  123137 WT8  6345 TIP3 H1   HT     0.417000        1.0080           0
  123138 WT8  6345 TIP3 H2   HT     0.417000        1.0080           0
  123139 WT8  6347 TIP3 OH2  OT    -0.834000       15.9994           0
  123140 WT8  6347 TIP3 H1   HT     0.417000        1.0080           0
  123141 WT8  6347 TIP3 H2   HT     0.417000        1.0080           0
  123142 WT8  6348 TIP3 OH2  OT    -0.834000       15.9994           0
  123143 WT8  6348 TIP3 H1   HT     0.417000        1.0080           0
  123144 WT8  6348 TIP3 H2   HT     0.417000        1.0080           0
  123145 WT8  6350 TIP3 OH2  OT    -0.834000       15.9994           0
  123146 WT8  6350 TIP3 H1   HT     0.417000        1.0080           0
  123147 WT8  6350 TIP3 H2   HT     0.417000        1.0080           0
  123148 WT8  6351 TIP3 OH2  OT    -0.834000       15.9994           0
  123149 WT8  6351 TIP3 H1   HT     0.417000        1.0080           0
  123150 WT8  6351 TIP3 H2   HT     0.417000        1.0080           0
  123151 WT8  6352 TIP3 OH2  OT    -0.834000       15.9994           0
  123152 WT8  6352 TIP3 H1   HT     0.417000        1.0080           0
  123153 WT8  6352 TIP3 H2   HT     0.417000        1.0080           0
  123154 WT8  6356 TIP3 OH2  OT    -0.834000       15.9994           0
  123155 WT8  6356 TIP3 H1   HT     0.417000        1.0080           0
  123156 WT8  6356 TIP3 H2   HT     0.417000        1.0080           0
  123157 WT8  6366 TIP3 OH2  OT    -0.834000       15.9994           0
  123158 WT8  6366 TIP3 H1   HT     0.417000        1.0080           0
  123159 WT8  6366 TIP3 H2   HT     0.417000        1.0080           0
  123160 WT8  6370 TIP3 OH2  OT    -0.834000       15.9994           0
  123161 WT8  6370 TIP3 H1   HT     0.417000        1.0080           0
  123162 WT8  6370 TIP3 H2   HT     0.417000        1.0080           0
  123163 WT8  6373 TIP3 OH2  OT    -0.834000       15.9994           0
  123164 WT8  6373 TIP3 H1   HT     0.417000        1.0080           0
  123165 WT8  6373 TIP3 H2   HT     0.417000        1.0080           0
  123166 WT8  6375 TIP3 OH2  OT    -0.834000       15.9994           0
  123167 WT8  6375 TIP3 H1   HT     0.417000        1.0080           0
  123168 WT8  6375 TIP3 H2   HT     0.417000        1.0080           0
  123169 WT8  6381 TIP3 OH2  OT    -0.834000       15.9994           0
  123170 WT8  6381 TIP3 H1   HT     0.417000        1.0080           0
  123171 WT8  6381 TIP3 H2   HT     0.417000        1.0080           0
  123172 WT8  6390 TIP3 OH2  OT    -0.834000       15.9994           0
  123173 WT8  6390 TIP3 H1   HT     0.417000        1.0080           0
  123174 WT8  6390 TIP3 H2   HT     0.417000        1.0080           0
  123175 WT8  6391 TIP3 OH2  OT    -0.834000       15.9994           0
  123176 WT8  6391 TIP3 H1   HT     0.417000        1.0080           0
  123177 WT8  6391 TIP3 H2   HT     0.417000        1.0080           0
  123178 WT8  6396 TIP3 OH2  OT    -0.834000       15.9994           0
  123179 WT8  6396 TIP3 H1   HT     0.417000        1.0080           0
  123180 WT8  6396 TIP3 H2   HT     0.417000        1.0080           0
  123181 WT8  6398 TIP3 OH2  OT    -0.834000       15.9994           0
  123182 WT8  6398 TIP3 H1   HT     0.417000        1.0080           0
  123183 WT8  6398 TIP3 H2   HT     0.417000        1.0080           0
  123184 WT8  6404 TIP3 OH2  OT    -0.834000       15.9994           0
  123185 WT8  6404 TIP3 H1   HT     0.417000        1.0080           0
  123186 WT8  6404 TIP3 H2   HT     0.417000        1.0080           0
  123187 WT8  6407 TIP3 OH2  OT    -0.834000       15.9994           0
  123188 WT8  6407 TIP3 H1   HT     0.417000        1.0080           0
  123189 WT8  6407 TIP3 H2   HT     0.417000        1.0080           0
  123190 WT8  6408 TIP3 OH2  OT    -0.834000       15.9994           0
  123191 WT8  6408 TIP3 H1   HT     0.417000        1.0080           0
  123192 WT8  6408 TIP3 H2   HT     0.417000        1.0080           0
  123193 WT8  6409 TIP3 OH2  OT    -0.834000       15.9994           0
  123194 WT8  6409 TIP3 H1   HT     0.417000        1.0080           0
  123195 WT8  6409 TIP3 H2   HT     0.417000        1.0080           0
  123196 WT8  6414 TIP3 OH2  OT    -0.834000       15.9994           0
  123197 WT8  6414 TIP3 H1   HT     0.417000        1.0080           0
  123198 WT8  6414 TIP3 H2   HT     0.417000        1.0080           0
  123199 WT8  6417 TIP3 OH2  OT    -0.834000       15.9994           0
  123200 WT8  6417 TIP3 H1   HT     0.417000        1.0080           0
  123201 WT8  6417 TIP3 H2   HT     0.417000        1.0080           0
  123202 WT8  6425 TIP3 OH2  OT    -0.834000       15.9994           0
  123203 WT8  6425 TIP3 H1   HT     0.417000        1.0080           0
  123204 WT8  6425 TIP3 H2   HT     0.417000        1.0080           0
  123205 WT8  6428 TIP3 OH2  OT    -0.834000       15.9994           0
  123206 WT8  6428 TIP3 H1   HT     0.417000        1.0080           0
  123207 WT8  6428 TIP3 H2   HT     0.417000        1.0080           0
  123208 WT8  6429 TIP3 OH2  OT    -0.834000       15.9994           0
  123209 WT8  6429 TIP3 H1   HT     0.417000        1.0080           0
  123210 WT8  6429 TIP3 H2   HT     0.417000        1.0080           0
  123211 WT8  6436 TIP3 OH2  OT    -0.834000       15.9994           0
  123212 WT8  6436 TIP3 H1   HT     0.417000        1.0080           0
  123213 WT8  6436 TIP3 H2   HT     0.417000        1.0080           0
  123214 WT8  6439 TIP3 OH2  OT    -0.834000       15.9994           0
  123215 WT8  6439 TIP3 H1   HT     0.417000        1.0080           0
  123216 WT8  6439 TIP3 H2   HT     0.417000        1.0080           0
  123217 WT8  6440 TIP3 OH2  OT    -0.834000       15.9994           0
  123218 WT8  6440 TIP3 H1   HT     0.417000        1.0080           0
  123219 WT8  6440 TIP3 H2   HT     0.417000        1.0080           0
  123220 WT8  6445 TIP3 OH2  OT    -0.834000       15.9994           0
  123221 WT8  6445 TIP3 H1   HT     0.417000        1.0080           0
  123222 WT8  6445 TIP3 H2   HT     0.417000        1.0080           0
  123223 WT8  6448 TIP3 OH2  OT    -0.834000       15.9994           0
  123224 WT8  6448 TIP3 H1   HT     0.417000        1.0080           0
  123225 WT8  6448 TIP3 H2   HT     0.417000        1.0080           0
  123226 WT8  6456 TIP3 OH2  OT    -0.834000       15.9994           0
  123227 WT8  6456 TIP3 H1   HT     0.417000        1.0080           0
  123228 WT8  6456 TIP3 H2   HT     0.417000        1.0080           0
  123229 WT8  6459 TIP3 OH2  OT    -0.834000       15.9994           0
  123230 WT8  6459 TIP3 H1   HT     0.417000        1.0080           0
  123231 WT8  6459 TIP3 H2   HT     0.417000        1.0080           0
  123232 WT8  6483 TIP3 OH2  OT    -0.834000       15.9994           0
  123233 WT8  6483 TIP3 H1   HT     0.417000        1.0080           0
  123234 WT8  6483 TIP3 H2   HT     0.417000        1.0080           0
  123235 WT8  6491 TIP3 OH2  OT    -0.834000       15.9994           0
  123236 WT8  6491 TIP3 H1   HT     0.417000        1.0080           0
  123237 WT8  6491 TIP3 H2   HT     0.417000        1.0080           0
  123238 WT8  6492 TIP3 OH2  OT    -0.834000       15.9994           0
  123239 WT8  6492 TIP3 H1   HT     0.417000        1.0080           0
  123240 WT8  6492 TIP3 H2   HT     0.417000        1.0080           0
  123241 WT8  6499 TIP3 OH2  OT    -0.834000       15.9994           0
  123242 WT8  6499 TIP3 H1   HT     0.417000        1.0080           0
  123243 WT8  6499 TIP3 H2   HT     0.417000        1.0080           0
  123244 WT8  6502 TIP3 OH2  OT    -0.834000       15.9994           0
  123245 WT8  6502 TIP3 H1   HT     0.417000        1.0080           0
  123246 WT8  6502 TIP3 H2   HT     0.417000        1.0080           0
  123247 WT8  6505 TIP3 OH2  OT    -0.834000       15.9994           0
  123248 WT8  6505 TIP3 H1   HT     0.417000        1.0080           0
  123249 WT8  6505 TIP3 H2   HT     0.417000        1.0080           0
  123250 WT8  6518 TIP3 OH2  OT    -0.834000       15.9994           0
  123251 WT8  6518 TIP3 H1   HT     0.417000        1.0080           0
  123252 WT8  6518 TIP3 H2   HT     0.417000        1.0080           0
  123253 WT8  6519 TIP3 OH2  OT    -0.834000       15.9994           0
  123254 WT8  6519 TIP3 H1   HT     0.417000        1.0080           0
  123255 WT8  6519 TIP3 H2   HT     0.417000        1.0080           0
  123256 WT8  6547 TIP3 OH2  OT    -0.834000       15.9994           0
  123257 WT8  6547 TIP3 H1   HT     0.417000        1.0080           0
  123258 WT8  6547 TIP3 H2   HT     0.417000        1.0080           0
  123259 WT8  6551 TIP3 OH2  OT    -0.834000       15.9994           0
  123260 WT8  6551 TIP3 H1   HT     0.417000        1.0080           0
  123261 WT8  6551 TIP3 H2   HT     0.417000        1.0080           0
  123262 WT8  6561 TIP3 OH2  OT    -0.834000       15.9994           0
  123263 WT8  6561 TIP3 H1   HT     0.417000        1.0080           0
  123264 WT8  6561 TIP3 H2   HT     0.417000        1.0080           0
  123265 WT8  6575 TIP3 OH2  OT    -0.834000       15.9994           0
  123266 WT8  6575 TIP3 H1   HT     0.417000        1.0080           0
  123267 WT8  6575 TIP3 H2   HT     0.417000        1.0080           0
  123268 WT8  6577 TIP3 OH2  OT    -0.834000       15.9994           0
  123269 WT8  6577 TIP3 H1   HT     0.417000        1.0080           0
  123270 WT8  6577 TIP3 H2   HT     0.417000        1.0080           0
  123271 WT8  6578 TIP3 OH2  OT    -0.834000       15.9994           0
  123272 WT8  6578 TIP3 H1   HT     0.417000        1.0080           0
  123273 WT8  6578 TIP3 H2   HT     0.417000        1.0080           0
  123274 WT8  6583 TIP3 OH2  OT    -0.834000       15.9994           0
  123275 WT8  6583 TIP3 H1   HT     0.417000        1.0080           0
  123276 WT8  6583 TIP3 H2   HT     0.417000        1.0080           0
  123277 WT8  6588 TIP3 OH2  OT    -0.834000       15.9994           0
  123278 WT8  6588 TIP3 H1   HT     0.417000        1.0080           0
  123279 WT8  6588 TIP3 H2   HT     0.417000        1.0080           0
  123280 WT8  6597 TIP3 OH2  OT    -0.834000       15.9994           0
  123281 WT8  6597 TIP3 H1   HT     0.417000        1.0080           0
  123282 WT8  6597 TIP3 H2   HT     0.417000        1.0080           0
  123283 WT8  6602 TIP3 OH2  OT    -0.834000       15.9994           0
  123284 WT8  6602 TIP3 H1   HT     0.417000        1.0080           0
  123285 WT8  6602 TIP3 H2   HT     0.417000        1.0080           0
  123286 WT8  6603 TIP3 OH2  OT    -0.834000       15.9994           0
  123287 WT8  6603 TIP3 H1   HT     0.417000        1.0080           0
  123288 WT8  6603 TIP3 H2   HT     0.417000        1.0080           0
  123289 WT8  6615 TIP3 OH2  OT    -0.834000       15.9994           0
  123290 WT8  6615 TIP3 H1   HT     0.417000        1.0080           0
  123291 WT8  6615 TIP3 H2   HT     0.417000        1.0080           0
  123292 WT8  6623 TIP3 OH2  OT    -0.834000       15.9994           0
  123293 WT8  6623 TIP3 H1   HT     0.417000        1.0080           0
  123294 WT8  6623 TIP3 H2   HT     0.417000        1.0080           0
  123295 WT8  6628 TIP3 OH2  OT    -0.834000       15.9994           0
  123296 WT8  6628 TIP3 H1   HT     0.417000        1.0080           0
  123297 WT8  6628 TIP3 H2   HT     0.417000        1.0080           0
  123298 WT8  6657 TIP3 OH2  OT    -0.834000       15.9994           0
  123299 WT8  6657 TIP3 H1   HT     0.417000        1.0080           0
  123300 WT8  6657 TIP3 H2   HT     0.417000        1.0080           0
  123301 WT8  6660 TIP3 OH2  OT    -0.834000       15.9994           0
  123302 WT8  6660 TIP3 H1   HT     0.417000        1.0080           0
  123303 WT8  6660 TIP3 H2   HT     0.417000        1.0080           0
  123304 WT8  6661 TIP3 OH2  OT    -0.834000       15.9994           0
  123305 WT8  6661 TIP3 H1   HT     0.417000        1.0080           0
  123306 WT8  6661 TIP3 H2   HT     0.417000        1.0080           0
  123307 WT8  6663 TIP3 OH2  OT    -0.834000       15.9994           0
  123308 WT8  6663 TIP3 H1   HT     0.417000        1.0080           0
  123309 WT8  6663 TIP3 H2   HT     0.417000        1.0080           0
  123310 WT8  6664 TIP3 OH2  OT    -0.834000       15.9994           0
  123311 WT8  6664 TIP3 H1   HT     0.417000        1.0080           0
  123312 WT8  6664 TIP3 H2   HT     0.417000        1.0080           0
  123313 WT8  6667 TIP3 OH2  OT    -0.834000       15.9994           0
  123314 WT8  6667 TIP3 H1   HT     0.417000        1.0080           0
  123315 WT8  6667 TIP3 H2   HT     0.417000        1.0080           0
  123316 WT8  6669 TIP3 OH2  OT    -0.834000       15.9994           0
  123317 WT8  6669 TIP3 H1   HT     0.417000        1.0080           0
  123318 WT8  6669 TIP3 H2   HT     0.417000        1.0080           0
  123319 WT8  6671 TIP3 OH2  OT    -0.834000       15.9994           0
  123320 WT8  6671 TIP3 H1   HT     0.417000        1.0080           0
  123321 WT8  6671 TIP3 H2   HT     0.417000        1.0080           0
  123322 WT8  6672 TIP3 OH2  OT    -0.834000       15.9994           0
  123323 WT8  6672 TIP3 H1   HT     0.417000        1.0080           0
  123324 WT8  6672 TIP3 H2   HT     0.417000        1.0080           0
  123325 WT8  6681 TIP3 OH2  OT    -0.834000       15.9994           0
  123326 WT8  6681 TIP3 H1   HT     0.417000        1.0080           0
  123327 WT8  6681 TIP3 H2   HT     0.417000        1.0080           0
  123328 WT8  6683 TIP3 OH2  OT    -0.834000       15.9994           0
  123329 WT8  6683 TIP3 H1   HT     0.417000        1.0080           0
  123330 WT8  6683 TIP3 H2   HT     0.417000        1.0080           0
  123331 WT8  6684 TIP3 OH2  OT    -0.834000       15.9994           0
  123332 WT8  6684 TIP3 H1   HT     0.417000        1.0080           0
  123333 WT8  6684 TIP3 H2   HT     0.417000        1.0080           0
  123334 WT8  6693 TIP3 OH2  OT    -0.834000       15.9994           0
  123335 WT8  6693 TIP3 H1   HT     0.417000        1.0080           0
  123336 WT8  6693 TIP3 H2   HT     0.417000        1.0080           0
  123337 WT8  6698 TIP3 OH2  OT    -0.834000       15.9994           0
  123338 WT8  6698 TIP3 H1   HT     0.417000        1.0080           0
  123339 WT8  6698 TIP3 H2   HT     0.417000        1.0080           0
  123340 WT8  6703 TIP3 OH2  OT    -0.834000       15.9994           0
  123341 WT8  6703 TIP3 H1   HT     0.417000        1.0080           0
  123342 WT8  6703 TIP3 H2   HT     0.417000        1.0080           0
  123343 WT8  6705 TIP3 OH2  OT    -0.834000       15.9994           0
  123344 WT8  6705 TIP3 H1   HT     0.417000        1.0080           0
  123345 WT8  6705 TIP3 H2   HT     0.417000        1.0080           0
  123346 WT8  6707 TIP3 OH2  OT    -0.834000       15.9994           0
  123347 WT8  6707 TIP3 H1   HT     0.417000        1.0080           0
  123348 WT8  6707 TIP3 H2   HT     0.417000        1.0080           0
  123349 WT8  6708 TIP3 OH2  OT    -0.834000       15.9994           0
  123350 WT8  6708 TIP3 H1   HT     0.417000        1.0080           0
  123351 WT8  6708 TIP3 H2   HT     0.417000        1.0080           0
  123352 WT8  6721 TIP3 OH2  OT    -0.834000       15.9994           0
  123353 WT8  6721 TIP3 H1   HT     0.417000        1.0080           0
  123354 WT8  6721 TIP3 H2   HT     0.417000        1.0080           0
  123355 WT8  6722 TIP3 OH2  OT    -0.834000       15.9994           0
  123356 WT8  6722 TIP3 H1   HT     0.417000        1.0080           0
  123357 WT8  6722 TIP3 H2   HT     0.417000        1.0080           0
  123358 WT8  6725 TIP3 OH2  OT    -0.834000       15.9994           0
  123359 WT8  6725 TIP3 H1   HT     0.417000        1.0080           0
  123360 WT8  6725 TIP3 H2   HT     0.417000        1.0080           0
  123361 WT8  6726 TIP3 OH2  OT    -0.834000       15.9994           0
  123362 WT8  6726 TIP3 H1   HT     0.417000        1.0080           0
  123363 WT8  6726 TIP3 H2   HT     0.417000        1.0080           0
  123364 WT8  6727 TIP3 OH2  OT    -0.834000       15.9994           0
  123365 WT8  6727 TIP3 H1   HT     0.417000        1.0080           0
  123366 WT8  6727 TIP3 H2   HT     0.417000        1.0080           0
  123367 WT8  6729 TIP3 OH2  OT    -0.834000       15.9994           0
  123368 WT8  6729 TIP3 H1   HT     0.417000        1.0080           0
  123369 WT8  6729 TIP3 H2   HT     0.417000        1.0080           0
  123370 WT8  6730 TIP3 OH2  OT    -0.834000       15.9994           0
  123371 WT8  6730 TIP3 H1   HT     0.417000        1.0080           0
  123372 WT8  6730 TIP3 H2   HT     0.417000        1.0080           0
  123373 WT8  6736 TIP3 OH2  OT    -0.834000       15.9994           0
  123374 WT8  6736 TIP3 H1   HT     0.417000        1.0080           0
  123375 WT8  6736 TIP3 H2   HT     0.417000        1.0080           0
  123376 WT8  6743 TIP3 OH2  OT    -0.834000       15.9994           0
  123377 WT8  6743 TIP3 H1   HT     0.417000        1.0080           0
  123378 WT8  6743 TIP3 H2   HT     0.417000        1.0080           0
  123379 WT8  6750 TIP3 OH2  OT    -0.834000       15.9994           0
  123380 WT8  6750 TIP3 H1   HT     0.417000        1.0080           0
  123381 WT8  6750 TIP3 H2   HT     0.417000        1.0080           0
  123382 WT8  6751 TIP3 OH2  OT    -0.834000       15.9994           0
  123383 WT8  6751 TIP3 H1   HT     0.417000        1.0080           0
  123384 WT8  6751 TIP3 H2   HT     0.417000        1.0080           0
  123385 WT8  6763 TIP3 OH2  OT    -0.834000       15.9994           0
  123386 WT8  6763 TIP3 H1   HT     0.417000        1.0080           0
  123387 WT8  6763 TIP3 H2   HT     0.417000        1.0080           0
  123388 WT8  6773 TIP3 OH2  OT    -0.834000       15.9994           0
  123389 WT8  6773 TIP3 H1   HT     0.417000        1.0080           0
  123390 WT8  6773 TIP3 H2   HT     0.417000        1.0080           0
  123391 WT8  6774 TIP3 OH2  OT    -0.834000       15.9994           0
  123392 WT8  6774 TIP3 H1   HT     0.417000        1.0080           0
  123393 WT8  6774 TIP3 H2   HT     0.417000        1.0080           0
  123394 WT8  6777 TIP3 OH2  OT    -0.834000       15.9994           0
  123395 WT8  6777 TIP3 H1   HT     0.417000        1.0080           0
  123396 WT8  6777 TIP3 H2   HT     0.417000        1.0080           0
  123397 WT8  6788 TIP3 OH2  OT    -0.834000       15.9994           0
  123398 WT8  6788 TIP3 H1   HT     0.417000        1.0080           0
  123399 WT8  6788 TIP3 H2   HT     0.417000        1.0080           0
  123400 WT8  6789 TIP3 OH2  OT    -0.834000       15.9994           0
  123401 WT8  6789 TIP3 H1   HT     0.417000        1.0080           0
  123402 WT8  6789 TIP3 H2   HT     0.417000        1.0080           0
  123403 WT8  6791 TIP3 OH2  OT    -0.834000       15.9994           0
  123404 WT8  6791 TIP3 H1   HT     0.417000        1.0080           0
  123405 WT8  6791 TIP3 H2   HT     0.417000        1.0080           0
  123406 WT8  6794 TIP3 OH2  OT    -0.834000       15.9994           0
  123407 WT8  6794 TIP3 H1   HT     0.417000        1.0080           0
  123408 WT8  6794 TIP3 H2   HT     0.417000        1.0080           0
  123409 WT8  6803 TIP3 OH2  OT    -0.834000       15.9994           0
  123410 WT8  6803 TIP3 H1   HT     0.417000        1.0080           0
  123411 WT8  6803 TIP3 H2   HT     0.417000        1.0080           0
  123412 WT8  6808 TIP3 OH2  OT    -0.834000       15.9994           0
  123413 WT8  6808 TIP3 H1   HT     0.417000        1.0080           0
  123414 WT8  6808 TIP3 H2   HT     0.417000        1.0080           0
  123415 WT8  6813 TIP3 OH2  OT    -0.834000       15.9994           0
  123416 WT8  6813 TIP3 H1   HT     0.417000        1.0080           0
  123417 WT8  6813 TIP3 H2   HT     0.417000        1.0080           0
  123418 WT8  6816 TIP3 OH2  OT    -0.834000       15.9994           0
  123419 WT8  6816 TIP3 H1   HT     0.417000        1.0080           0
  123420 WT8  6816 TIP3 H2   HT     0.417000        1.0080           0
  123421 WT8  6817 TIP3 OH2  OT    -0.834000       15.9994           0
  123422 WT8  6817 TIP3 H1   HT     0.417000        1.0080           0
  123423 WT8  6817 TIP3 H2   HT     0.417000        1.0080           0
  123424 WT8  6819 TIP3 OH2  OT    -0.834000       15.9994           0
  123425 WT8  6819 TIP3 H1   HT     0.417000        1.0080           0
  123426 WT8  6819 TIP3 H2   HT     0.417000        1.0080           0
  123427 WT8  6820 TIP3 OH2  OT    -0.834000       15.9994           0
  123428 WT8  6820 TIP3 H1   HT     0.417000        1.0080           0
  123429 WT8  6820 TIP3 H2   HT     0.417000        1.0080           0
  123430 WT8  6832 TIP3 OH2  OT    -0.834000       15.9994           0
  123431 WT8  6832 TIP3 H1   HT     0.417000        1.0080           0
  123432 WT8  6832 TIP3 H2   HT     0.417000        1.0080           0
  123433 WT8  6834 TIP3 OH2  OT    -0.834000       15.9994           0
  123434 WT8  6834 TIP3 H1   HT     0.417000        1.0080           0
  123435 WT8  6834 TIP3 H2   HT     0.417000        1.0080           0
  123436 WT8  6835 TIP3 OH2  OT    -0.834000       15.9994           0
  123437 WT8  6835 TIP3 H1   HT     0.417000        1.0080           0
  123438 WT8  6835 TIP3 H2   HT     0.417000        1.0080           0
  123439 WT8  6837 TIP3 OH2  OT    -0.834000       15.9994           0
  123440 WT8  6837 TIP3 H1   HT     0.417000        1.0080           0
  123441 WT8  6837 TIP3 H2   HT     0.417000        1.0080           0
  123442 WT8  6846 TIP3 OH2  OT    -0.834000       15.9994           0
  123443 WT8  6846 TIP3 H1   HT     0.417000        1.0080           0
  123444 WT8  6846 TIP3 H2   HT     0.417000        1.0080           0
  123445 WT8  6848 TIP3 OH2  OT    -0.834000       15.9994           0
  123446 WT8  6848 TIP3 H1   HT     0.417000        1.0080           0
  123447 WT8  6848 TIP3 H2   HT     0.417000        1.0080           0
  123448 WT8  6851 TIP3 OH2  OT    -0.834000       15.9994           0
  123449 WT8  6851 TIP3 H1   HT     0.417000        1.0080           0
  123450 WT8  6851 TIP3 H2   HT     0.417000        1.0080           0
  123451 WT8  6854 TIP3 OH2  OT    -0.834000       15.9994           0
  123452 WT8  6854 TIP3 H1   HT     0.417000        1.0080           0
  123453 WT8  6854 TIP3 H2   HT     0.417000        1.0080           0
  123454 WT8  6855 TIP3 OH2  OT    -0.834000       15.9994           0
  123455 WT8  6855 TIP3 H1   HT     0.417000        1.0080           0
  123456 WT8  6855 TIP3 H2   HT     0.417000        1.0080           0
  123457 WT8  6859 TIP3 OH2  OT    -0.834000       15.9994           0
  123458 WT8  6859 TIP3 H1   HT     0.417000        1.0080           0
  123459 WT8  6859 TIP3 H2   HT     0.417000        1.0080           0
  123460 WT8  6867 TIP3 OH2  OT    -0.834000       15.9994           0
  123461 WT8  6867 TIP3 H1   HT     0.417000        1.0080           0
  123462 WT8  6867 TIP3 H2   HT     0.417000        1.0080           0
  123463 WT8  6877 TIP3 OH2  OT    -0.834000       15.9994           0
  123464 WT8  6877 TIP3 H1   HT     0.417000        1.0080           0
  123465 WT8  6877 TIP3 H2   HT     0.417000        1.0080           0
  123466 WT8  6882 TIP3 OH2  OT    -0.834000       15.9994           0
  123467 WT8  6882 TIP3 H1   HT     0.417000        1.0080           0
  123468 WT8  6882 TIP3 H2   HT     0.417000        1.0080           0
  123469 WT8  6897 TIP3 OH2  OT    -0.834000       15.9994           0
  123470 WT8  6897 TIP3 H1   HT     0.417000        1.0080           0
  123471 WT8  6897 TIP3 H2   HT     0.417000        1.0080           0
  123472 WT8  6901 TIP3 OH2  OT    -0.834000       15.9994           0
  123473 WT8  6901 TIP3 H1   HT     0.417000        1.0080           0
  123474 WT8  6901 TIP3 H2   HT     0.417000        1.0080           0
  123475 WT8  6902 TIP3 OH2  OT    -0.834000       15.9994           0
  123476 WT8  6902 TIP3 H1   HT     0.417000        1.0080           0
  123477 WT8  6902 TIP3 H2   HT     0.417000        1.0080           0
  123478 WT8  6917 TIP3 OH2  OT    -0.834000       15.9994           0
  123479 WT8  6917 TIP3 H1   HT     0.417000        1.0080           0
  123480 WT8  6917 TIP3 H2   HT     0.417000        1.0080           0
  123481 WT8  6952 TIP3 OH2  OT    -0.834000       15.9994           0
  123482 WT8  6952 TIP3 H1   HT     0.417000        1.0080           0
  123483 WT8  6952 TIP3 H2   HT     0.417000        1.0080           0
  123484 WT8  6962 TIP3 OH2  OT    -0.834000       15.9994           0
  123485 WT8  6962 TIP3 H1   HT     0.417000        1.0080           0
  123486 WT8  6962 TIP3 H2   HT     0.417000        1.0080           0
  123487 WT8  6975 TIP3 OH2  OT    -0.834000       15.9994           0
  123488 WT8  6975 TIP3 H1   HT     0.417000        1.0080           0
  123489 WT8  6975 TIP3 H2   HT     0.417000        1.0080           0
  123490 WT8  6979 TIP3 OH2  OT    -0.834000       15.9994           0
  123491 WT8  6979 TIP3 H1   HT     0.417000        1.0080           0
  123492 WT8  6979 TIP3 H2   HT     0.417000        1.0080           0
  123493 WT8  7017 TIP3 OH2  OT    -0.834000       15.9994           0
  123494 WT8  7017 TIP3 H1   HT     0.417000        1.0080           0
  123495 WT8  7017 TIP3 H2   HT     0.417000        1.0080           0
  123496 WT8  7019 TIP3 OH2  OT    -0.834000       15.9994           0
  123497 WT8  7019 TIP3 H1   HT     0.417000        1.0080           0
  123498 WT8  7019 TIP3 H2   HT     0.417000        1.0080           0
  123499 WT8  7021 TIP3 OH2  OT    -0.834000       15.9994           0
  123500 WT8  7021 TIP3 H1   HT     0.417000        1.0080           0
  123501 WT8  7021 TIP3 H2   HT     0.417000        1.0080           0
  123502 WT8  7027 TIP3 OH2  OT    -0.834000       15.9994           0
  123503 WT8  7027 TIP3 H1   HT     0.417000        1.0080           0
  123504 WT8  7027 TIP3 H2   HT     0.417000        1.0080           0
  123505 WT8  7041 TIP3 OH2  OT    -0.834000       15.9994           0
  123506 WT8  7041 TIP3 H1   HT     0.417000        1.0080           0
  123507 WT8  7041 TIP3 H2   HT     0.417000        1.0080           0
  123508 WT8  7052 TIP3 OH2  OT    -0.834000       15.9994           0
  123509 WT8  7052 TIP3 H1   HT     0.417000        1.0080           0
  123510 WT8  7052 TIP3 H2   HT     0.417000        1.0080           0
  123511 WT8  7058 TIP3 OH2  OT    -0.834000       15.9994           0
  123512 WT8  7058 TIP3 H1   HT     0.417000        1.0080           0
  123513 WT8  7058 TIP3 H2   HT     0.417000        1.0080           0
  123514 WT8  7062 TIP3 OH2  OT    -0.834000       15.9994           0
  123515 WT8  7062 TIP3 H1   HT     0.417000        1.0080           0
  123516 WT8  7062 TIP3 H2   HT     0.417000        1.0080           0
  123517 WT8  7067 TIP3 OH2  OT    -0.834000       15.9994           0
  123518 WT8  7067 TIP3 H1   HT     0.417000        1.0080           0
  123519 WT8  7067 TIP3 H2   HT     0.417000        1.0080           0
  123520 WT8  7068 TIP3 OH2  OT    -0.834000       15.9994           0
  123521 WT8  7068 TIP3 H1   HT     0.417000        1.0080           0
  123522 WT8  7068 TIP3 H2   HT     0.417000        1.0080           0
  123523 WT8  7078 TIP3 OH2  OT    -0.834000       15.9994           0
  123524 WT8  7078 TIP3 H1   HT     0.417000        1.0080           0
  123525 WT8  7078 TIP3 H2   HT     0.417000        1.0080           0
  123526 WT8  7099 TIP3 OH2  OT    -0.834000       15.9994           0
  123527 WT8  7099 TIP3 H1   HT     0.417000        1.0080           0
  123528 WT8  7099 TIP3 H2   HT     0.417000        1.0080           0
  123529 WT8  7105 TIP3 OH2  OT    -0.834000       15.9994           0
  123530 WT8  7105 TIP3 H1   HT     0.417000        1.0080           0
  123531 WT8  7105 TIP3 H2   HT     0.417000        1.0080           0
  123532 WT8  7109 TIP3 OH2  OT    -0.834000       15.9994           0
  123533 WT8  7109 TIP3 H1   HT     0.417000        1.0080           0
  123534 WT8  7109 TIP3 H2   HT     0.417000        1.0080           0
  123535 WT8  7112 TIP3 OH2  OT    -0.834000       15.9994           0
  123536 WT8  7112 TIP3 H1   HT     0.417000        1.0080           0
  123537 WT8  7112 TIP3 H2   HT     0.417000        1.0080           0
  123538 WT8  7121 TIP3 OH2  OT    -0.834000       15.9994           0
  123539 WT8  7121 TIP3 H1   HT     0.417000        1.0080           0
  123540 WT8  7121 TIP3 H2   HT     0.417000        1.0080           0
  123541 WT8  7122 TIP3 OH2  OT    -0.834000       15.9994           0
  123542 WT8  7122 TIP3 H1   HT     0.417000        1.0080           0
  123543 WT8  7122 TIP3 H2   HT     0.417000        1.0080           0
  123544 WT8  7123 TIP3 OH2  OT    -0.834000       15.9994           0
  123545 WT8  7123 TIP3 H1   HT     0.417000        1.0080           0
  123546 WT8  7123 TIP3 H2   HT     0.417000        1.0080           0
  123547 WT8  7125 TIP3 OH2  OT    -0.834000       15.9994           0
  123548 WT8  7125 TIP3 H1   HT     0.417000        1.0080           0
  123549 WT8  7125 TIP3 H2   HT     0.417000        1.0080           0
  123550 WT8  7130 TIP3 OH2  OT    -0.834000       15.9994           0
  123551 WT8  7130 TIP3 H1   HT     0.417000        1.0080           0
  123552 WT8  7130 TIP3 H2   HT     0.417000        1.0080           0
  123553 WT8  7132 TIP3 OH2  OT    -0.834000       15.9994           0
  123554 WT8  7132 TIP3 H1   HT     0.417000        1.0080           0
  123555 WT8  7132 TIP3 H2   HT     0.417000        1.0080           0
  123556 WT8  7133 TIP3 OH2  OT    -0.834000       15.9994           0
  123557 WT8  7133 TIP3 H1   HT     0.417000        1.0080           0
  123558 WT8  7133 TIP3 H2   HT     0.417000        1.0080           0
  123559 WT8  7141 TIP3 OH2  OT    -0.834000       15.9994           0
  123560 WT8  7141 TIP3 H1   HT     0.417000        1.0080           0
  123561 WT8  7141 TIP3 H2   HT     0.417000        1.0080           0
  123562 WT8  7145 TIP3 OH2  OT    -0.834000       15.9994           0
  123563 WT8  7145 TIP3 H1   HT     0.417000        1.0080           0
  123564 WT8  7145 TIP3 H2   HT     0.417000        1.0080           0
  123565 WT8  7147 TIP3 OH2  OT    -0.834000       15.9994           0
  123566 WT8  7147 TIP3 H1   HT     0.417000        1.0080           0
  123567 WT8  7147 TIP3 H2   HT     0.417000        1.0080           0
  123568 WT8  7166 TIP3 OH2  OT    -0.834000       15.9994           0
  123569 WT8  7166 TIP3 H1   HT     0.417000        1.0080           0
  123570 WT8  7166 TIP3 H2   HT     0.417000        1.0080           0
  123571 WT8  7168 TIP3 OH2  OT    -0.834000       15.9994           0
  123572 WT8  7168 TIP3 H1   HT     0.417000        1.0080           0
  123573 WT8  7168 TIP3 H2   HT     0.417000        1.0080           0
  123574 WT8  7170 TIP3 OH2  OT    -0.834000       15.9994           0
  123575 WT8  7170 TIP3 H1   HT     0.417000        1.0080           0
  123576 WT8  7170 TIP3 H2   HT     0.417000        1.0080           0
  123577 WT8  7171 TIP3 OH2  OT    -0.834000       15.9994           0
  123578 WT8  7171 TIP3 H1   HT     0.417000        1.0080           0
  123579 WT8  7171 TIP3 H2   HT     0.417000        1.0080           0
  123580 WT8  7174 TIP3 OH2  OT    -0.834000       15.9994           0
  123581 WT8  7174 TIP3 H1   HT     0.417000        1.0080           0
  123582 WT8  7174 TIP3 H2   HT     0.417000        1.0080           0
  123583 WT8  7176 TIP3 OH2  OT    -0.834000       15.9994           0
  123584 WT8  7176 TIP3 H1   HT     0.417000        1.0080           0
  123585 WT8  7176 TIP3 H2   HT     0.417000        1.0080           0
  123586 WT8  7182 TIP3 OH2  OT    -0.834000       15.9994           0
  123587 WT8  7182 TIP3 H1   HT     0.417000        1.0080           0
  123588 WT8  7182 TIP3 H2   HT     0.417000        1.0080           0
  123589 WT8  7185 TIP3 OH2  OT    -0.834000       15.9994           0
  123590 WT8  7185 TIP3 H1   HT     0.417000        1.0080           0
  123591 WT8  7185 TIP3 H2   HT     0.417000        1.0080           0
  123592 WT8  7192 TIP3 OH2  OT    -0.834000       15.9994           0
  123593 WT8  7192 TIP3 H1   HT     0.417000        1.0080           0
  123594 WT8  7192 TIP3 H2   HT     0.417000        1.0080           0
  123595 WT8  7193 TIP3 OH2  OT    -0.834000       15.9994           0
  123596 WT8  7193 TIP3 H1   HT     0.417000        1.0080           0
  123597 WT8  7193 TIP3 H2   HT     0.417000        1.0080           0
  123598 WT8  7196 TIP3 OH2  OT    -0.834000       15.9994           0
  123599 WT8  7196 TIP3 H1   HT     0.417000        1.0080           0
  123600 WT8  7196 TIP3 H2   HT     0.417000        1.0080           0
  123601 WT8  7198 TIP3 OH2  OT    -0.834000       15.9994           0
  123602 WT8  7198 TIP3 H1   HT     0.417000        1.0080           0
  123603 WT8  7198 TIP3 H2   HT     0.417000        1.0080           0
  123604 WT8  7203 TIP3 OH2  OT    -0.834000       15.9994           0
  123605 WT8  7203 TIP3 H1   HT     0.417000        1.0080           0
  123606 WT8  7203 TIP3 H2   HT     0.417000        1.0080           0
  123607 WT8  7210 TIP3 OH2  OT    -0.834000       15.9994           0
  123608 WT8  7210 TIP3 H1   HT     0.417000        1.0080           0
  123609 WT8  7210 TIP3 H2   HT     0.417000        1.0080           0
  123610 WT8  7214 TIP3 OH2  OT    -0.834000       15.9994           0
  123611 WT8  7214 TIP3 H1   HT     0.417000        1.0080           0
  123612 WT8  7214 TIP3 H2   HT     0.417000        1.0080           0
  123613 WT8  7215 TIP3 OH2  OT    -0.834000       15.9994           0
  123614 WT8  7215 TIP3 H1   HT     0.417000        1.0080           0
  123615 WT8  7215 TIP3 H2   HT     0.417000        1.0080           0
  123616 WT8  7216 TIP3 OH2  OT    -0.834000       15.9994           0
  123617 WT8  7216 TIP3 H1   HT     0.417000        1.0080           0
  123618 WT8  7216 TIP3 H2   HT     0.417000        1.0080           0
  123619 WT8  7222 TIP3 OH2  OT    -0.834000       15.9994           0
  123620 WT8  7222 TIP3 H1   HT     0.417000        1.0080           0
  123621 WT8  7222 TIP3 H2   HT     0.417000        1.0080           0
  123622 WT8  7231 TIP3 OH2  OT    -0.834000       15.9994           0
  123623 WT8  7231 TIP3 H1   HT     0.417000        1.0080           0
  123624 WT8  7231 TIP3 H2   HT     0.417000        1.0080           0
  123625 WT8  7252 TIP3 OH2  OT    -0.834000       15.9994           0
  123626 WT8  7252 TIP3 H1   HT     0.417000        1.0080           0
  123627 WT8  7252 TIP3 H2   HT     0.417000        1.0080           0
  123628 WT8  7257 TIP3 OH2  OT    -0.834000       15.9994           0
  123629 WT8  7257 TIP3 H1   HT     0.417000        1.0080           0
  123630 WT8  7257 TIP3 H2   HT     0.417000        1.0080           0
  123631 WT8  7262 TIP3 OH2  OT    -0.834000       15.9994           0
  123632 WT8  7262 TIP3 H1   HT     0.417000        1.0080           0
  123633 WT8  7262 TIP3 H2   HT     0.417000        1.0080           0
  123634 WT8  7295 TIP3 OH2  OT    -0.834000       15.9994           0
  123635 WT8  7295 TIP3 H1   HT     0.417000        1.0080           0
  123636 WT8  7295 TIP3 H2   HT     0.417000        1.0080           0
  123637 WT8  7296 TIP3 OH2  OT    -0.834000       15.9994           0
  123638 WT8  7296 TIP3 H1   HT     0.417000        1.0080           0
  123639 WT8  7296 TIP3 H2   HT     0.417000        1.0080           0
  123640 WT8  7305 TIP3 OH2  OT    -0.834000       15.9994           0
  123641 WT8  7305 TIP3 H1   HT     0.417000        1.0080           0
  123642 WT8  7305 TIP3 H2   HT     0.417000        1.0080           0
  123643 WT8  7312 TIP3 OH2  OT    -0.834000       15.9994           0
  123644 WT8  7312 TIP3 H1   HT     0.417000        1.0080           0
  123645 WT8  7312 TIP3 H2   HT     0.417000        1.0080           0
  123646 WT8  7314 TIP3 OH2  OT    -0.834000       15.9994           0
  123647 WT8  7314 TIP3 H1   HT     0.417000        1.0080           0
  123648 WT8  7314 TIP3 H2   HT     0.417000        1.0080           0
  123649 WT8  7316 TIP3 OH2  OT    -0.834000       15.9994           0
  123650 WT8  7316 TIP3 H1   HT     0.417000        1.0080           0
  123651 WT8  7316 TIP3 H2   HT     0.417000        1.0080           0
  123652 WT8  7331 TIP3 OH2  OT    -0.834000       15.9994           0
  123653 WT8  7331 TIP3 H1   HT     0.417000        1.0080           0
  123654 WT8  7331 TIP3 H2   HT     0.417000        1.0080           0
  123655 WT8  7335 TIP3 OH2  OT    -0.834000       15.9994           0
  123656 WT8  7335 TIP3 H1   HT     0.417000        1.0080           0
  123657 WT8  7335 TIP3 H2   HT     0.417000        1.0080           0
  123658 WT8  7352 TIP3 OH2  OT    -0.834000       15.9994           0
  123659 WT8  7352 TIP3 H1   HT     0.417000        1.0080           0
  123660 WT8  7352 TIP3 H2   HT     0.417000        1.0080           0
  123661 WT8  7374 TIP3 OH2  OT    -0.834000       15.9994           0
  123662 WT8  7374 TIP3 H1   HT     0.417000        1.0080           0
  123663 WT8  7374 TIP3 H2   HT     0.417000        1.0080           0
  123664 WT8  7395 TIP3 OH2  OT    -0.834000       15.9994           0
  123665 WT8  7395 TIP3 H1   HT     0.417000        1.0080           0
  123666 WT8  7395 TIP3 H2   HT     0.417000        1.0080           0
  123667 WT8  7398 TIP3 OH2  OT    -0.834000       15.9994           0
  123668 WT8  7398 TIP3 H1   HT     0.417000        1.0080           0
  123669 WT8  7398 TIP3 H2   HT     0.417000        1.0080           0
  123670 WT8  7437 TIP3 OH2  OT    -0.834000       15.9994           0
  123671 WT8  7437 TIP3 H1   HT     0.417000        1.0080           0
  123672 WT8  7437 TIP3 H2   HT     0.417000        1.0080           0
  123673 WT8  7444 TIP3 OH2  OT    -0.834000       15.9994           0
  123674 WT8  7444 TIP3 H1   HT     0.417000        1.0080           0
  123675 WT8  7444 TIP3 H2   HT     0.417000        1.0080           0
  123676 WT8  7479 TIP3 OH2  OT    -0.834000       15.9994           0
  123677 WT8  7479 TIP3 H1   HT     0.417000        1.0080           0
  123678 WT8  7479 TIP3 H2   HT     0.417000        1.0080           0
  123679 WT8  7481 TIP3 OH2  OT    -0.834000       15.9994           0
  123680 WT8  7481 TIP3 H1   HT     0.417000        1.0080           0
  123681 WT8  7481 TIP3 H2   HT     0.417000        1.0080           0
  123682 WT8  7501 TIP3 OH2  OT    -0.834000       15.9994           0
  123683 WT8  7501 TIP3 H1   HT     0.417000        1.0080           0
  123684 WT8  7501 TIP3 H2   HT     0.417000        1.0080           0
  123685 WT8  7510 TIP3 OH2  OT    -0.834000       15.9994           0
  123686 WT8  7510 TIP3 H1   HT     0.417000        1.0080           0
  123687 WT8  7510 TIP3 H2   HT     0.417000        1.0080           0
  123688 WT8  7525 TIP3 OH2  OT    -0.834000       15.9994           0
  123689 WT8  7525 TIP3 H1   HT     0.417000        1.0080           0
  123690 WT8  7525 TIP3 H2   HT     0.417000        1.0080           0
  123691 WT8  7532 TIP3 OH2  OT    -0.834000       15.9994           0
  123692 WT8  7532 TIP3 H1   HT     0.417000        1.0080           0
  123693 WT8  7532 TIP3 H2   HT     0.417000        1.0080           0
  123694 WT8  7557 TIP3 OH2  OT    -0.834000       15.9994           0
  123695 WT8  7557 TIP3 H1   HT     0.417000        1.0080           0
  123696 WT8  7557 TIP3 H2   HT     0.417000        1.0080           0
  123697 WT8  7563 TIP3 OH2  OT    -0.834000       15.9994           0
  123698 WT8  7563 TIP3 H1   HT     0.417000        1.0080           0
  123699 WT8  7563 TIP3 H2   HT     0.417000        1.0080           0
  123700 WT8  7567 TIP3 OH2  OT    -0.834000       15.9994           0
  123701 WT8  7567 TIP3 H1   HT     0.417000        1.0080           0
  123702 WT8  7567 TIP3 H2   HT     0.417000        1.0080           0
  123703 WT8  7568 TIP3 OH2  OT    -0.834000       15.9994           0
  123704 WT8  7568 TIP3 H1   HT     0.417000        1.0080           0
  123705 WT8  7568 TIP3 H2   HT     0.417000        1.0080           0
  123706 WT8  7572 TIP3 OH2  OT    -0.834000       15.9994           0
  123707 WT8  7572 TIP3 H1   HT     0.417000        1.0080           0
  123708 WT8  7572 TIP3 H2   HT     0.417000        1.0080           0
  123709 WT8  7583 TIP3 OH2  OT    -0.834000       15.9994           0
  123710 WT8  7583 TIP3 H1   HT     0.417000        1.0080           0
  123711 WT8  7583 TIP3 H2   HT     0.417000        1.0080           0
  123712 WT8  7592 TIP3 OH2  OT    -0.834000       15.9994           0
  123713 WT8  7592 TIP3 H1   HT     0.417000        1.0080           0
  123714 WT8  7592 TIP3 H2   HT     0.417000        1.0080           0
  123715 WT8  7597 TIP3 OH2  OT    -0.834000       15.9994           0
  123716 WT8  7597 TIP3 H1   HT     0.417000        1.0080           0
  123717 WT8  7597 TIP3 H2   HT     0.417000        1.0080           0
  123718 WT8  7603 TIP3 OH2  OT    -0.834000       15.9994           0
  123719 WT8  7603 TIP3 H1   HT     0.417000        1.0080           0
  123720 WT8  7603 TIP3 H2   HT     0.417000        1.0080           0
  123721 WT8  7605 TIP3 OH2  OT    -0.834000       15.9994           0
  123722 WT8  7605 TIP3 H1   HT     0.417000        1.0080           0
  123723 WT8  7605 TIP3 H2   HT     0.417000        1.0080           0
  123724 WT8  7607 TIP3 OH2  OT    -0.834000       15.9994           0
  123725 WT8  7607 TIP3 H1   HT     0.417000        1.0080           0
  123726 WT8  7607 TIP3 H2   HT     0.417000        1.0080           0
  123727 WT8  7612 TIP3 OH2  OT    -0.834000       15.9994           0
  123728 WT8  7612 TIP3 H1   HT     0.417000        1.0080           0
  123729 WT8  7612 TIP3 H2   HT     0.417000        1.0080           0
  123730 WT8  7617 TIP3 OH2  OT    -0.834000       15.9994           0
  123731 WT8  7617 TIP3 H1   HT     0.417000        1.0080           0
  123732 WT8  7617 TIP3 H2   HT     0.417000        1.0080           0
  123733 WT8  7630 TIP3 OH2  OT    -0.834000       15.9994           0
  123734 WT8  7630 TIP3 H1   HT     0.417000        1.0080           0
  123735 WT8  7630 TIP3 H2   HT     0.417000        1.0080           0
  123736 WT8  7631 TIP3 OH2  OT    -0.834000       15.9994           0
  123737 WT8  7631 TIP3 H1   HT     0.417000        1.0080           0
  123738 WT8  7631 TIP3 H2   HT     0.417000        1.0080           0
  123739 WT8  7634 TIP3 OH2  OT    -0.834000       15.9994           0
  123740 WT8  7634 TIP3 H1   HT     0.417000        1.0080           0
  123741 WT8  7634 TIP3 H2   HT     0.417000        1.0080           0
  123742 WT8  7638 TIP3 OH2  OT    -0.834000       15.9994           0
  123743 WT8  7638 TIP3 H1   HT     0.417000        1.0080           0
  123744 WT8  7638 TIP3 H2   HT     0.417000        1.0080           0
  123745 WT8  7643 TIP3 OH2  OT    -0.834000       15.9994           0
  123746 WT8  7643 TIP3 H1   HT     0.417000        1.0080           0
  123747 WT8  7643 TIP3 H2   HT     0.417000        1.0080           0
  123748 WT8  7647 TIP3 OH2  OT    -0.834000       15.9994           0
  123749 WT8  7647 TIP3 H1   HT     0.417000        1.0080           0
  123750 WT8  7647 TIP3 H2   HT     0.417000        1.0080           0
  123751 WT8  7650 TIP3 OH2  OT    -0.834000       15.9994           0
  123752 WT8  7650 TIP3 H1   HT     0.417000        1.0080           0
  123753 WT8  7650 TIP3 H2   HT     0.417000        1.0080           0
  123754 WT8  7661 TIP3 OH2  OT    -0.834000       15.9994           0
  123755 WT8  7661 TIP3 H1   HT     0.417000        1.0080           0
  123756 WT8  7661 TIP3 H2   HT     0.417000        1.0080           0
  123757 WT8  7668 TIP3 OH2  OT    -0.834000       15.9994           0
  123758 WT8  7668 TIP3 H1   HT     0.417000        1.0080           0
  123759 WT8  7668 TIP3 H2   HT     0.417000        1.0080           0
  123760 WT8  7675 TIP3 OH2  OT    -0.834000       15.9994           0
  123761 WT8  7675 TIP3 H1   HT     0.417000        1.0080           0
  123762 WT8  7675 TIP3 H2   HT     0.417000        1.0080           0
  123763 WT8  7676 TIP3 OH2  OT    -0.834000       15.9994           0
  123764 WT8  7676 TIP3 H1   HT     0.417000        1.0080           0
  123765 WT8  7676 TIP3 H2   HT     0.417000        1.0080           0
  123766 WT8  7689 TIP3 OH2  OT    -0.834000       15.9994           0
  123767 WT8  7689 TIP3 H1   HT     0.417000        1.0080           0
  123768 WT8  7689 TIP3 H2   HT     0.417000        1.0080           0
  123769 WT8  7690 TIP3 OH2  OT    -0.834000       15.9994           0
  123770 WT8  7690 TIP3 H1   HT     0.417000        1.0080           0
  123771 WT8  7690 TIP3 H2   HT     0.417000        1.0080           0
  123772 WT8  7698 TIP3 OH2  OT    -0.834000       15.9994           0
  123773 WT8  7698 TIP3 H1   HT     0.417000        1.0080           0
  123774 WT8  7698 TIP3 H2   HT     0.417000        1.0080           0
  123775 WT8  7700 TIP3 OH2  OT    -0.834000       15.9994           0
  123776 WT8  7700 TIP3 H1   HT     0.417000        1.0080           0
  123777 WT8  7700 TIP3 H2   HT     0.417000        1.0080           0
  123778 WT8  7702 TIP3 OH2  OT    -0.834000       15.9994           0
  123779 WT8  7702 TIP3 H1   HT     0.417000        1.0080           0
  123780 WT8  7702 TIP3 H2   HT     0.417000        1.0080           0
  123781 WT8  7707 TIP3 OH2  OT    -0.834000       15.9994           0
  123782 WT8  7707 TIP3 H1   HT     0.417000        1.0080           0
  123783 WT8  7707 TIP3 H2   HT     0.417000        1.0080           0
  123784 WT8  7711 TIP3 OH2  OT    -0.834000       15.9994           0
  123785 WT8  7711 TIP3 H1   HT     0.417000        1.0080           0
  123786 WT8  7711 TIP3 H2   HT     0.417000        1.0080           0
  123787 WT8  7712 TIP3 OH2  OT    -0.834000       15.9994           0
  123788 WT8  7712 TIP3 H1   HT     0.417000        1.0080           0
  123789 WT8  7712 TIP3 H2   HT     0.417000        1.0080           0
  123790 WT8  7714 TIP3 OH2  OT    -0.834000       15.9994           0
  123791 WT8  7714 TIP3 H1   HT     0.417000        1.0080           0
  123792 WT8  7714 TIP3 H2   HT     0.417000        1.0080           0
  123793 WT8  7715 TIP3 OH2  OT    -0.834000       15.9994           0
  123794 WT8  7715 TIP3 H1   HT     0.417000        1.0080           0
  123795 WT8  7715 TIP3 H2   HT     0.417000        1.0080           0
  123796 WT8  7716 TIP3 OH2  OT    -0.834000       15.9994           0
  123797 WT8  7716 TIP3 H1   HT     0.417000        1.0080           0
  123798 WT8  7716 TIP3 H2   HT     0.417000        1.0080           0
  123799 WT8  7736 TIP3 OH2  OT    -0.834000       15.9994           0
  123800 WT8  7736 TIP3 H1   HT     0.417000        1.0080           0
  123801 WT8  7736 TIP3 H2   HT     0.417000        1.0080           0
  123802 WT8  7739 TIP3 OH2  OT    -0.834000       15.9994           0
  123803 WT8  7739 TIP3 H1   HT     0.417000        1.0080           0
  123804 WT8  7739 TIP3 H2   HT     0.417000        1.0080           0
  123805 WT8  7748 TIP3 OH2  OT    -0.834000       15.9994           0
  123806 WT8  7748 TIP3 H1   HT     0.417000        1.0080           0
  123807 WT8  7748 TIP3 H2   HT     0.417000        1.0080           0
  123808 WT8  7750 TIP3 OH2  OT    -0.834000       15.9994           0
  123809 WT8  7750 TIP3 H1   HT     0.417000        1.0080           0
  123810 WT8  7750 TIP3 H2   HT     0.417000        1.0080           0
  123811 WT8  7754 TIP3 OH2  OT    -0.834000       15.9994           0
  123812 WT8  7754 TIP3 H1   HT     0.417000        1.0080           0
  123813 WT8  7754 TIP3 H2   HT     0.417000        1.0080           0
  123814 WT8  7755 TIP3 OH2  OT    -0.834000       15.9994           0
  123815 WT8  7755 TIP3 H1   HT     0.417000        1.0080           0
  123816 WT8  7755 TIP3 H2   HT     0.417000        1.0080           0
  123817 WT8  7756 TIP3 OH2  OT    -0.834000       15.9994           0
  123818 WT8  7756 TIP3 H1   HT     0.417000        1.0080           0
  123819 WT8  7756 TIP3 H2   HT     0.417000        1.0080           0
  123820 WT8  7773 TIP3 OH2  OT    -0.834000       15.9994           0
  123821 WT8  7773 TIP3 H1   HT     0.417000        1.0080           0
  123822 WT8  7773 TIP3 H2   HT     0.417000        1.0080           0
  123823 WT8  7798 TIP3 OH2  OT    -0.834000       15.9994           0
  123824 WT8  7798 TIP3 H1   HT     0.417000        1.0080           0
  123825 WT8  7798 TIP3 H2   HT     0.417000        1.0080           0
  123826 WT8  7860 TIP3 OH2  OT    -0.834000       15.9994           0
  123827 WT8  7860 TIP3 H1   HT     0.417000        1.0080           0
  123828 WT8  7860 TIP3 H2   HT     0.417000        1.0080           0
  123829 WT8  7873 TIP3 OH2  OT    -0.834000       15.9994           0
  123830 WT8  7873 TIP3 H1   HT     0.417000        1.0080           0
  123831 WT8  7873 TIP3 H2   HT     0.417000        1.0080           0
  123832 WT8  7904 TIP3 OH2  OT    -0.834000       15.9994           0
  123833 WT8  7904 TIP3 H1   HT     0.417000        1.0080           0
  123834 WT8  7904 TIP3 H2   HT     0.417000        1.0080           0
  123835 WT8  7945 TIP3 OH2  OT    -0.834000       15.9994           0
  123836 WT8  7945 TIP3 H1   HT     0.417000        1.0080           0
  123837 WT8  7945 TIP3 H2   HT     0.417000        1.0080           0
  123838 WT8  7951 TIP3 OH2  OT    -0.834000       15.9994           0
  123839 WT8  7951 TIP3 H1   HT     0.417000        1.0080           0
  123840 WT8  7951 TIP3 H2   HT     0.417000        1.0080           0
  123841 WT8  7961 TIP3 OH2  OT    -0.834000       15.9994           0
  123842 WT8  7961 TIP3 H1   HT     0.417000        1.0080           0
  123843 WT8  7961 TIP3 H2   HT     0.417000        1.0080           0
  123844 WT8  7964 TIP3 OH2  OT    -0.834000       15.9994           0
  123845 WT8  7964 TIP3 H1   HT     0.417000        1.0080           0
  123846 WT8  7964 TIP3 H2   HT     0.417000        1.0080           0
  123847 WT8  7985 TIP3 OH2  OT    -0.834000       15.9994           0
  123848 WT8  7985 TIP3 H1   HT     0.417000        1.0080           0
  123849 WT8  7985 TIP3 H2   HT     0.417000        1.0080           0
  123850 WT8  7988 TIP3 OH2  OT    -0.834000       15.9994           0
  123851 WT8  7988 TIP3 H1   HT     0.417000        1.0080           0
  123852 WT8  7988 TIP3 H2   HT     0.417000        1.0080           0
  123853 WT8  8009 TIP3 OH2  OT    -0.834000       15.9994           0
  123854 WT8  8009 TIP3 H1   HT     0.417000        1.0080           0
  123855 WT8  8009 TIP3 H2   HT     0.417000        1.0080           0
  123856 WT8  8014 TIP3 OH2  OT    -0.834000       15.9994           0
  123857 WT8  8014 TIP3 H1   HT     0.417000        1.0080           0
  123858 WT8  8014 TIP3 H2   HT     0.417000        1.0080           0
  123859 WT8  8023 TIP3 OH2  OT    -0.834000       15.9994           0
  123860 WT8  8023 TIP3 H1   HT     0.417000        1.0080           0
  123861 WT8  8023 TIP3 H2   HT     0.417000        1.0080           0
  123862 WT8  8024 TIP3 OH2  OT    -0.834000       15.9994           0
  123863 WT8  8024 TIP3 H1   HT     0.417000        1.0080           0
  123864 WT8  8024 TIP3 H2   HT     0.417000        1.0080           0
  123865 WT8  8029 TIP3 OH2  OT    -0.834000       15.9994           0
  123866 WT8  8029 TIP3 H1   HT     0.417000        1.0080           0
  123867 WT8  8029 TIP3 H2   HT     0.417000        1.0080           0
  123868 WT8  8031 TIP3 OH2  OT    -0.834000       15.9994           0
  123869 WT8  8031 TIP3 H1   HT     0.417000        1.0080           0
  123870 WT8  8031 TIP3 H2   HT     0.417000        1.0080           0
  123871 WT8  8046 TIP3 OH2  OT    -0.834000       15.9994           0
  123872 WT8  8046 TIP3 H1   HT     0.417000        1.0080           0
  123873 WT8  8046 TIP3 H2   HT     0.417000        1.0080           0
  123874 WT8  8055 TIP3 OH2  OT    -0.834000       15.9994           0
  123875 WT8  8055 TIP3 H1   HT     0.417000        1.0080           0
  123876 WT8  8055 TIP3 H2   HT     0.417000        1.0080           0
  123877 WT8  8064 TIP3 OH2  OT    -0.834000       15.9994           0
  123878 WT8  8064 TIP3 H1   HT     0.417000        1.0080           0
  123879 WT8  8064 TIP3 H2   HT     0.417000        1.0080           0
  123880 WT8  8067 TIP3 OH2  OT    -0.834000       15.9994           0
  123881 WT8  8067 TIP3 H1   HT     0.417000        1.0080           0
  123882 WT8  8067 TIP3 H2   HT     0.417000        1.0080           0
  123883 WT8  8068 TIP3 OH2  OT    -0.834000       15.9994           0
  123884 WT8  8068 TIP3 H1   HT     0.417000        1.0080           0
  123885 WT8  8068 TIP3 H2   HT     0.417000        1.0080           0
  123886 WT8  8070 TIP3 OH2  OT    -0.834000       15.9994           0
  123887 WT8  8070 TIP3 H1   HT     0.417000        1.0080           0
  123888 WT8  8070 TIP3 H2   HT     0.417000        1.0080           0
  123889 WT8  8073 TIP3 OH2  OT    -0.834000       15.9994           0
  123890 WT8  8073 TIP3 H1   HT     0.417000        1.0080           0
  123891 WT8  8073 TIP3 H2   HT     0.417000        1.0080           0
  123892 WT8  8076 TIP3 OH2  OT    -0.834000       15.9994           0
  123893 WT8  8076 TIP3 H1   HT     0.417000        1.0080           0
  123894 WT8  8076 TIP3 H2   HT     0.417000        1.0080           0
  123895 WT8  8087 TIP3 OH2  OT    -0.834000       15.9994           0
  123896 WT8  8087 TIP3 H1   HT     0.417000        1.0080           0
  123897 WT8  8087 TIP3 H2   HT     0.417000        1.0080           0
  123898 WT8  8091 TIP3 OH2  OT    -0.834000       15.9994           0
  123899 WT8  8091 TIP3 H1   HT     0.417000        1.0080           0
  123900 WT8  8091 TIP3 H2   HT     0.417000        1.0080           0
  123901 WT8  8094 TIP3 OH2  OT    -0.834000       15.9994           0
  123902 WT8  8094 TIP3 H1   HT     0.417000        1.0080           0
  123903 WT8  8094 TIP3 H2   HT     0.417000        1.0080           0
  123904 WT8  8097 TIP3 OH2  OT    -0.834000       15.9994           0
  123905 WT8  8097 TIP3 H1   HT     0.417000        1.0080           0
  123906 WT8  8097 TIP3 H2   HT     0.417000        1.0080           0
  123907 WT8  8107 TIP3 OH2  OT    -0.834000       15.9994           0
  123908 WT8  8107 TIP3 H1   HT     0.417000        1.0080           0
  123909 WT8  8107 TIP3 H2   HT     0.417000        1.0080           0
  123910 WT8  8109 TIP3 OH2  OT    -0.834000       15.9994           0
  123911 WT8  8109 TIP3 H1   HT     0.417000        1.0080           0
  123912 WT8  8109 TIP3 H2   HT     0.417000        1.0080           0
  123913 WT8  8113 TIP3 OH2  OT    -0.834000       15.9994           0
  123914 WT8  8113 TIP3 H1   HT     0.417000        1.0080           0
  123915 WT8  8113 TIP3 H2   HT     0.417000        1.0080           0
  123916 WT8  8133 TIP3 OH2  OT    -0.834000       15.9994           0
  123917 WT8  8133 TIP3 H1   HT     0.417000        1.0080           0
  123918 WT8  8133 TIP3 H2   HT     0.417000        1.0080           0
  123919 WT8  8136 TIP3 OH2  OT    -0.834000       15.9994           0
  123920 WT8  8136 TIP3 H1   HT     0.417000        1.0080           0
  123921 WT8  8136 TIP3 H2   HT     0.417000        1.0080           0
  123922 WT8  8140 TIP3 OH2  OT    -0.834000       15.9994           0
  123923 WT8  8140 TIP3 H1   HT     0.417000        1.0080           0
  123924 WT8  8140 TIP3 H2   HT     0.417000        1.0080           0
  123925 WT8  8161 TIP3 OH2  OT    -0.834000       15.9994           0
  123926 WT8  8161 TIP3 H1   HT     0.417000        1.0080           0
  123927 WT8  8161 TIP3 H2   HT     0.417000        1.0080           0
  123928 WT8  8174 TIP3 OH2  OT    -0.834000       15.9994           0
  123929 WT8  8174 TIP3 H1   HT     0.417000        1.0080           0
  123930 WT8  8174 TIP3 H2   HT     0.417000        1.0080           0
  123931 WT8  8176 TIP3 OH2  OT    -0.834000       15.9994           0
  123932 WT8  8176 TIP3 H1   HT     0.417000        1.0080           0
  123933 WT8  8176 TIP3 H2   HT     0.417000        1.0080           0
  123934 WT8  8185 TIP3 OH2  OT    -0.834000       15.9994           0
  123935 WT8  8185 TIP3 H1   HT     0.417000        1.0080           0
  123936 WT8  8185 TIP3 H2   HT     0.417000        1.0080           0
  123937 WT8  8193 TIP3 OH2  OT    -0.834000       15.9994           0
  123938 WT8  8193 TIP3 H1   HT     0.417000        1.0080           0
  123939 WT8  8193 TIP3 H2   HT     0.417000        1.0080           0
  123940 WT8  8201 TIP3 OH2  OT    -0.834000       15.9994           0
  123941 WT8  8201 TIP3 H1   HT     0.417000        1.0080           0
  123942 WT8  8201 TIP3 H2   HT     0.417000        1.0080           0
  123943 WT8  8206 TIP3 OH2  OT    -0.834000       15.9994           0
  123944 WT8  8206 TIP3 H1   HT     0.417000        1.0080           0
  123945 WT8  8206 TIP3 H2   HT     0.417000        1.0080           0
  123946 WT8  8222 TIP3 OH2  OT    -0.834000       15.9994           0
  123947 WT8  8222 TIP3 H1   HT     0.417000        1.0080           0
  123948 WT8  8222 TIP3 H2   HT     0.417000        1.0080           0
  123949 WT8  8242 TIP3 OH2  OT    -0.834000       15.9994           0
  123950 WT8  8242 TIP3 H1   HT     0.417000        1.0080           0
  123951 WT8  8242 TIP3 H2   HT     0.417000        1.0080           0
  123952 WT8  8263 TIP3 OH2  OT    -0.834000       15.9994           0
  123953 WT8  8263 TIP3 H1   HT     0.417000        1.0080           0
  123954 WT8  8263 TIP3 H2   HT     0.417000        1.0080           0
  123955 WT8  8265 TIP3 OH2  OT    -0.834000       15.9994           0
  123956 WT8  8265 TIP3 H1   HT     0.417000        1.0080           0
  123957 WT8  8265 TIP3 H2   HT     0.417000        1.0080           0
  123958 WT8  8266 TIP3 OH2  OT    -0.834000       15.9994           0
  123959 WT8  8266 TIP3 H1   HT     0.417000        1.0080           0
  123960 WT8  8266 TIP3 H2   HT     0.417000        1.0080           0
  123961 WT8  8290 TIP3 OH2  OT    -0.834000       15.9994           0
  123962 WT8  8290 TIP3 H1   HT     0.417000        1.0080           0
  123963 WT8  8290 TIP3 H2   HT     0.417000        1.0080           0
  123964 WT8  8309 TIP3 OH2  OT    -0.834000       15.9994           0
  123965 WT8  8309 TIP3 H1   HT     0.417000        1.0080           0
  123966 WT8  8309 TIP3 H2   HT     0.417000        1.0080           0
  123967 WT8  8326 TIP3 OH2  OT    -0.834000       15.9994           0
  123968 WT8  8326 TIP3 H1   HT     0.417000        1.0080           0
  123969 WT8  8326 TIP3 H2   HT     0.417000        1.0080           0
  123970 WT8  8342 TIP3 OH2  OT    -0.834000       15.9994           0
  123971 WT8  8342 TIP3 H1   HT     0.417000        1.0080           0
  123972 WT8  8342 TIP3 H2   HT     0.417000        1.0080           0
  123973 WT8  8345 TIP3 OH2  OT    -0.834000       15.9994           0
  123974 WT8  8345 TIP3 H1   HT     0.417000        1.0080           0
  123975 WT8  8345 TIP3 H2   HT     0.417000        1.0080           0
  123976 WT8  8364 TIP3 OH2  OT    -0.834000       15.9994           0
  123977 WT8  8364 TIP3 H1   HT     0.417000        1.0080           0
  123978 WT8  8364 TIP3 H2   HT     0.417000        1.0080           0
  123979 WT8  8370 TIP3 OH2  OT    -0.834000       15.9994           0
  123980 WT8  8370 TIP3 H1   HT     0.417000        1.0080           0
  123981 WT8  8370 TIP3 H2   HT     0.417000        1.0080           0
  123982 WT8  8394 TIP3 OH2  OT    -0.834000       15.9994           0
  123983 WT8  8394 TIP3 H1   HT     0.417000        1.0080           0
  123984 WT8  8394 TIP3 H2   HT     0.417000        1.0080           0
  123985 WT8  8403 TIP3 OH2  OT    -0.834000       15.9994           0
  123986 WT8  8403 TIP3 H1   HT     0.417000        1.0080           0
  123987 WT8  8403 TIP3 H2   HT     0.417000        1.0080           0
  123988 WT8  8408 TIP3 OH2  OT    -0.834000       15.9994           0
  123989 WT8  8408 TIP3 H1   HT     0.417000        1.0080           0
  123990 WT8  8408 TIP3 H2   HT     0.417000        1.0080           0
  123991 WT8  8409 TIP3 OH2  OT    -0.834000       15.9994           0
  123992 WT8  8409 TIP3 H1   HT     0.417000        1.0080           0
  123993 WT8  8409 TIP3 H2   HT     0.417000        1.0080           0
  123994 WT8  8411 TIP3 OH2  OT    -0.834000       15.9994           0
  123995 WT8  8411 TIP3 H1   HT     0.417000        1.0080           0
  123996 WT8  8411 TIP3 H2   HT     0.417000        1.0080           0
  123997 WT8  8412 TIP3 OH2  OT    -0.834000       15.9994           0
  123998 WT8  8412 TIP3 H1   HT     0.417000        1.0080           0
  123999 WT8  8412 TIP3 H2   HT     0.417000        1.0080           0
  124000 WT8  8415 TIP3 OH2  OT    -0.834000       15.9994           0
  124001 WT8  8415 TIP3 H1   HT     0.417000        1.0080           0
  124002 WT8  8415 TIP3 H2   HT     0.417000        1.0080           0
  124003 WT8  8425 TIP3 OH2  OT    -0.834000       15.9994           0
  124004 WT8  8425 TIP3 H1   HT     0.417000        1.0080           0
  124005 WT8  8425 TIP3 H2   HT     0.417000        1.0080           0
  124006 WT8  8436 TIP3 OH2  OT    -0.834000       15.9994           0
  124007 WT8  8436 TIP3 H1   HT     0.417000        1.0080           0
  124008 WT8  8436 TIP3 H2   HT     0.417000        1.0080           0
  124009 WT8  8441 TIP3 OH2  OT    -0.834000       15.9994           0
  124010 WT8  8441 TIP3 H1   HT     0.417000        1.0080           0
  124011 WT8  8441 TIP3 H2   HT     0.417000        1.0080           0
  124012 WT8  8448 TIP3 OH2  OT    -0.834000       15.9994           0
  124013 WT8  8448 TIP3 H1   HT     0.417000        1.0080           0
  124014 WT8  8448 TIP3 H2   HT     0.417000        1.0080           0
  124015 WT8  8452 TIP3 OH2  OT    -0.834000       15.9994           0
  124016 WT8  8452 TIP3 H1   HT     0.417000        1.0080           0
  124017 WT8  8452 TIP3 H2   HT     0.417000        1.0080           0
  124018 WT8  8457 TIP3 OH2  OT    -0.834000       15.9994           0
  124019 WT8  8457 TIP3 H1   HT     0.417000        1.0080           0
  124020 WT8  8457 TIP3 H2   HT     0.417000        1.0080           0
  124021 WT8  8462 TIP3 OH2  OT    -0.834000       15.9994           0
  124022 WT8  8462 TIP3 H1   HT     0.417000        1.0080           0
  124023 WT8  8462 TIP3 H2   HT     0.417000        1.0080           0
  124024 WT8  8466 TIP3 OH2  OT    -0.834000       15.9994           0
  124025 WT8  8466 TIP3 H1   HT     0.417000        1.0080           0
  124026 WT8  8466 TIP3 H2   HT     0.417000        1.0080           0
  124027 WT8  8468 TIP3 OH2  OT    -0.834000       15.9994           0
  124028 WT8  8468 TIP3 H1   HT     0.417000        1.0080           0
  124029 WT8  8468 TIP3 H2   HT     0.417000        1.0080           0
  124030 WT8  8491 TIP3 OH2  OT    -0.834000       15.9994           0
  124031 WT8  8491 TIP3 H1   HT     0.417000        1.0080           0
  124032 WT8  8491 TIP3 H2   HT     0.417000        1.0080           0
  124033 WT8  8492 TIP3 OH2  OT    -0.834000       15.9994           0
  124034 WT8  8492 TIP3 H1   HT     0.417000        1.0080           0
  124035 WT8  8492 TIP3 H2   HT     0.417000        1.0080           0
  124036 WT8  8509 TIP3 OH2  OT    -0.834000       15.9994           0
  124037 WT8  8509 TIP3 H1   HT     0.417000        1.0080           0
  124038 WT8  8509 TIP3 H2   HT     0.417000        1.0080           0
  124039 WT8  8520 TIP3 OH2  OT    -0.834000       15.9994           0
  124040 WT8  8520 TIP3 H1   HT     0.417000        1.0080           0
  124041 WT8  8520 TIP3 H2   HT     0.417000        1.0080           0
  124042 WT8  8528 TIP3 OH2  OT    -0.834000       15.9994           0
  124043 WT8  8528 TIP3 H1   HT     0.417000        1.0080           0
  124044 WT8  8528 TIP3 H2   HT     0.417000        1.0080           0
  124045 WT8  8534 TIP3 OH2  OT    -0.834000       15.9994           0
  124046 WT8  8534 TIP3 H1   HT     0.417000        1.0080           0
  124047 WT8  8534 TIP3 H2   HT     0.417000        1.0080           0
  124048 WT8  8536 TIP3 OH2  OT    -0.834000       15.9994           0
  124049 WT8  8536 TIP3 H1   HT     0.417000        1.0080           0
  124050 WT8  8536 TIP3 H2   HT     0.417000        1.0080           0
  124051 WT8  8537 TIP3 OH2  OT    -0.834000       15.9994           0
  124052 WT8  8537 TIP3 H1   HT     0.417000        1.0080           0
  124053 WT8  8537 TIP3 H2   HT     0.417000        1.0080           0
  124054 WT8  8548 TIP3 OH2  OT    -0.834000       15.9994           0
  124055 WT8  8548 TIP3 H1   HT     0.417000        1.0080           0
  124056 WT8  8548 TIP3 H2   HT     0.417000        1.0080           0
  124057 WT8  8549 TIP3 OH2  OT    -0.834000       15.9994           0
  124058 WT8  8549 TIP3 H1   HT     0.417000        1.0080           0
  124059 WT8  8549 TIP3 H2   HT     0.417000        1.0080           0
  124060 WT8  8551 TIP3 OH2  OT    -0.834000       15.9994           0
  124061 WT8  8551 TIP3 H1   HT     0.417000        1.0080           0
  124062 WT8  8551 TIP3 H2   HT     0.417000        1.0080           0
  124063 WT8  8555 TIP3 OH2  OT    -0.834000       15.9994           0
  124064 WT8  8555 TIP3 H1   HT     0.417000        1.0080           0
  124065 WT8  8555 TIP3 H2   HT     0.417000        1.0080           0
  124066 WT8  8556 TIP3 OH2  OT    -0.834000       15.9994           0
  124067 WT8  8556 TIP3 H1   HT     0.417000        1.0080           0
  124068 WT8  8556 TIP3 H2   HT     0.417000        1.0080           0
  124069 WT8  8558 TIP3 OH2  OT    -0.834000       15.9994           0
  124070 WT8  8558 TIP3 H1   HT     0.417000        1.0080           0
  124071 WT8  8558 TIP3 H2   HT     0.417000        1.0080           0
  124072 WT8  8564 TIP3 OH2  OT    -0.834000       15.9994           0
  124073 WT8  8564 TIP3 H1   HT     0.417000        1.0080           0
  124074 WT8  8564 TIP3 H2   HT     0.417000        1.0080           0
  124075 WT8  8566 TIP3 OH2  OT    -0.834000       15.9994           0
  124076 WT8  8566 TIP3 H1   HT     0.417000        1.0080           0
  124077 WT8  8566 TIP3 H2   HT     0.417000        1.0080           0
  124078 WT8  8574 TIP3 OH2  OT    -0.834000       15.9994           0
  124079 WT8  8574 TIP3 H1   HT     0.417000        1.0080           0
  124080 WT8  8574 TIP3 H2   HT     0.417000        1.0080           0
  124081 WT8  8576 TIP3 OH2  OT    -0.834000       15.9994           0
  124082 WT8  8576 TIP3 H1   HT     0.417000        1.0080           0
  124083 WT8  8576 TIP3 H2   HT     0.417000        1.0080           0
  124084 WT8  8577 TIP3 OH2  OT    -0.834000       15.9994           0
  124085 WT8  8577 TIP3 H1   HT     0.417000        1.0080           0
  124086 WT8  8577 TIP3 H2   HT     0.417000        1.0080           0
  124087 WT8  8578 TIP3 OH2  OT    -0.834000       15.9994           0
  124088 WT8  8578 TIP3 H1   HT     0.417000        1.0080           0
  124089 WT8  8578 TIP3 H2   HT     0.417000        1.0080           0
  124090 WT8  8579 TIP3 OH2  OT    -0.834000       15.9994           0
  124091 WT8  8579 TIP3 H1   HT     0.417000        1.0080           0
  124092 WT8  8579 TIP3 H2   HT     0.417000        1.0080           0
  124093 WT8  8599 TIP3 OH2  OT    -0.834000       15.9994           0
  124094 WT8  8599 TIP3 H1   HT     0.417000        1.0080           0
  124095 WT8  8599 TIP3 H2   HT     0.417000        1.0080           0
  124096 WT8  8600 TIP3 OH2  OT    -0.834000       15.9994           0
  124097 WT8  8600 TIP3 H1   HT     0.417000        1.0080           0
  124098 WT8  8600 TIP3 H2   HT     0.417000        1.0080           0
  124099 WT8  8613 TIP3 OH2  OT    -0.834000       15.9994           0
  124100 WT8  8613 TIP3 H1   HT     0.417000        1.0080           0
  124101 WT8  8613 TIP3 H2   HT     0.417000        1.0080           0
  124102 WT8  8617 TIP3 OH2  OT    -0.834000       15.9994           0
  124103 WT8  8617 TIP3 H1   HT     0.417000        1.0080           0
  124104 WT8  8617 TIP3 H2   HT     0.417000        1.0080           0
  124105 WT8  8621 TIP3 OH2  OT    -0.834000       15.9994           0
  124106 WT8  8621 TIP3 H1   HT     0.417000        1.0080           0
  124107 WT8  8621 TIP3 H2   HT     0.417000        1.0080           0
  124108 WT8  8622 TIP3 OH2  OT    -0.834000       15.9994           0
  124109 WT8  8622 TIP3 H1   HT     0.417000        1.0080           0
  124110 WT8  8622 TIP3 H2   HT     0.417000        1.0080           0
  124111 WT8  8624 TIP3 OH2  OT    -0.834000       15.9994           0
  124112 WT8  8624 TIP3 H1   HT     0.417000        1.0080           0
  124113 WT8  8624 TIP3 H2   HT     0.417000        1.0080           0
  124114 WT8  8632 TIP3 OH2  OT    -0.834000       15.9994           0
  124115 WT8  8632 TIP3 H1   HT     0.417000        1.0080           0
  124116 WT8  8632 TIP3 H2   HT     0.417000        1.0080           0
  124117 WT8  8642 TIP3 OH2  OT    -0.834000       15.9994           0
  124118 WT8  8642 TIP3 H1   HT     0.417000        1.0080           0
  124119 WT8  8642 TIP3 H2   HT     0.417000        1.0080           0
  124120 WT8  8645 TIP3 OH2  OT    -0.834000       15.9994           0
  124121 WT8  8645 TIP3 H1   HT     0.417000        1.0080           0
  124122 WT8  8645 TIP3 H2   HT     0.417000        1.0080           0
  124123 WT8  8653 TIP3 OH2  OT    -0.834000       15.9994           0
  124124 WT8  8653 TIP3 H1   HT     0.417000        1.0080           0
  124125 WT8  8653 TIP3 H2   HT     0.417000        1.0080           0
  124126 WT8  8658 TIP3 OH2  OT    -0.834000       15.9994           0
  124127 WT8  8658 TIP3 H1   HT     0.417000        1.0080           0
  124128 WT8  8658 TIP3 H2   HT     0.417000        1.0080           0
  124129 WT8  8661 TIP3 OH2  OT    -0.834000       15.9994           0
  124130 WT8  8661 TIP3 H1   HT     0.417000        1.0080           0
  124131 WT8  8661 TIP3 H2   HT     0.417000        1.0080           0
  124132 WT8  8662 TIP3 OH2  OT    -0.834000       15.9994           0
  124133 WT8  8662 TIP3 H1   HT     0.417000        1.0080           0
  124134 WT8  8662 TIP3 H2   HT     0.417000        1.0080           0
  124135 WT8  8668 TIP3 OH2  OT    -0.834000       15.9994           0
  124136 WT8  8668 TIP3 H1   HT     0.417000        1.0080           0
  124137 WT8  8668 TIP3 H2   HT     0.417000        1.0080           0
  124138 WT8  8675 TIP3 OH2  OT    -0.834000       15.9994           0
  124139 WT8  8675 TIP3 H1   HT     0.417000        1.0080           0
  124140 WT8  8675 TIP3 H2   HT     0.417000        1.0080           0
  124141 WT8  8679 TIP3 OH2  OT    -0.834000       15.9994           0
  124142 WT8  8679 TIP3 H1   HT     0.417000        1.0080           0
  124143 WT8  8679 TIP3 H2   HT     0.417000        1.0080           0
  124144 WT8  8683 TIP3 OH2  OT    -0.834000       15.9994           0
  124145 WT8  8683 TIP3 H1   HT     0.417000        1.0080           0
  124146 WT8  8683 TIP3 H2   HT     0.417000        1.0080           0
  124147 WT8  8687 TIP3 OH2  OT    -0.834000       15.9994           0
  124148 WT8  8687 TIP3 H1   HT     0.417000        1.0080           0
  124149 WT8  8687 TIP3 H2   HT     0.417000        1.0080           0
  124150 WT8  8721 TIP3 OH2  OT    -0.834000       15.9994           0
  124151 WT8  8721 TIP3 H1   HT     0.417000        1.0080           0
  124152 WT8  8721 TIP3 H2   HT     0.417000        1.0080           0
  124153 WT8  8748 TIP3 OH2  OT    -0.834000       15.9994           0
  124154 WT8  8748 TIP3 H1   HT     0.417000        1.0080           0
  124155 WT8  8748 TIP3 H2   HT     0.417000        1.0080           0
  124156 WT8  8760 TIP3 OH2  OT    -0.834000       15.9994           0
  124157 WT8  8760 TIP3 H1   HT     0.417000        1.0080           0
  124158 WT8  8760 TIP3 H2   HT     0.417000        1.0080           0
  124159 WT8  8780 TIP3 OH2  OT    -0.834000       15.9994           0
  124160 WT8  8780 TIP3 H1   HT     0.417000        1.0080           0
  124161 WT8  8780 TIP3 H2   HT     0.417000        1.0080           0
  124162 WT8  8794 TIP3 OH2  OT    -0.834000       15.9994           0
  124163 WT8  8794 TIP3 H1   HT     0.417000        1.0080           0
  124164 WT8  8794 TIP3 H2   HT     0.417000        1.0080           0
  124165 WT8  8801 TIP3 OH2  OT    -0.834000       15.9994           0
  124166 WT8  8801 TIP3 H1   HT     0.417000        1.0080           0
  124167 WT8  8801 TIP3 H2   HT     0.417000        1.0080           0
  124168 WT8  8813 TIP3 OH2  OT    -0.834000       15.9994           0
  124169 WT8  8813 TIP3 H1   HT     0.417000        1.0080           0
  124170 WT8  8813 TIP3 H2   HT     0.417000        1.0080           0
  124171 WT8  8822 TIP3 OH2  OT    -0.834000       15.9994           0
  124172 WT8  8822 TIP3 H1   HT     0.417000        1.0080           0
  124173 WT8  8822 TIP3 H2   HT     0.417000        1.0080           0
  124174 WT8  8829 TIP3 OH2  OT    -0.834000       15.9994           0
  124175 WT8  8829 TIP3 H1   HT     0.417000        1.0080           0
  124176 WT8  8829 TIP3 H2   HT     0.417000        1.0080           0
  124177 WT8  8833 TIP3 OH2  OT    -0.834000       15.9994           0
  124178 WT8  8833 TIP3 H1   HT     0.417000        1.0080           0
  124179 WT8  8833 TIP3 H2   HT     0.417000        1.0080           0
  124180 WT8  8836 TIP3 OH2  OT    -0.834000       15.9994           0
  124181 WT8  8836 TIP3 H1   HT     0.417000        1.0080           0
  124182 WT8  8836 TIP3 H2   HT     0.417000        1.0080           0
  124183 WT8  8843 TIP3 OH2  OT    -0.834000       15.9994           0
  124184 WT8  8843 TIP3 H1   HT     0.417000        1.0080           0
  124185 WT8  8843 TIP3 H2   HT     0.417000        1.0080           0
  124186 WT8  8845 TIP3 OH2  OT    -0.834000       15.9994           0
  124187 WT8  8845 TIP3 H1   HT     0.417000        1.0080           0
  124188 WT8  8845 TIP3 H2   HT     0.417000        1.0080           0
  124189 WT8  8848 TIP3 OH2  OT    -0.834000       15.9994           0
  124190 WT8  8848 TIP3 H1   HT     0.417000        1.0080           0
  124191 WT8  8848 TIP3 H2   HT     0.417000        1.0080           0
  124192 WT8  8852 TIP3 OH2  OT    -0.834000       15.9994           0
  124193 WT8  8852 TIP3 H1   HT     0.417000        1.0080           0
  124194 WT8  8852 TIP3 H2   HT     0.417000        1.0080           0
  124195 WT8  8865 TIP3 OH2  OT    -0.834000       15.9994           0
  124196 WT8  8865 TIP3 H1   HT     0.417000        1.0080           0
  124197 WT8  8865 TIP3 H2   HT     0.417000        1.0080           0
  124198 WT8  8869 TIP3 OH2  OT    -0.834000       15.9994           0
  124199 WT8  8869 TIP3 H1   HT     0.417000        1.0080           0
  124200 WT8  8869 TIP3 H2   HT     0.417000        1.0080           0
  124201 WT8  8870 TIP3 OH2  OT    -0.834000       15.9994           0
  124202 WT8  8870 TIP3 H1   HT     0.417000        1.0080           0
  124203 WT8  8870 TIP3 H2   HT     0.417000        1.0080           0
  124204 WT8  8886 TIP3 OH2  OT    -0.834000       15.9994           0
  124205 WT8  8886 TIP3 H1   HT     0.417000        1.0080           0
  124206 WT8  8886 TIP3 H2   HT     0.417000        1.0080           0
  124207 WT8  8887 TIP3 OH2  OT    -0.834000       15.9994           0
  124208 WT8  8887 TIP3 H1   HT     0.417000        1.0080           0
  124209 WT8  8887 TIP3 H2   HT     0.417000        1.0080           0
  124210 WT8  8892 TIP3 OH2  OT    -0.834000       15.9994           0
  124211 WT8  8892 TIP3 H1   HT     0.417000        1.0080           0
  124212 WT8  8892 TIP3 H2   HT     0.417000        1.0080           0
  124213 WT8  8893 TIP3 OH2  OT    -0.834000       15.9994           0
  124214 WT8  8893 TIP3 H1   HT     0.417000        1.0080           0
  124215 WT8  8893 TIP3 H2   HT     0.417000        1.0080           0
  124216 WT8  8894 TIP3 OH2  OT    -0.834000       15.9994           0
  124217 WT8  8894 TIP3 H1   HT     0.417000        1.0080           0
  124218 WT8  8894 TIP3 H2   HT     0.417000        1.0080           0
  124219 WT8  8895 TIP3 OH2  OT    -0.834000       15.9994           0
  124220 WT8  8895 TIP3 H1   HT     0.417000        1.0080           0
  124221 WT8  8895 TIP3 H2   HT     0.417000        1.0080           0
  124222 WT8  8896 TIP3 OH2  OT    -0.834000       15.9994           0
  124223 WT8  8896 TIP3 H1   HT     0.417000        1.0080           0
  124224 WT8  8896 TIP3 H2   HT     0.417000        1.0080           0
  124225 WT8  8898 TIP3 OH2  OT    -0.834000       15.9994           0
  124226 WT8  8898 TIP3 H1   HT     0.417000        1.0080           0
  124227 WT8  8898 TIP3 H2   HT     0.417000        1.0080           0
  124228 WT8  8903 TIP3 OH2  OT    -0.834000       15.9994           0
  124229 WT8  8903 TIP3 H1   HT     0.417000        1.0080           0
  124230 WT8  8903 TIP3 H2   HT     0.417000        1.0080           0
  124231 WT8  8905 TIP3 OH2  OT    -0.834000       15.9994           0
  124232 WT8  8905 TIP3 H1   HT     0.417000        1.0080           0
  124233 WT8  8905 TIP3 H2   HT     0.417000        1.0080           0
  124234 WT8  8908 TIP3 OH2  OT    -0.834000       15.9994           0
  124235 WT8  8908 TIP3 H1   HT     0.417000        1.0080           0
  124236 WT8  8908 TIP3 H2   HT     0.417000        1.0080           0
  124237 WT8  8918 TIP3 OH2  OT    -0.834000       15.9994           0
  124238 WT8  8918 TIP3 H1   HT     0.417000        1.0080           0
  124239 WT8  8918 TIP3 H2   HT     0.417000        1.0080           0
  124240 WT8  8926 TIP3 OH2  OT    -0.834000       15.9994           0
  124241 WT8  8926 TIP3 H1   HT     0.417000        1.0080           0
  124242 WT8  8926 TIP3 H2   HT     0.417000        1.0080           0
  124243 WT8  8927 TIP3 OH2  OT    -0.834000       15.9994           0
  124244 WT8  8927 TIP3 H1   HT     0.417000        1.0080           0
  124245 WT8  8927 TIP3 H2   HT     0.417000        1.0080           0
  124246 WT8  8928 TIP3 OH2  OT    -0.834000       15.9994           0
  124247 WT8  8928 TIP3 H1   HT     0.417000        1.0080           0
  124248 WT8  8928 TIP3 H2   HT     0.417000        1.0080           0
  124249 WT8  8931 TIP3 OH2  OT    -0.834000       15.9994           0
  124250 WT8  8931 TIP3 H1   HT     0.417000        1.0080           0
  124251 WT8  8931 TIP3 H2   HT     0.417000        1.0080           0
  124252 WT8  8932 TIP3 OH2  OT    -0.834000       15.9994           0
  124253 WT8  8932 TIP3 H1   HT     0.417000        1.0080           0
  124254 WT8  8932 TIP3 H2   HT     0.417000        1.0080           0
  124255 WT8  8935 TIP3 OH2  OT    -0.834000       15.9994           0
  124256 WT8  8935 TIP3 H1   HT     0.417000        1.0080           0
  124257 WT8  8935 TIP3 H2   HT     0.417000        1.0080           0
  124258 WT8  8937 TIP3 OH2  OT    -0.834000       15.9994           0
  124259 WT8  8937 TIP3 H1   HT     0.417000        1.0080           0
  124260 WT8  8937 TIP3 H2   HT     0.417000        1.0080           0
  124261 WT8  8939 TIP3 OH2  OT    -0.834000       15.9994           0
  124262 WT8  8939 TIP3 H1   HT     0.417000        1.0080           0
  124263 WT8  8939 TIP3 H2   HT     0.417000        1.0080           0
  124264 WT8  8940 TIP3 OH2  OT    -0.834000       15.9994           0
  124265 WT8  8940 TIP3 H1   HT     0.417000        1.0080           0
  124266 WT8  8940 TIP3 H2   HT     0.417000        1.0080           0
  124267 WT8  8949 TIP3 OH2  OT    -0.834000       15.9994           0
  124268 WT8  8949 TIP3 H1   HT     0.417000        1.0080           0
  124269 WT8  8949 TIP3 H2   HT     0.417000        1.0080           0
  124270 WT8  8952 TIP3 OH2  OT    -0.834000       15.9994           0
  124271 WT8  8952 TIP3 H1   HT     0.417000        1.0080           0
  124272 WT8  8952 TIP3 H2   HT     0.417000        1.0080           0
  124273 WT8  8954 TIP3 OH2  OT    -0.834000       15.9994           0
  124274 WT8  8954 TIP3 H1   HT     0.417000        1.0080           0
  124275 WT8  8954 TIP3 H2   HT     0.417000        1.0080           0
  124276 WT8  8956 TIP3 OH2  OT    -0.834000       15.9994           0
  124277 WT8  8956 TIP3 H1   HT     0.417000        1.0080           0
  124278 WT8  8956 TIP3 H2   HT     0.417000        1.0080           0
  124279 WT8  8960 TIP3 OH2  OT    -0.834000       15.9994           0
  124280 WT8  8960 TIP3 H1   HT     0.417000        1.0080           0
  124281 WT8  8960 TIP3 H2   HT     0.417000        1.0080           0
  124282 WT8  8961 TIP3 OH2  OT    -0.834000       15.9994           0
  124283 WT8  8961 TIP3 H1   HT     0.417000        1.0080           0
  124284 WT8  8961 TIP3 H2   HT     0.417000        1.0080           0
  124285 WT8  8970 TIP3 OH2  OT    -0.834000       15.9994           0
  124286 WT8  8970 TIP3 H1   HT     0.417000        1.0080           0
  124287 WT8  8970 TIP3 H2   HT     0.417000        1.0080           0
  124288 WT8  8972 TIP3 OH2  OT    -0.834000       15.9994           0
  124289 WT8  8972 TIP3 H1   HT     0.417000        1.0080           0
  124290 WT8  8972 TIP3 H2   HT     0.417000        1.0080           0
  124291 WT8  8973 TIP3 OH2  OT    -0.834000       15.9994           0
  124292 WT8  8973 TIP3 H1   HT     0.417000        1.0080           0
  124293 WT8  8973 TIP3 H2   HT     0.417000        1.0080           0
  124294 WT8  8976 TIP3 OH2  OT    -0.834000       15.9994           0
  124295 WT8  8976 TIP3 H1   HT     0.417000        1.0080           0
  124296 WT8  8976 TIP3 H2   HT     0.417000        1.0080           0
  124297 WT8  8977 TIP3 OH2  OT    -0.834000       15.9994           0
  124298 WT8  8977 TIP3 H1   HT     0.417000        1.0080           0
  124299 WT8  8977 TIP3 H2   HT     0.417000        1.0080           0
  124300 WT8  8978 TIP3 OH2  OT    -0.834000       15.9994           0
  124301 WT8  8978 TIP3 H1   HT     0.417000        1.0080           0
  124302 WT8  8978 TIP3 H2   HT     0.417000        1.0080           0
  124303 WT8  8988 TIP3 OH2  OT    -0.834000       15.9994           0
  124304 WT8  8988 TIP3 H1   HT     0.417000        1.0080           0
  124305 WT8  8988 TIP3 H2   HT     0.417000        1.0080           0
  124306 WT8  8994 TIP3 OH2  OT    -0.834000       15.9994           0
  124307 WT8  8994 TIP3 H1   HT     0.417000        1.0080           0
  124308 WT8  8994 TIP3 H2   HT     0.417000        1.0080           0
  124309 WT8  9001 TIP3 OH2  OT    -0.834000       15.9994           0
  124310 WT8  9001 TIP3 H1   HT     0.417000        1.0080           0
  124311 WT8  9001 TIP3 H2   HT     0.417000        1.0080           0
  124312 WT8  9013 TIP3 OH2  OT    -0.834000       15.9994           0
  124313 WT8  9013 TIP3 H1   HT     0.417000        1.0080           0
  124314 WT8  9013 TIP3 H2   HT     0.417000        1.0080           0
  124315 WT8  9015 TIP3 OH2  OT    -0.834000       15.9994           0
  124316 WT8  9015 TIP3 H1   HT     0.417000        1.0080           0
  124317 WT8  9015 TIP3 H2   HT     0.417000        1.0080           0
  124318 WT8  9017 TIP3 OH2  OT    -0.834000       15.9994           0
  124319 WT8  9017 TIP3 H1   HT     0.417000        1.0080           0
  124320 WT8  9017 TIP3 H2   HT     0.417000        1.0080           0
  124321 WT8  9034 TIP3 OH2  OT    -0.834000       15.9994           0
  124322 WT8  9034 TIP3 H1   HT     0.417000        1.0080           0
  124323 WT8  9034 TIP3 H2   HT     0.417000        1.0080           0
  124324 WT8  9035 TIP3 OH2  OT    -0.834000       15.9994           0
  124325 WT8  9035 TIP3 H1   HT     0.417000        1.0080           0
  124326 WT8  9035 TIP3 H2   HT     0.417000        1.0080           0
  124327 WT8  9037 TIP3 OH2  OT    -0.834000       15.9994           0
  124328 WT8  9037 TIP3 H1   HT     0.417000        1.0080           0
  124329 WT8  9037 TIP3 H2   HT     0.417000        1.0080           0
  124330 WT8  9039 TIP3 OH2  OT    -0.834000       15.9994           0
  124331 WT8  9039 TIP3 H1   HT     0.417000        1.0080           0
  124332 WT8  9039 TIP3 H2   HT     0.417000        1.0080           0
  124333 WT8  9047 TIP3 OH2  OT    -0.834000       15.9994           0
  124334 WT8  9047 TIP3 H1   HT     0.417000        1.0080           0
  124335 WT8  9047 TIP3 H2   HT     0.417000        1.0080           0
  124336 WT8  9054 TIP3 OH2  OT    -0.834000       15.9994           0
  124337 WT8  9054 TIP3 H1   HT     0.417000        1.0080           0
  124338 WT8  9054 TIP3 H2   HT     0.417000        1.0080           0
  124339 WT8  9055 TIP3 OH2  OT    -0.834000       15.9994           0
  124340 WT8  9055 TIP3 H1   HT     0.417000        1.0080           0
  124341 WT8  9055 TIP3 H2   HT     0.417000        1.0080           0
  124342 WT8  9056 TIP3 OH2  OT    -0.834000       15.9994           0
  124343 WT8  9056 TIP3 H1   HT     0.417000        1.0080           0
  124344 WT8  9056 TIP3 H2   HT     0.417000        1.0080           0
  124345 WT8  9057 TIP3 OH2  OT    -0.834000       15.9994           0
  124346 WT8  9057 TIP3 H1   HT     0.417000        1.0080           0
  124347 WT8  9057 TIP3 H2   HT     0.417000        1.0080           0
  124348 WT8  9058 TIP3 OH2  OT    -0.834000       15.9994           0
  124349 WT8  9058 TIP3 H1   HT     0.417000        1.0080           0
  124350 WT8  9058 TIP3 H2   HT     0.417000        1.0080           0
  124351 WT8  9065 TIP3 OH2  OT    -0.834000       15.9994           0
  124352 WT8  9065 TIP3 H1   HT     0.417000        1.0080           0
  124353 WT8  9065 TIP3 H2   HT     0.417000        1.0080           0
  124354 WT8  9079 TIP3 OH2  OT    -0.834000       15.9994           0
  124355 WT8  9079 TIP3 H1   HT     0.417000        1.0080           0
  124356 WT8  9079 TIP3 H2   HT     0.417000        1.0080           0
  124357 WT8  9082 TIP3 OH2  OT    -0.834000       15.9994           0
  124358 WT8  9082 TIP3 H1   HT     0.417000        1.0080           0
  124359 WT8  9082 TIP3 H2   HT     0.417000        1.0080           0
  124360 WT8  9084 TIP3 OH2  OT    -0.834000       15.9994           0
  124361 WT8  9084 TIP3 H1   HT     0.417000        1.0080           0
  124362 WT8  9084 TIP3 H2   HT     0.417000        1.0080           0
  124363 WT8  9085 TIP3 OH2  OT    -0.834000       15.9994           0
  124364 WT8  9085 TIP3 H1   HT     0.417000        1.0080           0
  124365 WT8  9085 TIP3 H2   HT     0.417000        1.0080           0
  124366 WT8  9093 TIP3 OH2  OT    -0.834000       15.9994           0
  124367 WT8  9093 TIP3 H1   HT     0.417000        1.0080           0
  124368 WT8  9093 TIP3 H2   HT     0.417000        1.0080           0
  124369 WT8  9096 TIP3 OH2  OT    -0.834000       15.9994           0
  124370 WT8  9096 TIP3 H1   HT     0.417000        1.0080           0
  124371 WT8  9096 TIP3 H2   HT     0.417000        1.0080           0
  124372 WT8  9102 TIP3 OH2  OT    -0.834000       15.9994           0
  124373 WT8  9102 TIP3 H1   HT     0.417000        1.0080           0
  124374 WT8  9102 TIP3 H2   HT     0.417000        1.0080           0
  124375 WT8  9105 TIP3 OH2  OT    -0.834000       15.9994           0
  124376 WT8  9105 TIP3 H1   HT     0.417000        1.0080           0
  124377 WT8  9105 TIP3 H2   HT     0.417000        1.0080           0
  124378 WT8  9126 TIP3 OH2  OT    -0.834000       15.9994           0
  124379 WT8  9126 TIP3 H1   HT     0.417000        1.0080           0
  124380 WT8  9126 TIP3 H2   HT     0.417000        1.0080           0
  124381 WT8  9127 TIP3 OH2  OT    -0.834000       15.9994           0
  124382 WT8  9127 TIP3 H1   HT     0.417000        1.0080           0
  124383 WT8  9127 TIP3 H2   HT     0.417000        1.0080           0
  124384 WT8  9128 TIP3 OH2  OT    -0.834000       15.9994           0
  124385 WT8  9128 TIP3 H1   HT     0.417000        1.0080           0
  124386 WT8  9128 TIP3 H2   HT     0.417000        1.0080           0
  124387 WT8  9144 TIP3 OH2  OT    -0.834000       15.9994           0
  124388 WT8  9144 TIP3 H1   HT     0.417000        1.0080           0
  124389 WT8  9144 TIP3 H2   HT     0.417000        1.0080           0
  124390 WT8  9165 TIP3 OH2  OT    -0.834000       15.9994           0
  124391 WT8  9165 TIP3 H1   HT     0.417000        1.0080           0
  124392 WT8  9165 TIP3 H2   HT     0.417000        1.0080           0
  124393 WT8  9170 TIP3 OH2  OT    -0.834000       15.9994           0
  124394 WT8  9170 TIP3 H1   HT     0.417000        1.0080           0
  124395 WT8  9170 TIP3 H2   HT     0.417000        1.0080           0
  124396 WT8  9188 TIP3 OH2  OT    -0.834000       15.9994           0
  124397 WT8  9188 TIP3 H1   HT     0.417000        1.0080           0
  124398 WT8  9188 TIP3 H2   HT     0.417000        1.0080           0
  124399 WT8  9212 TIP3 OH2  OT    -0.834000       15.9994           0
  124400 WT8  9212 TIP3 H1   HT     0.417000        1.0080           0
  124401 WT8  9212 TIP3 H2   HT     0.417000        1.0080           0
  124402 WT8  9226 TIP3 OH2  OT    -0.834000       15.9994           0
  124403 WT8  9226 TIP3 H1   HT     0.417000        1.0080           0
  124404 WT8  9226 TIP3 H2   HT     0.417000        1.0080           0
  124405 WT8  9234 TIP3 OH2  OT    -0.834000       15.9994           0
  124406 WT8  9234 TIP3 H1   HT     0.417000        1.0080           0
  124407 WT8  9234 TIP3 H2   HT     0.417000        1.0080           0
  124408 WT8  9241 TIP3 OH2  OT    -0.834000       15.9994           0
  124409 WT8  9241 TIP3 H1   HT     0.417000        1.0080           0
  124410 WT8  9241 TIP3 H2   HT     0.417000        1.0080           0
  124411 WT8  9250 TIP3 OH2  OT    -0.834000       15.9994           0
  124412 WT8  9250 TIP3 H1   HT     0.417000        1.0080           0
  124413 WT8  9250 TIP3 H2   HT     0.417000        1.0080           0
  124414 ION  1    SOD  SOD  SOD    1.000000       22.9898           0
  124415 ION  2    SOD  SOD  SOD    1.000000       22.9898           0
  124416 ION  3    SOD  SOD  SOD    1.000000       22.9898           0
  124417 ION  4    SOD  SOD  SOD    1.000000       22.9898           0
  124418 ION  5    SOD  SOD  SOD    1.000000       22.9898           0
  124419 ION  6    SOD  SOD  SOD    1.000000       22.9898           0
  124420 ION  7    SOD  SOD  SOD    1.000000       22.9898           0
  124421 ION  8    SOD  SOD  SOD    1.000000       22.9898           0
  124422 ION  9    SOD  SOD  SOD    1.000000       22.9898           0
  124423 ION  10   SOD  SOD  SOD    1.000000       22.9898           0
  124424 ION  11   SOD  SOD  SOD    1.000000       22.9898           0
  124425 ION  12   SOD  SOD  SOD    1.000000       22.9898           0
  124426 ION  13   SOD  SOD  SOD    1.000000       22.9898           0
  124427 ION  14   SOD  SOD  SOD    1.000000       22.9898           0
  124428 ION  15   SOD  SOD  SOD    1.000000       22.9898           0
  124429 ION  16   SOD  SOD  SOD    1.000000       22.9898           0
  124430 ION  17   SOD  SOD  SOD    1.000000       22.9898           0
  124431 ION  18   SOD  SOD  SOD    1.000000       22.9898           0
  124432 ION  19   SOD  SOD  SOD    1.000000       22.9898           0
  124433 ION  20   SOD  SOD  SOD    1.000000       22.9898           0
  124434 ION  21   SOD  SOD  SOD    1.000000       22.9898           0
  124435 ION  22   SOD  SOD  SOD    1.000000       22.9898           0
  124436 ION  23   SOD  SOD  SOD    1.000000       22.9898           0
  124437 ION  24   SOD  SOD  SOD    1.000000       22.9898           0
  124438 ION  25   SOD  SOD  SOD    1.000000       22.9898           0
  124439 ION  26   SOD  SOD  SOD    1.000000       22.9898           0
  124440 ION  27   SOD  SOD  SOD    1.000000       22.9898           0
  124441 ION  28   SOD  SOD  SOD    1.000000       22.9898           0
  124442 ION  29   SOD  SOD  SOD    1.000000       22.9898           0
  124443 ION  30   SOD  SOD  SOD    1.000000       22.9898           0
  124444 ION  31   SOD  SOD  SOD    1.000000       22.9898           0
  124445 ION  32   SOD  SOD  SOD    1.000000       22.9898           0
  124446 ION  33   SOD  SOD  SOD    1.000000       22.9898           0
  124447 ION  34   SOD  SOD  SOD    1.000000       22.9898           0
  124448 ION  35   SOD  SOD  SOD    1.000000       22.9898           0
  124449 ION  36   SOD  SOD  SOD    1.000000       22.9898           0
  124450 ION  37   SOD  SOD  SOD    1.000000       22.9898           0
  124451 ION  38   SOD  SOD  SOD    1.000000       22.9898           0
  124452 ION  39   SOD  SOD  SOD    1.000000       22.9898           0
  124453 ION  40   SOD  SOD  SOD    1.000000       22.9898           0
  124454 ION  41   SOD  SOD  SOD    1.000000       22.9898           0
  124455 ION  42   SOD  SOD  SOD    1.000000       22.9898           0
  124456 ION  43   SOD  SOD  SOD    1.000000       22.9898           0
  124457 ION  44   SOD  SOD  SOD    1.000000       22.9898           0
  124458 ION  45   SOD  SOD  SOD    1.000000       22.9898           0
  124459 ION  46   SOD  SOD  SOD    1.000000       22.9898           0
  124460 ION  47   SOD  SOD  SOD    1.000000       22.9898           0
  124461 ION  48   SOD  SOD  SOD    1.000000       22.9898           0
  124462 ION  49   SOD  SOD  SOD    1.000000       22.9898           0
  124463 ION  50   SOD  SOD  SOD    1.000000       22.9898           0
  124464 ION  51   SOD  SOD  SOD    1.000000       22.9898           0
  124465 ION  52   SOD  SOD  SOD    1.000000       22.9898           0
  124466 ION  53   SOD  SOD  SOD    1.000000       22.9898           0
  124467 ION  54   SOD  SOD  SOD    1.000000       22.9898           0
  124468 ION  55   SOD  SOD  SOD    1.000000       22.9898           0
  124469 ION  56   SOD  SOD  SOD    1.000000       22.9898           0
  124470 ION  57   SOD  SOD  SOD    1.000000       22.9898           0
  124471 ION  58   SOD  SOD  SOD    1.000000       22.9898           0
  124472 ION  59   SOD  SOD  SOD    1.000000       22.9898           0
  124473 ION  60   SOD  SOD  SOD    1.000000       22.9898           0
  124474 ION  61   SOD  SOD  SOD    1.000000       22.9898           0
  124475 ION  62   SOD  SOD  SOD    1.000000       22.9898           0
  124476 ION  63   SOD  SOD  SOD    1.000000       22.9898           0
  124477 ION  64   SOD  SOD  SOD    1.000000       22.9898           0
  124478 ION  65   SOD  SOD  SOD    1.000000       22.9898           0
  124479 ION  66   SOD  SOD  SOD    1.000000       22.9898           0
  124480 ION  67   SOD  SOD  SOD    1.000000       22.9898           0
  124481 ION  68   SOD  SOD  SOD    1.000000       22.9898           0
  124482 ION  69   SOD  SOD  SOD    1.000000       22.9898           0
  124483 ION  70   SOD  SOD  SOD    1.000000       22.9898           0
  124484 ION  71   SOD  SOD  SOD    1.000000       22.9898           0
  124485 ION  72   SOD  SOD  SOD    1.000000       22.9898           0
  124486 ION  73   SOD  SOD  SOD    1.000000       22.9898           0
  124487 ION  74   SOD  SOD  SOD    1.000000       22.9898           0
  124488 ION  75   SOD  SOD  SOD    1.000000       22.9898           0
  124489 ION  76   SOD  SOD  SOD    1.000000       22.9898           0
  124490 ION  77   SOD  SOD  SOD    1.000000       22.9898           0
  124491 ION  78   SOD  SOD  SOD    1.000000       22.9898           0
  124492 ION  79   SOD  SOD  SOD    1.000000       22.9898           0
  124493 ION  80   SOD  SOD  SOD    1.000000       22.9898           0
  124494 ION  81   SOD  SOD  SOD    1.000000       22.9898           0
  124495 ION  82   SOD  SOD  SOD    1.000000       22.9898           0
  124496 ION  83   SOD  SOD  SOD    1.000000       22.9898           0
  124497 ION  84   SOD  SOD  SOD    1.000000       22.9898           0
  124498 ION  85   SOD  SOD  SOD    1.000000       22.9898           0
  124499 ION  86   SOD  SOD  SOD    1.000000       22.9898           0
  124500 ION  87   SOD  SOD  SOD    1.000000       22.9898           0
  124501 ION  88   SOD  SOD  SOD    1.000000       22.9898           0
  124502 ION  89   SOD  SOD  SOD    1.000000       22.9898           0
  124503 ION  90   SOD  SOD  SOD    1.000000       22.9898           0
  124504 ION  91   SOD  SOD  SOD    1.000000       22.9898           0
  124505 ION  92   SOD  SOD  SOD    1.000000       22.9898           0
  124506 ION  93   SOD  SOD  SOD    1.000000       22.9898           0
  124507 ION  94   SOD  SOD  SOD    1.000000       22.9898           0
  124508 ION  95   SOD  SOD  SOD    1.000000       22.9898           0
  124509 ION  96   SOD  SOD  SOD    1.000000       22.9898           0
  124510 ION  97   SOD  SOD  SOD    1.000000       22.9898           0
  124511 ION  98   SOD  SOD  SOD    1.000000       22.9898           0
  124512 ION  99   SOD  SOD  SOD    1.000000       22.9898           0
  124513 ION  100  SOD  SOD  SOD    1.000000       22.9898           0
  124514 ION  101  SOD  SOD  SOD    1.000000       22.9898           0
  124515 ION  102  SOD  SOD  SOD    1.000000       22.9898           0
  124516 ION  103  SOD  SOD  SOD    1.000000       22.9898           0
  124517 ION  104  SOD  SOD  SOD    1.000000       22.9898           0
  124518 ION  105  SOD  SOD  SOD    1.000000       22.9898           0
  124519 ION  106  SOD  SOD  SOD    1.000000       22.9898           0
  124520 ION  107  SOD  SOD  SOD    1.000000       22.9898           0
  124521 ION  108  SOD  SOD  SOD    1.000000       22.9898           0
  124522 ION  109  SOD  SOD  SOD    1.000000       22.9898           0
  124523 ION  110  SOD  SOD  SOD    1.000000       22.9898           0
  124524 ION  111  SOD  SOD  SOD    1.000000       22.9898           0
  124525 ION  112  SOD  SOD  SOD    1.000000       22.9898           0
  124526 ION  113  SOD  SOD  SOD    1.000000       22.9898           0
  124527 ION  114  CLA  CLA  CLA   -1.000000       35.4500           0
  124528 ION  115  CLA  CLA  CLA   -1.000000       35.4500           0
  124529 ION  116  CLA  CLA  CLA   -1.000000       35.4500           0
  124530 ION  117  CLA  CLA  CLA   -1.000000       35.4500           0
  124531 ION  118  CLA  CLA  CLA   -1.000000       35.4500           0
  124532 ION  119  CLA  CLA  CLA   -1.000000       35.4500           0
  124533 ION  120  CLA  CLA  CLA   -1.000000       35.4500           0
  124534 ION  121  CLA  CLA  CLA   -1.000000       35.4500           0
  124535 ION  122  CLA  CLA  CLA   -1.000000       35.4500           0
  124536 ION  123  CLA  CLA  CLA   -1.000000       35.4500           0
  124537 ION  124  CLA  CLA  CLA   -1.000000       35.4500           0
  124538 ION  125  CLA  CLA  CLA   -1.000000       35.4500           0
  124539 ION  126  CLA  CLA  CLA   -1.000000       35.4500           0
  124540 ION  127  CLA  CLA  CLA   -1.000000       35.4500           0
  124541 ION  128  CLA  CLA  CLA   -1.000000       35.4500           0
  124542 ION  129  CLA  CLA  CLA   -1.000000       35.4500           0
  124543 ION  130  CLA  CLA  CLA   -1.000000       35.4500           0
  124544 ION  131  CLA  CLA  CLA   -1.000000       35.4500           0
  124545 ION  132  CLA  CLA  CLA   -1.000000       35.4500           0
  124546 ION  133  CLA  CLA  CLA   -1.000000       35.4500           0
  124547 ION  134  CLA  CLA  CLA   -1.000000       35.4500           0
  124548 ION  135  CLA  CLA  CLA   -1.000000       35.4500           0
  124549 ION  136  CLA  CLA  CLA   -1.000000       35.4500           0
  124550 ION  137  CLA  CLA  CLA   -1.000000       35.4500           0
  124551 ION  138  CLA  CLA  CLA   -1.000000       35.4500           0
  124552 ION  139  CLA  CLA  CLA   -1.000000       35.4500           0
  124553 ION  140  CLA  CLA  CLA   -1.000000       35.4500           0
  124554 ION  141  CLA  CLA  CLA   -1.000000       35.4500           0
  124555 ION  142  CLA  CLA  CLA   -1.000000       35.4500           0
  124556 ION  143  CLA  CLA  CLA   -1.000000       35.4500           0
  124557 ION  144  CLA  CLA  CLA   -1.000000       35.4500           0
  124558 ION  145  CLA  CLA  CLA   -1.000000       35.4500           0
  124559 ION  146  CLA  CLA  CLA   -1.000000       35.4500           0
  124560 ION  147  CLA  CLA  CLA   -1.000000       35.4500           0
  124561 ION  148  CLA  CLA  CLA   -1.000000       35.4500           0
  124562 ION  149  CLA  CLA  CLA   -1.000000       35.4500           0
  124563 ION  150  CLA  CLA  CLA   -1.000000       35.4500           0
  124564 ION  151  CLA  CLA  CLA   -1.000000       35.4500           0
  124565 ION  152  CLA  CLA  CLA   -1.000000       35.4500           0
  124566 ION  153  CLA  CLA  CLA   -1.000000       35.4500           0
  124567 ION  154  CLA  CLA  CLA   -1.000000       35.4500           0
  124568 ION  155  CLA  CLA  CLA   -1.000000       35.4500           0
  124569 ION  156  CLA  CLA  CLA   -1.000000       35.4500           0
  124570 ION  157  CLA  CLA  CLA   -1.000000       35.4500           0
  124571 ION  158  CLA  CLA  CLA   -1.000000       35.4500           0
  124572 ION  159  CLA  CLA  CLA   -1.000000       35.4500           0
  124573 ION  160  CLA  CLA  CLA   -1.000000       35.4500           0
  124574 ION  161  CLA  CLA  CLA   -1.000000       35.4500           0
  124575 ION  162  CLA  CLA  CLA   -1.000000       35.4500           0
  124576 ION  163  CLA  CLA  CLA   -1.000000       35.4500           0
  124577 ION  164  CLA  CLA  CLA   -1.000000       35.4500           0
  124578 ION  165  CLA  CLA  CLA   -1.000000       35.4500           0
  124579 ION  166  CLA  CLA  CLA   -1.000000       35.4500           0
  124580 ION  167  CLA  CLA  CLA   -1.000000       35.4500           0
  124581 ION  168  CLA  CLA  CLA   -1.000000       35.4500           0
  124582 ION  169  CLA  CLA  CLA   -1.000000       35.4500           0
  124583 ION  170  CLA  CLA  CLA   -1.000000       35.4500           0
  124584 ION  171  CLA  CLA  CLA   -1.000000       35.4500           0
  124585 ION  172  CLA  CLA  CLA   -1.000000       35.4500           0
  124586 ION  173  CLA  CLA  CLA   -1.000000       35.4500           0
  124587 ION  174  CLA  CLA  CLA   -1.000000       35.4500           0
  124588 ION  175  CLA  CLA  CLA   -1.000000       35.4500           0
  124589 ION  176  CLA  CLA  CLA   -1.000000       35.4500           0
  124590 ION  177  CLA  CLA  CLA   -1.000000       35.4500           0
  124591 ION  178  CLA  CLA  CLA   -1.000000       35.4500           0
  124592 ION  179  CLA  CLA  CLA   -1.000000       35.4500           0
  124593 ION  180  CLA  CLA  CLA   -1.000000       35.4500           0
  124594 ION  181  CLA  CLA  CLA   -1.000000       35.4500           0
  124595 ION  182  CLA  CLA  CLA   -1.000000       35.4500           0
  124596 ION  183  CLA  CLA  CLA   -1.000000       35.4500           0
  124597 ION  184  CLA  CLA  CLA   -1.000000       35.4500           0
  124598 ION  185  CLA  CLA  CLA   -1.000000       35.4500           0
  124599 ION  186  CLA  CLA  CLA   -1.000000       35.4500           0
  124600 ION  187  CLA  CLA  CLA   -1.000000       35.4500           0
  124601 ION  188  CLA  CLA  CLA   -1.000000       35.4500           0
  124602 ION  189  CLA  CLA  CLA   -1.000000       35.4500           0
  124603 ION  190  CLA  CLA  CLA   -1.000000       35.4500           0
  124604 ION  191  CLA  CLA  CLA   -1.000000       35.4500           0
  124605 ION  192  CLA  CLA  CLA   -1.000000       35.4500           0
  124606 ION  193  CLA  CLA  CLA   -1.000000       35.4500           0
  124607 ION  194  CLA  CLA  CLA   -1.000000       35.4500           0
  124608 ION  195  CLA  CLA  CLA   -1.000000       35.4500           0
  124609 ION  196  CLA  CLA  CLA   -1.000000       35.4500           0
  124610 ION  197  CLA  CLA  CLA   -1.000000       35.4500           0
  124611 ION  198  CLA  CLA  CLA   -1.000000       35.4500           0
  124612 ION  199  CLA  CLA  CLA   -1.000000       35.4500           0
  124613 ION  200  CLA  CLA  CLA   -1.000000       35.4500           0
  124614 ION  201  CLA  CLA  CLA   -1.000000       35.4500           0
  124615 ION  202  CLA  CLA  CLA   -1.000000       35.4500           0
  124616 ION  203  CLA  CLA  CLA   -1.000000       35.4500           0
  124617 ION  204  CLA  CLA  CLA   -1.000000       35.4500           0
  124618 ION  205  CLA  CLA  CLA   -1.000000       35.4500           0
  124619 ION  206  CLA  CLA  CLA   -1.000000       35.4500           0
  124620 ION  207  CLA  CLA  CLA   -1.000000       35.4500           0
  124621 ION  208  CLA  CLA  CLA   -1.000000       35.4500           0
  124622 ION  209  CLA  CLA  CLA   -1.000000       35.4500           0
  124623 ION  210  CLA  CLA  CLA   -1.000000       35.4500           0
  124624 ION  211  CLA  CLA  CLA   -1.000000       35.4500           0
  124625 ION  212  CLA  CLA  CLA   -1.000000       35.4500           0
  124626 ION  213  CLA  CLA  CLA   -1.000000       35.4500           0
  124627 ION  214  CLA  CLA  CLA   -1.000000       35.4500           0
  124628 ION  215  CLA  CLA  CLA   -1.000000       35.4500           0
  124629 ION  216  CLA  CLA  CLA   -1.000000       35.4500           0
  124630 ION  217  CLA  CLA  CLA   -1.000000       35.4500           0
  124631 ION  218  CLA  CLA  CLA   -1.000000       35.4500           0
  124632 ION  219  CLA  CLA  CLA   -1.000000       35.4500           0
  124633 ION  220  CLA  CLA  CLA   -1.000000       35.4500           0
  124634 ION  221  CLA  CLA  CLA   -1.000000       35.4500           0
  124635 ION  222  CLA  CLA  CLA   -1.000000       35.4500           0
  124636 ION  223  CLA  CLA  CLA   -1.000000       35.4500           0
  124637 ION  224  CLA  CLA  CLA   -1.000000       35.4500           0
  124638 ION  225  CLA  CLA  CLA   -1.000000       35.4500           0
  124639 ION  226  CLA  CLA  CLA   -1.000000       35.4500           0
  124640 ION  227  CLA  CLA  CLA   -1.000000       35.4500           0
  124641 ION  228  CLA  CLA  CLA   -1.000000       35.4500           0
  124642 ION  229  CLA  CLA  CLA   -1.000000       35.4500           0
  124643 ION  230  CLA  CLA  CLA   -1.000000       35.4500           0
  124644 ION  231  CLA  CLA  CLA   -1.000000       35.4500           0
  124645 ION  232  CLA  CLA  CLA   -1.000000       35.4500           0
  124646 ION  233  CLA  CLA  CLA   -1.000000       35.4500           0
  124647 ION  234  CLA  CLA  CLA   -1.000000       35.4500           0
  124648 ION  235  CLA  CLA  CLA   -1.000000       35.4500           0
  124649 ION  236  CLA  CLA  CLA   -1.000000       35.4500           0
  124650 ION  237  CLA  CLA  CLA   -1.000000       35.4500           0
  124651 ION  238  CLA  CLA  CLA   -1.000000       35.4500           0
  124652 ION  239  CLA  CLA  CLA   -1.000000       35.4500           0
  124653 ION  240  CLA  CLA  CLA   -1.000000       35.4500           0
  124654 ION  241  CLA  CLA  CLA   -1.000000       35.4500           0
  124655 ION  242  CLA  CLA  CLA   -1.000000       35.4500           0
  124656 ION  243  CLA  CLA  CLA   -1.000000       35.4500           0
  124657 ION  244  CLA  CLA  CLA   -1.000000       35.4500           0
  124658 ION  245  CLA  CLA  CLA   -1.000000       35.4500           0
  124659 ION  246  CLA  CLA  CLA   -1.000000       35.4500           0
  124660 ION  247  CLA  CLA  CLA   -1.000000       35.4500           0
  124661 ION  248  CLA  CLA  CLA   -1.000000       35.4500           0
  124662 ION  249  CLA  CLA  CLA   -1.000000       35.4500           0
  124663 ION  250  CLA  CLA  CLA   -1.000000       35.4500           0
  124664 ION  251  CLA  CLA  CLA   -1.000000       35.4500           0
  124665 ION  252  CLA  CLA  CLA   -1.000000       35.4500           0
  124666 ION  253  CLA  CLA  CLA   -1.000000       35.4500           0
  124667 ION  254  CLA  CLA  CLA   -1.000000       35.4500           0
  124668 ION  255  CLA  CLA  CLA   -1.000000       35.4500           0
  124669 ION  256  CLA  CLA  CLA   -1.000000       35.4500           0
  124670 ION  257  CLA  CLA  CLA   -1.000000       35.4500           0
  124671 ION  258  CLA  CLA  CLA   -1.000000       35.4500           0
  124672 ION  259  CLA  CLA  CLA   -1.000000       35.4500           0
  124673 ION  260  CLA  CLA  CLA   -1.000000       35.4500           0
  124674 ION  261  CLA  CLA  CLA   -1.000000       35.4500           0
  124675 ION  262  CLA  CLA  CLA   -1.000000       35.4500           0
  124676 ION  263  CLA  CLA  CLA   -1.000000       35.4500           0
  124677 ION  264  CLA  CLA  CLA   -1.000000       35.4500           0
  124678 ION  265  CLA  CLA  CLA   -1.000000       35.4500           0
  124679 ION  266  CLA  CLA  CLA   -1.000000       35.4500           0
  124680 ION  267  CLA  CLA  CLA   -1.000000       35.4500           0
  124681 ION  268  CLA  CLA  CLA   -1.000000       35.4500           0
  124682 ION  269  CLA  CLA  CLA   -1.000000       35.4500           0
  124683 ION  270  CLA  CLA  CLA   -1.000000       35.4500           0
  124684 ION  271  CLA  CLA  CLA   -1.000000       35.4500           0
  124685 ION  272  CLA  CLA  CLA   -1.000000       35.4500           0
  124686 ION  273  CLA  CLA  CLA   -1.000000       35.4500           0
  124687 ION  274  CLA  CLA  CLA   -1.000000       35.4500           0
  124688 ION  275  CLA  CLA  CLA   -1.000000       35.4500           0
  124689 ION  276  CLA  CLA  CLA   -1.000000       35.4500           0
  124690 ION  277  CLA  CLA  CLA   -1.000000       35.4500           0
  124691 ION  278  CLA  CLA  CLA   -1.000000       35.4500           0
  124692 ION  279  CLA  CLA  CLA   -1.000000       35.4500           0
  124693 ION  280  CLA  CLA  CLA   -1.000000       35.4500           0
  124694 ION  281  CLA  CLA  CLA   -1.000000       35.4500           0
  124695 ION  282  CLA  CLA  CLA   -1.000000       35.4500           0
  124696 ION  283  CLA  CLA  CLA   -1.000000       35.4500           0
  124697 ION  284  CLA  CLA  CLA   -1.000000       35.4500           0
  124698 ION  285  CLA  CLA  CLA   -1.000000       35.4500           0
  124699 ION  286  CLA  CLA  CLA   -1.000000       35.4500           0
  124700 ION  287  CLA  CLA  CLA   -1.000000       35.4500           0
  124701 ION  288  CLA  CLA  CLA   -1.000000       35.4500           0
  124702 ION  289  CLA  CLA  CLA   -1.000000       35.4500           0
  124703 ION  290  CLA  CLA  CLA   -1.000000       35.4500           0
  124704 ION  291  CLA  CLA  CLA   -1.000000       35.4500           0
  124705 ION  292  CLA  CLA  CLA   -1.000000       35.4500           0
  124706 ION  293  CLA  CLA  CLA   -1.000000       35.4500           0
  124707 ION  294  CLA  CLA  CLA   -1.000000       35.4500           0
  124708 ION  295  CLA  CLA  CLA   -1.000000       35.4500           0
  124709 ION  296  CLA  CLA  CLA   -1.000000       35.4500           0
  124710 ION  297  CLA  CLA  CLA   -1.000000       35.4500           0
  124711 ION  298  CLA  CLA  CLA   -1.000000       35.4500           0
  124712 ION  299  CLA  CLA  CLA   -1.000000       35.4500           0
  124713 ION  300  CLA  CLA  CLA   -1.000000       35.4500           0
  124714 ION  301  CLA  CLA  CLA   -1.000000       35.4500           0
  124715 ION  302  CLA  CLA  CLA   -1.000000       35.4500           0
  124716 ION  303  CLA  CLA  CLA   -1.000000       35.4500           0
  124717 ION  304  CLA  CLA  CLA   -1.000000       35.4500           0
  124718 ION  305  CLA  CLA  CLA   -1.000000       35.4500           0
  124719 ION  306  CLA  CLA  CLA   -1.000000       35.4500           0
  124720 ION  307  CLA  CLA  CLA   -1.000000       35.4500           0
  124721 ION  308  CLA  CLA  CLA   -1.000000       35.4500           0
  124722 ION  309  CLA  CLA  CLA   -1.000000       35.4500           0
  124723 ION  310  CLA  CLA  CLA   -1.000000       35.4500           0
  124724 ION  311  CLA  CLA  CLA   -1.000000       35.4500           0
  124725 ION  312  CLA  CLA  CLA   -1.000000       35.4500           0
  124726 ION  313  CLA  CLA  CLA   -1.000000       35.4500           0
  124727 ION  314  CLA  CLA  CLA   -1.000000       35.4500           0
  124728 ION  315  CLA  CLA  CLA   -1.000000       35.4500           0
  124729 ION  316  CLA  CLA  CLA   -1.000000       35.4500           0
  124730 ION  317  CLA  CLA  CLA   -1.000000       35.4500           0
  124731 ION  318  CLA  CLA  CLA   -1.000000       35.4500           0
  124732 ION  319  CLA  CLA  CLA   -1.000000       35.4500           0
  124733 ION  320  CLA  CLA  CLA   -1.000000       35.4500           0
  124734 ION  321  CLA  CLA  CLA   -1.000000       35.4500           0
  124735 ION  322  CLA  CLA  CLA   -1.000000       35.4500           0
  124736 ION  323  CLA  CLA  CLA   -1.000000       35.4500           0
  124737 ION  324  CLA  CLA  CLA   -1.000000       35.4500           0
  124738 ION  325  CLA  CLA  CLA   -1.000000       35.4500           0
  124739 ION  326  CLA  CLA  CLA   -1.000000       35.4500           0
  124740 ION  327  CLA  CLA  CLA   -1.000000       35.4500           0
  124741 ION  328  CLA  CLA  CLA   -1.000000       35.4500           0
  124742 ION  329  CLA  CLA  CLA   -1.000000       35.4500           0
  124743 ION  330  CLA  CLA  CLA   -1.000000       35.4500           0
  124744 ION  331  CLA  CLA  CLA   -1.000000       35.4500           0
  124745 ION  332  CLA  CLA  CLA   -1.000000       35.4500           0
  124746 ION  333  CLA  CLA  CLA   -1.000000       35.4500           0
  124747 ION  334  CLA  CLA  CLA   -1.000000       35.4500           0
  124748 ION  335  CLA  CLA  CLA   -1.000000       35.4500           0
  124749 ION  336  CLA  CLA  CLA   -1.000000       35.4500           0
  124750 ION  337  CLA  CLA  CLA   -1.000000       35.4500           0
  124751 ION  338  CLA  CLA  CLA   -1.000000       35.4500           0
  124752 ION  339  CLA  CLA  CLA   -1.000000       35.4500           0
  124753 ION  340  CLA  CLA  CLA   -1.000000       35.4500           0
  124754 ION  341  CLA  CLA  CLA   -1.000000       35.4500           0
  124755 ION  342  CLA  CLA  CLA   -1.000000       35.4500           0
  124756 ION  343  CLA  CLA  CLA   -1.000000       35.4500           0
  124757 ION  344  CLA  CLA  CLA   -1.000000       35.4500           0
  124758 ION  345  CLA  CLA  CLA   -1.000000       35.4500           0
  124759 ION  346  CLA  CLA  CLA   -1.000000       35.4500           0
  124760 ION  347  CLA  CLA  CLA   -1.000000       35.4500           0
  124761 ION  348  CLA  CLA  CLA   -1.000000       35.4500           0
  124762 ION  349  CLA  CLA  CLA   -1.000000       35.4500           0
  124763 ION  350  CLA  CLA  CLA   -1.000000       35.4500           0
  124764 ION  351  CLA  CLA  CLA   -1.000000       35.4500           0
  124765 ION  352  CLA  CLA  CLA   -1.000000       35.4500           0
  124766 ION  353  CLA  CLA  CLA   -1.000000       35.4500           0
  124767 ION  354  CLA  CLA  CLA   -1.000000       35.4500           0
  124768 ION  355  CLA  CLA  CLA   -1.000000       35.4500           0
  124769 ION  356  CLA  CLA  CLA   -1.000000       35.4500           0
  124770 ION  357  CLA  CLA  CLA   -1.000000       35.4500           0
  124771 ION  358  CLA  CLA  CLA   -1.000000       35.4500           0
  124772 ION  359  CLA  CLA  CLA   -1.000000       35.4500           0
  124773 ION  360  CLA  CLA  CLA   -1.000000       35.4500           0
  124774 ION  361  CLA  CLA  CLA   -1.000000       35.4500           0
  124775 ION  362  CLA  CLA  CLA   -1.000000       35.4500           0
  124776 ION  363  CLA  CLA  CLA   -1.000000       35.4500           0
  124777 ION  364  CLA  CLA  CLA   -1.000000       35.4500           0
  124778 ION  365  CLA  CLA  CLA   -1.000000       35.4500           0
  124779 ION  366  CLA  CLA  CLA   -1.000000       35.4500           0
  124780 ION  367  CLA  CLA  CLA   -1.000000       35.4500           0
  124781 ION  368  CLA  CLA  CLA   -1.000000       35.4500           0
  124782 ION  369  CLA  CLA  CLA   -1.000000       35.4500           0
  124783 ION  370  CLA  CLA  CLA   -1.000000       35.4500           0
  124784 ION  371  CLA  CLA  CLA   -1.000000       35.4500           0
  124785 ION  372  CLA  CLA  CLA   -1.000000       35.4500           0
  124786 ION  373  CLA  CLA  CLA   -1.000000       35.4500           0
  124787 ION  374  CLA  CLA  CLA   -1.000000       35.4500           0

   86745 !NBOND: bonds
       1       2       1       6       2       3       3       4
       4       7       4     181       5       6       5      10
       6       7       7       8       8      11       8     185
       9      14       9      10      10      11      11      12
      12      15      12     189      13      18      13      14
      14      15      15      16      16      19      16     193
      17      22      17      18      18      19      19      20
      20      23      20     197      21      22      21      26
      22      23      23      24      24      27      24     201
      25      26      25      30      26      27      27      28
      28      31      28     205      29      34      29      30
      30      31      31      32      32      35      32     209
      33      38      33      34      34      35      35      36
      36      39      36     213      37      42      37      38
      38      39      39      40      40      43      40     217
      41      42      41      46      42      43      43      44
      44      47      44     221      45      46      45      50
      46      47      47      48      48      51      48     225
      49      54      49      50      50      51      51      52
      52      55      52     229      53      58      53      54
      54      55      55      56      56      59      56     233
      57      62      57      58      58      59      59      60
      60      63      60     237      61      62      61      66
      62      63      63      64      64      67      64     241
      65      66      65      70      66      67      67      68
      68      71      68     245      69      74      69      70
      70      71      71      72      72      75      72     249
      73      78      73      74      74      75      75      76
      76      79      76     253      77      82      77      78
      78      79      79      80      80      83      80     257
      81      82      81      86      82      83      83      84
      84      87      84     261      85      86      85      90
      86      87      87      88      88      91      88     265
      89      94      89      90      90      91      91      92
      92      95      92     269      93      98      93      94
      94      95      95      96      96      99      96     273
      97     102      97      98      98      99      99     100
     100     103     100     277     101     102     101     106
     102     103     103     104     104     107     104     281
     105     106     105     110     106     107     107     108
     108     111     108     285     109     114     109     110
     110     111     111     112     112     115     112     289
     113     118     113     114     114     115     115     116
     116     119     116     293     117     122     117     118
     118     119     119     120     120     123     120     297
     121     122     121     126     122     123     123     124
     124     127     124     301     125     126     125     130
     126     127     127     128     128     131     128     305
     129     134     129     130     130     131     131     132
     132     135     132     309     133     134     133     138
     134     135     135     136     136     139     136     313
     137     142     137     138     138     139     139     140
     140     143     140     317     141     142     141     146
     142     143     143     144     144     147     144     321
     145     146     145     150     146     147     147     148
     148     151     148     325     149     154     149     150
     150     151     151     152     152     155     152     329
     153     158     153     154     154     155     155     156
     156     159     156     333     157     162     157     158
     158     159     159     160     160     163     160     337
     161     162     161     166     162     163     163     164
     164     167     164     341     165     166     165     170
     166     167     167     168     168     171     168     345
     169     174     169     170     170     171     171     172
     172     175     172     349     173     178     173     174
     174     175     175     176     176     179     176     353
     177     178     178     179     179     180     180     357
     181     182     181     186     182     183     183     184
     184     187     184     361     185     186     185     190
     186     187     187     188     188     191     188     365
     189     194     189     190     190     191     191     192
     192     195     192     369     193     198     193     194
     194     195     195     196     196     199     196     373
     197     202     197     198     198     199     199     200
     200     203     200     377     201     202     201     206
     202     203     203     204     204     207     204     381
     205     206     205     210     206     207     207     208
     208     211     208     385     209     214     209     210
     210     211     211     212     212     215     212     389
     213     218     213     214     214     215     215     216
     216     219     216     393     217     222     217     218
     218     219     219     220     220     223     220     397
     221     222     221     226     222     223     223     224
     224     227     224     401     225     226     225     230
     226     227     227     228     228     231     228     405
     229     234     229     230     230     231     231     232
     232     235     232     409     233     238     233     234
     234     235     235     236     236     239     236     413
     237     242     237     238     238     239     239     240
     240     243     240     417     241     242     241     246
     242     243     243     244     244     247     244     421
     245     246     245     250     246     247     247     248
     248     251     248     425     249     254     249     250
     250     251     251     252     252     255     252     429
     253     258     253     254     254     255     255     256
     256     259     256     433     257     262     257     258
     258     259     259     260     260     263     260     437
     261     262     261     266     262     263     263     264
     264     267     264     441     265     266     265     270
     266     267     267     268     268     271     268     445
     269     274     269     270     270     271     271     272
     272     275     272     449     273     278     273     274
     274     275     275     276     276     279     276     453
     277     282     277     278     278     279     279     280
     280     283     280     457     281     282     281     286
     282     283     283     284     284     287     284     461
     285     286     285     290     286     287     287     288
     288     291     288     465     289     294     289     290
     290     291     291     292     292     295     292     469
     293     298     293     294     294     295     295     296
     296     299     296     473     297     302     297     298
     298     299     299     300     300     303     300     477
     301     302     301     306     302     303     303     304
     304     307     304     481     305     306     305     310
     306     307     307     308     308     311     308     485
     309     314     309     310     310     311     311     312
     312     315     312     489     313     318     313     314
     314     315     315     316     316     319     316     493
     317     322     317     318     318     319     319     320
     320     323     320     497     321     322     321     326
     322     323     323     324     324     327     324     501
     325     326     325     330     326     327     327     328
     328     331     328     505     329     334     329     330
     330     331     331     332     332     335     332     509
     333     338     333     334     334     335     335     336
     336     339     336     513     337     342     337     338
     338     339     339     340     340     343     340     517
     341     342     341     346     342     343     343     344
     344     347     344     521     345     346     345     350
     346     347     347     348     348     351     348     525
     349     354     349     350     350     351     351     352
     352     355     352     529     353     354     353     358
     354     355     355     356     356     359     356     533
     357     358     358     359     359     360     360     537
     361     362     361     366     362     363     363     364
     364     367     364     541     365     366     365     370
     366     367     367     368     368     371     368     545
     369     374     369     370     370     371     371     372
     372     375     372     549     373     374     373     378
     374     375     375     376     376     379     376     553
     377     382     377     378     378     379     379     380
     380     383     380     557     381     382     381     386
     382     383     383     384     384     387     384     561
     385     386     385     390     386     387     387     388
     388     391     388     565     389     394     389     390
     390     391     391     392     392     395     392     569
     393     398     393     394     394     395     395     396
     396     399     396     573     397     402     397     398
     398     399     399     400     400     403     400     577
     401     402     401     406     402     403     403     404
     404     407     404     581     405     406     405     410
     406     407     407     408     408     411     408     585
     409     414     409     410     410     411     411     412
     412     415     412     589     413     418     413     414
     414     415     415     416     416     419     416     593
     417     422     417     418     418     419     419     420
     420     423     420     597     421     422     421     426
     422     423     423     424     424     427     424     601
     425     426     425     430     426     427     427     428
     428     431     428     605     429     434     429     430
     430     431     431     432     432     435     432     609
     433     438     433     434     434     435     435     436
     436     439     436     613     437     442     437     438
     438     439     439     440     440     443     440     617
     441     442     441     446     442     443     443     444
     444     447     444     621     445     446     445     450
     446     447     447     448     448     451     448     625
     449     454     449     450     450     451     451     452
     452     455     452     629     453     458     453     454
     454     455     455     456     456     459     456     633
     457     462     457     458     458     459     459     460
     460     463     460     637     461     462     461     466
     462     463     463     464     464     467     464     641
     465     466     465     470     466     467     467     468
     468     471     468     645     469     474     469     470
     470     471     471     472     472     475     472     649
     473     478     473     474     474     475     475     476
     476     479     476     653     477     482     477     478
     478     479     479     480     480     483     480     657
     481     482     481     486     482     483     483     484
     484     487     484     661     485     486     485     490
     486     487     487     488     488     491     488     665
     489     494     489     490     490     491     491     492
     492     495     492     669     493     498     493     494
     494     495     495     496     496     499     496     673
     497     502     497     498     498     499     499     500
     500     503     500     677     501     502     501     506
     502     503     503     504     504     507     504     681
     505     506     505     510     506     507     507     508
     508     511     508     685     509     514     509     510
     510     511     511     512     512     515     512     689
     513     518     513     514     514     515     515     516
     516     519     516     693     517     522     517     518
     518     519     519     520     520     523     520     697
     521     522     521     526     522     523     523     524
     524     527     524     701     525     526     525     530
     526     527     527     528     528     531     528     705
     529     534     529     530     530     531     531     532
     532     535     532     709     533     538     533     534
     534     535     535     536     536     539     536     713
     537     538     538     539     539     540     540     717
     541     542     541     546     542     543     543     544
     544     547     544     721     545     546     545     550
     546     547     547     548     548     551     548     725
     549     554     549     550     550     551     551     552
     552     555     552     729     553     558     553     554
     554     555     555     556     556     559     556     733
     557     562     557     558     558     559     559     560
     560     563     560     737     561     562     561     566
     562     563     563     564     564     567     564     741
     565     566     565     570     566     567     567     568
     568     571     568     745     569     574     569     570
     570     571     571     572     572     575     572     749
     573     578     573     574     574     575     575     576
     576     579     576     753     577     582     577     578
     578     579     579     580     580     583     580     757
     581     582     581     586     582     583     583     584
     584     587     584     761     585     586     585     590
     586     587     587     588     588     591     588     765
     589     594     589     590     590     591     591     592
     592     595     592     769     593     594     593     598
     594     595     595     596     596     599     596     773
     597     602     597     598     598     599     599     600
     600     603     600     777     601     602     601     606
     602     603     603     604     604     607     604     781
     605     606     605     610     606     607     607     608
     608     611     608     785     609     614     609     610
     610     611     611     612     612     615     612     789
     613     618     613     614     614     615     615     616
     616     619     616     793     617     622     617     618
     618     619     619     620     620     623     620     797
     621     622     621     626     622     623     623     624
     624     627     624     801     625     626     625     630
     626     627     627     628     628     631     628     805
     629     634     629     630     630     631     631     632
     632     635     632     809     633     638     633     634
     634     635     635     636     636     639     636     813
     637     642     637     638     638     639     639     640
     640     643     640     817     641     642     641     646
     642     643     643     644     644     647     644     821
     645     646     645     650     646     647     647     648
     648     651     648     825     649     654     649     650
     650     651     651     652     652     655     652     829
     653     658     653     654     654     655     655     656
     656     659     656     833     657     662     657     658
     658     659     659     660     660     663     660     837
     661     662     661     666     662     663     663     664
     664     667     664     841     665     666     665     670
     666     667     667     668     668     671     668     845
     669     674     669     670     670     671     671     672
     672     675     672     849     673     678     673     674
     674     675     675     676     676     679     676     853
     677     682     677     678     678     679     679     680
     680     683     680     857     681     682     681     686
     682     683     683     684     684     687     684     861
     685     686     685     690     686     687     687     688
     688     691     688     865     689     694     689     690
     690     691     691     692     692     695     692     869
     693     698     693     694     694     695     695     696
     696     699     696     873     697     702     697     698
     698     699     699     700     700     703     700     877
     701     702     701     706     702     703     703     704
     704     707     704     881     705     706     705     710
     706     707     707     708     708     711     708     885
     709     714     709     710     710     711     711     712
     712     715     712     889     713     718     713     714
     714     715     715     716     716     719     716     893
     717     718     718     719     719     720     720     897
     721     722     721     726     722     723     723     724
     724     727     724     901     725     726     725     730
     726     727     727     728     728     731     728     905
     729     734     729     730     730     731     731     732
     732     735     732     909     733     738     733     734
     734     735     735     736     736     739     736     913
     737     742     737     738     738     739     739     740
     740     743     740     917     741     742     741     746
     742     743     743     744     744     747     744     921
     745     746     745     750     746     747     747     748
     748     751     748     925     749     754     749     750
     750     751     751     752     752     755     752     929
     753     758     753     754     754     755     755     756
     756     759     756     933     757     762     757     758
     758     759     759     760     760     763     760     937
     761     762     761     766     762     763     763     764
     764     767     764     941     765     766     765     770
     766     767     767     768     768     771     768     945
     769     774     769     770     770     771     771     772
     772     775     772     949     773     778     773     774
     774     775     775     776     776     779     776     953
     777     782     777     778     778     779     779     780
     780     783     780     957     781     782     781     786
     782     783     783     784     784     787     784     961
     785     786     785     790     786     787     787     788
     788     791     788     965     789     794     789     790
     790     791     791     792     792     795     792     969
     793     798     793     794     794     795     795     796
     796     799     796     973     797     802     797     798
     798     799     799     800     800     803     800     977
     801     802     801     806     802     803     803     804
     804     807     804     981     805     806     805     810
     806     807     807     808     808     811     808     985
     809     814     809     810     810     811     811     812
     812     815     812     989     813     814     813     818
     814     815     815     816     816     819     816     993
     817     822     817     818     818     819     819     820
     820     823     820     997     821     822     821     826
     822     823     823     824     824     827     824    1001
     825     826     825     830     826     827     827     828
     828     831     828    1005     829     834     829     830
     830     831     831     832     832     835     832    1009
     833     838     833     834     834     835     835     836
     836     839     836    1013     837     842     837     838
     838     839     839     840     840     843     840    1017
     841     842     841     846     842     843     843     844
     844     847     844    1021     845     846     845     850
     846     847     847     848     848     851     848    1025
     849     854     849     850     850     851     851     852
     852     855     852    1029     853     858     853     854
     854     855     855     856     856     859     856    1033
     857     862     857     858     858     859     859     860
     860     863     860    1037     861     862     861     866
     862     863     863     864     864     867     864    1041
     865     866     865     870     866     867     867     868
     868     871     868    1045     869     874     869     870
     870     871     871     872     872     875     872    1049
     873     878     873     874     874     875     875     876
     876     879     876    1053     877     882     877     878
     878     879     879     880     880     883     880    1057
     881     882     881     886     882     883     883     884
     884     887     884    1061     885     886     885     890
     886     887     887     888     888     891     888    1065
     889     894     889     890     890     891     891     892
     892     895     892    1069     893     898     893     894
     894     895     895     896     896     899     896    1073
     897     898     898     899     899     900     900    1077
     901     902     901     906     902     903     903     904
     904     907     904    1081     905     906     905     910
     906     907     907     908     908     911     908    1085
     909     914     909     910     910     911     911     912
     912     915     912    1089     913     918     913     914
     914     915     915     916     916     919     916    1093
     917     922     917     918     918     919     919     920
     920     923     920    1097     921     922     921     926
     922     923     923     924     924     927     924    1101
     925     926     925     930     926     927     927     928
     928     931     928    1105     929     934     929     930
     930     931     931     932     932     935     932    1109
     933     938     933     934     934     935     935     936
     936     939     936    1113     937     942     937     938
     938     939     939     940     940     943     940    1117
     941     942     941     946     942     943     943     944
     944     947     944    1121     945     946     945     950
     946     947     947     948     948     951     948    1125
     949     954     949     950     950     951     951     952
     952     955     952    1129     953     958     953     954
     954     955     955     956     956     959     956    1133
     957     962     957     958     958     959     959     960
     960     963     960    1137     961     962     961     966
     962     963     963     964     964     967     964    1141
     965     966     965     970     966     967     967     968
     968     971     968    1145     969     974     969     970
     970     971     971     972     972     975     972    1149
     973     978     973     974     974     975     975     976
     976     979     976    1153     977     982     977     978
     978     979     979     980     980     983     980    1157
     981     982     981     986     982     983     983     984
     984     987     984    1161     985     986     985     990
     986     987     987     988     988     991     988    1165
     989     994     989     990     990     991     991     992
     992     995     992    1169     993     998     993     994
     994     995     995     996     996     999     996    1173
     997    1002     997     998     998     999     999    1000
    1000    1003    1000    1177    1001    1002    1001    1006
    1002    1003    1003    1004    1004    1007    1004    1181
    1005    1006    1005    1010    1006    1007    1007    1008
    1008    1011    1008    1185    1009    1014    1009    1010
    1010    1011    1011    1012    1012    1015    1012    1189
    1013    1018    1013    1014    1014    1015    1015    1016
    1016    1019    1016    1193    1017    1022    1017    1018
    1018    1019    1019    1020    1020    1023    1020    1197
    1021    1022    1021    1026    1022    1023    1023    1024
    1024    1027    1024    1201    1025    1026    1025    1030
    1026    1027    1027    1028    1028    1031    1028    1205
    1029    1034    1029    1030    1030    1031    1031    1032
    1032    1035    1032    1209    1033    1034    1033    1038
    1034    1035    1035    1036    1036    1039    1036    1213
    1037    1042    1037    1038    1038    1039    1039    1040
    1040    1043    1040    1217    1041    1042    1041    1046
    1042    1043    1043    1044    1044    1047    1044    1221
    1045    1046    1045    1050    1046    1047    1047    1048
    1048    1051    1048    1225    1049    1054    1049    1050
    1050    1051    1051    1052    1052    1055    1052    1229
    1053    1058    1053    1054    1054    1055    1055    1056
    1056    1059    1056    1233    1057    1062    1057    1058
    1058    1059    1059    1060    1060    1063    1060    1237
    1061    1062    1061    1066    1062    1063    1063    1064
    1064    1067    1064    1241    1065    1066    1065    1070
    1066    1067    1067    1068    1068    1071    1068    1245
    1069    1074    1069    1070    1070    1071    1071    1072
    1072    1075    1072    1249    1073    1078    1073    1074
    1074    1075    1075    1076    1076    1079    1076    1253
    1077    1078    1078    1079    1079    1080    1080    1257
    1081    1082    1081    1086    1082    1083    1083    1084
    1084    1087    1084    1261    1085    1086    1085    1090
    1086    1087    1087    1088    1088    1091    1088    1265
    1089    1094    1089    1090    1090    1091    1091    1092
    1092    1095    1092    1269    1093    1098    1093    1094
    1094    1095    1095    1096    1096    1099    1096    1273
    1097    1102    1097    1098    1098    1099    1099    1100
    1100    1103    1100    1277    1101    1102    1101    1106
    1102    1103    1103    1104    1104    1107    1104    1281
    1105    1106    1105    1110    1106    1107    1107    1108
    1108    1111    1108    1285    1109    1114    1109    1110
    1110    1111    1111    1112    1112    1115    1112    1289
    1113    1118    1113    1114    1114    1115    1115    1116
    1116    1119    1116    1293    1117    1122    1117    1118
    1118    1119    1119    1120    1120    1123    1120    1297
    1121    1122    1121    1126    1122    1123    1123    1124
    1124    1127    1124    1301    1125    1126    1125    1130
    1126    1127    1127    1128    1128    1131    1128    1305
    1129    1134    1129    1130    1130    1131    1131    1132
    1132    1135    1132    1309    1133    1138    1133    1134
    1134    1135    1135    1136    1136    1139    1136    1313
    1137    1142    1137    1138    1138    1139    1139    1140
    1140    1143    1140    1317    1141    1142    1141    1146
    1142    1143    1143    1144    1144    1147    1144    1321
    1145    1146    1145    1150    1146    1147    1147    1148
    1148    1151    1148    1325    1149    1154    1149    1150
    1150    1151    1151    1152    1152    1155    1152    1329
    1153    1158    1153    1154    1154    1155    1155    1156
    1156    1159    1156    1333    1157    1162    1157    1158
    1158    1159    1159    1160    1160    1163    1160    1337
    1161    1162    1161    1166    1162    1163    1163    1164
    1164    1167    1164    1341    1165    1166    1165    1170
    1166    1167    1167    1168    1168    1171    1168    1345
    1169    1174    1169    1170    1170    1171    1171    1172
    1172    1175    1172    1349    1173    1178    1173    1174
    1174    1175    1175    1176    1176    1179    1176    1353
    1177    1182    1177    1178    1178    1179    1179    1180
    1180    1183    1180    1357    1181    1182    1181    1186
    1182    1183    1183    1184    1184    1187    1184    1361
    1185    1186    1185    1190    1186    1187    1187    1188
    1188    1191    1188    1365    1189    1194    1189    1190
    1190    1191    1191    1192    1192    1195    1192    1369
    1193    1198    1193    1194    1194    1195    1195    1196
    1196    1199    1196    1373    1197    1202    1197    1198
    1198    1199    1199    1200    1200    1203    1200    1377
    1201    1202    1201    1206    1202    1203    1203    1204
    1204    1207    1204    1381    1205    1206    1205    1210
    1206    1207    1207    1208    1208    1211    1208    1385
    1209    1214    1209    1210    1210    1211    1211    1212
    1212    1215    1212    1389    1213    1218    1213    1214
    1214    1215    1215    1216    1216    1219    1216    1393
    1217    1222    1217    1218    1218    1219    1219    1220
    1220    1223    1220    1397    1221    1222    1221    1226
    1222    1223    1223    1224    1224    1227    1224    1401
    1225    1226    1225    1230    1226    1227    1227    1228
    1228    1231    1228    1405    1229    1234    1229    1230
    1230    1231    1231    1232    1232    1235    1232    1409
    1233    1238    1233    1234    1234    1235    1235    1236
    1236    1239    1236    1413    1237    1242    1237    1238
    1238    1239    1239    1240    1240    1243    1240    1417
    1241    1242    1241    1246    1242    1243    1243    1244
    1244    1247    1244    1421    1245    1246    1245    1250
    1246    1247    1247    1248    1248    1251    1248    1425
    1249    1254    1249    1250    1250    1251    1251    1252
    1252    1255    1252    1429    1253    1254    1253    1258
    1254    1255    1255    1256    1256    1259    1256    1433
    1257    1258    1258    1259    1259    1260    1260    1437
    1261    1262    1261    1266    1262    1263    1263    1264
    1264    1267    1264    1441    1265    1266    1265    1270
    1266    1267    1267    1268    1268    1271    1268    1445
    1269    1274    1269    1270    1270    1271    1271    1272
    1272    1275    1272    1449    1273    1274    1273    1278
    1274    1275    1275    1276    1276    1279    1276    1453
    1277    1282    1277    1278    1278    1279    1279    1280
    1280    1283    1280    1457    1281    1282    1281    1286
    1282    1283    1283    1284    1284    1287    1284    1461
    1285    1286    1285    1290    1286    1287    1287    1288
    1288    1291    1288    1465    1289    1294    1289    1290
    1290    1291    1291    1292    1292    1295    1292    1469
    1293    1298    1293    1294    1294    1295    1295    1296
    1296    1299    1296    1473    1297    1302    1297    1298
    1298    1299    1299    1300    1300    1303    1300    1477
    1301    1302    1301    1306    1302    1303    1303    1304
    1304    1307    1304    1481    1305    1306    1305    1310
    1306    1307    1307    1308    1308    1311    1308    1485
    1309    1314    1309    1310    1310    1311    1311    1312
    1312    1315    1312    1489    1313    1318    1313    1314
    1314    1315    1315    1316    1316    1319    1316    1493
    1317    1322    1317    1318    1318    1319    1319    1320
    1320    1323    1320    1497    1321    1322    1321    1326
    1322    1323    1323    1324    1324    1327    1324    1501
    1325    1326    1325    1330    1326    1327    1327    1328
    1328    1331    1328    1505    1329    1334    1329    1330
    1330    1331    1331    1332    1332    1335    1332    1509
    1333    1338    1333    1334    1334    1335    1335    1336
    1336    1339    1336    1513    1337    1342    1337    1338
    1338    1339    1339    1340    1340    1343    1340    1517
    1341    1342    1341    1346    1342    1343    1343    1344
    1344    1347    1344    1521    1345    1346    1345    1350
    1346    1347    1347    1348    1348    1351    1348    1525
    1349    1354    1349    1350    1350    1351    1351    1352
    1352    1355    1352    1529    1353    1358    1353    1354
    1354    1355    1355    1356    1356    1359    1356    1533
    1357    1362    1357    1358    1358    1359    1359    1360
    1360    1363    1360    1537    1361    1362    1361    1366
    1362    1363    1363    1364    1364    1367    1364    1541
    1365    1366    1365    1370    1366    1367    1367    1368
    1368    1371    1368    1545    1369    1374    1369    1370
    1370    1371    1371    1372    1372    1375    1372    1549
    1373    1378    1373    1374    1374    1375    1375    1376
    1376    1379    1376    1553    1377    1382    1377    1378
    1378    1379    1379    1380    1380    1383    1380    1557
    1381    1382    1381    1386    1382    1383    1383    1384
    1384    1387    1384    1561    1385    1386    1385    1390
    1386    1387    1387    1388    1388    1391    1388    1565
    1389    1394    1389    1390    1390    1391    1391    1392
    1392    1395    1392    1569    1393    1398    1393    1394
    1394    1395    1395    1396    1396    1399    1396    1573
    1397    1402    1397    1398    1398    1399    1399    1400
    1400    1403    1400    1577    1401    1402    1401    1406
    1402    1403    1403    1404    1404    1407    1404    1581
    1405    1406    1405    1410    1406    1407    1407    1408
    1408    1411    1408    1585    1409    1414    1409    1410
    1410    1411    1411    1412    1412    1415    1412    1589
    1413    1418    1413    1414    1414    1415    1415    1416
    1416    1419    1416    1593    1417    1422    1417    1418
    1418    1419    1419    1420    1420    1423    1420    1597
    1421    1422    1421    1426    1422    1423    1423    1424
    1424    1427    1424    1601    1425    1426    1425    1430
    1426    1427    1427    1428    1428    1431    1428    1605
    1429    1434    1429    1430    1430    1431    1431    1432
    1432    1435    1432    1609    1433    1438    1433    1434
    1434    1435    1435    1436    1436    1439    1436    1613
    1437    1438    1438    1439    1439    1440    1440    1617
    1441    1442    1441    1446    1442    1443    1443    1444
    1444    1621    1444    1447    1445    1446    1445    1450
    1446    1447    1447    1448    1448    1625    1448    1451
    1449    1454    1449    1450    1450    1451    1451    1452
    1452    1629    1452    1455    1453    1458    1453    1454
    1454    1455    1455    1456    1456    1633    1456    1459
    1457    1462    1457    1458    1458    1459    1459    1460
    1460    1637    1460    1463    1461    1462    1461    1466
    1462    1463    1463    1464    1464    1641    1464    1467
    1465    1466    1465    1470    1466    1467    1467    1468
    1468    1645    1468    1471    1469    1474    1469    1470
    1470    1471    1471    1472    1472    1475    1472    1649
    1473    1478    1473    1474    1474    1475    1475    1476
    1476    1479    1476    1653    1477    1482    1477    1478
    1478    1479    1479    1480    1480    1657    1480    1483
    1481    1482    1481    1486    1482    1483    1483    1484
    1484    1661    1484    1487    1485    1486    1485    1490
    1486    1487    1487    1488    1488    1665    1488    1491
    1489    1494    1489    1490    1490    1491    1491    1492
    1492    1495    1492    1669    1493    1494    1493    1498
    1494    1495    1495    1496    1496    1499    1496    1673
    1497    1498    1497    1502    1498    1499    1499    1500
    1500    1677    1500    1503    1501    1502    1501    1506
    1502    1503    1503    1504    1504    1681    1504    1507
    1505    1506    1505    1510    1506    1507    1507    1508
    1508    1685    1508    1511    1509    1510    1509    1514
    1510    1511    1511    1512    1512    1515    1512    1689
    1513    1514    1513    1518    1514    1515    1515    1516
    1516    1693    1516    1519    1517    1522    1517    1518
    1518    1519    1519    1520    1520    1697    1520    1523
    1521    1522    1521    1526    1522    1523    1523    1524
    1524    1701    1524    1527    1525    1526    1525    1530
    1526    1527    1527    1528    1528    1705    1528    1531
    1529    1534    1529    1530    1530    1531    1531    1532
    1532    1709    1532    1535    1533    1538    1533    1534
    1534    1535    1535    1536    1536    1539    1536    1713
    1537    1542    1537    1538    1538    1539    1539    1540
    1540    1717    1540    1543    1541    1542    1541    1546
    1542    1543    1543    1544    1544    1721    1544    1547
    1545    1546    1545    1550    1546    1547    1547    1548
    1548    1725    1548    1551    1549    1554    1549    1550
    1550    1551    1551    1552    1552    1555    1552    1729
    1553    1558    1553    1554    1554    1555    1555    1556
    1556    1559    1556    1733    1557    1562    1557    1558
    1558    1559    1559    1560    1560    1737    1560    1563
    1561    1562    1561    1566    1562    1563    1563    1564
    1564    1741    1564    1567    1565    1566    1565    1570
    1566    1567    1567    1568    1568    1745    1568    1571
    1569    1570    1569    1574    1570    1571    1571    1572
    1572    1575    1572    1749    1573    1574    1573    1578
    1574    1575    1575    1576    1576    1579    1576    1753
    1577    1578    1577    1582    1578    1579    1579    1580
    1580    1757    1580    1583    1581    1582    1581    1586
    1582    1583    1583    1584    1584    1761    1584    1587
    1585    1586    1585    1590    1586    1587    1587    1588
    1588    1765    1588    1591    1589    1594    1589    1590
    1590    1591    1591    1592    1592    1769    1592    1595
    1593    1598    1593    1594    1594    1595    1595    1596
    1596    1773    1596    1599    1597    1602    1597    1598
    1598    1599    1599    1600    1600    1777    1600    1603
    1601    1602    1601    1606    1602    1603    1603    1604
    1604    1781    1604    1607    1605    1606    1605    1610
    1606    1607    1607    1608    1608    1785    1608    1611
    1609    1614    1609    1610    1610    1611    1611    1612
    1612    1615    1612    1789    1613    1618    1613    1614
    1614    1615    1615    1616    1616    1619    1616    1793
    1617    1618    1618    1619    1619    1620    1620    1797
    1621    1622    1621    1626    1622    1623    1623    1624
    1624    1801    1624    1627    1625    1626    1625    1630
    1626    1627    1627    1628    1628    1805    1628    1631
    1629    1634    1629    1630    1630    1631    1631    1632
    1632    1635    1632    1809    1633    1638    1633    1634
    1634    1635    1635    1636    1636    1639    1636    1813
    1637    1642    1637    1638    1638    1639    1639    1640
    1640    1817    1640    1643    1641    1642    1641    1646
    1642    1643    1643    1644    1644    1821    1644    1647
    1645    1646    1645    1650    1646    1647    1647    1648
    1648    1825    1648    1651    1649    1650    1649    1654
    1650    1651    1651    1652    1652    1655    1652    1829
    1653    1654    1653    1658    1654    1655    1655    1656
    1656    1659    1656    1833    1657    1658    1657    1662
    1658    1659    1659    1660    1660    1837    1660    1663
    1661    1662    1661    1666    1662    1663    1663    1664
    1664    1841    1664    1667    1665    1666    1665    1670
    1666    1667    1667    1668    1668    1845    1668    1671
    1669    1674    1669    1670    1670    1671    1671    1672
    1672    1849    1672    1675    1673    1678    1673    1674
    1674    1675    1675    1676    1676    1853    1676    1679
    1677    1682    1677    1678    1678    1679    1679    1680
    1680    1857    1680    1683    1681    1682    1681    1686
    1682    1683    1683    1684    1684    1861    1684    1687
    1685    1686    1685    1690    1686    1687    1687    1688
    1688    1865    1688    1691    1689    1694    1689    1690
    1690    1691    1691    1692    1692    1695    1692    1869
    1693    1698    1693    1694    1694    1695    1695    1696
    1696    1699    1696    1873    1697    1702    1697    1698
    1698    1699    1699    1700    1700    1877    1700    1703
    1701    1702    1701    1706    1702    1703    1703    1704
    1704    1881    1704    1707    1705    1706    1705    1710
    1706    1707    1707    1708    1708    1885    1708    1711
    1709    1714    1709    1710    1710    1711    1711    1712
    1712    1715    1712    1889    1713    1714    1713    1718
    1714    1715    1715    1716    1716    1719    1716    1893
    1717    1718    1717    1722    1718    1719    1719    1720
    1720    1897    1720    1723    1721    1722    1721    1726
    1722    1723    1723    1724    1724    1901    1724    1727
    1725    1726    1725    1730    1726    1727    1727    1728
    1728    1905    1728    1731    1729    1730    1729    1734
    1730    1731    1731    1732    1732    1735    1732    1909
    1733    1734    1733    1738    1734    1735    1735    1736
    1736    1913    1736    1739    1737    1742    1737    1738
    1738    1739    1739    1740    1740    1917    1740    1743
    1741    1742    1741    1746    1742    1743    1743    1744
    1744    1921    1744    1747    1745    1746    1745    1750
    1746    1747    1747    1748    1748    1925    1748    1751
    1749    1754    1749    1750    1750    1751    1751    1752
    1752    1929    1752    1755    1753    1758    1753    1754
    1754    1755    1755    1756    1756    1759    1756    1933
    1757    1762    1757    1758    1758    1759    1759    1760
    1760    1937    1760    1763    1761    1762    1761    1766
    1762    1763    1763    1764    1764    1941    1764    1767
    1765    1766    1765    1770    1766    1767    1767    1768
    1768    1945    1768    1771    1769    1774    1769    1770
    1770    1771    1771    1772    1772    1775    1772    1949
    1773    1778    1773    1774    1774    1775    1775    1776
    1776    1779    1776    1953    1777    1782    1777    1778
    1778    1779    1779    1780    1780    1957    1780    1783
    1781    1782    1781    1786    1782    1783    1783    1784
    1784    1961    1784    1787    1785    1786    1785    1790
    1786    1787    1787    1788    1788    1965    1788    1791
    1789    1790    1789    1794    1790    1791    1791    1792
    1792    1795    1792    1969    1793    1794    1793    1798
    1794    1795    1795    1796    1796    1799    1796    1973
    1797    1798    1798    1799    1799    1800    1800    1977
    1801    1802    1801    1806    1802    1803    1803    1804
    1804    1981    1804    1807    1805    1806    1805    1810
    1806    1807    1807    1808    1808    1985    1808    1811
    1809    1810    1809    1814    1810    1811    1811    1812
    1812    1815    1812    1989    1813    1814    1813    1818
    1814    1815    1815    1816    1816    1819    1816    1993
    1817    1818    1817    1822    1818    1819    1819    1820
    1820    1997    1820    1823    1821    1822    1821    1826
    1822    1823    1823    1824    1824    2001    1824    1827
    1825    1826    1825    1830    1826    1827    1827    1828
    1828    2005    1828    1831    1829    1834    1829    1830
    1830    1831    1831    1832    1832    2009    1832    1835
    1833    1838    1833    1834    1834    1835    1835    1836
    1836    2013    1836    1839    1837    1842    1837    1838
    1838    1839    1839    1840    1840    2017    1840    1843
    1841    1842    1841    1846    1842    1843    1843    1844
    1844    2021    1844    1847    1845    1846    1845    1850
    1846    1847    1847    1848    1848    2025    1848    1851
    1849    1854    1849    1850    1850    1851    1851    1852
    1852    1855    1852    2029    1853    1858    1853    1854
    1854    1855    1855    1856    1856    1859    1856    2033
    1857    1862    1857    1858    1858    1859    1859    1860
    1860    2037    1860    1863    1861    1862    1861    1866
    1862    1863    1863    1864    1864    2041    1864    1867
    1865    1866    1865    1870    1866    1867    1867    1868
    1868    2045    1868    1871    1869    1870    1869    1874
    1870    1871    1871    1872    1872    1875    1872    2049
    1873    1874    1873    1878    1874    1875    1875    1876
    1876    1879    1876    2053    1877    1878    1877    1882
    1878    1879    1879    1880    1880    2057    1880    1883
    1881    1882    1881    1886    1882    1883    1883    1884
    1884    2061    1884    1887    1885    1886    1885    1890
    1886    1887    1887    1888    1888    2065    1888    1891
    1889    1894    1889    1890    1890    1891    1891    1892
    1892    2069    1892    1895    1893    1898    1893    1894
    1894    1895    1895    1896    1896    2073    1896    1899
    1897    1902    1897    1898    1898    1899    1899    1900
    1900    2077    1900    1903    1901    1902    1901    1906
    1902    1903    1903    1904    1904    2081    1904    1907
    1905    1906    1905    1910    1906    1907    1907    1908
    1908    2085    1908    1911    1909    1914    1909    1910
    1910    1911    1911    1912    1912    1915    1912    2089
    1913    1918    1913    1914    1914    1915    1915    1916
    1916    1919    1916    2093    1917    1922    1917    1918
    1918    1919    1919    1920    1920    2097    1920    1923
    1921    1922    1921    1926    1922    1923    1923    1924
    1924    2101    1924    1927    1925    1926    1925    1930
    1926    1927    1927    1928    1928    2105    1928    1931
    1929    1934    1929    1930    1930    1931    1931    1932
    1932    1935    1932    2109    1933    1934    1933    1938
    1934    1935    1935    1936    1936    1939    1936    2113
    1937    1938    1937    1942    1938    1939    1939    1940
    1940    2117    1940    1943    1941    1942    1941    1946
    1942    1943    1943    1944    1944    2121    1944    1947
    1945    1946    1945    1950    1946    1947    1947    1948
    1948    2125    1948    1951    1949    1950    1949    1954
    1950    1951    1951    1952    1952    1955    1952    2129
    1953    1954    1953    1958    1954    1955    1955    1956
    1956    2133    1956    1959    1957    1962    1957    1958
    1958    1959    1959    1960    1960    2137    1960    1963
    1961    1962    1961    1966    1962    1963    1963    1964
    1964    2141    1964    1967    1965    1966    1965    1970
    1966    1967    1967    1968    1968    2145    1968    1971
    1969    1974    1969    1970    1970    1971    1971    1972
    1972    2149    1972    1975    1973    1978    1973    1974
    1974    1975    1975    1976    1976    1979    1976    2153
    1977    1978    1978    1979    1979    1980    1980    2157
    1981    1982    1981    1986    1982    1983    1983    1984
    1984    2161    1984    1987    1985    1986    1985    1990
    1986    1987    1987    1988    1988    2165    1988    1991
    1989    1994    1989    1990    1990    1991    1991    1992
    1992    2169    1992    1995    1993    1998    1993    1994
    1994    1995    1995    1996    1996    1999    1996    2173
    1997    2002    1997    1998    1998    1999    1999    2000
    2000    2177    2000    2003    2001    2002    2001    2006
    2002    2003    2003    2004    2004    2181    2004    2007
    2005    2006    2005    2010    2006    2007    2007    2008
    2008    2185    2008    2011    2009    2014    2009    2010
    2010    2011    2011    2012    2012    2015    2012    2189
    2013    2018    2013    2014    2014    2015    2015    2016
    2016    2019    2016    2193    2017    2022    2017    2018
    2018    2019    2019    2020    2020    2197    2020    2023
    2021    2022    2021    2026    2022    2023    2023    2024
    2024    2201    2024    2027    2025    2026    2025    2030
    2026    2027    2027    2028    2028    2205    2028    2031
    2029    2030    2029    2034    2030    2031    2031    2032
    2032    2035    2032    2209    2033    2034    2033    2038
    2034    2035    2035    2036    2036    2039    2036    2213
    2037    2038    2037    2042    2038    2039    2039    2040
    2040    2217    2040    2043    2041    2042    2041    2046
    2042    2043    2043    2044    2044    2221    2044    2047
    2045    2046    2045    2050    2046    2047    2047    2048
    2048    2225    2048    2051    2049    2054    2049    2050
    2050    2051    2051    2052    2052    2229    2052    2055
    2053    2058    2053    2054    2054    2055    2055    2056
    2056    2233    2056    2059    2057    2062    2057    2058
    2058    2059    2059    2060    2060    2237    2060    2063
    2061    2062    2061    2066    2062    2063    2063    2064
    2064    2241    2064    2067    2065    2066    2065    2070
    2066    2067    2067    2068    2068    2245    2068    2071
    2069    2074    2069    2070    2070    2071    2071    2072
    2072    2075    2072    2249    2073    2078    2073    2074
    2074    2075    2075    2076    2076    2079    2076    2253
    2077    2082    2077    2078    2078    2079    2079    2080
    2080    2257    2080    2083    2081    2082    2081    2086
    2082    2083    2083    2084    2084    2261    2084    2087
    2085    2086    2085    2090    2086    2087    2087    2088
    2088    2265    2088    2091    2089    2090    2089    2094
    2090    2091    2091    2092    2092    2095    2092    2269
    2093    2094    2093    2098    2094    2095    2095    2096
    2096    2099    2096    2273    2097    2098    2097    2102
    2098    2099    2099    2100    2100    2277    2100    2103
    2101    2102    2101    2106    2102    2103    2103    2104
    2104    2281    2104    2107    2105    2106    2105    2110
    2106    2107    2107    2108    2108    2285    2108    2111
    2109    2114    2109    2110    2110    2111    2111    2112
    2112    2289    2112    2115    2113    2118    2113    2114
    2114    2115    2115    2116    2116    2293    2116    2119
    2117    2122    2117    2118    2118    2119    2119    2120
    2120    2297    2120    2123    2121    2122    2121    2126
    2122    2123    2123    2124    2124    2301    2124    2127
    2125    2126    2125    2130    2126    2127    2127    2128
    2128    2305    2128    2131    2129    2134    2129    2130
    2130    2131    2131    2132    2132    2135    2132    2309
    2133    2138    2133    2134    2134    2135    2135    2136
    2136    2139    2136    2313    2137    2142    2137    2138
    2138    2139    2139    2140    2140    2317    2140    2143
    2141    2142    2141    2146    2142    2143    2143    2144
    2144    2321    2144    2147    2145    2146    2145    2150
    2146    2147    2147    2148    2148    2325    2148    2151
    2149    2154    2149    2150    2150    2151    2151    2152
    2152    2155    2152    2329    2153    2154    2153    2158
    2154    2155    2155    2156    2156    2159    2156    2333
    2157    2158    2158    2159    2159    2160    2160    2337
    2161    2162    2161    2166    2162    2163    2163    2164
    2164    2167    2164    2341    2165    2166    2165    2170
    2166    2167    2167    2168    2168    2171    2168    2345
    2169    2174    2169    2170    2170    2171    2171    2172
    2172    2175    2172    2349    2173    2178    2173    2174
    2174    2175    2175    2176    2176    2179    2176    2353
    2177    2182    2177    2178    2178    2179    2179    2180
    2180    2183    2180    2357    2181    2182    2181    2186
    2182    2183    2183    2184    2184    2187    2184    2361
    2185    2186    2185    2190    2186    2187    2187    2188
    2188    2191    2188    2365    2189    2194    2189    2190
    2190    2191    2191    2192    2192    2195    2192    2369
    2193    2194    2193    2198    2194    2195    2195    2196
    2196    2199    2196    2373    2197    2202    2197    2198
    2198    2199    2199    2200    2200    2203    2200    2377
    2201    2202    2201    2206    2202    2203    2203    2204
    2204    2207    2204    2381    2205    2206    2205    2210
    2206    2207    2207    2208    2208    2211    2208    2385
    2209    2214    2209    2210    2210    2211    2211    2212
    2212    2215    2212    2389    2213    2218    2213    2214
    2214    2215    2215    2216    2216    2219    2216    2393
    2217    2222    2217    2218    2218    2219    2219    2220
    2220    2223    2220    2397    2221    2222    2221    2226
    2222    2223    2223    2224    2224    2227    2224    2401
    2225    2226    2225    2230    2226    2227    2227    2228
    2228    2231    2228    2405    2229    2234    2229    2230
    2230    2231    2231    2232    2232    2235    2232    2409
    2233    2238    2233    2234    2234    2235    2235    2236
    2236    2239    2236    2413    2237    2242    2237    2238
    2238    2239    2239    2240    2240    2243    2240    2417
    2241    2242    2241    2246    2242    2243    2243    2244
    2244    2247    2244    2421    2245    2246    2245    2250
    2246    2247    2247    2248    2248    2251    2248    2425
    2249    2254    2249    2250    2250    2251    2251    2252
    2252    2255    2252    2429    2253    2258    2253    2254
    2254    2255    2255    2256    2256    2259    2256    2433
    2257    2262    2257    2258    2258    2259    2259    2260
    2260    2263    2260    2437    2261    2262    2261    2266
    2262    2263    2263    2264    2264    2267    2264    2441
    2265    2266    2265    2270    2266    2267    2267    2268
    2268    2271    2268    2445    2269    2274    2269    2270
    2270    2271    2271    2272    2272    2275    2272    2449
    2273    2278    2273    2274    2274    2275    2275    2276
    2276    2279    2276    2453    2277    2282    2277    2278
    2278    2279    2279    2280    2280    2283    2280    2457
    2281    2282    2281    2286    2282    2283    2283    2284
    2284    2287    2284    2461    2285    2286    2285    2290
    2286    2287    2287    2288    2288    2291    2288    2465
    2289    2294    2289    2290    2290    2291    2291    2292
    2292    2295    2292    2469    2293    2298    2293    2294
    2294    2295    2295    2296    2296    2299    2296    2473
    2297    2302    2297    2298    2298    2299    2299    2300
    2300    2303    2300    2477    2301    2302    2301    2306
    2302    2303    2303    2304    2304    2307    2304    2481
    2305    2306    2305    2310    2306    2307    2307    2308
    2308    2311    2308    2485    2309    2314    2309    2310
    2310    2311    2311    2312    2312    2315    2312    2489
    2313    2318    2313    2314    2314    2315    2315    2316
    2316    2319    2316    2493    2317    2322    2317    2318
    2318    2319    2319    2320    2320    2323    2320    2497
    2321    2322    2321    2326    2322    2323    2323    2324
    2324    2327    2324    2501    2325    2326    2325    2330
    2326    2327    2327    2328    2328    2331    2328    2505
    2329    2334    2329    2330    2330    2331    2331    2332
    2332    2335    2332    2509    2333    2338    2333    2334
    2334    2335    2335    2336    2336    2339    2336    2513
    2337    2338    2338    2339    2339    2340    2340    2517
    2341    2342    2341    2346    2342    2343    2343    2344
    2344    2347    2344    2521    2345    2346    2345    2350
    2346    2347    2347    2348    2348    2351    2348    2525
    2349    2354    2349    2350    2350    2351    2351    2352
    2352    2355    2352    2529    2353    2358    2353    2354
    2354    2355    2355    2356    2356    2359    2356    2533
    2357    2362    2357    2358    2358    2359    2359    2360
    2360    2363    2360    2537    2361    2362    2361    2366
    2362    2363    2363    2364    2364    2367    2364    2541
    2365    2366    2365    2370    2366    2367    2367    2368
    2368    2371    2368    2545    2369    2374    2369    2370
    2370    2371    2371    2372    2372    2375    2372    2549
    2373    2378    2373    2374    2374    2375    2375    2376
    2376    2379    2376    2553    2377    2382    2377    2378
    2378    2379    2379    2380    2380    2383    2380    2557
    2381    2382    2381    2386    2382    2383    2383    2384
    2384    2387    2384    2561    2385    2386    2385    2390
    2386    2387    2387    2388    2388    2391    2388    2565
    2389    2394    2389    2390    2390    2391    2391    2392
    2392    2395    2392    2569    2393    2398    2393    2394
    2394    2395    2395    2396    2396    2399    2396    2573
    2397    2402    2397    2398    2398    2399    2399    2400
    2400    2403    2400    2577    2401    2402    2401    2406
    2402    2403    2403    2404    2404    2407    2404    2581
    2405    2406    2405    2410    2406    2407    2407    2408
    2408    2411    2408    2585    2409    2414    2409    2410
    2410    2411    2411    2412    2412    2415    2412    2589
    2413    2414    2413    2418    2414    2415    2415    2416
    2416    2419    2416    2593    2417    2422    2417    2418
    2418    2419    2419    2420    2420    2423    2420    2597
    2421    2422    2421    2426    2422    2423    2423    2424
    2424    2427    2424    2601    2425    2426    2425    2430
    2426    2427    2427    2428    2428    2431    2428    2605
    2429    2434    2429    2430    2430    2431    2431    2432
    2432    2435    2432    2609    2433    2438    2433    2434
    2434    2435    2435    2436    2436    2439    2436    2613
    2437    2442    2437    2438    2438    2439    2439    2440
    2440    2443    2440    2617    2441    2442    2441    2446
    2442    2443    2443    2444    2444    2447    2444    2621
    2445    2446    2445    2450    2446    2447    2447    2448
    2448    2451    2448    2625    2449    2454    2449    2450
    2450    2451    2451    2452    2452    2455    2452    2629
    2453    2458    2453    2454    2454    2455    2455    2456
    2456    2459    2456    2633    2457    2462    2457    2458
    2458    2459    2459    2460    2460    2463    2460    2637
    2461    2462    2461    2466    2462    2463    2463    2464
    2464    2467    2464    2641    2465    2466    2465    2470
    2466    2467    2467    2468    2468    2471    2468    2645
    2469    2474    2469    2470    2470    2471    2471    2472
    2472    2475    2472    2649    2473    2478    2473    2474
    2474    2475    2475    2476    2476    2479    2476    2653
    2477    2482    2477    2478    2478    2479    2479    2480
    2480    2483    2480    2657    2481    2482    2481    2486
    2482    2483    2483    2484    2484    2487    2484    2661
    2485    2486    2485    2490    2486    2487    2487    2488
    2488    2491    2488    2665    2489    2494    2489    2490
    2490    2491    2491    2492    2492    2495    2492    2669
    2493    2498    2493    2494    2494    2495    2495    2496
    2496    2499    2496    2673    2497    2502    2497    2498
    2498    2499    2499    2500    2500    2503    2500    2677
    2501    2502    2501    2506    2502    2503    2503    2504
    2504    2507    2504    2681    2505    2506    2505    2510
    2506    2507    2507    2508    2508    2511    2508    2685
    2509    2514    2509    2510    2510    2511    2511    2512
    2512    2515    2512    2689    2513    2518    2513    2514
    2514    2515    2515    2516    2516    2519    2516    2693
    2517    2518    2518    2519    2519    2520    2520    2697
    2521    2522    2521    2526    2522    2523    2523    2524
    2524    2527    2524    2701    2525    2526    2525    2530
    2526    2527    2527    2528    2528    2531    2528    2705
    2529    2534    2529    2530    2530    2531    2531    2532
    2532    2535    2532    2709    2533    2538    2533    2534
    2534    2535    2535    2536    2536    2539    2536    2713
    2537    2542    2537    2538    2538    2539    2539    2540
    2540    2543    2540    2717    2541    2542    2541    2546
    2542    2543    2543    2544    2544    2547    2544    2721
    2545    2546    2545    2550    2546    2547    2547    2548
    2548    2551    2548    2725    2549    2554    2549    2550
    2550    2551    2551    2552    2552    2555    2552    2729
    2553    2558    2553    2554    2554    2555    2555    2556
    2556    2559    2556    2733    2557    2562    2557    2558
    2558    2559    2559    2560    2560    2563    2560    2737
    2561    2562    2561    2566    2562    2563    2563    2564
    2564    2567    2564    2741    2565    2566    2565    2570
    2566    2567    2567    2568    2568    2571    2568    2745
    2569    2574    2569    2570    2570    2571    2571    2572
    2572    2575    2572    2749    2573    2578    2573    2574
    2574    2575    2575    2576    2576    2579    2576    2753
    2577    2582    2577    2578    2578    2579    2579    2580
    2580    2583    2580    2757    2581    2582    2581    2586
    2582    2583    2583    2584    2584    2587    2584    2761
    2585    2586    2585    2590    2586    2587    2587    2588
    2588    2591    2588    2765    2589    2594    2589    2590
    2590    2591    2591    2592    2592    2595    2592    2769
    2593    2598    2593    2594    2594    2595    2595    2596
    2596    2599    2596    2773    2597    2602    2597    2598
    2598    2599    2599    2600    2600    2603    2600    2777
    2601    2602    2601    2606    2602    2603    2603    2604
    2604    2607    2604    2781    2605    2606    2605    2610
    2606    2607    2607    2608    2608    2611    2608    2785
    2609    2614    2609    2610    2610    2611    2611    2612
    2612    2615    2612    2789    2613    2618    2613    2614
    2614    2615    2615    2616    2616    2619    2616    2793
    2617    2622    2617    2618    2618    2619    2619    2620
    2620    2623    2620    2797    2621    2622    2621    2626
    2622    2623    2623    2624    2624    2627    2624    2801
    2625    2626    2625    2630    2626    2627    2627    2628
    2628    2631    2628    2805    2629    2634    2629    2630
    2630    2631    2631    2632    2632    2635    2632    2809
    2633    2634    2633    2638    2634    2635    2635    2636
    2636    2639    2636    2813    2637    2642    2637    2638
    2638    2639    2639    2640    2640    2643    2640    2817
    2641    2642    2641    2646    2642    2643    2643    2644
    2644    2647    2644    2821    2645    2646    2645    2650
    2646    2647    2647    2648    2648    2651    2648    2825
    2649    2654    2649    2650    2650    2651    2651    2652
    2652    2655    2652    2829    2653    2658    2653    2654
    2654    2655    2655    2656    2656    2659    2656    2833
    2657    2662    2657    2658    2658    2659    2659    2660
    2660    2663    2660    2837    2661    2662    2661    2666
    2662    2663    2663    2664    2664    2667    2664    2841
    2665    2666    2665    2670    2666    2667    2667    2668
    2668    2671    2668    2845    2669    2674    2669    2670
    2670    2671    2671    2672    2672    2675    2672    2849
    2673    2678    2673    2674    2674    2675    2675    2676
    2676    2679    2676    2853    2677    2682    2677    2678
    2678    2679    2679    2680    2680    2683    2680    2857
    2681    2682    2681    2686    2682    2683    2683    2684
    2684    2687    2684    2861    2685    2686    2685    2690
    2686    2687    2687    2688    2688    2691    2688    2865
    2689    2694    2689    2690    2690    2691    2691    2692
    2692    2695    2692    2869    2693    2698    2693    2694
    2694    2695    2695    2696    2696    2699    2696    2873
    2697    2698    2698    2699    2699    2700    2700    2877
    2701    2702    2701    2706    2702    2703    2703    2704
    2704    2707    2704    2881    2705    2706    2705    2710
    2706    2707    2707    2708    2708    2711    2708    2885
    2709    2714    2709    2710    2710    2711    2711    2712
    2712    2715    2712    2889    2713    2718    2713    2714
    2714    2715    2715    2716    2716    2719    2716    2893
    2717    2722    2717    2718    2718    2719    2719    2720
    2720    2723    2720    2897    2721    2722    2721    2726
    2722    2723    2723    2724    2724    2727    2724    2901
    2725    2726    2725    2730    2726    2727    2727    2728
    2728    2731    2728    2905    2729    2734    2729    2730
    2730    2731    2731    2732    2732    2735    2732    2909
    2733    2738    2733    2734    2734    2735    2735    2736
    2736    2739    2736    2913    2737    2742    2737    2738
    2738    2739    2739    2740    2740    2743    2740    2917
    2741    2742    2741    2746    2742    2743    2743    2744
    2744    2747    2744    2921    2745    2746    2745    2750
    2746    2747    2747    2748    2748    2751    2748    2925
    2749    2754    2749    2750    2750    2751    2751    2752
    2752    2755    2752    2929    2753    2758    2753    2754
    2754    2755    2755    2756    2756    2759    2756    2933
    2757    2762    2757    2758    2758    2759    2759    2760
    2760    2763    2760    2937    2761    2762    2761    2766
    2762    2763    2763    2764    2764    2767    2764    2941
    2765    2766    2765    2770    2766    2767    2767    2768
    2768    2771    2768    2945    2769    2774    2769    2770
    2770    2771    2771    2772    2772    2775    2772    2949
    2773    2778    2773    2774    2774    2775    2775    2776
    2776    2779    2776    2953    2777    2782    2777    2778
    2778    2779    2779    2780    2780    2783    2780    2957
    2781    2782    2781    2786    2782    2783    2783    2784
    2784    2787    2784    2961    2785    2786    2785    2790
    2786    2787    2787    2788    2788    2791    2788    2965
    2789    2794    2789    2790    2790    2791    2791    2792
    2792    2795    2792    2969    2793    2798    2793    2794
    2794    2795    2795    2796    2796    2799    2796    2973
    2797    2802    2797    2798    2798    2799    2799    2800
    2800    2803    2800    2977    2801    2802    2801    2806
    2802    2803    2803    2804    2804    2807    2804    2981
    2805    2806    2805    2810    2806    2807    2807    2808
    2808    2811    2808    2985    2809    2814    2809    2810
    2810    2811    2811    2812    2812    2815    2812    2989
    2813    2818    2813    2814    2814    2815    2815    2816
    2816    2819    2816    2993    2817    2822    2817    2818
    2818    2819    2819    2820    2820    2823    2820    2997
    2821    2822    2821    2826    2822    2823    2823    2824
    2824    2827    2824    3001    2825    2826    2825    2830
    2826    2827    2827    2828    2828    2831    2828    3005
    2829    2834    2829    2830    2830    2831    2831    2832
    2832    2835    2832    3009    2833    2838    2833    2834
    2834    2835    2835    2836    2836    2839    2836    3013
    2837    2842    2837    2838    2838    2839    2839    2840
    2840    2843    2840    3017    2841    2842    2841    2846
    2842    2843    2843    2844    2844    2847    2844    3021
    2845    2846    2845    2850    2846    2847    2847    2848
    2848    2851    2848    3025    2849    2854    2849    2850
    2850    2851    2851    2852    2852    2855    2852    3029
    2853    2854    2853    2858    2854    2855    2855    2856
    2856    2859    2856    3033    2857    2862    2857    2858
    2858    2859    2859    2860    2860    2863    2860    3037
    2861    2862    2861    2866    2862    2863    2863    2864
    2864    2867    2864    3041    2865    2866    2865    2870
    2866    2867    2867    2868    2868    2871    2868    3045
    2869    2874    2869    2870    2870    2871    2871    2872
    2872    2875    2872    3049    2873    2878    2873    2874
    2874    2875    2875    2876    2876    2879    2876    3053
    2877    2878    2878    2879    2879    2880    2880    3057
    2881    2882    2881    2886    2882    2883    2883    2884
    2884    2887    2884    3061    2885    2886    2885    2890
    2886    2887    2887    2888    2888    2891    2888    3065
    2889    2894    2889    2890    2890    2891    2891    2892
    2892    2895    2892    3069    2893    2898    2893    2894
    2894    2895    2895    2896    2896    2899    2896    3073
    2897    2902    2897    2898    2898    2899    2899    2900
    2900    2903    2900    3077    2901    2902    2901    2906
    2902    2903    2903    2904    2904    2907    2904    3081
    2905    2906    2905    2910    2906    2907    2907    2908
    2908    2911    2908    3085    2909    2914    2909    2910
    2910    2911    2911    2912    2912    2915    2912    3089
    2913    2918    2913    2914    2914    2915    2915    2916
    2916    2919    2916    3093    2917    2922    2917    2918
    2918    2919    2919    2920    2920    2923    2920    3097
    2921    2922    2921    2926    2922    2923    2923    2924
    2924    2927    2924    3101    2925    2926    2925    2930
    2926    2927    2927    2928    2928    2931    2928    3105
    2929    2934    2929    2930    2930    2931    2931    2932
    2932    2935    2932    3109    2933    2938    2933    2934
    2934    2935    2935    2936    2936    2939    2936    3113
    2937    2942    2937    2938    2938    2939    2939    2940
    2940    2943    2940    3117    2941    2942    2941    2946
    2942    2943    2943    2944    2944    2947    2944    3121
    2945    2946    2945    2950    2946    2947    2947    2948
    2948    2951    2948    3125    2949    2954    2949    2950
    2950    2951    2951    2952    2952    2955    2952    3129
    2953    2958    2953    2954    2954    2955    2955    2956
    2956    2959    2956    3133    2957    2962    2957    2958
    2958    2959    2959    2960    2960    2963    2960    3137
    2961    2962    2961    2966    2962    2963    2963    2964
    2964    2967    2964    3141    2965    2966    2965    2970
    2966    2967    2967    2968    2968    2971    2968    3145
    2969    2974    2969    2970    2970    2971    2971    2972
    2972    2975    2972    3149    2973    2978    2973    2974
    2974    2975    2975    2976    2976    2979    2976    3153
    2977    2982    2977    2978    2978    2979    2979    2980
    2980    2983    2980    3157    2981    2982    2981    2986
    2982    2983    2983    2984    2984    2987    2984    3161
    2985    2986    2985    2990    2986    2987    2987    2988
    2988    2991    2988    3165    2989    2994    2989    2990
    2990    2991    2991    2992    2992    2995    2992    3169
    2993    2998    2993    2994    2994    2995    2995    2996
    2996    2999    2996    3173    2997    3002    2997    2998
    2998    2999    2999    3000    3000    3003    3000    3177
    3001    3002    3001    3006    3002    3003    3003    3004
    3004    3007    3004    3181    3005    3006    3005    3010
    3006    3007    3007    3008    3008    3011    3008    3185
    3009    3014    3009    3010    3010    3011    3011    3012
    3012    3015    3012    3189    3013    3018    3013    3014
    3014    3015    3015    3016    3016    3019    3016    3193
    3017    3022    3017    3018    3018    3019    3019    3020
    3020    3023    3020    3197    3021    3022    3021    3026
    3022    3023    3023    3024    3024    3027    3024    3201
    3025    3026    3025    3030    3026    3027    3027    3028
    3028    3031    3028    3205    3029    3034    3029    3030
    3030    3031    3031    3032    3032    3035    3032    3209
    3033    3038    3033    3034    3034    3035    3035    3036
    3036    3039    3036    3213    3037    3042    3037    3038
    3038    3039    3039    3040    3040    3043    3040    3217
    3041    3042    3041    3046    3042    3043    3043    3044
    3044    3047    3044    3221    3045    3046    3045    3050
    3046    3047    3047    3048    3048    3051    3048    3225
    3049    3054    3049    3050    3050    3051    3051    3052
    3052    3055    3052    3229    3053    3058    3053    3054
    3054    3055    3055    3056    3056    3059    3056    3233
    3057    3058    3058    3059    3059    3060    3060    3237
    3061    3062    3061    3066    3062    3063    3063    3064
    3064    3067    3064    3241    3065    3066    3065    3070
    3066    3067    3067    3068    3068    3071    3068    3245
    3069    3074    3069    3070    3070    3071    3071    3072
    3072    3075    3072    3249    3073    3078    3073    3074
    3074    3075    3075    3076    3076    3079    3076    3253
    3077    3082    3077    3078    3078    3079    3079    3080
    3080    3083    3080    3257    3081    3082    3081    3086
    3082    3083    3083    3084    3084    3087    3084    3261
    3085    3086    3085    3090    3086    3087    3087    3088
    3088    3091    3088    3265    3089    3094    3089    3090
    3090    3091    3091    3092    3092    3095    3092    3269
    3093    3094    3093    3098    3094    3095    3095    3096
    3096    3099    3096    3273    3097    3102    3097    3098
    3098    3099    3099    3100    3100    3103    3100    3277
    3101    3102    3101    3106    3102    3103    3103    3104
    3104    3107    3104    3281    3105    3106    3105    3110
    3106    3107    3107    3108    3108    3111    3108    3285
    3109    3114    3109    3110    3110    3111    3111    3112
    3112    3115    3112    3289    3113    3118    3113    3114
    3114    3115    3115    3116    3116    3119    3116    3293
    3117    3122    3117    3118    3118    3119    3119    3120
    3120    3123    3120    3297    3121    3122    3121    3126
    3122    3123    3123    3124    3124    3127    3124    3301
    3125    3126    3125    3130    3126    3127    3127    3128
    3128    3131    3128    3305    3129    3134    3129    3130
    3130    3131    3131    3132    3132    3135    3132    3309
    3133    3138    3133    3134    3134    3135    3135    3136
    3136    3139    3136    3313    3137    3142    3137    3138
    3138    3139    3139    3140    3140    3143    3140    3317
    3141    3142    3141    3146    3142    3143    3143    3144
    3144    3147    3144    3321    3145    3146    3145    3150
    3146    3147    3147    3148    3148    3151    3148    3325
    3149    3154    3149    3150    3150    3151    3151    3152
    3152    3155    3152    3329    3153    3158    3153    3154
    3154    3155    3155    3156    3156    3159    3156    3333
    3157    3162    3157    3158    3158    3159    3159    3160
    3160    3163    3160    3337    3161    3162    3161    3166
    3162    3163    3163    3164    3164    3167    3164    3341
    3165    3166    3165    3170    3166    3167    3167    3168
    3168    3171    3168    3345    3169    3174    3169    3170
    3170    3171    3171    3172    3172    3175    3172    3349
    3173    3178    3173    3174    3174    3175    3175    3176
    3176    3179    3176    3353    3177    3182    3177    3178
    3178    3179    3179    3180    3180    3183    3180    3357
    3181    3182    3181    3186    3182    3183    3183    3184
    3184    3187    3184    3361    3185    3186    3185    3190
    3186    3187    3187    3188    3188    3191    3188    3365
    3189    3194    3189    3190    3190    3191    3191    3192
    3192    3195    3192    3369    3193    3198    3193    3194
    3194    3195    3195    3196    3196    3199    3196    3373
    3197    3202    3197    3198    3198    3199    3199    3200
    3200    3203    3200    3377    3201    3202    3201    3206
    3202    3203    3203    3204    3204    3207    3204    3381
    3205    3206    3205    3210    3206    3207    3207    3208
    3208    3211    3208    3385    3209    3214    3209    3210
    3210    3211    3211    3212    3212    3215    3212    3389
    3213    3218    3213    3214    3214    3215    3215    3216
    3216    3219    3216    3393    3217    3222    3217    3218
    3218    3219    3219    3220    3220    3223    3220    3397
    3221    3222    3221    3226    3222    3223    3223    3224
    3224    3227    3224    3401    3225    3226    3225    3230
    3226    3227    3227    3228    3228    3231    3228    3405
    3229    3234    3229    3230    3230    3231    3231    3232
    3232    3235    3232    3409    3233    3238    3233    3234
    3234    3235    3235    3236    3236    3239    3236    3413
    3237    3238    3238    3239    3239    3240    3240    3417
    3241    3242    3241    3246    3242    3243    3243    3244
    3244    3247    3244    3421    3245    3246    3245    3250
    3246    3247    3247    3248    3248    3251    3248    3425
    3249    3254    3249    3250    3250    3251    3251    3252
    3252    3255    3252    3429    3253    3258    3253    3254
    3254    3255    3255    3256    3256    3259    3256    3433
    3257    3262    3257    3258    3258    3259    3259    3260
    3260    3263    3260    3437    3261    3262    3261    3266
    3262    3263    3263    3264    3264    3267    3264    3441
    3265    3266    3265    3270    3266    3267    3267    3268
    3268    3271    3268    3445    3269    3274    3269    3270
    3270    3271    3271    3272    3272    3275    3272    3449
    3273    3278    3273    3274    3274    3275    3275    3276
    3276    3279    3276    3453    3277    3282    3277    3278
    3278    3279    3279    3280    3280    3283    3280    3457
    3281    3282    3281    3286    3282    3283    3283    3284
    3284    3287    3284    3461    3285    3286    3285    3290
    3286    3287    3287    3288    3288    3291    3288    3465
    3289    3294    3289    3290    3290    3291    3291    3292
    3292    3295    3292    3469    3293    3298    3293    3294
    3294    3295    3295    3296    3296    3299    3296    3473
    3297    3302    3297    3298    3298    3299    3299    3300
    3300    3303    3300    3477    3301    3302    3301    3306
    3302    3303    3303    3304    3304    3307    3304    3481
    3305    3306    3305    3310    3306    3307    3307    3308
    3308    3311    3308    3485    3309    3314    3309    3310
    3310    3311    3311    3312    3312    3315    3312    3489
    3313    3314    3313    3318    3314    3315    3315    3316
    3316    3319    3316    3493    3317    3322    3317    3318
    3318    3319    3319    3320    3320    3323    3320    3497
    3321    3322    3321    3326    3322    3323    3323    3324
    3324    3327    3324    3501    3325    3326    3325    3330
    3326    3327    3327    3328    3328    3331    3328    3505
    3329    3334    3329    3330    3330    3331    3331    3332
    3332    3335    3332    3509    3333    3338    3333    3334
    3334    3335    3335    3336    3336    3339    3336    3513
    3337    3342    3337    3338    3338    3339    3339    3340
    3340    3343    3340    3517    3341    3342    3341    3346
    3342    3343    3343    3344    3344    3347    3344    3521
    3345    3346    3345    3350    3346    3347    3347    3348
    3348    3351    3348    3525    3349    3354    3349    3350
    3350    3351    3351    3352    3352    3355    3352    3529
    3353    3358    3353    3354    3354    3355    3355    3356
    3356    3359    3356    3533    3357    3362    3357    3358
    3358    3359    3359    3360    3360    3363    3360    3537
    3361    3362    3361    3366    3362    3363    3363    3364
    3364    3367    3364    3541    3365    3366    3365    3370
    3366    3367    3367    3368    3368    3371    3368    3545
    3369    3374    3369    3370    3370    3371    3371    3372
    3372    3375    3372    3549    3373    3378    3373    3374
    3374    3375    3375    3376    3376    3379    3376    3553
    3377    3382    3377    3378    3378    3379    3379    3380
    3380    3383    3380    3557    3381    3382    3381    3386
    3382    3383    3383    3384    3384    3387    3384    3561
    3385    3386    3385    3390    3386    3387    3387    3388
    3388    3391    3388    3565    3389    3394    3389    3390
    3390    3391    3391    3392    3392    3395    3392    3569
    3393    3398    3393    3394    3394    3395    3395    3396
    3396    3399    3396    3573    3397    3402    3397    3398
    3398    3399    3399    3400    3400    3403    3400    3577
    3401    3402    3401    3406    3402    3403    3403    3404
    3404    3407    3404    3581    3405    3406    3405    3410
    3406    3407    3407    3408    3408    3411    3408    3585
    3409    3414    3409    3410    3410    3411    3411    3412
    3412    3415    3412    3589    3413    3418    3413    3414
    3414    3415    3415    3416    3416    3419    3416    3593
    3417    3418    3418    3419    3419    3420    3420    3597
    3421    3422    3421    3426    3422    3423    3423    3424
    3424    3427    3424    3601    3425    3426    3425    3430
    3426    3427    3427    3428    3428    3431    3428    3605
    3429    3434    3429    3430    3430    3431    3431    3432
    3432    3435    3432    3609    3433    3438    3433    3434
    3434    3435    3435    3436    3436    3439    3436    3613
    3437    3442    3437    3438    3438    3439    3439    3440
    3440    3443    3440    3617    3441    3442    3441    3446
    3442    3443    3443    3444    3444    3447    3444    3621
    3445    3446    3445    3450    3446    3447    3447    3448
    3448    3451    3448    3625    3449    3454    3449    3450
    3450    3451    3451    3452    3452    3455    3452    3629
    3453    3458    3453    3454    3454    3455    3455    3456
    3456    3459    3456    3633    3457    3462    3457    3458
    3458    3459    3459    3460    3460    3463    3460    3637
    3461    3462    3461    3466    3462    3463    3463    3464
    3464    3467    3464    3641    3465    3466    3465    3470
    3466    3467    3467    3468    3468    3471    3468    3645
    3469    3474    3469    3470    3470    3471    3471    3472
    3472    3475    3472    3649    3473    3478    3473    3474
    3474    3475    3475    3476    3476    3479    3476    3653
    3477    3482    3477    3478    3478    3479    3479    3480
    3480    3483    3480    3657    3481    3482    3481    3486
    3482    3483    3483    3484    3484    3487    3484    3661
    3485    3486    3485    3490    3486    3487    3487    3488
    3488    3491    3488    3665    3489    3494    3489    3490
    3490    3491    3491    3492    3492    3495    3492    3669
    3493    3498    3493    3494    3494    3495    3495    3496
    3496    3499    3496    3673    3497    3502    3497    3498
    3498    3499    3499    3500    3500    3503    3500    3677
    3501    3502    3501    3506    3502    3503    3503    3504
    3504    3507    3504    3681    3505    3506    3505    3510
    3506    3507    3507    3508    3508    3511    3508    3685
    3509    3514    3509    3510    3510    3511    3511    3512
    3512    3515    3512    3689    3513    3518    3513    3514
    3514    3515    3515    3516    3516    3519    3516    3693
    3517    3522    3517    3518    3518    3519    3519    3520
    3520    3523    3520    3697    3521    3522    3521    3526
    3522    3523    3523    3524    3524    3527    3524    3701
    3525    3526    3525    3530    3526    3527    3527    3528
    3528    3531    3528    3705    3529    3534    3529    3530
    3530    3531    3531    3532    3532    3535    3532    3709
    3533    3534    3533    3538    3534    3535    3535    3536
    3536    3539    3536    3713    3537    3542    3537    3538
    3538    3539    3539    3540    3540    3543    3540    3717
    3541    3542    3541    3546    3542    3543    3543    3544
    3544    3547    3544    3721    3545    3546    3545    3550
    3546    3547    3547    3548    3548    3551    3548    3725
    3549    3554    3549    3550    3550    3551    3551    3552
    3552    3555    3552    3729    3553    3558    3553    3554
    3554    3555    3555    3556    3556    3559    3556    3733
    3557    3562    3557    3558    3558    3559    3559    3560
    3560    3563    3560    3737    3561    3562    3561    3566
    3562    3563    3563    3564    3564    3567    3564    3741
    3565    3566    3565    3570    3566    3567    3567    3568
    3568    3571    3568    3745    3569    3574    3569    3570
    3570    3571    3571    3572    3572    3575    3572    3749
    3573    3578    3573    3574    3574    3575    3575    3576
    3576    3579    3576    3753    3577    3582    3577    3578
    3578    3579    3579    3580    3580    3583    3580    3757
    3581    3582    3581    3586    3582    3583    3583    3584
    3584    3587    3584    3761    3585    3586    3585    3590
    3586    3587    3587    3588    3588    3591    3588    3765
    3589    3594    3589    3590    3590    3591    3591    3592
    3592    3595    3592    3769    3593    3598    3593    3594
    3594    3595    3595    3596    3596    3599    3596    3773
    3597    3598    3598    3599    3599    3600    3600    3777
    3601    3602    3601    3606    3602    3603    3603    3604
    3604    3781    3604    3607    3605    3606    3605    3610
    3606    3607    3607    3608    3608    3785    3608    3611
    3609    3614    3609    3610    3610    3611    3611    3612
    3612    3615    3612    3789    3613    3618    3613    3614
    3614    3615    3615    3616    3616    3619    3616    3793
    3617    3622    3617    3618    3618    3619    3619    3620
    3620    3797    3620    3623    3621    3622    3621    3626
    3622    3623    3623    3624    3624    3801    3624    3627
    3625    3626    3625    3630    3626    3627    3627    3628
    3628    3805    3628    3631    3629    3630    3629    3634
    3630    3631    3631    3632    3632    3635    3632    3809
    3633    3634    3633    3638    3634    3635    3635    3636
    3636    3639    3636    3813    3637    3638    3637    3642
    3638    3639    3639    3640    3640    3817    3640    3643
    3641    3642    3641    3646    3642    3643    3643    3644
    3644    3821    3644    3647    3645    3646    3645    3650
    3646    3647    3647    3648    3648    3825    3648    3651
    3649    3654    3649    3650    3650    3651    3651    3652
    3652    3829    3652    3655    3653    3658    3653    3654
    3654    3655    3655    3656    3656    3833    3656    3659
    3657    3662    3657    3658    3658    3659    3659    3660
    3660    3837    3660    3663    3661    3662    3661    3666
    3662    3663    3663    3664    3664    3841    3664    3667
    3665    3666    3665    3670    3666    3667    3667    3668
    3668    3845    3668    3671    3669    3674    3669    3670
    3670    3671    3671    3672    3672    3675    3672    3849
    3673    3678    3673    3674    3674    3675    3675    3676
    3676    3679    3676    3853    3677    3682    3677    3678
    3678    3679    3679    3680    3680    3857    3680    3683
    3681    3682    3681    3686    3682    3683    3683    3684
    3684    3861    3684    3687    3685    3686    3685    3690
    3686    3687    3687    3688    3688    3865    3688    3691
    3689    3690    3689    3694    3690    3691    3691    3692
    3692    3695    3692    3869    3693    3694    3693    3698
    3694    3695    3695    3696    3696    3699    3696    3873
    3697    3698    3697    3702    3698    3699    3699    3700
    3700    3877    3700    3703    3701    3702    3701    3706
    3702    3703    3703    3704    3704    3881    3704    3707
    3705    3706    3705    3710    3706    3707    3707    3708
    3708    3885    3708    3711    3709    3714    3709    3710
    3710    3711    3711    3712    3712    3889    3712    3715
    3713    3718    3713    3714    3714    3715    3715    3716
    3716    3893    3716    3719    3717    3722    3717    3718
    3718    3719    3719    3720    3720    3897    3720    3723
    3721    3722    3721    3726    3722    3723    3723    3724
    3724    3901    3724    3727    3725    3726    3725    3730
    3726    3727    3727    3728    3728    3905    3728    3731
    3729    3734    3729    3730    3730    3731    3731    3732
    3732    3735    3732    3909    3733    3738    3733    3734
    3734    3735    3735    3736    3736    3739    3736    3913
    3737    3742    3737    3738    3738    3739    3739    3740
    3740    3917    3740    3743    3741    3742    3741    3746
    3742    3743    3743    3744    3744    3921    3744    3747
    3745    3746    3745    3750    3746    3747    3747    3748
    3748    3925    3748    3751    3749    3754    3749    3750
    3750    3751    3751    3752    3752    3755    3752    3929
    3753    3754    3753    3758    3754    3755    3755    3756
    3756    3759    3756    3933    3757    3758    3757    3762
    3758    3759    3759    3760    3760    3937    3760    3763
    3761    3762    3761    3766    3762    3763    3763    3764
    3764    3941    3764    3767    3765    3766    3765    3770
    3766    3767    3767    3768    3768    3945    3768    3771
    3769    3770    3769    3774    3770    3771    3771    3772
    3772    3775    3772    3949    3773    3774    3773    3778
    3774    3775    3775    3776    3776    3953    3776    3779
    3777    3778    3778    3779    3779    3780    3780    3957
    3781    3782    3781    3786    3782    3783    3783    3784
    3784    3961    3784    3787    3785    3786    3785    3790
    3786    3787    3787    3788    3788    3965    3788    3791
    3789    3790    3789    3794    3790    3791    3791    3792
    3792    3795    3792    3969    3793    3794    3793    3798
    3794    3795    3795    3796    3796    3973    3796    3799
    3797    3802    3797    3798    3798    3799    3799    3800
    3800    3977    3800    3803    3801    3802    3801    3806
    3802    3803    3803    3804    3804    3981    3804    3807
    3805    3806    3805    3810    3806    3807    3807    3808
    3808    3985    3808    3811    3809    3814    3809    3810
    3810    3811    3811    3812    3812    3989    3812    3815
    3813    3818    3813    3814    3814    3815    3815    3816
    3816    3819    3816    3993    3817    3822    3817    3818
    3818    3819    3819    3820    3820    3997    3820    3823
    3821    3822    3821    3826    3822    3823    3823    3824
    3824    4001    3824    3827    3825    3826    3825    3830
    3826    3827    3827    3828    3828    4005    3828    3831
    3829    3834    3829    3830    3830    3831    3831    3832
    3832    3835    3832    4009    3833    3838    3833    3834
    3834    3835    3835    3836    3836    3839    3836    4013
    3837    3842    3837    3838    3838    3839    3839    3840
    3840    4017    3840    3843    3841    3842    3841    3846
    3842    3843    3843    3844    3844    4021    3844    3847
    3845    3846    3845    3850    3846    3847    3847    3848
    3848    4025    3848    3851    3849    3850    3849    3854
    3850    3851    3851    3852    3852    3855    3852    4029
    3853    3854    3853    3858    3854    3855    3855    3856
    3856    3859    3856    4033    3857    3858    3857    3862
    3858    3859    3859    3860    3860    4037    3860    3863
    3861    3862    3861    3866    3862    3863    3863    3864
    3864    4041    3864    3867    3865    3866    3865    3870
    3866    3867    3867    3868    3868    4045    3868    3871
    3869    3874    3869    3870    3870    3871    3871    3872
    3872    4049    3872    3875    3873    3878    3873    3874
    3874    3875    3875    3876    3876    4053    3876    3879
    3877    3882    3877    3878    3878    3879    3879    3880
    3880    4057    3880    3883    3881    3882    3881    3886
    3882    3883    3883    3884    3884    4061    3884    3887
    3885    3886    3885    3890    3886    3887    3887    3888
    3888    4065    3888    3891    3889    3894    3889    3890
    3890    3891    3891    3892    3892    3895    3892    4069
    3893    3898    3893    3894    3894    3895    3895    3896
    3896    3899    3896    4073    3897    3902    3897    3898
    3898    3899    3899    3900    3900    4077    3900    3903
    3901    3902    3901    3906    3902    3903    3903    3904
    3904    4081    3904    3907    3905    3906    3905    3910
    3906    3907    3907    3908    3908    4085    3908    3911
    3909    3910    3909    3914    3910    3911    3911    3912
    3912    3915    3912    4089    3913    3914    3913    3918
    3914    3915    3915    3916    3916    3919    3916    4093
    3917    3918    3917    3922    3918    3919    3919    3920
    3920    4097    3920    3923    3921    3922    3921    3926
    3922    3923    3923    3924    3924    4101    3924    3927
    3925    3926    3925    3930    3926    3927    3927    3928
    3928    4105    3928    3931    3929    3934    3929    3930
    3930    3931    3931    3932    3932    4109    3932    3935
    3933    3938    3933    3934    3934    3935    3935    3936
    3936    4113    3936    3939    3937    3942    3937    3938
    3938    3939    3939    3940    3940    4117    3940    3943
    3941    3942    3941    3946    3942    3943    3943    3944
    3944    4121    3944    3947    3945    3946    3945    3950
    3946    3947    3947    3948    3948    4125    3948    3951
    3949    3954    3949    3950    3950    3951    3951    3952
    3952    3955    3952    4129    3953    3958    3953    3954
    3954    3955    3955    3956    3956    3959    3956    4133
    3957    3958    3958    3959    3959    3960    3960    4137
    3961    3962    3961    3966    3962    3963    3963    3964
    3964    4141    3964    3967    3965    3966    3965    3970
    3966    3967    3967    3968    3968    4145    3968    3971
    3969    3974    3969    3970    3970    3971    3971    3972
    3972    3975    3972    4149    3973    3978    3973    3974
    3974    3975    3975    3976    3976    3979    3976    4153
    3977    3982    3977    3978    3978    3979    3979    3980
    3980    4157    3980    3983    3981    3982    3981    3986
    3982    3983    3983    3984    3984    4161    3984    3987
    3985    3986    3985    3990    3986    3987    3987    3988
    3988    4165    3988    3991    3989    3994    3989    3990
    3990    3991    3991    3992    3992    3995    3992    4169
    3993    3994    3993    3998    3994    3995    3995    3996
    3996    3999    3996    4173    3997    3998    3997    4002
    3998    3999    3999    4000    4000    4177    4000    4003
    4001    4002    4001    4006    4002    4003    4003    4004
    4004    4181    4004    4007    4005    4006    4005    4010
    4006    4007    4007    4008    4008    4185    4008    4011
    4009    4010    4009    4014    4010    4011    4011    4012
    4012    4015    4012    4189    4013    4014    4013    4018
    4014    4015    4015    4016    4016    4193    4016    4019
    4017    4022    4017    4018    4018    4019    4019    4020
    4020    4197    4020    4023    4021    4022    4021    4026
    4022    4023    4023    4024    4024    4201    4024    4027
    4025    4026    4025    4030    4026    4027    4027    4028
    4028    4205    4028    4031    4029    4034    4029    4030
    4030    4031    4031    4032    4032    4209    4032    4035
    4033    4038    4033    4034    4034    4035    4035    4036
    4036    4039    4036    4213    4037    4042    4037    4038
    4038    4039    4039    4040    4040    4217    4040    4043
    4041    4042    4041    4046    4042    4043    4043    4044
    4044    4221    4044    4047    4045    4046    4045    4050
    4046    4047    4047    4048    4048    4225    4048    4051
    4049    4054    4049    4050    4050    4051    4051    4052
    4052    4055    4052    4229    4053    4058    4053    4054
    4054    4055    4055    4056    4056    4059    4056    4233
    4057    4062    4057    4058    4058    4059    4059    4060
    4060    4237    4060    4063    4061    4062    4061    4066
    4062    4063    4063    4064    4064    4241    4064    4067
    4065    4066    4065    4070    4066    4067    4067    4068
    4068    4245    4068    4071    4069    4070    4069    4074
    4070    4071    4071    4072    4072    4075    4072    4249
    4073    4074    4073    4078    4074    4075    4075    4076
    4076    4079    4076    4253    4077    4078    4077    4082
    4078    4079    4079    4080    4080    4257    4080    4083
    4081    4082    4081    4086    4082    4083    4083    4084
    4084    4261    4084    4087    4085    4086    4085    4090
    4086    4087    4087    4088    4088    4265    4088    4091
    4089    4094    4089    4090    4090    4091    4091    4092
    4092    4269    4092    4095    4093    4098    4093    4094
    4094    4095    4095    4096    4096    4273    4096    4099
    4097    4102    4097    4098    4098    4099    4099    4100
    4100    4277    4100    4103    4101    4102    4101    4106
    4102    4103    4103    4104    4104    4281    4104    4107
    4105    4106    4105    4110    4106    4107    4107    4108
    4108    4285    4108    4111    4109    4114    4109    4110
    4110    4111    4111    4112    4112    4115    4112    4289
    4113    4118    4113    4114    4114    4115    4115    4116
    4116    4119    4116    4293    4117    4122    4117    4118
    4118    4119    4119    4120    4120    4297    4120    4123
    4121    4122    4121    4126    4122    4123    4123    4124
    4124    4301    4124    4127    4125    4126    4125    4130
    4126    4127    4127    4128    4128    4305    4128    4131
    4129    4130    4129    4134    4130    4131    4131    4132
    4132    4135    4132    4309    4133    4134    4133    4138
    4134    4135    4135    4136    4136    4139    4136    4313
    4137    4138    4138    4139    4139    4140    4140    4317
    4141    4142    4141    4146    4142    4143    4143    4144
    4144    4321    4144    4147    4145    4146    4145    4150
    4146    4147    4147    4148    4148    4325    4148    4151
    4149    4150    4149    4154    4150    4151    4151    4152
    4152    4155    4152    4329    4153    4154    4153    4158
    4154    4155    4155    4156    4156    4159    4156    4333
    4157    4158    4157    4162    4158    4159    4159    4160
    4160    4337    4160    4163    4161    4162    4161    4166
    4162    4163    4163    4164    4164    4341    4164    4167
    4165    4166    4165    4170    4166    4167    4167    4168
    4168    4345    4168    4171    4169    4174    4169    4170
    4170    4171    4171    4172    4172    4349    4172    4175
    4173    4178    4173    4174    4174    4175    4175    4176
    4176    4353    4176    4179    4177    4182    4177    4178
    4178    4179    4179    4180    4180    4357    4180    4183
    4181    4182    4181    4186    4182    4183    4183    4184
    4184    4361    4184    4187    4185    4186    4185    4190
    4186    4187    4187    4188    4188    4365    4188    4191
    4189    4194    4189    4190    4190    4191    4191    4192
    4192    4195    4192    4369    4193    4198    4193    4194
    4194    4195    4195    4196    4196    4199    4196    4373
    4197    4202    4197    4198    4198    4199    4199    4200
    4200    4377    4200    4203    4201    4202    4201    4206
    4202    4203    4203    4204    4204    4381    4204    4207
    4205    4206    4205    4210    4206    4207    4207    4208
    4208    4385    4208    4211    4209    4214    4209    4210
    4210    4211    4211    4212    4212    4215    4212    4389
    4213    4214    4213    4218    4214    4215    4215    4216
    4216    4219    4216    4393    4217    4218    4217    4222
    4218    4219    4219    4220    4220    4397    4220    4223
    4221    4222    4221    4226    4222    4223    4223    4224
    4224    4401    4224    4227    4225    4226    4225    4230
    4226    4227    4227    4228    4228    4405    4228    4231
    4229    4230    4229    4234    4230    4231    4231    4232
    4232    4235    4232    4409    4233    4234    4233    4238
    4234    4235    4235    4236    4236    4413    4236    4239
    4237    4242    4237    4238    4238    4239    4239    4240
    4240    4417    4240    4243    4241    4242    4241    4246
    4242    4243    4243    4244    4244    4421    4244    4247
    4245    4246    4245    4250    4246    4247    4247    4248
    4248    4425    4248    4251    4249    4254    4249    4250
    4250    4251    4251    4252    4252    4429    4252    4255
    4253    4258    4253    4254    4254    4255    4255    4256
    4256    4259    4256    4433    4257    4262    4257    4258
    4258    4259    4259    4260    4260    4437    4260    4263
    4261    4262    4261    4266    4262    4263    4263    4264
    4264    4441    4264    4267    4265    4266    4265    4270
    4266    4267    4267    4268    4268    4445    4268    4271
    4269    4274    4269    4270    4270    4271    4271    4272
    4272    4275    4272    4449    4273    4278    4273    4274
    4274    4275    4275    4276    4276    4279    4276    4453
    4277    4282    4277    4278    4278    4279    4279    4280
    4280    4457    4280    4283    4281    4282    4281    4286
    4282    4283    4283    4284    4284    4461    4284    4287
    4285    4286    4285    4290    4286    4287    4287    4288
    4288    4465    4288    4291    4289    4290    4289    4294
    4290    4291    4291    4292    4292    4295    4292    4469
    4293    4294    4293    4298    4294    4295    4295    4296
    4296    4299    4296    4473    4297    4298    4297    4302
    4298    4299    4299    4300    4300    4477    4300    4303
    4301    4302    4301    4306    4302    4303    4303    4304
    4304    4481    4304    4307    4305    4306    4305    4310
    4306    4307    4307    4308    4308    4485    4308    4311
    4309    4314    4309    4310    4310    4311    4311    4312
    4312    4489    4312    4315    4313    4318    4313    4314
    4314    4315    4315    4316    4316    4493    4316    4319
    4317    4318    4318    4319    4319    4320    4320    4497
    4321    4322    4321    4326    4322    4323    4323    4324
    4324    4327    4324    4501    4325    4326    4325    4330
    4326    4327    4327    4328    4328    4331    4328    4505
    4329    4334    4329    4330    4330    4331    4331    4332
    4332    4335    4332    4509    4333    4338    4333    4334
    4334    4335    4335    4336    4336    4339    4336    4513
    4337    4342    4337    4338    4338    4339    4339    4340
    4340    4343    4340    4517    4341    4342    4341    4346
    4342    4343    4343    4344    4344    4347    4344    4521
    4345    4346    4345    4350    4346    4347    4347    4348
    4348    4351    4348    4525    4349    4354    4349    4350
    4350    4351    4351    4352    4352    4355    4352    4529
    4353    4358    4353    4354    4354    4355    4355    4356
    4356    4359    4356    4533    4357    4362    4357    4358
    4358    4359    4359    4360    4360    4363    4360    4537
    4361    4362    4361    4366    4362    4363    4363    4364
    4364    4367    4364    4541    4365    4366    4365    4370
    4366    4367    4367    4368    4368    4371    4368    4545
    4369    4374    4369    4370    4370    4371    4371    4372
    4372    4375    4372    4549    4373    4378    4373    4374
    4374    4375    4375    4376    4376    4379    4376    4553
    4377    4382    4377    4378    4378    4379    4379    4380
    4380    4383    4380    4557    4381    4382    4381    4386
    4382    4383    4383    4384    4384    4387    4384    4561
    4385    4386    4385    4390    4386    4387    4387    4388
    4388    4391    4388    4565    4389    4394    4389    4390
    4390    4391    4391    4392    4392    4395    4392    4569
    4393    4398    4393    4394    4394    4395    4395    4396
    4396    4399    4396    4573    4397    4402    4397    4398
    4398    4399    4399    4400    4400    4403    4400    4577
    4401    4402    4401    4406    4402    4403    4403    4404
    4404    4407    4404    4581    4405    4406    4405    4410
    4406    4407    4407    4408    4408    4411    4408    4585
    4409    4414    4409    4410    4410    4411    4411    4412
    4412    4415    4412    4589    4413    4418    4413    4414
    4414    4415    4415    4416    4416    4419    4416    4593
    4417    4422    4417    4418    4418    4419    4419    4420
    4420    4423    4420    4597    4421    4422    4421    4426
    4422    4423    4423    4424    4424    4427    4424    4601
    4425    4426    4425    4430    4426    4427    4427    4428
    4428    4431    4428    4605    4429    4434    4429    4430
    4430    4431    4431    4432    4432    4435    4432    4609
    4433    4438    4433    4434    4434    4435    4435    4436
    4436    4439    4436    4613    4437    4442    4437    4438
    4438    4439    4439    4440    4440    4443    4440    4617
    4441    4442    4441    4446    4442    4443    4443    4444
    4444    4447    4444    4621    4445    4446    4445    4450
    4446    4447    4447    4448    4448    4451    4448    4625
    4449    4454    4449    4450    4450    4451    4451    4452
    4452    4455    4452    4629    4453    4454    4453    4458
    4454    4455    4455    4456    4456    4459    4456    4633
    4457    4462    4457    4458    4458    4459    4459    4460
    4460    4463    4460    4637    4461    4462    4461    4466
    4462    4463    4463    4464    4464    4467    4464    4641
    4465    4466    4465    4470    4466    4467    4467    4468
    4468    4471    4468    4645    4469    4474    4469    4470
    4470    4471    4471    4472    4472    4475    4472    4649
    4473    4478    4473    4474    4474    4475    4475    4476
    4476    4479    4476    4653    4477    4482    4477    4478
    4478    4479    4479    4480    4480    4483    4480    4657
    4481    4482    4481    4486    4482    4483    4483    4484
    4484    4487    4484    4661    4485    4486    4485    4490
    4486    4487    4487    4488    4488    4491    4488    4665
    4489    4494    4489    4490    4490    4491    4491    4492
    4492    4495    4492    4669    4493    4498    4493    4494
    4494    4495    4495    4496    4496    4499    4496    4673
    4497    4498    4498    4499    4499    4500    4500    4677
    4501    4502    4501    4506    4502    4503    4503    4504
    4504    4507    4505    4506    4505    4510    4506    4507
    4507    4508    4508    4511    4509    4514    4509    4510
    4510    4511    4511    4512    4512    4515    4513    4518
    4513    4514    4514    4515    4515    4516    4516    4519
    4517    4522    4517    4518    4518    4519    4519    4520
    4520    4523    4521    4522    4521    4526    4522    4523
    4523    4524    4524    4527    4525    4526    4525    4530
    4526    4527    4527    4528    4528    4531    4529    4534
    4529    4530    4530    4531    4531    4532    4532    4535
    4533    4538    4533    4534    4534    4535    4535    4536
    4536    4539    4537    4542    4537    4538    4538    4539
    4539    4540    4540    4543    4541    4542    4541    4546
    4542    4543    4543    4544    4544    4547    4545    4546
    4545    4550    4546    4547    4547    4548    4548    4551
    4549    4554    4549    4550    4550    4551    4551    4552
    4552    4555    4553    4558    4553    4554    4554    4555
    4555    4556    4556    4559    4557    4562    4557    4558
    4558    4559    4559    4560    4560    4563    4561    4562
    4561    4566    4562    4563    4563    4564    4564    4567
    4565    4566    4565    4570    4566    4567    4567    4568
    4568    4571    4569    4574    4569    4570    4570    4571
    4571    4572    4572    4575    4573    4578    4573    4574
    4574    4575    4575    4576    4576    4579    4577    4582
    4577    4578    4578    4579    4579    4580    4580    4583
    4581    4582    4581    4586    4582    4583    4583    4584
    4584    4587    4585    4586    4585    4590    4586    4587
    4587    4588    4588    4591    4589    4594    4589    4590
    4590    4591    4591    4592    4592    4595    4593    4598
    4593    4594    4594    4595    4595    4596    4596    4599
    4597    4602    4597    4598    4598    4599    4599    4600
    4600    4603    4601    4602    4601    4606    4602    4603
    4603    4604    4604    4607    4605    4606    4605    4610
    4606    4607    4607    4608    4608    4611    4609    4614
    4609    4610    4610    4611    4611    4612    4612    4615
    4613    4618    4613    4614    4614    4615    4615    4616
    4616    4619    4617    4622    4617    4618    4618    4619
    4619    4620    4620    4623    4621    4622    4621    4626
    4622    4623    4623    4624    4624    4627    4625    4626
    4625    4630    4626    4627    4627    4628    4628    4631
    4629    4634    4629    4630    4630    4631    4631    4632
    4632    4635    4633    4638    4633    4634    4634    4635
    4635    4636    4636    4639    4637    4642    4637    4638
    4638    4639    4639    4640    4640    4643    4641    4642
    4641    4646    4642    4643    4643    4644    4644    4647
    4645    4646    4645    4650    4646    4647    4647    4648
    4648    4651    4649    4654    4649    4650    4650    4651
    4651    4652    4652    4655    4653    4658    4653    4654
    4654    4655    4655    4656    4656    4659    4657    4662
    4657    4658    4658    4659    4659    4660    4660    4663
    4661    4662    4661    4666    4662    4663    4663    4664
    4664    4667    4665    4666    4665    4670    4666    4667
    4667    4668    4668    4671    4669    4674    4669    4670
    4670    4671    4671    4672    4672    4675    4673    4674
    4673    4678    4674    4675    4675    4676    4676    4679
    4677    4678    4678    4679    4679    4680    4681    4682
    4681    4683    4684    4685    4684    4686    4687    4688
    4687    4689    4690    4691    4690    4692    4693    4694
    4693    4695    4696    4697    4696    4698    4699    4700
    4699    4701    4702    4703    4702    4704    4705    4706
    4705    4707    4708    4709    4708    4710    4711    4712
    4711    4713    4714    4715    4714    4716    4717    4718
    4717    4719    4720    4721    4720    4722    4723    4724
    4723    4725    4726    4727    4726    4728    4729    4730
    4729    4731    4732    4733    4732    4734    4735    4736
    4735    4737    4738    4739    4738    4740    4741    4742
    4741    4743    4744    4745    4744    4746    4747    4748
    4747    4749    4750    4751    4750    4752    4753    4754
    4753    4755    4756    4757    4756    4758    4759    4760
    4759    4761    4762    4763    4762    4764    4765    4766
    4765    4767    4768    4769    4768    4770    4771    4772
    4771    4773    4774    4775    4774    4776    4777    4778
    4777    4779    4780    4781    4780    4782    4783    4784
    4783    4785    4786    4787    4786    4788    4789    4790
    4789    4791    4792    4793    4792    4794    4795    4796
    4795    4797    4798    4799    4798    4800    4801    4802
    4801    4803    4804    4805    4804    4806    4807    4808
    4807    4809    4810    4811    4810    4812    4813    4814
    4813    4815    4816    4817    4816    4818    4819    4820
    4819    4821    4822    4823    4822    4824    4825    4826
    4825    4827    4828    4829    4828    4830    4831    4832
    4831    4833    4834    4835    4834    4836    4837    4838
    4837    4839    4840    4841    4840    4842    4843    4844
    4843    4845    4846    4847    4846    4848    4849    4850
    4849    4851    4852    4853    4852    4854    4855    4856
    4855    4857    4858    4859    4858    4860    4861    4862
    4861    4863    4864    4865    4864    4866    4867    4868
    4867    4869    4870    4871    4870    4872    4873    4874
    4873    4875    4876    4877    4876    4878    4879    4880
    4879    4881    4882    4883    4882    4884    4885    4886
    4885    4887    4888    4889    4888    4890    4891    4892
    4891    4893    4894    4895    4894    4896    4897    4898
    4897    4899    4900    4901    4900    4902    4903    4904
    4903    4905    4906    4907    4906    4908    4909    4910
    4909    4911    4912    4913    4912    4914    4915    4916
    4915    4917    4918    4919    4918    4920    4921    4922
    4921    4923    4924    4925    4924    4926    4927    4928
    4927    4929    4930    4931    4930    4932    4933    4934
    4933    4935    4936    4937    4936    4938    4939    4940
    4939    4941    4942    4943    4942    4944    4945    4946
    4945    4947    4948    4949    4948    4950    4951    4952
    4951    4953    4954    4955    4954    4956    4957    4958
    4957    4959    4960    4961    4960    4962    4963    4964
    4963    4965    4966    4967    4966    4968    4969    4970
    4969    4971    4972    4973    4972    4974    4975    4976
    4975    4977    4978    4979    4978    4980    4981    4982
    4981    4983    4984    4985    4984    4986    4987    4988
    4987    4989    4990    4991    4990    4992    4993    4994
    4993    4995    4996    4997    4996    4998    4999    5000
    4999    5001    5002    5003    5002    5004    5005    5006
    5005    5007    5008    5009    5008    5010    5011    5012
    5011    5013    5014    5015    5014    5016    5017    5018
    5017    5019    5020    5021    5020    5022    5023    5024
    5023    5025    5026    5027    5026    5028    5029    5030
    5029    5031    5032    5033    5032    5034    5035    5036
    5035    5037    5038    5039    5038    5040    5041    5042
    5041    5043    5044    5045    5044    5046    5047    5048
    5047    5049    5050    5051    5050    5052    5053    5054
    5053    5055    5056    5057    5056    5058    5059    5060
    5059    5061    5062    5063    5062    5064    5065    5066
    5065    5067    5068    5069    5068    5070    5071    5072
    5071    5073    5074    5075    5074    5076    5077    5078
    5077    5079    5080    5081    5080    5082    5083    5084
    5083    5085    5086    5087    5086    5088    5089    5090
    5089    5091    5092    5093    5092    5094    5095    5096
    5095    5097    5098    5099    5098    5100    5101    5102
    5101    5103    5104    5105    5104    5106    5107    5108
    5107    5109    5110    5111    5110    5112    5113    5114
    5113    5115    5116    5117    5116    5118    5119    5120
    5119    5121    5122    5123    5122    5124    5125    5126
    5125    5127    5128    5129    5128    5130    5131    5132
    5131    5133    5134    5135    5134    5136    5137    5138
    5137    5139    5140    5141    5140    5142    5143    5144
    5143    5145    5146    5147    5146    5148    5149    5150
    5149    5151    5152    5153    5152    5154    5155    5156
    5155    5157    5158    5159    5158    5160    5161    5162
    5161    5163    5164    5165    5164    5166    5167    5168
    5167    5169    5170    5171    5170    5172    5173    5174
    5173    5175    5176    5177    5176    5178    5179    5180
    5179    5181    5182    5183    5182    5184    5185    5186
    5185    5187    5188    5189    5188    5190    5191    5192
    5191    5193    5194    5195    5194    5196    5197    5198
    5197    5199    5200    5201    5200    5202    5203    5204
    5203    5205    5206    5207    5206    5208    5209    5210
    5209    5211    5212    5213    5212    5214    5215    5216
    5215    5217    5218    5219    5218    5220    5221    5222
    5221    5223    5224    5225    5224    5226    5227    5228
    5227    5229    5230    5231    5230    5232    5233    5234
    5233    5235    5236    5237    5236    5238    5239    5240
    5239    5241    5242    5243    5242    5244    5245    5246
    5245    5247    5248    5249    5248    5250    5251    5252
    5251    5253    5254    5255    5254    5256    5257    5258
    5257    5259    5260    5261    5260    5262    5263    5264
    5263    5265    5266    5267    5266    5268    5269    5270
    5269    5271    5272    5273    5272    5274    5275    5276
    5275    5277    5278    5279    5278    5280    5281    5282
    5281    5283    5284    5285    5284    5286    5287    5288
    5287    5289    5290    5291    5290    5292    5293    5294
    5293    5295    5296    5297    5296    5298    5299    5300
    5299    5301    5302    5303    5302    5304    5305    5306
    5305    5307    5308    5309    5308    5310    5311    5312
    5311    5313    5314    5315    5314    5316    5317    5318
    5317    5319    5320    5321    5320    5322    5323    5324
    5323    5325    5326    5327    5326    5328    5329    5330
    5329    5331    5332    5333    5332    5334    5335    5336
    5335    5337    5338    5339    5338    5340    5341    5342
    5341    5343    5344    5345    5344    5346    5347    5348
    5347    5349    5350    5351    5350    5352    5353    5354
    5353    5355    5356    5357    5356    5358    5359    5360
    5359    5361    5362    5363    5362    5364    5365    5366
    5365    5367    5368    5369    5368    5370    5371    5372
    5371    5373    5374    5375    5374    5376    5377    5378
    5377    5379    5380    5381    5380    5382    5383    5384
    5383    5385    5386    5387    5386    5388    5389    5390
    5389    5391    5392    5393    5392    5394    5395    5396
    5395    5397    5398    5399    5398    5400    5401    5402
    5401    5403    5404    5405    5404    5406    5407    5408
    5407    5409    5410    5411    5410    5412    5413    5414
    5413    5415    5416    5417    5416    5418    5419    5420
    5419    5421    5422    5423    5422    5424    5425    5426
    5425    5427    5428    5429    5428    5430    5431    5432
    5431    5433    5434    5435    5434    5436    5437    5438
    5437    5439    5440    5441    5440    5442    5443    5444
    5443    5445    5446    5447    5446    5448    5449    5450
    5449    5451    5452    5453    5452    5454    5455    5456
    5455    5457    5458    5459    5458    5460    5461    5462
    5461    5463    5464    5465    5464    5466    5467    5468
    5467    5469    5470    5471    5470    5472    5473    5474
    5473    5475    5476    5477    5476    5478    5479    5480
    5479    5481    5482    5483    5482    5484    5485    5486
    5485    5487    5488    5489    5488    5490    5491    5492
    5491    5493    5494    5495    5494    5496    5497    5498
    5497    5499    5500    5501    5500    5502    5503    5504
    5503    5505    5506    5507    5506    5508    5509    5510
    5509    5511    5512    5513    5512    5514    5515    5516
    5515    5517    5518    5519    5518    5520    5521    5522
    5521    5523    5524    5525    5524    5526    5527    5528
    5527    5529    5530    5531    5530    5532    5533    5534
    5533    5535    5536    5537    5536    5538    5539    5540
    5539    5541    5542    5543    5542    5544    5545    5546
    5545    5547    5548    5549    5548    5550    5551    5552
    5551    5553    5554    5555    5554    5556    5557    5558
    5557    5559    5560    5561    5560    5562    5563    5564
    5563    5565    5566    5567    5566    5568    5569    5570
    5569    5571    5572    5573    5572    5574    5575    5576
    5575    5577    5578    5579    5578    5580    5581    5582
    5581    5583    5584    5585    5584    5586    5587    5588
    5587    5589    5590    5591    5590    5592    5593    5594
    5593    5595    5596    5597    5596    5598    5599    5600
    5599    5601    5602    5603    5602    5604    5605    5606
    5605    5607    5608    5609    5608    5610    5611    5612
    5611    5613    5614    5615    5614    5616    5617    5618
    5617    5619    5620    5621    5620    5622    5623    5624
    5623    5625    5626    5627    5626    5628    5629    5630
    5629    5631    5632    5633    5632    5634    5635    5636
    5635    5637    5638    5639    5638    5640    5641    5642
    5641    5643    5644    5645    5644    5646    5647    5648
    5647    5649    5650    5651    5650    5652    5653    5654
    5653    5655    5656    5657    5656    5658    5659    5660
    5659    5661    5662    5663    5662    5664    5665    5666
    5665    5667    5668    5669    5668    5670    5671    5672
    5671    5673    5674    5675    5674    5676    5677    5678
    5677    5679    5680    5681    5680    5682    5683    5684
    5683    5685    5686    5687    5686    5688    5689    5690
    5689    5691    5692    5693    5692    5694    5695    5696
    5695    5697    5698    5699    5698    5700    5701    5702
    5701    5703    5704    5705    5704    5706    5707    5708
    5707    5709    5710    5711    5710    5712    5713    5714
    5713    5715    5716    5717    5716    5718    5719    5720
    5719    5721    5722    5723    5722    5724    5725    5726
    5725    5727    5728    5729    5728    5730    5731    5732
    5731    5733    5734    5735    5734    5736    5737    5738
    5737    5739    5740    5741    5740    5742    5743    5744
    5743    5745    5746    5747    5746    5748    5749    5750
    5749    5751    5752    5753    5752    5754    5755    5756
    5755    5757    5758    5759    5758    5760    5761    5762
    5761    5763    5764    5765    5764    5766    5767    5768
    5767    5769    5770    5771    5770    5772    5773    5774
    5773    5775    5776    5777    5776    5778    5779    5780
    5779    5781    5782    5783    5782    5784    5785    5786
    5785    5787    5788    5789    5788    5790    5791    5792
    5791    5793    5794    5795    5794    5796    5797    5798
    5797    5799    5800    5801    5800    5802    5803    5804
    5803    5805    5806    5807    5806    5808    5809    5810
    5809    5811    5812    5813    5812    5814    5815    5816
    5815    5817    5818    5819    5818    5820    5821    5822
    5821    5823    5824    5825    5824    5826    5827    5828
    5827    5829    5830    5831    5830    5832    5833    5834
    5833    5835    5836    5837    5836    5838    5839    5840
    5839    5841    5842    5843    5842    5844    5845    5846
    5845    5847    5848    5849    5848    5850    5851    5852
    5851    5853    5854    5855    5854    5856    5857    5858
    5857    5859    5860    5861    5860    5862    5863    5864
    5863    5865    5866    5867    5866    5868    5869    5870
    5869    5871    5872    5873    5872    5874    5875    5876
    5875    5877    5878    5879    5878    5880    5881    5882
    5881    5883    5884    5885    5884    5886    5887    5888
    5887    5889    5890    5891    5890    5892    5893    5894
    5893    5895    5896    5897    5896    5898    5899    5900
    5899    5901    5902    5903    5902    5904    5905    5906
    5905    5907    5908    5909    5908    5910    5911    5912
    5911    5913    5914    5915    5914    5916    5917    5918
    5917    5919    5920    5921    5920    5922    5923    5924
    5923    5925    5926    5927    5926    5928    5929    5930
    5929    5931    5932    5933    5932    5934    5935    5936
    5935    5937    5938    5939    5938    5940    5941    5942
    5941    5943    5944    5945    5944    5946    5947    5948
    5947    5949    5950    5951    5950    5952    5953    5954
    5953    5955    5956    5957    5956    5958    5959    5960
    5959    5961    5962    5963    5962    5964    5965    5966
    5965    5967    5968    5969    5968    5970    5971    5972
    5971    5973    5974    5975    5974    5976    5977    5978
    5977    5979    5980    5981    5980    5982    5983    5984
    5983    5985    5986    5987    5986    5988    5989    5990
    5989    5991    5992    5993    5992    5994    5995    5996
    5995    5997    5998    5999    5998    6000    6001    6002
    6001    6003    6004    6005    6004    6006    6007    6008
    6007    6009    6010    6011    6010    6012    6013    6014
    6013    6015    6016    6017    6016    6018    6019    6020
    6019    6021    6022    6023    6022    6024    6025    6026
    6025    6027    6028    6029    6028    6030    6031    6032
    6031    6033    6034    6035    6034    6036    6037    6038
    6037    6039    6040    6041    6040    6042    6043    6044
    6043    6045    6046    6047    6046    6048    6049    6050
    6049    6051    6052    6053    6052    6054    6055    6056
    6055    6057    6058    6059    6058    6060    6061    6062
    6061    6063    6064    6065    6064    6066    6067    6068
    6067    6069    6070    6071    6070    6072    6073    6074
    6073    6075    6076    6077    6076    6078    6079    6080
    6079    6081    6082    6083    6082    6084    6085    6086
    6085    6087    6088    6089    6088    6090    6091    6092
    6091    6093    6094    6095    6094    6096    6097    6098
    6097    6099    6100    6101    6100    6102    6103    6104
    6103    6105    6106    6107    6106    6108    6109    6110
    6109    6111    6112    6113    6112    6114    6115    6116
    6115    6117    6118    6119    6118    6120    6121    6122
    6121    6123    6124    6125    6124    6126    6127    6128
    6127    6129    6130    6131    6130    6132    6133    6134
    6133    6135    6136    6137    6136    6138    6139    6140
    6139    6141    6142    6143    6142    6144    6145    6146
    6145    6147    6148    6149    6148    6150    6151    6152
    6151    6153    6154    6155    6154    6156    6157    6158
    6157    6159    6160    6161    6160    6162    6163    6164
    6163    6165    6166    6167    6166    6168    6169    6170
    6169    6171    6172    6173    6172    6174    6175    6176
    6175    6177    6178    6179    6178    6180    6181    6182
    6181    6183    6184    6185    6184    6186    6187    6188
    6187    6189    6190    6191    6190    6192    6193    6194
    6193    6195    6196    6197    6196    6198    6199    6200
    6199    6201    6202    6203    6202    6204    6205    6206
    6205    6207    6208    6209    6208    6210    6211    6212
    6211    6213    6214    6215    6214    6216    6217    6218
    6217    6219    6220    6221    6220    6222    6223    6224
    6223    6225    6226    6227    6226    6228    6229    6230
    6229    6231    6232    6233    6232    6234    6235    6236
    6235    6237    6238    6239    6238    6240    6241    6242
    6241    6243    6244    6245    6244    6246    6247    6248
    6247    6249    6250    6251    6250    6252    6253    6254
    6253    6255    6256    6257    6256    6258    6259    6260
    6259    6261    6262    6263    6262    6264    6265    6266
    6265    6267    6268    6269    6268    6270    6271    6272
    6271    6273    6274    6275    6274    6276    6277    6278
    6277    6279    6280    6281    6280    6282    6283    6284
    6283    6285    6286    6287    6286    6288    6289    6290
    6289    6291    6292    6293    6292    6294    6295    6296
    6295    6297    6298    6299    6298    6300    6301    6302
    6301    6303    6304    6305    6304    6306    6307    6308
    6307    6309    6310    6311    6310    6312    6313    6314
    6313    6315    6316    6317    6316    6318    6319    6320
    6319    6321    6322    6323    6322    6324    6325    6326
    6325    6327    6328    6329    6328    6330    6331    6332
    6331    6333    6334    6335    6334    6336    6337    6338
    6337    6339    6340    6341    6340    6342    6343    6344
    6343    6345    6346    6347    6346    6348    6349    6350
    6349    6351    6352    6353    6352    6354    6355    6356
    6355    6357    6358    6359    6358    6360    6361    6362
    6361    6363    6364    6365    6364    6366    6367    6368
    6367    6369    6370    6371    6370    6372    6373    6374
    6373    6375    6376    6377    6376    6378    6379    6380
    6379    6381    6382    6383    6382    6384    6385    6386
    6385    6387    6388    6389    6388    6390    6391    6392
    6391    6393    6394    6395    6394    6396    6397    6398
    6397    6399    6400    6401    6400    6402    6403    6404
    6403    6405    6406    6407    6406    6408    6409    6410
    6409    6411    6412    6413    6412    6414    6415    6416
    6415    6417    6418    6419    6418    6420    6421    6422
    6421    6423    6424    6425    6424    6426    6427    6428
    6427    6429    6430    6431    6430    6432    6433    6434
    6433    6435    6436    6437    6436    6438    6439    6440
    6439    6441    6442    6443    6442    6444    6445    6446
    6445    6447    6448    6449    6448    6450    6451    6452
    6451    6453    6454    6455    6454    6456    6457    6458
    6457    6459    6460    6461    6460    6462    6463    6464
    6463    6465    6466    6467    6466    6468    6469    6470
    6469    6471    6472    6473    6472    6474    6475    6476
    6475    6477    6478    6479    6478    6480    6481    6482
    6481    6483    6484    6485    6484    6486    6487    6488
    6487    6489    6490    6491    6490    6492    6493    6494
    6493    6495    6496    6497    6496    6498    6499    6500
    6499    6501    6502    6503    6502    6504    6505    6506
    6505    6507    6508    6509    6508    6510    6511    6512
    6511    6513    6514    6515    6514    6516    6517    6518
    6517    6519    6520    6521    6520    6522    6523    6524
    6523    6525    6526    6527    6526    6528    6529    6530
    6529    6531    6532    6533    6532    6534    6535    6536
    6535    6537    6538    6539    6538    6540    6541    6542
    6541    6543    6544    6545    6544    6546    6547    6548
    6547    6549    6550    6551    6550    6552    6553    6554
    6553    6555    6556    6557    6556    6558    6559    6560
    6559    6561    6562    6563    6562    6564    6565    6566
    6565    6567    6568    6569    6568    6570    6571    6572
    6571    6573    6574    6575    6574    6576    6577    6578
    6577    6579    6580    6581    6580    6582    6583    6584
    6583    6585    6586    6587    6586    6588    6589    6590
    6589    6591    6592    6593    6592    6594    6595    6596
    6595    6597    6598    6599    6598    6600    6601    6602
    6601    6603    6604    6605    6604    6606    6607    6608
    6607    6609    6610    6611    6610    6612    6613    6614
    6613    6615    6616    6617    6616    6618    6619    6620
    6619    6621    6622    6623    6622    6624    6625    6626
    6625    6627    6628    6629    6628    6630    6631    6632
    6631    6633    6634    6635    6634    6636    6637    6638
    6637    6639    6640    6641    6640    6642    6643    6644
    6643    6645    6646    6647    6646    6648    6649    6650
    6649    6651    6652    6653    6652    6654    6655    6656
    6655    6657    6658    6659    6658    6660    6661    6662
    6661    6663    6664    6665    6664    6666    6667    6668
    6667    6669    6670    6671    6670    6672    6673    6674
    6673    6675    6676    6677    6676    6678    6679    6680
    6679    6681    6682    6683    6682    6684    6685    6686
    6685    6687    6688    6689    6688    6690    6691    6692
    6691    6693    6694    6695    6694    6696    6697    6698
    6697    6699    6700    6701    6700    6702    6703    6704
    6703    6705    6706    6707    6706    6708    6709    6710
    6709    6711    6712    6713    6712    6714    6715    6716
    6715    6717    6718    6719    6718    6720    6721    6722
    6721    6723    6724    6725    6724    6726    6727    6728
    6727    6729    6730    6731    6730    6732    6733    6734
    6733    6735    6736    6737    6736    6738    6739    6740
    6739    6741    6742    6743    6742    6744    6745    6746
    6745    6747    6748    6749    6748    6750    6751    6752
    6751    6753    6754    6755    6754    6756    6757    6758
    6757    6759    6760    6761    6760    6762    6763    6764
    6763    6765    6766    6767    6766    6768    6769    6770
    6769    6771    6772    6773    6772    6774    6775    6776
    6775    6777    6778    6779    6778    6780    6781    6782
    6781    6783    6784    6785    6784    6786    6787    6788
    6787    6789    6790    6791    6790    6792    6793    6794
    6793    6795    6796    6797    6796    6798    6799    6800
    6799    6801    6802    6803    6802    6804    6805    6806
    6805    6807    6808    6809    6808    6810    6811    6812
    6811    6813    6814    6815    6814    6816    6817    6818
    6817    6819    6820    6821    6820    6822    6823    6824
    6823    6825    6826    6827    6826    6828    6829    6830
    6829    6831    6832    6833    6832    6834    6835    6836
    6835    6837    6838    6839    6838    6840    6841    6842
    6841    6843    6844    6845    6844    6846    6847    6848
    6847    6849    6850    6851    6850    6852    6853    6854
    6853    6855    6856    6857    6856    6858    6859    6860
    6859    6861    6862    6863    6862    6864    6865    6866
    6865    6867    6868    6869    6868    6870    6871    6872
    6871    6873    6874    6875    6874    6876    6877    6878
    6877    6879    6880    6881    6880    6882    6883    6884
    6883    6885    6886    6887    6886    6888    6889    6890
    6889    6891    6892    6893    6892    6894    6895    6896
    6895    6897    6898    6899    6898    6900    6901    6902
    6901    6903    6904    6905    6904    6906    6907    6908
    6907    6909    6910    6911    6910    6912    6913    6914
    6913    6915    6916    6917    6916    6918    6919    6920
    6919    6921    6922    6923    6922    6924    6925    6926
    6925    6927    6928    6929    6928    6930    6931    6932
    6931    6933    6934    6935    6934    6936    6937    6938
    6937    6939    6940    6941    6940    6942    6943    6944
    6943    6945    6946    6947    6946    6948    6949    6950
    6949    6951    6952    6953    6952    6954    6955    6956
    6955    6957    6958    6959    6958    6960    6961    6962
    6961    6963    6964    6965    6964    6966    6967    6968
    6967    6969    6970    6971    6970    6972    6973    6974
    6973    6975    6976    6977    6976    6978    6979    6980
    6979    6981    6982    6983    6982    6984    6985    6986
    6985    6987    6988    6989    6988    6990    6991    6992
    6991    6993    6994    6995    6994    6996    6997    6998
    6997    6999    7000    7001    7000    7002    7003    7004
    7003    7005    7006    7007    7006    7008    7009    7010
    7009    7011    7012    7013    7012    7014    7015    7016
    7015    7017    7018    7019    7018    7020    7021    7022
    7021    7023    7024    7025    7024    7026    7027    7028
    7027    7029    7030    7031    7030    7032    7033    7034
    7033    7035    7036    7037    7036    7038    7039    7040
    7039    7041    7042    7043    7042    7044    7045    7046
    7045    7047    7048    7049    7048    7050    7051    7052
    7051    7053    7054    7055    7054    7056    7057    7058
    7057    7059    7060    7061    7060    7062    7063    7064
    7063    7065    7066    7067    7066    7068    7069    7070
    7069    7071    7072    7073    7072    7074    7075    7076
    7075    7077    7078    7079    7078    7080    7081    7082
    7081    7083    7084    7085    7084    7086    7087    7088
    7087    7089    7090    7091    7090    7092    7093    7094
    7093    7095    7096    7097    7096    7098    7099    7100
    7099    7101    7102    7103    7102    7104    7105    7106
    7105    7107    7108    7109    7108    7110    7111    7112
    7111    7113    7114    7115    7114    7116    7117    7118
    7117    7119    7120    7121    7120    7122    7123    7124
    7123    7125    7126    7127    7126    7128    7129    7130
    7129    7131    7132    7133    7132    7134    7135    7136
    7135    7137    7138    7139    7138    7140    7141    7142
    7141    7143    7144    7145    7144    7146    7147    7148
    7147    7149    7150    7151    7150    7152    7153    7154
    7153    7155    7156    7157    7156    7158    7159    7160
    7159    7161    7162    7163    7162    7164    7165    7166
    7165    7167    7168    7169    7168    7170    7171    7172
    7171    7173    7174    7175    7174    7176    7177    7178
    7177    7179    7180    7181    7180    7182    7183    7184
    7183    7185    7186    7187    7186    7188    7189    7190
    7189    7191    7192    7193    7192    7194    7195    7196
    7195    7197    7198    7199    7198    7200    7201    7202
    7201    7203    7204    7205    7204    7206    7207    7208
    7207    7209    7210    7211    7210    7212    7213    7214
    7213    7215    7216    7217    7216    7218    7219    7220
    7219    7221    7222    7223    7222    7224    7225    7226
    7225    7227    7228    7229    7228    7230    7231    7232
    7231    7233    7234    7235    7234    7236    7237    7238
    7237    7239    7240    7241    7240    7242    7243    7244
    7243    7245    7246    7247    7246    7248    7249    7250
    7249    7251    7252    7253    7252    7254    7255    7256
    7255    7257    7258    7259    7258    7260    7261    7262
    7261    7263    7264    7265    7264    7266    7267    7268
    7267    7269    7270    7271    7270    7272    7273    7274
    7273    7275    7276    7277    7276    7278    7279    7280
    7279    7281    7282    7283    7282    7284    7285    7286
    7285    7287    7288    7289    7288    7290    7291    7292
    7291    7293    7294    7295    7294    7296    7297    7298
    7297    7299    7300    7301    7300    7302    7303    7304
    7303    7305    7306    7307    7306    7308    7309    7310
    7309    7311    7312    7313    7312    7314    7315    7316
    7315    7317    7318    7319    7318    7320    7321    7322
    7321    7323    7324    7325    7324    7326    7327    7328
    7327    7329    7330    7331    7330    7332    7333    7334
    7333    7335    7336    7337    7336    7338    7339    7340
    7339    7341    7342    7343    7342    7344    7345    7346
    7345    7347    7348    7349    7348    7350    7351    7352
    7351    7353    7354    7355    7354    7356    7357    7358
    7357    7359    7360    7361    7360    7362    7363    7364
    7363    7365    7366    7367    7366    7368    7369    7370
    7369    7371    7372    7373    7372    7374    7375    7376
    7375    7377    7378    7379    7378    7380    7381    7382
    7381    7383    7384    7385    7384    7386    7387    7388
    7387    7389    7390    7391    7390    7392    7393    7394
    7393    7395    7396    7397    7396    7398    7399    7400
    7399    7401    7402    7403    7402    7404    7405    7406
    7405    7407    7408    7409    7408    7410    7411    7412
    7411    7413    7414    7415    7414    7416    7417    7418
    7417    7419    7420    7421    7420    7422    7423    7424
    7423    7425    7426    7427    7426    7428    7429    7430
    7429    7431    7432    7433    7432    7434    7435    7436
    7435    7437    7438    7439    7438    7440    7441    7442
    7441    7443    7444    7445    7444    7446    7447    7448
    7447    7449    7450    7451    7450    7452    7453    7454
    7453    7455    7456    7457    7456    7458    7459    7460
    7459    7461    7462    7463    7462    7464    7465    7466
    7465    7467    7468    7469    7468    7470    7471    7472
    7471    7473    7474    7475    7474    7476    7477    7478
    7477    7479    7480    7481    7480    7482    7483    7484
    7483    7485    7486    7487    7486    7488    7489    7490
    7489    7491    7492    7493    7492    7494    7495    7496
    7495    7497    7498    7499    7498    7500    7501    7502
    7501    7503    7504    7505    7504    7506    7507    7508
    7507    7509    7510    7511    7510    7512    7513    7514
    7513    7515    7516    7517    7516    7518    7519    7520
    7519    7521    7522    7523    7522    7524    7525    7526
    7525    7527    7528    7529    7528    7530    7531    7532
    7531    7533    7534    7535    7534    7536    7537    7538
    7537    7539    7540    7541    7540    7542    7543    7544
    7543    7545    7546    7547    7546    7548    7549    7550
    7549    7551    7552    7553    7552    7554    7555    7556
    7555    7557    7558    7559    7558    7560    7561    7562
    7561    7563    7564    7565    7564    7566    7567    7568
    7567    7569    7570    7571    7570    7572    7573    7574
    7573    7575    7576    7577    7576    7578    7579    7580
    7579    7581    7582    7583    7582    7584    7585    7586
    7585    7587    7588    7589    7588    7590    7591    7592
    7591    7593    7594    7595    7594    7596    7597    7598
    7597    7599    7600    7601    7600    7602    7603    7604
    7603    7605    7606    7607    7606    7608    7609    7610
    7609    7611    7612    7613    7612    7614    7615    7616
    7615    7617    7618    7619    7618    7620    7621    7622
    7621    7623    7624    7625    7624    7626    7627    7628
    7627    7629    7630    7631    7630    7632    7633    7634
    7633    7635    7636    7637    7636    7638    7639    7640
    7639    7641    7642    7643    7642    7644    7645    7646
    7645    7647    7648    7649    7648    7650    7651    7652
    7651    7653    7654    7655    7654    7656    7657    7658
    7657    7659    7660    7661    7660    7662    7663    7664
    7663    7665    7666    7667    7666    7668    7669    7670
    7669    7671    7672    7673    7672    7674    7675    7676
    7675    7677    7678    7679    7678    7680    7681    7682
    7681    7683    7684    7685    7684    7686    7687    7688
    7687    7689    7690    7691    7690    7692    7693    7694
    7693    7695    7696    7697    7696    7698    7699    7700
    7699    7701    7702    7703    7702    7704    7705    7706
    7705    7707    7708    7709    7708    7710    7711    7712
    7711    7713    7714    7715    7714    7716    7717    7718
    7717    7719    7720    7721    7720    7722    7723    7724
    7723    7725    7726    7727    7726    7728    7729    7730
    7729    7731    7732    7733    7732    7734    7735    7736
    7735    7737    7738    7739    7738    7740    7741    7742
    7741    7743    7744    7745    7744    7746    7747    7748
    7747    7749    7750    7751    7750    7752    7753    7754
    7753    7755    7756    7757    7756    7758    7759    7760
    7759    7761    7762    7763    7762    7764    7765    7766
    7765    7767    7768    7769    7768    7770    7771    7772
    7771    7773    7774    7775    7774    7776    7777    7778
    7777    7779    7780    7781    7780    7782    7783    7784
    7783    7785    7786    7787    7786    7788    7789    7790
    7789    7791    7792    7793    7792    7794    7795    7796
    7795    7797    7798    7799    7798    7800    7801    7802
    7801    7803    7804    7805    7804    7806    7807    7808
    7807    7809    7810    7811    7810    7812    7813    7814
    7813    7815    7816    7817    7816    7818    7819    7820
    7819    7821    7822    7823    7822    7824    7825    7826
    7825    7827    7828    7829    7828    7830    7831    7832
    7831    7833    7834    7835    7834    7836    7837    7838
    7837    7839    7840    7841    7840    7842    7843    7844
    7843    7845    7846    7847    7846    7848    7849    7850
    7849    7851    7852    7853    7852    7854    7855    7856
    7855    7857    7858    7859    7858    7860    7861    7862
    7861    7863    7864    7865    7864    7866    7867    7868
    7867    7869    7870    7871    7870    7872    7873    7874
    7873    7875    7876    7877    7876    7878    7879    7880
    7879    7881    7882    7883    7882    7884    7885    7886
    7885    7887    7888    7889    7888    7890    7891    7892
    7891    7893    7894    7895    7894    7896    7897    7898
    7897    7899    7900    7901    7900    7902    7903    7904
    7903    7905    7906    7907    7906    7908    7909    7910
    7909    7911    7912    7913    7912    7914    7915    7916
    7915    7917    7918    7919    7918    7920    7921    7922
    7921    7923    7924    7925    7924    7926    7927    7928
    7927    7929    7930    7931    7930    7932    7933    7934
    7933    7935    7936    7937    7936    7938    7939    7940
    7939    7941    7942    7943    7942    7944    7945    7946
    7945    7947    7948    7949    7948    7950    7951    7952
    7951    7953    7954    7955    7954    7956    7957    7958
    7957    7959    7960    7961    7960    7962    7963    7964
    7963    7965    7966    7967    7966    7968    7969    7970
    7969    7971    7972    7973    7972    7974    7975    7976
    7975    7977    7978    7979    7978    7980    7981    7982
    7981    7983    7984    7985    7984    7986    7987    7988
    7987    7989    7990    7991    7990    7992    7993    7994
    7993    7995    7996    7997    7996    7998    7999    8000
    7999    8001    8002    8003    8002    8004    8005    8006
    8005    8007    8008    8009    8008    8010    8011    8012
    8011    8013    8014    8015    8014    8016    8017    8018
    8017    8019    8020    8021    8020    8022    8023    8024
    8023    8025    8026    8027    8026    8028    8029    8030
    8029    8031    8032    8033    8032    8034    8035    8036
    8035    8037    8038    8039    8038    8040    8041    8042
    8041    8043    8044    8045    8044    8046    8047    8048
    8047    8049    8050    8051    8050    8052    8053    8054
    8053    8055    8056    8057    8056    8058    8059    8060
    8059    8061    8062    8063    8062    8064    8065    8066
    8065    8067    8068    8069    8068    8070    8071    8072
    8071    8073    8074    8075    8074    8076    8077    8078
    8077    8079    8080    8081    8080    8082    8083    8084
    8083    8085    8086    8087    8086    8088    8089    8090
    8089    8091    8092    8093    8092    8094    8095    8096
    8095    8097    8098    8099    8098    8100    8101    8102
    8101    8103    8104    8105    8104    8106    8107    8108
    8107    8109    8110    8111    8110    8112    8113    8114
    8113    8115    8116    8117    8116    8118    8119    8120
    8119    8121    8122    8123    8122    8124    8125    8126
    8125    8127    8128    8129    8128    8130    8131    8132
    8131    8133    8134    8135    8134    8136    8137    8138
    8137    8139    8140    8141    8140    8142    8143    8144
    8143    8145    8146    8147    8146    8148    8149    8150
    8149    8151    8152    8153    8152    8154    8155    8156
    8155    8157    8158    8159    8158    8160    8161    8162
    8161    8163    8164    8165    8164    8166    8167    8168
    8167    8169    8170    8171    8170    8172    8173    8174
    8173    8175    8176    8177    8176    8178    8179    8180
    8179    8181    8182    8183    8182    8184    8185    8186
    8185    8187    8188    8189    8188    8190    8191    8192
    8191    8193    8194    8195    8194    8196    8197    8198
    8197    8199    8200    8201    8200    8202    8203    8204
    8203    8205    8206    8207    8206    8208    8209    8210
    8209    8211    8212    8213    8212    8214    8215    8216
    8215    8217    8218    8219    8218    8220    8221    8222
    8221    8223    8224    8225    8224    8226    8227    8228
    8227    8229    8230    8231    8230    8232    8233    8234
    8233    8235    8236    8237    8236    8238    8239    8240
    8239    8241    8242    8243    8242    8244    8245    8246
    8245    8247    8248    8249    8248    8250    8251    8252
    8251    8253    8254    8255    8254    8256    8257    8258
    8257    8259    8260    8261    8260    8262    8263    8264
    8263    8265    8266    8267    8266    8268    8269    8270
    8269    8271    8272    8273    8272    8274    8275    8276
    8275    8277    8278    8279    8278    8280    8281    8282
    8281    8283    8284    8285    8284    8286    8287    8288
    8287    8289    8290    8291    8290    8292    8293    8294
    8293    8295    8296    8297    8296    8298    8299    8300
    8299    8301    8302    8303    8302    8304    8305    8306
    8305    8307    8308    8309    8308    8310    8311    8312
    8311    8313    8314    8315    8314    8316    8317    8318
    8317    8319    8320    8321    8320    8322    8323    8324
    8323    8325    8326    8327    8326    8328    8329    8330
    8329    8331    8332    8333    8332    8334    8335    8336
    8335    8337    8338    8339    8338    8340    8341    8342
    8341    8343    8344    8345    8344    8346    8347    8348
    8347    8349    8350    8351    8350    8352    8353    8354
    8353    8355    8356    8357    8356    8358    8359    8360
    8359    8361    8362    8363    8362    8364    8365    8366
    8365    8367    8368    8369    8368    8370    8371    8372
    8371    8373    8374    8375    8374    8376    8377    8378
    8377    8379    8380    8381    8380    8382    8383    8384
    8383    8385    8386    8387    8386    8388    8389    8390
    8389    8391    8392    8393    8392    8394    8395    8396
    8395    8397    8398    8399    8398    8400    8401    8402
    8401    8403    8404    8405    8404    8406    8407    8408
    8407    8409    8410    8411    8410    8412    8413    8414
    8413    8415    8416    8417    8416    8418    8419    8420
    8419    8421    8422    8423    8422    8424    8425    8426
    8425    8427    8428    8429    8428    8430    8431    8432
    8431    8433    8434    8435    8434    8436    8437    8438
    8437    8439    8440    8441    8440    8442    8443    8444
    8443    8445    8446    8447    8446    8448    8449    8450
    8449    8451    8452    8453    8452    8454    8455    8456
    8455    8457    8458    8459    8458    8460    8461    8462
    8461    8463    8464    8465    8464    8466    8467    8468
    8467    8469    8470    8471    8470    8472    8473    8474
    8473    8475    8476    8477    8476    8478    8479    8480
    8479    8481    8482    8483    8482    8484    8485    8486
    8485    8487    8488    8489    8488    8490    8491    8492
    8491    8493    8494    8495    8494    8496    8497    8498
    8497    8499    8500    8501    8500    8502    8503    8504
    8503    8505    8506    8507    8506    8508    8509    8510
    8509    8511    8512    8513    8512    8514    8515    8516
    8515    8517    8518    8519    8518    8520    8521    8522
    8521    8523    8524    8525    8524    8526    8527    8528
    8527    8529    8530    8531    8530    8532    8533    8534
    8533    8535    8536    8537    8536    8538    8539    8540
    8539    8541    8542    8543    8542    8544    8545    8546
    8545    8547    8548    8549    8548    8550    8551    8552
    8551    8553    8554    8555    8554    8556    8557    8558
    8557    8559    8560    8561    8560    8562    8563    8564
    8563    8565    8566    8567    8566    8568    8569    8570
    8569    8571    8572    8573    8572    8574    8575    8576
    8575    8577    8578    8579    8578    8580    8581    8582
    8581    8583    8584    8585    8584    8586    8587    8588
    8587    8589    8590    8591    8590    8592    8593    8594
    8593    8595    8596    8597    8596    8598    8599    8600
    8599    8601    8602    8603    8602    8604    8605    8606
    8605    8607    8608    8609    8608    8610    8611    8612
    8611    8613    8614    8615    8614    8616    8617    8618
    8617    8619    8620    8621    8620    8622    8623    8624
    8623    8625    8626    8627    8626    8628    8629    8630
    8629    8631    8632    8633    8632    8634    8635    8636
    8635    8637    8638    8639    8638    8640    8641    8642
    8641    8643    8644    8645    8644    8646    8647    8648
    8647    8649    8650    8651    8650    8652    8653    8654
    8653    8655    8656    8657    8656    8658    8659    8660
    8659    8661    8662    8663    8662    8664    8665    8666
    8665    8667    8668    8669    8668    8670    8671    8672
    8671    8673    8674    8675    8674    8676    8677    8678
    8677    8679    8680    8681    8680    8682    8683    8684
    8683    8685    8686    8687    8686    8688    8689    8690
    8689    8691    8692    8693    8692    8694    8695    8696
    8695    8697    8698    8699    8698    8700    8701    8702
    8701    8703    8704    8705    8704    8706    8707    8708
    8707    8709    8710    8711    8710    8712    8713    8714
    8713    8715    8716    8717    8716    8718    8719    8720
    8719    8721    8722    8723    8722    8724    8725    8726
    8725    8727    8728    8729    8728    8730    8731    8732
    8731    8733    8734    8735    8734    8736    8737    8738
    8737    8739    8740    8741    8740    8742    8743    8744
    8743    8745    8746    8747    8746    8748    8749    8750
    8749    8751    8752    8753    8752    8754    8755    8756
    8755    8757    8758    8759    8758    8760    8761    8762
    8761    8763    8764    8765    8764    8766    8767    8768
    8767    8769    8770    8771    8770    8772    8773    8774
    8773    8775    8776    8777    8776    8778    8779    8780
    8779    8781    8782    8783    8782    8784    8785    8786
    8785    8787    8788    8789    8788    8790    8791    8792
    8791    8793    8794    8795    8794    8796    8797    8798
    8797    8799    8800    8801    8800    8802    8803    8804
    8803    8805    8806    8807    8806    8808    8809    8810
    8809    8811    8812    8813    8812    8814    8815    8816
    8815    8817    8818    8819    8818    8820    8821    8822
    8821    8823    8824    8825    8824    8826    8827    8828
    8827    8829    8830    8831    8830    8832    8833    8834
    8833    8835    8836    8837    8836    8838    8839    8840
    8839    8841    8842    8843    8842    8844    8845    8846
    8845    8847    8848    8849    8848    8850    8851    8852
    8851    8853    8854    8855    8854    8856    8857    8858
    8857    8859    8860    8861    8860    8862    8863    8864
    8863    8865    8866    8867    8866    8868    8869    8870
    8869    8871    8872    8873    8872    8874    8875    8876
    8875    8877    8878    8879    8878    8880    8881    8882
    8881    8883    8884    8885    8884    8886    8887    8888
    8887    8889    8890    8891    8890    8892    8893    8894
    8893    8895    8896    8897    8896    8898    8899    8900
    8899    8901    8902    8903    8902    8904    8905    8906
    8905    8907    8908    8909    8908    8910    8911    8912
    8911    8913    8914    8915    8914    8916    8917    8918
    8917    8919    8920    8921    8920    8922    8923    8924
    8923    8925    8926    8927    8926    8928    8929    8930
    8929    8931    8932    8933    8932    8934    8935    8936
    8935    8937    8938    8939    8938    8940    8941    8942
    8941    8943    8944    8945    8944    8946    8947    8948
    8947    8949    8950    8951    8950    8952    8953    8954
    8953    8955    8956    8957    8956    8958    8959    8960
    8959    8961    8962    8963    8962    8964    8965    8966
    8965    8967    8968    8969    8968    8970    8971    8972
    8971    8973    8974    8975    8974    8976    8977    8978
    8977    8979    8980    8981    8980    8982    8983    8984
    8983    8985    8986    8987    8986    8988    8989    8990
    8989    8991    8992    8993    8992    8994    8995    8996
    8995    8997    8998    8999    8998    9000    9001    9002
    9001    9003    9004    9005    9004    9006    9007    9008
    9007    9009    9010    9011    9010    9012    9013    9014
    9013    9015    9016    9017    9016    9018    9019    9020
    9019    9021    9022    9023    9022    9024    9025    9026
    9025    9027    9028    9029    9028    9030    9031    9032
    9031    9033    9034    9035    9034    9036    9037    9038
    9037    9039    9040    9041    9040    9042    9043    9044
    9043    9045    9046    9047    9046    9048    9049    9050
    9049    9051    9052    9053    9052    9054    9055    9056
    9055    9057    9058    9059    9058    9060    9061    9062
    9061    9063    9064    9065    9064    9066    9067    9068
    9067    9069    9070    9071    9070    9072    9073    9074
    9073    9075    9076    9077    9076    9078    9079    9080
    9079    9081    9082    9083    9082    9084    9085    9086
    9085    9087    9088    9089    9088    9090    9091    9092
    9091    9093    9094    9095    9094    9096    9097    9098
    9097    9099    9100    9101    9100    9102    9103    9104
    9103    9105    9106    9107    9106    9108    9109    9110
    9109    9111    9112    9113    9112    9114    9115    9116
    9115    9117    9118    9119    9118    9120    9121    9122
    9121    9123    9124    9125    9124    9126    9127    9128
    9127    9129    9130    9131    9130    9132    9133    9134
    9133    9135    9136    9137    9136    9138    9139    9140
    9139    9141    9142    9143    9142    9144    9145    9146
    9145    9147    9148    9149    9148    9150    9151    9152
    9151    9153    9154    9155    9154    9156    9157    9158
    9157    9159    9160    9161    9160    9162    9163    9164
    9163    9165    9166    9167    9166    9168    9169    9170
    9169    9171    9172    9173    9172    9174    9175    9176
    9175    9177    9178    9179    9178    9180    9181    9182
    9181    9183    9184    9185    9184    9186    9187    9188
    9187    9189    9190    9191    9190    9192    9193    9194
    9193    9195    9196    9197    9196    9198    9199    9200
    9199    9201    9202    9203    9202    9204    9205    9206
    9205    9207    9208    9209    9208    9210    9211    9212
    9211    9213    9214    9215    9214    9216    9217    9218
    9217    9219    9220    9221    9220    9222    9223    9224
    9223    9225    9226    9227    9226    9228    9229    9230
    9229    9231    9232    9233    9232    9234    9235    9236
    9235    9237    9238    9239    9238    9240    9241    9242
    9241    9243    9244    9245    9244    9246    9247    9248
    9247    9249    9250    9251    9250    9252    9253    9254
    9253    9255    9256    9257    9256    9258    9259    9260
    9259    9261    9262    9263    9262    9264    9265    9266
    9265    9267    9268    9269    9268    9270    9271    9272
    9271    9273    9274    9275    9274    9276    9277    9278
    9277    9279    9280    9281    9280    9282    9283    9284
    9283    9285    9286    9287    9286    9288    9289    9290
    9289    9291    9292    9293    9292    9294    9295    9296
    9295    9297    9298    9299    9298    9300    9301    9302
    9301    9303    9304    9305    9304    9306    9307    9308
    9307    9309    9310    9311    9310    9312    9313    9314
    9313    9315    9316    9317    9316    9318    9319    9320
    9319    9321    9322    9323    9322    9324    9325    9326
    9325    9327    9328    9329    9328    9330    9331    9332
    9331    9333    9334    9335    9334    9336    9337    9338
    9337    9339    9340    9341    9340    9342    9343    9344
    9343    9345    9346    9347    9346    9348    9349    9350
    9349    9351    9352    9353    9352    9354    9355    9356
    9355    9357    9358    9359    9358    9360    9361    9362
    9361    9363    9364    9365    9364    9366    9367    9368
    9367    9369    9370    9371    9370    9372    9373    9374
    9373    9375    9376    9377    9376    9378    9379    9380
    9379    9381    9382    9383    9382    9384    9385    9386
    9385    9387    9388    9389    9388    9390    9391    9392
    9391    9393    9394    9395    9394    9396    9397    9398
    9397    9399    9400    9401    9400    9402    9403    9404
    9403    9405    9406    9407    9406    9408    9409    9410
    9409    9411    9412    9413    9412    9414    9415    9416
    9415    9417    9418    9419    9418    9420    9421    9422
    9421    9423    9424    9425    9424    9426    9427    9428
    9427    9429    9430    9431    9430    9432    9433    9434
    9433    9435    9436    9437    9436    9438    9439    9440
    9439    9441    9442    9443    9442    9444    9445    9446
    9445    9447    9448    9449    9448    9450    9451    9452
    9451    9453    9454    9455    9454    9456    9457    9458
    9457    9459    9460    9461    9460    9462    9463    9464
    9463    9465    9466    9467    9466    9468    9469    9470
    9469    9471    9472    9473    9472    9474    9475    9476
    9475    9477    9478    9479    9478    9480    9481    9482
    9481    9483    9484    9485    9484    9486    9487    9488
    9487    9489    9490    9491    9490    9492    9493    9494
    9493    9495    9496    9497    9496    9498    9499    9500
    9499    9501    9502    9503    9502    9504    9505    9506
    9505    9507    9508    9509    9508    9510    9511    9512
    9511    9513    9514    9515    9514    9516    9517    9518
    9517    9519    9520    9521    9520    9522    9523    9524
    9523    9525    9526    9527    9526    9528    9529    9530
    9529    9531    9532    9533    9532    9534    9535    9536
    9535    9537    9538    9539    9538    9540    9541    9542
    9541    9543    9544    9545    9544    9546    9547    9548
    9547    9549    9550    9551    9550    9552    9553    9554
    9553    9555    9556    9557    9556    9558    9559    9560
    9559    9561    9562    9563    9562    9564    9565    9566
    9565    9567    9568    9569    9568    9570    9571    9572
    9571    9573    9574    9575    9574    9576    9577    9578
    9577    9579    9580    9581    9580    9582    9583    9584
    9583    9585    9586    9587    9586    9588    9589    9590
    9589    9591    9592    9593    9592    9594    9595    9596
    9595    9597    9598    9599    9598    9600    9601    9602
    9601    9603    9604    9605    9604    9606    9607    9608
    9607    9609    9610    9611    9610    9612    9613    9614
    9613    9615    9616    9617    9616    9618    9619    9620
    9619    9621    9622    9623    9622    9624    9625    9626
    9625    9627    9628    9629    9628    9630    9631    9632
    9631    9633    9634    9635    9634    9636    9637    9638
    9637    9639    9640    9641    9640    9642    9643    9644
    9643    9645    9646    9647    9646    9648    9649    9650
    9649    9651    9652    9653    9652    9654    9655    9656
    9655    9657    9658    9659    9658    9660    9661    9662
    9661    9663    9664    9665    9664    9666    9667    9668
    9667    9669    9670    9671    9670    9672    9673    9674
    9673    9675    9676    9677    9676    9678    9679    9680
    9679    9681    9682    9683    9682    9684    9685    9686
    9685    9687    9688    9689    9688    9690    9691    9692
    9691    9693    9694    9695    9694    9696    9697    9698
    9697    9699    9700    9701    9700    9702    9703    9704
    9703    9705    9706    9707    9706    9708    9709    9710
    9709    9711    9712    9713    9712    9714    9715    9716
    9715    9717    9718    9719    9718    9720    9721    9722
    9721    9723    9724    9725    9724    9726    9727    9728
    9727    9729    9730    9731    9730    9732    9733    9734
    9733    9735    9736    9737    9736    9738    9739    9740
    9739    9741    9742    9743    9742    9744    9745    9746
    9745    9747    9748    9749    9748    9750    9751    9752
    9751    9753    9754    9755    9754    9756    9757    9758
    9757    9759    9760    9761    9760    9762    9763    9764
    9763    9765    9766    9767    9766    9768    9769    9770
    9769    9771    9772    9773    9772    9774    9775    9776
    9775    9777    9778    9779    9778    9780    9781    9782
    9781    9783    9784    9785    9784    9786    9787    9788
    9787    9789    9790    9791    9790    9792    9793    9794
    9793    9795    9796    9797    9796    9798    9799    9800
    9799    9801    9802    9803    9802    9804    9805    9806
    9805    9807    9808    9809    9808    9810    9811    9812
    9811    9813    9814    9815    9814    9816    9817    9818
    9817    9819    9820    9821    9820    9822    9823    9824
    9823    9825    9826    9827    9826    9828    9829    9830
    9829    9831    9832    9833    9832    9834    9835    9836
    9835    9837    9838    9839    9838    9840    9841    9842
    9841    9843    9844    9845    9844    9846    9847    9848
    9847    9849    9850    9851    9850    9852    9853    9854
    9853    9855    9856    9857    9856    9858    9859    9860
    9859    9861    9862    9863    9862    9864    9865    9866
    9865    9867    9868    9869    9868    9870    9871    9872
    9871    9873    9874    9875    9874    9876    9877    9878
    9877    9879    9880    9881    9880    9882    9883    9884
    9883    9885    9886    9887    9886    9888    9889    9890
    9889    9891    9892    9893    9892    9894    9895    9896
    9895    9897    9898    9899    9898    9900    9901    9902
    9901    9903    9904    9905    9904    9906    9907    9908
    9907    9909    9910    9911    9910    9912    9913    9914
    9913    9915    9916    9917    9916    9918    9919    9920
    9919    9921    9922    9923    9922    9924    9925    9926
    9925    9927    9928    9929    9928    9930    9931    9932
    9931    9933    9934    9935    9934    9936    9937    9938
    9937    9939    9940    9941    9940    9942    9943    9944
    9943    9945    9946    9947    9946    9948    9949    9950
    9949    9951    9952    9953    9952    9954    9955    9956
    9955    9957    9958    9959    9958    9960    9961    9962
    9961    9963    9964    9965    9964    9966    9967    9968
    9967    9969    9970    9971    9970    9972    9973    9974
    9973    9975    9976    9977    9976    9978    9979    9980
    9979    9981    9982    9983    9982    9984    9985    9986
    9985    9987    9988    9989    9988    9990    9991    9992
    9991    9993    9994    9995    9994    9996    9997    9998
    9997    9999   10000   10001   10000   10002   10003   10004
   10003   10005   10006   10007   10006   10008   10009   10010
   10009   10011   10012   10013   10012   10014   10015   10016
   10015   10017   10018   10019   10018   10020   10021   10022
   10021   10023   10024   10025   10024   10026   10027   10028
   10027   10029   10030   10031   10030   10032   10033   10034
   10033   10035   10036   10037   10036   10038   10039   10040
   10039   10041   10042   10043   10042   10044   10045   10046
   10045   10047   10048   10049   10048   10050   10051   10052
   10051   10053   10054   10055   10054   10056   10057   10058
   10057   10059   10060   10061   10060   10062   10063   10064
   10063   10065   10066   10067   10066   10068   10069   10070
   10069   10071   10072   10073   10072   10074   10075   10076
   10075   10077   10078   10079   10078   10080   10081   10082
   10081   10083   10084   10085   10084   10086   10087   10088
   10087   10089   10090   10091   10090   10092   10093   10094
   10093   10095   10096   10097   10096   10098   10099   10100
   10099   10101   10102   10103   10102   10104   10105   10106
   10105   10107   10108   10109   10108   10110   10111   10112
   10111   10113   10114   10115   10114   10116   10117   10118
   10117   10119   10120   10121   10120   10122   10123   10124
   10123   10125   10126   10127   10126   10128   10129   10130
   10129   10131   10132   10133   10132   10134   10135   10136
   10135   10137   10138   10139   10138   10140   10141   10142
   10141   10143   10144   10145   10144   10146   10147   10148
   10147   10149   10150   10151   10150   10152   10153   10154
   10153   10155   10156   10157   10156   10158   10159   10160
   10159   10161   10162   10163   10162   10164   10165   10166
   10165   10167   10168   10169   10168   10170   10171   10172
   10171   10173   10174   10175   10174   10176   10177   10178
   10177   10179   10180   10181   10180   10182   10183   10184
   10183   10185   10186   10187   10186   10188   10189   10190
   10189   10191   10192   10193   10192   10194   10195   10196
   10195   10197   10198   10199   10198   10200   10201   10202
   10201   10203   10204   10205   10204   10206   10207   10208
   10207   10209   10210   10211   10210   10212   10213   10214
   10213   10215   10216   10217   10216   10218   10219   10220
   10219   10221   10222   10223   10222   10224   10225   10226
   10225   10227   10228   10229   10228   10230   10231   10232
   10231   10233   10234   10235   10234   10236   10237   10238
   10237   10239   10240   10241   10240   10242   10243   10244
   10243   10245   10246   10247   10246   10248   10249   10250
   10249   10251   10252   10253   10252   10254   10255   10256
   10255   10257   10258   10259   10258   10260   10261   10262
   10261   10263   10264   10265   10264   10266   10267   10268
   10267   10269   10270   10271   10270   10272   10273   10274
   10273   10275   10276   10277   10276   10278   10279   10280
   10279   10281   10282   10283   10282   10284   10285   10286
   10285   10287   10288   10289   10288   10290   10291   10292
   10291   10293   10294   10295   10294   10296   10297   10298
   10297   10299   10300   10301   10300   10302   10303   10304
   10303   10305   10306   10307   10306   10308   10309   10310
   10309   10311   10312   10313   10312   10314   10315   10316
   10315   10317   10318   10319   10318   10320   10321   10322
   10321   10323   10324   10325   10324   10326   10327   10328
   10327   10329   10330   10331   10330   10332   10333   10334
   10333   10335   10336   10337   10336   10338   10339   10340
   10339   10341   10342   10343   10342   10344   10345   10346
   10345   10347   10348   10349   10348   10350   10351   10352
   10351   10353   10354   10355   10354   10356   10357   10358
   10357   10359   10360   10361   10360   10362   10363   10364
   10363   10365   10366   10367   10366   10368   10369   10370
   10369   10371   10372   10373   10372   10374   10375   10376
   10375   10377   10378   10379   10378   10380   10381   10382
   10381   10383   10384   10385   10384   10386   10387   10388
   10387   10389   10390   10391   10390   10392   10393   10394
   10393   10395   10396   10397   10396   10398   10399   10400
   10399   10401   10402   10403   10402   10404   10405   10406
   10405   10407   10408   10409   10408   10410   10411   10412
   10411   10413   10414   10415   10414   10416   10417   10418
   10417   10419   10420   10421   10420   10422   10423   10424
   10423   10425   10426   10427   10426   10428   10429   10430
   10429   10431   10432   10433   10432   10434   10435   10436
   10435   10437   10438   10439   10438   10440   10441   10442
   10441   10443   10444   10445   10444   10446   10447   10448
   10447   10449   10450   10451   10450   10452   10453   10454
   10453   10455   10456   10457   10456   10458   10459   10460
   10459   10461   10462   10463   10462   10464   10465   10466
   10465   10467   10468   10469   10468   10470   10471   10472
   10471   10473   10474   10475   10474   10476   10477   10478
   10477   10479   10480   10481   10480   10482   10483   10484
   10483   10485   10486   10487   10486   10488   10489   10490
   10489   10491   10492   10493   10492   10494   10495   10496
   10495   10497   10498   10499   10498   10500   10501   10502
   10501   10503   10504   10505   10504   10506   10507   10508
   10507   10509   10510   10511   10510   10512   10513   10514
   10513   10515   10516   10517   10516   10518   10519   10520
   10519   10521   10522   10523   10522   10524   10525   10526
   10525   10527   10528   10529   10528   10530   10531   10532
   10531   10533   10534   10535   10534   10536   10537   10538
   10537   10539   10540   10541   10540   10542   10543   10544
   10543   10545   10546   10547   10546   10548   10549   10550
   10549   10551   10552   10553   10552   10554   10555   10556
   10555   10557   10558   10559   10558   10560   10561   10562
   10561   10563   10564   10565   10564   10566   10567   10568
   10567   10569   10570   10571   10570   10572   10573   10574
   10573   10575   10576   10577   10576   10578   10579   10580
   10579   10581   10582   10583   10582   10584   10585   10586
   10585   10587   10588   10589   10588   10590   10591   10592
   10591   10593   10594   10595   10594   10596   10597   10598
   10597   10599   10600   10601   10600   10602   10603   10604
   10603   10605   10606   10607   10606   10608   10609   10610
   10609   10611   10612   10613   10612   10614   10615   10616
   10615   10617   10618   10619   10618   10620   10621   10622
   10621   10623   10624   10625   10624   10626   10627   10628
   10627   10629   10630   10631   10630   10632   10633   10634
   10633   10635   10636   10637   10636   10638   10639   10640
   10639   10641   10642   10643   10642   10644   10645   10646
   10645   10647   10648   10649   10648   10650   10651   10652
   10651   10653   10654   10655   10654   10656   10657   10658
   10657   10659   10660   10661   10660   10662   10663   10664
   10663   10665   10666   10667   10666   10668   10669   10670
   10669   10671   10672   10673   10672   10674   10675   10676
   10675   10677   10678   10679   10678   10680   10681   10682
   10681   10683   10684   10685   10684   10686   10687   10688
   10687   10689   10690   10691   10690   10692   10693   10694
   10693   10695   10696   10697   10696   10698   10699   10700
   10699   10701   10702   10703   10702   10704   10705   10706
   10705   10707   10708   10709   10708   10710   10711   10712
   10711   10713   10714   10715   10714   10716   10717   10718
   10717   10719   10720   10721   10720   10722   10723   10724
   10723   10725   10726   10727   10726   10728   10729   10730
   10729   10731   10732   10733   10732   10734   10735   10736
   10735   10737   10738   10739   10738   10740   10741   10742
   10741   10743   10744   10745   10744   10746   10747   10748
   10747   10749   10750   10751   10750   10752   10753   10754
   10753   10755   10756   10757   10756   10758   10759   10760
   10759   10761   10762   10763   10762   10764   10765   10766
   10765   10767   10768   10769   10768   10770   10771   10772
   10771   10773   10774   10775   10774   10776   10777   10778
   10777   10779   10780   10781   10780   10782   10783   10784
   10783   10785   10786   10787   10786   10788   10789   10790
   10789   10791   10792   10793   10792   10794   10795   10796
   10795   10797   10798   10799   10798   10800   10801   10802
   10801   10803   10804   10805   10804   10806   10807   10808
   10807   10809   10810   10811   10810   10812   10813   10814
   10813   10815   10816   10817   10816   10818   10819   10820
   10819   10821   10822   10823   10822   10824   10825   10826
   10825   10827   10828   10829   10828   10830   10831   10832
   10831   10833   10834   10835   10834   10836   10837   10838
   10837   10839   10840   10841   10840   10842   10843   10844
   10843   10845   10846   10847   10846   10848   10849   10850
   10849   10851   10852   10853   10852   10854   10855   10856
   10855   10857   10858   10859   10858   10860   10861   10862
   10861   10863   10864   10865   10864   10866   10867   10868
   10867   10869   10870   10871   10870   10872   10873   10874
   10873   10875   10876   10877   10876   10878   10879   10880
   10879   10881   10882   10883   10882   10884   10885   10886
   10885   10887   10888   10889   10888   10890   10891   10892
   10891   10893   10894   10895   10894   10896   10897   10898
   10897   10899   10900   10901   10900   10902   10903   10904
   10903   10905   10906   10907   10906   10908   10909   10910
   10909   10911   10912   10913   10912   10914   10915   10916
   10915   10917   10918   10919   10918   10920   10921   10922
   10921   10923   10924   10925   10924   10926   10927   10928
   10927   10929   10930   10931   10930   10932   10933   10934
   10933   10935   10936   10937   10936   10938   10939   10940
   10939   10941   10942   10943   10942   10944   10945   10946
   10945   10947   10948   10949   10948   10950   10951   10952
   10951   10953   10954   10955   10954   10956   10957   10958
   10957   10959   10960   10961   10960   10962   10963   10964
   10963   10965   10966   10967   10966   10968   10969   10970
   10969   10971   10972   10973   10972   10974   10975   10976
   10975   10977   10978   10979   10978   10980   10981   10982
   10981   10983   10984   10985   10984   10986   10987   10988
   10987   10989   10990   10991   10990   10992   10993   10994
   10993   10995   10996   10997   10996   10998   10999   11000
   10999   11001   11002   11003   11002   11004   11005   11006
   11005   11007   11008   11009   11008   11010   11011   11012
   11011   11013   11014   11015   11014   11016   11017   11018
   11017   11019   11020   11021   11020   11022   11023   11024
   11023   11025   11026   11027   11026   11028   11029   11030
   11029   11031   11032   11033   11032   11034   11035   11036
   11035   11037   11038   11039   11038   11040   11041   11042
   11041   11043   11044   11045   11044   11046   11047   11048
   11047   11049   11050   11051   11050   11052   11053   11054
   11053   11055   11056   11057   11056   11058   11059   11060
   11059   11061   11062   11063   11062   11064   11065   11066
   11065   11067   11068   11069   11068   11070   11071   11072
   11071   11073   11074   11075   11074   11076   11077   11078
   11077   11079   11080   11081   11080   11082   11083   11084
   11083   11085   11086   11087   11086   11088   11089   11090
   11089   11091   11092   11093   11092   11094   11095   11096
   11095   11097   11098   11099   11098   11100   11101   11102
   11101   11103   11104   11105   11104   11106   11107   11108
   11107   11109   11110   11111   11110   11112   11113   11114
   11113   11115   11116   11117   11116   11118   11119   11120
   11119   11121   11122   11123   11122   11124   11125   11126
   11125   11127   11128   11129   11128   11130   11131   11132
   11131   11133   11134   11135   11134   11136   11137   11138
   11137   11139   11140   11141   11140   11142   11143   11144
   11143   11145   11146   11147   11146   11148   11149   11150
   11149   11151   11152   11153   11152   11154   11155   11156
   11155   11157   11158   11159   11158   11160   11161   11162
   11161   11163   11164   11165   11164   11166   11167   11168
   11167   11169   11170   11171   11170   11172   11173   11174
   11173   11175   11176   11177   11176   11178   11179   11180
   11179   11181   11182   11183   11182   11184   11185   11186
   11185   11187   11188   11189   11188   11190   11191   11192
   11191   11193   11194   11195   11194   11196   11197   11198
   11197   11199   11200   11201   11200   11202   11203   11204
   11203   11205   11206   11207   11206   11208   11209   11210
   11209   11211   11212   11213   11212   11214   11215   11216
   11215   11217   11218   11219   11218   11220   11221   11222
   11221   11223   11224   11225   11224   11226   11227   11228
   11227   11229   11230   11231   11230   11232   11233   11234
   11233   11235   11236   11237   11236   11238   11239   11240
   11239   11241   11242   11243   11242   11244   11245   11246
   11245   11247   11248   11249   11248   11250   11251   11252
   11251   11253   11254   11255   11254   11256   11257   11258
   11257   11259   11260   11261   11260   11262   11263   11264
   11263   11265   11266   11267   11266   11268   11269   11270
   11269   11271   11272   11273   11272   11274   11275   11276
   11275   11277   11278   11279   11278   11280   11281   11282
   11281   11283   11284   11285   11284   11286   11287   11288
   11287   11289   11290   11291   11290   11292   11293   11294
   11293   11295   11296   11297   11296   11298   11299   11300
   11299   11301   11302   11303   11302   11304   11305   11306
   11305   11307   11308   11309   11308   11310   11311   11312
   11311   11313   11314   11315   11314   11316   11317   11318
   11317   11319   11320   11321   11320   11322   11323   11324
   11323   11325   11326   11327   11326   11328   11329   11330
   11329   11331   11332   11333   11332   11334   11335   11336
   11335   11337   11338   11339   11338   11340   11341   11342
   11341   11343   11344   11345   11344   11346   11347   11348
   11347   11349   11350   11351   11350   11352   11353   11354
   11353   11355   11356   11357   11356   11358   11359   11360
   11359   11361   11362   11363   11362   11364   11365   11366
   11365   11367   11368   11369   11368   11370   11371   11372
   11371   11373   11374   11375   11374   11376   11377   11378
   11377   11379   11380   11381   11380   11382   11383   11384
   11383   11385   11386   11387   11386   11388   11389   11390
   11389   11391   11392   11393   11392   11394   11395   11396
   11395   11397   11398   11399   11398   11400   11401   11402
   11401   11403   11404   11405   11404   11406   11407   11408
   11407   11409   11410   11411   11410   11412   11413   11414
   11413   11415   11416   11417   11416   11418   11419   11420
   11419   11421   11422   11423   11422   11424   11425   11426
   11425   11427   11428   11429   11428   11430   11431   11432
   11431   11433   11434   11435   11434   11436   11437   11438
   11437   11439   11440   11441   11440   11442   11443   11444
   11443   11445   11446   11447   11446   11448   11449   11450
   11449   11451   11452   11453   11452   11454   11455   11456
   11455   11457   11458   11459   11458   11460   11461   11462
   11461   11463   11464   11465   11464   11466   11467   11468
   11467   11469   11470   11471   11470   11472   11473   11474
   11473   11475   11476   11477   11476   11478   11479   11480
   11479   11481   11482   11483   11482   11484   11485   11486
   11485   11487   11488   11489   11488   11490   11491   11492
   11491   11493   11494   11495   11494   11496   11497   11498
   11497   11499   11500   11501   11500   11502   11503   11504
   11503   11505   11506   11507   11506   11508   11509   11510
   11509   11511   11512   11513   11512   11514   11515   11516
   11515   11517   11518   11519   11518   11520   11521   11522
   11521   11523   11524   11525   11524   11526   11527   11528
   11527   11529   11530   11531   11530   11532   11533   11534
   11533   11535   11536   11537   11536   11538   11539   11540
   11539   11541   11542   11543   11542   11544   11545   11546
   11545   11547   11548   11549   11548   11550   11551   11552
   11551   11553   11554   11555   11554   11556   11557   11558
   11557   11559   11560   11561   11560   11562   11563   11564
   11563   11565   11566   11567   11566   11568   11569   11570
   11569   11571   11572   11573   11572   11574   11575   11576
   11575   11577   11578   11579   11578   11580   11581   11582
   11581   11583   11584   11585   11584   11586   11587   11588
   11587   11589   11590   11591   11590   11592   11593   11594
   11593   11595   11596   11597   11596   11598   11599   11600
   11599   11601   11602   11603   11602   11604   11605   11606
   11605   11607   11608   11609   11608   11610   11611   11612
   11611   11613   11614   11615   11614   11616   11617   11618
   11617   11619   11620   11621   11620   11622   11623   11624
   11623   11625   11626   11627   11626   11628   11629   11630
   11629   11631   11632   11633   11632   11634   11635   11636
   11635   11637   11638   11639   11638   11640   11641   11642
   11641   11643   11644   11645   11644   11646   11647   11648
   11647   11649   11650   11651   11650   11652   11653   11654
   11653   11655   11656   11657   11656   11658   11659   11660
   11659   11661   11662   11663   11662   11664   11665   11666
   11665   11667   11668   11669   11668   11670   11671   11672
   11671   11673   11674   11675   11674   11676   11677   11678
   11677   11679   11680   11681   11680   11682   11683   11684
   11683   11685   11686   11687   11686   11688   11689   11690
   11689   11691   11692   11693   11692   11694   11695   11696
   11695   11697   11698   11699   11698   11700   11701   11702
   11701   11703   11704   11705   11704   11706   11707   11708
   11707   11709   11710   11711   11710   11712   11713   11714
   11713   11715   11716   11717   11716   11718   11719   11720
   11719   11721   11722   11723   11722   11724   11725   11726
   11725   11727   11728   11729   11728   11730   11731   11732
   11731   11733   11734   11735   11734   11736   11737   11738
   11737   11739   11740   11741   11740   11742   11743   11744
   11743   11745   11746   11747   11746   11748   11749   11750
   11749   11751   11752   11753   11752   11754   11755   11756
   11755   11757   11758   11759   11758   11760   11761   11762
   11761   11763   11764   11765   11764   11766   11767   11768
   11767   11769   11770   11771   11770   11772   11773   11774
   11773   11775   11776   11777   11776   11778   11779   11780
   11779   11781   11782   11783   11782   11784   11785   11786
   11785   11787   11788   11789   11788   11790   11791   11792
   11791   11793   11794   11795   11794   11796   11797   11798
   11797   11799   11800   11801   11800   11802   11803   11804
   11803   11805   11806   11807   11806   11808   11809   11810
   11809   11811   11812   11813   11812   11814   11815   11816
   11815   11817   11818   11819   11818   11820   11821   11822
   11821   11823   11824   11825   11824   11826   11827   11828
   11827   11829   11830   11831   11830   11832   11833   11834
   11833   11835   11836   11837   11836   11838   11839   11840
   11839   11841   11842   11843   11842   11844   11845   11846
   11845   11847   11848   11849   11848   11850   11851   11852
   11851   11853   11854   11855   11854   11856   11857   11858
   11857   11859   11860   11861   11860   11862   11863   11864
   11863   11865   11866   11867   11866   11868   11869   11870
   11869   11871   11872   11873   11872   11874   11875   11876
   11875   11877   11878   11879   11878   11880   11881   11882
   11881   11883   11884   11885   11884   11886   11887   11888
   11887   11889   11890   11891   11890   11892   11893   11894
   11893   11895   11896   11897   11896   11898   11899   11900
   11899   11901   11902   11903   11902   11904   11905   11906
   11905   11907   11908   11909   11908   11910   11911   11912
   11911   11913   11914   11915   11914   11916   11917   11918
   11917   11919   11920   11921   11920   11922   11923   11924
   11923   11925   11926   11927   11926   11928   11929   11930
   11929   11931   11932   11933   11932   11934   11935   11936
   11935   11937   11938   11939   11938   11940   11941   11942
   11941   11943   11944   11945   11944   11946   11947   11948
   11947   11949   11950   11951   11950   11952   11953   11954
   11953   11955   11956   11957   11956   11958   11959   11960
   11959   11961   11962   11963   11962   11964   11965   11966
   11965   11967   11968   11969   11968   11970   11971   11972
   11971   11973   11974   11975   11974   11976   11977   11978
   11977   11979   11980   11981   11980   11982   11983   11984
   11983   11985   11986   11987   11986   11988   11989   11990
   11989   11991   11992   11993   11992   11994   11995   11996
   11995   11997   11998   11999   11998   12000   12001   12002
   12001   12003   12004   12005   12004   12006   12007   12008
   12007   12009   12010   12011   12010   12012   12013   12014
   12013   12015   12016   12017   12016   12018   12019   12020
   12019   12021   12022   12023   12022   12024   12025   12026
   12025   12027   12028   12029   12028   12030   12031   12032
   12031   12033   12034   12035   12034   12036   12037   12038
   12037   12039   12040   12041   12040   12042   12043   12044
   12043   12045   12046   12047   12046   12048   12049   12050
   12049   12051   12052   12053   12052   12054   12055   12056
   12055   12057   12058   12059   12058   12060   12061   12062
   12061   12063   12064   12065   12064   12066   12067   12068
   12067   12069   12070   12071   12070   12072   12073   12074
   12073   12075   12076   12077   12076   12078   12079   12080
   12079   12081   12082   12083   12082   12084   12085   12086
   12085   12087   12088   12089   12088   12090   12091   12092
   12091   12093   12094   12095   12094   12096   12097   12098
   12097   12099   12100   12101   12100   12102   12103   12104
   12103   12105   12106   12107   12106   12108   12109   12110
   12109   12111   12112   12113   12112   12114   12115   12116
   12115   12117   12118   12119   12118   12120   12121   12122
   12121   12123   12124   12125   12124   12126   12127   12128
   12127   12129   12130   12131   12130   12132   12133   12134
   12133   12135   12136   12137   12136   12138   12139   12140
   12139   12141   12142   12143   12142   12144   12145   12146
   12145   12147   12148   12149   12148   12150   12151   12152
   12151   12153   12154   12155   12154   12156   12157   12158
   12157   12159   12160   12161   12160   12162   12163   12164
   12163   12165   12166   12167   12166   12168   12169   12170
   12169   12171   12172   12173   12172   12174   12175   12176
   12175   12177   12178   12179   12178   12180   12181   12182
   12181   12183   12184   12185   12184   12186   12187   12188
   12187   12189   12190   12191   12190   12192   12193   12194
   12193   12195   12196   12197   12196   12198   12199   12200
   12199   12201   12202   12203   12202   12204   12205   12206
   12205   12207   12208   12209   12208   12210   12211   12212
   12211   12213   12214   12215   12214   12216   12217   12218
   12217   12219   12220   12221   12220   12222   12223   12224
   12223   12225   12226   12227   12226   12228   12229   12230
   12229   12231   12232   12233   12232   12234   12235   12236
   12235   12237   12238   12239   12238   12240   12241   12242
   12241   12243   12244   12245   12244   12246   12247   12248
   12247   12249   12250   12251   12250   12252   12253   12254
   12253   12255   12256   12257   12256   12258   12259   12260
   12259   12261   12262   12263   12262   12264   12265   12266
   12265   12267   12268   12269   12268   12270   12271   12272
   12271   12273   12274   12275   12274   12276   12277   12278
   12277   12279   12280   12281   12280   12282   12283   12284
   12283   12285   12286   12287   12286   12288   12289   12290
   12289   12291   12292   12293   12292   12294   12295   12296
   12295   12297   12298   12299   12298   12300   12301   12302
   12301   12303   12304   12305   12304   12306   12307   12308
   12307   12309   12310   12311   12310   12312   12313   12314
   12313   12315   12316   12317   12316   12318   12319   12320
   12319   12321   12322   12323   12322   12324   12325   12326
   12325   12327   12328   12329   12328   12330   12331   12332
   12331   12333   12334   12335   12334   12336   12337   12338
   12337   12339   12340   12341   12340   12342   12343   12344
   12343   12345   12346   12347   12346   12348   12349   12350
   12349   12351   12352   12353   12352   12354   12355   12356
   12355   12357   12358   12359   12358   12360   12361   12362
   12361   12363   12364   12365   12364   12366   12367   12368
   12367   12369   12370   12371   12370   12372   12373   12374
   12373   12375   12376   12377   12376   12378   12379   12380
   12379   12381   12382   12383   12382   12384   12385   12386
   12385   12387   12388   12389   12388   12390   12391   12392
   12391   12393   12394   12395   12394   12396   12397   12398
   12397   12399   12400   12401   12400   12402   12403   12404
   12403   12405   12406   12407   12406   12408   12409   12410
   12409   12411   12412   12413   12412   12414   12415   12416
   12415   12417   12418   12419   12418   12420   12421   12422
   12421   12423   12424   12425   12424   12426   12427   12428
   12427   12429   12430   12431   12430   12432   12433   12434
   12433   12435   12436   12437   12436   12438   12439   12440
   12439   12441   12442   12443   12442   12444   12445   12446
   12445   12447   12448   12449   12448   12450   12451   12452
   12451   12453   12454   12455   12454   12456   12457   12458
   12457   12459   12460   12461   12460   12462   12463   12464
   12463   12465   12466   12467   12466   12468   12469   12470
   12469   12471   12472   12473   12472   12474   12475   12476
   12475   12477   12478   12479   12478   12480   12481   12482
   12481   12483   12484   12485   12484   12486   12487   12488
   12487   12489   12490   12491   12490   12492   12493   12494
   12493   12495   12496   12497   12496   12498   12499   12500
   12499   12501   12502   12503   12502   12504   12505   12506
   12505   12507   12508   12509   12508   12510   12511   12512
   12511   12513   12514   12515   12514   12516   12517   12518
   12517   12519   12520   12521   12520   12522   12523   12524
   12523   12525   12526   12527   12526   12528   12529   12530
   12529   12531   12532   12533   12532   12534   12535   12536
   12535   12537   12538   12539   12538   12540   12541   12542
   12541   12543   12544   12545   12544   12546   12547   12548
   12547   12549   12550   12551   12550   12552   12553   12554
   12553   12555   12556   12557   12556   12558   12559   12560
   12559   12561   12562   12563   12562   12564   12565   12566
   12565   12567   12568   12569   12568   12570   12571   12572
   12571   12573   12574   12575   12574   12576   12577   12578
   12577   12579   12580   12581   12580   12582   12583   12584
   12583   12585   12586   12587   12586   12588   12589   12590
   12589   12591   12592   12593   12592   12594   12595   12596
   12595   12597   12598   12599   12598   12600   12601   12602
   12601   12603   12604   12605   12604   12606   12607   12608
   12607   12609   12610   12611   12610   12612   12613   12614
   12613   12615   12616   12617   12616   12618   12619   12620
   12619   12621   12622   12623   12622   12624   12625   12626
   12625   12627   12628   12629   12628   12630   12631   12632
   12631   12633   12634   12635   12634   12636   12637   12638
   12637   12639   12640   12641   12640   12642   12643   12644
   12643   12645   12646   12647   12646   12648   12649   12650
   12649   12651   12652   12653   12652   12654   12655   12656
   12655   12657   12658   12659   12658   12660   12661   12662
   12661   12663   12664   12665   12664   12666   12667   12668
   12667   12669   12670   12671   12670   12672   12673   12674
   12673   12675   12676   12677   12676   12678   12679   12680
   12679   12681   12682   12683   12682   12684   12685   12686
   12685   12687   12688   12689   12688   12690   12691   12692
   12691   12693   12694   12695   12694   12696   12697   12698
   12697   12699   12700   12701   12700   12702   12703   12704
   12703   12705   12706   12707   12706   12708   12709   12710
   12709   12711   12712   12713   12712   12714   12715   12716
   12715   12717   12718   12719   12718   12720   12721   12722
   12721   12723   12724   12725   12724   12726   12727   12728
   12727   12729   12730   12731   12730   12732   12733   12734
   12733   12735   12736   12737   12736   12738   12739   12740
   12739   12741   12742   12743   12742   12744   12745   12746
   12745   12747   12748   12749   12748   12750   12751   12752
   12751   12753   12754   12755   12754   12756   12757   12758
   12757   12759   12760   12761   12760   12762   12763   12764
   12763   12765   12766   12767   12766   12768   12769   12770
   12769   12771   12772   12773   12772   12774   12775   12776
   12775   12777   12778   12779   12778   12780   12781   12782
   12781   12783   12784   12785   12784   12786   12787   12788
   12787   12789   12790   12791   12790   12792   12793   12794
   12793   12795   12796   12797   12796   12798   12799   12800
   12799   12801   12802   12803   12802   12804   12805   12806
   12805   12807   12808   12809   12808   12810   12811   12812
   12811   12813   12814   12815   12814   12816   12817   12818
   12817   12819   12820   12821   12820   12822   12823   12824
   12823   12825   12826   12827   12826   12828   12829   12830
   12829   12831   12832   12833   12832   12834   12835   12836
   12835   12837   12838   12839   12838   12840   12841   12842
   12841   12843   12844   12845   12844   12846   12847   12848
   12847   12849   12850   12851   12850   12852   12853   12854
   12853   12855   12856   12857   12856   12858   12859   12860
   12859   12861   12862   12863   12862   12864   12865   12866
   12865   12867   12868   12869   12868   12870   12871   12872
   12871   12873   12874   12875   12874   12876   12877   12878
   12877   12879   12880   12881   12880   12882   12883   12884
   12883   12885   12886   12887   12886   12888   12889   12890
   12889   12891   12892   12893   12892   12894   12895   12896
   12895   12897   12898   12899   12898   12900   12901   12902
   12901   12903   12904   12905   12904   12906   12907   12908
   12907   12909   12910   12911   12910   12912   12913   12914
   12913   12915   12916   12917   12916   12918   12919   12920
   12919   12921   12922   12923   12922   12924   12925   12926
   12925   12927   12928   12929   12928   12930   12931   12932
   12931   12933   12934   12935   12934   12936   12937   12938
   12937   12939   12940   12941   12940   12942   12943   12944
   12943   12945   12946   12947   12946   12948   12949   12950
   12949   12951   12952   12953   12952   12954   12955   12956
   12955   12957   12958   12959   12958   12960   12961   12962
   12961   12963   12964   12965   12964   12966   12967   12968
   12967   12969   12970   12971   12970   12972   12973   12974
   12973   12975   12976   12977   12976   12978   12979   12980
   12979   12981   12982   12983   12982   12984   12985   12986
   12985   12987   12988   12989   12988   12990   12991   12992
   12991   12993   12994   12995   12994   12996   12997   12998
   12997   12999   13000   13001   13000   13002   13003   13004
   13003   13005   13006   13007   13006   13008   13009   13010
   13009   13011   13012   13013   13012   13014   13015   13016
   13015   13017   13018   13019   13018   13020   13021   13022
   13021   13023   13024   13025   13024   13026   13027   13028
   13027   13029   13030   13031   13030   13032   13033   13034
   13033   13035   13036   13037   13036   13038   13039   13040
   13039   13041   13042   13043   13042   13044   13045   13046
   13045   13047   13048   13049   13048   13050   13051   13052
   13051   13053   13054   13055   13054   13056   13057   13058
   13057   13059   13060   13061   13060   13062   13063   13064
   13063   13065   13066   13067   13066   13068   13069   13070
   13069   13071   13072   13073   13072   13074   13075   13076
   13075   13077   13078   13079   13078   13080   13081   13082
   13081   13083   13084   13085   13084   13086   13087   13088
   13087   13089   13090   13091   13090   13092   13093   13094
   13093   13095   13096   13097   13096   13098   13099   13100
   13099   13101   13102   13103   13102   13104   13105   13106
   13105   13107   13108   13109   13108   13110   13111   13112
   13111   13113   13114   13115   13114   13116   13117   13118
   13117   13119   13120   13121   13120   13122   13123   13124
   13123   13125   13126   13127   13126   13128   13129   13130
   13129   13131   13132   13133   13132   13134   13135   13136
   13135   13137   13138   13139   13138   13140   13141   13142
   13141   13143   13144   13145   13144   13146   13147   13148
   13147   13149   13150   13151   13150   13152   13153   13154
   13153   13155   13156   13157   13156   13158   13159   13160
   13159   13161   13162   13163   13162   13164   13165   13166
   13165   13167   13168   13169   13168   13170   13171   13172
   13171   13173   13174   13175   13174   13176   13177   13178
   13177   13179   13180   13181   13180   13182   13183   13184
   13183   13185   13186   13187   13186   13188   13189   13190
   13189   13191   13192   13193   13192   13194   13195   13196
   13195   13197   13198   13199   13198   13200   13201   13202
   13201   13203   13204   13205   13204   13206   13207   13208
   13207   13209   13210   13211   13210   13212   13213   13214
   13213   13215   13216   13217   13216   13218   13219   13220
   13219   13221   13222   13223   13222   13224   13225   13226
   13225   13227   13228   13229   13228   13230   13231   13232
   13231   13233   13234   13235   13234   13236   13237   13238
   13237   13239   13240   13241   13240   13242   13243   13244
   13243   13245   13246   13247   13246   13248   13249   13250
   13249   13251   13252   13253   13252   13254   13255   13256
   13255   13257   13258   13259   13258   13260   13261   13262
   13261   13263   13264   13265   13264   13266   13267   13268
   13267   13269   13270   13271   13270   13272   13273   13274
   13273   13275   13276   13277   13276   13278   13279   13280
   13279   13281   13282   13283   13282   13284   13285   13286
   13285   13287   13288   13289   13288   13290   13291   13292
   13291   13293   13294   13295   13294   13296   13297   13298
   13297   13299   13300   13301   13300   13302   13303   13304
   13303   13305   13306   13307   13306   13308   13309   13310
   13309   13311   13312   13313   13312   13314   13315   13316
   13315   13317   13318   13319   13318   13320   13321   13322
   13321   13323   13324   13325   13324   13326   13327   13328
   13327   13329   13330   13331   13330   13332   13333   13334
   13333   13335   13336   13337   13336   13338   13339   13340
   13339   13341   13342   13343   13342   13344   13345   13346
   13345   13347   13348   13349   13348   13350   13351   13352
   13351   13353   13354   13355   13354   13356   13357   13358
   13357   13359   13360   13361   13360   13362   13363   13364
   13363   13365   13366   13367   13366   13368   13369   13370
   13369   13371   13372   13373   13372   13374   13375   13376
   13375   13377   13378   13379   13378   13380   13381   13382
   13381   13383   13384   13385   13384   13386   13387   13388
   13387   13389   13390   13391   13390   13392   13393   13394
   13393   13395   13396   13397   13396   13398   13399   13400
   13399   13401   13402   13403   13402   13404   13405   13406
   13405   13407   13408   13409   13408   13410   13411   13412
   13411   13413   13414   13415   13414   13416   13417   13418
   13417   13419   13420   13421   13420   13422   13423   13424
   13423   13425   13426   13427   13426   13428   13429   13430
   13429   13431   13432   13433   13432   13434   13435   13436
   13435   13437   13438   13439   13438   13440   13441   13442
   13441   13443   13444   13445   13444   13446   13447   13448
   13447   13449   13450   13451   13450   13452   13453   13454
   13453   13455   13456   13457   13456   13458   13459   13460
   13459   13461   13462   13463   13462   13464   13465   13466
   13465   13467   13468   13469   13468   13470   13471   13472
   13471   13473   13474   13475   13474   13476   13477   13478
   13477   13479   13480   13481   13480   13482   13483   13484
   13483   13485   13486   13487   13486   13488   13489   13490
   13489   13491   13492   13493   13492   13494   13495   13496
   13495   13497   13498   13499   13498   13500   13501   13502
   13501   13503   13504   13505   13504   13506   13507   13508
   13507   13509   13510   13511   13510   13512   13513   13514
   13513   13515   13516   13517   13516   13518   13519   13520
   13519   13521   13522   13523   13522   13524   13525   13526
   13525   13527   13528   13529   13528   13530   13531   13532
   13531   13533   13534   13535   13534   13536   13537   13538
   13537   13539   13540   13541   13540   13542   13543   13544
   13543   13545   13546   13547   13546   13548   13549   13550
   13549   13551   13552   13553   13552   13554   13555   13556
   13555   13557   13558   13559   13558   13560   13561   13562
   13561   13563   13564   13565   13564   13566   13567   13568
   13567   13569   13570   13571   13570   13572   13573   13574
   13573   13575   13576   13577   13576   13578   13579   13580
   13579   13581   13582   13583   13582   13584   13585   13586
   13585   13587   13588   13589   13588   13590   13591   13592
   13591   13593   13594   13595   13594   13596   13597   13598
   13597   13599   13600   13601   13600   13602   13603   13604
   13603   13605   13606   13607   13606   13608   13609   13610
   13609   13611   13612   13613   13612   13614   13615   13616
   13615   13617   13618   13619   13618   13620   13621   13622
   13621   13623   13624   13625   13624   13626   13627   13628
   13627   13629   13630   13631   13630   13632   13633   13634
   13633   13635   13636   13637   13636   13638   13639   13640
   13639   13641   13642   13643   13642   13644   13645   13646
   13645   13647   13648   13649   13648   13650   13651   13652
   13651   13653   13654   13655   13654   13656   13657   13658
   13657   13659   13660   13661   13660   13662   13663   13664
   13663   13665   13666   13667   13666   13668   13669   13670
   13669   13671   13672   13673   13672   13674   13675   13676
   13675   13677   13678   13679   13678   13680   13681   13682
   13681   13683   13684   13685   13684   13686   13687   13688
   13687   13689   13690   13691   13690   13692   13693   13694
   13693   13695   13696   13697   13696   13698   13699   13700
   13699   13701   13702   13703   13702   13704   13705   13706
   13705   13707   13708   13709   13708   13710   13711   13712
   13711   13713   13714   13715   13714   13716   13717   13718
   13717   13719   13720   13721   13720   13722   13723   13724
   13723   13725   13726   13727   13726   13728   13729   13730
   13729   13731   13732   13733   13732   13734   13735   13736
   13735   13737   13738   13739   13738   13740   13741   13742
   13741   13743   13744   13745   13744   13746   13747   13748
   13747   13749   13750   13751   13750   13752   13753   13754
   13753   13755   13756   13757   13756   13758   13759   13760
   13759   13761   13762   13763   13762   13764   13765   13766
   13765   13767   13768   13769   13768   13770   13771   13772
   13771   13773   13774   13775   13774   13776   13777   13778
   13777   13779   13780   13781   13780   13782   13783   13784
   13783   13785   13786   13787   13786   13788   13789   13790
   13789   13791   13792   13793   13792   13794   13795   13796
   13795   13797   13798   13799   13798   13800   13801   13802
   13801   13803   13804   13805   13804   13806   13807   13808
   13807   13809   13810   13811   13810   13812   13813   13814
   13813   13815   13816   13817   13816   13818   13819   13820
   13819   13821   13822   13823   13822   13824   13825   13826
   13825   13827   13828   13829   13828   13830   13831   13832
   13831   13833   13834   13835   13834   13836   13837   13838
   13837   13839   13840   13841   13840   13842   13843   13844
   13843   13845   13846   13847   13846   13848   13849   13850
   13849   13851   13852   13853   13852   13854   13855   13856
   13855   13857   13858   13859   13858   13860   13861   13862
   13861   13863   13864   13865   13864   13866   13867   13868
   13867   13869   13870   13871   13870   13872   13873   13874
   13873   13875   13876   13877   13876   13878   13879   13880
   13879   13881   13882   13883   13882   13884   13885   13886
   13885   13887   13888   13889   13888   13890   13891   13892
   13891   13893   13894   13895   13894   13896   13897   13898
   13897   13899   13900   13901   13900   13902   13903   13904
   13903   13905   13906   13907   13906   13908   13909   13910
   13909   13911   13912   13913   13912   13914   13915   13916
   13915   13917   13918   13919   13918   13920   13921   13922
   13921   13923   13924   13925   13924   13926   13927   13928
   13927   13929   13930   13931   13930   13932   13933   13934
   13933   13935   13936   13937   13936   13938   13939   13940
   13939   13941   13942   13943   13942   13944   13945   13946
   13945   13947   13948   13949   13948   13950   13951   13952
   13951   13953   13954   13955   13954   13956   13957   13958
   13957   13959   13960   13961   13960   13962   13963   13964
   13963   13965   13966   13967   13966   13968   13969   13970
   13969   13971   13972   13973   13972   13974   13975   13976
   13975   13977   13978   13979   13978   13980   13981   13982
   13981   13983   13984   13985   13984   13986   13987   13988
   13987   13989   13990   13991   13990   13992   13993   13994
   13993   13995   13996   13997   13996   13998   13999   14000
   13999   14001   14002   14003   14002   14004   14005   14006
   14005   14007   14008   14009   14008   14010   14011   14012
   14011   14013   14014   14015   14014   14016   14017   14018
   14017   14019   14020   14021   14020   14022   14023   14024
   14023   14025   14026   14027   14026   14028   14029   14030
   14029   14031   14032   14033   14032   14034   14035   14036
   14035   14037   14038   14039   14038   14040   14041   14042
   14041   14043   14044   14045   14044   14046   14047   14048
   14047   14049   14050   14051   14050   14052   14053   14054
   14053   14055   14056   14057   14056   14058   14059   14060
   14059   14061   14062   14063   14062   14064   14065   14066
   14065   14067   14068   14069   14068   14070   14071   14072
   14071   14073   14074   14075   14074   14076   14077   14078
   14077   14079   14080   14081   14080   14082   14083   14084
   14083   14085   14086   14087   14086   14088   14089   14090
   14089   14091   14092   14093   14092   14094   14095   14096
   14095   14097   14098   14099   14098   14100   14101   14102
   14101   14103   14104   14105   14104   14106   14107   14108
   14107   14109   14110   14111   14110   14112   14113   14114
   14113   14115   14116   14117   14116   14118   14119   14120
   14119   14121   14122   14123   14122   14124   14125   14126
   14125   14127   14128   14129   14128   14130   14131   14132
   14131   14133   14134   14135   14134   14136   14137   14138
   14137   14139   14140   14141   14140   14142   14143   14144
   14143   14145   14146   14147   14146   14148   14149   14150
   14149   14151   14152   14153   14152   14154   14155   14156
   14155   14157   14158   14159   14158   14160   14161   14162
   14161   14163   14164   14165   14164   14166   14167   14168
   14167   14169   14170   14171   14170   14172   14173   14174
   14173   14175   14176   14177   14176   14178   14179   14180
   14179   14181   14182   14183   14182   14184   14185   14186
   14185   14187   14188   14189   14188   14190   14191   14192
   14191   14193   14194   14195   14194   14196   14197   14198
   14197   14199   14200   14201   14200   14202   14203   14204
   14203   14205   14206   14207   14206   14208   14209   14210
   14209   14211   14212   14213   14212   14214   14215   14216
   14215   14217   14218   14219   14218   14220   14221   14222
   14221   14223   14224   14225   14224   14226   14227   14228
   14227   14229   14230   14231   14230   14232   14233   14234
   14233   14235   14236   14237   14236   14238   14239   14240
   14239   14241   14242   14243   14242   14244   14245   14246
   14245   14247   14248   14249   14248   14250   14251   14252
   14251   14253   14254   14255   14254   14256   14257   14258
   14257   14259   14260   14261   14260   14262   14263   14264
   14263   14265   14266   14267   14266   14268   14269   14270
   14269   14271   14272   14273   14272   14274   14275   14276
   14275   14277   14278   14279   14278   14280   14281   14282
   14281   14283   14284   14285   14284   14286   14287   14288
   14287   14289   14290   14291   14290   14292   14293   14294
   14293   14295   14296   14297   14296   14298   14299   14300
   14299   14301   14302   14303   14302   14304   14305   14306
   14305   14307   14308   14309   14308   14310   14311   14312
   14311   14313   14314   14315   14314   14316   14317   14318
   14317   14319   14320   14321   14320   14322   14323   14324
   14323   14325   14326   14327   14326   14328   14329   14330
   14329   14331   14332   14333   14332   14334   14335   14336
   14335   14337   14338   14339   14338   14340   14341   14342
   14341   14343   14344   14345   14344   14346   14347   14348
   14347   14349   14350   14351   14350   14352   14353   14354
   14353   14355   14356   14357   14356   14358   14359   14360
   14359   14361   14362   14363   14362   14364   14365   14366
   14365   14367   14368   14369   14368   14370   14371   14372
   14371   14373   14374   14375   14374   14376   14377   14378
   14377   14379   14380   14381   14380   14382   14383   14384
   14383   14385   14386   14387   14386   14388   14389   14390
   14389   14391   14392   14393   14392   14394   14395   14396
   14395   14397   14398   14399   14398   14400   14401   14402
   14401   14403   14404   14405   14404   14406   14407   14408
   14407   14409   14410   14411   14410   14412   14413   14414
   14413   14415   14416   14417   14416   14418   14419   14420
   14419   14421   14422   14423   14422   14424   14425   14426
   14425   14427   14428   14429   14428   14430   14431   14432
   14431   14433   14434   14435   14434   14436   14437   14438
   14437   14439   14440   14441   14440   14442   14443   14444
   14443   14445   14446   14447   14446   14448   14449   14450
   14449   14451   14452   14453   14452   14454   14455   14456
   14455   14457   14458   14459   14458   14460   14461   14462
   14461   14463   14464   14465   14464   14466   14467   14468
   14467   14469   14470   14471   14470   14472   14473   14474
   14473   14475   14476   14477   14476   14478   14479   14480
   14479   14481   14482   14483   14482   14484   14485   14486
   14485   14487   14488   14489   14488   14490   14491   14492
   14491   14493   14494   14495   14494   14496   14497   14498
   14497   14499   14500   14501   14500   14502   14503   14504
   14503   14505   14506   14507   14506   14508   14509   14510
   14509   14511   14512   14513   14512   14514   14515   14516
   14515   14517   14518   14519   14518   14520   14521   14522
   14521   14523   14524   14525   14524   14526   14527   14528
   14527   14529   14530   14531   14530   14532   14533   14534
   14533   14535   14536   14537   14536   14538   14539   14540
   14539   14541   14542   14543   14542   14544   14545   14546
   14545   14547   14548   14549   14548   14550   14551   14552
   14551   14553   14554   14555   14554   14556   14557   14558
   14557   14559   14560   14561   14560   14562   14563   14564
   14563   14565   14566   14567   14566   14568   14569   14570
   14569   14571   14572   14573   14572   14574   14575   14576
   14575   14577   14578   14579   14578   14580   14581   14582
   14581   14583   14584   14585   14584   14586   14587   14588
   14587   14589   14590   14591   14590   14592   14593   14594
   14593   14595   14596   14597   14596   14598   14599   14600
   14599   14601   14602   14603   14602   14604   14605   14606
   14605   14607   14608   14609   14608   14610   14611   14612
   14611   14613   14614   14615   14614   14616   14617   14618
   14617   14619   14620   14621   14620   14622   14623   14624
   14623   14625   14626   14627   14626   14628   14629   14630
   14629   14631   14632   14633   14632   14634   14635   14636
   14635   14637   14638   14639   14638   14640   14641   14642
   14641   14643   14644   14645   14644   14646   14647   14648
   14647   14649   14650   14651   14650   14652   14653   14654
   14653   14655   14656   14657   14656   14658   14659   14660
   14659   14661   14662   14663   14662   14664   14665   14666
   14665   14667   14668   14669   14668   14670   14671   14672
   14671   14673   14674   14675   14674   14676   14677   14678
   14677   14679   14680   14681   14680   14682   14683   14684
   14683   14685   14686   14687   14686   14688   14689   14690
   14689   14691   14692   14693   14692   14694   14695   14696
   14695   14697   14698   14699   14698   14700   14701   14702
   14701   14703   14704   14705   14704   14706   14707   14708
   14707   14709   14710   14711   14710   14712   14713   14714
   14713   14715   14716   14717   14716   14718   14719   14720
   14719   14721   14722   14723   14722   14724   14725   14726
   14725   14727   14728   14729   14728   14730   14731   14732
   14731   14733   14734   14735   14734   14736   14737   14738
   14737   14739   14740   14741   14740   14742   14743   14744
   14743   14745   14746   14747   14746   14748   14749   14750
   14749   14751   14752   14753   14752   14754   14755   14756
   14755   14757   14758   14759   14758   14760   14761   14762
   14761   14763   14764   14765   14764   14766   14767   14768
   14767   14769   14770   14771   14770   14772   14773   14774
   14773   14775   14776   14777   14776   14778   14779   14780
   14779   14781   14782   14783   14782   14784   14785   14786
   14785   14787   14788   14789   14788   14790   14791   14792
   14791   14793   14794   14795   14794   14796   14797   14798
   14797   14799   14800   14801   14800   14802   14803   14804
   14803   14805   14806   14807   14806   14808   14809   14810
   14809   14811   14812   14813   14812   14814   14815   14816
   14815   14817   14818   14819   14818   14820   14821   14822
   14821   14823   14824   14825   14824   14826   14827   14828
   14827   14829   14830   14831   14830   14832   14833   14834
   14833   14835   14836   14837   14836   14838   14839   14840
   14839   14841   14842   14843   14842   14844   14845   14846
   14845   14847   14848   14849   14848   14850   14851   14852
   14851   14853   14854   14855   14854   14856   14857   14858
   14857   14859   14860   14861   14860   14862   14863   14864
   14863   14865   14866   14867   14866   14868   14869   14870
   14869   14871   14872   14873   14872   14874   14875   14876
   14875   14877   14878   14879   14878   14880   14881   14882
   14881   14883   14884   14885   14884   14886   14887   14888
   14887   14889   14890   14891   14890   14892   14893   14894
   14893   14895   14896   14897   14896   14898   14899   14900
   14899   14901   14902   14903   14902   14904   14905   14906
   14905   14907   14908   14909   14908   14910   14911   14912
   14911   14913   14914   14915   14914   14916   14917   14918
   14917   14919   14920   14921   14920   14922   14923   14924
   14923   14925   14926   14927   14926   14928   14929   14930
   14929   14931   14932   14933   14932   14934   14935   14936
   14935   14937   14938   14939   14938   14940   14941   14942
   14941   14943   14944   14945   14944   14946   14947   14948
   14947   14949   14950   14951   14950   14952   14953   14954
   14953   14955   14956   14957   14956   14958   14959   14960
   14959   14961   14962   14963   14962   14964   14965   14966
   14965   14967   14968   14969   14968   14970   14971   14972
   14971   14973   14974   14975   14974   14976   14977   14978
   14977   14979   14980   14981   14980   14982   14983   14984
   14983   14985   14986   14987   14986   14988   14989   14990
   14989   14991   14992   14993   14992   14994   14995   14996
   14995   14997   14998   14999   14998   15000   15001   15002
   15001   15003   15004   15005   15004   15006   15007   15008
   15007   15009   15010   15011   15010   15012   15013   15014
   15013   15015   15016   15017   15016   15018   15019   15020
   15019   15021   15022   15023   15022   15024   15025   15026
   15025   15027   15028   15029   15028   15030   15031   15032
   15031   15033   15034   15035   15034   15036   15037   15038
   15037   15039   15040   15041   15040   15042   15043   15044
   15043   15045   15046   15047   15046   15048   15049   15050
   15049   15051   15052   15053   15052   15054   15055   15056
   15055   15057   15058   15059   15058   15060   15061   15062
   15061   15063   15064   15065   15064   15066   15067   15068
   15067   15069   15070   15071   15070   15072   15073   15074
   15073   15075   15076   15077   15076   15078   15079   15080
   15079   15081   15082   15083   15082   15084   15085   15086
   15085   15087   15088   15089   15088   15090   15091   15092
   15091   15093   15094   15095   15094   15096   15097   15098
   15097   15099   15100   15101   15100   15102   15103   15104
   15103   15105   15106   15107   15106   15108   15109   15110
   15109   15111   15112   15113   15112   15114   15115   15116
   15115   15117   15118   15119   15118   15120   15121   15122
   15121   15123   15124   15125   15124   15126   15127   15128
   15127   15129   15130   15131   15130   15132   15133   15134
   15133   15135   15136   15137   15136   15138   15139   15140
   15139   15141   15142   15143   15142   15144   15145   15146
   15145   15147   15148   15149   15148   15150   15151   15152
   15151   15153   15154   15155   15154   15156   15157   15158
   15157   15159   15160   15161   15160   15162   15163   15164
   15163   15165   15166   15167   15166   15168   15169   15170
   15169   15171   15172   15173   15172   15174   15175   15176
   15175   15177   15178   15179   15178   15180   15181   15182
   15181   15183   15184   15185   15184   15186   15187   15188
   15187   15189   15190   15191   15190   15192   15193   15194
   15193   15195   15196   15197   15196   15198   15199   15200
   15199   15201   15202   15203   15202   15204   15205   15206
   15205   15207   15208   15209   15208   15210   15211   15212
   15211   15213   15214   15215   15214   15216   15217   15218
   15217   15219   15220   15221   15220   15222   15223   15224
   15223   15225   15226   15227   15226   15228   15229   15230
   15229   15231   15232   15233   15232   15234   15235   15236
   15235   15237   15238   15239   15238   15240   15241   15242
   15241   15243   15244   15245   15244   15246   15247   15248
   15247   15249   15250   15251   15250   15252   15253   15254
   15253   15255   15256   15257   15256   15258   15259   15260
   15259   15261   15262   15263   15262   15264   15265   15266
   15265   15267   15268   15269   15268   15270   15271   15272
   15271   15273   15274   15275   15274   15276   15277   15278
   15277   15279   15280   15281   15280   15282   15283   15284
   15283   15285   15286   15287   15286   15288   15289   15290
   15289   15291   15292   15293   15292   15294   15295   15296
   15295   15297   15298   15299   15298   15300   15301   15302
   15301   15303   15304   15305   15304   15306   15307   15308
   15307   15309   15310   15311   15310   15312   15313   15314
   15313   15315   15316   15317   15316   15318   15319   15320
   15319   15321   15322   15323   15322   15324   15325   15326
   15325   15327   15328   15329   15328   15330   15331   15332
   15331   15333   15334   15335   15334   15336   15337   15338
   15337   15339   15340   15341   15340   15342   15343   15344
   15343   15345   15346   15347   15346   15348   15349   15350
   15349   15351   15352   15353   15352   15354   15355   15356
   15355   15357   15358   15359   15358   15360   15361   15362
   15361   15363   15364   15365   15364   15366   15367   15368
   15367   15369   15370   15371   15370   15372   15373   15374
   15373   15375   15376   15377   15376   15378   15379   15380
   15379   15381   15382   15383   15382   15384   15385   15386
   15385   15387   15388   15389   15388   15390   15391   15392
   15391   15393   15394   15395   15394   15396   15397   15398
   15397   15399   15400   15401   15400   15402   15403   15404
   15403   15405   15406   15407   15406   15408   15409   15410
   15409   15411   15412   15413   15412   15414   15415   15416
   15415   15417   15418   15419   15418   15420   15421   15422
   15421   15423   15424   15425   15424   15426   15427   15428
   15427   15429   15430   15431   15430   15432   15433   15434
   15433   15435   15436   15437   15436   15438   15439   15440
   15439   15441   15442   15443   15442   15444   15445   15446
   15445   15447   15448   15449   15448   15450   15451   15452
   15451   15453   15454   15455   15454   15456   15457   15458
   15457   15459   15460   15461   15460   15462   15463   15464
   15463   15465   15466   15467   15466   15468   15469   15470
   15469   15471   15472   15473   15472   15474   15475   15476
   15475   15477   15478   15479   15478   15480   15481   15482
   15481   15483   15484   15485   15484   15486   15487   15488
   15487   15489   15490   15491   15490   15492   15493   15494
   15493   15495   15496   15497   15496   15498   15499   15500
   15499   15501   15502   15503   15502   15504   15505   15506
   15505   15507   15508   15509   15508   15510   15511   15512
   15511   15513   15514   15515   15514   15516   15517   15518
   15517   15519   15520   15521   15520   15522   15523   15524
   15523   15525   15526   15527   15526   15528   15529   15530
   15529   15531   15532   15533   15532   15534   15535   15536
   15535   15537   15538   15539   15538   15540   15541   15542
   15541   15543   15544   15545   15544   15546   15547   15548
   15547   15549   15550   15551   15550   15552   15553   15554
   15553   15555   15556   15557   15556   15558   15559   15560
   15559   15561   15562   15563   15562   15564   15565   15566
   15565   15567   15568   15569   15568   15570   15571   15572
   15571   15573   15574   15575   15574   15576   15577   15578
   15577   15579   15580   15581   15580   15582   15583   15584
   15583   15585   15586   15587   15586   15588   15589   15590
   15589   15591   15592   15593   15592   15594   15595   15596
   15595   15597   15598   15599   15598   15600   15601   15602
   15601   15603   15604   15605   15604   15606   15607   15608
   15607   15609   15610   15611   15610   15612   15613   15614
   15613   15615   15616   15617   15616   15618   15619   15620
   15619   15621   15622   15623   15622   15624   15625   15626
   15625   15627   15628   15629   15628   15630   15631   15632
   15631   15633   15634   15635   15634   15636   15637   15638
   15637   15639   15640   15641   15640   15642   15643   15644
   15643   15645   15646   15647   15646   15648   15649   15650
   15649   15651   15652   15653   15652   15654   15655   15656
   15655   15657   15658   15659   15658   15660   15661   15662
   15661   15663   15664   15665   15664   15666   15667   15668
   15667   15669   15670   15671   15670   15672   15673   15674
   15673   15675   15676   15677   15676   15678   15679   15680
   15679   15681   15682   15683   15682   15684   15685   15686
   15685   15687   15688   15689   15688   15690   15691   15692
   15691   15693   15694   15695   15694   15696   15697   15698
   15697   15699   15700   15701   15700   15702   15703   15704
   15703   15705   15706   15707   15706   15708   15709   15710
   15709   15711   15712   15713   15712   15714   15715   15716
   15715   15717   15718   15719   15718   15720   15721   15722
   15721   15723   15724   15725   15724   15726   15727   15728
   15727   15729   15730   15731   15730   15732   15733   15734
   15733   15735   15736   15737   15736   15738   15739   15740
   15739   15741   15742   15743   15742   15744   15745   15746
   15745   15747   15748   15749   15748   15750   15751   15752
   15751   15753   15754   15755   15754   15756   15757   15758
   15757   15759   15760   15761   15760   15762   15763   15764
   15763   15765   15766   15767   15766   15768   15769   15770
   15769   15771   15772   15773   15772   15774   15775   15776
   15775   15777   15778   15779   15778   15780   15781   15782
   15781   15783   15784   15785   15784   15786   15787   15788
   15787   15789   15790   15791   15790   15792   15793   15794
   15793   15795   15796   15797   15796   15798   15799   15800
   15799   15801   15802   15803   15802   15804   15805   15806
   15805   15807   15808   15809   15808   15810   15811   15812
   15811   15813   15814   15815   15814   15816   15817   15818
   15817   15819   15820   15821   15820   15822   15823   15824
   15823   15825   15826   15827   15826   15828   15829   15830
   15829   15831   15832   15833   15832   15834   15835   15836
   15835   15837   15838   15839   15838   15840   15841   15842
   15841   15843   15844   15845   15844   15846   15847   15848
   15847   15849   15850   15851   15850   15852   15853   15854
   15853   15855   15856   15857   15856   15858   15859   15860
   15859   15861   15862   15863   15862   15864   15865   15866
   15865   15867   15868   15869   15868   15870   15871   15872
   15871   15873   15874   15875   15874   15876   15877   15878
   15877   15879   15880   15881   15880   15882   15883   15884
   15883   15885   15886   15887   15886   15888   15889   15890
   15889   15891   15892   15893   15892   15894   15895   15896
   15895   15897   15898   15899   15898   15900   15901   15902
   15901   15903   15904   15905   15904   15906   15907   15908
   15907   15909   15910   15911   15910   15912   15913   15914
   15913   15915   15916   15917   15916   15918   15919   15920
   15919   15921   15922   15923   15922   15924   15925   15926
   15925   15927   15928   15929   15928   15930   15931   15932
   15931   15933   15934   15935   15934   15936   15937   15938
   15937   15939   15940   15941   15940   15942   15943   15944
   15943   15945   15946   15947   15946   15948   15949   15950
   15949   15951   15952   15953   15952   15954   15955   15956
   15955   15957   15958   15959   15958   15960   15961   15962
   15961   15963   15964   15965   15964   15966   15967   15968
   15967   15969   15970   15971   15970   15972   15973   15974
   15973   15975   15976   15977   15976   15978   15979   15980
   15979   15981   15982   15983   15982   15984   15985   15986
   15985   15987   15988   15989   15988   15990   15991   15992
   15991   15993   15994   15995   15994   15996   15997   15998
   15997   15999   16000   16001   16000   16002   16003   16004
   16003   16005   16006   16007   16006   16008   16009   16010
   16009   16011   16012   16013   16012   16014   16015   16016
   16015   16017   16018   16019   16018   16020   16021   16022
   16021   16023   16024   16025   16024   16026   16027   16028
   16027   16029   16030   16031   16030   16032   16033   16034
   16033   16035   16036   16037   16036   16038   16039   16040
   16039   16041   16042   16043   16042   16044   16045   16046
   16045   16047   16048   16049   16048   16050   16051   16052
   16051   16053   16054   16055   16054   16056   16057   16058
   16057   16059   16060   16061   16060   16062   16063   16064
   16063   16065   16066   16067   16066   16068   16069   16070
   16069   16071   16072   16073   16072   16074   16075   16076
   16075   16077   16078   16079   16078   16080   16081   16082
   16081   16083   16084   16085   16084   16086   16087   16088
   16087   16089   16090   16091   16090   16092   16093   16094
   16093   16095   16096   16097   16096   16098   16099   16100
   16099   16101   16102   16103   16102   16104   16105   16106
   16105   16107   16108   16109   16108   16110   16111   16112
   16111   16113   16114   16115   16114   16116   16117   16118
   16117   16119   16120   16121   16120   16122   16123   16124
   16123   16125   16126   16127   16126   16128   16129   16130
   16129   16131   16132   16133   16132   16134   16135   16136
   16135   16137   16138   16139   16138   16140   16141   16142
   16141   16143   16144   16145   16144   16146   16147   16148
   16147   16149   16150   16151   16150   16152   16153   16154
   16153   16155   16156   16157   16156   16158   16159   16160
   16159   16161   16162   16163   16162   16164   16165   16166
   16165   16167   16168   16169   16168   16170   16171   16172
   16171   16173   16174   16175   16174   16176   16177   16178
   16177   16179   16180   16181   16180   16182   16183   16184
   16183   16185   16186   16187   16186   16188   16189   16190
   16189   16191   16192   16193   16192   16194   16195   16196
   16195   16197   16198   16199   16198   16200   16201   16202
   16201   16203   16204   16205   16204   16206   16207   16208
   16207   16209   16210   16211   16210   16212   16213   16214
   16213   16215   16216   16217   16216   16218   16219   16220
   16219   16221   16222   16223   16222   16224   16225   16226
   16225   16227   16228   16229   16228   16230   16231   16232
   16231   16233   16234   16235   16234   16236   16237   16238
   16237   16239   16240   16241   16240   16242   16243   16244
   16243   16245   16246   16247   16246   16248   16249   16250
   16249   16251   16252   16253   16252   16254   16255   16256
   16255   16257   16258   16259   16258   16260   16261   16262
   16261   16263   16264   16265   16264   16266   16267   16268
   16267   16269   16270   16271   16270   16272   16273   16274
   16273   16275   16276   16277   16276   16278   16279   16280
   16279   16281   16282   16283   16282   16284   16285   16286
   16285   16287   16288   16289   16288   16290   16291   16292
   16291   16293   16294   16295   16294   16296   16297   16298
   16297   16299   16300   16301   16300   16302   16303   16304
   16303   16305   16306   16307   16306   16308   16309   16310
   16309   16311   16312   16313   16312   16314   16315   16316
   16315   16317   16318   16319   16318   16320   16321   16322
   16321   16323   16324   16325   16324   16326   16327   16328
   16327   16329   16330   16331   16330   16332   16333   16334
   16333   16335   16336   16337   16336   16338   16339   16340
   16339   16341   16342   16343   16342   16344   16345   16346
   16345   16347   16348   16349   16348   16350   16351   16352
   16351   16353   16354   16355   16354   16356   16357   16358
   16357   16359   16360   16361   16360   16362   16363   16364
   16363   16365   16366   16367   16366   16368   16369   16370
   16369   16371   16372   16373   16372   16374   16375   16376
   16375   16377   16378   16379   16378   16380   16381   16382
   16381   16383   16384   16385   16384   16386   16387   16388
   16387   16389   16390   16391   16390   16392   16393   16394
   16393   16395   16396   16397   16396   16398   16399   16400
   16399   16401   16402   16403   16402   16404   16405   16406
   16405   16407   16408   16409   16408   16410   16411   16412
   16411   16413   16414   16415   16414   16416   16417   16418
   16417   16419   16420   16421   16420   16422   16423   16424
   16423   16425   16426   16427   16426   16428   16429   16430
   16429   16431   16432   16433   16432   16434   16435   16436
   16435   16437   16438   16439   16438   16440   16441   16442
   16441   16443   16444   16445   16444   16446   16447   16448
   16447   16449   16450   16451   16450   16452   16453   16454
   16453   16455   16456   16457   16456   16458   16459   16460
   16459   16461   16462   16463   16462   16464   16465   16466
   16465   16467   16468   16469   16468   16470   16471   16472
   16471   16473   16474   16475   16474   16476   16477   16478
   16477   16479   16480   16481   16480   16482   16483   16484
   16483   16485   16486   16487   16486   16488   16489   16490
   16489   16491   16492   16493   16492   16494   16495   16496
   16495   16497   16498   16499   16498   16500   16501   16502
   16501   16503   16504   16505   16504   16506   16507   16508
   16507   16509   16510   16511   16510   16512   16513   16514
   16513   16515   16516   16517   16516   16518   16519   16520
   16519   16521   16522   16523   16522   16524   16525   16526
   16525   16527   16528   16529   16528   16530   16531   16532
   16531   16533   16534   16535   16534   16536   16537   16538
   16537   16539   16540   16541   16540   16542   16543   16544
   16543   16545   16546   16547   16546   16548   16549   16550
   16549   16551   16552   16553   16552   16554   16555   16556
   16555   16557   16558   16559   16558   16560   16561   16562
   16561   16563   16564   16565   16564   16566   16567   16568
   16567   16569   16570   16571   16570   16572   16573   16574
   16573   16575   16576   16577   16576   16578   16579   16580
   16579   16581   16582   16583   16582   16584   16585   16586
   16585   16587   16588   16589   16588   16590   16591   16592
   16591   16593   16594   16595   16594   16596   16597   16598
   16597   16599   16600   16601   16600   16602   16603   16604
   16603   16605   16606   16607   16606   16608   16609   16610
   16609   16611   16612   16613   16612   16614   16615   16616
   16615   16617   16618   16619   16618   16620   16621   16622
   16621   16623   16624   16625   16624   16626   16627   16628
   16627   16629   16630   16631   16630   16632   16633   16634
   16633   16635   16636   16637   16636   16638   16639   16640
   16639   16641   16642   16643   16642   16644   16645   16646
   16645   16647   16648   16649   16648   16650   16651   16652
   16651   16653   16654   16655   16654   16656   16657   16658
   16657   16659   16660   16661   16660   16662   16663   16664
   16663   16665   16666   16667   16666   16668   16669   16670
   16669   16671   16672   16673   16672   16674   16675   16676
   16675   16677   16678   16679   16678   16680   16681   16682
   16681   16683   16684   16685   16684   16686   16687   16688
   16687   16689   16690   16691   16690   16692   16693   16694
   16693   16695   16696   16697   16696   16698   16699   16700
   16699   16701   16702   16703   16702   16704   16705   16706
   16705   16707   16708   16709   16708   16710   16711   16712
   16711   16713   16714   16715   16714   16716   16717   16718
   16717   16719   16720   16721   16720   16722   16723   16724
   16723   16725   16726   16727   16726   16728   16729   16730
   16729   16731   16732   16733   16732   16734   16735   16736
   16735   16737   16738   16739   16738   16740   16741   16742
   16741   16743   16744   16745   16744   16746   16747   16748
   16747   16749   16750   16751   16750   16752   16753   16754
   16753   16755   16756   16757   16756   16758   16759   16760
   16759   16761   16762   16763   16762   16764   16765   16766
   16765   16767   16768   16769   16768   16770   16771   16772
   16771   16773   16774   16775   16774   16776   16777   16778
   16777   16779   16780   16781   16780   16782   16783   16784
   16783   16785   16786   16787   16786   16788   16789   16790
   16789   16791   16792   16793   16792   16794   16795   16796
   16795   16797   16798   16799   16798   16800   16801   16802
   16801   16803   16804   16805   16804   16806   16807   16808
   16807   16809   16810   16811   16810   16812   16813   16814
   16813   16815   16816   16817   16816   16818   16819   16820
   16819   16821   16822   16823   16822   16824   16825   16826
   16825   16827   16828   16829   16828   16830   16831   16832
   16831   16833   16834   16835   16834   16836   16837   16838
   16837   16839   16840   16841   16840   16842   16843   16844
   16843   16845   16846   16847   16846   16848   16849   16850
   16849   16851   16852   16853   16852   16854   16855   16856
   16855   16857   16858   16859   16858   16860   16861   16862
   16861   16863   16864   16865   16864   16866   16867   16868
   16867   16869   16870   16871   16870   16872   16873   16874
   16873   16875   16876   16877   16876   16878   16879   16880
   16879   16881   16882   16883   16882   16884   16885   16886
   16885   16887   16888   16889   16888   16890   16891   16892
   16891   16893   16894   16895   16894   16896   16897   16898
   16897   16899   16900   16901   16900   16902   16903   16904
   16903   16905   16906   16907   16906   16908   16909   16910
   16909   16911   16912   16913   16912   16914   16915   16916
   16915   16917   16918   16919   16918   16920   16921   16922
   16921   16923   16924   16925   16924   16926   16927   16928
   16927   16929   16930   16931   16930   16932   16933   16934
   16933   16935   16936   16937   16936   16938   16939   16940
   16939   16941   16942   16943   16942   16944   16945   16946
   16945   16947   16948   16949   16948   16950   16951   16952
   16951   16953   16954   16955   16954   16956   16957   16958
   16957   16959   16960   16961   16960   16962   16963   16964
   16963   16965   16966   16967   16966   16968   16969   16970
   16969   16971   16972   16973   16972   16974   16975   16976
   16975   16977   16978   16979   16978   16980   16981   16982
   16981   16983   16984   16985   16984   16986   16987   16988
   16987   16989   16990   16991   16990   16992   16993   16994
   16993   16995   16996   16997   16996   16998   16999   17000
   16999   17001   17002   17003   17002   17004   17005   17006
   17005   17007   17008   17009   17008   17010   17011   17012
   17011   17013   17014   17015   17014   17016   17017   17018
   17017   17019   17020   17021   17020   17022   17023   17024
   17023   17025   17026   17027   17026   17028   17029   17030
   17029   17031   17032   17033   17032   17034   17035   17036
   17035   17037   17038   17039   17038   17040   17041   17042
   17041   17043   17044   17045   17044   17046   17047   17048
   17047   17049   17050   17051   17050   17052   17053   17054
   17053   17055   17056   17057   17056   17058   17059   17060
   17059   17061   17062   17063   17062   17064   17065   17066
   17065   17067   17068   17069   17068   17070   17071   17072
   17071   17073   17074   17075   17074   17076   17077   17078
   17077   17079   17080   17081   17080   17082   17083   17084
   17083   17085   17086   17087   17086   17088   17089   17090
   17089   17091   17092   17093   17092   17094   17095   17096
   17095   17097   17098   17099   17098   17100   17101   17102
   17101   17103   17104   17105   17104   17106   17107   17108
   17107   17109   17110   17111   17110   17112   17113   17114
   17113   17115   17116   17117   17116   17118   17119   17120
   17119   17121   17122   17123   17122   17124   17125   17126
   17125   17127   17128   17129   17128   17130   17131   17132
   17131   17133   17134   17135   17134   17136   17137   17138
   17137   17139   17140   17141   17140   17142   17143   17144
   17143   17145   17146   17147   17146   17148   17149   17150
   17149   17151   17152   17153   17152   17154   17155   17156
   17155   17157   17158   17159   17158   17160   17161   17162
   17161   17163   17164   17165   17164   17166   17167   17168
   17167   17169   17170   17171   17170   17172   17173   17174
   17173   17175   17176   17177   17176   17178   17179   17180
   17179   17181   17182   17183   17182   17184   17185   17186
   17185   17187   17188   17189   17188   17190   17191   17192
   17191   17193   17194   17195   17194   17196   17197   17198
   17197   17199   17200   17201   17200   17202   17203   17204
   17203   17205   17206   17207   17206   17208   17209   17210
   17209   17211   17212   17213   17212   17214   17215   17216
   17215   17217   17218   17219   17218   17220   17221   17222
   17221   17223   17224   17225   17224   17226   17227   17228
   17227   17229   17230   17231   17230   17232   17233   17234
   17233   17235   17236   17237   17236   17238   17239   17240
   17239   17241   17242   17243   17242   17244   17245   17246
   17245   17247   17248   17249   17248   17250   17251   17252
   17251   17253   17254   17255   17254   17256   17257   17258
   17257   17259   17260   17261   17260   17262   17263   17264
   17263   17265   17266   17267   17266   17268   17269   17270
   17269   17271   17272   17273   17272   17274   17275   17276
   17275   17277   17278   17279   17278   17280   17281   17282
   17281   17283   17284   17285   17284   17286   17287   17288
   17287   17289   17290   17291   17290   17292   17293   17294
   17293   17295   17296   17297   17296   17298   17299   17300
   17299   17301   17302   17303   17302   17304   17305   17306
   17305   17307   17308   17309   17308   17310   17311   17312
   17311   17313   17314   17315   17314   17316   17317   17318
   17317   17319   17320   17321   17320   17322   17323   17324
   17323   17325   17326   17327   17326   17328   17329   17330
   17329   17331   17332   17333   17332   17334   17335   17336
   17335   17337   17338   17339   17338   17340   17341   17342
   17341   17343   17344   17345   17344   17346   17347   17348
   17347   17349   17350   17351   17350   17352   17353   17354
   17353   17355   17356   17357   17356   17358   17359   17360
   17359   17361   17362   17363   17362   17364   17365   17366
   17365   17367   17368   17369   17368   17370   17371   17372
   17371   17373   17374   17375   17374   17376   17377   17378
   17377   17379   17380   17381   17380   17382   17383   17384
   17383   17385   17386   17387   17386   17388   17389   17390
   17389   17391   17392   17393   17392   17394   17395   17396
   17395   17397   17398   17399   17398   17400   17401   17402
   17401   17403   17404   17405   17404   17406   17407   17408
   17407   17409   17410   17411   17410   17412   17413   17414
   17413   17415   17416   17417   17416   17418   17419   17420
   17419   17421   17422   17423   17422   17424   17425   17426
   17425   17427   17428   17429   17428   17430   17431   17432
   17431   17433   17434   17435   17434   17436   17437   17438
   17437   17439   17440   17441   17440   17442   17443   17444
   17443   17445   17446   17447   17446   17448   17449   17450
   17449   17451   17452   17453   17452   17454   17455   17456
   17455   17457   17458   17459   17458   17460   17461   17462
   17461   17463   17464   17465   17464   17466   17467   17468
   17467   17469   17470   17471   17470   17472   17473   17474
   17473   17475   17476   17477   17476   17478   17479   17480
   17479   17481   17482   17483   17482   17484   17485   17486
   17485   17487   17488   17489   17488   17490   17491   17492
   17491   17493   17494   17495   17494   17496   17497   17498
   17497   17499   17500   17501   17500   17502   17503   17504
   17503   17505   17506   17507   17506   17508   17509   17510
   17509   17511   17512   17513   17512   17514   17515   17516
   17515   17517   17518   17519   17518   17520   17521   17522
   17521   17523   17524   17525   17524   17526   17527   17528
   17527   17529   17530   17531   17530   17532   17533   17534
   17533   17535   17536   17537   17536   17538   17539   17540
   17539   17541   17542   17543   17542   17544   17545   17546
   17545   17547   17548   17549   17548   17550   17551   17552
   17551   17553   17554   17555   17554   17556   17557   17558
   17557   17559   17560   17561   17560   17562   17563   17564
   17563   17565   17566   17567   17566   17568   17569   17570
   17569   17571   17572   17573   17572   17574   17575   17576
   17575   17577   17578   17579   17578   17580   17581   17582
   17581   17583   17584   17585   17584   17586   17587   17588
   17587   17589   17590   17591   17590   17592   17593   17594
   17593   17595   17596   17597   17596   17598   17599   17600
   17599   17601   17602   17603   17602   17604   17605   17606
   17605   17607   17608   17609   17608   17610   17611   17612
   17611   17613   17614   17615   17614   17616   17617   17618
   17617   17619   17620   17621   17620   17622   17623   17624
   17623   17625   17626   17627   17626   17628   17629   17630
   17629   17631   17632   17633   17632   17634   17635   17636
   17635   17637   17638   17639   17638   17640   17641   17642
   17641   17643   17644   17645   17644   17646   17647   17648
   17647   17649   17650   17651   17650   17652   17653   17654
   17653   17655   17656   17657   17656   17658   17659   17660
   17659   17661   17662   17663   17662   17664   17665   17666
   17665   17667   17668   17669   17668   17670   17671   17672
   17671   17673   17674   17675   17674   17676   17677   17678
   17677   17679   17680   17681   17680   17682   17683   17684
   17683   17685   17686   17687   17686   17688   17689   17690
   17689   17691   17692   17693   17692   17694   17695   17696
   17695   17697   17698   17699   17698   17700   17701   17702
   17701   17703   17704   17705   17704   17706   17707   17708
   17707   17709   17710   17711   17710   17712   17713   17714
   17713   17715   17716   17717   17716   17718   17719   17720
   17719   17721   17722   17723   17722   17724   17725   17726
   17725   17727   17728   17729   17728   17730   17731   17732
   17731   17733   17734   17735   17734   17736   17737   17738
   17737   17739   17740   17741   17740   17742   17743   17744
   17743   17745   17746   17747   17746   17748   17749   17750
   17749   17751   17752   17753   17752   17754   17755   17756
   17755   17757   17758   17759   17758   17760   17761   17762
   17761   17763   17764   17765   17764   17766   17767   17768
   17767   17769   17770   17771   17770   17772   17773   17774
   17773   17775   17776   17777   17776   17778   17779   17780
   17779   17781   17782   17783   17782   17784   17785   17786
   17785   17787   17788   17789   17788   17790   17791   17792
   17791   17793   17794   17795   17794   17796   17797   17798
   17797   17799   17800   17801   17800   17802   17803   17804
   17803   17805   17806   17807   17806   17808   17809   17810
   17809   17811   17812   17813   17812   17814   17815   17816
   17815   17817   17818   17819   17818   17820   17821   17822
   17821   17823   17824   17825   17824   17826   17827   17828
   17827   17829   17830   17831   17830   17832   17833   17834
   17833   17835   17836   17837   17836   17838   17839   17840
   17839   17841   17842   17843   17842   17844   17845   17846
   17845   17847   17848   17849   17848   17850   17851   17852
   17851   17853   17854   17855   17854   17856   17857   17858
   17857   17859   17860   17861   17860   17862   17863   17864
   17863   17865   17866   17867   17866   17868   17869   17870
   17869   17871   17872   17873   17872   17874   17875   17876
   17875   17877   17878   17879   17878   17880   17881   17882
   17881   17883   17884   17885   17884   17886   17887   17888
   17887   17889   17890   17891   17890   17892   17893   17894
   17893   17895   17896   17897   17896   17898   17899   17900
   17899   17901   17902   17903   17902   17904   17905   17906
   17905   17907   17908   17909   17908   17910   17911   17912
   17911   17913   17914   17915   17914   17916   17917   17918
   17917   17919   17920   17921   17920   17922   17923   17924
   17923   17925   17926   17927   17926   17928   17929   17930
   17929   17931   17932   17933   17932   17934   17935   17936
   17935   17937   17938   17939   17938   17940   17941   17942
   17941   17943   17944   17945   17944   17946   17947   17948
   17947   17949   17950   17951   17950   17952   17953   17954
   17953   17955   17956   17957   17956   17958   17959   17960
   17959   17961   17962   17963   17962   17964   17965   17966
   17965   17967   17968   17969   17968   17970   17971   17972
   17971   17973   17974   17975   17974   17976   17977   17978
   17977   17979   17980   17981   17980   17982   17983   17984
   17983   17985   17986   17987   17986   17988   17989   17990
   17989   17991   17992   17993   17992   17994   17995   17996
   17995   17997   17998   17999   17998   18000   18001   18002
   18001   18003   18004   18005   18004   18006   18007   18008
   18007   18009   18010   18011   18010   18012   18013   18014
   18013   18015   18016   18017   18016   18018   18019   18020
   18019   18021   18022   18023   18022   18024   18025   18026
   18025   18027   18028   18029   18028   18030   18031   18032
   18031   18033   18034   18035   18034   18036   18037   18038
   18037   18039   18040   18041   18040   18042   18043   18044
   18043   18045   18046   18047   18046   18048   18049   18050
   18049   18051   18052   18053   18052   18054   18055   18056
   18055   18057   18058   18059   18058   18060   18061   18062
   18061   18063   18064   18065   18064   18066   18067   18068
   18067   18069   18070   18071   18070   18072   18073   18074
   18073   18075   18076   18077   18076   18078   18079   18080
   18079   18081   18082   18083   18082   18084   18085   18086
   18085   18087   18088   18089   18088   18090   18091   18092
   18091   18093   18094   18095   18094   18096   18097   18098
   18097   18099   18100   18101   18100   18102   18103   18104
   18103   18105   18106   18107   18106   18108   18109   18110
   18109   18111   18112   18113   18112   18114   18115   18116
   18115   18117   18118   18119   18118   18120   18121   18122
   18121   18123   18124   18125   18124   18126   18127   18128
   18127   18129   18130   18131   18130   18132   18133   18134
   18133   18135   18136   18137   18136   18138   18139   18140
   18139   18141   18142   18143   18142   18144   18145   18146
   18145   18147   18148   18149   18148   18150   18151   18152
   18151   18153   18154   18155   18154   18156   18157   18158
   18157   18159   18160   18161   18160   18162   18163   18164
   18163   18165   18166   18167   18166   18168   18169   18170
   18169   18171   18172   18173   18172   18174   18175   18176
   18175   18177   18178   18179   18178   18180   18181   18182
   18181   18183   18184   18185   18184   18186   18187   18188
   18187   18189   18190   18191   18190   18192   18193   18194
   18193   18195   18196   18197   18196   18198   18199   18200
   18199   18201   18202   18203   18202   18204   18205   18206
   18205   18207   18208   18209   18208   18210   18211   18212
   18211   18213   18214   18215   18214   18216   18217   18218
   18217   18219   18220   18221   18220   18222   18223   18224
   18223   18225   18226   18227   18226   18228   18229   18230
   18229   18231   18232   18233   18232   18234   18235   18236
   18235   18237   18238   18239   18238   18240   18241   18242
   18241   18243   18244   18245   18244   18246   18247   18248
   18247   18249   18250   18251   18250   18252   18253   18254
   18253   18255   18256   18257   18256   18258   18259   18260
   18259   18261   18262   18263   18262   18264   18265   18266
   18265   18267   18268   18269   18268   18270   18271   18272
   18271   18273   18274   18275   18274   18276   18277   18278
   18277   18279   18280   18281   18280   18282   18283   18284
   18283   18285   18286   18287   18286   18288   18289   18290
   18289   18291   18292   18293   18292   18294   18295   18296
   18295   18297   18298   18299   18298   18300   18301   18302
   18301   18303   18304   18305   18304   18306   18307   18308
   18307   18309   18310   18311   18310   18312   18313   18314
   18313   18315   18316   18317   18316   18318   18319   18320
   18319   18321   18322   18323   18322   18324   18325   18326
   18325   18327   18328   18329   18328   18330   18331   18332
   18331   18333   18334   18335   18334   18336   18337   18338
   18337   18339   18340   18341   18340   18342   18343   18344
   18343   18345   18346   18347   18346   18348   18349   18350
   18349   18351   18352   18353   18352   18354   18355   18356
   18355   18357   18358   18359   18358   18360   18361   18362
   18361   18363   18364   18365   18364   18366   18367   18368
   18367   18369   18370   18371   18370   18372   18373   18374
   18373   18375   18376   18377   18376   18378   18379   18380
   18379   18381   18382   18383   18382   18384   18385   18386
   18385   18387   18388   18389   18388   18390   18391   18392
   18391   18393   18394   18395   18394   18396   18397   18398
   18397   18399   18400   18401   18400   18402   18403   18404
   18403   18405   18406   18407   18406   18408   18409   18410
   18409   18411   18412   18413   18412   18414   18415   18416
   18415   18417   18418   18419   18418   18420   18421   18422
   18421   18423   18424   18425   18424   18426   18427   18428
   18427   18429   18430   18431   18430   18432   18433   18434
   18433   18435   18436   18437   18436   18438   18439   18440
   18439   18441   18442   18443   18442   18444   18445   18446
   18445   18447   18448   18449   18448   18450   18451   18452
   18451   18453   18454   18455   18454   18456   18457   18458
   18457   18459   18460   18461   18460   18462   18463   18464
   18463   18465   18466   18467   18466   18468   18469   18470
   18469   18471   18472   18473   18472   18474   18475   18476
   18475   18477   18478   18479   18478   18480   18481   18482
   18481   18483   18484   18485   18484   18486   18487   18488
   18487   18489   18490   18491   18490   18492   18493   18494
   18493   18495   18496   18497   18496   18498   18499   18500
   18499   18501   18502   18503   18502   18504   18505   18506
   18505   18507   18508   18509   18508   18510   18511   18512
   18511   18513   18514   18515   18514   18516   18517   18518
   18517   18519   18520   18521   18520   18522   18523   18524
   18523   18525   18526   18527   18526   18528   18529   18530
   18529   18531   18532   18533   18532   18534   18535   18536
   18535   18537   18538   18539   18538   18540   18541   18542
   18541   18543   18544   18545   18544   18546   18547   18548
   18547   18549   18550   18551   18550   18552   18553   18554
   18553   18555   18556   18557   18556   18558   18559   18560
   18559   18561   18562   18563   18562   18564   18565   18566
   18565   18567   18568   18569   18568   18570   18571   18572
   18571   18573   18574   18575   18574   18576   18577   18578
   18577   18579   18580   18581   18580   18582   18583   18584
   18583   18585   18586   18587   18586   18588   18589   18590
   18589   18591   18592   18593   18592   18594   18595   18596
   18595   18597   18598   18599   18598   18600   18601   18602
   18601   18603   18604   18605   18604   18606   18607   18608
   18607   18609   18610   18611   18610   18612   18613   18614
   18613   18615   18616   18617   18616   18618   18619   18620
   18619   18621   18622   18623   18622   18624   18625   18626
   18625   18627   18628   18629   18628   18630   18631   18632
   18631   18633   18634   18635   18634   18636   18637   18638
   18637   18639   18640   18641   18640   18642   18643   18644
   18643   18645   18646   18647   18646   18648   18649   18650
   18649   18651   18652   18653   18652   18654   18655   18656
   18655   18657   18658   18659   18658   18660   18661   18662
   18661   18663   18664   18665   18664   18666   18667   18668
   18667   18669   18670   18671   18670   18672   18673   18674
   18673   18675   18676   18677   18676   18678   18679   18680
   18679   18681   18682   18683   18682   18684   18685   18686
   18685   18687   18688   18689   18688   18690   18691   18692
   18691   18693   18694   18695   18694   18696   18697   18698
   18697   18699   18700   18701   18700   18702   18703   18704
   18703   18705   18706   18707   18706   18708   18709   18710
   18709   18711   18712   18713   18712   18714   18715   18716
   18715   18717   18718   18719   18718   18720   18721   18722
   18721   18723   18724   18725   18724   18726   18727   18728
   18727   18729   18730   18731   18730   18732   18733   18734
   18733   18735   18736   18737   18736   18738   18739   18740
   18739   18741   18742   18743   18742   18744   18745   18746
   18745   18747   18748   18749   18748   18750   18751   18752
   18751   18753   18754   18755   18754   18756   18757   18758
   18757   18759   18760   18761   18760   18762   18763   18764
   18763   18765   18766   18767   18766   18768   18769   18770
   18769   18771   18772   18773   18772   18774   18775   18776
   18775   18777   18778   18779   18778   18780   18781   18782
   18781   18783   18784   18785   18784   18786   18787   18788
   18787   18789   18790   18791   18790   18792   18793   18794
   18793   18795   18796   18797   18796   18798   18799   18800
   18799   18801   18802   18803   18802   18804   18805   18806
   18805   18807   18808   18809   18808   18810   18811   18812
   18811   18813   18814   18815   18814   18816   18817   18818
   18817   18819   18820   18821   18820   18822   18823   18824
   18823   18825   18826   18827   18826   18828   18829   18830
   18829   18831   18832   18833   18832   18834   18835   18836
   18835   18837   18838   18839   18838   18840   18841   18842
   18841   18843   18844   18845   18844   18846   18847   18848
   18847   18849   18850   18851   18850   18852   18853   18854
   18853   18855   18856   18857   18856   18858   18859   18860
   18859   18861   18862   18863   18862   18864   18865   18866
   18865   18867   18868   18869   18868   18870   18871   18872
   18871   18873   18874   18875   18874   18876   18877   18878
   18877   18879   18880   18881   18880   18882   18883   18884
   18883   18885   18886   18887   18886   18888   18889   18890
   18889   18891   18892   18893   18892   18894   18895   18896
   18895   18897   18898   18899   18898   18900   18901   18902
   18901   18903   18904   18905   18904   18906   18907   18908
   18907   18909   18910   18911   18910   18912   18913   18914
   18913   18915   18916   18917   18916   18918   18919   18920
   18919   18921   18922   18923   18922   18924   18925   18926
   18925   18927   18928   18929   18928   18930   18931   18932
   18931   18933   18934   18935   18934   18936   18937   18938
   18937   18939   18940   18941   18940   18942   18943   18944
   18943   18945   18946   18947   18946   18948   18949   18950
   18949   18951   18952   18953   18952   18954   18955   18956
   18955   18957   18958   18959   18958   18960   18961   18962
   18961   18963   18964   18965   18964   18966   18967   18968
   18967   18969   18970   18971   18970   18972   18973   18974
   18973   18975   18976   18977   18976   18978   18979   18980
   18979   18981   18982   18983   18982   18984   18985   18986
   18985   18987   18988   18989   18988   18990   18991   18992
   18991   18993   18994   18995   18994   18996   18997   18998
   18997   18999   19000   19001   19000   19002   19003   19004
   19003   19005   19006   19007   19006   19008   19009   19010
   19009   19011   19012   19013   19012   19014   19015   19016
   19015   19017   19018   19019   19018   19020   19021   19022
   19021   19023   19024   19025   19024   19026   19027   19028
   19027   19029   19030   19031   19030   19032   19033   19034
   19033   19035   19036   19037   19036   19038   19039   19040
   19039   19041   19042   19043   19042   19044   19045   19046
   19045   19047   19048   19049   19048   19050   19051   19052
   19051   19053   19054   19055   19054   19056   19057   19058
   19057   19059   19060   19061   19060   19062   19063   19064
   19063   19065   19066   19067   19066   19068   19069   19070
   19069   19071   19072   19073   19072   19074   19075   19076
   19075   19077   19078   19079   19078   19080   19081   19082
   19081   19083   19084   19085   19084   19086   19087   19088
   19087   19089   19090   19091   19090   19092   19093   19094
   19093   19095   19096   19097   19096   19098   19099   19100
   19099   19101   19102   19103   19102   19104   19105   19106
   19105   19107   19108   19109   19108   19110   19111   19112
   19111   19113   19114   19115   19114   19116   19117   19118
   19117   19119   19120   19121   19120   19122   19123   19124
   19123   19125   19126   19127   19126   19128   19129   19130
   19129   19131   19132   19133   19132   19134   19135   19136
   19135   19137   19138   19139   19138   19140   19141   19142
   19141   19143   19144   19145   19144   19146   19147   19148
   19147   19149   19150   19151   19150   19152   19153   19154
   19153   19155   19156   19157   19156   19158   19159   19160
   19159   19161   19162   19163   19162   19164   19165   19166
   19165   19167   19168   19169   19168   19170   19171   19172
   19171   19173   19174   19175   19174   19176   19177   19178
   19177   19179   19180   19181   19180   19182   19183   19184
   19183   19185   19186   19187   19186   19188   19189   19190
   19189   19191   19192   19193   19192   19194   19195   19196
   19195   19197   19198   19199   19198   19200   19201   19202
   19201   19203   19204   19205   19204   19206   19207   19208
   19207   19209   19210   19211   19210   19212   19213   19214
   19213   19215   19216   19217   19216   19218   19219   19220
   19219   19221   19222   19223   19222   19224   19225   19226
   19225   19227   19228   19229   19228   19230   19231   19232
   19231   19233   19234   19235   19234   19236   19237   19238
   19237   19239   19240   19241   19240   19242   19243   19244
   19243   19245   19246   19247   19246   19248   19249   19250
   19249   19251   19252   19253   19252   19254   19255   19256
   19255   19257   19258   19259   19258   19260   19261   19262
   19261   19263   19264   19265   19264   19266   19267   19268
   19267   19269   19270   19271   19270   19272   19273   19274
   19273   19275   19276   19277   19276   19278   19279   19280
   19279   19281   19282   19283   19282   19284   19285   19286
   19285   19287   19288   19289   19288   19290   19291   19292
   19291   19293   19294   19295   19294   19296   19297   19298
   19297   19299   19300   19301   19300   19302   19303   19304
   19303   19305   19306   19307   19306   19308   19309   19310
   19309   19311   19312   19313   19312   19314   19315   19316
   19315   19317   19318   19319   19318   19320   19321   19322
   19321   19323   19324   19325   19324   19326   19327   19328
   19327   19329   19330   19331   19330   19332   19333   19334
   19333   19335   19336   19337   19336   19338   19339   19340
   19339   19341   19342   19343   19342   19344   19345   19346
   19345   19347   19348   19349   19348   19350   19351   19352
   19351   19353   19354   19355   19354   19356   19357   19358
   19357   19359   19360   19361   19360   19362   19363   19364
   19363   19365   19366   19367   19366   19368   19369   19370
   19369   19371   19372   19373   19372   19374   19375   19376
   19375   19377   19378   19379   19378   19380   19381   19382
   19381   19383   19384   19385   19384   19386   19387   19388
   19387   19389   19390   19391   19390   19392   19393   19394
   19393   19395   19396   19397   19396   19398   19399   19400
   19399   19401   19402   19403   19402   19404   19405   19406
   19405   19407   19408   19409   19408   19410   19411   19412
   19411   19413   19414   19415   19414   19416   19417   19418
   19417   19419   19420   19421   19420   19422   19423   19424
   19423   19425   19426   19427   19426   19428   19429   19430
   19429   19431   19432   19433   19432   19434   19435   19436
   19435   19437   19438   19439   19438   19440   19441   19442
   19441   19443   19444   19445   19444   19446   19447   19448
   19447   19449   19450   19451   19450   19452   19453   19454
   19453   19455   19456   19457   19456   19458   19459   19460
   19459   19461   19462   19463   19462   19464   19465   19466
   19465   19467   19468   19469   19468   19470   19471   19472
   19471   19473   19474   19475   19474   19476   19477   19478
   19477   19479   19480   19481   19480   19482   19483   19484
   19483   19485   19486   19487   19486   19488   19489   19490
   19489   19491   19492   19493   19492   19494   19495   19496
   19495   19497   19498   19499   19498   19500   19501   19502
   19501   19503   19504   19505   19504   19506   19507   19508
   19507   19509   19510   19511   19510   19512   19513   19514
   19513   19515   19516   19517   19516   19518   19519   19520
   19519   19521   19522   19523   19522   19524   19525   19526
   19525   19527   19528   19529   19528   19530   19531   19532
   19531   19533   19534   19535   19534   19536   19537   19538
   19537   19539   19540   19541   19540   19542   19543   19544
   19543   19545   19546   19547   19546   19548   19549   19550
   19549   19551   19552   19553   19552   19554   19555   19556
   19555   19557   19558   19559   19558   19560   19561   19562
   19561   19563   19564   19565   19564   19566   19567   19568
   19567   19569   19570   19571   19570   19572   19573   19574
   19573   19575   19576   19577   19576   19578   19579   19580
   19579   19581   19582   19583   19582   19584   19585   19586
   19585   19587   19588   19589   19588   19590   19591   19592
   19591   19593   19594   19595   19594   19596   19597   19598
   19597   19599   19600   19601   19600   19602   19603   19604
   19603   19605   19606   19607   19606   19608   19609   19610
   19609   19611   19612   19613   19612   19614   19615   19616
   19615   19617   19618   19619   19618   19620   19621   19622
   19621   19623   19624   19625   19624   19626   19627   19628
   19627   19629   19630   19631   19630   19632   19633   19634
   19633   19635   19636   19637   19636   19638   19639   19640
   19639   19641   19642   19643   19642   19644   19645   19646
   19645   19647   19648   19649   19648   19650   19651   19652
   19651   19653   19654   19655   19654   19656   19657   19658
   19657   19659   19660   19661   19660   19662   19663   19664
   19663   19665   19666   19667   19666   19668   19669   19670
   19669   19671   19672   19673   19672   19674   19675   19676
   19675   19677   19678   19679   19678   19680   19681   19682
   19681   19683   19684   19685   19684   19686   19687   19688
   19687   19689   19690   19691   19690   19692   19693   19694
   19693   19695   19696   19697   19696   19698   19699   19700
   19699   19701   19702   19703   19702   19704   19705   19706
   19705   19707   19708   19709   19708   19710   19711   19712
   19711   19713   19714   19715   19714   19716   19717   19718
   19717   19719   19720   19721   19720   19722   19723   19724
   19723   19725   19726   19727   19726   19728   19729   19730
   19729   19731   19732   19733   19732   19734   19735   19736
   19735   19737   19738   19739   19738   19740   19741   19742
   19741   19743   19744   19745   19744   19746   19747   19748
   19747   19749   19750   19751   19750   19752   19753   19754
   19753   19755   19756   19757   19756   19758   19759   19760
   19759   19761   19762   19763   19762   19764   19765   19766
   19765   19767   19768   19769   19768   19770   19771   19772
   19771   19773   19774   19775   19774   19776   19777   19778
   19777   19779   19780   19781   19780   19782   19783   19784
   19783   19785   19786   19787   19786   19788   19789   19790
   19789   19791   19792   19793   19792   19794   19795   19796
   19795   19797   19798   19799   19798   19800   19801   19802
   19801   19803   19804   19805   19804   19806   19807   19808
   19807   19809   19810   19811   19810   19812   19813   19814
   19813   19815   19816   19817   19816   19818   19819   19820
   19819   19821   19822   19823   19822   19824   19825   19826
   19825   19827   19828   19829   19828   19830   19831   19832
   19831   19833   19834   19835   19834   19836   19837   19838
   19837   19839   19840   19841   19840   19842   19843   19844
   19843   19845   19846   19847   19846   19848   19849   19850
   19849   19851   19852   19853   19852   19854   19855   19856
   19855   19857   19858   19859   19858   19860   19861   19862
   19861   19863   19864   19865   19864   19866   19867   19868
   19867   19869   19870   19871   19870   19872   19873   19874
   19873   19875   19876   19877   19876   19878   19879   19880
   19879   19881   19882   19883   19882   19884   19885   19886
   19885   19887   19888   19889   19888   19890   19891   19892
   19891   19893   19894   19895   19894   19896   19897   19898
   19897   19899   19900   19901   19900   19902   19903   19904
   19903   19905   19906   19907   19906   19908   19909   19910
   19909   19911   19912   19913   19912   19914   19915   19916
   19915   19917   19918   19919   19918   19920   19921   19922
   19921   19923   19924   19925   19924   19926   19927   19928
   19927   19929   19930   19931   19930   19932   19933   19934
   19933   19935   19936   19937   19936   19938   19939   19940
   19939   19941   19942   19943   19942   19944   19945   19946
   19945   19947   19948   19949   19948   19950   19951   19952
   19951   19953   19954   19955   19954   19956   19957   19958
   19957   19959   19960   19961   19960   19962   19963   19964
   19963   19965   19966   19967   19966   19968   19969   19970
   19969   19971   19972   19973   19972   19974   19975   19976
   19975   19977   19978   19979   19978   19980   19981   19982
   19981   19983   19984   19985   19984   19986   19987   19988
   19987   19989   19990   19991   19990   19992   19993   19994
   19993   19995   19996   19997   19996   19998   19999   20000
   19999   20001   20002   20003   20002   20004   20005   20006
   20005   20007   20008   20009   20008   20010   20011   20012
   20011   20013   20014   20015   20014   20016   20017   20018
   20017   20019   20020   20021   20020   20022   20023   20024
   20023   20025   20026   20027   20026   20028   20029   20030
   20029   20031   20032   20033   20032   20034   20035   20036
   20035   20037   20038   20039   20038   20040   20041   20042
   20041   20043   20044   20045   20044   20046   20047   20048
   20047   20049   20050   20051   20050   20052   20053   20054
   20053   20055   20056   20057   20056   20058   20059   20060
   20059   20061   20062   20063   20062   20064   20065   20066
   20065   20067   20068   20069   20068   20070   20071   20072
   20071   20073   20074   20075   20074   20076   20077   20078
   20077   20079   20080   20081   20080   20082   20083   20084
   20083   20085   20086   20087   20086   20088   20089   20090
   20089   20091   20092   20093   20092   20094   20095   20096
   20095   20097   20098   20099   20098   20100   20101   20102
   20101   20103   20104   20105   20104   20106   20107   20108
   20107   20109   20110   20111   20110   20112   20113   20114
   20113   20115   20116   20117   20116   20118   20119   20120
   20119   20121   20122   20123   20122   20124   20125   20126
   20125   20127   20128   20129   20128   20130   20131   20132
   20131   20133   20134   20135   20134   20136   20137   20138
   20137   20139   20140   20141   20140   20142   20143   20144
   20143   20145   20146   20147   20146   20148   20149   20150
   20149   20151   20152   20153   20152   20154   20155   20156
   20155   20157   20158   20159   20158   20160   20161   20162
   20161   20163   20164   20165   20164   20166   20167   20168
   20167   20169   20170   20171   20170   20172   20173   20174
   20173   20175   20176   20177   20176   20178   20179   20180
   20179   20181   20182   20183   20182   20184   20185   20186
   20185   20187   20188   20189   20188   20190   20191   20192
   20191   20193   20194   20195   20194   20196   20197   20198
   20197   20199   20200   20201   20200   20202   20203   20204
   20203   20205   20206   20207   20206   20208   20209   20210
   20209   20211   20212   20213   20212   20214   20215   20216
   20215   20217   20218   20219   20218   20220   20221   20222
   20221   20223   20224   20225   20224   20226   20227   20228
   20227   20229   20230   20231   20230   20232   20233   20234
   20233   20235   20236   20237   20236   20238   20239   20240
   20239   20241   20242   20243   20242   20244   20245   20246
   20245   20247   20248   20249   20248   20250   20251   20252
   20251   20253   20254   20255   20254   20256   20257   20258
   20257   20259   20260   20261   20260   20262   20263   20264
   20263   20265   20266   20267   20266   20268   20269   20270
   20269   20271   20272   20273   20272   20274   20275   20276
   20275   20277   20278   20279   20278   20280   20281   20282
   20281   20283   20284   20285   20284   20286   20287   20288
   20287   20289   20290   20291   20290   20292   20293   20294
   20293   20295   20296   20297   20296   20298   20299   20300
   20299   20301   20302   20303   20302   20304   20305   20306
   20305   20307   20308   20309   20308   20310   20311   20312
   20311   20313   20314   20315   20314   20316   20317   20318
   20317   20319   20320   20321   20320   20322   20323   20324
   20323   20325   20326   20327   20326   20328   20329   20330
   20329   20331   20332   20333   20332   20334   20335   20336
   20335   20337   20338   20339   20338   20340   20341   20342
   20341   20343   20344   20345   20344   20346   20347   20348
   20347   20349   20350   20351   20350   20352   20353   20354
   20353   20355   20356   20357   20356   20358   20359   20360
   20359   20361   20362   20363   20362   20364   20365   20366
   20365   20367   20368   20369   20368   20370   20371   20372
   20371   20373   20374   20375   20374   20376   20377   20378
   20377   20379   20380   20381   20380   20382   20383   20384
   20383   20385   20386   20387   20386   20388   20389   20390
   20389   20391   20392   20393   20392   20394   20395   20396
   20395   20397   20398   20399   20398   20400   20401   20402
   20401   20403   20404   20405   20404   20406   20407   20408
   20407   20409   20410   20411   20410   20412   20413   20414
   20413   20415   20416   20417   20416   20418   20419   20420
   20419   20421   20422   20423   20422   20424   20425   20426
   20425   20427   20428   20429   20428   20430   20431   20432
   20431   20433   20434   20435   20434   20436   20437   20438
   20437   20439   20440   20441   20440   20442   20443   20444
   20443   20445   20446   20447   20446   20448   20449   20450
   20449   20451   20452   20453   20452   20454   20455   20456
   20455   20457   20458   20459   20458   20460   20461   20462
   20461   20463   20464   20465   20464   20466   20467   20468
   20467   20469   20470   20471   20470   20472   20473   20474
   20473   20475   20476   20477   20476   20478   20479   20480
   20479   20481   20482   20483   20482   20484   20485   20486
   20485   20487   20488   20489   20488   20490   20491   20492
   20491   20493   20494   20495   20494   20496   20497   20498
   20497   20499   20500   20501   20500   20502   20503   20504
   20503   20505   20506   20507   20506   20508   20509   20510
   20509   20511   20512   20513   20512   20514   20515   20516
   20515   20517   20518   20519   20518   20520   20521   20522
   20521   20523   20524   20525   20524   20526   20527   20528
   20527   20529   20530   20531   20530   20532   20533   20534
   20533   20535   20536   20537   20536   20538   20539   20540
   20539   20541   20542   20543   20542   20544   20545   20546
   20545   20547   20548   20549   20548   20550   20551   20552
   20551   20553   20554   20555   20554   20556   20557   20558
   20557   20559   20560   20561   20560   20562   20563   20564
   20563   20565   20566   20567   20566   20568   20569   20570
   20569   20571   20572   20573   20572   20574   20575   20576
   20575   20577   20578   20579   20578   20580   20581   20582
   20581   20583   20584   20585   20584   20586   20587   20588
   20587   20589   20590   20591   20590   20592   20593   20594
   20593   20595   20596   20597   20596   20598   20599   20600
   20599   20601   20602   20603   20602   20604   20605   20606
   20605   20607   20608   20609   20608   20610   20611   20612
   20611   20613   20614   20615   20614   20616   20617   20618
   20617   20619   20620   20621   20620   20622   20623   20624
   20623   20625   20626   20627   20626   20628   20629   20630
   20629   20631   20632   20633   20632   20634   20635   20636
   20635   20637   20638   20639   20638   20640   20641   20642
   20641   20643   20644   20645   20644   20646   20647   20648
   20647   20649   20650   20651   20650   20652   20653   20654
   20653   20655   20656   20657   20656   20658   20659   20660
   20659   20661   20662   20663   20662   20664   20665   20666
   20665   20667   20668   20669   20668   20670   20671   20672
   20671   20673   20674   20675   20674   20676   20677   20678
   20677   20679   20680   20681   20680   20682   20683   20684
   20683   20685   20686   20687   20686   20688   20689   20690
   20689   20691   20692   20693   20692   20694   20695   20696
   20695   20697   20698   20699   20698   20700   20701   20702
   20701   20703   20704   20705   20704   20706   20707   20708
   20707   20709   20710   20711   20710   20712   20713   20714
   20713   20715   20716   20717   20716   20718   20719   20720
   20719   20721   20722   20723   20722   20724   20725   20726
   20725   20727   20728   20729   20728   20730   20731   20732
   20731   20733   20734   20735   20734   20736   20737   20738
   20737   20739   20740   20741   20740   20742   20743   20744
   20743   20745   20746   20747   20746   20748   20749   20750
   20749   20751   20752   20753   20752   20754   20755   20756
   20755   20757   20758   20759   20758   20760   20761   20762
   20761   20763   20764   20765   20764   20766   20767   20768
   20767   20769   20770   20771   20770   20772   20773   20774
   20773   20775   20776   20777   20776   20778   20779   20780
   20779   20781   20782   20783   20782   20784   20785   20786
   20785   20787   20788   20789   20788   20790   20791   20792
   20791   20793   20794   20795   20794   20796   20797   20798
   20797   20799   20800   20801   20800   20802   20803   20804
   20803   20805   20806   20807   20806   20808   20809   20810
   20809   20811   20812   20813   20812   20814   20815   20816
   20815   20817   20818   20819   20818   20820   20821   20822
   20821   20823   20824   20825   20824   20826   20827   20828
   20827   20829   20830   20831   20830   20832   20833   20834
   20833   20835   20836   20837   20836   20838   20839   20840
   20839   20841   20842   20843   20842   20844   20845   20846
   20845   20847   20848   20849   20848   20850   20851   20852
   20851   20853   20854   20855   20854   20856   20857   20858
   20857   20859   20860   20861   20860   20862   20863   20864
   20863   20865   20866   20867   20866   20868   20869   20870
   20869   20871   20872   20873   20872   20874   20875   20876
   20875   20877   20878   20879   20878   20880   20881   20882
   20881   20883   20884   20885   20884   20886   20887   20888
   20887   20889   20890   20891   20890   20892   20893   20894
   20893   20895   20896   20897   20896   20898   20899   20900
   20899   20901   20902   20903   20902   20904   20905   20906
   20905   20907   20908   20909   20908   20910   20911   20912
   20911   20913   20914   20915   20914   20916   20917   20918
   20917   20919   20920   20921   20920   20922   20923   20924
   20923   20925   20926   20927   20926   20928   20929   20930
   20929   20931   20932   20933   20932   20934   20935   20936
   20935   20937   20938   20939   20938   20940   20941   20942
   20941   20943   20944   20945   20944   20946   20947   20948
   20947   20949   20950   20951   20950   20952   20953   20954
   20953   20955   20956   20957   20956   20958   20959   20960
   20959   20961   20962   20963   20962   20964   20965   20966
   20965   20967   20968   20969   20968   20970   20971   20972
   20971   20973   20974   20975   20974   20976   20977   20978
   20977   20979   20980   20981   20980   20982   20983   20984
   20983   20985   20986   20987   20986   20988   20989   20990
   20989   20991   20992   20993   20992   20994   20995   20996
   20995   20997   20998   20999   20998   21000   21001   21002
   21001   21003   21004   21005   21004   21006   21007   21008
   21007   21009   21010   21011   21010   21012   21013   21014
   21013   21015   21016   21017   21016   21018   21019   21020
   21019   21021   21022   21023   21022   21024   21025   21026
   21025   21027   21028   21029   21028   21030   21031   21032
   21031   21033   21034   21035   21034   21036   21037   21038
   21037   21039   21040   21041   21040   21042   21043   21044
   21043   21045   21046   21047   21046   21048   21049   21050
   21049   21051   21052   21053   21052   21054   21055   21056
   21055   21057   21058   21059   21058   21060   21061   21062
   21061   21063   21064   21065   21064   21066   21067   21068
   21067   21069   21070   21071   21070   21072   21073   21074
   21073   21075   21076   21077   21076   21078   21079   21080
   21079   21081   21082   21083   21082   21084   21085   21086
   21085   21087   21088   21089   21088   21090   21091   21092
   21091   21093   21094   21095   21094   21096   21097   21098
   21097   21099   21100   21101   21100   21102   21103   21104
   21103   21105   21106   21107   21106   21108   21109   21110
   21109   21111   21112   21113   21112   21114   21115   21116
   21115   21117   21118   21119   21118   21120   21121   21122
   21121   21123   21124   21125   21124   21126   21127   21128
   21127   21129   21130   21131   21130   21132   21133   21134
   21133   21135   21136   21137   21136   21138   21139   21140
   21139   21141   21142   21143   21142   21144   21145   21146
   21145   21147   21148   21149   21148   21150   21151   21152
   21151   21153   21154   21155   21154   21156   21157   21158
   21157   21159   21160   21161   21160   21162   21163   21164
   21163   21165   21166   21167   21166   21168   21169   21170
   21169   21171   21172   21173   21172   21174   21175   21176
   21175   21177   21178   21179   21178   21180   21181   21182
   21181   21183   21184   21185   21184   21186   21187   21188
   21187   21189   21190   21191   21190   21192   21193   21194
   21193   21195   21196   21197   21196   21198   21199   21200
   21199   21201   21202   21203   21202   21204   21205   21206
   21205   21207   21208   21209   21208   21210   21211   21212
   21211   21213   21214   21215   21214   21216   21217   21218
   21217   21219   21220   21221   21220   21222   21223   21224
   21223   21225   21226   21227   21226   21228   21229   21230
   21229   21231   21232   21233   21232   21234   21235   21236
   21235   21237   21238   21239   21238   21240   21241   21242
   21241   21243   21244   21245   21244   21246   21247   21248
   21247   21249   21250   21251   21250   21252   21253   21254
   21253   21255   21256   21257   21256   21258   21259   21260
   21259   21261   21262   21263   21262   21264   21265   21266
   21265   21267   21268   21269   21268   21270   21271   21272
   21271   21273   21274   21275   21274   21276   21277   21278
   21277   21279   21280   21281   21280   21282   21283   21284
   21283   21285   21286   21287   21286   21288   21289   21290
   21289   21291   21292   21293   21292   21294   21295   21296
   21295   21297   21298   21299   21298   21300   21301   21302
   21301   21303   21304   21305   21304   21306   21307   21308
   21307   21309   21310   21311   21310   21312   21313   21314
   21313   21315   21316   21317   21316   21318   21319   21320
   21319   21321   21322   21323   21322   21324   21325   21326
   21325   21327   21328   21329   21328   21330   21331   21332
   21331   21333   21334   21335   21334   21336   21337   21338
   21337   21339   21340   21341   21340   21342   21343   21344
   21343   21345   21346   21347   21346   21348   21349   21350
   21349   21351   21352   21353   21352   21354   21355   21356
   21355   21357   21358   21359   21358   21360   21361   21362
   21361   21363   21364   21365   21364   21366   21367   21368
   21367   21369   21370   21371   21370   21372   21373   21374
   21373   21375   21376   21377   21376   21378   21379   21380
   21379   21381   21382   21383   21382   21384   21385   21386
   21385   21387   21388   21389   21388   21390   21391   21392
   21391   21393   21394   21395   21394   21396   21397   21398
   21397   21399   21400   21401   21400   21402   21403   21404
   21403   21405   21406   21407   21406   21408   21409   21410
   21409   21411   21412   21413   21412   21414   21415   21416
   21415   21417   21418   21419   21418   21420   21421   21422
   21421   21423   21424   21425   21424   21426   21427   21428
   21427   21429   21430   21431   21430   21432   21433   21434
   21433   21435   21436   21437   21436   21438   21439   21440
   21439   21441   21442   21443   21442   21444   21445   21446
   21445   21447   21448   21449   21448   21450   21451   21452
   21451   21453   21454   21455   21454   21456   21457   21458
   21457   21459   21460   21461   21460   21462   21463   21464
   21463   21465   21466   21467   21466   21468   21469   21470
   21469   21471   21472   21473   21472   21474   21475   21476
   21475   21477   21478   21479   21478   21480   21481   21482
   21481   21483   21484   21485   21484   21486   21487   21488
   21487   21489   21490   21491   21490   21492   21493   21494
   21493   21495   21496   21497   21496   21498   21499   21500
   21499   21501   21502   21503   21502   21504   21505   21506
   21505   21507   21508   21509   21508   21510   21511   21512
   21511   21513   21514   21515   21514   21516   21517   21518
   21517   21519   21520   21521   21520   21522   21523   21524
   21523   21525   21526   21527   21526   21528   21529   21530
   21529   21531   21532   21533   21532   21534   21535   21536
   21535   21537   21538   21539   21538   21540   21541   21542
   21541   21543   21544   21545   21544   21546   21547   21548
   21547   21549   21550   21551   21550   21552   21553   21554
   21553   21555   21556   21557   21556   21558   21559   21560
   21559   21561   21562   21563   21562   21564   21565   21566
   21565   21567   21568   21569   21568   21570   21571   21572
   21571   21573   21574   21575   21574   21576   21577   21578
   21577   21579   21580   21581   21580   21582   21583   21584
   21583   21585   21586   21587   21586   21588   21589   21590
   21589   21591   21592   21593   21592   21594   21595   21596
   21595   21597   21598   21599   21598   21600   21601   21602
   21601   21603   21604   21605   21604   21606   21607   21608
   21607   21609   21610   21611   21610   21612   21613   21614
   21613   21615   21616   21617   21616   21618   21619   21620
   21619   21621   21622   21623   21622   21624   21625   21626
   21625   21627   21628   21629   21628   21630   21631   21632
   21631   21633   21634   21635   21634   21636   21637   21638
   21637   21639   21640   21641   21640   21642   21643   21644
   21643   21645   21646   21647   21646   21648   21649   21650
   21649   21651   21652   21653   21652   21654   21655   21656
   21655   21657   21658   21659   21658   21660   21661   21662
   21661   21663   21664   21665   21664   21666   21667   21668
   21667   21669   21670   21671   21670   21672   21673   21674
   21673   21675   21676   21677   21676   21678   21679   21680
   21679   21681   21682   21683   21682   21684   21685   21686
   21685   21687   21688   21689   21688   21690   21691   21692
   21691   21693   21694   21695   21694   21696   21697   21698
   21697   21699   21700   21701   21700   21702   21703   21704
   21703   21705   21706   21707   21706   21708   21709   21710
   21709   21711   21712   21713   21712   21714   21715   21716
   21715   21717   21718   21719   21718   21720   21721   21722
   21721   21723   21724   21725   21724   21726   21727   21728
   21727   21729   21730   21731   21730   21732   21733   21734
   21733   21735   21736   21737   21736   21738   21739   21740
   21739   21741   21742   21743   21742   21744   21745   21746
   21745   21747   21748   21749   21748   21750   21751   21752
   21751   21753   21754   21755   21754   21756   21757   21758
   21757   21759   21760   21761   21760   21762   21763   21764
   21763   21765   21766   21767   21766   21768   21769   21770
   21769   21771   21772   21773   21772   21774   21775   21776
   21775   21777   21778   21779   21778   21780   21781   21782
   21781   21783   21784   21785   21784   21786   21787   21788
   21787   21789   21790   21791   21790   21792   21793   21794
   21793   21795   21796   21797   21796   21798   21799   21800
   21799   21801   21802   21803   21802   21804   21805   21806
   21805   21807   21808   21809   21808   21810   21811   21812
   21811   21813   21814   21815   21814   21816   21817   21818
   21817   21819   21820   21821   21820   21822   21823   21824
   21823   21825   21826   21827   21826   21828   21829   21830
   21829   21831   21832   21833   21832   21834   21835   21836
   21835   21837   21838   21839   21838   21840   21841   21842
   21841   21843   21844   21845   21844   21846   21847   21848
   21847   21849   21850   21851   21850   21852   21853   21854
   21853   21855   21856   21857   21856   21858   21859   21860
   21859   21861   21862   21863   21862   21864   21865   21866
   21865   21867   21868   21869   21868   21870   21871   21872
   21871   21873   21874   21875   21874   21876   21877   21878
   21877   21879   21880   21881   21880   21882   21883   21884
   21883   21885   21886   21887   21886   21888   21889   21890
   21889   21891   21892   21893   21892   21894   21895   21896
   21895   21897   21898   21899   21898   21900   21901   21902
   21901   21903   21904   21905   21904   21906   21907   21908
   21907   21909   21910   21911   21910   21912   21913   21914
   21913   21915   21916   21917   21916   21918   21919   21920
   21919   21921   21922   21923   21922   21924   21925   21926
   21925   21927   21928   21929   21928   21930   21931   21932
   21931   21933   21934   21935   21934   21936   21937   21938
   21937   21939   21940   21941   21940   21942   21943   21944
   21943   21945   21946   21947   21946   21948   21949   21950
   21949   21951   21952   21953   21952   21954   21955   21956
   21955   21957   21958   21959   21958   21960   21961   21962
   21961   21963   21964   21965   21964   21966   21967   21968
   21967   21969   21970   21971   21970   21972   21973   21974
   21973   21975   21976   21977   21976   21978   21979   21980
   21979   21981   21982   21983   21982   21984   21985   21986
   21985   21987   21988   21989   21988   21990   21991   21992
   21991   21993   21994   21995   21994   21996   21997   21998
   21997   21999   22000   22001   22000   22002   22003   22004
   22003   22005   22006   22007   22006   22008   22009   22010
   22009   22011   22012   22013   22012   22014   22015   22016
   22015   22017   22018   22019   22018   22020   22021   22022
   22021   22023   22024   22025   22024   22026   22027   22028
   22027   22029   22030   22031   22030   22032   22033   22034
   22033   22035   22036   22037   22036   22038   22039   22040
   22039   22041   22042   22043   22042   22044   22045   22046
   22045   22047   22048   22049   22048   22050   22051   22052
   22051   22053   22054   22055   22054   22056   22057   22058
   22057   22059   22060   22061   22060   22062   22063   22064
   22063   22065   22066   22067   22066   22068   22069   22070
   22069   22071   22072   22073   22072   22074   22075   22076
   22075   22077   22078   22079   22078   22080   22081   22082
   22081   22083   22084   22085   22084   22086   22087   22088
   22087   22089   22090   22091   22090   22092   22093   22094
   22093   22095   22096   22097   22096   22098   22099   22100
   22099   22101   22102   22103   22102   22104   22105   22106
   22105   22107   22108   22109   22108   22110   22111   22112
   22111   22113   22114   22115   22114   22116   22117   22118
   22117   22119   22120   22121   22120   22122   22123   22124
   22123   22125   22126   22127   22126   22128   22129   22130
   22129   22131   22132   22133   22132   22134   22135   22136
   22135   22137   22138   22139   22138   22140   22141   22142
   22141   22143   22144   22145   22144   22146   22147   22148
   22147   22149   22150   22151   22150   22152   22153   22154
   22153   22155   22156   22157   22156   22158   22159   22160
   22159   22161   22162   22163   22162   22164   22165   22166
   22165   22167   22168   22169   22168   22170   22171   22172
   22171   22173   22174   22175   22174   22176   22177   22178
   22177   22179   22180   22181   22180   22182   22183   22184
   22183   22185   22186   22187   22186   22188   22189   22190
   22189   22191   22192   22193   22192   22194   22195   22196
   22195   22197   22198   22199   22198   22200   22201   22202
   22201   22203   22204   22205   22204   22206   22207   22208
   22207   22209   22210   22211   22210   22212   22213   22214
   22213   22215   22216   22217   22216   22218   22219   22220
   22219   22221   22222   22223   22222   22224   22225   22226
   22225   22227   22228   22229   22228   22230   22231   22232
   22231   22233   22234   22235   22234   22236   22237   22238
   22237   22239   22240   22241   22240   22242   22243   22244
   22243   22245   22246   22247   22246   22248   22249   22250
   22249   22251   22252   22253   22252   22254   22255   22256
   22255   22257   22258   22259   22258   22260   22261   22262
   22261   22263   22264   22265   22264   22266   22267   22268
   22267   22269   22270   22271   22270   22272   22273   22274
   22273   22275   22276   22277   22276   22278   22279   22280
   22279   22281   22282   22283   22282   22284   22285   22286
   22285   22287   22288   22289   22288   22290   22291   22292
   22291   22293   22294   22295   22294   22296   22297   22298
   22297   22299   22300   22301   22300   22302   22303   22304
   22303   22305   22306   22307   22306   22308   22309   22310
   22309   22311   22312   22313   22312   22314   22315   22316
   22315   22317   22318   22319   22318   22320   22321   22322
   22321   22323   22324   22325   22324   22326   22327   22328
   22327   22329   22330   22331   22330   22332   22333   22334
   22333   22335   22336   22337   22336   22338   22339   22340
   22339   22341   22342   22343   22342   22344   22345   22346
   22345   22347   22348   22349   22348   22350   22351   22352
   22351   22353   22354   22355   22354   22356   22357   22358
   22357   22359   22360   22361   22360   22362   22363   22364
   22363   22365   22366   22367   22366   22368   22369   22370
   22369   22371   22372   22373   22372   22374   22375   22376
   22375   22377   22378   22379   22378   22380   22381   22382
   22381   22383   22384   22385   22384   22386   22387   22388
   22387   22389   22390   22391   22390   22392   22393   22394
   22393   22395   22396   22397   22396   22398   22399   22400
   22399   22401   22402   22403   22402   22404   22405   22406
   22405   22407   22408   22409   22408   22410   22411   22412
   22411   22413   22414   22415   22414   22416   22417   22418
   22417   22419   22420   22421   22420   22422   22423   22424
   22423   22425   22426   22427   22426   22428   22429   22430
   22429   22431   22432   22433   22432   22434   22435   22436
   22435   22437   22438   22439   22438   22440   22441   22442
   22441   22443   22444   22445   22444   22446   22447   22448
   22447   22449   22450   22451   22450   22452   22453   22454
   22453   22455   22456   22457   22456   22458   22459   22460
   22459   22461   22462   22463   22462   22464   22465   22466
   22465   22467   22468   22469   22468   22470   22471   22472
   22471   22473   22474   22475   22474   22476   22477   22478
   22477   22479   22480   22481   22480   22482   22483   22484
   22483   22485   22486   22487   22486   22488   22489   22490
   22489   22491   22492   22493   22492   22494   22495   22496
   22495   22497   22498   22499   22498   22500   22501   22502
   22501   22503   22504   22505   22504   22506   22507   22508
   22507   22509   22510   22511   22510   22512   22513   22514
   22513   22515   22516   22517   22516   22518   22519   22520
   22519   22521   22522   22523   22522   22524   22525   22526
   22525   22527   22528   22529   22528   22530   22531   22532
   22531   22533   22534   22535   22534   22536   22537   22538
   22537   22539   22540   22541   22540   22542   22543   22544
   22543   22545   22546   22547   22546   22548   22549   22550
   22549   22551   22552   22553   22552   22554   22555   22556
   22555   22557   22558   22559   22558   22560   22561   22562
   22561   22563   22564   22565   22564   22566   22567   22568
   22567   22569   22570   22571   22570   22572   22573   22574
   22573   22575   22576   22577   22576   22578   22579   22580
   22579   22581   22582   22583   22582   22584   22585   22586
   22585   22587   22588   22589   22588   22590   22591   22592
   22591   22593   22594   22595   22594   22596   22597   22598
   22597   22599   22600   22601   22600   22602   22603   22604
   22603   22605   22606   22607   22606   22608   22609   22610
   22609   22611   22612   22613   22612   22614   22615   22616
   22615   22617   22618   22619   22618   22620   22621   22622
   22621   22623   22624   22625   22624   22626   22627   22628
   22627   22629   22630   22631   22630   22632   22633   22634
   22633   22635   22636   22637   22636   22638   22639   22640
   22639   22641   22642   22643   22642   22644   22645   22646
   22645   22647   22648   22649   22648   22650   22651   22652
   22651   22653   22654   22655   22654   22656   22657   22658
   22657   22659   22660   22661   22660   22662   22663   22664
   22663   22665   22666   22667   22666   22668   22669   22670
   22669   22671   22672   22673   22672   22674   22675   22676
   22675   22677   22678   22679   22678   22680   22681   22682
   22681   22683   22684   22685   22684   22686   22687   22688
   22687   22689   22690   22691   22690   22692   22693   22694
   22693   22695   22696   22697   22696   22698   22699   22700
   22699   22701   22702   22703   22702   22704   22705   22706
   22705   22707   22708   22709   22708   22710   22711   22712
   22711   22713   22714   22715   22714   22716   22717   22718
   22717   22719   22720   22721   22720   22722   22723   22724
   22723   22725   22726   22727   22726   22728   22729   22730
   22729   22731   22732   22733   22732   22734   22735   22736
   22735   22737   22738   22739   22738   22740   22741   22742
   22741   22743   22744   22745   22744   22746   22747   22748
   22747   22749   22750   22751   22750   22752   22753   22754
   22753   22755   22756   22757   22756   22758   22759   22760
   22759   22761   22762   22763   22762   22764   22765   22766
   22765   22767   22768   22769   22768   22770   22771   22772
   22771   22773   22774   22775   22774   22776   22777   22778
   22777   22779   22780   22781   22780   22782   22783   22784
   22783   22785   22786   22787   22786   22788   22789   22790
   22789   22791   22792   22793   22792   22794   22795   22796
   22795   22797   22798   22799   22798   22800   22801   22802
   22801   22803   22804   22805   22804   22806   22807   22808
   22807   22809   22810   22811   22810   22812   22813   22814
   22813   22815   22816   22817   22816   22818   22819   22820
   22819   22821   22822   22823   22822   22824   22825   22826
   22825   22827   22828   22829   22828   22830   22831   22832
   22831   22833   22834   22835   22834   22836   22837   22838
   22837   22839   22840   22841   22840   22842   22843   22844
   22843   22845   22846   22847   22846   22848   22849   22850
   22849   22851   22852   22853   22852   22854   22855   22856
   22855   22857   22858   22859   22858   22860   22861   22862
   22861   22863   22864   22865   22864   22866   22867   22868
   22867   22869   22870   22871   22870   22872   22873   22874
   22873   22875   22876   22877   22876   22878   22879   22880
   22879   22881   22882   22883   22882   22884   22885   22886
   22885   22887   22888   22889   22888   22890   22891   22892
   22891   22893   22894   22895   22894   22896   22897   22898
   22897   22899   22900   22901   22900   22902   22903   22904
   22903   22905   22906   22907   22906   22908   22909   22910
   22909   22911   22912   22913   22912   22914   22915   22916
   22915   22917   22918   22919   22918   22920   22921   22922
   22921   22923   22924   22925   22924   22926   22927   22928
   22927   22929   22930   22931   22930   22932   22933   22934
   22933   22935   22936   22937   22936   22938   22939   22940
   22939   22941   22942   22943   22942   22944   22945   22946
   22945   22947   22948   22949   22948   22950   22951   22952
   22951   22953   22954   22955   22954   22956   22957   22958
   22957   22959   22960   22961   22960   22962   22963   22964
   22963   22965   22966   22967   22966   22968   22969   22970
   22969   22971   22972   22973   22972   22974   22975   22976
   22975   22977   22978   22979   22978   22980   22981   22982
   22981   22983   22984   22985   22984   22986   22987   22988
   22987   22989   22990   22991   22990   22992   22993   22994
   22993   22995   22996   22997   22996   22998   22999   23000
   22999   23001   23002   23003   23002   23004   23005   23006
   23005   23007   23008   23009   23008   23010   23011   23012
   23011   23013   23014   23015   23014   23016   23017   23018
   23017   23019   23020   23021   23020   23022   23023   23024
   23023   23025   23026   23027   23026   23028   23029   23030
   23029   23031   23032   23033   23032   23034   23035   23036
   23035   23037   23038   23039   23038   23040   23041   23042
   23041   23043   23044   23045   23044   23046   23047   23048
   23047   23049   23050   23051   23050   23052   23053   23054
   23053   23055   23056   23057   23056   23058   23059   23060
   23059   23061   23062   23063   23062   23064   23065   23066
   23065   23067   23068   23069   23068   23070   23071   23072
   23071   23073   23074   23075   23074   23076   23077   23078
   23077   23079   23080   23081   23080   23082   23083   23084
   23083   23085   23086   23087   23086   23088   23089   23090
   23089   23091   23092   23093   23092   23094   23095   23096
   23095   23097   23098   23099   23098   23100   23101   23102
   23101   23103   23104   23105   23104   23106   23107   23108
   23107   23109   23110   23111   23110   23112   23113   23114
   23113   23115   23116   23117   23116   23118   23119   23120
   23119   23121   23122   23123   23122   23124   23125   23126
   23125   23127   23128   23129   23128   23130   23131   23132
   23131   23133   23134   23135   23134   23136   23137   23138
   23137   23139   23140   23141   23140   23142   23143   23144
   23143   23145   23146   23147   23146   23148   23149   23150
   23149   23151   23152   23153   23152   23154   23155   23156
   23155   23157   23158   23159   23158   23160   23161   23162
   23161   23163   23164   23165   23164   23166   23167   23168
   23167   23169   23170   23171   23170   23172   23173   23174
   23173   23175   23176   23177   23176   23178   23179   23180
   23179   23181   23182   23183   23182   23184   23185   23186
   23185   23187   23188   23189   23188   23190   23191   23192
   23191   23193   23194   23195   23194   23196   23197   23198
   23197   23199   23200   23201   23200   23202   23203   23204
   23203   23205   23206   23207   23206   23208   23209   23210
   23209   23211   23212   23213   23212   23214   23215   23216
   23215   23217   23218   23219   23218   23220   23221   23222
   23221   23223   23224   23225   23224   23226   23227   23228
   23227   23229   23230   23231   23230   23232   23233   23234
   23233   23235   23236   23237   23236   23238   23239   23240
   23239   23241   23242   23243   23242   23244   23245   23246
   23245   23247   23248   23249   23248   23250   23251   23252
   23251   23253   23254   23255   23254   23256   23257   23258
   23257   23259   23260   23261   23260   23262   23263   23264
   23263   23265   23266   23267   23266   23268   23269   23270
   23269   23271   23272   23273   23272   23274   23275   23276
   23275   23277   23278   23279   23278   23280   23281   23282
   23281   23283   23284   23285   23284   23286   23287   23288
   23287   23289   23290   23291   23290   23292   23293   23294
   23293   23295   23296   23297   23296   23298   23299   23300
   23299   23301   23302   23303   23302   23304   23305   23306
   23305   23307   23308   23309   23308   23310   23311   23312
   23311   23313   23314   23315   23314   23316   23317   23318
   23317   23319   23320   23321   23320   23322   23323   23324
   23323   23325   23326   23327   23326   23328   23329   23330
   23329   23331   23332   23333   23332   23334   23335   23336
   23335   23337   23338   23339   23338   23340   23341   23342
   23341   23343   23344   23345   23344   23346   23347   23348
   23347   23349   23350   23351   23350   23352   23353   23354
   23353   23355   23356   23357   23356   23358   23359   23360
   23359   23361   23362   23363   23362   23364   23365   23366
   23365   23367   23368   23369   23368   23370   23371   23372
   23371   23373   23374   23375   23374   23376   23377   23378
   23377   23379   23380   23381   23380   23382   23383   23384
   23383   23385   23386   23387   23386   23388   23389   23390
   23389   23391   23392   23393   23392   23394   23395   23396
   23395   23397   23398   23399   23398   23400   23401   23402
   23401   23403   23404   23405   23404   23406   23407   23408
   23407   23409   23410   23411   23410   23412   23413   23414
   23413   23415   23416   23417   23416   23418   23419   23420
   23419   23421   23422   23423   23422   23424   23425   23426
   23425   23427   23428   23429   23428   23430   23431   23432
   23431   23433   23434   23435   23434   23436   23437   23438
   23437   23439   23440   23441   23440   23442   23443   23444
   23443   23445   23446   23447   23446   23448   23449   23450
   23449   23451   23452   23453   23452   23454   23455   23456
   23455   23457   23458   23459   23458   23460   23461   23462
   23461   23463   23464   23465   23464   23466   23467   23468
   23467   23469   23470   23471   23470   23472   23473   23474
   23473   23475   23476   23477   23476   23478   23479   23480
   23479   23481   23482   23483   23482   23484   23485   23486
   23485   23487   23488   23489   23488   23490   23491   23492
   23491   23493   23494   23495   23494   23496   23497   23498
   23497   23499   23500   23501   23500   23502   23503   23504
   23503   23505   23506   23507   23506   23508   23509   23510
   23509   23511   23512   23513   23512   23514   23515   23516
   23515   23517   23518   23519   23518   23520   23521   23522
   23521   23523   23524   23525   23524   23526   23527   23528
   23527   23529   23530   23531   23530   23532   23533   23534
   23533   23535   23536   23537   23536   23538   23539   23540
   23539   23541   23542   23543   23542   23544   23545   23546
   23545   23547   23548   23549   23548   23550   23551   23552
   23551   23553   23554   23555   23554   23556   23557   23558
   23557   23559   23560   23561   23560   23562   23563   23564
   23563   23565   23566   23567   23566   23568   23569   23570
   23569   23571   23572   23573   23572   23574   23575   23576
   23575   23577   23578   23579   23578   23580   23581   23582
   23581   23583   23584   23585   23584   23586   23587   23588
   23587   23589   23590   23591   23590   23592   23593   23594
   23593   23595   23596   23597   23596   23598   23599   23600
   23599   23601   23602   23603   23602   23604   23605   23606
   23605   23607   23608   23609   23608   23610   23611   23612
   23611   23613   23614   23615   23614   23616   23617   23618
   23617   23619   23620   23621   23620   23622   23623   23624
   23623   23625   23626   23627   23626   23628   23629   23630
   23629   23631   23632   23633   23632   23634   23635   23636
   23635   23637   23638   23639   23638   23640   23641   23642
   23641   23643   23644   23645   23644   23646   23647   23648
   23647   23649   23650   23651   23650   23652   23653   23654
   23653   23655   23656   23657   23656   23658   23659   23660
   23659   23661   23662   23663   23662   23664   23665   23666
   23665   23667   23668   23669   23668   23670   23671   23672
   23671   23673   23674   23675   23674   23676   23677   23678
   23677   23679   23680   23681   23680   23682   23683   23684
   23683   23685   23686   23687   23686   23688   23689   23690
   23689   23691   23692   23693   23692   23694   23695   23696
   23695   23697   23698   23699   23698   23700   23701   23702
   23701   23703   23704   23705   23704   23706   23707   23708
   23707   23709   23710   23711   23710   23712   23713   23714
   23713   23715   23716   23717   23716   23718   23719   23720
   23719   23721   23722   23723   23722   23724   23725   23726
   23725   23727   23728   23729   23728   23730   23731   23732
   23731   23733   23734   23735   23734   23736   23737   23738
   23737   23739   23740   23741   23740   23742   23743   23744
   23743   23745   23746   23747   23746   23748   23749   23750
   23749   23751   23752   23753   23752   23754   23755   23756
   23755   23757   23758   23759   23758   23760   23761   23762
   23761   23763   23764   23765   23764   23766   23767   23768
   23767   23769   23770   23771   23770   23772   23773   23774
   23773   23775   23776   23777   23776   23778   23779   23780
   23779   23781   23782   23783   23782   23784   23785   23786
   23785   23787   23788   23789   23788   23790   23791   23792
   23791   23793   23794   23795   23794   23796   23797   23798
   23797   23799   23800   23801   23800   23802   23803   23804
   23803   23805   23806   23807   23806   23808   23809   23810
   23809   23811   23812   23813   23812   23814   23815   23816
   23815   23817   23818   23819   23818   23820   23821   23822
   23821   23823   23824   23825   23824   23826   23827   23828
   23827   23829   23830   23831   23830   23832   23833   23834
   23833   23835   23836   23837   23836   23838   23839   23840
   23839   23841   23842   23843   23842   23844   23845   23846
   23845   23847   23848   23849   23848   23850   23851   23852
   23851   23853   23854   23855   23854   23856   23857   23858
   23857   23859   23860   23861   23860   23862   23863   23864
   23863   23865   23866   23867   23866   23868   23869   23870
   23869   23871   23872   23873   23872   23874   23875   23876
   23875   23877   23878   23879   23878   23880   23881   23882
   23881   23883   23884   23885   23884   23886   23887   23888
   23887   23889   23890   23891   23890   23892   23893   23894
   23893   23895   23896   23897   23896   23898   23899   23900
   23899   23901   23902   23903   23902   23904   23905   23906
   23905   23907   23908   23909   23908   23910   23911   23912
   23911   23913   23914   23915   23914   23916   23917   23918
   23917   23919   23920   23921   23920   23922   23923   23924
   23923   23925   23926   23927   23926   23928   23929   23930
   23929   23931   23932   23933   23932   23934   23935   23936
   23935   23937   23938   23939   23938   23940   23941   23942
   23941   23943   23944   23945   23944   23946   23947   23948
   23947   23949   23950   23951   23950   23952   23953   23954
   23953   23955   23956   23957   23956   23958   23959   23960
   23959   23961   23962   23963   23962   23964   23965   23966
   23965   23967   23968   23969   23968   23970   23971   23972
   23971   23973   23974   23975   23974   23976   23977   23978
   23977   23979   23980   23981   23980   23982   23983   23984
   23983   23985   23986   23987   23986   23988   23989   23990
   23989   23991   23992   23993   23992   23994   23995   23996
   23995   23997   23998   23999   23998   24000   24001   24002
   24001   24003   24004   24005   24004   24006   24007   24008
   24007   24009   24010   24011   24010   24012   24013   24014
   24013   24015   24016   24017   24016   24018   24019   24020
   24019   24021   24022   24023   24022   24024   24025   24026
   24025   24027   24028   24029   24028   24030   24031   24032
   24031   24033   24034   24035   24034   24036   24037   24038
   24037   24039   24040   24041   24040   24042   24043   24044
   24043   24045   24046   24047   24046   24048   24049   24050
   24049   24051   24052   24053   24052   24054   24055   24056
   24055   24057   24058   24059   24058   24060   24061   24062
   24061   24063   24064   24065   24064   24066   24067   24068
   24067   24069   24070   24071   24070   24072   24073   24074
   24073   24075   24076   24077   24076   24078   24079   24080
   24079   24081   24082   24083   24082   24084   24085   24086
   24085   24087   24088   24089   24088   24090   24091   24092
   24091   24093   24094   24095   24094   24096   24097   24098
   24097   24099   24100   24101   24100   24102   24103   24104
   24103   24105   24106   24107   24106   24108   24109   24110
   24109   24111   24112   24113   24112   24114   24115   24116
   24115   24117   24118   24119   24118   24120   24121   24122
   24121   24123   24124   24125   24124   24126   24127   24128
   24127   24129   24130   24131   24130   24132   24133   24134
   24133   24135   24136   24137   24136   24138   24139   24140
   24139   24141   24142   24143   24142   24144   24145   24146
   24145   24147   24148   24149   24148   24150   24151   24152
   24151   24153   24154   24155   24154   24156   24157   24158
   24157   24159   24160   24161   24160   24162   24163   24164
   24163   24165   24166   24167   24166   24168   24169   24170
   24169   24171   24172   24173   24172   24174   24175   24176
   24175   24177   24178   24179   24178   24180   24181   24182
   24181   24183   24184   24185   24184   24186   24187   24188
   24187   24189   24190   24191   24190   24192   24193   24194
   24193   24195   24196   24197   24196   24198   24199   24200
   24199   24201   24202   24203   24202   24204   24205   24206
   24205   24207   24208   24209   24208   24210   24211   24212
   24211   24213   24214   24215   24214   24216   24217   24218
   24217   24219   24220   24221   24220   24222   24223   24224
   24223   24225   24226   24227   24226   24228   24229   24230
   24229   24231   24232   24233   24232   24234   24235   24236
   24235   24237   24238   24239   24238   24240   24241   24242
   24241   24243   24244   24245   24244   24246   24247   24248
   24247   24249   24250   24251   24250   24252   24253   24254
   24253   24255   24256   24257   24256   24258   24259   24260
   24259   24261   24262   24263   24262   24264   24265   24266
   24265   24267   24268   24269   24268   24270   24271   24272
   24271   24273   24274   24275   24274   24276   24277   24278
   24277   24279   24280   24281   24280   24282   24283   24284
   24283   24285   24286   24287   24286   24288   24289   24290
   24289   24291   24292   24293   24292   24294   24295   24296
   24295   24297   24298   24299   24298   24300   24301   24302
   24301   24303   24304   24305   24304   24306   24307   24308
   24307   24309   24310   24311   24310   24312   24313   24314
   24313   24315   24316   24317   24316   24318   24319   24320
   24319   24321   24322   24323   24322   24324   24325   24326
   24325   24327   24328   24329   24328   24330   24331   24332
   24331   24333   24334   24335   24334   24336   24337   24338
   24337   24339   24340   24341   24340   24342   24343   24344
   24343   24345   24346   24347   24346   24348   24349   24350
   24349   24351   24352   24353   24352   24354   24355   24356
   24355   24357   24358   24359   24358   24360   24361   24362
   24361   24363   24364   24365   24364   24366   24367   24368
   24367   24369   24370   24371   24370   24372   24373   24374
   24373   24375   24376   24377   24376   24378   24379   24380
   24379   24381   24382   24383   24382   24384   24385   24386
   24385   24387   24388   24389   24388   24390   24391   24392
   24391   24393   24394   24395   24394   24396   24397   24398
   24397   24399   24400   24401   24400   24402   24403   24404
   24403   24405   24406   24407   24406   24408   24409   24410
   24409   24411   24412   24413   24412   24414   24415   24416
   24415   24417   24418   24419   24418   24420   24421   24422
   24421   24423   24424   24425   24424   24426   24427   24428
   24427   24429   24430   24431   24430   24432   24433   24434
   24433   24435   24436   24437   24436   24438   24439   24440
   24439   24441   24442   24443   24442   24444   24445   24446
   24445   24447   24448   24449   24448   24450   24451   24452
   24451   24453   24454   24455   24454   24456   24457   24458
   24457   24459   24460   24461   24460   24462   24463   24464
   24463   24465   24466   24467   24466   24468   24469   24470
   24469   24471   24472   24473   24472   24474   24475   24476
   24475   24477   24478   24479   24478   24480   24481   24482
   24481   24483   24484   24485   24484   24486   24487   24488
   24487   24489   24490   24491   24490   24492   24493   24494
   24493   24495   24496   24497   24496   24498   24499   24500
   24499   24501   24502   24503   24502   24504   24505   24506
   24505   24507   24508   24509   24508   24510   24511   24512
   24511   24513   24514   24515   24514   24516   24517   24518
   24517   24519   24520   24521   24520   24522   24523   24524
   24523   24525   24526   24527   24526   24528   24529   24530
   24529   24531   24532   24533   24532   24534   24535   24536
   24535   24537   24538   24539   24538   24540   24541   24542
   24541   24543   24544   24545   24544   24546   24547   24548
   24547   24549   24550   24551   24550   24552   24553   24554
   24553   24555   24556   24557   24556   24558   24559   24560
   24559   24561   24562   24563   24562   24564   24565   24566
   24565   24567   24568   24569   24568   24570   24571   24572
   24571   24573   24574   24575   24574   24576   24577   24578
   24577   24579   24580   24581   24580   24582   24583   24584
   24583   24585   24586   24587   24586   24588   24589   24590
   24589   24591   24592   24593   24592   24594   24595   24596
   24595   24597   24598   24599   24598   24600   24601   24602
   24601   24603   24604   24605   24604   24606   24607   24608
   24607   24609   24610   24611   24610   24612   24613   24614
   24613   24615   24616   24617   24616   24618   24619   24620
   24619   24621   24622   24623   24622   24624   24625   24626
   24625   24627   24628   24629   24628   24630   24631   24632
   24631   24633   24634   24635   24634   24636   24637   24638
   24637   24639   24640   24641   24640   24642   24643   24644
   24643   24645   24646   24647   24646   24648   24649   24650
   24649   24651   24652   24653   24652   24654   24655   24656
   24655   24657   24658   24659   24658   24660   24661   24662
   24661   24663   24664   24665   24664   24666   24667   24668
   24667   24669   24670   24671   24670   24672   24673   24674
   24673   24675   24676   24677   24676   24678   24679   24680
   24679   24681   24682   24683   24682   24684   24685   24686
   24685   24687   24688   24689   24688   24690   24691   24692
   24691   24693   24694   24695   24694   24696   24697   24698
   24697   24699   24700   24701   24700   24702   24703   24704
   24703   24705   24706   24707   24706   24708   24709   24710
   24709   24711   24712   24713   24712   24714   24715   24716
   24715   24717   24718   24719   24718   24720   24721   24722
   24721   24723   24724   24725   24724   24726   24727   24728
   24727   24729   24730   24731   24730   24732   24733   24734
   24733   24735   24736   24737   24736   24738   24739   24740
   24739   24741   24742   24743   24742   24744   24745   24746
   24745   24747   24748   24749   24748   24750   24751   24752
   24751   24753   24754   24755   24754   24756   24757   24758
   24757   24759   24760   24761   24760   24762   24763   24764
   24763   24765   24766   24767   24766   24768   24769   24770
   24769   24771   24772   24773   24772   24774   24775   24776
   24775   24777   24778   24779   24778   24780   24781   24782
   24781   24783   24784   24785   24784   24786   24787   24788
   24787   24789   24790   24791   24790   24792   24793   24794
   24793   24795   24796   24797   24796   24798   24799   24800
   24799   24801   24802   24803   24802   24804   24805   24806
   24805   24807   24808   24809   24808   24810   24811   24812
   24811   24813   24814   24815   24814   24816   24817   24818
   24817   24819   24820   24821   24820   24822   24823   24824
   24823   24825   24826   24827   24826   24828   24829   24830
   24829   24831   24832   24833   24832   24834   24835   24836
   24835   24837   24838   24839   24838   24840   24841   24842
   24841   24843   24844   24845   24844   24846   24847   24848
   24847   24849   24850   24851   24850   24852   24853   24854
   24853   24855   24856   24857   24856   24858   24859   24860
   24859   24861   24862   24863   24862   24864   24865   24866
   24865   24867   24868   24869   24868   24870   24871   24872
   24871   24873   24874   24875   24874   24876   24877   24878
   24877   24879   24880   24881   24880   24882   24883   24884
   24883   24885   24886   24887   24886   24888   24889   24890
   24889   24891   24892   24893   24892   24894   24895   24896
   24895   24897   24898   24899   24898   24900   24901   24902
   24901   24903   24904   24905   24904   24906   24907   24908
   24907   24909   24910   24911   24910   24912   24913   24914
   24913   24915   24916   24917   24916   24918   24919   24920
   24919   24921   24922   24923   24922   24924   24925   24926
   24925   24927   24928   24929   24928   24930   24931   24932
   24931   24933   24934   24935   24934   24936   24937   24938
   24937   24939   24940   24941   24940   24942   24943   24944
   24943   24945   24946   24947   24946   24948   24949   24950
   24949   24951   24952   24953   24952   24954   24955   24956
   24955   24957   24958   24959   24958   24960   24961   24962
   24961   24963   24964   24965   24964   24966   24967   24968
   24967   24969   24970   24971   24970   24972   24973   24974
   24973   24975   24976   24977   24976   24978   24979   24980
   24979   24981   24982   24983   24982   24984   24985   24986
   24985   24987   24988   24989   24988   24990   24991   24992
   24991   24993   24994   24995   24994   24996   24997   24998
   24997   24999   25000   25001   25000   25002   25003   25004
   25003   25005   25006   25007   25006   25008   25009   25010
   25009   25011   25012   25013   25012   25014   25015   25016
   25015   25017   25018   25019   25018   25020   25021   25022
   25021   25023   25024   25025   25024   25026   25027   25028
   25027   25029   25030   25031   25030   25032   25033   25034
   25033   25035   25036   25037   25036   25038   25039   25040
   25039   25041   25042   25043   25042   25044   25045   25046
   25045   25047   25048   25049   25048   25050   25051   25052
   25051   25053   25054   25055   25054   25056   25057   25058
   25057   25059   25060   25061   25060   25062   25063   25064
   25063   25065   25066   25067   25066   25068   25069   25070
   25069   25071   25072   25073   25072   25074   25075   25076
   25075   25077   25078   25079   25078   25080   25081   25082
   25081   25083   25084   25085   25084   25086   25087   25088
   25087   25089   25090   25091   25090   25092   25093   25094
   25093   25095   25096   25097   25096   25098   25099   25100
   25099   25101   25102   25103   25102   25104   25105   25106
   25105   25107   25108   25109   25108   25110   25111   25112
   25111   25113   25114   25115   25114   25116   25117   25118
   25117   25119   25120   25121   25120   25122   25123   25124
   25123   25125   25126   25127   25126   25128   25129   25130
   25129   25131   25132   25133   25132   25134   25135   25136
   25135   25137   25138   25139   25138   25140   25141   25142
   25141   25143   25144   25145   25144   25146   25147   25148
   25147   25149   25150   25151   25150   25152   25153   25154
   25153   25155   25156   25157   25156   25158   25159   25160
   25159   25161   25162   25163   25162   25164   25165   25166
   25165   25167   25168   25169   25168   25170   25171   25172
   25171   25173   25174   25175   25174   25176   25177   25178
   25177   25179   25180   25181   25180   25182   25183   25184
   25183   25185   25186   25187   25186   25188   25189   25190
   25189   25191   25192   25193   25192   25194   25195   25196
   25195   25197   25198   25199   25198   25200   25201   25202
   25201   25203   25204   25205   25204   25206   25207   25208
   25207   25209   25210   25211   25210   25212   25213   25214
   25213   25215   25216   25217   25216   25218   25219   25220
   25219   25221   25222   25223   25222   25224   25225   25226
   25225   25227   25228   25229   25228   25230   25231   25232
   25231   25233   25234   25235   25234   25236   25237   25238
   25237   25239   25240   25241   25240   25242   25243   25244
   25243   25245   25246   25247   25246   25248   25249   25250
   25249   25251   25252   25253   25252   25254   25255   25256
   25255   25257   25258   25259   25258   25260   25261   25262
   25261   25263   25264   25265   25264   25266   25267   25268
   25267   25269   25270   25271   25270   25272   25273   25274
   25273   25275   25276   25277   25276   25278   25279   25280
   25279   25281   25282   25283   25282   25284   25285   25286
   25285   25287   25288   25289   25288   25290   25291   25292
   25291   25293   25294   25295   25294   25296   25297   25298
   25297   25299   25300   25301   25300   25302   25303   25304
   25303   25305   25306   25307   25306   25308   25309   25310
   25309   25311   25312   25313   25312   25314   25315   25316
   25315   25317   25318   25319   25318   25320   25321   25322
   25321   25323   25324   25325   25324   25326   25327   25328
   25327   25329   25330   25331   25330   25332   25333   25334
   25333   25335   25336   25337   25336   25338   25339   25340
   25339   25341   25342   25343   25342   25344   25345   25346
   25345   25347   25348   25349   25348   25350   25351   25352
   25351   25353   25354   25355   25354   25356   25357   25358
   25357   25359   25360   25361   25360   25362   25363   25364
   25363   25365   25366   25367   25366   25368   25369   25370
   25369   25371   25372   25373   25372   25374   25375   25376
   25375   25377   25378   25379   25378   25380   25381   25382
   25381   25383   25384   25385   25384   25386   25387   25388
   25387   25389   25390   25391   25390   25392   25393   25394
   25393   25395   25396   25397   25396   25398   25399   25400
   25399   25401   25402   25403   25402   25404   25405   25406
   25405   25407   25408   25409   25408   25410   25411   25412
   25411   25413   25414   25415   25414   25416   25417   25418
   25417   25419   25420   25421   25420   25422   25423   25424
   25423   25425   25426   25427   25426   25428   25429   25430
   25429   25431   25432   25433   25432   25434   25435   25436
   25435   25437   25438   25439   25438   25440   25441   25442
   25441   25443   25444   25445   25444   25446   25447   25448
   25447   25449   25450   25451   25450   25452   25453   25454
   25453   25455   25456   25457   25456   25458   25459   25460
   25459   25461   25462   25463   25462   25464   25465   25466
   25465   25467   25468   25469   25468   25470   25471   25472
   25471   25473   25474   25475   25474   25476   25477   25478
   25477   25479   25480   25481   25480   25482   25483   25484
   25483   25485   25486   25487   25486   25488   25489   25490
   25489   25491   25492   25493   25492   25494   25495   25496
   25495   25497   25498   25499   25498   25500   25501   25502
   25501   25503   25504   25505   25504   25506   25507   25508
   25507   25509   25510   25511   25510   25512   25513   25514
   25513   25515   25516   25517   25516   25518   25519   25520
   25519   25521   25522   25523   25522   25524   25525   25526
   25525   25527   25528   25529   25528   25530   25531   25532
   25531   25533   25534   25535   25534   25536   25537   25538
   25537   25539   25540   25541   25540   25542   25543   25544
   25543   25545   25546   25547   25546   25548   25549   25550
   25549   25551   25552   25553   25552   25554   25555   25556
   25555   25557   25558   25559   25558   25560   25561   25562
   25561   25563   25564   25565   25564   25566   25567   25568
   25567   25569   25570   25571   25570   25572   25573   25574
   25573   25575   25576   25577   25576   25578   25579   25580
   25579   25581   25582   25583   25582   25584   25585   25586
   25585   25587   25588   25589   25588   25590   25591   25592
   25591   25593   25594   25595   25594   25596   25597   25598
   25597   25599   25600   25601   25600   25602   25603   25604
   25603   25605   25606   25607   25606   25608   25609   25610
   25609   25611   25612   25613   25612   25614   25615   25616
   25615   25617   25618   25619   25618   25620   25621   25622
   25621   25623   25624   25625   25624   25626   25627   25628
   25627   25629   25630   25631   25630   25632   25633   25634
   25633   25635   25636   25637   25636   25638   25639   25640
   25639   25641   25642   25643   25642   25644   25645   25646
   25645   25647   25648   25649   25648   25650   25651   25652
   25651   25653   25654   25655   25654   25656   25657   25658
   25657   25659   25660   25661   25660   25662   25663   25664
   25663   25665   25666   25667   25666   25668   25669   25670
   25669   25671   25672   25673   25672   25674   25675   25676
   25675   25677   25678   25679   25678   25680   25681   25682
   25681   25683   25684   25685   25684   25686   25687   25688
   25687   25689   25690   25691   25690   25692   25693   25694
   25693   25695   25696   25697   25696   25698   25699   25700
   25699   25701   25702   25703   25702   25704   25705   25706
   25705   25707   25708   25709   25708   25710   25711   25712
   25711   25713   25714   25715   25714   25716   25717   25718
   25717   25719   25720   25721   25720   25722   25723   25724
   25723   25725   25726   25727   25726   25728   25729   25730
   25729   25731   25732   25733   25732   25734   25735   25736
   25735   25737   25738   25739   25738   25740   25741   25742
   25741   25743   25744   25745   25744   25746   25747   25748
   25747   25749   25750   25751   25750   25752   25753   25754
   25753   25755   25756   25757   25756   25758   25759   25760
   25759   25761   25762   25763   25762   25764   25765   25766
   25765   25767   25768   25769   25768   25770   25771   25772
   25771   25773   25774   25775   25774   25776   25777   25778
   25777   25779   25780   25781   25780   25782   25783   25784
   25783   25785   25786   25787   25786   25788   25789   25790
   25789   25791   25792   25793   25792   25794   25795   25796
   25795   25797   25798   25799   25798   25800   25801   25802
   25801   25803   25804   25805   25804   25806   25807   25808
   25807   25809   25810   25811   25810   25812   25813   25814
   25813   25815   25816   25817   25816   25818   25819   25820
   25819   25821   25822   25823   25822   25824   25825   25826
   25825   25827   25828   25829   25828   25830   25831   25832
   25831   25833   25834   25835   25834   25836   25837   25838
   25837   25839   25840   25841   25840   25842   25843   25844
   25843   25845   25846   25847   25846   25848   25849   25850
   25849   25851   25852   25853   25852   25854   25855   25856
   25855   25857   25858   25859   25858   25860   25861   25862
   25861   25863   25864   25865   25864   25866   25867   25868
   25867   25869   25870   25871   25870   25872   25873   25874
   25873   25875   25876   25877   25876   25878   25879   25880
   25879   25881   25882   25883   25882   25884   25885   25886
   25885   25887   25888   25889   25888   25890   25891   25892
   25891   25893   25894   25895   25894   25896   25897   25898
   25897   25899   25900   25901   25900   25902   25903   25904
   25903   25905   25906   25907   25906   25908   25909   25910
   25909   25911   25912   25913   25912   25914   25915   25916
   25915   25917   25918   25919   25918   25920   25921   25922
   25921   25923   25924   25925   25924   25926   25927   25928
   25927   25929   25930   25931   25930   25932   25933   25934
   25933   25935   25936   25937   25936   25938   25939   25940
   25939   25941   25942   25943   25942   25944   25945   25946
   25945   25947   25948   25949   25948   25950   25951   25952
   25951   25953   25954   25955   25954   25956   25957   25958
   25957   25959   25960   25961   25960   25962   25963   25964
   25963   25965   25966   25967   25966   25968   25969   25970
   25969   25971   25972   25973   25972   25974   25975   25976
   25975   25977   25978   25979   25978   25980   25981   25982
   25981   25983   25984   25985   25984   25986   25987   25988
   25987   25989   25990   25991   25990   25992   25993   25994
   25993   25995   25996   25997   25996   25998   25999   26000
   25999   26001   26002   26003   26002   26004   26005   26006
   26005   26007   26008   26009   26008   26010   26011   26012
   26011   26013   26014   26015   26014   26016   26017   26018
   26017   26019   26020   26021   26020   26022   26023   26024
   26023   26025   26026   26027   26026   26028   26029   26030
   26029   26031   26032   26033   26032   26034   26035   26036
   26035   26037   26038   26039   26038   26040   26041   26042
   26041   26043   26044   26045   26044   26046   26047   26048
   26047   26049   26050   26051   26050   26052   26053   26054
   26053   26055   26056   26057   26056   26058   26059   26060
   26059   26061   26062   26063   26062   26064   26065   26066
   26065   26067   26068   26069   26068   26070   26071   26072
   26071   26073   26074   26075   26074   26076   26077   26078
   26077   26079   26080   26081   26080   26082   26083   26084
   26083   26085   26086   26087   26086   26088   26089   26090
   26089   26091   26092   26093   26092   26094   26095   26096
   26095   26097   26098   26099   26098   26100   26101   26102
   26101   26103   26104   26105   26104   26106   26107   26108
   26107   26109   26110   26111   26110   26112   26113   26114
   26113   26115   26116   26117   26116   26118   26119   26120
   26119   26121   26122   26123   26122   26124   26125   26126
   26125   26127   26128   26129   26128   26130   26131   26132
   26131   26133   26134   26135   26134   26136   26137   26138
   26137   26139   26140   26141   26140   26142   26143   26144
   26143   26145   26146   26147   26146   26148   26149   26150
   26149   26151   26152   26153   26152   26154   26155   26156
   26155   26157   26158   26159   26158   26160   26161   26162
   26161   26163   26164   26165   26164   26166   26167   26168
   26167   26169   26170   26171   26170   26172   26173   26174
   26173   26175   26176   26177   26176   26178   26179   26180
   26179   26181   26182   26183   26182   26184   26185   26186
   26185   26187   26188   26189   26188   26190   26191   26192
   26191   26193   26194   26195   26194   26196   26197   26198
   26197   26199   26200   26201   26200   26202   26203   26204
   26203   26205   26206   26207   26206   26208   26209   26210
   26209   26211   26212   26213   26212   26214   26215   26216
   26215   26217   26218   26219   26218   26220   26221   26222
   26221   26223   26224   26225   26224   26226   26227   26228
   26227   26229   26230   26231   26230   26232   26233   26234
   26233   26235   26236   26237   26236   26238   26239   26240
   26239   26241   26242   26243   26242   26244   26245   26246
   26245   26247   26248   26249   26248   26250   26251   26252
   26251   26253   26254   26255   26254   26256   26257   26258
   26257   26259   26260   26261   26260   26262   26263   26264
   26263   26265   26266   26267   26266   26268   26269   26270
   26269   26271   26272   26273   26272   26274   26275   26276
   26275   26277   26278   26279   26278   26280   26281   26282
   26281   26283   26284   26285   26284   26286   26287   26288
   26287   26289   26290   26291   26290   26292   26293   26294
   26293   26295   26296   26297   26296   26298   26299   26300
   26299   26301   26302   26303   26302   26304   26305   26306
   26305   26307   26308   26309   26308   26310   26311   26312
   26311   26313   26314   26315   26314   26316   26317   26318
   26317   26319   26320   26321   26320   26322   26323   26324
   26323   26325   26326   26327   26326   26328   26329   26330
   26329   26331   26332   26333   26332   26334   26335   26336
   26335   26337   26338   26339   26338   26340   26341   26342
   26341   26343   26344   26345   26344   26346   26347   26348
   26347   26349   26350   26351   26350   26352   26353   26354
   26353   26355   26356   26357   26356   26358   26359   26360
   26359   26361   26362   26363   26362   26364   26365   26366
   26365   26367   26368   26369   26368   26370   26371   26372
   26371   26373   26374   26375   26374   26376   26377   26378
   26377   26379   26380   26381   26380   26382   26383   26384
   26383   26385   26386   26387   26386   26388   26389   26390
   26389   26391   26392   26393   26392   26394   26395   26396
   26395   26397   26398   26399   26398   26400   26401   26402
   26401   26403   26404   26405   26404   26406   26407   26408
   26407   26409   26410   26411   26410   26412   26413   26414
   26413   26415   26416   26417   26416   26418   26419   26420
   26419   26421   26422   26423   26422   26424   26425   26426
   26425   26427   26428   26429   26428   26430   26431   26432
   26431   26433   26434   26435   26434   26436   26437   26438
   26437   26439   26440   26441   26440   26442   26443   26444
   26443   26445   26446   26447   26446   26448   26449   26450
   26449   26451   26452   26453   26452   26454   26455   26456
   26455   26457   26458   26459   26458   26460   26461   26462
   26461   26463   26464   26465   26464   26466   26467   26468
   26467   26469   26470   26471   26470   26472   26473   26474
   26473   26475   26476   26477   26476   26478   26479   26480
   26479   26481   26482   26483   26482   26484   26485   26486
   26485   26487   26488   26489   26488   26490   26491   26492
   26491   26493   26494   26495   26494   26496   26497   26498
   26497   26499   26500   26501   26500   26502   26503   26504
   26503   26505   26506   26507   26506   26508   26509   26510
   26509   26511   26512   26513   26512   26514   26515   26516
   26515   26517   26518   26519   26518   26520   26521   26522
   26521   26523   26524   26525   26524   26526   26527   26528
   26527   26529   26530   26531   26530   26532   26533   26534
   26533   26535   26536   26537   26536   26538   26539   26540
   26539   26541   26542   26543   26542   26544   26545   26546
   26545   26547   26548   26549   26548   26550   26551   26552
   26551   26553   26554   26555   26554   26556   26557   26558
   26557   26559   26560   26561   26560   26562   26563   26564
   26563   26565   26566   26567   26566   26568   26569   26570
   26569   26571   26572   26573   26572   26574   26575   26576
   26575   26577   26578   26579   26578   26580   26581   26582
   26581   26583   26584   26585   26584   26586   26587   26588
   26587   26589   26590   26591   26590   26592   26593   26594
   26593   26595   26596   26597   26596   26598   26599   26600
   26599   26601   26602   26603   26602   26604   26605   26606
   26605   26607   26608   26609   26608   26610   26611   26612
   26611   26613   26614   26615   26614   26616   26617   26618
   26617   26619   26620   26621   26620   26622   26623   26624
   26623   26625   26626   26627   26626   26628   26629   26630
   26629   26631   26632   26633   26632   26634   26635   26636
   26635   26637   26638   26639   26638   26640   26641   26642
   26641   26643   26644   26645   26644   26646   26647   26648
   26647   26649   26650   26651   26650   26652   26653   26654
   26653   26655   26656   26657   26656   26658   26659   26660
   26659   26661   26662   26663   26662   26664   26665   26666
   26665   26667   26668   26669   26668   26670   26671   26672
   26671   26673   26674   26675   26674   26676   26677   26678
   26677   26679   26680   26681   26680   26682   26683   26684
   26683   26685   26686   26687   26686   26688   26689   26690
   26689   26691   26692   26693   26692   26694   26695   26696
   26695   26697   26698   26699   26698   26700   26701   26702
   26701   26703   26704   26705   26704   26706   26707   26708
   26707   26709   26710   26711   26710   26712   26713   26714
   26713   26715   26716   26717   26716   26718   26719   26720
   26719   26721   26722   26723   26722   26724   26725   26726
   26725   26727   26728   26729   26728   26730   26731   26732
   26731   26733   26734   26735   26734   26736   26737   26738
   26737   26739   26740   26741   26740   26742   26743   26744
   26743   26745   26746   26747   26746   26748   26749   26750
   26749   26751   26752   26753   26752   26754   26755   26756
   26755   26757   26758   26759   26758   26760   26761   26762
   26761   26763   26764   26765   26764   26766   26767   26768
   26767   26769   26770   26771   26770   26772   26773   26774
   26773   26775   26776   26777   26776   26778   26779   26780
   26779   26781   26782   26783   26782   26784   26785   26786
   26785   26787   26788   26789   26788   26790   26791   26792
   26791   26793   26794   26795   26794   26796   26797   26798
   26797   26799   26800   26801   26800   26802   26803   26804
   26803   26805   26806   26807   26806   26808   26809   26810
   26809   26811   26812   26813   26812   26814   26815   26816
   26815   26817   26818   26819   26818   26820   26821   26822
   26821   26823   26824   26825   26824   26826   26827   26828
   26827   26829   26830   26831   26830   26832   26833   26834
   26833   26835   26836   26837   26836   26838   26839   26840
   26839   26841   26842   26843   26842   26844   26845   26846
   26845   26847   26848   26849   26848   26850   26851   26852
   26851   26853   26854   26855   26854   26856   26857   26858
   26857   26859   26860   26861   26860   26862   26863   26864
   26863   26865   26866   26867   26866   26868   26869   26870
   26869   26871   26872   26873   26872   26874   26875   26876
   26875   26877   26878   26879   26878   26880   26881   26882
   26881   26883   26884   26885   26884   26886   26887   26888
   26887   26889   26890   26891   26890   26892   26893   26894
   26893   26895   26896   26897   26896   26898   26899   26900
   26899   26901   26902   26903   26902   26904   26905   26906
   26905   26907   26908   26909   26908   26910   26911   26912
   26911   26913   26914   26915   26914   26916   26917   26918
   26917   26919   26920   26921   26920   26922   26923   26924
   26923   26925   26926   26927   26926   26928   26929   26930
   26929   26931   26932   26933   26932   26934   26935   26936
   26935   26937   26938   26939   26938   26940   26941   26942
   26941   26943   26944   26945   26944   26946   26947   26948
   26947   26949   26950   26951   26950   26952   26953   26954
   26953   26955   26956   26957   26956   26958   26959   26960
   26959   26961   26962   26963   26962   26964   26965   26966
   26965   26967   26968   26969   26968   26970   26971   26972
   26971   26973   26974   26975   26974   26976   26977   26978
   26977   26979   26980   26981   26980   26982   26983   26984
   26983   26985   26986   26987   26986   26988   26989   26990
   26989   26991   26992   26993   26992   26994   26995   26996
   26995   26997   26998   26999   26998   27000   27001   27002
   27001   27003   27004   27005   27004   27006   27007   27008
   27007   27009   27010   27011   27010   27012   27013   27014
   27013   27015   27016   27017   27016   27018   27019   27020
   27019   27021   27022   27023   27022   27024   27025   27026
   27025   27027   27028   27029   27028   27030   27031   27032
   27031   27033   27034   27035   27034   27036   27037   27038
   27037   27039   27040   27041   27040   27042   27043   27044
   27043   27045   27046   27047   27046   27048   27049   27050
   27049   27051   27052   27053   27052   27054   27055   27056
   27055   27057   27058   27059   27058   27060   27061   27062
   27061   27063   27064   27065   27064   27066   27067   27068
   27067   27069   27070   27071   27070   27072   27073   27074
   27073   27075   27076   27077   27076   27078   27079   27080
   27079   27081   27082   27083   27082   27084   27085   27086
   27085   27087   27088   27089   27088   27090   27091   27092
   27091   27093   27094   27095   27094   27096   27097   27098
   27097   27099   27100   27101   27100   27102   27103   27104
   27103   27105   27106   27107   27106   27108   27109   27110
   27109   27111   27112   27113   27112   27114   27115   27116
   27115   27117   27118   27119   27118   27120   27121   27122
   27121   27123   27124   27125   27124   27126   27127   27128
   27127   27129   27130   27131   27130   27132   27133   27134
   27133   27135   27136   27137   27136   27138   27139   27140
   27139   27141   27142   27143   27142   27144   27145   27146
   27145   27147   27148   27149   27148   27150   27151   27152
   27151   27153   27154   27155   27154   27156   27157   27158
   27157   27159   27160   27161   27160   27162   27163   27164
   27163   27165   27166   27167   27166   27168   27169   27170
   27169   27171   27172   27173   27172   27174   27175   27176
   27175   27177   27178   27179   27178   27180   27181   27182
   27181   27183   27184   27185   27184   27186   27187   27188
   27187   27189   27190   27191   27190   27192   27193   27194
   27193   27195   27196   27197   27196   27198   27199   27200
   27199   27201   27202   27203   27202   27204   27205   27206
   27205   27207   27208   27209   27208   27210   27211   27212
   27211   27213   27214   27215   27214   27216   27217   27218
   27217   27219   27220   27221   27220   27222   27223   27224
   27223   27225   27226   27227   27226   27228   27229   27230
   27229   27231   27232   27233   27232   27234   27235   27236
   27235   27237   27238   27239   27238   27240   27241   27242
   27241   27243   27244   27245   27244   27246   27247   27248
   27247   27249   27250   27251   27250   27252   27253   27254
   27253   27255   27256   27257   27256   27258   27259   27260
   27259   27261   27262   27263   27262   27264   27265   27266
   27265   27267   27268   27269   27268   27270   27271   27272
   27271   27273   27274   27275   27274   27276   27277   27278
   27277   27279   27280   27281   27280   27282   27283   27284
   27283   27285   27286   27287   27286   27288   27289   27290
   27289   27291   27292   27293   27292   27294   27295   27296
   27295   27297   27298   27299   27298   27300   27301   27302
   27301   27303   27304   27305   27304   27306   27307   27308
   27307   27309   27310   27311   27310   27312   27313   27314
   27313   27315   27316   27317   27316   27318   27319   27320
   27319   27321   27322   27323   27322   27324   27325   27326
   27325   27327   27328   27329   27328   27330   27331   27332
   27331   27333   27334   27335   27334   27336   27337   27338
   27337   27339   27340   27341   27340   27342   27343   27344
   27343   27345   27346   27347   27346   27348   27349   27350
   27349   27351   27352   27353   27352   27354   27355   27356
   27355   27357   27358   27359   27358   27360   27361   27362
   27361   27363   27364   27365   27364   27366   27367   27368
   27367   27369   27370   27371   27370   27372   27373   27374
   27373   27375   27376   27377   27376   27378   27379   27380
   27379   27381   27382   27383   27382   27384   27385   27386
   27385   27387   27388   27389   27388   27390   27391   27392
   27391   27393   27394   27395   27394   27396   27397   27398
   27397   27399   27400   27401   27400   27402   27403   27404
   27403   27405   27406   27407   27406   27408   27409   27410
   27409   27411   27412   27413   27412   27414   27415   27416
   27415   27417   27418   27419   27418   27420   27421   27422
   27421   27423   27424   27425   27424   27426   27427   27428
   27427   27429   27430   27431   27430   27432   27433   27434
   27433   27435   27436   27437   27436   27438   27439   27440
   27439   27441   27442   27443   27442   27444   27445   27446
   27445   27447   27448   27449   27448   27450   27451   27452
   27451   27453   27454   27455   27454   27456   27457   27458
   27457   27459   27460   27461   27460   27462   27463   27464
   27463   27465   27466   27467   27466   27468   27469   27470
   27469   27471   27472   27473   27472   27474   27475   27476
   27475   27477   27478   27479   27478   27480   27481   27482
   27481   27483   27484   27485   27484   27486   27487   27488
   27487   27489   27490   27491   27490   27492   27493   27494
   27493   27495   27496   27497   27496   27498   27499   27500
   27499   27501   27502   27503   27502   27504   27505   27506
   27505   27507   27508   27509   27508   27510   27511   27512
   27511   27513   27514   27515   27514   27516   27517   27518
   27517   27519   27520   27521   27520   27522   27523   27524
   27523   27525   27526   27527   27526   27528   27529   27530
   27529   27531   27532   27533   27532   27534   27535   27536
   27535   27537   27538   27539   27538   27540   27541   27542
   27541   27543   27544   27545   27544   27546   27547   27548
   27547   27549   27550   27551   27550   27552   27553   27554
   27553   27555   27556   27557   27556   27558   27559   27560
   27559   27561   27562   27563   27562   27564   27565   27566
   27565   27567   27568   27569   27568   27570   27571   27572
   27571   27573   27574   27575   27574   27576   27577   27578
   27577   27579   27580   27581   27580   27582   27583   27584
   27583   27585   27586   27587   27586   27588   27589   27590
   27589   27591   27592   27593   27592   27594   27595   27596
   27595   27597   27598   27599   27598   27600   27601   27602
   27601   27603   27604   27605   27604   27606   27607   27608
   27607   27609   27610   27611   27610   27612   27613   27614
   27613   27615   27616   27617   27616   27618   27619   27620
   27619   27621   27622   27623   27622   27624   27625   27626
   27625   27627   27628   27629   27628   27630   27631   27632
   27631   27633   27634   27635   27634   27636   27637   27638
   27637   27639   27640   27641   27640   27642   27643   27644
   27643   27645   27646   27647   27646   27648   27649   27650
   27649   27651   27652   27653   27652   27654   27655   27656
   27655   27657   27658   27659   27658   27660   27661   27662
   27661   27663   27664   27665   27664   27666   27667   27668
   27667   27669   27670   27671   27670   27672   27673   27674
   27673   27675   27676   27677   27676   27678   27679   27680
   27679   27681   27682   27683   27682   27684   27685   27686
   27685   27687   27688   27689   27688   27690   27691   27692
   27691   27693   27694   27695   27694   27696   27697   27698
   27697   27699   27700   27701   27700   27702   27703   27704
   27703   27705   27706   27707   27706   27708   27709   27710
   27709   27711   27712   27713   27712   27714   27715   27716
   27715   27717   27718   27719   27718   27720   27721   27722
   27721   27723   27724   27725   27724   27726   27727   27728
   27727   27729   27730   27731   27730   27732   27733   27734
   27733   27735   27736   27737   27736   27738   27739   27740
   27739   27741   27742   27743   27742   27744   27745   27746
   27745   27747   27748   27749   27748   27750   27751   27752
   27751   27753   27754   27755   27754   27756   27757   27758
   27757   27759   27760   27761   27760   27762   27763   27764
   27763   27765   27766   27767   27766   27768   27769   27770
   27769   27771   27772   27773   27772   27774   27775   27776
   27775   27777   27778   27779   27778   27780   27781   27782
   27781   27783   27784   27785   27784   27786   27787   27788
   27787   27789   27790   27791   27790   27792   27793   27794
   27793   27795   27796   27797   27796   27798   27799   27800
   27799   27801   27802   27803   27802   27804   27805   27806
   27805   27807   27808   27809   27808   27810   27811   27812
   27811   27813   27814   27815   27814   27816   27817   27818
   27817   27819   27820   27821   27820   27822   27823   27824
   27823   27825   27826   27827   27826   27828   27829   27830
   27829   27831   27832   27833   27832   27834   27835   27836
   27835   27837   27838   27839   27838   27840   27841   27842
   27841   27843   27844   27845   27844   27846   27847   27848
   27847   27849   27850   27851   27850   27852   27853   27854
   27853   27855   27856   27857   27856   27858   27859   27860
   27859   27861   27862   27863   27862   27864   27865   27866
   27865   27867   27868   27869   27868   27870   27871   27872
   27871   27873   27874   27875   27874   27876   27877   27878
   27877   27879   27880   27881   27880   27882   27883   27884
   27883   27885   27886   27887   27886   27888   27889   27890
   27889   27891   27892   27893   27892   27894   27895   27896
   27895   27897   27898   27899   27898   27900   27901   27902
   27901   27903   27904   27905   27904   27906   27907   27908
   27907   27909   27910   27911   27910   27912   27913   27914
   27913   27915   27916   27917   27916   27918   27919   27920
   27919   27921   27922   27923   27922   27924   27925   27926
   27925   27927   27928   27929   27928   27930   27931   27932
   27931   27933   27934   27935   27934   27936   27937   27938
   27937   27939   27940   27941   27940   27942   27943   27944
   27943   27945   27946   27947   27946   27948   27949   27950
   27949   27951   27952   27953   27952   27954   27955   27956
   27955   27957   27958   27959   27958   27960   27961   27962
   27961   27963   27964   27965   27964   27966   27967   27968
   27967   27969   27970   27971   27970   27972   27973   27974
   27973   27975   27976   27977   27976   27978   27979   27980
   27979   27981   27982   27983   27982   27984   27985   27986
   27985   27987   27988   27989   27988   27990   27991   27992
   27991   27993   27994   27995   27994   27996   27997   27998
   27997   27999   28000   28001   28000   28002   28003   28004
   28003   28005   28006   28007   28006   28008   28009   28010
   28009   28011   28012   28013   28012   28014   28015   28016
   28015   28017   28018   28019   28018   28020   28021   28022
   28021   28023   28024   28025   28024   28026   28027   28028
   28027   28029   28030   28031   28030   28032   28033   28034
   28033   28035   28036   28037   28036   28038   28039   28040
   28039   28041   28042   28043   28042   28044   28045   28046
   28045   28047   28048   28049   28048   28050   28051   28052
   28051   28053   28054   28055   28054   28056   28057   28058
   28057   28059   28060   28061   28060   28062   28063   28064
   28063   28065   28066   28067   28066   28068   28069   28070
   28069   28071   28072   28073   28072   28074   28075   28076
   28075   28077   28078   28079   28078   28080   28081   28082
   28081   28083   28084   28085   28084   28086   28087   28088
   28087   28089   28090   28091   28090   28092   28093   28094
   28093   28095   28096   28097   28096   28098   28099   28100
   28099   28101   28102   28103   28102   28104   28105   28106
   28105   28107   28108   28109   28108   28110   28111   28112
   28111   28113   28114   28115   28114   28116   28117   28118
   28117   28119   28120   28121   28120   28122   28123   28124
   28123   28125   28126   28127   28126   28128   28129   28130
   28129   28131   28132   28133   28132   28134   28135   28136
   28135   28137   28138   28139   28138   28140   28141   28142
   28141   28143   28144   28145   28144   28146   28147   28148
   28147   28149   28150   28151   28150   28152   28153   28154
   28153   28155   28156   28157   28156   28158   28159   28160
   28159   28161   28162   28163   28162   28164   28165   28166
   28165   28167   28168   28169   28168   28170   28171   28172
   28171   28173   28174   28175   28174   28176   28177   28178
   28177   28179   28180   28181   28180   28182   28183   28184
   28183   28185   28186   28187   28186   28188   28189   28190
   28189   28191   28192   28193   28192   28194   28195   28196
   28195   28197   28198   28199   28198   28200   28201   28202
   28201   28203   28204   28205   28204   28206   28207   28208
   28207   28209   28210   28211   28210   28212   28213   28214
   28213   28215   28216   28217   28216   28218   28219   28220
   28219   28221   28222   28223   28222   28224   28225   28226
   28225   28227   28228   28229   28228   28230   28231   28232
   28231   28233   28234   28235   28234   28236   28237   28238
   28237   28239   28240   28241   28240   28242   28243   28244
   28243   28245   28246   28247   28246   28248   28249   28250
   28249   28251   28252   28253   28252   28254   28255   28256
   28255   28257   28258   28259   28258   28260   28261   28262
   28261   28263   28264   28265   28264   28266   28267   28268
   28267   28269   28270   28271   28270   28272   28273   28274
   28273   28275   28276   28277   28276   28278   28279   28280
   28279   28281   28282   28283   28282   28284   28285   28286
   28285   28287   28288   28289   28288   28290   28291   28292
   28291   28293   28294   28295   28294   28296   28297   28298
   28297   28299   28300   28301   28300   28302   28303   28304
   28303   28305   28306   28307   28306   28308   28309   28310
   28309   28311   28312   28313   28312   28314   28315   28316
   28315   28317   28318   28319   28318   28320   28321   28322
   28321   28323   28324   28325   28324   28326   28327   28328
   28327   28329   28330   28331   28330   28332   28333   28334
   28333   28335   28336   28337   28336   28338   28339   28340
   28339   28341   28342   28343   28342   28344   28345   28346
   28345   28347   28348   28349   28348   28350   28351   28352
   28351   28353   28354   28355   28354   28356   28357   28358
   28357   28359   28360   28361   28360   28362   28363   28364
   28363   28365   28366   28367   28366   28368   28369   28370
   28369   28371   28372   28373   28372   28374   28375   28376
   28375   28377   28378   28379   28378   28380   28381   28382
   28381   28383   28384   28385   28384   28386   28387   28388
   28387   28389   28390   28391   28390   28392   28393   28394
   28393   28395   28396   28397   28396   28398   28399   28400
   28399   28401   28402   28403   28402   28404   28405   28406
   28405   28407   28408   28409   28408   28410   28411   28412
   28411   28413   28414   28415   28414   28416   28417   28418
   28417   28419   28420   28421   28420   28422   28423   28424
   28423   28425   28426   28427   28426   28428   28429   28430
   28429   28431   28432   28433   28432   28434   28435   28436
   28435   28437   28438   28439   28438   28440   28441   28442
   28441   28443   28444   28445   28444   28446   28447   28448
   28447   28449   28450   28451   28450   28452   28453   28454
   28453   28455   28456   28457   28456   28458   28459   28460
   28459   28461   28462   28463   28462   28464   28465   28466
   28465   28467   28468   28469   28468   28470   28471   28472
   28471   28473   28474   28475   28474   28476   28477   28478
   28477   28479   28480   28481   28480   28482   28483   28484
   28483   28485   28486   28487   28486   28488   28489   28490
   28489   28491   28492   28493   28492   28494   28495   28496
   28495   28497   28498   28499   28498   28500   28501   28502
   28501   28503   28504   28505   28504   28506   28507   28508
   28507   28509   28510   28511   28510   28512   28513   28514
   28513   28515   28516   28517   28516   28518   28519   28520
   28519   28521   28522   28523   28522   28524   28525   28526
   28525   28527   28528   28529   28528   28530   28531   28532
   28531   28533   28534   28535   28534   28536   28537   28538
   28537   28539   28540   28541   28540   28542   28543   28544
   28543   28545   28546   28547   28546   28548   28549   28550
   28549   28551   28552   28553   28552   28554   28555   28556
   28555   28557   28558   28559   28558   28560   28561   28562
   28561   28563   28564   28565   28564   28566   28567   28568
   28567   28569   28570   28571   28570   28572   28573   28574
   28573   28575   28576   28577   28576   28578   28579   28580
   28579   28581   28582   28583   28582   28584   28585   28586
   28585   28587   28588   28589   28588   28590   28591   28592
   28591   28593   28594   28595   28594   28596   28597   28598
   28597   28599   28600   28601   28600   28602   28603   28604
   28603   28605   28606   28607   28606   28608   28609   28610
   28609   28611   28612   28613   28612   28614   28615   28616
   28615   28617   28618   28619   28618   28620   28621   28622
   28621   28623   28624   28625   28624   28626   28627   28628
   28627   28629   28630   28631   28630   28632   28633   28634
   28633   28635   28636   28637   28636   28638   28639   28640
   28639   28641   28642   28643   28642   28644   28645   28646
   28645   28647   28648   28649   28648   28650   28651   28652
   28651   28653   28654   28655   28654   28656   28657   28658
   28657   28659   28660   28661   28660   28662   28663   28664
   28663   28665   28666   28667   28666   28668   28669   28670
   28669   28671   28672   28673   28672   28674   28675   28676
   28675   28677   28678   28679   28678   28680   28681   28682
   28681   28683   28684   28685   28684   28686   28687   28688
   28687   28689   28690   28691   28690   28692   28693   28694
   28693   28695   28696   28697   28696   28698   28699   28700
   28699   28701   28702   28703   28702   28704   28705   28706
   28705   28707   28708   28709   28708   28710   28711   28712
   28711   28713   28714   28715   28714   28716   28717   28718
   28717   28719   28720   28721   28720   28722   28723   28724
   28723   28725   28726   28727   28726   28728   28729   28730
   28729   28731   28732   28733   28732   28734   28735   28736
   28735   28737   28738   28739   28738   28740   28741   28742
   28741   28743   28744   28745   28744   28746   28747   28748
   28747   28749   28750   28751   28750   28752   28753   28754
   28753   28755   28756   28757   28756   28758   28759   28760
   28759   28761   28762   28763   28762   28764   28765   28766
   28765   28767   28768   28769   28768   28770   28771   28772
   28771   28773   28774   28775   28774   28776   28777   28778
   28777   28779   28780   28781   28780   28782   28783   28784
   28783   28785   28786   28787   28786   28788   28789   28790
   28789   28791   28792   28793   28792   28794   28795   28796
   28795   28797   28798   28799   28798   28800   28801   28802
   28801   28803   28804   28805   28804   28806   28807   28808
   28807   28809   28810   28811   28810   28812   28813   28814
   28813   28815   28816   28817   28816   28818   28819   28820
   28819   28821   28822   28823   28822   28824   28825   28826
   28825   28827   28828   28829   28828   28830   28831   28832
   28831   28833   28834   28835   28834   28836   28837   28838
   28837   28839   28840   28841   28840   28842   28843   28844
   28843   28845   28846   28847   28846   28848   28849   28850
   28849   28851   28852   28853   28852   28854   28855   28856
   28855   28857   28858   28859   28858   28860   28861   28862
   28861   28863   28864   28865   28864   28866   28867   28868
   28867   28869   28870   28871   28870   28872   28873   28874
   28873   28875   28876   28877   28876   28878   28879   28880
   28879   28881   28882   28883   28882   28884   28885   28886
   28885   28887   28888   28889   28888   28890   28891   28892
   28891   28893   28894   28895   28894   28896   28897   28898
   28897   28899   28900   28901   28900   28902   28903   28904
   28903   28905   28906   28907   28906   28908   28909   28910
   28909   28911   28912   28913   28912   28914   28915   28916
   28915   28917   28918   28919   28918   28920   28921   28922
   28921   28923   28924   28925   28924   28926   28927   28928
   28927   28929   28930   28931   28930   28932   28933   28934
   28933   28935   28936   28937   28936   28938   28939   28940
   28939   28941   28942   28943   28942   28944   28945   28946
   28945   28947   28948   28949   28948   28950   28951   28952
   28951   28953   28954   28955   28954   28956   28957   28958
   28957   28959   28960   28961   28960   28962   28963   28964
   28963   28965   28966   28967   28966   28968   28969   28970
   28969   28971   28972   28973   28972   28974   28975   28976
   28975   28977   28978   28979   28978   28980   28981   28982
   28981   28983   28984   28985   28984   28986   28987   28988
   28987   28989   28990   28991   28990   28992   28993   28994
   28993   28995   28996   28997   28996   28998   28999   29000
   28999   29001   29002   29003   29002   29004   29005   29006
   29005   29007   29008   29009   29008   29010   29011   29012
   29011   29013   29014   29015   29014   29016   29017   29018
   29017   29019   29020   29021   29020   29022   29023   29024
   29023   29025   29026   29027   29026   29028   29029   29030
   29029   29031   29032   29033   29032   29034   29035   29036
   29035   29037   29038   29039   29038   29040   29041   29042
   29041   29043   29044   29045   29044   29046   29047   29048
   29047   29049   29050   29051   29050   29052   29053   29054
   29053   29055   29056   29057   29056   29058   29059   29060
   29059   29061   29062   29063   29062   29064   29065   29066
   29065   29067   29068   29069   29068   29070   29071   29072
   29071   29073   29074   29075   29074   29076   29077   29078
   29077   29079   29080   29081   29080   29082   29083   29084
   29083   29085   29086   29087   29086   29088   29089   29090
   29089   29091   29092   29093   29092   29094   29095   29096
   29095   29097   29098   29099   29098   29100   29101   29102
   29101   29103   29104   29105   29104   29106   29107   29108
   29107   29109   29110   29111   29110   29112   29113   29114
   29113   29115   29116   29117   29116   29118   29119   29120
   29119   29121   29122   29123   29122   29124   29125   29126
   29125   29127   29128   29129   29128   29130   29131   29132
   29131   29133   29134   29135   29134   29136   29137   29138
   29137   29139   29140   29141   29140   29142   29143   29144
   29143   29145   29146   29147   29146   29148   29149   29150
   29149   29151   29152   29153   29152   29154   29155   29156
   29155   29157   29158   29159   29158   29160   29161   29162
   29161   29163   29164   29165   29164   29166   29167   29168
   29167   29169   29170   29171   29170   29172   29173   29174
   29173   29175   29176   29177   29176   29178   29179   29180
   29179   29181   29182   29183   29182   29184   29185   29186
   29185   29187   29188   29189   29188   29190   29191   29192
   29191   29193   29194   29195   29194   29196   29197   29198
   29197   29199   29200   29201   29200   29202   29203   29204
   29203   29205   29206   29207   29206   29208   29209   29210
   29209   29211   29212   29213   29212   29214   29215   29216
   29215   29217   29218   29219   29218   29220   29221   29222
   29221   29223   29224   29225   29224   29226   29227   29228
   29227   29229   29230   29231   29230   29232   29233   29234
   29233   29235   29236   29237   29236   29238   29239   29240
   29239   29241   29242   29243   29242   29244   29245   29246
   29245   29247   29248   29249   29248   29250   29251   29252
   29251   29253   29254   29255   29254   29256   29257   29258
   29257   29259   29260   29261   29260   29262   29263   29264
   29263   29265   29266   29267   29266   29268   29269   29270
   29269   29271   29272   29273   29272   29274   29275   29276
   29275   29277   29278   29279   29278   29280   29281   29282
   29281   29283   29284   29285   29284   29286   29287   29288
   29287   29289   29290   29291   29290   29292   29293   29294
   29293   29295   29296   29297   29296   29298   29299   29300
   29299   29301   29302   29303   29302   29304   29305   29306
   29305   29307   29308   29309   29308   29310   29311   29312
   29311   29313   29314   29315   29314   29316   29317   29318
   29317   29319   29320   29321   29320   29322   29323   29324
   29323   29325   29326   29327   29326   29328   29329   29330
   29329   29331   29332   29333   29332   29334   29335   29336
   29335   29337   29338   29339   29338   29340   29341   29342
   29341   29343   29344   29345   29344   29346   29347   29348
   29347   29349   29350   29351   29350   29352   29353   29354
   29353   29355   29356   29357   29356   29358   29359   29360
   29359   29361   29362   29363   29362   29364   29365   29366
   29365   29367   29368   29369   29368   29370   29371   29372
   29371   29373   29374   29375   29374   29376   29377   29378
   29377   29379   29380   29381   29380   29382   29383   29384
   29383   29385   29386   29387   29386   29388   29389   29390
   29389   29391   29392   29393   29392   29394   29395   29396
   29395   29397   29398   29399   29398   29400   29401   29402
   29401   29403   29404   29405   29404   29406   29407   29408
   29407   29409   29410   29411   29410   29412   29413   29414
   29413   29415   29416   29417   29416   29418   29419   29420
   29419   29421   29422   29423   29422   29424   29425   29426
   29425   29427   29428   29429   29428   29430   29431   29432
   29431   29433   29434   29435   29434   29436   29437   29438
   29437   29439   29440   29441   29440   29442   29443   29444
   29443   29445   29446   29447   29446   29448   29449   29450
   29449   29451   29452   29453   29452   29454   29455   29456
   29455   29457   29458   29459   29458   29460   29461   29462
   29461   29463   29464   29465   29464   29466   29467   29468
   29467   29469   29470   29471   29470   29472   29473   29474
   29473   29475   29476   29477   29476   29478   29479   29480
   29479   29481   29482   29483   29482   29484   29485   29486
   29485   29487   29488   29489   29488   29490   29491   29492
   29491   29493   29494   29495   29494   29496   29497   29498
   29497   29499   29500   29501   29500   29502   29503   29504
   29503   29505   29506   29507   29506   29508   29509   29510
   29509   29511   29512   29513   29512   29514   29515   29516
   29515   29517   29518   29519   29518   29520   29521   29522
   29521   29523   29524   29525   29524   29526   29527   29528
   29527   29529   29530   29531   29530   29532   29533   29534
   29533   29535   29536   29537   29536   29538   29539   29540
   29539   29541   29542   29543   29542   29544   29545   29546
   29545   29547   29548   29549   29548   29550   29551   29552
   29551   29553   29554   29555   29554   29556   29557   29558
   29557   29559   29560   29561   29560   29562   29563   29564
   29563   29565   29566   29567   29566   29568   29569   29570
   29569   29571   29572   29573   29572   29574   29575   29576
   29575   29577   29578   29579   29578   29580   29581   29582
   29581   29583   29584   29585   29584   29586   29587   29588
   29587   29589   29590   29591   29590   29592   29593   29594
   29593   29595   29596   29597   29596   29598   29599   29600
   29599   29601   29602   29603   29602   29604   29605   29606
   29605   29607   29608   29609   29608   29610   29611   29612
   29611   29613   29614   29615   29614   29616   29617   29618
   29617   29619   29620   29621   29620   29622   29623   29624
   29623   29625   29626   29627   29626   29628   29629   29630
   29629   29631   29632   29633   29632   29634   29635   29636
   29635   29637   29638   29639   29638   29640   29641   29642
   29641   29643   29644   29645   29644   29646   29647   29648
   29647   29649   29650   29651   29650   29652   29653   29654
   29653   29655   29656   29657   29656   29658   29659   29660
   29659   29661   29662   29663   29662   29664   29665   29666
   29665   29667   29668   29669   29668   29670   29671   29672
   29671   29673   29674   29675   29674   29676   29677   29678
   29677   29679   29680   29681   29680   29682   29683   29684
   29683   29685   29686   29687   29686   29688   29689   29690
   29689   29691   29692   29693   29692   29694   29695   29696
   29695   29697   29698   29699   29698   29700   29701   29702
   29701   29703   29704   29705   29704   29706   29707   29708
   29707   29709   29710   29711   29710   29712   29713   29714
   29713   29715   29716   29717   29716   29718   29719   29720
   29719   29721   29722   29723   29722   29724   29725   29726
   29725   29727   29728   29729   29728   29730   29731   29732
   29731   29733   29734   29735   29734   29736   29737   29738
   29737   29739   29740   29741   29740   29742   29743   29744
   29743   29745   29746   29747   29746   29748   29749   29750
   29749   29751   29752   29753   29752   29754   29755   29756
   29755   29757   29758   29759   29758   29760   29761   29762
   29761   29763   29764   29765   29764   29766   29767   29768
   29767   29769   29770   29771   29770   29772   29773   29774
   29773   29775   29776   29777   29776   29778   29779   29780
   29779   29781   29782   29783   29782   29784   29785   29786
   29785   29787   29788   29789   29788   29790   29791   29792
   29791   29793   29794   29795   29794   29796   29797   29798
   29797   29799   29800   29801   29800   29802   29803   29804
   29803   29805   29806   29807   29806   29808   29809   29810
   29809   29811   29812   29813   29812   29814   29815   29816
   29815   29817   29818   29819   29818   29820   29821   29822
   29821   29823   29824   29825   29824   29826   29827   29828
   29827   29829   29830   29831   29830   29832   29833   29834
   29833   29835   29836   29837   29836   29838   29839   29840
   29839   29841   29842   29843   29842   29844   29845   29846
   29845   29847   29848   29849   29848   29850   29851   29852
   29851   29853   29854   29855   29854   29856   29857   29858
   29857   29859   29860   29861   29860   29862   29863   29864
   29863   29865   29866   29867   29866   29868   29869   29870
   29869   29871   29872   29873   29872   29874   29875   29876
   29875   29877   29878   29879   29878   29880   29881   29882
   29881   29883   29884   29885   29884   29886   29887   29888
   29887   29889   29890   29891   29890   29892   29893   29894
   29893   29895   29896   29897   29896   29898   29899   29900
   29899   29901   29902   29903   29902   29904   29905   29906
   29905   29907   29908   29909   29908   29910   29911   29912
   29911   29913   29914   29915   29914   29916   29917   29918
   29917   29919   29920   29921   29920   29922   29923   29924
   29923   29925   29926   29927   29926   29928   29929   29930
   29929   29931   29932   29933   29932   29934   29935   29936
   29935   29937   29938   29939   29938   29940   29941   29942
   29941   29943   29944   29945   29944   29946   29947   29948
   29947   29949   29950   29951   29950   29952   29953   29954
   29953   29955   29956   29957   29956   29958   29959   29960
   29959   29961   29962   29963   29962   29964   29965   29966
   29965   29967   29968   29969   29968   29970   29971   29972
   29971   29973   29974   29975   29974   29976   29977   29978
   29977   29979   29980   29981   29980   29982   29983   29984
   29983   29985   29986   29987   29986   29988   29989   29990
   29989   29991   29992   29993   29992   29994   29995   29996
   29995   29997   29998   29999   29998   30000   30001   30002
   30001   30003   30004   30005   30004   30006   30007   30008
   30007   30009   30010   30011   30010   30012   30013   30014
   30013   30015   30016   30017   30016   30018   30019   30020
   30019   30021   30022   30023   30022   30024   30025   30026
   30025   30027   30028   30029   30028   30030   30031   30032
   30031   30033   30034   30035   30034   30036   30037   30038
   30037   30039   30040   30041   30040   30042   30043   30044
   30043   30045   30046   30047   30046   30048   30049   30050
   30049   30051   30052   30053   30052   30054   30055   30056
   30055   30057   30058   30059   30058   30060   30061   30062
   30061   30063   30064   30065   30064   30066   30067   30068
   30067   30069   30070   30071   30070   30072   30073   30074
   30073   30075   30076   30077   30076   30078   30079   30080
   30079   30081   30082   30083   30082   30084   30085   30086
   30085   30087   30088   30089   30088   30090   30091   30092
   30091   30093   30094   30095   30094   30096   30097   30098
   30097   30099   30100   30101   30100   30102   30103   30104
   30103   30105   30106   30107   30106   30108   30109   30110
   30109   30111   30112   30113   30112   30114   30115   30116
   30115   30117   30118   30119   30118   30120   30121   30122
   30121   30123   30124   30125   30124   30126   30127   30128
   30127   30129   30130   30131   30130   30132   30133   30134
   30133   30135   30136   30137   30136   30138   30139   30140
   30139   30141   30142   30143   30142   30144   30145   30146
   30145   30147   30148   30149   30148   30150   30151   30152
   30151   30153   30154   30155   30154   30156   30157   30158
   30157   30159   30160   30161   30160   30162   30163   30164
   30163   30165   30166   30167   30166   30168   30169   30170
   30169   30171   30172   30173   30172   30174   30175   30176
   30175   30177   30178   30179   30178   30180   30181   30182
   30181   30183   30184   30185   30184   30186   30187   30188
   30187   30189   30190   30191   30190   30192   30193   30194
   30193   30195   30196   30197   30196   30198   30199   30200
   30199   30201   30202   30203   30202   30204   30205   30206
   30205   30207   30208   30209   30208   30210   30211   30212
   30211   30213   30214   30215   30214   30216   30217   30218
   30217   30219   30220   30221   30220   30222   30223   30224
   30223   30225   30226   30227   30226   30228   30229   30230
   30229   30231   30232   30233   30232   30234   30235   30236
   30235   30237   30238   30239   30238   30240   30241   30242
   30241   30243   30244   30245   30244   30246   30247   30248
   30247   30249   30250   30251   30250   30252   30253   30254
   30253   30255   30256   30257   30256   30258   30259   30260
   30259   30261   30262   30263   30262   30264   30265   30266
   30265   30267   30268   30269   30268   30270   30271   30272
   30271   30273   30274   30275   30274   30276   30277   30278
   30277   30279   30280   30281   30280   30282   30283   30284
   30283   30285   30286   30287   30286   30288   30289   30290
   30289   30291   30292   30293   30292   30294   30295   30296
   30295   30297   30298   30299   30298   30300   30301   30302
   30301   30303   30304   30305   30304   30306   30307   30308
   30307   30309   30310   30311   30310   30312   30313   30314
   30313   30315   30316   30317   30316   30318   30319   30320
   30319   30321   30322   30323   30322   30324   30325   30326
   30325   30327   30328   30329   30328   30330   30331   30332
   30331   30333   30334   30335   30334   30336   30337   30338
   30337   30339   30340   30341   30340   30342   30343   30344
   30343   30345   30346   30347   30346   30348   30349   30350
   30349   30351   30352   30353   30352   30354   30355   30356
   30355   30357   30358   30359   30358   30360   30361   30362
   30361   30363   30364   30365   30364   30366   30367   30368
   30367   30369   30370   30371   30370   30372   30373   30374
   30373   30375   30376   30377   30376   30378   30379   30380
   30379   30381   30382   30383   30382   30384   30385   30386
   30385   30387   30388   30389   30388   30390   30391   30392
   30391   30393   30394   30395   30394   30396   30397   30398
   30397   30399   30400   30401   30400   30402   30403   30404
   30403   30405   30406   30407   30406   30408   30409   30410
   30409   30411   30412   30413   30412   30414   30415   30416
   30415   30417   30418   30419   30418   30420   30421   30422
   30421   30423   30424   30425   30424   30426   30427   30428
   30427   30429   30430   30431   30430   30432   30433   30434
   30433   30435   30436   30437   30436   30438   30439   30440
   30439   30441   30442   30443   30442   30444   30445   30446
   30445   30447   30448   30449   30448   30450   30451   30452
   30451   30453   30454   30455   30454   30456   30457   30458
   30457   30459   30460   30461   30460   30462   30463   30464
   30463   30465   30466   30467   30466   30468   30469   30470
   30469   30471   30472   30473   30472   30474   30475   30476
   30475   30477   30478   30479   30478   30480   30481   30482
   30481   30483   30484   30485   30484   30486   30487   30488
   30487   30489   30490   30491   30490   30492   30493   30494
   30493   30495   30496   30497   30496   30498   30499   30500
   30499   30501   30502   30503   30502   30504   30505   30506
   30505   30507   30508   30509   30508   30510   30511   30512
   30511   30513   30514   30515   30514   30516   30517   30518
   30517   30519   30520   30521   30520   30522   30523   30524
   30523   30525   30526   30527   30526   30528   30529   30530
   30529   30531   30532   30533   30532   30534   30535   30536
   30535   30537   30538   30539   30538   30540   30541   30542
   30541   30543   30544   30545   30544   30546   30547   30548
   30547   30549   30550   30551   30550   30552   30553   30554
   30553   30555   30556   30557   30556   30558   30559   30560
   30559   30561   30562   30563   30562   30564   30565   30566
   30565   30567   30568   30569   30568   30570   30571   30572
   30571   30573   30574   30575   30574   30576   30577   30578
   30577   30579   30580   30581   30580   30582   30583   30584
   30583   30585   30586   30587   30586   30588   30589   30590
   30589   30591   30592   30593   30592   30594   30595   30596
   30595   30597   30598   30599   30598   30600   30601   30602
   30601   30603   30604   30605   30604   30606   30607   30608
   30607   30609   30610   30611   30610   30612   30613   30614
   30613   30615   30616   30617   30616   30618   30619   30620
   30619   30621   30622   30623   30622   30624   30625   30626
   30625   30627   30628   30629   30628   30630   30631   30632
   30631   30633   30634   30635   30634   30636   30637   30638
   30637   30639   30640   30641   30640   30642   30643   30644
   30643   30645   30646   30647   30646   30648   30649   30650
   30649   30651   30652   30653   30652   30654   30655   30656
   30655   30657   30658   30659   30658   30660   30661   30662
   30661   30663   30664   30665   30664   30666   30667   30668
   30667   30669   30670   30671   30670   30672   30673   30674
   30673   30675   30676   30677   30676   30678   30679   30680
   30679   30681   30682   30683   30682   30684   30685   30686
   30685   30687   30688   30689   30688   30690   30691   30692
   30691   30693   30694   30695   30694   30696   30697   30698
   30697   30699   30700   30701   30700   30702   30703   30704
   30703   30705   30706   30707   30706   30708   30709   30710
   30709   30711   30712   30713   30712   30714   30715   30716
   30715   30717   30718   30719   30718   30720   30721   30722
   30721   30723   30724   30725   30724   30726   30727   30728
   30727   30729   30730   30731   30730   30732   30733   30734
   30733   30735   30736   30737   30736   30738   30739   30740
   30739   30741   30742   30743   30742   30744   30745   30746
   30745   30747   30748   30749   30748   30750   30751   30752
   30751   30753   30754   30755   30754   30756   30757   30758
   30757   30759   30760   30761   30760   30762   30763   30764
   30763   30765   30766   30767   30766   30768   30769   30770
   30769   30771   30772   30773   30772   30774   30775   30776
   30775   30777   30778   30779   30778   30780   30781   30782
   30781   30783   30784   30785   30784   30786   30787   30788
   30787   30789   30790   30791   30790   30792   30793   30794
   30793   30795   30796   30797   30796   30798   30799   30800
   30799   30801   30802   30803   30802   30804   30805   30806
   30805   30807   30808   30809   30808   30810   30811   30812
   30811   30813   30814   30815   30814   30816   30817   30818
   30817   30819   30820   30821   30820   30822   30823   30824
   30823   30825   30826   30827   30826   30828   30829   30830
   30829   30831   30832   30833   30832   30834   30835   30836
   30835   30837   30838   30839   30838   30840   30841   30842
   30841   30843   30844   30845   30844   30846   30847   30848
   30847   30849   30850   30851   30850   30852   30853   30854
   30853   30855   30856   30857   30856   30858   30859   30860
   30859   30861   30862   30863   30862   30864   30865   30866
   30865   30867   30868   30869   30868   30870   30871   30872
   30871   30873   30874   30875   30874   30876   30877   30878
   30877   30879   30880   30881   30880   30882   30883   30884
   30883   30885   30886   30887   30886   30888   30889   30890
   30889   30891   30892   30893   30892   30894   30895   30896
   30895   30897   30898   30899   30898   30900   30901   30902
   30901   30903   30904   30905   30904   30906   30907   30908
   30907   30909   30910   30911   30910   30912   30913   30914
   30913   30915   30916   30917   30916   30918   30919   30920
   30919   30921   30922   30923   30922   30924   30925   30926
   30925   30927   30928   30929   30928   30930   30931   30932
   30931   30933   30934   30935   30934   30936   30937   30938
   30937   30939   30940   30941   30940   30942   30943   30944
   30943   30945   30946   30947   30946   30948   30949   30950
   30949   30951   30952   30953   30952   30954   30955   30956
   30955   30957   30958   30959   30958   30960   30961   30962
   30961   30963   30964   30965   30964   30966   30967   30968
   30967   30969   30970   30971   30970   30972   30973   30974
   30973   30975   30976   30977   30976   30978   30979   30980
   30979   30981   30982   30983   30982   30984   30985   30986
   30985   30987   30988   30989   30988   30990   30991   30992
   30991   30993   30994   30995   30994   30996   30997   30998
   30997   30999   31000   31001   31000   31002   31003   31004
   31003   31005   31006   31007   31006   31008   31009   31010
   31009   31011   31012   31013   31012   31014   31015   31016
   31015   31017   31018   31019   31018   31020   31021   31022
   31021   31023   31024   31025   31024   31026   31027   31028
   31027   31029   31030   31031   31030   31032   31033   31034
   31033   31035   31036   31037   31036   31038   31039   31040
   31039   31041   31042   31043   31042   31044   31045   31046
   31045   31047   31048   31049   31048   31050   31051   31052
   31051   31053   31054   31055   31054   31056   31057   31058
   31057   31059   31060   31061   31060   31062   31063   31064
   31063   31065   31066   31067   31066   31068   31069   31070
   31069   31071   31072   31073   31072   31074   31075   31076
   31075   31077   31078   31079   31078   31080   31081   31082
   31081   31083   31084   31085   31084   31086   31087   31088
   31087   31089   31090   31091   31090   31092   31093   31094
   31093   31095   31096   31097   31096   31098   31099   31100
   31099   31101   31102   31103   31102   31104   31105   31106
   31105   31107   31108   31109   31108   31110   31111   31112
   31111   31113   31114   31115   31114   31116   31117   31118
   31117   31119   31120   31121   31120   31122   31123   31124
   31123   31125   31126   31127   31126   31128   31129   31130
   31129   31131   31132   31133   31132   31134   31135   31136
   31135   31137   31138   31139   31138   31140   31141   31142
   31141   31143   31144   31145   31144   31146   31147   31148
   31147   31149   31150   31151   31150   31152   31153   31154
   31153   31155   31156   31157   31156   31158   31159   31160
   31159   31161   31162   31163   31162   31164   31165   31166
   31165   31167   31168   31169   31168   31170   31171   31172
   31171   31173   31174   31175   31174   31176   31177   31178
   31177   31179   31180   31181   31180   31182   31183   31184
   31183   31185   31186   31187   31186   31188   31189   31190
   31189   31191   31192   31193   31192   31194   31195   31196
   31195   31197   31198   31199   31198   31200   31201   31202
   31201   31203   31204   31205   31204   31206   31207   31208
   31207   31209   31210   31211   31210   31212   31213   31214
   31213   31215   31216   31217   31216   31218   31219   31220
   31219   31221   31222   31223   31222   31224   31225   31226
   31225   31227   31228   31229   31228   31230   31231   31232
   31231   31233   31234   31235   31234   31236   31237   31238
   31237   31239   31240   31241   31240   31242   31243   31244
   31243   31245   31246   31247   31246   31248   31249   31250
   31249   31251   31252   31253   31252   31254   31255   31256
   31255   31257   31258   31259   31258   31260   31261   31262
   31261   31263   31264   31265   31264   31266   31267   31268
   31267   31269   31270   31271   31270   31272   31273   31274
   31273   31275   31276   31277   31276   31278   31279   31280
   31279   31281   31282   31283   31282   31284   31285   31286
   31285   31287   31288   31289   31288   31290   31291   31292
   31291   31293   31294   31295   31294   31296   31297   31298
   31297   31299   31300   31301   31300   31302   31303   31304
   31303   31305   31306   31307   31306   31308   31309   31310
   31309   31311   31312   31313   31312   31314   31315   31316
   31315   31317   31318   31319   31318   31320   31321   31322
   31321   31323   31324   31325   31324   31326   31327   31328
   31327   31329   31330   31331   31330   31332   31333   31334
   31333   31335   31336   31337   31336   31338   31339   31340
   31339   31341   31342   31343   31342   31344   31345   31346
   31345   31347   31348   31349   31348   31350   31351   31352
   31351   31353   31354   31355   31354   31356   31357   31358
   31357   31359   31360   31361   31360   31362   31363   31364
   31363   31365   31366   31367   31366   31368   31369   31370
   31369   31371   31372   31373   31372   31374   31375   31376
   31375   31377   31378   31379   31378   31380   31381   31382
   31381   31383   31384   31385   31384   31386   31387   31388
   31387   31389   31390   31391   31390   31392   31393   31394
   31393   31395   31396   31397   31396   31398   31399   31400
   31399   31401   31402   31403   31402   31404   31405   31406
   31405   31407   31408   31409   31408   31410   31411   31412
   31411   31413   31414   31415   31414   31416   31417   31418
   31417   31419   31420   31421   31420   31422   31423   31424
   31423   31425   31426   31427   31426   31428   31429   31430
   31429   31431   31432   31433   31432   31434   31435   31436
   31435   31437   31438   31439   31438   31440   31441   31442
   31441   31443   31444   31445   31444   31446   31447   31448
   31447   31449   31450   31451   31450   31452   31453   31454
   31453   31455   31456   31457   31456   31458   31459   31460
   31459   31461   31462   31463   31462   31464   31465   31466
   31465   31467   31468   31469   31468   31470   31471   31472
   31471   31473   31474   31475   31474   31476   31477   31478
   31477   31479   31480   31481   31480   31482   31483   31484
   31483   31485   31486   31487   31486   31488   31489   31490
   31489   31491   31492   31493   31492   31494   31495   31496
   31495   31497   31498   31499   31498   31500   31501   31502
   31501   31503   31504   31505   31504   31506   31507   31508
   31507   31509   31510   31511   31510   31512   31513   31514
   31513   31515   31516   31517   31516   31518   31519   31520
   31519   31521   31522   31523   31522   31524   31525   31526
   31525   31527   31528   31529   31528   31530   31531   31532
   31531   31533   31534   31535   31534   31536   31537   31538
   31537   31539   31540   31541   31540   31542   31543   31544
   31543   31545   31546   31547   31546   31548   31549   31550
   31549   31551   31552   31553   31552   31554   31555   31556
   31555   31557   31558   31559   31558   31560   31561   31562
   31561   31563   31564   31565   31564   31566   31567   31568
   31567   31569   31570   31571   31570   31572   31573   31574
   31573   31575   31576   31577   31576   31578   31579   31580
   31579   31581   31582   31583   31582   31584   31585   31586
   31585   31587   31588   31589   31588   31590   31591   31592
   31591   31593   31594   31595   31594   31596   31597   31598
   31597   31599   31600   31601   31600   31602   31603   31604
   31603   31605   31606   31607   31606   31608   31609   31610
   31609   31611   31612   31613   31612   31614   31615   31616
   31615   31617   31618   31619   31618   31620   31621   31622
   31621   31623   31624   31625   31624   31626   31627   31628
   31627   31629   31630   31631   31630   31632   31633   31634
   31633   31635   31636   31637   31636   31638   31639   31640
   31639   31641   31642   31643   31642   31644   31645   31646
   31645   31647   31648   31649   31648   31650   31651   31652
   31651   31653   31654   31655   31654   31656   31657   31658
   31657   31659   31660   31661   31660   31662   31663   31664
   31663   31665   31666   31667   31666   31668   31669   31670
   31669   31671   31672   31673   31672   31674   31675   31676
   31675   31677   31678   31679   31678   31680   31681   31682
   31681   31683   31684   31685   31684   31686   31687   31688
   31687   31689   31690   31691   31690   31692   31693   31694
   31693   31695   31696   31697   31696   31698   31699   31700
   31699   31701   31702   31703   31702   31704   31705   31706
   31705   31707   31708   31709   31708   31710   31711   31712
   31711   31713   31714   31715   31714   31716   31717   31718
   31717   31719   31720   31721   31720   31722   31723   31724
   31723   31725   31726   31727   31726   31728   31729   31730
   31729   31731   31732   31733   31732   31734   31735   31736
   31735   31737   31738   31739   31738   31740   31741   31742
   31741   31743   31744   31745   31744   31746   31747   31748
   31747   31749   31750   31751   31750   31752   31753   31754
   31753   31755   31756   31757   31756   31758   31759   31760
   31759   31761   31762   31763   31762   31764   31765   31766
   31765   31767   31768   31769   31768   31770   31771   31772
   31771   31773   31774   31775   31774   31776   31777   31778
   31777   31779   31780   31781   31780   31782   31783   31784
   31783   31785   31786   31787   31786   31788   31789   31790
   31789   31791   31792   31793   31792   31794   31795   31796
   31795   31797   31798   31799   31798   31800   31801   31802
   31801   31803   31804   31805   31804   31806   31807   31808
   31807   31809   31810   31811   31810   31812   31813   31814
   31813   31815   31816   31817   31816   31818   31819   31820
   31819   31821   31822   31823   31822   31824   31825   31826
   31825   31827   31828   31829   31828   31830   31831   31832
   31831   31833   31834   31835   31834   31836   31837   31838
   31837   31839   31840   31841   31840   31842   31843   31844
   31843   31845   31846   31847   31846   31848   31849   31850
   31849   31851   31852   31853   31852   31854   31855   31856
   31855   31857   31858   31859   31858   31860   31861   31862
   31861   31863   31864   31865   31864   31866   31867   31868
   31867   31869   31870   31871   31870   31872   31873   31874
   31873   31875   31876   31877   31876   31878   31879   31880
   31879   31881   31882   31883   31882   31884   31885   31886
   31885   31887   31888   31889   31888   31890   31891   31892
   31891   31893   31894   31895   31894   31896   31897   31898
   31897   31899   31900   31901   31900   31902   31903   31904
   31903   31905   31906   31907   31906   31908   31909   31910
   31909   31911   31912   31913   31912   31914   31915   31916
   31915   31917   31918   31919   31918   31920   31921   31922
   31921   31923   31924   31925   31924   31926   31927   31928
   31927   31929   31930   31931   31930   31932   31933   31934
   31933   31935   31936   31937   31936   31938   31939   31940
   31939   31941   31942   31943   31942   31944   31945   31946
   31945   31947   31948   31949   31948   31950   31951   31952
   31951   31953   31954   31955   31954   31956   31957   31958
   31957   31959   31960   31961   31960   31962   31963   31964
   31963   31965   31966   31967   31966   31968   31969   31970
   31969   31971   31972   31973   31972   31974   31975   31976
   31975   31977   31978   31979   31978   31980   31981   31982
   31981   31983   31984   31985   31984   31986   31987   31988
   31987   31989   31990   31991   31990   31992   31993   31994
   31993   31995   31996   31997   31996   31998   31999   32000
   31999   32001   32002   32003   32002   32004   32005   32006
   32005   32007   32008   32009   32008   32010   32011   32012
   32011   32013   32014   32015   32014   32016   32017   32018
   32017   32019   32020   32021   32020   32022   32023   32024
   32023   32025   32026   32027   32026   32028   32029   32030
   32029   32031   32032   32033   32032   32034   32035   32036
   32035   32037   32038   32039   32038   32040   32041   32042
   32041   32043   32044   32045   32044   32046   32047   32048
   32047   32049   32050   32051   32050   32052   32053   32054
   32053   32055   32056   32057   32056   32058   32059   32060
   32059   32061   32062   32063   32062   32064   32065   32066
   32065   32067   32068   32069   32068   32070   32071   32072
   32071   32073   32074   32075   32074   32076   32077   32078
   32077   32079   32080   32081   32080   32082   32083   32084
   32083   32085   32086   32087   32086   32088   32089   32090
   32089   32091   32092   32093   32092   32094   32095   32096
   32095   32097   32098   32099   32098   32100   32101   32102
   32101   32103   32104   32105   32104   32106   32107   32108
   32107   32109   32110   32111   32110   32112   32113   32114
   32113   32115   32116   32117   32116   32118   32119   32120
   32119   32121   32122   32123   32122   32124   32125   32126
   32125   32127   32128   32129   32128   32130   32131   32132
   32131   32133   32134   32135   32134   32136   32137   32138
   32137   32139   32140   32141   32140   32142   32143   32144
   32143   32145   32146   32147   32146   32148   32149   32150
   32149   32151   32152   32153   32152   32154   32155   32156
   32155   32157   32158   32159   32158   32160   32161   32162
   32161   32163   32164   32165   32164   32166   32167   32168
   32167   32169   32170   32171   32170   32172   32173   32174
   32173   32175   32176   32177   32176   32178   32179   32180
   32179   32181   32182   32183   32182   32184   32185   32186
   32185   32187   32188   32189   32188   32190   32191   32192
   32191   32193   32194   32195   32194   32196   32197   32198
   32197   32199   32200   32201   32200   32202   32203   32204
   32203   32205   32206   32207   32206   32208   32209   32210
   32209   32211   32212   32213   32212   32214   32215   32216
   32215   32217   32218   32219   32218   32220   32221   32222
   32221   32223   32224   32225   32224   32226   32227   32228
   32227   32229   32230   32231   32230   32232   32233   32234
   32233   32235   32236   32237   32236   32238   32239   32240
   32239   32241   32242   32243   32242   32244   32245   32246
   32245   32247   32248   32249   32248   32250   32251   32252
   32251   32253   32254   32255   32254   32256   32257   32258
   32257   32259   32260   32261   32260   32262   32263   32264
   32263   32265   32266   32267   32266   32268   32269   32270
   32269   32271   32272   32273   32272   32274   32275   32276
   32275   32277   32278   32279   32278   32280   32281   32282
   32281   32283   32284   32285   32284   32286   32287   32288
   32287   32289   32290   32291   32290   32292   32293   32294
   32293   32295   32296   32297   32296   32298   32299   32300
   32299   32301   32302   32303   32302   32304   32305   32306
   32305   32307   32308   32309   32308   32310   32311   32312
   32311   32313   32314   32315   32314   32316   32317   32318
   32317   32319   32320   32321   32320   32322   32323   32324
   32323   32325   32326   32327   32326   32328   32329   32330
   32329   32331   32332   32333   32332   32334   32335   32336
   32335   32337   32338   32339   32338   32340   32341   32342
   32341   32343   32344   32345   32344   32346   32347   32348
   32347   32349   32350   32351   32350   32352   32353   32354
   32353   32355   32356   32357   32356   32358   32359   32360
   32359   32361   32362   32363   32362   32364   32365   32366
   32365   32367   32368   32369   32368   32370   32371   32372
   32371   32373   32374   32375   32374   32376   32377   32378
   32377   32379   32380   32381   32380   32382   32383   32384
   32383   32385   32386   32387   32386   32388   32389   32390
   32389   32391   32392   32393   32392   32394   32395   32396
   32395   32397   32398   32399   32398   32400   32401   32402
   32401   32403   32404   32405   32404   32406   32407   32408
   32407   32409   32410   32411   32410   32412   32413   32414
   32413   32415   32416   32417   32416   32418   32419   32420
   32419   32421   32422   32423   32422   32424   32425   32426
   32425   32427   32428   32429   32428   32430   32431   32432
   32431   32433   32434   32435   32434   32436   32437   32438
   32437   32439   32440   32441   32440   32442   32443   32444
   32443   32445   32446   32447   32446   32448   32449   32450
   32449   32451   32452   32453   32452   32454   32455   32456
   32455   32457   32458   32459   32458   32460   32461   32462
   32461   32463   32464   32465   32464   32466   32467   32468
   32467   32469   32470   32471   32470   32472   32473   32474
   32473   32475   32476   32477   32476   32478   32479   32480
   32479   32481   32482   32483   32482   32484   32485   32486
   32485   32487   32488   32489   32488   32490   32491   32492
   32491   32493   32494   32495   32494   32496   32497   32498
   32497   32499   32500   32501   32500   32502   32503   32504
   32503   32505   32506   32507   32506   32508   32509   32510
   32509   32511   32512   32513   32512   32514   32515   32516
   32515   32517   32518   32519   32518   32520   32521   32522
   32521   32523   32524   32525   32524   32526   32527   32528
   32527   32529   32530   32531   32530   32532   32533   32534
   32533   32535   32536   32537   32536   32538   32539   32540
   32539   32541   32542   32543   32542   32544   32545   32546
   32545   32547   32548   32549   32548   32550   32551   32552
   32551   32553   32554   32555   32554   32556   32557   32558
   32557   32559   32560   32561   32560   32562   32563   32564
   32563   32565   32566   32567   32566   32568   32569   32570
   32569   32571   32572   32573   32572   32574   32575   32576
   32575   32577   32578   32579   32578   32580   32581   32582
   32581   32583   32584   32585   32584   32586   32587   32588
   32587   32589   32590   32591   32590   32592   32593   32594
   32593   32595   32596   32597   32596   32598   32599   32600
   32599   32601   32602   32603   32602   32604   32605   32606
   32605   32607   32608   32609   32608   32610   32611   32612
   32611   32613   32614   32615   32614   32616   32617   32618
   32617   32619   32620   32621   32620   32622   32623   32624
   32623   32625   32626   32627   32626   32628   32629   32630
   32629   32631   32632   32633   32632   32634   32635   32636
   32635   32637   32638   32639   32638   32640   32641   32642
   32641   32643   32644   32645   32644   32646   32647   32648
   32647   32649   32650   32651   32650   32652   32653   32654
   32653   32655   32656   32657   32656   32658   32659   32660
   32659   32661   32662   32663   32662   32664   32665   32666
   32665   32667   32668   32669   32668   32670   32671   32672
   32671   32673   32674   32675   32674   32676   32677   32678
   32677   32679   32680   32681   32680   32682   32683   32684
   32683   32685   32686   32687   32686   32688   32689   32690
   32689   32691   32692   32693   32692   32694   32695   32696
   32695   32697   32698   32699   32698   32700   32701   32702
   32701   32703   32704   32705   32704   32706   32707   32708
   32707   32709   32710   32711   32710   32712   32713   32714
   32713   32715   32716   32717   32716   32718   32719   32720
   32719   32721   32722   32723   32722   32724   32725   32726
   32725   32727   32728   32729   32728   32730   32731   32732
   32731   32733   32734   32735   32734   32736   32737   32738
   32737   32739   32740   32741   32740   32742   32743   32744
   32743   32745   32746   32747   32746   32748   32749   32750
   32749   32751   32752   32753   32752   32754   32755   32756
   32755   32757   32758   32759   32758   32760   32761   32762
   32761   32763   32764   32765   32764   32766   32767   32768
   32767   32769   32770   32771   32770   32772   32773   32774
   32773   32775   32776   32777   32776   32778   32779   32780
   32779   32781   32782   32783   32782   32784   32785   32786
   32785   32787   32788   32789   32788   32790   32791   32792
   32791   32793   32794   32795   32794   32796   32797   32798
   32797   32799   32800   32801   32800   32802   32803   32804
   32803   32805   32806   32807   32806   32808   32809   32810
   32809   32811   32812   32813   32812   32814   32815   32816
   32815   32817   32818   32819   32818   32820   32821   32822
   32821   32823   32824   32825   32824   32826   32827   32828
   32827   32829   32830   32831   32830   32832   32833   32834
   32833   32835   32836   32837   32836   32838   32839   32840
   32839   32841   32842   32843   32842   32844   32845   32846
   32845   32847   32848   32849   32848   32850   32851   32852
   32851   32853   32854   32855   32854   32856   32857   32858
   32857   32859   32860   32861   32860   32862   32863   32864
   32863   32865   32866   32867   32866   32868   32869   32870
   32869   32871   32872   32873   32872   32874   32875   32876
   32875   32877   32878   32879   32878   32880   32881   32882
   32881   32883   32884   32885   32884   32886   32887   32888
   32887   32889   32890   32891   32890   32892   32893   32894
   32893   32895   32896   32897   32896   32898   32899   32900
   32899   32901   32902   32903   32902   32904   32905   32906
   32905   32907   32908   32909   32908   32910   32911   32912
   32911   32913   32914   32915   32914   32916   32917   32918
   32917   32919   32920   32921   32920   32922   32923   32924
   32923   32925   32926   32927   32926   32928   32929   32930
   32929   32931   32932   32933   32932   32934   32935   32936
   32935   32937   32938   32939   32938   32940   32941   32942
   32941   32943   32944   32945   32944   32946   32947   32948
   32947   32949   32950   32951   32950   32952   32953   32954
   32953   32955   32956   32957   32956   32958   32959   32960
   32959   32961   32962   32963   32962   32964   32965   32966
   32965   32967   32968   32969   32968   32970   32971   32972
   32971   32973   32974   32975   32974   32976   32977   32978
   32977   32979   32980   32981   32980   32982   32983   32984
   32983   32985   32986   32987   32986   32988   32989   32990
   32989   32991   32992   32993   32992   32994   32995   32996
   32995   32997   32998   32999   32998   33000   33001   33002
   33001   33003   33004   33005   33004   33006   33007   33008
   33007   33009   33010   33011   33010   33012   33013   33014
   33013   33015   33016   33017   33016   33018   33019   33020
   33019   33021   33022   33023   33022   33024   33025   33026
   33025   33027   33028   33029   33028   33030   33031   33032
   33031   33033   33034   33035   33034   33036   33037   33038
   33037   33039   33040   33041   33040   33042   33043   33044
   33043   33045   33046   33047   33046   33048   33049   33050
   33049   33051   33052   33053   33052   33054   33055   33056
   33055   33057   33058   33059   33058   33060   33061   33062
   33061   33063   33064   33065   33064   33066   33067   33068
   33067   33069   33070   33071   33070   33072   33073   33074
   33073   33075   33076   33077   33076   33078   33079   33080
   33079   33081   33082   33083   33082   33084   33085   33086
   33085   33087   33088   33089   33088   33090   33091   33092
   33091   33093   33094   33095   33094   33096   33097   33098
   33097   33099   33100   33101   33100   33102   33103   33104
   33103   33105   33106   33107   33106   33108   33109   33110
   33109   33111   33112   33113   33112   33114   33115   33116
   33115   33117   33118   33119   33118   33120   33121   33122
   33121   33123   33124   33125   33124   33126   33127   33128
   33127   33129   33130   33131   33130   33132   33133   33134
   33133   33135   33136   33137   33136   33138   33139   33140
   33139   33141   33142   33143   33142   33144   33145   33146
   33145   33147   33148   33149   33148   33150   33151   33152
   33151   33153   33154   33155   33154   33156   33157   33158
   33157   33159   33160   33161   33160   33162   33163   33164
   33163   33165   33166   33167   33166   33168   33169   33170
   33169   33171   33172   33173   33172   33174   33175   33176
   33175   33177   33178   33179   33178   33180   33181   33182
   33181   33183   33184   33185   33184   33186   33187   33188
   33187   33189   33190   33191   33190   33192   33193   33194
   33193   33195   33196   33197   33196   33198   33199   33200
   33199   33201   33202   33203   33202   33204   33205   33206
   33205   33207   33208   33209   33208   33210   33211   33212
   33211   33213   33214   33215   33214   33216   33217   33218
   33217   33219   33220   33221   33220   33222   33223   33224
   33223   33225   33226   33227   33226   33228   33229   33230
   33229   33231   33232   33233   33232   33234   33235   33236
   33235   33237   33238   33239   33238   33240   33241   33242
   33241   33243   33244   33245   33244   33246   33247   33248
   33247   33249   33250   33251   33250   33252   33253   33254
   33253   33255   33256   33257   33256   33258   33259   33260
   33259   33261   33262   33263   33262   33264   33265   33266
   33265   33267   33268   33269   33268   33270   33271   33272
   33271   33273   33274   33275   33274   33276   33277   33278
   33277   33279   33280   33281   33280   33282   33283   33284
   33283   33285   33286   33287   33286   33288   33289   33290
   33289   33291   33292   33293   33292   33294   33295   33296
   33295   33297   33298   33299   33298   33300   33301   33302
   33301   33303   33304   33305   33304   33306   33307   33308
   33307   33309   33310   33311   33310   33312   33313   33314
   33313   33315   33316   33317   33316   33318   33319   33320
   33319   33321   33322   33323   33322   33324   33325   33326
   33325   33327   33328   33329   33328   33330   33331   33332
   33331   33333   33334   33335   33334   33336   33337   33338
   33337   33339   33340   33341   33340   33342   33343   33344
   33343   33345   33346   33347   33346   33348   33349   33350
   33349   33351   33352   33353   33352   33354   33355   33356
   33355   33357   33358   33359   33358   33360   33361   33362
   33361   33363   33364   33365   33364   33366   33367   33368
   33367   33369   33370   33371   33370   33372   33373   33374
   33373   33375   33376   33377   33376   33378   33379   33380
   33379   33381   33382   33383   33382   33384   33385   33386
   33385   33387   33388   33389   33388   33390   33391   33392
   33391   33393   33394   33395   33394   33396   33397   33398
   33397   33399   33400   33401   33400   33402   33403   33404
   33403   33405   33406   33407   33406   33408   33409   33410
   33409   33411   33412   33413   33412   33414   33415   33416
   33415   33417   33418   33419   33418   33420   33421   33422
   33421   33423   33424   33425   33424   33426   33427   33428
   33427   33429   33430   33431   33430   33432   33433   33434
   33433   33435   33436   33437   33436   33438   33439   33440
   33439   33441   33442   33443   33442   33444   33445   33446
   33445   33447   33448   33449   33448   33450   33451   33452
   33451   33453   33454   33455   33454   33456   33457   33458
   33457   33459   33460   33461   33460   33462   33463   33464
   33463   33465   33466   33467   33466   33468   33469   33470
   33469   33471   33472   33473   33472   33474   33475   33476
   33475   33477   33478   33479   33478   33480   33481   33482
   33481   33483   33484   33485   33484   33486   33487   33488
   33487   33489   33490   33491   33490   33492   33493   33494
   33493   33495   33496   33497   33496   33498   33499   33500
   33499   33501   33502   33503   33502   33504   33505   33506
   33505   33507   33508   33509   33508   33510   33511   33512
   33511   33513   33514   33515   33514   33516   33517   33518
   33517   33519   33520   33521   33520   33522   33523   33524
   33523   33525   33526   33527   33526   33528   33529   33530
   33529   33531   33532   33533   33532   33534   33535   33536
   33535   33537   33538   33539   33538   33540   33541   33542
   33541   33543   33544   33545   33544   33546   33547   33548
   33547   33549   33550   33551   33550   33552   33553   33554
   33553   33555   33556   33557   33556   33558   33559   33560
   33559   33561   33562   33563   33562   33564   33565   33566
   33565   33567   33568   33569   33568   33570   33571   33572
   33571   33573   33574   33575   33574   33576   33577   33578
   33577   33579   33580   33581   33580   33582   33583   33584
   33583   33585   33586   33587   33586   33588   33589   33590
   33589   33591   33592   33593   33592   33594   33595   33596
   33595   33597   33598   33599   33598   33600   33601   33602
   33601   33603   33604   33605   33604   33606   33607   33608
   33607   33609   33610   33611   33610   33612   33613   33614
   33613   33615   33616   33617   33616   33618   33619   33620
   33619   33621   33622   33623   33622   33624   33625   33626
   33625   33627   33628   33629   33628   33630   33631   33632
   33631   33633   33634   33635   33634   33636   33637   33638
   33637   33639   33640   33641   33640   33642   33643   33644
   33643   33645   33646   33647   33646   33648   33649   33650
   33649   33651   33652   33653   33652   33654   33655   33656
   33655   33657   33658   33659   33658   33660   33661   33662
   33661   33663   33664   33665   33664   33666   33667   33668
   33667   33669   33670   33671   33670   33672   33673   33674
   33673   33675   33676   33677   33676   33678   33679   33680
   33679   33681   33682   33683   33682   33684   33685   33686
   33685   33687   33688   33689   33688   33690   33691   33692
   33691   33693   33694   33695   33694   33696   33697   33698
   33697   33699   33700   33701   33700   33702   33703   33704
   33703   33705   33706   33707   33706   33708   33709   33710
   33709   33711   33712   33713   33712   33714   33715   33716
   33715   33717   33718   33719   33718   33720   33721   33722
   33721   33723   33724   33725   33724   33726   33727   33728
   33727   33729   33730   33731   33730   33732   33733   33734
   33733   33735   33736   33737   33736   33738   33739   33740
   33739   33741   33742   33743   33742   33744   33745   33746
   33745   33747   33748   33749   33748   33750   33751   33752
   33751   33753   33754   33755   33754   33756   33757   33758
   33757   33759   33760   33761   33760   33762   33763   33764
   33763   33765   33766   33767   33766   33768   33769   33770
   33769   33771   33772   33773   33772   33774   33775   33776
   33775   33777   33778   33779   33778   33780   33781   33782
   33781   33783   33784   33785   33784   33786   33787   33788
   33787   33789   33790   33791   33790   33792   33793   33794
   33793   33795   33796   33797   33796   33798   33799   33800
   33799   33801   33802   33803   33802   33804   33805   33806
   33805   33807   33808   33809   33808   33810   33811   33812
   33811   33813   33814   33815   33814   33816   33817   33818
   33817   33819   33820   33821   33820   33822   33823   33824
   33823   33825   33826   33827   33826   33828   33829   33830
   33829   33831   33832   33833   33832   33834   33835   33836
   33835   33837   33838   33839   33838   33840   33841   33842
   33841   33843   33844   33845   33844   33846   33847   33848
   33847   33849   33850   33851   33850   33852   33853   33854
   33853   33855   33856   33857   33856   33858   33859   33860
   33859   33861   33862   33863   33862   33864   33865   33866
   33865   33867   33868   33869   33868   33870   33871   33872
   33871   33873   33874   33875   33874   33876   33877   33878
   33877   33879   33880   33881   33880   33882   33883   33884
   33883   33885   33886   33887   33886   33888   33889   33890
   33889   33891   33892   33893   33892   33894   33895   33896
   33895   33897   33898   33899   33898   33900   33901   33902
   33901   33903   33904   33905   33904   33906   33907   33908
   33907   33909   33910   33911   33910   33912   33913   33914
   33913   33915   33916   33917   33916   33918   33919   33920
   33919   33921   33922   33923   33922   33924   33925   33926
   33925   33927   33928   33929   33928   33930   33931   33932
   33931   33933   33934   33935   33934   33936   33937   33938
   33937   33939   33940   33941   33940   33942   33943   33944
   33943   33945   33946   33947   33946   33948   33949   33950
   33949   33951   33952   33953   33952   33954   33955   33956
   33955   33957   33958   33959   33958   33960   33961   33962
   33961   33963   33964   33965   33964   33966   33967   33968
   33967   33969   33970   33971   33970   33972   33973   33974
   33973   33975   33976   33977   33976   33978   33979   33980
   33979   33981   33982   33983   33982   33984   33985   33986
   33985   33987   33988   33989   33988   33990   33991   33992
   33991   33993   33994   33995   33994   33996   33997   33998
   33997   33999   34000   34001   34000   34002   34003   34004
   34003   34005   34006   34007   34006   34008   34009   34010
   34009   34011   34012   34013   34012   34014   34015   34016
   34015   34017   34018   34019   34018   34020   34021   34022
   34021   34023   34024   34025   34024   34026   34027   34028
   34027   34029   34030   34031   34030   34032   34033   34034
   34033   34035   34036   34037   34036   34038   34039   34040
   34039   34041   34042   34043   34042   34044   34045   34046
   34045   34047   34048   34049   34048   34050   34051   34052
   34051   34053   34054   34055   34054   34056   34057   34058
   34057   34059   34060   34061   34060   34062   34063   34064
   34063   34065   34066   34067   34066   34068   34069   34070
   34069   34071   34072   34073   34072   34074   34075   34076
   34075   34077   34078   34079   34078   34080   34081   34082
   34081   34083   34084   34085   34084   34086   34087   34088
   34087   34089   34090   34091   34090   34092   34093   34094
   34093   34095   34096   34097   34096   34098   34099   34100
   34099   34101   34102   34103   34102   34104   34105   34106
   34105   34107   34108   34109   34108   34110   34111   34112
   34111   34113   34114   34115   34114   34116   34117   34118
   34117   34119   34120   34121   34120   34122   34123   34124
   34123   34125   34126   34127   34126   34128   34129   34130
   34129   34131   34132   34133   34132   34134   34135   34136
   34135   34137   34138   34139   34138   34140   34141   34142
   34141   34143   34144   34145   34144   34146   34147   34148
   34147   34149   34150   34151   34150   34152   34153   34154
   34153   34155   34156   34157   34156   34158   34159   34160
   34159   34161   34162   34163   34162   34164   34165   34166
   34165   34167   34168   34169   34168   34170   34171   34172
   34171   34173   34174   34175   34174   34176   34177   34178
   34177   34179   34180   34181   34180   34182   34183   34184
   34183   34185   34186   34187   34186   34188   34189   34190
   34189   34191   34192   34193   34192   34194   34195   34196
   34195   34197   34198   34199   34198   34200   34201   34202
   34201   34203   34204   34205   34204   34206   34207   34208
   34207   34209   34210   34211   34210   34212   34213   34214
   34213   34215   34216   34217   34216   34218   34219   34220
   34219   34221   34222   34223   34222   34224   34225   34226
   34225   34227   34228   34229   34228   34230   34231   34232
   34231   34233   34234   34235   34234   34236   34237   34238
   34237   34239   34240   34241   34240   34242   34243   34244
   34243   34245   34246   34247   34246   34248   34249   34250
   34249   34251   34252   34253   34252   34254   34255   34256
   34255   34257   34258   34259   34258   34260   34261   34262
   34261   34263   34264   34265   34264   34266   34267   34268
   34267   34269   34270   34271   34270   34272   34273   34274
   34273   34275   34276   34277   34276   34278   34279   34280
   34279   34281   34282   34283   34282   34284   34285   34286
   34285   34287   34288   34289   34288   34290   34291   34292
   34291   34293   34294   34295   34294   34296   34297   34298
   34297   34299   34300   34301   34300   34302   34303   34304
   34303   34305   34306   34307   34306   34308   34309   34310
   34309   34311   34312   34313   34312   34314   34315   34316
   34315   34317   34318   34319   34318   34320   34321   34322
   34321   34323   34324   34325   34324   34326   34327   34328
   34327   34329   34330   34331   34330   34332   34333   34334
   34333   34335   34336   34337   34336   34338   34339   34340
   34339   34341   34342   34343   34342   34344   34345   34346
   34345   34347   34348   34349   34348   34350   34351   34352
   34351   34353   34354   34355   34354   34356   34357   34358
   34357   34359   34360   34361   34360   34362   34363   34364
   34363   34365   34366   34367   34366   34368   34369   34370
   34369   34371   34372   34373   34372   34374   34375   34376
   34375   34377   34378   34379   34378   34380   34381   34382
   34381   34383   34384   34385   34384   34386   34387   34388
   34387   34389   34390   34391   34390   34392   34393   34394
   34393   34395   34396   34397   34396   34398   34399   34400
   34399   34401   34402   34403   34402   34404   34405   34406
   34405   34407   34408   34409   34408   34410   34411   34412
   34411   34413   34414   34415   34414   34416   34417   34418
   34417   34419   34420   34421   34420   34422   34423   34424
   34423   34425   34426   34427   34426   34428   34429   34430
   34429   34431   34432   34433   34432   34434   34435   34436
   34435   34437   34438   34439   34438   34440   34441   34442
   34441   34443   34444   34445   34444   34446   34447   34448
   34447   34449   34450   34451   34450   34452   34453   34454
   34453   34455   34456   34457   34456   34458   34459   34460
   34459   34461   34462   34463   34462   34464   34465   34466
   34465   34467   34468   34469   34468   34470   34471   34472
   34471   34473   34474   34475   34474   34476   34477   34478
   34477   34479   34480   34481   34480   34482   34483   34484
   34483   34485   34486   34487   34486   34488   34489   34490
   34489   34491   34492   34493   34492   34494   34495   34496
   34495   34497   34498   34499   34498   34500   34501   34502
   34501   34503   34504   34505   34504   34506   34507   34508
   34507   34509   34510   34511   34510   34512   34513   34514
   34513   34515   34516   34517   34516   34518   34519   34520
   34519   34521   34522   34523   34522   34524   34525   34526
   34525   34527   34528   34529   34528   34530   34531   34532
   34531   34533   34534   34535   34534   34536   34537   34538
   34537   34539   34540   34541   34540   34542   34543   34544
   34543   34545   34546   34547   34546   34548   34549   34550
   34549   34551   34552   34553   34552   34554   34555   34556
   34555   34557   34558   34559   34558   34560   34561   34562
   34561   34563   34564   34565   34564   34566   34567   34568
   34567   34569   34570   34571   34570   34572   34573   34574
   34573   34575   34576   34577   34576   34578   34579   34580
   34579   34581   34582   34583   34582   34584   34585   34586
   34585   34587   34588   34589   34588   34590   34591   34592
   34591   34593   34594   34595   34594   34596   34597   34598
   34597   34599   34600   34601   34600   34602   34603   34604
   34603   34605   34606   34607   34606   34608   34609   34610
   34609   34611   34612   34613   34612   34614   34615   34616
   34615   34617   34618   34619   34618   34620   34621   34622
   34621   34623   34624   34625   34624   34626   34627   34628
   34627   34629   34630   34631   34630   34632   34633   34634
   34633   34635   34636   34637   34636   34638   34639   34640
   34639   34641   34642   34643   34642   34644   34645   34646
   34645   34647   34648   34649   34648   34650   34651   34652
   34651   34653   34654   34655   34654   34656   34657   34658
   34657   34659   34660   34661   34660   34662   34663   34664
   34663   34665   34666   34667   34666   34668   34669   34670
   34669   34671   34672   34673   34672   34674   34675   34676
   34675   34677   34678   34679   34678   34680   34681   34682
   34681   34683   34684   34685   34684   34686   34687   34688
   34687   34689   34690   34691   34690   34692   34693   34694
   34693   34695   34696   34697   34696   34698   34699   34700
   34699   34701   34702   34703   34702   34704   34705   34706
   34705   34707   34708   34709   34708   34710   34711   34712
   34711   34713   34714   34715   34714   34716   34717   34718
   34717   34719   34720   34721   34720   34722   34723   34724
   34723   34725   34726   34727   34726   34728   34729   34730
   34729   34731   34732   34733   34732   34734   34735   34736
   34735   34737   34738   34739   34738   34740   34741   34742
   34741   34743   34744   34745   34744   34746   34747   34748
   34747   34749   34750   34751   34750   34752   34753   34754
   34753   34755   34756   34757   34756   34758   34759   34760
   34759   34761   34762   34763   34762   34764   34765   34766
   34765   34767   34768   34769   34768   34770   34771   34772
   34771   34773   34774   34775   34774   34776   34777   34778
   34777   34779   34780   34781   34780   34782   34783   34784
   34783   34785   34786   34787   34786   34788   34789   34790
   34789   34791   34792   34793   34792   34794   34795   34796
   34795   34797   34798   34799   34798   34800   34801   34802
   34801   34803   34804   34805   34804   34806   34807   34808
   34807   34809   34810   34811   34810   34812   34813   34814
   34813   34815   34816   34817   34816   34818   34819   34820
   34819   34821   34822   34823   34822   34824   34825   34826
   34825   34827   34828   34829   34828   34830   34831   34832
   34831   34833   34834   34835   34834   34836   34837   34838
   34837   34839   34840   34841   34840   34842   34843   34844
   34843   34845   34846   34847   34846   34848   34849   34850
   34849   34851   34852   34853   34852   34854   34855   34856
   34855   34857   34858   34859   34858   34860   34861   34862
   34861   34863   34864   34865   34864   34866   34867   34868
   34867   34869   34870   34871   34870   34872   34873   34874
   34873   34875   34876   34877   34876   34878   34879   34880
   34879   34881   34882   34883   34882   34884   34885   34886
   34885   34887   34888   34889   34888   34890   34891   34892
   34891   34893   34894   34895   34894   34896   34897   34898
   34897   34899   34900   34901   34900   34902   34903   34904
   34903   34905   34906   34907   34906   34908   34909   34910
   34909   34911   34912   34913   34912   34914   34915   34916
   34915   34917   34918   34919   34918   34920   34921   34922
   34921   34923   34924   34925   34924   34926   34927   34928
   34927   34929   34930   34931   34930   34932   34933   34934
   34933   34935   34936   34937   34936   34938   34939   34940
   34939   34941   34942   34943   34942   34944   34945   34946
   34945   34947   34948   34949   34948   34950   34951   34952
   34951   34953   34954   34955   34954   34956   34957   34958
   34957   34959   34960   34961   34960   34962   34963   34964
   34963   34965   34966   34967   34966   34968   34969   34970
   34969   34971   34972   34973   34972   34974   34975   34976
   34975   34977   34978   34979   34978   34980   34981   34982
   34981   34983   34984   34985   34984   34986   34987   34988
   34987   34989   34990   34991   34990   34992   34993   34994
   34993   34995   34996   34997   34996   34998   34999   35000
   34999   35001   35002   35003   35002   35004   35005   35006
   35005   35007   35008   35009   35008   35010   35011   35012
   35011   35013   35014   35015   35014   35016   35017   35018
   35017   35019   35020   35021   35020   35022   35023   35024
   35023   35025   35026   35027   35026   35028   35029   35030
   35029   35031   35032   35033   35032   35034   35035   35036
   35035   35037   35038   35039   35038   35040   35041   35042
   35041   35043   35044   35045   35044   35046   35047   35048
   35047   35049   35050   35051   35050   35052   35053   35054
   35053   35055   35056   35057   35056   35058   35059   35060
   35059   35061   35062   35063   35062   35064   35065   35066
   35065   35067   35068   35069   35068   35070   35071   35072
   35071   35073   35074   35075   35074   35076   35077   35078
   35077   35079   35080   35081   35080   35082   35083   35084
   35083   35085   35086   35087   35086   35088   35089   35090
   35089   35091   35092   35093   35092   35094   35095   35096
   35095   35097   35098   35099   35098   35100   35101   35102
   35101   35103   35104   35105   35104   35106   35107   35108
   35107   35109   35110   35111   35110   35112   35113   35114
   35113   35115   35116   35117   35116   35118   35119   35120
   35119   35121   35122   35123   35122   35124   35125   35126
   35125   35127   35128   35129   35128   35130   35131   35132
   35131   35133   35134   35135   35134   35136   35137   35138
   35137   35139   35140   35141   35140   35142   35143   35144
   35143   35145   35146   35147   35146   35148   35149   35150
   35149   35151   35152   35153   35152   35154   35155   35156
   35155   35157   35158   35159   35158   35160   35161   35162
   35161   35163   35164   35165   35164   35166   35167   35168
   35167   35169   35170   35171   35170   35172   35173   35174
   35173   35175   35176   35177   35176   35178   35179   35180
   35179   35181   35182   35183   35182   35184   35185   35186
   35185   35187   35188   35189   35188   35190   35191   35192
   35191   35193   35194   35195   35194   35196   35197   35198
   35197   35199   35200   35201   35200   35202   35203   35204
   35203   35205   35206   35207   35206   35208   35209   35210
   35209   35211   35212   35213   35212   35214   35215   35216
   35215   35217   35218   35219   35218   35220   35221   35222
   35221   35223   35224   35225   35224   35226   35227   35228
   35227   35229   35230   35231   35230   35232   35233   35234
   35233   35235   35236   35237   35236   35238   35239   35240
   35239   35241   35242   35243   35242   35244   35245   35246
   35245   35247   35248   35249   35248   35250   35251   35252
   35251   35253   35254   35255   35254   35256   35257   35258
   35257   35259   35260   35261   35260   35262   35263   35264
   35263   35265   35266   35267   35266   35268   35269   35270
   35269   35271   35272   35273   35272   35274   35275   35276
   35275   35277   35278   35279   35278   35280   35281   35282
   35281   35283   35284   35285   35284   35286   35287   35288
   35287   35289   35290   35291   35290   35292   35293   35294
   35293   35295   35296   35297   35296   35298   35299   35300
   35299   35301   35302   35303   35302   35304   35305   35306
   35305   35307   35308   35309   35308   35310   35311   35312
   35311   35313   35314   35315   35314   35316   35317   35318
   35317   35319   35320   35321   35320   35322   35323   35324
   35323   35325   35326   35327   35326   35328   35329   35330
   35329   35331   35332   35333   35332   35334   35335   35336
   35335   35337   35338   35339   35338   35340   35341   35342
   35341   35343   35344   35345   35344   35346   35347   35348
   35347   35349   35350   35351   35350   35352   35353   35354
   35353   35355   35356   35357   35356   35358   35359   35360
   35359   35361   35362   35363   35362   35364   35365   35366
   35365   35367   35368   35369   35368   35370   35371   35372
   35371   35373   35374   35375   35374   35376   35377   35378
   35377   35379   35380   35381   35380   35382   35383   35384
   35383   35385   35386   35387   35386   35388   35389   35390
   35389   35391   35392   35393   35392   35394   35395   35396
   35395   35397   35398   35399   35398   35400   35401   35402
   35401   35403   35404   35405   35404   35406   35407   35408
   35407   35409   35410   35411   35410   35412   35413   35414
   35413   35415   35416   35417   35416   35418   35419   35420
   35419   35421   35422   35423   35422   35424   35425   35426
   35425   35427   35428   35429   35428   35430   35431   35432
   35431   35433   35434   35435   35434   35436   35437   35438
   35437   35439   35440   35441   35440   35442   35443   35444
   35443   35445   35446   35447   35446   35448   35449   35450
   35449   35451   35452   35453   35452   35454   35455   35456
   35455   35457   35458   35459   35458   35460   35461   35462
   35461   35463   35464   35465   35464   35466   35467   35468
   35467   35469   35470   35471   35470   35472   35473   35474
   35473   35475   35476   35477   35476   35478   35479   35480
   35479   35481   35482   35483   35482   35484   35485   35486
   35485   35487   35488   35489   35488   35490   35491   35492
   35491   35493   35494   35495   35494   35496   35497   35498
   35497   35499   35500   35501   35500   35502   35503   35504
   35503   35505   35506   35507   35506   35508   35509   35510
   35509   35511   35512   35513   35512   35514   35515   35516
   35515   35517   35518   35519   35518   35520   35521   35522
   35521   35523   35524   35525   35524   35526   35527   35528
   35527   35529   35530   35531   35530   35532   35533   35534
   35533   35535   35536   35537   35536   35538   35539   35540
   35539   35541   35542   35543   35542   35544   35545   35546
   35545   35547   35548   35549   35548   35550   35551   35552
   35551   35553   35554   35555   35554   35556   35557   35558
   35557   35559   35560   35561   35560   35562   35563   35564
   35563   35565   35566   35567   35566   35568   35569   35570
   35569   35571   35572   35573   35572   35574   35575   35576
   35575   35577   35578   35579   35578   35580   35581   35582
   35581   35583   35584   35585   35584   35586   35587   35588
   35587   35589   35590   35591   35590   35592   35593   35594
   35593   35595   35596   35597   35596   35598   35599   35600
   35599   35601   35602   35603   35602   35604   35605   35606
   35605   35607   35608   35609   35608   35610   35611   35612
   35611   35613   35614   35615   35614   35616   35617   35618
   35617   35619   35620   35621   35620   35622   35623   35624
   35623   35625   35626   35627   35626   35628   35629   35630
   35629   35631   35632   35633   35632   35634   35635   35636
   35635   35637   35638   35639   35638   35640   35641   35642
   35641   35643   35644   35645   35644   35646   35647   35648
   35647   35649   35650   35651   35650   35652   35653   35654
   35653   35655   35656   35657   35656   35658   35659   35660
   35659   35661   35662   35663   35662   35664   35665   35666
   35665   35667   35668   35669   35668   35670   35671   35672
   35671   35673   35674   35675   35674   35676   35677   35678
   35677   35679   35680   35681   35680   35682   35683   35684
   35683   35685   35686   35687   35686   35688   35689   35690
   35689   35691   35692   35693   35692   35694   35695   35696
   35695   35697   35698   35699   35698   35700   35701   35702
   35701   35703   35704   35705   35704   35706   35707   35708
   35707   35709   35710   35711   35710   35712   35713   35714
   35713   35715   35716   35717   35716   35718   35719   35720
   35719   35721   35722   35723   35722   35724   35725   35726
   35725   35727   35728   35729   35728   35730   35731   35732
   35731   35733   35734   35735   35734   35736   35737   35738
   35737   35739   35740   35741   35740   35742   35743   35744
   35743   35745   35746   35747   35746   35748   35749   35750
   35749   35751   35752   35753   35752   35754   35755   35756
   35755   35757   35758   35759   35758   35760   35761   35762
   35761   35763   35764   35765   35764   35766   35767   35768
   35767   35769   35770   35771   35770   35772   35773   35774
   35773   35775   35776   35777   35776   35778   35779   35780
   35779   35781   35782   35783   35782   35784   35785   35786
   35785   35787   35788   35789   35788   35790   35791   35792
   35791   35793   35794   35795   35794   35796   35797   35798
   35797   35799   35800   35801   35800   35802   35803   35804
   35803   35805   35806   35807   35806   35808   35809   35810
   35809   35811   35812   35813   35812   35814   35815   35816
   35815   35817   35818   35819   35818   35820   35821   35822
   35821   35823   35824   35825   35824   35826   35827   35828
   35827   35829   35830   35831   35830   35832   35833   35834
   35833   35835   35836   35837   35836   35838   35839   35840
   35839   35841   35842   35843   35842   35844   35845   35846
   35845   35847   35848   35849   35848   35850   35851   35852
   35851   35853   35854   35855   35854   35856   35857   35858
   35857   35859   35860   35861   35860   35862   35863   35864
   35863   35865   35866   35867   35866   35868   35869   35870
   35869   35871   35872   35873   35872   35874   35875   35876
   35875   35877   35878   35879   35878   35880   35881   35882
   35881   35883   35884   35885   35884   35886   35887   35888
   35887   35889   35890   35891   35890   35892   35893   35894
   35893   35895   35896   35897   35896   35898   35899   35900
   35899   35901   35902   35903   35902   35904   35905   35906
   35905   35907   35908   35909   35908   35910   35911   35912
   35911   35913   35914   35915   35914   35916   35917   35918
   35917   35919   35920   35921   35920   35922   35923   35924
   35923   35925   35926   35927   35926   35928   35929   35930
   35929   35931   35932   35933   35932   35934   35935   35936
   35935   35937   35938   35939   35938   35940   35941   35942
   35941   35943   35944   35945   35944   35946   35947   35948
   35947   35949   35950   35951   35950   35952   35953   35954
   35953   35955   35956   35957   35956   35958   35959   35960
   35959   35961   35962   35963   35962   35964   35965   35966
   35965   35967   35968   35969   35968   35970   35971   35972
   35971   35973   35974   35975   35974   35976   35977   35978
   35977   35979   35980   35981   35980   35982   35983   35984
   35983   35985   35986   35987   35986   35988   35989   35990
   35989   35991   35992   35993   35992   35994   35995   35996
   35995   35997   35998   35999   35998   36000   36001   36002
   36001   36003   36004   36005   36004   36006   36007   36008
   36007   36009   36010   36011   36010   36012   36013   36014
   36013   36015   36016   36017   36016   36018   36019   36020
   36019   36021   36022   36023   36022   36024   36025   36026
   36025   36027   36028   36029   36028   36030   36031   36032
   36031   36033   36034   36035   36034   36036   36037   36038
   36037   36039   36040   36041   36040   36042   36043   36044
   36043   36045   36046   36047   36046   36048   36049   36050
   36049   36051   36052   36053   36052   36054   36055   36056
   36055   36057   36058   36059   36058   36060   36061   36062
   36061   36063   36064   36065   36064   36066   36067   36068
   36067   36069   36070   36071   36070   36072   36073   36074
   36073   36075   36076   36077   36076   36078   36079   36080
   36079   36081   36082   36083   36082   36084   36085   36086
   36085   36087   36088   36089   36088   36090   36091   36092
   36091   36093   36094   36095   36094   36096   36097   36098
   36097   36099   36100   36101   36100   36102   36103   36104
   36103   36105   36106   36107   36106   36108   36109   36110
   36109   36111   36112   36113   36112   36114   36115   36116
   36115   36117   36118   36119   36118   36120   36121   36122
   36121   36123   36124   36125   36124   36126   36127   36128
   36127   36129   36130   36131   36130   36132   36133   36134
   36133   36135   36136   36137   36136   36138   36139   36140
   36139   36141   36142   36143   36142   36144   36145   36146
   36145   36147   36148   36149   36148   36150   36151   36152
   36151   36153   36154   36155   36154   36156   36157   36158
   36157   36159   36160   36161   36160   36162   36163   36164
   36163   36165   36166   36167   36166   36168   36169   36170
   36169   36171   36172   36173   36172   36174   36175   36176
   36175   36177   36178   36179   36178   36180   36181   36182
   36181   36183   36184   36185   36184   36186   36187   36188
   36187   36189   36190   36191   36190   36192   36193   36194
   36193   36195   36196   36197   36196   36198   36199   36200
   36199   36201   36202   36203   36202   36204   36205   36206
   36205   36207   36208   36209   36208   36210   36211   36212
   36211   36213   36214   36215   36214   36216   36217   36218
   36217   36219   36220   36221   36220   36222   36223   36224
   36223   36225   36226   36227   36226   36228   36229   36230
   36229   36231   36232   36233   36232   36234   36235   36236
   36235   36237   36238   36239   36238   36240   36241   36242
   36241   36243   36244   36245   36244   36246   36247   36248
   36247   36249   36250   36251   36250   36252   36253   36254
   36253   36255   36256   36257   36256   36258   36259   36260
   36259   36261   36262   36263   36262   36264   36265   36266
   36265   36267   36268   36269   36268   36270   36271   36272
   36271   36273   36274   36275   36274   36276   36277   36278
   36277   36279   36280   36281   36280   36282   36283   36284
   36283   36285   36286   36287   36286   36288   36289   36290
   36289   36291   36292   36293   36292   36294   36295   36296
   36295   36297   36298   36299   36298   36300   36301   36302
   36301   36303   36304   36305   36304   36306   36307   36308
   36307   36309   36310   36311   36310   36312   36313   36314
   36313   36315   36316   36317   36316   36318   36319   36320
   36319   36321   36322   36323   36322   36324   36325   36326
   36325   36327   36328   36329   36328   36330   36331   36332
   36331   36333   36334   36335   36334   36336   36337   36338
   36337   36339   36340   36341   36340   36342   36343   36344
   36343   36345   36346   36347   36346   36348   36349   36350
   36349   36351   36352   36353   36352   36354   36355   36356
   36355   36357   36358   36359   36358   36360   36361   36362
   36361   36363   36364   36365   36364   36366   36367   36368
   36367   36369   36370   36371   36370   36372   36373   36374
   36373   36375   36376   36377   36376   36378   36379   36380
   36379   36381   36382   36383   36382   36384   36385   36386
   36385   36387   36388   36389   36388   36390   36391   36392
   36391   36393   36394   36395   36394   36396   36397   36398
   36397   36399   36400   36401   36400   36402   36403   36404
   36403   36405   36406   36407   36406   36408   36409   36410
   36409   36411   36412   36413   36412   36414   36415   36416
   36415   36417   36418   36419   36418   36420   36421   36422
   36421   36423   36424   36425   36424   36426   36427   36428
   36427   36429   36430   36431   36430   36432   36433   36434
   36433   36435   36436   36437   36436   36438   36439   36440
   36439   36441   36442   36443   36442   36444   36445   36446
   36445   36447   36448   36449   36448   36450   36451   36452
   36451   36453   36454   36455   36454   36456   36457   36458
   36457   36459   36460   36461   36460   36462   36463   36464
   36463   36465   36466   36467   36466   36468   36469   36470
   36469   36471   36472   36473   36472   36474   36475   36476
   36475   36477   36478   36479   36478   36480   36481   36482
   36481   36483   36484   36485   36484   36486   36487   36488
   36487   36489   36490   36491   36490   36492   36493   36494
   36493   36495   36496   36497   36496   36498   36499   36500
   36499   36501   36502   36503   36502   36504   36505   36506
   36505   36507   36508   36509   36508   36510   36511   36512
   36511   36513   36514   36515   36514   36516   36517   36518
   36517   36519   36520   36521   36520   36522   36523   36524
   36523   36525   36526   36527   36526   36528   36529   36530
   36529   36531   36532   36533   36532   36534   36535   36536
   36535   36537   36538   36539   36538   36540   36541   36542
   36541   36543   36544   36545   36544   36546   36547   36548
   36547   36549   36550   36551   36550   36552   36553   36554
   36553   36555   36556   36557   36556   36558   36559   36560
   36559   36561   36562   36563   36562   36564   36565   36566
   36565   36567   36568   36569   36568   36570   36571   36572
   36571   36573   36574   36575   36574   36576   36577   36578
   36577   36579   36580   36581   36580   36582   36583   36584
   36583   36585   36586   36587   36586   36588   36589   36590
   36589   36591   36592   36593   36592   36594   36595   36596
   36595   36597   36598   36599   36598   36600   36601   36602
   36601   36603   36604   36605   36604   36606   36607   36608
   36607   36609   36610   36611   36610   36612   36613   36614
   36613   36615   36616   36617   36616   36618   36619   36620
   36619   36621   36622   36623   36622   36624   36625   36626
   36625   36627   36628   36629   36628   36630   36631   36632
   36631   36633   36634   36635   36634   36636   36637   36638
   36637   36639   36640   36641   36640   36642   36643   36644
   36643   36645   36646   36647   36646   36648   36649   36650
   36649   36651   36652   36653   36652   36654   36655   36656
   36655   36657   36658   36659   36658   36660   36661   36662
   36661   36663   36664   36665   36664   36666   36667   36668
   36667   36669   36670   36671   36670   36672   36673   36674
   36673   36675   36676   36677   36676   36678   36679   36680
   36679   36681   36682   36683   36682   36684   36685   36686
   36685   36687   36688   36689   36688   36690   36691   36692
   36691   36693   36694   36695   36694   36696   36697   36698
   36697   36699   36700   36701   36700   36702   36703   36704
   36703   36705   36706   36707   36706   36708   36709   36710
   36709   36711   36712   36713   36712   36714   36715   36716
   36715   36717   36718   36719   36718   36720   36721   36722
   36721   36723   36724   36725   36724   36726   36727   36728
   36727   36729   36730   36731   36730   36732   36733   36734
   36733   36735   36736   36737   36736   36738   36739   36740
   36739   36741   36742   36743   36742   36744   36745   36746
   36745   36747   36748   36749   36748   36750   36751   36752
   36751   36753   36754   36755   36754   36756   36757   36758
   36757   36759   36760   36761   36760   36762   36763   36764
   36763   36765   36766   36767   36766   36768   36769   36770
   36769   36771   36772   36773   36772   36774   36775   36776
   36775   36777   36778   36779   36778   36780   36781   36782
   36781   36783   36784   36785   36784   36786   36787   36788
   36787   36789   36790   36791   36790   36792   36793   36794
   36793   36795   36796   36797   36796   36798   36799   36800
   36799   36801   36802   36803   36802   36804   36805   36806
   36805   36807   36808   36809   36808   36810   36811   36812
   36811   36813   36814   36815   36814   36816   36817   36818
   36817   36819   36820   36821   36820   36822   36823   36824
   36823   36825   36826   36827   36826   36828   36829   36830
   36829   36831   36832   36833   36832   36834   36835   36836
   36835   36837   36838   36839   36838   36840   36841   36842
   36841   36843   36844   36845   36844   36846   36847   36848
   36847   36849   36850   36851   36850   36852   36853   36854
   36853   36855   36856   36857   36856   36858   36859   36860
   36859   36861   36862   36863   36862   36864   36865   36866
   36865   36867   36868   36869   36868   36870   36871   36872
   36871   36873   36874   36875   36874   36876   36877   36878
   36877   36879   36880   36881   36880   36882   36883   36884
   36883   36885   36886   36887   36886   36888   36889   36890
   36889   36891   36892   36893   36892   36894   36895   36896
   36895   36897   36898   36899   36898   36900   36901   36902
   36901   36903   36904   36905   36904   36906   36907   36908
   36907   36909   36910   36911   36910   36912   36913   36914
   36913   36915   36916   36917   36916   36918   36919   36920
   36919   36921   36922   36923   36922   36924   36925   36926
   36925   36927   36928   36929   36928   36930   36931   36932
   36931   36933   36934   36935   36934   36936   36937   36938
   36937   36939   36940   36941   36940   36942   36943   36944
   36943   36945   36946   36947   36946   36948   36949   36950
   36949   36951   36952   36953   36952   36954   36955   36956
   36955   36957   36958   36959   36958   36960   36961   36962
   36961   36963   36964   36965   36964   36966   36967   36968
   36967   36969   36970   36971   36970   36972   36973   36974
   36973   36975   36976   36977   36976   36978   36979   36980
   36979   36981   36982   36983   36982   36984   36985   36986
   36985   36987   36988   36989   36988   36990   36991   36992
   36991   36993   36994   36995   36994   36996   36997   36998
   36997   36999   37000   37001   37000   37002   37003   37004
   37003   37005   37006   37007   37006   37008   37009   37010
   37009   37011   37012   37013   37012   37014   37015   37016
   37015   37017   37018   37019   37018   37020   37021   37022
   37021   37023   37024   37025   37024   37026   37027   37028
   37027   37029   37030   37031   37030   37032   37033   37034
   37033   37035   37036   37037   37036   37038   37039   37040
   37039   37041   37042   37043   37042   37044   37045   37046
   37045   37047   37048   37049   37048   37050   37051   37052
   37051   37053   37054   37055   37054   37056   37057   37058
   37057   37059   37060   37061   37060   37062   37063   37064
   37063   37065   37066   37067   37066   37068   37069   37070
   37069   37071   37072   37073   37072   37074   37075   37076
   37075   37077   37078   37079   37078   37080   37081   37082
   37081   37083   37084   37085   37084   37086   37087   37088
   37087   37089   37090   37091   37090   37092   37093   37094
   37093   37095   37096   37097   37096   37098   37099   37100
   37099   37101   37102   37103   37102   37104   37105   37106
   37105   37107   37108   37109   37108   37110   37111   37112
   37111   37113   37114   37115   37114   37116   37117   37118
   37117   37119   37120   37121   37120   37122   37123   37124
   37123   37125   37126   37127   37126   37128   37129   37130
   37129   37131   37132   37133   37132   37134   37135   37136
   37135   37137   37138   37139   37138   37140   37141   37142
   37141   37143   37144   37145   37144   37146   37147   37148
   37147   37149   37150   37151   37150   37152   37153   37154
   37153   37155   37156   37157   37156   37158   37159   37160
   37159   37161   37162   37163   37162   37164   37165   37166
   37165   37167   37168   37169   37168   37170   37171   37172
   37171   37173   37174   37175   37174   37176   37177   37178
   37177   37179   37180   37181   37180   37182   37183   37184
   37183   37185   37186   37187   37186   37188   37189   37190
   37189   37191   37192   37193   37192   37194   37195   37196
   37195   37197   37198   37199   37198   37200   37201   37202
   37201   37203   37204   37205   37204   37206   37207   37208
   37207   37209   37210   37211   37210   37212   37213   37214
   37213   37215   37216   37217   37216   37218   37219   37220
   37219   37221   37222   37223   37222   37224   37225   37226
   37225   37227   37228   37229   37228   37230   37231   37232
   37231   37233   37234   37235   37234   37236   37237   37238
   37237   37239   37240   37241   37240   37242   37243   37244
   37243   37245   37246   37247   37246   37248   37249   37250
   37249   37251   37252   37253   37252   37254   37255   37256
   37255   37257   37258   37259   37258   37260   37261   37262
   37261   37263   37264   37265   37264   37266   37267   37268
   37267   37269   37270   37271   37270   37272   37273   37274
   37273   37275   37276   37277   37276   37278   37279   37280
   37279   37281   37282   37283   37282   37284   37285   37286
   37285   37287   37288   37289   37288   37290   37291   37292
   37291   37293   37294   37295   37294   37296   37297   37298
   37297   37299   37300   37301   37300   37302   37303   37304
   37303   37305   37306   37307   37306   37308   37309   37310
   37309   37311   37312   37313   37312   37314   37315   37316
   37315   37317   37318   37319   37318   37320   37321   37322
   37321   37323   37324   37325   37324   37326   37327   37328
   37327   37329   37330   37331   37330   37332   37333   37334
   37333   37335   37336   37337   37336   37338   37339   37340
   37339   37341   37342   37343   37342   37344   37345   37346
   37345   37347   37348   37349   37348   37350   37351   37352
   37351   37353   37354   37355   37354   37356   37357   37358
   37357   37359   37360   37361   37360   37362   37363   37364
   37363   37365   37366   37367   37366   37368   37369   37370
   37369   37371   37372   37373   37372   37374   37375   37376
   37375   37377   37378   37379   37378   37380   37381   37382
   37381   37383   37384   37385   37384   37386   37387   37388
   37387   37389   37390   37391   37390   37392   37393   37394
   37393   37395   37396   37397   37396   37398   37399   37400
   37399   37401   37402   37403   37402   37404   37405   37406
   37405   37407   37408   37409   37408   37410   37411   37412
   37411   37413   37414   37415   37414   37416   37417   37418
   37417   37419   37420   37421   37420   37422   37423   37424
   37423   37425   37426   37427   37426   37428   37429   37430
   37429   37431   37432   37433   37432   37434   37435   37436
   37435   37437   37438   37439   37438   37440   37441   37442
   37441   37443   37444   37445   37444   37446   37447   37448
   37447   37449   37450   37451   37450   37452   37453   37454
   37453   37455   37456   37457   37456   37458   37459   37460
   37459   37461   37462   37463   37462   37464   37465   37466
   37465   37467   37468   37469   37468   37470   37471   37472
   37471   37473   37474   37475   37474   37476   37477   37478
   37477   37479   37480   37481   37480   37482   37483   37484
   37483   37485   37486   37487   37486   37488   37489   37490
   37489   37491   37492   37493   37492   37494   37495   37496
   37495   37497   37498   37499   37498   37500   37501   37502
   37501   37503   37504   37505   37504   37506   37507   37508
   37507   37509   37510   37511   37510   37512   37513   37514
   37513   37515   37516   37517   37516   37518   37519   37520
   37519   37521   37522   37523   37522   37524   37525   37526
   37525   37527   37528   37529   37528   37530   37531   37532
   37531   37533   37534   37535   37534   37536   37537   37538
   37537   37539   37540   37541   37540   37542   37543   37544
   37543   37545   37546   37547   37546   37548   37549   37550
   37549   37551   37552   37553   37552   37554   37555   37556
   37555   37557   37558   37559   37558   37560   37561   37562
   37561   37563   37564   37565   37564   37566   37567   37568
   37567   37569   37570   37571   37570   37572   37573   37574
   37573   37575   37576   37577   37576   37578   37579   37580
   37579   37581   37582   37583   37582   37584   37585   37586
   37585   37587   37588   37589   37588   37590   37591   37592
   37591   37593   37594   37595   37594   37596   37597   37598
   37597   37599   37600   37601   37600   37602   37603   37604
   37603   37605   37606   37607   37606   37608   37609   37610
   37609   37611   37612   37613   37612   37614   37615   37616
   37615   37617   37618   37619   37618   37620   37621   37622
   37621   37623   37624   37625   37624   37626   37627   37628
   37627   37629   37630   37631   37630   37632   37633   37634
   37633   37635   37636   37637   37636   37638   37639   37640
   37639   37641   37642   37643   37642   37644   37645   37646
   37645   37647   37648   37649   37648   37650   37651   37652
   37651   37653   37654   37655   37654   37656   37657   37658
   37657   37659   37660   37661   37660   37662   37663   37664
   37663   37665   37666   37667   37666   37668   37669   37670
   37669   37671   37672   37673   37672   37674   37675   37676
   37675   37677   37678   37679   37678   37680   37681   37682
   37681   37683   37684   37685   37684   37686   37687   37688
   37687   37689   37690   37691   37690   37692   37693   37694
   37693   37695   37696   37697   37696   37698   37699   37700
   37699   37701   37702   37703   37702   37704   37705   37706
   37705   37707   37708   37709   37708   37710   37711   37712
   37711   37713   37714   37715   37714   37716   37717   37718
   37717   37719   37720   37721   37720   37722   37723   37724
   37723   37725   37726   37727   37726   37728   37729   37730
   37729   37731   37732   37733   37732   37734   37735   37736
   37735   37737   37738   37739   37738   37740   37741   37742
   37741   37743   37744   37745   37744   37746   37747   37748
   37747   37749   37750   37751   37750   37752   37753   37754
   37753   37755   37756   37757   37756   37758   37759   37760
   37759   37761   37762   37763   37762   37764   37765   37766
   37765   37767   37768   37769   37768   37770   37771   37772
   37771   37773   37774   37775   37774   37776   37777   37778
   37777   37779   37780   37781   37780   37782   37783   37784
   37783   37785   37786   37787   37786   37788   37789   37790
   37789   37791   37792   37793   37792   37794   37795   37796
   37795   37797   37798   37799   37798   37800   37801   37802
   37801   37803   37804   37805   37804   37806   37807   37808
   37807   37809   37810   37811   37810   37812   37813   37814
   37813   37815   37816   37817   37816   37818   37819   37820
   37819   37821   37822   37823   37822   37824   37825   37826
   37825   37827   37828   37829   37828   37830   37831   37832
   37831   37833   37834   37835   37834   37836   37837   37838
   37837   37839   37840   37841   37840   37842   37843   37844
   37843   37845   37846   37847   37846   37848   37849   37850
   37849   37851   37852   37853   37852   37854   37855   37856
   37855   37857   37858   37859   37858   37860   37861   37862
   37861   37863   37864   37865   37864   37866   37867   37868
   37867   37869   37870   37871   37870   37872   37873   37874
   37873   37875   37876   37877   37876   37878   37879   37880
   37879   37881   37882   37883   37882   37884   37885   37886
   37885   37887   37888   37889   37888   37890   37891   37892
   37891   37893   37894   37895   37894   37896   37897   37898
   37897   37899   37900   37901   37900   37902   37903   37904
   37903   37905   37906   37907   37906   37908   37909   37910
   37909   37911   37912   37913   37912   37914   37915   37916
   37915   37917   37918   37919   37918   37920   37921   37922
   37921   37923   37924   37925   37924   37926   37927   37928
   37927   37929   37930   37931   37930   37932   37933   37934
   37933   37935   37936   37937   37936   37938   37939   37940
   37939   37941   37942   37943   37942   37944   37945   37946
   37945   37947   37948   37949   37948   37950   37951   37952
   37951   37953   37954   37955   37954   37956   37957   37958
   37957   37959   37960   37961   37960   37962   37963   37964
   37963   37965   37966   37967   37966   37968   37969   37970
   37969   37971   37972   37973   37972   37974   37975   37976
   37975   37977   37978   37979   37978   37980   37981   37982
   37981   37983   37984   37985   37984   37986   37987   37988
   37987   37989   37990   37991   37990   37992   37993   37994
   37993   37995   37996   37997   37996   37998   37999   38000
   37999   38001   38002   38003   38002   38004   38005   38006
   38005   38007   38008   38009   38008   38010   38011   38012
   38011   38013   38014   38015   38014   38016   38017   38018
   38017   38019   38020   38021   38020   38022   38023   38024
   38023   38025   38026   38027   38026   38028   38029   38030
   38029   38031   38032   38033   38032   38034   38035   38036
   38035   38037   38038   38039   38038   38040   38041   38042
   38041   38043   38044   38045   38044   38046   38047   38048
   38047   38049   38050   38051   38050   38052   38053   38054
   38053   38055   38056   38057   38056   38058   38059   38060
   38059   38061   38062   38063   38062   38064   38065   38066
   38065   38067   38068   38069   38068   38070   38071   38072
   38071   38073   38074   38075   38074   38076   38077   38078
   38077   38079   38080   38081   38080   38082   38083   38084
   38083   38085   38086   38087   38086   38088   38089   38090
   38089   38091   38092   38093   38092   38094   38095   38096
   38095   38097   38098   38099   38098   38100   38101   38102
   38101   38103   38104   38105   38104   38106   38107   38108
   38107   38109   38110   38111   38110   38112   38113   38114
   38113   38115   38116   38117   38116   38118   38119   38120
   38119   38121   38122   38123   38122   38124   38125   38126
   38125   38127   38128   38129   38128   38130   38131   38132
   38131   38133   38134   38135   38134   38136   38137   38138
   38137   38139   38140   38141   38140   38142   38143   38144
   38143   38145   38146   38147   38146   38148   38149   38150
   38149   38151   38152   38153   38152   38154   38155   38156
   38155   38157   38158   38159   38158   38160   38161   38162
   38161   38163   38164   38165   38164   38166   38167   38168
   38167   38169   38170   38171   38170   38172   38173   38174
   38173   38175   38176   38177   38176   38178   38179   38180
   38179   38181   38182   38183   38182   38184   38185   38186
   38185   38187   38188   38189   38188   38190   38191   38192
   38191   38193   38194   38195   38194   38196   38197   38198
   38197   38199   38200   38201   38200   38202   38203   38204
   38203   38205   38206   38207   38206   38208   38209   38210
   38209   38211   38212   38213   38212   38214   38215   38216
   38215   38217   38218   38219   38218   38220   38221   38222
   38221   38223   38224   38225   38224   38226   38227   38228
   38227   38229   38230   38231   38230   38232   38233   38234
   38233   38235   38236   38237   38236   38238   38239   38240
   38239   38241   38242   38243   38242   38244   38245   38246
   38245   38247   38248   38249   38248   38250   38251   38252
   38251   38253   38254   38255   38254   38256   38257   38258
   38257   38259   38260   38261   38260   38262   38263   38264
   38263   38265   38266   38267   38266   38268   38269   38270
   38269   38271   38272   38273   38272   38274   38275   38276
   38275   38277   38278   38279   38278   38280   38281   38282
   38281   38283   38284   38285   38284   38286   38287   38288
   38287   38289   38290   38291   38290   38292   38293   38294
   38293   38295   38296   38297   38296   38298   38299   38300
   38299   38301   38302   38303   38302   38304   38305   38306
   38305   38307   38308   38309   38308   38310   38311   38312
   38311   38313   38314   38315   38314   38316   38317   38318
   38317   38319   38320   38321   38320   38322   38323   38324
   38323   38325   38326   38327   38326   38328   38329   38330
   38329   38331   38332   38333   38332   38334   38335   38336
   38335   38337   38338   38339   38338   38340   38341   38342
   38341   38343   38344   38345   38344   38346   38347   38348
   38347   38349   38350   38351   38350   38352   38353   38354
   38353   38355   38356   38357   38356   38358   38359   38360
   38359   38361   38362   38363   38362   38364   38365   38366
   38365   38367   38368   38369   38368   38370   38371   38372
   38371   38373   38374   38375   38374   38376   38377   38378
   38377   38379   38380   38381   38380   38382   38383   38384
   38383   38385   38386   38387   38386   38388   38389   38390
   38389   38391   38392   38393   38392   38394   38395   38396
   38395   38397   38398   38399   38398   38400   38401   38402
   38401   38403   38404   38405   38404   38406   38407   38408
   38407   38409   38410   38411   38410   38412   38413   38414
   38413   38415   38416   38417   38416   38418   38419   38420
   38419   38421   38422   38423   38422   38424   38425   38426
   38425   38427   38428   38429   38428   38430   38431   38432
   38431   38433   38434   38435   38434   38436   38437   38438
   38437   38439   38440   38441   38440   38442   38443   38444
   38443   38445   38446   38447   38446   38448   38449   38450
   38449   38451   38452   38453   38452   38454   38455   38456
   38455   38457   38458   38459   38458   38460   38461   38462
   38461   38463   38464   38465   38464   38466   38467   38468
   38467   38469   38470   38471   38470   38472   38473   38474
   38473   38475   38476   38477   38476   38478   38479   38480
   38479   38481   38482   38483   38482   38484   38485   38486
   38485   38487   38488   38489   38488   38490   38491   38492
   38491   38493   38494   38495   38494   38496   38497   38498
   38497   38499   38500   38501   38500   38502   38503   38504
   38503   38505   38506   38507   38506   38508   38509   38510
   38509   38511   38512   38513   38512   38514   38515   38516
   38515   38517   38518   38519   38518   38520   38521   38522
   38521   38523   38524   38525   38524   38526   38527   38528
   38527   38529   38530   38531   38530   38532   38533   38534
   38533   38535   38536   38537   38536   38538   38539   38540
   38539   38541   38542   38543   38542   38544   38545   38546
   38545   38547   38548   38549   38548   38550   38551   38552
   38551   38553   38554   38555   38554   38556   38557   38558
   38557   38559   38560   38561   38560   38562   38563   38564
   38563   38565   38566   38567   38566   38568   38569   38570
   38569   38571   38572   38573   38572   38574   38575   38576
   38575   38577   38578   38579   38578   38580   38581   38582
   38581   38583   38584   38585   38584   38586   38587   38588
   38587   38589   38590   38591   38590   38592   38593   38594
   38593   38595   38596   38597   38596   38598   38599   38600
   38599   38601   38602   38603   38602   38604   38605   38606
   38605   38607   38608   38609   38608   38610   38611   38612
   38611   38613   38614   38615   38614   38616   38617   38618
   38617   38619   38620   38621   38620   38622   38623   38624
   38623   38625   38626   38627   38626   38628   38629   38630
   38629   38631   38632   38633   38632   38634   38635   38636
   38635   38637   38638   38639   38638   38640   38641   38642
   38641   38643   38644   38645   38644   38646   38647   38648
   38647   38649   38650   38651   38650   38652   38653   38654
   38653   38655   38656   38657   38656   38658   38659   38660
   38659   38661   38662   38663   38662   38664   38665   38666
   38665   38667   38668   38669   38668   38670   38671   38672
   38671   38673   38674   38675   38674   38676   38677   38678
   38677   38679   38680   38681   38680   38682   38683   38684
   38683   38685   38686   38687   38686   38688   38689   38690
   38689   38691   38692   38693   38692   38694   38695   38696
   38695   38697   38698   38699   38698   38700   38701   38702
   38701   38703   38704   38705   38704   38706   38707   38708
   38707   38709   38710   38711   38710   38712   38713   38714
   38713   38715   38716   38717   38716   38718   38719   38720
   38719   38721   38722   38723   38722   38724   38725   38726
   38725   38727   38728   38729   38728   38730   38731   38732
   38731   38733   38734   38735   38734   38736   38737   38738
   38737   38739   38740   38741   38740   38742   38743   38744
   38743   38745   38746   38747   38746   38748   38749   38750
   38749   38751   38752   38753   38752   38754   38755   38756
   38755   38757   38758   38759   38758   38760   38761   38762
   38761   38763   38764   38765   38764   38766   38767   38768
   38767   38769   38770   38771   38770   38772   38773   38774
   38773   38775   38776   38777   38776   38778   38779   38780
   38779   38781   38782   38783   38782   38784   38785   38786
   38785   38787   38788   38789   38788   38790   38791   38792
   38791   38793   38794   38795   38794   38796   38797   38798
   38797   38799   38800   38801   38800   38802   38803   38804
   38803   38805   38806   38807   38806   38808   38809   38810
   38809   38811   38812   38813   38812   38814   38815   38816
   38815   38817   38818   38819   38818   38820   38821   38822
   38821   38823   38824   38825   38824   38826   38827   38828
   38827   38829   38830   38831   38830   38832   38833   38834
   38833   38835   38836   38837   38836   38838   38839   38840
   38839   38841   38842   38843   38842   38844   38845   38846
   38845   38847   38848   38849   38848   38850   38851   38852
   38851   38853   38854   38855   38854   38856   38857   38858
   38857   38859   38860   38861   38860   38862   38863   38864
   38863   38865   38866   38867   38866   38868   38869   38870
   38869   38871   38872   38873   38872   38874   38875   38876
   38875   38877   38878   38879   38878   38880   38881   38882
   38881   38883   38884   38885   38884   38886   38887   38888
   38887   38889   38890   38891   38890   38892   38893   38894
   38893   38895   38896   38897   38896   38898   38899   38900
   38899   38901   38902   38903   38902   38904   38905   38906
   38905   38907   38908   38909   38908   38910   38911   38912
   38911   38913   38914   38915   38914   38916   38917   38918
   38917   38919   38920   38921   38920   38922   38923   38924
   38923   38925   38926   38927   38926   38928   38929   38930
   38929   38931   38932   38933   38932   38934   38935   38936
   38935   38937   38938   38939   38938   38940   38941   38942
   38941   38943   38944   38945   38944   38946   38947   38948
   38947   38949   38950   38951   38950   38952   38953   38954
   38953   38955   38956   38957   38956   38958   38959   38960
   38959   38961   38962   38963   38962   38964   38965   38966
   38965   38967   38968   38969   38968   38970   38971   38972
   38971   38973   38974   38975   38974   38976   38977   38978
   38977   38979   38980   38981   38980   38982   38983   38984
   38983   38985   38986   38987   38986   38988   38989   38990
   38989   38991   38992   38993   38992   38994   38995   38996
   38995   38997   38998   38999   38998   39000   39001   39002
   39001   39003   39004   39005   39004   39006   39007   39008
   39007   39009   39010   39011   39010   39012   39013   39014
   39013   39015   39016   39017   39016   39018   39019   39020
   39019   39021   39022   39023   39022   39024   39025   39026
   39025   39027   39028   39029   39028   39030   39031   39032
   39031   39033   39034   39035   39034   39036   39037   39038
   39037   39039   39040   39041   39040   39042   39043   39044
   39043   39045   39046   39047   39046   39048   39049   39050
   39049   39051   39052   39053   39052   39054   39055   39056
   39055   39057   39058   39059   39058   39060   39061   39062
   39061   39063   39064   39065   39064   39066   39067   39068
   39067   39069   39070   39071   39070   39072   39073   39074
   39073   39075   39076   39077   39076   39078   39079   39080
   39079   39081   39082   39083   39082   39084   39085   39086
   39085   39087   39088   39089   39088   39090   39091   39092
   39091   39093   39094   39095   39094   39096   39097   39098
   39097   39099   39100   39101   39100   39102   39103   39104
   39103   39105   39106   39107   39106   39108   39109   39110
   39109   39111   39112   39113   39112   39114   39115   39116
   39115   39117   39118   39119   39118   39120   39121   39122
   39121   39123   39124   39125   39124   39126   39127   39128
   39127   39129   39130   39131   39130   39132   39133   39134
   39133   39135   39136   39137   39136   39138   39139   39140
   39139   39141   39142   39143   39142   39144   39145   39146
   39145   39147   39148   39149   39148   39150   39151   39152
   39151   39153   39154   39155   39154   39156   39157   39158
   39157   39159   39160   39161   39160   39162   39163   39164
   39163   39165   39166   39167   39166   39168   39169   39170
   39169   39171   39172   39173   39172   39174   39175   39176
   39175   39177   39178   39179   39178   39180   39181   39182
   39181   39183   39184   39185   39184   39186   39187   39188
   39187   39189   39190   39191   39190   39192   39193   39194
   39193   39195   39196   39197   39196   39198   39199   39200
   39199   39201   39202   39203   39202   39204   39205   39206
   39205   39207   39208   39209   39208   39210   39211   39212
   39211   39213   39214   39215   39214   39216   39217   39218
   39217   39219   39220   39221   39220   39222   39223   39224
   39223   39225   39226   39227   39226   39228   39229   39230
   39229   39231   39232   39233   39232   39234   39235   39236
   39235   39237   39238   39239   39238   39240   39241   39242
   39241   39243   39244   39245   39244   39246   39247   39248
   39247   39249   39250   39251   39250   39252   39253   39254
   39253   39255   39256   39257   39256   39258   39259   39260
   39259   39261   39262   39263   39262   39264   39265   39266
   39265   39267   39268   39269   39268   39270   39271   39272
   39271   39273   39274   39275   39274   39276   39277   39278
   39277   39279   39280   39281   39280   39282   39283   39284
   39283   39285   39286   39287   39286   39288   39289   39290
   39289   39291   39292   39293   39292   39294   39295   39296
   39295   39297   39298   39299   39298   39300   39301   39302
   39301   39303   39304   39305   39304   39306   39307   39308
   39307   39309   39310   39311   39310   39312   39313   39314
   39313   39315   39316   39317   39316   39318   39319   39320
   39319   39321   39322   39323   39322   39324   39325   39326
   39325   39327   39328   39329   39328   39330   39331   39332
   39331   39333   39334   39335   39334   39336   39337   39338
   39337   39339   39340   39341   39340   39342   39343   39344
   39343   39345   39346   39347   39346   39348   39349   39350
   39349   39351   39352   39353   39352   39354   39355   39356
   39355   39357   39358   39359   39358   39360   39361   39362
   39361   39363   39364   39365   39364   39366   39367   39368
   39367   39369   39370   39371   39370   39372   39373   39374
   39373   39375   39376   39377   39376   39378   39379   39380
   39379   39381   39382   39383   39382   39384   39385   39386
   39385   39387   39388   39389   39388   39390   39391   39392
   39391   39393   39394   39395   39394   39396   39397   39398
   39397   39399   39400   39401   39400   39402   39403   39404
   39403   39405   39406   39407   39406   39408   39409   39410
   39409   39411   39412   39413   39412   39414   39415   39416
   39415   39417   39418   39419   39418   39420   39421   39422
   39421   39423   39424   39425   39424   39426   39427   39428
   39427   39429   39430   39431   39430   39432   39433   39434
   39433   39435   39436   39437   39436   39438   39439   39440
   39439   39441   39442   39443   39442   39444   39445   39446
   39445   39447   39448   39449   39448   39450   39451   39452
   39451   39453   39454   39455   39454   39456   39457   39458
   39457   39459   39460   39461   39460   39462   39463   39464
   39463   39465   39466   39467   39466   39468   39469   39470
   39469   39471   39472   39473   39472   39474   39475   39476
   39475   39477   39478   39479   39478   39480   39481   39482
   39481   39483   39484   39485   39484   39486   39487   39488
   39487   39489   39490   39491   39490   39492   39493   39494
   39493   39495   39496   39497   39496   39498   39499   39500
   39499   39501   39502   39503   39502   39504   39505   39506
   39505   39507   39508   39509   39508   39510   39511   39512
   39511   39513   39514   39515   39514   39516   39517   39518
   39517   39519   39520   39521   39520   39522   39523   39524
   39523   39525   39526   39527   39526   39528   39529   39530
   39529   39531   39532   39533   39532   39534   39535   39536
   39535   39537   39538   39539   39538   39540   39541   39542
   39541   39543   39544   39545   39544   39546   39547   39548
   39547   39549   39550   39551   39550   39552   39553   39554
   39553   39555   39556   39557   39556   39558   39559   39560
   39559   39561   39562   39563   39562   39564   39565   39566
   39565   39567   39568   39569   39568   39570   39571   39572
   39571   39573   39574   39575   39574   39576   39577   39578
   39577   39579   39580   39581   39580   39582   39583   39584
   39583   39585   39586   39587   39586   39588   39589   39590
   39589   39591   39592   39593   39592   39594   39595   39596
   39595   39597   39598   39599   39598   39600   39601   39602
   39601   39603   39604   39605   39604   39606   39607   39608
   39607   39609   39610   39611   39610   39612   39613   39614
   39613   39615   39616   39617   39616   39618   39619   39620
   39619   39621   39622   39623   39622   39624   39625   39626
   39625   39627   39628   39629   39628   39630   39631   39632
   39631   39633   39634   39635   39634   39636   39637   39638
   39637   39639   39640   39641   39640   39642   39643   39644
   39643   39645   39646   39647   39646   39648   39649   39650
   39649   39651   39652   39653   39652   39654   39655   39656
   39655   39657   39658   39659   39658   39660   39661   39662
   39661   39663   39664   39665   39664   39666   39667   39668
   39667   39669   39670   39671   39670   39672   39673   39674
   39673   39675   39676   39677   39676   39678   39679   39680
   39679   39681   39682   39683   39682   39684   39685   39686
   39685   39687   39688   39689   39688   39690   39691   39692
   39691   39693   39694   39695   39694   39696   39697   39698
   39697   39699   39700   39701   39700   39702   39703   39704
   39703   39705   39706   39707   39706   39708   39709   39710
   39709   39711   39712   39713   39712   39714   39715   39716
   39715   39717   39718   39719   39718   39720   39721   39722
   39721   39723   39724   39725   39724   39726   39727   39728
   39727   39729   39730   39731   39730   39732   39733   39734
   39733   39735   39736   39737   39736   39738   39739   39740
   39739   39741   39742   39743   39742   39744   39745   39746
   39745   39747   39748   39749   39748   39750   39751   39752
   39751   39753   39754   39755   39754   39756   39757   39758
   39757   39759   39760   39761   39760   39762   39763   39764
   39763   39765   39766   39767   39766   39768   39769   39770
   39769   39771   39772   39773   39772   39774   39775   39776
   39775   39777   39778   39779   39778   39780   39781   39782
   39781   39783   39784   39785   39784   39786   39787   39788
   39787   39789   39790   39791   39790   39792   39793   39794
   39793   39795   39796   39797   39796   39798   39799   39800
   39799   39801   39802   39803   39802   39804   39805   39806
   39805   39807   39808   39809   39808   39810   39811   39812
   39811   39813   39814   39815   39814   39816   39817   39818
   39817   39819   39820   39821   39820   39822   39823   39824
   39823   39825   39826   39827   39826   39828   39829   39830
   39829   39831   39832   39833   39832   39834   39835   39836
   39835   39837   39838   39839   39838   39840   39841   39842
   39841   39843   39844   39845   39844   39846   39847   39848
   39847   39849   39850   39851   39850   39852   39853   39854
   39853   39855   39856   39857   39856   39858   39859   39860
   39859   39861   39862   39863   39862   39864   39865   39866
   39865   39867   39868   39869   39868   39870   39871   39872
   39871   39873   39874   39875   39874   39876   39877   39878
   39877   39879   39880   39881   39880   39882   39883   39884
   39883   39885   39886   39887   39886   39888   39889   39890
   39889   39891   39892   39893   39892   39894   39895   39896
   39895   39897   39898   39899   39898   39900   39901   39902
   39901   39903   39904   39905   39904   39906   39907   39908
   39907   39909   39910   39911   39910   39912   39913   39914
   39913   39915   39916   39917   39916   39918   39919   39920
   39919   39921   39922   39923   39922   39924   39925   39926
   39925   39927   39928   39929   39928   39930   39931   39932
   39931   39933   39934   39935   39934   39936   39937   39938
   39937   39939   39940   39941   39940   39942   39943   39944
   39943   39945   39946   39947   39946   39948   39949   39950
   39949   39951   39952   39953   39952   39954   39955   39956
   39955   39957   39958   39959   39958   39960   39961   39962
   39961   39963   39964   39965   39964   39966   39967   39968
   39967   39969   39970   39971   39970   39972   39973   39974
   39973   39975   39976   39977   39976   39978   39979   39980
   39979   39981   39982   39983   39982   39984   39985   39986
   39985   39987   39988   39989   39988   39990   39991   39992
   39991   39993   39994   39995   39994   39996   39997   39998
   39997   39999   40000   40001   40000   40002   40003   40004
   40003   40005   40006   40007   40006   40008   40009   40010
   40009   40011   40012   40013   40012   40014   40015   40016
   40015   40017   40018   40019   40018   40020   40021   40022
   40021   40023   40024   40025   40024   40026   40027   40028
   40027   40029   40030   40031   40030   40032   40033   40034
   40033   40035   40036   40037   40036   40038   40039   40040
   40039   40041   40042   40043   40042   40044   40045   40046
   40045   40047   40048   40049   40048   40050   40051   40052
   40051   40053   40054   40055   40054   40056   40057   40058
   40057   40059   40060   40061   40060   40062   40063   40064
   40063   40065   40066   40067   40066   40068   40069   40070
   40069   40071   40072   40073   40072   40074   40075   40076
   40075   40077   40078   40079   40078   40080   40081   40082
   40081   40083   40084   40085   40084   40086   40087   40088
   40087   40089   40090   40091   40090   40092   40093   40094
   40093   40095   40096   40097   40096   40098   40099   40100
   40099   40101   40102   40103   40102   40104   40105   40106
   40105   40107   40108   40109   40108   40110   40111   40112
   40111   40113   40114   40115   40114   40116   40117   40118
   40117   40119   40120   40121   40120   40122   40123   40124
   40123   40125   40126   40127   40126   40128   40129   40130
   40129   40131   40132   40133   40132   40134   40135   40136
   40135   40137   40138   40139   40138   40140   40141   40142
   40141   40143   40144   40145   40144   40146   40147   40148
   40147   40149   40150   40151   40150   40152   40153   40154
   40153   40155   40156   40157   40156   40158   40159   40160
   40159   40161   40162   40163   40162   40164   40165   40166
   40165   40167   40168   40169   40168   40170   40171   40172
   40171   40173   40174   40175   40174   40176   40177   40178
   40177   40179   40180   40181   40180   40182   40183   40184
   40183   40185   40186   40187   40186   40188   40189   40190
   40189   40191   40192   40193   40192   40194   40195   40196
   40195   40197   40198   40199   40198   40200   40201   40202
   40201   40203   40204   40205   40204   40206   40207   40208
   40207   40209   40210   40211   40210   40212   40213   40214
   40213   40215   40216   40217   40216   40218   40219   40220
   40219   40221   40222   40223   40222   40224   40225   40226
   40225   40227   40228   40229   40228   40230   40231   40232
   40231   40233   40234   40235   40234   40236   40237   40238
   40237   40239   40240   40241   40240   40242   40243   40244
   40243   40245   40246   40247   40246   40248   40249   40250
   40249   40251   40252   40253   40252   40254   40255   40256
   40255   40257   40258   40259   40258   40260   40261   40262
   40261   40263   40264   40265   40264   40266   40267   40268
   40267   40269   40270   40271   40270   40272   40273   40274
   40273   40275   40276   40277   40276   40278   40279   40280
   40279   40281   40282   40283   40282   40284   40285   40286
   40285   40287   40288   40289   40288   40290   40291   40292
   40291   40293   40294   40295   40294   40296   40297   40298
   40297   40299   40300   40301   40300   40302   40303   40304
   40303   40305   40306   40307   40306   40308   40309   40310
   40309   40311   40312   40313   40312   40314   40315   40316
   40315   40317   40318   40319   40318   40320   40321   40322
   40321   40323   40324   40325   40324   40326   40327   40328
   40327   40329   40330   40331   40330   40332   40333   40334
   40333   40335   40336   40337   40336   40338   40339   40340
   40339   40341   40342   40343   40342   40344   40345   40346
   40345   40347   40348   40349   40348   40350   40351   40352
   40351   40353   40354   40355   40354   40356   40357   40358
   40357   40359   40360   40361   40360   40362   40363   40364
   40363   40365   40366   40367   40366   40368   40369   40370
   40369   40371   40372   40373   40372   40374   40375   40376
   40375   40377   40378   40379   40378   40380   40381   40382
   40381   40383   40384   40385   40384   40386   40387   40388
   40387   40389   40390   40391   40390   40392   40393   40394
   40393   40395   40396   40397   40396   40398   40399   40400
   40399   40401   40402   40403   40402   40404   40405   40406
   40405   40407   40408   40409   40408   40410   40411   40412
   40411   40413   40414   40415   40414   40416   40417   40418
   40417   40419   40420   40421   40420   40422   40423   40424
   40423   40425   40426   40427   40426   40428   40429   40430
   40429   40431   40432   40433   40432   40434   40435   40436
   40435   40437   40438   40439   40438   40440   40441   40442
   40441   40443   40444   40445   40444   40446   40447   40448
   40447   40449   40450   40451   40450   40452   40453   40454
   40453   40455   40456   40457   40456   40458   40459   40460
   40459   40461   40462   40463   40462   40464   40465   40466
   40465   40467   40468   40469   40468   40470   40471   40472
   40471   40473   40474   40475   40474   40476   40477   40478
   40477   40479   40480   40481   40480   40482   40483   40484
   40483   40485   40486   40487   40486   40488   40489   40490
   40489   40491   40492   40493   40492   40494   40495   40496
   40495   40497   40498   40499   40498   40500   40501   40502
   40501   40503   40504   40505   40504   40506   40507   40508
   40507   40509   40510   40511   40510   40512   40513   40514
   40513   40515   40516   40517   40516   40518   40519   40520
   40519   40521   40522   40523   40522   40524   40525   40526
   40525   40527   40528   40529   40528   40530   40531   40532
   40531   40533   40534   40535   40534   40536   40537   40538
   40537   40539   40540   40541   40540   40542   40543   40544
   40543   40545   40546   40547   40546   40548   40549   40550
   40549   40551   40552   40553   40552   40554   40555   40556
   40555   40557   40558   40559   40558   40560   40561   40562
   40561   40563   40564   40565   40564   40566   40567   40568
   40567   40569   40570   40571   40570   40572   40573   40574
   40573   40575   40576   40577   40576   40578   40579   40580
   40579   40581   40582   40583   40582   40584   40585   40586
   40585   40587   40588   40589   40588   40590   40591   40592
   40591   40593   40594   40595   40594   40596   40597   40598
   40597   40599   40600   40601   40600   40602   40603   40604
   40603   40605   40606   40607   40606   40608   40609   40610
   40609   40611   40612   40613   40612   40614   40615   40616
   40615   40617   40618   40619   40618   40620   40621   40622
   40621   40623   40624   40625   40624   40626   40627   40628
   40627   40629   40630   40631   40630   40632   40633   40634
   40633   40635   40636   40637   40636   40638   40639   40640
   40639   40641   40642   40643   40642   40644   40645   40646
   40645   40647   40648   40649   40648   40650   40651   40652
   40651   40653   40654   40655   40654   40656   40657   40658
   40657   40659   40660   40661   40660   40662   40663   40664
   40663   40665   40666   40667   40666   40668   40669   40670
   40669   40671   40672   40673   40672   40674   40675   40676
   40675   40677   40678   40679   40678   40680   40681   40682
   40681   40683   40684   40685   40684   40686   40687   40688
   40687   40689   40690   40691   40690   40692   40693   40694
   40693   40695   40696   40697   40696   40698   40699   40700
   40699   40701   40702   40703   40702   40704   40705   40706
   40705   40707   40708   40709   40708   40710   40711   40712
   40711   40713   40714   40715   40714   40716   40717   40718
   40717   40719   40720   40721   40720   40722   40723   40724
   40723   40725   40726   40727   40726   40728   40729   40730
   40729   40731   40732   40733   40732   40734   40735   40736
   40735   40737   40738   40739   40738   40740   40741   40742
   40741   40743   40744   40745   40744   40746   40747   40748
   40747   40749   40750   40751   40750   40752   40753   40754
   40753   40755   40756   40757   40756   40758   40759   40760
   40759   40761   40762   40763   40762   40764   40765   40766
   40765   40767   40768   40769   40768   40770   40771   40772
   40771   40773   40774   40775   40774   40776   40777   40778
   40777   40779   40780   40781   40780   40782   40783   40784
   40783   40785   40786   40787   40786   40788   40789   40790
   40789   40791   40792   40793   40792   40794   40795   40796
   40795   40797   40798   40799   40798   40800   40801   40802
   40801   40803   40804   40805   40804   40806   40807   40808
   40807   40809   40810   40811   40810   40812   40813   40814
   40813   40815   40816   40817   40816   40818   40819   40820
   40819   40821   40822   40823   40822   40824   40825   40826
   40825   40827   40828   40829   40828   40830   40831   40832
   40831   40833   40834   40835   40834   40836   40837   40838
   40837   40839   40840   40841   40840   40842   40843   40844
   40843   40845   40846   40847   40846   40848   40849   40850
   40849   40851   40852   40853   40852   40854   40855   40856
   40855   40857   40858   40859   40858   40860   40861   40862
   40861   40863   40864   40865   40864   40866   40867   40868
   40867   40869   40870   40871   40870   40872   40873   40874
   40873   40875   40876   40877   40876   40878   40879   40880
   40879   40881   40882   40883   40882   40884   40885   40886
   40885   40887   40888   40889   40888   40890   40891   40892
   40891   40893   40894   40895   40894   40896   40897   40898
   40897   40899   40900   40901   40900   40902   40903   40904
   40903   40905   40906   40907   40906   40908   40909   40910
   40909   40911   40912   40913   40912   40914   40915   40916
   40915   40917   40918   40919   40918   40920   40921   40922
   40921   40923   40924   40925   40924   40926   40927   40928
   40927   40929   40930   40931   40930   40932   40933   40934
   40933   40935   40936   40937   40936   40938   40939   40940
   40939   40941   40942   40943   40942   40944   40945   40946
   40945   40947   40948   40949   40948   40950   40951   40952
   40951   40953   40954   40955   40954   40956   40957   40958
   40957   40959   40960   40961   40960   40962   40963   40964
   40963   40965   40966   40967   40966   40968   40969   40970
   40969   40971   40972   40973   40972   40974   40975   40976
   40975   40977   40978   40979   40978   40980   40981   40982
   40981   40983   40984   40985   40984   40986   40987   40988
   40987   40989   40990   40991   40990   40992   40993   40994
   40993   40995   40996   40997   40996   40998   40999   41000
   40999   41001   41002   41003   41002   41004   41005   41006
   41005   41007   41008   41009   41008   41010   41011   41012
   41011   41013   41014   41015   41014   41016   41017   41018
   41017   41019   41020   41021   41020   41022   41023   41024
   41023   41025   41026   41027   41026   41028   41029   41030
   41029   41031   41032   41033   41032   41034   41035   41036
   41035   41037   41038   41039   41038   41040   41041   41042
   41041   41043   41044   41045   41044   41046   41047   41048
   41047   41049   41050   41051   41050   41052   41053   41054
   41053   41055   41056   41057   41056   41058   41059   41060
   41059   41061   41062   41063   41062   41064   41065   41066
   41065   41067   41068   41069   41068   41070   41071   41072
   41071   41073   41074   41075   41074   41076   41077   41078
   41077   41079   41080   41081   41080   41082   41083   41084
   41083   41085   41086   41087   41086   41088   41089   41090
   41089   41091   41092   41093   41092   41094   41095   41096
   41095   41097   41098   41099   41098   41100   41101   41102
   41101   41103   41104   41105   41104   41106   41107   41108
   41107   41109   41110   41111   41110   41112   41113   41114
   41113   41115   41116   41117   41116   41118   41119   41120
   41119   41121   41122   41123   41122   41124   41125   41126
   41125   41127   41128   41129   41128   41130   41131   41132
   41131   41133   41134   41135   41134   41136   41137   41138
   41137   41139   41140   41141   41140   41142   41143   41144
   41143   41145   41146   41147   41146   41148   41149   41150
   41149   41151   41152   41153   41152   41154   41155   41156
   41155   41157   41158   41159   41158   41160   41161   41162
   41161   41163   41164   41165   41164   41166   41167   41168
   41167   41169   41170   41171   41170   41172   41173   41174
   41173   41175   41176   41177   41176   41178   41179   41180
   41179   41181   41182   41183   41182   41184   41185   41186
   41185   41187   41188   41189   41188   41190   41191   41192
   41191   41193   41194   41195   41194   41196   41197   41198
   41197   41199   41200   41201   41200   41202   41203   41204
   41203   41205   41206   41207   41206   41208   41209   41210
   41209   41211   41212   41213   41212   41214   41215   41216
   41215   41217   41218   41219   41218   41220   41221   41222
   41221   41223   41224   41225   41224   41226   41227   41228
   41227   41229   41230   41231   41230   41232   41233   41234
   41233   41235   41236   41237   41236   41238   41239   41240
   41239   41241   41242   41243   41242   41244   41245   41246
   41245   41247   41248   41249   41248   41250   41251   41252
   41251   41253   41254   41255   41254   41256   41257   41258
   41257   41259   41260   41261   41260   41262   41263   41264
   41263   41265   41266   41267   41266   41268   41269   41270
   41269   41271   41272   41273   41272   41274   41275   41276
   41275   41277   41278   41279   41278   41280   41281   41282
   41281   41283   41284   41285   41284   41286   41287   41288
   41287   41289   41290   41291   41290   41292   41293   41294
   41293   41295   41296   41297   41296   41298   41299   41300
   41299   41301   41302   41303   41302   41304   41305   41306
   41305   41307   41308   41309   41308   41310   41311   41312
   41311   41313   41314   41315   41314   41316   41317   41318
   41317   41319   41320   41321   41320   41322   41323   41324
   41323   41325   41326   41327   41326   41328   41329   41330
   41329   41331   41332   41333   41332   41334   41335   41336
   41335   41337   41338   41339   41338   41340   41341   41342
   41341   41343   41344   41345   41344   41346   41347   41348
   41347   41349   41350   41351   41350   41352   41353   41354
   41353   41355   41356   41357   41356   41358   41359   41360
   41359   41361   41362   41363   41362   41364   41365   41366
   41365   41367   41368   41369   41368   41370   41371   41372
   41371   41373   41374   41375   41374   41376   41377   41378
   41377   41379   41380   41381   41380   41382   41383   41384
   41383   41385   41386   41387   41386   41388   41389   41390
   41389   41391   41392   41393   41392   41394   41395   41396
   41395   41397   41398   41399   41398   41400   41401   41402
   41401   41403   41404   41405   41404   41406   41407   41408
   41407   41409   41410   41411   41410   41412   41413   41414
   41413   41415   41416   41417   41416   41418   41419   41420
   41419   41421   41422   41423   41422   41424   41425   41426
   41425   41427   41428   41429   41428   41430   41431   41432
   41431   41433   41434   41435   41434   41436   41437   41438
   41437   41439   41440   41441   41440   41442   41443   41444
   41443   41445   41446   41447   41446   41448   41449   41450
   41449   41451   41452   41453   41452   41454   41455   41456
   41455   41457   41458   41459   41458   41460   41461   41462
   41461   41463   41464   41465   41464   41466   41467   41468
   41467   41469   41470   41471   41470   41472   41473   41474
   41473   41475   41476   41477   41476   41478   41479   41480
   41479   41481   41482   41483   41482   41484   41485   41486
   41485   41487   41488   41489   41488   41490   41491   41492
   41491   41493   41494   41495   41494   41496   41497   41498
   41497   41499   41500   41501   41500   41502   41503   41504
   41503   41505   41506   41507   41506   41508   41509   41510
   41509   41511   41512   41513   41512   41514   41515   41516
   41515   41517   41518   41519   41518   41520   41521   41522
   41521   41523   41524   41525   41524   41526   41527   41528
   41527   41529   41530   41531   41530   41532   41533   41534
   41533   41535   41536   41537   41536   41538   41539   41540
   41539   41541   41542   41543   41542   41544   41545   41546
   41545   41547   41548   41549   41548   41550   41551   41552
   41551   41553   41554   41555   41554   41556   41557   41558
   41557   41559   41560   41561   41560   41562   41563   41564
   41563   41565   41566   41567   41566   41568   41569   41570
   41569   41571   41572   41573   41572   41574   41575   41576
   41575   41577   41578   41579   41578   41580   41581   41582
   41581   41583   41584   41585   41584   41586   41587   41588
   41587   41589   41590   41591   41590   41592   41593   41594
   41593   41595   41596   41597   41596   41598   41599   41600
   41599   41601   41602   41603   41602   41604   41605   41606
   41605   41607   41608   41609   41608   41610   41611   41612
   41611   41613   41614   41615   41614   41616   41617   41618
   41617   41619   41620   41621   41620   41622   41623   41624
   41623   41625   41626   41627   41626   41628   41629   41630
   41629   41631   41632   41633   41632   41634   41635   41636
   41635   41637   41638   41639   41638   41640   41641   41642
   41641   41643   41644   41645   41644   41646   41647   41648
   41647   41649   41650   41651   41650   41652   41653   41654
   41653   41655   41656   41657   41656   41658   41659   41660
   41659   41661   41662   41663   41662   41664   41665   41666
   41665   41667   41668   41669   41668   41670   41671   41672
   41671   41673   41674   41675   41674   41676   41677   41678
   41677   41679   41680   41681   41680   41682   41683   41684
   41683   41685   41686   41687   41686   41688   41689   41690
   41689   41691   41692   41693   41692   41694   41695   41696
   41695   41697   41698   41699   41698   41700   41701   41702
   41701   41703   41704   41705   41704   41706   41707   41708
   41707   41709   41710   41711   41710   41712   41713   41714
   41713   41715   41716   41717   41716   41718   41719   41720
   41719   41721   41722   41723   41722   41724   41725   41726
   41725   41727   41728   41729   41728   41730   41731   41732
   41731   41733   41734   41735   41734   41736   41737   41738
   41737   41739   41740   41741   41740   41742   41743   41744
   41743   41745   41746   41747   41746   41748   41749   41750
   41749   41751   41752   41753   41752   41754   41755   41756
   41755   41757   41758   41759   41758   41760   41761   41762
   41761   41763   41764   41765   41764   41766   41767   41768
   41767   41769   41770   41771   41770   41772   41773   41774
   41773   41775   41776   41777   41776   41778   41779   41780
   41779   41781   41782   41783   41782   41784   41785   41786
   41785   41787   41788   41789   41788   41790   41791   41792
   41791   41793   41794   41795   41794   41796   41797   41798
   41797   41799   41800   41801   41800   41802   41803   41804
   41803   41805   41806   41807   41806   41808   41809   41810
   41809   41811   41812   41813   41812   41814   41815   41816
   41815   41817   41818   41819   41818   41820   41821   41822
   41821   41823   41824   41825   41824   41826   41827   41828
   41827   41829   41830   41831   41830   41832   41833   41834
   41833   41835   41836   41837   41836   41838   41839   41840
   41839   41841   41842   41843   41842   41844   41845   41846
   41845   41847   41848   41849   41848   41850   41851   41852
   41851   41853   41854   41855   41854   41856   41857   41858
   41857   41859   41860   41861   41860   41862   41863   41864
   41863   41865   41866   41867   41866   41868   41869   41870
   41869   41871   41872   41873   41872   41874   41875   41876
   41875   41877   41878   41879   41878   41880   41881   41882
   41881   41883   41884   41885   41884   41886   41887   41888
   41887   41889   41890   41891   41890   41892   41893   41894
   41893   41895   41896   41897   41896   41898   41899   41900
   41899   41901   41902   41903   41902   41904   41905   41906
   41905   41907   41908   41909   41908   41910   41911   41912
   41911   41913   41914   41915   41914   41916   41917   41918
   41917   41919   41920   41921   41920   41922   41923   41924
   41923   41925   41926   41927   41926   41928   41929   41930
   41929   41931   41932   41933   41932   41934   41935   41936
   41935   41937   41938   41939   41938   41940   41941   41942
   41941   41943   41944   41945   41944   41946   41947   41948
   41947   41949   41950   41951   41950   41952   41953   41954
   41953   41955   41956   41957   41956   41958   41959   41960
   41959   41961   41962   41963   41962   41964   41965   41966
   41965   41967   41968   41969   41968   41970   41971   41972
   41971   41973   41974   41975   41974   41976   41977   41978
   41977   41979   41980   41981   41980   41982   41983   41984
   41983   41985   41986   41987   41986   41988   41989   41990
   41989   41991   41992   41993   41992   41994   41995   41996
   41995   41997   41998   41999   41998   42000   42001   42002
   42001   42003   42004   42005   42004   42006   42007   42008
   42007   42009   42010   42011   42010   42012   42013   42014
   42013   42015   42016   42017   42016   42018   42019   42020
   42019   42021   42022   42023   42022   42024   42025   42026
   42025   42027   42028   42029   42028   42030   42031   42032
   42031   42033   42034   42035   42034   42036   42037   42038
   42037   42039   42040   42041   42040   42042   42043   42044
   42043   42045   42046   42047   42046   42048   42049   42050
   42049   42051   42052   42053   42052   42054   42055   42056
   42055   42057   42058   42059   42058   42060   42061   42062
   42061   42063   42064   42065   42064   42066   42067   42068
   42067   42069   42070   42071   42070   42072   42073   42074
   42073   42075   42076   42077   42076   42078   42079   42080
   42079   42081   42082   42083   42082   42084   42085   42086
   42085   42087   42088   42089   42088   42090   42091   42092
   42091   42093   42094   42095   42094   42096   42097   42098
   42097   42099   42100   42101   42100   42102   42103   42104
   42103   42105   42106   42107   42106   42108   42109   42110
   42109   42111   42112   42113   42112   42114   42115   42116
   42115   42117   42118   42119   42118   42120   42121   42122
   42121   42123   42124   42125   42124   42126   42127   42128
   42127   42129   42130   42131   42130   42132   42133   42134
   42133   42135   42136   42137   42136   42138   42139   42140
   42139   42141   42142   42143   42142   42144   42145   42146
   42145   42147   42148   42149   42148   42150   42151   42152
   42151   42153   42154   42155   42154   42156   42157   42158
   42157   42159   42160   42161   42160   42162   42163   42164
   42163   42165   42166   42167   42166   42168   42169   42170
   42169   42171   42172   42173   42172   42174   42175   42176
   42175   42177   42178   42179   42178   42180   42181   42182
   42181   42183   42184   42185   42184   42186   42187   42188
   42187   42189   42190   42191   42190   42192   42193   42194
   42193   42195   42196   42197   42196   42198   42199   42200
   42199   42201   42202   42203   42202   42204   42205   42206
   42205   42207   42208   42209   42208   42210   42211   42212
   42211   42213   42214   42215   42214   42216   42217   42218
   42217   42219   42220   42221   42220   42222   42223   42224
   42223   42225   42226   42227   42226   42228   42229   42230
   42229   42231   42232   42233   42232   42234   42235   42236
   42235   42237   42238   42239   42238   42240   42241   42242
   42241   42243   42244   42245   42244   42246   42247   42248
   42247   42249   42250   42251   42250   42252   42253   42254
   42253   42255   42256   42257   42256   42258   42259   42260
   42259   42261   42262   42263   42262   42264   42265   42266
   42265   42267   42268   42269   42268   42270   42271   42272
   42271   42273   42274   42275   42274   42276   42277   42278
   42277   42279   42280   42281   42280   42282   42283   42284
   42283   42285   42286   42287   42286   42288   42289   42290
   42289   42291   42292   42293   42292   42294   42295   42296
   42295   42297   42298   42299   42298   42300   42301   42302
   42301   42303   42304   42305   42304   42306   42307   42308
   42307   42309   42310   42311   42310   42312   42313   42314
   42313   42315   42316   42317   42316   42318   42319   42320
   42319   42321   42322   42323   42322   42324   42325   42326
   42325   42327   42328   42329   42328   42330   42331   42332
   42331   42333   42334   42335   42334   42336   42337   42338
   42337   42339   42340   42341   42340   42342   42343   42344
   42343   42345   42346   42347   42346   42348   42349   42350
   42349   42351   42352   42353   42352   42354   42355   42356
   42355   42357   42358   42359   42358   42360   42361   42362
   42361   42363   42364   42365   42364   42366   42367   42368
   42367   42369   42370   42371   42370   42372   42373   42374
   42373   42375   42376   42377   42376   42378   42379   42380
   42379   42381   42382   42383   42382   42384   42385   42386
   42385   42387   42388   42389   42388   42390   42391   42392
   42391   42393   42394   42395   42394   42396   42397   42398
   42397   42399   42400   42401   42400   42402   42403   42404
   42403   42405   42406   42407   42406   42408   42409   42410
   42409   42411   42412   42413   42412   42414   42415   42416
   42415   42417   42418   42419   42418   42420   42421   42422
   42421   42423   42424   42425   42424   42426   42427   42428
   42427   42429   42430   42431   42430   42432   42433   42434
   42433   42435   42436   42437   42436   42438   42439   42440
   42439   42441   42442   42443   42442   42444   42445   42446
   42445   42447   42448   42449   42448   42450   42451   42452
   42451   42453   42454   42455   42454   42456   42457   42458
   42457   42459   42460   42461   42460   42462   42463   42464
   42463   42465   42466   42467   42466   42468   42469   42470
   42469   42471   42472   42473   42472   42474   42475   42476
   42475   42477   42478   42479   42478   42480   42481   42482
   42481   42483   42484   42485   42484   42486   42487   42488
   42487   42489   42490   42491   42490   42492   42493   42494
   42493   42495   42496   42497   42496   42498   42499   42500
   42499   42501   42502   42503   42502   42504   42505   42506
   42505   42507   42508   42509   42508   42510   42511   42512
   42511   42513   42514   42515   42514   42516   42517   42518
   42517   42519   42520   42521   42520   42522   42523   42524
   42523   42525   42526   42527   42526   42528   42529   42530
   42529   42531   42532   42533   42532   42534   42535   42536
   42535   42537   42538   42539   42538   42540   42541   42542
   42541   42543   42544   42545   42544   42546   42547   42548
   42547   42549   42550   42551   42550   42552   42553   42554
   42553   42555   42556   42557   42556   42558   42559   42560
   42559   42561   42562   42563   42562   42564   42565   42566
   42565   42567   42568   42569   42568   42570   42571   42572
   42571   42573   42574   42575   42574   42576   42577   42578
   42577   42579   42580   42581   42580   42582   42583   42584
   42583   42585   42586   42587   42586   42588   42589   42590
   42589   42591   42592   42593   42592   42594   42595   42596
   42595   42597   42598   42599   42598   42600   42601   42602
   42601   42603   42604   42605   42604   42606   42607   42608
   42607   42609   42610   42611   42610   42612   42613   42614
   42613   42615   42616   42617   42616   42618   42619   42620
   42619   42621   42622   42623   42622   42624   42625   42626
   42625   42627   42628   42629   42628   42630   42631   42632
   42631   42633   42634   42635   42634   42636   42637   42638
   42637   42639   42640   42641   42640   42642   42643   42644
   42643   42645   42646   42647   42646   42648   42649   42650
   42649   42651   42652   42653   42652   42654   42655   42656
   42655   42657   42658   42659   42658   42660   42661   42662
   42661   42663   42664   42665   42664   42666   42667   42668
   42667   42669   42670   42671   42670   42672   42673   42674
   42673   42675   42676   42677   42676   42678   42679   42680
   42679   42681   42682   42683   42682   42684   42685   42686
   42685   42687   42688   42689   42688   42690   42691   42692
   42691   42693   42694   42695   42694   42696   42697   42698
   42697   42699   42700   42701   42700   42702   42703   42704
   42703   42705   42706   42707   42706   42708   42709   42710
   42709   42711   42712   42713   42712   42714   42715   42716
   42715   42717   42718   42719   42718   42720   42721   42722
   42721   42723   42724   42725   42724   42726   42727   42728
   42727   42729   42730   42731   42730   42732   42733   42734
   42733   42735   42736   42737   42736   42738   42739   42740
   42739   42741   42742   42743   42742   42744   42745   42746
   42745   42747   42748   42749   42748   42750   42751   42752
   42751   42753   42754   42755   42754   42756   42757   42758
   42757   42759   42760   42761   42760   42762   42763   42764
   42763   42765   42766   42767   42766   42768   42769   42770
   42769   42771   42772   42773   42772   42774   42775   42776
   42775   42777   42778   42779   42778   42780   42781   42782
   42781   42783   42784   42785   42784   42786   42787   42788
   42787   42789   42790   42791   42790   42792   42793   42794
   42793   42795   42796   42797   42796   42798   42799   42800
   42799   42801   42802   42803   42802   42804   42805   42806
   42805   42807   42808   42809   42808   42810   42811   42812
   42811   42813   42814   42815   42814   42816   42817   42818
   42817   42819   42820   42821   42820   42822   42823   42824
   42823   42825   42826   42827   42826   42828   42829   42830
   42829   42831   42832   42833   42832   42834   42835   42836
   42835   42837   42838   42839   42838   42840   42841   42842
   42841   42843   42844   42845   42844   42846   42847   42848
   42847   42849   42850   42851   42850   42852   42853   42854
   42853   42855   42856   42857   42856   42858   42859   42860
   42859   42861   42862   42863   42862   42864   42865   42866
   42865   42867   42868   42869   42868   42870   42871   42872
   42871   42873   42874   42875   42874   42876   42877   42878
   42877   42879   42880   42881   42880   42882   42883   42884
   42883   42885   42886   42887   42886   42888   42889   42890
   42889   42891   42892   42893   42892   42894   42895   42896
   42895   42897   42898   42899   42898   42900   42901   42902
   42901   42903   42904   42905   42904   42906   42907   42908
   42907   42909   42910   42911   42910   42912   42913   42914
   42913   42915   42916   42917   42916   42918   42919   42920
   42919   42921   42922   42923   42922   42924   42925   42926
   42925   42927   42928   42929   42928   42930   42931   42932
   42931   42933   42934   42935   42934   42936   42937   42938
   42937   42939   42940   42941   42940   42942   42943   42944
   42943   42945   42946   42947   42946   42948   42949   42950
   42949   42951   42952   42953   42952   42954   42955   42956
   42955   42957   42958   42959   42958   42960   42961   42962
   42961   42963   42964   42965   42964   42966   42967   42968
   42967   42969   42970   42971   42970   42972   42973   42974
   42973   42975   42976   42977   42976   42978   42979   42980
   42979   42981   42982   42983   42982   42984   42985   42986
   42985   42987   42988   42989   42988   42990   42991   42992
   42991   42993   42994   42995   42994   42996   42997   42998
   42997   42999   43000   43001   43000   43002   43003   43004
   43003   43005   43006   43007   43006   43008   43009   43010
   43009   43011   43012   43013   43012   43014   43015   43016
   43015   43017   43018   43019   43018   43020   43021   43022
   43021   43023   43024   43025   43024   43026   43027   43028
   43027   43029   43030   43031   43030   43032   43033   43034
   43033   43035   43036   43037   43036   43038   43039   43040
   43039   43041   43042   43043   43042   43044   43045   43046
   43045   43047   43048   43049   43048   43050   43051   43052
   43051   43053   43054   43055   43054   43056   43057   43058
   43057   43059   43060   43061   43060   43062   43063   43064
   43063   43065   43066   43067   43066   43068   43069   43070
   43069   43071   43072   43073   43072   43074   43075   43076
   43075   43077   43078   43079   43078   43080   43081   43082
   43081   43083   43084   43085   43084   43086   43087   43088
   43087   43089   43090   43091   43090   43092   43093   43094
   43093   43095   43096   43097   43096   43098   43099   43100
   43099   43101   43102   43103   43102   43104   43105   43106
   43105   43107   43108   43109   43108   43110   43111   43112
   43111   43113   43114   43115   43114   43116   43117   43118
   43117   43119   43120   43121   43120   43122   43123   43124
   43123   43125   43126   43127   43126   43128   43129   43130
   43129   43131   43132   43133   43132   43134   43135   43136
   43135   43137   43138   43139   43138   43140   43141   43142
   43141   43143   43144   43145   43144   43146   43147   43148
   43147   43149   43150   43151   43150   43152   43153   43154
   43153   43155   43156   43157   43156   43158   43159   43160
   43159   43161   43162   43163   43162   43164   43165   43166
   43165   43167   43168   43169   43168   43170   43171   43172
   43171   43173   43174   43175   43174   43176   43177   43178
   43177   43179   43180   43181   43180   43182   43183   43184
   43183   43185   43186   43187   43186   43188   43189   43190
   43189   43191   43192   43193   43192   43194   43195   43196
   43195   43197   43198   43199   43198   43200   43201   43202
   43201   43203   43204   43205   43204   43206   43207   43208
   43207   43209   43210   43211   43210   43212   43213   43214
   43213   43215   43216   43217   43216   43218   43219   43220
   43219   43221   43222   43223   43222   43224   43225   43226
   43225   43227   43228   43229   43228   43230   43231   43232
   43231   43233   43234   43235   43234   43236   43237   43238
   43237   43239   43240   43241   43240   43242   43243   43244
   43243   43245   43246   43247   43246   43248   43249   43250
   43249   43251   43252   43253   43252   43254   43255   43256
   43255   43257   43258   43259   43258   43260   43261   43262
   43261   43263   43264   43265   43264   43266   43267   43268
   43267   43269   43270   43271   43270   43272   43273   43274
   43273   43275   43276   43277   43276   43278   43279   43280
   43279   43281   43282   43283   43282   43284   43285   43286
   43285   43287   43288   43289   43288   43290   43291   43292
   43291   43293   43294   43295   43294   43296   43297   43298
   43297   43299   43300   43301   43300   43302   43303   43304
   43303   43305   43306   43307   43306   43308   43309   43310
   43309   43311   43312   43313   43312   43314   43315   43316
   43315   43317   43318   43319   43318   43320   43321   43322
   43321   43323   43324   43325   43324   43326   43327   43328
   43327   43329   43330   43331   43330   43332   43333   43334
   43333   43335   43336   43337   43336   43338   43339   43340
   43339   43341   43342   43343   43342   43344   43345   43346
   43345   43347   43348   43349   43348   43350   43351   43352
   43351   43353   43354   43355   43354   43356   43357   43358
   43357   43359   43360   43361   43360   43362   43363   43364
   43363   43365   43366   43367   43366   43368   43369   43370
   43369   43371   43372   43373   43372   43374   43375   43376
   43375   43377   43378   43379   43378   43380   43381   43382
   43381   43383   43384   43385   43384   43386   43387   43388
   43387   43389   43390   43391   43390   43392   43393   43394
   43393   43395   43396   43397   43396   43398   43399   43400
   43399   43401   43402   43403   43402   43404   43405   43406
   43405   43407   43408   43409   43408   43410   43411   43412
   43411   43413   43414   43415   43414   43416   43417   43418
   43417   43419   43420   43421   43420   43422   43423   43424
   43423   43425   43426   43427   43426   43428   43429   43430
   43429   43431   43432   43433   43432   43434   43435   43436
   43435   43437   43438   43439   43438   43440   43441   43442
   43441   43443   43444   43445   43444   43446   43447   43448
   43447   43449   43450   43451   43450   43452   43453   43454
   43453   43455   43456   43457   43456   43458   43459   43460
   43459   43461   43462   43463   43462   43464   43465   43466
   43465   43467   43468   43469   43468   43470   43471   43472
   43471   43473   43474   43475   43474   43476   43477   43478
   43477   43479   43480   43481   43480   43482   43483   43484
   43483   43485   43486   43487   43486   43488   43489   43490
   43489   43491   43492   43493   43492   43494   43495   43496
   43495   43497   43498   43499   43498   43500   43501   43502
   43501   43503   43504   43505   43504   43506   43507   43508
   43507   43509   43510   43511   43510   43512   43513   43514
   43513   43515   43516   43517   43516   43518   43519   43520
   43519   43521   43522   43523   43522   43524   43525   43526
   43525   43527   43528   43529   43528   43530   43531   43532
   43531   43533   43534   43535   43534   43536   43537   43538
   43537   43539   43540   43541   43540   43542   43543   43544
   43543   43545   43546   43547   43546   43548   43549   43550
   43549   43551   43552   43553   43552   43554   43555   43556
   43555   43557   43558   43559   43558   43560   43561   43562
   43561   43563   43564   43565   43564   43566   43567   43568
   43567   43569   43570   43571   43570   43572   43573   43574
   43573   43575   43576   43577   43576   43578   43579   43580
   43579   43581   43582   43583   43582   43584   43585   43586
   43585   43587   43588   43589   43588   43590   43591   43592
   43591   43593   43594   43595   43594   43596   43597   43598
   43597   43599   43600   43601   43600   43602   43603   43604
   43603   43605   43606   43607   43606   43608   43609   43610
   43609   43611   43612   43613   43612   43614   43615   43616
   43615   43617   43618   43619   43618   43620   43621   43622
   43621   43623   43624   43625   43624   43626   43627   43628
   43627   43629   43630   43631   43630   43632   43633   43634
   43633   43635   43636   43637   43636   43638   43639   43640
   43639   43641   43642   43643   43642   43644   43645   43646
   43645   43647   43648   43649   43648   43650   43651   43652
   43651   43653   43654   43655   43654   43656   43657   43658
   43657   43659   43660   43661   43660   43662   43663   43664
   43663   43665   43666   43667   43666   43668   43669   43670
   43669   43671   43672   43673   43672   43674   43675   43676
   43675   43677   43678   43679   43678   43680   43681   43682
   43681   43683   43684   43685   43684   43686   43687   43688
   43687   43689   43690   43691   43690   43692   43693   43694
   43693   43695   43696   43697   43696   43698   43699   43700
   43699   43701   43702   43703   43702   43704   43705   43706
   43705   43707   43708   43709   43708   43710   43711   43712
   43711   43713   43714   43715   43714   43716   43717   43718
   43717   43719   43720   43721   43720   43722   43723   43724
   43723   43725   43726   43727   43726   43728   43729   43730
   43729   43731   43732   43733   43732   43734   43735   43736
   43735   43737   43738   43739   43738   43740   43741   43742
   43741   43743   43744   43745   43744   43746   43747   43748
   43747   43749   43750   43751   43750   43752   43753   43754
   43753   43755   43756   43757   43756   43758   43759   43760
   43759   43761   43762   43763   43762   43764   43765   43766
   43765   43767   43768   43769   43768   43770   43771   43772
   43771   43773   43774   43775   43774   43776   43777   43778
   43777   43779   43780   43781   43780   43782   43783   43784
   43783   43785   43786   43787   43786   43788   43789   43790
   43789   43791   43792   43793   43792   43794   43795   43796
   43795   43797   43798   43799   43798   43800   43801   43802
   43801   43803   43804   43805   43804   43806   43807   43808
   43807   43809   43810   43811   43810   43812   43813   43814
   43813   43815   43816   43817   43816   43818   43819   43820
   43819   43821   43822   43823   43822   43824   43825   43826
   43825   43827   43828   43829   43828   43830   43831   43832
   43831   43833   43834   43835   43834   43836   43837   43838
   43837   43839   43840   43841   43840   43842   43843   43844
   43843   43845   43846   43847   43846   43848   43849   43850
   43849   43851   43852   43853   43852   43854   43855   43856
   43855   43857   43858   43859   43858   43860   43861   43862
   43861   43863   43864   43865   43864   43866   43867   43868
   43867   43869   43870   43871   43870   43872   43873   43874
   43873   43875   43876   43877   43876   43878   43879   43880
   43879   43881   43882   43883   43882   43884   43885   43886
   43885   43887   43888   43889   43888   43890   43891   43892
   43891   43893   43894   43895   43894   43896   43897   43898
   43897   43899   43900   43901   43900   43902   43903   43904
   43903   43905   43906   43907   43906   43908   43909   43910
   43909   43911   43912   43913   43912   43914   43915   43916
   43915   43917   43918   43919   43918   43920   43921   43922
   43921   43923   43924   43925   43924   43926   43927   43928
   43927   43929   43930   43931   43930   43932   43933   43934
   43933   43935   43936   43937   43936   43938   43939   43940
   43939   43941   43942   43943   43942   43944   43945   43946
   43945   43947   43948   43949   43948   43950   43951   43952
   43951   43953   43954   43955   43954   43956   43957   43958
   43957   43959   43960   43961   43960   43962   43963   43964
   43963   43965   43966   43967   43966   43968   43969   43970
   43969   43971   43972   43973   43972   43974   43975   43976
   43975   43977   43978   43979   43978   43980   43981   43982
   43981   43983   43984   43985   43984   43986   43987   43988
   43987   43989   43990   43991   43990   43992   43993   43994
   43993   43995   43996   43997   43996   43998   43999   44000
   43999   44001   44002   44003   44002   44004   44005   44006
   44005   44007   44008   44009   44008   44010   44011   44012
   44011   44013   44014   44015   44014   44016   44017   44018
   44017   44019   44020   44021   44020   44022   44023   44024
   44023   44025   44026   44027   44026   44028   44029   44030
   44029   44031   44032   44033   44032   44034   44035   44036
   44035   44037   44038   44039   44038   44040   44041   44042
   44041   44043   44044   44045   44044   44046   44047   44048
   44047   44049   44050   44051   44050   44052   44053   44054
   44053   44055   44056   44057   44056   44058   44059   44060
   44059   44061   44062   44063   44062   44064   44065   44066
   44065   44067   44068   44069   44068   44070   44071   44072
   44071   44073   44074   44075   44074   44076   44077   44078
   44077   44079   44080   44081   44080   44082   44083   44084
   44083   44085   44086   44087   44086   44088   44089   44090
   44089   44091   44092   44093   44092   44094   44095   44096
   44095   44097   44098   44099   44098   44100   44101   44102
   44101   44103   44104   44105   44104   44106   44107   44108
   44107   44109   44110   44111   44110   44112   44113   44114
   44113   44115   44116   44117   44116   44118   44119   44120
   44119   44121   44122   44123   44122   44124   44125   44126
   44125   44127   44128   44129   44128   44130   44131   44132
   44131   44133   44134   44135   44134   44136   44137   44138
   44137   44139   44140   44141   44140   44142   44143   44144
   44143   44145   44146   44147   44146   44148   44149   44150
   44149   44151   44152   44153   44152   44154   44155   44156
   44155   44157   44158   44159   44158   44160   44161   44162
   44161   44163   44164   44165   44164   44166   44167   44168
   44167   44169   44170   44171   44170   44172   44173   44174
   44173   44175   44176   44177   44176   44178   44179   44180
   44179   44181   44182   44183   44182   44184   44185   44186
   44185   44187   44188   44189   44188   44190   44191   44192
   44191   44193   44194   44195   44194   44196   44197   44198
   44197   44199   44200   44201   44200   44202   44203   44204
   44203   44205   44206   44207   44206   44208   44209   44210
   44209   44211   44212   44213   44212   44214   44215   44216
   44215   44217   44218   44219   44218   44220   44221   44222
   44221   44223   44224   44225   44224   44226   44227   44228
   44227   44229   44230   44231   44230   44232   44233   44234
   44233   44235   44236   44237   44236   44238   44239   44240
   44239   44241   44242   44243   44242   44244   44245   44246
   44245   44247   44248   44249   44248   44250   44251   44252
   44251   44253   44254   44255   44254   44256   44257   44258
   44257   44259   44260   44261   44260   44262   44263   44264
   44263   44265   44266   44267   44266   44268   44269   44270
   44269   44271   44272   44273   44272   44274   44275   44276
   44275   44277   44278   44279   44278   44280   44281   44282
   44281   44283   44284   44285   44284   44286   44287   44288
   44287   44289   44290   44291   44290   44292   44293   44294
   44293   44295   44296   44297   44296   44298   44299   44300
   44299   44301   44302   44303   44302   44304   44305   44306
   44305   44307   44308   44309   44308   44310   44311   44312
   44311   44313   44314   44315   44314   44316   44317   44318
   44317   44319   44320   44321   44320   44322   44323   44324
   44323   44325   44326   44327   44326   44328   44329   44330
   44329   44331   44332   44333   44332   44334   44335   44336
   44335   44337   44338   44339   44338   44340   44341   44342
   44341   44343   44344   44345   44344   44346   44347   44348
   44347   44349   44350   44351   44350   44352   44353   44354
   44353   44355   44356   44357   44356   44358   44359   44360
   44359   44361   44362   44363   44362   44364   44365   44366
   44365   44367   44368   44369   44368   44370   44371   44372
   44371   44373   44374   44375   44374   44376   44377   44378
   44377   44379   44380   44381   44380   44382   44383   44384
   44383   44385   44386   44387   44386   44388   44389   44390
   44389   44391   44392   44393   44392   44394   44395   44396
   44395   44397   44398   44399   44398   44400   44401   44402
   44401   44403   44404   44405   44404   44406   44407   44408
   44407   44409   44410   44411   44410   44412   44413   44414
   44413   44415   44416   44417   44416   44418   44419   44420
   44419   44421   44422   44423   44422   44424   44425   44426
   44425   44427   44428   44429   44428   44430   44431   44432
   44431   44433   44434   44435   44434   44436   44437   44438
   44437   44439   44440   44441   44440   44442   44443   44444
   44443   44445   44446   44447   44446   44448   44449   44450
   44449   44451   44452   44453   44452   44454   44455   44456
   44455   44457   44458   44459   44458   44460   44461   44462
   44461   44463   44464   44465   44464   44466   44467   44468
   44467   44469   44470   44471   44470   44472   44473   44474
   44473   44475   44476   44477   44476   44478   44479   44480
   44479   44481   44482   44483   44482   44484   44485   44486
   44485   44487   44488   44489   44488   44490   44491   44492
   44491   44493   44494   44495   44494   44496   44497   44498
   44497   44499   44500   44501   44500   44502   44503   44504
   44503   44505   44506   44507   44506   44508   44509   44510
   44509   44511   44512   44513   44512   44514   44515   44516
   44515   44517   44518   44519   44518   44520   44521   44522
   44521   44523   44524   44525   44524   44526   44527   44528
   44527   44529   44530   44531   44530   44532   44533   44534
   44533   44535   44536   44537   44536   44538   44539   44540
   44539   44541   44542   44543   44542   44544   44545   44546
   44545   44547   44548   44549   44548   44550   44551   44552
   44551   44553   44554   44555   44554   44556   44557   44558
   44557   44559   44560   44561   44560   44562   44563   44564
   44563   44565   44566   44567   44566   44568   44569   44570
   44569   44571   44572   44573   44572   44574   44575   44576
   44575   44577   44578   44579   44578   44580   44581   44582
   44581   44583   44584   44585   44584   44586   44587   44588
   44587   44589   44590   44591   44590   44592   44593   44594
   44593   44595   44596   44597   44596   44598   44599   44600
   44599   44601   44602   44603   44602   44604   44605   44606
   44605   44607   44608   44609   44608   44610   44611   44612
   44611   44613   44614   44615   44614   44616   44617   44618
   44617   44619   44620   44621   44620   44622   44623   44624
   44623   44625   44626   44627   44626   44628   44629   44630
   44629   44631   44632   44633   44632   44634   44635   44636
   44635   44637   44638   44639   44638   44640   44641   44642
   44641   44643   44644   44645   44644   44646   44647   44648
   44647   44649   44650   44651   44650   44652   44653   44654
   44653   44655   44656   44657   44656   44658   44659   44660
   44659   44661   44662   44663   44662   44664   44665   44666
   44665   44667   44668   44669   44668   44670   44671   44672
   44671   44673   44674   44675   44674   44676   44677   44678
   44677   44679   44680   44681   44680   44682   44683   44684
   44683   44685   44686   44687   44686   44688   44689   44690
   44689   44691   44692   44693   44692   44694   44695   44696
   44695   44697   44698   44699   44698   44700   44701   44702
   44701   44703   44704   44705   44704   44706   44707   44708
   44707   44709   44710   44711   44710   44712   44713   44714
   44713   44715   44716   44717   44716   44718   44719   44720
   44719   44721   44722   44723   44722   44724   44725   44726
   44725   44727   44728   44729   44728   44730   44731   44732
   44731   44733   44734   44735   44734   44736   44737   44738
   44737   44739   44740   44741   44740   44742   44743   44744
   44743   44745   44746   44747   44746   44748   44749   44750
   44749   44751   44752   44753   44752   44754   44755   44756
   44755   44757   44758   44759   44758   44760   44761   44762
   44761   44763   44764   44765   44764   44766   44767   44768
   44767   44769   44770   44771   44770   44772   44773   44774
   44773   44775   44776   44777   44776   44778   44779   44780
   44779   44781   44782   44783   44782   44784   44785   44786
   44785   44787   44788   44789   44788   44790   44791   44792
   44791   44793   44794   44795   44794   44796   44797   44798
   44797   44799   44800   44801   44800   44802   44803   44804
   44803   44805   44806   44807   44806   44808   44809   44810
   44809   44811   44812   44813   44812   44814   44815   44816
   44815   44817   44818   44819   44818   44820   44821   44822
   44821   44823   44824   44825   44824   44826   44827   44828
   44827   44829   44830   44831   44830   44832   44833   44834
   44833   44835   44836   44837   44836   44838   44839   44840
   44839   44841   44842   44843   44842   44844   44845   44846
   44845   44847   44848   44849   44848   44850   44851   44852
   44851   44853   44854   44855   44854   44856   44857   44858
   44857   44859   44860   44861   44860   44862   44863   44864
   44863   44865   44866   44867   44866   44868   44869   44870
   44869   44871   44872   44873   44872   44874   44875   44876
   44875   44877   44878   44879   44878   44880   44881   44882
   44881   44883   44884   44885   44884   44886   44887   44888
   44887   44889   44890   44891   44890   44892   44893   44894
   44893   44895   44896   44897   44896   44898   44899   44900
   44899   44901   44902   44903   44902   44904   44905   44906
   44905   44907   44908   44909   44908   44910   44911   44912
   44911   44913   44914   44915   44914   44916   44917   44918
   44917   44919   44920   44921   44920   44922   44923   44924
   44923   44925   44926   44927   44926   44928   44929   44930
   44929   44931   44932   44933   44932   44934   44935   44936
   44935   44937   44938   44939   44938   44940   44941   44942
   44941   44943   44944   44945   44944   44946   44947   44948
   44947   44949   44950   44951   44950   44952   44953   44954
   44953   44955   44956   44957   44956   44958   44959   44960
   44959   44961   44962   44963   44962   44964   44965   44966
   44965   44967   44968   44969   44968   44970   44971   44972
   44971   44973   44974   44975   44974   44976   44977   44978
   44977   44979   44980   44981   44980   44982   44983   44984
   44983   44985   44986   44987   44986   44988   44989   44990
   44989   44991   44992   44993   44992   44994   44995   44996
   44995   44997   44998   44999   44998   45000   45001   45002
   45001   45003   45004   45005   45004   45006   45007   45008
   45007   45009   45010   45011   45010   45012   45013   45014
   45013   45015   45016   45017   45016   45018   45019   45020
   45019   45021   45022   45023   45022   45024   45025   45026
   45025   45027   45028   45029   45028   45030   45031   45032
   45031   45033   45034   45035   45034   45036   45037   45038
   45037   45039   45040   45041   45040   45042   45043   45044
   45043   45045   45046   45047   45046   45048   45049   45050
   45049   45051   45052   45053   45052   45054   45055   45056
   45055   45057   45058   45059   45058   45060   45061   45062
   45061   45063   45064   45065   45064   45066   45067   45068
   45067   45069   45070   45071   45070   45072   45073   45074
   45073   45075   45076   45077   45076   45078   45079   45080
   45079   45081   45082   45083   45082   45084   45085   45086
   45085   45087   45088   45089   45088   45090   45091   45092
   45091   45093   45094   45095   45094   45096   45097   45098
   45097   45099   45100   45101   45100   45102   45103   45104
   45103   45105   45106   45107   45106   45108   45109   45110
   45109   45111   45112   45113   45112   45114   45115   45116
   45115   45117   45118   45119   45118   45120   45121   45122
   45121   45123   45124   45125   45124   45126   45127   45128
   45127   45129   45130   45131   45130   45132   45133   45134
   45133   45135   45136   45137   45136   45138   45139   45140
   45139   45141   45142   45143   45142   45144   45145   45146
   45145   45147   45148   45149   45148   45150   45151   45152
   45151   45153   45154   45155   45154   45156   45157   45158
   45157   45159   45160   45161   45160   45162   45163   45164
   45163   45165   45166   45167   45166   45168   45169   45170
   45169   45171   45172   45173   45172   45174   45175   45176
   45175   45177   45178   45179   45178   45180   45181   45182
   45181   45183   45184   45185   45184   45186   45187   45188
   45187   45189   45190   45191   45190   45192   45193   45194
   45193   45195   45196   45197   45196   45198   45199   45200
   45199   45201   45202   45203   45202   45204   45205   45206
   45205   45207   45208   45209   45208   45210   45211   45212
   45211   45213   45214   45215   45214   45216   45217   45218
   45217   45219   45220   45221   45220   45222   45223   45224
   45223   45225   45226   45227   45226   45228   45229   45230
   45229   45231   45232   45233   45232   45234   45235   45236
   45235   45237   45238   45239   45238   45240   45241   45242
   45241   45243   45244   45245   45244   45246   45247   45248
   45247   45249   45250   45251   45250   45252   45253   45254
   45253   45255   45256   45257   45256   45258   45259   45260
   45259   45261   45262   45263   45262   45264   45265   45266
   45265   45267   45268   45269   45268   45270   45271   45272
   45271   45273   45274   45275   45274   45276   45277   45278
   45277   45279   45280   45281   45280   45282   45283   45284
   45283   45285   45286   45287   45286   45288   45289   45290
   45289   45291   45292   45293   45292   45294   45295   45296
   45295   45297   45298   45299   45298   45300   45301   45302
   45301   45303   45304   45305   45304   45306   45307   45308
   45307   45309   45310   45311   45310   45312   45313   45314
   45313   45315   45316   45317   45316   45318   45319   45320
   45319   45321   45322   45323   45322   45324   45325   45326
   45325   45327   45328   45329   45328   45330   45331   45332
   45331   45333   45334   45335   45334   45336   45337   45338
   45337   45339   45340   45341   45340   45342   45343   45344
   45343   45345   45346   45347   45346   45348   45349   45350
   45349   45351   45352   45353   45352   45354   45355   45356
   45355   45357   45358   45359   45358   45360   45361   45362
   45361   45363   45364   45365   45364   45366   45367   45368
   45367   45369   45370   45371   45370   45372   45373   45374
   45373   45375   45376   45377   45376   45378   45379   45380
   45379   45381   45382   45383   45382   45384   45385   45386
   45385   45387   45388   45389   45388   45390   45391   45392
   45391   45393   45394   45395   45394   45396   45397   45398
   45397   45399   45400   45401   45400   45402   45403   45404
   45403   45405   45406   45407   45406   45408   45409   45410
   45409   45411   45412   45413   45412   45414   45415   45416
   45415   45417   45418   45419   45418   45420   45421   45422
   45421   45423   45424   45425   45424   45426   45427   45428
   45427   45429   45430   45431   45430   45432   45433   45434
   45433   45435   45436   45437   45436   45438   45439   45440
   45439   45441   45442   45443   45442   45444   45445   45446
   45445   45447   45448   45449   45448   45450   45451   45452
   45451   45453   45454   45455   45454   45456   45457   45458
   45457   45459   45460   45461   45460   45462   45463   45464
   45463   45465   45466   45467   45466   45468   45469   45470
   45469   45471   45472   45473   45472   45474   45475   45476
   45475   45477   45478   45479   45478   45480   45481   45482
   45481   45483   45484   45485   45484   45486   45487   45488
   45487   45489   45490   45491   45490   45492   45493   45494
   45493   45495   45496   45497   45496   45498   45499   45500
   45499   45501   45502   45503   45502   45504   45505   45506
   45505   45507   45508   45509   45508   45510   45511   45512
   45511   45513   45514   45515   45514   45516   45517   45518
   45517   45519   45520   45521   45520   45522   45523   45524
   45523   45525   45526   45527   45526   45528   45529   45530
   45529   45531   45532   45533   45532   45534   45535   45536
   45535   45537   45538   45539   45538   45540   45541   45542
   45541   45543   45544   45545   45544   45546   45547   45548
   45547   45549   45550   45551   45550   45552   45553   45554
   45553   45555   45556   45557   45556   45558   45559   45560
   45559   45561   45562   45563   45562   45564   45565   45566
   45565   45567   45568   45569   45568   45570   45571   45572
   45571   45573   45574   45575   45574   45576   45577   45578
   45577   45579   45580   45581   45580   45582   45583   45584
   45583   45585   45586   45587   45586   45588   45589   45590
   45589   45591   45592   45593   45592   45594   45595   45596
   45595   45597   45598   45599   45598   45600   45601   45602
   45601   45603   45604   45605   45604   45606   45607   45608
   45607   45609   45610   45611   45610   45612   45613   45614
   45613   45615   45616   45617   45616   45618   45619   45620
   45619   45621   45622   45623   45622   45624   45625   45626
   45625   45627   45628   45629   45628   45630   45631   45632
   45631   45633   45634   45635   45634   45636   45637   45638
   45637   45639   45640   45641   45640   45642   45643   45644
   45643   45645   45646   45647   45646   45648   45649   45650
   45649   45651   45652   45653   45652   45654   45655   45656
   45655   45657   45658   45659   45658   45660   45661   45662
   45661   45663   45664   45665   45664   45666   45667   45668
   45667   45669   45670   45671   45670   45672   45673   45674
   45673   45675   45676   45677   45676   45678   45679   45680
   45679   45681   45682   45683   45682   45684   45685   45686
   45685   45687   45688   45689   45688   45690   45691   45692
   45691   45693   45694   45695   45694   45696   45697   45698
   45697   45699   45700   45701   45700   45702   45703   45704
   45703   45705   45706   45707   45706   45708   45709   45710
   45709   45711   45712   45713   45712   45714   45715   45716
   45715   45717   45718   45719   45718   45720   45721   45722
   45721   45723   45724   45725   45724   45726   45727   45728
   45727   45729   45730   45731   45730   45732   45733   45734
   45733   45735   45736   45737   45736   45738   45739   45740
   45739   45741   45742   45743   45742   45744   45745   45746
   45745   45747   45748   45749   45748   45750   45751   45752
   45751   45753   45754   45755   45754   45756   45757   45758
   45757   45759   45760   45761   45760   45762   45763   45764
   45763   45765   45766   45767   45766   45768   45769   45770
   45769   45771   45772   45773   45772   45774   45775   45776
   45775   45777   45778   45779   45778   45780   45781   45782
   45781   45783   45784   45785   45784   45786   45787   45788
   45787   45789   45790   45791   45790   45792   45793   45794
   45793   45795   45796   45797   45796   45798   45799   45800
   45799   45801   45802   45803   45802   45804   45805   45806
   45805   45807   45808   45809   45808   45810   45811   45812
   45811   45813   45814   45815   45814   45816   45817   45818
   45817   45819   45820   45821   45820   45822   45823   45824
   45823   45825   45826   45827   45826   45828   45829   45830
   45829   45831   45832   45833   45832   45834   45835   45836
   45835   45837   45838   45839   45838   45840   45841   45842
   45841   45843   45844   45845   45844   45846   45847   45848
   45847   45849   45850   45851   45850   45852   45853   45854
   45853   45855   45856   45857   45856   45858   45859   45860
   45859   45861   45862   45863   45862   45864   45865   45866
   45865   45867   45868   45869   45868   45870   45871   45872
   45871   45873   45874   45875   45874   45876   45877   45878
   45877   45879   45880   45881   45880   45882   45883   45884
   45883   45885   45886   45887   45886   45888   45889   45890
   45889   45891   45892   45893   45892   45894   45895   45896
   45895   45897   45898   45899   45898   45900   45901   45902
   45901   45903   45904   45905   45904   45906   45907   45908
   45907   45909   45910   45911   45910   45912   45913   45914
   45913   45915   45916   45917   45916   45918   45919   45920
   45919   45921   45922   45923   45922   45924   45925   45926
   45925   45927   45928   45929   45928   45930   45931   45932
   45931   45933   45934   45935   45934   45936   45937   45938
   45937   45939   45940   45941   45940   45942   45943   45944
   45943   45945   45946   45947   45946   45948   45949   45950
   45949   45951   45952   45953   45952   45954   45955   45956
   45955   45957   45958   45959   45958   45960   45961   45962
   45961   45963   45964   45965   45964   45966   45967   45968
   45967   45969   45970   45971   45970   45972   45973   45974
   45973   45975   45976   45977   45976   45978   45979   45980
   45979   45981   45982   45983   45982   45984   45985   45986
   45985   45987   45988   45989   45988   45990   45991   45992
   45991   45993   45994   45995   45994   45996   45997   45998
   45997   45999   46000   46001   46000   46002   46003   46004
   46003   46005   46006   46007   46006   46008   46009   46010
   46009   46011   46012   46013   46012   46014   46015   46016
   46015   46017   46018   46019   46018   46020   46021   46022
   46021   46023   46024   46025   46024   46026   46027   46028
   46027   46029   46030   46031   46030   46032   46033   46034
   46033   46035   46036   46037   46036   46038   46039   46040
   46039   46041   46042   46043   46042   46044   46045   46046
   46045   46047   46048   46049   46048   46050   46051   46052
   46051   46053   46054   46055   46054   46056   46057   46058
   46057   46059   46060   46061   46060   46062   46063   46064
   46063   46065   46066   46067   46066   46068   46069   46070
   46069   46071   46072   46073   46072   46074   46075   46076
   46075   46077   46078   46079   46078   46080   46081   46082
   46081   46083   46084   46085   46084   46086   46087   46088
   46087   46089   46090   46091   46090   46092   46093   46094
   46093   46095   46096   46097   46096   46098   46099   46100
   46099   46101   46102   46103   46102   46104   46105   46106
   46105   46107   46108   46109   46108   46110   46111   46112
   46111   46113   46114   46115   46114   46116   46117   46118
   46117   46119   46120   46121   46120   46122   46123   46124
   46123   46125   46126   46127   46126   46128   46129   46130
   46129   46131   46132   46133   46132   46134   46135   46136
   46135   46137   46138   46139   46138   46140   46141   46142
   46141   46143   46144   46145   46144   46146   46147   46148
   46147   46149   46150   46151   46150   46152   46153   46154
   46153   46155   46156   46157   46156   46158   46159   46160
   46159   46161   46162   46163   46162   46164   46165   46166
   46165   46167   46168   46169   46168   46170   46171   46172
   46171   46173   46174   46175   46174   46176   46177   46178
   46177   46179   46180   46181   46180   46182   46183   46184
   46183   46185   46186   46187   46186   46188   46189   46190
   46189   46191   46192   46193   46192   46194   46195   46196
   46195   46197   46198   46199   46198   46200   46201   46202
   46201   46203   46204   46205   46204   46206   46207   46208
   46207   46209   46210   46211   46210   46212   46213   46214
   46213   46215   46216   46217   46216   46218   46219   46220
   46219   46221   46222   46223   46222   46224   46225   46226
   46225   46227   46228   46229   46228   46230   46231   46232
   46231   46233   46234   46235   46234   46236   46237   46238
   46237   46239   46240   46241   46240   46242   46243   46244
   46243   46245   46246   46247   46246   46248   46249   46250
   46249   46251   46252   46253   46252   46254   46255   46256
   46255   46257   46258   46259   46258   46260   46261   46262
   46261   46263   46264   46265   46264   46266   46267   46268
   46267   46269   46270   46271   46270   46272   46273   46274
   46273   46275   46276   46277   46276   46278   46279   46280
   46279   46281   46282   46283   46282   46284   46285   46286
   46285   46287   46288   46289   46288   46290   46291   46292
   46291   46293   46294   46295   46294   46296   46297   46298
   46297   46299   46300   46301   46300   46302   46303   46304
   46303   46305   46306   46307   46306   46308   46309   46310
   46309   46311   46312   46313   46312   46314   46315   46316
   46315   46317   46318   46319   46318   46320   46321   46322
   46321   46323   46324   46325   46324   46326   46327   46328
   46327   46329   46330   46331   46330   46332   46333   46334
   46333   46335   46336   46337   46336   46338   46339   46340
   46339   46341   46342   46343   46342   46344   46345   46346
   46345   46347   46348   46349   46348   46350   46351   46352
   46351   46353   46354   46355   46354   46356   46357   46358
   46357   46359   46360   46361   46360   46362   46363   46364
   46363   46365   46366   46367   46366   46368   46369   46370
   46369   46371   46372   46373   46372   46374   46375   46376
   46375   46377   46378   46379   46378   46380   46381   46382
   46381   46383   46384   46385   46384   46386   46387   46388
   46387   46389   46390   46391   46390   46392   46393   46394
   46393   46395   46396   46397   46396   46398   46399   46400
   46399   46401   46402   46403   46402   46404   46405   46406
   46405   46407   46408   46409   46408   46410   46411   46412
   46411   46413   46414   46415   46414   46416   46417   46418
   46417   46419   46420   46421   46420   46422   46423   46424
   46423   46425   46426   46427   46426   46428   46429   46430
   46429   46431   46432   46433   46432   46434   46435   46436
   46435   46437   46438   46439   46438   46440   46441   46442
   46441   46443   46444   46445   46444   46446   46447   46448
   46447   46449   46450   46451   46450   46452   46453   46454
   46453   46455   46456   46457   46456   46458   46459   46460
   46459   46461   46462   46463   46462   46464   46465   46466
   46465   46467   46468   46469   46468   46470   46471   46472
   46471   46473   46474   46475   46474   46476   46477   46478
   46477   46479   46480   46481   46480   46482   46483   46484
   46483   46485   46486   46487   46486   46488   46489   46490
   46489   46491   46492   46493   46492   46494   46495   46496
   46495   46497   46498   46499   46498   46500   46501   46502
   46501   46503   46504   46505   46504   46506   46507   46508
   46507   46509   46510   46511   46510   46512   46513   46514
   46513   46515   46516   46517   46516   46518   46519   46520
   46519   46521   46522   46523   46522   46524   46525   46526
   46525   46527   46528   46529   46528   46530   46531   46532
   46531   46533   46534   46535   46534   46536   46537   46538
   46537   46539   46540   46541   46540   46542   46543   46544
   46543   46545   46546   46547   46546   46548   46549   46550
   46549   46551   46552   46553   46552   46554   46555   46556
   46555   46557   46558   46559   46558   46560   46561   46562
   46561   46563   46564   46565   46564   46566   46567   46568
   46567   46569   46570   46571   46570   46572   46573   46574
   46573   46575   46576   46577   46576   46578   46579   46580
   46579   46581   46582   46583   46582   46584   46585   46586
   46585   46587   46588   46589   46588   46590   46591   46592
   46591   46593   46594   46595   46594   46596   46597   46598
   46597   46599   46600   46601   46600   46602   46603   46604
   46603   46605   46606   46607   46606   46608   46609   46610
   46609   46611   46612   46613   46612   46614   46615   46616
   46615   46617   46618   46619   46618   46620   46621   46622
   46621   46623   46624   46625   46624   46626   46627   46628
   46627   46629   46630   46631   46630   46632   46633   46634
   46633   46635   46636   46637   46636   46638   46639   46640
   46639   46641   46642   46643   46642   46644   46645   46646
   46645   46647   46648   46649   46648   46650   46651   46652
   46651   46653   46654   46655   46654   46656   46657   46658
   46657   46659   46660   46661   46660   46662   46663   46664
   46663   46665   46666   46667   46666   46668   46669   46670
   46669   46671   46672   46673   46672   46674   46675   46676
   46675   46677   46678   46679   46678   46680   46681   46682
   46681   46683   46684   46685   46684   46686   46687   46688
   46687   46689   46690   46691   46690   46692   46693   46694
   46693   46695   46696   46697   46696   46698   46699   46700
   46699   46701   46702   46703   46702   46704   46705   46706
   46705   46707   46708   46709   46708   46710   46711   46712
   46711   46713   46714   46715   46714   46716   46717   46718
   46717   46719   46720   46721   46720   46722   46723   46724
   46723   46725   46726   46727   46726   46728   46729   46730
   46729   46731   46732   46733   46732   46734   46735   46736
   46735   46737   46738   46739   46738   46740   46741   46742
   46741   46743   46744   46745   46744   46746   46747   46748
   46747   46749   46750   46751   46750   46752   46753   46754
   46753   46755   46756   46757   46756   46758   46759   46760
   46759   46761   46762   46763   46762   46764   46765   46766
   46765   46767   46768   46769   46768   46770   46771   46772
   46771   46773   46774   46775   46774   46776   46777   46778
   46777   46779   46780   46781   46780   46782   46783   46784
   46783   46785   46786   46787   46786   46788   46789   46790
   46789   46791   46792   46793   46792   46794   46795   46796
   46795   46797   46798   46799   46798   46800   46801   46802
   46801   46803   46804   46805   46804   46806   46807   46808
   46807   46809   46810   46811   46810   46812   46813   46814
   46813   46815   46816   46817   46816   46818   46819   46820
   46819   46821   46822   46823   46822   46824   46825   46826
   46825   46827   46828   46829   46828   46830   46831   46832
   46831   46833   46834   46835   46834   46836   46837   46838
   46837   46839   46840   46841   46840   46842   46843   46844
   46843   46845   46846   46847   46846   46848   46849   46850
   46849   46851   46852   46853   46852   46854   46855   46856
   46855   46857   46858   46859   46858   46860   46861   46862
   46861   46863   46864   46865   46864   46866   46867   46868
   46867   46869   46870   46871   46870   46872   46873   46874
   46873   46875   46876   46877   46876   46878   46879   46880
   46879   46881   46882   46883   46882   46884   46885   46886
   46885   46887   46888   46889   46888   46890   46891   46892
   46891   46893   46894   46895   46894   46896   46897   46898
   46897   46899   46900   46901   46900   46902   46903   46904
   46903   46905   46906   46907   46906   46908   46909   46910
   46909   46911   46912   46913   46912   46914   46915   46916
   46915   46917   46918   46919   46918   46920   46921   46922
   46921   46923   46924   46925   46924   46926   46927   46928
   46927   46929   46930   46931   46930   46932   46933   46934
   46933   46935   46936   46937   46936   46938   46939   46940
   46939   46941   46942   46943   46942   46944   46945   46946
   46945   46947   46948   46949   46948   46950   46951   46952
   46951   46953   46954   46955   46954   46956   46957   46958
   46957   46959   46960   46961   46960   46962   46963   46964
   46963   46965   46966   46967   46966   46968   46969   46970
   46969   46971   46972   46973   46972   46974   46975   46976
   46975   46977   46978   46979   46978   46980   46981   46982
   46981   46983   46984   46985   46984   46986   46987   46988
   46987   46989   46990   46991   46990   46992   46993   46994
   46993   46995   46996   46997   46996   46998   46999   47000
   46999   47001   47002   47003   47002   47004   47005   47006
   47005   47007   47008   47009   47008   47010   47011   47012
   47011   47013   47014   47015   47014   47016   47017   47018
   47017   47019   47020   47021   47020   47022   47023   47024
   47023   47025   47026   47027   47026   47028   47029   47030
   47029   47031   47032   47033   47032   47034   47035   47036
   47035   47037   47038   47039   47038   47040   47041   47042
   47041   47043   47044   47045   47044   47046   47047   47048
   47047   47049   47050   47051   47050   47052   47053   47054
   47053   47055   47056   47057   47056   47058   47059   47060
   47059   47061   47062   47063   47062   47064   47065   47066
   47065   47067   47068   47069   47068   47070   47071   47072
   47071   47073   47074   47075   47074   47076   47077   47078
   47077   47079   47080   47081   47080   47082   47083   47084
   47083   47085   47086   47087   47086   47088   47089   47090
   47089   47091   47092   47093   47092   47094   47095   47096
   47095   47097   47098   47099   47098   47100   47101   47102
   47101   47103   47104   47105   47104   47106   47107   47108
   47107   47109   47110   47111   47110   47112   47113   47114
   47113   47115   47116   47117   47116   47118   47119   47120
   47119   47121   47122   47123   47122   47124   47125   47126
   47125   47127   47128   47129   47128   47130   47131   47132
   47131   47133   47134   47135   47134   47136   47137   47138
   47137   47139   47140   47141   47140   47142   47143   47144
   47143   47145   47146   47147   47146   47148   47149   47150
   47149   47151   47152   47153   47152   47154   47155   47156
   47155   47157   47158   47159   47158   47160   47161   47162
   47161   47163   47164   47165   47164   47166   47167   47168
   47167   47169   47170   47171   47170   47172   47173   47174
   47173   47175   47176   47177   47176   47178   47179   47180
   47179   47181   47182   47183   47182   47184   47185   47186
   47185   47187   47188   47189   47188   47190   47191   47192
   47191   47193   47194   47195   47194   47196   47197   47198
   47197   47199   47200   47201   47200   47202   47203   47204
   47203   47205   47206   47207   47206   47208   47209   47210
   47209   47211   47212   47213   47212   47214   47215   47216
   47215   47217   47218   47219   47218   47220   47221   47222
   47221   47223   47224   47225   47224   47226   47227   47228
   47227   47229   47230   47231   47230   47232   47233   47234
   47233   47235   47236   47237   47236   47238   47239   47240
   47239   47241   47242   47243   47242   47244   47245   47246
   47245   47247   47248   47249   47248   47250   47251   47252
   47251   47253   47254   47255   47254   47256   47257   47258
   47257   47259   47260   47261   47260   47262   47263   47264
   47263   47265   47266   47267   47266   47268   47269   47270
   47269   47271   47272   47273   47272   47274   47275   47276
   47275   47277   47278   47279   47278   47280   47281   47282
   47281   47283   47284   47285   47284   47286   47287   47288
   47287   47289   47290   47291   47290   47292   47293   47294
   47293   47295   47296   47297   47296   47298   47299   47300
   47299   47301   47302   47303   47302   47304   47305   47306
   47305   47307   47308   47309   47308   47310   47311   47312
   47311   47313   47314   47315   47314   47316   47317   47318
   47317   47319   47320   47321   47320   47322   47323   47324
   47323   47325   47326   47327   47326   47328   47329   47330
   47329   47331   47332   47333   47332   47334   47335   47336
   47335   47337   47338   47339   47338   47340   47341   47342
   47341   47343   47344   47345   47344   47346   47347   47348
   47347   47349   47350   47351   47350   47352   47353   47354
   47353   47355   47356   47357   47356   47358   47359   47360
   47359   47361   47362   47363   47362   47364   47365   47366
   47365   47367   47368   47369   47368   47370   47371   47372
   47371   47373   47374   47375   47374   47376   47377   47378
   47377   47379   47380   47381   47380   47382   47383   47384
   47383   47385   47386   47387   47386   47388   47389   47390
   47389   47391   47392   47393   47392   47394   47395   47396
   47395   47397   47398   47399   47398   47400   47401   47402
   47401   47403   47404   47405   47404   47406   47407   47408
   47407   47409   47410   47411   47410   47412   47413   47414
   47413   47415   47416   47417   47416   47418   47419   47420
   47419   47421   47422   47423   47422   47424   47425   47426
   47425   47427   47428   47429   47428   47430   47431   47432
   47431   47433   47434   47435   47434   47436   47437   47438
   47437   47439   47440   47441   47440   47442   47443   47444
   47443   47445   47446   47447   47446   47448   47449   47450
   47449   47451   47452   47453   47452   47454   47455   47456
   47455   47457   47458   47459   47458   47460   47461   47462
   47461   47463   47464   47465   47464   47466   47467   47468
   47467   47469   47470   47471   47470   47472   47473   47474
   47473   47475   47476   47477   47476   47478   47479   47480
   47479   47481   47482   47483   47482   47484   47485   47486
   47485   47487   47488   47489   47488   47490   47491   47492
   47491   47493   47494   47495   47494   47496   47497   47498
   47497   47499   47500   47501   47500   47502   47503   47504
   47503   47505   47506   47507   47506   47508   47509   47510
   47509   47511   47512   47513   47512   47514   47515   47516
   47515   47517   47518   47519   47518   47520   47521   47522
   47521   47523   47524   47525   47524   47526   47527   47528
   47527   47529   47530   47531   47530   47532   47533   47534
   47533   47535   47536   47537   47536   47538   47539   47540
   47539   47541   47542   47543   47542   47544   47545   47546
   47545   47547   47548   47549   47548   47550   47551   47552
   47551   47553   47554   47555   47554   47556   47557   47558
   47557   47559   47560   47561   47560   47562   47563   47564
   47563   47565   47566   47567   47566   47568   47569   47570
   47569   47571   47572   47573   47572   47574   47575   47576
   47575   47577   47578   47579   47578   47580   47581   47582
   47581   47583   47584   47585   47584   47586   47587   47588
   47587   47589   47590   47591   47590   47592   47593   47594
   47593   47595   47596   47597   47596   47598   47599   47600
   47599   47601   47602   47603   47602   47604   47605   47606
   47605   47607   47608   47609   47608   47610   47611   47612
   47611   47613   47614   47615   47614   47616   47617   47618
   47617   47619   47620   47621   47620   47622   47623   47624
   47623   47625   47626   47627   47626   47628   47629   47630
   47629   47631   47632   47633   47632   47634   47635   47636
   47635   47637   47638   47639   47638   47640   47641   47642
   47641   47643   47644   47645   47644   47646   47647   47648
   47647   47649   47650   47651   47650   47652   47653   47654
   47653   47655   47656   47657   47656   47658   47659   47660
   47659   47661   47662   47663   47662   47664   47665   47666
   47665   47667   47668   47669   47668   47670   47671   47672
   47671   47673   47674   47675   47674   47676   47677   47678
   47677   47679   47680   47681   47680   47682   47683   47684
   47683   47685   47686   47687   47686   47688   47689   47690
   47689   47691   47692   47693   47692   47694   47695   47696
   47695   47697   47698   47699   47698   47700   47701   47702
   47701   47703   47704   47705   47704   47706   47707   47708
   47707   47709   47710   47711   47710   47712   47713   47714
   47713   47715   47716   47717   47716   47718   47719   47720
   47719   47721   47722   47723   47722   47724   47725   47726
   47725   47727   47728   47729   47728   47730   47731   47732
   47731   47733   47734   47735   47734   47736   47737   47738
   47737   47739   47740   47741   47740   47742   47743   47744
   47743   47745   47746   47747   47746   47748   47749   47750
   47749   47751   47752   47753   47752   47754   47755   47756
   47755   47757   47758   47759   47758   47760   47761   47762
   47761   47763   47764   47765   47764   47766   47767   47768
   47767   47769   47770   47771   47770   47772   47773   47774
   47773   47775   47776   47777   47776   47778   47779   47780
   47779   47781   47782   47783   47782   47784   47785   47786
   47785   47787   47788   47789   47788   47790   47791   47792
   47791   47793   47794   47795   47794   47796   47797   47798
   47797   47799   47800   47801   47800   47802   47803   47804
   47803   47805   47806   47807   47806   47808   47809   47810
   47809   47811   47812   47813   47812   47814   47815   47816
   47815   47817   47818   47819   47818   47820   47821   47822
   47821   47823   47824   47825   47824   47826   47827   47828
   47827   47829   47830   47831   47830   47832   47833   47834
   47833   47835   47836   47837   47836   47838   47839   47840
   47839   47841   47842   47843   47842   47844   47845   47846
   47845   47847   47848   47849   47848   47850   47851   47852
   47851   47853   47854   47855   47854   47856   47857   47858
   47857   47859   47860   47861   47860   47862   47863   47864
   47863   47865   47866   47867   47866   47868   47869   47870
   47869   47871   47872   47873   47872   47874   47875   47876
   47875   47877   47878   47879   47878   47880   47881   47882
   47881   47883   47884   47885   47884   47886   47887   47888
   47887   47889   47890   47891   47890   47892   47893   47894
   47893   47895   47896   47897   47896   47898   47899   47900
   47899   47901   47902   47903   47902   47904   47905   47906
   47905   47907   47908   47909   47908   47910   47911   47912
   47911   47913   47914   47915   47914   47916   47917   47918
   47917   47919   47920   47921   47920   47922   47923   47924
   47923   47925   47926   47927   47926   47928   47929   47930
   47929   47931   47932   47933   47932   47934   47935   47936
   47935   47937   47938   47939   47938   47940   47941   47942
   47941   47943   47944   47945   47944   47946   47947   47948
   47947   47949   47950   47951   47950   47952   47953   47954
   47953   47955   47956   47957   47956   47958   47959   47960
   47959   47961   47962   47963   47962   47964   47965   47966
   47965   47967   47968   47969   47968   47970   47971   47972
   47971   47973   47974   47975   47974   47976   47977   47978
   47977   47979   47980   47981   47980   47982   47983   47984
   47983   47985   47986   47987   47986   47988   47989   47990
   47989   47991   47992   47993   47992   47994   47995   47996
   47995   47997   47998   47999   47998   48000   48001   48002
   48001   48003   48004   48005   48004   48006   48007   48008
   48007   48009   48010   48011   48010   48012   48013   48014
   48013   48015   48016   48017   48016   48018   48019   48020
   48019   48021   48022   48023   48022   48024   48025   48026
   48025   48027   48028   48029   48028   48030   48031   48032
   48031   48033   48034   48035   48034   48036   48037   48038
   48037   48039   48040   48041   48040   48042   48043   48044
   48043   48045   48046   48047   48046   48048   48049   48050
   48049   48051   48052   48053   48052   48054   48055   48056
   48055   48057   48058   48059   48058   48060   48061   48062
   48061   48063   48064   48065   48064   48066   48067   48068
   48067   48069   48070   48071   48070   48072   48073   48074
   48073   48075   48076   48077   48076   48078   48079   48080
   48079   48081   48082   48083   48082   48084   48085   48086
   48085   48087   48088   48089   48088   48090   48091   48092
   48091   48093   48094   48095   48094   48096   48097   48098
   48097   48099   48100   48101   48100   48102   48103   48104
   48103   48105   48106   48107   48106   48108   48109   48110
   48109   48111   48112   48113   48112   48114   48115   48116
   48115   48117   48118   48119   48118   48120   48121   48122
   48121   48123   48124   48125   48124   48126   48127   48128
   48127   48129   48130   48131   48130   48132   48133   48134
   48133   48135   48136   48137   48136   48138   48139   48140
   48139   48141   48142   48143   48142   48144   48145   48146
   48145   48147   48148   48149   48148   48150   48151   48152
   48151   48153   48154   48155   48154   48156   48157   48158
   48157   48159   48160   48161   48160   48162   48163   48164
   48163   48165   48166   48167   48166   48168   48169   48170
   48169   48171   48172   48173   48172   48174   48175   48176
   48175   48177   48178   48179   48178   48180   48181   48182
   48181   48183   48184   48185   48184   48186   48187   48188
   48187   48189   48190   48191   48190   48192   48193   48194
   48193   48195   48196   48197   48196   48198   48199   48200
   48199   48201   48202   48203   48202   48204   48205   48206
   48205   48207   48208   48209   48208   48210   48211   48212
   48211   48213   48214   48215   48214   48216   48217   48218
   48217   48219   48220   48221   48220   48222   48223   48224
   48223   48225   48226   48227   48226   48228   48229   48230
   48229   48231   48232   48233   48232   48234   48235   48236
   48235   48237   48238   48239   48238   48240   48241   48242
   48241   48243   48244   48245   48244   48246   48247   48248
   48247   48249   48250   48251   48250   48252   48253   48254
   48253   48255   48256   48257   48256   48258   48259   48260
   48259   48261   48262   48263   48262   48264   48265   48266
   48265   48267   48268   48269   48268   48270   48271   48272
   48271   48273   48274   48275   48274   48276   48277   48278
   48277   48279   48280   48281   48280   48282   48283   48284
   48283   48285   48286   48287   48286   48288   48289   48290
   48289   48291   48292   48293   48292   48294   48295   48296
   48295   48297   48298   48299   48298   48300   48301   48302
   48301   48303   48304   48305   48304   48306   48307   48308
   48307   48309   48310   48311   48310   48312   48313   48314
   48313   48315   48316   48317   48316   48318   48319   48320
   48319   48321   48322   48323   48322   48324   48325   48326
   48325   48327   48328   48329   48328   48330   48331   48332
   48331   48333   48334   48335   48334   48336   48337   48338
   48337   48339   48340   48341   48340   48342   48343   48344
   48343   48345   48346   48347   48346   48348   48349   48350
   48349   48351   48352   48353   48352   48354   48355   48356
   48355   48357   48358   48359   48358   48360   48361   48362
   48361   48363   48364   48365   48364   48366   48367   48368
   48367   48369   48370   48371   48370   48372   48373   48374
   48373   48375   48376   48377   48376   48378   48379   48380
   48379   48381   48382   48383   48382   48384   48385   48386
   48385   48387   48388   48389   48388   48390   48391   48392
   48391   48393   48394   48395   48394   48396   48397   48398
   48397   48399   48400   48401   48400   48402   48403   48404
   48403   48405   48406   48407   48406   48408   48409   48410
   48409   48411   48412   48413   48412   48414   48415   48416
   48415   48417   48418   48419   48418   48420   48421   48422
   48421   48423   48424   48425   48424   48426   48427   48428
   48427   48429   48430   48431   48430   48432   48433   48434
   48433   48435   48436   48437   48436   48438   48439   48440
   48439   48441   48442   48443   48442   48444   48445   48446
   48445   48447   48448   48449   48448   48450   48451   48452
   48451   48453   48454   48455   48454   48456   48457   48458
   48457   48459   48460   48461   48460   48462   48463   48464
   48463   48465   48466   48467   48466   48468   48469   48470
   48469   48471   48472   48473   48472   48474   48475   48476
   48475   48477   48478   48479   48478   48480   48481   48482
   48481   48483   48484   48485   48484   48486   48487   48488
   48487   48489   48490   48491   48490   48492   48493   48494
   48493   48495   48496   48497   48496   48498   48499   48500
   48499   48501   48502   48503   48502   48504   48505   48506
   48505   48507   48508   48509   48508   48510   48511   48512
   48511   48513   48514   48515   48514   48516   48517   48518
   48517   48519   48520   48521   48520   48522   48523   48524
   48523   48525   48526   48527   48526   48528   48529   48530
   48529   48531   48532   48533   48532   48534   48535   48536
   48535   48537   48538   48539   48538   48540   48541   48542
   48541   48543   48544   48545   48544   48546   48547   48548
   48547   48549   48550   48551   48550   48552   48553   48554
   48553   48555   48556   48557   48556   48558   48559   48560
   48559   48561   48562   48563   48562   48564   48565   48566
   48565   48567   48568   48569   48568   48570   48571   48572
   48571   48573   48574   48575   48574   48576   48577   48578
   48577   48579   48580   48581   48580   48582   48583   48584
   48583   48585   48586   48587   48586   48588   48589   48590
   48589   48591   48592   48593   48592   48594   48595   48596
   48595   48597   48598   48599   48598   48600   48601   48602
   48601   48603   48604   48605   48604   48606   48607   48608
   48607   48609   48610   48611   48610   48612   48613   48614
   48613   48615   48616   48617   48616   48618   48619   48620
   48619   48621   48622   48623   48622   48624   48625   48626
   48625   48627   48628   48629   48628   48630   48631   48632
   48631   48633   48634   48635   48634   48636   48637   48638
   48637   48639   48640   48641   48640   48642   48643   48644
   48643   48645   48646   48647   48646   48648   48649   48650
   48649   48651   48652   48653   48652   48654   48655   48656
   48655   48657   48658   48659   48658   48660   48661   48662
   48661   48663   48664   48665   48664   48666   48667   48668
   48667   48669   48670   48671   48670   48672   48673   48674
   48673   48675   48676   48677   48676   48678   48679   48680
   48679   48681   48682   48683   48682   48684   48685   48686
   48685   48687   48688   48689   48688   48690   48691   48692
   48691   48693   48694   48695   48694   48696   48697   48698
   48697   48699   48700   48701   48700   48702   48703   48704
   48703   48705   48706   48707   48706   48708   48709   48710
   48709   48711   48712   48713   48712   48714   48715   48716
   48715   48717   48718   48719   48718   48720   48721   48722
   48721   48723   48724   48725   48724   48726   48727   48728
   48727   48729   48730   48731   48730   48732   48733   48734
   48733   48735   48736   48737   48736   48738   48739   48740
   48739   48741   48742   48743   48742   48744   48745   48746
   48745   48747   48748   48749   48748   48750   48751   48752
   48751   48753   48754   48755   48754   48756   48757   48758
   48757   48759   48760   48761   48760   48762   48763   48764
   48763   48765   48766   48767   48766   48768   48769   48770
   48769   48771   48772   48773   48772   48774   48775   48776
   48775   48777   48778   48779   48778   48780   48781   48782
   48781   48783   48784   48785   48784   48786   48787   48788
   48787   48789   48790   48791   48790   48792   48793   48794
   48793   48795   48796   48797   48796   48798   48799   48800
   48799   48801   48802   48803   48802   48804   48805   48806
   48805   48807   48808   48809   48808   48810   48811   48812
   48811   48813   48814   48815   48814   48816   48817   48818
   48817   48819   48820   48821   48820   48822   48823   48824
   48823   48825   48826   48827   48826   48828   48829   48830
   48829   48831   48832   48833   48832   48834   48835   48836
   48835   48837   48838   48839   48838   48840   48841   48842
   48841   48843   48844   48845   48844   48846   48847   48848
   48847   48849   48850   48851   48850   48852   48853   48854
   48853   48855   48856   48857   48856   48858   48859   48860
   48859   48861   48862   48863   48862   48864   48865   48866
   48865   48867   48868   48869   48868   48870   48871   48872
   48871   48873   48874   48875   48874   48876   48877   48878
   48877   48879   48880   48881   48880   48882   48883   48884
   48883   48885   48886   48887   48886   48888   48889   48890
   48889   48891   48892   48893   48892   48894   48895   48896
   48895   48897   48898   48899   48898   48900   48901   48902
   48901   48903   48904   48905   48904   48906   48907   48908
   48907   48909   48910   48911   48910   48912   48913   48914
   48913   48915   48916   48917   48916   48918   48919   48920
   48919   48921   48922   48923   48922   48924   48925   48926
   48925   48927   48928   48929   48928   48930   48931   48932
   48931   48933   48934   48935   48934   48936   48937   48938
   48937   48939   48940   48941   48940   48942   48943   48944
   48943   48945   48946   48947   48946   48948   48949   48950
   48949   48951   48952   48953   48952   48954   48955   48956
   48955   48957   48958   48959   48958   48960   48961   48962
   48961   48963   48964   48965   48964   48966   48967   48968
   48967   48969   48970   48971   48970   48972   48973   48974
   48973   48975   48976   48977   48976   48978   48979   48980
   48979   48981   48982   48983   48982   48984   48985   48986
   48985   48987   48988   48989   48988   48990   48991   48992
   48991   48993   48994   48995   48994   48996   48997   48998
   48997   48999   49000   49001   49000   49002   49003   49004
   49003   49005   49006   49007   49006   49008   49009   49010
   49009   49011   49012   49013   49012   49014   49015   49016
   49015   49017   49018   49019   49018   49020   49021   49022
   49021   49023   49024   49025   49024   49026   49027   49028
   49027   49029   49030   49031   49030   49032   49033   49034
   49033   49035   49036   49037   49036   49038   49039   49040
   49039   49041   49042   49043   49042   49044   49045   49046
   49045   49047   49048   49049   49048   49050   49051   49052
   49051   49053   49054   49055   49054   49056   49057   49058
   49057   49059   49060   49061   49060   49062   49063   49064
   49063   49065   49066   49067   49066   49068   49069   49070
   49069   49071   49072   49073   49072   49074   49075   49076
   49075   49077   49078   49079   49078   49080   49081   49082
   49081   49083   49084   49085   49084   49086   49087   49088
   49087   49089   49090   49091   49090   49092   49093   49094
   49093   49095   49096   49097   49096   49098   49099   49100
   49099   49101   49102   49103   49102   49104   49105   49106
   49105   49107   49108   49109   49108   49110   49111   49112
   49111   49113   49114   49115   49114   49116   49117   49118
   49117   49119   49120   49121   49120   49122   49123   49124
   49123   49125   49126   49127   49126   49128   49129   49130
   49129   49131   49132   49133   49132   49134   49135   49136
   49135   49137   49138   49139   49138   49140   49141   49142
   49141   49143   49144   49145   49144   49146   49147   49148
   49147   49149   49150   49151   49150   49152   49153   49154
   49153   49155   49156   49157   49156   49158   49159   49160
   49159   49161   49162   49163   49162   49164   49165   49166
   49165   49167   49168   49169   49168   49170   49171   49172
   49171   49173   49174   49175   49174   49176   49177   49178
   49177   49179   49180   49181   49180   49182   49183   49184
   49183   49185   49186   49187   49186   49188   49189   49190
   49189   49191   49192   49193   49192   49194   49195   49196
   49195   49197   49198   49199   49198   49200   49201   49202
   49201   49203   49204   49205   49204   49206   49207   49208
   49207   49209   49210   49211   49210   49212   49213   49214
   49213   49215   49216   49217   49216   49218   49219   49220
   49219   49221   49222   49223   49222   49224   49225   49226
   49225   49227   49228   49229   49228   49230   49231   49232
   49231   49233   49234   49235   49234   49236   49237   49238
   49237   49239   49240   49241   49240   49242   49243   49244
   49243   49245   49246   49247   49246   49248   49249   49250
   49249   49251   49252   49253   49252   49254   49255   49256
   49255   49257   49258   49259   49258   49260   49261   49262
   49261   49263   49264   49265   49264   49266   49267   49268
   49267   49269   49270   49271   49270   49272   49273   49274
   49273   49275   49276   49277   49276   49278   49279   49280
   49279   49281   49282   49283   49282   49284   49285   49286
   49285   49287   49288   49289   49288   49290   49291   49292
   49291   49293   49294   49295   49294   49296   49297   49298
   49297   49299   49300   49301   49300   49302   49303   49304
   49303   49305   49306   49307   49306   49308   49309   49310
   49309   49311   49312   49313   49312   49314   49315   49316
   49315   49317   49318   49319   49318   49320   49321   49322
   49321   49323   49324   49325   49324   49326   49327   49328
   49327   49329   49330   49331   49330   49332   49333   49334
   49333   49335   49336   49337   49336   49338   49339   49340
   49339   49341   49342   49343   49342   49344   49345   49346
   49345   49347   49348   49349   49348   49350   49351   49352
   49351   49353   49354   49355   49354   49356   49357   49358
   49357   49359   49360   49361   49360   49362   49363   49364
   49363   49365   49366   49367   49366   49368   49369   49370
   49369   49371   49372   49373   49372   49374   49375   49376
   49375   49377   49378   49379   49378   49380   49381   49382
   49381   49383   49384   49385   49384   49386   49387   49388
   49387   49389   49390   49391   49390   49392   49393   49394
   49393   49395   49396   49397   49396   49398   49399   49400
   49399   49401   49402   49403   49402   49404   49405   49406
   49405   49407   49408   49409   49408   49410   49411   49412
   49411   49413   49414   49415   49414   49416   49417   49418
   49417   49419   49420   49421   49420   49422   49423   49424
   49423   49425   49426   49427   49426   49428   49429   49430
   49429   49431   49432   49433   49432   49434   49435   49436
   49435   49437   49438   49439   49438   49440   49441   49442
   49441   49443   49444   49445   49444   49446   49447   49448
   49447   49449   49450   49451   49450   49452   49453   49454
   49453   49455   49456   49457   49456   49458   49459   49460
   49459   49461   49462   49463   49462   49464   49465   49466
   49465   49467   49468   49469   49468   49470   49471   49472
   49471   49473   49474   49475   49474   49476   49477   49478
   49477   49479   49480   49481   49480   49482   49483   49484
   49483   49485   49486   49487   49486   49488   49489   49490
   49489   49491   49492   49493   49492   49494   49495   49496
   49495   49497   49498   49499   49498   49500   49501   49502
   49501   49503   49504   49505   49504   49506   49507   49508
   49507   49509   49510   49511   49510   49512   49513   49514
   49513   49515   49516   49517   49516   49518   49519   49520
   49519   49521   49522   49523   49522   49524   49525   49526
   49525   49527   49528   49529   49528   49530   49531   49532
   49531   49533   49534   49535   49534   49536   49537   49538
   49537   49539   49540   49541   49540   49542   49543   49544
   49543   49545   49546   49547   49546   49548   49549   49550
   49549   49551   49552   49553   49552   49554   49555   49556
   49555   49557   49558   49559   49558   49560   49561   49562
   49561   49563   49564   49565   49564   49566   49567   49568
   49567   49569   49570   49571   49570   49572   49573   49574
   49573   49575   49576   49577   49576   49578   49579   49580
   49579   49581   49582   49583   49582   49584   49585   49586
   49585   49587   49588   49589   49588   49590   49591   49592
   49591   49593   49594   49595   49594   49596   49597   49598
   49597   49599   49600   49601   49600   49602   49603   49604
   49603   49605   49606   49607   49606   49608   49609   49610
   49609   49611   49612   49613   49612   49614   49615   49616
   49615   49617   49618   49619   49618   49620   49621   49622
   49621   49623   49624   49625   49624   49626   49627   49628
   49627   49629   49630   49631   49630   49632   49633   49634
   49633   49635   49636   49637   49636   49638   49639   49640
   49639   49641   49642   49643   49642   49644   49645   49646
   49645   49647   49648   49649   49648   49650   49651   49652
   49651   49653   49654   49655   49654   49656   49657   49658
   49657   49659   49660   49661   49660   49662   49663   49664
   49663   49665   49666   49667   49666   49668   49669   49670
   49669   49671   49672   49673   49672   49674   49675   49676
   49675   49677   49678   49679   49678   49680   49681   49682
   49681   49683   49684   49685   49684   49686   49687   49688
   49687   49689   49690   49691   49690   49692   49693   49694
   49693   49695   49696   49697   49696   49698   49699   49700
   49699   49701   49702   49703   49702   49704   49705   49706
   49705   49707   49708   49709   49708   49710   49711   49712
   49711   49713   49714   49715   49714   49716   49717   49718
   49717   49719   49720   49721   49720   49722   49723   49724
   49723   49725   49726   49727   49726   49728   49729   49730
   49729   49731   49732   49733   49732   49734   49735   49736
   49735   49737   49738   49739   49738   49740   49741   49742
   49741   49743   49744   49745   49744   49746   49747   49748
   49747   49749   49750   49751   49750   49752   49753   49754
   49753   49755   49756   49757   49756   49758   49759   49760
   49759   49761   49762   49763   49762   49764   49765   49766
   49765   49767   49768   49769   49768   49770   49771   49772
   49771   49773   49774   49775   49774   49776   49777   49778
   49777   49779   49780   49781   49780   49782   49783   49784
   49783   49785   49786   49787   49786   49788   49789   49790
   49789   49791   49792   49793   49792   49794   49795   49796
   49795   49797   49798   49799   49798   49800   49801   49802
   49801   49803   49804   49805   49804   49806   49807   49808
   49807   49809   49810   49811   49810   49812   49813   49814
   49813   49815   49816   49817   49816   49818   49819   49820
   49819   49821   49822   49823   49822   49824   49825   49826
   49825   49827   49828   49829   49828   49830   49831   49832
   49831   49833   49834   49835   49834   49836   49837   49838
   49837   49839   49840   49841   49840   49842   49843   49844
   49843   49845   49846   49847   49846   49848   49849   49850
   49849   49851   49852   49853   49852   49854   49855   49856
   49855   49857   49858   49859   49858   49860   49861   49862
   49861   49863   49864   49865   49864   49866   49867   49868
   49867   49869   49870   49871   49870   49872   49873   49874
   49873   49875   49876   49877   49876   49878   49879   49880
   49879   49881   49882   49883   49882   49884   49885   49886
   49885   49887   49888   49889   49888   49890   49891   49892
   49891   49893   49894   49895   49894   49896   49897   49898
   49897   49899   49900   49901   49900   49902   49903   49904
   49903   49905   49906   49907   49906   49908   49909   49910
   49909   49911   49912   49913   49912   49914   49915   49916
   49915   49917   49918   49919   49918   49920   49921   49922
   49921   49923   49924   49925   49924   49926   49927   49928
   49927   49929   49930   49931   49930   49932   49933   49934
   49933   49935   49936   49937   49936   49938   49939   49940
   49939   49941   49942   49943   49942   49944   49945   49946
   49945   49947   49948   49949   49948   49950   49951   49952
   49951   49953   49954   49955   49954   49956   49957   49958
   49957   49959   49960   49961   49960   49962   49963   49964
   49963   49965   49966   49967   49966   49968   49969   49970
   49969   49971   49972   49973   49972   49974   49975   49976
   49975   49977   49978   49979   49978   49980   49981   49982
   49981   49983   49984   49985   49984   49986   49987   49988
   49987   49989   49990   49991   49990   49992   49993   49994
   49993   49995   49996   49997   49996   49998   49999   50000
   49999   50001   50002   50003   50002   50004   50005   50006
   50005   50007   50008   50009   50008   50010   50011   50012
   50011   50013   50014   50015   50014   50016   50017   50018
   50017   50019   50020   50021   50020   50022   50023   50024
   50023   50025   50026   50027   50026   50028   50029   50030
   50029   50031   50032   50033   50032   50034   50035   50036
   50035   50037   50038   50039   50038   50040   50041   50042
   50041   50043   50044   50045   50044   50046   50047   50048
   50047   50049   50050   50051   50050   50052   50053   50054
   50053   50055   50056   50057   50056   50058   50059   50060
   50059   50061   50062   50063   50062   50064   50065   50066
   50065   50067   50068   50069   50068   50070   50071   50072
   50071   50073   50074   50075   50074   50076   50077   50078
   50077   50079   50080   50081   50080   50082   50083   50084
   50083   50085   50086   50087   50086   50088   50089   50090
   50089   50091   50092   50093   50092   50094   50095   50096
   50095   50097   50098   50099   50098   50100   50101   50102
   50101   50103   50104   50105   50104   50106   50107   50108
   50107   50109   50110   50111   50110   50112   50113   50114
   50113   50115   50116   50117   50116   50118   50119   50120
   50119   50121   50122   50123   50122   50124   50125   50126
   50125   50127   50128   50129   50128   50130   50131   50132
   50131   50133   50134   50135   50134   50136   50137   50138
   50137   50139   50140   50141   50140   50142   50143   50144
   50143   50145   50146   50147   50146   50148   50149   50150
   50149   50151   50152   50153   50152   50154   50155   50156
   50155   50157   50158   50159   50158   50160   50161   50162
   50161   50163   50164   50165   50164   50166   50167   50168
   50167   50169   50170   50171   50170   50172   50173   50174
   50173   50175   50176   50177   50176   50178   50179   50180
   50179   50181   50182   50183   50182   50184   50185   50186
   50185   50187   50188   50189   50188   50190   50191   50192
   50191   50193   50194   50195   50194   50196   50197   50198
   50197   50199   50200   50201   50200   50202   50203   50204
   50203   50205   50206   50207   50206   50208   50209   50210
   50209   50211   50212   50213   50212   50214   50215   50216
   50215   50217   50218   50219   50218   50220   50221   50222
   50221   50223   50224   50225   50224   50226   50227   50228
   50227   50229   50230   50231   50230   50232   50233   50234
   50233   50235   50236   50237   50236   50238   50239   50240
   50239   50241   50242   50243   50242   50244   50245   50246
   50245   50247   50248   50249   50248   50250   50251   50252
   50251   50253   50254   50255   50254   50256   50257   50258
   50257   50259   50260   50261   50260   50262   50263   50264
   50263   50265   50266   50267   50266   50268   50269   50270
   50269   50271   50272   50273   50272   50274   50275   50276
   50275   50277   50278   50279   50278   50280   50281   50282
   50281   50283   50284   50285   50284   50286   50287   50288
   50287   50289   50290   50291   50290   50292   50293   50294
   50293   50295   50296   50297   50296   50298   50299   50300
   50299   50301   50302   50303   50302   50304   50305   50306
   50305   50307   50308   50309   50308   50310   50311   50312
   50311   50313   50314   50315   50314   50316   50317   50318
   50317   50319   50320   50321   50320   50322   50323   50324
   50323   50325   50326   50327   50326   50328   50329   50330
   50329   50331   50332   50333   50332   50334   50335   50336
   50335   50337   50338   50339   50338   50340   50341   50342
   50341   50343   50344   50345   50344   50346   50347   50348
   50347   50349   50350   50351   50350   50352   50353   50354
   50353   50355   50356   50357   50356   50358   50359   50360
   50359   50361   50362   50363   50362   50364   50365   50366
   50365   50367   50368   50369   50368   50370   50371   50372
   50371   50373   50374   50375   50374   50376   50377   50378
   50377   50379   50380   50381   50380   50382   50383   50384
   50383   50385   50386   50387   50386   50388   50389   50390
   50389   50391   50392   50393   50392   50394   50395   50396
   50395   50397   50398   50399   50398   50400   50401   50402
   50401   50403   50404   50405   50404   50406   50407   50408
   50407   50409   50410   50411   50410   50412   50413   50414
   50413   50415   50416   50417   50416   50418   50419   50420
   50419   50421   50422   50423   50422   50424   50425   50426
   50425   50427   50428   50429   50428   50430   50431   50432
   50431   50433   50434   50435   50434   50436   50437   50438
   50437   50439   50440   50441   50440   50442   50443   50444
   50443   50445   50446   50447   50446   50448   50449   50450
   50449   50451   50452   50453   50452   50454   50455   50456
   50455   50457   50458   50459   50458   50460   50461   50462
   50461   50463   50464   50465   50464   50466   50467   50468
   50467   50469   50470   50471   50470   50472   50473   50474
   50473   50475   50476   50477   50476   50478   50479   50480
   50479   50481   50482   50483   50482   50484   50485   50486
   50485   50487   50488   50489   50488   50490   50491   50492
   50491   50493   50494   50495   50494   50496   50497   50498
   50497   50499   50500   50501   50500   50502   50503   50504
   50503   50505   50506   50507   50506   50508   50509   50510
   50509   50511   50512   50513   50512   50514   50515   50516
   50515   50517   50518   50519   50518   50520   50521   50522
   50521   50523   50524   50525   50524   50526   50527   50528
   50527   50529   50530   50531   50530   50532   50533   50534
   50533   50535   50536   50537   50536   50538   50539   50540
   50539   50541   50542   50543   50542   50544   50545   50546
   50545   50547   50548   50549   50548   50550   50551   50552
   50551   50553   50554   50555   50554   50556   50557   50558
   50557   50559   50560   50561   50560   50562   50563   50564
   50563   50565   50566   50567   50566   50568   50569   50570
   50569   50571   50572   50573   50572   50574   50575   50576
   50575   50577   50578   50579   50578   50580   50581   50582
   50581   50583   50584   50585   50584   50586   50587   50588
   50587   50589   50590   50591   50590   50592   50593   50594
   50593   50595   50596   50597   50596   50598   50599   50600
   50599   50601   50602   50603   50602   50604   50605   50606
   50605   50607   50608   50609   50608   50610   50611   50612
   50611   50613   50614   50615   50614   50616   50617   50618
   50617   50619   50620   50621   50620   50622   50623   50624
   50623   50625   50626   50627   50626   50628   50629   50630
   50629   50631   50632   50633   50632   50634   50635   50636
   50635   50637   50638   50639   50638   50640   50641   50642
   50641   50643   50644   50645   50644   50646   50647   50648
   50647   50649   50650   50651   50650   50652   50653   50654
   50653   50655   50656   50657   50656   50658   50659   50660
   50659   50661   50662   50663   50662   50664   50665   50666
   50665   50667   50668   50669   50668   50670   50671   50672
   50671   50673   50674   50675   50674   50676   50677   50678
   50677   50679   50680   50681   50680   50682   50683   50684
   50683   50685   50686   50687   50686   50688   50689   50690
   50689   50691   50692   50693   50692   50694   50695   50696
   50695   50697   50698   50699   50698   50700   50701   50702
   50701   50703   50704   50705   50704   50706   50707   50708
   50707   50709   50710   50711   50710   50712   50713   50714
   50713   50715   50716   50717   50716   50718   50719   50720
   50719   50721   50722   50723   50722   50724   50725   50726
   50725   50727   50728   50729   50728   50730   50731   50732
   50731   50733   50734   50735   50734   50736   50737   50738
   50737   50739   50740   50741   50740   50742   50743   50744
   50743   50745   50746   50747   50746   50748   50749   50750
   50749   50751   50752   50753   50752   50754   50755   50756
   50755   50757   50758   50759   50758   50760   50761   50762
   50761   50763   50764   50765   50764   50766   50767   50768
   50767   50769   50770   50771   50770   50772   50773   50774
   50773   50775   50776   50777   50776   50778   50779   50780
   50779   50781   50782   50783   50782   50784   50785   50786
   50785   50787   50788   50789   50788   50790   50791   50792
   50791   50793   50794   50795   50794   50796   50797   50798
   50797   50799   50800   50801   50800   50802   50803   50804
   50803   50805   50806   50807   50806   50808   50809   50810
   50809   50811   50812   50813   50812   50814   50815   50816
   50815   50817   50818   50819   50818   50820   50821   50822
   50821   50823   50824   50825   50824   50826   50827   50828
   50827   50829   50830   50831   50830   50832   50833   50834
   50833   50835   50836   50837   50836   50838   50839   50840
   50839   50841   50842   50843   50842   50844   50845   50846
   50845   50847   50848   50849   50848   50850   50851   50852
   50851   50853   50854   50855   50854   50856   50857   50858
   50857   50859   50860   50861   50860   50862   50863   50864
   50863   50865   50866   50867   50866   50868   50869   50870
   50869   50871   50872   50873   50872   50874   50875   50876
   50875   50877   50878   50879   50878   50880   50881   50882
   50881   50883   50884   50885   50884   50886   50887   50888
   50887   50889   50890   50891   50890   50892   50893   50894
   50893   50895   50896   50897   50896   50898   50899   50900
   50899   50901   50902   50903   50902   50904   50905   50906
   50905   50907   50908   50909   50908   50910   50911   50912
   50911   50913   50914   50915   50914   50916   50917   50918
   50917   50919   50920   50921   50920   50922   50923   50924
   50923   50925   50926   50927   50926   50928   50929   50930
   50929   50931   50932   50933   50932   50934   50935   50936
   50935   50937   50938   50939   50938   50940   50941   50942
   50941   50943   50944   50945   50944   50946   50947   50948
   50947   50949   50950   50951   50950   50952   50953   50954
   50953   50955   50956   50957   50956   50958   50959   50960
   50959   50961   50962   50963   50962   50964   50965   50966
   50965   50967   50968   50969   50968   50970   50971   50972
   50971   50973   50974   50975   50974   50976   50977   50978
   50977   50979   50980   50981   50980   50982   50983   50984
   50983   50985   50986   50987   50986   50988   50989   50990
   50989   50991   50992   50993   50992   50994   50995   50996
   50995   50997   50998   50999   50998   51000   51001   51002
   51001   51003   51004   51005   51004   51006   51007   51008
   51007   51009   51010   51011   51010   51012   51013   51014
   51013   51015   51016   51017   51016   51018   51019   51020
   51019   51021   51022   51023   51022   51024   51025   51026
   51025   51027   51028   51029   51028   51030   51031   51032
   51031   51033   51034   51035   51034   51036   51037   51038
   51037   51039   51040   51041   51040   51042   51043   51044
   51043   51045   51046   51047   51046   51048   51049   51050
   51049   51051   51052   51053   51052   51054   51055   51056
   51055   51057   51058   51059   51058   51060   51061   51062
   51061   51063   51064   51065   51064   51066   51067   51068
   51067   51069   51070   51071   51070   51072   51073   51074
   51073   51075   51076   51077   51076   51078   51079   51080
   51079   51081   51082   51083   51082   51084   51085   51086
   51085   51087   51088   51089   51088   51090   51091   51092
   51091   51093   51094   51095   51094   51096   51097   51098
   51097   51099   51100   51101   51100   51102   51103   51104
   51103   51105   51106   51107   51106   51108   51109   51110
   51109   51111   51112   51113   51112   51114   51115   51116
   51115   51117   51118   51119   51118   51120   51121   51122
   51121   51123   51124   51125   51124   51126   51127   51128
   51127   51129   51130   51131   51130   51132   51133   51134
   51133   51135   51136   51137   51136   51138   51139   51140
   51139   51141   51142   51143   51142   51144   51145   51146
   51145   51147   51148   51149   51148   51150   51151   51152
   51151   51153   51154   51155   51154   51156   51157   51158
   51157   51159   51160   51161   51160   51162   51163   51164
   51163   51165   51166   51167   51166   51168   51169   51170
   51169   51171   51172   51173   51172   51174   51175   51176
   51175   51177   51178   51179   51178   51180   51181   51182
   51181   51183   51184   51185   51184   51186   51187   51188
   51187   51189   51190   51191   51190   51192   51193   51194
   51193   51195   51196   51197   51196   51198   51199   51200
   51199   51201   51202   51203   51202   51204   51205   51206
   51205   51207   51208   51209   51208   51210   51211   51212
   51211   51213   51214   51215   51214   51216   51217   51218
   51217   51219   51220   51221   51220   51222   51223   51224
   51223   51225   51226   51227   51226   51228   51229   51230
   51229   51231   51232   51233   51232   51234   51235   51236
   51235   51237   51238   51239   51238   51240   51241   51242
   51241   51243   51244   51245   51244   51246   51247   51248
   51247   51249   51250   51251   51250   51252   51253   51254
   51253   51255   51256   51257   51256   51258   51259   51260
   51259   51261   51262   51263   51262   51264   51265   51266
   51265   51267   51268   51269   51268   51270   51271   51272
   51271   51273   51274   51275   51274   51276   51277   51278
   51277   51279   51280   51281   51280   51282   51283   51284
   51283   51285   51286   51287   51286   51288   51289   51290
   51289   51291   51292   51293   51292   51294   51295   51296
   51295   51297   51298   51299   51298   51300   51301   51302
   51301   51303   51304   51305   51304   51306   51307   51308
   51307   51309   51310   51311   51310   51312   51313   51314
   51313   51315   51316   51317   51316   51318   51319   51320
   51319   51321   51322   51323   51322   51324   51325   51326
   51325   51327   51328   51329   51328   51330   51331   51332
   51331   51333   51334   51335   51334   51336   51337   51338
   51337   51339   51340   51341   51340   51342   51343   51344
   51343   51345   51346   51347   51346   51348   51349   51350
   51349   51351   51352   51353   51352   51354   51355   51356
   51355   51357   51358   51359   51358   51360   51361   51362
   51361   51363   51364   51365   51364   51366   51367   51368
   51367   51369   51370   51371   51370   51372   51373   51374
   51373   51375   51376   51377   51376   51378   51379   51380
   51379   51381   51382   51383   51382   51384   51385   51386
   51385   51387   51388   51389   51388   51390   51391   51392
   51391   51393   51394   51395   51394   51396   51397   51398
   51397   51399   51400   51401   51400   51402   51403   51404
   51403   51405   51406   51407   51406   51408   51409   51410
   51409   51411   51412   51413   51412   51414   51415   51416
   51415   51417   51418   51419   51418   51420   51421   51422
   51421   51423   51424   51425   51424   51426   51427   51428
   51427   51429   51430   51431   51430   51432   51433   51434
   51433   51435   51436   51437   51436   51438   51439   51440
   51439   51441   51442   51443   51442   51444   51445   51446
   51445   51447   51448   51449   51448   51450   51451   51452
   51451   51453   51454   51455   51454   51456   51457   51458
   51457   51459   51460   51461   51460   51462   51463   51464
   51463   51465   51466   51467   51466   51468   51469   51470
   51469   51471   51472   51473   51472   51474   51475   51476
   51475   51477   51478   51479   51478   51480   51481   51482
   51481   51483   51484   51485   51484   51486   51487   51488
   51487   51489   51490   51491   51490   51492   51493   51494
   51493   51495   51496   51497   51496   51498   51499   51500
   51499   51501   51502   51503   51502   51504   51505   51506
   51505   51507   51508   51509   51508   51510   51511   51512
   51511   51513   51514   51515   51514   51516   51517   51518
   51517   51519   51520   51521   51520   51522   51523   51524
   51523   51525   51526   51527   51526   51528   51529   51530
   51529   51531   51532   51533   51532   51534   51535   51536
   51535   51537   51538   51539   51538   51540   51541   51542
   51541   51543   51544   51545   51544   51546   51547   51548
   51547   51549   51550   51551   51550   51552   51553   51554
   51553   51555   51556   51557   51556   51558   51559   51560
   51559   51561   51562   51563   51562   51564   51565   51566
   51565   51567   51568   51569   51568   51570   51571   51572
   51571   51573   51574   51575   51574   51576   51577   51578
   51577   51579   51580   51581   51580   51582   51583   51584
   51583   51585   51586   51587   51586   51588   51589   51590
   51589   51591   51592   51593   51592   51594   51595   51596
   51595   51597   51598   51599   51598   51600   51601   51602
   51601   51603   51604   51605   51604   51606   51607   51608
   51607   51609   51610   51611   51610   51612   51613   51614
   51613   51615   51616   51617   51616   51618   51619   51620
   51619   51621   51622   51623   51622   51624   51625   51626
   51625   51627   51628   51629   51628   51630   51631   51632
   51631   51633   51634   51635   51634   51636   51637   51638
   51637   51639   51640   51641   51640   51642   51643   51644
   51643   51645   51646   51647   51646   51648   51649   51650
   51649   51651   51652   51653   51652   51654   51655   51656
   51655   51657   51658   51659   51658   51660   51661   51662
   51661   51663   51664   51665   51664   51666   51667   51668
   51667   51669   51670   51671   51670   51672   51673   51674
   51673   51675   51676   51677   51676   51678   51679   51680
   51679   51681   51682   51683   51682   51684   51685   51686
   51685   51687   51688   51689   51688   51690   51691   51692
   51691   51693   51694   51695   51694   51696   51697   51698
   51697   51699   51700   51701   51700   51702   51703   51704
   51703   51705   51706   51707   51706   51708   51709   51710
   51709   51711   51712   51713   51712   51714   51715   51716
   51715   51717   51718   51719   51718   51720   51721   51722
   51721   51723   51724   51725   51724   51726   51727   51728
   51727   51729   51730   51731   51730   51732   51733   51734
   51733   51735   51736   51737   51736   51738   51739   51740
   51739   51741   51742   51743   51742   51744   51745   51746
   51745   51747   51748   51749   51748   51750   51751   51752
   51751   51753   51754   51755   51754   51756   51757   51758
   51757   51759   51760   51761   51760   51762   51763   51764
   51763   51765   51766   51767   51766   51768   51769   51770
   51769   51771   51772   51773   51772   51774   51775   51776
   51775   51777   51778   51779   51778   51780   51781   51782
   51781   51783   51784   51785   51784   51786   51787   51788
   51787   51789   51790   51791   51790   51792   51793   51794
   51793   51795   51796   51797   51796   51798   51799   51800
   51799   51801   51802   51803   51802   51804   51805   51806
   51805   51807   51808   51809   51808   51810   51811   51812
   51811   51813   51814   51815   51814   51816   51817   51818
   51817   51819   51820   51821   51820   51822   51823   51824
   51823   51825   51826   51827   51826   51828   51829   51830
   51829   51831   51832   51833   51832   51834   51835   51836
   51835   51837   51838   51839   51838   51840   51841   51842
   51841   51843   51844   51845   51844   51846   51847   51848
   51847   51849   51850   51851   51850   51852   51853   51854
   51853   51855   51856   51857   51856   51858   51859   51860
   51859   51861   51862   51863   51862   51864   51865   51866
   51865   51867   51868   51869   51868   51870   51871   51872
   51871   51873   51874   51875   51874   51876   51877   51878
   51877   51879   51880   51881   51880   51882   51883   51884
   51883   51885   51886   51887   51886   51888   51889   51890
   51889   51891   51892   51893   51892   51894   51895   51896
   51895   51897   51898   51899   51898   51900   51901   51902
   51901   51903   51904   51905   51904   51906   51907   51908
   51907   51909   51910   51911   51910   51912   51913   51914
   51913   51915   51916   51917   51916   51918   51919   51920
   51919   51921   51922   51923   51922   51924   51925   51926
   51925   51927   51928   51929   51928   51930   51931   51932
   51931   51933   51934   51935   51934   51936   51937   51938
   51937   51939   51940   51941   51940   51942   51943   51944
   51943   51945   51946   51947   51946   51948   51949   51950
   51949   51951   51952   51953   51952   51954   51955   51956
   51955   51957   51958   51959   51958   51960   51961   51962
   51961   51963   51964   51965   51964   51966   51967   51968
   51967   51969   51970   51971   51970   51972   51973   51974
   51973   51975   51976   51977   51976   51978   51979   51980
   51979   51981   51982   51983   51982   51984   51985   51986
   51985   51987   51988   51989   51988   51990   51991   51992
   51991   51993   51994   51995   51994   51996   51997   51998
   51997   51999   52000   52001   52000   52002   52003   52004
   52003   52005   52006   52007   52006   52008   52009   52010
   52009   52011   52012   52013   52012   52014   52015   52016
   52015   52017   52018   52019   52018   52020   52021   52022
   52021   52023   52024   52025   52024   52026   52027   52028
   52027   52029   52030   52031   52030   52032   52033   52034
   52033   52035   52036   52037   52036   52038   52039   52040
   52039   52041   52042   52043   52042   52044   52045   52046
   52045   52047   52048   52049   52048   52050   52051   52052
   52051   52053   52054   52055   52054   52056   52057   52058
   52057   52059   52060   52061   52060   52062   52063   52064
   52063   52065   52066   52067   52066   52068   52069   52070
   52069   52071   52072   52073   52072   52074   52075   52076
   52075   52077   52078   52079   52078   52080   52081   52082
   52081   52083   52084   52085   52084   52086   52087   52088
   52087   52089   52090   52091   52090   52092   52093   52094
   52093   52095   52096   52097   52096   52098   52099   52100
   52099   52101   52102   52103   52102   52104   52105   52106
   52105   52107   52108   52109   52108   52110   52111   52112
   52111   52113   52114   52115   52114   52116   52117   52118
   52117   52119   52120   52121   52120   52122   52123   52124
   52123   52125   52126   52127   52126   52128   52129   52130
   52129   52131   52132   52133   52132   52134   52135   52136
   52135   52137   52138   52139   52138   52140   52141   52142
   52141   52143   52144   52145   52144   52146   52147   52148
   52147   52149   52150   52151   52150   52152   52153   52154
   52153   52155   52156   52157   52156   52158   52159   52160
   52159   52161   52162   52163   52162   52164   52165   52166
   52165   52167   52168   52169   52168   52170   52171   52172
   52171   52173   52174   52175   52174   52176   52177   52178
   52177   52179   52180   52181   52180   52182   52183   52184
   52183   52185   52186   52187   52186   52188   52189   52190
   52189   52191   52192   52193   52192   52194   52195   52196
   52195   52197   52198   52199   52198   52200   52201   52202
   52201   52203   52204   52205   52204   52206   52207   52208
   52207   52209   52210   52211   52210   52212   52213   52214
   52213   52215   52216   52217   52216   52218   52219   52220
   52219   52221   52222   52223   52222   52224   52225   52226
   52225   52227   52228   52229   52228   52230   52231   52232
   52231   52233   52234   52235   52234   52236   52237   52238
   52237   52239   52240   52241   52240   52242   52243   52244
   52243   52245   52246   52247   52246   52248   52249   52250
   52249   52251   52252   52253   52252   52254   52255   52256
   52255   52257   52258   52259   52258   52260   52261   52262
   52261   52263   52264   52265   52264   52266   52267   52268
   52267   52269   52270   52271   52270   52272   52273   52274
   52273   52275   52276   52277   52276   52278   52279   52280
   52279   52281   52282   52283   52282   52284   52285   52286
   52285   52287   52288   52289   52288   52290   52291   52292
   52291   52293   52294   52295   52294   52296   52297   52298
   52297   52299   52300   52301   52300   52302   52303   52304
   52303   52305   52306   52307   52306   52308   52309   52310
   52309   52311   52312   52313   52312   52314   52315   52316
   52315   52317   52318   52319   52318   52320   52321   52322
   52321   52323   52324   52325   52324   52326   52327   52328
   52327   52329   52330   52331   52330   52332   52333   52334
   52333   52335   52336   52337   52336   52338   52339   52340
   52339   52341   52342   52343   52342   52344   52345   52346
   52345   52347   52348   52349   52348   52350   52351   52352
   52351   52353   52354   52355   52354   52356   52357   52358
   52357   52359   52360   52361   52360   52362   52363   52364
   52363   52365   52366   52367   52366   52368   52369   52370
   52369   52371   52372   52373   52372   52374   52375   52376
   52375   52377   52378   52379   52378   52380   52381   52382
   52381   52383   52384   52385   52384   52386   52387   52388
   52387   52389   52390   52391   52390   52392   52393   52394
   52393   52395   52396   52397   52396   52398   52399   52400
   52399   52401   52402   52403   52402   52404   52405   52406
   52405   52407   52408   52409   52408   52410   52411   52412
   52411   52413   52414   52415   52414   52416   52417   52418
   52417   52419   52420   52421   52420   52422   52423   52424
   52423   52425   52426   52427   52426   52428   52429   52430
   52429   52431   52432   52433   52432   52434   52435   52436
   52435   52437   52438   52439   52438   52440   52441   52442
   52441   52443   52444   52445   52444   52446   52447   52448
   52447   52449   52450   52451   52450   52452   52453   52454
   52453   52455   52456   52457   52456   52458   52459   52460
   52459   52461   52462   52463   52462   52464   52465   52466
   52465   52467   52468   52469   52468   52470   52471   52472
   52471   52473   52474   52475   52474   52476   52477   52478
   52477   52479   52480   52481   52480   52482   52483   52484
   52483   52485   52486   52487   52486   52488   52489   52490
   52489   52491   52492   52493   52492   52494   52495   52496
   52495   52497   52498   52499   52498   52500   52501   52502
   52501   52503   52504   52505   52504   52506   52507   52508
   52507   52509   52510   52511   52510   52512   52513   52514
   52513   52515   52516   52517   52516   52518   52519   52520
   52519   52521   52522   52523   52522   52524   52525   52526
   52525   52527   52528   52529   52528   52530   52531   52532
   52531   52533   52534   52535   52534   52536   52537   52538
   52537   52539   52540   52541   52540   52542   52543   52544
   52543   52545   52546   52547   52546   52548   52549   52550
   52549   52551   52552   52553   52552   52554   52555   52556
   52555   52557   52558   52559   52558   52560   52561   52562
   52561   52563   52564   52565   52564   52566   52567   52568
   52567   52569   52570   52571   52570   52572   52573   52574
   52573   52575   52576   52577   52576   52578   52579   52580
   52579   52581   52582   52583   52582   52584   52585   52586
   52585   52587   52588   52589   52588   52590   52591   52592
   52591   52593   52594   52595   52594   52596   52597   52598
   52597   52599   52600   52601   52600   52602   52603   52604
   52603   52605   52606   52607   52606   52608   52609   52610
   52609   52611   52612   52613   52612   52614   52615   52616
   52615   52617   52618   52619   52618   52620   52621   52622
   52621   52623   52624   52625   52624   52626   52627   52628
   52627   52629   52630   52631   52630   52632   52633   52634
   52633   52635   52636   52637   52636   52638   52639   52640
   52639   52641   52642   52643   52642   52644   52645   52646
   52645   52647   52648   52649   52648   52650   52651   52652
   52651   52653   52654   52655   52654   52656   52657   52658
   52657   52659   52660   52661   52660   52662   52663   52664
   52663   52665   52666   52667   52666   52668   52669   52670
   52669   52671   52672   52673   52672   52674   52675   52676
   52675   52677   52678   52679   52678   52680   52681   52682
   52681   52683   52684   52685   52684   52686   52687   52688
   52687   52689   52690   52691   52690   52692   52693   52694
   52693   52695   52696   52697   52696   52698   52699   52700
   52699   52701   52702   52703   52702   52704   52705   52706
   52705   52707   52708   52709   52708   52710   52711   52712
   52711   52713   52714   52715   52714   52716   52717   52718
   52717   52719   52720   52721   52720   52722   52723   52724
   52723   52725   52726   52727   52726   52728   52729   52730
   52729   52731   52732   52733   52732   52734   52735   52736
   52735   52737   52738   52739   52738   52740   52741   52742
   52741   52743   52744   52745   52744   52746   52747   52748
   52747   52749   52750   52751   52750   52752   52753   52754
   52753   52755   52756   52757   52756   52758   52759   52760
   52759   52761   52762   52763   52762   52764   52765   52766
   52765   52767   52768   52769   52768   52770   52771   52772
   52771   52773   52774   52775   52774   52776   52777   52778
   52777   52779   52780   52781   52780   52782   52783   52784
   52783   52785   52786   52787   52786   52788   52789   52790
   52789   52791   52792   52793   52792   52794   52795   52796
   52795   52797   52798   52799   52798   52800   52801   52802
   52801   52803   52804   52805   52804   52806   52807   52808
   52807   52809   52810   52811   52810   52812   52813   52814
   52813   52815   52816   52817   52816   52818   52819   52820
   52819   52821   52822   52823   52822   52824   52825   52826
   52825   52827   52828   52829   52828   52830   52831   52832
   52831   52833   52834   52835   52834   52836   52837   52838
   52837   52839   52840   52841   52840   52842   52843   52844
   52843   52845   52846   52847   52846   52848   52849   52850
   52849   52851   52852   52853   52852   52854   52855   52856
   52855   52857   52858   52859   52858   52860   52861   52862
   52861   52863   52864   52865   52864   52866   52867   52868
   52867   52869   52870   52871   52870   52872   52873   52874
   52873   52875   52876   52877   52876   52878   52879   52880
   52879   52881   52882   52883   52882   52884   52885   52886
   52885   52887   52888   52889   52888   52890   52891   52892
   52891   52893   52894   52895   52894   52896   52897   52898
   52897   52899   52900   52901   52900   52902   52903   52904
   52903   52905   52906   52907   52906   52908   52909   52910
   52909   52911   52912   52913   52912   52914   52915   52916
   52915   52917   52918   52919   52918   52920   52921   52922
   52921   52923   52924   52925   52924   52926   52927   52928
   52927   52929   52930   52931   52930   52932   52933   52934
   52933   52935   52936   52937   52936   52938   52939   52940
   52939   52941   52942   52943   52942   52944   52945   52946
   52945   52947   52948   52949   52948   52950   52951   52952
   52951   52953   52954   52955   52954   52956   52957   52958
   52957   52959   52960   52961   52960   52962   52963   52964
   52963   52965   52966   52967   52966   52968   52969   52970
   52969   52971   52972   52973   52972   52974   52975   52976
   52975   52977   52978   52979   52978   52980   52981   52982
   52981   52983   52984   52985   52984   52986   52987   52988
   52987   52989   52990   52991   52990   52992   52993   52994
   52993   52995   52996   52997   52996   52998   52999   53000
   52999   53001   53002   53003   53002   53004   53005   53006
   53005   53007   53008   53009   53008   53010   53011   53012
   53011   53013   53014   53015   53014   53016   53017   53018
   53017   53019   53020   53021   53020   53022   53023   53024
   53023   53025   53026   53027   53026   53028   53029   53030
   53029   53031   53032   53033   53032   53034   53035   53036
   53035   53037   53038   53039   53038   53040   53041   53042
   53041   53043   53044   53045   53044   53046   53047   53048
   53047   53049   53050   53051   53050   53052   53053   53054
   53053   53055   53056   53057   53056   53058   53059   53060
   53059   53061   53062   53063   53062   53064   53065   53066
   53065   53067   53068   53069   53068   53070   53071   53072
   53071   53073   53074   53075   53074   53076   53077   53078
   53077   53079   53080   53081   53080   53082   53083   53084
   53083   53085   53086   53087   53086   53088   53089   53090
   53089   53091   53092   53093   53092   53094   53095   53096
   53095   53097   53098   53099   53098   53100   53101   53102
   53101   53103   53104   53105   53104   53106   53107   53108
   53107   53109   53110   53111   53110   53112   53113   53114
   53113   53115   53116   53117   53116   53118   53119   53120
   53119   53121   53122   53123   53122   53124   53125   53126
   53125   53127   53128   53129   53128   53130   53131   53132
   53131   53133   53134   53135   53134   53136   53137   53138
   53137   53139   53140   53141   53140   53142   53143   53144
   53143   53145   53146   53147   53146   53148   53149   53150
   53149   53151   53152   53153   53152   53154   53155   53156
   53155   53157   53158   53159   53158   53160   53161   53162
   53161   53163   53164   53165   53164   53166   53167   53168
   53167   53169   53170   53171   53170   53172   53173   53174
   53173   53175   53176   53177   53176   53178   53179   53180
   53179   53181   53182   53183   53182   53184   53185   53186
   53185   53187   53188   53189   53188   53190   53191   53192
   53191   53193   53194   53195   53194   53196   53197   53198
   53197   53199   53200   53201   53200   53202   53203   53204
   53203   53205   53206   53207   53206   53208   53209   53210
   53209   53211   53212   53213   53212   53214   53215   53216
   53215   53217   53218   53219   53218   53220   53221   53222
   53221   53223   53224   53225   53224   53226   53227   53228
   53227   53229   53230   53231   53230   53232   53233   53234
   53233   53235   53236   53237   53236   53238   53239   53240
   53239   53241   53242   53243   53242   53244   53245   53246
   53245   53247   53248   53249   53248   53250   53251   53252
   53251   53253   53254   53255   53254   53256   53257   53258
   53257   53259   53260   53261   53260   53262   53263   53264
   53263   53265   53266   53267   53266   53268   53269   53270
   53269   53271   53272   53273   53272   53274   53275   53276
   53275   53277   53278   53279   53278   53280   53281   53282
   53281   53283   53284   53285   53284   53286   53287   53288
   53287   53289   53290   53291   53290   53292   53293   53294
   53293   53295   53296   53297   53296   53298   53299   53300
   53299   53301   53302   53303   53302   53304   53305   53306
   53305   53307   53308   53309   53308   53310   53311   53312
   53311   53313   53314   53315   53314   53316   53317   53318
   53317   53319   53320   53321   53320   53322   53323   53324
   53323   53325   53326   53327   53326   53328   53329   53330
   53329   53331   53332   53333   53332   53334   53335   53336
   53335   53337   53338   53339   53338   53340   53341   53342
   53341   53343   53344   53345   53344   53346   53347   53348
   53347   53349   53350   53351   53350   53352   53353   53354
   53353   53355   53356   53357   53356   53358   53359   53360
   53359   53361   53362   53363   53362   53364   53365   53366
   53365   53367   53368   53369   53368   53370   53371   53372
   53371   53373   53374   53375   53374   53376   53377   53378
   53377   53379   53380   53381   53380   53382   53383   53384
   53383   53385   53386   53387   53386   53388   53389   53390
   53389   53391   53392   53393   53392   53394   53395   53396
   53395   53397   53398   53399   53398   53400   53401   53402
   53401   53403   53404   53405   53404   53406   53407   53408
   53407   53409   53410   53411   53410   53412   53413   53414
   53413   53415   53416   53417   53416   53418   53419   53420
   53419   53421   53422   53423   53422   53424   53425   53426
   53425   53427   53428   53429   53428   53430   53431   53432
   53431   53433   53434   53435   53434   53436   53437   53438
   53437   53439   53440   53441   53440   53442   53443   53444
   53443   53445   53446   53447   53446   53448   53449   53450
   53449   53451   53452   53453   53452   53454   53455   53456
   53455   53457   53458   53459   53458   53460   53461   53462
   53461   53463   53464   53465   53464   53466   53467   53468
   53467   53469   53470   53471   53470   53472   53473   53474
   53473   53475   53476   53477   53476   53478   53479   53480
   53479   53481   53482   53483   53482   53484   53485   53486
   53485   53487   53488   53489   53488   53490   53491   53492
   53491   53493   53494   53495   53494   53496   53497   53498
   53497   53499   53500   53501   53500   53502   53503   53504
   53503   53505   53506   53507   53506   53508   53509   53510
   53509   53511   53512   53513   53512   53514   53515   53516
   53515   53517   53518   53519   53518   53520   53521   53522
   53521   53523   53524   53525   53524   53526   53527   53528
   53527   53529   53530   53531   53530   53532   53533   53534
   53533   53535   53536   53537   53536   53538   53539   53540
   53539   53541   53542   53543   53542   53544   53545   53546
   53545   53547   53548   53549   53548   53550   53551   53552
   53551   53553   53554   53555   53554   53556   53557   53558
   53557   53559   53560   53561   53560   53562   53563   53564
   53563   53565   53566   53567   53566   53568   53569   53570
   53569   53571   53572   53573   53572   53574   53575   53576
   53575   53577   53578   53579   53578   53580   53581   53582
   53581   53583   53584   53585   53584   53586   53587   53588
   53587   53589   53590   53591   53590   53592   53593   53594
   53593   53595   53596   53597   53596   53598   53599   53600
   53599   53601   53602   53603   53602   53604   53605   53606
   53605   53607   53608   53609   53608   53610   53611   53612
   53611   53613   53614   53615   53614   53616   53617   53618
   53617   53619   53620   53621   53620   53622   53623   53624
   53623   53625   53626   53627   53626   53628   53629   53630
   53629   53631   53632   53633   53632   53634   53635   53636
   53635   53637   53638   53639   53638   53640   53641   53642
   53641   53643   53644   53645   53644   53646   53647   53648
   53647   53649   53650   53651   53650   53652   53653   53654
   53653   53655   53656   53657   53656   53658   53659   53660
   53659   53661   53662   53663   53662   53664   53665   53666
   53665   53667   53668   53669   53668   53670   53671   53672
   53671   53673   53674   53675   53674   53676   53677   53678
   53677   53679   53680   53681   53680   53682   53683   53684
   53683   53685   53686   53687   53686   53688   53689   53690
   53689   53691   53692   53693   53692   53694   53695   53696
   53695   53697   53698   53699   53698   53700   53701   53702
   53701   53703   53704   53705   53704   53706   53707   53708
   53707   53709   53710   53711   53710   53712   53713   53714
   53713   53715   53716   53717   53716   53718   53719   53720
   53719   53721   53722   53723   53722   53724   53725   53726
   53725   53727   53728   53729   53728   53730   53731   53732
   53731   53733   53734   53735   53734   53736   53737   53738
   53737   53739   53740   53741   53740   53742   53743   53744
   53743   53745   53746   53747   53746   53748   53749   53750
   53749   53751   53752   53753   53752   53754   53755   53756
   53755   53757   53758   53759   53758   53760   53761   53762
   53761   53763   53764   53765   53764   53766   53767   53768
   53767   53769   53770   53771   53770   53772   53773   53774
   53773   53775   53776   53777   53776   53778   53779   53780
   53779   53781   53782   53783   53782   53784   53785   53786
   53785   53787   53788   53789   53788   53790   53791   53792
   53791   53793   53794   53795   53794   53796   53797   53798
   53797   53799   53800   53801   53800   53802   53803   53804
   53803   53805   53806   53807   53806   53808   53809   53810
   53809   53811   53812   53813   53812   53814   53815   53816
   53815   53817   53818   53819   53818   53820   53821   53822
   53821   53823   53824   53825   53824   53826   53827   53828
   53827   53829   53830   53831   53830   53832   53833   53834
   53833   53835   53836   53837   53836   53838   53839   53840
   53839   53841   53842   53843   53842   53844   53845   53846
   53845   53847   53848   53849   53848   53850   53851   53852
   53851   53853   53854   53855   53854   53856   53857   53858
   53857   53859   53860   53861   53860   53862   53863   53864
   53863   53865   53866   53867   53866   53868   53869   53870
   53869   53871   53872   53873   53872   53874   53875   53876
   53875   53877   53878   53879   53878   53880   53881   53882
   53881   53883   53884   53885   53884   53886   53887   53888
   53887   53889   53890   53891   53890   53892   53893   53894
   53893   53895   53896   53897   53896   53898   53899   53900
   53899   53901   53902   53903   53902   53904   53905   53906
   53905   53907   53908   53909   53908   53910   53911   53912
   53911   53913   53914   53915   53914   53916   53917   53918
   53917   53919   53920   53921   53920   53922   53923   53924
   53923   53925   53926   53927   53926   53928   53929   53930
   53929   53931   53932   53933   53932   53934   53935   53936
   53935   53937   53938   53939   53938   53940   53941   53942
   53941   53943   53944   53945   53944   53946   53947   53948
   53947   53949   53950   53951   53950   53952   53953   53954
   53953   53955   53956   53957   53956   53958   53959   53960
   53959   53961   53962   53963   53962   53964   53965   53966
   53965   53967   53968   53969   53968   53970   53971   53972
   53971   53973   53974   53975   53974   53976   53977   53978
   53977   53979   53980   53981   53980   53982   53983   53984
   53983   53985   53986   53987   53986   53988   53989   53990
   53989   53991   53992   53993   53992   53994   53995   53996
   53995   53997   53998   53999   53998   54000   54001   54002
   54001   54003   54004   54005   54004   54006   54007   54008
   54007   54009   54010   54011   54010   54012   54013   54014
   54013   54015   54016   54017   54016   54018   54019   54020
   54019   54021   54022   54023   54022   54024   54025   54026
   54025   54027   54028   54029   54028   54030   54031   54032
   54031   54033   54034   54035   54034   54036   54037   54038
   54037   54039   54040   54041   54040   54042   54043   54044
   54043   54045   54046   54047   54046   54048   54049   54050
   54049   54051   54052   54053   54052   54054   54055   54056
   54055   54057   54058   54059   54058   54060   54061   54062
   54061   54063   54064   54065   54064   54066   54067   54068
   54067   54069   54070   54071   54070   54072   54073   54074
   54073   54075   54076   54077   54076   54078   54079   54080
   54079   54081   54082   54083   54082   54084   54085   54086
   54085   54087   54088   54089   54088   54090   54091   54092
   54091   54093   54094   54095   54094   54096   54097   54098
   54097   54099   54100   54101   54100   54102   54103   54104
   54103   54105   54106   54107   54106   54108   54109   54110
   54109   54111   54112   54113   54112   54114   54115   54116
   54115   54117   54118   54119   54118   54120   54121   54122
   54121   54123   54124   54125   54124   54126   54127   54128
   54127   54129   54130   54131   54130   54132   54133   54134
   54133   54135   54136   54137   54136   54138   54139   54140
   54139   54141   54142   54143   54142   54144   54145   54146
   54145   54147   54148   54149   54148   54150   54151   54152
   54151   54153   54154   54155   54154   54156   54157   54158
   54157   54159   54160   54161   54160   54162   54163   54164
   54163   54165   54166   54167   54166   54168   54169   54170
   54169   54171   54172   54173   54172   54174   54175   54176
   54175   54177   54178   54179   54178   54180   54181   54182
   54181   54183   54184   54185   54184   54186   54187   54188
   54187   54189   54190   54191   54190   54192   54193   54194
   54193   54195   54196   54197   54196   54198   54199   54200
   54199   54201   54202   54203   54202   54204   54205   54206
   54205   54207   54208   54209   54208   54210   54211   54212
   54211   54213   54214   54215   54214   54216   54217   54218
   54217   54219   54220   54221   54220   54222   54223   54224
   54223   54225   54226   54227   54226   54228   54229   54230
   54229   54231   54232   54233   54232   54234   54235   54236
   54235   54237   54238   54239   54238   54240   54241   54242
   54241   54243   54244   54245   54244   54246   54247   54248
   54247   54249   54250   54251   54250   54252   54253   54254
   54253   54255   54256   54257   54256   54258   54259   54260
   54259   54261   54262   54263   54262   54264   54265   54266
   54265   54267   54268   54269   54268   54270   54271   54272
   54271   54273   54274   54275   54274   54276   54277   54278
   54277   54279   54280   54281   54280   54282   54283   54284
   54283   54285   54286   54287   54286   54288   54289   54290
   54289   54291   54292   54293   54292   54294   54295   54296
   54295   54297   54298   54299   54298   54300   54301   54302
   54301   54303   54304   54305   54304   54306   54307   54308
   54307   54309   54310   54311   54310   54312   54313   54314
   54313   54315   54316   54317   54316   54318   54319   54320
   54319   54321   54322   54323   54322   54324   54325   54326
   54325   54327   54328   54329   54328   54330   54331   54332
   54331   54333   54334   54335   54334   54336   54337   54338
   54337   54339   54340   54341   54340   54342   54343   54344
   54343   54345   54346   54347   54346   54348   54349   54350
   54349   54351   54352   54353   54352   54354   54355   54356
   54355   54357   54358   54359   54358   54360   54361   54362
   54361   54363   54364   54365   54364   54366   54367   54368
   54367   54369   54370   54371   54370   54372   54373   54374
   54373   54375   54376   54377   54376   54378   54379   54380
   54379   54381   54382   54383   54382   54384   54385   54386
   54385   54387   54388   54389   54388   54390   54391   54392
   54391   54393   54394   54395   54394   54396   54397   54398
   54397   54399   54400   54401   54400   54402   54403   54404
   54403   54405   54406   54407   54406   54408   54409   54410
   54409   54411   54412   54413   54412   54414   54415   54416
   54415   54417   54418   54419   54418   54420   54421   54422
   54421   54423   54424   54425   54424   54426   54427   54428
   54427   54429   54430   54431   54430   54432   54433   54434
   54433   54435   54436   54437   54436   54438   54439   54440
   54439   54441   54442   54443   54442   54444   54445   54446
   54445   54447   54448   54449   54448   54450   54451   54452
   54451   54453   54454   54455   54454   54456   54457   54458
   54457   54459   54460   54461   54460   54462   54463   54464
   54463   54465   54466   54467   54466   54468   54469   54470
   54469   54471   54472   54473   54472   54474   54475   54476
   54475   54477   54478   54479   54478   54480   54481   54482
   54481   54483   54484   54485   54484   54486   54487   54488
   54487   54489   54490   54491   54490   54492   54493   54494
   54493   54495   54496   54497   54496   54498   54499   54500
   54499   54501   54502   54503   54502   54504   54505   54506
   54505   54507   54508   54509   54508   54510   54511   54512
   54511   54513   54514   54515   54514   54516   54517   54518
   54517   54519   54520   54521   54520   54522   54523   54524
   54523   54525   54526   54527   54526   54528   54529   54530
   54529   54531   54532   54533   54532   54534   54535   54536
   54535   54537   54538   54539   54538   54540   54541   54542
   54541   54543   54544   54545   54544   54546   54547   54548
   54547   54549   54550   54551   54550   54552   54553   54554
   54553   54555   54556   54557   54556   54558   54559   54560
   54559   54561   54562   54563   54562   54564   54565   54566
   54565   54567   54568   54569   54568   54570   54571   54572
   54571   54573   54574   54575   54574   54576   54577   54578
   54577   54579   54580   54581   54580   54582   54583   54584
   54583   54585   54586   54587   54586   54588   54589   54590
   54589   54591   54592   54593   54592   54594   54595   54596
   54595   54597   54598   54599   54598   54600   54601   54602
   54601   54603   54604   54605   54604   54606   54607   54608
   54607   54609   54610   54611   54610   54612   54613   54614
   54613   54615   54616   54617   54616   54618   54619   54620
   54619   54621   54622   54623   54622   54624   54625   54626
   54625   54627   54628   54629   54628   54630   54631   54632
   54631   54633   54634   54635   54634   54636   54637   54638
   54637   54639   54640   54641   54640   54642   54643   54644
   54643   54645   54646   54647   54646   54648   54649   54650
   54649   54651   54652   54653   54652   54654   54655   54656
   54655   54657   54658   54659   54658   54660   54661   54662
   54661   54663   54664   54665   54664   54666   54667   54668
   54667   54669   54670   54671   54670   54672   54673   54674
   54673   54675   54676   54677   54676   54678   54679   54680
   54679   54681   54682   54683   54682   54684   54685   54686
   54685   54687   54688   54689   54688   54690   54691   54692
   54691   54693   54694   54695   54694   54696   54697   54698
   54697   54699   54700   54701   54700   54702   54703   54704
   54703   54705   54706   54707   54706   54708   54709   54710
   54709   54711   54712   54713   54712   54714   54715   54716
   54715   54717   54718   54719   54718   54720   54721   54722
   54721   54723   54724   54725   54724   54726   54727   54728
   54727   54729   54730   54731   54730   54732   54733   54734
   54733   54735   54736   54737   54736   54738   54739   54740
   54739   54741   54742   54743   54742   54744   54745   54746
   54745   54747   54748   54749   54748   54750   54751   54752
   54751   54753   54754   54755   54754   54756   54757   54758
   54757   54759   54760   54761   54760   54762   54763   54764
   54763   54765   54766   54767   54766   54768   54769   54770
   54769   54771   54772   54773   54772   54774   54775   54776
   54775   54777   54778   54779   54778   54780   54781   54782
   54781   54783   54784   54785   54784   54786   54787   54788
   54787   54789   54790   54791   54790   54792   54793   54794
   54793   54795   54796   54797   54796   54798   54799   54800
   54799   54801   54802   54803   54802   54804   54805   54806
   54805   54807   54808   54809   54808   54810   54811   54812
   54811   54813   54814   54815   54814   54816   54817   54818
   54817   54819   54820   54821   54820   54822   54823   54824
   54823   54825   54826   54827   54826   54828   54829   54830
   54829   54831   54832   54833   54832   54834   54835   54836
   54835   54837   54838   54839   54838   54840   54841   54842
   54841   54843   54844   54845   54844   54846   54847   54848
   54847   54849   54850   54851   54850   54852   54853   54854
   54853   54855   54856   54857   54856   54858   54859   54860
   54859   54861   54862   54863   54862   54864   54865   54866
   54865   54867   54868   54869   54868   54870   54871   54872
   54871   54873   54874   54875   54874   54876   54877   54878
   54877   54879   54880   54881   54880   54882   54883   54884
   54883   54885   54886   54887   54886   54888   54889   54890
   54889   54891   54892   54893   54892   54894   54895   54896
   54895   54897   54898   54899   54898   54900   54901   54902
   54901   54903   54904   54905   54904   54906   54907   54908
   54907   54909   54910   54911   54910   54912   54913   54914
   54913   54915   54916   54917   54916   54918   54919   54920
   54919   54921   54922   54923   54922   54924   54925   54926
   54925   54927   54928   54929   54928   54930   54931   54932
   54931   54933   54934   54935   54934   54936   54937   54938
   54937   54939   54940   54941   54940   54942   54943   54944
   54943   54945   54946   54947   54946   54948   54949   54950
   54949   54951   54952   54953   54952   54954   54955   54956
   54955   54957   54958   54959   54958   54960   54961   54962
   54961   54963   54964   54965   54964   54966   54967   54968
   54967   54969   54970   54971   54970   54972   54973   54974
   54973   54975   54976   54977   54976   54978   54979   54980
   54979   54981   54982   54983   54982   54984   54985   54986
   54985   54987   54988   54989   54988   54990   54991   54992
   54991   54993   54994   54995   54994   54996   54997   54998
   54997   54999   55000   55001   55000   55002   55003   55004
   55003   55005   55006   55007   55006   55008   55009   55010
   55009   55011   55012   55013   55012   55014   55015   55016
   55015   55017   55018   55019   55018   55020   55021   55022
   55021   55023   55024   55025   55024   55026   55027   55028
   55027   55029   55030   55031   55030   55032   55033   55034
   55033   55035   55036   55037   55036   55038   55039   55040
   55039   55041   55042   55043   55042   55044   55045   55046
   55045   55047   55048   55049   55048   55050   55051   55052
   55051   55053   55054   55055   55054   55056   55057   55058
   55057   55059   55060   55061   55060   55062   55063   55064
   55063   55065   55066   55067   55066   55068   55069   55070
   55069   55071   55072   55073   55072   55074   55075   55076
   55075   55077   55078   55079   55078   55080   55081   55082
   55081   55083   55084   55085   55084   55086   55087   55088
   55087   55089   55090   55091   55090   55092   55093   55094
   55093   55095   55096   55097   55096   55098   55099   55100
   55099   55101   55102   55103   55102   55104   55105   55106
   55105   55107   55108   55109   55108   55110   55111   55112
   55111   55113   55114   55115   55114   55116   55117   55118
   55117   55119   55120   55121   55120   55122   55123   55124
   55123   55125   55126   55127   55126   55128   55129   55130
   55129   55131   55132   55133   55132   55134   55135   55136
   55135   55137   55138   55139   55138   55140   55141   55142
   55141   55143   55144   55145   55144   55146   55147   55148
   55147   55149   55150   55151   55150   55152   55153   55154
   55153   55155   55156   55157   55156   55158   55159   55160
   55159   55161   55162   55163   55162   55164   55165   55166
   55165   55167   55168   55169   55168   55170   55171   55172
   55171   55173   55174   55175   55174   55176   55177   55178
   55177   55179   55180   55181   55180   55182   55183   55184
   55183   55185   55186   55187   55186   55188   55189   55190
   55189   55191   55192   55193   55192   55194   55195   55196
   55195   55197   55198   55199   55198   55200   55201   55202
   55201   55203   55204   55205   55204   55206   55207   55208
   55207   55209   55210   55211   55210   55212   55213   55214
   55213   55215   55216   55217   55216   55218   55219   55220
   55219   55221   55222   55223   55222   55224   55225   55226
   55225   55227   55228   55229   55228   55230   55231   55232
   55231   55233   55234   55235   55234   55236   55237   55238
   55237   55239   55240   55241   55240   55242   55243   55244
   55243   55245   55246   55247   55246   55248   55249   55250
   55249   55251   55252   55253   55252   55254   55255   55256
   55255   55257   55258   55259   55258   55260   55261   55262
   55261   55263   55264   55265   55264   55266   55267   55268
   55267   55269   55270   55271   55270   55272   55273   55274
   55273   55275   55276   55277   55276   55278   55279   55280
   55279   55281   55282   55283   55282   55284   55285   55286
   55285   55287   55288   55289   55288   55290   55291   55292
   55291   55293   55294   55295   55294   55296   55297   55298
   55297   55299   55300   55301   55300   55302   55303   55304
   55303   55305   55306   55307   55306   55308   55309   55310
   55309   55311   55312   55313   55312   55314   55315   55316
   55315   55317   55318   55319   55318   55320   55321   55322
   55321   55323   55324   55325   55324   55326   55327   55328
   55327   55329   55330   55331   55330   55332   55333   55334
   55333   55335   55336   55337   55336   55338   55339   55340
   55339   55341   55342   55343   55342   55344   55345   55346
   55345   55347   55348   55349   55348   55350   55351   55352
   55351   55353   55354   55355   55354   55356   55357   55358
   55357   55359   55360   55361   55360   55362   55363   55364
   55363   55365   55366   55367   55366   55368   55369   55370
   55369   55371   55372   55373   55372   55374   55375   55376
   55375   55377   55378   55379   55378   55380   55381   55382
   55381   55383   55384   55385   55384   55386   55387   55388
   55387   55389   55390   55391   55390   55392   55393   55394
   55393   55395   55396   55397   55396   55398   55399   55400
   55399   55401   55402   55403   55402   55404   55405   55406
   55405   55407   55408   55409   55408   55410   55411   55412
   55411   55413   55414   55415   55414   55416   55417   55418
   55417   55419   55420   55421   55420   55422   55423   55424
   55423   55425   55426   55427   55426   55428   55429   55430
   55429   55431   55432   55433   55432   55434   55435   55436
   55435   55437   55438   55439   55438   55440   55441   55442
   55441   55443   55444   55445   55444   55446   55447   55448
   55447   55449   55450   55451   55450   55452   55453   55454
   55453   55455   55456   55457   55456   55458   55459   55460
   55459   55461   55462   55463   55462   55464   55465   55466
   55465   55467   55468   55469   55468   55470   55471   55472
   55471   55473   55474   55475   55474   55476   55477   55478
   55477   55479   55480   55481   55480   55482   55483   55484
   55483   55485   55486   55487   55486   55488   55489   55490
   55489   55491   55492   55493   55492   55494   55495   55496
   55495   55497   55498   55499   55498   55500   55501   55502
   55501   55503   55504   55505   55504   55506   55507   55508
   55507   55509   55510   55511   55510   55512   55513   55514
   55513   55515   55516   55517   55516   55518   55519   55520
   55519   55521   55522   55523   55522   55524   55525   55526
   55525   55527   55528   55529   55528   55530   55531   55532
   55531   55533   55534   55535   55534   55536   55537   55538
   55537   55539   55540   55541   55540   55542   55543   55544
   55543   55545   55546   55547   55546   55548   55549   55550
   55549   55551   55552   55553   55552   55554   55555   55556
   55555   55557   55558   55559   55558   55560   55561   55562
   55561   55563   55564   55565   55564   55566   55567   55568
   55567   55569   55570   55571   55570   55572   55573   55574
   55573   55575   55576   55577   55576   55578   55579   55580
   55579   55581   55582   55583   55582   55584   55585   55586
   55585   55587   55588   55589   55588   55590   55591   55592
   55591   55593   55594   55595   55594   55596   55597   55598
   55597   55599   55600   55601   55600   55602   55603   55604
   55603   55605   55606   55607   55606   55608   55609   55610
   55609   55611   55612   55613   55612   55614   55615   55616
   55615   55617   55618   55619   55618   55620   55621   55622
   55621   55623   55624   55625   55624   55626   55627   55628
   55627   55629   55630   55631   55630   55632   55633   55634
   55633   55635   55636   55637   55636   55638   55639   55640
   55639   55641   55642   55643   55642   55644   55645   55646
   55645   55647   55648   55649   55648   55650   55651   55652
   55651   55653   55654   55655   55654   55656   55657   55658
   55657   55659   55660   55661   55660   55662   55663   55664
   55663   55665   55666   55667   55666   55668   55669   55670
   55669   55671   55672   55673   55672   55674   55675   55676
   55675   55677   55678   55679   55678   55680   55681   55682
   55681   55683   55684   55685   55684   55686   55687   55688
   55687   55689   55690   55691   55690   55692   55693   55694
   55693   55695   55696   55697   55696   55698   55699   55700
   55699   55701   55702   55703   55702   55704   55705   55706
   55705   55707   55708   55709   55708   55710   55711   55712
   55711   55713   55714   55715   55714   55716   55717   55718
   55717   55719   55720   55721   55720   55722   55723   55724
   55723   55725   55726   55727   55726   55728   55729   55730
   55729   55731   55732   55733   55732   55734   55735   55736
   55735   55737   55738   55739   55738   55740   55741   55742
   55741   55743   55744   55745   55744   55746   55747   55748
   55747   55749   55750   55751   55750   55752   55753   55754
   55753   55755   55756   55757   55756   55758   55759   55760
   55759   55761   55762   55763   55762   55764   55765   55766
   55765   55767   55768   55769   55768   55770   55771   55772
   55771   55773   55774   55775   55774   55776   55777   55778
   55777   55779   55780   55781   55780   55782   55783   55784
   55783   55785   55786   55787   55786   55788   55789   55790
   55789   55791   55792   55793   55792   55794   55795   55796
   55795   55797   55798   55799   55798   55800   55801   55802
   55801   55803   55804   55805   55804   55806   55807   55808
   55807   55809   55810   55811   55810   55812   55813   55814
   55813   55815   55816   55817   55816   55818   55819   55820
   55819   55821   55822   55823   55822   55824   55825   55826
   55825   55827   55828   55829   55828   55830   55831   55832
   55831   55833   55834   55835   55834   55836   55837   55838
   55837   55839   55840   55841   55840   55842   55843   55844
   55843   55845   55846   55847   55846   55848   55849   55850
   55849   55851   55852   55853   55852   55854   55855   55856
   55855   55857   55858   55859   55858   55860   55861   55862
   55861   55863   55864   55865   55864   55866   55867   55868
   55867   55869   55870   55871   55870   55872   55873   55874
   55873   55875   55876   55877   55876   55878   55879   55880
   55879   55881   55882   55883   55882   55884   55885   55886
   55885   55887   55888   55889   55888   55890   55891   55892
   55891   55893   55894   55895   55894   55896   55897   55898
   55897   55899   55900   55901   55900   55902   55903   55904
   55903   55905   55906   55907   55906   55908   55909   55910
   55909   55911   55912   55913   55912   55914   55915   55916
   55915   55917   55918   55919   55918   55920   55921   55922
   55921   55923   55924   55925   55924   55926   55927   55928
   55927   55929   55930   55931   55930   55932   55933   55934
   55933   55935   55936   55937   55936   55938   55939   55940
   55939   55941   55942   55943   55942   55944   55945   55946
   55945   55947   55948   55949   55948   55950   55951   55952
   55951   55953   55954   55955   55954   55956   55957   55958
   55957   55959   55960   55961   55960   55962   55963   55964
   55963   55965   55966   55967   55966   55968   55969   55970
   55969   55971   55972   55973   55972   55974   55975   55976
   55975   55977   55978   55979   55978   55980   55981   55982
   55981   55983   55984   55985   55984   55986   55987   55988
   55987   55989   55990   55991   55990   55992   55993   55994
   55993   55995   55996   55997   55996   55998   55999   56000
   55999   56001   56002   56003   56002   56004   56005   56006
   56005   56007   56008   56009   56008   56010   56011   56012
   56011   56013   56014   56015   56014   56016   56017   56018
   56017   56019   56020   56021   56020   56022   56023   56024
   56023   56025   56026   56027   56026   56028   56029   56030
   56029   56031   56032   56033   56032   56034   56035   56036
   56035   56037   56038   56039   56038   56040   56041   56042
   56041   56043   56044   56045   56044   56046   56047   56048
   56047   56049   56050   56051   56050   56052   56053   56054
   56053   56055   56056   56057   56056   56058   56059   56060
   56059   56061   56062   56063   56062   56064   56065   56066
   56065   56067   56068   56069   56068   56070   56071   56072
   56071   56073   56074   56075   56074   56076   56077   56078
   56077   56079   56080   56081   56080   56082   56083   56084
   56083   56085   56086   56087   56086   56088   56089   56090
   56089   56091   56092   56093   56092   56094   56095   56096
   56095   56097   56098   56099   56098   56100   56101   56102
   56101   56103   56104   56105   56104   56106   56107   56108
   56107   56109   56110   56111   56110   56112   56113   56114
   56113   56115   56116   56117   56116   56118   56119   56120
   56119   56121   56122   56123   56122   56124   56125   56126
   56125   56127   56128   56129   56128   56130   56131   56132
   56131   56133   56134   56135   56134   56136   56137   56138
   56137   56139   56140   56141   56140   56142   56143   56144
   56143   56145   56146   56147   56146   56148   56149   56150
   56149   56151   56152   56153   56152   56154   56155   56156
   56155   56157   56158   56159   56158   56160   56161   56162
   56161   56163   56164   56165   56164   56166   56167   56168
   56167   56169   56170   56171   56170   56172   56173   56174
   56173   56175   56176   56177   56176   56178   56179   56180
   56179   56181   56182   56183   56182   56184   56185   56186
   56185   56187   56188   56189   56188   56190   56191   56192
   56191   56193   56194   56195   56194   56196   56197   56198
   56197   56199   56200   56201   56200   56202   56203   56204
   56203   56205   56206   56207   56206   56208   56209   56210
   56209   56211   56212   56213   56212   56214   56215   56216
   56215   56217   56218   56219   56218   56220   56221   56222
   56221   56223   56224   56225   56224   56226   56227   56228
   56227   56229   56230   56231   56230   56232   56233   56234
   56233   56235   56236   56237   56236   56238   56239   56240
   56239   56241   56242   56243   56242   56244   56245   56246
   56245   56247   56248   56249   56248   56250   56251   56252
   56251   56253   56254   56255   56254   56256   56257   56258
   56257   56259   56260   56261   56260   56262   56263   56264
   56263   56265   56266   56267   56266   56268   56269   56270
   56269   56271   56272   56273   56272   56274   56275   56276
   56275   56277   56278   56279   56278   56280   56281   56282
   56281   56283   56284   56285   56284   56286   56287   56288
   56287   56289   56290   56291   56290   56292   56293   56294
   56293   56295   56296   56297   56296   56298   56299   56300
   56299   56301   56302   56303   56302   56304   56305   56306
   56305   56307   56308   56309   56308   56310   56311   56312
   56311   56313   56314   56315   56314   56316   56317   56318
   56317   56319   56320   56321   56320   56322   56323   56324
   56323   56325   56326   56327   56326   56328   56329   56330
   56329   56331   56332   56333   56332   56334   56335   56336
   56335   56337   56338   56339   56338   56340   56341   56342
   56341   56343   56344   56345   56344   56346   56347   56348
   56347   56349   56350   56351   56350   56352   56353   56354
   56353   56355   56356   56357   56356   56358   56359   56360
   56359   56361   56362   56363   56362   56364   56365   56366
   56365   56367   56368   56369   56368   56370   56371   56372
   56371   56373   56374   56375   56374   56376   56377   56378
   56377   56379   56380   56381   56380   56382   56383   56384
   56383   56385   56386   56387   56386   56388   56389   56390
   56389   56391   56392   56393   56392   56394   56395   56396
   56395   56397   56398   56399   56398   56400   56401   56402
   56401   56403   56404   56405   56404   56406   56407   56408
   56407   56409   56410   56411   56410   56412   56413   56414
   56413   56415   56416   56417   56416   56418   56419   56420
   56419   56421   56422   56423   56422   56424   56425   56426
   56425   56427   56428   56429   56428   56430   56431   56432
   56431   56433   56434   56435   56434   56436   56437   56438
   56437   56439   56440   56441   56440   56442   56443   56444
   56443   56445   56446   56447   56446   56448   56449   56450
   56449   56451   56452   56453   56452   56454   56455   56456
   56455   56457   56458   56459   56458   56460   56461   56462
   56461   56463   56464   56465   56464   56466   56467   56468
   56467   56469   56470   56471   56470   56472   56473   56474
   56473   56475   56476   56477   56476   56478   56479   56480
   56479   56481   56482   56483   56482   56484   56485   56486
   56485   56487   56488   56489   56488   56490   56491   56492
   56491   56493   56494   56495   56494   56496   56497   56498
   56497   56499   56500   56501   56500   56502   56503   56504
   56503   56505   56506   56507   56506   56508   56509   56510
   56509   56511   56512   56513   56512   56514   56515   56516
   56515   56517   56518   56519   56518   56520   56521   56522
   56521   56523   56524   56525   56524   56526   56527   56528
   56527   56529   56530   56531   56530   56532   56533   56534
   56533   56535   56536   56537   56536   56538   56539   56540
   56539   56541   56542   56543   56542   56544   56545   56546
   56545   56547   56548   56549   56548   56550   56551   56552
   56551   56553   56554   56555   56554   56556   56557   56558
   56557   56559   56560   56561   56560   56562   56563   56564
   56563   56565   56566   56567   56566   56568   56569   56570
   56569   56571   56572   56573   56572   56574   56575   56576
   56575   56577   56578   56579   56578   56580   56581   56582
   56581   56583   56584   56585   56584   56586   56587   56588
   56587   56589   56590   56591   56590   56592   56593   56594
   56593   56595   56596   56597   56596   56598   56599   56600
   56599   56601   56602   56603   56602   56604   56605   56606
   56605   56607   56608   56609   56608   56610   56611   56612
   56611   56613   56614   56615   56614   56616   56617   56618
   56617   56619   56620   56621   56620   56622   56623   56624
   56623   56625   56626   56627   56626   56628   56629   56630
   56629   56631   56632   56633   56632   56634   56635   56636
   56635   56637   56638   56639   56638   56640   56641   56642
   56641   56643   56644   56645   56644   56646   56647   56648
   56647   56649   56650   56651   56650   56652   56653   56654
   56653   56655   56656   56657   56656   56658   56659   56660
   56659   56661   56662   56663   56662   56664   56665   56666
   56665   56667   56668   56669   56668   56670   56671   56672
   56671   56673   56674   56675   56674   56676   56677   56678
   56677   56679   56680   56681   56680   56682   56683   56684
   56683   56685   56686   56687   56686   56688   56689   56690
   56689   56691   56692   56693   56692   56694   56695   56696
   56695   56697   56698   56699   56698   56700   56701   56702
   56701   56703   56704   56705   56704   56706   56707   56708
   56707   56709   56710   56711   56710   56712   56713   56714
   56713   56715   56716   56717   56716   56718   56719   56720
   56719   56721   56722   56723   56722   56724   56725   56726
   56725   56727   56728   56729   56728   56730   56731   56732
   56731   56733   56734   56735   56734   56736   56737   56738
   56737   56739   56740   56741   56740   56742   56743   56744
   56743   56745   56746   56747   56746   56748   56749   56750
   56749   56751   56752   56753   56752   56754   56755   56756
   56755   56757   56758   56759   56758   56760   56761   56762
   56761   56763   56764   56765   56764   56766   56767   56768
   56767   56769   56770   56771   56770   56772   56773   56774
   56773   56775   56776   56777   56776   56778   56779   56780
   56779   56781   56782   56783   56782   56784   56785   56786
   56785   56787   56788   56789   56788   56790   56791   56792
   56791   56793   56794   56795   56794   56796   56797   56798
   56797   56799   56800   56801   56800   56802   56803   56804
   56803   56805   56806   56807   56806   56808   56809   56810
   56809   56811   56812   56813   56812   56814   56815   56816
   56815   56817   56818   56819   56818   56820   56821   56822
   56821   56823   56824   56825   56824   56826   56827   56828
   56827   56829   56830   56831   56830   56832   56833   56834
   56833   56835   56836   56837   56836   56838   56839   56840
   56839   56841   56842   56843   56842   56844   56845   56846
   56845   56847   56848   56849   56848   56850   56851   56852
   56851   56853   56854   56855   56854   56856   56857   56858
   56857   56859   56860   56861   56860   56862   56863   56864
   56863   56865   56866   56867   56866   56868   56869   56870
   56869   56871   56872   56873   56872   56874   56875   56876
   56875   56877   56878   56879   56878   56880   56881   56882
   56881   56883   56884   56885   56884   56886   56887   56888
   56887   56889   56890   56891   56890   56892   56893   56894
   56893   56895   56896   56897   56896   56898   56899   56900
   56899   56901   56902   56903   56902   56904   56905   56906
   56905   56907   56908   56909   56908   56910   56911   56912
   56911   56913   56914   56915   56914   56916   56917   56918
   56917   56919   56920   56921   56920   56922   56923   56924
   56923   56925   56926   56927   56926   56928   56929   56930
   56929   56931   56932   56933   56932   56934   56935   56936
   56935   56937   56938   56939   56938   56940   56941   56942
   56941   56943   56944   56945   56944   56946   56947   56948
   56947   56949   56950   56951   56950   56952   56953   56954
   56953   56955   56956   56957   56956   56958   56959   56960
   56959   56961   56962   56963   56962   56964   56965   56966
   56965   56967   56968   56969   56968   56970   56971   56972
   56971   56973   56974   56975   56974   56976   56977   56978
   56977   56979   56980   56981   56980   56982   56983   56984
   56983   56985   56986   56987   56986   56988   56989   56990
   56989   56991   56992   56993   56992   56994   56995   56996
   56995   56997   56998   56999   56998   57000   57001   57002
   57001   57003   57004   57005   57004   57006   57007   57008
   57007   57009   57010   57011   57010   57012   57013   57014
   57013   57015   57016   57017   57016   57018   57019   57020
   57019   57021   57022   57023   57022   57024   57025   57026
   57025   57027   57028   57029   57028   57030   57031   57032
   57031   57033   57034   57035   57034   57036   57037   57038
   57037   57039   57040   57041   57040   57042   57043   57044
   57043   57045   57046   57047   57046   57048   57049   57050
   57049   57051   57052   57053   57052   57054   57055   57056
   57055   57057   57058   57059   57058   57060   57061   57062
   57061   57063   57064   57065   57064   57066   57067   57068
   57067   57069   57070   57071   57070   57072   57073   57074
   57073   57075   57076   57077   57076   57078   57079   57080
   57079   57081   57082   57083   57082   57084   57085   57086
   57085   57087   57088   57089   57088   57090   57091   57092
   57091   57093   57094   57095   57094   57096   57097   57098
   57097   57099   57100   57101   57100   57102   57103   57104
   57103   57105   57106   57107   57106   57108   57109   57110
   57109   57111   57112   57113   57112   57114   57115   57116
   57115   57117   57118   57119   57118   57120   57121   57122
   57121   57123   57124   57125   57124   57126   57127   57128
   57127   57129   57130   57131   57130   57132   57133   57134
   57133   57135   57136   57137   57136   57138   57139   57140
   57139   57141   57142   57143   57142   57144   57145   57146
   57145   57147   57148   57149   57148   57150   57151   57152
   57151   57153   57154   57155   57154   57156   57157   57158
   57157   57159   57160   57161   57160   57162   57163   57164
   57163   57165   57166   57167   57166   57168   57169   57170
   57169   57171   57172   57173   57172   57174   57175   57176
   57175   57177   57178   57179   57178   57180   57181   57182
   57181   57183   57184   57185   57184   57186   57187   57188
   57187   57189   57190   57191   57190   57192   57193   57194
   57193   57195   57196   57197   57196   57198   57199   57200
   57199   57201   57202   57203   57202   57204   57205   57206
   57205   57207   57208   57209   57208   57210   57211   57212
   57211   57213   57214   57215   57214   57216   57217   57218
   57217   57219   57220   57221   57220   57222   57223   57224
   57223   57225   57226   57227   57226   57228   57229   57230
   57229   57231   57232   57233   57232   57234   57235   57236
   57235   57237   57238   57239   57238   57240   57241   57242
   57241   57243   57244   57245   57244   57246   57247   57248
   57247   57249   57250   57251   57250   57252   57253   57254
   57253   57255   57256   57257   57256   57258   57259   57260
   57259   57261   57262   57263   57262   57264   57265   57266
   57265   57267   57268   57269   57268   57270   57271   57272
   57271   57273   57274   57275   57274   57276   57277   57278
   57277   57279   57280   57281   57280   57282   57283   57284
   57283   57285   57286   57287   57286   57288   57289   57290
   57289   57291   57292   57293   57292   57294   57295   57296
   57295   57297   57298   57299   57298   57300   57301   57302
   57301   57303   57304   57305   57304   57306   57307   57308
   57307   57309   57310   57311   57310   57312   57313   57314
   57313   57315   57316   57317   57316   57318   57319   57320
   57319   57321   57322   57323   57322   57324   57325   57326
   57325   57327   57328   57329   57328   57330   57331   57332
   57331   57333   57334   57335   57334   57336   57337   57338
   57337   57339   57340   57341   57340   57342   57343   57344
   57343   57345   57346   57347   57346   57348   57349   57350
   57349   57351   57352   57353   57352   57354   57355   57356
   57355   57357   57358   57359   57358   57360   57361   57362
   57361   57363   57364   57365   57364   57366   57367   57368
   57367   57369   57370   57371   57370   57372   57373   57374
   57373   57375   57376   57377   57376   57378   57379   57380
   57379   57381   57382   57383   57382   57384   57385   57386
   57385   57387   57388   57389   57388   57390   57391   57392
   57391   57393   57394   57395   57394   57396   57397   57398
   57397   57399   57400   57401   57400   57402   57403   57404
   57403   57405   57406   57407   57406   57408   57409   57410
   57409   57411   57412   57413   57412   57414   57415   57416
   57415   57417   57418   57419   57418   57420   57421   57422
   57421   57423   57424   57425   57424   57426   57427   57428
   57427   57429   57430   57431   57430   57432   57433   57434
   57433   57435   57436   57437   57436   57438   57439   57440
   57439   57441   57442   57443   57442   57444   57445   57446
   57445   57447   57448   57449   57448   57450   57451   57452
   57451   57453   57454   57455   57454   57456   57457   57458
   57457   57459   57460   57461   57460   57462   57463   57464
   57463   57465   57466   57467   57466   57468   57469   57470
   57469   57471   57472   57473   57472   57474   57475   57476
   57475   57477   57478   57479   57478   57480   57481   57482
   57481   57483   57484   57485   57484   57486   57487   57488
   57487   57489   57490   57491   57490   57492   57493   57494
   57493   57495   57496   57497   57496   57498   57499   57500
   57499   57501   57502   57503   57502   57504   57505   57506
   57505   57507   57508   57509   57508   57510   57511   57512
   57511   57513   57514   57515   57514   57516   57517   57518
   57517   57519   57520   57521   57520   57522   57523   57524
   57523   57525   57526   57527   57526   57528   57529   57530
   57529   57531   57532   57533   57532   57534   57535   57536
   57535   57537   57538   57539   57538   57540   57541   57542
   57541   57543   57544   57545   57544   57546   57547   57548
   57547   57549   57550   57551   57550   57552   57553   57554
   57553   57555   57556   57557   57556   57558   57559   57560
   57559   57561   57562   57563   57562   57564   57565   57566
   57565   57567   57568   57569   57568   57570   57571   57572
   57571   57573   57574   57575   57574   57576   57577   57578
   57577   57579   57580   57581   57580   57582   57583   57584
   57583   57585   57586   57587   57586   57588   57589   57590
   57589   57591   57592   57593   57592   57594   57595   57596
   57595   57597   57598   57599   57598   57600   57601   57602
   57601   57603   57604   57605   57604   57606   57607   57608
   57607   57609   57610   57611   57610   57612   57613   57614
   57613   57615   57616   57617   57616   57618   57619   57620
   57619   57621   57622   57623   57622   57624   57625   57626
   57625   57627   57628   57629   57628   57630   57631   57632
   57631   57633   57634   57635   57634   57636   57637   57638
   57637   57639   57640   57641   57640   57642   57643   57644
   57643   57645   57646   57647   57646   57648   57649   57650
   57649   57651   57652   57653   57652   57654   57655   57656
   57655   57657   57658   57659   57658   57660   57661   57662
   57661   57663   57664   57665   57664   57666   57667   57668
   57667   57669   57670   57671   57670   57672   57673   57674
   57673   57675   57676   57677   57676   57678   57679   57680
   57679   57681   57682   57683   57682   57684   57685   57686
   57685   57687   57688   57689   57688   57690   57691   57692
   57691   57693   57694   57695   57694   57696   57697   57698
   57697   57699   57700   57701   57700   57702   57703   57704
   57703   57705   57706   57707   57706   57708   57709   57710
   57709   57711   57712   57713   57712   57714   57715   57716
   57715   57717   57718   57719   57718   57720   57721   57722
   57721   57723   57724   57725   57724   57726   57727   57728
   57727   57729   57730   57731   57730   57732   57733   57734
   57733   57735   57736   57737   57736   57738   57739   57740
   57739   57741   57742   57743   57742   57744   57745   57746
   57745   57747   57748   57749   57748   57750   57751   57752
   57751   57753   57754   57755   57754   57756   57757   57758
   57757   57759   57760   57761   57760   57762   57763   57764
   57763   57765   57766   57767   57766   57768   57769   57770
   57769   57771   57772   57773   57772   57774   57775   57776
   57775   57777   57778   57779   57778   57780   57781   57782
   57781   57783   57784   57785   57784   57786   57787   57788
   57787   57789   57790   57791   57790   57792   57793   57794
   57793   57795   57796   57797   57796   57798   57799   57800
   57799   57801   57802   57803   57802   57804   57805   57806
   57805   57807   57808   57809   57808   57810   57811   57812
   57811   57813   57814   57815   57814   57816   57817   57818
   57817   57819   57820   57821   57820   57822   57823   57824
   57823   57825   57826   57827   57826   57828   57829   57830
   57829   57831   57832   57833   57832   57834   57835   57836
   57835   57837   57838   57839   57838   57840   57841   57842
   57841   57843   57844   57845   57844   57846   57847   57848
   57847   57849   57850   57851   57850   57852   57853   57854
   57853   57855   57856   57857   57856   57858   57859   57860
   57859   57861   57862   57863   57862   57864   57865   57866
   57865   57867   57868   57869   57868   57870   57871   57872
   57871   57873   57874   57875   57874   57876   57877   57878
   57877   57879   57880   57881   57880   57882   57883   57884
   57883   57885   57886   57887   57886   57888   57889   57890
   57889   57891   57892   57893   57892   57894   57895   57896
   57895   57897   57898   57899   57898   57900   57901   57902
   57901   57903   57904   57905   57904   57906   57907   57908
   57907   57909   57910   57911   57910   57912   57913   57914
   57913   57915   57916   57917   57916   57918   57919   57920
   57919   57921   57922   57923   57922   57924   57925   57926
   57925   57927   57928   57929   57928   57930   57931   57932
   57931   57933   57934   57935   57934   57936   57937   57938
   57937   57939   57940   57941   57940   57942   57943   57944
   57943   57945   57946   57947   57946   57948   57949   57950
   57949   57951   57952   57953   57952   57954   57955   57956
   57955   57957   57958   57959   57958   57960   57961   57962
   57961   57963   57964   57965   57964   57966   57967   57968
   57967   57969   57970   57971   57970   57972   57973   57974
   57973   57975   57976   57977   57976   57978   57979   57980
   57979   57981   57982   57983   57982   57984   57985   57986
   57985   57987   57988   57989   57988   57990   57991   57992
   57991   57993   57994   57995   57994   57996   57997   57998
   57997   57999   58000   58001   58000   58002   58003   58004
   58003   58005   58006   58007   58006   58008   58009   58010
   58009   58011   58012   58013   58012   58014   58015   58016
   58015   58017   58018   58019   58018   58020   58021   58022
   58021   58023   58024   58025   58024   58026   58027   58028
   58027   58029   58030   58031   58030   58032   58033   58034
   58033   58035   58036   58037   58036   58038   58039   58040
   58039   58041   58042   58043   58042   58044   58045   58046
   58045   58047   58048   58049   58048   58050   58051   58052
   58051   58053   58054   58055   58054   58056   58057   58058
   58057   58059   58060   58061   58060   58062   58063   58064
   58063   58065   58066   58067   58066   58068   58069   58070
   58069   58071   58072   58073   58072   58074   58075   58076
   58075   58077   58078   58079   58078   58080   58081   58082
   58081   58083   58084   58085   58084   58086   58087   58088
   58087   58089   58090   58091   58090   58092   58093   58094
   58093   58095   58096   58097   58096   58098   58099   58100
   58099   58101   58102   58103   58102   58104   58105   58106
   58105   58107   58108   58109   58108   58110   58111   58112
   58111   58113   58114   58115   58114   58116   58117   58118
   58117   58119   58120   58121   58120   58122   58123   58124
   58123   58125   58126   58127   58126   58128   58129   58130
   58129   58131   58132   58133   58132   58134   58135   58136
   58135   58137   58138   58139   58138   58140   58141   58142
   58141   58143   58144   58145   58144   58146   58147   58148
   58147   58149   58150   58151   58150   58152   58153   58154
   58153   58155   58156   58157   58156   58158   58159   58160
   58159   58161   58162   58163   58162   58164   58165   58166
   58165   58167   58168   58169   58168   58170   58171   58172
   58171   58173   58174   58175   58174   58176   58177   58178
   58177   58179   58180   58181   58180   58182   58183   58184
   58183   58185   58186   58187   58186   58188   58189   58190
   58189   58191   58192   58193   58192   58194   58195   58196
   58195   58197   58198   58199   58198   58200   58201   58202
   58201   58203   58204   58205   58204   58206   58207   58208
   58207   58209   58210   58211   58210   58212   58213   58214
   58213   58215   58216   58217   58216   58218   58219   58220
   58219   58221   58222   58223   58222   58224   58225   58226
   58225   58227   58228   58229   58228   58230   58231   58232
   58231   58233   58234   58235   58234   58236   58237   58238
   58237   58239   58240   58241   58240   58242   58243   58244
   58243   58245   58246   58247   58246   58248   58249   58250
   58249   58251   58252   58253   58252   58254   58255   58256
   58255   58257   58258   58259   58258   58260   58261   58262
   58261   58263   58264   58265   58264   58266   58267   58268
   58267   58269   58270   58271   58270   58272   58273   58274
   58273   58275   58276   58277   58276   58278   58279   58280
   58279   58281   58282   58283   58282   58284   58285   58286
   58285   58287   58288   58289   58288   58290   58291   58292
   58291   58293   58294   58295   58294   58296   58297   58298
   58297   58299   58300   58301   58300   58302   58303   58304
   58303   58305   58306   58307   58306   58308   58309   58310
   58309   58311   58312   58313   58312   58314   58315   58316
   58315   58317   58318   58319   58318   58320   58321   58322
   58321   58323   58324   58325   58324   58326   58327   58328
   58327   58329   58330   58331   58330   58332   58333   58334
   58333   58335   58336   58337   58336   58338   58339   58340
   58339   58341   58342   58343   58342   58344   58345   58346
   58345   58347   58348   58349   58348   58350   58351   58352
   58351   58353   58354   58355   58354   58356   58357   58358
   58357   58359   58360   58361   58360   58362   58363   58364
   58363   58365   58366   58367   58366   58368   58369   58370
   58369   58371   58372   58373   58372   58374   58375   58376
   58375   58377   58378   58379   58378   58380   58381   58382
   58381   58383   58384   58385   58384   58386   58387   58388
   58387   58389   58390   58391   58390   58392   58393   58394
   58393   58395   58396   58397   58396   58398   58399   58400
   58399   58401   58402   58403   58402   58404   58405   58406
   58405   58407   58408   58409   58408   58410   58411   58412
   58411   58413   58414   58415   58414   58416   58417   58418
   58417   58419   58420   58421   58420   58422   58423   58424
   58423   58425   58426   58427   58426   58428   58429   58430
   58429   58431   58432   58433   58432   58434   58435   58436
   58435   58437   58438   58439   58438   58440   58441   58442
   58441   58443   58444   58445   58444   58446   58447   58448
   58447   58449   58450   58451   58450   58452   58453   58454
   58453   58455   58456   58457   58456   58458   58459   58460
   58459   58461   58462   58463   58462   58464   58465   58466
   58465   58467   58468   58469   58468   58470   58471   58472
   58471   58473   58474   58475   58474   58476   58477   58478
   58477   58479   58480   58481   58480   58482   58483   58484
   58483   58485   58486   58487   58486   58488   58489   58490
   58489   58491   58492   58493   58492   58494   58495   58496
   58495   58497   58498   58499   58498   58500   58501   58502
   58501   58503   58504   58505   58504   58506   58507   58508
   58507   58509   58510   58511   58510   58512   58513   58514
   58513   58515   58516   58517   58516   58518   58519   58520
   58519   58521   58522   58523   58522   58524   58525   58526
   58525   58527   58528   58529   58528   58530   58531   58532
   58531   58533   58534   58535   58534   58536   58537   58538
   58537   58539   58540   58541   58540   58542   58543   58544
   58543   58545   58546   58547   58546   58548   58549   58550
   58549   58551   58552   58553   58552   58554   58555   58556
   58555   58557   58558   58559   58558   58560   58561   58562
   58561   58563   58564   58565   58564   58566   58567   58568
   58567   58569   58570   58571   58570   58572   58573   58574
   58573   58575   58576   58577   58576   58578   58579   58580
   58579   58581   58582   58583   58582   58584   58585   58586
   58585   58587   58588   58589   58588   58590   58591   58592
   58591   58593   58594   58595   58594   58596   58597   58598
   58597   58599   58600   58601   58600   58602   58603   58604
   58603   58605   58606   58607   58606   58608   58609   58610
   58609   58611   58612   58613   58612   58614   58615   58616
   58615   58617   58618   58619   58618   58620   58621   58622
   58621   58623   58624   58625   58624   58626   58627   58628
   58627   58629   58630   58631   58630   58632   58633   58634
   58633   58635   58636   58637   58636   58638   58639   58640
   58639   58641   58642   58643   58642   58644   58645   58646
   58645   58647   58648   58649   58648   58650   58651   58652
   58651   58653   58654   58655   58654   58656   58657   58658
   58657   58659   58660   58661   58660   58662   58663   58664
   58663   58665   58666   58667   58666   58668   58669   58670
   58669   58671   58672   58673   58672   58674   58675   58676
   58675   58677   58678   58679   58678   58680   58681   58682
   58681   58683   58684   58685   58684   58686   58687   58688
   58687   58689   58690   58691   58690   58692   58693   58694
   58693   58695   58696   58697   58696   58698   58699   58700
   58699   58701   58702   58703   58702   58704   58705   58706
   58705   58707   58708   58709   58708   58710   58711   58712
   58711   58713   58714   58715   58714   58716   58717   58718
   58717   58719   58720   58721   58720   58722   58723   58724
   58723   58725   58726   58727   58726   58728   58729   58730
   58729   58731   58732   58733   58732   58734   58735   58736
   58735   58737   58738   58739   58738   58740   58741   58742
   58741   58743   58744   58745   58744   58746   58747   58748
   58747   58749   58750   58751   58750   58752   58753   58754
   58753   58755   58756   58757   58756   58758   58759   58760
   58759   58761   58762   58763   58762   58764   58765   58766
   58765   58767   58768   58769   58768   58770   58771   58772
   58771   58773   58774   58775   58774   58776   58777   58778
   58777   58779   58780   58781   58780   58782   58783   58784
   58783   58785   58786   58787   58786   58788   58789   58790
   58789   58791   58792   58793   58792   58794   58795   58796
   58795   58797   58798   58799   58798   58800   58801   58802
   58801   58803   58804   58805   58804   58806   58807   58808
   58807   58809   58810   58811   58810   58812   58813   58814
   58813   58815   58816   58817   58816   58818   58819   58820
   58819   58821   58822   58823   58822   58824   58825   58826
   58825   58827   58828   58829   58828   58830   58831   58832
   58831   58833   58834   58835   58834   58836   58837   58838
   58837   58839   58840   58841   58840   58842   58843   58844
   58843   58845   58846   58847   58846   58848   58849   58850
   58849   58851   58852   58853   58852   58854   58855   58856
   58855   58857   58858   58859   58858   58860   58861   58862
   58861   58863   58864   58865   58864   58866   58867   58868
   58867   58869   58870   58871   58870   58872   58873   58874
   58873   58875   58876   58877   58876   58878   58879   58880
   58879   58881   58882   58883   58882   58884   58885   58886
   58885   58887   58888   58889   58888   58890   58891   58892
   58891   58893   58894   58895   58894   58896   58897   58898
   58897   58899   58900   58901   58900   58902   58903   58904
   58903   58905   58906   58907   58906   58908   58909   58910
   58909   58911   58912   58913   58912   58914   58915   58916
   58915   58917   58918   58919   58918   58920   58921   58922
   58921   58923   58924   58925   58924   58926   58927   58928
   58927   58929   58930   58931   58930   58932   58933   58934
   58933   58935   58936   58937   58936   58938   58939   58940
   58939   58941   58942   58943   58942   58944   58945   58946
   58945   58947   58948   58949   58948   58950   58951   58952
   58951   58953   58954   58955   58954   58956   58957   58958
   58957   58959   58960   58961   58960   58962   58963   58964
   58963   58965   58966   58967   58966   58968   58969   58970
   58969   58971   58972   58973   58972   58974   58975   58976
   58975   58977   58978   58979   58978   58980   58981   58982
   58981   58983   58984   58985   58984   58986   58987   58988
   58987   58989   58990   58991   58990   58992   58993   58994
   58993   58995   58996   58997   58996   58998   58999   59000
   58999   59001   59002   59003   59002   59004   59005   59006
   59005   59007   59008   59009   59008   59010   59011   59012
   59011   59013   59014   59015   59014   59016   59017   59018
   59017   59019   59020   59021   59020   59022   59023   59024
   59023   59025   59026   59027   59026   59028   59029   59030
   59029   59031   59032   59033   59032   59034   59035   59036
   59035   59037   59038   59039   59038   59040   59041   59042
   59041   59043   59044   59045   59044   59046   59047   59048
   59047   59049   59050   59051   59050   59052   59053   59054
   59053   59055   59056   59057   59056   59058   59059   59060
   59059   59061   59062   59063   59062   59064   59065   59066
   59065   59067   59068   59069   59068   59070   59071   59072
   59071   59073   59074   59075   59074   59076   59077   59078
   59077   59079   59080   59081   59080   59082   59083   59084
   59083   59085   59086   59087   59086   59088   59089   59090
   59089   59091   59092   59093   59092   59094   59095   59096
   59095   59097   59098   59099   59098   59100   59101   59102
   59101   59103   59104   59105   59104   59106   59107   59108
   59107   59109   59110   59111   59110   59112   59113   59114
   59113   59115   59116   59117   59116   59118   59119   59120
   59119   59121   59122   59123   59122   59124   59125   59126
   59125   59127   59128   59129   59128   59130   59131   59132
   59131   59133   59134   59135   59134   59136   59137   59138
   59137   59139   59140   59141   59140   59142   59143   59144
   59143   59145   59146   59147   59146   59148   59149   59150
   59149   59151   59152   59153   59152   59154   59155   59156
   59155   59157   59158   59159   59158   59160   59161   59162
   59161   59163   59164   59165   59164   59166   59167   59168
   59167   59169   59170   59171   59170   59172   59173   59174
   59173   59175   59176   59177   59176   59178   59179   59180
   59179   59181   59182   59183   59182   59184   59185   59186
   59185   59187   59188   59189   59188   59190   59191   59192
   59191   59193   59194   59195   59194   59196   59197   59198
   59197   59199   59200   59201   59200   59202   59203   59204
   59203   59205   59206   59207   59206   59208   59209   59210
   59209   59211   59212   59213   59212   59214   59215   59216
   59215   59217   59218   59219   59218   59220   59221   59222
   59221   59223   59224   59225   59224   59226   59227   59228
   59227   59229   59230   59231   59230   59232   59233   59234
   59233   59235   59236   59237   59236   59238   59239   59240
   59239   59241   59242   59243   59242   59244   59245   59246
   59245   59247   59248   59249   59248   59250   59251   59252
   59251   59253   59254   59255   59254   59256   59257   59258
   59257   59259   59260   59261   59260   59262   59263   59264
   59263   59265   59266   59267   59266   59268   59269   59270
   59269   59271   59272   59273   59272   59274   59275   59276
   59275   59277   59278   59279   59278   59280   59281   59282
   59281   59283   59284   59285   59284   59286   59287   59288
   59287   59289   59290   59291   59290   59292   59293   59294
   59293   59295   59296   59297   59296   59298   59299   59300
   59299   59301   59302   59303   59302   59304   59305   59306
   59305   59307   59308   59309   59308   59310   59311   59312
   59311   59313   59314   59315   59314   59316   59317   59318
   59317   59319   59320   59321   59320   59322   59323   59324
   59323   59325   59326   59327   59326   59328   59329   59330
   59329   59331   59332   59333   59332   59334   59335   59336
   59335   59337   59338   59339   59338   59340   59341   59342
   59341   59343   59344   59345   59344   59346   59347   59348
   59347   59349   59350   59351   59350   59352   59353   59354
   59353   59355   59356   59357   59356   59358   59359   59360
   59359   59361   59362   59363   59362   59364   59365   59366
   59365   59367   59368   59369   59368   59370   59371   59372
   59371   59373   59374   59375   59374   59376   59377   59378
   59377   59379   59380   59381   59380   59382   59383   59384
   59383   59385   59386   59387   59386   59388   59389   59390
   59389   59391   59392   59393   59392   59394   59395   59396
   59395   59397   59398   59399   59398   59400   59401   59402
   59401   59403   59404   59405   59404   59406   59407   59408
   59407   59409   59410   59411   59410   59412   59413   59414
   59413   59415   59416   59417   59416   59418   59419   59420
   59419   59421   59422   59423   59422   59424   59425   59426
   59425   59427   59428   59429   59428   59430   59431   59432
   59431   59433   59434   59435   59434   59436   59437   59438
   59437   59439   59440   59441   59440   59442   59443   59444
   59443   59445   59446   59447   59446   59448   59449   59450
   59449   59451   59452   59453   59452   59454   59455   59456
   59455   59457   59458   59459   59458   59460   59461   59462
   59461   59463   59464   59465   59464   59466   59467   59468
   59467   59469   59470   59471   59470   59472   59473   59474
   59473   59475   59476   59477   59476   59478   59479   59480
   59479   59481   59482   59483   59482   59484   59485   59486
   59485   59487   59488   59489   59488   59490   59491   59492
   59491   59493   59494   59495   59494   59496   59497   59498
   59497   59499   59500   59501   59500   59502   59503   59504
   59503   59505   59506   59507   59506   59508   59509   59510
   59509   59511   59512   59513   59512   59514   59515   59516
   59515   59517   59518   59519   59518   59520   59521   59522
   59521   59523   59524   59525   59524   59526   59527   59528
   59527   59529   59530   59531   59530   59532   59533   59534
   59533   59535   59536   59537   59536   59538   59539   59540
   59539   59541   59542   59543   59542   59544   59545   59546
   59545   59547   59548   59549   59548   59550   59551   59552
   59551   59553   59554   59555   59554   59556   59557   59558
   59557   59559   59560   59561   59560   59562   59563   59564
   59563   59565   59566   59567   59566   59568   59569   59570
   59569   59571   59572   59573   59572   59574   59575   59576
   59575   59577   59578   59579   59578   59580   59581   59582
   59581   59583   59584   59585   59584   59586   59587   59588
   59587   59589   59590   59591   59590   59592   59593   59594
   59593   59595   59596   59597   59596   59598   59599   59600
   59599   59601   59602   59603   59602   59604   59605   59606
   59605   59607   59608   59609   59608   59610   59611   59612
   59611   59613   59614   59615   59614   59616   59617   59618
   59617   59619   59620   59621   59620   59622   59623   59624
   59623   59625   59626   59627   59626   59628   59629   59630
   59629   59631   59632   59633   59632   59634   59635   59636
   59635   59637   59638   59639   59638   59640   59641   59642
   59641   59643   59644   59645   59644   59646   59647   59648
   59647   59649   59650   59651   59650   59652   59653   59654
   59653   59655   59656   59657   59656   59658   59659   59660
   59659   59661   59662   59663   59662   59664   59665   59666
   59665   59667   59668   59669   59668   59670   59671   59672
   59671   59673   59674   59675   59674   59676   59677   59678
   59677   59679   59680   59681   59680   59682   59683   59684
   59683   59685   59686   59687   59686   59688   59689   59690
   59689   59691   59692   59693   59692   59694   59695   59696
   59695   59697   59698   59699   59698   59700   59701   59702
   59701   59703   59704   59705   59704   59706   59707   59708
   59707   59709   59710   59711   59710   59712   59713   59714
   59713   59715   59716   59717   59716   59718   59719   59720
   59719   59721   59722   59723   59722   59724   59725   59726
   59725   59727   59728   59729   59728   59730   59731   59732
   59731   59733   59734   59735   59734   59736   59737   59738
   59737   59739   59740   59741   59740   59742   59743   59744
   59743   59745   59746   59747   59746   59748   59749   59750
   59749   59751   59752   59753   59752   59754   59755   59756
   59755   59757   59758   59759   59758   59760   59761   59762
   59761   59763   59764   59765   59764   59766   59767   59768
   59767   59769   59770   59771   59770   59772   59773   59774
   59773   59775   59776   59777   59776   59778   59779   59780
   59779   59781   59782   59783   59782   59784   59785   59786
   59785   59787   59788   59789   59788   59790   59791   59792
   59791   59793   59794   59795   59794   59796   59797   59798
   59797   59799   59800   59801   59800   59802   59803   59804
   59803   59805   59806   59807   59806   59808   59809   59810
   59809   59811   59812   59813   59812   59814   59815   59816
   59815   59817   59818   59819   59818   59820   59821   59822
   59821   59823   59824   59825   59824   59826   59827   59828
   59827   59829   59830   59831   59830   59832   59833   59834
   59833   59835   59836   59837   59836   59838   59839   59840
   59839   59841   59842   59843   59842   59844   59845   59846
   59845   59847   59848   59849   59848   59850   59851   59852
   59851   59853   59854   59855   59854   59856   59857   59858
   59857   59859   59860   59861   59860   59862   59863   59864
   59863   59865   59866   59867   59866   59868   59869   59870
   59869   59871   59872   59873   59872   59874   59875   59876
   59875   59877   59878   59879   59878   59880   59881   59882
   59881   59883   59884   59885   59884   59886   59887   59888
   59887   59889   59890   59891   59890   59892   59893   59894
   59893   59895   59896   59897   59896   59898   59899   59900
   59899   59901   59902   59903   59902   59904   59905   59906
   59905   59907   59908   59909   59908   59910   59911   59912
   59911   59913   59914   59915   59914   59916   59917   59918
   59917   59919   59920   59921   59920   59922   59923   59924
   59923   59925   59926   59927   59926   59928   59929   59930
   59929   59931   59932   59933   59932   59934   59935   59936
   59935   59937   59938   59939   59938   59940   59941   59942
   59941   59943   59944   59945   59944   59946   59947   59948
   59947   59949   59950   59951   59950   59952   59953   59954
   59953   59955   59956   59957   59956   59958   59959   59960
   59959   59961   59962   59963   59962   59964   59965   59966
   59965   59967   59968   59969   59968   59970   59971   59972
   59971   59973   59974   59975   59974   59976   59977   59978
   59977   59979   59980   59981   59980   59982   59983   59984
   59983   59985   59986   59987   59986   59988   59989   59990
   59989   59991   59992   59993   59992   59994   59995   59996
   59995   59997   59998   59999   59998   60000   60001   60002
   60001   60003   60004   60005   60004   60006   60007   60008
   60007   60009   60010   60011   60010   60012   60013   60014
   60013   60015   60016   60017   60016   60018   60019   60020
   60019   60021   60022   60023   60022   60024   60025   60026
   60025   60027   60028   60029   60028   60030   60031   60032
   60031   60033   60034   60035   60034   60036   60037   60038
   60037   60039   60040   60041   60040   60042   60043   60044
   60043   60045   60046   60047   60046   60048   60049   60050
   60049   60051   60052   60053   60052   60054   60055   60056
   60055   60057   60058   60059   60058   60060   60061   60062
   60061   60063   60064   60065   60064   60066   60067   60068
   60067   60069   60070   60071   60070   60072   60073   60074
   60073   60075   60076   60077   60076   60078   60079   60080
   60079   60081   60082   60083   60082   60084   60085   60086
   60085   60087   60088   60089   60088   60090   60091   60092
   60091   60093   60094   60095   60094   60096   60097   60098
   60097   60099   60100   60101   60100   60102   60103   60104
   60103   60105   60106   60107   60106   60108   60109   60110
   60109   60111   60112   60113   60112   60114   60115   60116
   60115   60117   60118   60119   60118   60120   60121   60122
   60121   60123   60124   60125   60124   60126   60127   60128
   60127   60129   60130   60131   60130   60132   60133   60134
   60133   60135   60136   60137   60136   60138   60139   60140
   60139   60141   60142   60143   60142   60144   60145   60146
   60145   60147   60148   60149   60148   60150   60151   60152
   60151   60153   60154   60155   60154   60156   60157   60158
   60157   60159   60160   60161   60160   60162   60163   60164
   60163   60165   60166   60167   60166   60168   60169   60170
   60169   60171   60172   60173   60172   60174   60175   60176
   60175   60177   60178   60179   60178   60180   60181   60182
   60181   60183   60184   60185   60184   60186   60187   60188
   60187   60189   60190   60191   60190   60192   60193   60194
   60193   60195   60196   60197   60196   60198   60199   60200
   60199   60201   60202   60203   60202   60204   60205   60206
   60205   60207   60208   60209   60208   60210   60211   60212
   60211   60213   60214   60215   60214   60216   60217   60218
   60217   60219   60220   60221   60220   60222   60223   60224
   60223   60225   60226   60227   60226   60228   60229   60230
   60229   60231   60232   60233   60232   60234   60235   60236
   60235   60237   60238   60239   60238   60240   60241   60242
   60241   60243   60244   60245   60244   60246   60247   60248
   60247   60249   60250   60251   60250   60252   60253   60254
   60253   60255   60256   60257   60256   60258   60259   60260
   60259   60261   60262   60263   60262   60264   60265   60266
   60265   60267   60268   60269   60268   60270   60271   60272
   60271   60273   60274   60275   60274   60276   60277   60278
   60277   60279   60280   60281   60280   60282   60283   60284
   60283   60285   60286   60287   60286   60288   60289   60290
   60289   60291   60292   60293   60292   60294   60295   60296
   60295   60297   60298   60299   60298   60300   60301   60302
   60301   60303   60304   60305   60304   60306   60307   60308
   60307   60309   60310   60311   60310   60312   60313   60314
   60313   60315   60316   60317   60316   60318   60319   60320
   60319   60321   60322   60323   60322   60324   60325   60326
   60325   60327   60328   60329   60328   60330   60331   60332
   60331   60333   60334   60335   60334   60336   60337   60338
   60337   60339   60340   60341   60340   60342   60343   60344
   60343   60345   60346   60347   60346   60348   60349   60350
   60349   60351   60352   60353   60352   60354   60355   60356
   60355   60357   60358   60359   60358   60360   60361   60362
   60361   60363   60364   60365   60364   60366   60367   60368
   60367   60369   60370   60371   60370   60372   60373   60374
   60373   60375   60376   60377   60376   60378   60379   60380
   60379   60381   60382   60383   60382   60384   60385   60386
   60385   60387   60388   60389   60388   60390   60391   60392
   60391   60393   60394   60395   60394   60396   60397   60398
   60397   60399   60400   60401   60400   60402   60403   60404
   60403   60405   60406   60407   60406   60408   60409   60410
   60409   60411   60412   60413   60412   60414   60415   60416
   60415   60417   60418   60419   60418   60420   60421   60422
   60421   60423   60424   60425   60424   60426   60427   60428
   60427   60429   60430   60431   60430   60432   60433   60434
   60433   60435   60436   60437   60436   60438   60439   60440
   60439   60441   60442   60443   60442   60444   60445   60446
   60445   60447   60448   60449   60448   60450   60451   60452
   60451   60453   60454   60455   60454   60456   60457   60458
   60457   60459   60460   60461   60460   60462   60463   60464
   60463   60465   60466   60467   60466   60468   60469   60470
   60469   60471   60472   60473   60472   60474   60475   60476
   60475   60477   60478   60479   60478   60480   60481   60482
   60481   60483   60484   60485   60484   60486   60487   60488
   60487   60489   60490   60491   60490   60492   60493   60494
   60493   60495   60496   60497   60496   60498   60499   60500
   60499   60501   60502   60503   60502   60504   60505   60506
   60505   60507   60508   60509   60508   60510   60511   60512
   60511   60513   60514   60515   60514   60516   60517   60518
   60517   60519   60520   60521   60520   60522   60523   60524
   60523   60525   60526   60527   60526   60528   60529   60530
   60529   60531   60532   60533   60532   60534   60535   60536
   60535   60537   60538   60539   60538   60540   60541   60542
   60541   60543   60544   60545   60544   60546   60547   60548
   60547   60549   60550   60551   60550   60552   60553   60554
   60553   60555   60556   60557   60556   60558   60559   60560
   60559   60561   60562   60563   60562   60564   60565   60566
   60565   60567   60568   60569   60568   60570   60571   60572
   60571   60573   60574   60575   60574   60576   60577   60578
   60577   60579   60580   60581   60580   60582   60583   60584
   60583   60585   60586   60587   60586   60588   60589   60590
   60589   60591   60592   60593   60592   60594   60595   60596
   60595   60597   60598   60599   60598   60600   60601   60602
   60601   60603   60604   60605   60604   60606   60607   60608
   60607   60609   60610   60611   60610   60612   60613   60614
   60613   60615   60616   60617   60616   60618   60619   60620
   60619   60621   60622   60623   60622   60624   60625   60626
   60625   60627   60628   60629   60628   60630   60631   60632
   60631   60633   60634   60635   60634   60636   60637   60638
   60637   60639   60640   60641   60640   60642   60643   60644
   60643   60645   60646   60647   60646   60648   60649   60650
   60649   60651   60652   60653   60652   60654   60655   60656
   60655   60657   60658   60659   60658   60660   60661   60662
   60661   60663   60664   60665   60664   60666   60667   60668
   60667   60669   60670   60671   60670   60672   60673   60674
   60673   60675   60676   60677   60676   60678   60679   60680
   60679   60681   60682   60683   60682   60684   60685   60686
   60685   60687   60688   60689   60688   60690   60691   60692
   60691   60693   60694   60695   60694   60696   60697   60698
   60697   60699   60700   60701   60700   60702   60703   60704
   60703   60705   60706   60707   60706   60708   60709   60710
   60709   60711   60712   60713   60712   60714   60715   60716
   60715   60717   60718   60719   60718   60720   60721   60722
   60721   60723   60724   60725   60724   60726   60727   60728
   60727   60729   60730   60731   60730   60732   60733   60734
   60733   60735   60736   60737   60736   60738   60739   60740
   60739   60741   60742   60743   60742   60744   60745   60746
   60745   60747   60748   60749   60748   60750   60751   60752
   60751   60753   60754   60755   60754   60756   60757   60758
   60757   60759   60760   60761   60760   60762   60763   60764
   60763   60765   60766   60767   60766   60768   60769   60770
   60769   60771   60772   60773   60772   60774   60775   60776
   60775   60777   60778   60779   60778   60780   60781   60782
   60781   60783   60784   60785   60784   60786   60787   60788
   60787   60789   60790   60791   60790   60792   60793   60794
   60793   60795   60796   60797   60796   60798   60799   60800
   60799   60801   60802   60803   60802   60804   60805   60806
   60805   60807   60808   60809   60808   60810   60811   60812
   60811   60813   60814   60815   60814   60816   60817   60818
   60817   60819   60820   60821   60820   60822   60823   60824
   60823   60825   60826   60827   60826   60828   60829   60830
   60829   60831   60832   60833   60832   60834   60835   60836
   60835   60837   60838   60839   60838   60840   60841   60842
   60841   60843   60844   60845   60844   60846   60847   60848
   60847   60849   60850   60851   60850   60852   60853   60854
   60853   60855   60856   60857   60856   60858   60859   60860
   60859   60861   60862   60863   60862   60864   60865   60866
   60865   60867   60868   60869   60868   60870   60871   60872
   60871   60873   60874   60875   60874   60876   60877   60878
   60877   60879   60880   60881   60880   60882   60883   60884
   60883   60885   60886   60887   60886   60888   60889   60890
   60889   60891   60892   60893   60892   60894   60895   60896
   60895   60897   60898   60899   60898   60900   60901   60902
   60901   60903   60904   60905   60904   60906   60907   60908
   60907   60909   60910   60911   60910   60912   60913   60914
   60913   60915   60916   60917   60916   60918   60919   60920
   60919   60921   60922   60923   60922   60924   60925   60926
   60925   60927   60928   60929   60928   60930   60931   60932
   60931   60933   60934   60935   60934   60936   60937   60938
   60937   60939   60940   60941   60940   60942   60943   60944
   60943   60945   60946   60947   60946   60948   60949   60950
   60949   60951   60952   60953   60952   60954   60955   60956
   60955   60957   60958   60959   60958   60960   60961   60962
   60961   60963   60964   60965   60964   60966   60967   60968
   60967   60969   60970   60971   60970   60972   60973   60974
   60973   60975   60976   60977   60976   60978   60979   60980
   60979   60981   60982   60983   60982   60984   60985   60986
   60985   60987   60988   60989   60988   60990   60991   60992
   60991   60993   60994   60995   60994   60996   60997   60998
   60997   60999   61000   61001   61000   61002   61003   61004
   61003   61005   61006   61007   61006   61008   61009   61010
   61009   61011   61012   61013   61012   61014   61015   61016
   61015   61017   61018   61019   61018   61020   61021   61022
   61021   61023   61024   61025   61024   61026   61027   61028
   61027   61029   61030   61031   61030   61032   61033   61034
   61033   61035   61036   61037   61036   61038   61039   61040
   61039   61041   61042   61043   61042   61044   61045   61046
   61045   61047   61048   61049   61048   61050   61051   61052
   61051   61053   61054   61055   61054   61056   61057   61058
   61057   61059   61060   61061   61060   61062   61063   61064
   61063   61065   61066   61067   61066   61068   61069   61070
   61069   61071   61072   61073   61072   61074   61075   61076
   61075   61077   61078   61079   61078   61080   61081   61082
   61081   61083   61084   61085   61084   61086   61087   61088
   61087   61089   61090   61091   61090   61092   61093   61094
   61093   61095   61096   61097   61096   61098   61099   61100
   61099   61101   61102   61103   61102   61104   61105   61106
   61105   61107   61108   61109   61108   61110   61111   61112
   61111   61113   61114   61115   61114   61116   61117   61118
   61117   61119   61120   61121   61120   61122   61123   61124
   61123   61125   61126   61127   61126   61128   61129   61130
   61129   61131   61132   61133   61132   61134   61135   61136
   61135   61137   61138   61139   61138   61140   61141   61142
   61141   61143   61144   61145   61144   61146   61147   61148
   61147   61149   61150   61151   61150   61152   61153   61154
   61153   61155   61156   61157   61156   61158   61159   61160
   61159   61161   61162   61163   61162   61164   61165   61166
   61165   61167   61168   61169   61168   61170   61171   61172
   61171   61173   61174   61175   61174   61176   61177   61178
   61177   61179   61180   61181   61180   61182   61183   61184
   61183   61185   61186   61187   61186   61188   61189   61190
   61189   61191   61192   61193   61192   61194   61195   61196
   61195   61197   61198   61199   61198   61200   61201   61202
   61201   61203   61204   61205   61204   61206   61207   61208
   61207   61209   61210   61211   61210   61212   61213   61214
   61213   61215   61216   61217   61216   61218   61219   61220
   61219   61221   61222   61223   61222   61224   61225   61226
   61225   61227   61228   61229   61228   61230   61231   61232
   61231   61233   61234   61235   61234   61236   61237   61238
   61237   61239   61240   61241   61240   61242   61243   61244
   61243   61245   61246   61247   61246   61248   61249   61250
   61249   61251   61252   61253   61252   61254   61255   61256
   61255   61257   61258   61259   61258   61260   61261   61262
   61261   61263   61264   61265   61264   61266   61267   61268
   61267   61269   61270   61271   61270   61272   61273   61274
   61273   61275   61276   61277   61276   61278   61279   61280
   61279   61281   61282   61283   61282   61284   61285   61286
   61285   61287   61288   61289   61288   61290   61291   61292
   61291   61293   61294   61295   61294   61296   61297   61298
   61297   61299   61300   61301   61300   61302   61303   61304
   61303   61305   61306   61307   61306   61308   61309   61310
   61309   61311   61312   61313   61312   61314   61315   61316
   61315   61317   61318   61319   61318   61320   61321   61322
   61321   61323   61324   61325   61324   61326   61327   61328
   61327   61329   61330   61331   61330   61332   61333   61334
   61333   61335   61336   61337   61336   61338   61339   61340
   61339   61341   61342   61343   61342   61344   61345   61346
   61345   61347   61348   61349   61348   61350   61351   61352
   61351   61353   61354   61355   61354   61356   61357   61358
   61357   61359   61360   61361   61360   61362   61363   61364
   61363   61365   61366   61367   61366   61368   61369   61370
   61369   61371   61372   61373   61372   61374   61375   61376
   61375   61377   61378   61379   61378   61380   61381   61382
   61381   61383   61384   61385   61384   61386   61387   61388
   61387   61389   61390   61391   61390   61392   61393   61394
   61393   61395   61396   61397   61396   61398   61399   61400
   61399   61401   61402   61403   61402   61404   61405   61406
   61405   61407   61408   61409   61408   61410   61411   61412
   61411   61413   61414   61415   61414   61416   61417   61418
   61417   61419   61420   61421   61420   61422   61423   61424
   61423   61425   61426   61427   61426   61428   61429   61430
   61429   61431   61432   61433   61432   61434   61435   61436
   61435   61437   61438   61439   61438   61440   61441   61442
   61441   61443   61444   61445   61444   61446   61447   61448
   61447   61449   61450   61451   61450   61452   61453   61454
   61453   61455   61456   61457   61456   61458   61459   61460
   61459   61461   61462   61463   61462   61464   61465   61466
   61465   61467   61468   61469   61468   61470   61471   61472
   61471   61473   61474   61475   61474   61476   61477   61478
   61477   61479   61480   61481   61480   61482   61483   61484
   61483   61485   61486   61487   61486   61488   61489   61490
   61489   61491   61492   61493   61492   61494   61495   61496
   61495   61497   61498   61499   61498   61500   61501   61502
   61501   61503   61504   61505   61504   61506   61507   61508
   61507   61509   61510   61511   61510   61512   61513   61514
   61513   61515   61516   61517   61516   61518   61519   61520
   61519   61521   61522   61523   61522   61524   61525   61526
   61525   61527   61528   61529   61528   61530   61531   61532
   61531   61533   61534   61535   61534   61536   61537   61538
   61537   61539   61540   61541   61540   61542   61543   61544
   61543   61545   61546   61547   61546   61548   61549   61550
   61549   61551   61552   61553   61552   61554   61555   61556
   61555   61557   61558   61559   61558   61560   61561   61562
   61561   61563   61564   61565   61564   61566   61567   61568
   61567   61569   61570   61571   61570   61572   61573   61574
   61573   61575   61576   61577   61576   61578   61579   61580
   61579   61581   61582   61583   61582   61584   61585   61586
   61585   61587   61588   61589   61588   61590   61591   61592
   61591   61593   61594   61595   61594   61596   61597   61598
   61597   61599   61600   61601   61600   61602   61603   61604
   61603   61605   61606   61607   61606   61608   61609   61610
   61609   61611   61612   61613   61612   61614   61615   61616
   61615   61617   61618   61619   61618   61620   61621   61622
   61621   61623   61624   61625   61624   61626   61627   61628
   61627   61629   61630   61631   61630   61632   61633   61634
   61633   61635   61636   61637   61636   61638   61639   61640
   61639   61641   61642   61643   61642   61644   61645   61646
   61645   61647   61648   61649   61648   61650   61651   61652
   61651   61653   61654   61655   61654   61656   61657   61658
   61657   61659   61660   61661   61660   61662   61663   61664
   61663   61665   61666   61667   61666   61668   61669   61670
   61669   61671   61672   61673   61672   61674   61675   61676
   61675   61677   61678   61679   61678   61680   61681   61682
   61681   61683   61684   61685   61684   61686   61687   61688
   61687   61689   61690   61691   61690   61692   61693   61694
   61693   61695   61696   61697   61696   61698   61699   61700
   61699   61701   61702   61703   61702   61704   61705   61706
   61705   61707   61708   61709   61708   61710   61711   61712
   61711   61713   61714   61715   61714   61716   61717   61718
   61717   61719   61720   61721   61720   61722   61723   61724
   61723   61725   61726   61727   61726   61728   61729   61730
   61729   61731   61732   61733   61732   61734   61735   61736
   61735   61737   61738   61739   61738   61740   61741   61742
   61741   61743   61744   61745   61744   61746   61747   61748
   61747   61749   61750   61751   61750   61752   61753   61754
   61753   61755   61756   61757   61756   61758   61759   61760
   61759   61761   61762   61763   61762   61764   61765   61766
   61765   61767   61768   61769   61768   61770   61771   61772
   61771   61773   61774   61775   61774   61776   61777   61778
   61777   61779   61780   61781   61780   61782   61783   61784
   61783   61785   61786   61787   61786   61788   61789   61790
   61789   61791   61792   61793   61792   61794   61795   61796
   61795   61797   61798   61799   61798   61800   61801   61802
   61801   61803   61804   61805   61804   61806   61807   61808
   61807   61809   61810   61811   61810   61812   61813   61814
   61813   61815   61816   61817   61816   61818   61819   61820
   61819   61821   61822   61823   61822   61824   61825   61826
   61825   61827   61828   61829   61828   61830   61831   61832
   61831   61833   61834   61835   61834   61836   61837   61838
   61837   61839   61840   61841   61840   61842   61843   61844
   61843   61845   61846   61847   61846   61848   61849   61850
   61849   61851   61852   61853   61852   61854   61855   61856
   61855   61857   61858   61859   61858   61860   61861   61862
   61861   61863   61864   61865   61864   61866   61867   61868
   61867   61869   61870   61871   61870   61872   61873   61874
   61873   61875   61876   61877   61876   61878   61879   61880
   61879   61881   61882   61883   61882   61884   61885   61886
   61885   61887   61888   61889   61888   61890   61891   61892
   61891   61893   61894   61895   61894   61896   61897   61898
   61897   61899   61900   61901   61900   61902   61903   61904
   61903   61905   61906   61907   61906   61908   61909   61910
   61909   61911   61912   61913   61912   61914   61915   61916
   61915   61917   61918   61919   61918   61920   61921   61922
   61921   61923   61924   61925   61924   61926   61927   61928
   61927   61929   61930   61931   61930   61932   61933   61934
   61933   61935   61936   61937   61936   61938   61939   61940
   61939   61941   61942   61943   61942   61944   61945   61946
   61945   61947   61948   61949   61948   61950   61951   61952
   61951   61953   61954   61955   61954   61956   61957   61958
   61957   61959   61960   61961   61960   61962   61963   61964
   61963   61965   61966   61967   61966   61968   61969   61970
   61969   61971   61972   61973   61972   61974   61975   61976
   61975   61977   61978   61979   61978   61980   61981   61982
   61981   61983   61984   61985   61984   61986   61987   61988
   61987   61989   61990   61991   61990   61992   61993   61994
   61993   61995   61996   61997   61996   61998   61999   62000
   61999   62001   62002   62003   62002   62004   62005   62006
   62005   62007   62008   62009   62008   62010   62011   62012
   62011   62013   62014   62015   62014   62016   62017   62018
   62017   62019   62020   62021   62020   62022   62023   62024
   62023   62025   62026   62027   62026   62028   62029   62030
   62029   62031   62032   62033   62032   62034   62035   62036
   62035   62037   62038   62039   62038   62040   62041   62042
   62041   62043   62044   62045   62044   62046   62047   62048
   62047   62049   62050   62051   62050   62052   62053   62054
   62053   62055   62056   62057   62056   62058   62059   62060
   62059   62061   62062   62063   62062   62064   62065   62066
   62065   62067   62068   62069   62068   62070   62071   62072
   62071   62073   62074   62075   62074   62076   62077   62078
   62077   62079   62080   62081   62080   62082   62083   62084
   62083   62085   62086   62087   62086   62088   62089   62090
   62089   62091   62092   62093   62092   62094   62095   62096
   62095   62097   62098   62099   62098   62100   62101   62102
   62101   62103   62104   62105   62104   62106   62107   62108
   62107   62109   62110   62111   62110   62112   62113   62114
   62113   62115   62116   62117   62116   62118   62119   62120
   62119   62121   62122   62123   62122   62124   62125   62126
   62125   62127   62128   62129   62128   62130   62131   62132
   62131   62133   62134   62135   62134   62136   62137   62138
   62137   62139   62140   62141   62140   62142   62143   62144
   62143   62145   62146   62147   62146   62148   62149   62150
   62149   62151   62152   62153   62152   62154   62155   62156
   62155   62157   62158   62159   62158   62160   62161   62162
   62161   62163   62164   62165   62164   62166   62167   62168
   62167   62169   62170   62171   62170   62172   62173   62174
   62173   62175   62176   62177   62176   62178   62179   62180
   62179   62181   62182   62183   62182   62184   62185   62186
   62185   62187   62188   62189   62188   62190   62191   62192
   62191   62193   62194   62195   62194   62196   62197   62198
   62197   62199   62200   62201   62200   62202   62203   62204
   62203   62205   62206   62207   62206   62208   62209   62210
   62209   62211   62212   62213   62212   62214   62215   62216
   62215   62217   62218   62219   62218   62220   62221   62222
   62221   62223   62224   62225   62224   62226   62227   62228
   62227   62229   62230   62231   62230   62232   62233   62234
   62233   62235   62236   62237   62236   62238   62239   62240
   62239   62241   62242   62243   62242   62244   62245   62246
   62245   62247   62248   62249   62248   62250   62251   62252
   62251   62253   62254   62255   62254   62256   62257   62258
   62257   62259   62260   62261   62260   62262   62263   62264
   62263   62265   62266   62267   62266   62268   62269   62270
   62269   62271   62272   62273   62272   62274   62275   62276
   62275   62277   62278   62279   62278   62280   62281   62282
   62281   62283   62284   62285   62284   62286   62287   62288
   62287   62289   62290   62291   62290   62292   62293   62294
   62293   62295   62296   62297   62296   62298   62299   62300
   62299   62301   62302   62303   62302   62304   62305   62306
   62305   62307   62308   62309   62308   62310   62311   62312
   62311   62313   62314   62315   62314   62316   62317   62318
   62317   62319   62320   62321   62320   62322   62323   62324
   62323   62325   62326   62327   62326   62328   62329   62330
   62329   62331   62332   62333   62332   62334   62335   62336
   62335   62337   62338   62339   62338   62340   62341   62342
   62341   62343   62344   62345   62344   62346   62347   62348
   62347   62349   62350   62351   62350   62352   62353   62354
   62353   62355   62356   62357   62356   62358   62359   62360
   62359   62361   62362   62363   62362   62364   62365   62366
   62365   62367   62368   62369   62368   62370   62371   62372
   62371   62373   62374   62375   62374   62376   62377   62378
   62377   62379   62380   62381   62380   62382   62383   62384
   62383   62385   62386   62387   62386   62388   62389   62390
   62389   62391   62392   62393   62392   62394   62395   62396
   62395   62397   62398   62399   62398   62400   62401   62402
   62401   62403   62404   62405   62404   62406   62407   62408
   62407   62409   62410   62411   62410   62412   62413   62414
   62413   62415   62416   62417   62416   62418   62419   62420
   62419   62421   62422   62423   62422   62424   62425   62426
   62425   62427   62428   62429   62428   62430   62431   62432
   62431   62433   62434   62435   62434   62436   62437   62438
   62437   62439   62440   62441   62440   62442   62443   62444
   62443   62445   62446   62447   62446   62448   62449   62450
   62449   62451   62452   62453   62452   62454   62455   62456
   62455   62457   62458   62459   62458   62460   62461   62462
   62461   62463   62464   62465   62464   62466   62467   62468
   62467   62469   62470   62471   62470   62472   62473   62474
   62473   62475   62476   62477   62476   62478   62479   62480
   62479   62481   62482   62483   62482   62484   62485   62486
   62485   62487   62488   62489   62488   62490   62491   62492
   62491   62493   62494   62495   62494   62496   62497   62498
   62497   62499   62500   62501   62500   62502   62503   62504
   62503   62505   62506   62507   62506   62508   62509   62510
   62509   62511   62512   62513   62512   62514   62515   62516
   62515   62517   62518   62519   62518   62520   62521   62522
   62521   62523   62524   62525   62524   62526   62527   62528
   62527   62529   62530   62531   62530   62532   62533   62534
   62533   62535   62536   62537   62536   62538   62539   62540
   62539   62541   62542   62543   62542   62544   62545   62546
   62545   62547   62548   62549   62548   62550   62551   62552
   62551   62553   62554   62555   62554   62556   62557   62558
   62557   62559   62560   62561   62560   62562   62563   62564
   62563   62565   62566   62567   62566   62568   62569   62570
   62569   62571   62572   62573   62572   62574   62575   62576
   62575   62577   62578   62579   62578   62580   62581   62582
   62581   62583   62584   62585   62584   62586   62587   62588
   62587   62589   62590   62591   62590   62592   62593   62594
   62593   62595   62596   62597   62596   62598   62599   62600
   62599   62601   62602   62603   62602   62604   62605   62606
   62605   62607   62608   62609   62608   62610   62611   62612
   62611   62613   62614   62615   62614   62616   62617   62618
   62617   62619   62620   62621   62620   62622   62623   62624
   62623   62625   62626   62627   62626   62628   62629   62630
   62629   62631   62632   62633   62632   62634   62635   62636
   62635   62637   62638   62639   62638   62640   62641   62642
   62641   62643   62644   62645   62644   62646   62647   62648
   62647   62649   62650   62651   62650   62652   62653   62654
   62653   62655   62656   62657   62656   62658   62659   62660
   62659   62661   62662   62663   62662   62664   62665   62666
   62665   62667   62668   62669   62668   62670   62671   62672
   62671   62673   62674   62675   62674   62676   62677   62678
   62677   62679   62680   62681   62680   62682   62683   62684
   62683   62685   62686   62687   62686   62688   62689   62690
   62689   62691   62692   62693   62692   62694   62695   62696
   62695   62697   62698   62699   62698   62700   62701   62702
   62701   62703   62704   62705   62704   62706   62707   62708
   62707   62709   62710   62711   62710   62712   62713   62714
   62713   62715   62716   62717   62716   62718   62719   62720
   62719   62721   62722   62723   62722   62724   62725   62726
   62725   62727   62728   62729   62728   62730   62731   62732
   62731   62733   62734   62735   62734   62736   62737   62738
   62737   62739   62740   62741   62740   62742   62743   62744
   62743   62745   62746   62747   62746   62748   62749   62750
   62749   62751   62752   62753   62752   62754   62755   62756
   62755   62757   62758   62759   62758   62760   62761   62762
   62761   62763   62764   62765   62764   62766   62767   62768
   62767   62769   62770   62771   62770   62772   62773   62774
   62773   62775   62776   62777   62776   62778   62779   62780
   62779   62781   62782   62783   62782   62784   62785   62786
   62785   62787   62788   62789   62788   62790   62791   62792
   62791   62793   62794   62795   62794   62796   62797   62798
   62797   62799   62800   62801   62800   62802   62803   62804
   62803   62805   62806   62807   62806   62808   62809   62810
   62809   62811   62812   62813   62812   62814   62815   62816
   62815   62817   62818   62819   62818   62820   62821   62822
   62821   62823   62824   62825   62824   62826   62827   62828
   62827   62829   62830   62831   62830   62832   62833   62834
   62833   62835   62836   62837   62836   62838   62839   62840
   62839   62841   62842   62843   62842   62844   62845   62846
   62845   62847   62848   62849   62848   62850   62851   62852
   62851   62853   62854   62855   62854   62856   62857   62858
   62857   62859   62860   62861   62860   62862   62863   62864
   62863   62865   62866   62867   62866   62868   62869   62870
   62869   62871   62872   62873   62872   62874   62875   62876
   62875   62877   62878   62879   62878   62880   62881   62882
   62881   62883   62884   62885   62884   62886   62887   62888
   62887   62889   62890   62891   62890   62892   62893   62894
   62893   62895   62896   62897   62896   62898   62899   62900
   62899   62901   62902   62903   62902   62904   62905   62906
   62905   62907   62908   62909   62908   62910   62911   62912
   62911   62913   62914   62915   62914   62916   62917   62918
   62917   62919   62920   62921   62920   62922   62923   62924
   62923   62925   62926   62927   62926   62928   62929   62930
   62929   62931   62932   62933   62932   62934   62935   62936
   62935   62937   62938   62939   62938   62940   62941   62942
   62941   62943   62944   62945   62944   62946   62947   62948
   62947   62949   62950   62951   62950   62952   62953   62954
   62953   62955   62956   62957   62956   62958   62959   62960
   62959   62961   62962   62963   62962   62964   62965   62966
   62965   62967   62968   62969   62968   62970   62971   62972
   62971   62973   62974   62975   62974   62976   62977   62978
   62977   62979   62980   62981   62980   62982   62983   62984
   62983   62985   62986   62987   62986   62988   62989   62990
   62989   62991   62992   62993   62992   62994   62995   62996
   62995   62997   62998   62999   62998   63000   63001   63002
   63001   63003   63004   63005   63004   63006   63007   63008
   63007   63009   63010   63011   63010   63012   63013   63014
   63013   63015   63016   63017   63016   63018   63019   63020
   63019   63021   63022   63023   63022   63024   63025   63026
   63025   63027   63028   63029   63028   63030   63031   63032
   63031   63033   63034   63035   63034   63036   63037   63038
   63037   63039   63040   63041   63040   63042   63043   63044
   63043   63045   63046   63047   63046   63048   63049   63050
   63049   63051   63052   63053   63052   63054   63055   63056
   63055   63057   63058   63059   63058   63060   63061   63062
   63061   63063   63064   63065   63064   63066   63067   63068
   63067   63069   63070   63071   63070   63072   63073   63074
   63073   63075   63076   63077   63076   63078   63079   63080
   63079   63081   63082   63083   63082   63084   63085   63086
   63085   63087   63088   63089   63088   63090   63091   63092
   63091   63093   63094   63095   63094   63096   63097   63098
   63097   63099   63100   63101   63100   63102   63103   63104
   63103   63105   63106   63107   63106   63108   63109   63110
   63109   63111   63112   63113   63112   63114   63115   63116
   63115   63117   63118   63119   63118   63120   63121   63122
   63121   63123   63124   63125   63124   63126   63127   63128
   63127   63129   63130   63131   63130   63132   63133   63134
   63133   63135   63136   63137   63136   63138   63139   63140
   63139   63141   63142   63143   63142   63144   63145   63146
   63145   63147   63148   63149   63148   63150   63151   63152
   63151   63153   63154   63155   63154   63156   63157   63158
   63157   63159   63160   63161   63160   63162   63163   63164
   63163   63165   63166   63167   63166   63168   63169   63170
   63169   63171   63172   63173   63172   63174   63175   63176
   63175   63177   63178   63179   63178   63180   63181   63182
   63181   63183   63184   63185   63184   63186   63187   63188
   63187   63189   63190   63191   63190   63192   63193   63194
   63193   63195   63196   63197   63196   63198   63199   63200
   63199   63201   63202   63203   63202   63204   63205   63206
   63205   63207   63208   63209   63208   63210   63211   63212
   63211   63213   63214   63215   63214   63216   63217   63218
   63217   63219   63220   63221   63220   63222   63223   63224
   63223   63225   63226   63227   63226   63228   63229   63230
   63229   63231   63232   63233   63232   63234   63235   63236
   63235   63237   63238   63239   63238   63240   63241   63242
   63241   63243   63244   63245   63244   63246   63247   63248
   63247   63249   63250   63251   63250   63252   63253   63254
   63253   63255   63256   63257   63256   63258   63259   63260
   63259   63261   63262   63263   63262   63264   63265   63266
   63265   63267   63268   63269   63268   63270   63271   63272
   63271   63273   63274   63275   63274   63276   63277   63278
   63277   63279   63280   63281   63280   63282   63283   63284
   63283   63285   63286   63287   63286   63288   63289   63290
   63289   63291   63292   63293   63292   63294   63295   63296
   63295   63297   63298   63299   63298   63300   63301   63302
   63301   63303   63304   63305   63304   63306   63307   63308
   63307   63309   63310   63311   63310   63312   63313   63314
   63313   63315   63316   63317   63316   63318   63319   63320
   63319   63321   63322   63323   63322   63324   63325   63326
   63325   63327   63328   63329   63328   63330   63331   63332
   63331   63333   63334   63335   63334   63336   63337   63338
   63337   63339   63340   63341   63340   63342   63343   63344
   63343   63345   63346   63347   63346   63348   63349   63350
   63349   63351   63352   63353   63352   63354   63355   63356
   63355   63357   63358   63359   63358   63360   63361   63362
   63361   63363   63364   63365   63364   63366   63367   63368
   63367   63369   63370   63371   63370   63372   63373   63374
   63373   63375   63376   63377   63376   63378   63379   63380
   63379   63381   63382   63383   63382   63384   63385   63386
   63385   63387   63388   63389   63388   63390   63391   63392
   63391   63393   63394   63395   63394   63396   63397   63398
   63397   63399   63400   63401   63400   63402   63403   63404
   63403   63405   63406   63407   63406   63408   63409   63410
   63409   63411   63412   63413   63412   63414   63415   63416
   63415   63417   63418   63419   63418   63420   63421   63422
   63421   63423   63424   63425   63424   63426   63427   63428
   63427   63429   63430   63431   63430   63432   63433   63434
   63433   63435   63436   63437   63436   63438   63439   63440
   63439   63441   63442   63443   63442   63444   63445   63446
   63445   63447   63448   63449   63448   63450   63451   63452
   63451   63453   63454   63455   63454   63456   63457   63458
   63457   63459   63460   63461   63460   63462   63463   63464
   63463   63465   63466   63467   63466   63468   63469   63470
   63469   63471   63472   63473   63472   63474   63475   63476
   63475   63477   63478   63479   63478   63480   63481   63482
   63481   63483   63484   63485   63484   63486   63487   63488
   63487   63489   63490   63491   63490   63492   63493   63494
   63493   63495   63496   63497   63496   63498   63499   63500
   63499   63501   63502   63503   63502   63504   63505   63506
   63505   63507   63508   63509   63508   63510   63511   63512
   63511   63513   63514   63515   63514   63516   63517   63518
   63517   63519   63520   63521   63520   63522   63523   63524
   63523   63525   63526   63527   63526   63528   63529   63530
   63529   63531   63532   63533   63532   63534   63535   63536
   63535   63537   63538   63539   63538   63540   63541   63542
   63541   63543   63544   63545   63544   63546   63547   63548
   63547   63549   63550   63551   63550   63552   63553   63554
   63553   63555   63556   63557   63556   63558   63559   63560
   63559   63561   63562   63563   63562   63564   63565   63566
   63565   63567   63568   63569   63568   63570   63571   63572
   63571   63573   63574   63575   63574   63576   63577   63578
   63577   63579   63580   63581   63580   63582   63583   63584
   63583   63585   63586   63587   63586   63588   63589   63590
   63589   63591   63592   63593   63592   63594   63595   63596
   63595   63597   63598   63599   63598   63600   63601   63602
   63601   63603   63604   63605   63604   63606   63607   63608
   63607   63609   63610   63611   63610   63612   63613   63614
   63613   63615   63616   63617   63616   63618   63619   63620
   63619   63621   63622   63623   63622   63624   63625   63626
   63625   63627   63628   63629   63628   63630   63631   63632
   63631   63633   63634   63635   63634   63636   63637   63638
   63637   63639   63640   63641   63640   63642   63643   63644
   63643   63645   63646   63647   63646   63648   63649   63650
   63649   63651   63652   63653   63652   63654   63655   63656
   63655   63657   63658   63659   63658   63660   63661   63662
   63661   63663   63664   63665   63664   63666   63667   63668
   63667   63669   63670   63671   63670   63672   63673   63674
   63673   63675   63676   63677   63676   63678   63679   63680
   63679   63681   63682   63683   63682   63684   63685   63686
   63685   63687   63688   63689   63688   63690   63691   63692
   63691   63693   63694   63695   63694   63696   63697   63698
   63697   63699   63700   63701   63700   63702   63703   63704
   63703   63705   63706   63707   63706   63708   63709   63710
   63709   63711   63712   63713   63712   63714   63715   63716
   63715   63717   63718   63719   63718   63720   63721   63722
   63721   63723   63724   63725   63724   63726   63727   63728
   63727   63729   63730   63731   63730   63732   63733   63734
   63733   63735   63736   63737   63736   63738   63739   63740
   63739   63741   63742   63743   63742   63744   63745   63746
   63745   63747   63748   63749   63748   63750   63751   63752
   63751   63753   63754   63755   63754   63756   63757   63758
   63757   63759   63760   63761   63760   63762   63763   63764
   63763   63765   63766   63767   63766   63768   63769   63770
   63769   63771   63772   63773   63772   63774   63775   63776
   63775   63777   63778   63779   63778   63780   63781   63782
   63781   63783   63784   63785   63784   63786   63787   63788
   63787   63789   63790   63791   63790   63792   63793   63794
   63793   63795   63796   63797   63796   63798   63799   63800
   63799   63801   63802   63803   63802   63804   63805   63806
   63805   63807   63808   63809   63808   63810   63811   63812
   63811   63813   63814   63815   63814   63816   63817   63818
   63817   63819   63820   63821   63820   63822   63823   63824
   63823   63825   63826   63827   63826   63828   63829   63830
   63829   63831   63832   63833   63832   63834   63835   63836
   63835   63837   63838   63839   63838   63840   63841   63842
   63841   63843   63844   63845   63844   63846   63847   63848
   63847   63849   63850   63851   63850   63852   63853   63854
   63853   63855   63856   63857   63856   63858   63859   63860
   63859   63861   63862   63863   63862   63864   63865   63866
   63865   63867   63868   63869   63868   63870   63871   63872
   63871   63873   63874   63875   63874   63876   63877   63878
   63877   63879   63880   63881   63880   63882   63883   63884
   63883   63885   63886   63887   63886   63888   63889   63890
   63889   63891   63892   63893   63892   63894   63895   63896
   63895   63897   63898   63899   63898   63900   63901   63902
   63901   63903   63904   63905   63904   63906   63907   63908
   63907   63909   63910   63911   63910   63912   63913   63914
   63913   63915   63916   63917   63916   63918   63919   63920
   63919   63921   63922   63923   63922   63924   63925   63926
   63925   63927   63928   63929   63928   63930   63931   63932
   63931   63933   63934   63935   63934   63936   63937   63938
   63937   63939   63940   63941   63940   63942   63943   63944
   63943   63945   63946   63947   63946   63948   63949   63950
   63949   63951   63952   63953   63952   63954   63955   63956
   63955   63957   63958   63959   63958   63960   63961   63962
   63961   63963   63964   63965   63964   63966   63967   63968
   63967   63969   63970   63971   63970   63972   63973   63974
   63973   63975   63976   63977   63976   63978   63979   63980
   63979   63981   63982   63983   63982   63984   63985   63986
   63985   63987   63988   63989   63988   63990   63991   63992
   63991   63993   63994   63995   63994   63996   63997   63998
   63997   63999   64000   64001   64000   64002   64003   64004
   64003   64005   64006   64007   64006   64008   64009   64010
   64009   64011   64012   64013   64012   64014   64015   64016
   64015   64017   64018   64019   64018   64020   64021   64022
   64021   64023   64024   64025   64024   64026   64027   64028
   64027   64029   64030   64031   64030   64032   64033   64034
   64033   64035   64036   64037   64036   64038   64039   64040
   64039   64041   64042   64043   64042   64044   64045   64046
   64045   64047   64048   64049   64048   64050   64051   64052
   64051   64053   64054   64055   64054   64056   64057   64058
   64057   64059   64060   64061   64060   64062   64063   64064
   64063   64065   64066   64067   64066   64068   64069   64070
   64069   64071   64072   64073   64072   64074   64075   64076
   64075   64077   64078   64079   64078   64080   64081   64082
   64081   64083   64084   64085   64084   64086   64087   64088
   64087   64089   64090   64091   64090   64092   64093   64094
   64093   64095   64096   64097   64096   64098   64099   64100
   64099   64101   64102   64103   64102   64104   64105   64106
   64105   64107   64108   64109   64108   64110   64111   64112
   64111   64113   64114   64115   64114   64116   64117   64118
   64117   64119   64120   64121   64120   64122   64123   64124
   64123   64125   64126   64127   64126   64128   64129   64130
   64129   64131   64132   64133   64132   64134   64135   64136
   64135   64137   64138   64139   64138   64140   64141   64142
   64141   64143   64144   64145   64144   64146   64147   64148
   64147   64149   64150   64151   64150   64152   64153   64154
   64153   64155   64156   64157   64156   64158   64159   64160
   64159   64161   64162   64163   64162   64164   64165   64166
   64165   64167   64168   64169   64168   64170   64171   64172
   64171   64173   64174   64175   64174   64176   64177   64178
   64177   64179   64180   64181   64180   64182   64183   64184
   64183   64185   64186   64187   64186   64188   64189   64190
   64189   64191   64192   64193   64192   64194   64195   64196
   64195   64197   64198   64199   64198   64200   64201   64202
   64201   64203   64204   64205   64204   64206   64207   64208
   64207   64209   64210   64211   64210   64212   64213   64214
   64213   64215   64216   64217   64216   64218   64219   64220
   64219   64221   64222   64223   64222   64224   64225   64226
   64225   64227   64228   64229   64228   64230   64231   64232
   64231   64233   64234   64235   64234   64236   64237   64238
   64237   64239   64240   64241   64240   64242   64243   64244
   64243   64245   64246   64247   64246   64248   64249   64250
   64249   64251   64252   64253   64252   64254   64255   64256
   64255   64257   64258   64259   64258   64260   64261   64262
   64261   64263   64264   64265   64264   64266   64267   64268
   64267   64269   64270   64271   64270   64272   64273   64274
   64273   64275   64276   64277   64276   64278   64279   64280
   64279   64281   64282   64283   64282   64284   64285   64286
   64285   64287   64288   64289   64288   64290   64291   64292
   64291   64293   64294   64295   64294   64296   64297   64298
   64297   64299   64300   64301   64300   64302   64303   64304
   64303   64305   64306   64307   64306   64308   64309   64310
   64309   64311   64312   64313   64312   64314   64315   64316
   64315   64317   64318   64319   64318   64320   64321   64322
   64321   64323   64324   64325   64324   64326   64327   64328
   64327   64329   64330   64331   64330   64332   64333   64334
   64333   64335   64336   64337   64336   64338   64339   64340
   64339   64341   64342   64343   64342   64344   64345   64346
   64345   64347   64348   64349   64348   64350   64351   64352
   64351   64353   64354   64355   64354   64356   64357   64358
   64357   64359   64360   64361   64360   64362   64363   64364
   64363   64365   64366   64367   64366   64368   64369   64370
   64369   64371   64372   64373   64372   64374   64375   64376
   64375   64377   64378   64379   64378   64380   64381   64382
   64381   64383   64384   64385   64384   64386   64387   64388
   64387   64389   64390   64391   64390   64392   64393   64394
   64393   64395   64396   64397   64396   64398   64399   64400
   64399   64401   64402   64403   64402   64404   64405   64406
   64405   64407   64408   64409   64408   64410   64411   64412
   64411   64413   64414   64415   64414   64416   64417   64418
   64417   64419   64420   64421   64420   64422   64423   64424
   64423   64425   64426   64427   64426   64428   64429   64430
   64429   64431   64432   64433   64432   64434   64435   64436
   64435   64437   64438   64439   64438   64440   64441   64442
   64441   64443   64444   64445   64444   64446   64447   64448
   64447   64449   64450   64451   64450   64452   64453   64454
   64453   64455   64456   64457   64456   64458   64459   64460
   64459   64461   64462   64463   64462   64464   64465   64466
   64465   64467   64468   64469   64468   64470   64471   64472
   64471   64473   64474   64475   64474   64476   64477   64478
   64477   64479   64480   64481   64480   64482   64483   64484
   64483   64485   64486   64487   64486   64488   64489   64490
   64489   64491   64492   64493   64492   64494   64495   64496
   64495   64497   64498   64499   64498   64500   64501   64502
   64501   64503   64504   64505   64504   64506   64507   64508
   64507   64509   64510   64511   64510   64512   64513   64514
   64513   64515   64516   64517   64516   64518   64519   64520
   64519   64521   64522   64523   64522   64524   64525   64526
   64525   64527   64528   64529   64528   64530   64531   64532
   64531   64533   64534   64535   64534   64536   64537   64538
   64537   64539   64540   64541   64540   64542   64543   64544
   64543   64545   64546   64547   64546   64548   64549   64550
   64549   64551   64552   64553   64552   64554   64555   64556
   64555   64557   64558   64559   64558   64560   64561   64562
   64561   64563   64564   64565   64564   64566   64567   64568
   64567   64569   64570   64571   64570   64572   64573   64574
   64573   64575   64576   64577   64576   64578   64579   64580
   64579   64581   64582   64583   64582   64584   64585   64586
   64585   64587   64588   64589   64588   64590   64591   64592
   64591   64593   64594   64595   64594   64596   64597   64598
   64597   64599   64600   64601   64600   64602   64603   64604
   64603   64605   64606   64607   64606   64608   64609   64610
   64609   64611   64612   64613   64612   64614   64615   64616
   64615   64617   64618   64619   64618   64620   64621   64622
   64621   64623   64624   64625   64624   64626   64627   64628
   64627   64629   64630   64631   64630   64632   64633   64634
   64633   64635   64636   64637   64636   64638   64639   64640
   64639   64641   64642   64643   64642   64644   64645   64646
   64645   64647   64648   64649   64648   64650   64651   64652
   64651   64653   64654   64655   64654   64656   64657   64658
   64657   64659   64660   64661   64660   64662   64663   64664
   64663   64665   64666   64667   64666   64668   64669   64670
   64669   64671   64672   64673   64672   64674   64675   64676
   64675   64677   64678   64679   64678   64680   64681   64682
   64681   64683   64684   64685   64684   64686   64687   64688
   64687   64689   64690   64691   64690   64692   64693   64694
   64693   64695   64696   64697   64696   64698   64699   64700
   64699   64701   64702   64703   64702   64704   64705   64706
   64705   64707   64708   64709   64708   64710   64711   64712
   64711   64713   64714   64715   64714   64716   64717   64718
   64717   64719   64720   64721   64720   64722   64723   64724
   64723   64725   64726   64727   64726   64728   64729   64730
   64729   64731   64732   64733   64732   64734   64735   64736
   64735   64737   64738   64739   64738   64740   64741   64742
   64741   64743   64744   64745   64744   64746   64747   64748
   64747   64749   64750   64751   64750   64752   64753   64754
   64753   64755   64756   64757   64756   64758   64759   64760
   64759   64761   64762   64763   64762   64764   64765   64766
   64765   64767   64768   64769   64768   64770   64771   64772
   64771   64773   64774   64775   64774   64776   64777   64778
   64777   64779   64780   64781   64780   64782   64783   64784
   64783   64785   64786   64787   64786   64788   64789   64790
   64789   64791   64792   64793   64792   64794   64795   64796
   64795   64797   64798   64799   64798   64800   64801   64802
   64801   64803   64804   64805   64804   64806   64807   64808
   64807   64809   64810   64811   64810   64812   64813   64814
   64813   64815   64816   64817   64816   64818   64819   64820
   64819   64821   64822   64823   64822   64824   64825   64826
   64825   64827   64828   64829   64828   64830   64831   64832
   64831   64833   64834   64835   64834   64836   64837   64838
   64837   64839   64840   64841   64840   64842   64843   64844
   64843   64845   64846   64847   64846   64848   64849   64850
   64849   64851   64852   64853   64852   64854   64855   64856
   64855   64857   64858   64859   64858   64860   64861   64862
   64861   64863   64864   64865   64864   64866   64867   64868
   64867   64869   64870   64871   64870   64872   64873   64874
   64873   64875   64876   64877   64876   64878   64879   64880
   64879   64881   64882   64883   64882   64884   64885   64886
   64885   64887   64888   64889   64888   64890   64891   64892
   64891   64893   64894   64895   64894   64896   64897   64898
   64897   64899   64900   64901   64900   64902   64903   64904
   64903   64905   64906   64907   64906   64908   64909   64910
   64909   64911   64912   64913   64912   64914   64915   64916
   64915   64917   64918   64919   64918   64920   64921   64922
   64921   64923   64924   64925   64924   64926   64927   64928
   64927   64929   64930   64931   64930   64932   64933   64934
   64933   64935   64936   64937   64936   64938   64939   64940
   64939   64941   64942   64943   64942   64944   64945   64946
   64945   64947   64948   64949   64948   64950   64951   64952
   64951   64953   64954   64955   64954   64956   64957   64958
   64957   64959   64960   64961   64960   64962   64963   64964
   64963   64965   64966   64967   64966   64968   64969   64970
   64969   64971   64972   64973   64972   64974   64975   64976
   64975   64977   64978   64979   64978   64980   64981   64982
   64981   64983   64984   64985   64984   64986   64987   64988
   64987   64989   64990   64991   64990   64992   64993   64994
   64993   64995   64996   64997   64996   64998   64999   65000
   64999   65001   65002   65003   65002   65004   65005   65006
   65005   65007   65008   65009   65008   65010   65011   65012
   65011   65013   65014   65015   65014   65016   65017   65018
   65017   65019   65020   65021   65020   65022   65023   65024
   65023   65025   65026   65027   65026   65028   65029   65030
   65029   65031   65032   65033   65032   65034   65035   65036
   65035   65037   65038   65039   65038   65040   65041   65042
   65041   65043   65044   65045   65044   65046   65047   65048
   65047   65049   65050   65051   65050   65052   65053   65054
   65053   65055   65056   65057   65056   65058   65059   65060
   65059   65061   65062   65063   65062   65064   65065   65066
   65065   65067   65068   65069   65068   65070   65071   65072
   65071   65073   65074   65075   65074   65076   65077   65078
   65077   65079   65080   65081   65080   65082   65083   65084
   65083   65085   65086   65087   65086   65088   65089   65090
   65089   65091   65092   65093   65092   65094   65095   65096
   65095   65097   65098   65099   65098   65100   65101   65102
   65101   65103   65104   65105   65104   65106   65107   65108
   65107   65109   65110   65111   65110   65112   65113   65114
   65113   65115   65116   65117   65116   65118   65119   65120
   65119   65121   65122   65123   65122   65124   65125   65126
   65125   65127   65128   65129   65128   65130   65131   65132
   65131   65133   65134   65135   65134   65136   65137   65138
   65137   65139   65140   65141   65140   65142   65143   65144
   65143   65145   65146   65147   65146   65148   65149   65150
   65149   65151   65152   65153   65152   65154   65155   65156
   65155   65157   65158   65159   65158   65160   65161   65162
   65161   65163   65164   65165   65164   65166   65167   65168
   65167   65169   65170   65171   65170   65172   65173   65174
   65173   65175   65176   65177   65176   65178   65179   65180
   65179   65181   65182   65183   65182   65184   65185   65186
   65185   65187   65188   65189   65188   65190   65191   65192
   65191   65193   65194   65195   65194   65196   65197   65198
   65197   65199   65200   65201   65200   65202   65203   65204
   65203   65205   65206   65207   65206   65208   65209   65210
   65209   65211   65212   65213   65212   65214   65215   65216
   65215   65217   65218   65219   65218   65220   65221   65222
   65221   65223   65224   65225   65224   65226   65227   65228
   65227   65229   65230   65231   65230   65232   65233   65234
   65233   65235   65236   65237   65236   65238   65239   65240
   65239   65241   65242   65243   65242   65244   65245   65246
   65245   65247   65248   65249   65248   65250   65251   65252
   65251   65253   65254   65255   65254   65256   65257   65258
   65257   65259   65260   65261   65260   65262   65263   65264
   65263   65265   65266   65267   65266   65268   65269   65270
   65269   65271   65272   65273   65272   65274   65275   65276
   65275   65277   65278   65279   65278   65280   65281   65282
   65281   65283   65284   65285   65284   65286   65287   65288
   65287   65289   65290   65291   65290   65292   65293   65294
   65293   65295   65296   65297   65296   65298   65299   65300
   65299   65301   65302   65303   65302   65304   65305   65306
   65305   65307   65308   65309   65308   65310   65311   65312
   65311   65313   65314   65315   65314   65316   65317   65318
   65317   65319   65320   65321   65320   65322   65323   65324
   65323   65325   65326   65327   65326   65328   65329   65330
   65329   65331   65332   65333   65332   65334   65335   65336
   65335   65337   65338   65339   65338   65340   65341   65342
   65341   65343   65344   65345   65344   65346   65347   65348
   65347   65349   65350   65351   65350   65352   65353   65354
   65353   65355   65356   65357   65356   65358   65359   65360
   65359   65361   65362   65363   65362   65364   65365   65366
   65365   65367   65368   65369   65368   65370   65371   65372
   65371   65373   65374   65375   65374   65376   65377   65378
   65377   65379   65380   65381   65380   65382   65383   65384
   65383   65385   65386   65387   65386   65388   65389   65390
   65389   65391   65392   65393   65392   65394   65395   65396
   65395   65397   65398   65399   65398   65400   65401   65402
   65401   65403   65404   65405   65404   65406   65407   65408
   65407   65409   65410   65411   65410   65412   65413   65414
   65413   65415   65416   65417   65416   65418   65419   65420
   65419   65421   65422   65423   65422   65424   65425   65426
   65425   65427   65428   65429   65428   65430   65431   65432
   65431   65433   65434   65435   65434   65436   65437   65438
   65437   65439   65440   65441   65440   65442   65443   65444
   65443   65445   65446   65447   65446   65448   65449   65450
   65449   65451   65452   65453   65452   65454   65455   65456
   65455   65457   65458   65459   65458   65460   65461   65462
   65461   65463   65464   65465   65464   65466   65467   65468
   65467   65469   65470   65471   65470   65472   65473   65474
   65473   65475   65476   65477   65476   65478   65479   65480
   65479   65481   65482   65483   65482   65484   65485   65486
   65485   65487   65488   65489   65488   65490   65491   65492
   65491   65493   65494   65495   65494   65496   65497   65498
   65497   65499   65500   65501   65500   65502   65503   65504
   65503   65505   65506   65507   65506   65508   65509   65510
   65509   65511   65512   65513   65512   65514   65515   65516
   65515   65517   65518   65519   65518   65520   65521   65522
   65521   65523   65524   65525   65524   65526   65527   65528
   65527   65529   65530   65531   65530   65532   65533   65534
   65533   65535   65536   65537   65536   65538   65539   65540
   65539   65541   65542   65543   65542   65544   65545   65546
   65545   65547   65548   65549   65548   65550   65551   65552
   65551   65553   65554   65555   65554   65556   65557   65558
   65557   65559   65560   65561   65560   65562   65563   65564
   65563   65565   65566   65567   65566   65568   65569   65570
   65569   65571   65572   65573   65572   65574   65575   65576
   65575   65577   65578   65579   65578   65580   65581   65582
   65581   65583   65584   65585   65584   65586   65587   65588
   65587   65589   65590   65591   65590   65592   65593   65594
   65593   65595   65596   65597   65596   65598   65599   65600
   65599   65601   65602   65603   65602   65604   65605   65606
   65605   65607   65608   65609   65608   65610   65611   65612
   65611   65613   65614   65615   65614   65616   65617   65618
   65617   65619   65620   65621   65620   65622   65623   65624
   65623   65625   65626   65627   65626   65628   65629   65630
   65629   65631   65632   65633   65632   65634   65635   65636
   65635   65637   65638   65639   65638   65640   65641   65642
   65641   65643   65644   65645   65644   65646   65647   65648
   65647   65649   65650   65651   65650   65652   65653   65654
   65653   65655   65656   65657   65656   65658   65659   65660
   65659   65661   65662   65663   65662   65664   65665   65666
   65665   65667   65668   65669   65668   65670   65671   65672
   65671   65673   65674   65675   65674   65676   65677   65678
   65677   65679   65680   65681   65680   65682   65683   65684
   65683   65685   65686   65687   65686   65688   65689   65690
   65689   65691   65692   65693   65692   65694   65695   65696
   65695   65697   65698   65699   65698   65700   65701   65702
   65701   65703   65704   65705   65704   65706   65707   65708
   65707   65709   65710   65711   65710   65712   65713   65714
   65713   65715   65716   65717   65716   65718   65719   65720
   65719   65721   65722   65723   65722   65724   65725   65726
   65725   65727   65728   65729   65728   65730   65731   65732
   65731   65733   65734   65735   65734   65736   65737   65738
   65737   65739   65740   65741   65740   65742   65743   65744
   65743   65745   65746   65747   65746   65748   65749   65750
   65749   65751   65752   65753   65752   65754   65755   65756
   65755   65757   65758   65759   65758   65760   65761   65762
   65761   65763   65764   65765   65764   65766   65767   65768
   65767   65769   65770   65771   65770   65772   65773   65774
   65773   65775   65776   65777   65776   65778   65779   65780
   65779   65781   65782   65783   65782   65784   65785   65786
   65785   65787   65788   65789   65788   65790   65791   65792
   65791   65793   65794   65795   65794   65796   65797   65798
   65797   65799   65800   65801   65800   65802   65803   65804
   65803   65805   65806   65807   65806   65808   65809   65810
   65809   65811   65812   65813   65812   65814   65815   65816
   65815   65817   65818   65819   65818   65820   65821   65822
   65821   65823   65824   65825   65824   65826   65827   65828
   65827   65829   65830   65831   65830   65832   65833   65834
   65833   65835   65836   65837   65836   65838   65839   65840
   65839   65841   65842   65843   65842   65844   65845   65846
   65845   65847   65848   65849   65848   65850   65851   65852
   65851   65853   65854   65855   65854   65856   65857   65858
   65857   65859   65860   65861   65860   65862   65863   65864
   65863   65865   65866   65867   65866   65868   65869   65870
   65869   65871   65872   65873   65872   65874   65875   65876
   65875   65877   65878   65879   65878   65880   65881   65882
   65881   65883   65884   65885   65884   65886   65887   65888
   65887   65889   65890   65891   65890   65892   65893   65894
   65893   65895   65896   65897   65896   65898   65899   65900
   65899   65901   65902   65903   65902   65904   65905   65906
   65905   65907   65908   65909   65908   65910   65911   65912
   65911   65913   65914   65915   65914   65916   65917   65918
   65917   65919   65920   65921   65920   65922   65923   65924
   65923   65925   65926   65927   65926   65928   65929   65930
   65929   65931   65932   65933   65932   65934   65935   65936
   65935   65937   65938   65939   65938   65940   65941   65942
   65941   65943   65944   65945   65944   65946   65947   65948
   65947   65949   65950   65951   65950   65952   65953   65954
   65953   65955   65956   65957   65956   65958   65959   65960
   65959   65961   65962   65963   65962   65964   65965   65966
   65965   65967   65968   65969   65968   65970   65971   65972
   65971   65973   65974   65975   65974   65976   65977   65978
   65977   65979   65980   65981   65980   65982   65983   65984
   65983   65985   65986   65987   65986   65988   65989   65990
   65989   65991   65992   65993   65992   65994   65995   65996
   65995   65997   65998   65999   65998   66000   66001   66002
   66001   66003   66004   66005   66004   66006   66007   66008
   66007   66009   66010   66011   66010   66012   66013   66014
   66013   66015   66016   66017   66016   66018   66019   66020
   66019   66021   66022   66023   66022   66024   66025   66026
   66025   66027   66028   66029   66028   66030   66031   66032
   66031   66033   66034   66035   66034   66036   66037   66038
   66037   66039   66040   66041   66040   66042   66043   66044
   66043   66045   66046   66047   66046   66048   66049   66050
   66049   66051   66052   66053   66052   66054   66055   66056
   66055   66057   66058   66059   66058   66060   66061   66062
   66061   66063   66064   66065   66064   66066   66067   66068
   66067   66069   66070   66071   66070   66072   66073   66074
   66073   66075   66076   66077   66076   66078   66079   66080
   66079   66081   66082   66083   66082   66084   66085   66086
   66085   66087   66088   66089   66088   66090   66091   66092
   66091   66093   66094   66095   66094   66096   66097   66098
   66097   66099   66100   66101   66100   66102   66103   66104
   66103   66105   66106   66107   66106   66108   66109   66110
   66109   66111   66112   66113   66112   66114   66115   66116
   66115   66117   66118   66119   66118   66120   66121   66122
   66121   66123   66124   66125   66124   66126   66127   66128
   66127   66129   66130   66131   66130   66132   66133   66134
   66133   66135   66136   66137   66136   66138   66139   66140
   66139   66141   66142   66143   66142   66144   66145   66146
   66145   66147   66148   66149   66148   66150   66151   66152
   66151   66153   66154   66155   66154   66156   66157   66158
   66157   66159   66160   66161   66160   66162   66163   66164
   66163   66165   66166   66167   66166   66168   66169   66170
   66169   66171   66172   66173   66172   66174   66175   66176
   66175   66177   66178   66179   66178   66180   66181   66182
   66181   66183   66184   66185   66184   66186   66187   66188
   66187   66189   66190   66191   66190   66192   66193   66194
   66193   66195   66196   66197   66196   66198   66199   66200
   66199   66201   66202   66203   66202   66204   66205   66206
   66205   66207   66208   66209   66208   66210   66211   66212
   66211   66213   66214   66215   66214   66216   66217   66218
   66217   66219   66220   66221   66220   66222   66223   66224
   66223   66225   66226   66227   66226   66228   66229   66230
   66229   66231   66232   66233   66232   66234   66235   66236
   66235   66237   66238   66239   66238   66240   66241   66242
   66241   66243   66244   66245   66244   66246   66247   66248
   66247   66249   66250   66251   66250   66252   66253   66254
   66253   66255   66256   66257   66256   66258   66259   66260
   66259   66261   66262   66263   66262   66264   66265   66266
   66265   66267   66268   66269   66268   66270   66271   66272
   66271   66273   66274   66275   66274   66276   66277   66278
   66277   66279   66280   66281   66280   66282   66283   66284
   66283   66285   66286   66287   66286   66288   66289   66290
   66289   66291   66292   66293   66292   66294   66295   66296
   66295   66297   66298   66299   66298   66300   66301   66302
   66301   66303   66304   66305   66304   66306   66307   66308
   66307   66309   66310   66311   66310   66312   66313   66314
   66313   66315   66316   66317   66316   66318   66319   66320
   66319   66321   66322   66323   66322   66324   66325   66326
   66325   66327   66328   66329   66328   66330   66331   66332
   66331   66333   66334   66335   66334   66336   66337   66338
   66337   66339   66340   66341   66340   66342   66343   66344
   66343   66345   66346   66347   66346   66348   66349   66350
   66349   66351   66352   66353   66352   66354   66355   66356
   66355   66357   66358   66359   66358   66360   66361   66362
   66361   66363   66364   66365   66364   66366   66367   66368
   66367   66369   66370   66371   66370   66372   66373   66374
   66373   66375   66376   66377   66376   66378   66379   66380
   66379   66381   66382   66383   66382   66384   66385   66386
   66385   66387   66388   66389   66388   66390   66391   66392
   66391   66393   66394   66395   66394   66396   66397   66398
   66397   66399   66400   66401   66400   66402   66403   66404
   66403   66405   66406   66407   66406   66408   66409   66410
   66409   66411   66412   66413   66412   66414   66415   66416
   66415   66417   66418   66419   66418   66420   66421   66422
   66421   66423   66424   66425   66424   66426   66427   66428
   66427   66429   66430   66431   66430   66432   66433   66434
   66433   66435   66436   66437   66436   66438   66439   66440
   66439   66441   66442   66443   66442   66444   66445   66446
   66445   66447   66448   66449   66448   66450   66451   66452
   66451   66453   66454   66455   66454   66456   66457   66458
   66457   66459   66460   66461   66460   66462   66463   66464
   66463   66465   66466   66467   66466   66468   66469   66470
   66469   66471   66472   66473   66472   66474   66475   66476
   66475   66477   66478   66479   66478   66480   66481   66482
   66481   66483   66484   66485   66484   66486   66487   66488
   66487   66489   66490   66491   66490   66492   66493   66494
   66493   66495   66496   66497   66496   66498   66499   66500
   66499   66501   66502   66503   66502   66504   66505   66506
   66505   66507   66508   66509   66508   66510   66511   66512
   66511   66513   66514   66515   66514   66516   66517   66518
   66517   66519   66520   66521   66520   66522   66523   66524
   66523   66525   66526   66527   66526   66528   66529   66530
   66529   66531   66532   66533   66532   66534   66535   66536
   66535   66537   66538   66539   66538   66540   66541   66542
   66541   66543   66544   66545   66544   66546   66547   66548
   66547   66549   66550   66551   66550   66552   66553   66554
   66553   66555   66556   66557   66556   66558   66559   66560
   66559   66561   66562   66563   66562   66564   66565   66566
   66565   66567   66568   66569   66568   66570   66571   66572
   66571   66573   66574   66575   66574   66576   66577   66578
   66577   66579   66580   66581   66580   66582   66583   66584
   66583   66585   66586   66587   66586   66588   66589   66590
   66589   66591   66592   66593   66592   66594   66595   66596
   66595   66597   66598   66599   66598   66600   66601   66602
   66601   66603   66604   66605   66604   66606   66607   66608
   66607   66609   66610   66611   66610   66612   66613   66614
   66613   66615   66616   66617   66616   66618   66619   66620
   66619   66621   66622   66623   66622   66624   66625   66626
   66625   66627   66628   66629   66628   66630   66631   66632
   66631   66633   66634   66635   66634   66636   66637   66638
   66637   66639   66640   66641   66640   66642   66643   66644
   66643   66645   66646   66647   66646   66648   66649   66650
   66649   66651   66652   66653   66652   66654   66655   66656
   66655   66657   66658   66659   66658   66660   66661   66662
   66661   66663   66664   66665   66664   66666   66667   66668
   66667   66669   66670   66671   66670   66672   66673   66674
   66673   66675   66676   66677   66676   66678   66679   66680
   66679   66681   66682   66683   66682   66684   66685   66686
   66685   66687   66688   66689   66688   66690   66691   66692
   66691   66693   66694   66695   66694   66696   66697   66698
   66697   66699   66700   66701   66700   66702   66703   66704
   66703   66705   66706   66707   66706   66708   66709   66710
   66709   66711   66712   66713   66712   66714   66715   66716
   66715   66717   66718   66719   66718   66720   66721   66722
   66721   66723   66724   66725   66724   66726   66727   66728
   66727   66729   66730   66731   66730   66732   66733   66734
   66733   66735   66736   66737   66736   66738   66739   66740
   66739   66741   66742   66743   66742   66744   66745   66746
   66745   66747   66748   66749   66748   66750   66751   66752
   66751   66753   66754   66755   66754   66756   66757   66758
   66757   66759   66760   66761   66760   66762   66763   66764
   66763   66765   66766   66767   66766   66768   66769   66770
   66769   66771   66772   66773   66772   66774   66775   66776
   66775   66777   66778   66779   66778   66780   66781   66782
   66781   66783   66784   66785   66784   66786   66787   66788
   66787   66789   66790   66791   66790   66792   66793   66794
   66793   66795   66796   66797   66796   66798   66799   66800
   66799   66801   66802   66803   66802   66804   66805   66806
   66805   66807   66808   66809   66808   66810   66811   66812
   66811   66813   66814   66815   66814   66816   66817   66818
   66817   66819   66820   66821   66820   66822   66823   66824
   66823   66825   66826   66827   66826   66828   66829   66830
   66829   66831   66832   66833   66832   66834   66835   66836
   66835   66837   66838   66839   66838   66840   66841   66842
   66841   66843   66844   66845   66844   66846   66847   66848
   66847   66849   66850   66851   66850   66852   66853   66854
   66853   66855   66856   66857   66856   66858   66859   66860
   66859   66861   66862   66863   66862   66864   66865   66866
   66865   66867   66868   66869   66868   66870   66871   66872
   66871   66873   66874   66875   66874   66876   66877   66878
   66877   66879   66880   66881   66880   66882   66883   66884
   66883   66885   66886   66887   66886   66888   66889   66890
   66889   66891   66892   66893   66892   66894   66895   66896
   66895   66897   66898   66899   66898   66900   66901   66902
   66901   66903   66904   66905   66904   66906   66907   66908
   66907   66909   66910   66911   66910   66912   66913   66914
   66913   66915   66916   66917   66916   66918   66919   66920
   66919   66921   66922   66923   66922   66924   66925   66926
   66925   66927   66928   66929   66928   66930   66931   66932
   66931   66933   66934   66935   66934   66936   66937   66938
   66937   66939   66940   66941   66940   66942   66943   66944
   66943   66945   66946   66947   66946   66948   66949   66950
   66949   66951   66952   66953   66952   66954   66955   66956
   66955   66957   66958   66959   66958   66960   66961   66962
   66961   66963   66964   66965   66964   66966   66967   66968
   66967   66969   66970   66971   66970   66972   66973   66974
   66973   66975   66976   66977   66976   66978   66979   66980
   66979   66981   66982   66983   66982   66984   66985   66986
   66985   66987   66988   66989   66988   66990   66991   66992
   66991   66993   66994   66995   66994   66996   66997   66998
   66997   66999   67000   67001   67000   67002   67003   67004
   67003   67005   67006   67007   67006   67008   67009   67010
   67009   67011   67012   67013   67012   67014   67015   67016
   67015   67017   67018   67019   67018   67020   67021   67022
   67021   67023   67024   67025   67024   67026   67027   67028
   67027   67029   67030   67031   67030   67032   67033   67034
   67033   67035   67036   67037   67036   67038   67039   67040
   67039   67041   67042   67043   67042   67044   67045   67046
   67045   67047   67048   67049   67048   67050   67051   67052
   67051   67053   67054   67055   67054   67056   67057   67058
   67057   67059   67060   67061   67060   67062   67063   67064
   67063   67065   67066   67067   67066   67068   67069   67070
   67069   67071   67072   67073   67072   67074   67075   67076
   67075   67077   67078   67079   67078   67080   67081   67082
   67081   67083   67084   67085   67084   67086   67087   67088
   67087   67089   67090   67091   67090   67092   67093   67094
   67093   67095   67096   67097   67096   67098   67099   67100
   67099   67101   67102   67103   67102   67104   67105   67106
   67105   67107   67108   67109   67108   67110   67111   67112
   67111   67113   67114   67115   67114   67116   67117   67118
   67117   67119   67120   67121   67120   67122   67123   67124
   67123   67125   67126   67127   67126   67128   67129   67130
   67129   67131   67132   67133   67132   67134   67135   67136
   67135   67137   67138   67139   67138   67140   67141   67142
   67141   67143   67144   67145   67144   67146   67147   67148
   67147   67149   67150   67151   67150   67152   67153   67154
   67153   67155   67156   67157   67156   67158   67159   67160
   67159   67161   67162   67163   67162   67164   67165   67166
   67165   67167   67168   67169   67168   67170   67171   67172
   67171   67173   67174   67175   67174   67176   67177   67178
   67177   67179   67180   67181   67180   67182   67183   67184
   67183   67185   67186   67187   67186   67188   67189   67190
   67189   67191   67192   67193   67192   67194   67195   67196
   67195   67197   67198   67199   67198   67200   67201   67202
   67201   67203   67204   67205   67204   67206   67207   67208
   67207   67209   67210   67211   67210   67212   67213   67214
   67213   67215   67216   67217   67216   67218   67219   67220
   67219   67221   67222   67223   67222   67224   67225   67226
   67225   67227   67228   67229   67228   67230   67231   67232
   67231   67233   67234   67235   67234   67236   67237   67238
   67237   67239   67240   67241   67240   67242   67243   67244
   67243   67245   67246   67247   67246   67248   67249   67250
   67249   67251   67252   67253   67252   67254   67255   67256
   67255   67257   67258   67259   67258   67260   67261   67262
   67261   67263   67264   67265   67264   67266   67267   67268
   67267   67269   67270   67271   67270   67272   67273   67274
   67273   67275   67276   67277   67276   67278   67279   67280
   67279   67281   67282   67283   67282   67284   67285   67286
   67285   67287   67288   67289   67288   67290   67291   67292
   67291   67293   67294   67295   67294   67296   67297   67298
   67297   67299   67300   67301   67300   67302   67303   67304
   67303   67305   67306   67307   67306   67308   67309   67310
   67309   67311   67312   67313   67312   67314   67315   67316
   67315   67317   67318   67319   67318   67320   67321   67322
   67321   67323   67324   67325   67324   67326   67327   67328
   67327   67329   67330   67331   67330   67332   67333   67334
   67333   67335   67336   67337   67336   67338   67339   67340
   67339   67341   67342   67343   67342   67344   67345   67346
   67345   67347   67348   67349   67348   67350   67351   67352
   67351   67353   67354   67355   67354   67356   67357   67358
   67357   67359   67360   67361   67360   67362   67363   67364
   67363   67365   67366   67367   67366   67368   67369   67370
   67369   67371   67372   67373   67372   67374   67375   67376
   67375   67377   67378   67379   67378   67380   67381   67382
   67381   67383   67384   67385   67384   67386   67387   67388
   67387   67389   67390   67391   67390   67392   67393   67394
   67393   67395   67396   67397   67396   67398   67399   67400
   67399   67401   67402   67403   67402   67404   67405   67406
   67405   67407   67408   67409   67408   67410   67411   67412
   67411   67413   67414   67415   67414   67416   67417   67418
   67417   67419   67420   67421   67420   67422   67423   67424
   67423   67425   67426   67427   67426   67428   67429   67430
   67429   67431   67432   67433   67432   67434   67435   67436
   67435   67437   67438   67439   67438   67440   67441   67442
   67441   67443   67444   67445   67444   67446   67447   67448
   67447   67449   67450   67451   67450   67452   67453   67454
   67453   67455   67456   67457   67456   67458   67459   67460
   67459   67461   67462   67463   67462   67464   67465   67466
   67465   67467   67468   67469   67468   67470   67471   67472
   67471   67473   67474   67475   67474   67476   67477   67478
   67477   67479   67480   67481   67480   67482   67483   67484
   67483   67485   67486   67487   67486   67488   67489   67490
   67489   67491   67492   67493   67492   67494   67495   67496
   67495   67497   67498   67499   67498   67500   67501   67502
   67501   67503   67504   67505   67504   67506   67507   67508
   67507   67509   67510   67511   67510   67512   67513   67514
   67513   67515   67516   67517   67516   67518   67519   67520
   67519   67521   67522   67523   67522   67524   67525   67526
   67525   67527   67528   67529   67528   67530   67531   67532
   67531   67533   67534   67535   67534   67536   67537   67538
   67537   67539   67540   67541   67540   67542   67543   67544
   67543   67545   67546   67547   67546   67548   67549   67550
   67549   67551   67552   67553   67552   67554   67555   67556
   67555   67557   67558   67559   67558   67560   67561   67562
   67561   67563   67564   67565   67564   67566   67567   67568
   67567   67569   67570   67571   67570   67572   67573   67574
   67573   67575   67576   67577   67576   67578   67579   67580
   67579   67581   67582   67583   67582   67584   67585   67586
   67585   67587   67588   67589   67588   67590   67591   67592
   67591   67593   67594   67595   67594   67596   67597   67598
   67597   67599   67600   67601   67600   67602   67603   67604
   67603   67605   67606   67607   67606   67608   67609   67610
   67609   67611   67612   67613   67612   67614   67615   67616
   67615   67617   67618   67619   67618   67620   67621   67622
   67621   67623   67624   67625   67624   67626   67627   67628
   67627   67629   67630   67631   67630   67632   67633   67634
   67633   67635   67636   67637   67636   67638   67639   67640
   67639   67641   67642   67643   67642   67644   67645   67646
   67645   67647   67648   67649   67648   67650   67651   67652
   67651   67653   67654   67655   67654   67656   67657   67658
   67657   67659   67660   67661   67660   67662   67663   67664
   67663   67665   67666   67667   67666   67668   67669   67670
   67669   67671   67672   67673   67672   67674   67675   67676
   67675   67677   67678   67679   67678   67680   67681   67682
   67681   67683   67684   67685   67684   67686   67687   67688
   67687   67689   67690   67691   67690   67692   67693   67694
   67693   67695   67696   67697   67696   67698   67699   67700
   67699   67701   67702   67703   67702   67704   67705   67706
   67705   67707   67708   67709   67708   67710   67711   67712
   67711   67713   67714   67715   67714   67716   67717   67718
   67717   67719   67720   67721   67720   67722   67723   67724
   67723   67725   67726   67727   67726   67728   67729   67730
   67729   67731   67732   67733   67732   67734   67735   67736
   67735   67737   67738   67739   67738   67740   67741   67742
   67741   67743   67744   67745   67744   67746   67747   67748
   67747   67749   67750   67751   67750   67752   67753   67754
   67753   67755   67756   67757   67756   67758   67759   67760
   67759   67761   67762   67763   67762   67764   67765   67766
   67765   67767   67768   67769   67768   67770   67771   67772
   67771   67773   67774   67775   67774   67776   67777   67778
   67777   67779   67780   67781   67780   67782   67783   67784
   67783   67785   67786   67787   67786   67788   67789   67790
   67789   67791   67792   67793   67792   67794   67795   67796
   67795   67797   67798   67799   67798   67800   67801   67802
   67801   67803   67804   67805   67804   67806   67807   67808
   67807   67809   67810   67811   67810   67812   67813   67814
   67813   67815   67816   67817   67816   67818   67819   67820
   67819   67821   67822   67823   67822   67824   67825   67826
   67825   67827   67828   67829   67828   67830   67831   67832
   67831   67833   67834   67835   67834   67836   67837   67838
   67837   67839   67840   67841   67840   67842   67843   67844
   67843   67845   67846   67847   67846   67848   67849   67850
   67849   67851   67852   67853   67852   67854   67855   67856
   67855   67857   67858   67859   67858   67860   67861   67862
   67861   67863   67864   67865   67864   67866   67867   67868
   67867   67869   67870   67871   67870   67872   67873   67874
   67873   67875   67876   67877   67876   67878   67879   67880
   67879   67881   67882   67883   67882   67884   67885   67886
   67885   67887   67888   67889   67888   67890   67891   67892
   67891   67893   67894   67895   67894   67896   67897   67898
   67897   67899   67900   67901   67900   67902   67903   67904
   67903   67905   67906   67907   67906   67908   67909   67910
   67909   67911   67912   67913   67912   67914   67915   67916
   67915   67917   67918   67919   67918   67920   67921   67922
   67921   67923   67924   67925   67924   67926   67927   67928
   67927   67929   67930   67931   67930   67932   67933   67934
   67933   67935   67936   67937   67936   67938   67939   67940
   67939   67941   67942   67943   67942   67944   67945   67946
   67945   67947   67948   67949   67948   67950   67951   67952
   67951   67953   67954   67955   67954   67956   67957   67958
   67957   67959   67960   67961   67960   67962   67963   67964
   67963   67965   67966   67967   67966   67968   67969   67970
   67969   67971   67972   67973   67972   67974   67975   67976
   67975   67977   67978   67979   67978   67980   67981   67982
   67981   67983   67984   67985   67984   67986   67987   67988
   67987   67989   67990   67991   67990   67992   67993   67994
   67993   67995   67996   67997   67996   67998   67999   68000
   67999   68001   68002   68003   68002   68004   68005   68006
   68005   68007   68008   68009   68008   68010   68011   68012
   68011   68013   68014   68015   68014   68016   68017   68018
   68017   68019   68020   68021   68020   68022   68023   68024
   68023   68025   68026   68027   68026   68028   68029   68030
   68029   68031   68032   68033   68032   68034   68035   68036
   68035   68037   68038   68039   68038   68040   68041   68042
   68041   68043   68044   68045   68044   68046   68047   68048
   68047   68049   68050   68051   68050   68052   68053   68054
   68053   68055   68056   68057   68056   68058   68059   68060
   68059   68061   68062   68063   68062   68064   68065   68066
   68065   68067   68068   68069   68068   68070   68071   68072
   68071   68073   68074   68075   68074   68076   68077   68078
   68077   68079   68080   68081   68080   68082   68083   68084
   68083   68085   68086   68087   68086   68088   68089   68090
   68089   68091   68092   68093   68092   68094   68095   68096
   68095   68097   68098   68099   68098   68100   68101   68102
   68101   68103   68104   68105   68104   68106   68107   68108
   68107   68109   68110   68111   68110   68112   68113   68114
   68113   68115   68116   68117   68116   68118   68119   68120
   68119   68121   68122   68123   68122   68124   68125   68126
   68125   68127   68128   68129   68128   68130   68131   68132
   68131   68133   68134   68135   68134   68136   68137   68138
   68137   68139   68140   68141   68140   68142   68143   68144
   68143   68145   68146   68147   68146   68148   68149   68150
   68149   68151   68152   68153   68152   68154   68155   68156
   68155   68157   68158   68159   68158   68160   68161   68162
   68161   68163   68164   68165   68164   68166   68167   68168
   68167   68169   68170   68171   68170   68172   68173   68174
   68173   68175   68176   68177   68176   68178   68179   68180
   68179   68181   68182   68183   68182   68184   68185   68186
   68185   68187   68188   68189   68188   68190   68191   68192
   68191   68193   68194   68195   68194   68196   68197   68198
   68197   68199   68200   68201   68200   68202   68203   68204
   68203   68205   68206   68207   68206   68208   68209   68210
   68209   68211   68212   68213   68212   68214   68215   68216
   68215   68217   68218   68219   68218   68220   68221   68222
   68221   68223   68224   68225   68224   68226   68227   68228
   68227   68229   68230   68231   68230   68232   68233   68234
   68233   68235   68236   68237   68236   68238   68239   68240
   68239   68241   68242   68243   68242   68244   68245   68246
   68245   68247   68248   68249   68248   68250   68251   68252
   68251   68253   68254   68255   68254   68256   68257   68258
   68257   68259   68260   68261   68260   68262   68263   68264
   68263   68265   68266   68267   68266   68268   68269   68270
   68269   68271   68272   68273   68272   68274   68275   68276
   68275   68277   68278   68279   68278   68280   68281   68282
   68281   68283   68284   68285   68284   68286   68287   68288
   68287   68289   68290   68291   68290   68292   68293   68294
   68293   68295   68296   68297   68296   68298   68299   68300
   68299   68301   68302   68303   68302   68304   68305   68306
   68305   68307   68308   68309   68308   68310   68311   68312
   68311   68313   68314   68315   68314   68316   68317   68318
   68317   68319   68320   68321   68320   68322   68323   68324
   68323   68325   68326   68327   68326   68328   68329   68330
   68329   68331   68332   68333   68332   68334   68335   68336
   68335   68337   68338   68339   68338   68340   68341   68342
   68341   68343   68344   68345   68344   68346   68347   68348
   68347   68349   68350   68351   68350   68352   68353   68354
   68353   68355   68356   68357   68356   68358   68359   68360
   68359   68361   68362   68363   68362   68364   68365   68366
   68365   68367   68368   68369   68368   68370   68371   68372
   68371   68373   68374   68375   68374   68376   68377   68378
   68377   68379   68380   68381   68380   68382   68383   68384
   68383   68385   68386   68387   68386   68388   68389   68390
   68389   68391   68392   68393   68392   68394   68395   68396
   68395   68397   68398   68399   68398   68400   68401   68402
   68401   68403   68404   68405   68404   68406   68407   68408
   68407   68409   68410   68411   68410   68412   68413   68414
   68413   68415   68416   68417   68416   68418   68419   68420
   68419   68421   68422   68423   68422   68424   68425   68426
   68425   68427   68428   68429   68428   68430   68431   68432
   68431   68433   68434   68435   68434   68436   68437   68438
   68437   68439   68440   68441   68440   68442   68443   68444
   68443   68445   68446   68447   68446   68448   68449   68450
   68449   68451   68452   68453   68452   68454   68455   68456
   68455   68457   68458   68459   68458   68460   68461   68462
   68461   68463   68464   68465   68464   68466   68467   68468
   68467   68469   68470   68471   68470   68472   68473   68474
   68473   68475   68476   68477   68476   68478   68479   68480
   68479   68481   68482   68483   68482   68484   68485   68486
   68485   68487   68488   68489   68488   68490   68491   68492
   68491   68493   68494   68495   68494   68496   68497   68498
   68497   68499   68500   68501   68500   68502   68503   68504
   68503   68505   68506   68507   68506   68508   68509   68510
   68509   68511   68512   68513   68512   68514   68515   68516
   68515   68517   68518   68519   68518   68520   68521   68522
   68521   68523   68524   68525   68524   68526   68527   68528
   68527   68529   68530   68531   68530   68532   68533   68534
   68533   68535   68536   68537   68536   68538   68539   68540
   68539   68541   68542   68543   68542   68544   68545   68546
   68545   68547   68548   68549   68548   68550   68551   68552
   68551   68553   68554   68555   68554   68556   68557   68558
   68557   68559   68560   68561   68560   68562   68563   68564
   68563   68565   68566   68567   68566   68568   68569   68570
   68569   68571   68572   68573   68572   68574   68575   68576
   68575   68577   68578   68579   68578   68580   68581   68582
   68581   68583   68584   68585   68584   68586   68587   68588
   68587   68589   68590   68591   68590   68592   68593   68594
   68593   68595   68596   68597   68596   68598   68599   68600
   68599   68601   68602   68603   68602   68604   68605   68606
   68605   68607   68608   68609   68608   68610   68611   68612
   68611   68613   68614   68615   68614   68616   68617   68618
   68617   68619   68620   68621   68620   68622   68623   68624
   68623   68625   68626   68627   68626   68628   68629   68630
   68629   68631   68632   68633   68632   68634   68635   68636
   68635   68637   68638   68639   68638   68640   68641   68642
   68641   68643   68644   68645   68644   68646   68647   68648
   68647   68649   68650   68651   68650   68652   68653   68654
   68653   68655   68656   68657   68656   68658   68659   68660
   68659   68661   68662   68663   68662   68664   68665   68666
   68665   68667   68668   68669   68668   68670   68671   68672
   68671   68673   68674   68675   68674   68676   68677   68678
   68677   68679   68680   68681   68680   68682   68683   68684
   68683   68685   68686   68687   68686   68688   68689   68690
   68689   68691   68692   68693   68692   68694   68695   68696
   68695   68697   68698   68699   68698   68700   68701   68702
   68701   68703   68704   68705   68704   68706   68707   68708
   68707   68709   68710   68711   68710   68712   68713   68714
   68713   68715   68716   68717   68716   68718   68719   68720
   68719   68721   68722   68723   68722   68724   68725   68726
   68725   68727   68728   68729   68728   68730   68731   68732
   68731   68733   68734   68735   68734   68736   68737   68738
   68737   68739   68740   68741   68740   68742   68743   68744
   68743   68745   68746   68747   68746   68748   68749   68750
   68749   68751   68752   68753   68752   68754   68755   68756
   68755   68757   68758   68759   68758   68760   68761   68762
   68761   68763   68764   68765   68764   68766   68767   68768
   68767   68769   68770   68771   68770   68772   68773   68774
   68773   68775   68776   68777   68776   68778   68779   68780
   68779   68781   68782   68783   68782   68784   68785   68786
   68785   68787   68788   68789   68788   68790   68791   68792
   68791   68793   68794   68795   68794   68796   68797   68798
   68797   68799   68800   68801   68800   68802   68803   68804
   68803   68805   68806   68807   68806   68808   68809   68810
   68809   68811   68812   68813   68812   68814   68815   68816
   68815   68817   68818   68819   68818   68820   68821   68822
   68821   68823   68824   68825   68824   68826   68827   68828
   68827   68829   68830   68831   68830   68832   68833   68834
   68833   68835   68836   68837   68836   68838   68839   68840
   68839   68841   68842   68843   68842   68844   68845   68846
   68845   68847   68848   68849   68848   68850   68851   68852
   68851   68853   68854   68855   68854   68856   68857   68858
   68857   68859   68860   68861   68860   68862   68863   68864
   68863   68865   68866   68867   68866   68868   68869   68870
   68869   68871   68872   68873   68872   68874   68875   68876
   68875   68877   68878   68879   68878   68880   68881   68882
   68881   68883   68884   68885   68884   68886   68887   68888
   68887   68889   68890   68891   68890   68892   68893   68894
   68893   68895   68896   68897   68896   68898   68899   68900
   68899   68901   68902   68903   68902   68904   68905   68906
   68905   68907   68908   68909   68908   68910   68911   68912
   68911   68913   68914   68915   68914   68916   68917   68918
   68917   68919   68920   68921   68920   68922   68923   68924
   68923   68925   68926   68927   68926   68928   68929   68930
   68929   68931   68932   68933   68932   68934   68935   68936
   68935   68937   68938   68939   68938   68940   68941   68942
   68941   68943   68944   68945   68944   68946   68947   68948
   68947   68949   68950   68951   68950   68952   68953   68954
   68953   68955   68956   68957   68956   68958   68959   68960
   68959   68961   68962   68963   68962   68964   68965   68966
   68965   68967   68968   68969   68968   68970   68971   68972
   68971   68973   68974   68975   68974   68976   68977   68978
   68977   68979   68980   68981   68980   68982   68983   68984
   68983   68985   68986   68987   68986   68988   68989   68990
   68989   68991   68992   68993   68992   68994   68995   68996
   68995   68997   68998   68999   68998   69000   69001   69002
   69001   69003   69004   69005   69004   69006   69007   69008
   69007   69009   69010   69011   69010   69012   69013   69014
   69013   69015   69016   69017   69016   69018   69019   69020
   69019   69021   69022   69023   69022   69024   69025   69026
   69025   69027   69028   69029   69028   69030   69031   69032
   69031   69033   69034   69035   69034   69036   69037   69038
   69037   69039   69040   69041   69040   69042   69043   69044
   69043   69045   69046   69047   69046   69048   69049   69050
   69049   69051   69052   69053   69052   69054   69055   69056
   69055   69057   69058   69059   69058   69060   69061   69062
   69061   69063   69064   69065   69064   69066   69067   69068
   69067   69069   69070   69071   69070   69072   69073   69074
   69073   69075   69076   69077   69076   69078   69079   69080
   69079   69081   69082   69083   69082   69084   69085   69086
   69085   69087   69088   69089   69088   69090   69091   69092
   69091   69093   69094   69095   69094   69096   69097   69098
   69097   69099   69100   69101   69100   69102   69103   69104
   69103   69105   69106   69107   69106   69108   69109   69110
   69109   69111   69112   69113   69112   69114   69115   69116
   69115   69117   69118   69119   69118   69120   69121   69122
   69121   69123   69124   69125   69124   69126   69127   69128
   69127   69129   69130   69131   69130   69132   69133   69134
   69133   69135   69136   69137   69136   69138   69139   69140
   69139   69141   69142   69143   69142   69144   69145   69146
   69145   69147   69148   69149   69148   69150   69151   69152
   69151   69153   69154   69155   69154   69156   69157   69158
   69157   69159   69160   69161   69160   69162   69163   69164
   69163   69165   69166   69167   69166   69168   69169   69170
   69169   69171   69172   69173   69172   69174   69175   69176
   69175   69177   69178   69179   69178   69180   69181   69182
   69181   69183   69184   69185   69184   69186   69187   69188
   69187   69189   69190   69191   69190   69192   69193   69194
   69193   69195   69196   69197   69196   69198   69199   69200
   69199   69201   69202   69203   69202   69204   69205   69206
   69205   69207   69208   69209   69208   69210   69211   69212
   69211   69213   69214   69215   69214   69216   69217   69218
   69217   69219   69220   69221   69220   69222   69223   69224
   69223   69225   69226   69227   69226   69228   69229   69230
   69229   69231   69232   69233   69232   69234   69235   69236
   69235   69237   69238   69239   69238   69240   69241   69242
   69241   69243   69244   69245   69244   69246   69247   69248
   69247   69249   69250   69251   69250   69252   69253   69254
   69253   69255   69256   69257   69256   69258   69259   69260
   69259   69261   69262   69263   69262   69264   69265   69266
   69265   69267   69268   69269   69268   69270   69271   69272
   69271   69273   69274   69275   69274   69276   69277   69278
   69277   69279   69280   69281   69280   69282   69283   69284
   69283   69285   69286   69287   69286   69288   69289   69290
   69289   69291   69292   69293   69292   69294   69295   69296
   69295   69297   69298   69299   69298   69300   69301   69302
   69301   69303   69304   69305   69304   69306   69307   69308
   69307   69309   69310   69311   69310   69312   69313   69314
   69313   69315   69316   69317   69316   69318   69319   69320
   69319   69321   69322   69323   69322   69324   69325   69326
   69325   69327   69328   69329   69328   69330   69331   69332
   69331   69333   69334   69335   69334   69336   69337   69338
   69337   69339   69340   69341   69340   69342   69343   69344
   69343   69345   69346   69347   69346   69348   69349   69350
   69349   69351   69352   69353   69352   69354   69355   69356
   69355   69357   69358   69359   69358   69360   69361   69362
   69361   69363   69364   69365   69364   69366   69367   69368
   69367   69369   69370   69371   69370   69372   69373   69374
   69373   69375   69376   69377   69376   69378   69379   69380
   69379   69381   69382   69383   69382   69384   69385   69386
   69385   69387   69388   69389   69388   69390   69391   69392
   69391   69393   69394   69395   69394   69396   69397   69398
   69397   69399   69400   69401   69400   69402   69403   69404
   69403   69405   69406   69407   69406   69408   69409   69410
   69409   69411   69412   69413   69412   69414   69415   69416
   69415   69417   69418   69419   69418   69420   69421   69422
   69421   69423   69424   69425   69424   69426   69427   69428
   69427   69429   69430   69431   69430   69432   69433   69434
   69433   69435   69436   69437   69436   69438   69439   69440
   69439   69441   69442   69443   69442   69444   69445   69446
   69445   69447   69448   69449   69448   69450   69451   69452
   69451   69453   69454   69455   69454   69456   69457   69458
   69457   69459   69460   69461   69460   69462   69463   69464
   69463   69465   69466   69467   69466   69468   69469   69470
   69469   69471   69472   69473   69472   69474   69475   69476
   69475   69477   69478   69479   69478   69480   69481   69482
   69481   69483   69484   69485   69484   69486   69487   69488
   69487   69489   69490   69491   69490   69492   69493   69494
   69493   69495   69496   69497   69496   69498   69499   69500
   69499   69501   69502   69503   69502   69504   69505   69506
   69505   69507   69508   69509   69508   69510   69511   69512
   69511   69513   69514   69515   69514   69516   69517   69518
   69517   69519   69520   69521   69520   69522   69523   69524
   69523   69525   69526   69527   69526   69528   69529   69530
   69529   69531   69532   69533   69532   69534   69535   69536
   69535   69537   69538   69539   69538   69540   69541   69542
   69541   69543   69544   69545   69544   69546   69547   69548
   69547   69549   69550   69551   69550   69552   69553   69554
   69553   69555   69556   69557   69556   69558   69559   69560
   69559   69561   69562   69563   69562   69564   69565   69566
   69565   69567   69568   69569   69568   69570   69571   69572
   69571   69573   69574   69575   69574   69576   69577   69578
   69577   69579   69580   69581   69580   69582   69583   69584
   69583   69585   69586   69587   69586   69588   69589   69590
   69589   69591   69592   69593   69592   69594   69595   69596
   69595   69597   69598   69599   69598   69600   69601   69602
   69601   69603   69604   69605   69604   69606   69607   69608
   69607   69609   69610   69611   69610   69612   69613   69614
   69613   69615   69616   69617   69616   69618   69619   69620
   69619   69621   69622   69623   69622   69624   69625   69626
   69625   69627   69628   69629   69628   69630   69631   69632
   69631   69633   69634   69635   69634   69636   69637   69638
   69637   69639   69640   69641   69640   69642   69643   69644
   69643   69645   69646   69647   69646   69648   69649   69650
   69649   69651   69652   69653   69652   69654   69655   69656
   69655   69657   69658   69659   69658   69660   69661   69662
   69661   69663   69664   69665   69664   69666   69667   69668
   69667   69669   69670   69671   69670   69672   69673   69674
   69673   69675   69676   69677   69676   69678   69679   69680
   69679   69681   69682   69683   69682   69684   69685   69686
   69685   69687   69688   69689   69688   69690   69691   69692
   69691   69693   69694   69695   69694   69696   69697   69698
   69697   69699   69700   69701   69700   69702   69703   69704
   69703   69705   69706   69707   69706   69708   69709   69710
   69709   69711   69712   69713   69712   69714   69715   69716
   69715   69717   69718   69719   69718   69720   69721   69722
   69721   69723   69724   69725   69724   69726   69727   69728
   69727   69729   69730   69731   69730   69732   69733   69734
   69733   69735   69736   69737   69736   69738   69739   69740
   69739   69741   69742   69743   69742   69744   69745   69746
   69745   69747   69748   69749   69748   69750   69751   69752
   69751   69753   69754   69755   69754   69756   69757   69758
   69757   69759   69760   69761   69760   69762   69763   69764
   69763   69765   69766   69767   69766   69768   69769   69770
   69769   69771   69772   69773   69772   69774   69775   69776
   69775   69777   69778   69779   69778   69780   69781   69782
   69781   69783   69784   69785   69784   69786   69787   69788
   69787   69789   69790   69791   69790   69792   69793   69794
   69793   69795   69796   69797   69796   69798   69799   69800
   69799   69801   69802   69803   69802   69804   69805   69806
   69805   69807   69808   69809   69808   69810   69811   69812
   69811   69813   69814   69815   69814   69816   69817   69818
   69817   69819   69820   69821   69820   69822   69823   69824
   69823   69825   69826   69827   69826   69828   69829   69830
   69829   69831   69832   69833   69832   69834   69835   69836
   69835   69837   69838   69839   69838   69840   69841   69842
   69841   69843   69844   69845   69844   69846   69847   69848
   69847   69849   69850   69851   69850   69852   69853   69854
   69853   69855   69856   69857   69856   69858   69859   69860
   69859   69861   69862   69863   69862   69864   69865   69866
   69865   69867   69868   69869   69868   69870   69871   69872
   69871   69873   69874   69875   69874   69876   69877   69878
   69877   69879   69880   69881   69880   69882   69883   69884
   69883   69885   69886   69887   69886   69888   69889   69890
   69889   69891   69892   69893   69892   69894   69895   69896
   69895   69897   69898   69899   69898   69900   69901   69902
   69901   69903   69904   69905   69904   69906   69907   69908
   69907   69909   69910   69911   69910   69912   69913   69914
   69913   69915   69916   69917   69916   69918   69919   69920
   69919   69921   69922   69923   69922   69924   69925   69926
   69925   69927   69928   69929   69928   69930   69931   69932
   69931   69933   69934   69935   69934   69936   69937   69938
   69937   69939   69940   69941   69940   69942   69943   69944
   69943   69945   69946   69947   69946   69948   69949   69950
   69949   69951   69952   69953   69952   69954   69955   69956
   69955   69957   69958   69959   69958   69960   69961   69962
   69961   69963   69964   69965   69964   69966   69967   69968
   69967   69969   69970   69971   69970   69972   69973   69974
   69973   69975   69976   69977   69976   69978   69979   69980
   69979   69981   69982   69983   69982   69984   69985   69986
   69985   69987   69988   69989   69988   69990   69991   69992
   69991   69993   69994   69995   69994   69996   69997   69998
   69997   69999   70000   70001   70000   70002   70003   70004
   70003   70005   70006   70007   70006   70008   70009   70010
   70009   70011   70012   70013   70012   70014   70015   70016
   70015   70017   70018   70019   70018   70020   70021   70022
   70021   70023   70024   70025   70024   70026   70027   70028
   70027   70029   70030   70031   70030   70032   70033   70034
   70033   70035   70036   70037   70036   70038   70039   70040
   70039   70041   70042   70043   70042   70044   70045   70046
   70045   70047   70048   70049   70048   70050   70051   70052
   70051   70053   70054   70055   70054   70056   70057   70058
   70057   70059   70060   70061   70060   70062   70063   70064
   70063   70065   70066   70067   70066   70068   70069   70070
   70069   70071   70072   70073   70072   70074   70075   70076
   70075   70077   70078   70079   70078   70080   70081   70082
   70081   70083   70084   70085   70084   70086   70087   70088
   70087   70089   70090   70091   70090   70092   70093   70094
   70093   70095   70096   70097   70096   70098   70099   70100
   70099   70101   70102   70103   70102   70104   70105   70106
   70105   70107   70108   70109   70108   70110   70111   70112
   70111   70113   70114   70115   70114   70116   70117   70118
   70117   70119   70120   70121   70120   70122   70123   70124
   70123   70125   70126   70127   70126   70128   70129   70130
   70129   70131   70132   70133   70132   70134   70135   70136
   70135   70137   70138   70139   70138   70140   70141   70142
   70141   70143   70144   70145   70144   70146   70147   70148
   70147   70149   70150   70151   70150   70152   70153   70154
   70153   70155   70156   70157   70156   70158   70159   70160
   70159   70161   70162   70163   70162   70164   70165   70166
   70165   70167   70168   70169   70168   70170   70171   70172
   70171   70173   70174   70175   70174   70176   70177   70178
   70177   70179   70180   70181   70180   70182   70183   70184
   70183   70185   70186   70187   70186   70188   70189   70190
   70189   70191   70192   70193   70192   70194   70195   70196
   70195   70197   70198   70199   70198   70200   70201   70202
   70201   70203   70204   70205   70204   70206   70207   70208
   70207   70209   70210   70211   70210   70212   70213   70214
   70213   70215   70216   70217   70216   70218   70219   70220
   70219   70221   70222   70223   70222   70224   70225   70226
   70225   70227   70228   70229   70228   70230   70231   70232
   70231   70233   70234   70235   70234   70236   70237   70238
   70237   70239   70240   70241   70240   70242   70243   70244
   70243   70245   70246   70247   70246   70248   70249   70250
   70249   70251   70252   70253   70252   70254   70255   70256
   70255   70257   70258   70259   70258   70260   70261   70262
   70261   70263   70264   70265   70264   70266   70267   70268
   70267   70269   70270   70271   70270   70272   70273   70274
   70273   70275   70276   70277   70276   70278   70279   70280
   70279   70281   70282   70283   70282   70284   70285   70286
   70285   70287   70288   70289   70288   70290   70291   70292
   70291   70293   70294   70295   70294   70296   70297   70298
   70297   70299   70300   70301   70300   70302   70303   70304
   70303   70305   70306   70307   70306   70308   70309   70310
   70309   70311   70312   70313   70312   70314   70315   70316
   70315   70317   70318   70319   70318   70320   70321   70322
   70321   70323   70324   70325   70324   70326   70327   70328
   70327   70329   70330   70331   70330   70332   70333   70334
   70333   70335   70336   70337   70336   70338   70339   70340
   70339   70341   70342   70343   70342   70344   70345   70346
   70345   70347   70348   70349   70348   70350   70351   70352
   70351   70353   70354   70355   70354   70356   70357   70358
   70357   70359   70360   70361   70360   70362   70363   70364
   70363   70365   70366   70367   70366   70368   70369   70370
   70369   70371   70372   70373   70372   70374   70375   70376
   70375   70377   70378   70379   70378   70380   70381   70382
   70381   70383   70384   70385   70384   70386   70387   70388
   70387   70389   70390   70391   70390   70392   70393   70394
   70393   70395   70396   70397   70396   70398   70399   70400
   70399   70401   70402   70403   70402   70404   70405   70406
   70405   70407   70408   70409   70408   70410   70411   70412
   70411   70413   70414   70415   70414   70416   70417   70418
   70417   70419   70420   70421   70420   70422   70423   70424
   70423   70425   70426   70427   70426   70428   70429   70430
   70429   70431   70432   70433   70432   70434   70435   70436
   70435   70437   70438   70439   70438   70440   70441   70442
   70441   70443   70444   70445   70444   70446   70447   70448
   70447   70449   70450   70451   70450   70452   70453   70454
   70453   70455   70456   70457   70456   70458   70459   70460
   70459   70461   70462   70463   70462   70464   70465   70466
   70465   70467   70468   70469   70468   70470   70471   70472
   70471   70473   70474   70475   70474   70476   70477   70478
   70477   70479   70480   70481   70480   70482   70483   70484
   70483   70485   70486   70487   70486   70488   70489   70490
   70489   70491   70492   70493   70492   70494   70495   70496
   70495   70497   70498   70499   70498   70500   70501   70502
   70501   70503   70504   70505   70504   70506   70507   70508
   70507   70509   70510   70511   70510   70512   70513   70514
   70513   70515   70516   70517   70516   70518   70519   70520
   70519   70521   70522   70523   70522   70524   70525   70526
   70525   70527   70528   70529   70528   70530   70531   70532
   70531   70533   70534   70535   70534   70536   70537   70538
   70537   70539   70540   70541   70540   70542   70543   70544
   70543   70545   70546   70547   70546   70548   70549   70550
   70549   70551   70552   70553   70552   70554   70555   70556
   70555   70557   70558   70559   70558   70560   70561   70562
   70561   70563   70564   70565   70564   70566   70567   70568
   70567   70569   70570   70571   70570   70572   70573   70574
   70573   70575   70576   70577   70576   70578   70579   70580
   70579   70581   70582   70583   70582   70584   70585   70586
   70585   70587   70588   70589   70588   70590   70591   70592
   70591   70593   70594   70595   70594   70596   70597   70598
   70597   70599   70600   70601   70600   70602   70603   70604
   70603   70605   70606   70607   70606   70608   70609   70610
   70609   70611   70612   70613   70612   70614   70615   70616
   70615   70617   70618   70619   70618   70620   70621   70622
   70621   70623   70624   70625   70624   70626   70627   70628
   70627   70629   70630   70631   70630   70632   70633   70634
   70633   70635   70636   70637   70636   70638   70639   70640
   70639   70641   70642   70643   70642   70644   70645   70646
   70645   70647   70648   70649   70648   70650   70651   70652
   70651   70653   70654   70655   70654   70656   70657   70658
   70657   70659   70660   70661   70660   70662   70663   70664
   70663   70665   70666   70667   70666   70668   70669   70670
   70669   70671   70672   70673   70672   70674   70675   70676
   70675   70677   70678   70679   70678   70680   70681   70682
   70681   70683   70684   70685   70684   70686   70687   70688
   70687   70689   70690   70691   70690   70692   70693   70694
   70693   70695   70696   70697   70696   70698   70699   70700
   70699   70701   70702   70703   70702   70704   70705   70706
   70705   70707   70708   70709   70708   70710   70711   70712
   70711   70713   70714   70715   70714   70716   70717   70718
   70717   70719   70720   70721   70720   70722   70723   70724
   70723   70725   70726   70727   70726   70728   70729   70730
   70729   70731   70732   70733   70732   70734   70735   70736
   70735   70737   70738   70739   70738   70740   70741   70742
   70741   70743   70744   70745   70744   70746   70747   70748
   70747   70749   70750   70751   70750   70752   70753   70754
   70753   70755   70756   70757   70756   70758   70759   70760
   70759   70761   70762   70763   70762   70764   70765   70766
   70765   70767   70768   70769   70768   70770   70771   70772
   70771   70773   70774   70775   70774   70776   70777   70778
   70777   70779   70780   70781   70780   70782   70783   70784
   70783   70785   70786   70787   70786   70788   70789   70790
   70789   70791   70792   70793   70792   70794   70795   70796
   70795   70797   70798   70799   70798   70800   70801   70802
   70801   70803   70804   70805   70804   70806   70807   70808
   70807   70809   70810   70811   70810   70812   70813   70814
   70813   70815   70816   70817   70816   70818   70819   70820
   70819   70821   70822   70823   70822   70824   70825   70826
   70825   70827   70828   70829   70828   70830   70831   70832
   70831   70833   70834   70835   70834   70836   70837   70838
   70837   70839   70840   70841   70840   70842   70843   70844
   70843   70845   70846   70847   70846   70848   70849   70850
   70849   70851   70852   70853   70852   70854   70855   70856
   70855   70857   70858   70859   70858   70860   70861   70862
   70861   70863   70864   70865   70864   70866   70867   70868
   70867   70869   70870   70871   70870   70872   70873   70874
   70873   70875   70876   70877   70876   70878   70879   70880
   70879   70881   70882   70883   70882   70884   70885   70886
   70885   70887   70888   70889   70888   70890   70891   70892
   70891   70893   70894   70895   70894   70896   70897   70898
   70897   70899   70900   70901   70900   70902   70903   70904
   70903   70905   70906   70907   70906   70908   70909   70910
   70909   70911   70912   70913   70912   70914   70915   70916
   70915   70917   70918   70919   70918   70920   70921   70922
   70921   70923   70924   70925   70924   70926   70927   70928
   70927   70929   70930   70931   70930   70932   70933   70934
   70933   70935   70936   70937   70936   70938   70939   70940
   70939   70941   70942   70943   70942   70944   70945   70946
   70945   70947   70948   70949   70948   70950   70951   70952
   70951   70953   70954   70955   70954   70956   70957   70958
   70957   70959   70960   70961   70960   70962   70963   70964
   70963   70965   70966   70967   70966   70968   70969   70970
   70969   70971   70972   70973   70972   70974   70975   70976
   70975   70977   70978   70979   70978   70980   70981   70982
   70981   70983   70984   70985   70984   70986   70987   70988
   70987   70989   70990   70991   70990   70992   70993   70994
   70993   70995   70996   70997   70996   70998   70999   71000
   70999   71001   71002   71003   71002   71004   71005   71006
   71005   71007   71008   71009   71008   71010   71011   71012
   71011   71013   71014   71015   71014   71016   71017   71018
   71017   71019   71020   71021   71020   71022   71023   71024
   71023   71025   71026   71027   71026   71028   71029   71030
   71029   71031   71032   71033   71032   71034   71035   71036
   71035   71037   71038   71039   71038   71040   71041   71042
   71041   71043   71044   71045   71044   71046   71047   71048
   71047   71049   71050   71051   71050   71052   71053   71054
   71053   71055   71056   71057   71056   71058   71059   71060
   71059   71061   71062   71063   71062   71064   71065   71066
   71065   71067   71068   71069   71068   71070   71071   71072
   71071   71073   71074   71075   71074   71076   71077   71078
   71077   71079   71080   71081   71080   71082   71083   71084
   71083   71085   71086   71087   71086   71088   71089   71090
   71089   71091   71092   71093   71092   71094   71095   71096
   71095   71097   71098   71099   71098   71100   71101   71102
   71101   71103   71104   71105   71104   71106   71107   71108
   71107   71109   71110   71111   71110   71112   71113   71114
   71113   71115   71116   71117   71116   71118   71119   71120
   71119   71121   71122   71123   71122   71124   71125   71126
   71125   71127   71128   71129   71128   71130   71131   71132
   71131   71133   71134   71135   71134   71136   71137   71138
   71137   71139   71140   71141   71140   71142   71143   71144
   71143   71145   71146   71147   71146   71148   71149   71150
   71149   71151   71152   71153   71152   71154   71155   71156
   71155   71157   71158   71159   71158   71160   71161   71162
   71161   71163   71164   71165   71164   71166   71167   71168
   71167   71169   71170   71171   71170   71172   71173   71174
   71173   71175   71176   71177   71176   71178   71179   71180
   71179   71181   71182   71183   71182   71184   71185   71186
   71185   71187   71188   71189   71188   71190   71191   71192
   71191   71193   71194   71195   71194   71196   71197   71198
   71197   71199   71200   71201   71200   71202   71203   71204
   71203   71205   71206   71207   71206   71208   71209   71210
   71209   71211   71212   71213   71212   71214   71215   71216
   71215   71217   71218   71219   71218   71220   71221   71222
   71221   71223   71224   71225   71224   71226   71227   71228
   71227   71229   71230   71231   71230   71232   71233   71234
   71233   71235   71236   71237   71236   71238   71239   71240
   71239   71241   71242   71243   71242   71244   71245   71246
   71245   71247   71248   71249   71248   71250   71251   71252
   71251   71253   71254   71255   71254   71256   71257   71258
   71257   71259   71260   71261   71260   71262   71263   71264
   71263   71265   71266   71267   71266   71268   71269   71270
   71269   71271   71272   71273   71272   71274   71275   71276
   71275   71277   71278   71279   71278   71280   71281   71282
   71281   71283   71284   71285   71284   71286   71287   71288
   71287   71289   71290   71291   71290   71292   71293   71294
   71293   71295   71296   71297   71296   71298   71299   71300
   71299   71301   71302   71303   71302   71304   71305   71306
   71305   71307   71308   71309   71308   71310   71311   71312
   71311   71313   71314   71315   71314   71316   71317   71318
   71317   71319   71320   71321   71320   71322   71323   71324
   71323   71325   71326   71327   71326   71328   71329   71330
   71329   71331   71332   71333   71332   71334   71335   71336
   71335   71337   71338   71339   71338   71340   71341   71342
   71341   71343   71344   71345   71344   71346   71347   71348
   71347   71349   71350   71351   71350   71352   71353   71354
   71353   71355   71356   71357   71356   71358   71359   71360
   71359   71361   71362   71363   71362   71364   71365   71366
   71365   71367   71368   71369   71368   71370   71371   71372
   71371   71373   71374   71375   71374   71376   71377   71378
   71377   71379   71380   71381   71380   71382   71383   71384
   71383   71385   71386   71387   71386   71388   71389   71390
   71389   71391   71392   71393   71392   71394   71395   71396
   71395   71397   71398   71399   71398   71400   71401   71402
   71401   71403   71404   71405   71404   71406   71407   71408
   71407   71409   71410   71411   71410   71412   71413   71414
   71413   71415   71416   71417   71416   71418   71419   71420
   71419   71421   71422   71423   71422   71424   71425   71426
   71425   71427   71428   71429   71428   71430   71431   71432
   71431   71433   71434   71435   71434   71436   71437   71438
   71437   71439   71440   71441   71440   71442   71443   71444
   71443   71445   71446   71447   71446   71448   71449   71450
   71449   71451   71452   71453   71452   71454   71455   71456
   71455   71457   71458   71459   71458   71460   71461   71462
   71461   71463   71464   71465   71464   71466   71467   71468
   71467   71469   71470   71471   71470   71472   71473   71474
   71473   71475   71476   71477   71476   71478   71479   71480
   71479   71481   71482   71483   71482   71484   71485   71486
   71485   71487   71488   71489   71488   71490   71491   71492
   71491   71493   71494   71495   71494   71496   71497   71498
   71497   71499   71500   71501   71500   71502   71503   71504
   71503   71505   71506   71507   71506   71508   71509   71510
   71509   71511   71512   71513   71512   71514   71515   71516
   71515   71517   71518   71519   71518   71520   71521   71522
   71521   71523   71524   71525   71524   71526   71527   71528
   71527   71529   71530   71531   71530   71532   71533   71534
   71533   71535   71536   71537   71536   71538   71539   71540
   71539   71541   71542   71543   71542   71544   71545   71546
   71545   71547   71548   71549   71548   71550   71551   71552
   71551   71553   71554   71555   71554   71556   71557   71558
   71557   71559   71560   71561   71560   71562   71563   71564
   71563   71565   71566   71567   71566   71568   71569   71570
   71569   71571   71572   71573   71572   71574   71575   71576
   71575   71577   71578   71579   71578   71580   71581   71582
   71581   71583   71584   71585   71584   71586   71587   71588
   71587   71589   71590   71591   71590   71592   71593   71594
   71593   71595   71596   71597   71596   71598   71599   71600
   71599   71601   71602   71603   71602   71604   71605   71606
   71605   71607   71608   71609   71608   71610   71611   71612
   71611   71613   71614   71615   71614   71616   71617   71618
   71617   71619   71620   71621   71620   71622   71623   71624
   71623   71625   71626   71627   71626   71628   71629   71630
   71629   71631   71632   71633   71632   71634   71635   71636
   71635   71637   71638   71639   71638   71640   71641   71642
   71641   71643   71644   71645   71644   71646   71647   71648
   71647   71649   71650   71651   71650   71652   71653   71654
   71653   71655   71656   71657   71656   71658   71659   71660
   71659   71661   71662   71663   71662   71664   71665   71666
   71665   71667   71668   71669   71668   71670   71671   71672
   71671   71673   71674   71675   71674   71676   71677   71678
   71677   71679   71680   71681   71680   71682   71683   71684
   71683   71685   71686   71687   71686   71688   71689   71690
   71689   71691   71692   71693   71692   71694   71695   71696
   71695   71697   71698   71699   71698   71700   71701   71702
   71701   71703   71704   71705   71704   71706   71707   71708
   71707   71709   71710   71711   71710   71712   71713   71714
   71713   71715   71716   71717   71716   71718   71719   71720
   71719   71721   71722   71723   71722   71724   71725   71726
   71725   71727   71728   71729   71728   71730   71731   71732
   71731   71733   71734   71735   71734   71736   71737   71738
   71737   71739   71740   71741   71740   71742   71743   71744
   71743   71745   71746   71747   71746   71748   71749   71750
   71749   71751   71752   71753   71752   71754   71755   71756
   71755   71757   71758   71759   71758   71760   71761   71762
   71761   71763   71764   71765   71764   71766   71767   71768
   71767   71769   71770   71771   71770   71772   71773   71774
   71773   71775   71776   71777   71776   71778   71779   71780
   71779   71781   71782   71783   71782   71784   71785   71786
   71785   71787   71788   71789   71788   71790   71791   71792
   71791   71793   71794   71795   71794   71796   71797   71798
   71797   71799   71800   71801   71800   71802   71803   71804
   71803   71805   71806   71807   71806   71808   71809   71810
   71809   71811   71812   71813   71812   71814   71815   71816
   71815   71817   71818   71819   71818   71820   71821   71822
   71821   71823   71824   71825   71824   71826   71827   71828
   71827   71829   71830   71831   71830   71832   71833   71834
   71833   71835   71836   71837   71836   71838   71839   71840
   71839   71841   71842   71843   71842   71844   71845   71846
   71845   71847   71848   71849   71848   71850   71851   71852
   71851   71853   71854   71855   71854   71856   71857   71858
   71857   71859   71860   71861   71860   71862   71863   71864
   71863   71865   71866   71867   71866   71868   71869   71870
   71869   71871   71872   71873   71872   71874   71875   71876
   71875   71877   71878   71879   71878   71880   71881   71882
   71881   71883   71884   71885   71884   71886   71887   71888
   71887   71889   71890   71891   71890   71892   71893   71894
   71893   71895   71896   71897   71896   71898   71899   71900
   71899   71901   71902   71903   71902   71904   71905   71906
   71905   71907   71908   71909   71908   71910   71911   71912
   71911   71913   71914   71915   71914   71916   71917   71918
   71917   71919   71920   71921   71920   71922   71923   71924
   71923   71925   71926   71927   71926   71928   71929   71930
   71929   71931   71932   71933   71932   71934   71935   71936
   71935   71937   71938   71939   71938   71940   71941   71942
   71941   71943   71944   71945   71944   71946   71947   71948
   71947   71949   71950   71951   71950   71952   71953   71954
   71953   71955   71956   71957   71956   71958   71959   71960
   71959   71961   71962   71963   71962   71964   71965   71966
   71965   71967   71968   71969   71968   71970   71971   71972
   71971   71973   71974   71975   71974   71976   71977   71978
   71977   71979   71980   71981   71980   71982   71983   71984
   71983   71985   71986   71987   71986   71988   71989   71990
   71989   71991   71992   71993   71992   71994   71995   71996
   71995   71997   71998   71999   71998   72000   72001   72002
   72001   72003   72004   72005   72004   72006   72007   72008
   72007   72009   72010   72011   72010   72012   72013   72014
   72013   72015   72016   72017   72016   72018   72019   72020
   72019   72021   72022   72023   72022   72024   72025   72026
   72025   72027   72028   72029   72028   72030   72031   72032
   72031   72033   72034   72035   72034   72036   72037   72038
   72037   72039   72040   72041   72040   72042   72043   72044
   72043   72045   72046   72047   72046   72048   72049   72050
   72049   72051   72052   72053   72052   72054   72055   72056
   72055   72057   72058   72059   72058   72060   72061   72062
   72061   72063   72064   72065   72064   72066   72067   72068
   72067   72069   72070   72071   72070   72072   72073   72074
   72073   72075   72076   72077   72076   72078   72079   72080
   72079   72081   72082   72083   72082   72084   72085   72086
   72085   72087   72088   72089   72088   72090   72091   72092
   72091   72093   72094   72095   72094   72096   72097   72098
   72097   72099   72100   72101   72100   72102   72103   72104
   72103   72105   72106   72107   72106   72108   72109   72110
   72109   72111   72112   72113   72112   72114   72115   72116
   72115   72117   72118   72119   72118   72120   72121   72122
   72121   72123   72124   72125   72124   72126   72127   72128
   72127   72129   72130   72131   72130   72132   72133   72134
   72133   72135   72136   72137   72136   72138   72139   72140
   72139   72141   72142   72143   72142   72144   72145   72146
   72145   72147   72148   72149   72148   72150   72151   72152
   72151   72153   72154   72155   72154   72156   72157   72158
   72157   72159   72160   72161   72160   72162   72163   72164
   72163   72165   72166   72167   72166   72168   72169   72170
   72169   72171   72172   72173   72172   72174   72175   72176
   72175   72177   72178   72179   72178   72180   72181   72182
   72181   72183   72184   72185   72184   72186   72187   72188
   72187   72189   72190   72191   72190   72192   72193   72194
   72193   72195   72196   72197   72196   72198   72199   72200
   72199   72201   72202   72203   72202   72204   72205   72206
   72205   72207   72208   72209   72208   72210   72211   72212
   72211   72213   72214   72215   72214   72216   72217   72218
   72217   72219   72220   72221   72220   72222   72223   72224
   72223   72225   72226   72227   72226   72228   72229   72230
   72229   72231   72232   72233   72232   72234   72235   72236
   72235   72237   72238   72239   72238   72240   72241   72242
   72241   72243   72244   72245   72244   72246   72247   72248
   72247   72249   72250   72251   72250   72252   72253   72254
   72253   72255   72256   72257   72256   72258   72259   72260
   72259   72261   72262   72263   72262   72264   72265   72266
   72265   72267   72268   72269   72268   72270   72271   72272
   72271   72273   72274   72275   72274   72276   72277   72278
   72277   72279   72280   72281   72280   72282   72283   72284
   72283   72285   72286   72287   72286   72288   72289   72290
   72289   72291   72292   72293   72292   72294   72295   72296
   72295   72297   72298   72299   72298   72300   72301   72302
   72301   72303   72304   72305   72304   72306   72307   72308
   72307   72309   72310   72311   72310   72312   72313   72314
   72313   72315   72316   72317   72316   72318   72319   72320
   72319   72321   72322   72323   72322   72324   72325   72326
   72325   72327   72328   72329   72328   72330   72331   72332
   72331   72333   72334   72335   72334   72336   72337   72338
   72337   72339   72340   72341   72340   72342   72343   72344
   72343   72345   72346   72347   72346   72348   72349   72350
   72349   72351   72352   72353   72352   72354   72355   72356
   72355   72357   72358   72359   72358   72360   72361   72362
   72361   72363   72364   72365   72364   72366   72367   72368
   72367   72369   72370   72371   72370   72372   72373   72374
   72373   72375   72376   72377   72376   72378   72379   72380
   72379   72381   72382   72383   72382   72384   72385   72386
   72385   72387   72388   72389   72388   72390   72391   72392
   72391   72393   72394   72395   72394   72396   72397   72398
   72397   72399   72400   72401   72400   72402   72403   72404
   72403   72405   72406   72407   72406   72408   72409   72410
   72409   72411   72412   72413   72412   72414   72415   72416
   72415   72417   72418   72419   72418   72420   72421   72422
   72421   72423   72424   72425   72424   72426   72427   72428
   72427   72429   72430   72431   72430   72432   72433   72434
   72433   72435   72436   72437   72436   72438   72439   72440
   72439   72441   72442   72443   72442   72444   72445   72446
   72445   72447   72448   72449   72448   72450   72451   72452
   72451   72453   72454   72455   72454   72456   72457   72458
   72457   72459   72460   72461   72460   72462   72463   72464
   72463   72465   72466   72467   72466   72468   72469   72470
   72469   72471   72472   72473   72472   72474   72475   72476
   72475   72477   72478   72479   72478   72480   72481   72482
   72481   72483   72484   72485   72484   72486   72487   72488
   72487   72489   72490   72491   72490   72492   72493   72494
   72493   72495   72496   72497   72496   72498   72499   72500
   72499   72501   72502   72503   72502   72504   72505   72506
   72505   72507   72508   72509   72508   72510   72511   72512
   72511   72513   72514   72515   72514   72516   72517   72518
   72517   72519   72520   72521   72520   72522   72523   72524
   72523   72525   72526   72527   72526   72528   72529   72530
   72529   72531   72532   72533   72532   72534   72535   72536
   72535   72537   72538   72539   72538   72540   72541   72542
   72541   72543   72544   72545   72544   72546   72547   72548
   72547   72549   72550   72551   72550   72552   72553   72554
   72553   72555   72556   72557   72556   72558   72559   72560
   72559   72561   72562   72563   72562   72564   72565   72566
   72565   72567   72568   72569   72568   72570   72571   72572
   72571   72573   72574   72575   72574   72576   72577   72578
   72577   72579   72580   72581   72580   72582   72583   72584
   72583   72585   72586   72587   72586   72588   72589   72590
   72589   72591   72592   72593   72592   72594   72595   72596
   72595   72597   72598   72599   72598   72600   72601   72602
   72601   72603   72604   72605   72604   72606   72607   72608
   72607   72609   72610   72611   72610   72612   72613   72614
   72613   72615   72616   72617   72616   72618   72619   72620
   72619   72621   72622   72623   72622   72624   72625   72626
   72625   72627   72628   72629   72628   72630   72631   72632
   72631   72633   72634   72635   72634   72636   72637   72638
   72637   72639   72640   72641   72640   72642   72643   72644
   72643   72645   72646   72647   72646   72648   72649   72650
   72649   72651   72652   72653   72652   72654   72655   72656
   72655   72657   72658   72659   72658   72660   72661   72662
   72661   72663   72664   72665   72664   72666   72667   72668
   72667   72669   72670   72671   72670   72672   72673   72674
   72673   72675   72676   72677   72676   72678   72679   72680
   72679   72681   72682   72683   72682   72684   72685   72686
   72685   72687   72688   72689   72688   72690   72691   72692
   72691   72693   72694   72695   72694   72696   72697   72698
   72697   72699   72700   72701   72700   72702   72703   72704
   72703   72705   72706   72707   72706   72708   72709   72710
   72709   72711   72712   72713   72712   72714   72715   72716
   72715   72717   72718   72719   72718   72720   72721   72722
   72721   72723   72724   72725   72724   72726   72727   72728
   72727   72729   72730   72731   72730   72732   72733   72734
   72733   72735   72736   72737   72736   72738   72739   72740
   72739   72741   72742   72743   72742   72744   72745   72746
   72745   72747   72748   72749   72748   72750   72751   72752
   72751   72753   72754   72755   72754   72756   72757   72758
   72757   72759   72760   72761   72760   72762   72763   72764
   72763   72765   72766   72767   72766   72768   72769   72770
   72769   72771   72772   72773   72772   72774   72775   72776
   72775   72777   72778   72779   72778   72780   72781   72782
   72781   72783   72784   72785   72784   72786   72787   72788
   72787   72789   72790   72791   72790   72792   72793   72794
   72793   72795   72796   72797   72796   72798   72799   72800
   72799   72801   72802   72803   72802   72804   72805   72806
   72805   72807   72808   72809   72808   72810   72811   72812
   72811   72813   72814   72815   72814   72816   72817   72818
   72817   72819   72820   72821   72820   72822   72823   72824
   72823   72825   72826   72827   72826   72828   72829   72830
   72829   72831   72832   72833   72832   72834   72835   72836
   72835   72837   72838   72839   72838   72840   72841   72842
   72841   72843   72844   72845   72844   72846   72847   72848
   72847   72849   72850   72851   72850   72852   72853   72854
   72853   72855   72856   72857   72856   72858   72859   72860
   72859   72861   72862   72863   72862   72864   72865   72866
   72865   72867   72868   72869   72868   72870   72871   72872
   72871   72873   72874   72875   72874   72876   72877   72878
   72877   72879   72880   72881   72880   72882   72883   72884
   72883   72885   72886   72887   72886   72888   72889   72890
   72889   72891   72892   72893   72892   72894   72895   72896
   72895   72897   72898   72899   72898   72900   72901   72902
   72901   72903   72904   72905   72904   72906   72907   72908
   72907   72909   72910   72911   72910   72912   72913   72914
   72913   72915   72916   72917   72916   72918   72919   72920
   72919   72921   72922   72923   72922   72924   72925   72926
   72925   72927   72928   72929   72928   72930   72931   72932
   72931   72933   72934   72935   72934   72936   72937   72938
   72937   72939   72940   72941   72940   72942   72943   72944
   72943   72945   72946   72947   72946   72948   72949   72950
   72949   72951   72952   72953   72952   72954   72955   72956
   72955   72957   72958   72959   72958   72960   72961   72962
   72961   72963   72964   72965   72964   72966   72967   72968
   72967   72969   72970   72971   72970   72972   72973   72974
   72973   72975   72976   72977   72976   72978   72979   72980
   72979   72981   72982   72983   72982   72984   72985   72986
   72985   72987   72988   72989   72988   72990   72991   72992
   72991   72993   72994   72995   72994   72996   72997   72998
   72997   72999   73000   73001   73000   73002   73003   73004
   73003   73005   73006   73007   73006   73008   73009   73010
   73009   73011   73012   73013   73012   73014   73015   73016
   73015   73017   73018   73019   73018   73020   73021   73022
   73021   73023   73024   73025   73024   73026   73027   73028
   73027   73029   73030   73031   73030   73032   73033   73034
   73033   73035   73036   73037   73036   73038   73039   73040
   73039   73041   73042   73043   73042   73044   73045   73046
   73045   73047   73048   73049   73048   73050   73051   73052
   73051   73053   73054   73055   73054   73056   73057   73058
   73057   73059   73060   73061   73060   73062   73063   73064
   73063   73065   73066   73067   73066   73068   73069   73070
   73069   73071   73072   73073   73072   73074   73075   73076
   73075   73077   73078   73079   73078   73080   73081   73082
   73081   73083   73084   73085   73084   73086   73087   73088
   73087   73089   73090   73091   73090   73092   73093   73094
   73093   73095   73096   73097   73096   73098   73099   73100
   73099   73101   73102   73103   73102   73104   73105   73106
   73105   73107   73108   73109   73108   73110   73111   73112
   73111   73113   73114   73115   73114   73116   73117   73118
   73117   73119   73120   73121   73120   73122   73123   73124
   73123   73125   73126   73127   73126   73128   73129   73130
   73129   73131   73132   73133   73132   73134   73135   73136
   73135   73137   73138   73139   73138   73140   73141   73142
   73141   73143   73144   73145   73144   73146   73147   73148
   73147   73149   73150   73151   73150   73152   73153   73154
   73153   73155   73156   73157   73156   73158   73159   73160
   73159   73161   73162   73163   73162   73164   73165   73166
   73165   73167   73168   73169   73168   73170   73171   73172
   73171   73173   73174   73175   73174   73176   73177   73178
   73177   73179   73180   73181   73180   73182   73183   73184
   73183   73185   73186   73187   73186   73188   73189   73190
   73189   73191   73192   73193   73192   73194   73195   73196
   73195   73197   73198   73199   73198   73200   73201   73202
   73201   73203   73204   73205   73204   73206   73207   73208
   73207   73209   73210   73211   73210   73212   73213   73214
   73213   73215   73216   73217   73216   73218   73219   73220
   73219   73221   73222   73223   73222   73224   73225   73226
   73225   73227   73228   73229   73228   73230   73231   73232
   73231   73233   73234   73235   73234   73236   73237   73238
   73237   73239   73240   73241   73240   73242   73243   73244
   73243   73245   73246   73247   73246   73248   73249   73250
   73249   73251   73252   73253   73252   73254   73255   73256
   73255   73257   73258   73259   73258   73260   73261   73262
   73261   73263   73264   73265   73264   73266   73267   73268
   73267   73269   73270   73271   73270   73272   73273   73274
   73273   73275   73276   73277   73276   73278   73279   73280
   73279   73281   73282   73283   73282   73284   73285   73286
   73285   73287   73288   73289   73288   73290   73291   73292
   73291   73293   73294   73295   73294   73296   73297   73298
   73297   73299   73300   73301   73300   73302   73303   73304
   73303   73305   73306   73307   73306   73308   73309   73310
   73309   73311   73312   73313   73312   73314   73315   73316
   73315   73317   73318   73319   73318   73320   73321   73322
   73321   73323   73324   73325   73324   73326   73327   73328
   73327   73329   73330   73331   73330   73332   73333   73334
   73333   73335   73336   73337   73336   73338   73339   73340
   73339   73341   73342   73343   73342   73344   73345   73346
   73345   73347   73348   73349   73348   73350   73351   73352
   73351   73353   73354   73355   73354   73356   73357   73358
   73357   73359   73360   73361   73360   73362   73363   73364
   73363   73365   73366   73367   73366   73368   73369   73370
   73369   73371   73372   73373   73372   73374   73375   73376
   73375   73377   73378   73379   73378   73380   73381   73382
   73381   73383   73384   73385   73384   73386   73387   73388
   73387   73389   73390   73391   73390   73392   73393   73394
   73393   73395   73396   73397   73396   73398   73399   73400
   73399   73401   73402   73403   73402   73404   73405   73406
   73405   73407   73408   73409   73408   73410   73411   73412
   73411   73413   73414   73415   73414   73416   73417   73418
   73417   73419   73420   73421   73420   73422   73423   73424
   73423   73425   73426   73427   73426   73428   73429   73430
   73429   73431   73432   73433   73432   73434   73435   73436
   73435   73437   73438   73439   73438   73440   73441   73442
   73441   73443   73444   73445   73444   73446   73447   73448
   73447   73449   73450   73451   73450   73452   73453   73454
   73453   73455   73456   73457   73456   73458   73459   73460
   73459   73461   73462   73463   73462   73464   73465   73466
   73465   73467   73468   73469   73468   73470   73471   73472
   73471   73473   73474   73475   73474   73476   73477   73478
   73477   73479   73480   73481   73480   73482   73483   73484
   73483   73485   73486   73487   73486   73488   73489   73490
   73489   73491   73492   73493   73492   73494   73495   73496
   73495   73497   73498   73499   73498   73500   73501   73502
   73501   73503   73504   73505   73504   73506   73507   73508
   73507   73509   73510   73511   73510   73512   73513   73514
   73513   73515   73516   73517   73516   73518   73519   73520
   73519   73521   73522   73523   73522   73524   73525   73526
   73525   73527   73528   73529   73528   73530   73531   73532
   73531   73533   73534   73535   73534   73536   73537   73538
   73537   73539   73540   73541   73540   73542   73543   73544
   73543   73545   73546   73547   73546   73548   73549   73550
   73549   73551   73552   73553   73552   73554   73555   73556
   73555   73557   73558   73559   73558   73560   73561   73562
   73561   73563   73564   73565   73564   73566   73567   73568
   73567   73569   73570   73571   73570   73572   73573   73574
   73573   73575   73576   73577   73576   73578   73579   73580
   73579   73581   73582   73583   73582   73584   73585   73586
   73585   73587   73588   73589   73588   73590   73591   73592
   73591   73593   73594   73595   73594   73596   73597   73598
   73597   73599   73600   73601   73600   73602   73603   73604
   73603   73605   73606   73607   73606   73608   73609   73610
   73609   73611   73612   73613   73612   73614   73615   73616
   73615   73617   73618   73619   73618   73620   73621   73622
   73621   73623   73624   73625   73624   73626   73627   73628
   73627   73629   73630   73631   73630   73632   73633   73634
   73633   73635   73636   73637   73636   73638   73639   73640
   73639   73641   73642   73643   73642   73644   73645   73646
   73645   73647   73648   73649   73648   73650   73651   73652
   73651   73653   73654   73655   73654   73656   73657   73658
   73657   73659   73660   73661   73660   73662   73663   73664
   73663   73665   73666   73667   73666   73668   73669   73670
   73669   73671   73672   73673   73672   73674   73675   73676
   73675   73677   73678   73679   73678   73680   73681   73682
   73681   73683   73684   73685   73684   73686   73687   73688
   73687   73689   73690   73691   73690   73692   73693   73694
   73693   73695   73696   73697   73696   73698   73699   73700
   73699   73701   73702   73703   73702   73704   73705   73706
   73705   73707   73708   73709   73708   73710   73711   73712
   73711   73713   73714   73715   73714   73716   73717   73718
   73717   73719   73720   73721   73720   73722   73723   73724
   73723   73725   73726   73727   73726   73728   73729   73730
   73729   73731   73732   73733   73732   73734   73735   73736
   73735   73737   73738   73739   73738   73740   73741   73742
   73741   73743   73744   73745   73744   73746   73747   73748
   73747   73749   73750   73751   73750   73752   73753   73754
   73753   73755   73756   73757   73756   73758   73759   73760
   73759   73761   73762   73763   73762   73764   73765   73766
   73765   73767   73768   73769   73768   73770   73771   73772
   73771   73773   73774   73775   73774   73776   73777   73778
   73777   73779   73780   73781   73780   73782   73783   73784
   73783   73785   73786   73787   73786   73788   73789   73790
   73789   73791   73792   73793   73792   73794   73795   73796
   73795   73797   73798   73799   73798   73800   73801   73802
   73801   73803   73804   73805   73804   73806   73807   73808
   73807   73809   73810   73811   73810   73812   73813   73814
   73813   73815   73816   73817   73816   73818   73819   73820
   73819   73821   73822   73823   73822   73824   73825   73826
   73825   73827   73828   73829   73828   73830   73831   73832
   73831   73833   73834   73835   73834   73836   73837   73838
   73837   73839   73840   73841   73840   73842   73843   73844
   73843   73845   73846   73847   73846   73848   73849   73850
   73849   73851   73852   73853   73852   73854   73855   73856
   73855   73857   73858   73859   73858   73860   73861   73862
   73861   73863   73864   73865   73864   73866   73867   73868
   73867   73869   73870   73871   73870   73872   73873   73874
   73873   73875   73876   73877   73876   73878   73879   73880
   73879   73881   73882   73883   73882   73884   73885   73886
   73885   73887   73888   73889   73888   73890   73891   73892
   73891   73893   73894   73895   73894   73896   73897   73898
   73897   73899   73900   73901   73900   73902   73903   73904
   73903   73905   73906   73907   73906   73908   73909   73910
   73909   73911   73912   73913   73912   73914   73915   73916
   73915   73917   73918   73919   73918   73920   73921   73922
   73921   73923   73924   73925   73924   73926   73927   73928
   73927   73929   73930   73931   73930   73932   73933   73934
   73933   73935   73936   73937   73936   73938   73939   73940
   73939   73941   73942   73943   73942   73944   73945   73946
   73945   73947   73948   73949   73948   73950   73951   73952
   73951   73953   73954   73955   73954   73956   73957   73958
   73957   73959   73960   73961   73960   73962   73963   73964
   73963   73965   73966   73967   73966   73968   73969   73970
   73969   73971   73972   73973   73972   73974   73975   73976
   73975   73977   73978   73979   73978   73980   73981   73982
   73981   73983   73984   73985   73984   73986   73987   73988
   73987   73989   73990   73991   73990   73992   73993   73994
   73993   73995   73996   73997   73996   73998   73999   74000
   73999   74001   74002   74003   74002   74004   74005   74006
   74005   74007   74008   74009   74008   74010   74011   74012
   74011   74013   74014   74015   74014   74016   74017   74018
   74017   74019   74020   74021   74020   74022   74023   74024
   74023   74025   74026   74027   74026   74028   74029   74030
   74029   74031   74032   74033   74032   74034   74035   74036
   74035   74037   74038   74039   74038   74040   74041   74042
   74041   74043   74044   74045   74044   74046   74047   74048
   74047   74049   74050   74051   74050   74052   74053   74054
   74053   74055   74056   74057   74056   74058   74059   74060
   74059   74061   74062   74063   74062   74064   74065   74066
   74065   74067   74068   74069   74068   74070   74071   74072
   74071   74073   74074   74075   74074   74076   74077   74078
   74077   74079   74080   74081   74080   74082   74083   74084
   74083   74085   74086   74087   74086   74088   74089   74090
   74089   74091   74092   74093   74092   74094   74095   74096
   74095   74097   74098   74099   74098   74100   74101   74102
   74101   74103   74104   74105   74104   74106   74107   74108
   74107   74109   74110   74111   74110   74112   74113   74114
   74113   74115   74116   74117   74116   74118   74119   74120
   74119   74121   74122   74123   74122   74124   74125   74126
   74125   74127   74128   74129   74128   74130   74131   74132
   74131   74133   74134   74135   74134   74136   74137   74138
   74137   74139   74140   74141   74140   74142   74143   74144
   74143   74145   74146   74147   74146   74148   74149   74150
   74149   74151   74152   74153   74152   74154   74155   74156
   74155   74157   74158   74159   74158   74160   74161   74162
   74161   74163   74164   74165   74164   74166   74167   74168
   74167   74169   74170   74171   74170   74172   74173   74174
   74173   74175   74176   74177   74176   74178   74179   74180
   74179   74181   74182   74183   74182   74184   74185   74186
   74185   74187   74188   74189   74188   74190   74191   74192
   74191   74193   74194   74195   74194   74196   74197   74198
   74197   74199   74200   74201   74200   74202   74203   74204
   74203   74205   74206   74207   74206   74208   74209   74210
   74209   74211   74212   74213   74212   74214   74215   74216
   74215   74217   74218   74219   74218   74220   74221   74222
   74221   74223   74224   74225   74224   74226   74227   74228
   74227   74229   74230   74231   74230   74232   74233   74234
   74233   74235   74236   74237   74236   74238   74239   74240
   74239   74241   74242   74243   74242   74244   74245   74246
   74245   74247   74248   74249   74248   74250   74251   74252
   74251   74253   74254   74255   74254   74256   74257   74258
   74257   74259   74260   74261   74260   74262   74263   74264
   74263   74265   74266   74267   74266   74268   74269   74270
   74269   74271   74272   74273   74272   74274   74275   74276
   74275   74277   74278   74279   74278   74280   74281   74282
   74281   74283   74284   74285   74284   74286   74287   74288
   74287   74289   74290   74291   74290   74292   74293   74294
   74293   74295   74296   74297   74296   74298   74299   74300
   74299   74301   74302   74303   74302   74304   74305   74306
   74305   74307   74308   74309   74308   74310   74311   74312
   74311   74313   74314   74315   74314   74316   74317   74318
   74317   74319   74320   74321   74320   74322   74323   74324
   74323   74325   74326   74327   74326   74328   74329   74330
   74329   74331   74332   74333   74332   74334   74335   74336
   74335   74337   74338   74339   74338   74340   74341   74342
   74341   74343   74344   74345   74344   74346   74347   74348
   74347   74349   74350   74351   74350   74352   74353   74354
   74353   74355   74356   74357   74356   74358   74359   74360
   74359   74361   74362   74363   74362   74364   74365   74366
   74365   74367   74368   74369   74368   74370   74371   74372
   74371   74373   74374   74375   74374   74376   74377   74378
   74377   74379   74380   74381   74380   74382   74383   74384
   74383   74385   74386   74387   74386   74388   74389   74390
   74389   74391   74392   74393   74392   74394   74395   74396
   74395   74397   74398   74399   74398   74400   74401   74402
   74401   74403   74404   74405   74404   74406   74407   74408
   74407   74409   74410   74411   74410   74412   74413   74414
   74413   74415   74416   74417   74416   74418   74419   74420
   74419   74421   74422   74423   74422   74424   74425   74426
   74425   74427   74428   74429   74428   74430   74431   74432
   74431   74433   74434   74435   74434   74436   74437   74438
   74437   74439   74440   74441   74440   74442   74443   74444
   74443   74445   74446   74447   74446   74448   74449   74450
   74449   74451   74452   74453   74452   74454   74455   74456
   74455   74457   74458   74459   74458   74460   74461   74462
   74461   74463   74464   74465   74464   74466   74467   74468
   74467   74469   74470   74471   74470   74472   74473   74474
   74473   74475   74476   74477   74476   74478   74479   74480
   74479   74481   74482   74483   74482   74484   74485   74486
   74485   74487   74488   74489   74488   74490   74491   74492
   74491   74493   74494   74495   74494   74496   74497   74498
   74497   74499   74500   74501   74500   74502   74503   74504
   74503   74505   74506   74507   74506   74508   74509   74510
   74509   74511   74512   74513   74512   74514   74515   74516
   74515   74517   74518   74519   74518   74520   74521   74522
   74521   74523   74524   74525   74524   74526   74527   74528
   74527   74529   74530   74531   74530   74532   74533   74534
   74533   74535   74536   74537   74536   74538   74539   74540
   74539   74541   74542   74543   74542   74544   74545   74546
   74545   74547   74548   74549   74548   74550   74551   74552
   74551   74553   74554   74555   74554   74556   74557   74558
   74557   74559   74560   74561   74560   74562   74563   74564
   74563   74565   74566   74567   74566   74568   74569   74570
   74569   74571   74572   74573   74572   74574   74575   74576
   74575   74577   74578   74579   74578   74580   74581   74582
   74581   74583   74584   74585   74584   74586   74587   74588
   74587   74589   74590   74591   74590   74592   74593   74594
   74593   74595   74596   74597   74596   74598   74599   74600
   74599   74601   74602   74603   74602   74604   74605   74606
   74605   74607   74608   74609   74608   74610   74611   74612
   74611   74613   74614   74615   74614   74616   74617   74618
   74617   74619   74620   74621   74620   74622   74623   74624
   74623   74625   74626   74627   74626   74628   74629   74630
   74629   74631   74632   74633   74632   74634   74635   74636
   74635   74637   74638   74639   74638   74640   74641   74642
   74641   74643   74644   74645   74644   74646   74647   74648
   74647   74649   74650   74651   74650   74652   74653   74654
   74653   74655   74656   74657   74656   74658   74659   74660
   74659   74661   74662   74663   74662   74664   74665   74666
   74665   74667   74668   74669   74668   74670   74671   74672
   74671   74673   74674   74675   74674   74676   74677   74678
   74677   74679   74680   74681   74680   74682   74683   74684
   74683   74685   74686   74687   74686   74688   74689   74690
   74689   74691   74692   74693   74692   74694   74695   74696
   74695   74697   74698   74699   74698   74700   74701   74702
   74701   74703   74704   74705   74704   74706   74707   74708
   74707   74709   74710   74711   74710   74712   74713   74714
   74713   74715   74716   74717   74716   74718   74719   74720
   74719   74721   74722   74723   74722   74724   74725   74726
   74725   74727   74728   74729   74728   74730   74731   74732
   74731   74733   74734   74735   74734   74736   74737   74738
   74737   74739   74740   74741   74740   74742   74743   74744
   74743   74745   74746   74747   74746   74748   74749   74750
   74749   74751   74752   74753   74752   74754   74755   74756
   74755   74757   74758   74759   74758   74760   74761   74762
   74761   74763   74764   74765   74764   74766   74767   74768
   74767   74769   74770   74771   74770   74772   74773   74774
   74773   74775   74776   74777   74776   74778   74779   74780
   74779   74781   74782   74783   74782   74784   74785   74786
   74785   74787   74788   74789   74788   74790   74791   74792
   74791   74793   74794   74795   74794   74796   74797   74798
   74797   74799   74800   74801   74800   74802   74803   74804
   74803   74805   74806   74807   74806   74808   74809   74810
   74809   74811   74812   74813   74812   74814   74815   74816
   74815   74817   74818   74819   74818   74820   74821   74822
   74821   74823   74824   74825   74824   74826   74827   74828
   74827   74829   74830   74831   74830   74832   74833   74834
   74833   74835   74836   74837   74836   74838   74839   74840
   74839   74841   74842   74843   74842   74844   74845   74846
   74845   74847   74848   74849   74848   74850   74851   74852
   74851   74853   74854   74855   74854   74856   74857   74858
   74857   74859   74860   74861   74860   74862   74863   74864
   74863   74865   74866   74867   74866   74868   74869   74870
   74869   74871   74872   74873   74872   74874   74875   74876
   74875   74877   74878   74879   74878   74880   74881   74882
   74881   74883   74884   74885   74884   74886   74887   74888
   74887   74889   74890   74891   74890   74892   74893   74894
   74893   74895   74896   74897   74896   74898   74899   74900
   74899   74901   74902   74903   74902   74904   74905   74906
   74905   74907   74908   74909   74908   74910   74911   74912
   74911   74913   74914   74915   74914   74916   74917   74918
   74917   74919   74920   74921   74920   74922   74923   74924
   74923   74925   74926   74927   74926   74928   74929   74930
   74929   74931   74932   74933   74932   74934   74935   74936
   74935   74937   74938   74939   74938   74940   74941   74942
   74941   74943   74944   74945   74944   74946   74947   74948
   74947   74949   74950   74951   74950   74952   74953   74954
   74953   74955   74956   74957   74956   74958   74959   74960
   74959   74961   74962   74963   74962   74964   74965   74966
   74965   74967   74968   74969   74968   74970   74971   74972
   74971   74973   74974   74975   74974   74976   74977   74978
   74977   74979   74980   74981   74980   74982   74983   74984
   74983   74985   74986   74987   74986   74988   74989   74990
   74989   74991   74992   74993   74992   74994   74995   74996
   74995   74997   74998   74999   74998   75000   75001   75002
   75001   75003   75004   75005   75004   75006   75007   75008
   75007   75009   75010   75011   75010   75012   75013   75014
   75013   75015   75016   75017   75016   75018   75019   75020
   75019   75021   75022   75023   75022   75024   75025   75026
   75025   75027   75028   75029   75028   75030   75031   75032
   75031   75033   75034   75035   75034   75036   75037   75038
   75037   75039   75040   75041   75040   75042   75043   75044
   75043   75045   75046   75047   75046   75048   75049   75050
   75049   75051   75052   75053   75052   75054   75055   75056
   75055   75057   75058   75059   75058   75060   75061   75062
   75061   75063   75064   75065   75064   75066   75067   75068
   75067   75069   75070   75071   75070   75072   75073   75074
   75073   75075   75076   75077   75076   75078   75079   75080
   75079   75081   75082   75083   75082   75084   75085   75086
   75085   75087   75088   75089   75088   75090   75091   75092
   75091   75093   75094   75095   75094   75096   75097   75098
   75097   75099   75100   75101   75100   75102   75103   75104
   75103   75105   75106   75107   75106   75108   75109   75110
   75109   75111   75112   75113   75112   75114   75115   75116
   75115   75117   75118   75119   75118   75120   75121   75122
   75121   75123   75124   75125   75124   75126   75127   75128
   75127   75129   75130   75131   75130   75132   75133   75134
   75133   75135   75136   75137   75136   75138   75139   75140
   75139   75141   75142   75143   75142   75144   75145   75146
   75145   75147   75148   75149   75148   75150   75151   75152
   75151   75153   75154   75155   75154   75156   75157   75158
   75157   75159   75160   75161   75160   75162   75163   75164
   75163   75165   75166   75167   75166   75168   75169   75170
   75169   75171   75172   75173   75172   75174   75175   75176
   75175   75177   75178   75179   75178   75180   75181   75182
   75181   75183   75184   75185   75184   75186   75187   75188
   75187   75189   75190   75191   75190   75192   75193   75194
   75193   75195   75196   75197   75196   75198   75199   75200
   75199   75201   75202   75203   75202   75204   75205   75206
   75205   75207   75208   75209   75208   75210   75211   75212
   75211   75213   75214   75215   75214   75216   75217   75218
   75217   75219   75220   75221   75220   75222   75223   75224
   75223   75225   75226   75227   75226   75228   75229   75230
   75229   75231   75232   75233   75232   75234   75235   75236
   75235   75237   75238   75239   75238   75240   75241   75242
   75241   75243   75244   75245   75244   75246   75247   75248
   75247   75249   75250   75251   75250   75252   75253   75254
   75253   75255   75256   75257   75256   75258   75259   75260
   75259   75261   75262   75263   75262   75264   75265   75266
   75265   75267   75268   75269   75268   75270   75271   75272
   75271   75273   75274   75275   75274   75276   75277   75278
   75277   75279   75280   75281   75280   75282   75283   75284
   75283   75285   75286   75287   75286   75288   75289   75290
   75289   75291   75292   75293   75292   75294   75295   75296
   75295   75297   75298   75299   75298   75300   75301   75302
   75301   75303   75304   75305   75304   75306   75307   75308
   75307   75309   75310   75311   75310   75312   75313   75314
   75313   75315   75316   75317   75316   75318   75319   75320
   75319   75321   75322   75323   75322   75324   75325   75326
   75325   75327   75328   75329   75328   75330   75331   75332
   75331   75333   75334   75335   75334   75336   75337   75338
   75337   75339   75340   75341   75340   75342   75343   75344
   75343   75345   75346   75347   75346   75348   75349   75350
   75349   75351   75352   75353   75352   75354   75355   75356
   75355   75357   75358   75359   75358   75360   75361   75362
   75361   75363   75364   75365   75364   75366   75367   75368
   75367   75369   75370   75371   75370   75372   75373   75374
   75373   75375   75376   75377   75376   75378   75379   75380
   75379   75381   75382   75383   75382   75384   75385   75386
   75385   75387   75388   75389   75388   75390   75391   75392
   75391   75393   75394   75395   75394   75396   75397   75398
   75397   75399   75400   75401   75400   75402   75403   75404
   75403   75405   75406   75407   75406   75408   75409   75410
   75409   75411   75412   75413   75412   75414   75415   75416
   75415   75417   75418   75419   75418   75420   75421   75422
   75421   75423   75424   75425   75424   75426   75427   75428
   75427   75429   75430   75431   75430   75432   75433   75434
   75433   75435   75436   75437   75436   75438   75439   75440
   75439   75441   75442   75443   75442   75444   75445   75446
   75445   75447   75448   75449   75448   75450   75451   75452
   75451   75453   75454   75455   75454   75456   75457   75458
   75457   75459   75460   75461   75460   75462   75463   75464
   75463   75465   75466   75467   75466   75468   75469   75470
   75469   75471   75472   75473   75472   75474   75475   75476
   75475   75477   75478   75479   75478   75480   75481   75482
   75481   75483   75484   75485   75484   75486   75487   75488
   75487   75489   75490   75491   75490   75492   75493   75494
   75493   75495   75496   75497   75496   75498   75499   75500
   75499   75501   75502   75503   75502   75504   75505   75506
   75505   75507   75508   75509   75508   75510   75511   75512
   75511   75513   75514   75515   75514   75516   75517   75518
   75517   75519   75520   75521   75520   75522   75523   75524
   75523   75525   75526   75527   75526   75528   75529   75530
   75529   75531   75532   75533   75532   75534   75535   75536
   75535   75537   75538   75539   75538   75540   75541   75542
   75541   75543   75544   75545   75544   75546   75547   75548
   75547   75549   75550   75551   75550   75552   75553   75554
   75553   75555   75556   75557   75556   75558   75559   75560
   75559   75561   75562   75563   75562   75564   75565   75566
   75565   75567   75568   75569   75568   75570   75571   75572
   75571   75573   75574   75575   75574   75576   75577   75578
   75577   75579   75580   75581   75580   75582   75583   75584
   75583   75585   75586   75587   75586   75588   75589   75590
   75589   75591   75592   75593   75592   75594   75595   75596
   75595   75597   75598   75599   75598   75600   75601   75602
   75601   75603   75604   75605   75604   75606   75607   75608
   75607   75609   75610   75611   75610   75612   75613   75614
   75613   75615   75616   75617   75616   75618   75619   75620
   75619   75621   75622   75623   75622   75624   75625   75626
   75625   75627   75628   75629   75628   75630   75631   75632
   75631   75633   75634   75635   75634   75636   75637   75638
   75637   75639   75640   75641   75640   75642   75643   75644
   75643   75645   75646   75647   75646   75648   75649   75650
   75649   75651   75652   75653   75652   75654   75655   75656
   75655   75657   75658   75659   75658   75660   75661   75662
   75661   75663   75664   75665   75664   75666   75667   75668
   75667   75669   75670   75671   75670   75672   75673   75674
   75673   75675   75676   75677   75676   75678   75679   75680
   75679   75681   75682   75683   75682   75684   75685   75686
   75685   75687   75688   75689   75688   75690   75691   75692
   75691   75693   75694   75695   75694   75696   75697   75698
   75697   75699   75700   75701   75700   75702   75703   75704
   75703   75705   75706   75707   75706   75708   75709   75710
   75709   75711   75712   75713   75712   75714   75715   75716
   75715   75717   75718   75719   75718   75720   75721   75722
   75721   75723   75724   75725   75724   75726   75727   75728
   75727   75729   75730   75731   75730   75732   75733   75734
   75733   75735   75736   75737   75736   75738   75739   75740
   75739   75741   75742   75743   75742   75744   75745   75746
   75745   75747   75748   75749   75748   75750   75751   75752
   75751   75753   75754   75755   75754   75756   75757   75758
   75757   75759   75760   75761   75760   75762   75763   75764
   75763   75765   75766   75767   75766   75768   75769   75770
   75769   75771   75772   75773   75772   75774   75775   75776
   75775   75777   75778   75779   75778   75780   75781   75782
   75781   75783   75784   75785   75784   75786   75787   75788
   75787   75789   75790   75791   75790   75792   75793   75794
   75793   75795   75796   75797   75796   75798   75799   75800
   75799   75801   75802   75803   75802   75804   75805   75806
   75805   75807   75808   75809   75808   75810   75811   75812
   75811   75813   75814   75815   75814   75816   75817   75818
   75817   75819   75820   75821   75820   75822   75823   75824
   75823   75825   75826   75827   75826   75828   75829   75830
   75829   75831   75832   75833   75832   75834   75835   75836
   75835   75837   75838   75839   75838   75840   75841   75842
   75841   75843   75844   75845   75844   75846   75847   75848
   75847   75849   75850   75851   75850   75852   75853   75854
   75853   75855   75856   75857   75856   75858   75859   75860
   75859   75861   75862   75863   75862   75864   75865   75866
   75865   75867   75868   75869   75868   75870   75871   75872
   75871   75873   75874   75875   75874   75876   75877   75878
   75877   75879   75880   75881   75880   75882   75883   75884
   75883   75885   75886   75887   75886   75888   75889   75890
   75889   75891   75892   75893   75892   75894   75895   75896
   75895   75897   75898   75899   75898   75900   75901   75902
   75901   75903   75904   75905   75904   75906   75907   75908
   75907   75909   75910   75911   75910   75912   75913   75914
   75913   75915   75916   75917   75916   75918   75919   75920
   75919   75921   75922   75923   75922   75924   75925   75926
   75925   75927   75928   75929   75928   75930   75931   75932
   75931   75933   75934   75935   75934   75936   75937   75938
   75937   75939   75940   75941   75940   75942   75943   75944
   75943   75945   75946   75947   75946   75948   75949   75950
   75949   75951   75952   75953   75952   75954   75955   75956
   75955   75957   75958   75959   75958   75960   75961   75962
   75961   75963   75964   75965   75964   75966   75967   75968
   75967   75969   75970   75971   75970   75972   75973   75974
   75973   75975   75976   75977   75976   75978   75979   75980
   75979   75981   75982   75983   75982   75984   75985   75986
   75985   75987   75988   75989   75988   75990   75991   75992
   75991   75993   75994   75995   75994   75996   75997   75998
   75997   75999   76000   76001   76000   76002   76003   76004
   76003   76005   76006   76007   76006   76008   76009   76010
   76009   76011   76012   76013   76012   76014   76015   76016
   76015   76017   76018   76019   76018   76020   76021   76022
   76021   76023   76024   76025   76024   76026   76027   76028
   76027   76029   76030   76031   76030   76032   76033   76034
   76033   76035   76036   76037   76036   76038   76039   76040
   76039   76041   76042   76043   76042   76044   76045   76046
   76045   76047   76048   76049   76048   76050   76051   76052
   76051   76053   76054   76055   76054   76056   76057   76058
   76057   76059   76060   76061   76060   76062   76063   76064
   76063   76065   76066   76067   76066   76068   76069   76070
   76069   76071   76072   76073   76072   76074   76075   76076
   76075   76077   76078   76079   76078   76080   76081   76082
   76081   76083   76084   76085   76084   76086   76087   76088
   76087   76089   76090   76091   76090   76092   76093   76094
   76093   76095   76096   76097   76096   76098   76099   76100
   76099   76101   76102   76103   76102   76104   76105   76106
   76105   76107   76108   76109   76108   76110   76111   76112
   76111   76113   76114   76115   76114   76116   76117   76118
   76117   76119   76120   76121   76120   76122   76123   76124
   76123   76125   76126   76127   76126   76128   76129   76130
   76129   76131   76132   76133   76132   76134   76135   76136
   76135   76137   76138   76139   76138   76140   76141   76142
   76141   76143   76144   76145   76144   76146   76147   76148
   76147   76149   76150   76151   76150   76152   76153   76154
   76153   76155   76156   76157   76156   76158   76159   76160
   76159   76161   76162   76163   76162   76164   76165   76166
   76165   76167   76168   76169   76168   76170   76171   76172
   76171   76173   76174   76175   76174   76176   76177   76178
   76177   76179   76180   76181   76180   76182   76183   76184
   76183   76185   76186   76187   76186   76188   76189   76190
   76189   76191   76192   76193   76192   76194   76195   76196
   76195   76197   76198   76199   76198   76200   76201   76202
   76201   76203   76204   76205   76204   76206   76207   76208
   76207   76209   76210   76211   76210   76212   76213   76214
   76213   76215   76216   76217   76216   76218   76219   76220
   76219   76221   76222   76223   76222   76224   76225   76226
   76225   76227   76228   76229   76228   76230   76231   76232
   76231   76233   76234   76235   76234   76236   76237   76238
   76237   76239   76240   76241   76240   76242   76243   76244
   76243   76245   76246   76247   76246   76248   76249   76250
   76249   76251   76252   76253   76252   76254   76255   76256
   76255   76257   76258   76259   76258   76260   76261   76262
   76261   76263   76264   76265   76264   76266   76267   76268
   76267   76269   76270   76271   76270   76272   76273   76274
   76273   76275   76276   76277   76276   76278   76279   76280
   76279   76281   76282   76283   76282   76284   76285   76286
   76285   76287   76288   76289   76288   76290   76291   76292
   76291   76293   76294   76295   76294   76296   76297   76298
   76297   76299   76300   76301   76300   76302   76303   76304
   76303   76305   76306   76307   76306   76308   76309   76310
   76309   76311   76312   76313   76312   76314   76315   76316
   76315   76317   76318   76319   76318   76320   76321   76322
   76321   76323   76324   76325   76324   76326   76327   76328
   76327   76329   76330   76331   76330   76332   76333   76334
   76333   76335   76336   76337   76336   76338   76339   76340
   76339   76341   76342   76343   76342   76344   76345   76346
   76345   76347   76348   76349   76348   76350   76351   76352
   76351   76353   76354   76355   76354   76356   76357   76358
   76357   76359   76360   76361   76360   76362   76363   76364
   76363   76365   76366   76367   76366   76368   76369   76370
   76369   76371   76372   76373   76372   76374   76375   76376
   76375   76377   76378   76379   76378   76380   76381   76382
   76381   76383   76384   76385   76384   76386   76387   76388
   76387   76389   76390   76391   76390   76392   76393   76394
   76393   76395   76396   76397   76396   76398   76399   76400
   76399   76401   76402   76403   76402   76404   76405   76406
   76405   76407   76408   76409   76408   76410   76411   76412
   76411   76413   76414   76415   76414   76416   76417   76418
   76417   76419   76420   76421   76420   76422   76423   76424
   76423   76425   76426   76427   76426   76428   76429   76430
   76429   76431   76432   76433   76432   76434   76435   76436
   76435   76437   76438   76439   76438   76440   76441   76442
   76441   76443   76444   76445   76444   76446   76447   76448
   76447   76449   76450   76451   76450   76452   76453   76454
   76453   76455   76456   76457   76456   76458   76459   76460
   76459   76461   76462   76463   76462   76464   76465   76466
   76465   76467   76468   76469   76468   76470   76471   76472
   76471   76473   76474   76475   76474   76476   76477   76478
   76477   76479   76480   76481   76480   76482   76483   76484
   76483   76485   76486   76487   76486   76488   76489   76490
   76489   76491   76492   76493   76492   76494   76495   76496
   76495   76497   76498   76499   76498   76500   76501   76502
   76501   76503   76504   76505   76504   76506   76507   76508
   76507   76509   76510   76511   76510   76512   76513   76514
   76513   76515   76516   76517   76516   76518   76519   76520
   76519   76521   76522   76523   76522   76524   76525   76526
   76525   76527   76528   76529   76528   76530   76531   76532
   76531   76533   76534   76535   76534   76536   76537   76538
   76537   76539   76540   76541   76540   76542   76543   76544
   76543   76545   76546   76547   76546   76548   76549   76550
   76549   76551   76552   76553   76552   76554   76555   76556
   76555   76557   76558   76559   76558   76560   76561   76562
   76561   76563   76564   76565   76564   76566   76567   76568
   76567   76569   76570   76571   76570   76572   76573   76574
   76573   76575   76576   76577   76576   76578   76579   76580
   76579   76581   76582   76583   76582   76584   76585   76586
   76585   76587   76588   76589   76588   76590   76591   76592
   76591   76593   76594   76595   76594   76596   76597   76598
   76597   76599   76600   76601   76600   76602   76603   76604
   76603   76605   76606   76607   76606   76608   76609   76610
   76609   76611   76612   76613   76612   76614   76615   76616
   76615   76617   76618   76619   76618   76620   76621   76622
   76621   76623   76624   76625   76624   76626   76627   76628
   76627   76629   76630   76631   76630   76632   76633   76634
   76633   76635   76636   76637   76636   76638   76639   76640
   76639   76641   76642   76643   76642   76644   76645   76646
   76645   76647   76648   76649   76648   76650   76651   76652
   76651   76653   76654   76655   76654   76656   76657   76658
   76657   76659   76660   76661   76660   76662   76663   76664
   76663   76665   76666   76667   76666   76668   76669   76670
   76669   76671   76672   76673   76672   76674   76675   76676
   76675   76677   76678   76679   76678   76680   76681   76682
   76681   76683   76684   76685   76684   76686   76687   76688
   76687   76689   76690   76691   76690   76692   76693   76694
   76693   76695   76696   76697   76696   76698   76699   76700
   76699   76701   76702   76703   76702   76704   76705   76706
   76705   76707   76708   76709   76708   76710   76711   76712
   76711   76713   76714   76715   76714   76716   76717   76718
   76717   76719   76720   76721   76720   76722   76723   76724
   76723   76725   76726   76727   76726   76728   76729   76730
   76729   76731   76732   76733   76732   76734   76735   76736
   76735   76737   76738   76739   76738   76740   76741   76742
   76741   76743   76744   76745   76744   76746   76747   76748
   76747   76749   76750   76751   76750   76752   76753   76754
   76753   76755   76756   76757   76756   76758   76759   76760
   76759   76761   76762   76763   76762   76764   76765   76766
   76765   76767   76768   76769   76768   76770   76771   76772
   76771   76773   76774   76775   76774   76776   76777   76778
   76777   76779   76780   76781   76780   76782   76783   76784
   76783   76785   76786   76787   76786   76788   76789   76790
   76789   76791   76792   76793   76792   76794   76795   76796
   76795   76797   76798   76799   76798   76800   76801   76802
   76801   76803   76804   76805   76804   76806   76807   76808
   76807   76809   76810   76811   76810   76812   76813   76814
   76813   76815   76816   76817   76816   76818   76819   76820
   76819   76821   76822   76823   76822   76824   76825   76826
   76825   76827   76828   76829   76828   76830   76831   76832
   76831   76833   76834   76835   76834   76836   76837   76838
   76837   76839   76840   76841   76840   76842   76843   76844
   76843   76845   76846   76847   76846   76848   76849   76850
   76849   76851   76852   76853   76852   76854   76855   76856
   76855   76857   76858   76859   76858   76860   76861   76862
   76861   76863   76864   76865   76864   76866   76867   76868
   76867   76869   76870   76871   76870   76872   76873   76874
   76873   76875   76876   76877   76876   76878   76879   76880
   76879   76881   76882   76883   76882   76884   76885   76886
   76885   76887   76888   76889   76888   76890   76891   76892
   76891   76893   76894   76895   76894   76896   76897   76898
   76897   76899   76900   76901   76900   76902   76903   76904
   76903   76905   76906   76907   76906   76908   76909   76910
   76909   76911   76912   76913   76912   76914   76915   76916
   76915   76917   76918   76919   76918   76920   76921   76922
   76921   76923   76924   76925   76924   76926   76927   76928
   76927   76929   76930   76931   76930   76932   76933   76934
   76933   76935   76936   76937   76936   76938   76939   76940
   76939   76941   76942   76943   76942   76944   76945   76946
   76945   76947   76948   76949   76948   76950   76951   76952
   76951   76953   76954   76955   76954   76956   76957   76958
   76957   76959   76960   76961   76960   76962   76963   76964
   76963   76965   76966   76967   76966   76968   76969   76970
   76969   76971   76972   76973   76972   76974   76975   76976
   76975   76977   76978   76979   76978   76980   76981   76982
   76981   76983   76984   76985   76984   76986   76987   76988
   76987   76989   76990   76991   76990   76992   76993   76994
   76993   76995   76996   76997   76996   76998   76999   77000
   76999   77001   77002   77003   77002   77004   77005   77006
   77005   77007   77008   77009   77008   77010   77011   77012
   77011   77013   77014   77015   77014   77016   77017   77018
   77017   77019   77020   77021   77020   77022   77023   77024
   77023   77025   77026   77027   77026   77028   77029   77030
   77029   77031   77032   77033   77032   77034   77035   77036
   77035   77037   77038   77039   77038   77040   77041   77042
   77041   77043   77044   77045   77044   77046   77047   77048
   77047   77049   77050   77051   77050   77052   77053   77054
   77053   77055   77056   77057   77056   77058   77059   77060
   77059   77061   77062   77063   77062   77064   77065   77066
   77065   77067   77068   77069   77068   77070   77071   77072
   77071   77073   77074   77075   77074   77076   77077   77078
   77077   77079   77080   77081   77080   77082   77083   77084
   77083   77085   77086   77087   77086   77088   77089   77090
   77089   77091   77092   77093   77092   77094   77095   77096
   77095   77097   77098   77099   77098   77100   77101   77102
   77101   77103   77104   77105   77104   77106   77107   77108
   77107   77109   77110   77111   77110   77112   77113   77114
   77113   77115   77116   77117   77116   77118   77119   77120
   77119   77121   77122   77123   77122   77124   77125   77126
   77125   77127   77128   77129   77128   77130   77131   77132
   77131   77133   77134   77135   77134   77136   77137   77138
   77137   77139   77140   77141   77140   77142   77143   77144
   77143   77145   77146   77147   77146   77148   77149   77150
   77149   77151   77152   77153   77152   77154   77155   77156
   77155   77157   77158   77159   77158   77160   77161   77162
   77161   77163   77164   77165   77164   77166   77167   77168
   77167   77169   77170   77171   77170   77172   77173   77174
   77173   77175   77176   77177   77176   77178   77179   77180
   77179   77181   77182   77183   77182   77184   77185   77186
   77185   77187   77188   77189   77188   77190   77191   77192
   77191   77193   77194   77195   77194   77196   77197   77198
   77197   77199   77200   77201   77200   77202   77203   77204
   77203   77205   77206   77207   77206   77208   77209   77210
   77209   77211   77212   77213   77212   77214   77215   77216
   77215   77217   77218   77219   77218   77220   77221   77222
   77221   77223   77224   77225   77224   77226   77227   77228
   77227   77229   77230   77231   77230   77232   77233   77234
   77233   77235   77236   77237   77236   77238   77239   77240
   77239   77241   77242   77243   77242   77244   77245   77246
   77245   77247   77248   77249   77248   77250   77251   77252
   77251   77253   77254   77255   77254   77256   77257   77258
   77257   77259   77260   77261   77260   77262   77263   77264
   77263   77265   77266   77267   77266   77268   77269   77270
   77269   77271   77272   77273   77272   77274   77275   77276
   77275   77277   77278   77279   77278   77280   77281   77282
   77281   77283   77284   77285   77284   77286   77287   77288
   77287   77289   77290   77291   77290   77292   77293   77294
   77293   77295   77296   77297   77296   77298   77299   77300
   77299   77301   77302   77303   77302   77304   77305   77306
   77305   77307   77308   77309   77308   77310   77311   77312
   77311   77313   77314   77315   77314   77316   77317   77318
   77317   77319   77320   77321   77320   77322   77323   77324
   77323   77325   77326   77327   77326   77328   77329   77330
   77329   77331   77332   77333   77332   77334   77335   77336
   77335   77337   77338   77339   77338   77340   77341   77342
   77341   77343   77344   77345   77344   77346   77347   77348
   77347   77349   77350   77351   77350   77352   77353   77354
   77353   77355   77356   77357   77356   77358   77359   77360
   77359   77361   77362   77363   77362   77364   77365   77366
   77365   77367   77368   77369   77368   77370   77371   77372
   77371   77373   77374   77375   77374   77376   77377   77378
   77377   77379   77380   77381   77380   77382   77383   77384
   77383   77385   77386   77387   77386   77388   77389   77390
   77389   77391   77392   77393   77392   77394   77395   77396
   77395   77397   77398   77399   77398   77400   77401   77402
   77401   77403   77404   77405   77404   77406   77407   77408
   77407   77409   77410   77411   77410   77412   77413   77414
   77413   77415   77416   77417   77416   77418   77419   77420
   77419   77421   77422   77423   77422   77424   77425   77426
   77425   77427   77428   77429   77428   77430   77431   77432
   77431   77433   77434   77435   77434   77436   77437   77438
   77437   77439   77440   77441   77440   77442   77443   77444
   77443   77445   77446   77447   77446   77448   77449   77450
   77449   77451   77452   77453   77452   77454   77455   77456
   77455   77457   77458   77459   77458   77460   77461   77462
   77461   77463   77464   77465   77464   77466   77467   77468
   77467   77469   77470   77471   77470   77472   77473   77474
   77473   77475   77476   77477   77476   77478   77479   77480
   77479   77481   77482   77483   77482   77484   77485   77486
   77485   77487   77488   77489   77488   77490   77491   77492
   77491   77493   77494   77495   77494   77496   77497   77498
   77497   77499   77500   77501   77500   77502   77503   77504
   77503   77505   77506   77507   77506   77508   77509   77510
   77509   77511   77512   77513   77512   77514   77515   77516
   77515   77517   77518   77519   77518   77520   77521   77522
   77521   77523   77524   77525   77524   77526   77527   77528
   77527   77529   77530   77531   77530   77532   77533   77534
   77533   77535   77536   77537   77536   77538   77539   77540
   77539   77541   77542   77543   77542   77544   77545   77546
   77545   77547   77548   77549   77548   77550   77551   77552
   77551   77553   77554   77555   77554   77556   77557   77558
   77557   77559   77560   77561   77560   77562   77563   77564
   77563   77565   77566   77567   77566   77568   77569   77570
   77569   77571   77572   77573   77572   77574   77575   77576
   77575   77577   77578   77579   77578   77580   77581   77582
   77581   77583   77584   77585   77584   77586   77587   77588
   77587   77589   77590   77591   77590   77592   77593   77594
   77593   77595   77596   77597   77596   77598   77599   77600
   77599   77601   77602   77603   77602   77604   77605   77606
   77605   77607   77608   77609   77608   77610   77611   77612
   77611   77613   77614   77615   77614   77616   77617   77618
   77617   77619   77620   77621   77620   77622   77623   77624
   77623   77625   77626   77627   77626   77628   77629   77630
   77629   77631   77632   77633   77632   77634   77635   77636
   77635   77637   77638   77639   77638   77640   77641   77642
   77641   77643   77644   77645   77644   77646   77647   77648
   77647   77649   77650   77651   77650   77652   77653   77654
   77653   77655   77656   77657   77656   77658   77659   77660
   77659   77661   77662   77663   77662   77664   77665   77666
   77665   77667   77668   77669   77668   77670   77671   77672
   77671   77673   77674   77675   77674   77676   77677   77678
   77677   77679   77680   77681   77680   77682   77683   77684
   77683   77685   77686   77687   77686   77688   77689   77690
   77689   77691   77692   77693   77692   77694   77695   77696
   77695   77697   77698   77699   77698   77700   77701   77702
   77701   77703   77704   77705   77704   77706   77707   77708
   77707   77709   77710   77711   77710   77712   77713   77714
   77713   77715   77716   77717   77716   77718   77719   77720
   77719   77721   77722   77723   77722   77724   77725   77726
   77725   77727   77728   77729   77728   77730   77731   77732
   77731   77733   77734   77735   77734   77736   77737   77738
   77737   77739   77740   77741   77740   77742   77743   77744
   77743   77745   77746   77747   77746   77748   77749   77750
   77749   77751   77752   77753   77752   77754   77755   77756
   77755   77757   77758   77759   77758   77760   77761   77762
   77761   77763   77764   77765   77764   77766   77767   77768
   77767   77769   77770   77771   77770   77772   77773   77774
   77773   77775   77776   77777   77776   77778   77779   77780
   77779   77781   77782   77783   77782   77784   77785   77786
   77785   77787   77788   77789   77788   77790   77791   77792
   77791   77793   77794   77795   77794   77796   77797   77798
   77797   77799   77800   77801   77800   77802   77803   77804
   77803   77805   77806   77807   77806   77808   77809   77810
   77809   77811   77812   77813   77812   77814   77815   77816
   77815   77817   77818   77819   77818   77820   77821   77822
   77821   77823   77824   77825   77824   77826   77827   77828
   77827   77829   77830   77831   77830   77832   77833   77834
   77833   77835   77836   77837   77836   77838   77839   77840
   77839   77841   77842   77843   77842   77844   77845   77846
   77845   77847   77848   77849   77848   77850   77851   77852
   77851   77853   77854   77855   77854   77856   77857   77858
   77857   77859   77860   77861   77860   77862   77863   77864
   77863   77865   77866   77867   77866   77868   77869   77870
   77869   77871   77872   77873   77872   77874   77875   77876
   77875   77877   77878   77879   77878   77880   77881   77882
   77881   77883   77884   77885   77884   77886   77887   77888
   77887   77889   77890   77891   77890   77892   77893   77894
   77893   77895   77896   77897   77896   77898   77899   77900
   77899   77901   77902   77903   77902   77904   77905   77906
   77905   77907   77908   77909   77908   77910   77911   77912
   77911   77913   77914   77915   77914   77916   77917   77918
   77917   77919   77920   77921   77920   77922   77923   77924
   77923   77925   77926   77927   77926   77928   77929   77930
   77929   77931   77932   77933   77932   77934   77935   77936
   77935   77937   77938   77939   77938   77940   77941   77942
   77941   77943   77944   77945   77944   77946   77947   77948
   77947   77949   77950   77951   77950   77952   77953   77954
   77953   77955   77956   77957   77956   77958   77959   77960
   77959   77961   77962   77963   77962   77964   77965   77966
   77965   77967   77968   77969   77968   77970   77971   77972
   77971   77973   77974   77975   77974   77976   77977   77978
   77977   77979   77980   77981   77980   77982   77983   77984
   77983   77985   77986   77987   77986   77988   77989   77990
   77989   77991   77992   77993   77992   77994   77995   77996
   77995   77997   77998   77999   77998   78000   78001   78002
   78001   78003   78004   78005   78004   78006   78007   78008
   78007   78009   78010   78011   78010   78012   78013   78014
   78013   78015   78016   78017   78016   78018   78019   78020
   78019   78021   78022   78023   78022   78024   78025   78026
   78025   78027   78028   78029   78028   78030   78031   78032
   78031   78033   78034   78035   78034   78036   78037   78038
   78037   78039   78040   78041   78040   78042   78043   78044
   78043   78045   78046   78047   78046   78048   78049   78050
   78049   78051   78052   78053   78052   78054   78055   78056
   78055   78057   78058   78059   78058   78060   78061   78062
   78061   78063   78064   78065   78064   78066   78067   78068
   78067   78069   78070   78071   78070   78072   78073   78074
   78073   78075   78076   78077   78076   78078   78079   78080
   78079   78081   78082   78083   78082   78084   78085   78086
   78085   78087   78088   78089   78088   78090   78091   78092
   78091   78093   78094   78095   78094   78096   78097   78098
   78097   78099   78100   78101   78100   78102   78103   78104
   78103   78105   78106   78107   78106   78108   78109   78110
   78109   78111   78112   78113   78112   78114   78115   78116
   78115   78117   78118   78119   78118   78120   78121   78122
   78121   78123   78124   78125   78124   78126   78127   78128
   78127   78129   78130   78131   78130   78132   78133   78134
   78133   78135   78136   78137   78136   78138   78139   78140
   78139   78141   78142   78143   78142   78144   78145   78146
   78145   78147   78148   78149   78148   78150   78151   78152
   78151   78153   78154   78155   78154   78156   78157   78158
   78157   78159   78160   78161   78160   78162   78163   78164
   78163   78165   78166   78167   78166   78168   78169   78170
   78169   78171   78172   78173   78172   78174   78175   78176
   78175   78177   78178   78179   78178   78180   78181   78182
   78181   78183   78184   78185   78184   78186   78187   78188
   78187   78189   78190   78191   78190   78192   78193   78194
   78193   78195   78196   78197   78196   78198   78199   78200
   78199   78201   78202   78203   78202   78204   78205   78206
   78205   78207   78208   78209   78208   78210   78211   78212
   78211   78213   78214   78215   78214   78216   78217   78218
   78217   78219   78220   78221   78220   78222   78223   78224
   78223   78225   78226   78227   78226   78228   78229   78230
   78229   78231   78232   78233   78232   78234   78235   78236
   78235   78237   78238   78239   78238   78240   78241   78242
   78241   78243   78244   78245   78244   78246   78247   78248
   78247   78249   78250   78251   78250   78252   78253   78254
   78253   78255   78256   78257   78256   78258   78259   78260
   78259   78261   78262   78263   78262   78264   78265   78266
   78265   78267   78268   78269   78268   78270   78271   78272
   78271   78273   78274   78275   78274   78276   78277   78278
   78277   78279   78280   78281   78280   78282   78283   78284
   78283   78285   78286   78287   78286   78288   78289   78290
   78289   78291   78292   78293   78292   78294   78295   78296
   78295   78297   78298   78299   78298   78300   78301   78302
   78301   78303   78304   78305   78304   78306   78307   78308
   78307   78309   78310   78311   78310   78312   78313   78314
   78313   78315   78316   78317   78316   78318   78319   78320
   78319   78321   78322   78323   78322   78324   78325   78326
   78325   78327   78328   78329   78328   78330   78331   78332
   78331   78333   78334   78335   78334   78336   78337   78338
   78337   78339   78340   78341   78340   78342   78343   78344
   78343   78345   78346   78347   78346   78348   78349   78350
   78349   78351   78352   78353   78352   78354   78355   78356
   78355   78357   78358   78359   78358   78360   78361   78362
   78361   78363   78364   78365   78364   78366   78367   78368
   78367   78369   78370   78371   78370   78372   78373   78374
   78373   78375   78376   78377   78376   78378   78379   78380
   78379   78381   78382   78383   78382   78384   78385   78386
   78385   78387   78388   78389   78388   78390   78391   78392
   78391   78393   78394   78395   78394   78396   78397   78398
   78397   78399   78400   78401   78400   78402   78403   78404
   78403   78405   78406   78407   78406   78408   78409   78410
   78409   78411   78412   78413   78412   78414   78415   78416
   78415   78417   78418   78419   78418   78420   78421   78422
   78421   78423   78424   78425   78424   78426   78427   78428
   78427   78429   78430   78431   78430   78432   78433   78434
   78433   78435   78436   78437   78436   78438   78439   78440
   78439   78441   78442   78443   78442   78444   78445   78446
   78445   78447   78448   78449   78448   78450   78451   78452
   78451   78453   78454   78455   78454   78456   78457   78458
   78457   78459   78460   78461   78460   78462   78463   78464
   78463   78465   78466   78467   78466   78468   78469   78470
   78469   78471   78472   78473   78472   78474   78475   78476
   78475   78477   78478   78479   78478   78480   78481   78482
   78481   78483   78484   78485   78484   78486   78487   78488
   78487   78489   78490   78491   78490   78492   78493   78494
   78493   78495   78496   78497   78496   78498   78499   78500
   78499   78501   78502   78503   78502   78504   78505   78506
   78505   78507   78508   78509   78508   78510   78511   78512
   78511   78513   78514   78515   78514   78516   78517   78518
   78517   78519   78520   78521   78520   78522   78523   78524
   78523   78525   78526   78527   78526   78528   78529   78530
   78529   78531   78532   78533   78532   78534   78535   78536
   78535   78537   78538   78539   78538   78540   78541   78542
   78541   78543   78544   78545   78544   78546   78547   78548
   78547   78549   78550   78551   78550   78552   78553   78554
   78553   78555   78556   78557   78556   78558   78559   78560
   78559   78561   78562   78563   78562   78564   78565   78566
   78565   78567   78568   78569   78568   78570   78571   78572
   78571   78573   78574   78575   78574   78576   78577   78578
   78577   78579   78580   78581   78580   78582   78583   78584
   78583   78585   78586   78587   78586   78588   78589   78590
   78589   78591   78592   78593   78592   78594   78595   78596
   78595   78597   78598   78599   78598   78600   78601   78602
   78601   78603   78604   78605   78604   78606   78607   78608
   78607   78609   78610   78611   78610   78612   78613   78614
   78613   78615   78616   78617   78616   78618   78619   78620
   78619   78621   78622   78623   78622   78624   78625   78626
   78625   78627   78628   78629   78628   78630   78631   78632
   78631   78633   78634   78635   78634   78636   78637   78638
   78637   78639   78640   78641   78640   78642   78643   78644
   78643   78645   78646   78647   78646   78648   78649   78650
   78649   78651   78652   78653   78652   78654   78655   78656
   78655   78657   78658   78659   78658   78660   78661   78662
   78661   78663   78664   78665   78664   78666   78667   78668
   78667   78669   78670   78671   78670   78672   78673   78674
   78673   78675   78676   78677   78676   78678   78679   78680
   78679   78681   78682   78683   78682   78684   78685   78686
   78685   78687   78688   78689   78688   78690   78691   78692
   78691   78693   78694   78695   78694   78696   78697   78698
   78697   78699   78700   78701   78700   78702   78703   78704
   78703   78705   78706   78707   78706   78708   78709   78710
   78709   78711   78712   78713   78712   78714   78715   78716
   78715   78717   78718   78719   78718   78720   78721   78722
   78721   78723   78724   78725   78724   78726   78727   78728
   78727   78729   78730   78731   78730   78732   78733   78734
   78733   78735   78736   78737   78736   78738   78739   78740
   78739   78741   78742   78743   78742   78744   78745   78746
   78745   78747   78748   78749   78748   78750   78751   78752
   78751   78753   78754   78755   78754   78756   78757   78758
   78757   78759   78760   78761   78760   78762   78763   78764
   78763   78765   78766   78767   78766   78768   78769   78770
   78769   78771   78772   78773   78772   78774   78775   78776
   78775   78777   78778   78779   78778   78780   78781   78782
   78781   78783   78784   78785   78784   78786   78787   78788
   78787   78789   78790   78791   78790   78792   78793   78794
   78793   78795   78796   78797   78796   78798   78799   78800
   78799   78801   78802   78803   78802   78804   78805   78806
   78805   78807   78808   78809   78808   78810   78811   78812
   78811   78813   78814   78815   78814   78816   78817   78818
   78817   78819   78820   78821   78820   78822   78823   78824
   78823   78825   78826   78827   78826   78828   78829   78830
   78829   78831   78832   78833   78832   78834   78835   78836
   78835   78837   78838   78839   78838   78840   78841   78842
   78841   78843   78844   78845   78844   78846   78847   78848
   78847   78849   78850   78851   78850   78852   78853   78854
   78853   78855   78856   78857   78856   78858   78859   78860
   78859   78861   78862   78863   78862   78864   78865   78866
   78865   78867   78868   78869   78868   78870   78871   78872
   78871   78873   78874   78875   78874   78876   78877   78878
   78877   78879   78880   78881   78880   78882   78883   78884
   78883   78885   78886   78887   78886   78888   78889   78890
   78889   78891   78892   78893   78892   78894   78895   78896
   78895   78897   78898   78899   78898   78900   78901   78902
   78901   78903   78904   78905   78904   78906   78907   78908
   78907   78909   78910   78911   78910   78912   78913   78914
   78913   78915   78916   78917   78916   78918   78919   78920
   78919   78921   78922   78923   78922   78924   78925   78926
   78925   78927   78928   78929   78928   78930   78931   78932
   78931   78933   78934   78935   78934   78936   78937   78938
   78937   78939   78940   78941   78940   78942   78943   78944
   78943   78945   78946   78947   78946   78948   78949   78950
   78949   78951   78952   78953   78952   78954   78955   78956
   78955   78957   78958   78959   78958   78960   78961   78962
   78961   78963   78964   78965   78964   78966   78967   78968
   78967   78969   78970   78971   78970   78972   78973   78974
   78973   78975   78976   78977   78976   78978   78979   78980
   78979   78981   78982   78983   78982   78984   78985   78986
   78985   78987   78988   78989   78988   78990   78991   78992
   78991   78993   78994   78995   78994   78996   78997   78998
   78997   78999   79000   79001   79000   79002   79003   79004
   79003   79005   79006   79007   79006   79008   79009   79010
   79009   79011   79012   79013   79012   79014   79015   79016
   79015   79017   79018   79019   79018   79020   79021   79022
   79021   79023   79024   79025   79024   79026   79027   79028
   79027   79029   79030   79031   79030   79032   79033   79034
   79033   79035   79036   79037   79036   79038   79039   79040
   79039   79041   79042   79043   79042   79044   79045   79046
   79045   79047   79048   79049   79048   79050   79051   79052
   79051   79053   79054   79055   79054   79056   79057   79058
   79057   79059   79060   79061   79060   79062   79063   79064
   79063   79065   79066   79067   79066   79068   79069   79070
   79069   79071   79072   79073   79072   79074   79075   79076
   79075   79077   79078   79079   79078   79080   79081   79082
   79081   79083   79084   79085   79084   79086   79087   79088
   79087   79089   79090   79091   79090   79092   79093   79094
   79093   79095   79096   79097   79096   79098   79099   79100
   79099   79101   79102   79103   79102   79104   79105   79106
   79105   79107   79108   79109   79108   79110   79111   79112
   79111   79113   79114   79115   79114   79116   79117   79118
   79117   79119   79120   79121   79120   79122   79123   79124
   79123   79125   79126   79127   79126   79128   79129   79130
   79129   79131   79132   79133   79132   79134   79135   79136
   79135   79137   79138   79139   79138   79140   79141   79142
   79141   79143   79144   79145   79144   79146   79147   79148
   79147   79149   79150   79151   79150   79152   79153   79154
   79153   79155   79156   79157   79156   79158   79159   79160
   79159   79161   79162   79163   79162   79164   79165   79166
   79165   79167   79168   79169   79168   79170   79171   79172
   79171   79173   79174   79175   79174   79176   79177   79178
   79177   79179   79180   79181   79180   79182   79183   79184
   79183   79185   79186   79187   79186   79188   79189   79190
   79189   79191   79192   79193   79192   79194   79195   79196
   79195   79197   79198   79199   79198   79200   79201   79202
   79201   79203   79204   79205   79204   79206   79207   79208
   79207   79209   79210   79211   79210   79212   79213   79214
   79213   79215   79216   79217   79216   79218   79219   79220
   79219   79221   79222   79223   79222   79224   79225   79226
   79225   79227   79228   79229   79228   79230   79231   79232
   79231   79233   79234   79235   79234   79236   79237   79238
   79237   79239   79240   79241   79240   79242   79243   79244
   79243   79245   79246   79247   79246   79248   79249   79250
   79249   79251   79252   79253   79252   79254   79255   79256
   79255   79257   79258   79259   79258   79260   79261   79262
   79261   79263   79264   79265   79264   79266   79267   79268
   79267   79269   79270   79271   79270   79272   79273   79274
   79273   79275   79276   79277   79276   79278   79279   79280
   79279   79281   79282   79283   79282   79284   79285   79286
   79285   79287   79288   79289   79288   79290   79291   79292
   79291   79293   79294   79295   79294   79296   79297   79298
   79297   79299   79300   79301   79300   79302   79303   79304
   79303   79305   79306   79307   79306   79308   79309   79310
   79309   79311   79312   79313   79312   79314   79315   79316
   79315   79317   79318   79319   79318   79320   79321   79322
   79321   79323   79324   79325   79324   79326   79327   79328
   79327   79329   79330   79331   79330   79332   79333   79334
   79333   79335   79336   79337   79336   79338   79339   79340
   79339   79341   79342   79343   79342   79344   79345   79346
   79345   79347   79348   79349   79348   79350   79351   79352
   79351   79353   79354   79355   79354   79356   79357   79358
   79357   79359   79360   79361   79360   79362   79363   79364
   79363   79365   79366   79367   79366   79368   79369   79370
   79369   79371   79372   79373   79372   79374   79375   79376
   79375   79377   79378   79379   79378   79380   79381   79382
   79381   79383   79384   79385   79384   79386   79387   79388
   79387   79389   79390   79391   79390   79392   79393   79394
   79393   79395   79396   79397   79396   79398   79399   79400
   79399   79401   79402   79403   79402   79404   79405   79406
   79405   79407   79408   79409   79408   79410   79411   79412
   79411   79413   79414   79415   79414   79416   79417   79418
   79417   79419   79420   79421   79420   79422   79423   79424
   79423   79425   79426   79427   79426   79428   79429   79430
   79429   79431   79432   79433   79432   79434   79435   79436
   79435   79437   79438   79439   79438   79440   79441   79442
   79441   79443   79444   79445   79444   79446   79447   79448
   79447   79449   79450   79451   79450   79452   79453   79454
   79453   79455   79456   79457   79456   79458   79459   79460
   79459   79461   79462   79463   79462   79464   79465   79466
   79465   79467   79468   79469   79468   79470   79471   79472
   79471   79473   79474   79475   79474   79476   79477   79478
   79477   79479   79480   79481   79480   79482   79483   79484
   79483   79485   79486   79487   79486   79488   79489   79490
   79489   79491   79492   79493   79492   79494   79495   79496
   79495   79497   79498   79499   79498   79500   79501   79502
   79501   79503   79504   79505   79504   79506   79507   79508
   79507   79509   79510   79511   79510   79512   79513   79514
   79513   79515   79516   79517   79516   79518   79519   79520
   79519   79521   79522   79523   79522   79524   79525   79526
   79525   79527   79528   79529   79528   79530   79531   79532
   79531   79533   79534   79535   79534   79536   79537   79538
   79537   79539   79540   79541   79540   79542   79543   79544
   79543   79545   79546   79547   79546   79548   79549   79550
   79549   79551   79552   79553   79552   79554   79555   79556
   79555   79557   79558   79559   79558   79560   79561   79562
   79561   79563   79564   79565   79564   79566   79567   79568
   79567   79569   79570   79571   79570   79572   79573   79574
   79573   79575   79576   79577   79576   79578   79579   79580
   79579   79581   79582   79583   79582   79584   79585   79586
   79585   79587   79588   79589   79588   79590   79591   79592
   79591   79593   79594   79595   79594   79596   79597   79598
   79597   79599   79600   79601   79600   79602   79603   79604
   79603   79605   79606   79607   79606   79608   79609   79610
   79609   79611   79612   79613   79612   79614   79615   79616
   79615   79617   79618   79619   79618   79620   79621   79622
   79621   79623   79624   79625   79624   79626   79627   79628
   79627   79629   79630   79631   79630   79632   79633   79634
   79633   79635   79636   79637   79636   79638   79639   79640
   79639   79641   79642   79643   79642   79644   79645   79646
   79645   79647   79648   79649   79648   79650   79651   79652
   79651   79653   79654   79655   79654   79656   79657   79658
   79657   79659   79660   79661   79660   79662   79663   79664
   79663   79665   79666   79667   79666   79668   79669   79670
   79669   79671   79672   79673   79672   79674   79675   79676
   79675   79677   79678   79679   79678   79680   79681   79682
   79681   79683   79684   79685   79684   79686   79687   79688
   79687   79689   79690   79691   79690   79692   79693   79694
   79693   79695   79696   79697   79696   79698   79699   79700
   79699   79701   79702   79703   79702   79704   79705   79706
   79705   79707   79708   79709   79708   79710   79711   79712
   79711   79713   79714   79715   79714   79716   79717   79718
   79717   79719   79720   79721   79720   79722   79723   79724
   79723   79725   79726   79727   79726   79728   79729   79730
   79729   79731   79732   79733   79732   79734   79735   79736
   79735   79737   79738   79739   79738   79740   79741   79742
   79741   79743   79744   79745   79744   79746   79747   79748
   79747   79749   79750   79751   79750   79752   79753   79754
   79753   79755   79756   79757   79756   79758   79759   79760
   79759   79761   79762   79763   79762   79764   79765   79766
   79765   79767   79768   79769   79768   79770   79771   79772
   79771   79773   79774   79775   79774   79776   79777   79778
   79777   79779   79780   79781   79780   79782   79783   79784
   79783   79785   79786   79787   79786   79788   79789   79790
   79789   79791   79792   79793   79792   79794   79795   79796
   79795   79797   79798   79799   79798   79800   79801   79802
   79801   79803   79804   79805   79804   79806   79807   79808
   79807   79809   79810   79811   79810   79812   79813   79814
   79813   79815   79816   79817   79816   79818   79819   79820
   79819   79821   79822   79823   79822   79824   79825   79826
   79825   79827   79828   79829   79828   79830   79831   79832
   79831   79833   79834   79835   79834   79836   79837   79838
   79837   79839   79840   79841   79840   79842   79843   79844
   79843   79845   79846   79847   79846   79848   79849   79850
   79849   79851   79852   79853   79852   79854   79855   79856
   79855   79857   79858   79859   79858   79860   79861   79862
   79861   79863   79864   79865   79864   79866   79867   79868
   79867   79869   79870   79871   79870   79872   79873   79874
   79873   79875   79876   79877   79876   79878   79879   79880
   79879   79881   79882   79883   79882   79884   79885   79886
   79885   79887   79888   79889   79888   79890   79891   79892
   79891   79893   79894   79895   79894   79896   79897   79898
   79897   79899   79900   79901   79900   79902   79903   79904
   79903   79905   79906   79907   79906   79908   79909   79910
   79909   79911   79912   79913   79912   79914   79915   79916
   79915   79917   79918   79919   79918   79920   79921   79922
   79921   79923   79924   79925   79924   79926   79927   79928
   79927   79929   79930   79931   79930   79932   79933   79934
   79933   79935   79936   79937   79936   79938   79939   79940
   79939   79941   79942   79943   79942   79944   79945   79946
   79945   79947   79948   79949   79948   79950   79951   79952
   79951   79953   79954   79955   79954   79956   79957   79958
   79957   79959   79960   79961   79960   79962   79963   79964
   79963   79965   79966   79967   79966   79968   79969   79970
   79969   79971   79972   79973   79972   79974   79975   79976
   79975   79977   79978   79979   79978   79980   79981   79982
   79981   79983   79984   79985   79984   79986   79987   79988
   79987   79989   79990   79991   79990   79992   79993   79994
   79993   79995   79996   79997   79996   79998   79999   80000
   79999   80001   80002   80003   80002   80004   80005   80006
   80005   80007   80008   80009   80008   80010   80011   80012
   80011   80013   80014   80015   80014   80016   80017   80018
   80017   80019   80020   80021   80020   80022   80023   80024
   80023   80025   80026   80027   80026   80028   80029   80030
   80029   80031   80032   80033   80032   80034   80035   80036
   80035   80037   80038   80039   80038   80040   80041   80042
   80041   80043   80044   80045   80044   80046   80047   80048
   80047   80049   80050   80051   80050   80052   80053   80054
   80053   80055   80056   80057   80056   80058   80059   80060
   80059   80061   80062   80063   80062   80064   80065   80066
   80065   80067   80068   80069   80068   80070   80071   80072
   80071   80073   80074   80075   80074   80076   80077   80078
   80077   80079   80080   80081   80080   80082   80083   80084
   80083   80085   80086   80087   80086   80088   80089   80090
   80089   80091   80092   80093   80092   80094   80095   80096
   80095   80097   80098   80099   80098   80100   80101   80102
   80101   80103   80104   80105   80104   80106   80107   80108
   80107   80109   80110   80111   80110   80112   80113   80114
   80113   80115   80116   80117   80116   80118   80119   80120
   80119   80121   80122   80123   80122   80124   80125   80126
   80125   80127   80128   80129   80128   80130   80131   80132
   80131   80133   80134   80135   80134   80136   80137   80138
   80137   80139   80140   80141   80140   80142   80143   80144
   80143   80145   80146   80147   80146   80148   80149   80150
   80149   80151   80152   80153   80152   80154   80155   80156
   80155   80157   80158   80159   80158   80160   80161   80162
   80161   80163   80164   80165   80164   80166   80167   80168
   80167   80169   80170   80171   80170   80172   80173   80174
   80173   80175   80176   80177   80176   80178   80179   80180
   80179   80181   80182   80183   80182   80184   80185   80186
   80185   80187   80188   80189   80188   80190   80191   80192
   80191   80193   80194   80195   80194   80196   80197   80198
   80197   80199   80200   80201   80200   80202   80203   80204
   80203   80205   80206   80207   80206   80208   80209   80210
   80209   80211   80212   80213   80212   80214   80215   80216
   80215   80217   80218   80219   80218   80220   80221   80222
   80221   80223   80224   80225   80224   80226   80227   80228
   80227   80229   80230   80231   80230   80232   80233   80234
   80233   80235   80236   80237   80236   80238   80239   80240
   80239   80241   80242   80243   80242   80244   80245   80246
   80245   80247   80248   80249   80248   80250   80251   80252
   80251   80253   80254   80255   80254   80256   80257   80258
   80257   80259   80260   80261   80260   80262   80263   80264
   80263   80265   80266   80267   80266   80268   80269   80270
   80269   80271   80272   80273   80272   80274   80275   80276
   80275   80277   80278   80279   80278   80280   80281   80282
   80281   80283   80284   80285   80284   80286   80287   80288
   80287   80289   80290   80291   80290   80292   80293   80294
   80293   80295   80296   80297   80296   80298   80299   80300
   80299   80301   80302   80303   80302   80304   80305   80306
   80305   80307   80308   80309   80308   80310   80311   80312
   80311   80313   80314   80315   80314   80316   80317   80318
   80317   80319   80320   80321   80320   80322   80323   80324
   80323   80325   80326   80327   80326   80328   80329   80330
   80329   80331   80332   80333   80332   80334   80335   80336
   80335   80337   80338   80339   80338   80340   80341   80342
   80341   80343   80344   80345   80344   80346   80347   80348
   80347   80349   80350   80351   80350   80352   80353   80354
   80353   80355   80356   80357   80356   80358   80359   80360
   80359   80361   80362   80363   80362   80364   80365   80366
   80365   80367   80368   80369   80368   80370   80371   80372
   80371   80373   80374   80375   80374   80376   80377   80378
   80377   80379   80380   80381   80380   80382   80383   80384
   80383   80385   80386   80387   80386   80388   80389   80390
   80389   80391   80392   80393   80392   80394   80395   80396
   80395   80397   80398   80399   80398   80400   80401   80402
   80401   80403   80404   80405   80404   80406   80407   80408
   80407   80409   80410   80411   80410   80412   80413   80414
   80413   80415   80416   80417   80416   80418   80419   80420
   80419   80421   80422   80423   80422   80424   80425   80426
   80425   80427   80428   80429   80428   80430   80431   80432
   80431   80433   80434   80435   80434   80436   80437   80438
   80437   80439   80440   80441   80440   80442   80443   80444
   80443   80445   80446   80447   80446   80448   80449   80450
   80449   80451   80452   80453   80452   80454   80455   80456
   80455   80457   80458   80459   80458   80460   80461   80462
   80461   80463   80464   80465   80464   80466   80467   80468
   80467   80469   80470   80471   80470   80472   80473   80474
   80473   80475   80476   80477   80476   80478   80479   80480
   80479   80481   80482   80483   80482   80484   80485   80486
   80485   80487   80488   80489   80488   80490   80491   80492
   80491   80493   80494   80495   80494   80496   80497   80498
   80497   80499   80500   80501   80500   80502   80503   80504
   80503   80505   80506   80507   80506   80508   80509   80510
   80509   80511   80512   80513   80512   80514   80515   80516
   80515   80517   80518   80519   80518   80520   80521   80522
   80521   80523   80524   80525   80524   80526   80527   80528
   80527   80529   80530   80531   80530   80532   80533   80534
   80533   80535   80536   80537   80536   80538   80539   80540
   80539   80541   80542   80543   80542   80544   80545   80546
   80545   80547   80548   80549   80548   80550   80551   80552
   80551   80553   80554   80555   80554   80556   80557   80558
   80557   80559   80560   80561   80560   80562   80563   80564
   80563   80565   80566   80567   80566   80568   80569   80570
   80569   80571   80572   80573   80572   80574   80575   80576
   80575   80577   80578   80579   80578   80580   80581   80582
   80581   80583   80584   80585   80584   80586   80587   80588
   80587   80589   80590   80591   80590   80592   80593   80594
   80593   80595   80596   80597   80596   80598   80599   80600
   80599   80601   80602   80603   80602   80604   80605   80606
   80605   80607   80608   80609   80608   80610   80611   80612
   80611   80613   80614   80615   80614   80616   80617   80618
   80617   80619   80620   80621   80620   80622   80623   80624
   80623   80625   80626   80627   80626   80628   80629   80630
   80629   80631   80632   80633   80632   80634   80635   80636
   80635   80637   80638   80639   80638   80640   80641   80642
   80641   80643   80644   80645   80644   80646   80647   80648
   80647   80649   80650   80651   80650   80652   80653   80654
   80653   80655   80656   80657   80656   80658   80659   80660
   80659   80661   80662   80663   80662   80664   80665   80666
   80665   80667   80668   80669   80668   80670   80671   80672
   80671   80673   80674   80675   80674   80676   80677   80678
   80677   80679   80680   80681   80680   80682   80683   80684
   80683   80685   80686   80687   80686   80688   80689   80690
   80689   80691   80692   80693   80692   80694   80695   80696
   80695   80697   80698   80699   80698   80700   80701   80702
   80701   80703   80704   80705   80704   80706   80707   80708
   80707   80709   80710   80711   80710   80712   80713   80714
   80713   80715   80716   80717   80716   80718   80719   80720
   80719   80721   80722   80723   80722   80724   80725   80726
   80725   80727   80728   80729   80728   80730   80731   80732
   80731   80733   80734   80735   80734   80736   80737   80738
   80737   80739   80740   80741   80740   80742   80743   80744
   80743   80745   80746   80747   80746   80748   80749   80750
   80749   80751   80752   80753   80752   80754   80755   80756
   80755   80757   80758   80759   80758   80760   80761   80762
   80761   80763   80764   80765   80764   80766   80767   80768
   80767   80769   80770   80771   80770   80772   80773   80774
   80773   80775   80776   80777   80776   80778   80779   80780
   80779   80781   80782   80783   80782   80784   80785   80786
   80785   80787   80788   80789   80788   80790   80791   80792
   80791   80793   80794   80795   80794   80796   80797   80798
   80797   80799   80800   80801   80800   80802   80803   80804
   80803   80805   80806   80807   80806   80808   80809   80810
   80809   80811   80812   80813   80812   80814   80815   80816
   80815   80817   80818   80819   80818   80820   80821   80822
   80821   80823   80824   80825   80824   80826   80827   80828
   80827   80829   80830   80831   80830   80832   80833   80834
   80833   80835   80836   80837   80836   80838   80839   80840
   80839   80841   80842   80843   80842   80844   80845   80846
   80845   80847   80848   80849   80848   80850   80851   80852
   80851   80853   80854   80855   80854   80856   80857   80858
   80857   80859   80860   80861   80860   80862   80863   80864
   80863   80865   80866   80867   80866   80868   80869   80870
   80869   80871   80872   80873   80872   80874   80875   80876
   80875   80877   80878   80879   80878   80880   80881   80882
   80881   80883   80884   80885   80884   80886   80887   80888
   80887   80889   80890   80891   80890   80892   80893   80894
   80893   80895   80896   80897   80896   80898   80899   80900
   80899   80901   80902   80903   80902   80904   80905   80906
   80905   80907   80908   80909   80908   80910   80911   80912
   80911   80913   80914   80915   80914   80916   80917   80918
   80917   80919   80920   80921   80920   80922   80923   80924
   80923   80925   80926   80927   80926   80928   80929   80930
   80929   80931   80932   80933   80932   80934   80935   80936
   80935   80937   80938   80939   80938   80940   80941   80942
   80941   80943   80944   80945   80944   80946   80947   80948
   80947   80949   80950   80951   80950   80952   80953   80954
   80953   80955   80956   80957   80956   80958   80959   80960
   80959   80961   80962   80963   80962   80964   80965   80966
   80965   80967   80968   80969   80968   80970   80971   80972
   80971   80973   80974   80975   80974   80976   80977   80978
   80977   80979   80980   80981   80980   80982   80983   80984
   80983   80985   80986   80987   80986   80988   80989   80990
   80989   80991   80992   80993   80992   80994   80995   80996
   80995   80997   80998   80999   80998   81000   81001   81002
   81001   81003   81004   81005   81004   81006   81007   81008
   81007   81009   81010   81011   81010   81012   81013   81014
   81013   81015   81016   81017   81016   81018   81019   81020
   81019   81021   81022   81023   81022   81024   81025   81026
   81025   81027   81028   81029   81028   81030   81031   81032
   81031   81033   81034   81035   81034   81036   81037   81038
   81037   81039   81040   81041   81040   81042   81043   81044
   81043   81045   81046   81047   81046   81048   81049   81050
   81049   81051   81052   81053   81052   81054   81055   81056
   81055   81057   81058   81059   81058   81060   81061   81062
   81061   81063   81064   81065   81064   81066   81067   81068
   81067   81069   81070   81071   81070   81072   81073   81074
   81073   81075   81076   81077   81076   81078   81079   81080
   81079   81081   81082   81083   81082   81084   81085   81086
   81085   81087   81088   81089   81088   81090   81091   81092
   81091   81093   81094   81095   81094   81096   81097   81098
   81097   81099   81100   81101   81100   81102   81103   81104
   81103   81105   81106   81107   81106   81108   81109   81110
   81109   81111   81112   81113   81112   81114   81115   81116
   81115   81117   81118   81119   81118   81120   81121   81122
   81121   81123   81124   81125   81124   81126   81127   81128
   81127   81129   81130   81131   81130   81132   81133   81134
   81133   81135   81136   81137   81136   81138   81139   81140
   81139   81141   81142   81143   81142   81144   81145   81146
   81145   81147   81148   81149   81148   81150   81151   81152
   81151   81153   81154   81155   81154   81156   81157   81158
   81157   81159   81160   81161   81160   81162   81163   81164
   81163   81165   81166   81167   81166   81168   81169   81170
   81169   81171   81172   81173   81172   81174   81175   81176
   81175   81177   81178   81179   81178   81180   81181   81182
   81181   81183   81184   81185   81184   81186   81187   81188
   81187   81189   81190   81191   81190   81192   81193   81194
   81193   81195   81196   81197   81196   81198   81199   81200
   81199   81201   81202   81203   81202   81204   81205   81206
   81205   81207   81208   81209   81208   81210   81211   81212
   81211   81213   81214   81215   81214   81216   81217   81218
   81217   81219   81220   81221   81220   81222   81223   81224
   81223   81225   81226   81227   81226   81228   81229   81230
   81229   81231   81232   81233   81232   81234   81235   81236
   81235   81237   81238   81239   81238   81240   81241   81242
   81241   81243   81244   81245   81244   81246   81247   81248
   81247   81249   81250   81251   81250   81252   81253   81254
   81253   81255   81256   81257   81256   81258   81259   81260
   81259   81261   81262   81263   81262   81264   81265   81266
   81265   81267   81268   81269   81268   81270   81271   81272
   81271   81273   81274   81275   81274   81276   81277   81278
   81277   81279   81280   81281   81280   81282   81283   81284
   81283   81285   81286   81287   81286   81288   81289   81290
   81289   81291   81292   81293   81292   81294   81295   81296
   81295   81297   81298   81299   81298   81300   81301   81302
   81301   81303   81304   81305   81304   81306   81307   81308
   81307   81309   81310   81311   81310   81312   81313   81314
   81313   81315   81316   81317   81316   81318   81319   81320
   81319   81321   81322   81323   81322   81324   81325   81326
   81325   81327   81328   81329   81328   81330   81331   81332
   81331   81333   81334   81335   81334   81336   81337   81338
   81337   81339   81340   81341   81340   81342   81343   81344
   81343   81345   81346   81347   81346   81348   81349   81350
   81349   81351   81352   81353   81352   81354   81355   81356
   81355   81357   81358   81359   81358   81360   81361   81362
   81361   81363   81364   81365   81364   81366   81367   81368
   81367   81369   81370   81371   81370   81372   81373   81374
   81373   81375   81376   81377   81376   81378   81379   81380
   81379   81381   81382   81383   81382   81384   81385   81386
   81385   81387   81388   81389   81388   81390   81391   81392
   81391   81393   81394   81395   81394   81396   81397   81398
   81397   81399   81400   81401   81400   81402   81403   81404
   81403   81405   81406   81407   81406   81408   81409   81410
   81409   81411   81412   81413   81412   81414   81415   81416
   81415   81417   81418   81419   81418   81420   81421   81422
   81421   81423   81424   81425   81424   81426   81427   81428
   81427   81429   81430   81431   81430   81432   81433   81434
   81433   81435   81436   81437   81436   81438   81439   81440
   81439   81441   81442   81443   81442   81444   81445   81446
   81445   81447   81448   81449   81448   81450   81451   81452
   81451   81453   81454   81455   81454   81456   81457   81458
   81457   81459   81460   81461   81460   81462   81463   81464
   81463   81465   81466   81467   81466   81468   81469   81470
   81469   81471   81472   81473   81472   81474   81475   81476
   81475   81477   81478   81479   81478   81480   81481   81482
   81481   81483   81484   81485   81484   81486   81487   81488
   81487   81489   81490   81491   81490   81492   81493   81494
   81493   81495   81496   81497   81496   81498   81499   81500
   81499   81501   81502   81503   81502   81504   81505   81506
   81505   81507   81508   81509   81508   81510   81511   81512
   81511   81513   81514   81515   81514   81516   81517   81518
   81517   81519   81520   81521   81520   81522   81523   81524
   81523   81525   81526   81527   81526   81528   81529   81530
   81529   81531   81532   81533   81532   81534   81535   81536
   81535   81537   81538   81539   81538   81540   81541   81542
   81541   81543   81544   81545   81544   81546   81547   81548
   81547   81549   81550   81551   81550   81552   81553   81554
   81553   81555   81556   81557   81556   81558   81559   81560
   81559   81561   81562   81563   81562   81564   81565   81566
   81565   81567   81568   81569   81568   81570   81571   81572
   81571   81573   81574   81575   81574   81576   81577   81578
   81577   81579   81580   81581   81580   81582   81583   81584
   81583   81585   81586   81587   81586   81588   81589   81590
   81589   81591   81592   81593   81592   81594   81595   81596
   81595   81597   81598   81599   81598   81600   81601   81602
   81601   81603   81604   81605   81604   81606   81607   81608
   81607   81609   81610   81611   81610   81612   81613   81614
   81613   81615   81616   81617   81616   81618   81619   81620
   81619   81621   81622   81623   81622   81624   81625   81626
   81625   81627   81628   81629   81628   81630   81631   81632
   81631   81633   81634   81635   81634   81636   81637   81638
   81637   81639   81640   81641   81640   81642   81643   81644
   81643   81645   81646   81647   81646   81648   81649   81650
   81649   81651   81652   81653   81652   81654   81655   81656
   81655   81657   81658   81659   81658   81660   81661   81662
   81661   81663   81664   81665   81664   81666   81667   81668
   81667   81669   81670   81671   81670   81672   81673   81674
   81673   81675   81676   81677   81676   81678   81679   81680
   81679   81681   81682   81683   81682   81684   81685   81686
   81685   81687   81688   81689   81688   81690   81691   81692
   81691   81693   81694   81695   81694   81696   81697   81698
   81697   81699   81700   81701   81700   81702   81703   81704
   81703   81705   81706   81707   81706   81708   81709   81710
   81709   81711   81712   81713   81712   81714   81715   81716
   81715   81717   81718   81719   81718   81720   81721   81722
   81721   81723   81724   81725   81724   81726   81727   81728
   81727   81729   81730   81731   81730   81732   81733   81734
   81733   81735   81736   81737   81736   81738   81739   81740
   81739   81741   81742   81743   81742   81744   81745   81746
   81745   81747   81748   81749   81748   81750   81751   81752
   81751   81753   81754   81755   81754   81756   81757   81758
   81757   81759   81760   81761   81760   81762   81763   81764
   81763   81765   81766   81767   81766   81768   81769   81770
   81769   81771   81772   81773   81772   81774   81775   81776
   81775   81777   81778   81779   81778   81780   81781   81782
   81781   81783   81784   81785   81784   81786   81787   81788
   81787   81789   81790   81791   81790   81792   81793   81794
   81793   81795   81796   81797   81796   81798   81799   81800
   81799   81801   81802   81803   81802   81804   81805   81806
   81805   81807   81808   81809   81808   81810   81811   81812
   81811   81813   81814   81815   81814   81816   81817   81818
   81817   81819   81820   81821   81820   81822   81823   81824
   81823   81825   81826   81827   81826   81828   81829   81830
   81829   81831   81832   81833   81832   81834   81835   81836
   81835   81837   81838   81839   81838   81840   81841   81842
   81841   81843   81844   81845   81844   81846   81847   81848
   81847   81849   81850   81851   81850   81852   81853   81854
   81853   81855   81856   81857   81856   81858   81859   81860
   81859   81861   81862   81863   81862   81864   81865   81866
   81865   81867   81868   81869   81868   81870   81871   81872
   81871   81873   81874   81875   81874   81876   81877   81878
   81877   81879   81880   81881   81880   81882   81883   81884
   81883   81885   81886   81887   81886   81888   81889   81890
   81889   81891   81892   81893   81892   81894   81895   81896
   81895   81897   81898   81899   81898   81900   81901   81902
   81901   81903   81904   81905   81904   81906   81907   81908
   81907   81909   81910   81911   81910   81912   81913   81914
   81913   81915   81916   81917   81916   81918   81919   81920
   81919   81921   81922   81923   81922   81924   81925   81926
   81925   81927   81928   81929   81928   81930   81931   81932
   81931   81933   81934   81935   81934   81936   81937   81938
   81937   81939   81940   81941   81940   81942   81943   81944
   81943   81945   81946   81947   81946   81948   81949   81950
   81949   81951   81952   81953   81952   81954   81955   81956
   81955   81957   81958   81959   81958   81960   81961   81962
   81961   81963   81964   81965   81964   81966   81967   81968
   81967   81969   81970   81971   81970   81972   81973   81974
   81973   81975   81976   81977   81976   81978   81979   81980
   81979   81981   81982   81983   81982   81984   81985   81986
   81985   81987   81988   81989   81988   81990   81991   81992
   81991   81993   81994   81995   81994   81996   81997   81998
   81997   81999   82000   82001   82000   82002   82003   82004
   82003   82005   82006   82007   82006   82008   82009   82010
   82009   82011   82012   82013   82012   82014   82015   82016
   82015   82017   82018   82019   82018   82020   82021   82022
   82021   82023   82024   82025   82024   82026   82027   82028
   82027   82029   82030   82031   82030   82032   82033   82034
   82033   82035   82036   82037   82036   82038   82039   82040
   82039   82041   82042   82043   82042   82044   82045   82046
   82045   82047   82048   82049   82048   82050   82051   82052
   82051   82053   82054   82055   82054   82056   82057   82058
   82057   82059   82060   82061   82060   82062   82063   82064
   82063   82065   82066   82067   82066   82068   82069   82070
   82069   82071   82072   82073   82072   82074   82075   82076
   82075   82077   82078   82079   82078   82080   82081   82082
   82081   82083   82084   82085   82084   82086   82087   82088
   82087   82089   82090   82091   82090   82092   82093   82094
   82093   82095   82096   82097   82096   82098   82099   82100
   82099   82101   82102   82103   82102   82104   82105   82106
   82105   82107   82108   82109   82108   82110   82111   82112
   82111   82113   82114   82115   82114   82116   82117   82118
   82117   82119   82120   82121   82120   82122   82123   82124
   82123   82125   82126   82127   82126   82128   82129   82130
   82129   82131   82132   82133   82132   82134   82135   82136
   82135   82137   82138   82139   82138   82140   82141   82142
   82141   82143   82144   82145   82144   82146   82147   82148
   82147   82149   82150   82151   82150   82152   82153   82154
   82153   82155   82156   82157   82156   82158   82159   82160
   82159   82161   82162   82163   82162   82164   82165   82166
   82165   82167   82168   82169   82168   82170   82171   82172
   82171   82173   82174   82175   82174   82176   82177   82178
   82177   82179   82180   82181   82180   82182   82183   82184
   82183   82185   82186   82187   82186   82188   82189   82190
   82189   82191   82192   82193   82192   82194   82195   82196
   82195   82197   82198   82199   82198   82200   82201   82202
   82201   82203   82204   82205   82204   82206   82207   82208
   82207   82209   82210   82211   82210   82212   82213   82214
   82213   82215   82216   82217   82216   82218   82219   82220
   82219   82221   82222   82223   82222   82224   82225   82226
   82225   82227   82228   82229   82228   82230   82231   82232
   82231   82233   82234   82235   82234   82236   82237   82238
   82237   82239   82240   82241   82240   82242   82243   82244
   82243   82245   82246   82247   82246   82248   82249   82250
   82249   82251   82252   82253   82252   82254   82255   82256
   82255   82257   82258   82259   82258   82260   82261   82262
   82261   82263   82264   82265   82264   82266   82267   82268
   82267   82269   82270   82271   82270   82272   82273   82274
   82273   82275   82276   82277   82276   82278   82279   82280
   82279   82281   82282   82283   82282   82284   82285   82286
   82285   82287   82288   82289   82288   82290   82291   82292
   82291   82293   82294   82295   82294   82296   82297   82298
   82297   82299   82300   82301   82300   82302   82303   82304
   82303   82305   82306   82307   82306   82308   82309   82310
   82309   82311   82312   82313   82312   82314   82315   82316
   82315   82317   82318   82319   82318   82320   82321   82322
   82321   82323   82324   82325   82324   82326   82327   82328
   82327   82329   82330   82331   82330   82332   82333   82334
   82333   82335   82336   82337   82336   82338   82339   82340
   82339   82341   82342   82343   82342   82344   82345   82346
   82345   82347   82348   82349   82348   82350   82351   82352
   82351   82353   82354   82355   82354   82356   82357   82358
   82357   82359   82360   82361   82360   82362   82363   82364
   82363   82365   82366   82367   82366   82368   82369   82370
   82369   82371   82372   82373   82372   82374   82375   82376
   82375   82377   82378   82379   82378   82380   82381   82382
   82381   82383   82384   82385   82384   82386   82387   82388
   82387   82389   82390   82391   82390   82392   82393   82394
   82393   82395   82396   82397   82396   82398   82399   82400
   82399   82401   82402   82403   82402   82404   82405   82406
   82405   82407   82408   82409   82408   82410   82411   82412
   82411   82413   82414   82415   82414   82416   82417   82418
   82417   82419   82420   82421   82420   82422   82423   82424
   82423   82425   82426   82427   82426   82428   82429   82430
   82429   82431   82432   82433   82432   82434   82435   82436
   82435   82437   82438   82439   82438   82440   82441   82442
   82441   82443   82444   82445   82444   82446   82447   82448
   82447   82449   82450   82451   82450   82452   82453   82454
   82453   82455   82456   82457   82456   82458   82459   82460
   82459   82461   82462   82463   82462   82464   82465   82466
   82465   82467   82468   82469   82468   82470   82471   82472
   82471   82473   82474   82475   82474   82476   82477   82478
   82477   82479   82480   82481   82480   82482   82483   82484
   82483   82485   82486   82487   82486   82488   82489   82490
   82489   82491   82492   82493   82492   82494   82495   82496
   82495   82497   82498   82499   82498   82500   82501   82502
   82501   82503   82504   82505   82504   82506   82507   82508
   82507   82509   82510   82511   82510   82512   82513   82514
   82513   82515   82516   82517   82516   82518   82519   82520
   82519   82521   82522   82523   82522   82524   82525   82526
   82525   82527   82528   82529   82528   82530   82531   82532
   82531   82533   82534   82535   82534   82536   82537   82538
   82537   82539   82540   82541   82540   82542   82543   82544
   82543   82545   82546   82547   82546   82548   82549   82550
   82549   82551   82552   82553   82552   82554   82555   82556
   82555   82557   82558   82559   82558   82560   82561   82562
   82561   82563   82564   82565   82564   82566   82567   82568
   82567   82569   82570   82571   82570   82572   82573   82574
   82573   82575   82576   82577   82576   82578   82579   82580
   82579   82581   82582   82583   82582   82584   82585   82586
   82585   82587   82588   82589   82588   82590   82591   82592
   82591   82593   82594   82595   82594   82596   82597   82598
   82597   82599   82600   82601   82600   82602   82603   82604
   82603   82605   82606   82607   82606   82608   82609   82610
   82609   82611   82612   82613   82612   82614   82615   82616
   82615   82617   82618   82619   82618   82620   82621   82622
   82621   82623   82624   82625   82624   82626   82627   82628
   82627   82629   82630   82631   82630   82632   82633   82634
   82633   82635   82636   82637   82636   82638   82639   82640
   82639   82641   82642   82643   82642   82644   82645   82646
   82645   82647   82648   82649   82648   82650   82651   82652
   82651   82653   82654   82655   82654   82656   82657   82658
   82657   82659   82660   82661   82660   82662   82663   82664
   82663   82665   82666   82667   82666   82668   82669   82670
   82669   82671   82672   82673   82672   82674   82675   82676
   82675   82677   82678   82679   82678   82680   82681   82682
   82681   82683   82684   82685   82684   82686   82687   82688
   82687   82689   82690   82691   82690   82692   82693   82694
   82693   82695   82696   82697   82696   82698   82699   82700
   82699   82701   82702   82703   82702   82704   82705   82706
   82705   82707   82708   82709   82708   82710   82711   82712
   82711   82713   82714   82715   82714   82716   82717   82718
   82717   82719   82720   82721   82720   82722   82723   82724
   82723   82725   82726   82727   82726   82728   82729   82730
   82729   82731   82732   82733   82732   82734   82735   82736
   82735   82737   82738   82739   82738   82740   82741   82742
   82741   82743   82744   82745   82744   82746   82747   82748
   82747   82749   82750   82751   82750   82752   82753   82754
   82753   82755   82756   82757   82756   82758   82759   82760
   82759   82761   82762   82763   82762   82764   82765   82766
   82765   82767   82768   82769   82768   82770   82771   82772
   82771   82773   82774   82775   82774   82776   82777   82778
   82777   82779   82780   82781   82780   82782   82783   82784
   82783   82785   82786   82787   82786   82788   82789   82790
   82789   82791   82792   82793   82792   82794   82795   82796
   82795   82797   82798   82799   82798   82800   82801   82802
   82801   82803   82804   82805   82804   82806   82807   82808
   82807   82809   82810   82811   82810   82812   82813   82814
   82813   82815   82816   82817   82816   82818   82819   82820
   82819   82821   82822   82823   82822   82824   82825   82826
   82825   82827   82828   82829   82828   82830   82831   82832
   82831   82833   82834   82835   82834   82836   82837   82838
   82837   82839   82840   82841   82840   82842   82843   82844
   82843   82845   82846   82847   82846   82848   82849   82850
   82849   82851   82852   82853   82852   82854   82855   82856
   82855   82857   82858   82859   82858   82860   82861   82862
   82861   82863   82864   82865   82864   82866   82867   82868
   82867   82869   82870   82871   82870   82872   82873   82874
   82873   82875   82876   82877   82876   82878   82879   82880
   82879   82881   82882   82883   82882   82884   82885   82886
   82885   82887   82888   82889   82888   82890   82891   82892
   82891   82893   82894   82895   82894   82896   82897   82898
   82897   82899   82900   82901   82900   82902   82903   82904
   82903   82905   82906   82907   82906   82908   82909   82910
   82909   82911   82912   82913   82912   82914   82915   82916
   82915   82917   82918   82919   82918   82920   82921   82922
   82921   82923   82924   82925   82924   82926   82927   82928
   82927   82929   82930   82931   82930   82932   82933   82934
   82933   82935   82936   82937   82936   82938   82939   82940
   82939   82941   82942   82943   82942   82944   82945   82946
   82945   82947   82948   82949   82948   82950   82951   82952
   82951   82953   82954   82955   82954   82956   82957   82958
   82957   82959   82960   82961   82960   82962   82963   82964
   82963   82965   82966   82967   82966   82968   82969   82970
   82969   82971   82972   82973   82972   82974   82975   82976
   82975   82977   82978   82979   82978   82980   82981   82982
   82981   82983   82984   82985   82984   82986   82987   82988
   82987   82989   82990   82991   82990   82992   82993   82994
   82993   82995   82996   82997   82996   82998   82999   83000
   82999   83001   83002   83003   83002   83004   83005   83006
   83005   83007   83008   83009   83008   83010   83011   83012
   83011   83013   83014   83015   83014   83016   83017   83018
   83017   83019   83020   83021   83020   83022   83023   83024
   83023   83025   83026   83027   83026   83028   83029   83030
   83029   83031   83032   83033   83032   83034   83035   83036
   83035   83037   83038   83039   83038   83040   83041   83042
   83041   83043   83044   83045   83044   83046   83047   83048
   83047   83049   83050   83051   83050   83052   83053   83054
   83053   83055   83056   83057   83056   83058   83059   83060
   83059   83061   83062   83063   83062   83064   83065   83066
   83065   83067   83068   83069   83068   83070   83071   83072
   83071   83073   83074   83075   83074   83076   83077   83078
   83077   83079   83080   83081   83080   83082   83083   83084
   83083   83085   83086   83087   83086   83088   83089   83090
   83089   83091   83092   83093   83092   83094   83095   83096
   83095   83097   83098   83099   83098   83100   83101   83102
   83101   83103   83104   83105   83104   83106   83107   83108
   83107   83109   83110   83111   83110   83112   83113   83114
   83113   83115   83116   83117   83116   83118   83119   83120
   83119   83121   83122   83123   83122   83124   83125   83126
   83125   83127   83128   83129   83128   83130   83131   83132
   83131   83133   83134   83135   83134   83136   83137   83138
   83137   83139   83140   83141   83140   83142   83143   83144
   83143   83145   83146   83147   83146   83148   83149   83150
   83149   83151   83152   83153   83152   83154   83155   83156
   83155   83157   83158   83159   83158   83160   83161   83162
   83161   83163   83164   83165   83164   83166   83167   83168
   83167   83169   83170   83171   83170   83172   83173   83174
   83173   83175   83176   83177   83176   83178   83179   83180
   83179   83181   83182   83183   83182   83184   83185   83186
   83185   83187   83188   83189   83188   83190   83191   83192
   83191   83193   83194   83195   83194   83196   83197   83198
   83197   83199   83200   83201   83200   83202   83203   83204
   83203   83205   83206   83207   83206   83208   83209   83210
   83209   83211   83212   83213   83212   83214   83215   83216
   83215   83217   83218   83219   83218   83220   83221   83222
   83221   83223   83224   83225   83224   83226   83227   83228
   83227   83229   83230   83231   83230   83232   83233   83234
   83233   83235   83236   83237   83236   83238   83239   83240
   83239   83241   83242   83243   83242   83244   83245   83246
   83245   83247   83248   83249   83248   83250   83251   83252
   83251   83253   83254   83255   83254   83256   83257   83258
   83257   83259   83260   83261   83260   83262   83263   83264
   83263   83265   83266   83267   83266   83268   83269   83270
   83269   83271   83272   83273   83272   83274   83275   83276
   83275   83277   83278   83279   83278   83280   83281   83282
   83281   83283   83284   83285   83284   83286   83287   83288
   83287   83289   83290   83291   83290   83292   83293   83294
   83293   83295   83296   83297   83296   83298   83299   83300
   83299   83301   83302   83303   83302   83304   83305   83306
   83305   83307   83308   83309   83308   83310   83311   83312
   83311   83313   83314   83315   83314   83316   83317   83318
   83317   83319   83320   83321   83320   83322   83323   83324
   83323   83325   83326   83327   83326   83328   83329   83330
   83329   83331   83332   83333   83332   83334   83335   83336
   83335   83337   83338   83339   83338   83340   83341   83342
   83341   83343   83344   83345   83344   83346   83347   83348
   83347   83349   83350   83351   83350   83352   83353   83354
   83353   83355   83356   83357   83356   83358   83359   83360
   83359   83361   83362   83363   83362   83364   83365   83366
   83365   83367   83368   83369   83368   83370   83371   83372
   83371   83373   83374   83375   83374   83376   83377   83378
   83377   83379   83380   83381   83380   83382   83383   83384
   83383   83385   83386   83387   83386   83388   83389   83390
   83389   83391   83392   83393   83392   83394   83395   83396
   83395   83397   83398   83399   83398   83400   83401   83402
   83401   83403   83404   83405   83404   83406   83407   83408
   83407   83409   83410   83411   83410   83412   83413   83414
   83413   83415   83416   83417   83416   83418   83419   83420
   83419   83421   83422   83423   83422   83424   83425   83426
   83425   83427   83428   83429   83428   83430   83431   83432
   83431   83433   83434   83435   83434   83436   83437   83438
   83437   83439   83440   83441   83440   83442   83443   83444
   83443   83445   83446   83447   83446   83448   83449   83450
   83449   83451   83452   83453   83452   83454   83455   83456
   83455   83457   83458   83459   83458   83460   83461   83462
   83461   83463   83464   83465   83464   83466   83467   83468
   83467   83469   83470   83471   83470   83472   83473   83474
   83473   83475   83476   83477   83476   83478   83479   83480
   83479   83481   83482   83483   83482   83484   83485   83486
   83485   83487   83488   83489   83488   83490   83491   83492
   83491   83493   83494   83495   83494   83496   83497   83498
   83497   83499   83500   83501   83500   83502   83503   83504
   83503   83505   83506   83507   83506   83508   83509   83510
   83509   83511   83512   83513   83512   83514   83515   83516
   83515   83517   83518   83519   83518   83520   83521   83522
   83521   83523   83524   83525   83524   83526   83527   83528
   83527   83529   83530   83531   83530   83532   83533   83534
   83533   83535   83536   83537   83536   83538   83539   83540
   83539   83541   83542   83543   83542   83544   83545   83546
   83545   83547   83548   83549   83548   83550   83551   83552
   83551   83553   83554   83555   83554   83556   83557   83558
   83557   83559   83560   83561   83560   83562   83563   83564
   83563   83565   83566   83567   83566   83568   83569   83570
   83569   83571   83572   83573   83572   83574   83575   83576
   83575   83577   83578   83579   83578   83580   83581   83582
   83581   83583   83584   83585   83584   83586   83587   83588
   83587   83589   83590   83591   83590   83592   83593   83594
   83593   83595   83596   83597   83596   83598   83599   83600
   83599   83601   83602   83603   83602   83604   83605   83606
   83605   83607   83608   83609   83608   83610   83611   83612
   83611   83613   83614   83615   83614   83616   83617   83618
   83617   83619   83620   83621   83620   83622   83623   83624
   83623   83625   83626   83627   83626   83628   83629   83630
   83629   83631   83632   83633   83632   83634   83635   83636
   83635   83637   83638   83639   83638   83640   83641   83642
   83641   83643   83644   83645   83644   83646   83647   83648
   83647   83649   83650   83651   83650   83652   83653   83654
   83653   83655   83656   83657   83656   83658   83659   83660
   83659   83661   83662   83663   83662   83664   83665   83666
   83665   83667   83668   83669   83668   83670   83671   83672
   83671   83673   83674   83675   83674   83676   83677   83678
   83677   83679   83680   83681   83680   83682   83683   83684
   83683   83685   83686   83687   83686   83688   83689   83690
   83689   83691   83692   83693   83692   83694   83695   83696
   83695   83697   83698   83699   83698   83700   83701   83702
   83701   83703   83704   83705   83704   83706   83707   83708
   83707   83709   83710   83711   83710   83712   83713   83714
   83713   83715   83716   83717   83716   83718   83719   83720
   83719   83721   83722   83723   83722   83724   83725   83726
   83725   83727   83728   83729   83728   83730   83731   83732
   83731   83733   83734   83735   83734   83736   83737   83738
   83737   83739   83740   83741   83740   83742   83743   83744
   83743   83745   83746   83747   83746   83748   83749   83750
   83749   83751   83752   83753   83752   83754   83755   83756
   83755   83757   83758   83759   83758   83760   83761   83762
   83761   83763   83764   83765   83764   83766   83767   83768
   83767   83769   83770   83771   83770   83772   83773   83774
   83773   83775   83776   83777   83776   83778   83779   83780
   83779   83781   83782   83783   83782   83784   83785   83786
   83785   83787   83788   83789   83788   83790   83791   83792
   83791   83793   83794   83795   83794   83796   83797   83798
   83797   83799   83800   83801   83800   83802   83803   83804
   83803   83805   83806   83807   83806   83808   83809   83810
   83809   83811   83812   83813   83812   83814   83815   83816
   83815   83817   83818   83819   83818   83820   83821   83822
   83821   83823   83824   83825   83824   83826   83827   83828
   83827   83829   83830   83831   83830   83832   83833   83834
   83833   83835   83836   83837   83836   83838   83839   83840
   83839   83841   83842   83843   83842   83844   83845   83846
   83845   83847   83848   83849   83848   83850   83851   83852
   83851   83853   83854   83855   83854   83856   83857   83858
   83857   83859   83860   83861   83860   83862   83863   83864
   83863   83865   83866   83867   83866   83868   83869   83870
   83869   83871   83872   83873   83872   83874   83875   83876
   83875   83877   83878   83879   83878   83880   83881   83882
   83881   83883   83884   83885   83884   83886   83887   83888
   83887   83889   83890   83891   83890   83892   83893   83894
   83893   83895   83896   83897   83896   83898   83899   83900
   83899   83901   83902   83903   83902   83904   83905   83906
   83905   83907   83908   83909   83908   83910   83911   83912
   83911   83913   83914   83915   83914   83916   83917   83918
   83917   83919   83920   83921   83920   83922   83923   83924
   83923   83925   83926   83927   83926   83928   83929   83930
   83929   83931   83932   83933   83932   83934   83935   83936
   83935   83937   83938   83939   83938   83940   83941   83942
   83941   83943   83944   83945   83944   83946   83947   83948
   83947   83949   83950   83951   83950   83952   83953   83954
   83953   83955   83956   83957   83956   83958   83959   83960
   83959   83961   83962   83963   83962   83964   83965   83966
   83965   83967   83968   83969   83968   83970   83971   83972
   83971   83973   83974   83975   83974   83976   83977   83978
   83977   83979   83980   83981   83980   83982   83983   83984
   83983   83985   83986   83987   83986   83988   83989   83990
   83989   83991   83992   83993   83992   83994   83995   83996
   83995   83997   83998   83999   83998   84000   84001   84002
   84001   84003   84004   84005   84004   84006   84007   84008
   84007   84009   84010   84011   84010   84012   84013   84014
   84013   84015   84016   84017   84016   84018   84019   84020
   84019   84021   84022   84023   84022   84024   84025   84026
   84025   84027   84028   84029   84028   84030   84031   84032
   84031   84033   84034   84035   84034   84036   84037   84038
   84037   84039   84040   84041   84040   84042   84043   84044
   84043   84045   84046   84047   84046   84048   84049   84050
   84049   84051   84052   84053   84052   84054   84055   84056
   84055   84057   84058   84059   84058   84060   84061   84062
   84061   84063   84064   84065   84064   84066   84067   84068
   84067   84069   84070   84071   84070   84072   84073   84074
   84073   84075   84076   84077   84076   84078   84079   84080
   84079   84081   84082   84083   84082   84084   84085   84086
   84085   84087   84088   84089   84088   84090   84091   84092
   84091   84093   84094   84095   84094   84096   84097   84098
   84097   84099   84100   84101   84100   84102   84103   84104
   84103   84105   84106   84107   84106   84108   84109   84110
   84109   84111   84112   84113   84112   84114   84115   84116
   84115   84117   84118   84119   84118   84120   84121   84122
   84121   84123   84124   84125   84124   84126   84127   84128
   84127   84129   84130   84131   84130   84132   84133   84134
   84133   84135   84136   84137   84136   84138   84139   84140
   84139   84141   84142   84143   84142   84144   84145   84146
   84145   84147   84148   84149   84148   84150   84151   84152
   84151   84153   84154   84155   84154   84156   84157   84158
   84157   84159   84160   84161   84160   84162   84163   84164
   84163   84165   84166   84167   84166   84168   84169   84170
   84169   84171   84172   84173   84172   84174   84175   84176
   84175   84177   84178   84179   84178   84180   84181   84182
   84181   84183   84184   84185   84184   84186   84187   84188
   84187   84189   84190   84191   84190   84192   84193   84194
   84193   84195   84196   84197   84196   84198   84199   84200
   84199   84201   84202   84203   84202   84204   84205   84206
   84205   84207   84208   84209   84208   84210   84211   84212
   84211   84213   84214   84215   84214   84216   84217   84218
   84217   84219   84220   84221   84220   84222   84223   84224
   84223   84225   84226   84227   84226   84228   84229   84230
   84229   84231   84232   84233   84232   84234   84235   84236
   84235   84237   84238   84239   84238   84240   84241   84242
   84241   84243   84244   84245   84244   84246   84247   84248
   84247   84249   84250   84251   84250   84252   84253   84254
   84253   84255   84256   84257   84256   84258   84259   84260
   84259   84261   84262   84263   84262   84264   84265   84266
   84265   84267   84268   84269   84268   84270   84271   84272
   84271   84273   84274   84275   84274   84276   84277   84278
   84277   84279   84280   84281   84280   84282   84283   84284
   84283   84285   84286   84287   84286   84288   84289   84290
   84289   84291   84292   84293   84292   84294   84295   84296
   84295   84297   84298   84299   84298   84300   84301   84302
   84301   84303   84304   84305   84304   84306   84307   84308
   84307   84309   84310   84311   84310   84312   84313   84314
   84313   84315   84316   84317   84316   84318   84319   84320
   84319   84321   84322   84323   84322   84324   84325   84326
   84325   84327   84328   84329   84328   84330   84331   84332
   84331   84333   84334   84335   84334   84336   84337   84338
   84337   84339   84340   84341   84340   84342   84343   84344
   84343   84345   84346   84347   84346   84348   84349   84350
   84349   84351   84352   84353   84352   84354   84355   84356
   84355   84357   84358   84359   84358   84360   84361   84362
   84361   84363   84364   84365   84364   84366   84367   84368
   84367   84369   84370   84371   84370   84372   84373   84374
   84373   84375   84376   84377   84376   84378   84379   84380
   84379   84381   84382   84383   84382   84384   84385   84386
   84385   84387   84388   84389   84388   84390   84391   84392
   84391   84393   84394   84395   84394   84396   84397   84398
   84397   84399   84400   84401   84400   84402   84403   84404
   84403   84405   84406   84407   84406   84408   84409   84410
   84409   84411   84412   84413   84412   84414   84415   84416
   84415   84417   84418   84419   84418   84420   84421   84422
   84421   84423   84424   84425   84424   84426   84427   84428
   84427   84429   84430   84431   84430   84432   84433   84434
   84433   84435   84436   84437   84436   84438   84439   84440
   84439   84441   84442   84443   84442   84444   84445   84446
   84445   84447   84448   84449   84448   84450   84451   84452
   84451   84453   84454   84455   84454   84456   84457   84458
   84457   84459   84460   84461   84460   84462   84463   84464
   84463   84465   84466   84467   84466   84468   84469   84470
   84469   84471   84472   84473   84472   84474   84475   84476
   84475   84477   84478   84479   84478   84480   84481   84482
   84481   84483   84484   84485   84484   84486   84487   84488
   84487   84489   84490   84491   84490   84492   84493   84494
   84493   84495   84496   84497   84496   84498   84499   84500
   84499   84501   84502   84503   84502   84504   84505   84506
   84505   84507   84508   84509   84508   84510   84511   84512
   84511   84513   84514   84515   84514   84516   84517   84518
   84517   84519   84520   84521   84520   84522   84523   84524
   84523   84525   84526   84527   84526   84528   84529   84530
   84529   84531   84532   84533   84532   84534   84535   84536
   84535   84537   84538   84539   84538   84540   84541   84542
   84541   84543   84544   84545   84544   84546   84547   84548
   84547   84549   84550   84551   84550   84552   84553   84554
   84553   84555   84556   84557   84556   84558   84559   84560
   84559   84561   84562   84563   84562   84564   84565   84566
   84565   84567   84568   84569   84568   84570   84571   84572
   84571   84573   84574   84575   84574   84576   84577   84578
   84577   84579   84580   84581   84580   84582   84583   84584
   84583   84585   84586   84587   84586   84588   84589   84590
   84589   84591   84592   84593   84592   84594   84595   84596
   84595   84597   84598   84599   84598   84600   84601   84602
   84601   84603   84604   84605   84604   84606   84607   84608
   84607   84609   84610   84611   84610   84612   84613   84614
   84613   84615   84616   84617   84616   84618   84619   84620
   84619   84621   84622   84623   84622   84624   84625   84626
   84625   84627   84628   84629   84628   84630   84631   84632
   84631   84633   84634   84635   84634   84636   84637   84638
   84637   84639   84640   84641   84640   84642   84643   84644
   84643   84645   84646   84647   84646   84648   84649   84650
   84649   84651   84652   84653   84652   84654   84655   84656
   84655   84657   84658   84659   84658   84660   84661   84662
   84661   84663   84664   84665   84664   84666   84667   84668
   84667   84669   84670   84671   84670   84672   84673   84674
   84673   84675   84676   84677   84676   84678   84679   84680
   84679   84681   84682   84683   84682   84684   84685   84686
   84685   84687   84688   84689   84688   84690   84691   84692
   84691   84693   84694   84695   84694   84696   84697   84698
   84697   84699   84700   84701   84700   84702   84703   84704
   84703   84705   84706   84707   84706   84708   84709   84710
   84709   84711   84712   84713   84712   84714   84715   84716
   84715   84717   84718   84719   84718   84720   84721   84722
   84721   84723   84724   84725   84724   84726   84727   84728
   84727   84729   84730   84731   84730   84732   84733   84734
   84733   84735   84736   84737   84736   84738   84739   84740
   84739   84741   84742   84743   84742   84744   84745   84746
   84745   84747   84748   84749   84748   84750   84751   84752
   84751   84753   84754   84755   84754   84756   84757   84758
   84757   84759   84760   84761   84760   84762   84763   84764
   84763   84765   84766   84767   84766   84768   84769   84770
   84769   84771   84772   84773   84772   84774   84775   84776
   84775   84777   84778   84779   84778   84780   84781   84782
   84781   84783   84784   84785   84784   84786   84787   84788
   84787   84789   84790   84791   84790   84792   84793   84794
   84793   84795   84796   84797   84796   84798   84799   84800
   84799   84801   84802   84803   84802   84804   84805   84806
   84805   84807   84808   84809   84808   84810   84811   84812
   84811   84813   84814   84815   84814   84816   84817   84818
   84817   84819   84820   84821   84820   84822   84823   84824
   84823   84825   84826   84827   84826   84828   84829   84830
   84829   84831   84832   84833   84832   84834   84835   84836
   84835   84837   84838   84839   84838   84840   84841   84842
   84841   84843   84844   84845   84844   84846   84847   84848
   84847   84849   84850   84851   84850   84852   84853   84854
   84853   84855   84856   84857   84856   84858   84859   84860
   84859   84861   84862   84863   84862   84864   84865   84866
   84865   84867   84868   84869   84868   84870   84871   84872
   84871   84873   84874   84875   84874   84876   84877   84878
   84877   84879   84880   84881   84880   84882   84883   84884
   84883   84885   84886   84887   84886   84888   84889   84890
   84889   84891   84892   84893   84892   84894   84895   84896
   84895   84897   84898   84899   84898   84900   84901   84902
   84901   84903   84904   84905   84904   84906   84907   84908
   84907   84909   84910   84911   84910   84912   84913   84914
   84913   84915   84916   84917   84916   84918   84919   84920
   84919   84921   84922   84923   84922   84924   84925   84926
   84925   84927   84928   84929   84928   84930   84931   84932
   84931   84933   84934   84935   84934   84936   84937   84938
   84937   84939   84940   84941   84940   84942   84943   84944
   84943   84945   84946   84947   84946   84948   84949   84950
   84949   84951   84952   84953   84952   84954   84955   84956
   84955   84957   84958   84959   84958   84960   84961   84962
   84961   84963   84964   84965   84964   84966   84967   84968
   84967   84969   84970   84971   84970   84972   84973   84974
   84973   84975   84976   84977   84976   84978   84979   84980
   84979   84981   84982   84983   84982   84984   84985   84986
   84985   84987   84988   84989   84988   84990   84991   84992
   84991   84993   84994   84995   84994   84996   84997   84998
   84997   84999   85000   85001   85000   85002   85003   85004
   85003   85005   85006   85007   85006   85008   85009   85010
   85009   85011   85012   85013   85012   85014   85015   85016
   85015   85017   85018   85019   85018   85020   85021   85022
   85021   85023   85024   85025   85024   85026   85027   85028
   85027   85029   85030   85031   85030   85032   85033   85034
   85033   85035   85036   85037   85036   85038   85039   85040
   85039   85041   85042   85043   85042   85044   85045   85046
   85045   85047   85048   85049   85048   85050   85051   85052
   85051   85053   85054   85055   85054   85056   85057   85058
   85057   85059   85060   85061   85060   85062   85063   85064
   85063   85065   85066   85067   85066   85068   85069   85070
   85069   85071   85072   85073   85072   85074   85075   85076
   85075   85077   85078   85079   85078   85080   85081   85082
   85081   85083   85084   85085   85084   85086   85087   85088
   85087   85089   85090   85091   85090   85092   85093   85094
   85093   85095   85096   85097   85096   85098   85099   85100
   85099   85101   85102   85103   85102   85104   85105   85106
   85105   85107   85108   85109   85108   85110   85111   85112
   85111   85113   85114   85115   85114   85116   85117   85118
   85117   85119   85120   85121   85120   85122   85123   85124
   85123   85125   85126   85127   85126   85128   85129   85130
   85129   85131   85132   85133   85132   85134   85135   85136
   85135   85137   85138   85139   85138   85140   85141   85142
   85141   85143   85144   85145   85144   85146   85147   85148
   85147   85149   85150   85151   85150   85152   85153   85154
   85153   85155   85156   85157   85156   85158   85159   85160
   85159   85161   85162   85163   85162   85164   85165   85166
   85165   85167   85168   85169   85168   85170   85171   85172
   85171   85173   85174   85175   85174   85176   85177   85178
   85177   85179   85180   85181   85180   85182   85183   85184
   85183   85185   85186   85187   85186   85188   85189   85190
   85189   85191   85192   85193   85192   85194   85195   85196
   85195   85197   85198   85199   85198   85200   85201   85202
   85201   85203   85204   85205   85204   85206   85207   85208
   85207   85209   85210   85211   85210   85212   85213   85214
   85213   85215   85216   85217   85216   85218   85219   85220
   85219   85221   85222   85223   85222   85224   85225   85226
   85225   85227   85228   85229   85228   85230   85231   85232
   85231   85233   85234   85235   85234   85236   85237   85238
   85237   85239   85240   85241   85240   85242   85243   85244
   85243   85245   85246   85247   85246   85248   85249   85250
   85249   85251   85252   85253   85252   85254   85255   85256
   85255   85257   85258   85259   85258   85260   85261   85262
   85261   85263   85264   85265   85264   85266   85267   85268
   85267   85269   85270   85271   85270   85272   85273   85274
   85273   85275   85276   85277   85276   85278   85279   85280
   85279   85281   85282   85283   85282   85284   85285   85286
   85285   85287   85288   85289   85288   85290   85291   85292
   85291   85293   85294   85295   85294   85296   85297   85298
   85297   85299   85300   85301   85300   85302   85303   85304
   85303   85305   85306   85307   85306   85308   85309   85310
   85309   85311   85312   85313   85312   85314   85315   85316
   85315   85317   85318   85319   85318   85320   85321   85322
   85321   85323   85324   85325   85324   85326   85327   85328
   85327   85329   85330   85331   85330   85332   85333   85334
   85333   85335   85336   85337   85336   85338   85339   85340
   85339   85341   85342   85343   85342   85344   85345   85346
   85345   85347   85348   85349   85348   85350   85351   85352
   85351   85353   85354   85355   85354   85356   85357   85358
   85357   85359   85360   85361   85360   85362   85363   85364
   85363   85365   85366   85367   85366   85368   85369   85370
   85369   85371   85372   85373   85372   85374   85375   85376
   85375   85377   85378   85379   85378   85380   85381   85382
   85381   85383   85384   85385   85384   85386   85387   85388
   85387   85389   85390   85391   85390   85392   85393   85394
   85393   85395   85396   85397   85396   85398   85399   85400
   85399   85401   85402   85403   85402   85404   85405   85406
   85405   85407   85408   85409   85408   85410   85411   85412
   85411   85413   85414   85415   85414   85416   85417   85418
   85417   85419   85420   85421   85420   85422   85423   85424
   85423   85425   85426   85427   85426   85428   85429   85430
   85429   85431   85432   85433   85432   85434   85435   85436
   85435   85437   85438   85439   85438   85440   85441   85442
   85441   85443   85444   85445   85444   85446   85447   85448
   85447   85449   85450   85451   85450   85452   85453   85454
   85453   85455   85456   85457   85456   85458   85459   85460
   85459   85461   85462   85463   85462   85464   85465   85466
   85465   85467   85468   85469   85468   85470   85471   85472
   85471   85473   85474   85475   85474   85476   85477   85478
   85477   85479   85480   85481   85480   85482   85483   85484
   85483   85485   85486   85487   85486   85488   85489   85490
   85489   85491   85492   85493   85492   85494   85495   85496
   85495   85497   85498   85499   85498   85500   85501   85502
   85501   85503   85504   85505   85504   85506   85507   85508
   85507   85509   85510   85511   85510   85512   85513   85514
   85513   85515   85516   85517   85516   85518   85519   85520
   85519   85521   85522   85523   85522   85524   85525   85526
   85525   85527   85528   85529   85528   85530   85531   85532
   85531   85533   85534   85535   85534   85536   85537   85538
   85537   85539   85540   85541   85540   85542   85543   85544
   85543   85545   85546   85547   85546   85548   85549   85550
   85549   85551   85552   85553   85552   85554   85555   85556
   85555   85557   85558   85559   85558   85560   85561   85562
   85561   85563   85564   85565   85564   85566   85567   85568
   85567   85569   85570   85571   85570   85572   85573   85574
   85573   85575   85576   85577   85576   85578   85579   85580
   85579   85581   85582   85583   85582   85584   85585   85586
   85585   85587   85588   85589   85588   85590   85591   85592
   85591   85593   85594   85595   85594   85596   85597   85598
   85597   85599   85600   85601   85600   85602   85603   85604
   85603   85605   85606   85607   85606   85608   85609   85610
   85609   85611   85612   85613   85612   85614   85615   85616
   85615   85617   85618   85619   85618   85620   85621   85622
   85621   85623   85624   85625   85624   85626   85627   85628
   85627   85629   85630   85631   85630   85632   85633   85634
   85633   85635   85636   85637   85636   85638   85639   85640
   85639   85641   85642   85643   85642   85644   85645   85646
   85645   85647   85648   85649   85648   85650   85651   85652
   85651   85653   85654   85655   85654   85656   85657   85658
   85657   85659   85660   85661   85660   85662   85663   85664
   85663   85665   85666   85667   85666   85668   85669   85670
   85669   85671   85672   85673   85672   85674   85675   85676
   85675   85677   85678   85679   85678   85680   85681   85682
   85681   85683   85684   85685   85684   85686   85687   85688
   85687   85689   85690   85691   85690   85692   85693   85694
   85693   85695   85696   85697   85696   85698   85699   85700
   85699   85701   85702   85703   85702   85704   85705   85706
   85705   85707   85708   85709   85708   85710   85711   85712
   85711   85713   85714   85715   85714   85716   85717   85718
   85717   85719   85720   85721   85720   85722   85723   85724
   85723   85725   85726   85727   85726   85728   85729   85730
   85729   85731   85732   85733   85732   85734   85735   85736
   85735   85737   85738   85739   85738   85740   85741   85742
   85741   85743   85744   85745   85744   85746   85747   85748
   85747   85749   85750   85751   85750   85752   85753   85754
   85753   85755   85756   85757   85756   85758   85759   85760
   85759   85761   85762   85763   85762   85764   85765   85766
   85765   85767   85768   85769   85768   85770   85771   85772
   85771   85773   85774   85775   85774   85776   85777   85778
   85777   85779   85780   85781   85780   85782   85783   85784
   85783   85785   85786   85787   85786   85788   85789   85790
   85789   85791   85792   85793   85792   85794   85795   85796
   85795   85797   85798   85799   85798   85800   85801   85802
   85801   85803   85804   85805   85804   85806   85807   85808
   85807   85809   85810   85811   85810   85812   85813   85814
   85813   85815   85816   85817   85816   85818   85819   85820
   85819   85821   85822   85823   85822   85824   85825   85826
   85825   85827   85828   85829   85828   85830   85831   85832
   85831   85833   85834   85835   85834   85836   85837   85838
   85837   85839   85840   85841   85840   85842   85843   85844
   85843   85845   85846   85847   85846   85848   85849   85850
   85849   85851   85852   85853   85852   85854   85855   85856
   85855   85857   85858   85859   85858   85860   85861   85862
   85861   85863   85864   85865   85864   85866   85867   85868
   85867   85869   85870   85871   85870   85872   85873   85874
   85873   85875   85876   85877   85876   85878   85879   85880
   85879   85881   85882   85883   85882   85884   85885   85886
   85885   85887   85888   85889   85888   85890   85891   85892
   85891   85893   85894   85895   85894   85896   85897   85898
   85897   85899   85900   85901   85900   85902   85903   85904
   85903   85905   85906   85907   85906   85908   85909   85910
   85909   85911   85912   85913   85912   85914   85915   85916
   85915   85917   85918   85919   85918   85920   85921   85922
   85921   85923   85924   85925   85924   85926   85927   85928
   85927   85929   85930   85931   85930   85932   85933   85934
   85933   85935   85936   85937   85936   85938   85939   85940
   85939   85941   85942   85943   85942   85944   85945   85946
   85945   85947   85948   85949   85948   85950   85951   85952
   85951   85953   85954   85955   85954   85956   85957   85958
   85957   85959   85960   85961   85960   85962   85963   85964
   85963   85965   85966   85967   85966   85968   85969   85970
   85969   85971   85972   85973   85972   85974   85975   85976
   85975   85977   85978   85979   85978   85980   85981   85982
   85981   85983   85984   85985   85984   85986   85987   85988
   85987   85989   85990   85991   85990   85992   85993   85994
   85993   85995   85996   85997   85996   85998   85999   86000
   85999   86001   86002   86003   86002   86004   86005   86006
   86005   86007   86008   86009   86008   86010   86011   86012
   86011   86013   86014   86015   86014   86016   86017   86018
   86017   86019   86020   86021   86020   86022   86023   86024
   86023   86025   86026   86027   86026   86028   86029   86030
   86029   86031   86032   86033   86032   86034   86035   86036
   86035   86037   86038   86039   86038   86040   86041   86042
   86041   86043   86044   86045   86044   86046   86047   86048
   86047   86049   86050   86051   86050   86052   86053   86054
   86053   86055   86056   86057   86056   86058   86059   86060
   86059   86061   86062   86063   86062   86064   86065   86066
   86065   86067   86068   86069   86068   86070   86071   86072
   86071   86073   86074   86075   86074   86076   86077   86078
   86077   86079   86080   86081   86080   86082   86083   86084
   86083   86085   86086   86087   86086   86088   86089   86090
   86089   86091   86092   86093   86092   86094   86095   86096
   86095   86097   86098   86099   86098   86100   86101   86102
   86101   86103   86104   86105   86104   86106   86107   86108
   86107   86109   86110   86111   86110   86112   86113   86114
   86113   86115   86116   86117   86116   86118   86119   86120
   86119   86121   86122   86123   86122   86124   86125   86126
   86125   86127   86128   86129   86128   86130   86131   86132
   86131   86133   86134   86135   86134   86136   86137   86138
   86137   86139   86140   86141   86140   86142   86143   86144
   86143   86145   86146   86147   86146   86148   86149   86150
   86149   86151   86152   86153   86152   86154   86155   86156
   86155   86157   86158   86159   86158   86160   86161   86162
   86161   86163   86164   86165   86164   86166   86167   86168
   86167   86169   86170   86171   86170   86172   86173   86174
   86173   86175   86176   86177   86176   86178   86179   86180
   86179   86181   86182   86183   86182   86184   86185   86186
   86185   86187   86188   86189   86188   86190   86191   86192
   86191   86193   86194   86195   86194   86196   86197   86198
   86197   86199   86200   86201   86200   86202   86203   86204
   86203   86205   86206   86207   86206   86208   86209   86210
   86209   86211   86212   86213   86212   86214   86215   86216
   86215   86217   86218   86219   86218   86220   86221   86222
   86221   86223   86224   86225   86224   86226   86227   86228
   86227   86229   86230   86231   86230   86232   86233   86234
   86233   86235   86236   86237   86236   86238   86239   86240
   86239   86241   86242   86243   86242   86244   86245   86246
   86245   86247   86248   86249   86248   86250   86251   86252
   86251   86253   86254   86255   86254   86256   86257   86258
   86257   86259   86260   86261   86260   86262   86263   86264
   86263   86265   86266   86267   86266   86268   86269   86270
   86269   86271   86272   86273   86272   86274   86275   86276
   86275   86277   86278   86279   86278   86280   86281   86282
   86281   86283   86284   86285   86284   86286   86287   86288
   86287   86289   86290   86291   86290   86292   86293   86294
   86293   86295   86296   86297   86296   86298   86299   86300
   86299   86301   86302   86303   86302   86304   86305   86306
   86305   86307   86308   86309   86308   86310   86311   86312
   86311   86313   86314   86315   86314   86316   86317   86318
   86317   86319   86320   86321   86320   86322   86323   86324
   86323   86325   86326   86327   86326   86328   86329   86330
   86329   86331   86332   86333   86332   86334   86335   86336
   86335   86337   86338   86339   86338   86340   86341   86342
   86341   86343   86344   86345   86344   86346   86347   86348
   86347   86349   86350   86351   86350   86352   86353   86354
   86353   86355   86356   86357   86356   86358   86359   86360
   86359   86361   86362   86363   86362   86364   86365   86366
   86365   86367   86368   86369   86368   86370   86371   86372
   86371   86373   86374   86375   86374   86376   86377   86378
   86377   86379   86380   86381   86380   86382   86383   86384
   86383   86385   86386   86387   86386   86388   86389   86390
   86389   86391   86392   86393   86392   86394   86395   86396
   86395   86397   86398   86399   86398   86400   86401   86402
   86401   86403   86404   86405   86404   86406   86407   86408
   86407   86409   86410   86411   86410   86412   86413   86414
   86413   86415   86416   86417   86416   86418   86419   86420
   86419   86421   86422   86423   86422   86424   86425   86426
   86425   86427   86428   86429   86428   86430   86431   86432
   86431   86433   86434   86435   86434   86436   86437   86438
   86437   86439   86440   86441   86440   86442   86443   86444
   86443   86445   86446   86447   86446   86448   86449   86450
   86449   86451   86452   86453   86452   86454   86455   86456
   86455   86457   86458   86459   86458   86460   86461   86462
   86461   86463   86464   86465   86464   86466   86467   86468
   86467   86469   86470   86471   86470   86472   86473   86474
   86473   86475   86476   86477   86476   86478   86479   86480
   86479   86481   86482   86483   86482   86484   86485   86486
   86485   86487   86488   86489   86488   86490   86491   86492
   86491   86493   86494   86495   86494   86496   86497   86498
   86497   86499   86500   86501   86500   86502   86503   86504
   86503   86505   86506   86507   86506   86508   86509   86510
   86509   86511   86512   86513   86512   86514   86515   86516
   86515   86517   86518   86519   86518   86520   86521   86522
   86521   86523   86524   86525   86524   86526   86527   86528
   86527   86529   86530   86531   86530   86532   86533   86534
   86533   86535   86536   86537   86536   86538   86539   86540
   86539   86541   86542   86543   86542   86544   86545   86546
   86545   86547   86548   86549   86548   86550   86551   86552
   86551   86553   86554   86555   86554   86556   86557   86558
   86557   86559   86560   86561   86560   86562   86563   86564
   86563   86565   86566   86567   86566   86568   86569   86570
   86569   86571   86572   86573   86572   86574   86575   86576
   86575   86577   86578   86579   86578   86580   86581   86582
   86581   86583   86584   86585   86584   86586   86587   86588
   86587   86589   86590   86591   86590   86592   86593   86594
   86593   86595   86596   86597   86596   86598   86599   86600
   86599   86601   86602   86603   86602   86604   86605   86606
   86605   86607   86608   86609   86608   86610   86611   86612
   86611   86613   86614   86615   86614   86616   86617   86618
   86617   86619   86620   86621   86620   86622   86623   86624
   86623   86625   86626   86627   86626   86628   86629   86630
   86629   86631   86632   86633   86632   86634   86635   86636
   86635   86637   86638   86639   86638   86640   86641   86642
   86641   86643   86644   86645   86644   86646   86647   86648
   86647   86649   86650   86651   86650   86652   86653   86654
   86653   86655   86656   86657   86656   86658   86659   86660
   86659   86661   86662   86663   86662   86664   86665   86666
   86665   86667   86668   86669   86668   86670   86671   86672
   86671   86673   86674   86675   86674   86676   86677   86678
   86677   86679   86680   86681   86680   86682   86683   86684
   86683   86685   86686   86687   86686   86688   86689   86690
   86689   86691   86692   86693   86692   86694   86695   86696
   86695   86697   86698   86699   86698   86700   86701   86702
   86701   86703   86704   86705   86704   86706   86707   86708
   86707   86709   86710   86711   86710   86712   86713   86714
   86713   86715   86716   86717   86716   86718   86719   86720
   86719   86721   86722   86723   86722   86724   86725   86726
   86725   86727   86728   86729   86728   86730   86731   86732
   86731   86733   86734   86735   86734   86736   86737   86738
   86737   86739   86740   86741   86740   86742   86743   86744
   86743   86745   86746   86747   86746   86748   86749   86750
   86749   86751   86752   86753   86752   86754   86755   86756
   86755   86757   86758   86759   86758   86760   86761   86762
   86761   86763   86764   86765   86764   86766   86767   86768
   86767   86769   86770   86771   86770   86772   86773   86774
   86773   86775   86776   86777   86776   86778   86779   86780
   86779   86781   86782   86783   86782   86784   86785   86786
   86785   86787   86788   86789   86788   86790   86791   86792
   86791   86793   86794   86795   86794   86796   86797   86798
   86797   86799   86800   86801   86800   86802   86803   86804
   86803   86805   86806   86807   86806   86808   86809   86810
   86809   86811   86812   86813   86812   86814   86815   86816
   86815   86817   86818   86819   86818   86820   86821   86822
   86821   86823   86824   86825   86824   86826   86827   86828
   86827   86829   86830   86831   86830   86832   86833   86834
   86833   86835   86836   86837   86836   86838   86839   86840
   86839   86841   86842   86843   86842   86844   86845   86846
   86845   86847   86848   86849   86848   86850   86851   86852
   86851   86853   86854   86855   86854   86856   86857   86858
   86857   86859   86860   86861   86860   86862   86863   86864
   86863   86865   86866   86867   86866   86868   86869   86870
   86869   86871   86872   86873   86872   86874   86875   86876
   86875   86877   86878   86879   86878   86880   86881   86882
   86881   86883   86884   86885   86884   86886   86887   86888
   86887   86889   86890   86891   86890   86892   86893   86894
   86893   86895   86896   86897   86896   86898   86899   86900
   86899   86901   86902   86903   86902   86904   86905   86906
   86905   86907   86908   86909   86908   86910   86911   86912
   86911   86913   86914   86915   86914   86916   86917   86918
   86917   86919   86920   86921   86920   86922   86923   86924
   86923   86925   86926   86927   86926   86928   86929   86930
   86929   86931   86932   86933   86932   86934   86935   86936
   86935   86937   86938   86939   86938   86940   86941   86942
   86941   86943   86944   86945   86944   86946   86947   86948
   86947   86949   86950   86951   86950   86952   86953   86954
   86953   86955   86956   86957   86956   86958   86959   86960
   86959   86961   86962   86963   86962   86964   86965   86966
   86965   86967   86968   86969   86968   86970   86971   86972
   86971   86973   86974   86975   86974   86976   86977   86978
   86977   86979   86980   86981   86980   86982   86983   86984
   86983   86985   86986   86987   86986   86988   86989   86990
   86989   86991   86992   86993   86992   86994   86995   86996
   86995   86997   86998   86999   86998   87000   87001   87002
   87001   87003   87004   87005   87004   87006   87007   87008
   87007   87009   87010   87011   87010   87012   87013   87014
   87013   87015   87016   87017   87016   87018   87019   87020
   87019   87021   87022   87023   87022   87024   87025   87026
   87025   87027   87028   87029   87028   87030   87031   87032
   87031   87033   87034   87035   87034   87036   87037   87038
   87037   87039   87040   87041   87040   87042   87043   87044
   87043   87045   87046   87047   87046   87048   87049   87050
   87049   87051   87052   87053   87052   87054   87055   87056
   87055   87057   87058   87059   87058   87060   87061   87062
   87061   87063   87064   87065   87064   87066   87067   87068
   87067   87069   87070   87071   87070   87072   87073   87074
   87073   87075   87076   87077   87076   87078   87079   87080
   87079   87081   87082   87083   87082   87084   87085   87086
   87085   87087   87088   87089   87088   87090   87091   87092
   87091   87093   87094   87095   87094   87096   87097   87098
   87097   87099   87100   87101   87100   87102   87103   87104
   87103   87105   87106   87107   87106   87108   87109   87110
   87109   87111   87112   87113   87112   87114   87115   87116
   87115   87117   87118   87119   87118   87120   87121   87122
   87121   87123   87124   87125   87124   87126   87127   87128
   87127   87129   87130   87131   87130   87132   87133   87134
   87133   87135   87136   87137   87136   87138   87139   87140
   87139   87141   87142   87143   87142   87144   87145   87146
   87145   87147   87148   87149   87148   87150   87151   87152
   87151   87153   87154   87155   87154   87156   87157   87158
   87157   87159   87160   87161   87160   87162   87163   87164
   87163   87165   87166   87167   87166   87168   87169   87170
   87169   87171   87172   87173   87172   87174   87175   87176
   87175   87177   87178   87179   87178   87180   87181   87182
   87181   87183   87184   87185   87184   87186   87187   87188
   87187   87189   87190   87191   87190   87192   87193   87194
   87193   87195   87196   87197   87196   87198   87199   87200
   87199   87201   87202   87203   87202   87204   87205   87206
   87205   87207   87208   87209   87208   87210   87211   87212
   87211   87213   87214   87215   87214   87216   87217   87218
   87217   87219   87220   87221   87220   87222   87223   87224
   87223   87225   87226   87227   87226   87228   87229   87230
   87229   87231   87232   87233   87232   87234   87235   87236
   87235   87237   87238   87239   87238   87240   87241   87242
   87241   87243   87244   87245   87244   87246   87247   87248
   87247   87249   87250   87251   87250   87252   87253   87254
   87253   87255   87256   87257   87256   87258   87259   87260
   87259   87261   87262   87263   87262   87264   87265   87266
   87265   87267   87268   87269   87268   87270   87271   87272
   87271   87273   87274   87275   87274   87276   87277   87278
   87277   87279   87280   87281   87280   87282   87283   87284
   87283   87285   87286   87287   87286   87288   87289   87290
   87289   87291   87292   87293   87292   87294   87295   87296
   87295   87297   87298   87299   87298   87300   87301   87302
   87301   87303   87304   87305   87304   87306   87307   87308
   87307   87309   87310   87311   87310   87312   87313   87314
   87313   87315   87316   87317   87316   87318   87319   87320
   87319   87321   87322   87323   87322   87324   87325   87326
   87325   87327   87328   87329   87328   87330   87331   87332
   87331   87333   87334   87335   87334   87336   87337   87338
   87337   87339   87340   87341   87340   87342   87343   87344
   87343   87345   87346   87347   87346   87348   87349   87350
   87349   87351   87352   87353   87352   87354   87355   87356
   87355   87357   87358   87359   87358   87360   87361   87362
   87361   87363   87364   87365   87364   87366   87367   87368
   87367   87369   87370   87371   87370   87372   87373   87374
   87373   87375   87376   87377   87376   87378   87379   87380
   87379   87381   87382   87383   87382   87384   87385   87386
   87385   87387   87388   87389   87388   87390   87391   87392
   87391   87393   87394   87395   87394   87396   87397   87398
   87397   87399   87400   87401   87400   87402   87403   87404
   87403   87405   87406   87407   87406   87408   87409   87410
   87409   87411   87412   87413   87412   87414   87415   87416
   87415   87417   87418   87419   87418   87420   87421   87422
   87421   87423   87424   87425   87424   87426   87427   87428
   87427   87429   87430   87431   87430   87432   87433   87434
   87433   87435   87436   87437   87436   87438   87439   87440
   87439   87441   87442   87443   87442   87444   87445   87446
   87445   87447   87448   87449   87448   87450   87451   87452
   87451   87453   87454   87455   87454   87456   87457   87458
   87457   87459   87460   87461   87460   87462   87463   87464
   87463   87465   87466   87467   87466   87468   87469   87470
   87469   87471   87472   87473   87472   87474   87475   87476
   87475   87477   87478   87479   87478   87480   87481   87482
   87481   87483   87484   87485   87484   87486   87487   87488
   87487   87489   87490   87491   87490   87492   87493   87494
   87493   87495   87496   87497   87496   87498   87499   87500
   87499   87501   87502   87503   87502   87504   87505   87506
   87505   87507   87508   87509   87508   87510   87511   87512
   87511   87513   87514   87515   87514   87516   87517   87518
   87517   87519   87520   87521   87520   87522   87523   87524
   87523   87525   87526   87527   87526   87528   87529   87530
   87529   87531   87532   87533   87532   87534   87535   87536
   87535   87537   87538   87539   87538   87540   87541   87542
   87541   87543   87544   87545   87544   87546   87547   87548
   87547   87549   87550   87551   87550   87552   87553   87554
   87553   87555   87556   87557   87556   87558   87559   87560
   87559   87561   87562   87563   87562   87564   87565   87566
   87565   87567   87568   87569   87568   87570   87571   87572
   87571   87573   87574   87575   87574   87576   87577   87578
   87577   87579   87580   87581   87580   87582   87583   87584
   87583   87585   87586   87587   87586   87588   87589   87590
   87589   87591   87592   87593   87592   87594   87595   87596
   87595   87597   87598   87599   87598   87600   87601   87602
   87601   87603   87604   87605   87604   87606   87607   87608
   87607   87609   87610   87611   87610   87612   87613   87614
   87613   87615   87616   87617   87616   87618   87619   87620
   87619   87621   87622   87623   87622   87624   87625   87626
   87625   87627   87628   87629   87628   87630   87631   87632
   87631   87633   87634   87635   87634   87636   87637   87638
   87637   87639   87640   87641   87640   87642   87643   87644
   87643   87645   87646   87647   87646   87648   87649   87650
   87649   87651   87652   87653   87652   87654   87655   87656
   87655   87657   87658   87659   87658   87660   87661   87662
   87661   87663   87664   87665   87664   87666   87667   87668
   87667   87669   87670   87671   87670   87672   87673   87674
   87673   87675   87676   87677   87676   87678   87679   87680
   87679   87681   87682   87683   87682   87684   87685   87686
   87685   87687   87688   87689   87688   87690   87691   87692
   87691   87693   87694   87695   87694   87696   87697   87698
   87697   87699   87700   87701   87700   87702   87703   87704
   87703   87705   87706   87707   87706   87708   87709   87710
   87709   87711   87712   87713   87712   87714   87715   87716
   87715   87717   87718   87719   87718   87720   87721   87722
   87721   87723   87724   87725   87724   87726   87727   87728
   87727   87729   87730   87731   87730   87732   87733   87734
   87733   87735   87736   87737   87736   87738   87739   87740
   87739   87741   87742   87743   87742   87744   87745   87746
   87745   87747   87748   87749   87748   87750   87751   87752
   87751   87753   87754   87755   87754   87756   87757   87758
   87757   87759   87760   87761   87760   87762   87763   87764
   87763   87765   87766   87767   87766   87768   87769   87770
   87769   87771   87772   87773   87772   87774   87775   87776
   87775   87777   87778   87779   87778   87780   87781   87782
   87781   87783   87784   87785   87784   87786   87787   87788
   87787   87789   87790   87791   87790   87792   87793   87794
   87793   87795   87796   87797   87796   87798   87799   87800
   87799   87801   87802   87803   87802   87804   87805   87806
   87805   87807   87808   87809   87808   87810   87811   87812
   87811   87813   87814   87815   87814   87816   87817   87818
   87817   87819   87820   87821   87820   87822   87823   87824
   87823   87825   87826   87827   87826   87828   87829   87830
   87829   87831   87832   87833   87832   87834   87835   87836
   87835   87837   87838   87839   87838   87840   87841   87842
   87841   87843   87844   87845   87844   87846   87847   87848
   87847   87849   87850   87851   87850   87852   87853   87854
   87853   87855   87856   87857   87856   87858   87859   87860
   87859   87861   87862   87863   87862   87864   87865   87866
   87865   87867   87868   87869   87868   87870   87871   87872
   87871   87873   87874   87875   87874   87876   87877   87878
   87877   87879   87880   87881   87880   87882   87883   87884
   87883   87885   87886   87887   87886   87888   87889   87890
   87889   87891   87892   87893   87892   87894   87895   87896
   87895   87897   87898   87899   87898   87900   87901   87902
   87901   87903   87904   87905   87904   87906   87907   87908
   87907   87909   87910   87911   87910   87912   87913   87914
   87913   87915   87916   87917   87916   87918   87919   87920
   87919   87921   87922   87923   87922   87924   87925   87926
   87925   87927   87928   87929   87928   87930   87931   87932
   87931   87933   87934   87935   87934   87936   87937   87938
   87937   87939   87940   87941   87940   87942   87943   87944
   87943   87945   87946   87947   87946   87948   87949   87950
   87949   87951   87952   87953   87952   87954   87955   87956
   87955   87957   87958   87959   87958   87960   87961   87962
   87961   87963   87964   87965   87964   87966   87967   87968
   87967   87969   87970   87971   87970   87972   87973   87974
   87973   87975   87976   87977   87976   87978   87979   87980
   87979   87981   87982   87983   87982   87984   87985   87986
   87985   87987   87988   87989   87988   87990   87991   87992
   87991   87993   87994   87995   87994   87996   87997   87998
   87997   87999   88000   88001   88000   88002   88003   88004
   88003   88005   88006   88007   88006   88008   88009   88010
   88009   88011   88012   88013   88012   88014   88015   88016
   88015   88017   88018   88019   88018   88020   88021   88022
   88021   88023   88024   88025   88024   88026   88027   88028
   88027   88029   88030   88031   88030   88032   88033   88034
   88033   88035   88036   88037   88036   88038   88039   88040
   88039   88041   88042   88043   88042   88044   88045   88046
   88045   88047   88048   88049   88048   88050   88051   88052
   88051   88053   88054   88055   88054   88056   88057   88058
   88057   88059   88060   88061   88060   88062   88063   88064
   88063   88065   88066   88067   88066   88068   88069   88070
   88069   88071   88072   88073   88072   88074   88075   88076
   88075   88077   88078   88079   88078   88080   88081   88082
   88081   88083   88084   88085   88084   88086   88087   88088
   88087   88089   88090   88091   88090   88092   88093   88094
   88093   88095   88096   88097   88096   88098   88099   88100
   88099   88101   88102   88103   88102   88104   88105   88106
   88105   88107   88108   88109   88108   88110   88111   88112
   88111   88113   88114   88115   88114   88116   88117   88118
   88117   88119   88120   88121   88120   88122   88123   88124
   88123   88125   88126   88127   88126   88128   88129   88130
   88129   88131   88132   88133   88132   88134   88135   88136
   88135   88137   88138   88139   88138   88140   88141   88142
   88141   88143   88144   88145   88144   88146   88147   88148
   88147   88149   88150   88151   88150   88152   88153   88154
   88153   88155   88156   88157   88156   88158   88159   88160
   88159   88161   88162   88163   88162   88164   88165   88166
   88165   88167   88168   88169   88168   88170   88171   88172
   88171   88173   88174   88175   88174   88176   88177   88178
   88177   88179   88180   88181   88180   88182   88183   88184
   88183   88185   88186   88187   88186   88188   88189   88190
   88189   88191   88192   88193   88192   88194   88195   88196
   88195   88197   88198   88199   88198   88200   88201   88202
   88201   88203   88204   88205   88204   88206   88207   88208
   88207   88209   88210   88211   88210   88212   88213   88214
   88213   88215   88216   88217   88216   88218   88219   88220
   88219   88221   88222   88223   88222   88224   88225   88226
   88225   88227   88228   88229   88228   88230   88231   88232
   88231   88233   88234   88235   88234   88236   88237   88238
   88237   88239   88240   88241   88240   88242   88243   88244
   88243   88245   88246   88247   88246   88248   88249   88250
   88249   88251   88252   88253   88252   88254   88255   88256
   88255   88257   88258   88259   88258   88260   88261   88262
   88261   88263   88264   88265   88264   88266   88267   88268
   88267   88269   88270   88271   88270   88272   88273   88274
   88273   88275   88276   88277   88276   88278   88279   88280
   88279   88281   88282   88283   88282   88284   88285   88286
   88285   88287   88288   88289   88288   88290   88291   88292
   88291   88293   88294   88295   88294   88296   88297   88298
   88297   88299   88300   88301   88300   88302   88303   88304
   88303   88305   88306   88307   88306   88308   88309   88310
   88309   88311   88312   88313   88312   88314   88315   88316
   88315   88317   88318   88319   88318   88320   88321   88322
   88321   88323   88324   88325   88324   88326   88327   88328
   88327   88329   88330   88331   88330   88332   88333   88334
   88333   88335   88336   88337   88336   88338   88339   88340
   88339   88341   88342   88343   88342   88344   88345   88346
   88345   88347   88348   88349   88348   88350   88351   88352
   88351   88353   88354   88355   88354   88356   88357   88358
   88357   88359   88360   88361   88360   88362   88363   88364
   88363   88365   88366   88367   88366   88368   88369   88370
   88369   88371   88372   88373   88372   88374   88375   88376
   88375   88377   88378   88379   88378   88380   88381   88382
   88381   88383   88384   88385   88384   88386   88387   88388
   88387   88389   88390   88391   88390   88392   88393   88394
   88393   88395   88396   88397   88396   88398   88399   88400
   88399   88401   88402   88403   88402   88404   88405   88406
   88405   88407   88408   88409   88408   88410   88411   88412
   88411   88413   88414   88415   88414   88416   88417   88418
   88417   88419   88420   88421   88420   88422   88423   88424
   88423   88425   88426   88427   88426   88428   88429   88430
   88429   88431   88432   88433   88432   88434   88435   88436
   88435   88437   88438   88439   88438   88440   88441   88442
   88441   88443   88444   88445   88444   88446   88447   88448
   88447   88449   88450   88451   88450   88452   88453   88454
   88453   88455   88456   88457   88456   88458   88459   88460
   88459   88461   88462   88463   88462   88464   88465   88466
   88465   88467   88468   88469   88468   88470   88471   88472
   88471   88473   88474   88475   88474   88476   88477   88478
   88477   88479   88480   88481   88480   88482   88483   88484
   88483   88485   88486   88487   88486   88488   88489   88490
   88489   88491   88492   88493   88492   88494   88495   88496
   88495   88497   88498   88499   88498   88500   88501   88502
   88501   88503   88504   88505   88504   88506   88507   88508
   88507   88509   88510   88511   88510   88512   88513   88514
   88513   88515   88516   88517   88516   88518   88519   88520
   88519   88521   88522   88523   88522   88524   88525   88526
   88525   88527   88528   88529   88528   88530   88531   88532
   88531   88533   88534   88535   88534   88536   88537   88538
   88537   88539   88540   88541   88540   88542   88543   88544
   88543   88545   88546   88547   88546   88548   88549   88550
   88549   88551   88552   88553   88552   88554   88555   88556
   88555   88557   88558   88559   88558   88560   88561   88562
   88561   88563   88564   88565   88564   88566   88567   88568
   88567   88569   88570   88571   88570   88572   88573   88574
   88573   88575   88576   88577   88576   88578   88579   88580
   88579   88581   88582   88583   88582   88584   88585   88586
   88585   88587   88588   88589   88588   88590   88591   88592
   88591   88593   88594   88595   88594   88596   88597   88598
   88597   88599   88600   88601   88600   88602   88603   88604
   88603   88605   88606   88607   88606   88608   88609   88610
   88609   88611   88612   88613   88612   88614   88615   88616
   88615   88617   88618   88619   88618   88620   88621   88622
   88621   88623   88624   88625   88624   88626   88627   88628
   88627   88629   88630   88631   88630   88632   88633   88634
   88633   88635   88636   88637   88636   88638   88639   88640
   88639   88641   88642   88643   88642   88644   88645   88646
   88645   88647   88648   88649   88648   88650   88651   88652
   88651   88653   88654   88655   88654   88656   88657   88658
   88657   88659   88660   88661   88660   88662   88663   88664
   88663   88665   88666   88667   88666   88668   88669   88670
   88669   88671   88672   88673   88672   88674   88675   88676
   88675   88677   88678   88679   88678   88680   88681   88682
   88681   88683   88684   88685   88684   88686   88687   88688
   88687   88689   88690   88691   88690   88692   88693   88694
   88693   88695   88696   88697   88696   88698   88699   88700
   88699   88701   88702   88703   88702   88704   88705   88706
   88705   88707   88708   88709   88708   88710   88711   88712
   88711   88713   88714   88715   88714   88716   88717   88718
   88717   88719   88720   88721   88720   88722   88723   88724
   88723   88725   88726   88727   88726   88728   88729   88730
   88729   88731   88732   88733   88732   88734   88735   88736
   88735   88737   88738   88739   88738   88740   88741   88742
   88741   88743   88744   88745   88744   88746   88747   88748
   88747   88749   88750   88751   88750   88752   88753   88754
   88753   88755   88756   88757   88756   88758   88759   88760
   88759   88761   88762   88763   88762   88764   88765   88766
   88765   88767   88768   88769   88768   88770   88771   88772
   88771   88773   88774   88775   88774   88776   88777   88778
   88777   88779   88780   88781   88780   88782   88783   88784
   88783   88785   88786   88787   88786   88788   88789   88790
   88789   88791   88792   88793   88792   88794   88795   88796
   88795   88797   88798   88799   88798   88800   88801   88802
   88801   88803   88804   88805   88804   88806   88807   88808
   88807   88809   88810   88811   88810   88812   88813   88814
   88813   88815   88816   88817   88816   88818   88819   88820
   88819   88821   88822   88823   88822   88824   88825   88826
   88825   88827   88828   88829   88828   88830   88831   88832
   88831   88833   88834   88835   88834   88836   88837   88838
   88837   88839   88840   88841   88840   88842   88843   88844
   88843   88845   88846   88847   88846   88848   88849   88850
   88849   88851   88852   88853   88852   88854   88855   88856
   88855   88857   88858   88859   88858   88860   88861   88862
   88861   88863   88864   88865   88864   88866   88867   88868
   88867   88869   88870   88871   88870   88872   88873   88874
   88873   88875   88876   88877   88876   88878   88879   88880
   88879   88881   88882   88883   88882   88884   88885   88886
   88885   88887   88888   88889   88888   88890   88891   88892
   88891   88893   88894   88895   88894   88896   88897   88898
   88897   88899   88900   88901   88900   88902   88903   88904
   88903   88905   88906   88907   88906   88908   88909   88910
   88909   88911   88912   88913   88912   88914   88915   88916
   88915   88917   88918   88919   88918   88920   88921   88922
   88921   88923   88924   88925   88924   88926   88927   88928
   88927   88929   88930   88931   88930   88932   88933   88934
   88933   88935   88936   88937   88936   88938   88939   88940
   88939   88941   88942   88943   88942   88944   88945   88946
   88945   88947   88948   88949   88948   88950   88951   88952
   88951   88953   88954   88955   88954   88956   88957   88958
   88957   88959   88960   88961   88960   88962   88963   88964
   88963   88965   88966   88967   88966   88968   88969   88970
   88969   88971   88972   88973   88972   88974   88975   88976
   88975   88977   88978   88979   88978   88980   88981   88982
   88981   88983   88984   88985   88984   88986   88987   88988
   88987   88989   88990   88991   88990   88992   88993   88994
   88993   88995   88996   88997   88996   88998   88999   89000
   88999   89001   89002   89003   89002   89004   89005   89006
   89005   89007   89008   89009   89008   89010   89011   89012
   89011   89013   89014   89015   89014   89016   89017   89018
   89017   89019   89020   89021   89020   89022   89023   89024
   89023   89025   89026   89027   89026   89028   89029   89030
   89029   89031   89032   89033   89032   89034   89035   89036
   89035   89037   89038   89039   89038   89040   89041   89042
   89041   89043   89044   89045   89044   89046   89047   89048
   89047   89049   89050   89051   89050   89052   89053   89054
   89053   89055   89056   89057   89056   89058   89059   89060
   89059   89061   89062   89063   89062   89064   89065   89066
   89065   89067   89068   89069   89068   89070   89071   89072
   89071   89073   89074   89075   89074   89076   89077   89078
   89077   89079   89080   89081   89080   89082   89083   89084
   89083   89085   89086   89087   89086   89088   89089   89090
   89089   89091   89092   89093   89092   89094   89095   89096
   89095   89097   89098   89099   89098   89100   89101   89102
   89101   89103   89104   89105   89104   89106   89107   89108
   89107   89109   89110   89111   89110   89112   89113   89114
   89113   89115   89116   89117   89116   89118   89119   89120
   89119   89121   89122   89123   89122   89124   89125   89126
   89125   89127   89128   89129   89128   89130   89131   89132
   89131   89133   89134   89135   89134   89136   89137   89138
   89137   89139   89140   89141   89140   89142   89143   89144
   89143   89145   89146   89147   89146   89148   89149   89150
   89149   89151   89152   89153   89152   89154   89155   89156
   89155   89157   89158   89159   89158   89160   89161   89162
   89161   89163   89164   89165   89164   89166   89167   89168
   89167   89169   89170   89171   89170   89172   89173   89174
   89173   89175   89176   89177   89176   89178   89179   89180
   89179   89181   89182   89183   89182   89184   89185   89186
   89185   89187   89188   89189   89188   89190   89191   89192
   89191   89193   89194   89195   89194   89196   89197   89198
   89197   89199   89200   89201   89200   89202   89203   89204
   89203   89205   89206   89207   89206   89208   89209   89210
   89209   89211   89212   89213   89212   89214   89215   89216
   89215   89217   89218   89219   89218   89220   89221   89222
   89221   89223   89224   89225   89224   89226   89227   89228
   89227   89229   89230   89231   89230   89232   89233   89234
   89233   89235   89236   89237   89236   89238   89239   89240
   89239   89241   89242   89243   89242   89244   89245   89246
   89245   89247   89248   89249   89248   89250   89251   89252
   89251   89253   89254   89255   89254   89256   89257   89258
   89257   89259   89260   89261   89260   89262   89263   89264
   89263   89265   89266   89267   89266   89268   89269   89270
   89269   89271   89272   89273   89272   89274   89275   89276
   89275   89277   89278   89279   89278   89280   89281   89282
   89281   89283   89284   89285   89284   89286   89287   89288
   89287   89289   89290   89291   89290   89292   89293   89294
   89293   89295   89296   89297   89296   89298   89299   89300
   89299   89301   89302   89303   89302   89304   89305   89306
   89305   89307   89308   89309   89308   89310   89311   89312
   89311   89313   89314   89315   89314   89316   89317   89318
   89317   89319   89320   89321   89320   89322   89323   89324
   89323   89325   89326   89327   89326   89328   89329   89330
   89329   89331   89332   89333   89332   89334   89335   89336
   89335   89337   89338   89339   89338   89340   89341   89342
   89341   89343   89344   89345   89344   89346   89347   89348
   89347   89349   89350   89351   89350   89352   89353   89354
   89353   89355   89356   89357   89356   89358   89359   89360
   89359   89361   89362   89363   89362   89364   89365   89366
   89365   89367   89368   89369   89368   89370   89371   89372
   89371   89373   89374   89375   89374   89376   89377   89378
   89377   89379   89380   89381   89380   89382   89383   89384
   89383   89385   89386   89387   89386   89388   89389   89390
   89389   89391   89392   89393   89392   89394   89395   89396
   89395   89397   89398   89399   89398   89400   89401   89402
   89401   89403   89404   89405   89404   89406   89407   89408
   89407   89409   89410   89411   89410   89412   89413   89414
   89413   89415   89416   89417   89416   89418   89419   89420
   89419   89421   89422   89423   89422   89424   89425   89426
   89425   89427   89428   89429   89428   89430   89431   89432
   89431   89433   89434   89435   89434   89436   89437   89438
   89437   89439   89440   89441   89440   89442   89443   89444
   89443   89445   89446   89447   89446   89448   89449   89450
   89449   89451   89452   89453   89452   89454   89455   89456
   89455   89457   89458   89459   89458   89460   89461   89462
   89461   89463   89464   89465   89464   89466   89467   89468
   89467   89469   89470   89471   89470   89472   89473   89474
   89473   89475   89476   89477   89476   89478   89479   89480
   89479   89481   89482   89483   89482   89484   89485   89486
   89485   89487   89488   89489   89488   89490   89491   89492
   89491   89493   89494   89495   89494   89496   89497   89498
   89497   89499   89500   89501   89500   89502   89503   89504
   89503   89505   89506   89507   89506   89508   89509   89510
   89509   89511   89512   89513   89512   89514   89515   89516
   89515   89517   89518   89519   89518   89520   89521   89522
   89521   89523   89524   89525   89524   89526   89527   89528
   89527   89529   89530   89531   89530   89532   89533   89534
   89533   89535   89536   89537   89536   89538   89539   89540
   89539   89541   89542   89543   89542   89544   89545   89546
   89545   89547   89548   89549   89548   89550   89551   89552
   89551   89553   89554   89555   89554   89556   89557   89558
   89557   89559   89560   89561   89560   89562   89563   89564
   89563   89565   89566   89567   89566   89568   89569   89570
   89569   89571   89572   89573   89572   89574   89575   89576
   89575   89577   89578   89579   89578   89580   89581   89582
   89581   89583   89584   89585   89584   89586   89587   89588
   89587   89589   89590   89591   89590   89592   89593   89594
   89593   89595   89596   89597   89596   89598   89599   89600
   89599   89601   89602   89603   89602   89604   89605   89606
   89605   89607   89608   89609   89608   89610   89611   89612
   89611   89613   89614   89615   89614   89616   89617   89618
   89617   89619   89620   89621   89620   89622   89623   89624
   89623   89625   89626   89627   89626   89628   89629   89630
   89629   89631   89632   89633   89632   89634   89635   89636
   89635   89637   89638   89639   89638   89640   89641   89642
   89641   89643   89644   89645   89644   89646   89647   89648
   89647   89649   89650   89651   89650   89652   89653   89654
   89653   89655   89656   89657   89656   89658   89659   89660
   89659   89661   89662   89663   89662   89664   89665   89666
   89665   89667   89668   89669   89668   89670   89671   89672
   89671   89673   89674   89675   89674   89676   89677   89678
   89677   89679   89680   89681   89680   89682   89683   89684
   89683   89685   89686   89687   89686   89688   89689   89690
   89689   89691   89692   89693   89692   89694   89695   89696
   89695   89697   89698   89699   89698   89700   89701   89702
   89701   89703   89704   89705   89704   89706   89707   89708
   89707   89709   89710   89711   89710   89712   89713   89714
   89713   89715   89716   89717   89716   89718   89719   89720
   89719   89721   89722   89723   89722   89724   89725   89726
   89725   89727   89728   89729   89728   89730   89731   89732
   89731   89733   89734   89735   89734   89736   89737   89738
   89737   89739   89740   89741   89740   89742   89743   89744
   89743   89745   89746   89747   89746   89748   89749   89750
   89749   89751   89752   89753   89752   89754   89755   89756
   89755   89757   89758   89759   89758   89760   89761   89762
   89761   89763   89764   89765   89764   89766   89767   89768
   89767   89769   89770   89771   89770   89772   89773   89774
   89773   89775   89776   89777   89776   89778   89779   89780
   89779   89781   89782   89783   89782   89784   89785   89786
   89785   89787   89788   89789   89788   89790   89791   89792
   89791   89793   89794   89795   89794   89796   89797   89798
   89797   89799   89800   89801   89800   89802   89803   89804
   89803   89805   89806   89807   89806   89808   89809   89810
   89809   89811   89812   89813   89812   89814   89815   89816
   89815   89817   89818   89819   89818   89820   89821   89822
   89821   89823   89824   89825   89824   89826   89827   89828
   89827   89829   89830   89831   89830   89832   89833   89834
   89833   89835   89836   89837   89836   89838   89839   89840
   89839   89841   89842   89843   89842   89844   89845   89846
   89845   89847   89848   89849   89848   89850   89851   89852
   89851   89853   89854   89855   89854   89856   89857   89858
   89857   89859   89860   89861   89860   89862   89863   89864
   89863   89865   89866   89867   89866   89868   89869   89870
   89869   89871   89872   89873   89872   89874   89875   89876
   89875   89877   89878   89879   89878   89880   89881   89882
   89881   89883   89884   89885   89884   89886   89887   89888
   89887   89889   89890   89891   89890   89892   89893   89894
   89893   89895   89896   89897   89896   89898   89899   89900
   89899   89901   89902   89903   89902   89904   89905   89906
   89905   89907   89908   89909   89908   89910   89911   89912
   89911   89913   89914   89915   89914   89916   89917   89918
   89917   89919   89920   89921   89920   89922   89923   89924
   89923   89925   89926   89927   89926   89928   89929   89930
   89929   89931   89932   89933   89932   89934   89935   89936
   89935   89937   89938   89939   89938   89940   89941   89942
   89941   89943   89944   89945   89944   89946   89947   89948
   89947   89949   89950   89951   89950   89952   89953   89954
   89953   89955   89956   89957   89956   89958   89959   89960
   89959   89961   89962   89963   89962   89964   89965   89966
   89965   89967   89968   89969   89968   89970   89971   89972
   89971   89973   89974   89975   89974   89976   89977   89978
   89977   89979   89980   89981   89980   89982   89983   89984
   89983   89985   89986   89987   89986   89988   89989   89990
   89989   89991   89992   89993   89992   89994   89995   89996
   89995   89997   89998   89999   89998   90000   90001   90002
   90001   90003   90004   90005   90004   90006   90007   90008
   90007   90009   90010   90011   90010   90012   90013   90014
   90013   90015   90016   90017   90016   90018   90019   90020
   90019   90021   90022   90023   90022   90024   90025   90026
   90025   90027   90028   90029   90028   90030   90031   90032
   90031   90033   90034   90035   90034   90036   90037   90038
   90037   90039   90040   90041   90040   90042   90043   90044
   90043   90045   90046   90047   90046   90048   90049   90050
   90049   90051   90052   90053   90052   90054   90055   90056
   90055   90057   90058   90059   90058   90060   90061   90062
   90061   90063   90064   90065   90064   90066   90067   90068
   90067   90069   90070   90071   90070   90072   90073   90074
   90073   90075   90076   90077   90076   90078   90079   90080
   90079   90081   90082   90083   90082   90084   90085   90086
   90085   90087   90088   90089   90088   90090   90091   90092
   90091   90093   90094   90095   90094   90096   90097   90098
   90097   90099   90100   90101   90100   90102   90103   90104
   90103   90105   90106   90107   90106   90108   90109   90110
   90109   90111   90112   90113   90112   90114   90115   90116
   90115   90117   90118   90119   90118   90120   90121   90122
   90121   90123   90124   90125   90124   90126   90127   90128
   90127   90129   90130   90131   90130   90132   90133   90134
   90133   90135   90136   90137   90136   90138   90139   90140
   90139   90141   90142   90143   90142   90144   90145   90146
   90145   90147   90148   90149   90148   90150   90151   90152
   90151   90153   90154   90155   90154   90156   90157   90158
   90157   90159   90160   90161   90160   90162   90163   90164
   90163   90165   90166   90167   90166   90168   90169   90170
   90169   90171   90172   90173   90172   90174   90175   90176
   90175   90177   90178   90179   90178   90180   90181   90182
   90181   90183   90184   90185   90184   90186   90187   90188
   90187   90189   90190   90191   90190   90192   90193   90194
   90193   90195   90196   90197   90196   90198   90199   90200
   90199   90201   90202   90203   90202   90204   90205   90206
   90205   90207   90208   90209   90208   90210   90211   90212
   90211   90213   90214   90215   90214   90216   90217   90218
   90217   90219   90220   90221   90220   90222   90223   90224
   90223   90225   90226   90227   90226   90228   90229   90230
   90229   90231   90232   90233   90232   90234   90235   90236
   90235   90237   90238   90239   90238   90240   90241   90242
   90241   90243   90244   90245   90244   90246   90247   90248
   90247   90249   90250   90251   90250   90252   90253   90254
   90253   90255   90256   90257   90256   90258   90259   90260
   90259   90261   90262   90263   90262   90264   90265   90266
   90265   90267   90268   90269   90268   90270   90271   90272
   90271   90273   90274   90275   90274   90276   90277   90278
   90277   90279   90280   90281   90280   90282   90283   90284
   90283   90285   90286   90287   90286   90288   90289   90290
   90289   90291   90292   90293   90292   90294   90295   90296
   90295   90297   90298   90299   90298   90300   90301   90302
   90301   90303   90304   90305   90304   90306   90307   90308
   90307   90309   90310   90311   90310   90312   90313   90314
   90313   90315   90316   90317   90316   90318   90319   90320
   90319   90321   90322   90323   90322   90324   90325   90326
   90325   90327   90328   90329   90328   90330   90331   90332
   90331   90333   90334   90335   90334   90336   90337   90338
   90337   90339   90340   90341   90340   90342   90343   90344
   90343   90345   90346   90347   90346   90348   90349   90350
   90349   90351   90352   90353   90352   90354   90355   90356
   90355   90357   90358   90359   90358   90360   90361   90362
   90361   90363   90364   90365   90364   90366   90367   90368
   90367   90369   90370   90371   90370   90372   90373   90374
   90373   90375   90376   90377   90376   90378   90379   90380
   90379   90381   90382   90383   90382   90384   90385   90386
   90385   90387   90388   90389   90388   90390   90391   90392
   90391   90393   90394   90395   90394   90396   90397   90398
   90397   90399   90400   90401   90400   90402   90403   90404
   90403   90405   90406   90407   90406   90408   90409   90410
   90409   90411   90412   90413   90412   90414   90415   90416
   90415   90417   90418   90419   90418   90420   90421   90422
   90421   90423   90424   90425   90424   90426   90427   90428
   90427   90429   90430   90431   90430   90432   90433   90434
   90433   90435   90436   90437   90436   90438   90439   90440
   90439   90441   90442   90443   90442   90444   90445   90446
   90445   90447   90448   90449   90448   90450   90451   90452
   90451   90453   90454   90455   90454   90456   90457   90458
   90457   90459   90460   90461   90460   90462   90463   90464
   90463   90465   90466   90467   90466   90468   90469   90470
   90469   90471   90472   90473   90472   90474   90475   90476
   90475   90477   90478   90479   90478   90480   90481   90482
   90481   90483   90484   90485   90484   90486   90487   90488
   90487   90489   90490   90491   90490   90492   90493   90494
   90493   90495   90496   90497   90496   90498   90499   90500
   90499   90501   90502   90503   90502   90504   90505   90506
   90505   90507   90508   90509   90508   90510   90511   90512
   90511   90513   90514   90515   90514   90516   90517   90518
   90517   90519   90520   90521   90520   90522   90523   90524
   90523   90525   90526   90527   90526   90528   90529   90530
   90529   90531   90532   90533   90532   90534   90535   90536
   90535   90537   90538   90539   90538   90540   90541   90542
   90541   90543   90544   90545   90544   90546   90547   90548
   90547   90549   90550   90551   90550   90552   90553   90554
   90553   90555   90556   90557   90556   90558   90559   90560
   90559   90561   90562   90563   90562   90564   90565   90566
   90565   90567   90568   90569   90568   90570   90571   90572
   90571   90573   90574   90575   90574   90576   90577   90578
   90577   90579   90580   90581   90580   90582   90583   90584
   90583   90585   90586   90587   90586   90588   90589   90590
   90589   90591   90592   90593   90592   90594   90595   90596
   90595   90597   90598   90599   90598   90600   90601   90602
   90601   90603   90604   90605   90604   90606   90607   90608
   90607   90609   90610   90611   90610   90612   90613   90614
   90613   90615   90616   90617   90616   90618   90619   90620
   90619   90621   90622   90623   90622   90624   90625   90626
   90625   90627   90628   90629   90628   90630   90631   90632
   90631   90633   90634   90635   90634   90636   90637   90638
   90637   90639   90640   90641   90640   90642   90643   90644
   90643   90645   90646   90647   90646   90648   90649   90650
   90649   90651   90652   90653   90652   90654   90655   90656
   90655   90657   90658   90659   90658   90660   90661   90662
   90661   90663   90664   90665   90664   90666   90667   90668
   90667   90669   90670   90671   90670   90672   90673   90674
   90673   90675   90676   90677   90676   90678   90679   90680
   90679   90681   90682   90683   90682   90684   90685   90686
   90685   90687   90688   90689   90688   90690   90691   90692
   90691   90693   90694   90695   90694   90696   90697   90698
   90697   90699   90700   90701   90700   90702   90703   90704
   90703   90705   90706   90707   90706   90708   90709   90710
   90709   90711   90712   90713   90712   90714   90715   90716
   90715   90717   90718   90719   90718   90720   90721   90722
   90721   90723   90724   90725   90724   90726   90727   90728
   90727   90729   90730   90731   90730   90732   90733   90734
   90733   90735   90736   90737   90736   90738   90739   90740
   90739   90741   90742   90743   90742   90744   90745   90746
   90745   90747   90748   90749   90748   90750   90751   90752
   90751   90753   90754   90755   90754   90756   90757   90758
   90757   90759   90760   90761   90760   90762   90763   90764
   90763   90765   90766   90767   90766   90768   90769   90770
   90769   90771   90772   90773   90772   90774   90775   90776
   90775   90777   90778   90779   90778   90780   90781   90782
   90781   90783   90784   90785   90784   90786   90787   90788
   90787   90789   90790   90791   90790   90792   90793   90794
   90793   90795   90796   90797   90796   90798   90799   90800
   90799   90801   90802   90803   90802   90804   90805   90806
   90805   90807   90808   90809   90808   90810   90811   90812
   90811   90813   90814   90815   90814   90816   90817   90818
   90817   90819   90820   90821   90820   90822   90823   90824
   90823   90825   90826   90827   90826   90828   90829   90830
   90829   90831   90832   90833   90832   90834   90835   90836
   90835   90837   90838   90839   90838   90840   90841   90842
   90841   90843   90844   90845   90844   90846   90847   90848
   90847   90849   90850   90851   90850   90852   90853   90854
   90853   90855   90856   90857   90856   90858   90859   90860
   90859   90861   90862   90863   90862   90864   90865   90866
   90865   90867   90868   90869   90868   90870   90871   90872
   90871   90873   90874   90875   90874   90876   90877   90878
   90877   90879   90880   90881   90880   90882   90883   90884
   90883   90885   90886   90887   90886   90888   90889   90890
   90889   90891   90892   90893   90892   90894   90895   90896
   90895   90897   90898   90899   90898   90900   90901   90902
   90901   90903   90904   90905   90904   90906   90907   90908
   90907   90909   90910   90911   90910   90912   90913   90914
   90913   90915   90916   90917   90916   90918   90919   90920
   90919   90921   90922   90923   90922   90924   90925   90926
   90925   90927   90928   90929   90928   90930   90931   90932
   90931   90933   90934   90935   90934   90936   90937   90938
   90937   90939   90940   90941   90940   90942   90943   90944
   90943   90945   90946   90947   90946   90948   90949   90950
   90949   90951   90952   90953   90952   90954   90955   90956
   90955   90957   90958   90959   90958   90960   90961   90962
   90961   90963   90964   90965   90964   90966   90967   90968
   90967   90969   90970   90971   90970   90972   90973   90974
   90973   90975   90976   90977   90976   90978   90979   90980
   90979   90981   90982   90983   90982   90984   90985   90986
   90985   90987   90988   90989   90988   90990   90991   90992
   90991   90993   90994   90995   90994   90996   90997   90998
   90997   90999   91000   91001   91000   91002   91003   91004
   91003   91005   91006   91007   91006   91008   91009   91010
   91009   91011   91012   91013   91012   91014   91015   91016
   91015   91017   91018   91019   91018   91020   91021   91022
   91021   91023   91024   91025   91024   91026   91027   91028
   91027   91029   91030   91031   91030   91032   91033   91034
   91033   91035   91036   91037   91036   91038   91039   91040
   91039   91041   91042   91043   91042   91044   91045   91046
   91045   91047   91048   91049   91048   91050   91051   91052
   91051   91053   91054   91055   91054   91056   91057   91058
   91057   91059   91060   91061   91060   91062   91063   91064
   91063   91065   91066   91067   91066   91068   91069   91070
   91069   91071   91072   91073   91072   91074   91075   91076
   91075   91077   91078   91079   91078   91080   91081   91082
   91081   91083   91084   91085   91084   91086   91087   91088
   91087   91089   91090   91091   91090   91092   91093   91094
   91093   91095   91096   91097   91096   91098   91099   91100
   91099   91101   91102   91103   91102   91104   91105   91106
   91105   91107   91108   91109   91108   91110   91111   91112
   91111   91113   91114   91115   91114   91116   91117   91118
   91117   91119   91120   91121   91120   91122   91123   91124
   91123   91125   91126   91127   91126   91128   91129   91130
   91129   91131   91132   91133   91132   91134   91135   91136
   91135   91137   91138   91139   91138   91140   91141   91142
   91141   91143   91144   91145   91144   91146   91147   91148
   91147   91149   91150   91151   91150   91152   91153   91154
   91153   91155   91156   91157   91156   91158   91159   91160
   91159   91161   91162   91163   91162   91164   91165   91166
   91165   91167   91168   91169   91168   91170   91171   91172
   91171   91173   91174   91175   91174   91176   91177   91178
   91177   91179   91180   91181   91180   91182   91183   91184
   91183   91185   91186   91187   91186   91188   91189   91190
   91189   91191   91192   91193   91192   91194   91195   91196
   91195   91197   91198   91199   91198   91200   91201   91202
   91201   91203   91204   91205   91204   91206   91207   91208
   91207   91209   91210   91211   91210   91212   91213   91214
   91213   91215   91216   91217   91216   91218   91219   91220
   91219   91221   91222   91223   91222   91224   91225   91226
   91225   91227   91228   91229   91228   91230   91231   91232
   91231   91233   91234   91235   91234   91236   91237   91238
   91237   91239   91240   91241   91240   91242   91243   91244
   91243   91245   91246   91247   91246   91248   91249   91250
   91249   91251   91252   91253   91252   91254   91255   91256
   91255   91257   91258   91259   91258   91260   91261   91262
   91261   91263   91264   91265   91264   91266   91267   91268
   91267   91269   91270   91271   91270   91272   91273   91274
   91273   91275   91276   91277   91276   91278   91279   91280
   91279   91281   91282   91283   91282   91284   91285   91286
   91285   91287   91288   91289   91288   91290   91291   91292
   91291   91293   91294   91295   91294   91296   91297   91298
   91297   91299   91300   91301   91300   91302   91303   91304
   91303   91305   91306   91307   91306   91308   91309   91310
   91309   91311   91312   91313   91312   91314   91315   91316
   91315   91317   91318   91319   91318   91320   91321   91322
   91321   91323   91324   91325   91324   91326   91327   91328
   91327   91329   91330   91331   91330   91332   91333   91334
   91333   91335   91336   91337   91336   91338   91339   91340
   91339   91341   91342   91343   91342   91344   91345   91346
   91345   91347   91348   91349   91348   91350   91351   91352
   91351   91353   91354   91355   91354   91356   91357   91358
   91357   91359   91360   91361   91360   91362   91363   91364
   91363   91365   91366   91367   91366   91368   91369   91370
   91369   91371   91372   91373   91372   91374   91375   91376
   91375   91377   91378   91379   91378   91380   91381   91382
   91381   91383   91384   91385   91384   91386   91387   91388
   91387   91389   91390   91391   91390   91392   91393   91394
   91393   91395   91396   91397   91396   91398   91399   91400
   91399   91401   91402   91403   91402   91404   91405   91406
   91405   91407   91408   91409   91408   91410   91411   91412
   91411   91413   91414   91415   91414   91416   91417   91418
   91417   91419   91420   91421   91420   91422   91423   91424
   91423   91425   91426   91427   91426   91428   91429   91430
   91429   91431   91432   91433   91432   91434   91435   91436
   91435   91437   91438   91439   91438   91440   91441   91442
   91441   91443   91444   91445   91444   91446   91447   91448
   91447   91449   91450   91451   91450   91452   91453   91454
   91453   91455   91456   91457   91456   91458   91459   91460
   91459   91461   91462   91463   91462   91464   91465   91466
   91465   91467   91468   91469   91468   91470   91471   91472
   91471   91473   91474   91475   91474   91476   91477   91478
   91477   91479   91480   91481   91480   91482   91483   91484
   91483   91485   91486   91487   91486   91488   91489   91490
   91489   91491   91492   91493   91492   91494   91495   91496
   91495   91497   91498   91499   91498   91500   91501   91502
   91501   91503   91504   91505   91504   91506   91507   91508
   91507   91509   91510   91511   91510   91512   91513   91514
   91513   91515   91516   91517   91516   91518   91519   91520
   91519   91521   91522   91523   91522   91524   91525   91526
   91525   91527   91528   91529   91528   91530   91531   91532
   91531   91533   91534   91535   91534   91536   91537   91538
   91537   91539   91540   91541   91540   91542   91543   91544
   91543   91545   91546   91547   91546   91548   91549   91550
   91549   91551   91552   91553   91552   91554   91555   91556
   91555   91557   91558   91559   91558   91560   91561   91562
   91561   91563   91564   91565   91564   91566   91567   91568
   91567   91569   91570   91571   91570   91572   91573   91574
   91573   91575   91576   91577   91576   91578   91579   91580
   91579   91581   91582   91583   91582   91584   91585   91586
   91585   91587   91588   91589   91588   91590   91591   91592
   91591   91593   91594   91595   91594   91596   91597   91598
   91597   91599   91600   91601   91600   91602   91603   91604
   91603   91605   91606   91607   91606   91608   91609   91610
   91609   91611   91612   91613   91612   91614   91615   91616
   91615   91617   91618   91619   91618   91620   91621   91622
   91621   91623   91624   91625   91624   91626   91627   91628
   91627   91629   91630   91631   91630   91632   91633   91634
   91633   91635   91636   91637   91636   91638   91639   91640
   91639   91641   91642   91643   91642   91644   91645   91646
   91645   91647   91648   91649   91648   91650   91651   91652
   91651   91653   91654   91655   91654   91656   91657   91658
   91657   91659   91660   91661   91660   91662   91663   91664
   91663   91665   91666   91667   91666   91668   91669   91670
   91669   91671   91672   91673   91672   91674   91675   91676
   91675   91677   91678   91679   91678   91680   91681   91682
   91681   91683   91684   91685   91684   91686   91687   91688
   91687   91689   91690   91691   91690   91692   91693   91694
   91693   91695   91696   91697   91696   91698   91699   91700
   91699   91701   91702   91703   91702   91704   91705   91706
   91705   91707   91708   91709   91708   91710   91711   91712
   91711   91713   91714   91715   91714   91716   91717   91718
   91717   91719   91720   91721   91720   91722   91723   91724
   91723   91725   91726   91727   91726   91728   91729   91730
   91729   91731   91732   91733   91732   91734   91735   91736
   91735   91737   91738   91739   91738   91740   91741   91742
   91741   91743   91744   91745   91744   91746   91747   91748
   91747   91749   91750   91751   91750   91752   91753   91754
   91753   91755   91756   91757   91756   91758   91759   91760
   91759   91761   91762   91763   91762   91764   91765   91766
   91765   91767   91768   91769   91768   91770   91771   91772
   91771   91773   91774   91775   91774   91776   91777   91778
   91777   91779   91780   91781   91780   91782   91783   91784
   91783   91785   91786   91787   91786   91788   91789   91790
   91789   91791   91792   91793   91792   91794   91795   91796
   91795   91797   91798   91799   91798   91800   91801   91802
   91801   91803   91804   91805   91804   91806   91807   91808
   91807   91809   91810   91811   91810   91812   91813   91814
   91813   91815   91816   91817   91816   91818   91819   91820
   91819   91821   91822   91823   91822   91824   91825   91826
   91825   91827   91828   91829   91828   91830   91831   91832
   91831   91833   91834   91835   91834   91836   91837   91838
   91837   91839   91840   91841   91840   91842   91843   91844
   91843   91845   91846   91847   91846   91848   91849   91850
   91849   91851   91852   91853   91852   91854   91855   91856
   91855   91857   91858   91859   91858   91860   91861   91862
   91861   91863   91864   91865   91864   91866   91867   91868
   91867   91869   91870   91871   91870   91872   91873   91874
   91873   91875   91876   91877   91876   91878   91879   91880
   91879   91881   91882   91883   91882   91884   91885   91886
   91885   91887   91888   91889   91888   91890   91891   91892
   91891   91893   91894   91895   91894   91896   91897   91898
   91897   91899   91900   91901   91900   91902   91903   91904
   91903   91905   91906   91907   91906   91908   91909   91910
   91909   91911   91912   91913   91912   91914   91915   91916
   91915   91917   91918   91919   91918   91920   91921   91922
   91921   91923   91924   91925   91924   91926   91927   91928
   91927   91929   91930   91931   91930   91932   91933   91934
   91933   91935   91936   91937   91936   91938   91939   91940
   91939   91941   91942   91943   91942   91944   91945   91946
   91945   91947   91948   91949   91948   91950   91951   91952
   91951   91953   91954   91955   91954   91956   91957   91958
   91957   91959   91960   91961   91960   91962   91963   91964
   91963   91965   91966   91967   91966   91968   91969   91970
   91969   91971   91972   91973   91972   91974   91975   91976
   91975   91977   91978   91979   91978   91980   91981   91982
   91981   91983   91984   91985   91984   91986   91987   91988
   91987   91989   91990   91991   91990   91992   91993   91994
   91993   91995   91996   91997   91996   91998   91999   92000
   91999   92001   92002   92003   92002   92004   92005   92006
   92005   92007   92008   92009   92008   92010   92011   92012
   92011   92013   92014   92015   92014   92016   92017   92018
   92017   92019   92020   92021   92020   92022   92023   92024
   92023   92025   92026   92027   92026   92028   92029   92030
   92029   92031   92032   92033   92032   92034   92035   92036
   92035   92037   92038   92039   92038   92040   92041   92042
   92041   92043   92044   92045   92044   92046   92047   92048
   92047   92049   92050   92051   92050   92052   92053   92054
   92053   92055   92056   92057   92056   92058   92059   92060
   92059   92061   92062   92063   92062   92064   92065   92066
   92065   92067   92068   92069   92068   92070   92071   92072
   92071   92073   92074   92075   92074   92076   92077   92078
   92077   92079   92080   92081   92080   92082   92083   92084
   92083   92085   92086   92087   92086   92088   92089   92090
   92089   92091   92092   92093   92092   92094   92095   92096
   92095   92097   92098   92099   92098   92100   92101   92102
   92101   92103   92104   92105   92104   92106   92107   92108
   92107   92109   92110   92111   92110   92112   92113   92114
   92113   92115   92116   92117   92116   92118   92119   92120
   92119   92121   92122   92123   92122   92124   92125   92126
   92125   92127   92128   92129   92128   92130   92131   92132
   92131   92133   92134   92135   92134   92136   92137   92138
   92137   92139   92140   92141   92140   92142   92143   92144
   92143   92145   92146   92147   92146   92148   92149   92150
   92149   92151   92152   92153   92152   92154   92155   92156
   92155   92157   92158   92159   92158   92160   92161   92162
   92161   92163   92164   92165   92164   92166   92167   92168
   92167   92169   92170   92171   92170   92172   92173   92174
   92173   92175   92176   92177   92176   92178   92179   92180
   92179   92181   92182   92183   92182   92184   92185   92186
   92185   92187   92188   92189   92188   92190   92191   92192
   92191   92193   92194   92195   92194   92196   92197   92198
   92197   92199   92200   92201   92200   92202   92203   92204
   92203   92205   92206   92207   92206   92208   92209   92210
   92209   92211   92212   92213   92212   92214   92215   92216
   92215   92217   92218   92219   92218   92220   92221   92222
   92221   92223   92224   92225   92224   92226   92227   92228
   92227   92229   92230   92231   92230   92232   92233   92234
   92233   92235   92236   92237   92236   92238   92239   92240
   92239   92241   92242   92243   92242   92244   92245   92246
   92245   92247   92248   92249   92248   92250   92251   92252
   92251   92253   92254   92255   92254   92256   92257   92258
   92257   92259   92260   92261   92260   92262   92263   92264
   92263   92265   92266   92267   92266   92268   92269   92270
   92269   92271   92272   92273   92272   92274   92275   92276
   92275   92277   92278   92279   92278   92280   92281   92282
   92281   92283   92284   92285   92284   92286   92287   92288
   92287   92289   92290   92291   92290   92292   92293   92294
   92293   92295   92296   92297   92296   92298   92299   92300
   92299   92301   92302   92303   92302   92304   92305   92306
   92305   92307   92308   92309   92308   92310   92311   92312
   92311   92313   92314   92315   92314   92316   92317   92318
   92317   92319   92320   92321   92320   92322   92323   92324
   92323   92325   92326   92327   92326   92328   92329   92330
   92329   92331   92332   92333   92332   92334   92335   92336
   92335   92337   92338   92339   92338   92340   92341   92342
   92341   92343   92344   92345   92344   92346   92347   92348
   92347   92349   92350   92351   92350   92352   92353   92354
   92353   92355   92356   92357   92356   92358   92359   92360
   92359   92361   92362   92363   92362   92364   92365   92366
   92365   92367   92368   92369   92368   92370   92371   92372
   92371   92373   92374   92375   92374   92376   92377   92378
   92377   92379   92380   92381   92380   92382   92383   92384
   92383   92385   92386   92387   92386   92388   92389   92390
   92389   92391   92392   92393   92392   92394   92395   92396
   92395   92397   92398   92399   92398   92400   92401   92402
   92401   92403   92404   92405   92404   92406   92407   92408
   92407   92409   92410   92411   92410   92412   92413   92414
   92413   92415   92416   92417   92416   92418   92419   92420
   92419   92421   92422   92423   92422   92424   92425   92426
   92425   92427   92428   92429   92428   92430   92431   92432
   92431   92433   92434   92435   92434   92436   92437   92438
   92437   92439   92440   92441   92440   92442   92443   92444
   92443   92445   92446   92447   92446   92448   92449   92450
   92449   92451   92452   92453   92452   92454   92455   92456
   92455   92457   92458   92459   92458   92460   92461   92462
   92461   92463   92464   92465   92464   92466   92467   92468
   92467   92469   92470   92471   92470   92472   92473   92474
   92473   92475   92476   92477   92476   92478   92479   92480
   92479   92481   92482   92483   92482   92484   92485   92486
   92485   92487   92488   92489   92488   92490   92491   92492
   92491   92493   92494   92495   92494   92496   92497   92498
   92497   92499   92500   92501   92500   92502   92503   92504
   92503   92505   92506   92507   92506   92508   92509   92510
   92509   92511   92512   92513   92512   92514   92515   92516
   92515   92517   92518   92519   92518   92520   92521   92522
   92521   92523   92524   92525   92524   92526   92527   92528
   92527   92529   92530   92531   92530   92532   92533   92534
   92533   92535   92536   92537   92536   92538   92539   92540
   92539   92541   92542   92543   92542   92544   92545   92546
   92545   92547   92548   92549   92548   92550   92551   92552
   92551   92553   92554   92555   92554   92556   92557   92558
   92557   92559   92560   92561   92560   92562   92563   92564
   92563   92565   92566   92567   92566   92568   92569   92570
   92569   92571   92572   92573   92572   92574   92575   92576
   92575   92577   92578   92579   92578   92580   92581   92582
   92581   92583   92584   92585   92584   92586   92587   92588
   92587   92589   92590   92591   92590   92592   92593   92594
   92593   92595   92596   92597   92596   92598   92599   92600
   92599   92601   92602   92603   92602   92604   92605   92606
   92605   92607   92608   92609   92608   92610   92611   92612
   92611   92613   92614   92615   92614   92616   92617   92618
   92617   92619   92620   92621   92620   92622   92623   92624
   92623   92625   92626   92627   92626   92628   92629   92630
   92629   92631   92632   92633   92632   92634   92635   92636
   92635   92637   92638   92639   92638   92640   92641   92642
   92641   92643   92644   92645   92644   92646   92647   92648
   92647   92649   92650   92651   92650   92652   92653   92654
   92653   92655   92656   92657   92656   92658   92659   92660
   92659   92661   92662   92663   92662   92664   92665   92666
   92665   92667   92668   92669   92668   92670   92671   92672
   92671   92673   92674   92675   92674   92676   92677   92678
   92677   92679   92680   92681   92680   92682   92683   92684
   92683   92685   92686   92687   92686   92688   92689   92690
   92689   92691   92692   92693   92692   92694   92695   92696
   92695   92697   92698   92699   92698   92700   92701   92702
   92701   92703   92704   92705   92704   92706   92707   92708
   92707   92709   92710   92711   92710   92712   92713   92714
   92713   92715   92716   92717   92716   92718   92719   92720
   92719   92721   92722   92723   92722   92724   92725   92726
   92725   92727   92728   92729   92728   92730   92731   92732
   92731   92733   92734   92735   92734   92736   92737   92738
   92737   92739   92740   92741   92740   92742   92743   92744
   92743   92745   92746   92747   92746   92748   92749   92750
   92749   92751   92752   92753   92752   92754   92755   92756
   92755   92757   92758   92759   92758   92760   92761   92762
   92761   92763   92764   92765   92764   92766   92767   92768
   92767   92769   92770   92771   92770   92772   92773   92774
   92773   92775   92776   92777   92776   92778   92779   92780
   92779   92781   92782   92783   92782   92784   92785   92786
   92785   92787   92788   92789   92788   92790   92791   92792
   92791   92793   92794   92795   92794   92796   92797   92798
   92797   92799   92800   92801   92800   92802   92803   92804
   92803   92805   92806   92807   92806   92808   92809   92810
   92809   92811   92812   92813   92812   92814   92815   92816
   92815   92817   92818   92819   92818   92820   92821   92822
   92821   92823   92824   92825   92824   92826   92827   92828
   92827   92829   92830   92831   92830   92832   92833   92834
   92833   92835   92836   92837   92836   92838   92839   92840
   92839   92841   92842   92843   92842   92844   92845   92846
   92845   92847   92848   92849   92848   92850   92851   92852
   92851   92853   92854   92855   92854   92856   92857   92858
   92857   92859   92860   92861   92860   92862   92863   92864
   92863   92865   92866   92867   92866   92868   92869   92870
   92869   92871   92872   92873   92872   92874   92875   92876
   92875   92877   92878   92879   92878   92880   92881   92882
   92881   92883   92884   92885   92884   92886   92887   92888
   92887   92889   92890   92891   92890   92892   92893   92894
   92893   92895   92896   92897   92896   92898   92899   92900
   92899   92901   92902   92903   92902   92904   92905   92906
   92905   92907   92908   92909   92908   92910   92911   92912
   92911   92913   92914   92915   92914   92916   92917   92918
   92917   92919   92920   92921   92920   92922   92923   92924
   92923   92925   92926   92927   92926   92928   92929   92930
   92929   92931   92932   92933   92932   92934   92935   92936
   92935   92937   92938   92939   92938   92940   92941   92942
   92941   92943   92944   92945   92944   92946   92947   92948
   92947   92949   92950   92951   92950   92952   92953   92954
   92953   92955   92956   92957   92956   92958   92959   92960
   92959   92961   92962   92963   92962   92964   92965   92966
   92965   92967   92968   92969   92968   92970   92971   92972
   92971   92973   92974   92975   92974   92976   92977   92978
   92977   92979   92980   92981   92980   92982   92983   92984
   92983   92985   92986   92987   92986   92988   92989   92990
   92989   92991   92992   92993   92992   92994   92995   92996
   92995   92997   92998   92999   92998   93000   93001   93002
   93001   93003   93004   93005   93004   93006   93007   93008
   93007   93009   93010   93011   93010   93012   93013   93014
   93013   93015   93016   93017   93016   93018   93019   93020
   93019   93021   93022   93023   93022   93024   93025   93026
   93025   93027   93028   93029   93028   93030   93031   93032
   93031   93033   93034   93035   93034   93036   93037   93038
   93037   93039   93040   93041   93040   93042   93043   93044
   93043   93045   93046   93047   93046   93048   93049   93050
   93049   93051   93052   93053   93052   93054   93055   93056
   93055   93057   93058   93059   93058   93060   93061   93062
   93061   93063   93064   93065   93064   93066   93067   93068
   93067   93069   93070   93071   93070   93072   93073   93074
   93073   93075   93076   93077   93076   93078   93079   93080
   93079   93081   93082   93083   93082   93084   93085   93086
   93085   93087   93088   93089   93088   93090   93091   93092
   93091   93093   93094   93095   93094   93096   93097   93098
   93097   93099   93100   93101   93100   93102   93103   93104
   93103   93105   93106   93107   93106   93108   93109   93110
   93109   93111   93112   93113   93112   93114   93115   93116
   93115   93117   93118   93119   93118   93120   93121   93122
   93121   93123   93124   93125   93124   93126   93127   93128
   93127   93129   93130   93131   93130   93132   93133   93134
   93133   93135   93136   93137   93136   93138   93139   93140
   93139   93141   93142   93143   93142   93144   93145   93146
   93145   93147   93148   93149   93148   93150   93151   93152
   93151   93153   93154   93155   93154   93156   93157   93158
   93157   93159   93160   93161   93160   93162   93163   93164
   93163   93165   93166   93167   93166   93168   93169   93170
   93169   93171   93172   93173   93172   93174   93175   93176
   93175   93177   93178   93179   93178   93180   93181   93182
   93181   93183   93184   93185   93184   93186   93187   93188
   93187   93189   93190   93191   93190   93192   93193   93194
   93193   93195   93196   93197   93196   93198   93199   93200
   93199   93201   93202   93203   93202   93204   93205   93206
   93205   93207   93208   93209   93208   93210   93211   93212
   93211   93213   93214   93215   93214   93216   93217   93218
   93217   93219   93220   93221   93220   93222   93223   93224
   93223   93225   93226   93227   93226   93228   93229   93230
   93229   93231   93232   93233   93232   93234   93235   93236
   93235   93237   93238   93239   93238   93240   93241   93242
   93241   93243   93244   93245   93244   93246   93247   93248
   93247   93249   93250   93251   93250   93252   93253   93254
   93253   93255   93256   93257   93256   93258   93259   93260
   93259   93261   93262   93263   93262   93264   93265   93266
   93265   93267   93268   93269   93268   93270   93271   93272
   93271   93273   93274   93275   93274   93276   93277   93278
   93277   93279   93280   93281   93280   93282   93283   93284
   93283   93285   93286   93287   93286   93288   93289   93290
   93289   93291   93292   93293   93292   93294   93295   93296
   93295   93297   93298   93299   93298   93300   93301   93302
   93301   93303   93304   93305   93304   93306   93307   93308
   93307   93309   93310   93311   93310   93312   93313   93314
   93313   93315   93316   93317   93316   93318   93319   93320
   93319   93321   93322   93323   93322   93324   93325   93326
   93325   93327   93328   93329   93328   93330   93331   93332
   93331   93333   93334   93335   93334   93336   93337   93338
   93337   93339   93340   93341   93340   93342   93343   93344
   93343   93345   93346   93347   93346   93348   93349   93350
   93349   93351   93352   93353   93352   93354   93355   93356
   93355   93357   93358   93359   93358   93360   93361   93362
   93361   93363   93364   93365   93364   93366   93367   93368
   93367   93369   93370   93371   93370   93372   93373   93374
   93373   93375   93376   93377   93376   93378   93379   93380
   93379   93381   93382   93383   93382   93384   93385   93386
   93385   93387   93388   93389   93388   93390   93391   93392
   93391   93393   93394   93395   93394   93396   93397   93398
   93397   93399   93400   93401   93400   93402   93403   93404
   93403   93405   93406   93407   93406   93408   93409   93410
   93409   93411   93412   93413   93412   93414   93415   93416
   93415   93417   93418   93419   93418   93420   93421   93422
   93421   93423   93424   93425   93424   93426   93427   93428
   93427   93429   93430   93431   93430   93432   93433   93434
   93433   93435   93436   93437   93436   93438   93439   93440
   93439   93441   93442   93443   93442   93444   93445   93446
   93445   93447   93448   93449   93448   93450   93451   93452
   93451   93453   93454   93455   93454   93456   93457   93458
   93457   93459   93460   93461   93460   93462   93463   93464
   93463   93465   93466   93467   93466   93468   93469   93470
   93469   93471   93472   93473   93472   93474   93475   93476
   93475   93477   93478   93479   93478   93480   93481   93482
   93481   93483   93484   93485   93484   93486   93487   93488
   93487   93489   93490   93491   93490   93492   93493   93494
   93493   93495   93496   93497   93496   93498   93499   93500
   93499   93501   93502   93503   93502   93504   93505   93506
   93505   93507   93508   93509   93508   93510   93511   93512
   93511   93513   93514   93515   93514   93516   93517   93518
   93517   93519   93520   93521   93520   93522   93523   93524
   93523   93525   93526   93527   93526   93528   93529   93530
   93529   93531   93532   93533   93532   93534   93535   93536
   93535   93537   93538   93539   93538   93540   93541   93542
   93541   93543   93544   93545   93544   93546   93547   93548
   93547   93549   93550   93551   93550   93552   93553   93554
   93553   93555   93556   93557   93556   93558   93559   93560
   93559   93561   93562   93563   93562   93564   93565   93566
   93565   93567   93568   93569   93568   93570   93571   93572
   93571   93573   93574   93575   93574   93576   93577   93578
   93577   93579   93580   93581   93580   93582   93583   93584
   93583   93585   93586   93587   93586   93588   93589   93590
   93589   93591   93592   93593   93592   93594   93595   93596
   93595   93597   93598   93599   93598   93600   93601   93602
   93601   93603   93604   93605   93604   93606   93607   93608
   93607   93609   93610   93611   93610   93612   93613   93614
   93613   93615   93616   93617   93616   93618   93619   93620
   93619   93621   93622   93623   93622   93624   93625   93626
   93625   93627   93628   93629   93628   93630   93631   93632
   93631   93633   93634   93635   93634   93636   93637   93638
   93637   93639   93640   93641   93640   93642   93643   93644
   93643   93645   93646   93647   93646   93648   93649   93650
   93649   93651   93652   93653   93652   93654   93655   93656
   93655   93657   93658   93659   93658   93660   93661   93662
   93661   93663   93664   93665   93664   93666   93667   93668
   93667   93669   93670   93671   93670   93672   93673   93674
   93673   93675   93676   93677   93676   93678   93679   93680
   93679   93681   93682   93683   93682   93684   93685   93686
   93685   93687   93688   93689   93688   93690   93691   93692
   93691   93693   93694   93695   93694   93696   93697   93698
   93697   93699   93700   93701   93700   93702   93703   93704
   93703   93705   93706   93707   93706   93708   93709   93710
   93709   93711   93712   93713   93712   93714   93715   93716
   93715   93717   93718   93719   93718   93720   93721   93722
   93721   93723   93724   93725   93724   93726   93727   93728
   93727   93729   93730   93731   93730   93732   93733   93734
   93733   93735   93736   93737   93736   93738   93739   93740
   93739   93741   93742   93743   93742   93744   93745   93746
   93745   93747   93748   93749   93748   93750   93751   93752
   93751   93753   93754   93755   93754   93756   93757   93758
   93757   93759   93760   93761   93760   93762   93763   93764
   93763   93765   93766   93767   93766   93768   93769   93770
   93769   93771   93772   93773   93772   93774   93775   93776
   93775   93777   93778   93779   93778   93780   93781   93782
   93781   93783   93784   93785   93784   93786   93787   93788
   93787   93789   93790   93791   93790   93792   93793   93794
   93793   93795   93796   93797   93796   93798   93799   93800
   93799   93801   93802   93803   93802   93804   93805   93806
   93805   93807   93808   93809   93808   93810   93811   93812
   93811   93813   93814   93815   93814   93816   93817   93818
   93817   93819   93820   93821   93820   93822   93823   93824
   93823   93825   93826   93827   93826   93828   93829   93830
   93829   93831   93832   93833   93832   93834   93835   93836
   93835   93837   93838   93839   93838   93840   93841   93842
   93841   93843   93844   93845   93844   93846   93847   93848
   93847   93849   93850   93851   93850   93852   93853   93854
   93853   93855   93856   93857   93856   93858   93859   93860
   93859   93861   93862   93863   93862   93864   93865   93866
   93865   93867   93868   93869   93868   93870   93871   93872
   93871   93873   93874   93875   93874   93876   93877   93878
   93877   93879   93880   93881   93880   93882   93883   93884
   93883   93885   93886   93887   93886   93888   93889   93890
   93889   93891   93892   93893   93892   93894   93895   93896
   93895   93897   93898   93899   93898   93900   93901   93902
   93901   93903   93904   93905   93904   93906   93907   93908
   93907   93909   93910   93911   93910   93912   93913   93914
   93913   93915   93916   93917   93916   93918   93919   93920
   93919   93921   93922   93923   93922   93924   93925   93926
   93925   93927   93928   93929   93928   93930   93931   93932
   93931   93933   93934   93935   93934   93936   93937   93938
   93937   93939   93940   93941   93940   93942   93943   93944
   93943   93945   93946   93947   93946   93948   93949   93950
   93949   93951   93952   93953   93952   93954   93955   93956
   93955   93957   93958   93959   93958   93960   93961   93962
   93961   93963   93964   93965   93964   93966   93967   93968
   93967   93969   93970   93971   93970   93972   93973   93974
   93973   93975   93976   93977   93976   93978   93979   93980
   93979   93981   93982   93983   93982   93984   93985   93986
   93985   93987   93988   93989   93988   93990   93991   93992
   93991   93993   93994   93995   93994   93996   93997   93998
   93997   93999   94000   94001   94000   94002   94003   94004
   94003   94005   94006   94007   94006   94008   94009   94010
   94009   94011   94012   94013   94012   94014   94015   94016
   94015   94017   94018   94019   94018   94020   94021   94022
   94021   94023   94024   94025   94024   94026   94027   94028
   94027   94029   94030   94031   94030   94032   94033   94034
   94033   94035   94036   94037   94036   94038   94039   94040
   94039   94041   94042   94043   94042   94044   94045   94046
   94045   94047   94048   94049   94048   94050   94051   94052
   94051   94053   94054   94055   94054   94056   94057   94058
   94057   94059   94060   94061   94060   94062   94063   94064
   94063   94065   94066   94067   94066   94068   94069   94070
   94069   94071   94072   94073   94072   94074   94075   94076
   94075   94077   94078   94079   94078   94080   94081   94082
   94081   94083   94084   94085   94084   94086   94087   94088
   94087   94089   94090   94091   94090   94092   94093   94094
   94093   94095   94096   94097   94096   94098   94099   94100
   94099   94101   94102   94103   94102   94104   94105   94106
   94105   94107   94108   94109   94108   94110   94111   94112
   94111   94113   94114   94115   94114   94116   94117   94118
   94117   94119   94120   94121   94120   94122   94123   94124
   94123   94125   94126   94127   94126   94128   94129   94130
   94129   94131   94132   94133   94132   94134   94135   94136
   94135   94137   94138   94139   94138   94140   94141   94142
   94141   94143   94144   94145   94144   94146   94147   94148
   94147   94149   94150   94151   94150   94152   94153   94154
   94153   94155   94156   94157   94156   94158   94159   94160
   94159   94161   94162   94163   94162   94164   94165   94166
   94165   94167   94168   94169   94168   94170   94171   94172
   94171   94173   94174   94175   94174   94176   94177   94178
   94177   94179   94180   94181   94180   94182   94183   94184
   94183   94185   94186   94187   94186   94188   94189   94190
   94189   94191   94192   94193   94192   94194   94195   94196
   94195   94197   94198   94199   94198   94200   94201   94202
   94201   94203   94204   94205   94204   94206   94207   94208
   94207   94209   94210   94211   94210   94212   94213   94214
   94213   94215   94216   94217   94216   94218   94219   94220
   94219   94221   94222   94223   94222   94224   94225   94226
   94225   94227   94228   94229   94228   94230   94231   94232
   94231   94233   94234   94235   94234   94236   94237   94238
   94237   94239   94240   94241   94240   94242   94243   94244
   94243   94245   94246   94247   94246   94248   94249   94250
   94249   94251   94252   94253   94252   94254   94255   94256
   94255   94257   94258   94259   94258   94260   94261   94262
   94261   94263   94264   94265   94264   94266   94267   94268
   94267   94269   94270   94271   94270   94272   94273   94274
   94273   94275   94276   94277   94276   94278   94279   94280
   94279   94281   94282   94283   94282   94284   94285   94286
   94285   94287   94288   94289   94288   94290   94291   94292
   94291   94293   94294   94295   94294   94296   94297   94298
   94297   94299   94300   94301   94300   94302   94303   94304
   94303   94305   94306   94307   94306   94308   94309   94310
   94309   94311   94312   94313   94312   94314   94315   94316
   94315   94317   94318   94319   94318   94320   94321   94322
   94321   94323   94324   94325   94324   94326   94327   94328
   94327   94329   94330   94331   94330   94332   94333   94334
   94333   94335   94336   94337   94336   94338   94339   94340
   94339   94341   94342   94343   94342   94344   94345   94346
   94345   94347   94348   94349   94348   94350   94351   94352
   94351   94353   94354   94355   94354   94356   94357   94358
   94357   94359   94360   94361   94360   94362   94363   94364
   94363   94365   94366   94367   94366   94368   94369   94370
   94369   94371   94372   94373   94372   94374   94375   94376
   94375   94377   94378   94379   94378   94380   94381   94382
   94381   94383   94384   94385   94384   94386   94387   94388
   94387   94389   94390   94391   94390   94392   94393   94394
   94393   94395   94396   94397   94396   94398   94399   94400
   94399   94401   94402   94403   94402   94404   94405   94406
   94405   94407   94408   94409   94408   94410   94411   94412
   94411   94413   94414   94415   94414   94416   94417   94418
   94417   94419   94420   94421   94420   94422   94423   94424
   94423   94425   94426   94427   94426   94428   94429   94430
   94429   94431   94432   94433   94432   94434   94435   94436
   94435   94437   94438   94439   94438   94440   94441   94442
   94441   94443   94444   94445   94444   94446   94447   94448
   94447   94449   94450   94451   94450   94452   94453   94454
   94453   94455   94456   94457   94456   94458   94459   94460
   94459   94461   94462   94463   94462   94464   94465   94466
   94465   94467   94468   94469   94468   94470   94471   94472
   94471   94473   94474   94475   94474   94476   94477   94478
   94477   94479   94480   94481   94480   94482   94483   94484
   94483   94485   94486   94487   94486   94488   94489   94490
   94489   94491   94492   94493   94492   94494   94495   94496
   94495   94497   94498   94499   94498   94500   94501   94502
   94501   94503   94504   94505   94504   94506   94507   94508
   94507   94509   94510   94511   94510   94512   94513   94514
   94513   94515   94516   94517   94516   94518   94519   94520
   94519   94521   94522   94523   94522   94524   94525   94526
   94525   94527   94528   94529   94528   94530   94531   94532
   94531   94533   94534   94535   94534   94536   94537   94538
   94537   94539   94540   94541   94540   94542   94543   94544
   94543   94545   94546   94547   94546   94548   94549   94550
   94549   94551   94552   94553   94552   94554   94555   94556
   94555   94557   94558   94559   94558   94560   94561   94562
   94561   94563   94564   94565   94564   94566   94567   94568
   94567   94569   94570   94571   94570   94572   94573   94574
   94573   94575   94576   94577   94576   94578   94579   94580
   94579   94581   94582   94583   94582   94584   94585   94586
   94585   94587   94588   94589   94588   94590   94591   94592
   94591   94593   94594   94595   94594   94596   94597   94598
   94597   94599   94600   94601   94600   94602   94603   94604
   94603   94605   94606   94607   94606   94608   94609   94610
   94609   94611   94612   94613   94612   94614   94615   94616
   94615   94617   94618   94619   94618   94620   94621   94622
   94621   94623   94624   94625   94624   94626   94627   94628
   94627   94629   94630   94631   94630   94632   94633   94634
   94633   94635   94636   94637   94636   94638   94639   94640
   94639   94641   94642   94643   94642   94644   94645   94646
   94645   94647   94648   94649   94648   94650   94651   94652
   94651   94653   94654   94655   94654   94656   94657   94658
   94657   94659   94660   94661   94660   94662   94663   94664
   94663   94665   94666   94667   94666   94668   94669   94670
   94669   94671   94672   94673   94672   94674   94675   94676
   94675   94677   94678   94679   94678   94680   94681   94682
   94681   94683   94684   94685   94684   94686   94687   94688
   94687   94689   94690   94691   94690   94692   94693   94694
   94693   94695   94696   94697   94696   94698   94699   94700
   94699   94701   94702   94703   94702   94704   94705   94706
   94705   94707   94708   94709   94708   94710   94711   94712
   94711   94713   94714   94715   94714   94716   94717   94718
   94717   94719   94720   94721   94720   94722   94723   94724
   94723   94725   94726   94727   94726   94728   94729   94730
   94729   94731   94732   94733   94732   94734   94735   94736
   94735   94737   94738   94739   94738   94740   94741   94742
   94741   94743   94744   94745   94744   94746   94747   94748
   94747   94749   94750   94751   94750   94752   94753   94754
   94753   94755   94756   94757   94756   94758   94759   94760
   94759   94761   94762   94763   94762   94764   94765   94766
   94765   94767   94768   94769   94768   94770   94771   94772
   94771   94773   94774   94775   94774   94776   94777   94778
   94777   94779   94780   94781   94780   94782   94783   94784
   94783   94785   94786   94787   94786   94788   94789   94790
   94789   94791   94792   94793   94792   94794   94795   94796
   94795   94797   94798   94799   94798   94800   94801   94802
   94801   94803   94804   94805   94804   94806   94807   94808
   94807   94809   94810   94811   94810   94812   94813   94814
   94813   94815   94816   94817   94816   94818   94819   94820
   94819   94821   94822   94823   94822   94824   94825   94826
   94825   94827   94828   94829   94828   94830   94831   94832
   94831   94833   94834   94835   94834   94836   94837   94838
   94837   94839   94840   94841   94840   94842   94843   94844
   94843   94845   94846   94847   94846   94848   94849   94850
   94849   94851   94852   94853   94852   94854   94855   94856
   94855   94857   94858   94859   94858   94860   94861   94862
   94861   94863   94864   94865   94864   94866   94867   94868
   94867   94869   94870   94871   94870   94872   94873   94874
   94873   94875   94876   94877   94876   94878   94879   94880
   94879   94881   94882   94883   94882   94884   94885   94886
   94885   94887   94888   94889   94888   94890   94891   94892
   94891   94893   94894   94895   94894   94896   94897   94898
   94897   94899   94900   94901   94900   94902   94903   94904
   94903   94905   94906   94907   94906   94908   94909   94910
   94909   94911   94912   94913   94912   94914   94915   94916
   94915   94917   94918   94919   94918   94920   94921   94922
   94921   94923   94924   94925   94924   94926   94927   94928
   94927   94929   94930   94931   94930   94932   94933   94934
   94933   94935   94936   94937   94936   94938   94939   94940
   94939   94941   94942   94943   94942   94944   94945   94946
   94945   94947   94948   94949   94948   94950   94951   94952
   94951   94953   94954   94955   94954   94956   94957   94958
   94957   94959   94960   94961   94960   94962   94963   94964
   94963   94965   94966   94967   94966   94968   94969   94970
   94969   94971   94972   94973   94972   94974   94975   94976
   94975   94977   94978   94979   94978   94980   94981   94982
   94981   94983   94984   94985   94984   94986   94987   94988
   94987   94989   94990   94991   94990   94992   94993   94994
   94993   94995   94996   94997   94996   94998   94999   95000
   94999   95001   95002   95003   95002   95004   95005   95006
   95005   95007   95008   95009   95008   95010   95011   95012
   95011   95013   95014   95015   95014   95016   95017   95018
   95017   95019   95020   95021   95020   95022   95023   95024
   95023   95025   95026   95027   95026   95028   95029   95030
   95029   95031   95032   95033   95032   95034   95035   95036
   95035   95037   95038   95039   95038   95040   95041   95042
   95041   95043   95044   95045   95044   95046   95047   95048
   95047   95049   95050   95051   95050   95052   95053   95054
   95053   95055   95056   95057   95056   95058   95059   95060
   95059   95061   95062   95063   95062   95064   95065   95066
   95065   95067   95068   95069   95068   95070   95071   95072
   95071   95073   95074   95075   95074   95076   95077   95078
   95077   95079   95080   95081   95080   95082   95083   95084
   95083   95085   95086   95087   95086   95088   95089   95090
   95089   95091   95092   95093   95092   95094   95095   95096
   95095   95097   95098   95099   95098   95100   95101   95102
   95101   95103   95104   95105   95104   95106   95107   95108
   95107   95109   95110   95111   95110   95112   95113   95114
   95113   95115   95116   95117   95116   95118   95119   95120
   95119   95121   95122   95123   95122   95124   95125   95126
   95125   95127   95128   95129   95128   95130   95131   95132
   95131   95133   95134   95135   95134   95136   95137   95138
   95137   95139   95140   95141   95140   95142   95143   95144
   95143   95145   95146   95147   95146   95148   95149   95150
   95149   95151   95152   95153   95152   95154   95155   95156
   95155   95157   95158   95159   95158   95160   95161   95162
   95161   95163   95164   95165   95164   95166   95167   95168
   95167   95169   95170   95171   95170   95172   95173   95174
   95173   95175   95176   95177   95176   95178   95179   95180
   95179   95181   95182   95183   95182   95184   95185   95186
   95185   95187   95188   95189   95188   95190   95191   95192
   95191   95193   95194   95195   95194   95196   95197   95198
   95197   95199   95200   95201   95200   95202   95203   95204
   95203   95205   95206   95207   95206   95208   95209   95210
   95209   95211   95212   95213   95212   95214   95215   95216
   95215   95217   95218   95219   95218   95220   95221   95222
   95221   95223   95224   95225   95224   95226   95227   95228
   95227   95229   95230   95231   95230   95232   95233   95234
   95233   95235   95236   95237   95236   95238   95239   95240
   95239   95241   95242   95243   95242   95244   95245   95246
   95245   95247   95248   95249   95248   95250   95251   95252
   95251   95253   95254   95255   95254   95256   95257   95258
   95257   95259   95260   95261   95260   95262   95263   95264
   95263   95265   95266   95267   95266   95268   95269   95270
   95269   95271   95272   95273   95272   95274   95275   95276
   95275   95277   95278   95279   95278   95280   95281   95282
   95281   95283   95284   95285   95284   95286   95287   95288
   95287   95289   95290   95291   95290   95292   95293   95294
   95293   95295   95296   95297   95296   95298   95299   95300
   95299   95301   95302   95303   95302   95304   95305   95306
   95305   95307   95308   95309   95308   95310   95311   95312
   95311   95313   95314   95315   95314   95316   95317   95318
   95317   95319   95320   95321   95320   95322   95323   95324
   95323   95325   95326   95327   95326   95328   95329   95330
   95329   95331   95332   95333   95332   95334   95335   95336
   95335   95337   95338   95339   95338   95340   95341   95342
   95341   95343   95344   95345   95344   95346   95347   95348
   95347   95349   95350   95351   95350   95352   95353   95354
   95353   95355   95356   95357   95356   95358   95359   95360
   95359   95361   95362   95363   95362   95364   95365   95366
   95365   95367   95368   95369   95368   95370   95371   95372
   95371   95373   95374   95375   95374   95376   95377   95378
   95377   95379   95380   95381   95380   95382   95383   95384
   95383   95385   95386   95387   95386   95388   95389   95390
   95389   95391   95392   95393   95392   95394   95395   95396
   95395   95397   95398   95399   95398   95400   95401   95402
   95401   95403   95404   95405   95404   95406   95407   95408
   95407   95409   95410   95411   95410   95412   95413   95414
   95413   95415   95416   95417   95416   95418   95419   95420
   95419   95421   95422   95423   95422   95424   95425   95426
   95425   95427   95428   95429   95428   95430   95431   95432
   95431   95433   95434   95435   95434   95436   95437   95438
   95437   95439   95440   95441   95440   95442   95443   95444
   95443   95445   95446   95447   95446   95448   95449   95450
   95449   95451   95452   95453   95452   95454   95455   95456
   95455   95457   95458   95459   95458   95460   95461   95462
   95461   95463   95464   95465   95464   95466   95467   95468
   95467   95469   95470   95471   95470   95472   95473   95474
   95473   95475   95476   95477   95476   95478   95479   95480
   95479   95481   95482   95483   95482   95484   95485   95486
   95485   95487   95488   95489   95488   95490   95491   95492
   95491   95493   95494   95495   95494   95496   95497   95498
   95497   95499   95500   95501   95500   95502   95503   95504
   95503   95505   95506   95507   95506   95508   95509   95510
   95509   95511   95512   95513   95512   95514   95515   95516
   95515   95517   95518   95519   95518   95520   95521   95522
   95521   95523   95524   95525   95524   95526   95527   95528
   95527   95529   95530   95531   95530   95532   95533   95534
   95533   95535   95536   95537   95536   95538   95539   95540
   95539   95541   95542   95543   95542   95544   95545   95546
   95545   95547   95548   95549   95548   95550   95551   95552
   95551   95553   95554   95555   95554   95556   95557   95558
   95557   95559   95560   95561   95560   95562   95563   95564
   95563   95565   95566   95567   95566   95568   95569   95570
   95569   95571   95572   95573   95572   95574   95575   95576
   95575   95577   95578   95579   95578   95580   95581   95582
   95581   95583   95584   95585   95584   95586   95587   95588
   95587   95589   95590   95591   95590   95592   95593   95594
   95593   95595   95596   95597   95596   95598   95599   95600
   95599   95601   95602   95603   95602   95604   95605   95606
   95605   95607   95608   95609   95608   95610   95611   95612
   95611   95613   95614   95615   95614   95616   95617   95618
   95617   95619   95620   95621   95620   95622   95623   95624
   95623   95625   95626   95627   95626   95628   95629   95630
   95629   95631   95632   95633   95632   95634   95635   95636
   95635   95637   95638   95639   95638   95640   95641   95642
   95641   95643   95644   95645   95644   95646   95647   95648
   95647   95649   95650   95651   95650   95652   95653   95654
   95653   95655   95656   95657   95656   95658   95659   95660
   95659   95661   95662   95663   95662   95664   95665   95666
   95665   95667   95668   95669   95668   95670   95671   95672
   95671   95673   95674   95675   95674   95676   95677   95678
   95677   95679   95680   95681   95680   95682   95683   95684
   95683   95685   95686   95687   95686   95688   95689   95690
   95689   95691   95692   95693   95692   95694   95695   95696
   95695   95697   95698   95699   95698   95700   95701   95702
   95701   95703   95704   95705   95704   95706   95707   95708
   95707   95709   95710   95711   95710   95712   95713   95714
   95713   95715   95716   95717   95716   95718   95719   95720
   95719   95721   95722   95723   95722   95724   95725   95726
   95725   95727   95728   95729   95728   95730   95731   95732
   95731   95733   95734   95735   95734   95736   95737   95738
   95737   95739   95740   95741   95740   95742   95743   95744
   95743   95745   95746   95747   95746   95748   95749   95750
   95749   95751   95752   95753   95752   95754   95755   95756
   95755   95757   95758   95759   95758   95760   95761   95762
   95761   95763   95764   95765   95764   95766   95767   95768
   95767   95769   95770   95771   95770   95772   95773   95774
   95773   95775   95776   95777   95776   95778   95779   95780
   95779   95781   95782   95783   95782   95784   95785   95786
   95785   95787   95788   95789   95788   95790   95791   95792
   95791   95793   95794   95795   95794   95796   95797   95798
   95797   95799   95800   95801   95800   95802   95803   95804
   95803   95805   95806   95807   95806   95808   95809   95810
   95809   95811   95812   95813   95812   95814   95815   95816
   95815   95817   95818   95819   95818   95820   95821   95822
   95821   95823   95824   95825   95824   95826   95827   95828
   95827   95829   95830   95831   95830   95832   95833   95834
   95833   95835   95836   95837   95836   95838   95839   95840
   95839   95841   95842   95843   95842   95844   95845   95846
   95845   95847   95848   95849   95848   95850   95851   95852
   95851   95853   95854   95855   95854   95856   95857   95858
   95857   95859   95860   95861   95860   95862   95863   95864
   95863   95865   95866   95867   95866   95868   95869   95870
   95869   95871   95872   95873   95872   95874   95875   95876
   95875   95877   95878   95879   95878   95880   95881   95882
   95881   95883   95884   95885   95884   95886   95887   95888
   95887   95889   95890   95891   95890   95892   95893   95894
   95893   95895   95896   95897   95896   95898   95899   95900
   95899   95901   95902   95903   95902   95904   95905   95906
   95905   95907   95908   95909   95908   95910   95911   95912
   95911   95913   95914   95915   95914   95916   95917   95918
   95917   95919   95920   95921   95920   95922   95923   95924
   95923   95925   95926   95927   95926   95928   95929   95930
   95929   95931   95932   95933   95932   95934   95935   95936
   95935   95937   95938   95939   95938   95940   95941   95942
   95941   95943   95944   95945   95944   95946   95947   95948
   95947   95949   95950   95951   95950   95952   95953   95954
   95953   95955   95956   95957   95956   95958   95959   95960
   95959   95961   95962   95963   95962   95964   95965   95966
   95965   95967   95968   95969   95968   95970   95971   95972
   95971   95973   95974   95975   95974   95976   95977   95978
   95977   95979   95980   95981   95980   95982   95983   95984
   95983   95985   95986   95987   95986   95988   95989   95990
   95989   95991   95992   95993   95992   95994   95995   95996
   95995   95997   95998   95999   95998   96000   96001   96002
   96001   96003   96004   96005   96004   96006   96007   96008
   96007   96009   96010   96011   96010   96012   96013   96014
   96013   96015   96016   96017   96016   96018   96019   96020
   96019   96021   96022   96023   96022   96024   96025   96026
   96025   96027   96028   96029   96028   96030   96031   96032
   96031   96033   96034   96035   96034   96036   96037   96038
   96037   96039   96040   96041   96040   96042   96043   96044
   96043   96045   96046   96047   96046   96048   96049   96050
   96049   96051   96052   96053   96052   96054   96055   96056
   96055   96057   96058   96059   96058   96060   96061   96062
   96061   96063   96064   96065   96064   96066   96067   96068
   96067   96069   96070   96071   96070   96072   96073   96074
   96073   96075   96076   96077   96076   96078   96079   96080
   96079   96081   96082   96083   96082   96084   96085   96086
   96085   96087   96088   96089   96088   96090   96091   96092
   96091   96093   96094   96095   96094   96096   96097   96098
   96097   96099   96100   96101   96100   96102   96103   96104
   96103   96105   96106   96107   96106   96108   96109   96110
   96109   96111   96112   96113   96112   96114   96115   96116
   96115   96117   96118   96119   96118   96120   96121   96122
   96121   96123   96124   96125   96124   96126   96127   96128
   96127   96129   96130   96131   96130   96132   96133   96134
   96133   96135   96136   96137   96136   96138   96139   96140
   96139   96141   96142   96143   96142   96144   96145   96146
   96145   96147   96148   96149   96148   96150   96151   96152
   96151   96153   96154   96155   96154   96156   96157   96158
   96157   96159   96160   96161   96160   96162   96163   96164
   96163   96165   96166   96167   96166   96168   96169   96170
   96169   96171   96172   96173   96172   96174   96175   96176
   96175   96177   96178   96179   96178   96180   96181   96182
   96181   96183   96184   96185   96184   96186   96187   96188
   96187   96189   96190   96191   96190   96192   96193   96194
   96193   96195   96196   96197   96196   96198   96199   96200
   96199   96201   96202   96203   96202   96204   96205   96206
   96205   96207   96208   96209   96208   96210   96211   96212
   96211   96213   96214   96215   96214   96216   96217   96218
   96217   96219   96220   96221   96220   96222   96223   96224
   96223   96225   96226   96227   96226   96228   96229   96230
   96229   96231   96232   96233   96232   96234   96235   96236
   96235   96237   96238   96239   96238   96240   96241   96242
   96241   96243   96244   96245   96244   96246   96247   96248
   96247   96249   96250   96251   96250   96252   96253   96254
   96253   96255   96256   96257   96256   96258   96259   96260
   96259   96261   96262   96263   96262   96264   96265   96266
   96265   96267   96268   96269   96268   96270   96271   96272
   96271   96273   96274   96275   96274   96276   96277   96278
   96277   96279   96280   96281   96280   96282   96283   96284
   96283   96285   96286   96287   96286   96288   96289   96290
   96289   96291   96292   96293   96292   96294   96295   96296
   96295   96297   96298   96299   96298   96300   96301   96302
   96301   96303   96304   96305   96304   96306   96307   96308
   96307   96309   96310   96311   96310   96312   96313   96314
   96313   96315   96316   96317   96316   96318   96319   96320
   96319   96321   96322   96323   96322   96324   96325   96326
   96325   96327   96328   96329   96328   96330   96331   96332
   96331   96333   96334   96335   96334   96336   96337   96338
   96337   96339   96340   96341   96340   96342   96343   96344
   96343   96345   96346   96347   96346   96348   96349   96350
   96349   96351   96352   96353   96352   96354   96355   96356
   96355   96357   96358   96359   96358   96360   96361   96362
   96361   96363   96364   96365   96364   96366   96367   96368
   96367   96369   96370   96371   96370   96372   96373   96374
   96373   96375   96376   96377   96376   96378   96379   96380
   96379   96381   96382   96383   96382   96384   96385   96386
   96385   96387   96388   96389   96388   96390   96391   96392
   96391   96393   96394   96395   96394   96396   96397   96398
   96397   96399   96400   96401   96400   96402   96403   96404
   96403   96405   96406   96407   96406   96408   96409   96410
   96409   96411   96412   96413   96412   96414   96415   96416
   96415   96417   96418   96419   96418   96420   96421   96422
   96421   96423   96424   96425   96424   96426   96427   96428
   96427   96429   96430   96431   96430   96432   96433   96434
   96433   96435   96436   96437   96436   96438   96439   96440
   96439   96441   96442   96443   96442   96444   96445   96446
   96445   96447   96448   96449   96448   96450   96451   96452
   96451   96453   96454   96455   96454   96456   96457   96458
   96457   96459   96460   96461   96460   96462   96463   96464
   96463   96465   96466   96467   96466   96468   96469   96470
   96469   96471   96472   96473   96472   96474   96475   96476
   96475   96477   96478   96479   96478   96480   96481   96482
   96481   96483   96484   96485   96484   96486   96487   96488
   96487   96489   96490   96491   96490   96492   96493   96494
   96493   96495   96496   96497   96496   96498   96499   96500
   96499   96501   96502   96503   96502   96504   96505   96506
   96505   96507   96508   96509   96508   96510   96511   96512
   96511   96513   96514   96515   96514   96516   96517   96518
   96517   96519   96520   96521   96520   96522   96523   96524
   96523   96525   96526   96527   96526   96528   96529   96530
   96529   96531   96532   96533   96532   96534   96535   96536
   96535   96537   96538   96539   96538   96540   96541   96542
   96541   96543   96544   96545   96544   96546   96547   96548
   96547   96549   96550   96551   96550   96552   96553   96554
   96553   96555   96556   96557   96556   96558   96559   96560
   96559   96561   96562   96563   96562   96564   96565   96566
   96565   96567   96568   96569   96568   96570   96571   96572
   96571   96573   96574   96575   96574   96576   96577   96578
   96577   96579   96580   96581   96580   96582   96583   96584
   96583   96585   96586   96587   96586   96588   96589   96590
   96589   96591   96592   96593   96592   96594   96595   96596
   96595   96597   96598   96599   96598   96600   96601   96602
   96601   96603   96604   96605   96604   96606   96607   96608
   96607   96609   96610   96611   96610   96612   96613   96614
   96613   96615   96616   96617   96616   96618   96619   96620
   96619   96621   96622   96623   96622   96624   96625   96626
   96625   96627   96628   96629   96628   96630   96631   96632
   96631   96633   96634   96635   96634   96636   96637   96638
   96637   96639   96640   96641   96640   96642   96643   96644
   96643   96645   96646   96647   96646   96648   96649   96650
   96649   96651   96652   96653   96652   96654   96655   96656
   96655   96657   96658   96659   96658   96660   96661   96662
   96661   96663   96664   96665   96664   96666   96667   96668
   96667   96669   96670   96671   96670   96672   96673   96674
   96673   96675   96676   96677   96676   96678   96679   96680
   96679   96681   96682   96683   96682   96684   96685   96686
   96685   96687   96688   96689   96688   96690   96691   96692
   96691   96693   96694   96695   96694   96696   96697   96698
   96697   96699   96700   96701   96700   96702   96703   96704
   96703   96705   96706   96707   96706   96708   96709   96710
   96709   96711   96712   96713   96712   96714   96715   96716
   96715   96717   96718   96719   96718   96720   96721   96722
   96721   96723   96724   96725   96724   96726   96727   96728
   96727   96729   96730   96731   96730   96732   96733   96734
   96733   96735   96736   96737   96736   96738   96739   96740
   96739   96741   96742   96743   96742   96744   96745   96746
   96745   96747   96748   96749   96748   96750   96751   96752
   96751   96753   96754   96755   96754   96756   96757   96758
   96757   96759   96760   96761   96760   96762   96763   96764
   96763   96765   96766   96767   96766   96768   96769   96770
   96769   96771   96772   96773   96772   96774   96775   96776
   96775   96777   96778   96779   96778   96780   96781   96782
   96781   96783   96784   96785   96784   96786   96787   96788
   96787   96789   96790   96791   96790   96792   96793   96794
   96793   96795   96796   96797   96796   96798   96799   96800
   96799   96801   96802   96803   96802   96804   96805   96806
   96805   96807   96808   96809   96808   96810   96811   96812
   96811   96813   96814   96815   96814   96816   96817   96818
   96817   96819   96820   96821   96820   96822   96823   96824
   96823   96825   96826   96827   96826   96828   96829   96830
   96829   96831   96832   96833   96832   96834   96835   96836
   96835   96837   96838   96839   96838   96840   96841   96842
   96841   96843   96844   96845   96844   96846   96847   96848
   96847   96849   96850   96851   96850   96852   96853   96854
   96853   96855   96856   96857   96856   96858   96859   96860
   96859   96861   96862   96863   96862   96864   96865   96866
   96865   96867   96868   96869   96868   96870   96871   96872
   96871   96873   96874   96875   96874   96876   96877   96878
   96877   96879   96880   96881   96880   96882   96883   96884
   96883   96885   96886   96887   96886   96888   96889   96890
   96889   96891   96892   96893   96892   96894   96895   96896
   96895   96897   96898   96899   96898   96900   96901   96902
   96901   96903   96904   96905   96904   96906   96907   96908
   96907   96909   96910   96911   96910   96912   96913   96914
   96913   96915   96916   96917   96916   96918   96919   96920
   96919   96921   96922   96923   96922   96924   96925   96926
   96925   96927   96928   96929   96928   96930   96931   96932
   96931   96933   96934   96935   96934   96936   96937   96938
   96937   96939   96940   96941   96940   96942   96943   96944
   96943   96945   96946   96947   96946   96948   96949   96950
   96949   96951   96952   96953   96952   96954   96955   96956
   96955   96957   96958   96959   96958   96960   96961   96962
   96961   96963   96964   96965   96964   96966   96967   96968
   96967   96969   96970   96971   96970   96972   96973   96974
   96973   96975   96976   96977   96976   96978   96979   96980
   96979   96981   96982   96983   96982   96984   96985   96986
   96985   96987   96988   96989   96988   96990   96991   96992
   96991   96993   96994   96995   96994   96996   96997   96998
   96997   96999   97000   97001   97000   97002   97003   97004
   97003   97005   97006   97007   97006   97008   97009   97010
   97009   97011   97012   97013   97012   97014   97015   97016
   97015   97017   97018   97019   97018   97020   97021   97022
   97021   97023   97024   97025   97024   97026   97027   97028
   97027   97029   97030   97031   97030   97032   97033   97034
   97033   97035   97036   97037   97036   97038   97039   97040
   97039   97041   97042   97043   97042   97044   97045   97046
   97045   97047   97048   97049   97048   97050   97051   97052
   97051   97053   97054   97055   97054   97056   97057   97058
   97057   97059   97060   97061   97060   97062   97063   97064
   97063   97065   97066   97067   97066   97068   97069   97070
   97069   97071   97072   97073   97072   97074   97075   97076
   97075   97077   97078   97079   97078   97080   97081   97082
   97081   97083   97084   97085   97084   97086   97087   97088
   97087   97089   97090   97091   97090   97092   97093   97094
   97093   97095   97096   97097   97096   97098   97099   97100
   97099   97101   97102   97103   97102   97104   97105   97106
   97105   97107   97108   97109   97108   97110   97111   97112
   97111   97113   97114   97115   97114   97116   97117   97118
   97117   97119   97120   97121   97120   97122   97123   97124
   97123   97125   97126   97127   97126   97128   97129   97130
   97129   97131   97132   97133   97132   97134   97135   97136
   97135   97137   97138   97139   97138   97140   97141   97142
   97141   97143   97144   97145   97144   97146   97147   97148
   97147   97149   97150   97151   97150   97152   97153   97154
   97153   97155   97156   97157   97156   97158   97159   97160
   97159   97161   97162   97163   97162   97164   97165   97166
   97165   97167   97168   97169   97168   97170   97171   97172
   97171   97173   97174   97175   97174   97176   97177   97178
   97177   97179   97180   97181   97180   97182   97183   97184
   97183   97185   97186   97187   97186   97188   97189   97190
   97189   97191   97192   97193   97192   97194   97195   97196
   97195   97197   97198   97199   97198   97200   97201   97202
   97201   97203   97204   97205   97204   97206   97207   97208
   97207   97209   97210   97211   97210   97212   97213   97214
   97213   97215   97216   97217   97216   97218   97219   97220
   97219   97221   97222   97223   97222   97224   97225   97226
   97225   97227   97228   97229   97228   97230   97231   97232
   97231   97233   97234   97235   97234   97236   97237   97238
   97237   97239   97240   97241   97240   97242   97243   97244
   97243   97245   97246   97247   97246   97248   97249   97250
   97249   97251   97252   97253   97252   97254   97255   97256
   97255   97257   97258   97259   97258   97260   97261   97262
   97261   97263   97264   97265   97264   97266   97267   97268
   97267   97269   97270   97271   97270   97272   97273   97274
   97273   97275   97276   97277   97276   97278   97279   97280
   97279   97281   97282   97283   97282   97284   97285   97286
   97285   97287   97288   97289   97288   97290   97291   97292
   97291   97293   97294   97295   97294   97296   97297   97298
   97297   97299   97300   97301   97300   97302   97303   97304
   97303   97305   97306   97307   97306   97308   97309   97310
   97309   97311   97312   97313   97312   97314   97315   97316
   97315   97317   97318   97319   97318   97320   97321   97322
   97321   97323   97324   97325   97324   97326   97327   97328
   97327   97329   97330   97331   97330   97332   97333   97334
   97333   97335   97336   97337   97336   97338   97339   97340
   97339   97341   97342   97343   97342   97344   97345   97346
   97345   97347   97348   97349   97348   97350   97351   97352
   97351   97353   97354   97355   97354   97356   97357   97358
   97357   97359   97360   97361   97360   97362   97363   97364
   97363   97365   97366   97367   97366   97368   97369   97370
   97369   97371   97372   97373   97372   97374   97375   97376
   97375   97377   97378   97379   97378   97380   97381   97382
   97381   97383   97384   97385   97384   97386   97387   97388
   97387   97389   97390   97391   97390   97392   97393   97394
   97393   97395   97396   97397   97396   97398   97399   97400
   97399   97401   97402   97403   97402   97404   97405   97406
   97405   97407   97408   97409   97408   97410   97411   97412
   97411   97413   97414   97415   97414   97416   97417   97418
   97417   97419   97420   97421   97420   97422   97423   97424
   97423   97425   97426   97427   97426   97428   97429   97430
   97429   97431   97432   97433   97432   97434   97435   97436
   97435   97437   97438   97439   97438   97440   97441   97442
   97441   97443   97444   97445   97444   97446   97447   97448
   97447   97449   97450   97451   97450   97452   97453   97454
   97453   97455   97456   97457   97456   97458   97459   97460
   97459   97461   97462   97463   97462   97464   97465   97466
   97465   97467   97468   97469   97468   97470   97471   97472
   97471   97473   97474   97475   97474   97476   97477   97478
   97477   97479   97480   97481   97480   97482   97483   97484
   97483   97485   97486   97487   97486   97488   97489   97490
   97489   97491   97492   97493   97492   97494   97495   97496
   97495   97497   97498   97499   97498   97500   97501   97502
   97501   97503   97504   97505   97504   97506   97507   97508
   97507   97509   97510   97511   97510   97512   97513   97514
   97513   97515   97516   97517   97516   97518   97519   97520
   97519   97521   97522   97523   97522   97524   97525   97526
   97525   97527   97528   97529   97528   97530   97531   97532
   97531   97533   97534   97535   97534   97536   97537   97538
   97537   97539   97540   97541   97540   97542   97543   97544
   97543   97545   97546   97547   97546   97548   97549   97550
   97549   97551   97552   97553   97552   97554   97555   97556
   97555   97557   97558   97559   97558   97560   97561   97562
   97561   97563   97564   97565   97564   97566   97567   97568
   97567   97569   97570   97571   97570   97572   97573   97574
   97573   97575   97576   97577   97576   97578   97579   97580
   97579   97581   97582   97583   97582   97584   97585   97586
   97585   97587   97588   97589   97588   97590   97591   97592
   97591   97593   97594   97595   97594   97596   97597   97598
   97597   97599   97600   97601   97600   97602   97603   97604
   97603   97605   97606   97607   97606   97608   97609   97610
   97609   97611   97612   97613   97612   97614   97615   97616
   97615   97617   97618   97619   97618   97620   97621   97622
   97621   97623   97624   97625   97624   97626   97627   97628
   97627   97629   97630   97631   97630   97632   97633   97634
   97633   97635   97636   97637   97636   97638   97639   97640
   97639   97641   97642   97643   97642   97644   97645   97646
   97645   97647   97648   97649   97648   97650   97651   97652
   97651   97653   97654   97655   97654   97656   97657   97658
   97657   97659   97660   97661   97660   97662   97663   97664
   97663   97665   97666   97667   97666   97668   97669   97670
   97669   97671   97672   97673   97672   97674   97675   97676
   97675   97677   97678   97679   97678   97680   97681   97682
   97681   97683   97684   97685   97684   97686   97687   97688
   97687   97689   97690   97691   97690   97692   97693   97694
   97693   97695   97696   97697   97696   97698   97699   97700
   97699   97701   97702   97703   97702   97704   97705   97706
   97705   97707   97708   97709   97708   97710   97711   97712
   97711   97713   97714   97715   97714   97716   97717   97718
   97717   97719   97720   97721   97720   97722   97723   97724
   97723   97725   97726   97727   97726   97728   97729   97730
   97729   97731   97732   97733   97732   97734   97735   97736
   97735   97737   97738   97739   97738   97740   97741   97742
   97741   97743   97744   97745   97744   97746   97747   97748
   97747   97749   97750   97751   97750   97752   97753   97754
   97753   97755   97756   97757   97756   97758   97759   97760
   97759   97761   97762   97763   97762   97764   97765   97766
   97765   97767   97768   97769   97768   97770   97771   97772
   97771   97773   97774   97775   97774   97776   97777   97778
   97777   97779   97780   97781   97780   97782   97783   97784
   97783   97785   97786   97787   97786   97788   97789   97790
   97789   97791   97792   97793   97792   97794   97795   97796
   97795   97797   97798   97799   97798   97800   97801   97802
   97801   97803   97804   97805   97804   97806   97807   97808
   97807   97809   97810   97811   97810   97812   97813   97814
   97813   97815   97816   97817   97816   97818   97819   97820
   97819   97821   97822   97823   97822   97824   97825   97826
   97825   97827   97828   97829   97828   97830   97831   97832
   97831   97833   97834   97835   97834   97836   97837   97838
   97837   97839   97840   97841   97840   97842   97843   97844
   97843   97845   97846   97847   97846   97848   97849   97850
   97849   97851   97852   97853   97852   97854   97855   97856
   97855   97857   97858   97859   97858   97860   97861   97862
   97861   97863   97864   97865   97864   97866   97867   97868
   97867   97869   97870   97871   97870   97872   97873   97874
   97873   97875   97876   97877   97876   97878   97879   97880
   97879   97881   97882   97883   97882   97884   97885   97886
   97885   97887   97888   97889   97888   97890   97891   97892
   97891   97893   97894   97895   97894   97896   97897   97898
   97897   97899   97900   97901   97900   97902   97903   97904
   97903   97905   97906   97907   97906   97908   97909   97910
   97909   97911   97912   97913   97912   97914   97915   97916
   97915   97917   97918   97919   97918   97920   97921   97922
   97921   97923   97924   97925   97924   97926   97927   97928
   97927   97929   97930   97931   97930   97932   97933   97934
   97933   97935   97936   97937   97936   97938   97939   97940
   97939   97941   97942   97943   97942   97944   97945   97946
   97945   97947   97948   97949   97948   97950   97951   97952
   97951   97953   97954   97955   97954   97956   97957   97958
   97957   97959   97960   97961   97960   97962   97963   97964
   97963   97965   97966   97967   97966   97968   97969   97970
   97969   97971   97972   97973   97972   97974   97975   97976
   97975   97977   97978   97979   97978   97980   97981   97982
   97981   97983   97984   97985   97984   97986   97987   97988
   97987   97989   97990   97991   97990   97992   97993   97994
   97993   97995   97996   97997   97996   97998   97999   98000
   97999   98001   98002   98003   98002   98004   98005   98006
   98005   98007   98008   98009   98008   98010   98011   98012
   98011   98013   98014   98015   98014   98016   98017   98018
   98017   98019   98020   98021   98020   98022   98023   98024
   98023   98025   98026   98027   98026   98028   98029   98030
   98029   98031   98032   98033   98032   98034   98035   98036
   98035   98037   98038   98039   98038   98040   98041   98042
   98041   98043   98044   98045   98044   98046   98047   98048
   98047   98049   98050   98051   98050   98052   98053   98054
   98053   98055   98056   98057   98056   98058   98059   98060
   98059   98061   98062   98063   98062   98064   98065   98066
   98065   98067   98068   98069   98068   98070   98071   98072
   98071   98073   98074   98075   98074   98076   98077   98078
   98077   98079   98080   98081   98080   98082   98083   98084
   98083   98085   98086   98087   98086   98088   98089   98090
   98089   98091   98092   98093   98092   98094   98095   98096
   98095   98097   98098   98099   98098   98100   98101   98102
   98101   98103   98104   98105   98104   98106   98107   98108
   98107   98109   98110   98111   98110   98112   98113   98114
   98113   98115   98116   98117   98116   98118   98119   98120
   98119   98121   98122   98123   98122   98124   98125   98126
   98125   98127   98128   98129   98128   98130   98131   98132
   98131   98133   98134   98135   98134   98136   98137   98138
   98137   98139   98140   98141   98140   98142   98143   98144
   98143   98145   98146   98147   98146   98148   98149   98150
   98149   98151   98152   98153   98152   98154   98155   98156
   98155   98157   98158   98159   98158   98160   98161   98162
   98161   98163   98164   98165   98164   98166   98167   98168
   98167   98169   98170   98171   98170   98172   98173   98174
   98173   98175   98176   98177   98176   98178   98179   98180
   98179   98181   98182   98183   98182   98184   98185   98186
   98185   98187   98188   98189   98188   98190   98191   98192
   98191   98193   98194   98195   98194   98196   98197   98198
   98197   98199   98200   98201   98200   98202   98203   98204
   98203   98205   98206   98207   98206   98208   98209   98210
   98209   98211   98212   98213   98212   98214   98215   98216
   98215   98217   98218   98219   98218   98220   98221   98222
   98221   98223   98224   98225   98224   98226   98227   98228
   98227   98229   98230   98231   98230   98232   98233   98234
   98233   98235   98236   98237   98236   98238   98239   98240
   98239   98241   98242   98243   98242   98244   98245   98246
   98245   98247   98248   98249   98248   98250   98251   98252
   98251   98253   98254   98255   98254   98256   98257   98258
   98257   98259   98260   98261   98260   98262   98263   98264
   98263   98265   98266   98267   98266   98268   98269   98270
   98269   98271   98272   98273   98272   98274   98275   98276
   98275   98277   98278   98279   98278   98280   98281   98282
   98281   98283   98284   98285   98284   98286   98287   98288
   98287   98289   98290   98291   98290   98292   98293   98294
   98293   98295   98296   98297   98296   98298   98299   98300
   98299   98301   98302   98303   98302   98304   98305   98306
   98305   98307   98308   98309   98308   98310   98311   98312
   98311   98313   98314   98315   98314   98316   98317   98318
   98317   98319   98320   98321   98320   98322   98323   98324
   98323   98325   98326   98327   98326   98328   98329   98330
   98329   98331   98332   98333   98332   98334   98335   98336
   98335   98337   98338   98339   98338   98340   98341   98342
   98341   98343   98344   98345   98344   98346   98347   98348
   98347   98349   98350   98351   98350   98352   98353   98354
   98353   98355   98356   98357   98356   98358   98359   98360
   98359   98361   98362   98363   98362   98364   98365   98366
   98365   98367   98368   98369   98368   98370   98371   98372
   98371   98373   98374   98375   98374   98376   98377   98378
   98377   98379   98380   98381   98380   98382   98383   98384
   98383   98385   98386   98387   98386   98388   98389   98390
   98389   98391   98392   98393   98392   98394   98395   98396
   98395   98397   98398   98399   98398   98400   98401   98402
   98401   98403   98404   98405   98404   98406   98407   98408
   98407   98409   98410   98411   98410   98412   98413   98414
   98413   98415   98416   98417   98416   98418   98419   98420
   98419   98421   98422   98423   98422   98424   98425   98426
   98425   98427   98428   98429   98428   98430   98431   98432
   98431   98433   98434   98435   98434   98436   98437   98438
   98437   98439   98440   98441   98440   98442   98443   98444
   98443   98445   98446   98447   98446   98448   98449   98450
   98449   98451   98452   98453   98452   98454   98455   98456
   98455   98457   98458   98459   98458   98460   98461   98462
   98461   98463   98464   98465   98464   98466   98467   98468
   98467   98469   98470   98471   98470   98472   98473   98474
   98473   98475   98476   98477   98476   98478   98479   98480
   98479   98481   98482   98483   98482   98484   98485   98486
   98485   98487   98488   98489   98488   98490   98491   98492
   98491   98493   98494   98495   98494   98496   98497   98498
   98497   98499   98500   98501   98500   98502   98503   98504
   98503   98505   98506   98507   98506   98508   98509   98510
   98509   98511   98512   98513   98512   98514   98515   98516
   98515   98517   98518   98519   98518   98520   98521   98522
   98521   98523   98524   98525   98524   98526   98527   98528
   98527   98529   98530   98531   98530   98532   98533   98534
   98533   98535   98536   98537   98536   98538   98539   98540
   98539   98541   98542   98543   98542   98544   98545   98546
   98545   98547   98548   98549   98548   98550   98551   98552
   98551   98553   98554   98555   98554   98556   98557   98558
   98557   98559   98560   98561   98560   98562   98563   98564
   98563   98565   98566   98567   98566   98568   98569   98570
   98569   98571   98572   98573   98572   98574   98575   98576
   98575   98577   98578   98579   98578   98580   98581   98582
   98581   98583   98584   98585   98584   98586   98587   98588
   98587   98589   98590   98591   98590   98592   98593   98594
   98593   98595   98596   98597   98596   98598   98599   98600
   98599   98601   98602   98603   98602   98604   98605   98606
   98605   98607   98608   98609   98608   98610   98611   98612
   98611   98613   98614   98615   98614   98616   98617   98618
   98617   98619   98620   98621   98620   98622   98623   98624
   98623   98625   98626   98627   98626   98628   98629   98630
   98629   98631   98632   98633   98632   98634   98635   98636
   98635   98637   98638   98639   98638   98640   98641   98642
   98641   98643   98644   98645   98644   98646   98647   98648
   98647   98649   98650   98651   98650   98652   98653   98654
   98653   98655   98656   98657   98656   98658   98659   98660
   98659   98661   98662   98663   98662   98664   98665   98666
   98665   98667   98668   98669   98668   98670   98671   98672
   98671   98673   98674   98675   98674   98676   98677   98678
   98677   98679   98680   98681   98680   98682   98683   98684
   98683   98685   98686   98687   98686   98688   98689   98690
   98689   98691   98692   98693   98692   98694   98695   98696
   98695   98697   98698   98699   98698   98700   98701   98702
   98701   98703   98704   98705   98704   98706   98707   98708
   98707   98709   98710   98711   98710   98712   98713   98714
   98713   98715   98716   98717   98716   98718   98719   98720
   98719   98721   98722   98723   98722   98724   98725   98726
   98725   98727   98728   98729   98728   98730   98731   98732
   98731   98733   98734   98735   98734   98736   98737   98738
   98737   98739   98740   98741   98740   98742   98743   98744
   98743   98745   98746   98747   98746   98748   98749   98750
   98749   98751   98752   98753   98752   98754   98755   98756
   98755   98757   98758   98759   98758   98760   98761   98762
   98761   98763   98764   98765   98764   98766   98767   98768
   98767   98769   98770   98771   98770   98772   98773   98774
   98773   98775   98776   98777   98776   98778   98779   98780
   98779   98781   98782   98783   98782   98784   98785   98786
   98785   98787   98788   98789   98788   98790   98791   98792
   98791   98793   98794   98795   98794   98796   98797   98798
   98797   98799   98800   98801   98800   98802   98803   98804
   98803   98805   98806   98807   98806   98808   98809   98810
   98809   98811   98812   98813   98812   98814   98815   98816
   98815   98817   98818   98819   98818   98820   98821   98822
   98821   98823   98824   98825   98824   98826   98827   98828
   98827   98829   98830   98831   98830   98832   98833   98834
   98833   98835   98836   98837   98836   98838   98839   98840
   98839   98841   98842   98843   98842   98844   98845   98846
   98845   98847   98848   98849   98848   98850   98851   98852
   98851   98853   98854   98855   98854   98856   98857   98858
   98857   98859   98860   98861   98860   98862   98863   98864
   98863   98865   98866   98867   98866   98868   98869   98870
   98869   98871   98872   98873   98872   98874   98875   98876
   98875   98877   98878   98879   98878   98880   98881   98882
   98881   98883   98884   98885   98884   98886   98887   98888
   98887   98889   98890   98891   98890   98892   98893   98894
   98893   98895   98896   98897   98896   98898   98899   98900
   98899   98901   98902   98903   98902   98904   98905   98906
   98905   98907   98908   98909   98908   98910   98911   98912
   98911   98913   98914   98915   98914   98916   98917   98918
   98917   98919   98920   98921   98920   98922   98923   98924
   98923   98925   98926   98927   98926   98928   98929   98930
   98929   98931   98932   98933   98932   98934   98935   98936
   98935   98937   98938   98939   98938   98940   98941   98942
   98941   98943   98944   98945   98944   98946   98947   98948
   98947   98949   98950   98951   98950   98952   98953   98954
   98953   98955   98956   98957   98956   98958   98959   98960
   98959   98961   98962   98963   98962   98964   98965   98966
   98965   98967   98968   98969   98968   98970   98971   98972
   98971   98973   98974   98975   98974   98976   98977   98978
   98977   98979   98980   98981   98980   98982   98983   98984
   98983   98985   98986   98987   98986   98988   98989   98990
   98989   98991   98992   98993   98992   98994   98995   98996
   98995   98997   98998   98999   98998   99000   99001   99002
   99001   99003   99004   99005   99004   99006   99007   99008
   99007   99009   99010   99011   99010   99012   99013   99014
   99013   99015   99016   99017   99016   99018   99019   99020
   99019   99021   99022   99023   99022   99024   99025   99026
   99025   99027   99028   99029   99028   99030   99031   99032
   99031   99033   99034   99035   99034   99036   99037   99038
   99037   99039   99040   99041   99040   99042   99043   99044
   99043   99045   99046   99047   99046   99048   99049   99050
   99049   99051   99052   99053   99052   99054   99055   99056
   99055   99057   99058   99059   99058   99060   99061   99062
   99061   99063   99064   99065   99064   99066   99067   99068
   99067   99069   99070   99071   99070   99072   99073   99074
   99073   99075   99076   99077   99076   99078   99079   99080
   99079   99081   99082   99083   99082   99084   99085   99086
   99085   99087   99088   99089   99088   99090   99091   99092
   99091   99093   99094   99095   99094   99096   99097   99098
   99097   99099   99100   99101   99100   99102   99103   99104
   99103   99105   99106   99107   99106   99108   99109   99110
   99109   99111   99112   99113   99112   99114   99115   99116
   99115   99117   99118   99119   99118   99120   99121   99122
   99121   99123   99124   99125   99124   99126   99127   99128
   99127   99129   99130   99131   99130   99132   99133   99134
   99133   99135   99136   99137   99136   99138   99139   99140
   99139   99141   99142   99143   99142   99144   99145   99146
   99145   99147   99148   99149   99148   99150   99151   99152
   99151   99153   99154   99155   99154   99156   99157   99158
   99157   99159   99160   99161   99160   99162   99163   99164
   99163   99165   99166   99167   99166   99168   99169   99170
   99169   99171   99172   99173   99172   99174   99175   99176
   99175   99177   99178   99179   99178   99180   99181   99182
   99181   99183   99184   99185   99184   99186   99187   99188
   99187   99189   99190   99191   99190   99192   99193   99194
   99193   99195   99196   99197   99196   99198   99199   99200
   99199   99201   99202   99203   99202   99204   99205   99206
   99205   99207   99208   99209   99208   99210   99211   99212
   99211   99213   99214   99215   99214   99216   99217   99218
   99217   99219   99220   99221   99220   99222   99223   99224
   99223   99225   99226   99227   99226   99228   99229   99230
   99229   99231   99232   99233   99232   99234   99235   99236
   99235   99237   99238   99239   99238   99240   99241   99242
   99241   99243   99244   99245   99244   99246   99247   99248
   99247   99249   99250   99251   99250   99252   99253   99254
   99253   99255   99256   99257   99256   99258   99259   99260
   99259   99261   99262   99263   99262   99264   99265   99266
   99265   99267   99268   99269   99268   99270   99271   99272
   99271   99273   99274   99275   99274   99276   99277   99278
   99277   99279   99280   99281   99280   99282   99283   99284
   99283   99285   99286   99287   99286   99288   99289   99290
   99289   99291   99292   99293   99292   99294   99295   99296
   99295   99297   99298   99299   99298   99300   99301   99302
   99301   99303   99304   99305   99304   99306   99307   99308
   99307   99309   99310   99311   99310   99312   99313   99314
   99313   99315   99316   99317   99316   99318   99319   99320
   99319   99321   99322   99323   99322   99324   99325   99326
   99325   99327   99328   99329   99328   99330   99331   99332
   99331   99333   99334   99335   99334   99336   99337   99338
   99337   99339   99340   99341   99340   99342   99343   99344
   99343   99345   99346   99347   99346   99348   99349   99350
   99349   99351   99352   99353   99352   99354   99355   99356
   99355   99357   99358   99359   99358   99360   99361   99362
   99361   99363   99364   99365   99364   99366   99367   99368
   99367   99369   99370   99371   99370   99372   99373   99374
   99373   99375   99376   99377   99376   99378   99379   99380
   99379   99381   99382   99383   99382   99384   99385   99386
   99385   99387   99388   99389   99388   99390   99391   99392
   99391   99393   99394   99395   99394   99396   99397   99398
   99397   99399   99400   99401   99400   99402   99403   99404
   99403   99405   99406   99407   99406   99408   99409   99410
   99409   99411   99412   99413   99412   99414   99415   99416
   99415   99417   99418   99419   99418   99420   99421   99422
   99421   99423   99424   99425   99424   99426   99427   99428
   99427   99429   99430   99431   99430   99432   99433   99434
   99433   99435   99436   99437   99436   99438   99439   99440
   99439   99441   99442   99443   99442   99444   99445   99446
   99445   99447   99448   99449   99448   99450   99451   99452
   99451   99453   99454   99455   99454   99456   99457   99458
   99457   99459   99460   99461   99460   99462   99463   99464
   99463   99465   99466   99467   99466   99468   99469   99470
   99469   99471   99472   99473   99472   99474   99475   99476
   99475   99477   99478   99479   99478   99480   99481   99482
   99481   99483   99484   99485   99484   99486   99487   99488
   99487   99489   99490   99491   99490   99492   99493   99494
   99493   99495   99496   99497   99496   99498   99499   99500
   99499   99501   99502   99503   99502   99504   99505   99506
   99505   99507   99508   99509   99508   99510   99511   99512
   99511   99513   99514   99515   99514   99516   99517   99518
   99517   99519   99520   99521   99520   99522   99523   99524
   99523   99525   99526   99527   99526   99528   99529   99530
   99529   99531   99532   99533   99532   99534   99535   99536
   99535   99537   99538   99539   99538   99540   99541   99542
   99541   99543   99544   99545   99544   99546   99547   99548
   99547   99549   99550   99551   99550   99552   99553   99554
   99553   99555   99556   99557   99556   99558   99559   99560
   99559   99561   99562   99563   99562   99564   99565   99566
   99565   99567   99568   99569   99568   99570   99571   99572
   99571   99573   99574   99575   99574   99576   99577   99578
   99577   99579   99580   99581   99580   99582   99583   99584
   99583   99585   99586   99587   99586   99588   99589   99590
   99589   99591   99592   99593   99592   99594   99595   99596
   99595   99597   99598   99599   99598   99600   99601   99602
   99601   99603   99604   99605   99604   99606   99607   99608
   99607   99609   99610   99611   99610   99612   99613   99614
   99613   99615   99616   99617   99616   99618   99619   99620
   99619   99621   99622   99623   99622   99624   99625   99626
   99625   99627   99628   99629   99628   99630   99631   99632
   99631   99633   99634   99635   99634   99636   99637   99638
   99637   99639   99640   99641   99640   99642   99643   99644
   99643   99645   99646   99647   99646   99648   99649   99650
   99649   99651   99652   99653   99652   99654   99655   99656
   99655   99657   99658   99659   99658   99660   99661   99662
   99661   99663   99664   99665   99664   99666   99667   99668
   99667   99669   99670   99671   99670   99672   99673   99674
   99673   99675   99676   99677   99676   99678   99679   99680
   99679   99681   99682   99683   99682   99684   99685   99686
   99685   99687   99688   99689   99688   99690   99691   99692
   99691   99693   99694   99695   99694   99696   99697   99698
   99697   99699   99700   99701   99700   99702   99703   99704
   99703   99705   99706   99707   99706   99708   99709   99710
   99709   99711   99712   99713   99712   99714   99715   99716
   99715   99717   99718   99719   99718   99720   99721   99722
   99721   99723   99724   99725   99724   99726   99727   99728
   99727   99729   99730   99731   99730   99732   99733   99734
   99733   99735   99736   99737   99736   99738   99739   99740
   99739   99741   99742   99743   99742   99744   99745   99746
   99745   99747   99748   99749   99748   99750   99751   99752
   99751   99753   99754   99755   99754   99756   99757   99758
   99757   99759   99760   99761   99760   99762   99763   99764
   99763   99765   99766   99767   99766   99768   99769   99770
   99769   99771   99772   99773   99772   99774   99775   99776
   99775   99777   99778   99779   99778   99780   99781   99782
   99781   99783   99784   99785   99784   99786   99787   99788
   99787   99789   99790   99791   99790   99792   99793   99794
   99793   99795   99796   99797   99796   99798   99799   99800
   99799   99801   99802   99803   99802   99804   99805   99806
   99805   99807   99808   99809   99808   99810   99811   99812
   99811   99813   99814   99815   99814   99816   99817   99818
   99817   99819   99820   99821   99820   99822   99823   99824
   99823   99825   99826   99827   99826   99828   99829   99830
   99829   99831   99832   99833   99832   99834   99835   99836
   99835   99837   99838   99839   99838   99840   99841   99842
   99841   99843   99844   99845   99844   99846   99847   99848
   99847   99849   99850   99851   99850   99852   99853   99854
   99853   99855   99856   99857   99856   99858   99859   99860
   99859   99861   99862   99863   99862   99864   99865   99866
   99865   99867   99868   99869   99868   99870   99871   99872
   99871   99873   99874   99875   99874   99876   99877   99878
   99877   99879   99880   99881   99880   99882   99883   99884
   99883   99885   99886   99887   99886   99888   99889   99890
   99889   99891   99892   99893   99892   99894   99895   99896
   99895   99897   99898   99899   99898   99900   99901   99902
   99901   99903   99904   99905   99904   99906   99907   99908
   99907   99909   99910   99911   99910   99912   99913   99914
   99913   99915   99916   99917   99916   99918   99919   99920
   99919   99921   99922   99923   99922   99924   99925   99926
   99925   99927   99928   99929   99928   99930   99931   99932
   99931   99933   99934   99935   99934   99936   99937   99938
   99937   99939   99940   99941   99940   99942   99943   99944
   99943   99945   99946   99947   99946   99948   99949   99950
   99949   99951   99952   99953   99952   99954   99955   99956
   99955   99957   99958   99959   99958   99960   99961   99962
   99961   99963   99964   99965   99964   99966   99967   99968
   99967   99969   99970   99971   99970   99972   99973   99974
   99973   99975   99976   99977   99976   99978   99979   99980
   99979   99981   99982   99983   99982   99984   99985   99986
   99985   99987   99988   99989   99988   99990   99991   99992
   99991   99993   99994   99995   99994   99996   99997   99998
   99997   99999  100000  100001  100000  100002  100003  100004
  100003  100005  100006  100007  100006  100008  100009  100010
  100009  100011  100012  100013  100012  100014  100015  100016
  100015  100017  100018  100019  100018  100020  100021  100022
  100021  100023  100024  100025  100024  100026  100027  100028
  100027  100029  100030  100031  100030  100032  100033  100034
  100033  100035  100036  100037  100036  100038  100039  100040
  100039  100041  100042  100043  100042  100044  100045  100046
  100045  100047  100048  100049  100048  100050  100051  100052
  100051  100053  100054  100055  100054  100056  100057  100058
  100057  100059  100060  100061  100060  100062  100063  100064
  100063  100065  100066  100067  100066  100068  100069  100070
  100069  100071  100072  100073  100072  100074  100075  100076
  100075  100077  100078  100079  100078  100080  100081  100082
  100081  100083  100084  100085  100084  100086  100087  100088
  100087  100089  100090  100091  100090  100092  100093  100094
  100093  100095  100096  100097  100096  100098  100099  100100
  100099  100101  100102  100103  100102  100104  100105  100106
  100105  100107  100108  100109  100108  100110  100111  100112
  100111  100113  100114  100115  100114  100116  100117  100118
  100117  100119  100120  100121  100120  100122  100123  100124
  100123  100125  100126  100127  100126  100128  100129  100130
  100129  100131  100132  100133  100132  100134  100135  100136
  100135  100137  100138  100139  100138  100140  100141  100142
  100141  100143  100144  100145  100144  100146  100147  100148
  100147  100149  100150  100151  100150  100152  100153  100154
  100153  100155  100156  100157  100156  100158  100159  100160
  100159  100161  100162  100163  100162  100164  100165  100166
  100165  100167  100168  100169  100168  100170  100171  100172
  100171  100173  100174  100175  100174  100176  100177  100178
  100177  100179  100180  100181  100180  100182  100183  100184
  100183  100185  100186  100187  100186  100188  100189  100190
  100189  100191  100192  100193  100192  100194  100195  100196
  100195  100197  100198  100199  100198  100200  100201  100202
  100201  100203  100204  100205  100204  100206  100207  100208
  100207  100209  100210  100211  100210  100212  100213  100214
  100213  100215  100216  100217  100216  100218  100219  100220
  100219  100221  100222  100223  100222  100224  100225  100226
  100225  100227  100228  100229  100228  100230  100231  100232
  100231  100233  100234  100235  100234  100236  100237  100238
  100237  100239  100240  100241  100240  100242  100243  100244
  100243  100245  100246  100247  100246  100248  100249  100250
  100249  100251  100252  100253  100252  100254  100255  100256
  100255  100257  100258  100259  100258  100260  100261  100262
  100261  100263  100264  100265  100264  100266  100267  100268
  100267  100269  100270  100271  100270  100272  100273  100274
  100273  100275  100276  100277  100276  100278  100279  100280
  100279  100281  100282  100283  100282  100284  100285  100286
  100285  100287  100288  100289  100288  100290  100291  100292
  100291  100293  100294  100295  100294  100296  100297  100298
  100297  100299  100300  100301  100300  100302  100303  100304
  100303  100305  100306  100307  100306  100308  100309  100310
  100309  100311  100312  100313  100312  100314  100315  100316
  100315  100317  100318  100319  100318  100320  100321  100322
  100321  100323  100324  100325  100324  100326  100327  100328
  100327  100329  100330  100331  100330  100332  100333  100334
  100333  100335  100336  100337  100336  100338  100339  100340
  100339  100341  100342  100343  100342  100344  100345  100346
  100345  100347  100348  100349  100348  100350  100351  100352
  100351  100353  100354  100355  100354  100356  100357  100358
  100357  100359  100360  100361  100360  100362  100363  100364
  100363  100365  100366  100367  100366  100368  100369  100370
  100369  100371  100372  100373  100372  100374  100375  100376
  100375  100377  100378  100379  100378  100380  100381  100382
  100381  100383  100384  100385  100384  100386  100387  100388
  100387  100389  100390  100391  100390  100392  100393  100394
  100393  100395  100396  100397  100396  100398  100399  100400
  100399  100401  100402  100403  100402  100404  100405  100406
  100405  100407  100408  100409  100408  100410  100411  100412
  100411  100413  100414  100415  100414  100416  100417  100418
  100417  100419  100420  100421  100420  100422  100423  100424
  100423  100425  100426  100427  100426  100428  100429  100430
  100429  100431  100432  100433  100432  100434  100435  100436
  100435  100437  100438  100439  100438  100440  100441  100442
  100441  100443  100444  100445  100444  100446  100447  100448
  100447  100449  100450  100451  100450  100452  100453  100454
  100453  100455  100456  100457  100456  100458  100459  100460
  100459  100461  100462  100463  100462  100464  100465  100466
  100465  100467  100468  100469  100468  100470  100471  100472
  100471  100473  100474  100475  100474  100476  100477  100478
  100477  100479  100480  100481  100480  100482  100483  100484
  100483  100485  100486  100487  100486  100488  100489  100490
  100489  100491  100492  100493  100492  100494  100495  100496
  100495  100497  100498  100499  100498  100500  100501  100502
  100501  100503  100504  100505  100504  100506  100507  100508
  100507  100509  100510  100511  100510  100512  100513  100514
  100513  100515  100516  100517  100516  100518  100519  100520
  100519  100521  100522  100523  100522  100524  100525  100526
  100525  100527  100528  100529  100528  100530  100531  100532
  100531  100533  100534  100535  100534  100536  100537  100538
  100537  100539  100540  100541  100540  100542  100543  100544
  100543  100545  100546  100547  100546  100548  100549  100550
  100549  100551  100552  100553  100552  100554  100555  100556
  100555  100557  100558  100559  100558  100560  100561  100562
  100561  100563  100564  100565  100564  100566  100567  100568
  100567  100569  100570  100571  100570  100572  100573  100574
  100573  100575  100576  100577  100576  100578  100579  100580
  100579  100581  100582  100583  100582  100584  100585  100586
  100585  100587  100588  100589  100588  100590  100591  100592
  100591  100593  100594  100595  100594  100596  100597  100598
  100597  100599  100600  100601  100600  100602  100603  100604
  100603  100605  100606  100607  100606  100608  100609  100610
  100609  100611  100612  100613  100612  100614  100615  100616
  100615  100617  100618  100619  100618  100620  100621  100622
  100621  100623  100624  100625  100624  100626  100627  100628
  100627  100629  100630  100631  100630  100632  100633  100634
  100633  100635  100636  100637  100636  100638  100639  100640
  100639  100641  100642  100643  100642  100644  100645  100646
  100645  100647  100648  100649  100648  100650  100651  100652
  100651  100653  100654  100655  100654  100656  100657  100658
  100657  100659  100660  100661  100660  100662  100663  100664
  100663  100665  100666  100667  100666  100668  100669  100670
  100669  100671  100672  100673  100672  100674  100675  100676
  100675  100677  100678  100679  100678  100680  100681  100682
  100681  100683  100684  100685  100684  100686  100687  100688
  100687  100689  100690  100691  100690  100692  100693  100694
  100693  100695  100696  100697  100696  100698  100699  100700
  100699  100701  100702  100703  100702  100704  100705  100706
  100705  100707  100708  100709  100708  100710  100711  100712
  100711  100713  100714  100715  100714  100716  100717  100718
  100717  100719  100720  100721  100720  100722  100723  100724
  100723  100725  100726  100727  100726  100728  100729  100730
  100729  100731  100732  100733  100732  100734  100735  100736
  100735  100737  100738  100739  100738  100740  100741  100742
  100741  100743  100744  100745  100744  100746  100747  100748
  100747  100749  100750  100751  100750  100752  100753  100754
  100753  100755  100756  100757  100756  100758  100759  100760
  100759  100761  100762  100763  100762  100764  100765  100766
  100765  100767  100768  100769  100768  100770  100771  100772
  100771  100773  100774  100775  100774  100776  100777  100778
  100777  100779  100780  100781  100780  100782  100783  100784
  100783  100785  100786  100787  100786  100788  100789  100790
  100789  100791  100792  100793  100792  100794  100795  100796
  100795  100797  100798  100799  100798  100800  100801  100802
  100801  100803  100804  100805  100804  100806  100807  100808
  100807  100809  100810  100811  100810  100812  100813  100814
  100813  100815  100816  100817  100816  100818  100819  100820
  100819  100821  100822  100823  100822  100824  100825  100826
  100825  100827  100828  100829  100828  100830  100831  100832
  100831  100833  100834  100835  100834  100836  100837  100838
  100837  100839  100840  100841  100840  100842  100843  100844
  100843  100845  100846  100847  100846  100848  100849  100850
  100849  100851  100852  100853  100852  100854  100855  100856
  100855  100857  100858  100859  100858  100860  100861  100862
  100861  100863  100864  100865  100864  100866  100867  100868
  100867  100869  100870  100871  100870  100872  100873  100874
  100873  100875  100876  100877  100876  100878  100879  100880
  100879  100881  100882  100883  100882  100884  100885  100886
  100885  100887  100888  100889  100888  100890  100891  100892
  100891  100893  100894  100895  100894  100896  100897  100898
  100897  100899  100900  100901  100900  100902  100903  100904
  100903  100905  100906  100907  100906  100908  100909  100910
  100909  100911  100912  100913  100912  100914  100915  100916
  100915  100917  100918  100919  100918  100920  100921  100922
  100921  100923  100924  100925  100924  100926  100927  100928
  100927  100929  100930  100931  100930  100932  100933  100934
  100933  100935  100936  100937  100936  100938  100939  100940
  100939  100941  100942  100943  100942  100944  100945  100946
  100945  100947  100948  100949  100948  100950  100951  100952
  100951  100953  100954  100955  100954  100956  100957  100958
  100957  100959  100960  100961  100960  100962  100963  100964
  100963  100965  100966  100967  100966  100968  100969  100970
  100969  100971  100972  100973  100972  100974  100975  100976
  100975  100977  100978  100979  100978  100980  100981  100982
  100981  100983  100984  100985  100984  100986  100987  100988
  100987  100989  100990  100991  100990  100992  100993  100994
  100993  100995  100996  100997  100996  100998  100999  101000
  100999  101001  101002  101003  101002  101004  101005  101006
  101005  101007  101008  101009  101008  101010  101011  101012
  101011  101013  101014  101015  101014  101016  101017  101018
  101017  101019  101020  101021  101020  101022  101023  101024
  101023  101025  101026  101027  101026  101028  101029  101030
  101029  101031  101032  101033  101032  101034  101035  101036
  101035  101037  101038  101039  101038  101040  101041  101042
  101041  101043  101044  101045  101044  101046  101047  101048
  101047  101049  101050  101051  101050  101052  101053  101054
  101053  101055  101056  101057  101056  101058  101059  101060
  101059  101061  101062  101063  101062  101064  101065  101066
  101065  101067  101068  101069  101068  101070  101071  101072
  101071  101073  101074  101075  101074  101076  101077  101078
  101077  101079  101080  101081  101080  101082  101083  101084
  101083  101085  101086  101087  101086  101088  101089  101090
  101089  101091  101092  101093  101092  101094  101095  101096
  101095  101097  101098  101099  101098  101100  101101  101102
  101101  101103  101104  101105  101104  101106  101107  101108
  101107  101109  101110  101111  101110  101112  101113  101114
  101113  101115  101116  101117  101116  101118  101119  101120
  101119  101121  101122  101123  101122  101124  101125  101126
  101125  101127  101128  101129  101128  101130  101131  101132
  101131  101133  101134  101135  101134  101136  101137  101138
  101137  101139  101140  101141  101140  101142  101143  101144
  101143  101145  101146  101147  101146  101148  101149  101150
  101149  101151  101152  101153  101152  101154  101155  101156
  101155  101157  101158  101159  101158  101160  101161  101162
  101161  101163  101164  101165  101164  101166  101167  101168
  101167  101169  101170  101171  101170  101172  101173  101174
  101173  101175  101176  101177  101176  101178  101179  101180
  101179  101181  101182  101183  101182  101184  101185  101186
  101185  101187  101188  101189  101188  101190  101191  101192
  101191  101193  101194  101195  101194  101196  101197  101198
  101197  101199  101200  101201  101200  101202  101203  101204
  101203  101205  101206  101207  101206  101208  101209  101210
  101209  101211  101212  101213  101212  101214  101215  101216
  101215  101217  101218  101219  101218  101220  101221  101222
  101221  101223  101224  101225  101224  101226  101227  101228
  101227  101229  101230  101231  101230  101232  101233  101234
  101233  101235  101236  101237  101236  101238  101239  101240
  101239  101241  101242  101243  101242  101244  101245  101246
  101245  101247  101248  101249  101248  101250  101251  101252
  101251  101253  101254  101255  101254  101256  101257  101258
  101257  101259  101260  101261  101260  101262  101263  101264
  101263  101265  101266  101267  101266  101268  101269  101270
  101269  101271  101272  101273  101272  101274  101275  101276
  101275  101277  101278  101279  101278  101280  101281  101282
  101281  101283  101284  101285  101284  101286  101287  101288
  101287  101289  101290  101291  101290  101292  101293  101294
  101293  101295  101296  101297  101296  101298  101299  101300
  101299  101301  101302  101303  101302  101304  101305  101306
  101305  101307  101308  101309  101308  101310  101311  101312
  101311  101313  101314  101315  101314  101316  101317  101318
  101317  101319  101320  101321  101320  101322  101323  101324
  101323  101325  101326  101327  101326  101328  101329  101330
  101329  101331  101332  101333  101332  101334  101335  101336
  101335  101337  101338  101339  101338  101340  101341  101342
  101341  101343  101344  101345  101344  101346  101347  101348
  101347  101349  101350  101351  101350  101352  101353  101354
  101353  101355  101356  101357  101356  101358  101359  101360
  101359  101361  101362  101363  101362  101364  101365  101366
  101365  101367  101368  101369  101368  101370  101371  101372
  101371  101373  101374  101375  101374  101376  101377  101378
  101377  101379  101380  101381  101380  101382  101383  101384
  101383  101385  101386  101387  101386  101388  101389  101390
  101389  101391  101392  101393  101392  101394  101395  101396
  101395  101397  101398  101399  101398  101400  101401  101402
  101401  101403  101404  101405  101404  101406  101407  101408
  101407  101409  101410  101411  101410  101412  101413  101414
  101413  101415  101416  101417  101416  101418  101419  101420
  101419  101421  101422  101423  101422  101424  101425  101426
  101425  101427  101428  101429  101428  101430  101431  101432
  101431  101433  101434  101435  101434  101436  101437  101438
  101437  101439  101440  101441  101440  101442  101443  101444
  101443  101445  101446  101447  101446  101448  101449  101450
  101449  101451  101452  101453  101452  101454  101455  101456
  101455  101457  101458  101459  101458  101460  101461  101462
  101461  101463  101464  101465  101464  101466  101467  101468
  101467  101469  101470  101471  101470  101472  101473  101474
  101473  101475  101476  101477  101476  101478  101479  101480
  101479  101481  101482  101483  101482  101484  101485  101486
  101485  101487  101488  101489  101488  101490  101491  101492
  101491  101493  101494  101495  101494  101496  101497  101498
  101497  101499  101500  101501  101500  101502  101503  101504
  101503  101505  101506  101507  101506  101508  101509  101510
  101509  101511  101512  101513  101512  101514  101515  101516
  101515  101517  101518  101519  101518  101520  101521  101522
  101521  101523  101524  101525  101524  101526  101527  101528
  101527  101529  101530  101531  101530  101532  101533  101534
  101533  101535  101536  101537  101536  101538  101539  101540
  101539  101541  101542  101543  101542  101544  101545  101546
  101545  101547  101548  101549  101548  101550  101551  101552
  101551  101553  101554  101555  101554  101556  101557  101558
  101557  101559  101560  101561  101560  101562  101563  101564
  101563  101565  101566  101567  101566  101568  101569  101570
  101569  101571  101572  101573  101572  101574  101575  101576
  101575  101577  101578  101579  101578  101580  101581  101582
  101581  101583  101584  101585  101584  101586  101587  101588
  101587  101589  101590  101591  101590  101592  101593  101594
  101593  101595  101596  101597  101596  101598  101599  101600
  101599  101601  101602  101603  101602  101604  101605  101606
  101605  101607  101608  101609  101608  101610  101611  101612
  101611  101613  101614  101615  101614  101616  101617  101618
  101617  101619  101620  101621  101620  101622  101623  101624
  101623  101625  101626  101627  101626  101628  101629  101630
  101629  101631  101632  101633  101632  101634  101635  101636
  101635  101637  101638  101639  101638  101640  101641  101642
  101641  101643  101644  101645  101644  101646  101647  101648
  101647  101649  101650  101651  101650  101652  101653  101654
  101653  101655  101656  101657  101656  101658  101659  101660
  101659  101661  101662  101663  101662  101664  101665  101666
  101665  101667  101668  101669  101668  101670  101671  101672
  101671  101673  101674  101675  101674  101676  101677  101678
  101677  101679  101680  101681  101680  101682  101683  101684
  101683  101685  101686  101687  101686  101688  101689  101690
  101689  101691  101692  101693  101692  101694  101695  101696
  101695  101697  101698  101699  101698  101700  101701  101702
  101701  101703  101704  101705  101704  101706  101707  101708
  101707  101709  101710  101711  101710  101712  101713  101714
  101713  101715  101716  101717  101716  101718  101719  101720
  101719  101721  101722  101723  101722  101724  101725  101726
  101725  101727  101728  101729  101728  101730  101731  101732
  101731  101733  101734  101735  101734  101736  101737  101738
  101737  101739  101740  101741  101740  101742  101743  101744
  101743  101745  101746  101747  101746  101748  101749  101750
  101749  101751  101752  101753  101752  101754  101755  101756
  101755  101757  101758  101759  101758  101760  101761  101762
  101761  101763  101764  101765  101764  101766  101767  101768
  101767  101769  101770  101771  101770  101772  101773  101774
  101773  101775  101776  101777  101776  101778  101779  101780
  101779  101781  101782  101783  101782  101784  101785  101786
  101785  101787  101788  101789  101788  101790  101791  101792
  101791  101793  101794  101795  101794  101796  101797  101798
  101797  101799  101800  101801  101800  101802  101803  101804
  101803  101805  101806  101807  101806  101808  101809  101810
  101809  101811  101812  101813  101812  101814  101815  101816
  101815  101817  101818  101819  101818  101820  101821  101822
  101821  101823  101824  101825  101824  101826  101827  101828
  101827  101829  101830  101831  101830  101832  101833  101834
  101833  101835  101836  101837  101836  101838  101839  101840
  101839  101841  101842  101843  101842  101844  101845  101846
  101845  101847  101848  101849  101848  101850  101851  101852
  101851  101853  101854  101855  101854  101856  101857  101858
  101857  101859  101860  101861  101860  101862  101863  101864
  101863  101865  101866  101867  101866  101868  101869  101870
  101869  101871  101872  101873  101872  101874  101875  101876
  101875  101877  101878  101879  101878  101880  101881  101882
  101881  101883  101884  101885  101884  101886  101887  101888
  101887  101889  101890  101891  101890  101892  101893  101894
  101893  101895  101896  101897  101896  101898  101899  101900
  101899  101901  101902  101903  101902  101904  101905  101906
  101905  101907  101908  101909  101908  101910  101911  101912
  101911  101913  101914  101915  101914  101916  101917  101918
  101917  101919  101920  101921  101920  101922  101923  101924
  101923  101925  101926  101927  101926  101928  101929  101930
  101929  101931  101932  101933  101932  101934  101935  101936
  101935  101937  101938  101939  101938  101940  101941  101942
  101941  101943  101944  101945  101944  101946  101947  101948
  101947  101949  101950  101951  101950  101952  101953  101954
  101953  101955  101956  101957  101956  101958  101959  101960
  101959  101961  101962  101963  101962  101964  101965  101966
  101965  101967  101968  101969  101968  101970  101971  101972
  101971  101973  101974  101975  101974  101976  101977  101978
  101977  101979  101980  101981  101980  101982  101983  101984
  101983  101985  101986  101987  101986  101988  101989  101990
  101989  101991  101992  101993  101992  101994  101995  101996
  101995  101997  101998  101999  101998  102000  102001  102002
  102001  102003  102004  102005  102004  102006  102007  102008
  102007  102009  102010  102011  102010  102012  102013  102014
  102013  102015  102016  102017  102016  102018  102019  102020
  102019  102021  102022  102023  102022  102024  102025  102026
  102025  102027  102028  102029  102028  102030  102031  102032
  102031  102033  102034  102035  102034  102036  102037  102038
  102037  102039  102040  102041  102040  102042  102043  102044
  102043  102045  102046  102047  102046  102048  102049  102050
  102049  102051  102052  102053  102052  102054  102055  102056
  102055  102057  102058  102059  102058  102060  102061  102062
  102061  102063  102064  102065  102064  102066  102067  102068
  102067  102069  102070  102071  102070  102072  102073  102074
  102073  102075  102076  102077  102076  102078  102079  102080
  102079  102081  102082  102083  102082  102084  102085  102086
  102085  102087  102088  102089  102088  102090  102091  102092
  102091  102093  102094  102095  102094  102096  102097  102098
  102097  102099  102100  102101  102100  102102  102103  102104
  102103  102105  102106  102107  102106  102108  102109  102110
  102109  102111  102112  102113  102112  102114  102115  102116
  102115  102117  102118  102119  102118  102120  102121  102122
  102121  102123  102124  102125  102124  102126  102127  102128
  102127  102129  102130  102131  102130  102132  102133  102134
  102133  102135  102136  102137  102136  102138  102139  102140
  102139  102141  102142  102143  102142  102144  102145  102146
  102145  102147  102148  102149  102148  102150  102151  102152
  102151  102153  102154  102155  102154  102156  102157  102158
  102157  102159  102160  102161  102160  102162  102163  102164
  102163  102165  102166  102167  102166  102168  102169  102170
  102169  102171  102172  102173  102172  102174  102175  102176
  102175  102177  102178  102179  102178  102180  102181  102182
  102181  102183  102184  102185  102184  102186  102187  102188
  102187  102189  102190  102191  102190  102192  102193  102194
  102193  102195  102196  102197  102196  102198  102199  102200
  102199  102201  102202  102203  102202  102204  102205  102206
  102205  102207  102208  102209  102208  102210  102211  102212
  102211  102213  102214  102215  102214  102216  102217  102218
  102217  102219  102220  102221  102220  102222  102223  102224
  102223  102225  102226  102227  102226  102228  102229  102230
  102229  102231  102232  102233  102232  102234  102235  102236
  102235  102237  102238  102239  102238  102240  102241  102242
  102241  102243  102244  102245  102244  102246  102247  102248
  102247  102249  102250  102251  102250  102252  102253  102254
  102253  102255  102256  102257  102256  102258  102259  102260
  102259  102261  102262  102263  102262  102264  102265  102266
  102265  102267  102268  102269  102268  102270  102271  102272
  102271  102273  102274  102275  102274  102276  102277  102278
  102277  102279  102280  102281  102280  102282  102283  102284
  102283  102285  102286  102287  102286  102288  102289  102290
  102289  102291  102292  102293  102292  102294  102295  102296
  102295  102297  102298  102299  102298  102300  102301  102302
  102301  102303  102304  102305  102304  102306  102307  102308
  102307  102309  102310  102311  102310  102312  102313  102314
  102313  102315  102316  102317  102316  102318  102319  102320
  102319  102321  102322  102323  102322  102324  102325  102326
  102325  102327  102328  102329  102328  102330  102331  102332
  102331  102333  102334  102335  102334  102336  102337  102338
  102337  102339  102340  102341  102340  102342  102343  102344
  102343  102345  102346  102347  102346  102348  102349  102350
  102349  102351  102352  102353  102352  102354  102355  102356
  102355  102357  102358  102359  102358  102360  102361  102362
  102361  102363  102364  102365  102364  102366  102367  102368
  102367  102369  102370  102371  102370  102372  102373  102374
  102373  102375  102376  102377  102376  102378  102379  102380
  102379  102381  102382  102383  102382  102384  102385  102386
  102385  102387  102388  102389  102388  102390  102391  102392
  102391  102393  102394  102395  102394  102396  102397  102398
  102397  102399  102400  102401  102400  102402  102403  102404
  102403  102405  102406  102407  102406  102408  102409  102410
  102409  102411  102412  102413  102412  102414  102415  102416
  102415  102417  102418  102419  102418  102420  102421  102422
  102421  102423  102424  102425  102424  102426  102427  102428
  102427  102429  102430  102431  102430  102432  102433  102434
  102433  102435  102436  102437  102436  102438  102439  102440
  102439  102441  102442  102443  102442  102444  102445  102446
  102445  102447  102448  102449  102448  102450  102451  102452
  102451  102453  102454  102455  102454  102456  102457  102458
  102457  102459  102460  102461  102460  102462  102463  102464
  102463  102465  102466  102467  102466  102468  102469  102470
  102469  102471  102472  102473  102472  102474  102475  102476
  102475  102477  102478  102479  102478  102480  102481  102482
  102481  102483  102484  102485  102484  102486  102487  102488
  102487  102489  102490  102491  102490  102492  102493  102494
  102493  102495  102496  102497  102496  102498  102499  102500
  102499  102501  102502  102503  102502  102504  102505  102506
  102505  102507  102508  102509  102508  102510  102511  102512
  102511  102513  102514  102515  102514  102516  102517  102518
  102517  102519  102520  102521  102520  102522  102523  102524
  102523  102525  102526  102527  102526  102528  102529  102530
  102529  102531  102532  102533  102532  102534  102535  102536
  102535  102537  102538  102539  102538  102540  102541  102542
  102541  102543  102544  102545  102544  102546  102547  102548
  102547  102549  102550  102551  102550  102552  102553  102554
  102553  102555  102556  102557  102556  102558  102559  102560
  102559  102561  102562  102563  102562  102564  102565  102566
  102565  102567  102568  102569  102568  102570  102571  102572
  102571  102573  102574  102575  102574  102576  102577  102578
  102577  102579  102580  102581  102580  102582  102583  102584
  102583  102585  102586  102587  102586  102588  102589  102590
  102589  102591  102592  102593  102592  102594  102595  102596
  102595  102597  102598  102599  102598  102600  102601  102602
  102601  102603  102604  102605  102604  102606  102607  102608
  102607  102609  102610  102611  102610  102612  102613  102614
  102613  102615  102616  102617  102616  102618  102619  102620
  102619  102621  102622  102623  102622  102624  102625  102626
  102625  102627  102628  102629  102628  102630  102631  102632
  102631  102633  102634  102635  102634  102636  102637  102638
  102637  102639  102640  102641  102640  102642  102643  102644
  102643  102645  102646  102647  102646  102648  102649  102650
  102649  102651  102652  102653  102652  102654  102655  102656
  102655  102657  102658  102659  102658  102660  102661  102662
  102661  102663  102664  102665  102664  102666  102667  102668
  102667  102669  102670  102671  102670  102672  102673  102674
  102673  102675  102676  102677  102676  102678  102679  102680
  102679  102681  102682  102683  102682  102684  102685  102686
  102685  102687  102688  102689  102688  102690  102691  102692
  102691  102693  102694  102695  102694  102696  102697  102698
  102697  102699  102700  102701  102700  102702  102703  102704
  102703  102705  102706  102707  102706  102708  102709  102710
  102709  102711  102712  102713  102712  102714  102715  102716
  102715  102717  102718  102719  102718  102720  102721  102722
  102721  102723  102724  102725  102724  102726  102727  102728
  102727  102729  102730  102731  102730  102732  102733  102734
  102733  102735  102736  102737  102736  102738  102739  102740
  102739  102741  102742  102743  102742  102744  102745  102746
  102745  102747  102748  102749  102748  102750  102751  102752
  102751  102753  102754  102755  102754  102756  102757  102758
  102757  102759  102760  102761  102760  102762  102763  102764
  102763  102765  102766  102767  102766  102768  102769  102770
  102769  102771  102772  102773  102772  102774  102775  102776
  102775  102777  102778  102779  102778  102780  102781  102782
  102781  102783  102784  102785  102784  102786  102787  102788
  102787  102789  102790  102791  102790  102792  102793  102794
  102793  102795  102796  102797  102796  102798  102799  102800
  102799  102801  102802  102803  102802  102804  102805  102806
  102805  102807  102808  102809  102808  102810  102811  102812
  102811  102813  102814  102815  102814  102816  102817  102818
  102817  102819  102820  102821  102820  102822  102823  102824
  102823  102825  102826  102827  102826  102828  102829  102830
  102829  102831  102832  102833  102832  102834  102835  102836
  102835  102837  102838  102839  102838  102840  102841  102842
  102841  102843  102844  102845  102844  102846  102847  102848
  102847  102849  102850  102851  102850  102852  102853  102854
  102853  102855  102856  102857  102856  102858  102859  102860
  102859  102861  102862  102863  102862  102864  102865  102866
  102865  102867  102868  102869  102868  102870  102871  102872
  102871  102873  102874  102875  102874  102876  102877  102878
  102877  102879  102880  102881  102880  102882  102883  102884
  102883  102885  102886  102887  102886  102888  102889  102890
  102889  102891  102892  102893  102892  102894  102895  102896
  102895  102897  102898  102899  102898  102900  102901  102902
  102901  102903  102904  102905  102904  102906  102907  102908
  102907  102909  102910  102911  102910  102912  102913  102914
  102913  102915  102916  102917  102916  102918  102919  102920
  102919  102921  102922  102923  102922  102924  102925  102926
  102925  102927  102928  102929  102928  102930  102931  102932
  102931  102933  102934  102935  102934  102936  102937  102938
  102937  102939  102940  102941  102940  102942  102943  102944
  102943  102945  102946  102947  102946  102948  102949  102950
  102949  102951  102952  102953  102952  102954  102955  102956
  102955  102957  102958  102959  102958  102960  102961  102962
  102961  102963  102964  102965  102964  102966  102967  102968
  102967  102969  102970  102971  102970  102972  102973  102974
  102973  102975  102976  102977  102976  102978  102979  102980
  102979  102981  102982  102983  102982  102984  102985  102986
  102985  102987  102988  102989  102988  102990  102991  102992
  102991  102993  102994  102995  102994  102996  102997  102998
  102997  102999  103000  103001  103000  103002  103003  103004
  103003  103005  103006  103007  103006  103008  103009  103010
  103009  103011  103012  103013  103012  103014  103015  103016
  103015  103017  103018  103019  103018  103020  103021  103022
  103021  103023  103024  103025  103024  103026  103027  103028
  103027  103029  103030  103031  103030  103032  103033  103034
  103033  103035  103036  103037  103036  103038  103039  103040
  103039  103041  103042  103043  103042  103044  103045  103046
  103045  103047  103048  103049  103048  103050  103051  103052
  103051  103053  103054  103055  103054  103056  103057  103058
  103057  103059  103060  103061  103060  103062  103063  103064
  103063  103065  103066  103067  103066  103068  103069  103070
  103069  103071  103072  103073  103072  103074  103075  103076
  103075  103077  103078  103079  103078  103080  103081  103082
  103081  103083  103084  103085  103084  103086  103087  103088
  103087  103089  103090  103091  103090  103092  103093  103094
  103093  103095  103096  103097  103096  103098  103099  103100
  103099  103101  103102  103103  103102  103104  103105  103106
  103105  103107  103108  103109  103108  103110  103111  103112
  103111  103113  103114  103115  103114  103116  103117  103118
  103117  103119  103120  103121  103120  103122  103123  103124
  103123  103125  103126  103127  103126  103128  103129  103130
  103129  103131  103132  103133  103132  103134  103135  103136
  103135  103137  103138  103139  103138  103140  103141  103142
  103141  103143  103144  103145  103144  103146  103147  103148
  103147  103149  103150  103151  103150  103152  103153  103154
  103153  103155  103156  103157  103156  103158  103159  103160
  103159  103161  103162  103163  103162  103164  103165  103166
  103165  103167  103168  103169  103168  103170  103171  103172
  103171  103173  103174  103175  103174  103176  103177  103178
  103177  103179  103180  103181  103180  103182  103183  103184
  103183  103185  103186  103187  103186  103188  103189  103190
  103189  103191  103192  103193  103192  103194  103195  103196
  103195  103197  103198  103199  103198  103200  103201  103202
  103201  103203  103204  103205  103204  103206  103207  103208
  103207  103209  103210  103211  103210  103212  103213  103214
  103213  103215  103216  103217  103216  103218  103219  103220
  103219  103221  103222  103223  103222  103224  103225  103226
  103225  103227  103228  103229  103228  103230  103231  103232
  103231  103233  103234  103235  103234  103236  103237  103238
  103237  103239  103240  103241  103240  103242  103243  103244
  103243  103245  103246  103247  103246  103248  103249  103250
  103249  103251  103252  103253  103252  103254  103255  103256
  103255  103257  103258  103259  103258  103260  103261  103262
  103261  103263  103264  103265  103264  103266  103267  103268
  103267  103269  103270  103271  103270  103272  103273  103274
  103273  103275  103276  103277  103276  103278  103279  103280
  103279  103281  103282  103283  103282  103284  103285  103286
  103285  103287  103288  103289  103288  103290  103291  103292
  103291  103293  103294  103295  103294  103296  103297  103298
  103297  103299  103300  103301  103300  103302  103303  103304
  103303  103305  103306  103307  103306  103308  103309  103310
  103309  103311  103312  103313  103312  103314  103315  103316
  103315  103317  103318  103319  103318  103320  103321  103322
  103321  103323  103324  103325  103324  103326  103327  103328
  103327  103329  103330  103331  103330  103332  103333  103334
  103333  103335  103336  103337  103336  103338  103339  103340
  103339  103341  103342  103343  103342  103344  103345  103346
  103345  103347  103348  103349  103348  103350  103351  103352
  103351  103353  103354  103355  103354  103356  103357  103358
  103357  103359  103360  103361  103360  103362  103363  103364
  103363  103365  103366  103367  103366  103368  103369  103370
  103369  103371  103372  103373  103372  103374  103375  103376
  103375  103377  103378  103379  103378  103380  103381  103382
  103381  103383  103384  103385  103384  103386  103387  103388
  103387  103389  103390  103391  103390  103392  103393  103394
  103393  103395  103396  103397  103396  103398  103399  103400
  103399  103401  103402  103403  103402  103404  103405  103406
  103405  103407  103408  103409  103408  103410  103411  103412
  103411  103413  103414  103415  103414  103416  103417  103418
  103417  103419  103420  103421  103420  103422  103423  103424
  103423  103425  103426  103427  103426  103428  103429  103430
  103429  103431  103432  103433  103432  103434  103435  103436
  103435  103437  103438  103439  103438  103440  103441  103442
  103441  103443  103444  103445  103444  103446  103447  103448
  103447  103449  103450  103451  103450  103452  103453  103454
  103453  103455  103456  103457  103456  103458  103459  103460
  103459  103461  103462  103463  103462  103464  103465  103466
  103465  103467  103468  103469  103468  103470  103471  103472
  103471  103473  103474  103475  103474  103476  103477  103478
  103477  103479  103480  103481  103480  103482  103483  103484
  103483  103485  103486  103487  103486  103488  103489  103490
  103489  103491  103492  103493  103492  103494  103495  103496
  103495  103497  103498  103499  103498  103500  103501  103502
  103501  103503  103504  103505  103504  103506  103507  103508
  103507  103509  103510  103511  103510  103512  103513  103514
  103513  103515  103516  103517  103516  103518  103519  103520
  103519  103521  103522  103523  103522  103524  103525  103526
  103525  103527  103528  103529  103528  103530  103531  103532
  103531  103533  103534  103535  103534  103536  103537  103538
  103537  103539  103540  103541  103540  103542  103543  103544
  103543  103545  103546  103547  103546  103548  103549  103550
  103549  103551  103552  103553  103552  103554  103555  103556
  103555  103557  103558  103559  103558  103560  103561  103562
  103561  103563  103564  103565  103564  103566  103567  103568
  103567  103569  103570  103571  103570  103572  103573  103574
  103573  103575  103576  103577  103576  103578  103579  103580
  103579  103581  103582  103583  103582  103584  103585  103586
  103585  103587  103588  103589  103588  103590  103591  103592
  103591  103593  103594  103595  103594  103596  103597  103598
  103597  103599  103600  103601  103600  103602  103603  103604
  103603  103605  103606  103607  103606  103608  103609  103610
  103609  103611  103612  103613  103612  103614  103615  103616
  103615  103617  103618  103619  103618  103620  103621  103622
  103621  103623  103624  103625  103624  103626  103627  103628
  103627  103629  103630  103631  103630  103632  103633  103634
  103633  103635  103636  103637  103636  103638  103639  103640
  103639  103641  103642  103643  103642  103644  103645  103646
  103645  103647  103648  103649  103648  103650  103651  103652
  103651  103653  103654  103655  103654  103656  103657  103658
  103657  103659  103660  103661  103660  103662  103663  103664
  103663  103665  103666  103667  103666  103668  103669  103670
  103669  103671  103672  103673  103672  103674  103675  103676
  103675  103677  103678  103679  103678  103680  103681  103682
  103681  103683  103684  103685  103684  103686  103687  103688
  103687  103689  103690  103691  103690  103692  103693  103694
  103693  103695  103696  103697  103696  103698  103699  103700
  103699  103701  103702  103703  103702  103704  103705  103706
  103705  103707  103708  103709  103708  103710  103711  103712
  103711  103713  103714  103715  103714  103716  103717  103718
  103717  103719  103720  103721  103720  103722  103723  103724
  103723  103725  103726  103727  103726  103728  103729  103730
  103729  103731  103732  103733  103732  103734  103735  103736
  103735  103737  103738  103739  103738  103740  103741  103742
  103741  103743  103744  103745  103744  103746  103747  103748
  103747  103749  103750  103751  103750  103752  103753  103754
  103753  103755  103756  103757  103756  103758  103759  103760
  103759  103761  103762  103763  103762  103764  103765  103766
  103765  103767  103768  103769  103768  103770  103771  103772
  103771  103773  103774  103775  103774  103776  103777  103778
  103777  103779  103780  103781  103780  103782  103783  103784
  103783  103785  103786  103787  103786  103788  103789  103790
  103789  103791  103792  103793  103792  103794  103795  103796
  103795  103797  103798  103799  103798  103800  103801  103802
  103801  103803  103804  103805  103804  103806  103807  103808
  103807  103809  103810  103811  103810  103812  103813  103814
  103813  103815  103816  103817  103816  103818  103819  103820
  103819  103821  103822  103823  103822  103824  103825  103826
  103825  103827  103828  103829  103828  103830  103831  103832
  103831  103833  103834  103835  103834  103836  103837  103838
  103837  103839  103840  103841  103840  103842  103843  103844
  103843  103845  103846  103847  103846  103848  103849  103850
  103849  103851  103852  103853  103852  103854  103855  103856
  103855  103857  103858  103859  103858  103860  103861  103862
  103861  103863  103864  103865  103864  103866  103867  103868
  103867  103869  103870  103871  103870  103872  103873  103874
  103873  103875  103876  103877  103876  103878  103879  103880
  103879  103881  103882  103883  103882  103884  103885  103886
  103885  103887  103888  103889  103888  103890  103891  103892
  103891  103893  103894  103895  103894  103896  103897  103898
  103897  103899  103900  103901  103900  103902  103903  103904
  103903  103905  103906  103907  103906  103908  103909  103910
  103909  103911  103912  103913  103912  103914  103915  103916
  103915  103917  103918  103919  103918  103920  103921  103922
  103921  103923  103924  103925  103924  103926  103927  103928
  103927  103929  103930  103931  103930  103932  103933  103934
  103933  103935  103936  103937  103936  103938  103939  103940
  103939  103941  103942  103943  103942  103944  103945  103946
  103945  103947  103948  103949  103948  103950  103951  103952
  103951  103953  103954  103955  103954  103956  103957  103958
  103957  103959  103960  103961  103960  103962  103963  103964
  103963  103965  103966  103967  103966  103968  103969  103970
  103969  103971  103972  103973  103972  103974  103975  103976
  103975  103977  103978  103979  103978  103980  103981  103982
  103981  103983  103984  103985  103984  103986  103987  103988
  103987  103989  103990  103991  103990  103992  103993  103994
  103993  103995  103996  103997  103996  103998  103999  104000
  103999  104001  104002  104003  104002  104004  104005  104006
  104005  104007  104008  104009  104008  104010  104011  104012
  104011  104013  104014  104015  104014  104016  104017  104018
  104017  104019  104020  104021  104020  104022  104023  104024
  104023  104025  104026  104027  104026  104028  104029  104030
  104029  104031  104032  104033  104032  104034  104035  104036
  104035  104037  104038  104039  104038  104040  104041  104042
  104041  104043  104044  104045  104044  104046  104047  104048
  104047  104049  104050  104051  104050  104052  104053  104054
  104053  104055  104056  104057  104056  104058  104059  104060
  104059  104061  104062  104063  104062  104064  104065  104066
  104065  104067  104068  104069  104068  104070  104071  104072
  104071  104073  104074  104075  104074  104076  104077  104078
  104077  104079  104080  104081  104080  104082  104083  104084
  104083  104085  104086  104087  104086  104088  104089  104090
  104089  104091  104092  104093  104092  104094  104095  104096
  104095  104097  104098  104099  104098  104100  104101  104102
  104101  104103  104104  104105  104104  104106  104107  104108
  104107  104109  104110  104111  104110  104112  104113  104114
  104113  104115  104116  104117  104116  104118  104119  104120
  104119  104121  104122  104123  104122  104124  104125  104126
  104125  104127  104128  104129  104128  104130  104131  104132
  104131  104133  104134  104135  104134  104136  104137  104138
  104137  104139  104140  104141  104140  104142  104143  104144
  104143  104145  104146  104147  104146  104148  104149  104150
  104149  104151  104152  104153  104152  104154  104155  104156
  104155  104157  104158  104159  104158  104160  104161  104162
  104161  104163  104164  104165  104164  104166  104167  104168
  104167  104169  104170  104171  104170  104172  104173  104174
  104173  104175  104176  104177  104176  104178  104179  104180
  104179  104181  104182  104183  104182  104184  104185  104186
  104185  104187  104188  104189  104188  104190  104191  104192
  104191  104193  104194  104195  104194  104196  104197  104198
  104197  104199  104200  104201  104200  104202  104203  104204
  104203  104205  104206  104207  104206  104208  104209  104210
  104209  104211  104212  104213  104212  104214  104215  104216
  104215  104217  104218  104219  104218  104220  104221  104222
  104221  104223  104224  104225  104224  104226  104227  104228
  104227  104229  104230  104231  104230  104232  104233  104234
  104233  104235  104236  104237  104236  104238  104239  104240
  104239  104241  104242  104243  104242  104244  104245  104246
  104245  104247  104248  104249  104248  104250  104251  104252
  104251  104253  104254  104255  104254  104256  104257  104258
  104257  104259  104260  104261  104260  104262  104263  104264
  104263  104265  104266  104267  104266  104268  104269  104270
  104269  104271  104272  104273  104272  104274  104275  104276
  104275  104277  104278  104279  104278  104280  104281  104282
  104281  104283  104284  104285  104284  104286  104287  104288
  104287  104289  104290  104291  104290  104292  104293  104294
  104293  104295  104296  104297  104296  104298  104299  104300
  104299  104301  104302  104303  104302  104304  104305  104306
  104305  104307  104308  104309  104308  104310  104311  104312
  104311  104313  104314  104315  104314  104316  104317  104318
  104317  104319  104320  104321  104320  104322  104323  104324
  104323  104325  104326  104327  104326  104328  104329  104330
  104329  104331  104332  104333  104332  104334  104335  104336
  104335  104337  104338  104339  104338  104340  104341  104342
  104341  104343  104344  104345  104344  104346  104347  104348
  104347  104349  104350  104351  104350  104352  104353  104354
  104353  104355  104356  104357  104356  104358  104359  104360
  104359  104361  104362  104363  104362  104364  104365  104366
  104365  104367  104368  104369  104368  104370  104371  104372
  104371  104373  104374  104375  104374  104376  104377  104378
  104377  104379  104380  104381  104380  104382  104383  104384
  104383  104385  104386  104387  104386  104388  104389  104390
  104389  104391  104392  104393  104392  104394  104395  104396
  104395  104397  104398  104399  104398  104400  104401  104402
  104401  104403  104404  104405  104404  104406  104407  104408
  104407  104409  104410  104411  104410  104412  104413  104414
  104413  104415  104416  104417  104416  104418  104419  104420
  104419  104421  104422  104423  104422  104424  104425  104426
  104425  104427  104428  104429  104428  104430  104431  104432
  104431  104433  104434  104435  104434  104436  104437  104438
  104437  104439  104440  104441  104440  104442  104443  104444
  104443  104445  104446  104447  104446  104448  104449  104450
  104449  104451  104452  104453  104452  104454  104455  104456
  104455  104457  104458  104459  104458  104460  104461  104462
  104461  104463  104464  104465  104464  104466  104467  104468
  104467  104469  104470  104471  104470  104472  104473  104474
  104473  104475  104476  104477  104476  104478  104479  104480
  104479  104481  104482  104483  104482  104484  104485  104486
  104485  104487  104488  104489  104488  104490  104491  104492
  104491  104493  104494  104495  104494  104496  104497  104498
  104497  104499  104500  104501  104500  104502  104503  104504
  104503  104505  104506  104507  104506  104508  104509  104510
  104509  104511  104512  104513  104512  104514  104515  104516
  104515  104517  104518  104519  104518  104520  104521  104522
  104521  104523  104524  104525  104524  104526  104527  104528
  104527  104529  104530  104531  104530  104532  104533  104534
  104533  104535  104536  104537  104536  104538  104539  104540
  104539  104541  104542  104543  104542  104544  104545  104546
  104545  104547  104548  104549  104548  104550  104551  104552
  104551  104553  104554  104555  104554  104556  104557  104558
  104557  104559  104560  104561  104560  104562  104563  104564
  104563  104565  104566  104567  104566  104568  104569  104570
  104569  104571  104572  104573  104572  104574  104575  104576
  104575  104577  104578  104579  104578  104580  104581  104582
  104581  104583  104584  104585  104584  104586  104587  104588
  104587  104589  104590  104591  104590  104592  104593  104594
  104593  104595  104596  104597  104596  104598  104599  104600
  104599  104601  104602  104603  104602  104604  104605  104606
  104605  104607  104608  104609  104608  104610  104611  104612
  104611  104613  104614  104615  104614  104616  104617  104618
  104617  104619  104620  104621  104620  104622  104623  104624
  104623  104625  104626  104627  104626  104628  104629  104630
  104629  104631  104632  104633  104632  104634  104635  104636
  104635  104637  104638  104639  104638  104640  104641  104642
  104641  104643  104644  104645  104644  104646  104647  104648
  104647  104649  104650  104651  104650  104652  104653  104654
  104653  104655  104656  104657  104656  104658  104659  104660
  104659  104661  104662  104663  104662  104664  104665  104666
  104665  104667  104668  104669  104668  104670  104671  104672
  104671  104673  104674  104675  104674  104676  104677  104678
  104677  104679  104680  104681  104680  104682  104683  104684
  104683  104685  104686  104687  104686  104688  104689  104690
  104689  104691  104692  104693  104692  104694  104695  104696
  104695  104697  104698  104699  104698  104700  104701  104702
  104701  104703  104704  104705  104704  104706  104707  104708
  104707  104709  104710  104711  104710  104712  104713  104714
  104713  104715  104716  104717  104716  104718  104719  104720
  104719  104721  104722  104723  104722  104724  104725  104726
  104725  104727  104728  104729  104728  104730  104731  104732
  104731  104733  104734  104735  104734  104736  104737  104738
  104737  104739  104740  104741  104740  104742  104743  104744
  104743  104745  104746  104747  104746  104748  104749  104750
  104749  104751  104752  104753  104752  104754  104755  104756
  104755  104757  104758  104759  104758  104760  104761  104762
  104761  104763  104764  104765  104764  104766  104767  104768
  104767  104769  104770  104771  104770  104772  104773  104774
  104773  104775  104776  104777  104776  104778  104779  104780
  104779  104781  104782  104783  104782  104784  104785  104786
  104785  104787  104788  104789  104788  104790  104791  104792
  104791  104793  104794  104795  104794  104796  104797  104798
  104797  104799  104800  104801  104800  104802  104803  104804
  104803  104805  104806  104807  104806  104808  104809  104810
  104809  104811  104812  104813  104812  104814  104815  104816
  104815  104817  104818  104819  104818  104820  104821  104822
  104821  104823  104824  104825  104824  104826  104827  104828
  104827  104829  104830  104831  104830  104832  104833  104834
  104833  104835  104836  104837  104836  104838  104839  104840
  104839  104841  104842  104843  104842  104844  104845  104846
  104845  104847  104848  104849  104848  104850  104851  104852
  104851  104853  104854  104855  104854  104856  104857  104858
  104857  104859  104860  104861  104860  104862  104863  104864
  104863  104865  104866  104867  104866  104868  104869  104870
  104869  104871  104872  104873  104872  104874  104875  104876
  104875  104877  104878  104879  104878  104880  104881  104882
  104881  104883  104884  104885  104884  104886  104887  104888
  104887  104889  104890  104891  104890  104892  104893  104894
  104893  104895  104896  104897  104896  104898  104899  104900
  104899  104901  104902  104903  104902  104904  104905  104906
  104905  104907  104908  104909  104908  104910  104911  104912
  104911  104913  104914  104915  104914  104916  104917  104918
  104917  104919  104920  104921  104920  104922  104923  104924
  104923  104925  104926  104927  104926  104928  104929  104930
  104929  104931  104932  104933  104932  104934  104935  104936
  104935  104937  104938  104939  104938  104940  104941  104942
  104941  104943  104944  104945  104944  104946  104947  104948
  104947  104949  104950  104951  104950  104952  104953  104954
  104953  104955  104956  104957  104956  104958  104959  104960
  104959  104961  104962  104963  104962  104964  104965  104966
  104965  104967  104968  104969  104968  104970  104971  104972
  104971  104973  104974  104975  104974  104976  104977  104978
  104977  104979  104980  104981  104980  104982  104983  104984
  104983  104985  104986  104987  104986  104988  104989  104990
  104989  104991  104992  104993  104992  104994  104995  104996
  104995  104997  104998  104999  104998  105000  105001  105002
  105001  105003  105004  105005  105004  105006  105007  105008
  105007  105009  105010  105011  105010  105012  105013  105014
  105013  105015  105016  105017  105016  105018  105019  105020
  105019  105021  105022  105023  105022  105024  105025  105026
  105025  105027  105028  105029  105028  105030  105031  105032
  105031  105033  105034  105035  105034  105036  105037  105038
  105037  105039  105040  105041  105040  105042  105043  105044
  105043  105045  105046  105047  105046  105048  105049  105050
  105049  105051  105052  105053  105052  105054  105055  105056
  105055  105057  105058  105059  105058  105060  105061  105062
  105061  105063  105064  105065  105064  105066  105067  105068
  105067  105069  105070  105071  105070  105072  105073  105074
  105073  105075  105076  105077  105076  105078  105079  105080
  105079  105081  105082  105083  105082  105084  105085  105086
  105085  105087  105088  105089  105088  105090  105091  105092
  105091  105093  105094  105095  105094  105096  105097  105098
  105097  105099  105100  105101  105100  105102  105103  105104
  105103  105105  105106  105107  105106  105108  105109  105110
  105109  105111  105112  105113  105112  105114  105115  105116
  105115  105117  105118  105119  105118  105120  105121  105122
  105121  105123  105124  105125  105124  105126  105127  105128
  105127  105129  105130  105131  105130  105132  105133  105134
  105133  105135  105136  105137  105136  105138  105139  105140
  105139  105141  105142  105143  105142  105144  105145  105146
  105145  105147  105148  105149  105148  105150  105151  105152
  105151  105153  105154  105155  105154  105156  105157  105158
  105157  105159  105160  105161  105160  105162  105163  105164
  105163  105165  105166  105167  105166  105168  105169  105170
  105169  105171  105172  105173  105172  105174  105175  105176
  105175  105177  105178  105179  105178  105180  105181  105182
  105181  105183  105184  105185  105184  105186  105187  105188
  105187  105189  105190  105191  105190  105192  105193  105194
  105193  105195  105196  105197  105196  105198  105199  105200
  105199  105201  105202  105203  105202  105204  105205  105206
  105205  105207  105208  105209  105208  105210  105211  105212
  105211  105213  105214  105215  105214  105216  105217  105218
  105217  105219  105220  105221  105220  105222  105223  105224
  105223  105225  105226  105227  105226  105228  105229  105230
  105229  105231  105232  105233  105232  105234  105235  105236
  105235  105237  105238  105239  105238  105240  105241  105242
  105241  105243  105244  105245  105244  105246  105247  105248
  105247  105249  105250  105251  105250  105252  105253  105254
  105253  105255  105256  105257  105256  105258  105259  105260
  105259  105261  105262  105263  105262  105264  105265  105266
  105265  105267  105268  105269  105268  105270  105271  105272
  105271  105273  105274  105275  105274  105276  105277  105278
  105277  105279  105280  105281  105280  105282  105283  105284
  105283  105285  105286  105287  105286  105288  105289  105290
  105289  105291  105292  105293  105292  105294  105295  105296
  105295  105297  105298  105299  105298  105300  105301  105302
  105301  105303  105304  105305  105304  105306  105307  105308
  105307  105309  105310  105311  105310  105312  105313  105314
  105313  105315  105316  105317  105316  105318  105319  105320
  105319  105321  105322  105323  105322  105324  105325  105326
  105325  105327  105328  105329  105328  105330  105331  105332
  105331  105333  105334  105335  105334  105336  105337  105338
  105337  105339  105340  105341  105340  105342  105343  105344
  105343  105345  105346  105347  105346  105348  105349  105350
  105349  105351  105352  105353  105352  105354  105355  105356
  105355  105357  105358  105359  105358  105360  105361  105362
  105361  105363  105364  105365  105364  105366  105367  105368
  105367  105369  105370  105371  105370  105372  105373  105374
  105373  105375  105376  105377  105376  105378  105379  105380
  105379  105381  105382  105383  105382  105384  105385  105386
  105385  105387  105388  105389  105388  105390  105391  105392
  105391  105393  105394  105395  105394  105396  105397  105398
  105397  105399  105400  105401  105400  105402  105403  105404
  105403  105405  105406  105407  105406  105408  105409  105410
  105409  105411  105412  105413  105412  105414  105415  105416
  105415  105417  105418  105419  105418  105420  105421  105422
  105421  105423  105424  105425  105424  105426  105427  105428
  105427  105429  105430  105431  105430  105432  105433  105434
  105433  105435  105436  105437  105436  105438  105439  105440
  105439  105441  105442  105443  105442  105444  105445  105446
  105445  105447  105448  105449  105448  105450  105451  105452
  105451  105453  105454  105455  105454  105456  105457  105458
  105457  105459  105460  105461  105460  105462  105463  105464
  105463  105465  105466  105467  105466  105468  105469  105470
  105469  105471  105472  105473  105472  105474  105475  105476
  105475  105477  105478  105479  105478  105480  105481  105482
  105481  105483  105484  105485  105484  105486  105487  105488
  105487  105489  105490  105491  105490  105492  105493  105494
  105493  105495  105496  105497  105496  105498  105499  105500
  105499  105501  105502  105503  105502  105504  105505  105506
  105505  105507  105508  105509  105508  105510  105511  105512
  105511  105513  105514  105515  105514  105516  105517  105518
  105517  105519  105520  105521  105520  105522  105523  105524
  105523  105525  105526  105527  105526  105528  105529  105530
  105529  105531  105532  105533  105532  105534  105535  105536
  105535  105537  105538  105539  105538  105540  105541  105542
  105541  105543  105544  105545  105544  105546  105547  105548
  105547  105549  105550  105551  105550  105552  105553  105554
  105553  105555  105556  105557  105556  105558  105559  105560
  105559  105561  105562  105563  105562  105564  105565  105566
  105565  105567  105568  105569  105568  105570  105571  105572
  105571  105573  105574  105575  105574  105576  105577  105578
  105577  105579  105580  105581  105580  105582  105583  105584
  105583  105585  105586  105587  105586  105588  105589  105590
  105589  105591  105592  105593  105592  105594  105595  105596
  105595  105597  105598  105599  105598  105600  105601  105602
  105601  105603  105604  105605  105604  105606  105607  105608
  105607  105609  105610  105611  105610  105612  105613  105614
  105613  105615  105616  105617  105616  105618  105619  105620
  105619  105621  105622  105623  105622  105624  105625  105626
  105625  105627  105628  105629  105628  105630  105631  105632
  105631  105633  105634  105635  105634  105636  105637  105638
  105637  105639  105640  105641  105640  105642  105643  105644
  105643  105645  105646  105647  105646  105648  105649  105650
  105649  105651  105652  105653  105652  105654  105655  105656
  105655  105657  105658  105659  105658  105660  105661  105662
  105661  105663  105664  105665  105664  105666  105667  105668
  105667  105669  105670  105671  105670  105672  105673  105674
  105673  105675  105676  105677  105676  105678  105679  105680
  105679  105681  105682  105683  105682  105684  105685  105686
  105685  105687  105688  105689  105688  105690  105691  105692
  105691  105693  105694  105695  105694  105696  105697  105698
  105697  105699  105700  105701  105700  105702  105703  105704
  105703  105705  105706  105707  105706  105708  105709  105710
  105709  105711  105712  105713  105712  105714  105715  105716
  105715  105717  105718  105719  105718  105720  105721  105722
  105721  105723  105724  105725  105724  105726  105727  105728
  105727  105729  105730  105731  105730  105732  105733  105734
  105733  105735  105736  105737  105736  105738  105739  105740
  105739  105741  105742  105743  105742  105744  105745  105746
  105745  105747  105748  105749  105748  105750  105751  105752
  105751  105753  105754  105755  105754  105756  105757  105758
  105757  105759  105760  105761  105760  105762  105763  105764
  105763  105765  105766  105767  105766  105768  105769  105770
  105769  105771  105772  105773  105772  105774  105775  105776
  105775  105777  105778  105779  105778  105780  105781  105782
  105781  105783  105784  105785  105784  105786  105787  105788
  105787  105789  105790  105791  105790  105792  105793  105794
  105793  105795  105796  105797  105796  105798  105799  105800
  105799  105801  105802  105803  105802  105804  105805  105806
  105805  105807  105808  105809  105808  105810  105811  105812
  105811  105813  105814  105815  105814  105816  105817  105818
  105817  105819  105820  105821  105820  105822  105823  105824
  105823  105825  105826  105827  105826  105828  105829  105830
  105829  105831  105832  105833  105832  105834  105835  105836
  105835  105837  105838  105839  105838  105840  105841  105842
  105841  105843  105844  105845  105844  105846  105847  105848
  105847  105849  105850  105851  105850  105852  105853  105854
  105853  105855  105856  105857  105856  105858  105859  105860
  105859  105861  105862  105863  105862  105864  105865  105866
  105865  105867  105868  105869  105868  105870  105871  105872
  105871  105873  105874  105875  105874  105876  105877  105878
  105877  105879  105880  105881  105880  105882  105883  105884
  105883  105885  105886  105887  105886  105888  105889  105890
  105889  105891  105892  105893  105892  105894  105895  105896
  105895  105897  105898  105899  105898  105900  105901  105902
  105901  105903  105904  105905  105904  105906  105907  105908
  105907  105909  105910  105911  105910  105912  105913  105914
  105913  105915  105916  105917  105916  105918  105919  105920
  105919  105921  105922  105923  105922  105924  105925  105926
  105925  105927  105928  105929  105928  105930  105931  105932
  105931  105933  105934  105935  105934  105936  105937  105938
  105937  105939  105940  105941  105940  105942  105943  105944
  105943  105945  105946  105947  105946  105948  105949  105950
  105949  105951  105952  105953  105952  105954  105955  105956
  105955  105957  105958  105959  105958  105960  105961  105962
  105961  105963  105964  105965  105964  105966  105967  105968
  105967  105969  105970  105971  105970  105972  105973  105974
  105973  105975  105976  105977  105976  105978  105979  105980
  105979  105981  105982  105983  105982  105984  105985  105986
  105985  105987  105988  105989  105988  105990  105991  105992
  105991  105993  105994  105995  105994  105996  105997  105998
  105997  105999  106000  106001  106000  106002  106003  106004
  106003  106005  106006  106007  106006  106008  106009  106010
  106009  106011  106012  106013  106012  106014  106015  106016
  106015  106017  106018  106019  106018  106020  106021  106022
  106021  106023  106024  106025  106024  106026  106027  106028
  106027  106029  106030  106031  106030  106032  106033  106034
  106033  106035  106036  106037  106036  106038  106039  106040
  106039  106041  106042  106043  106042  106044  106045  106046
  106045  106047  106048  106049  106048  106050  106051  106052
  106051  106053  106054  106055  106054  106056  106057  106058
  106057  106059  106060  106061  106060  106062  106063  106064
  106063  106065  106066  106067  106066  106068  106069  106070
  106069  106071  106072  106073  106072  106074  106075  106076
  106075  106077  106078  106079  106078  106080  106081  106082
  106081  106083  106084  106085  106084  106086  106087  106088
  106087  106089  106090  106091  106090  106092  106093  106094
  106093  106095  106096  106097  106096  106098  106099  106100
  106099  106101  106102  106103  106102  106104  106105  106106
  106105  106107  106108  106109  106108  106110  106111  106112
  106111  106113  106114  106115  106114  106116  106117  106118
  106117  106119  106120  106121  106120  106122  106123  106124
  106123  106125  106126  106127  106126  106128  106129  106130
  106129  106131  106132  106133  106132  106134  106135  106136
  106135  106137  106138  106139  106138  106140  106141  106142
  106141  106143  106144  106145  106144  106146  106147  106148
  106147  106149  106150  106151  106150  106152  106153  106154
  106153  106155  106156  106157  106156  106158  106159  106160
  106159  106161  106162  106163  106162  106164  106165  106166
  106165  106167  106168  106169  106168  106170  106171  106172
  106171  106173  106174  106175  106174  106176  106177  106178
  106177  106179  106180  106181  106180  106182  106183  106184
  106183  106185  106186  106187  106186  106188  106189  106190
  106189  106191  106192  106193  106192  106194  106195  106196
  106195  106197  106198  106199  106198  106200  106201  106202
  106201  106203  106204  106205  106204  106206  106207  106208
  106207  106209  106210  106211  106210  106212  106213  106214
  106213  106215  106216  106217  106216  106218  106219  106220
  106219  106221  106222  106223  106222  106224  106225  106226
  106225  106227  106228  106229  106228  106230  106231  106232
  106231  106233  106234  106235  106234  106236  106237  106238
  106237  106239  106240  106241  106240  106242  106243  106244
  106243  106245  106246  106247  106246  106248  106249  106250
  106249  106251  106252  106253  106252  106254  106255  106256
  106255  106257  106258  106259  106258  106260  106261  106262
  106261  106263  106264  106265  106264  106266  106267  106268
  106267  106269  106270  106271  106270  106272  106273  106274
  106273  106275  106276  106277  106276  106278  106279  106280
  106279  106281  106282  106283  106282  106284  106285  106286
  106285  106287  106288  106289  106288  106290  106291  106292
  106291  106293  106294  106295  106294  106296  106297  106298
  106297  106299  106300  106301  106300  106302  106303  106304
  106303  106305  106306  106307  106306  106308  106309  106310
  106309  106311  106312  106313  106312  106314  106315  106316
  106315  106317  106318  106319  106318  106320  106321  106322
  106321  106323  106324  106325  106324  106326  106327  106328
  106327  106329  106330  106331  106330  106332  106333  106334
  106333  106335  106336  106337  106336  106338  106339  106340
  106339  106341  106342  106343  106342  106344  106345  106346
  106345  106347  106348  106349  106348  106350  106351  106352
  106351  106353  106354  106355  106354  106356  106357  106358
  106357  106359  106360  106361  106360  106362  106363  106364
  106363  106365  106366  106367  106366  106368  106369  106370
  106369  106371  106372  106373  106372  106374  106375  106376
  106375  106377  106378  106379  106378  106380  106381  106382
  106381  106383  106384  106385  106384  106386  106387  106388
  106387  106389  106390  106391  106390  106392  106393  106394
  106393  106395  106396  106397  106396  106398  106399  106400
  106399  106401  106402  106403  106402  106404  106405  106406
  106405  106407  106408  106409  106408  106410  106411  106412
  106411  106413  106414  106415  106414  106416  106417  106418
  106417  106419  106420  106421  106420  106422  106423  106424
  106423  106425  106426  106427  106426  106428  106429  106430
  106429  106431  106432  106433  106432  106434  106435  106436
  106435  106437  106438  106439  106438  106440  106441  106442
  106441  106443  106444  106445  106444  106446  106447  106448
  106447  106449  106450  106451  106450  106452  106453  106454
  106453  106455  106456  106457  106456  106458  106459  106460
  106459  106461  106462  106463  106462  106464  106465  106466
  106465  106467  106468  106469  106468  106470  106471  106472
  106471  106473  106474  106475  106474  106476  106477  106478
  106477  106479  106480  106481  106480  106482  106483  106484
  106483  106485  106486  106487  106486  106488  106489  106490
  106489  106491  106492  106493  106492  106494  106495  106496
  106495  106497  106498  106499  106498  106500  106501  106502
  106501  106503  106504  106505  106504  106506  106507  106508
  106507  106509  106510  106511  106510  106512  106513  106514
  106513  106515  106516  106517  106516  106518  106519  106520
  106519  106521  106522  106523  106522  106524  106525  106526
  106525  106527  106528  106529  106528  106530  106531  106532
  106531  106533  106534  106535  106534  106536  106537  106538
  106537  106539  106540  106541  106540  106542  106543  106544
  106543  106545  106546  106547  106546  106548  106549  106550
  106549  106551  106552  106553  106552  106554  106555  106556
  106555  106557  106558  106559  106558  106560  106561  106562
  106561  106563  106564  106565  106564  106566  106567  106568
  106567  106569  106570  106571  106570  106572  106573  106574
  106573  106575  106576  106577  106576  106578  106579  106580
  106579  106581  106582  106583  106582  106584  106585  106586
  106585  106587  106588  106589  106588  106590  106591  106592
  106591  106593  106594  106595  106594  106596  106597  106598
  106597  106599  106600  106601  106600  106602  106603  106604
  106603  106605  106606  106607  106606  106608  106609  106610
  106609  106611  106612  106613  106612  106614  106615  106616
  106615  106617  106618  106619  106618  106620  106621  106622
  106621  106623  106624  106625  106624  106626  106627  106628
  106627  106629  106630  106631  106630  106632  106633  106634
  106633  106635  106636  106637  106636  106638  106639  106640
  106639  106641  106642  106643  106642  106644  106645  106646
  106645  106647  106648  106649  106648  106650  106651  106652
  106651  106653  106654  106655  106654  106656  106657  106658
  106657  106659  106660  106661  106660  106662  106663  106664
  106663  106665  106666  106667  106666  106668  106669  106670
  106669  106671  106672  106673  106672  106674  106675  106676
  106675  106677  106678  106679  106678  106680  106681  106682
  106681  106683  106684  106685  106684  106686  106687  106688
  106687  106689  106690  106691  106690  106692  106693  106694
  106693  106695  106696  106697  106696  106698  106699  106700
  106699  106701  106702  106703  106702  106704  106705  106706
  106705  106707  106708  106709  106708  106710  106711  106712
  106711  106713  106714  106715  106714  106716  106717  106718
  106717  106719  106720  106721  106720  106722  106723  106724
  106723  106725  106726  106727  106726  106728  106729  106730
  106729  106731  106732  106733  106732  106734  106735  106736
  106735  106737  106738  106739  106738  106740  106741  106742
  106741  106743  106744  106745  106744  106746  106747  106748
  106747  106749  106750  106751  106750  106752  106753  106754
  106753  106755  106756  106757  106756  106758  106759  106760
  106759  106761  106762  106763  106762  106764  106765  106766
  106765  106767  106768  106769  106768  106770  106771  106772
  106771  106773  106774  106775  106774  106776  106777  106778
  106777  106779  106780  106781  106780  106782  106783  106784
  106783  106785  106786  106787  106786  106788  106789  106790
  106789  106791  106792  106793  106792  106794  106795  106796
  106795  106797  106798  106799  106798  106800  106801  106802
  106801  106803  106804  106805  106804  106806  106807  106808
  106807  106809  106810  106811  106810  106812  106813  106814
  106813  106815  106816  106817  106816  106818  106819  106820
  106819  106821  106822  106823  106822  106824  106825  106826
  106825  106827  106828  106829  106828  106830  106831  106832
  106831  106833  106834  106835  106834  106836  106837  106838
  106837  106839  106840  106841  106840  106842  106843  106844
  106843  106845  106846  106847  106846  106848  106849  106850
  106849  106851  106852  106853  106852  106854  106855  106856
  106855  106857  106858  106859  106858  106860  106861  106862
  106861  106863  106864  106865  106864  106866  106867  106868
  106867  106869  106870  106871  106870  106872  106873  106874
  106873  106875  106876  106877  106876  106878  106879  106880
  106879  106881  106882  106883  106882  106884  106885  106886
  106885  106887  106888  106889  106888  106890  106891  106892
  106891  106893  106894  106895  106894  106896  106897  106898
  106897  106899  106900  106901  106900  106902  106903  106904
  106903  106905  106906  106907  106906  106908  106909  106910
  106909  106911  106912  106913  106912  106914  106915  106916
  106915  106917  106918  106919  106918  106920  106921  106922
  106921  106923  106924  106925  106924  106926  106927  106928
  106927  106929  106930  106931  106930  106932  106933  106934
  106933  106935  106936  106937  106936  106938  106939  106940
  106939  106941  106942  106943  106942  106944  106945  106946
  106945  106947  106948  106949  106948  106950  106951  106952
  106951  106953  106954  106955  106954  106956  106957  106958
  106957  106959  106960  106961  106960  106962  106963  106964
  106963  106965  106966  106967  106966  106968  106969  106970
  106969  106971  106972  106973  106972  106974  106975  106976
  106975  106977  106978  106979  106978  106980  106981  106982
  106981  106983  106984  106985  106984  106986  106987  106988
  106987  106989  106990  106991  106990  106992  106993  106994
  106993  106995  106996  106997  106996  106998  106999  107000
  106999  107001  107002  107003  107002  107004  107005  107006
  107005  107007  107008  107009  107008  107010  107011  107012
  107011  107013  107014  107015  107014  107016  107017  107018
  107017  107019  107020  107021  107020  107022  107023  107024
  107023  107025  107026  107027  107026  107028  107029  107030
  107029  107031  107032  107033  107032  107034  107035  107036
  107035  107037  107038  107039  107038  107040  107041  107042
  107041  107043  107044  107045  107044  107046  107047  107048
  107047  107049  107050  107051  107050  107052  107053  107054
  107053  107055  107056  107057  107056  107058  107059  107060
  107059  107061  107062  107063  107062  107064  107065  107066
  107065  107067  107068  107069  107068  107070  107071  107072
  107071  107073  107074  107075  107074  107076  107077  107078
  107077  107079  107080  107081  107080  107082  107083  107084
  107083  107085  107086  107087  107086  107088  107089  107090
  107089  107091  107092  107093  107092  107094  107095  107096
  107095  107097  107098  107099  107098  107100  107101  107102
  107101  107103  107104  107105  107104  107106  107107  107108
  107107  107109  107110  107111  107110  107112  107113  107114
  107113  107115  107116  107117  107116  107118  107119  107120
  107119  107121  107122  107123  107122  107124  107125  107126
  107125  107127  107128  107129  107128  107130  107131  107132
  107131  107133  107134  107135  107134  107136  107137  107138
  107137  107139  107140  107141  107140  107142  107143  107144
  107143  107145  107146  107147  107146  107148  107149  107150
  107149  107151  107152  107153  107152  107154  107155  107156
  107155  107157  107158  107159  107158  107160  107161  107162
  107161  107163  107164  107165  107164  107166  107167  107168
  107167  107169  107170  107171  107170  107172  107173  107174
  107173  107175  107176  107177  107176  107178  107179  107180
  107179  107181  107182  107183  107182  107184  107185  107186
  107185  107187  107188  107189  107188  107190  107191  107192
  107191  107193  107194  107195  107194  107196  107197  107198
  107197  107199  107200  107201  107200  107202  107203  107204
  107203  107205  107206  107207  107206  107208  107209  107210
  107209  107211  107212  107213  107212  107214  107215  107216
  107215  107217  107218  107219  107218  107220  107221  107222
  107221  107223  107224  107225  107224  107226  107227  107228
  107227  107229  107230  107231  107230  107232  107233  107234
  107233  107235  107236  107237  107236  107238  107239  107240
  107239  107241  107242  107243  107242  107244  107245  107246
  107245  107247  107248  107249  107248  107250  107251  107252
  107251  107253  107254  107255  107254  107256  107257  107258
  107257  107259  107260  107261  107260  107262  107263  107264
  107263  107265  107266  107267  107266  107268  107269  107270
  107269  107271  107272  107273  107272  107274  107275  107276
  107275  107277  107278  107279  107278  107280  107281  107282
  107281  107283  107284  107285  107284  107286  107287  107288
  107287  107289  107290  107291  107290  107292  107293  107294
  107293  107295  107296  107297  107296  107298  107299  107300
  107299  107301  107302  107303  107302  107304  107305  107306
  107305  107307  107308  107309  107308  107310  107311  107312
  107311  107313  107314  107315  107314  107316  107317  107318
  107317  107319  107320  107321  107320  107322  107323  107324
  107323  107325  107326  107327  107326  107328  107329  107330
  107329  107331  107332  107333  107332  107334  107335  107336
  107335  107337  107338  107339  107338  107340  107341  107342
  107341  107343  107344  107345  107344  107346  107347  107348
  107347  107349  107350  107351  107350  107352  107353  107354
  107353  107355  107356  107357  107356  107358  107359  107360
  107359  107361  107362  107363  107362  107364  107365  107366
  107365  107367  107368  107369  107368  107370  107371  107372
  107371  107373  107374  107375  107374  107376  107377  107378
  107377  107379  107380  107381  107380  107382  107383  107384
  107383  107385  107386  107387  107386  107388  107389  107390
  107389  107391  107392  107393  107392  107394  107395  107396
  107395  107397  107398  107399  107398  107400  107401  107402
  107401  107403  107404  107405  107404  107406  107407  107408
  107407  107409  107410  107411  107410  107412  107413  107414
  107413  107415  107416  107417  107416  107418  107419  107420
  107419  107421  107422  107423  107422  107424  107425  107426
  107425  107427  107428  107429  107428  107430  107431  107432
  107431  107433  107434  107435  107434  107436  107437  107438
  107437  107439  107440  107441  107440  107442  107443  107444
  107443  107445  107446  107447  107446  107448  107449  107450
  107449  107451  107452  107453  107452  107454  107455  107456
  107455  107457  107458  107459  107458  107460  107461  107462
  107461  107463  107464  107465  107464  107466  107467  107468
  107467  107469  107470  107471  107470  107472  107473  107474
  107473  107475  107476  107477  107476  107478  107479  107480
  107479  107481  107482  107483  107482  107484  107485  107486
  107485  107487  107488  107489  107488  107490  107491  107492
  107491  107493  107494  107495  107494  107496  107497  107498
  107497  107499  107500  107501  107500  107502  107503  107504
  107503  107505  107506  107507  107506  107508  107509  107510
  107509  107511  107512  107513  107512  107514  107515  107516
  107515  107517  107518  107519  107518  107520  107521  107522
  107521  107523  107524  107525  107524  107526  107527  107528
  107527  107529  107530  107531  107530  107532  107533  107534
  107533  107535  107536  107537  107536  107538  107539  107540
  107539  107541  107542  107543  107542  107544  107545  107546
  107545  107547  107548  107549  107548  107550  107551  107552
  107551  107553  107554  107555  107554  107556  107557  107558
  107557  107559  107560  107561  107560  107562  107563  107564
  107563  107565  107566  107567  107566  107568  107569  107570
  107569  107571  107572  107573  107572  107574  107575  107576
  107575  107577  107578  107579  107578  107580  107581  107582
  107581  107583  107584  107585  107584  107586  107587  107588
  107587  107589  107590  107591  107590  107592  107593  107594
  107593  107595  107596  107597  107596  107598  107599  107600
  107599  107601  107602  107603  107602  107604  107605  107606
  107605  107607  107608  107609  107608  107610  107611  107612
  107611  107613  107614  107615  107614  107616  107617  107618
  107617  107619  107620  107621  107620  107622  107623  107624
  107623  107625  107626  107627  107626  107628  107629  107630
  107629  107631  107632  107633  107632  107634  107635  107636
  107635  107637  107638  107639  107638  107640  107641  107642
  107641  107643  107644  107645  107644  107646  107647  107648
  107647  107649  107650  107651  107650  107652  107653  107654
  107653  107655  107656  107657  107656  107658  107659  107660
  107659  107661  107662  107663  107662  107664  107665  107666
  107665  107667  107668  107669  107668  107670  107671  107672
  107671  107673  107674  107675  107674  107676  107677  107678
  107677  107679  107680  107681  107680  107682  107683  107684
  107683  107685  107686  107687  107686  107688  107689  107690
  107689  107691  107692  107693  107692  107694  107695  107696
  107695  107697  107698  107699  107698  107700  107701  107702
  107701  107703  107704  107705  107704  107706  107707  107708
  107707  107709  107710  107711  107710  107712  107713  107714
  107713  107715  107716  107717  107716  107718  107719  107720
  107719  107721  107722  107723  107722  107724  107725  107726
  107725  107727  107728  107729  107728  107730  107731  107732
  107731  107733  107734  107735  107734  107736  107737  107738
  107737  107739  107740  107741  107740  107742  107743  107744
  107743  107745  107746  107747  107746  107748  107749  107750
  107749  107751  107752  107753  107752  107754  107755  107756
  107755  107757  107758  107759  107758  107760  107761  107762
  107761  107763  107764  107765  107764  107766  107767  107768
  107767  107769  107770  107771  107770  107772  107773  107774
  107773  107775  107776  107777  107776  107778  107779  107780
  107779  107781  107782  107783  107782  107784  107785  107786
  107785  107787  107788  107789  107788  107790  107791  107792
  107791  107793  107794  107795  107794  107796  107797  107798
  107797  107799  107800  107801  107800  107802  107803  107804
  107803  107805  107806  107807  107806  107808  107809  107810
  107809  107811  107812  107813  107812  107814  107815  107816
  107815  107817  107818  107819  107818  107820  107821  107822
  107821  107823  107824  107825  107824  107826  107827  107828
  107827  107829  107830  107831  107830  107832  107833  107834
  107833  107835  107836  107837  107836  107838  107839  107840
  107839  107841  107842  107843  107842  107844  107845  107846
  107845  107847  107848  107849  107848  107850  107851  107852
  107851  107853  107854  107855  107854  107856  107857  107858
  107857  107859  107860  107861  107860  107862  107863  107864
  107863  107865  107866  107867  107866  107868  107869  107870
  107869  107871  107872  107873  107872  107874  107875  107876
  107875  107877  107878  107879  107878  107880  107881  107882
  107881  107883  107884  107885  107884  107886  107887  107888
  107887  107889  107890  107891  107890  107892  107893  107894
  107893  107895  107896  107897  107896  107898  107899  107900
  107899  107901  107902  107903  107902  107904  107905  107906
  107905  107907  107908  107909  107908  107910  107911  107912
  107911  107913  107914  107915  107914  107916  107917  107918
  107917  107919  107920  107921  107920  107922  107923  107924
  107923  107925  107926  107927  107926  107928  107929  107930
  107929  107931  107932  107933  107932  107934  107935  107936
  107935  107937  107938  107939  107938  107940  107941  107942
  107941  107943  107944  107945  107944  107946  107947  107948
  107947  107949  107950  107951  107950  107952  107953  107954
  107953  107955  107956  107957  107956  107958  107959  107960
  107959  107961  107962  107963  107962  107964  107965  107966
  107965  107967  107968  107969  107968  107970  107971  107972
  107971  107973  107974  107975  107974  107976  107977  107978
  107977  107979  107980  107981  107980  107982  107983  107984
  107983  107985  107986  107987  107986  107988  107989  107990
  107989  107991  107992  107993  107992  107994  107995  107996
  107995  107997  107998  107999  107998  108000  108001  108002
  108001  108003  108004  108005  108004  108006  108007  108008
  108007  108009  108010  108011  108010  108012  108013  108014
  108013  108015  108016  108017  108016  108018  108019  108020
  108019  108021  108022  108023  108022  108024  108025  108026
  108025  108027  108028  108029  108028  108030  108031  108032
  108031  108033  108034  108035  108034  108036  108037  108038
  108037  108039  108040  108041  108040  108042  108043  108044
  108043  108045  108046  108047  108046  108048  108049  108050
  108049  108051  108052  108053  108052  108054  108055  108056
  108055  108057  108058  108059  108058  108060  108061  108062
  108061  108063  108064  108065  108064  108066  108067  108068
  108067  108069  108070  108071  108070  108072  108073  108074
  108073  108075  108076  108077  108076  108078  108079  108080
  108079  108081  108082  108083  108082  108084  108085  108086
  108085  108087  108088  108089  108088  108090  108091  108092
  108091  108093  108094  108095  108094  108096  108097  108098
  108097  108099  108100  108101  108100  108102  108103  108104
  108103  108105  108106  108107  108106  108108  108109  108110
  108109  108111  108112  108113  108112  108114  108115  108116
  108115  108117  108118  108119  108118  108120  108121  108122
  108121  108123  108124  108125  108124  108126  108127  108128
  108127  108129  108130  108131  108130  108132  108133  108134
  108133  108135  108136  108137  108136  108138  108139  108140
  108139  108141  108142  108143  108142  108144  108145  108146
  108145  108147  108148  108149  108148  108150  108151  108152
  108151  108153  108154  108155  108154  108156  108157  108158
  108157  108159  108160  108161  108160  108162  108163  108164
  108163  108165  108166  108167  108166  108168  108169  108170
  108169  108171  108172  108173  108172  108174  108175  108176
  108175  108177  108178  108179  108178  108180  108181  108182
  108181  108183  108184  108185  108184  108186  108187  108188
  108187  108189  108190  108191  108190  108192  108193  108194
  108193  108195  108196  108197  108196  108198  108199  108200
  108199  108201  108202  108203  108202  108204  108205  108206
  108205  108207  108208  108209  108208  108210  108211  108212
  108211  108213  108214  108215  108214  108216  108217  108218
  108217  108219  108220  108221  108220  108222  108223  108224
  108223  108225  108226  108227  108226  108228  108229  108230
  108229  108231  108232  108233  108232  108234  108235  108236
  108235  108237  108238  108239  108238  108240  108241  108242
  108241  108243  108244  108245  108244  108246  108247  108248
  108247  108249  108250  108251  108250  108252  108253  108254
  108253  108255  108256  108257  108256  108258  108259  108260
  108259  108261  108262  108263  108262  108264  108265  108266
  108265  108267  108268  108269  108268  108270  108271  108272
  108271  108273  108274  108275  108274  108276  108277  108278
  108277  108279  108280  108281  108280  108282  108283  108284
  108283  108285  108286  108287  108286  108288  108289  108290
  108289  108291  108292  108293  108292  108294  108295  108296
  108295  108297  108298  108299  108298  108300  108301  108302
  108301  108303  108304  108305  108304  108306  108307  108308
  108307  108309  108310  108311  108310  108312  108313  108314
  108313  108315  108316  108317  108316  108318  108319  108320
  108319  108321  108322  108323  108322  108324  108325  108326
  108325  108327  108328  108329  108328  108330  108331  108332
  108331  108333  108334  108335  108334  108336  108337  108338
  108337  108339  108340  108341  108340  108342  108343  108344
  108343  108345  108346  108347  108346  108348  108349  108350
  108349  108351  108352  108353  108352  108354  108355  108356
  108355  108357  108358  108359  108358  108360  108361  108362
  108361  108363  108364  108365  108364  108366  108367  108368
  108367  108369  108370  108371  108370  108372  108373  108374
  108373  108375  108376  108377  108376  108378  108379  108380
  108379  108381  108382  108383  108382  108384  108385  108386
  108385  108387  108388  108389  108388  108390  108391  108392
  108391  108393  108394  108395  108394  108396  108397  108398
  108397  108399  108400  108401  108400  108402  108403  108404
  108403  108405  108406  108407  108406  108408  108409  108410
  108409  108411  108412  108413  108412  108414  108415  108416
  108415  108417  108418  108419  108418  108420  108421  108422
  108421  108423  108424  108425  108424  108426  108427  108428
  108427  108429  108430  108431  108430  108432  108433  108434
  108433  108435  108436  108437  108436  108438  108439  108440
  108439  108441  108442  108443  108442  108444  108445  108446
  108445  108447  108448  108449  108448  108450  108451  108452
  108451  108453  108454  108455  108454  108456  108457  108458
  108457  108459  108460  108461  108460  108462  108463  108464
  108463  108465  108466  108467  108466  108468  108469  108470
  108469  108471  108472  108473  108472  108474  108475  108476
  108475  108477  108478  108479  108478  108480  108481  108482
  108481  108483  108484  108485  108484  108486  108487  108488
  108487  108489  108490  108491  108490  108492  108493  108494
  108493  108495  108496  108497  108496  108498  108499  108500
  108499  108501  108502  108503  108502  108504  108505  108506
  108505  108507  108508  108509  108508  108510  108511  108512
  108511  108513  108514  108515  108514  108516  108517  108518
  108517  108519  108520  108521  108520  108522  108523  108524
  108523  108525  108526  108527  108526  108528  108529  108530
  108529  108531  108532  108533  108532  108534  108535  108536
  108535  108537  108538  108539  108538  108540  108541  108542
  108541  108543  108544  108545  108544  108546  108547  108548
  108547  108549  108550  108551  108550  108552  108553  108554
  108553  108555  108556  108557  108556  108558  108559  108560
  108559  108561  108562  108563  108562  108564  108565  108566
  108565  108567  108568  108569  108568  108570  108571  108572
  108571  108573  108574  108575  108574  108576  108577  108578
  108577  108579  108580  108581  108580  108582  108583  108584
  108583  108585  108586  108587  108586  108588  108589  108590
  108589  108591  108592  108593  108592  108594  108595  108596
  108595  108597  108598  108599  108598  108600  108601  108602
  108601  108603  108604  108605  108604  108606  108607  108608
  108607  108609  108610  108611  108610  108612  108613  108614
  108613  108615  108616  108617  108616  108618  108619  108620
  108619  108621  108622  108623  108622  108624  108625  108626
  108625  108627  108628  108629  108628  108630  108631  108632
  108631  108633  108634  108635  108634  108636  108637  108638
  108637  108639  108640  108641  108640  108642  108643  108644
  108643  108645  108646  108647  108646  108648  108649  108650
  108649  108651  108652  108653  108652  108654  108655  108656
  108655  108657  108658  108659  108658  108660  108661  108662
  108661  108663  108664  108665  108664  108666  108667  108668
  108667  108669  108670  108671  108670  108672  108673  108674
  108673  108675  108676  108677  108676  108678  108679  108680
  108679  108681  108682  108683  108682  108684  108685  108686
  108685  108687  108688  108689  108688  108690  108691  108692
  108691  108693  108694  108695  108694  108696  108697  108698
  108697  108699  108700  108701  108700  108702  108703  108704
  108703  108705  108706  108707  108706  108708  108709  108710
  108709  108711  108712  108713  108712  108714  108715  108716
  108715  108717  108718  108719  108718  108720  108721  108722
  108721  108723  108724  108725  108724  108726  108727  108728
  108727  108729  108730  108731  108730  108732  108733  108734
  108733  108735  108736  108737  108736  108738  108739  108740
  108739  108741  108742  108743  108742  108744  108745  108746
  108745  108747  108748  108749  108748  108750  108751  108752
  108751  108753  108754  108755  108754  108756  108757  108758
  108757  108759  108760  108761  108760  108762  108763  108764
  108763  108765  108766  108767  108766  108768  108769  108770
  108769  108771  108772  108773  108772  108774  108775  108776
  108775  108777  108778  108779  108778  108780  108781  108782
  108781  108783  108784  108785  108784  108786  108787  108788
  108787  108789  108790  108791  108790  108792  108793  108794
  108793  108795  108796  108797  108796  108798  108799  108800
  108799  108801  108802  108803  108802  108804  108805  108806
  108805  108807  108808  108809  108808  108810  108811  108812
  108811  108813  108814  108815  108814  108816  108817  108818
  108817  108819  108820  108821  108820  108822  108823  108824
  108823  108825  108826  108827  108826  108828  108829  108830
  108829  108831  108832  108833  108832  108834  108835  108836
  108835  108837  108838  108839  108838  108840  108841  108842
  108841  108843  108844  108845  108844  108846  108847  108848
  108847  108849  108850  108851  108850  108852  108853  108854
  108853  108855  108856  108857  108856  108858  108859  108860
  108859  108861  108862  108863  108862  108864  108865  108866
  108865  108867  108868  108869  108868  108870  108871  108872
  108871  108873  108874  108875  108874  108876  108877  108878
  108877  108879  108880  108881  108880  108882  108883  108884
  108883  108885  108886  108887  108886  108888  108889  108890
  108889  108891  108892  108893  108892  108894  108895  108896
  108895  108897  108898  108899  108898  108900  108901  108902
  108901  108903  108904  108905  108904  108906  108907  108908
  108907  108909  108910  108911  108910  108912  108913  108914
  108913  108915  108916  108917  108916  108918  108919  108920
  108919  108921  108922  108923  108922  108924  108925  108926
  108925  108927  108928  108929  108928  108930  108931  108932
  108931  108933  108934  108935  108934  108936  108937  108938
  108937  108939  108940  108941  108940  108942  108943  108944
  108943  108945  108946  108947  108946  108948  108949  108950
  108949  108951  108952  108953  108952  108954  108955  108956
  108955  108957  108958  108959  108958  108960  108961  108962
  108961  108963  108964  108965  108964  108966  108967  108968
  108967  108969  108970  108971  108970  108972  108973  108974
  108973  108975  108976  108977  108976  108978  108979  108980
  108979  108981  108982  108983  108982  108984  108985  108986
  108985  108987  108988  108989  108988  108990  108991  108992
  108991  108993  108994  108995  108994  108996  108997  108998
  108997  108999  109000  109001  109000  109002  109003  109004
  109003  109005  109006  109007  109006  109008  109009  109010
  109009  109011  109012  109013  109012  109014  109015  109016
  109015  109017  109018  109019  109018  109020  109021  109022
  109021  109023  109024  109025  109024  109026  109027  109028
  109027  109029  109030  109031  109030  109032  109033  109034
  109033  109035  109036  109037  109036  109038  109039  109040
  109039  109041  109042  109043  109042  109044  109045  109046
  109045  109047  109048  109049  109048  109050  109051  109052
  109051  109053  109054  109055  109054  109056  109057  109058
  109057  109059  109060  109061  109060  109062  109063  109064
  109063  109065  109066  109067  109066  109068  109069  109070
  109069  109071  109072  109073  109072  109074  109075  109076
  109075  109077  109078  109079  109078  109080  109081  109082
  109081  109083  109084  109085  109084  109086  109087  109088
  109087  109089  109090  109091  109090  109092  109093  109094
  109093  109095  109096  109097  109096  109098  109099  109100
  109099  109101  109102  109103  109102  109104  109105  109106
  109105  109107  109108  109109  109108  109110  109111  109112
  109111  109113  109114  109115  109114  109116  109117  109118
  109117  109119  109120  109121  109120  109122  109123  109124
  109123  109125  109126  109127  109126  109128  109129  109130
  109129  109131  109132  109133  109132  109134  109135  109136
  109135  109137  109138  109139  109138  109140  109141  109142
  109141  109143  109144  109145  109144  109146  109147  109148
  109147  109149  109150  109151  109150  109152  109153  109154
  109153  109155  109156  109157  109156  109158  109159  109160
  109159  109161  109162  109163  109162  109164  109165  109166
  109165  109167  109168  109169  109168  109170  109171  109172
  109171  109173  109174  109175  109174  109176  109177  109178
  109177  109179  109180  109181  109180  109182  109183  109184
  109183  109185  109186  109187  109186  109188  109189  109190
  109189  109191  109192  109193  109192  109194  109195  109196
  109195  109197  109198  109199  109198  109200  109201  109202
  109201  109203  109204  109205  109204  109206  109207  109208
  109207  109209  109210  109211  109210  109212  109213  109214
  109213  109215  109216  109217  109216  109218  109219  109220
  109219  109221  109222  109223  109222  109224  109225  109226
  109225  109227  109228  109229  109228  109230  109231  109232
  109231  109233  109234  109235  109234  109236  109237  109238
  109237  109239  109240  109241  109240  109242  109243  109244
  109243  109245  109246  109247  109246  109248  109249  109250
  109249  109251  109252  109253  109252  109254  109255  109256
  109255  109257  109258  109259  109258  109260  109261  109262
  109261  109263  109264  109265  109264  109266  109267  109268
  109267  109269  109270  109271  109270  109272  109273  109274
  109273  109275  109276  109277  109276  109278  109279  109280
  109279  109281  109282  109283  109282  109284  109285  109286
  109285  109287  109288  109289  109288  109290  109291  109292
  109291  109293  109294  109295  109294  109296  109297  109298
  109297  109299  109300  109301  109300  109302  109303  109304
  109303  109305  109306  109307  109306  109308  109309  109310
  109309  109311  109312  109313  109312  109314  109315  109316
  109315  109317  109318  109319  109318  109320  109321  109322
  109321  109323  109324  109325  109324  109326  109327  109328
  109327  109329  109330  109331  109330  109332  109333  109334
  109333  109335  109336  109337  109336  109338  109339  109340
  109339  109341  109342  109343  109342  109344  109345  109346
  109345  109347  109348  109349  109348  109350  109351  109352
  109351  109353  109354  109355  109354  109356  109357  109358
  109357  109359  109360  109361  109360  109362  109363  109364
  109363  109365  109366  109367  109366  109368  109369  109370
  109369  109371  109372  109373  109372  109374  109375  109376
  109375  109377  109378  109379  109378  109380  109381  109382
  109381  109383  109384  109385  109384  109386  109387  109388
  109387  109389  109390  109391  109390  109392  109393  109394
  109393  109395  109396  109397  109396  109398  109399  109400
  109399  109401  109402  109403  109402  109404  109405  109406
  109405  109407  109408  109409  109408  109410  109411  109412
  109411  109413  109414  109415  109414  109416  109417  109418
  109417  109419  109420  109421  109420  109422  109423  109424
  109423  109425  109426  109427  109426  109428  109429  109430
  109429  109431  109432  109433  109432  109434  109435  109436
  109435  109437  109438  109439  109438  109440  109441  109442
  109441  109443  109444  109445  109444  109446  109447  109448
  109447  109449  109450  109451  109450  109452  109453  109454
  109453  109455  109456  109457  109456  109458  109459  109460
  109459  109461  109462  109463  109462  109464  109465  109466
  109465  109467  109468  109469  109468  109470  109471  109472
  109471  109473  109474  109475  109474  109476  109477  109478
  109477  109479  109480  109481  109480  109482  109483  109484
  109483  109485  109486  109487  109486  109488  109489  109490
  109489  109491  109492  109493  109492  109494  109495  109496
  109495  109497  109498  109499  109498  109500  109501  109502
  109501  109503  109504  109505  109504  109506  109507  109508
  109507  109509  109510  109511  109510  109512  109513  109514
  109513  109515  109516  109517  109516  109518  109519  109520
  109519  109521  109522  109523  109522  109524  109525  109526
  109525  109527  109528  109529  109528  109530  109531  109532
  109531  109533  109534  109535  109534  109536  109537  109538
  109537  109539  109540  109541  109540  109542  109543  109544
  109543  109545  109546  109547  109546  109548  109549  109550
  109549  109551  109552  109553  109552  109554  109555  109556
  109555  109557  109558  109559  109558  109560  109561  109562
  109561  109563  109564  109565  109564  109566  109567  109568
  109567  109569  109570  109571  109570  109572  109573  109574
  109573  109575  109576  109577  109576  109578  109579  109580
  109579  109581  109582  109583  109582  109584  109585  109586
  109585  109587  109588  109589  109588  109590  109591  109592
  109591  109593  109594  109595  109594  109596  109597  109598
  109597  109599  109600  109601  109600  109602  109603  109604
  109603  109605  109606  109607  109606  109608  109609  109610
  109609  109611  109612  109613  109612  109614  109615  109616
  109615  109617  109618  109619  109618  109620  109621  109622
  109621  109623  109624  109625  109624  109626  109627  109628
  109627  109629  109630  109631  109630  109632  109633  109634
  109633  109635  109636  109637  109636  109638  109639  109640
  109639  109641  109642  109643  109642  109644  109645  109646
  109645  109647  109648  109649  109648  109650  109651  109652
  109651  109653  109654  109655  109654  109656  109657  109658
  109657  109659  109660  109661  109660  109662  109663  109664
  109663  109665  109666  109667  109666  109668  109669  109670
  109669  109671  109672  109673  109672  109674  109675  109676
  109675  109677  109678  109679  109678  109680  109681  109682
  109681  109683  109684  109685  109684  109686  109687  109688
  109687  109689  109690  109691  109690  109692  109693  109694
  109693  109695  109696  109697  109696  109698  109699  109700
  109699  109701  109702  109703  109702  109704  109705  109706
  109705  109707  109708  109709  109708  109710  109711  109712
  109711  109713  109714  109715  109714  109716  109717  109718
  109717  109719  109720  109721  109720  109722  109723  109724
  109723  109725  109726  109727  109726  109728  109729  109730
  109729  109731  109732  109733  109732  109734  109735  109736
  109735  109737  109738  109739  109738  109740  109741  109742
  109741  109743  109744  109745  109744  109746  109747  109748
  109747  109749  109750  109751  109750  109752  109753  109754
  109753  109755  109756  109757  109756  109758  109759  109760
  109759  109761  109762  109763  109762  109764  109765  109766
  109765  109767  109768  109769  109768  109770  109771  109772
  109771  109773  109774  109775  109774  109776  109777  109778
  109777  109779  109780  109781  109780  109782  109783  109784
  109783  109785  109786  109787  109786  109788  109789  109790
  109789  109791  109792  109793  109792  109794  109795  109796
  109795  109797  109798  109799  109798  109800  109801  109802
  109801  109803  109804  109805  109804  109806  109807  109808
  109807  109809  109810  109811  109810  109812  109813  109814
  109813  109815  109816  109817  109816  109818  109819  109820
  109819  109821  109822  109823  109822  109824  109825  109826
  109825  109827  109828  109829  109828  109830  109831  109832
  109831  109833  109834  109835  109834  109836  109837  109838
  109837  109839  109840  109841  109840  109842  109843  109844
  109843  109845  109846  109847  109846  109848  109849  109850
  109849  109851  109852  109853  109852  109854  109855  109856
  109855  109857  109858  109859  109858  109860  109861  109862
  109861  109863  109864  109865  109864  109866  109867  109868
  109867  109869  109870  109871  109870  109872  109873  109874
  109873  109875  109876  109877  109876  109878  109879  109880
  109879  109881  109882  109883  109882  109884  109885  109886
  109885  109887  109888  109889  109888  109890  109891  109892
  109891  109893  109894  109895  109894  109896  109897  109898
  109897  109899  109900  109901  109900  109902  109903  109904
  109903  109905  109906  109907  109906  109908  109909  109910
  109909  109911  109912  109913  109912  109914  109915  109916
  109915  109917  109918  109919  109918  109920  109921  109922
  109921  109923  109924  109925  109924  109926  109927  109928
  109927  109929  109930  109931  109930  109932  109933  109934
  109933  109935  109936  109937  109936  109938  109939  109940
  109939  109941  109942  109943  109942  109944  109945  109946
  109945  109947  109948  109949  109948  109950  109951  109952
  109951  109953  109954  109955  109954  109956  109957  109958
  109957  109959  109960  109961  109960  109962  109963  109964
  109963  109965  109966  109967  109966  109968  109969  109970
  109969  109971  109972  109973  109972  109974  109975  109976
  109975  109977  109978  109979  109978  109980  109981  109982
  109981  109983  109984  109985  109984  109986  109987  109988
  109987  109989  109990  109991  109990  109992  109993  109994
  109993  109995  109996  109997  109996  109998  109999  110000
  109999  110001  110002  110003  110002  110004  110005  110006
  110005  110007  110008  110009  110008  110010  110011  110012
  110011  110013  110014  110015  110014  110016  110017  110018
  110017  110019  110020  110021  110020  110022  110023  110024
  110023  110025  110026  110027  110026  110028  110029  110030
  110029  110031  110032  110033  110032  110034  110035  110036
  110035  110037  110038  110039  110038  110040  110041  110042
  110041  110043  110044  110045  110044  110046  110047  110048
  110047  110049  110050  110051  110050  110052  110053  110054
  110053  110055  110056  110057  110056  110058  110059  110060
  110059  110061  110062  110063  110062  110064  110065  110066
  110065  110067  110068  110069  110068  110070  110071  110072
  110071  110073  110074  110075  110074  110076  110077  110078
  110077  110079  110080  110081  110080  110082  110083  110084
  110083  110085  110086  110087  110086  110088  110089  110090
  110089  110091  110092  110093  110092  110094  110095  110096
  110095  110097  110098  110099  110098  110100  110101  110102
  110101  110103  110104  110105  110104  110106  110107  110108
  110107  110109  110110  110111  110110  110112  110113  110114
  110113  110115  110116  110117  110116  110118  110119  110120
  110119  110121  110122  110123  110122  110124  110125  110126
  110125  110127  110128  110129  110128  110130  110131  110132
  110131  110133  110134  110135  110134  110136  110137  110138
  110137  110139  110140  110141  110140  110142  110143  110144
  110143  110145  110146  110147  110146  110148  110149  110150
  110149  110151  110152  110153  110152  110154  110155  110156
  110155  110157  110158  110159  110158  110160  110161  110162
  110161  110163  110164  110165  110164  110166  110167  110168
  110167  110169  110170  110171  110170  110172  110173  110174
  110173  110175  110176  110177  110176  110178  110179  110180
  110179  110181  110182  110183  110182  110184  110185  110186
  110185  110187  110188  110189  110188  110190  110191  110192
  110191  110193  110194  110195  110194  110196  110197  110198
  110197  110199  110200  110201  110200  110202  110203  110204
  110203  110205  110206  110207  110206  110208  110209  110210
  110209  110211  110212  110213  110212  110214  110215  110216
  110215  110217  110218  110219  110218  110220  110221  110222
  110221  110223  110224  110225  110224  110226  110227  110228
  110227  110229  110230  110231  110230  110232  110233  110234
  110233  110235  110236  110237  110236  110238  110239  110240
  110239  110241  110242  110243  110242  110244  110245  110246
  110245  110247  110248  110249  110248  110250  110251  110252
  110251  110253  110254  110255  110254  110256  110257  110258
  110257  110259  110260  110261  110260  110262  110263  110264
  110263  110265  110266  110267  110266  110268  110269  110270
  110269  110271  110272  110273  110272  110274  110275  110276
  110275  110277  110278  110279  110278  110280  110281  110282
  110281  110283  110284  110285  110284  110286  110287  110288
  110287  110289  110290  110291  110290  110292  110293  110294
  110293  110295  110296  110297  110296  110298  110299  110300
  110299  110301  110302  110303  110302  110304  110305  110306
  110305  110307  110308  110309  110308  110310  110311  110312
  110311  110313  110314  110315  110314  110316  110317  110318
  110317  110319  110320  110321  110320  110322  110323  110324
  110323  110325  110326  110327  110326  110328  110329  110330
  110329  110331  110332  110333  110332  110334  110335  110336
  110335  110337  110338  110339  110338  110340  110341  110342
  110341  110343  110344  110345  110344  110346  110347  110348
  110347  110349  110350  110351  110350  110352  110353  110354
  110353  110355  110356  110357  110356  110358  110359  110360
  110359  110361  110362  110363  110362  110364  110365  110366
  110365  110367  110368  110369  110368  110370  110371  110372
  110371  110373  110374  110375  110374  110376  110377  110378
  110377  110379  110380  110381  110380  110382  110383  110384
  110383  110385  110386  110387  110386  110388  110389  110390
  110389  110391  110392  110393  110392  110394  110395  110396
  110395  110397  110398  110399  110398  110400  110401  110402
  110401  110403  110404  110405  110404  110406  110407  110408
  110407  110409  110410  110411  110410  110412  110413  110414
  110413  110415  110416  110417  110416  110418  110419  110420
  110419  110421  110422  110423  110422  110424  110425  110426
  110425  110427  110428  110429  110428  110430  110431  110432
  110431  110433  110434  110435  110434  110436  110437  110438
  110437  110439  110440  110441  110440  110442  110443  110444
  110443  110445  110446  110447  110446  110448  110449  110450
  110449  110451  110452  110453  110452  110454  110455  110456
  110455  110457  110458  110459  110458  110460  110461  110462
  110461  110463  110464  110465  110464  110466  110467  110468
  110467  110469  110470  110471  110470  110472  110473  110474
  110473  110475  110476  110477  110476  110478  110479  110480
  110479  110481  110482  110483  110482  110484  110485  110486
  110485  110487  110488  110489  110488  110490  110491  110492
  110491  110493  110494  110495  110494  110496  110497  110498
  110497  110499  110500  110501  110500  110502  110503  110504
  110503  110505  110506  110507  110506  110508  110509  110510
  110509  110511  110512  110513  110512  110514  110515  110516
  110515  110517  110518  110519  110518  110520  110521  110522
  110521  110523  110524  110525  110524  110526  110527  110528
  110527  110529  110530  110531  110530  110532  110533  110534
  110533  110535  110536  110537  110536  110538  110539  110540
  110539  110541  110542  110543  110542  110544  110545  110546
  110545  110547  110548  110549  110548  110550  110551  110552
  110551  110553  110554  110555  110554  110556  110557  110558
  110557  110559  110560  110561  110560  110562  110563  110564
  110563  110565  110566  110567  110566  110568  110569  110570
  110569  110571  110572  110573  110572  110574  110575  110576
  110575  110577  110578  110579  110578  110580  110581  110582
  110581  110583  110584  110585  110584  110586  110587  110588
  110587  110589  110590  110591  110590  110592  110593  110594
  110593  110595  110596  110597  110596  110598  110599  110600
  110599  110601  110602  110603  110602  110604  110605  110606
  110605  110607  110608  110609  110608  110610  110611  110612
  110611  110613  110614  110615  110614  110616  110617  110618
  110617  110619  110620  110621  110620  110622  110623  110624
  110623  110625  110626  110627  110626  110628  110629  110630
  110629  110631  110632  110633  110632  110634  110635  110636
  110635  110637  110638  110639  110638  110640  110641  110642
  110641  110643  110644  110645  110644  110646  110647  110648
  110647  110649  110650  110651  110650  110652  110653  110654
  110653  110655  110656  110657  110656  110658  110659  110660
  110659  110661  110662  110663  110662  110664  110665  110666
  110665  110667  110668  110669  110668  110670  110671  110672
  110671  110673  110674  110675  110674  110676  110677  110678
  110677  110679  110680  110681  110680  110682  110683  110684
  110683  110685  110686  110687  110686  110688  110689  110690
  110689  110691  110692  110693  110692  110694  110695  110696
  110695  110697  110698  110699  110698  110700  110701  110702
  110701  110703  110704  110705  110704  110706  110707  110708
  110707  110709  110710  110711  110710  110712  110713  110714
  110713  110715  110716  110717  110716  110718  110719  110720
  110719  110721  110722  110723  110722  110724  110725  110726
  110725  110727  110728  110729  110728  110730  110731  110732
  110731  110733  110734  110735  110734  110736  110737  110738
  110737  110739  110740  110741  110740  110742  110743  110744
  110743  110745  110746  110747  110746  110748  110749  110750
  110749  110751  110752  110753  110752  110754  110755  110756
  110755  110757  110758  110759  110758  110760  110761  110762
  110761  110763  110764  110765  110764  110766  110767  110768
  110767  110769  110770  110771  110770  110772  110773  110774
  110773  110775  110776  110777  110776  110778  110779  110780
  110779  110781  110782  110783  110782  110784  110785  110786
  110785  110787  110788  110789  110788  110790  110791  110792
  110791  110793  110794  110795  110794  110796  110797  110798
  110797  110799  110800  110801  110800  110802  110803  110804
  110803  110805  110806  110807  110806  110808  110809  110810
  110809  110811  110812  110813  110812  110814  110815  110816
  110815  110817  110818  110819  110818  110820  110821  110822
  110821  110823  110824  110825  110824  110826  110827  110828
  110827  110829  110830  110831  110830  110832  110833  110834
  110833  110835  110836  110837  110836  110838  110839  110840
  110839  110841  110842  110843  110842  110844  110845  110846
  110845  110847  110848  110849  110848  110850  110851  110852
  110851  110853  110854  110855  110854  110856  110857  110858
  110857  110859  110860  110861  110860  110862  110863  110864
  110863  110865  110866  110867  110866  110868  110869  110870
  110869  110871  110872  110873  110872  110874  110875  110876
  110875  110877  110878  110879  110878  110880  110881  110882
  110881  110883  110884  110885  110884  110886  110887  110888
  110887  110889  110890  110891  110890  110892  110893  110894
  110893  110895  110896  110897  110896  110898  110899  110900
  110899  110901  110902  110903  110902  110904  110905  110906
  110905  110907  110908  110909  110908  110910  110911  110912
  110911  110913  110914  110915  110914  110916  110917  110918
  110917  110919  110920  110921  110920  110922  110923  110924
  110923  110925  110926  110927  110926  110928  110929  110930
  110929  110931  110932  110933  110932  110934  110935  110936
  110935  110937  110938  110939  110938  110940  110941  110942
  110941  110943  110944  110945  110944  110946  110947  110948
  110947  110949  110950  110951  110950  110952  110953  110954
  110953  110955  110956  110957  110956  110958  110959  110960
  110959  110961  110962  110963  110962  110964  110965  110966
  110965  110967  110968  110969  110968  110970  110971  110972
  110971  110973  110974  110975  110974  110976  110977  110978
  110977  110979  110980  110981  110980  110982  110983  110984
  110983  110985  110986  110987  110986  110988  110989  110990
  110989  110991  110992  110993  110992  110994  110995  110996
  110995  110997  110998  110999  110998  111000  111001  111002
  111001  111003  111004  111005  111004  111006  111007  111008
  111007  111009  111010  111011  111010  111012  111013  111014
  111013  111015  111016  111017  111016  111018  111019  111020
  111019  111021  111022  111023  111022  111024  111025  111026
  111025  111027  111028  111029  111028  111030  111031  111032
  111031  111033  111034  111035  111034  111036  111037  111038
  111037  111039  111040  111041  111040  111042  111043  111044
  111043  111045  111046  111047  111046  111048  111049  111050
  111049  111051  111052  111053  111052  111054  111055  111056
  111055  111057  111058  111059  111058  111060  111061  111062
  111061  111063  111064  111065  111064  111066  111067  111068
  111067  111069  111070  111071  111070  111072  111073  111074
  111073  111075  111076  111077  111076  111078  111079  111080
  111079  111081  111082  111083  111082  111084  111085  111086
  111085  111087  111088  111089  111088  111090  111091  111092
  111091  111093  111094  111095  111094  111096  111097  111098
  111097  111099  111100  111101  111100  111102  111103  111104
  111103  111105  111106  111107  111106  111108  111109  111110
  111109  111111  111112  111113  111112  111114  111115  111116
  111115  111117  111118  111119  111118  111120  111121  111122
  111121  111123  111124  111125  111124  111126  111127  111128
  111127  111129  111130  111131  111130  111132  111133  111134
  111133  111135  111136  111137  111136  111138  111139  111140
  111139  111141  111142  111143  111142  111144  111145  111146
  111145  111147  111148  111149  111148  111150  111151  111152
  111151  111153  111154  111155  111154  111156  111157  111158
  111157  111159  111160  111161  111160  111162  111163  111164
  111163  111165  111166  111167  111166  111168  111169  111170
  111169  111171  111172  111173  111172  111174  111175  111176
  111175  111177  111178  111179  111178  111180  111181  111182
  111181  111183  111184  111185  111184  111186  111187  111188
  111187  111189  111190  111191  111190  111192  111193  111194
  111193  111195  111196  111197  111196  111198  111199  111200
  111199  111201  111202  111203  111202  111204  111205  111206
  111205  111207  111208  111209  111208  111210  111211  111212
  111211  111213  111214  111215  111214  111216  111217  111218
  111217  111219  111220  111221  111220  111222  111223  111224
  111223  111225  111226  111227  111226  111228  111229  111230
  111229  111231  111232  111233  111232  111234  111235  111236
  111235  111237  111238  111239  111238  111240  111241  111242
  111241  111243  111244  111245  111244  111246  111247  111248
  111247  111249  111250  111251  111250  111252  111253  111254
  111253  111255  111256  111257  111256  111258  111259  111260
  111259  111261  111262  111263  111262  111264  111265  111266
  111265  111267  111268  111269  111268  111270  111271  111272
  111271  111273  111274  111275  111274  111276  111277  111278
  111277  111279  111280  111281  111280  111282  111283  111284
  111283  111285  111286  111287  111286  111288  111289  111290
  111289  111291  111292  111293  111292  111294  111295  111296
  111295  111297  111298  111299  111298  111300  111301  111302
  111301  111303  111304  111305  111304  111306  111307  111308
  111307  111309  111310  111311  111310  111312  111313  111314
  111313  111315  111316  111317  111316  111318  111319  111320
  111319  111321  111322  111323  111322  111324  111325  111326
  111325  111327  111328  111329  111328  111330  111331  111332
  111331  111333  111334  111335  111334  111336  111337  111338
  111337  111339  111340  111341  111340  111342  111343  111344
  111343  111345  111346  111347  111346  111348  111349  111350
  111349  111351  111352  111353  111352  111354  111355  111356
  111355  111357  111358  111359  111358  111360  111361  111362
  111361  111363  111364  111365  111364  111366  111367  111368
  111367  111369  111370  111371  111370  111372  111373  111374
  111373  111375  111376  111377  111376  111378  111379  111380
  111379  111381  111382  111383  111382  111384  111385  111386
  111385  111387  111388  111389  111388  111390  111391  111392
  111391  111393  111394  111395  111394  111396  111397  111398
  111397  111399  111400  111401  111400  111402  111403  111404
  111403  111405  111406  111407  111406  111408  111409  111410
  111409  111411  111412  111413  111412  111414  111415  111416
  111415  111417  111418  111419  111418  111420  111421  111422
  111421  111423  111424  111425  111424  111426  111427  111428
  111427  111429  111430  111431  111430  111432  111433  111434
  111433  111435  111436  111437  111436  111438  111439  111440
  111439  111441  111442  111443  111442  111444  111445  111446
  111445  111447  111448  111449  111448  111450  111451  111452
  111451  111453  111454  111455  111454  111456  111457  111458
  111457  111459  111460  111461  111460  111462  111463  111464
  111463  111465  111466  111467  111466  111468  111469  111470
  111469  111471  111472  111473  111472  111474  111475  111476
  111475  111477  111478  111479  111478  111480  111481  111482
  111481  111483  111484  111485  111484  111486  111487  111488
  111487  111489  111490  111491  111490  111492  111493  111494
  111493  111495  111496  111497  111496  111498  111499  111500
  111499  111501  111502  111503  111502  111504  111505  111506
  111505  111507  111508  111509  111508  111510  111511  111512
  111511  111513  111514  111515  111514  111516  111517  111518
  111517  111519  111520  111521  111520  111522  111523  111524
  111523  111525  111526  111527  111526  111528  111529  111530
  111529  111531  111532  111533  111532  111534  111535  111536
  111535  111537  111538  111539  111538  111540  111541  111542
  111541  111543  111544  111545  111544  111546  111547  111548
  111547  111549  111550  111551  111550  111552  111553  111554
  111553  111555  111556  111557  111556  111558  111559  111560
  111559  111561  111562  111563  111562  111564  111565  111566
  111565  111567  111568  111569  111568  111570  111571  111572
  111571  111573  111574  111575  111574  111576  111577  111578
  111577  111579  111580  111581  111580  111582  111583  111584
  111583  111585  111586  111587  111586  111588  111589  111590
  111589  111591  111592  111593  111592  111594  111595  111596
  111595  111597  111598  111599  111598  111600  111601  111602
  111601  111603  111604  111605  111604  111606  111607  111608
  111607  111609  111610  111611  111610  111612  111613  111614
  111613  111615  111616  111617  111616  111618  111619  111620
  111619  111621  111622  111623  111622  111624  111625  111626
  111625  111627  111628  111629  111628  111630  111631  111632
  111631  111633  111634  111635  111634  111636  111637  111638
  111637  111639  111640  111641  111640  111642  111643  111644
  111643  111645  111646  111647  111646  111648  111649  111650
  111649  111651  111652  111653  111652  111654  111655  111656
  111655  111657  111658  111659  111658  111660  111661  111662
  111661  111663  111664  111665  111664  111666  111667  111668
  111667  111669  111670  111671  111670  111672  111673  111674
  111673  111675  111676  111677  111676  111678  111679  111680
  111679  111681  111682  111683  111682  111684  111685  111686
  111685  111687  111688  111689  111688  111690  111691  111692
  111691  111693  111694  111695  111694  111696  111697  111698
  111697  111699  111700  111701  111700  111702  111703  111704
  111703  111705  111706  111707  111706  111708  111709  111710
  111709  111711  111712  111713  111712  111714  111715  111716
  111715  111717  111718  111719  111718  111720  111721  111722
  111721  111723  111724  111725  111724  111726  111727  111728
  111727  111729  111730  111731  111730  111732  111733  111734
  111733  111735  111736  111737  111736  111738  111739  111740
  111739  111741  111742  111743  111742  111744  111745  111746
  111745  111747  111748  111749  111748  111750  111751  111752
  111751  111753  111754  111755  111754  111756  111757  111758
  111757  111759  111760  111761  111760  111762  111763  111764
  111763  111765  111766  111767  111766  111768  111769  111770
  111769  111771  111772  111773  111772  111774  111775  111776
  111775  111777  111778  111779  111778  111780  111781  111782
  111781  111783  111784  111785  111784  111786  111787  111788
  111787  111789  111790  111791  111790  111792  111793  111794
  111793  111795  111796  111797  111796  111798  111799  111800
  111799  111801  111802  111803  111802  111804  111805  111806
  111805  111807  111808  111809  111808  111810  111811  111812
  111811  111813  111814  111815  111814  111816  111817  111818
  111817  111819  111820  111821  111820  111822  111823  111824
  111823  111825  111826  111827  111826  111828  111829  111830
  111829  111831  111832  111833  111832  111834  111835  111836
  111835  111837  111838  111839  111838  111840  111841  111842
  111841  111843  111844  111845  111844  111846  111847  111848
  111847  111849  111850  111851  111850  111852  111853  111854
  111853  111855  111856  111857  111856  111858  111859  111860
  111859  111861  111862  111863  111862  111864  111865  111866
  111865  111867  111868  111869  111868  111870  111871  111872
  111871  111873  111874  111875  111874  111876  111877  111878
  111877  111879  111880  111881  111880  111882  111883  111884
  111883  111885  111886  111887  111886  111888  111889  111890
  111889  111891  111892  111893  111892  111894  111895  111896
  111895  111897  111898  111899  111898  111900  111901  111902
  111901  111903  111904  111905  111904  111906  111907  111908
  111907  111909  111910  111911  111910  111912  111913  111914
  111913  111915  111916  111917  111916  111918  111919  111920
  111919  111921  111922  111923  111922  111924  111925  111926
  111925  111927  111928  111929  111928  111930  111931  111932
  111931  111933  111934  111935  111934  111936  111937  111938
  111937  111939  111940  111941  111940  111942  111943  111944
  111943  111945  111946  111947  111946  111948  111949  111950
  111949  111951  111952  111953  111952  111954  111955  111956
  111955  111957  111958  111959  111958  111960  111961  111962
  111961  111963  111964  111965  111964  111966  111967  111968
  111967  111969  111970  111971  111970  111972  111973  111974
  111973  111975  111976  111977  111976  111978  111979  111980
  111979  111981  111982  111983  111982  111984  111985  111986
  111985  111987  111988  111989  111988  111990  111991  111992
  111991  111993  111994  111995  111994  111996  111997  111998
  111997  111999  112000  112001  112000  112002  112003  112004
  112003  112005  112006  112007  112006  112008  112009  112010
  112009  112011  112012  112013  112012  112014  112015  112016
  112015  112017  112018  112019  112018  112020  112021  112022
  112021  112023  112024  112025  112024  112026  112027  112028
  112027  112029  112030  112031  112030  112032  112033  112034
  112033  112035  112036  112037  112036  112038  112039  112040
  112039  112041  112042  112043  112042  112044  112045  112046
  112045  112047  112048  112049  112048  112050  112051  112052
  112051  112053  112054  112055  112054  112056  112057  112058
  112057  112059  112060  112061  112060  112062  112063  112064
  112063  112065  112066  112067  112066  112068  112069  112070
  112069  112071  112072  112073  112072  112074  112075  112076
  112075  112077  112078  112079  112078  112080  112081  112082
  112081  112083  112084  112085  112084  112086  112087  112088
  112087  112089  112090  112091  112090  112092  112093  112094
  112093  112095  112096  112097  112096  112098  112099  112100
  112099  112101  112102  112103  112102  112104  112105  112106
  112105  112107  112108  112109  112108  112110  112111  112112
  112111  112113  112114  112115  112114  112116  112117  112118
  112117  112119  112120  112121  112120  112122  112123  112124
  112123  112125  112126  112127  112126  112128  112129  112130
  112129  112131  112132  112133  112132  112134  112135  112136
  112135  112137  112138  112139  112138  112140  112141  112142
  112141  112143  112144  112145  112144  112146  112147  112148
  112147  112149  112150  112151  112150  112152  112153  112154
  112153  112155  112156  112157  112156  112158  112159  112160
  112159  112161  112162  112163  112162  112164  112165  112166
  112165  112167  112168  112169  112168  112170  112171  112172
  112171  112173  112174  112175  112174  112176  112177  112178
  112177  112179  112180  112181  112180  112182  112183  112184
  112183  112185  112186  112187  112186  112188  112189  112190
  112189  112191  112192  112193  112192  112194  112195  112196
  112195  112197  112198  112199  112198  112200  112201  112202
  112201  112203  112204  112205  112204  112206  112207  112208
  112207  112209  112210  112211  112210  112212  112213  112214
  112213  112215  112216  112217  112216  112218  112219  112220
  112219  112221  112222  112223  112222  112224  112225  112226
  112225  112227  112228  112229  112228  112230  112231  112232
  112231  112233  112234  112235  112234  112236  112237  112238
  112237  112239  112240  112241  112240  112242  112243  112244
  112243  112245  112246  112247  112246  112248  112249  112250
  112249  112251  112252  112253  112252  112254  112255  112256
  112255  112257  112258  112259  112258  112260  112261  112262
  112261  112263  112264  112265  112264  112266  112267  112268
  112267  112269  112270  112271  112270  112272  112273  112274
  112273  112275  112276  112277  112276  112278  112279  112280
  112279  112281  112282  112283  112282  112284  112285  112286
  112285  112287  112288  112289  112288  112290  112291  112292
  112291  112293  112294  112295  112294  112296  112297  112298
  112297  112299  112300  112301  112300  112302  112303  112304
  112303  112305  112306  112307  112306  112308  112309  112310
  112309  112311  112312  112313  112312  112314  112315  112316
  112315  112317  112318  112319  112318  112320  112321  112322
  112321  112323  112324  112325  112324  112326  112327  112328
  112327  112329  112330  112331  112330  112332  112333  112334
  112333  112335  112336  112337  112336  112338  112339  112340
  112339  112341  112342  112343  112342  112344  112345  112346
  112345  112347  112348  112349  112348  112350  112351  112352
  112351  112353  112354  112355  112354  112356  112357  112358
  112357  112359  112360  112361  112360  112362  112363  112364
  112363  112365  112366  112367  112366  112368  112369  112370
  112369  112371  112372  112373  112372  112374  112375  112376
  112375  112377  112378  112379  112378  112380  112381  112382
  112381  112383  112384  112385  112384  112386  112387  112388
  112387  112389  112390  112391  112390  112392  112393  112394
  112393  112395  112396  112397  112396  112398  112399  112400
  112399  112401  112402  112403  112402  112404  112405  112406
  112405  112407  112408  112409  112408  112410  112411  112412
  112411  112413  112414  112415  112414  112416  112417  112418
  112417  112419  112420  112421  112420  112422  112423  112424
  112423  112425  112426  112427  112426  112428  112429  112430
  112429  112431  112432  112433  112432  112434  112435  112436
  112435  112437  112438  112439  112438  112440  112441  112442
  112441  112443  112444  112445  112444  112446  112447  112448
  112447  112449  112450  112451  112450  112452  112453  112454
  112453  112455  112456  112457  112456  112458  112459  112460
  112459  112461  112462  112463  112462  112464  112465  112466
  112465  112467  112468  112469  112468  112470  112471  112472
  112471  112473  112474  112475  112474  112476  112477  112478
  112477  112479  112480  112481  112480  112482  112483  112484
  112483  112485  112486  112487  112486  112488  112489  112490
  112489  112491  112492  112493  112492  112494  112495  112496
  112495  112497  112498  112499  112498  112500  112501  112502
  112501  112503  112504  112505  112504  112506  112507  112508
  112507  112509  112510  112511  112510  112512  112513  112514
  112513  112515  112516  112517  112516  112518  112519  112520
  112519  112521  112522  112523  112522  112524  112525  112526
  112525  112527  112528  112529  112528  112530  112531  112532
  112531  112533  112534  112535  112534  112536  112537  112538
  112537  112539  112540  112541  112540  112542  112543  112544
  112543  112545  112546  112547  112546  112548  112549  112550
  112549  112551  112552  112553  112552  112554  112555  112556
  112555  112557  112558  112559  112558  112560  112561  112562
  112561  112563  112564  112565  112564  112566  112567  112568
  112567  112569  112570  112571  112570  112572  112573  112574
  112573  112575  112576  112577  112576  112578  112579  112580
  112579  112581  112582  112583  112582  112584  112585  112586
  112585  112587  112588  112589  112588  112590  112591  112592
  112591  112593  112594  112595  112594  112596  112597  112598
  112597  112599  112600  112601  112600  112602  112603  112604
  112603  112605  112606  112607  112606  112608  112609  112610
  112609  112611  112612  112613  112612  112614  112615  112616
  112615  112617  112618  112619  112618  112620  112621  112622
  112621  112623  112624  112625  112624  112626  112627  112628
  112627  112629  112630  112631  112630  112632  112633  112634
  112633  112635  112636  112637  112636  112638  112639  112640
  112639  112641  112642  112643  112642  112644  112645  112646
  112645  112647  112648  112649  112648  112650  112651  112652
  112651  112653  112654  112655  112654  112656  112657  112658
  112657  112659  112660  112661  112660  112662  112663  112664
  112663  112665  112666  112667  112666  112668  112669  112670
  112669  112671  112672  112673  112672  112674  112675  112676
  112675  112677  112678  112679  112678  112680  112681  112682
  112681  112683  112684  112685  112684  112686  112687  112688
  112687  112689  112690  112691  112690  112692  112693  112694
  112693  112695  112696  112697  112696  112698  112699  112700
  112699  112701  112702  112703  112702  112704  112705  112706
  112705  112707  112708  112709  112708  112710  112711  112712
  112711  112713  112714  112715  112714  112716  112717  112718
  112717  112719  112720  112721  112720  112722  112723  112724
  112723  112725  112726  112727  112726  112728  112729  112730
  112729  112731  112732  112733  112732  112734  112735  112736
  112735  112737  112738  112739  112738  112740  112741  112742
  112741  112743  112744  112745  112744  112746  112747  112748
  112747  112749  112750  112751  112750  112752  112753  112754
  112753  112755  112756  112757  112756  112758  112759  112760
  112759  112761  112762  112763  112762  112764  112765  112766
  112765  112767  112768  112769  112768  112770  112771  112772
  112771  112773  112774  112775  112774  112776  112777  112778
  112777  112779  112780  112781  112780  112782  112783  112784
  112783  112785  112786  112787  112786  112788  112789  112790
  112789  112791  112792  112793  112792  112794  112795  112796
  112795  112797  112798  112799  112798  112800  112801  112802
  112801  112803  112804  112805  112804  112806  112807  112808
  112807  112809  112810  112811  112810  112812  112813  112814
  112813  112815  112816  112817  112816  112818  112819  112820
  112819  112821  112822  112823  112822  112824  112825  112826
  112825  112827  112828  112829  112828  112830  112831  112832
  112831  112833  112834  112835  112834  112836  112837  112838
  112837  112839  112840  112841  112840  112842  112843  112844
  112843  112845  112846  112847  112846  112848  112849  112850
  112849  112851  112852  112853  112852  112854  112855  112856
  112855  112857  112858  112859  112858  112860  112861  112862
  112861  112863  112864  112865  112864  112866  112867  112868
  112867  112869  112870  112871  112870  112872  112873  112874
  112873  112875  112876  112877  112876  112878  112879  112880
  112879  112881  112882  112883  112882  112884  112885  112886
  112885  112887  112888  112889  112888  112890  112891  112892
  112891  112893  112894  112895  112894  112896  112897  112898
  112897  112899  112900  112901  112900  112902  112903  112904
  112903  112905  112906  112907  112906  112908  112909  112910
  112909  112911  112912  112913  112912  112914  112915  112916
  112915  112917  112918  112919  112918  112920  112921  112922
  112921  112923  112924  112925  112924  112926  112927  112928
  112927  112929  112930  112931  112930  112932  112933  112934
  112933  112935  112936  112937  112936  112938  112939  112940
  112939  112941  112942  112943  112942  112944  112945  112946
  112945  112947  112948  112949  112948  112950  112951  112952
  112951  112953  112954  112955  112954  112956  112957  112958
  112957  112959  112960  112961  112960  112962  112963  112964
  112963  112965  112966  112967  112966  112968  112969  112970
  112969  112971  112972  112973  112972  112974  112975  112976
  112975  112977  112978  112979  112978  112980  112981  112982
  112981  112983  112984  112985  112984  112986  112987  112988
  112987  112989  112990  112991  112990  112992  112993  112994
  112993  112995  112996  112997  112996  112998  112999  113000
  112999  113001  113002  113003  113002  113004  113005  113006
  113005  113007  113008  113009  113008  113010  113011  113012
  113011  113013  113014  113015  113014  113016  113017  113018
  113017  113019  113020  113021  113020  113022  113023  113024
  113023  113025  113026  113027  113026  113028  113029  113030
  113029  113031  113032  113033  113032  113034  113035  113036
  113035  113037  113038  113039  113038  113040  113041  113042
  113041  113043  113044  113045  113044  113046  113047  113048
  113047  113049  113050  113051  113050  113052  113053  113054
  113053  113055  113056  113057  113056  113058  113059  113060
  113059  113061  113062  113063  113062  113064  113065  113066
  113065  113067  113068  113069  113068  113070  113071  113072
  113071  113073  113074  113075  113074  113076  113077  113078
  113077  113079  113080  113081  113080  113082  113083  113084
  113083  113085  113086  113087  113086  113088  113089  113090
  113089  113091  113092  113093  113092  113094  113095  113096
  113095  113097  113098  113099  113098  113100  113101  113102
  113101  113103  113104  113105  113104  113106  113107  113108
  113107  113109  113110  113111  113110  113112  113113  113114
  113113  113115  113116  113117  113116  113118  113119  113120
  113119  113121  113122  113123  113122  113124  113125  113126
  113125  113127  113128  113129  113128  113130  113131  113132
  113131  113133  113134  113135  113134  113136  113137  113138
  113137  113139  113140  113141  113140  113142  113143  113144
  113143  113145  113146  113147  113146  113148  113149  113150
  113149  113151  113152  113153  113152  113154  113155  113156
  113155  113157  113158  113159  113158  113160  113161  113162
  113161  113163  113164  113165  113164  113166  113167  113168
  113167  113169  113170  113171  113170  113172  113173  113174
  113173  113175  113176  113177  113176  113178  113179  113180
  113179  113181  113182  113183  113182  113184  113185  113186
  113185  113187  113188  113189  113188  113190  113191  113192
  113191  113193  113194  113195  113194  113196  113197  113198
  113197  113199  113200  113201  113200  113202  113203  113204
  113203  113205  113206  113207  113206  113208  113209  113210
  113209  113211  113212  113213  113212  113214  113215  113216
  113215  113217  113218  113219  113218  113220  113221  113222
  113221  113223  113224  113225  113224  113226  113227  113228
  113227  113229  113230  113231  113230  113232  113233  113234
  113233  113235  113236  113237  113236  113238  113239  113240
  113239  113241  113242  113243  113242  113244  113245  113246
  113245  113247  113248  113249  113248  113250  113251  113252
  113251  113253  113254  113255  113254  113256  113257  113258
  113257  113259  113260  113261  113260  113262  113263  113264
  113263  113265  113266  113267  113266  113268  113269  113270
  113269  113271  113272  113273  113272  113274  113275  113276
  113275  113277  113278  113279  113278  113280  113281  113282
  113281  113283  113284  113285  113284  113286  113287  113288
  113287  113289  113290  113291  113290  113292  113293  113294
  113293  113295  113296  113297  113296  113298  113299  113300
  113299  113301  113302  113303  113302  113304  113305  113306
  113305  113307  113308  113309  113308  113310  113311  113312
  113311  113313  113314  113315  113314  113316  113317  113318
  113317  113319  113320  113321  113320  113322  113323  113324
  113323  113325  113326  113327  113326  113328  113329  113330
  113329  113331  113332  113333  113332  113334  113335  113336
  113335  113337  113338  113339  113338  113340  113341  113342
  113341  113343  113344  113345  113344  113346  113347  113348
  113347  113349  113350  113351  113350  113352  113353  113354
  113353  113355  113356  113357  113356  113358  113359  113360
  113359  113361  113362  113363  113362  113364  113365  113366
  113365  113367  113368  113369  113368  113370  113371  113372
  113371  113373  113374  113375  113374  113376  113377  113378
  113377  113379  113380  113381  113380  113382  113383  113384
  113383  113385  113386  113387  113386  113388  113389  113390
  113389  113391  113392  113393  113392  113394  113395  113396
  113395  113397  113398  113399  113398  113400  113401  113402
  113401  113403  113404  113405  113404  113406  113407  113408
  113407  113409  113410  113411  113410  113412  113413  113414
  113413  113415  113416  113417  113416  113418  113419  113420
  113419  113421  113422  113423  113422  113424  113425  113426
  113425  113427  113428  113429  113428  113430  113431  113432
  113431  113433  113434  113435  113434  113436  113437  113438
  113437  113439  113440  113441  113440  113442  113443  113444
  113443  113445  113446  113447  113446  113448  113449  113450
  113449  113451  113452  113453  113452  113454  113455  113456
  113455  113457  113458  113459  113458  113460  113461  113462
  113461  113463  113464  113465  113464  113466  113467  113468
  113467  113469  113470  113471  113470  113472  113473  113474
  113473  113475  113476  113477  113476  113478  113479  113480
  113479  113481  113482  113483  113482  113484  113485  113486
  113485  113487  113488  113489  113488  113490  113491  113492
  113491  113493  113494  113495  113494  113496  113497  113498
  113497  113499  113500  113501  113500  113502  113503  113504
  113503  113505  113506  113507  113506  113508  113509  113510
  113509  113511  113512  113513  113512  113514  113515  113516
  113515  113517  113518  113519  113518  113520  113521  113522
  113521  113523  113524  113525  113524  113526  113527  113528
  113527  113529  113530  113531  113530  113532  113533  113534
  113533  113535  113536  113537  113536  113538  113539  113540
  113539  113541  113542  113543  113542  113544  113545  113546
  113545  113547  113548  113549  113548  113550  113551  113552
  113551  113553  113554  113555  113554  113556  113557  113558
  113557  113559  113560  113561  113560  113562  113563  113564
  113563  113565  113566  113567  113566  113568  113569  113570
  113569  113571  113572  113573  113572  113574  113575  113576
  113575  113577  113578  113579  113578  113580  113581  113582
  113581  113583  113584  113585  113584  113586  113587  113588
  113587  113589  113590  113591  113590  113592  113593  113594
  113593  113595  113596  113597  113596  113598  113599  113600
  113599  113601  113602  113603  113602  113604  113605  113606
  113605  113607  113608  113609  113608  113610  113611  113612
  113611  113613  113614  113615  113614  113616  113617  113618
  113617  113619  113620  113621  113620  113622  113623  113624
  113623  113625  113626  113627  113626  113628  113629  113630
  113629  113631  113632  113633  113632  113634  113635  113636
  113635  113637  113638  113639  113638  113640  113641  113642
  113641  113643  113644  113645  113644  113646  113647  113648
  113647  113649  113650  113651  113650  113652  113653  113654
  113653  113655  113656  113657  113656  113658  113659  113660
  113659  113661  113662  113663  113662  113664  113665  113666
  113665  113667  113668  113669  113668  113670  113671  113672
  113671  113673  113674  113675  113674  113676  113677  113678
  113677  113679  113680  113681  113680  113682  113683  113684
  113683  113685  113686  113687  113686  113688  113689  113690
  113689  113691  113692  113693  113692  113694  113695  113696
  113695  113697  113698  113699  113698  113700  113701  113702
  113701  113703  113704  113705  113704  113706  113707  113708
  113707  113709  113710  113711  113710  113712  113713  113714
  113713  113715  113716  113717  113716  113718  113719  113720
  113719  113721  113722  113723  113722  113724  113725  113726
  113725  113727  113728  113729  113728  113730  113731  113732
  113731  113733  113734  113735  113734  113736  113737  113738
  113737  113739  113740  113741  113740  113742  113743  113744
  113743  113745  113746  113747  113746  113748  113749  113750
  113749  113751  113752  113753  113752  113754  113755  113756
  113755  113757  113758  113759  113758  113760  113761  113762
  113761  113763  113764  113765  113764  113766  113767  113768
  113767  113769  113770  113771  113770  113772  113773  113774
  113773  113775  113776  113777  113776  113778  113779  113780
  113779  113781  113782  113783  113782  113784  113785  113786
  113785  113787  113788  113789  113788  113790  113791  113792
  113791  113793  113794  113795  113794  113796  113797  113798
  113797  113799  113800  113801  113800  113802  113803  113804
  113803  113805  113806  113807  113806  113808  113809  113810
  113809  113811  113812  113813  113812  113814  113815  113816
  113815  113817  113818  113819  113818  113820  113821  113822
  113821  113823  113824  113825  113824  113826  113827  113828
  113827  113829  113830  113831  113830  113832  113833  113834
  113833  113835  113836  113837  113836  113838  113839  113840
  113839  113841  113842  113843  113842  113844  113845  113846
  113845  113847  113848  113849  113848  113850  113851  113852
  113851  113853  113854  113855  113854  113856  113857  113858
  113857  113859  113860  113861  113860  113862  113863  113864
  113863  113865  113866  113867  113866  113868  113869  113870
  113869  113871  113872  113873  113872  113874  113875  113876
  113875  113877  113878  113879  113878  113880  113881  113882
  113881  113883  113884  113885  113884  113886  113887  113888
  113887  113889  113890  113891  113890  113892  113893  113894
  113893  113895  113896  113897  113896  113898  113899  113900
  113899  113901  113902  113903  113902  113904  113905  113906
  113905  113907  113908  113909  113908  113910  113911  113912
  113911  113913  113914  113915  113914  113916  113917  113918
  113917  113919  113920  113921  113920  113922  113923  113924
  113923  113925  113926  113927  113926  113928  113929  113930
  113929  113931  113932  113933  113932  113934  113935  113936
  113935  113937  113938  113939  113938  113940  113941  113942
  113941  113943  113944  113945  113944  113946  113947  113948
  113947  113949  113950  113951  113950  113952  113953  113954
  113953  113955  113956  113957  113956  113958  113959  113960
  113959  113961  113962  113963  113962  113964  113965  113966
  113965  113967  113968  113969  113968  113970  113971  113972
  113971  113973  113974  113975  113974  113976  113977  113978
  113977  113979  113980  113981  113980  113982  113983  113984
  113983  113985  113986  113987  113986  113988  113989  113990
  113989  113991  113992  113993  113992  113994  113995  113996
  113995  113997  113998  113999  113998  114000  114001  114002
  114001  114003  114004  114005  114004  114006  114007  114008
  114007  114009  114010  114011  114010  114012  114013  114014
  114013  114015  114016  114017  114016  114018  114019  114020
  114019  114021  114022  114023  114022  114024  114025  114026
  114025  114027  114028  114029  114028  114030  114031  114032
  114031  114033  114034  114035  114034  114036  114037  114038
  114037  114039  114040  114041  114040  114042  114043  114044
  114043  114045  114046  114047  114046  114048  114049  114050
  114049  114051  114052  114053  114052  114054  114055  114056
  114055  114057  114058  114059  114058  114060  114061  114062
  114061  114063  114064  114065  114064  114066  114067  114068
  114067  114069  114070  114071  114070  114072  114073  114074
  114073  114075  114076  114077  114076  114078  114079  114080
  114079  114081  114082  114083  114082  114084  114085  114086
  114085  114087  114088  114089  114088  114090  114091  114092
  114091  114093  114094  114095  114094  114096  114097  114098
  114097  114099  114100  114101  114100  114102  114103  114104
  114103  114105  114106  114107  114106  114108  114109  114110
  114109  114111  114112  114113  114112  114114  114115  114116
  114115  114117  114118  114119  114118  114120  114121  114122
  114121  114123  114124  114125  114124  114126  114127  114128
  114127  114129  114130  114131  114130  114132  114133  114134
  114133  114135  114136  114137  114136  114138  114139  114140
  114139  114141  114142  114143  114142  114144  114145  114146
  114145  114147  114148  114149  114148  114150  114151  114152
  114151  114153  114154  114155  114154  114156  114157  114158
  114157  114159  114160  114161  114160  114162  114163  114164
  114163  114165  114166  114167  114166  114168  114169  114170
  114169  114171  114172  114173  114172  114174  114175  114176
  114175  114177  114178  114179  114178  114180  114181  114182
  114181  114183  114184  114185  114184  114186  114187  114188
  114187  114189  114190  114191  114190  114192  114193  114194
  114193  114195  114196  114197  114196  114198  114199  114200
  114199  114201  114202  114203  114202  114204  114205  114206
  114205  114207  114208  114209  114208  114210  114211  114212
  114211  114213  114214  114215  114214  114216  114217  114218
  114217  114219  114220  114221  114220  114222  114223  114224
  114223  114225  114226  114227  114226  114228  114229  114230
  114229  114231  114232  114233  114232  114234  114235  114236
  114235  114237  114238  114239  114238  114240  114241  114242
  114241  114243  114244  114245  114244  114246  114247  114248
  114247  114249  114250  114251  114250  114252  114253  114254
  114253  114255  114256  114257  114256  114258  114259  114260
  114259  114261  114262  114263  114262  114264  114265  114266
  114265  114267  114268  114269  114268  114270  114271  114272
  114271  114273  114274  114275  114274  114276  114277  114278
  114277  114279  114280  114281  114280  114282  114283  114284
  114283  114285  114286  114287  114286  114288  114289  114290
  114289  114291  114292  114293  114292  114294  114295  114296
  114295  114297  114298  114299  114298  114300  114301  114302
  114301  114303  114304  114305  114304  114306  114307  114308
  114307  114309  114310  114311  114310  114312  114313  114314
  114313  114315  114316  114317  114316  114318  114319  114320
  114319  114321  114322  114323  114322  114324  114325  114326
  114325  114327  114328  114329  114328  114330  114331  114332
  114331  114333  114334  114335  114334  114336  114337  114338
  114337  114339  114340  114341  114340  114342  114343  114344
  114343  114345  114346  114347  114346  114348  114349  114350
  114349  114351  114352  114353  114352  114354  114355  114356
  114355  114357  114358  114359  114358  114360  114361  114362
  114361  114363  114364  114365  114364  114366  114367  114368
  114367  114369  114370  114371  114370  114372  114373  114374
  114373  114375  114376  114377  114376  114378  114379  114380
  114379  114381  114382  114383  114382  114384  114385  114386
  114385  114387  114388  114389  114388  114390  114391  114392
  114391  114393  114394  114395  114394  114396  114397  114398
  114397  114399  114400  114401  114400  114402  114403  114404
  114403  114405  114406  114407  114406  114408  114409  114410
  114409  114411  114412  114413  114412  114414  114415  114416
  114415  114417  114418  114419  114418  114420  114421  114422
  114421  114423  114424  114425  114424  114426  114427  114428
  114427  114429  114430  114431  114430  114432  114433  114434
  114433  114435  114436  114437  114436  114438  114439  114440
  114439  114441  114442  114443  114442  114444  114445  114446
  114445  114447  114448  114449  114448  114450  114451  114452
  114451  114453  114454  114455  114454  114456  114457  114458
  114457  114459  114460  114461  114460  114462  114463  114464
  114463  114465  114466  114467  114466  114468  114469  114470
  114469  114471  114472  114473  114472  114474  114475  114476
  114475  114477  114478  114479  114478  114480  114481  114482
  114481  114483  114484  114485  114484  114486  114487  114488
  114487  114489  114490  114491  114490  114492  114493  114494
  114493  114495  114496  114497  114496  114498  114499  114500
  114499  114501  114502  114503  114502  114504  114505  114506
  114505  114507  114508  114509  114508  114510  114511  114512
  114511  114513  114514  114515  114514  114516  114517  114518
  114517  114519  114520  114521  114520  114522  114523  114524
  114523  114525  114526  114527  114526  114528  114529  114530
  114529  114531  114532  114533  114532  114534  114535  114536
  114535  114537  114538  114539  114538  114540  114541  114542
  114541  114543  114544  114545  114544  114546  114547  114548
  114547  114549  114550  114551  114550  114552  114553  114554
  114553  114555  114556  114557  114556  114558  114559  114560
  114559  114561  114562  114563  114562  114564  114565  114566
  114565  114567  114568  114569  114568  114570  114571  114572
  114571  114573  114574  114575  114574  114576  114577  114578
  114577  114579  114580  114581  114580  114582  114583  114584
  114583  114585  114586  114587  114586  114588  114589  114590
  114589  114591  114592  114593  114592  114594  114595  114596
  114595  114597  114598  114599  114598  114600  114601  114602
  114601  114603  114604  114605  114604  114606  114607  114608
  114607  114609  114610  114611  114610  114612  114613  114614
  114613  114615  114616  114617  114616  114618  114619  114620
  114619  114621  114622  114623  114622  114624  114625  114626
  114625  114627  114628  114629  114628  114630  114631  114632
  114631  114633  114634  114635  114634  114636  114637  114638
  114637  114639  114640  114641  114640  114642  114643  114644
  114643  114645  114646  114647  114646  114648  114649  114650
  114649  114651  114652  114653  114652  114654  114655  114656
  114655  114657  114658  114659  114658  114660  114661  114662
  114661  114663  114664  114665  114664  114666  114667  114668
  114667  114669  114670  114671  114670  114672  114673  114674
  114673  114675  114676  114677  114676  114678  114679  114680
  114679  114681  114682  114683  114682  114684  114685  114686
  114685  114687  114688  114689  114688  114690  114691  114692
  114691  114693  114694  114695  114694  114696  114697  114698
  114697  114699  114700  114701  114700  114702  114703  114704
  114703  114705  114706  114707  114706  114708  114709  114710
  114709  114711  114712  114713  114712  114714  114715  114716
  114715  114717  114718  114719  114718  114720  114721  114722
  114721  114723  114724  114725  114724  114726  114727  114728
  114727  114729  114730  114731  114730  114732  114733  114734
  114733  114735  114736  114737  114736  114738  114739  114740
  114739  114741  114742  114743  114742  114744  114745  114746
  114745  114747  114748  114749  114748  114750  114751  114752
  114751  114753  114754  114755  114754  114756  114757  114758
  114757  114759  114760  114761  114760  114762  114763  114764
  114763  114765  114766  114767  114766  114768  114769  114770
  114769  114771  114772  114773  114772  114774  114775  114776
  114775  114777  114778  114779  114778  114780  114781  114782
  114781  114783  114784  114785  114784  114786  114787  114788
  114787  114789  114790  114791  114790  114792  114793  114794
  114793  114795  114796  114797  114796  114798  114799  114800
  114799  114801  114802  114803  114802  114804  114805  114806
  114805  114807  114808  114809  114808  114810  114811  114812
  114811  114813  114814  114815  114814  114816  114817  114818
  114817  114819  114820  114821  114820  114822  114823  114824
  114823  114825  114826  114827  114826  114828  114829  114830
  114829  114831  114832  114833  114832  114834  114835  114836
  114835  114837  114838  114839  114838  114840  114841  114842
  114841  114843  114844  114845  114844  114846  114847  114848
  114847  114849  114850  114851  114850  114852  114853  114854
  114853  114855  114856  114857  114856  114858  114859  114860
  114859  114861  114862  114863  114862  114864  114865  114866
  114865  114867  114868  114869  114868  114870  114871  114872
  114871  114873  114874  114875  114874  114876  114877  114878
  114877  114879  114880  114881  114880  114882  114883  114884
  114883  114885  114886  114887  114886  114888  114889  114890
  114889  114891  114892  114893  114892  114894  114895  114896
  114895  114897  114898  114899  114898  114900  114901  114902
  114901  114903  114904  114905  114904  114906  114907  114908
  114907  114909  114910  114911  114910  114912  114913  114914
  114913  114915  114916  114917  114916  114918  114919  114920
  114919  114921  114922  114923  114922  114924  114925  114926
  114925  114927  114928  114929  114928  114930  114931  114932
  114931  114933  114934  114935  114934  114936  114937  114938
  114937  114939  114940  114941  114940  114942  114943  114944
  114943  114945  114946  114947  114946  114948  114949  114950
  114949  114951  114952  114953  114952  114954  114955  114956
  114955  114957  114958  114959  114958  114960  114961  114962
  114961  114963  114964  114965  114964  114966  114967  114968
  114967  114969  114970  114971  114970  114972  114973  114974
  114973  114975  114976  114977  114976  114978  114979  114980
  114979  114981  114982  114983  114982  114984  114985  114986
  114985  114987  114988  114989  114988  114990  114991  114992
  114991  114993  114994  114995  114994  114996  114997  114998
  114997  114999  115000  115001  115000  115002  115003  115004
  115003  115005  115006  115007  115006  115008  115009  115010
  115009  115011  115012  115013  115012  115014  115015  115016
  115015  115017  115018  115019  115018  115020  115021  115022
  115021  115023  115024  115025  115024  115026  115027  115028
  115027  115029  115030  115031  115030  115032  115033  115034
  115033  115035  115036  115037  115036  115038  115039  115040
  115039  115041  115042  115043  115042  115044  115045  115046
  115045  115047  115048  115049  115048  115050  115051  115052
  115051  115053  115054  115055  115054  115056  115057  115058
  115057  115059  115060  115061  115060  115062  115063  115064
  115063  115065  115066  115067  115066  115068  115069  115070
  115069  115071  115072  115073  115072  115074  115075  115076
  115075  115077  115078  115079  115078  115080  115081  115082
  115081  115083  115084  115085  115084  115086  115087  115088
  115087  115089  115090  115091  115090  115092  115093  115094
  115093  115095  115096  115097  115096  115098  115099  115100
  115099  115101  115102  115103  115102  115104  115105  115106
  115105  115107  115108  115109  115108  115110  115111  115112
  115111  115113  115114  115115  115114  115116  115117  115118
  115117  115119  115120  115121  115120  115122  115123  115124
  115123  115125  115126  115127  115126  115128  115129  115130
  115129  115131  115132  115133  115132  115134  115135  115136
  115135  115137  115138  115139  115138  115140  115141  115142
  115141  115143  115144  115145  115144  115146  115147  115148
  115147  115149  115150  115151  115150  115152  115153  115154
  115153  115155  115156  115157  115156  115158  115159  115160
  115159  115161  115162  115163  115162  115164  115165  115166
  115165  115167  115168  115169  115168  115170  115171  115172
  115171  115173  115174  115175  115174  115176  115177  115178
  115177  115179  115180  115181  115180  115182  115183  115184
  115183  115185  115186  115187  115186  115188  115189  115190
  115189  115191  115192  115193  115192  115194  115195  115196
  115195  115197  115198  115199  115198  115200  115201  115202
  115201  115203  115204  115205  115204  115206  115207  115208
  115207  115209  115210  115211  115210  115212  115213  115214
  115213  115215  115216  115217  115216  115218  115219  115220
  115219  115221  115222  115223  115222  115224  115225  115226
  115225  115227  115228  115229  115228  115230  115231  115232
  115231  115233  115234  115235  115234  115236  115237  115238
  115237  115239  115240  115241  115240  115242  115243  115244
  115243  115245  115246  115247  115246  115248  115249  115250
  115249  115251  115252  115253  115252  115254  115255  115256
  115255  115257  115258  115259  115258  115260  115261  115262
  115261  115263  115264  115265  115264  115266  115267  115268
  115267  115269  115270  115271  115270  115272  115273  115274
  115273  115275  115276  115277  115276  115278  115279  115280
  115279  115281  115282  115283  115282  115284  115285  115286
  115285  115287  115288  115289  115288  115290  115291  115292
  115291  115293  115294  115295  115294  115296  115297  115298
  115297  115299  115300  115301  115300  115302  115303  115304
  115303  115305  115306  115307  115306  115308  115309  115310
  115309  115311  115312  115313  115312  115314  115315  115316
  115315  115317  115318  115319  115318  115320  115321  115322
  115321  115323  115324  115325  115324  115326  115327  115328
  115327  115329  115330  115331  115330  115332  115333  115334
  115333  115335  115336  115337  115336  115338  115339  115340
  115339  115341  115342  115343  115342  115344  115345  115346
  115345  115347  115348  115349  115348  115350  115351  115352
  115351  115353  115354  115355  115354  115356  115357  115358
  115357  115359  115360  115361  115360  115362  115363  115364
  115363  115365  115366  115367  115366  115368  115369  115370
  115369  115371  115372  115373  115372  115374  115375  115376
  115375  115377  115378  115379  115378  115380  115381  115382
  115381  115383  115384  115385  115384  115386  115387  115388
  115387  115389  115390  115391  115390  115392  115393  115394
  115393  115395  115396  115397  115396  115398  115399  115400
  115399  115401  115402  115403  115402  115404  115405  115406
  115405  115407  115408  115409  115408  115410  115411  115412
  115411  115413  115414  115415  115414  115416  115417  115418
  115417  115419  115420  115421  115420  115422  115423  115424
  115423  115425  115426  115427  115426  115428  115429  115430
  115429  115431  115432  115433  115432  115434  115435  115436
  115435  115437  115438  115439  115438  115440  115441  115442
  115441  115443  115444  115445  115444  115446  115447  115448
  115447  115449  115450  115451  115450  115452  115453  115454
  115453  115455  115456  115457  115456  115458  115459  115460
  115459  115461  115462  115463  115462  115464  115465  115466
  115465  115467  115468  115469  115468  115470  115471  115472
  115471  115473  115474  115475  115474  115476  115477  115478
  115477  115479  115480  115481  115480  115482  115483  115484
  115483  115485  115486  115487  115486  115488  115489  115490
  115489  115491  115492  115493  115492  115494  115495  115496
  115495  115497  115498  115499  115498  115500  115501  115502
  115501  115503  115504  115505  115504  115506  115507  115508
  115507  115509  115510  115511  115510  115512  115513  115514
  115513  115515  115516  115517  115516  115518  115519  115520
  115519  115521  115522  115523  115522  115524  115525  115526
  115525  115527  115528  115529  115528  115530  115531  115532
  115531  115533  115534  115535  115534  115536  115537  115538
  115537  115539  115540  115541  115540  115542  115543  115544
  115543  115545  115546  115547  115546  115548  115549  115550
  115549  115551  115552  115553  115552  115554  115555  115556
  115555  115557  115558  115559  115558  115560  115561  115562
  115561  115563  115564  115565  115564  115566  115567  115568
  115567  115569  115570  115571  115570  115572  115573  115574
  115573  115575  115576  115577  115576  115578  115579  115580
  115579  115581  115582  115583  115582  115584  115585  115586
  115585  115587  115588  115589  115588  115590  115591  115592
  115591  115593  115594  115595  115594  115596  115597  115598
  115597  115599  115600  115601  115600  115602  115603  115604
  115603  115605  115606  115607  115606  115608  115609  115610
  115609  115611  115612  115613  115612  115614  115615  115616
  115615  115617  115618  115619  115618  115620  115621  115622
  115621  115623  115624  115625  115624  115626  115627  115628
  115627  115629  115630  115631  115630  115632  115633  115634
  115633  115635  115636  115637  115636  115638  115639  115640
  115639  115641  115642  115643  115642  115644  115645  115646
  115645  115647  115648  115649  115648  115650  115651  115652
  115651  115653  115654  115655  115654  115656  115657  115658
  115657  115659  115660  115661  115660  115662  115663  115664
  115663  115665  115666  115667  115666  115668  115669  115670
  115669  115671  115672  115673  115672  115674  115675  115676
  115675  115677  115678  115679  115678  115680  115681  115682
  115681  115683  115684  115685  115684  115686  115687  115688
  115687  115689  115690  115691  115690  115692  115693  115694
  115693  115695  115696  115697  115696  115698  115699  115700
  115699  115701  115702  115703  115702  115704  115705  115706
  115705  115707  115708  115709  115708  115710  115711  115712
  115711  115713  115714  115715  115714  115716  115717  115718
  115717  115719  115720  115721  115720  115722  115723  115724
  115723  115725  115726  115727  115726  115728  115729  115730
  115729  115731  115732  115733  115732  115734  115735  115736
  115735  115737  115738  115739  115738  115740  115741  115742
  115741  115743  115744  115745  115744  115746  115747  115748
  115747  115749  115750  115751  115750  115752  115753  115754
  115753  115755  115756  115757  115756  115758  115759  115760
  115759  115761  115762  115763  115762  115764  115765  115766
  115765  115767  115768  115769  115768  115770  115771  115772
  115771  115773  115774  115775  115774  115776  115777  115778
  115777  115779  115780  115781  115780  115782  115783  115784
  115783  115785  115786  115787  115786  115788  115789  115790
  115789  115791  115792  115793  115792  115794  115795  115796
  115795  115797  115798  115799  115798  115800  115801  115802
  115801  115803  115804  115805  115804  115806  115807  115808
  115807  115809  115810  115811  115810  115812  115813  115814
  115813  115815  115816  115817  115816  115818  115819  115820
  115819  115821  115822  115823  115822  115824  115825  115826
  115825  115827  115828  115829  115828  115830  115831  115832
  115831  115833  115834  115835  115834  115836  115837  115838
  115837  115839  115840  115841  115840  115842  115843  115844
  115843  115845  115846  115847  115846  115848  115849  115850
  115849  115851  115852  115853  115852  115854  115855  115856
  115855  115857  115858  115859  115858  115860  115861  115862
  115861  115863  115864  115865  115864  115866  115867  115868
  115867  115869  115870  115871  115870  115872  115873  115874
  115873  115875  115876  115877  115876  115878  115879  115880
  115879  115881  115882  115883  115882  115884  115885  115886
  115885  115887  115888  115889  115888  115890  115891  115892
  115891  115893  115894  115895  115894  115896  115897  115898
  115897  115899  115900  115901  115900  115902  115903  115904
  115903  115905  115906  115907  115906  115908  115909  115910
  115909  115911  115912  115913  115912  115914  115915  115916
  115915  115917  115918  115919  115918  115920  115921  115922
  115921  115923  115924  115925  115924  115926  115927  115928
  115927  115929  115930  115931  115930  115932  115933  115934
  115933  115935  115936  115937  115936  115938  115939  115940
  115939  115941  115942  115943  115942  115944  115945  115946
  115945  115947  115948  115949  115948  115950  115951  115952
  115951  115953  115954  115955  115954  115956  115957  115958
  115957  115959  115960  115961  115960  115962  115963  115964
  115963  115965  115966  115967  115966  115968  115969  115970
  115969  115971  115972  115973  115972  115974  115975  115976
  115975  115977  115978  115979  115978  115980  115981  115982
  115981  115983  115984  115985  115984  115986  115987  115988
  115987  115989  115990  115991  115990  115992  115993  115994
  115993  115995  115996  115997  115996  115998  115999  116000
  115999  116001  116002  116003  116002  116004  116005  116006
  116005  116007  116008  116009  116008  116010  116011  116012
  116011  116013  116014  116015  116014  116016  116017  116018
  116017  116019  116020  116021  116020  116022  116023  116024
  116023  116025  116026  116027  116026  116028  116029  116030
  116029  116031  116032  116033  116032  116034  116035  116036
  116035  116037  116038  116039  116038  116040  116041  116042
  116041  116043  116044  116045  116044  116046  116047  116048
  116047  116049  116050  116051  116050  116052  116053  116054
  116053  116055  116056  116057  116056  116058  116059  116060
  116059  116061  116062  116063  116062  116064  116065  116066
  116065  116067  116068  116069  116068  116070  116071  116072
  116071  116073  116074  116075  116074  116076  116077  116078
  116077  116079  116080  116081  116080  116082  116083  116084
  116083  116085  116086  116087  116086  116088  116089  116090
  116089  116091  116092  116093  116092  116094  116095  116096
  116095  116097  116098  116099  116098  116100  116101  116102
  116101  116103  116104  116105  116104  116106  116107  116108
  116107  116109  116110  116111  116110  116112  116113  116114
  116113  116115  116116  116117  116116  116118  116119  116120
  116119  116121  116122  116123  116122  116124  116125  116126
  116125  116127  116128  116129  116128  116130  116131  116132
  116131  116133  116134  116135  116134  116136  116137  116138
  116137  116139  116140  116141  116140  116142  116143  116144
  116143  116145  116146  116147  116146  116148  116149  116150
  116149  116151  116152  116153  116152  116154  116155  116156
  116155  116157  116158  116159  116158  116160  116161  116162
  116161  116163  116164  116165  116164  116166  116167  116168
  116167  116169  116170  116171  116170  116172  116173  116174
  116173  116175  116176  116177  116176  116178  116179  116180
  116179  116181  116182  116183  116182  116184  116185  116186
  116185  116187  116188  116189  116188  116190  116191  116192
  116191  116193  116194  116195  116194  116196  116197  116198
  116197  116199  116200  116201  116200  116202  116203  116204
  116203  116205  116206  116207  116206  116208  116209  116210
  116209  116211  116212  116213  116212  116214  116215  116216
  116215  116217  116218  116219  116218  116220  116221  116222
  116221  116223  116224  116225  116224  116226  116227  116228
  116227  116229  116230  116231  116230  116232  116233  116234
  116233  116235  116236  116237  116236  116238  116239  116240
  116239  116241  116242  116243  116242  116244  116245  116246
  116245  116247  116248  116249  116248  116250  116251  116252
  116251  116253  116254  116255  116254  116256  116257  116258
  116257  116259  116260  116261  116260  116262  116263  116264
  116263  116265  116266  116267  116266  116268  116269  116270
  116269  116271  116272  116273  116272  116274  116275  116276
  116275  116277  116278  116279  116278  116280  116281  116282
  116281  116283  116284  116285  116284  116286  116287  116288
  116287  116289  116290  116291  116290  116292  116293  116294
  116293  116295  116296  116297  116296  116298  116299  116300
  116299  116301  116302  116303  116302  116304  116305  116306
  116305  116307  116308  116309  116308  116310  116311  116312
  116311  116313  116314  116315  116314  116316  116317  116318
  116317  116319  116320  116321  116320  116322  116323  116324
  116323  116325  116326  116327  116326  116328  116329  116330
  116329  116331  116332  116333  116332  116334  116335  116336
  116335  116337  116338  116339  116338  116340  116341  116342
  116341  116343  116344  116345  116344  116346  116347  116348
  116347  116349  116350  116351  116350  116352  116353  116354
  116353  116355  116356  116357  116356  116358  116359  116360
  116359  116361  116362  116363  116362  116364  116365  116366
  116365  116367  116368  116369  116368  116370  116371  116372
  116371  116373  116374  116375  116374  116376  116377  116378
  116377  116379  116380  116381  116380  116382  116383  116384
  116383  116385  116386  116387  116386  116388  116389  116390
  116389  116391  116392  116393  116392  116394  116395  116396
  116395  116397  116398  116399  116398  116400  116401  116402
  116401  116403  116404  116405  116404  116406  116407  116408
  116407  116409  116410  116411  116410  116412  116413  116414
  116413  116415  116416  116417  116416  116418  116419  116420
  116419  116421  116422  116423  116422  116424  116425  116426
  116425  116427  116428  116429  116428  116430  116431  116432
  116431  116433  116434  116435  116434  116436  116437  116438
  116437  116439  116440  116441  116440  116442  116443  116444
  116443  116445  116446  116447  116446  116448  116449  116450
  116449  116451  116452  116453  116452  116454  116455  116456
  116455  116457  116458  116459  116458  116460  116461  116462
  116461  116463  116464  116465  116464  116466  116467  116468
  116467  116469  116470  116471  116470  116472  116473  116474
  116473  116475  116476  116477  116476  116478  116479  116480
  116479  116481  116482  116483  116482  116484  116485  116486
  116485  116487  116488  116489  116488  116490  116491  116492
  116491  116493  116494  116495  116494  116496  116497  116498
  116497  116499  116500  116501  116500  116502  116503  116504
  116503  116505  116506  116507  116506  116508  116509  116510
  116509  116511  116512  116513  116512  116514  116515  116516
  116515  116517  116518  116519  116518  116520  116521  116522
  116521  116523  116524  116525  116524  116526  116527  116528
  116527  116529  116530  116531  116530  116532  116533  116534
  116533  116535  116536  116537  116536  116538  116539  116540
  116539  116541  116542  116543  116542  116544  116545  116546
  116545  116547  116548  116549  116548  116550  116551  116552
  116551  116553  116554  116555  116554  116556  116557  116558
  116557  116559  116560  116561  116560  116562  116563  116564
  116563  116565  116566  116567  116566  116568  116569  116570
  116569  116571  116572  116573  116572  116574  116575  116576
  116575  116577  116578  116579  116578  116580  116581  116582
  116581  116583  116584  116585  116584  116586  116587  116588
  116587  116589  116590  116591  116590  116592  116593  116594
  116593  116595  116596  116597  116596  116598  116599  116600
  116599  116601  116602  116603  116602  116604  116605  116606
  116605  116607  116608  116609  116608  116610  116611  116612
  116611  116613  116614  116615  116614  116616  116617  116618
  116617  116619  116620  116621  116620  116622  116623  116624
  116623  116625  116626  116627  116626  116628  116629  116630
  116629  116631  116632  116633  116632  116634  116635  116636
  116635  116637  116638  116639  116638  116640  116641  116642
  116641  116643  116644  116645  116644  116646  116647  116648
  116647  116649  116650  116651  116650  116652  116653  116654
  116653  116655  116656  116657  116656  116658  116659  116660
  116659  116661  116662  116663  116662  116664  116665  116666
  116665  116667  116668  116669  116668  116670  116671  116672
  116671  116673  116674  116675  116674  116676  116677  116678
  116677  116679  116680  116681  116680  116682  116683  116684
  116683  116685  116686  116687  116686  116688  116689  116690
  116689  116691  116692  116693  116692  116694  116695  116696
  116695  116697  116698  116699  116698  116700  116701  116702
  116701  116703  116704  116705  116704  116706  116707  116708
  116707  116709  116710  116711  116710  116712  116713  116714
  116713  116715  116716  116717  116716  116718  116719  116720
  116719  116721  116722  116723  116722  116724  116725  116726
  116725  116727  116728  116729  116728  116730  116731  116732
  116731  116733  116734  116735  116734  116736  116737  116738
  116737  116739  116740  116741  116740  116742  116743  116744
  116743  116745  116746  116747  116746  116748  116749  116750
  116749  116751  116752  116753  116752  116754  116755  116756
  116755  116757  116758  116759  116758  116760  116761  116762
  116761  116763  116764  116765  116764  116766  116767  116768
  116767  116769  116770  116771  116770  116772  116773  116774
  116773  116775  116776  116777  116776  116778  116779  116780
  116779  116781  116782  116783  116782  116784  116785  116786
  116785  116787  116788  116789  116788  116790  116791  116792
  116791  116793  116794  116795  116794  116796  116797  116798
  116797  116799  116800  116801  116800  116802  116803  116804
  116803  116805  116806  116807  116806  116808  116809  116810
  116809  116811  116812  116813  116812  116814  116815  116816
  116815  116817  116818  116819  116818  116820  116821  116822
  116821  116823  116824  116825  116824  116826  116827  116828
  116827  116829  116830  116831  116830  116832  116833  116834
  116833  116835  116836  116837  116836  116838  116839  116840
  116839  116841  116842  116843  116842  116844  116845  116846
  116845  116847  116848  116849  116848  116850  116851  116852
  116851  116853  116854  116855  116854  116856  116857  116858
  116857  116859  116860  116861  116860  116862  116863  116864
  116863  116865  116866  116867  116866  116868  116869  116870
  116869  116871  116872  116873  116872  116874  116875  116876
  116875  116877  116878  116879  116878  116880  116881  116882
  116881  116883  116884  116885  116884  116886  116887  116888
  116887  116889  116890  116891  116890  116892  116893  116894
  116893  116895  116896  116897  116896  116898  116899  116900
  116899  116901  116902  116903  116902  116904  116905  116906
  116905  116907  116908  116909  116908  116910  116911  116912
  116911  116913  116914  116915  116914  116916  116917  116918
  116917  116919  116920  116921  116920  116922  116923  116924
  116923  116925  116926  116927  116926  116928  116929  116930
  116929  116931  116932  116933  116932  116934  116935  116936
  116935  116937  116938  116939  116938  116940  116941  116942
  116941  116943  116944  116945  116944  116946  116947  116948
  116947  116949  116950  116951  116950  116952  116953  116954
  116953  116955  116956  116957  116956  116958  116959  116960
  116959  116961  116962  116963  116962  116964  116965  116966
  116965  116967  116968  116969  116968  116970  116971  116972
  116971  116973  116974  116975  116974  116976  116977  116978
  116977  116979  116980  116981  116980  116982  116983  116984
  116983  116985  116986  116987  116986  116988  116989  116990
  116989  116991  116992  116993  116992  116994  116995  116996
  116995  116997  116998  116999  116998  117000  117001  117002
  117001  117003  117004  117005  117004  117006  117007  117008
  117007  117009  117010  117011  117010  117012  117013  117014
  117013  117015  117016  117017  117016  117018  117019  117020
  117019  117021  117022  117023  117022  117024  117025  117026
  117025  117027  117028  117029  117028  117030  117031  117032
  117031  117033  117034  117035  117034  117036  117037  117038
  117037  117039  117040  117041  117040  117042  117043  117044
  117043  117045  117046  117047  117046  117048  117049  117050
  117049  117051  117052  117053  117052  117054  117055  117056
  117055  117057  117058  117059  117058  117060  117061  117062
  117061  117063  117064  117065  117064  117066  117067  117068
  117067  117069  117070  117071  117070  117072  117073  117074
  117073  117075  117076  117077  117076  117078  117079  117080
  117079  117081  117082  117083  117082  117084  117085  117086
  117085  117087  117088  117089  117088  117090  117091  117092
  117091  117093  117094  117095  117094  117096  117097  117098
  117097  117099  117100  117101  117100  117102  117103  117104
  117103  117105  117106  117107  117106  117108  117109  117110
  117109  117111  117112  117113  117112  117114  117115  117116
  117115  117117  117118  117119  117118  117120  117121  117122
  117121  117123  117124  117125  117124  117126  117127  117128
  117127  117129  117130  117131  117130  117132  117133  117134
  117133  117135  117136  117137  117136  117138  117139  117140
  117139  117141  117142  117143  117142  117144  117145  117146
  117145  117147  117148  117149  117148  117150  117151  117152
  117151  117153  117154  117155  117154  117156  117157  117158
  117157  117159  117160  117161  117160  117162  117163  117164
  117163  117165  117166  117167  117166  117168  117169  117170
  117169  117171  117172  117173  117172  117174  117175  117176
  117175  117177  117178  117179  117178  117180  117181  117182
  117181  117183  117184  117185  117184  117186  117187  117188
  117187  117189  117190  117191  117190  117192  117193  117194
  117193  117195  117196  117197  117196  117198  117199  117200
  117199  117201  117202  117203  117202  117204  117205  117206
  117205  117207  117208  117209  117208  117210  117211  117212
  117211  117213  117214  117215  117214  117216  117217  117218
  117217  117219  117220  117221  117220  117222  117223  117224
  117223  117225  117226  117227  117226  117228  117229  117230
  117229  117231  117232  117233  117232  117234  117235  117236
  117235  117237  117238  117239  117238  117240  117241  117242
  117241  117243  117244  117245  117244  117246  117247  117248
  117247  117249  117250  117251  117250  117252  117253  117254
  117253  117255  117256  117257  117256  117258  117259  117260
  117259  117261  117262  117263  117262  117264  117265  117266
  117265  117267  117268  117269  117268  117270  117271  117272
  117271  117273  117274  117275  117274  117276  117277  117278
  117277  117279  117280  117281  117280  117282  117283  117284
  117283  117285  117286  117287  117286  117288  117289  117290
  117289  117291  117292  117293  117292  117294  117295  117296
  117295  117297  117298  117299  117298  117300  117301  117302
  117301  117303  117304  117305  117304  117306  117307  117308
  117307  117309  117310  117311  117310  117312  117313  117314
  117313  117315  117316  117317  117316  117318  117319  117320
  117319  117321  117322  117323  117322  117324  117325  117326
  117325  117327  117328  117329  117328  117330  117331  117332
  117331  117333  117334  117335  117334  117336  117337  117338
  117337  117339  117340  117341  117340  117342  117343  117344
  117343  117345  117346  117347  117346  117348  117349  117350
  117349  117351  117352  117353  117352  117354  117355  117356
  117355  117357  117358  117359  117358  117360  117361  117362
  117361  117363  117364  117365  117364  117366  117367  117368
  117367  117369  117370  117371  117370  117372  117373  117374
  117373  117375  117376  117377  117376  117378  117379  117380
  117379  117381  117382  117383  117382  117384  117385  117386
  117385  117387  117388  117389  117388  117390  117391  117392
  117391  117393  117394  117395  117394  117396  117397  117398
  117397  117399  117400  117401  117400  117402  117403  117404
  117403  117405  117406  117407  117406  117408  117409  117410
  117409  117411  117412  117413  117412  117414  117415  117416
  117415  117417  117418  117419  117418  117420  117421  117422
  117421  117423  117424  117425  117424  117426  117427  117428
  117427  117429  117430  117431  117430  117432  117433  117434
  117433  117435  117436  117437  117436  117438  117439  117440
  117439  117441  117442  117443  117442  117444  117445  117446
  117445  117447  117448  117449  117448  117450  117451  117452
  117451  117453  117454  117455  117454  117456  117457  117458
  117457  117459  117460  117461  117460  117462  117463  117464
  117463  117465  117466  117467  117466  117468  117469  117470
  117469  117471  117472  117473  117472  117474  117475  117476
  117475  117477  117478  117479  117478  117480  117481  117482
  117481  117483  117484  117485  117484  117486  117487  117488
  117487  117489  117490  117491  117490  117492  117493  117494
  117493  117495  117496  117497  117496  117498  117499  117500
  117499  117501  117502  117503  117502  117504  117505  117506
  117505  117507  117508  117509  117508  117510  117511  117512
  117511  117513  117514  117515  117514  117516  117517  117518
  117517  117519  117520  117521  117520  117522  117523  117524
  117523  117525  117526  117527  117526  117528  117529  117530
  117529  117531  117532  117533  117532  117534  117535  117536
  117535  117537  117538  117539  117538  117540  117541  117542
  117541  117543  117544  117545  117544  117546  117547  117548
  117547  117549  117550  117551  117550  117552  117553  117554
  117553  117555  117556  117557  117556  117558  117559  117560
  117559  117561  117562  117563  117562  117564  117565  117566
  117565  117567  117568  117569  117568  117570  117571  117572
  117571  117573  117574  117575  117574  117576  117577  117578
  117577  117579  117580  117581  117580  117582  117583  117584
  117583  117585  117586  117587  117586  117588  117589  117590
  117589  117591  117592  117593  117592  117594  117595  117596
  117595  117597  117598  117599  117598  117600  117601  117602
  117601  117603  117604  117605  117604  117606  117607  117608
  117607  117609  117610  117611  117610  117612  117613  117614
  117613  117615  117616  117617  117616  117618  117619  117620
  117619  117621  117622  117623  117622  117624  117625  117626
  117625  117627  117628  117629  117628  117630  117631  117632
  117631  117633  117634  117635  117634  117636  117637  117638
  117637  117639  117640  117641  117640  117642  117643  117644
  117643  117645  117646  117647  117646  117648  117649  117650
  117649  117651  117652  117653  117652  117654  117655  117656
  117655  117657  117658  117659  117658  117660  117661  117662
  117661  117663  117664  117665  117664  117666  117667  117668
  117667  117669  117670  117671  117670  117672  117673  117674
  117673  117675  117676  117677  117676  117678  117679  117680
  117679  117681  117682  117683  117682  117684  117685  117686
  117685  117687  117688  117689  117688  117690  117691  117692
  117691  117693  117694  117695  117694  117696  117697  117698
  117697  117699  117700  117701  117700  117702  117703  117704
  117703  117705  117706  117707  117706  117708  117709  117710
  117709  117711  117712  117713  117712  117714  117715  117716
  117715  117717  117718  117719  117718  117720  117721  117722
  117721  117723  117724  117725  117724  117726  117727  117728
  117727  117729  117730  117731  117730  117732  117733  117734
  117733  117735  117736  117737  117736  117738  117739  117740
  117739  117741  117742  117743  117742  117744  117745  117746
  117745  117747  117748  117749  117748  117750  117751  117752
  117751  117753  117754  117755  117754  117756  117757  117758
  117757  117759  117760  117761  117760  117762  117763  117764
  117763  117765  117766  117767  117766  117768  117769  117770
  117769  117771  117772  117773  117772  117774  117775  117776
  117775  117777  117778  117779  117778  117780  117781  117782
  117781  117783  117784  117785  117784  117786  117787  117788
  117787  117789  117790  117791  117790  117792  117793  117794
  117793  117795  117796  117797  117796  117798  117799  117800
  117799  117801  117802  117803  117802  117804  117805  117806
  117805  117807  117808  117809  117808  117810  117811  117812
  117811  117813  117814  117815  117814  117816  117817  117818
  117817  117819  117820  117821  117820  117822  117823  117824
  117823  117825  117826  117827  117826  117828  117829  117830
  117829  117831  117832  117833  117832  117834  117835  117836
  117835  117837  117838  117839  117838  117840  117841  117842
  117841  117843  117844  117845  117844  117846  117847  117848
  117847  117849  117850  117851  117850  117852  117853  117854
  117853  117855  117856  117857  117856  117858  117859  117860
  117859  117861  117862  117863  117862  117864  117865  117866
  117865  117867  117868  117869  117868  117870  117871  117872
  117871  117873  117874  117875  117874  117876  117877  117878
  117877  117879  117880  117881  117880  117882  117883  117884
  117883  117885  117886  117887  117886  117888  117889  117890
  117889  117891  117892  117893  117892  117894  117895  117896
  117895  117897  117898  117899  117898  117900  117901  117902
  117901  117903  117904  117905  117904  117906  117907  117908
  117907  117909  117910  117911  117910  117912  117913  117914
  117913  117915  117916  117917  117916  117918  117919  117920
  117919  117921  117922  117923  117922  117924  117925  117926
  117925  117927  117928  117929  117928  117930  117931  117932
  117931  117933  117934  117935  117934  117936  117937  117938
  117937  117939  117940  117941  117940  117942  117943  117944
  117943  117945  117946  117947  117946  117948  117949  117950
  117949  117951  117952  117953  117952  117954  117955  117956
  117955  117957  117958  117959  117958  117960  117961  117962
  117961  117963  117964  117965  117964  117966  117967  117968
  117967  117969  117970  117971  117970  117972  117973  117974
  117973  117975  117976  117977  117976  117978  117979  117980
  117979  117981  117982  117983  117982  117984  117985  117986
  117985  117987  117988  117989  117988  117990  117991  117992
  117991  117993  117994  117995  117994  117996  117997  117998
  117997  117999  118000  118001  118000  118002  118003  118004
  118003  118005  118006  118007  118006  118008  118009  118010
  118009  118011  118012  118013  118012  118014  118015  118016
  118015  118017  118018  118019  118018  118020  118021  118022
  118021  118023  118024  118025  118024  118026  118027  118028
  118027  118029  118030  118031  118030  118032  118033  118034
  118033  118035  118036  118037  118036  118038  118039  118040
  118039  118041  118042  118043  118042  118044  118045  118046
  118045  118047  118048  118049  118048  118050  118051  118052
  118051  118053  118054  118055  118054  118056  118057  118058
  118057  118059  118060  118061  118060  118062  118063  118064
  118063  118065  118066  118067  118066  118068  118069  118070
  118069  118071  118072  118073  118072  118074  118075  118076
  118075  118077  118078  118079  118078  118080  118081  118082
  118081  118083  118084  118085  118084  118086  118087  118088
  118087  118089  118090  118091  118090  118092  118093  118094
  118093  118095  118096  118097  118096  118098  118099  118100
  118099  118101  118102  118103  118102  118104  118105  118106
  118105  118107  118108  118109  118108  118110  118111  118112
  118111  118113  118114  118115  118114  118116  118117  118118
  118117  118119  118120  118121  118120  118122  118123  118124
  118123  118125  118126  118127  118126  118128  118129  118130
  118129  118131  118132  118133  118132  118134  118135  118136
  118135  118137  118138  118139  118138  118140  118141  118142
  118141  118143  118144  118145  118144  118146  118147  118148
  118147  118149  118150  118151  118150  118152  118153  118154
  118153  118155  118156  118157  118156  118158  118159  118160
  118159  118161  118162  118163  118162  118164  118165  118166
  118165  118167  118168  118169  118168  118170  118171  118172
  118171  118173  118174  118175  118174  118176  118177  118178
  118177  118179  118180  118181  118180  118182  118183  118184
  118183  118185  118186  118187  118186  118188  118189  118190
  118189  118191  118192  118193  118192  118194  118195  118196
  118195  118197  118198  118199  118198  118200  118201  118202
  118201  118203  118204  118205  118204  118206  118207  118208
  118207  118209  118210  118211  118210  118212  118213  118214
  118213  118215  118216  118217  118216  118218  118219  118220
  118219  118221  118222  118223  118222  118224  118225  118226
  118225  118227  118228  118229  118228  118230  118231  118232
  118231  118233  118234  118235  118234  118236  118237  118238
  118237  118239  118240  118241  118240  118242  118243  118244
  118243  118245  118246  118247  118246  118248  118249  118250
  118249  118251  118252  118253  118252  118254  118255  118256
  118255  118257  118258  118259  118258  118260  118261  118262
  118261  118263  118264  118265  118264  118266  118267  118268
  118267  118269  118270  118271  118270  118272  118273  118274
  118273  118275  118276  118277  118276  118278  118279  118280
  118279  118281  118282  118283  118282  118284  118285  118286
  118285  118287  118288  118289  118288  118290  118291  118292
  118291  118293  118294  118295  118294  118296  118297  118298
  118297  118299  118300  118301  118300  118302  118303  118304
  118303  118305  118306  118307  118306  118308  118309  118310
  118309  118311  118312  118313  118312  118314  118315  118316
  118315  118317  118318  118319  118318  118320  118321  118322
  118321  118323  118324  118325  118324  118326  118327  118328
  118327  118329  118330  118331  118330  118332  118333  118334
  118333  118335  118336  118337  118336  118338  118339  118340
  118339  118341  118342  118343  118342  118344  118345  118346
  118345  118347  118348  118349  118348  118350  118351  118352
  118351  118353  118354  118355  118354  118356  118357  118358
  118357  118359  118360  118361  118360  118362  118363  118364
  118363  118365  118366  118367  118366  118368  118369  118370
  118369  118371  118372  118373  118372  118374  118375  118376
  118375  118377  118378  118379  118378  118380  118381  118382
  118381  118383  118384  118385  118384  118386  118387  118388
  118387  118389  118390  118391  118390  118392  118393  118394
  118393  118395  118396  118397  118396  118398  118399  118400
  118399  118401  118402  118403  118402  118404  118405  118406
  118405  118407  118408  118409  118408  118410  118411  118412
  118411  118413  118414  118415  118414  118416  118417  118418
  118417  118419  118420  118421  118420  118422  118423  118424
  118423  118425  118426  118427  118426  118428  118429  118430
  118429  118431  118432  118433  118432  118434  118435  118436
  118435  118437  118438  118439  118438  118440  118441  118442
  118441  118443  118444  118445  118444  118446  118447  118448
  118447  118449  118450  118451  118450  118452  118453  118454
  118453  118455  118456  118457  118456  118458  118459  118460
  118459  118461  118462  118463  118462  118464  118465  118466
  118465  118467  118468  118469  118468  118470  118471  118472
  118471  118473  118474  118475  118474  118476  118477  118478
  118477  118479  118480  118481  118480  118482  118483  118484
  118483  118485  118486  118487  118486  118488  118489  118490
  118489  118491  118492  118493  118492  118494  118495  118496
  118495  118497  118498  118499  118498  118500  118501  118502
  118501  118503  118504  118505  118504  118506  118507  118508
  118507  118509  118510  118511  118510  118512  118513  118514
  118513  118515  118516  118517  118516  118518  118519  118520
  118519  118521  118522  118523  118522  118524  118525  118526
  118525  118527  118528  118529  118528  118530  118531  118532
  118531  118533  118534  118535  118534  118536  118537  118538
  118537  118539  118540  118541  118540  118542  118543  118544
  118543  118545  118546  118547  118546  118548  118549  118550
  118549  118551  118552  118553  118552  118554  118555  118556
  118555  118557  118558  118559  118558  118560  118561  118562
  118561  118563  118564  118565  118564  118566  118567  118568
  118567  118569  118570  118571  118570  118572  118573  118574
  118573  118575  118576  118577  118576  118578  118579  118580
  118579  118581  118582  118583  118582  118584  118585  118586
  118585  118587  118588  118589  118588  118590  118591  118592
  118591  118593  118594  118595  118594  118596  118597  118598
  118597  118599  118600  118601  118600  118602  118603  118604
  118603  118605  118606  118607  118606  118608  118609  118610
  118609  118611  118612  118613  118612  118614  118615  118616
  118615  118617  118618  118619  118618  118620  118621  118622
  118621  118623  118624  118625  118624  118626  118627  118628
  118627  118629  118630  118631  118630  118632  118633  118634
  118633  118635  118636  118637  118636  118638  118639  118640
  118639  118641  118642  118643  118642  118644  118645  118646
  118645  118647  118648  118649  118648  118650  118651  118652
  118651  118653  118654  118655  118654  118656  118657  118658
  118657  118659  118660  118661  118660  118662  118663  118664
  118663  118665  118666  118667  118666  118668  118669  118670
  118669  118671  118672  118673  118672  118674  118675  118676
  118675  118677  118678  118679  118678  118680  118681  118682
  118681  118683  118684  118685  118684  118686  118687  118688
  118687  118689  118690  118691  118690  118692  118693  118694
  118693  118695  118696  118697  118696  118698  118699  118700
  118699  118701  118702  118703  118702  118704  118705  118706
  118705  118707  118708  118709  118708  118710  118711  118712
  118711  118713  118714  118715  118714  118716  118717  118718
  118717  118719  118720  118721  118720  118722  118723  118724
  118723  118725  118726  118727  118726  118728  118729  118730
  118729  118731  118732  118733  118732  118734  118735  118736
  118735  118737  118738  118739  118738  118740  118741  118742
  118741  118743  118744  118745  118744  118746  118747  118748
  118747  118749  118750  118751  118750  118752  118753  118754
  118753  118755  118756  118757  118756  118758  118759  118760
  118759  118761  118762  118763  118762  118764  118765  118766
  118765  118767  118768  118769  118768  118770  118771  118772
  118771  118773  118774  118775  118774  118776  118777  118778
  118777  118779  118780  118781  118780  118782  118783  118784
  118783  118785  118786  118787  118786  118788  118789  118790
  118789  118791  118792  118793  118792  118794  118795  118796
  118795  118797  118798  118799  118798  118800  118801  118802
  118801  118803  118804  118805  118804  118806  118807  118808
  118807  118809  118810  118811  118810  118812  118813  118814
  118813  118815  118816  118817  118816  118818  118819  118820
  118819  118821  118822  118823  118822  118824  118825  118826
  118825  118827  118828  118829  118828  118830  118831  118832
  118831  118833  118834  118835  118834  118836  118837  118838
  118837  118839  118840  118841  118840  118842  118843  118844
  118843  118845  118846  118847  118846  118848  118849  118850
  118849  118851  118852  118853  118852  118854  118855  118856
  118855  118857  118858  118859  118858  118860  118861  118862
  118861  118863  118864  118865  118864  118866  118867  118868
  118867  118869  118870  118871  118870  118872  118873  118874
  118873  118875  118876  118877  118876  118878  118879  118880
  118879  118881  118882  118883  118882  118884  118885  118886
  118885  118887  118888  118889  118888  118890  118891  118892
  118891  118893  118894  118895  118894  118896  118897  118898
  118897  118899  118900  118901  118900  118902  118903  118904
  118903  118905  118906  118907  118906  118908  118909  118910
  118909  118911  118912  118913  118912  118914  118915  118916
  118915  118917  118918  118919  118918  118920  118921  118922
  118921  118923  118924  118925  118924  118926  118927  118928
  118927  118929  118930  118931  118930  118932  118933  118934
  118933  118935  118936  118937  118936  118938  118939  118940
  118939  118941  118942  118943  118942  118944  118945  118946
  118945  118947  118948  118949  118948  118950  118951  118952
  118951  118953  118954  118955  118954  118956  118957  118958
  118957  118959  118960  118961  118960  118962  118963  118964
  118963  118965  118966  118967  118966  118968  118969  118970
  118969  118971  118972  118973  118972  118974  118975  118976
  118975  118977  118978  118979  118978  118980  118981  118982
  118981  118983  118984  118985  118984  118986  118987  118988
  118987  118989  118990  118991  118990  118992  118993  118994
  118993  118995  118996  118997  118996  118998  118999  119000
  118999  119001  119002  119003  119002  119004  119005  119006
  119005  119007  119008  119009  119008  119010  119011  119012
  119011  119013  119014  119015  119014  119016  119017  119018
  119017  119019  119020  119021  119020  119022  119023  119024
  119023  119025  119026  119027  119026  119028  119029  119030
  119029  119031  119032  119033  119032  119034  119035  119036
  119035  119037  119038  119039  119038  119040  119041  119042
  119041  119043  119044  119045  119044  119046  119047  119048
  119047  119049  119050  119051  119050  119052  119053  119054
  119053  119055  119056  119057  119056  119058  119059  119060
  119059  119061  119062  119063  119062  119064  119065  119066
  119065  119067  119068  119069  119068  119070  119071  119072
  119071  119073  119074  119075  119074  119076  119077  119078
  119077  119079  119080  119081  119080  119082  119083  119084
  119083  119085  119086  119087  119086  119088  119089  119090
  119089  119091  119092  119093  119092  119094  119095  119096
  119095  119097  119098  119099  119098  119100  119101  119102
  119101  119103  119104  119105  119104  119106  119107  119108
  119107  119109  119110  119111  119110  119112  119113  119114
  119113  119115  119116  119117  119116  119118  119119  119120
  119119  119121  119122  119123  119122  119124  119125  119126
  119125  119127  119128  119129  119128  119130  119131  119132
  119131  119133  119134  119135  119134  119136  119137  119138
  119137  119139  119140  119141  119140  119142  119143  119144
  119143  119145  119146  119147  119146  119148  119149  119150
  119149  119151  119152  119153  119152  119154  119155  119156
  119155  119157  119158  119159  119158  119160  119161  119162
  119161  119163  119164  119165  119164  119166  119167  119168
  119167  119169  119170  119171  119170  119172  119173  119174
  119173  119175  119176  119177  119176  119178  119179  119180
  119179  119181  119182  119183  119182  119184  119185  119186
  119185  119187  119188  119189  119188  119190  119191  119192
  119191  119193  119194  119195  119194  119196  119197  119198
  119197  119199  119200  119201  119200  119202  119203  119204
  119203  119205  119206  119207  119206  119208  119209  119210
  119209  119211  119212  119213  119212  119214  119215  119216
  119215  119217  119218  119219  119218  119220  119221  119222
  119221  119223  119224  119225  119224  119226  119227  119228
  119227  119229  119230  119231  119230  119232  119233  119234
  119233  119235  119236  119237  119236  119238  119239  119240
  119239  119241  119242  119243  119242  119244  119245  119246
  119245  119247  119248  119249  119248  119250  119251  119252
  119251  119253  119254  119255  119254  119256  119257  119258
  119257  119259  119260  119261  119260  119262  119263  119264
  119263  119265  119266  119267  119266  119268  119269  119270
  119269  119271  119272  119273  119272  119274  119275  119276
  119275  119277  119278  119279  119278  119280  119281  119282
  119281  119283  119284  119285  119284  119286  119287  119288
  119287  119289  119290  119291  119290  119292  119293  119294
  119293  119295  119296  119297  119296  119298  119299  119300
  119299  119301  119302  119303  119302  119304  119305  119306
  119305  119307  119308  119309  119308  119310  119311  119312
  119311  119313  119314  119315  119314  119316  119317  119318
  119317  119319  119320  119321  119320  119322  119323  119324
  119323  119325  119326  119327  119326  119328  119329  119330
  119329  119331  119332  119333  119332  119334  119335  119336
  119335  119337  119338  119339  119338  119340  119341  119342
  119341  119343  119344  119345  119344  119346  119347  119348
  119347  119349  119350  119351  119350  119352  119353  119354
  119353  119355  119356  119357  119356  119358  119359  119360
  119359  119361  119362  119363  119362  119364  119365  119366
  119365  119367  119368  119369  119368  119370  119371  119372
  119371  119373  119374  119375  119374  119376  119377  119378
  119377  119379  119380  119381  119380  119382  119383  119384
  119383  119385  119386  119387  119386  119388  119389  119390
  119389  119391  119392  119393  119392  119394  119395  119396
  119395  119397  119398  119399  119398  119400  119401  119402
  119401  119403  119404  119405  119404  119406  119407  119408
  119407  119409  119410  119411  119410  119412  119413  119414
  119413  119415  119416  119417  119416  119418  119419  119420
  119419  119421  119422  119423  119422  119424  119425  119426
  119425  119427  119428  119429  119428  119430  119431  119432
  119431  119433  119434  119435  119434  119436  119437  119438
  119437  119439  119440  119441  119440  119442  119443  119444
  119443  119445  119446  119447  119446  119448  119449  119450
  119449  119451  119452  119453  119452  119454  119455  119456
  119455  119457  119458  119459  119458  119460  119461  119462
  119461  119463  119464  119465  119464  119466  119467  119468
  119467  119469  119470  119471  119470  119472  119473  119474
  119473  119475  119476  119477  119476  119478  119479  119480
  119479  119481  119482  119483  119482  119484  119485  119486
  119485  119487  119488  119489  119488  119490  119491  119492
  119491  119493  119494  119495  119494  119496  119497  119498
  119497  119499  119500  119501  119500  119502  119503  119504
  119503  119505  119506  119507  119506  119508  119509  119510
  119509  119511  119512  119513  119512  119514  119515  119516
  119515  119517  119518  119519  119518  119520  119521  119522
  119521  119523  119524  119525  119524  119526  119527  119528
  119527  119529  119530  119531  119530  119532  119533  119534
  119533  119535  119536  119537  119536  119538  119539  119540
  119539  119541  119542  119543  119542  119544  119545  119546
  119545  119547  119548  119549  119548  119550  119551  119552
  119551  119553  119554  119555  119554  119556  119557  119558
  119557  119559  119560  119561  119560  119562  119563  119564
  119563  119565  119566  119567  119566  119568  119569  119570
  119569  119571  119572  119573  119572  119574  119575  119576
  119575  119577  119578  119579  119578  119580  119581  119582
  119581  119583  119584  119585  119584  119586  119587  119588
  119587  119589  119590  119591  119590  119592  119593  119594
  119593  119595  119596  119597  119596  119598  119599  119600
  119599  119601  119602  119603  119602  119604  119605  119606
  119605  119607  119608  119609  119608  119610  119611  119612
  119611  119613  119614  119615  119614  119616  119617  119618
  119617  119619  119620  119621  119620  119622  119623  119624
  119623  119625  119626  119627  119626  119628  119629  119630
  119629  119631  119632  119633  119632  119634  119635  119636
  119635  119637  119638  119639  119638  119640  119641  119642
  119641  119643  119644  119645  119644  119646  119647  119648
  119647  119649  119650  119651  119650  119652  119653  119654
  119653  119655  119656  119657  119656  119658  119659  119660
  119659  119661  119662  119663  119662  119664  119665  119666
  119665  119667  119668  119669  119668  119670  119671  119672
  119671  119673  119674  119675  119674  119676  119677  119678
  119677  119679  119680  119681  119680  119682  119683  119684
  119683  119685  119686  119687  119686  119688  119689  119690
  119689  119691  119692  119693  119692  119694  119695  119696
  119695  119697  119698  119699  119698  119700  119701  119702
  119701  119703  119704  119705  119704  119706  119707  119708
  119707  119709  119710  119711  119710  119712  119713  119714
  119713  119715  119716  119717  119716  119718  119719  119720
  119719  119721  119722  119723  119722  119724  119725  119726
  119725  119727  119728  119729  119728  119730  119731  119732
  119731  119733  119734  119735  119734  119736  119737  119738
  119737  119739  119740  119741  119740  119742  119743  119744
  119743  119745  119746  119747  119746  119748  119749  119750
  119749  119751  119752  119753  119752  119754  119755  119756
  119755  119757  119758  119759  119758  119760  119761  119762
  119761  119763  119764  119765  119764  119766  119767  119768
  119767  119769  119770  119771  119770  119772  119773  119774
  119773  119775  119776  119777  119776  119778  119779  119780
  119779  119781  119782  119783  119782  119784  119785  119786
  119785  119787  119788  119789  119788  119790  119791  119792
  119791  119793  119794  119795  119794  119796  119797  119798
  119797  119799  119800  119801  119800  119802  119803  119804
  119803  119805  119806  119807  119806  119808  119809  119810
  119809  119811  119812  119813  119812  119814  119815  119816
  119815  119817  119818  119819  119818  119820  119821  119822
  119821  119823  119824  119825  119824  119826  119827  119828
  119827  119829  119830  119831  119830  119832  119833  119834
  119833  119835  119836  119837  119836  119838  119839  119840
  119839  119841  119842  119843  119842  119844  119845  119846
  119845  119847  119848  119849  119848  119850  119851  119852
  119851  119853  119854  119855  119854  119856  119857  119858
  119857  119859  119860  119861  119860  119862  119863  119864
  119863  119865  119866  119867  119866  119868  119869  119870
  119869  119871  119872  119873  119872  119874  119875  119876
  119875  119877  119878  119879  119878  119880  119881  119882
  119881  119883  119884  119885  119884  119886  119887  119888
  119887  119889  119890  119891  119890  119892  119893  119894
  119893  119895  119896  119897  119896  119898  119899  119900
  119899  119901  119902  119903  119902  119904  119905  119906
  119905  119907  119908  119909  119908  119910  119911  119912
  119911  119913  119914  119915  119914  119916  119917  119918
  119917  119919  119920  119921  119920  119922  119923  119924
  119923  119925  119926  119927  119926  119928  119929  119930
  119929  119931  119932  119933  119932  119934  119935  119936
  119935  119937  119938  119939  119938  119940  119941  119942
  119941  119943  119944  119945  119944  119946  119947  119948
  119947  119949  119950  119951  119950  119952  119953  119954
  119953  119955  119956  119957  119956  119958  119959  119960
  119959  119961  119962  119963  119962  119964  119965  119966
  119965  119967  119968  119969  119968  119970  119971  119972
  119971  119973  119974  119975  119974  119976  119977  119978
  119977  119979  119980  119981  119980  119982  119983  119984
  119983  119985  119986  119987  119986  119988  119989  119990
  119989  119991  119992  119993  119992  119994  119995  119996
  119995  119997  119998  119999  119998  120000  120001  120002
  120001  120003  120004  120005  120004  120006  120007  120008
  120007  120009  120010  120011  120010  120012  120013  120014
  120013  120015  120016  120017  120016  120018  120019  120020
  120019  120021  120022  120023  120022  120024  120025  120026
  120025  120027  120028  120029  120028  120030  120031  120032
  120031  120033  120034  120035  120034  120036  120037  120038
  120037  120039  120040  120041  120040  120042  120043  120044
  120043  120045  120046  120047  120046  120048  120049  120050
  120049  120051  120052  120053  120052  120054  120055  120056
  120055  120057  120058  120059  120058  120060  120061  120062
  120061  120063  120064  120065  120064  120066  120067  120068
  120067  120069  120070  120071  120070  120072  120073  120074
  120073  120075  120076  120077  120076  120078  120079  120080
  120079  120081  120082  120083  120082  120084  120085  120086
  120085  120087  120088  120089  120088  120090  120091  120092
  120091  120093  120094  120095  120094  120096  120097  120098
  120097  120099  120100  120101  120100  120102  120103  120104
  120103  120105  120106  120107  120106  120108  120109  120110
  120109  120111  120112  120113  120112  120114  120115  120116
  120115  120117  120118  120119  120118  120120  120121  120122
  120121  120123  120124  120125  120124  120126  120127  120128
  120127  120129  120130  120131  120130  120132  120133  120134
  120133  120135  120136  120137  120136  120138  120139  120140
  120139  120141  120142  120143  120142  120144  120145  120146
  120145  120147  120148  120149  120148  120150  120151  120152
  120151  120153  120154  120155  120154  120156  120157  120158
  120157  120159  120160  120161  120160  120162  120163  120164
  120163  120165  120166  120167  120166  120168  120169  120170
  120169  120171  120172  120173  120172  120174  120175  120176
  120175  120177  120178  120179  120178  120180  120181  120182
  120181  120183  120184  120185  120184  120186  120187  120188
  120187  120189  120190  120191  120190  120192  120193  120194
  120193  120195  120196  120197  120196  120198  120199  120200
  120199  120201  120202  120203  120202  120204  120205  120206
  120205  120207  120208  120209  120208  120210  120211  120212
  120211  120213  120214  120215  120214  120216  120217  120218
  120217  120219  120220  120221  120220  120222  120223  120224
  120223  120225  120226  120227  120226  120228  120229  120230
  120229  120231  120232  120233  120232  120234  120235  120236
  120235  120237  120238  120239  120238  120240  120241  120242
  120241  120243  120244  120245  120244  120246  120247  120248
  120247  120249  120250  120251  120250  120252  120253  120254
  120253  120255  120256  120257  120256  120258  120259  120260
  120259  120261  120262  120263  120262  120264  120265  120266
  120265  120267  120268  120269  120268  120270  120271  120272
  120271  120273  120274  120275  120274  120276  120277  120278
  120277  120279  120280  120281  120280  120282  120283  120284
  120283  120285  120286  120287  120286  120288  120289  120290
  120289  120291  120292  120293  120292  120294  120295  120296
  120295  120297  120298  120299  120298  120300  120301  120302
  120301  120303  120304  120305  120304  120306  120307  120308
  120307  120309  120310  120311  120310  120312  120313  120314
  120313  120315  120316  120317  120316  120318  120319  120320
  120319  120321  120322  120323  120322  120324  120325  120326
  120325  120327  120328  120329  120328  120330  120331  120332
  120331  120333  120334  120335  120334  120336  120337  120338
  120337  120339  120340  120341  120340  120342  120343  120344
  120343  120345  120346  120347  120346  120348  120349  120350
  120349  120351  120352  120353  120352  120354  120355  120356
  120355  120357  120358  120359  120358  120360  120361  120362
  120361  120363  120364  120365  120364  120366  120367  120368
  120367  120369  120370  120371  120370  120372  120373  120374
  120373  120375  120376  120377  120376  120378  120379  120380
  120379  120381  120382  120383  120382  120384  120385  120386
  120385  120387  120388  120389  120388  120390  120391  120392
  120391  120393  120394  120395  120394  120396  120397  120398
  120397  120399  120400  120401  120400  120402  120403  120404
  120403  120405  120406  120407  120406  120408  120409  120410
  120409  120411  120412  120413  120412  120414  120415  120416
  120415  120417  120418  120419  120418  120420  120421  120422
  120421  120423  120424  120425  120424  120426  120427  120428
  120427  120429  120430  120431  120430  120432  120433  120434
  120433  120435  120436  120437  120436  120438  120439  120440
  120439  120441  120442  120443  120442  120444  120445  120446
  120445  120447  120448  120449  120448  120450  120451  120452
  120451  120453  120454  120455  120454  120456  120457  120458
  120457  120459  120460  120461  120460  120462  120463  120464
  120463  120465  120466  120467  120466  120468  120469  120470
  120469  120471  120472  120473  120472  120474  120475  120476
  120475  120477  120478  120479  120478  120480  120481  120482
  120481  120483  120484  120485  120484  120486  120487  120488
  120487  120489  120490  120491  120490  120492  120493  120494
  120493  120495  120496  120497  120496  120498  120499  120500
  120499  120501  120502  120503  120502  120504  120505  120506
  120505  120507  120508  120509  120508  120510  120511  120512
  120511  120513  120514  120515  120514  120516  120517  120518
  120517  120519  120520  120521  120520  120522  120523  120524
  120523  120525  120526  120527  120526  120528  120529  120530
  120529  120531  120532  120533  120532  120534  120535  120536
  120535  120537  120538  120539  120538  120540  120541  120542
  120541  120543  120544  120545  120544  120546  120547  120548
  120547  120549  120550  120551  120550  120552  120553  120554
  120553  120555  120556  120557  120556  120558  120559  120560
  120559  120561  120562  120563  120562  120564  120565  120566
  120565  120567  120568  120569  120568  120570  120571  120572
  120571  120573  120574  120575  120574  120576  120577  120578
  120577  120579  120580  120581  120580  120582  120583  120584
  120583  120585  120586  120587  120586  120588  120589  120590
  120589  120591  120592  120593  120592  120594  120595  120596
  120595  120597  120598  120599  120598  120600  120601  120602
  120601  120603  120604  120605  120604  120606  120607  120608
  120607  120609  120610  120611  120610  120612  120613  120614
  120613  120615  120616  120617  120616  120618  120619  120620
  120619  120621  120622  120623  120622  120624  120625  120626
  120625  120627  120628  120629  120628  120630  120631  120632
  120631  120633  120634  120635  120634  120636  120637  120638
  120637  120639  120640  120641  120640  120642  120643  120644
  120643  120645  120646  120647  120646  120648  120649  120650
  120649  120651  120652  120653  120652  120654  120655  120656
  120655  120657  120658  120659  120658  120660  120661  120662
  120661  120663  120664  120665  120664  120666  120667  120668
  120667  120669  120670  120671  120670  120672  120673  120674
  120673  120675  120676  120677  120676  120678  120679  120680
  120679  120681  120682  120683  120682  120684  120685  120686
  120685  120687  120688  120689  120688  120690  120691  120692
  120691  120693  120694  120695  120694  120696  120697  120698
  120697  120699  120700  120701  120700  120702  120703  120704
  120703  120705  120706  120707  120706  120708  120709  120710
  120709  120711  120712  120713  120712  120714  120715  120716
  120715  120717  120718  120719  120718  120720  120721  120722
  120721  120723  120724  120725  120724  120726  120727  120728
  120727  120729  120730  120731  120730  120732  120733  120734
  120733  120735  120736  120737  120736  120738  120739  120740
  120739  120741  120742  120743  120742  120744  120745  120746
  120745  120747  120748  120749  120748  120750  120751  120752
  120751  120753  120754  120755  120754  120756  120757  120758
  120757  120759  120760  120761  120760  120762  120763  120764
  120763  120765  120766  120767  120766  120768  120769  120770
  120769  120771  120772  120773  120772  120774  120775  120776
  120775  120777  120778  120779  120778  120780  120781  120782
  120781  120783  120784  120785  120784  120786  120787  120788
  120787  120789  120790  120791  120790  120792  120793  120794
  120793  120795  120796  120797  120796  120798  120799  120800
  120799  120801  120802  120803  120802  120804  120805  120806
  120805  120807  120808  120809  120808  120810  120811  120812
  120811  120813  120814  120815  120814  120816  120817  120818
  120817  120819  120820  120821  120820  120822  120823  120824
  120823  120825  120826  120827  120826  120828  120829  120830
  120829  120831  120832  120833  120832  120834  120835  120836
  120835  120837  120838  120839  120838  120840  120841  120842
  120841  120843  120844  120845  120844  120846  120847  120848
  120847  120849  120850  120851  120850  120852  120853  120854
  120853  120855  120856  120857  120856  120858  120859  120860
  120859  120861  120862  120863  120862  120864  120865  120866
  120865  120867  120868  120869  120868  120870  120871  120872
  120871  120873  120874  120875  120874  120876  120877  120878
  120877  120879  120880  120881  120880  120882  120883  120884
  120883  120885  120886  120887  120886  120888  120889  120890
  120889  120891  120892  120893  120892  120894  120895  120896
  120895  120897  120898  120899  120898  120900  120901  120902
  120901  120903  120904  120905  120904  120906  120907  120908
  120907  120909  120910  120911  120910  120912  120913  120914
  120913  120915  120916  120917  120916  120918  120919  120920
  120919  120921  120922  120923  120922  120924  120925  120926
  120925  120927  120928  120929  120928  120930  120931  120932
  120931  120933  120934  120935  120934  120936  120937  120938
  120937  120939  120940  120941  120940  120942  120943  120944
  120943  120945  120946  120947  120946  120948  120949  120950
  120949  120951  120952  120953  120952  120954  120955  120956
  120955  120957  120958  120959  120958  120960  120961  120962
  120961  120963  120964  120965  120964  120966  120967  120968
  120967  120969  120970  120971  120970  120972  120973  120974
  120973  120975  120976  120977  120976  120978  120979  120980
  120979  120981  120982  120983  120982  120984  120985  120986
  120985  120987  120988  120989  120988  120990  120991  120992
  120991  120993  120994  120995  120994  120996  120997  120998
  120997  120999  121000  121001  121000  121002  121003  121004
  121003  121005  121006  121007  121006  121008  121009  121010
  121009  121011  121012  121013  121012  121014  121015  121016
  121015  121017  121018  121019  121018  121020  121021  121022
  121021  121023  121024  121025  121024  121026  121027  121028
  121027  121029  121030  121031  121030  121032  121033  121034
  121033  121035  121036  121037  121036  121038  121039  121040
  121039  121041  121042  121043  121042  121044  121045  121046
  121045  121047  121048  121049  121048  121050  121051  121052
  121051  121053  121054  121055  121054  121056  121057  121058
  121057  121059  121060  121061  121060  121062  121063  121064
  121063  121065  121066  121067  121066  121068  121069  121070
  121069  121071  121072  121073  121072  121074  121075  121076
  121075  121077  121078  121079  121078  121080  121081  121082
  121081  121083  121084  121085  121084  121086  121087  121088
  121087  121089  121090  121091  121090  121092  121093  121094
  121093  121095  121096  121097  121096  121098  121099  121100
  121099  121101  121102  121103  121102  121104  121105  121106
  121105  121107  121108  121109  121108  121110  121111  121112
  121111  121113  121114  121115  121114  121116  121117  121118
  121117  121119  121120  121121  121120  121122  121123  121124
  121123  121125  121126  121127  121126  121128  121129  121130
  121129  121131  121132  121133  121132  121134  121135  121136
  121135  121137  121138  121139  121138  121140  121141  121142
  121141  121143  121144  121145  121144  121146  121147  121148
  121147  121149  121150  121151  121150  121152  121153  121154
  121153  121155  121156  121157  121156  121158  121159  121160
  121159  121161  121162  121163  121162  121164  121165  121166
  121165  121167  121168  121169  121168  121170  121171  121172
  121171  121173  121174  121175  121174  121176  121177  121178
  121177  121179  121180  121181  121180  121182  121183  121184
  121183  121185  121186  121187  121186  121188  121189  121190
  121189  121191  121192  121193  121192  121194  121195  121196
  121195  121197  121198  121199  121198  121200  121201  121202
  121201  121203  121204  121205  121204  121206  121207  121208
  121207  121209  121210  121211  121210  121212  121213  121214
  121213  121215  121216  121217  121216  121218  121219  121220
  121219  121221  121222  121223  121222  121224  121225  121226
  121225  121227  121228  121229  121228  121230  121231  121232
  121231  121233  121234  121235  121234  121236  121237  121238
  121237  121239  121240  121241  121240  121242  121243  121244
  121243  121245  121246  121247  121246  121248  121249  121250
  121249  121251  121252  121253  121252  121254  121255  121256
  121255  121257  121258  121259  121258  121260  121261  121262
  121261  121263  121264  121265  121264  121266  121267  121268
  121267  121269  121270  121271  121270  121272  121273  121274
  121273  121275  121276  121277  121276  121278  121279  121280
  121279  121281  121282  121283  121282  121284  121285  121286
  121285  121287  121288  121289  121288  121290  121291  121292
  121291  121293  121294  121295  121294  121296  121297  121298
  121297  121299  121300  121301  121300  121302  121303  121304
  121303  121305  121306  121307  121306  121308  121309  121310
  121309  121311  121312  121313  121312  121314  121315  121316
  121315  121317  121318  121319  121318  121320  121321  121322
  121321  121323  121324  121325  121324  121326  121327  121328
  121327  121329  121330  121331  121330  121332  121333  121334
  121333  121335  121336  121337  121336  121338  121339  121340
  121339  121341  121342  121343  121342  121344  121345  121346
  121345  121347  121348  121349  121348  121350  121351  121352
  121351  121353  121354  121355  121354  121356  121357  121358
  121357  121359  121360  121361  121360  121362  121363  121364
  121363  121365  121366  121367  121366  121368  121369  121370
  121369  121371  121372  121373  121372  121374  121375  121376
  121375  121377  121378  121379  121378  121380  121381  121382
  121381  121383  121384  121385  121384  121386  121387  121388
  121387  121389  121390  121391  121390  121392  121393  121394
  121393  121395  121396  121397  121396  121398  121399  121400
  121399  121401  121402  121403  121402  121404  121405  121406
  121405  121407  121408  121409  121408  121410  121411  121412
  121411  121413  121414  121415  121414  121416  121417  121418
  121417  121419  121420  121421  121420  121422  121423  121424
  121423  121425  121426  121427  121426  121428  121429  121430
  121429  121431  121432  121433  121432  121434  121435  121436
  121435  121437  121438  121439  121438  121440  121441  121442
  121441  121443  121444  121445  121444  121446  121447  121448
  121447  121449  121450  121451  121450  121452  121453  121454
  121453  121455  121456  121457  121456  121458  121459  121460
  121459  121461  121462  121463  121462  121464  121465  121466
  121465  121467  121468  121469  121468  121470  121471  121472
  121471  121473  121474  121475  121474  121476  121477  121478
  121477  121479  121480  121481  121480  121482  121483  121484
  121483  121485  121486  121487  121486  121488  121489  121490
  121489  121491  121492  121493  121492  121494  121495  121496
  121495  121497  121498  121499  121498  121500  121501  121502
  121501  121503  121504  121505  121504  121506  121507  121508
  121507  121509  121510  121511  121510  121512  121513  121514
  121513  121515  121516  121517  121516  121518  121519  121520
  121519  121521  121522  121523  121522  121524  121525  121526
  121525  121527  121528  121529  121528  121530  121531  121532
  121531  121533  121534  121535  121534  121536  121537  121538
  121537  121539  121540  121541  121540  121542  121543  121544
  121543  121545  121546  121547  121546  121548  121549  121550
  121549  121551  121552  121553  121552  121554  121555  121556
  121555  121557  121558  121559  121558  121560  121561  121562
  121561  121563  121564  121565  121564  121566  121567  121568
  121567  121569  121570  121571  121570  121572  121573  121574
  121573  121575  121576  121577  121576  121578  121579  121580
  121579  121581  121582  121583  121582  121584  121585  121586
  121585  121587  121588  121589  121588  121590  121591  121592
  121591  121593  121594  121595  121594  121596  121597  121598
  121597  121599  121600  121601  121600  121602  121603  121604
  121603  121605  121606  121607  121606  121608  121609  121610
  121609  121611  121612  121613  121612  121614  121615  121616
  121615  121617  121618  121619  121618  121620  121621  121622
  121621  121623  121624  121625  121624  121626  121627  121628
  121627  121629  121630  121631  121630  121632  121633  121634
  121633  121635  121636  121637  121636  121638  121639  121640
  121639  121641  121642  121643  121642  121644  121645  121646
  121645  121647  121648  121649  121648  121650  121651  121652
  121651  121653  121654  121655  121654  121656  121657  121658
  121657  121659  121660  121661  121660  121662  121663  121664
  121663  121665  121666  121667  121666  121668  121669  121670
  121669  121671  121672  121673  121672  121674  121675  121676
  121675  121677  121678  121679  121678  121680  121681  121682
  121681  121683  121684  121685  121684  121686  121687  121688
  121687  121689  121690  121691  121690  121692  121693  121694
  121693  121695  121696  121697  121696  121698  121699  121700
  121699  121701  121702  121703  121702  121704  121705  121706
  121705  121707  121708  121709  121708  121710  121711  121712
  121711  121713  121714  121715  121714  121716  121717  121718
  121717  121719  121720  121721  121720  121722  121723  121724
  121723  121725  121726  121727  121726  121728  121729  121730
  121729  121731  121732  121733  121732  121734  121735  121736
  121735  121737  121738  121739  121738  121740  121741  121742
  121741  121743  121744  121745  121744  121746  121747  121748
  121747  121749  121750  121751  121750  121752  121753  121754
  121753  121755  121756  121757  121756  121758  121759  121760
  121759  121761  121762  121763  121762  121764  121765  121766
  121765  121767  121768  121769  121768  121770  121771  121772
  121771  121773  121774  121775  121774  121776  121777  121778
  121777  121779  121780  121781  121780  121782  121783  121784
  121783  121785  121786  121787  121786  121788  121789  121790
  121789  121791  121792  121793  121792  121794  121795  121796
  121795  121797  121798  121799  121798  121800  121801  121802
  121801  121803  121804  121805  121804  121806  121807  121808
  121807  121809  121810  121811  121810  121812  121813  121814
  121813  121815  121816  121817  121816  121818  121819  121820
  121819  121821  121822  121823  121822  121824  121825  121826
  121825  121827  121828  121829  121828  121830  121831  121832
  121831  121833  121834  121835  121834  121836  121837  121838
  121837  121839  121840  121841  121840  121842  121843  121844
  121843  121845  121846  121847  121846  121848  121849  121850
  121849  121851  121852  121853  121852  121854  121855  121856
  121855  121857  121858  121859  121858  121860  121861  121862
  121861  121863  121864  121865  121864  121866  121867  121868
  121867  121869  121870  121871  121870  121872  121873  121874
  121873  121875  121876  121877  121876  121878  121879  121880
  121879  121881  121882  121883  121882  121884  121885  121886
  121885  121887  121888  121889  121888  121890  121891  121892
  121891  121893  121894  121895  121894  121896  121897  121898
  121897  121899  121900  121901  121900  121902  121903  121904
  121903  121905  121906  121907  121906  121908  121909  121910
  121909  121911  121912  121913  121912  121914  121915  121916
  121915  121917  121918  121919  121918  121920  121921  121922
  121921  121923  121924  121925  121924  121926  121927  121928
  121927  121929  121930  121931  121930  121932  121933  121934
  121933  121935  121936  121937  121936  121938  121939  121940
  121939  121941  121942  121943  121942  121944  121945  121946
  121945  121947  121948  121949  121948  121950  121951  121952
  121951  121953  121954  121955  121954  121956  121957  121958
  121957  121959  121960  121961  121960  121962  121963  121964
  121963  121965  121966  121967  121966  121968  121969  121970
  121969  121971  121972  121973  121972  121974  121975  121976
  121975  121977  121978  121979  121978  121980  121981  121982
  121981  121983  121984  121985  121984  121986  121987  121988
  121987  121989  121990  121991  121990  121992  121993  121994
  121993  121995  121996  121997  121996  121998  121999  122000
  121999  122001  122002  122003  122002  122004  122005  122006
  122005  122007  122008  122009  122008  122010  122011  122012
  122011  122013  122014  122015  122014  122016  122017  122018
  122017  122019  122020  122021  122020  122022  122023  122024
  122023  122025  122026  122027  122026  122028  122029  122030
  122029  122031  122032  122033  122032  122034  122035  122036
  122035  122037  122038  122039  122038  122040  122041  122042
  122041  122043  122044  122045  122044  122046  122047  122048
  122047  122049  122050  122051  122050  122052  122053  122054
  122053  122055  122056  122057  122056  122058  122059  122060
  122059  122061  122062  122063  122062  122064  122065  122066
  122065  122067  122068  122069  122068  122070  122071  122072
  122071  122073  122074  122075  122074  122076  122077  122078
  122077  122079  122080  122081  122080  122082  122083  122084
  122083  122085  122086  122087  122086  122088  122089  122090
  122089  122091  122092  122093  122092  122094  122095  122096
  122095  122097  122098  122099  122098  122100  122101  122102
  122101  122103  122104  122105  122104  122106  122107  122108
  122107  122109  122110  122111  122110  122112  122113  122114
  122113  122115  122116  122117  122116  122118  122119  122120
  122119  122121  122122  122123  122122  122124  122125  122126
  122125  122127  122128  122129  122128  122130  122131  122132
  122131  122133  122134  122135  122134  122136  122137  122138
  122137  122139  122140  122141  122140  122142  122143  122144
  122143  122145  122146  122147  122146  122148  122149  122150
  122149  122151  122152  122153  122152  122154  122155  122156
  122155  122157  122158  122159  122158  122160  122161  122162
  122161  122163  122164  122165  122164  122166  122167  122168
  122167  122169  122170  122171  122170  122172  122173  122174
  122173  122175  122176  122177  122176  122178  122179  122180
  122179  122181  122182  122183  122182  122184  122185  122186
  122185  122187  122188  122189  122188  122190  122191  122192
  122191  122193  122194  122195  122194  122196  122197  122198
  122197  122199  122200  122201  122200  122202  122203  122204
  122203  122205  122206  122207  122206  122208  122209  122210
  122209  122211  122212  122213  122212  122214  122215  122216
  122215  122217  122218  122219  122218  122220  122221  122222
  122221  122223  122224  122225  122224  122226  122227  122228
  122227  122229  122230  122231  122230  122232  122233  122234
  122233  122235  122236  122237  122236  122238  122239  122240
  122239  122241  122242  122243  122242  122244  122245  122246
  122245  122247  122248  122249  122248  122250  122251  122252
  122251  122253  122254  122255  122254  122256  122257  122258
  122257  122259  122260  122261  122260  122262  122263  122264
  122263  122265  122266  122267  122266  122268  122269  122270
  122269  122271  122272  122273  122272  122274  122275  122276
  122275  122277  122278  122279  122278  122280  122281  122282
  122281  122283  122284  122285  122284  122286  122287  122288
  122287  122289  122290  122291  122290  122292  122293  122294
  122293  122295  122296  122297  122296  122298  122299  122300
  122299  122301  122302  122303  122302  122304  122305  122306
  122305  122307  122308  122309  122308  122310  122311  122312
  122311  122313  122314  122315  122314  122316  122317  122318
  122317  122319  122320  122321  122320  122322  122323  122324
  122323  122325  122326  122327  122326  122328  122329  122330
  122329  122331  122332  122333  122332  122334  122335  122336
  122335  122337  122338  122339  122338  122340  122341  122342
  122341  122343  122344  122345  122344  122346  122347  122348
  122347  122349  122350  122351  122350  122352  122353  122354
  122353  122355  122356  122357  122356  122358  122359  122360
  122359  122361  122362  122363  122362  122364  122365  122366
  122365  122367  122368  122369  122368  122370  122371  122372
  122371  122373  122374  122375  122374  122376  122377  122378
  122377  122379  122380  122381  122380  122382  122383  122384
  122383  122385  122386  122387  122386  122388  122389  122390
  122389  122391  122392  122393  122392  122394  122395  122396
  122395  122397  122398  122399  122398  122400  122401  122402
  122401  122403  122404  122405  122404  122406  122407  122408
  122407  122409  122410  122411  122410  122412  122413  122414
  122413  122415  122416  122417  122416  122418  122419  122420
  122419  122421  122422  122423  122422  122424  122425  122426
  122425  122427  122428  122429  122428  122430  122431  122432
  122431  122433  122434  122435  122434  122436  122437  122438
  122437  122439  122440  122441  122440  122442  122443  122444
  122443  122445  122446  122447  122446  122448  122449  122450
  122449  122451  122452  122453  122452  122454  122455  122456
  122455  122457  122458  122459  122458  122460  122461  122462
  122461  122463  122464  122465  122464  122466  122467  122468
  122467  122469  122470  122471  122470  122472  122473  122474
  122473  122475  122476  122477  122476  122478  122479  122480
  122479  122481  122482  122483  122482  122484  122485  122486
  122485  122487  122488  122489  122488  122490  122491  122492
  122491  122493  122494  122495  122494  122496  122497  122498
  122497  122499  122500  122501  122500  122502  122503  122504
  122503  122505  122506  122507  122506  122508  122509  122510
  122509  122511  122512  122513  122512  122514  122515  122516
  122515  122517  122518  122519  122518  122520  122521  122522
  122521  122523  122524  122525  122524  122526  122527  122528
  122527  122529  122530  122531  122530  122532  122533  122534
  122533  122535  122536  122537  122536  122538  122539  122540
  122539  122541  122542  122543  122542  122544  122545  122546
  122545  122547  122548  122549  122548  122550  122551  122552
  122551  122553  122554  122555  122554  122556  122557  122558
  122557  122559  122560  122561  122560  122562  122563  122564
  122563  122565  122566  122567  122566  122568  122569  122570
  122569  122571  122572  122573  122572  122574  122575  122576
  122575  122577  122578  122579  122578  122580  122581  122582
  122581  122583  122584  122585  122584  122586  122587  122588
  122587  122589  122590  122591  122590  122592  122593  122594
  122593  122595  122596  122597  122596  122598  122599  122600
  122599  122601  122602  122603  122602  122604  122605  122606
  122605  122607  122608  122609  122608  122610  122611  122612
  122611  122613  122614  122615  122614  122616  122617  122618
  122617  122619  122620  122621  122620  122622  122623  122624
  122623  122625  122626  122627  122626  122628  122629  122630
  122629  122631  122632  122633  122632  122634  122635  122636
  122635  122637  122638  122639  122638  122640  122641  122642
  122641  122643  122644  122645  122644  122646  122647  122648
  122647  122649  122650  122651  122650  122652  122653  122654
  122653  122655  122656  122657  122656  122658  122659  122660
  122659  122661  122662  122663  122662  122664  122665  122666
  122665  122667  122668  122669  122668  122670  122671  122672
  122671  122673  122674  122675  122674  122676  122677  122678
  122677  122679  122680  122681  122680  122682  122683  122684
  122683  122685  122686  122687  122686  122688  122689  122690
  122689  122691  122692  122693  122692  122694  122695  122696
  122695  122697  122698  122699  122698  122700  122701  122702
  122701  122703  122704  122705  122704  122706  122707  122708
  122707  122709  122710  122711  122710  122712  122713  122714
  122713  122715  122716  122717  122716  122718  122719  122720
  122719  122721  122722  122723  122722  122724  122725  122726
  122725  122727  122728  122729  122728  122730  122731  122732
  122731  122733  122734  122735  122734  122736  122737  122738
  122737  122739  122740  122741  122740  122742  122743  122744
  122743  122745  122746  122747  122746  122748  122749  122750
  122749  122751  122752  122753  122752  122754  122755  122756
  122755  122757  122758  122759  122758  122760  122761  122762
  122761  122763  122764  122765  122764  122766  122767  122768
  122767  122769  122770  122771  122770  122772  122773  122774
  122773  122775  122776  122777  122776  122778  122779  122780
  122779  122781  122782  122783  122782  122784  122785  122786
  122785  122787  122788  122789  122788  122790  122791  122792
  122791  122793  122794  122795  122794  122796  122797  122798
  122797  122799  122800  122801  122800  122802  122803  122804
  122803  122805  122806  122807  122806  122808  122809  122810
  122809  122811  122812  122813  122812  122814  122815  122816
  122815  122817  122818  122819  122818  122820  122821  122822
  122821  122823  122824  122825  122824  122826  122827  122828
  122827  122829  122830  122831  122830  122832  122833  122834
  122833  122835  122836  122837  122836  122838  122839  122840
  122839  122841  122842  122843  122842  122844  122845  122846
  122845  122847  122848  122849  122848  122850  122851  122852
  122851  122853  122854  122855  122854  122856  122857  122858
  122857  122859  122860  122861  122860  122862  122863  122864
  122863  122865  122866  122867  122866  122868  122869  122870
  122869  122871  122872  122873  122872  122874  122875  122876
  122875  122877  122878  122879  122878  122880  122881  122882
  122881  122883  122884  122885  122884  122886  122887  122888
  122887  122889  122890  122891  122890  122892  122893  122894
  122893  122895  122896  122897  122896  122898  122899  122900
  122899  122901  122902  122903  122902  122904  122905  122906
  122905  122907  122908  122909  122908  122910  122911  122912
  122911  122913  122914  122915  122914  122916  122917  122918
  122917  122919  122920  122921  122920  122922  122923  122924
  122923  122925  122926  122927  122926  122928  122929  122930
  122929  122931  122932  122933  122932  122934  122935  122936
  122935  122937  122938  122939  122938  122940  122941  122942
  122941  122943  122944  122945  122944  122946  122947  122948
  122947  122949  122950  122951  122950  122952  122953  122954
  122953  122955  122956  122957  122956  122958  122959  122960
  122959  122961  122962  122963  122962  122964  122965  122966
  122965  122967  122968  122969  122968  122970  122971  122972
  122971  122973  122974  122975  122974  122976  122977  122978
  122977  122979  122980  122981  122980  122982  122983  122984
  122983  122985  122986  122987  122986  122988  122989  122990
  122989  122991  122992  122993  122992  122994  122995  122996
  122995  122997  122998  122999  122998  123000  123001  123002
  123001  123003  123004  123005  123004  123006  123007  123008
  123007  123009  123010  123011  123010  123012  123013  123014
  123013  123015  123016  123017  123016  123018  123019  123020
  123019  123021  123022  123023  123022  123024  123025  123026
  123025  123027  123028  123029  123028  123030  123031  123032
  123031  123033  123034  123035  123034  123036  123037  123038
  123037  123039  123040  123041  123040  123042  123043  123044
  123043  123045  123046  123047  123046  123048  123049  123050
  123049  123051  123052  123053  123052  123054  123055  123056
  123055  123057  123058  123059  123058  123060  123061  123062
  123061  123063  123064  123065  123064  123066  123067  123068
  123067  123069  123070  123071  123070  123072  123073  123074
  123073  123075  123076  123077  123076  123078  123079  123080
  123079  123081  123082  123083  123082  123084  123085  123086
  123085  123087  123088  123089  123088  123090  123091  123092
  123091  123093  123094  123095  123094  123096  123097  123098
  123097  123099  123100  123101  123100  123102  123103  123104
  123103  123105  123106  123107  123106  123108  123109  123110
  123109  123111  123112  123113  123112  123114  123115  123116
  123115  123117  123118  123119  123118  123120  123121  123122
  123121  123123  123124  123125  123124  123126  123127  123128
  123127  123129  123130  123131  123130  123132  123133  123134
  123133  123135  123136  123137  123136  123138  123139  123140
  123139  123141  123142  123143  123142  123144  123145  123146
  123145  123147  123148  123149  123148  123150  123151  123152
  123151  123153  123154  123155  123154  123156  123157  123158
  123157  123159  123160  123161  123160  123162  123163  123164
  123163  123165  123166  123167  123166  123168  123169  123170
  123169  123171  123172  123173  123172  123174  123175  123176
  123175  123177  123178  123179  123178  123180  123181  123182
  123181  123183  123184  123185  123184  123186  123187  123188
  123187  123189  123190  123191  123190  123192  123193  123194
  123193  123195  123196  123197  123196  123198  123199  123200
  123199  123201  123202  123203  123202  123204  123205  123206
  123205  123207  123208  123209  123208  123210  123211  123212
  123211  123213  123214  123215  123214  123216  123217  123218
  123217  123219  123220  123221  123220  123222  123223  123224
  123223  123225  123226  123227  123226  123228  123229  123230
  123229  123231  123232  123233  123232  123234  123235  123236
  123235  123237  123238  123239  123238  123240  123241  123242
  123241  123243  123244  123245  123244  123246  123247  123248
  123247  123249  123250  123251  123250  123252  123253  123254
  123253  123255  123256  123257  123256  123258  123259  123260
  123259  123261  123262  123263  123262  123264  123265  123266
  123265  123267  123268  123269  123268  123270  123271  123272
  123271  123273  123274  123275  123274  123276  123277  123278
  123277  123279  123280  123281  123280  123282  123283  123284
  123283  123285  123286  123287  123286  123288  123289  123290
  123289  123291  123292  123293  123292  123294  123295  123296
  123295  123297  123298  123299  123298  123300  123301  123302
  123301  123303  123304  123305  123304  123306  123307  123308
  123307  123309  123310  123311  123310  123312  123313  123314
  123313  123315  123316  123317  123316  123318  123319  123320
  123319  123321  123322  123323  123322  123324  123325  123326
  123325  123327  123328  123329  123328  123330  123331  123332
  123331  123333  123334  123335  123334  123336  123337  123338
  123337  123339  123340  123341  123340  123342  123343  123344
  123343  123345  123346  123347  123346  123348  123349  123350
  123349  123351  123352  123353  123352  123354  123355  123356
  123355  123357  123358  123359  123358  123360  123361  123362
  123361  123363  123364  123365  123364  123366  123367  123368
  123367  123369  123370  123371  123370  123372  123373  123374
  123373  123375  123376  123377  123376  123378  123379  123380
  123379  123381  123382  123383  123382  123384  123385  123386
  123385  123387  123388  123389  123388  123390  123391  123392
  123391  123393  123394  123395  123394  123396  123397  123398
  123397  123399  123400  123401  123400  123402  123403  123404
  123403  123405  123406  123407  123406  123408  123409  123410
  123409  123411  123412  123413  123412  123414  123415  123416
  123415  123417  123418  123419  123418  123420  123421  123422
  123421  123423  123424  123425  123424  123426  123427  123428
  123427  123429  123430  123431  123430  123432  123433  123434
  123433  123435  123436  123437  123436  123438  123439  123440
  123439  123441  123442  123443  123442  123444  123445  123446
  123445  123447  123448  123449  123448  123450  123451  123452
  123451  123453  123454  123455  123454  123456  123457  123458
  123457  123459  123460  123461  123460  123462  123463  123464
  123463  123465  123466  123467  123466  123468  123469  123470
  123469  123471  123472  123473  123472  123474  123475  123476
  123475  123477  123478  123479  123478  123480  123481  123482
  123481  123483  123484  123485  123484  123486  123487  123488
  123487  123489  123490  123491  123490  123492  123493  123494
  123493  123495  123496  123497  123496  123498  123499  123500
  123499  123501  123502  123503  123502  123504  123505  123506
  123505  123507  123508  123509  123508  123510  123511  123512
  123511  123513  123514  123515  123514  123516  123517  123518
  123517  123519  123520  123521  123520  123522  123523  123524
  123523  123525  123526  123527  123526  123528  123529  123530
  123529  123531  123532  123533  123532  123534  123535  123536
  123535  123537  123538  123539  123538  123540  123541  123542
  123541  123543  123544  123545  123544  123546  123547  123548
  123547  123549  123550  123551  123550  123552  123553  123554
  123553  123555  123556  123557  123556  123558  123559  123560
  123559  123561  123562  123563  123562  123564  123565  123566
  123565  123567  123568  123569  123568  123570  123571  123572
  123571  123573  123574  123575  123574  123576  123577  123578
  123577  123579  123580  123581  123580  123582  123583  123584
  123583  123585  123586  123587  123586  123588  123589  123590
  123589  123591  123592  123593  123592  123594  123595  123596
  123595  123597  123598  123599  123598  123600  123601  123602
  123601  123603  123604  123605  123604  123606  123607  123608
  123607  123609  123610  123611  123610  123612  123613  123614
  123613  123615  123616  123617  123616  123618  123619  123620
  123619  123621  123622  123623  123622  123624  123625  123626
  123625  123627  123628  123629  123628  123630  123631  123632
  123631  123633  123634  123635  123634  123636  123637  123638
  123637  123639  123640  123641  123640  123642  123643  123644
  123643  123645  123646  123647  123646  123648  123649  123650
  123649  123651  123652  123653  123652  123654  123655  123656
  123655  123657  123658  123659  123658  123660  123661  123662
  123661  123663  123664  123665  123664  123666  123667  123668
  123667  123669  123670  123671  123670  123672  123673  123674
  123673  123675  123676  123677  123676  123678  123679  123680
  123679  123681  123682  123683  123682  123684  123685  123686
  123685  123687  123688  123689  123688  123690  123691  123692
  123691  123693  123694  123695  123694  123696  123697  123698
  123697  123699  123700  123701  123700  123702  123703  123704
  123703  123705  123706  123707  123706  123708  123709  123710
  123709  123711  123712  123713  123712  123714  123715  123716
  123715  123717  123718  123719  123718  123720  123721  123722
  123721  123723  123724  123725  123724  123726  123727  123728
  123727  123729  123730  123731  123730  123732  123733  123734
  123733  123735  123736  123737  123736  123738  123739  123740
  123739  123741  123742  123743  123742  123744  123745  123746
  123745  123747  123748  123749  123748  123750  123751  123752
  123751  123753  123754  123755  123754  123756  123757  123758
  123757  123759  123760  123761  123760  123762  123763  123764
  123763  123765  123766  123767  123766  123768  123769  123770
  123769  123771  123772  123773  123772  123774  123775  123776
  123775  123777  123778  123779  123778  123780  123781  123782
  123781  123783  123784  123785  123784  123786  123787  123788
  123787  123789  123790  123791  123790  123792  123793  123794
  123793  123795  123796  123797  123796  123798  123799  123800
  123799  123801  123802  123803  123802  123804  123805  123806
  123805  123807  123808  123809  123808  123810  123811  123812
  123811  123813  123814  123815  123814  123816  123817  123818
  123817  123819  123820  123821  123820  123822  123823  123824
  123823  123825  123826  123827  123826  123828  123829  123830
  123829  123831  123832  123833  123832  123834  123835  123836
  123835  123837  123838  123839  123838  123840  123841  123842
  123841  123843  123844  123845  123844  123846  123847  123848
  123847  123849  123850  123851  123850  123852  123853  123854
  123853  123855  123856  123857  123856  123858  123859  123860
  123859  123861  123862  123863  123862  123864  123865  123866
  123865  123867  123868  123869  123868  123870  123871  123872
  123871  123873  123874  123875  123874  123876  123877  123878
  123877  123879  123880  123881  123880  123882  123883  123884
  123883  123885  123886  123887  123886  123888  123889  123890
  123889  123891  123892  123893  123892  123894  123895  123896
  123895  123897  123898  123899  123898  123900  123901  123902
  123901  123903  123904  123905  123904  123906  123907  123908
  123907  123909  123910  123911  123910  123912  123913  123914
  123913  123915  123916  123917  123916  123918  123919  123920
  123919  123921  123922  123923  123922  123924  123925  123926
  123925  123927  123928  123929  123928  123930  123931  123932
  123931  123933  123934  123935  123934  123936  123937  123938
  123937  123939  123940  123941  123940  123942  123943  123944
  123943  123945  123946  123947  123946  123948  123949  123950
  123949  123951  123952  123953  123952  123954  123955  123956
  123955  123957  123958  123959  123958  123960  123961  123962
  123961  123963  123964  123965  123964  123966  123967  123968
  123967  123969  123970  123971  123970  123972  123973  123974
  123973  123975  123976  123977  123976  123978  123979  123980
  123979  123981  123982  123983  123982  123984  123985  123986
  123985  123987  123988  123989  123988  123990  123991  123992
  123991  123993  123994  123995  123994  123996  123997  123998
  123997  123999  124000  124001  124000  124002  124003  124004
  124003  124005  124006  124007  124006  124008  124009  124010
  124009  124011  124012  124013  124012  124014  124015  124016
  124015  124017  124018  124019  124018  124020  124021  124022
  124021  124023  124024  124025  124024  124026  124027  124028
  124027  124029  124030  124031  124030  124032  124033  124034
  124033  124035  124036  124037  124036  124038  124039  124040
  124039  124041  124042  124043  124042  124044  124045  124046
  124045  124047  124048  124049  124048  124050  124051  124052
  124051  124053  124054  124055  124054  124056  124057  124058
  124057  124059  124060  124061  124060  124062  124063  124064
  124063  124065  124066  124067  124066  124068  124069  124070
  124069  124071  124072  124073  124072  124074  124075  124076
  124075  124077  124078  124079  124078  124080  124081  124082
  124081  124083  124084  124085  124084  124086  124087  124088
  124087  124089  124090  124091  124090  124092  124093  124094
  124093  124095  124096  124097  124096  124098  124099  124100
  124099  124101  124102  124103  124102  124104  124105  124106
  124105  124107  124108  124109  124108  124110  124111  124112
  124111  124113  124114  124115  124114  124116  124117  124118
  124117  124119  124120  124121  124120  124122  124123  124124
  124123  124125  124126  124127  124126  124128  124129  124130
  124129  124131  124132  124133  124132  124134  124135  124136
  124135  124137  124138  124139  124138  124140  124141  124142
  124141  124143  124144  124145  124144  124146  124147  124148
  124147  124149  124150  124151  124150  124152  124153  124154
  124153  124155  124156  124157  124156  124158  124159  124160
  124159  124161  124162  124163  124162  124164  124165  124166
  124165  124167  124168  124169  124168  124170  124171  124172
  124171  124173  124174  124175  124174  124176  124177  124178
  124177  124179  124180  124181  124180  124182  124183  124184
  124183  124185  124186  124187  124186  124188  124189  124190
  124189  124191  124192  124193  124192  124194  124195  124196
  124195  124197  124198  124199  124198  124200  124201  124202
  124201  124203  124204  124205  124204  124206  124207  124208
  124207  124209  124210  124211  124210  124212  124213  124214
  124213  124215  124216  124217  124216  124218  124219  124220
  124219  124221  124222  124223  124222  124224  124225  124226
  124225  124227  124228  124229  124228  124230  124231  124232
  124231  124233  124234  124235  124234  124236  124237  124238
  124237  124239  124240  124241  124240  124242  124243  124244
  124243  124245  124246  124247  124246  124248  124249  124250
  124249  124251  124252  124253  124252  124254  124255  124256
  124255  124257  124258  124259  124258  124260  124261  124262
  124261  124263  124264  124265  124264  124266  124267  124268
  124267  124269  124270  124271  124270  124272  124273  124274
  124273  124275  124276  124277  124276  124278  124279  124280
  124279  124281  124282  124283  124282  124284  124285  124286
  124285  124287  124288  124289  124288  124290  124291  124292
  124291  124293  124294  124295  124294  124296  124297  124298
  124297  124299  124300  124301  124300  124302  124303  124304
  124303  124305  124306  124307  124306  124308  124309  124310
  124309  124311  124312  124313  124312  124314  124315  124316
  124315  124317  124318  124319  124318  124320  124321  124322
  124321  124323  124324  124325  124324  124326  124327  124328
  124327  124329  124330  124331  124330  124332  124333  124334
  124333  124335  124336  124337  124336  124338  124339  124340
  124339  124341  124342  124343  124342  124344  124345  124346
  124345  124347  124348  124349  124348  124350  124351  124352
  124351  124353  124354  124355  124354  124356  124357  124358
  124357  124359  124360  124361  124360  124362  124363  124364
  124363  124365  124366  124367  124366  124368  124369  124370
  124369  124371  124372  124373  124372  124374  124375  124376
  124375  124377  124378  124379  124378  124380  124381  124382
  124381  124383  124384  124385  124384  124386  124387  124388
  124387  124389  124390  124391  124390  124392  124393  124394
  124393  124395  124396  124397  124396  124398  124399  124400
  124399  124401  124402  124403  124402  124404  124405  124406
  124405  124407  124408  124409  124408  124410  124411  124412
  124411  124413

   53565 !NTHETA: angles
       1       2       3       1       6       5       1       6       7
       2       1       6       2       3       4       3       4       7
       3       4     181       4       7       6       4       7       8
       4     181     182       4     181     186       5       6       7
       5      10       9       5      10      11       6       5      10
       6       7       8       7       4     181       7       8      11
       7       8     185       8      11      10       8      11      12
       8     185     186       8     185     190       9      10      11
       9      14      13       9      14      15      10       9      14
      10      11      12      11       8     185      11      12      15
      11      12     189      12      15      14      12      15      16
      12     189     194      12     189     190      13      14      15
      13      18      17      13      18      19      14      13      18
      14      15      16      15      12     189      15      16      19
      15      16     193      16      19      18      16      19      20
      16     193     198      16     193     194      17      18      19
      17      22      21      17      22      23      18      17      22
      18      19      20      19      16     193      19      20      23
      19      20     197      20      23      22      20      23      24
      20     197     202      20     197     198      21      22      23
      21      26      25      21      26      27      22      21      26
      22      23      24      23      20     197      23      24      27
      23      24     201      24      27      26      24      27      28
      24     201     202      24     201     206      25      26      27
      25      30      29      25      30      31      26      25      30
      26      27      28      27      24     201      27      28      31
      27      28     205      28      31      30      28      31      32
      28     205     206      28     205     210      29      30      31
      29      34      33      29      34      35      30      29      34
      30      31      32      31      28     205      31      32      35
      31      32     209      32      35      34      32      35      36
      32     209     214      32     209     210      33      34      35
      33      38      37      33      38      39      34      33      38
      34      35      36      35      32     209      35      36      39
      35      36     213      36      39      38      36      39      40
      36     213     218      36     213     214      37      38      39
      37      42      41      37      42      43      38      37      42
      38      39      40      39      36     213      39      40      43
      39      40     217      40      43      42      40      43      44
      40     217     222      40     217     218      41      42      43
      41      46      45      41      46      47      42      41      46
      42      43      44      43      40     217      43      44      47
      43      44     221      44      47      46      44      47      48
      44     221     222      44     221     226      45      46      47
      45      50      49      45      50      51      46      45      50
      46      47      48      47      44     221      47      48      51
      47      48     225      48      51      50      48      51      52
      48     225     226      48     225     230      49      50      51
      49      54      53      49      54      55      50      49      54
      50      51      52      51      48     225      51      52      55
      51      52     229      52      55      54      52      55      56
      52     229     234      52     229     230      53      54      55
      53      58      57      53      58      59      54      53      58
      54      55      56      55      52     229      55      56      59
      55      56     233      56      59      58      56      59      60
      56     233     238      56     233     234      57      58      59
      57      62      61      57      62      63      58      57      62
      58      59      60      59      56     233      59      60      63
      59      60     237      60      63      62      60      63      64
      60     237     242      60     237     238      61      62      63
      61      66      65      61      66      67      62      61      66
      62      63      64      63      60     237      63      64      67
      63      64     241      64      67      66      64      67      68
      64     241     242      64     241     246      65      66      67
      65      70      69      65      70      71      66      65      70
      66      67      68      67      64     241      67      68      71
      67      68     245      68      71      70      68      71      72
      68     245     246      68     245     250      69      70      71
      69      74      73      69      74      75      70      69      74
      70      71      72      71      68     245      71      72      75
      71      72     249      72      75      74      72      75      76
      72     249     254      72     249     250      73      74      75
      73      78      77      73      78      79      74      73      78
      74      75      76      75      72     249      75      76      79
      75      76     253      76      79      78      76      79      80
      76     253     258      76     253     254      77      78      79
      77      82      81      77      82      83      78      77      82
      78      79      80      79      76     253      79      80      83
      79      80     257      80      83      82      80      83      84
      80     257     262      80     257     258      81      82      83
      81      86      85      81      86      87      82      81      86
      82      83      84      83      80     257      83      84      87
      83      84     261      84      87      86      84      87      88
      84     261     262      84     261     266      85      86      87
      85      90      89      85      90      91      86      85      90
      86      87      88      87      84     261      87      88      91
      87      88     265      88      91      90      88      91      92
      88     265     266      88     265     270      89      90      91
      89      94      93      89      94      95      90      89      94
      90      91      92      91      88     265      91      92      95
      91      92     269      92      95      94      92      95      96
      92     269     274      92     269     270      93      94      95
      93      98      97      93      98      99      94      93      98
      94      95      96      95      92     269      95      96      99
      95      96     273      96      99      98      96      99     100
      96     273     278      96     273     274      97      98      99
      97     102     101      97     102     103      98      97     102
      98      99     100      99      96     273      99     100     103
      99     100     277     100     103     102     100     103     104
     100     277     282     100     277     278     101     102     103
     101     106     105     101     106     107     102     101     106
     102     103     104     103     100     277     103     104     107
     103     104     281     104     107     106     104     107     108
     104     281     282     104     281     286     105     106     107
     105     110     109     105     110     111     106     105     110
     106     107     108     107     104     281     107     108     111
     107     108     285     108     111     110     108     111     112
     108     285     286     108     285     290     109     110     111
     109     114     113     109     114     115     110     109     114
     110     111     112     111     108     285     111     112     115
     111     112     289     112     115     114     112     115     116
     112     289     294     112     289     290     113     114     115
     113     118     117     113     118     119     114     113     118
     114     115     116     115     112     289     115     116     119
     115     116     293     116     119     118     116     119     120
     116     293     298     116     293     294     117     118     119
     117     122     121     117     122     123     118     117     122
     118     119     120     119     116     293     119     120     123
     119     120     297     120     123     122     120     123     124
     120     297     302     120     297     298     121     122     123
     121     126     125     121     126     127     122     121     126
     122     123     124     123     120     297     123     124     127
     123     124     301     124     127     126     124     127     128
     124     301     302     124     301     306     125     126     127
     125     130     129     125     130     131     126     125     130
     126     127     128     127     124     301     127     128     131
     127     128     305     128     131     130     128     131     132
     128     305     306     128     305     310     129     130     131
     129     134     133     129     134     135     130     129     134
     130     131     132     131     128     305     131     132     135
     131     132     309     132     135     134     132     135     136
     132     309     314     132     309     310     133     134     135
     133     138     137     133     138     139     134     133     138
     134     135     136     135     132     309     135     136     139
     135     136     313     136     139     138     136     139     140
     136     313     318     136     313     314     137     138     139
     137     142     141     137     142     143     138     137     142
     138     139     140     139     136     313     139     140     143
     139     140     317     140     143     142     140     143     144
     140     317     322     140     317     318     141     142     143
     141     146     145     141     146     147     142     141     146
     142     143     144     143     140     317     143     144     147
     143     144     321     144     147     146     144     147     148
     144     321     322     144     321     326     145     146     147
     145     150     149     145     150     151     146     145     150
     146     147     148     147     144     321     147     148     151
     147     148     325     148     151     150     148     151     152
     148     325     326     148     325     330     149     150     151
     149     154     153     149     154     155     150     149     154
     150     151     152     151     148     325     151     152     155
     151     152     329     152     155     154     152     155     156
     152     329     334     152     329     330     153     154     155
     153     158     157     153     158     159     154     153     158
     154     155     156     155     152     329     155     156     159
     155     156     333     156     159     158     156     159     160
     156     333     338     156     333     334     157     158     159
     157     162     161     157     162     163     158     157     162
     158     159     160     159     156     333     159     160     163
     159     160     337     160     163     162     160     163     164
     160     337     342     160     337     338     161     162     163
     161     166     165     161     166     167     162     161     166
     162     163     164     163     160     337     163     164     167
     163     164     341     164     167     166     164     167     168
     164     341     342     164     341     346     165     166     167
     165     170     169     165     170     171     166     165     170
     166     167     168     167     164     341     167     168     171
     167     168     345     168     171     170     168     171     172
     168     345     346     168     345     350     169     170     171
     169     174     173     169     174     175     170     169     174
     170     171     172     171     168     345     171     172     175
     171     172     349     172     175     174     172     175     176
     172     349     354     172     349     350     173     174     175
     173     178     177     173     178     179     174     173     178
     174     175     176     175     172     349     175     176     179
     175     176     353     176     179     178     176     179     180
     176     353     354     176     353     358     177     178     179
     178     179     180     179     176     353     179     180     357
     180     357     358     181     182     183     181     186     185
     181     186     187     182     181     186     182     183     184
     183     184     187     183     184     361     184     187     186
     184     187     188     184     361     362     184     361     366
     185     186     187     185     190     189     185     190     191
     186     185     190     186     187     188     187     184     361
     187     188     191     187     188     365     188     191     190
     188     191     192     188     365     366     188     365     370
     189     190     191     189     194     193     189     194     195
     190     189     194     190     191     192     191     188     365
     191     192     195     191     192     369     192     195     194
     192     195     196     192     369     374     192     369     370
     193     194     195     193     198     197     193     198     199
     194     193     198     194     195     196     195     192     369
     195     196     199     195     196     373     196     199     198
     196     199     200     196     373     374     196     373     378
     197     198     199     197     202     201     197     202     203
     198     197     202     198     199     200     199     196     373
     199     200     203     199     200     377     200     203     202
     200     203     204     200     377     382     200     377     378
     201     202     203     201     206     205     201     206     207
     202     201     206     202     203     204     203     200     377
     203     204     207     203     204     381     204     207     206
     204     207     208     204     381     382     204     381     386
     205     206     207     205     210     209     205     210     211
     206     205     210     206     207     208     207     204     381
     207     208     211     207     208     385     208     211     210
     208     211     212     208     385     386     208     385     390
     209     210     211     209     214     213     209     214     215
     210     209     214     210     211     212     211     208     385
     211     212     215     211     212     389     212     215     214
     212     215     216     212     389     394     212     389     390
     213     214     215     213     218     217     213     218     219
     214     213     218     214     215     216     215     212     389
     215     216     219     215     216     393     216     219     218
     216     219     220     216     393     398     216     393     394
     217     218     219     217     222     221     217     222     223
     218     217     222     218     219     220     219     216     393
     219     220     223     219     220     397     220     223     222
     220     223     224     220     397     402     220     397     398
     221     222     223     221     226     225     221     226     227
     222     221     226     222     223     224     223     220     397
     223     224     227     223     224     401     224     227     226
     224     227     228     224     401     402     224     401     406
     225     226     227     225     230     229     225     230     231
     226     225     230     226     227     228     227     224     401
     227     228     231     227     228     405     228     231     230
     228     231     232     228     405     406     228     405     410
     229     230     231     229     234     233     229     234     235
     230     229     234     230     231     232     231     228     405
     231     232     235     231     232     409     232     235     234
     232     235     236     232     409     414     232     409     410
     233     234     235     233     238     237     233     238     239
     234     233     238     234     235     236     235     232     409
     235     236     239     235     236     413     236     239     238
     236     239     240     236     413     418     236     413     414
     237     238     239     237     242     241     237     242     243
     238     237     242     238     239     240     239     236     413
     239     240     243     239     240     417     240     243     242
     240     243     244     240     417     422     240     417     418
     241     242     243     241     246     245     241     246     247
     242     241     246     242     243     244     243     240     417
     243     244     247     243     244     421     244     247     246
     244     247     248     244     421     422     244     421     426
     245     246     247     245     250     249     245     250     251
     246     245     250     246     247     248     247     244     421
     247     248     251     247     248     425     248     251     250
     248     251     252     248     425     426     248     425     430
     249     250     251     249     254     253     249     254     255
     250     249     254     250     251     252     251     248     425
     251     252     255     251     252     429     252     255     254
     252     255     256     252     429     434     252     429     430
     253     254     255     253     258     257     253     258     259
     254     253     258     254     255     256     255     252     429
     255     256     259     255     256     433     256     259     258
     256     259     260     256     433     438     256     433     434
     257     258     259     257     262     261     257     262     263
     258     257     262     258     259     260     259     256     433
     259     260     263     259     260     437     260     263     262
     260     263     264     260     437     442     260     437     438
     261     262     263     261     266     265     261     266     267
     262     261     266     262     263     264     263     260     437
     263     264     267     263     264     441     264     267     266
     264     267     268     264     441     442     264     441     446
     265     266     267     265     270     269     265     270     271
     266     265     270     266     267     268     267     264     441
     267     268     271     267     268     445     268     271     270
     268     271     272     268     445     446     268     445     450
     269     270     271     269     274     273     269     274     275
     270     269     274     270     271     272     271     268     445
     271     272     275     271     272     449     272     275     274
     272     275     276     272     449     454     272     449     450
     273     274     275     273     278     277     273     278     279
     274     273     278     274     275     276     275     272     449
     275     276     279     275     276     453     276     279     278
     276     279     280     276     453     458     276     453     454
     277     278     279     277     282     281     277     282     283
     278     277     282     278     279     280     279     276     453
     279     280     283     279     280     457     280     283     282
     280     283     284     280     457     462     280     457     458
     281     282     283     281     286     285     281     286     287
     282     281     286     282     283     284     283     280     457
     283     284     287     283     284     461     284     287     286
     284     287     288     284     461     462     284     461     466
     285     286     287     285     290     289     285     290     291
     286     285     290     286     287     288     287     284     461
     287     288     291     287     288     465     288     291     290
     288     291     292     288     465     466     288     465     470
     289     290     291     289     294     293     289     294     295
     290     289     294     290     291     292     291     288     465
     291     292     295     291     292     469     292     295     294
     292     295     296     292     469     474     292     469     470
     293     294     295     293     298     297     293     298     299
     294     293     298     294     295     296     295     292     469
     295     296     299     295     296     473     296     299     298
     296     299     300     296     473     478     296     473     474
     297     298     299     297     302     301     297     302     303
     298     297     302     298     299     300     299     296     473
     299     300     303     299     300     477     300     303     302
     300     303     304     300     477     482     300     477     478
     301     302     303     301     306     305     301     306     307
     302     301     306     302     303     304     303     300     477
     303     304     307     303     304     481     304     307     306
     304     307     308     304     481     482     304     481     486
     305     306     307     305     310     309     305     310     311
     306     305     310     306     307     308     307     304     481
     307     308     311     307     308     485     308     311     310
     308     311     312     308     485     486     308     485     490
     309     310     311     309     314     313     309     314     315
     310     309     314     310     311     312     311     308     485
     311     312     315     311     312     489     312     315     314
     312     315     316     312     489     494     312     489     490
     313     314     315     313     318     317     313     318     319
     314     313     318     314     315     316     315     312     489
     315     316     319     315     316     493     316     319     318
     316     319     320     316     493     498     316     493     494
     317     318     319     317     322     321     317     322     323
     318     317     322     318     319     320     319     316     493
     319     320     323     319     320     497     320     323     322
     320     323     324     320     497     502     320     497     498
     321     322     323     321     326     325     321     326     327
     322     321     326     322     323     324     323     320     497
     323     324     327     323     324     501     324     327     326
     324     327     328     324     501     502     324     501     506
     325     326     327     325     330     329     325     330     331
     326     325     330     326     327     328     327     324     501
     327     328     331     327     328     505     328     331     330
     328     331     332     328     505     506     328     505     510
     329     330     331     329     334     333     329     334     335
     330     329     334     330     331     332     331     328     505
     331     332     335     331     332     509     332     335     334
     332     335     336     332     509     514     332     509     510
     333     334     335     333     338     337     333     338     339
     334     333     338     334     335     336     335     332     509
     335     336     339     335     336     513     336     339     338
     336     339     340     336     513     518     336     513     514
     337     338     339     337     342     341     337     342     343
     338     337     342     338     339     340     339     336     513
     339     340     343     339     340     517     340     343     342
     340     343     344     340     517     522     340     517     518
     341     342     343     341     346     345     341     346     347
     342     341     346     342     343     344     343     340     517
     343     344     347     343     344     521     344     347     346
     344     347     348     344     521     522     344     521     526
     345     346     347     345     350     349     345     350     351
     346     345     350     346     347     348     347     344     521
     347     348     351     347     348     525     348     351     350
     348     351     352     348     525     526     348     525     530
     349     350     351     349     354     353     349     354     355
     350     349     354     350     351     352     351     348     525
     351     352     355     351     352     529     352     355     354
     352     355     356     352     529     534     352     529     530
     353     354     355     353     358     357     353     358     359
     354     353     358     354     355     356     355     352     529
     355     356     359     355     356     533     356     359     358
     356     359     360     356     533     538     356     533     534
     357     358     359     358     359     360     359     356     533
     359     360     537     360     537     538     361     362     363
     361     366     365     361     366     367     362     361     366
     362     363     364     363     364     367     363     364     541
     364     367     366     364     367     368     364     541     542
     364     541     546     365     366     367     365     370     369
     365     370     371     366     365     370     366     367     368
     367     364     541     367     368     371     367     368     545
     368     371     370     368     371     372     368     545     546
     368     545     550     369     370     371     369     374     373
     369     374     375     370     369     374     370     371     372
     371     368     545     371     372     375     371     372     549
     372     375     374     372     375     376     372     549     554
     372     549     550     373     374     375     373     378     377
     373     378     379     374     373     378     374     375     376
     375     372     549     375     376     379     375     376     553
     376     379     378     376     379     380     376     553     558
     376     553     554     377     378     379     377     382     381
     377     382     383     378     377     382     378     379     380
     379     376     553     379     380     383     379     380     557
     380     383     382     380     383     384     380     557     562
     380     557     558     381     382     383     381     386     385
     381     386     387     382     381     386     382     383     384
     383     380     557     383     384     387     383     384     561
     384     387     386     384     387     388     384     561     562
     384     561     566     385     386     387     385     390     389
     385     390     391     386     385     390     386     387     388
     387     384     561     387     388     391     387     388     565
     388     391     390     388     391     392     388     565     566
     388     565     570     389     390     391     389     394     393
     389     394     395     390     389     394     390     391     392
     391     388     565     391     392     395     391     392     569
     392     395     394     392     395     396     392     569     574
     392     569     570     393     394     395     393     398     397
     393     398     399     394     393     398     394     395     396
     395     392     569     395     396     399     395     396     573
     396     399     398     396     399     400     396     573     578
     396     573     574     397     398     399     397     402     401
     397     402     403     398     397     402     398     399     400
     399     396     573     399     400     403     399     400     577
     400     403     402     400     403     404     400     577     582
     400     577     578     401     402     403     401     406     405
     401     406     407     402     401     406     402     403     404
     403     400     577     403     404     407     403     404     581
     404     407     406     404     407     408     404     581     582
     404     581     586     405     406     407     405     410     409
     405     410     411     406     405     410     406     407     408
     407     404     581     407     408     411     407     408     585
     408     411     410     408     411     412     408     585     586
     408     585     590     409     410     411     409     414     413
     409     414     415     410     409     414     410     411     412
     411     408     585     411     412     415     411     412     589
     412     415     414     412     415     416     412     589     594
     412     589     590     413     414     415     413     418     417
     413     418     419     414     413     418     414     415     416
     415     412     589     415     416     419     415     416     593
     416     419     418     416     419     420     416     593     594
     416     593     598     417     418     419     417     422     421
     417     422     423     418     417     422     418     419     420
     419     416     593     419     420     423     419     420     597
     420     423     422     420     423     424     420     597     602
     420     597     598     421     422     423     421     426     425
     421     426     427     422     421     426     422     423     424
     423     420     597     423     424     427     423     424     601
     424     427     426     424     427     428     424     601     602
     424     601     606     425     426     427     425     430     429
     425     430     431     426     425     430     426     427     428
     427     424     601     427     428     431     427     428     605
     428     431     430     428     431     432     428     605     606
     428     605     610     429     430     431     429     434     433
     429     434     435     430     429     434     430     431     432
     431     428     605     431     432     435     431     432     609
     432     435     434     432     435     436     432     609     614
     432     609     610     433     434     435     433     438     437
     433     438     439     434     433     438     434     435     436
     435     432     609     435     436     439     435     436     613
     436     439     438     436     439     440     436     613     618
     436     613     614     437     438     439     437     442     441
     437     442     443     438     437     442     438     439     440
     439     436     613     439     440     443     439     440     617
     440     443     442     440     443     444     440     617     622
     440     617     618     441     442     443     441     446     445
     441     446     447     442     441     446     442     443     444
     443     440     617     443     444     447     443     444     621
     444     447     446     444     447     448     444     621     622
     444     621     626     445     446     447     445     450     449
     445     450     451     446     445     450     446     447     448
     447     444     621     447     448     451     447     448     625
     448     451     450     448     451     452     448     625     626
     448     625     630     449     450     451     449     454     453
     449     454     455     450     449     454     450     451     452
     451     448     625     451     452     455     451     452     629
     452     455     454     452     455     456     452     629     634
     452     629     630     453     454     455     453     458     457
     453     458     459     454     453     458     454     455     456
     455     452     629     455     456     459     455     456     633
     456     459     458     456     459     460     456     633     638
     456     633     634     457     458     459     457     462     461
     457     462     463     458     457     462     458     459     460
     459     456     633     459     460     463     459     460     637
     460     463     462     460     463     464     460     637     642
     460     637     638     461     462     463     461     466     465
     461     466     467     462     461     466     462     463     464
     463     460     637     463     464     467     463     464     641
     464     467     466     464     467     468     464     641     642
     464     641     646     465     466     467     465     470     469
     465     470     471     466     465     470     466     467     468
     467     464     641     467     468     471     467     468     645
     468     471     470     468     471     472     468     645     646
     468     645     650     469     470     471     469     474     473
     469     474     475     470     469     474     470     471     472
     471     468     645     471     472     475     471     472     649
     472     475     474     472     475     476     472     649     654
     472     649     650     473     474     475     473     478     477
     473     478     479     474     473     478     474     475     476
     475     472     649     475     476     479     475     476     653
     476     479     478     476     479     480     476     653     658
     476     653     654     477     478     479     477     482     481
     477     482     483     478     477     482     478     479     480
     479     476     653     479     480     483     479     480     657
     480     483     482     480     483     484     480     657     662
     480     657     658     481     482     483     481     486     485
     481     486     487     482     481     486     482     483     484
     483     480     657     483     484     487     483     484     661
     484     487     486     484     487     488     484     661     662
     484     661     666     485     486     487     485     490     489
     485     490     491     486     485     490     486     487     488
     487     484     661     487     488     491     487     488     665
     488     491     490     488     491     492     488     665     666
     488     665     670     489     490     491     489     494     493
     489     494     495     490     489     494     490     491     492
     491     488     665     491     492     495     491     492     669
     492     495     494     492     495     496     492     669     674
     492     669     670     493     494     495     493     498     497
     493     498     499     494     493     498     494     495     496
     495     492     669     495     496     499     495     496     673
     496     499     498     496     499     500     496     673     678
     496     673     674     497     498     499     497     502     501
     497     502     503     498     497     502     498     499     500
     499     496     673     499     500     503     499     500     677
     500     503     502     500     503     504     500     677     682
     500     677     678     501     502     503     501     506     505
     501     506     507     502     501     506     502     503     504
     503     500     677     503     504     507     503     504     681
     504     507     506     504     507     508     504     681     682
     504     681     686     505     506     507     505     510     509
     505     510     511     506     505     510     506     507     508
     507     504     681     507     508     511     507     508     685
     508     511     510     508     511     512     508     685     686
     508     685     690     509     510     511     509     514     513
     509     514     515     510     509     514     510     511     512
     511     508     685     511     512     515     511     512     689
     512     515     514     512     515     516     512     689     694
     512     689     690     513     514     515     513     518     517
     513     518     519     514     513     518     514     515     516
     515     512     689     515     516     519     515     516     693
     516     519     518     516     519     520     516     693     698
     516     693     694     517     518     519     517     522     521
     517     522     523     518     517     522     518     519     520
     519     516     693     519     520     523     519     520     697
     520     523     522     520     523     524     520     697     702
     520     697     698     521     522     523     521     526     525
     521     526     527     522     521     526     522     523     524
     523     520     697     523     524     527     523     524     701
     524     527     526     524     527     528     524     701     702
     524     701     706     525     526     527     525     530     529
     525     530     531     526     525     530     526     527     528
     527     524     701     527     528     531     527     528     705
     528     531     530     528     531     532     528     705     706
     528     705     710     529     530     531     529     534     533
     529     534     535     530     529     534     530     531     532
     531     528     705     531     532     535     531     532     709
     532     535     534     532     535     536     532     709     714
     532     709     710     533     534     535     533     538     537
     533     538     539     534     533     538     534     535     536
     535     532     709     535     536     539     535     536     713
     536     539     538     536     539     540     536     713     718
     536     713     714     537     538     539     538     539     540
     539     536     713     539     540     717     540     717     718
     541     542     543     541     546     545     541     546     547
     542     541     546     542     543     544     543     544     547
     543     544     721     544     547     546     544     547     548
     544     721     722     544     721     726     545     546     547
     545     550     549     545     550     551     546     545     550
     546     547     548     547     544     721     547     548     551
     547     548     725     548     551     550     548     551     552
     548     725     726     548     725     730     549     550     551
     549     554     553     549     554     555     550     549     554
     550     551     552     551     548     725     551     552     555
     551     552     729     552     555     554     552     555     556
     552     729     734     552     729     730     553     554     555
     553     558     557     553     558     559     554     553     558
     554     555     556     555     552     729     555     556     559
     555     556     733     556     559     558     556     559     560
     556     733     738     556     733     734     557     558     559
     557     562     561     557     562     563     558     557     562
     558     559     560     559     556     733     559     560     563
     559     560     737     560     563     562     560     563     564
     560     737     742     560     737     738     561     562     563
     561     566     565     561     566     567     562     561     566
     562     563     564     563     560     737     563     564     567
     563     564     741     564     567     566     564     567     568
     564     741     742     564     741     746     565     566     567
     565     570     569     565     570     571     566     565     570
     566     567     568     567     564     741     567     568     571
     567     568     745     568     571     570     568     571     572
     568     745     746     568     745     750     569     570     571
     569     574     573     569     574     575     570     569     574
     570     571     572     571     568     745     571     572     575
     571     572     749     572     575     574     572     575     576
     572     749     754     572     749     750     573     574     575
     573     578     577     573     578     579     574     573     578
     574     575     576     575     572     749     575     576     579
     575     576     753     576     579     578     576     579     580
     576     753     758     576     753     754     577     578     579
     577     582     581     577     582     583     578     577     582
     578     579     580     579     576     753     579     580     583
     579     580     757     580     583     582     580     583     584
     580     757     762     580     757     758     581     582     583
     581     586     585     581     586     587     582     581     586
     582     583     584     583     580     757     583     584     587
     583     584     761     584     587     586     584     587     588
     584     761     762     584     761     766     585     586     587
     585     590     589     585     590     591     586     585     590
     586     587     588     587     584     761     587     588     591
     587     588     765     588     591     590     588     591     592
     588     765     766     588     765     770     589     590     591
     589     594     593     589     594     595     590     589     594
     590     591     592     591     588     765     591     592     595
     591     592     769     592     595     594     592     595     596
     592     769     774     592     769     770     593     594     595
     593     598     597     593     598     599     594     593     598
     594     595     596     595     592     769     595     596     599
     595     596     773     596     599     598     596     599     600
     596     773     778     596     773     774     597     598     599
     597     602     601     597     602     603     598     597     602
     598     599     600     599     596     773     599     600     603
     599     600     777     600     603     602     600     603     604
     600     777     782     600     777     778     601     602     603
     601     606     605     601     606     607     602     601     606
     602     603     604     603     600     777     603     604     607
     603     604     781     604     607     606     604     607     608
     604     781     782     604     781     786     605     606     607
     605     610     609     605     610     611     606     605     610
     606     607     608     607     604     781     607     608     611
     607     608     785     608     611     610     608     611     612
     608     785     786     608     785     790     609     610     611
     609     614     613     609     614     615     610     609     614
     610     611     612     611     608     785     611     612     615
     611     612     789     612     615     614     612     615     616
     612     789     794     612     789     790     613     614     615
     613     618     617     613     618     619     614     613     618
     614     615     616     615     612     789     615     616     619
     615     616     793     616     619     618     616     619     620
     616     793     798     616     793     794     617     618     619
     617     622     621     617     622     623     618     617     622
     618     619     620     619     616     793     619     620     623
     619     620     797     620     623     622     620     623     624
     620     797     802     620     797     798     621     622     623
     621     626     625     621     626     627     622     621     626
     622     623     624     623     620     797     623     624     627
     623     624     801     624     627     626     624     627     628
     624     801     802     624     801     806     625     626     627
     625     630     629     625     630     631     626     625     630
     626     627     628     627     624     801     627     628     631
     627     628     805     628     631     630     628     631     632
     628     805     806     628     805     810     629     630     631
     629     634     633     629     634     635     630     629     634
     630     631     632     631     628     805     631     632     635
     631     632     809     632     635     634     632     635     636
     632     809     814     632     809     810     633     634     635
     633     638     637     633     638     639     634     633     638
     634     635     636     635     632     809     635     636     639
     635     636     813     636     639     638     636     639     640
     636     813     814     636     813     818     637     638     639
     637     642     641     637     642     643     638     637     642
     638     639     640     639     636     813     639     640     643
     639     640     817     640     643     642     640     643     644
     640     817     822     640     817     818     641     642     643
     641     646     645     641     646     647     642     641     646
     642     643     644     643     640     817     643     644     647
     643     644     821     644     647     646     644     647     648
     644     821     822     644     821     826     645     646     647
     645     650     649     645     650     651     646     645     650
     646     647     648     647     644     821     647     648     651
     647     648     825     648     651     650     648     651     652
     648     825     826     648     825     830     649     650     651
     649     654     653     649     654     655     650     649     654
     650     651     652     651     648     825     651     652     655
     651     652     829     652     655     654     652     655     656
     652     829     834     652     829     830     653     654     655
     653     658     657     653     658     659     654     653     658
     654     655     656     655     652     829     655     656     659
     655     656     833     656     659     658     656     659     660
     656     833     838     656     833     834     657     658     659
     657     662     661     657     662     663     658     657     662
     658     659     660     659     656     833     659     660     663
     659     660     837     660     663     662     660     663     664
     660     837     842     660     837     838     661     662     663
     661     666     665     661     666     667     662     661     666
     662     663     664     663     660     837     663     664     667
     663     664     841     664     667     666     664     667     668
     664     841     842     664     841     846     665     666     667
     665     670     669     665     670     671     666     665     670
     666     667     668     667     664     841     667     668     671
     667     668     845     668     671     670     668     671     672
     668     845     846     668     845     850     669     670     671
     669     674     673     669     674     675     670     669     674
     670     671     672     671     668     845     671     672     675
     671     672     849     672     675     674     672     675     676
     672     849     854     672     849     850     673     674     675
     673     678     677     673     678     679     674     673     678
     674     675     676     675     672     849     675     676     679
     675     676     853     676     679     678     676     679     680
     676     853     858     676     853     854     677     678     679
     677     682     681     677     682     683     678     677     682
     678     679     680     679     676     853     679     680     683
     679     680     857     680     683     682     680     683     684
     680     857     862     680     857     858     681     682     683
     681     686     685     681     686     687     682     681     686
     682     683     684     683     680     857     683     684     687
     683     684     861     684     687     686     684     687     688
     684     861     862     684     861     866     685     686     687
     685     690     689     685     690     691     686     685     690
     686     687     688     687     684     861     687     688     691
     687     688     865     688     691     690     688     691     692
     688     865     866     688     865     870     689     690     691
     689     694     693     689     694     695     690     689     694
     690     691     692     691     688     865     691     692     695
     691     692     869     692     695     694     692     695     696
     692     869     874     692     869     870     693     694     695
     693     698     697     693     698     699     694     693     698
     694     695     696     695     692     869     695     696     699
     695     696     873     696     699     698     696     699     700
     696     873     878     696     873     874     697     698     699
     697     702     701     697     702     703     698     697     702
     698     699     700     699     696     873     699     700     703
     699     700     877     700     703     702     700     703     704
     700     877     882     700     877     878     701     702     703
     701     706     705     701     706     707     702     701     706
     702     703     704     703     700     877     703     704     707
     703     704     881     704     707     706     704     707     708
     704     881     882     704     881     886     705     706     707
     705     710     709     705     710     711     706     705     710
     706     707     708     707     704     881     707     708     711
     707     708     885     708     711     710     708     711     712
     708     885     886     708     885     890     709     710     711
     709     714     713     709     714     715     710     709     714
     710     711     712     711     708     885     711     712     715
     711     712     889     712     715     714     712     715     716
     712     889     894     712     889     890     713     714     715
     713     718     717     713     718     719     714     713     718
     714     715     716     715     712     889     715     716     719
     715     716     893     716     719     718     716     719     720
     716     893     898     716     893     894     717     718     719
     718     719     720     719     716     893     719     720     897
     720     897     898     721     722     723     721     726     725
     721     726     727     722     721     726     722     723     724
     723     724     727     723     724     901     724     727     726
     724     727     728     724     901     902     724     901     906
     725     726     727     725     730     729     725     730     731
     726     725     730     726     727     728     727     724     901
     727     728     731     727     728     905     728     731     730
     728     731     732     728     905     906     728     905     910
     729     730     731     729     734     733     729     734     735
     730     729     734     730     731     732     731     728     905
     731     732     735     731     732     909     732     735     734
     732     735     736     732     909     914     732     909     910
     733     734     735     733     738     737     733     738     739
     734     733     738     734     735     736     735     732     909
     735     736     739     735     736     913     736     739     738
     736     739     740     736     913     918     736     913     914
     737     738     739     737     742     741     737     742     743
     738     737     742     738     739     740     739     736     913
     739     740     743     739     740     917     740     743     742
     740     743     744     740     917     922     740     917     918
     741     742     743     741     746     745     741     746     747
     742     741     746     742     743     744     743     740     917
     743     744     747     743     744     921     744     747     746
     744     747     748     744     921     922     744     921     926
     745     746     747     745     750     749     745     750     751
     746     745     750     746     747     748     747     744     921
     747     748     751     747     748     925     748     751     750
     748     751     752     748     925     926     748     925     930
     749     750     751     749     754     753     749     754     755
     750     749     754     750     751     752     751     748     925
     751     752     755     751     752     929     752     755     754
     752     755     756     752     929     934     752     929     930
     753     754     755     753     758     757     753     758     759
     754     753     758     754     755     756     755     752     929
     755     756     759     755     756     933     756     759     758
     756     759     760     756     933     938     756     933     934
     757     758     759     757     762     761     757     762     763
     758     757     762     758     759     760     759     756     933
     759     760     763     759     760     937     760     763     762
     760     763     764     760     937     942     760     937     938
     761     762     763     761     766     765     761     766     767
     762     761     766     762     763     764     763     760     937
     763     764     767     763     764     941     764     767     766
     764     767     768     764     941     942     764     941     946
     765     766     767     765     770     769     765     770     771
     766     765     770     766     767     768     767     764     941
     767     768     771     767     768     945     768     771     770
     768     771     772     768     945     946     768     945     950
     769     770     771     769     774     773     769     774     775
     770     769     774     770     771     772     771     768     945
     771     772     775     771     772     949     772     775     774
     772     775     776     772     949     954     772     949     950
     773     774     775     773     778     777     773     778     779
     774     773     778     774     775     776     775     772     949
     775     776     779     775     776     953     776     779     778
     776     779     780     776     953     958     776     953     954
     777     778     779     777     782     781     777     782     783
     778     777     782     778     779     780     779     776     953
     779     780     783     779     780     957     780     783     782
     780     783     784     780     957     962     780     957     958
     781     782     783     781     786     785     781     786     787
     782     781     786     782     783     784     783     780     957
     783     784     787     783     784     961     784     787     786
     784     787     788     784     961     962     784     961     966
     785     786     787     785     790     789     785     790     791
     786     785     790     786     787     788     787     784     961
     787     788     791     787     788     965     788     791     790
     788     791     792     788     965     966     788     965     970
     789     790     791     789     794     793     789     794     795
     790     789     794     790     791     792     791     788     965
     791     792     795     791     792     969     792     795     794
     792     795     796     792     969     974     792     969     970
     793     794     795     793     798     797     793     798     799
     794     793     798     794     795     796     795     792     969
     795     796     799     795     796     973     796     799     798
     796     799     800     796     973     978     796     973     974
     797     798     799     797     802     801     797     802     803
     798     797     802     798     799     800     799     796     973
     799     800     803     799     800     977     800     803     802
     800     803     804     800     977     982     800     977     978
     801     802     803     801     806     805     801     806     807
     802     801     806     802     803     804     803     800     977
     803     804     807     803     804     981     804     807     806
     804     807     808     804     981     982     804     981     986
     805     806     807     805     810     809     805     810     811
     806     805     810     806     807     808     807     804     981
     807     808     811     807     808     985     808     811     810
     808     811     812     808     985     986     808     985     990
     809     810     811     809     814     813     809     814     815
     810     809     814     810     811     812     811     808     985
     811     812     815     811     812     989     812     815     814
     812     815     816     812     989     994     812     989     990
     813     814     815     813     818     817     813     818     819
     814     813     818     814     815     816     815     812     989
     815     816     819     815     816     993     816     819     818
     816     819     820     816     993     998     816     993     994
     817     818     819     817     822     821     817     822     823
     818     817     822     818     819     820     819     816     993
     819     820     823     819     820     997     820     823     822
     820     823     824     820     997    1002     820     997     998
     821     822     823     821     826     825     821     826     827
     822     821     826     822     823     824     823     820     997
     823     824     827     823     824    1001     824     827     826
     824     827     828     824    1001    1002     824    1001    1006
     825     826     827     825     830     829     825     830     831
     826     825     830     826     827     828     827     824    1001
     827     828     831     827     828    1005     828     831     830
     828     831     832     828    1005    1006     828    1005    1010
     829     830     831     829     834     833     829     834     835
     830     829     834     830     831     832     831     828    1005
     831     832     835     831     832    1009     832     835     834
     832     835     836     832    1009    1014     832    1009    1010
     833     834     835     833     838     837     833     838     839
     834     833     838     834     835     836     835     832    1009
     835     836     839     835     836    1013     836     839     838
     836     839     840     836    1013    1018     836    1013    1014
     837     838     839     837     842     841     837     842     843
     838     837     842     838     839     840     839     836    1013
     839     840     843     839     840    1017     840     843     842
     840     843     844     840    1017    1022     840    1017    1018
     841     842     843     841     846     845     841     846     847
     842     841     846     842     843     844     843     840    1017
     843     844     847     843     844    1021     844     847     846
     844     847     848     844    1021    1022     844    1021    1026
     845     846     847     845     850     849     845     850     851
     846     845     850     846     847     848     847     844    1021
     847     848     851     847     848    1025     848     851     850
     848     851     852     848    1025    1026     848    1025    1030
     849     850     851     849     854     853     849     854     855
     850     849     854     850     851     852     851     848    1025
     851     852     855     851     852    1029     852     855     854
     852     855     856     852    1029    1034     852    1029    1030
     853     854     855     853     858     857     853     858     859
     854     853     858     854     855     856     855     852    1029
     855     856     859     855     856    1033     856     859     858
     856     859     860     856    1033    1034     856    1033    1038
     857     858     859     857     862     861     857     862     863
     858     857     862     858     859     860     859     856    1033
     859     860     863     859     860    1037     860     863     862
     860     863     864     860    1037    1042     860    1037    1038
     861     862     863     861     866     865     861     866     867
     862     861     866     862     863     864     863     860    1037
     863     864     867     863     864    1041     864     867     866
     864     867     868     864    1041    1042     864    1041    1046
     865     866     867     865     870     869     865     870     871
     866     865     870     866     867     868     867     864    1041
     867     868     871     867     868    1045     868     871     870
     868     871     872     868    1045    1046     868    1045    1050
     869     870     871     869     874     873     869     874     875
     870     869     874     870     871     872     871     868    1045
     871     872     875     871     872    1049     872     875     874
     872     875     876     872    1049    1054     872    1049    1050
     873     874     875     873     878     877     873     878     879
     874     873     878     874     875     876     875     872    1049
     875     876     879     875     876    1053     876     879     878
     876     879     880     876    1053    1058     876    1053    1054
     877     878     879     877     882     881     877     882     883
     878     877     882     878     879     880     879     876    1053
     879     880     883     879     880    1057     880     883     882
     880     883     884     880    1057    1062     880    1057    1058
     881     882     883     881     886     885     881     886     887
     882     881     886     882     883     884     883     880    1057
     883     884     887     883     884    1061     884     887     886
     884     887     888     884    1061    1062     884    1061    1066
     885     886     887     885     890     889     885     890     891
     886     885     890     886     887     888     887     884    1061
     887     888     891     887     888    1065     888     891     890
     888     891     892     888    1065    1066     888    1065    1070
     889     890     891     889     894     893     889     894     895
     890     889     894     890     891     892     891     888    1065
     891     892     895     891     892    1069     892     895     894
     892     895     896     892    1069    1074     892    1069    1070
     893     894     895     893     898     897     893     898     899
     894     893     898     894     895     896     895     892    1069
     895     896     899     895     896    1073     896     899     898
     896     899     900     896    1073    1078     896    1073    1074
     897     898     899     898     899     900     899     896    1073
     899     900    1077     900    1077    1078     901     902     903
     901     906     905     901     906     907     902     901     906
     902     903     904     903     904     907     903     904    1081
     904     907     906     904     907     908     904    1081    1082
     904    1081    1086     905     906     907     905     910     909
     905     910     911     906     905     910     906     907     908
     907     904    1081     907     908     911     907     908    1085
     908     911     910     908     911     912     908    1085    1086
     908    1085    1090     909     910     911     909     914     913
     909     914     915     910     909     914     910     911     912
     911     908    1085     911     912     915     911     912    1089
     912     915     914     912     915     916     912    1089    1094
     912    1089    1090     913     914     915     913     918     917
     913     918     919     914     913     918     914     915     916
     915     912    1089     915     916     919     915     916    1093
     916     919     918     916     919     920     916    1093    1098
     916    1093    1094     917     918     919     917     922     921
     917     922     923     918     917     922     918     919     920
     919     916    1093     919     920     923     919     920    1097
     920     923     922     920     923     924     920    1097    1102
     920    1097    1098     921     922     923     921     926     925
     921     926     927     922     921     926     922     923     924
     923     920    1097     923     924     927     923     924    1101
     924     927     926     924     927     928     924    1101    1102
     924    1101    1106     925     926     927     925     930     929
     925     930     931     926     925     930     926     927     928
     927     924    1101     927     928     931     927     928    1105
     928     931     930     928     931     932     928    1105    1106
     928    1105    1110     929     930     931     929     934     933
     929     934     935     930     929     934     930     931     932
     931     928    1105     931     932     935     931     932    1109
     932     935     934     932     935     936     932    1109    1114
     932    1109    1110     933     934     935     933     938     937
     933     938     939     934     933     938     934     935     936
     935     932    1109     935     936     939     935     936    1113
     936     939     938     936     939     940     936    1113    1118
     936    1113    1114     937     938     939     937     942     941
     937     942     943     938     937     942     938     939     940
     939     936    1113     939     940     943     939     940    1117
     940     943     942     940     943     944     940    1117    1122
     940    1117    1118     941     942     943     941     946     945
     941     946     947     942     941     946     942     943     944
     943     940    1117     943     944     947     943     944    1121
     944     947     946     944     947     948     944    1121    1122
     944    1121    1126     945     946     947     945     950     949
     945     950     951     946     945     950     946     947     948
     947     944    1121     947     948     951     947     948    1125
     948     951     950     948     951     952     948    1125    1126
     948    1125    1130     949     950     951     949     954     953
     949     954     955     950     949     954     950     951     952
     951     948    1125     951     952     955     951     952    1129
     952     955     954     952     955     956     952    1129    1134
     952    1129    1130     953     954     955     953     958     957
     953     958     959     954     953     958     954     955     956
     955     952    1129     955     956     959     955     956    1133
     956     959     958     956     959     960     956    1133    1138
     956    1133    1134     957     958     959     957     962     961
     957     962     963     958     957     962     958     959     960
     959     956    1133     959     960     963     959     960    1137
     960     963     962     960     963     964     960    1137    1142
     960    1137    1138     961     962     963     961     966     965
     961     966     967     962     961     966     962     963     964
     963     960    1137     963     964     967     963     964    1141
     964     967     966     964     967     968     964    1141    1142
     964    1141    1146     965     966     967     965     970     969
     965     970     971     966     965     970     966     967     968
     967     964    1141     967     968     971     967     968    1145
     968     971     970     968     971     972     968    1145    1146
     968    1145    1150     969     970     971     969     974     973
     969     974     975     970     969     974     970     971     972
     971     968    1145     971     972     975     971     972    1149
     972     975     974     972     975     976     972    1149    1154
     972    1149    1150     973     974     975     973     978     977
     973     978     979     974     973     978     974     975     976
     975     972    1149     975     976     979     975     976    1153
     976     979     978     976     979     980     976    1153    1158
     976    1153    1154     977     978     979     977     982     981
     977     982     983     978     977     982     978     979     980
     979     976    1153     979     980     983     979     980    1157
     980     983     982     980     983     984     980    1157    1162
     980    1157    1158     981     982     983     981     986     985
     981     986     987     982     981     986     982     983     984
     983     980    1157     983     984     987     983     984    1161
     984     987     986     984     987     988     984    1161    1162
     984    1161    1166     985     986     987     985     990     989
     985     990     991     986     985     990     986     987     988
     987     984    1161     987     988     991     987     988    1165
     988     991     990     988     991     992     988    1165    1166
     988    1165    1170     989     990     991     989     994     993
     989     994     995     990     989     994     990     991     992
     991     988    1165     991     992     995     991     992    1169
     992     995     994     992     995     996     992    1169    1174
     992    1169    1170     993     994     995     993     998     997
     993     998     999     994     993     998     994     995     996
     995     992    1169     995     996     999     995     996    1173
     996     999     998     996     999    1000     996    1173    1178
     996    1173    1174     997     998     999     997    1002    1001
     997    1002    1003     998     997    1002     998     999    1000
     999     996    1173     999    1000    1003     999    1000    1177
    1000    1003    1002    1000    1003    1004    1000    1177    1182
    1000    1177    1178    1001    1002    1003    1001    1006    1005
    1001    1006    1007    1002    1001    1006    1002    1003    1004
    1003    1000    1177    1003    1004    1007    1003    1004    1181
    1004    1007    1006    1004    1007    1008    1004    1181    1182
    1004    1181    1186    1005    1006    1007    1005    1010    1009
    1005    1010    1011    1006    1005    1010    1006    1007    1008
    1007    1004    1181    1007    1008    1011    1007    1008    1185
    1008    1011    1010    1008    1011    1012    1008    1185    1186
    1008    1185    1190    1009    1010    1011    1009    1014    1013
    1009    1014    1015    1010    1009    1014    1010    1011    1012
    1011    1008    1185    1011    1012    1015    1011    1012    1189
    1012    1015    1014    1012    1015    1016    1012    1189    1194
    1012    1189    1190    1013    1014    1015    1013    1018    1017
    1013    1018    1019    1014    1013    1018    1014    1015    1016
    1015    1012    1189    1015    1016    1019    1015    1016    1193
    1016    1019    1018    1016    1019    1020    1016    1193    1198
    1016    1193    1194    1017    1018    1019    1017    1022    1021
    1017    1022    1023    1018    1017    1022    1018    1019    1020
    1019    1016    1193    1019    1020    1023    1019    1020    1197
    1020    1023    1022    1020    1023    1024    1020    1197    1202
    1020    1197    1198    1021    1022    1023    1021    1026    1025
    1021    1026    1027    1022    1021    1026    1022    1023    1024
    1023    1020    1197    1023    1024    1027    1023    1024    1201
    1024    1027    1026    1024    1027    1028    1024    1201    1202
    1024    1201    1206    1025    1026    1027    1025    1030    1029
    1025    1030    1031    1026    1025    1030    1026    1027    1028
    1027    1024    1201    1027    1028    1031    1027    1028    1205
    1028    1031    1030    1028    1031    1032    1028    1205    1206
    1028    1205    1210    1029    1030    1031    1029    1034    1033
    1029    1034    1035    1030    1029    1034    1030    1031    1032
    1031    1028    1205    1031    1032    1035    1031    1032    1209
    1032    1035    1034    1032    1035    1036    1032    1209    1214
    1032    1209    1210    1033    1034    1035    1033    1038    1037
    1033    1038    1039    1034    1033    1038    1034    1035    1036
    1035    1032    1209    1035    1036    1039    1035    1036    1213
    1036    1039    1038    1036    1039    1040    1036    1213    1218
    1036    1213    1214    1037    1038    1039    1037    1042    1041
    1037    1042    1043    1038    1037    1042    1038    1039    1040
    1039    1036    1213    1039    1040    1043    1039    1040    1217
    1040    1043    1042    1040    1043    1044    1040    1217    1222
    1040    1217    1218    1041    1042    1043    1041    1046    1045
    1041    1046    1047    1042    1041    1046    1042    1043    1044
    1043    1040    1217    1043    1044    1047    1043    1044    1221
    1044    1047    1046    1044    1047    1048    1044    1221    1222
    1044    1221    1226    1045    1046    1047    1045    1050    1049
    1045    1050    1051    1046    1045    1050    1046    1047    1048
    1047    1044    1221    1047    1048    1051    1047    1048    1225
    1048    1051    1050    1048    1051    1052    1048    1225    1226
    1048    1225    1230    1049    1050    1051    1049    1054    1053
    1049    1054    1055    1050    1049    1054    1050    1051    1052
    1051    1048    1225    1051    1052    1055    1051    1052    1229
    1052    1055    1054    1052    1055    1056    1052    1229    1234
    1052    1229    1230    1053    1054    1055    1053    1058    1057
    1053    1058    1059    1054    1053    1058    1054    1055    1056
    1055    1052    1229    1055    1056    1059    1055    1056    1233
    1056    1059    1058    1056    1059    1060    1056    1233    1238
    1056    1233    1234    1057    1058    1059    1057    1062    1061
    1057    1062    1063    1058    1057    1062    1058    1059    1060
    1059    1056    1233    1059    1060    1063    1059    1060    1237
    1060    1063    1062    1060    1063    1064    1060    1237    1242
    1060    1237    1238    1061    1062    1063    1061    1066    1065
    1061    1066    1067    1062    1061    1066    1062    1063    1064
    1063    1060    1237    1063    1064    1067    1063    1064    1241
    1064    1067    1066    1064    1067    1068    1064    1241    1242
    1064    1241    1246    1065    1066    1067    1065    1070    1069
    1065    1070    1071    1066    1065    1070    1066    1067    1068
    1067    1064    1241    1067    1068    1071    1067    1068    1245
    1068    1071    1070    1068    1071    1072    1068    1245    1246
    1068    1245    1250    1069    1070    1071    1069    1074    1073
    1069    1074    1075    1070    1069    1074    1070    1071    1072
    1071    1068    1245    1071    1072    1075    1071    1072    1249
    1072    1075    1074    1072    1075    1076    1072    1249    1254
    1072    1249    1250    1073    1074    1075    1073    1078    1077
    1073    1078    1079    1074    1073    1078    1074    1075    1076
    1075    1072    1249    1075    1076    1079    1075    1076    1253
    1076    1079    1078    1076    1079    1080    1076    1253    1254
    1076    1253    1258    1077    1078    1079    1078    1079    1080
    1079    1076    1253    1079    1080    1257    1080    1257    1258
    1081    1082    1083    1081    1086    1085    1081    1086    1087
    1082    1081    1086    1082    1083    1084    1083    1084    1087
    1083    1084    1261    1084    1087    1086    1084    1087    1088
    1084    1261    1262    1084    1261    1266    1085    1086    1087
    1085    1090    1089    1085    1090    1091    1086    1085    1090
    1086    1087    1088    1087    1084    1261    1087    1088    1091
    1087    1088    1265    1088    1091    1090    1088    1091    1092
    1088    1265    1266    1088    1265    1270    1089    1090    1091
    1089    1094    1093    1089    1094    1095    1090    1089    1094
    1090    1091    1092    1091    1088    1265    1091    1092    1095
    1091    1092    1269    1092    1095    1094    1092    1095    1096
    1092    1269    1274    1092    1269    1270    1093    1094    1095
    1093    1098    1097    1093    1098    1099    1094    1093    1098
    1094    1095    1096    1095    1092    1269    1095    1096    1099
    1095    1096    1273    1096    1099    1098    1096    1099    1100
    1096    1273    1274    1096    1273    1278    1097    1098    1099
    1097    1102    1101    1097    1102    1103    1098    1097    1102
    1098    1099    1100    1099    1096    1273    1099    1100    1103
    1099    1100    1277    1100    1103    1102    1100    1103    1104
    1100    1277    1282    1100    1277    1278    1101    1102    1103
    1101    1106    1105    1101    1106    1107    1102    1101    1106
    1102    1103    1104    1103    1100    1277    1103    1104    1107
    1103    1104    1281    1104    1107    1106    1104    1107    1108
    1104    1281    1282    1104    1281    1286    1105    1106    1107
    1105    1110    1109    1105    1110    1111    1106    1105    1110
    1106    1107    1108    1107    1104    1281    1107    1108    1111
    1107    1108    1285    1108    1111    1110    1108    1111    1112
    1108    1285    1286    1108    1285    1290    1109    1110    1111
    1109    1114    1113    1109    1114    1115    1110    1109    1114
    1110    1111    1112    1111    1108    1285    1111    1112    1115
    1111    1112    1289    1112    1115    1114    1112    1115    1116
    1112    1289    1294    1112    1289    1290    1113    1114    1115
    1113    1118    1117    1113    1118    1119    1114    1113    1118
    1114    1115    1116    1115    1112    1289    1115    1116    1119
    1115    1116    1293    1116    1119    1118    1116    1119    1120
    1116    1293    1298    1116    1293    1294    1117    1118    1119
    1117    1122    1121    1117    1122    1123    1118    1117    1122
    1118    1119    1120    1119    1116    1293    1119    1120    1123
    1119    1120    1297    1120    1123    1122    1120    1123    1124
    1120    1297    1302    1120    1297    1298    1121    1122    1123
    1121    1126    1125    1121    1126    1127    1122    1121    1126
    1122    1123    1124    1123    1120    1297    1123    1124    1127
    1123    1124    1301    1124    1127    1126    1124    1127    1128
    1124    1301    1302    1124    1301    1306    1125    1126    1127
    1125    1130    1129    1125    1130    1131    1126    1125    1130
    1126    1127    1128    1127    1124    1301    1127    1128    1131
    1127    1128    1305    1128    1131    1130    1128    1131    1132
    1128    1305    1306    1128    1305    1310    1129    1130    1131
    1129    1134    1133    1129    1134    1135    1130    1129    1134
    1130    1131    1132    1131    1128    1305    1131    1132    1135
    1131    1132    1309    1132    1135    1134    1132    1135    1136
    1132    1309    1314    1132    1309    1310    1133    1134    1135
    1133    1138    1137    1133    1138    1139    1134    1133    1138
    1134    1135    1136    1135    1132    1309    1135    1136    1139
    1135    1136    1313    1136    1139    1138    1136    1139    1140
    1136    1313    1318    1136    1313    1314    1137    1138    1139
    1137    1142    1141    1137    1142    1143    1138    1137    1142
    1138    1139    1140    1139    1136    1313    1139    1140    1143
    1139    1140    1317    1140    1143    1142    1140    1143    1144
    1140    1317    1322    1140    1317    1318    1141    1142    1143
    1141    1146    1145    1141    1146    1147    1142    1141    1146
    1142    1143    1144    1143    1140    1317    1143    1144    1147
    1143    1144    1321    1144    1147    1146    1144    1147    1148
    1144    1321    1322    1144    1321    1326    1145    1146    1147
    1145    1150    1149    1145    1150    1151    1146    1145    1150
    1146    1147    1148    1147    1144    1321    1147    1148    1151
    1147    1148    1325    1148    1151    1150    1148    1151    1152
    1148    1325    1326    1148    1325    1330    1149    1150    1151
    1149    1154    1153    1149    1154    1155    1150    1149    1154
    1150    1151    1152    1151    1148    1325    1151    1152    1155
    1151    1152    1329    1152    1155    1154    1152    1155    1156
    1152    1329    1334    1152    1329    1330    1153    1154    1155
    1153    1158    1157    1153    1158    1159    1154    1153    1158
    1154    1155    1156    1155    1152    1329    1155    1156    1159
    1155    1156    1333    1156    1159    1158    1156    1159    1160
    1156    1333    1338    1156    1333    1334    1157    1158    1159
    1157    1162    1161    1157    1162    1163    1158    1157    1162
    1158    1159    1160    1159    1156    1333    1159    1160    1163
    1159    1160    1337    1160    1163    1162    1160    1163    1164
    1160    1337    1342    1160    1337    1338    1161    1162    1163
    1161    1166    1165    1161    1166    1167    1162    1161    1166
    1162    1163    1164    1163    1160    1337    1163    1164    1167
    1163    1164    1341    1164    1167    1166    1164    1167    1168
    1164    1341    1342    1164    1341    1346    1165    1166    1167
    1165    1170    1169    1165    1170    1171    1166    1165    1170
    1166    1167    1168    1167    1164    1341    1167    1168    1171
    1167    1168    1345    1168    1171    1170    1168    1171    1172
    1168    1345    1346    1168    1345    1350    1169    1170    1171
    1169    1174    1173    1169    1174    1175    1170    1169    1174
    1170    1171    1172    1171    1168    1345    1171    1172    1175
    1171    1172    1349    1172    1175    1174    1172    1175    1176
    1172    1349    1354    1172    1349    1350    1173    1174    1175
    1173    1178    1177    1173    1178    1179    1174    1173    1178
    1174    1175    1176    1175    1172    1349    1175    1176    1179
    1175    1176    1353    1176    1179    1178    1176    1179    1180
    1176    1353    1358    1176    1353    1354    1177    1178    1179
    1177    1182    1181    1177    1182    1183    1178    1177    1182
    1178    1179    1180    1179    1176    1353    1179    1180    1183
    1179    1180    1357    1180    1183    1182    1180    1183    1184
    1180    1357    1362    1180    1357    1358    1181    1182    1183
    1181    1186    1185    1181    1186    1187    1182    1181    1186
    1182    1183    1184    1183    1180    1357    1183    1184    1187
    1183    1184    1361    1184    1187    1186    1184    1187    1188
    1184    1361    1362    1184    1361    1366    1185    1186    1187
    1185    1190    1189    1185    1190    1191    1186    1185    1190
    1186    1187    1188    1187    1184    1361    1187    1188    1191
    1187    1188    1365    1188    1191    1190    1188    1191    1192
    1188    1365    1366    1188    1365    1370    1189    1190    1191
    1189    1194    1193    1189    1194    1195    1190    1189    1194
    1190    1191    1192    1191    1188    1365    1191    1192    1195
    1191    1192    1369    1192    1195    1194    1192    1195    1196
    1192    1369    1374    1192    1369    1370    1193    1194    1195
    1193    1198    1197    1193    1198    1199    1194    1193    1198
    1194    1195    1196    1195    1192    1369    1195    1196    1199
    1195    1196    1373    1196    1199    1198    1196    1199    1200
    1196    1373    1378    1196    1373    1374    1197    1198    1199
    1197    1202    1201    1197    1202    1203    1198    1197    1202
    1198    1199    1200    1199    1196    1373    1199    1200    1203
    1199    1200    1377    1200    1203    1202    1200    1203    1204
    1200    1377    1382    1200    1377    1378    1201    1202    1203
    1201    1206    1205    1201    1206    1207    1202    1201    1206
    1202    1203    1204    1203    1200    1377    1203    1204    1207
    1203    1204    1381    1204    1207    1206    1204    1207    1208
    1204    1381    1382    1204    1381    1386    1205    1206    1207
    1205    1210    1209    1205    1210    1211    1206    1205    1210
    1206    1207    1208    1207    1204    1381    1207    1208    1211
    1207    1208    1385    1208    1211    1210    1208    1211    1212
    1208    1385    1386    1208    1385    1390    1209    1210    1211
    1209    1214    1213    1209    1214    1215    1210    1209    1214
    1210    1211    1212    1211    1208    1385    1211    1212    1215
    1211    1212    1389    1212    1215    1214    1212    1215    1216
    1212    1389    1394    1212    1389    1390    1213    1214    1215
    1213    1218    1217    1213    1218    1219    1214    1213    1218
    1214    1215    1216    1215    1212    1389    1215    1216    1219
    1215    1216    1393    1216    1219    1218    1216    1219    1220
    1216    1393    1398    1216    1393    1394    1217    1218    1219
    1217    1222    1221    1217    1222    1223    1218    1217    1222
    1218    1219    1220    1219    1216    1393    1219    1220    1223
    1219    1220    1397    1220    1223    1222    1220    1223    1224
    1220    1397    1402    1220    1397    1398    1221    1222    1223
    1221    1226    1225    1221    1226    1227    1222    1221    1226
    1222    1223    1224    1223    1220    1397    1223    1224    1227
    1223    1224    1401    1224    1227    1226    1224    1227    1228
    1224    1401    1402    1224    1401    1406    1225    1226    1227
    1225    1230    1229    1225    1230    1231    1226    1225    1230
    1226    1227    1228    1227    1224    1401    1227    1228    1231
    1227    1228    1405    1228    1231    1230    1228    1231    1232
    1228    1405    1406    1228    1405    1410    1229    1230    1231
    1229    1234    1233    1229    1234    1235    1230    1229    1234
    1230    1231    1232    1231    1228    1405    1231    1232    1235
    1231    1232    1409    1232    1235    1234    1232    1235    1236
    1232    1409    1414    1232    1409    1410    1233    1234    1235
    1233    1238    1237    1233    1238    1239    1234    1233    1238
    1234    1235    1236    1235    1232    1409    1235    1236    1239
    1235    1236    1413    1236    1239    1238    1236    1239    1240
    1236    1413    1418    1236    1413    1414    1237    1238    1239
    1237    1242    1241    1237    1242    1243    1238    1237    1242
    1238    1239    1240    1239    1236    1413    1239    1240    1243
    1239    1240    1417    1240    1243    1242    1240    1243    1244
    1240    1417    1422    1240    1417    1418    1241    1242    1243
    1241    1246    1245    1241    1246    1247    1242    1241    1246
    1242    1243    1244    1243    1240    1417    1243    1244    1247
    1243    1244    1421    1244    1247    1246    1244    1247    1248
    1244    1421    1422    1244    1421    1426    1245    1246    1247
    1245    1250    1249    1245    1250    1251    1246    1245    1250
    1246    1247    1248    1247    1244    1421    1247    1248    1251
    1247    1248    1425    1248    1251    1250    1248    1251    1252
    1248    1425    1426    1248    1425    1430    1249    1250    1251
    1249    1254    1253    1249    1254    1255    1250    1249    1254
    1250    1251    1252    1251    1248    1425    1251    1252    1255
    1251    1252    1429    1252    1255    1254    1252    1255    1256
    1252    1429    1434    1252    1429    1430    1253    1254    1255
    1253    1258    1257    1253    1258    1259    1254    1253    1258
    1254    1255    1256    1255    1252    1429    1255    1256    1259
    1255    1256    1433    1256    1259    1258    1256    1259    1260
    1256    1433    1438    1256    1433    1434    1257    1258    1259
    1258    1259    1260    1259    1256    1433    1259    1260    1437
    1260    1437    1438    1261    1262    1263    1261    1266    1265
    1261    1266    1267    1262    1261    1266    1262    1263    1264
    1263    1264    1267    1263    1264    1441    1264    1267    1266
    1264    1267    1268    1264    1441    1442    1264    1441    1446
    1265    1266    1267    1265    1270    1269    1265    1270    1271
    1266    1265    1270    1266    1267    1268    1267    1264    1441
    1267    1268    1271    1267    1268    1445    1268    1271    1270
    1268    1271    1272    1268    1445    1446    1268    1445    1450
    1269    1270    1271    1269    1274    1273    1269    1274    1275
    1270    1269    1274    1270    1271    1272    1271    1268    1445
    1271    1272    1275    1271    1272    1449    1272    1275    1274
    1272    1275    1276    1272    1449    1454    1272    1449    1450
    1273    1274    1275    1273    1278    1277    1273    1278    1279
    1274    1273    1278    1274    1275    1276    1275    1272    1449
    1275    1276    1279    1275    1276    1453    1276    1279    1278
    1276    1279    1280    1276    1453    1458    1276    1453    1454
    1277    1278    1279    1277    1282    1281    1277    1282    1283
    1278    1277    1282    1278    1279    1280    1279    1276    1453
    1279    1280    1283    1279    1280    1457    1280    1283    1282
    1280    1283    1284    1280    1457    1462    1280    1457    1458
    1281    1282    1283    1281    1286    1285    1281    1286    1287
    1282    1281    1286    1282    1283    1284    1283    1280    1457
    1283    1284    1287    1283    1284    1461    1284    1287    1286
    1284    1287    1288    1284    1461    1462    1284    1461    1466
    1285    1286    1287    1285    1290    1289    1285    1290    1291
    1286    1285    1290    1286    1287    1288    1287    1284    1461
    1287    1288    1291    1287    1288    1465    1288    1291    1290
    1288    1291    1292    1288    1465    1466    1288    1465    1470
    1289    1290    1291    1289    1294    1293    1289    1294    1295
    1290    1289    1294    1290    1291    1292    1291    1288    1465
    1291    1292    1295    1291    1292    1469    1292    1295    1294
    1292    1295    1296    1292    1469    1474    1292    1469    1470
    1293    1294    1295    1293    1298    1297    1293    1298    1299
    1294    1293    1298    1294    1295    1296    1295    1292    1469
    1295    1296    1299    1295    1296    1473    1296    1299    1298
    1296    1299    1300    1296    1473    1478    1296    1473    1474
    1297    1298    1299    1297    1302    1301    1297    1302    1303
    1298    1297    1302    1298    1299    1300    1299    1296    1473
    1299    1300    1303    1299    1300    1477    1300    1303    1302
    1300    1303    1304    1300    1477    1482    1300    1477    1478
    1301    1302    1303    1301    1306    1305    1301    1306    1307
    1302    1301    1306    1302    1303    1304    1303    1300    1477
    1303    1304    1307    1303    1304    1481    1304    1307    1306
    1304    1307    1308    1304    1481    1482    1304    1481    1486
    1305    1306    1307    1305    1310    1309    1305    1310    1311
    1306    1305    1310    1306    1307    1308    1307    1304    1481
    1307    1308    1311    1307    1308    1485    1308    1311    1310
    1308    1311    1312    1308    1485    1486    1308    1485    1490
    1309    1310    1311    1309    1314    1313    1309    1314    1315
    1310    1309    1314    1310    1311    1312    1311    1308    1485
    1311    1312    1315    1311    1312    1489    1312    1315    1314
    1312    1315    1316    1312    1489    1494    1312    1489    1490
    1313    1314    1315    1313    1318    1317    1313    1318    1319
    1314    1313    1318    1314    1315    1316    1315    1312    1489
    1315    1316    1319    1315    1316    1493    1316    1319    1318
    1316    1319    1320    1316    1493    1494    1316    1493    1498
    1317    1318    1319    1317    1322    1321    1317    1322    1323
    1318    1317    1322    1318    1319    1320    1319    1316    1493
    1319    1320    1323    1319    1320    1497    1320    1323    1322
    1320    1323    1324    1320    1497    1498    1320    1497    1502
    1321    1322    1323    1321    1326    1325    1321    1326    1327
    1322    1321    1326    1322    1323    1324    1323    1320    1497
    1323    1324    1327    1323    1324    1501    1324    1327    1326
    1324    1327    1328    1324    1501    1502    1324    1501    1506
    1325    1326    1327    1325    1330    1329    1325    1330    1331
    1326    1325    1330    1326    1327    1328    1327    1324    1501
    1327    1328    1331    1327    1328    1505    1328    1331    1330
    1328    1331    1332    1328    1505    1506    1328    1505    1510
    1329    1330    1331    1329    1334    1333    1329    1334    1335
    1330    1329    1334    1330    1331    1332    1331    1328    1505
    1331    1332    1335    1331    1332    1509    1332    1335    1334
    1332    1335    1336    1332    1509    1510    1332    1509    1514
    1333    1334    1335    1333    1338    1337    1333    1338    1339
    1334    1333    1338    1334    1335    1336    1335    1332    1509
    1335    1336    1339    1335    1336    1513    1336    1339    1338
    1336    1339    1340    1336    1513    1514    1336    1513    1518
    1337    1338    1339    1337    1342    1341    1337    1342    1343
    1338    1337    1342    1338    1339    1340    1339    1336    1513
    1339    1340    1343    1339    1340    1517    1340    1343    1342
    1340    1343    1344    1340    1517    1522    1340    1517    1518
    1341    1342    1343    1341    1346    1345    1341    1346    1347
    1342    1341    1346    1342    1343    1344    1343    1340    1517
    1343    1344    1347    1343    1344    1521    1344    1347    1346
    1344    1347    1348    1344    1521    1522    1344    1521    1526
    1345    1346    1347    1345    1350    1349    1345    1350    1351
    1346    1345    1350    1346    1347    1348    1347    1344    1521
    1347    1348    1351    1347    1348    1525    1348    1351    1350
    1348    1351    1352    1348    1525    1526    1348    1525    1530
    1349    1350    1351    1349    1354    1353    1349    1354    1355
    1350    1349    1354    1350    1351    1352    1351    1348    1525
    1351    1352    1355    1351    1352    1529    1352    1355    1354
    1352    1355    1356    1352    1529    1534    1352    1529    1530
    1353    1354    1355    1353    1358    1357    1353    1358    1359
    1354    1353    1358    1354    1355    1356    1355    1352    1529
    1355    1356    1359    1355    1356    1533    1356    1359    1358
    1356    1359    1360    1356    1533    1538    1356    1533    1534
    1357    1358    1359    1357    1362    1361    1357    1362    1363
    1358    1357    1362    1358    1359    1360    1359    1356    1533
    1359    1360    1363    1359    1360    1537    1360    1363    1362
    1360    1363    1364    1360    1537    1542    1360    1537    1538
    1361    1362    1363    1361    1366    1365    1361    1366    1367
    1362    1361    1366    1362    1363    1364    1363    1360    1537
    1363    1364    1367    1363    1364    1541    1364    1367    1366
    1364    1367    1368    1364    1541    1542    1364    1541    1546
    1365    1366    1367    1365    1370    1369    1365    1370    1371
    1366    1365    1370    1366    1367    1368    1367    1364    1541
    1367    1368    1371    1367    1368    1545    1368    1371    1370
    1368    1371    1372    1368    1545    1546    1368    1545    1550
    1369    1370    1371    1369    1374    1373    1369    1374    1375
    1370    1369    1374    1370    1371    1372    1371    1368    1545
    1371    1372    1375    1371    1372    1549    1372    1375    1374
    1372    1375    1376    1372    1549    1554    1372    1549    1550
    1373    1374    1375    1373    1378    1377    1373    1378    1379
    1374    1373    1378    1374    1375    1376    1375    1372    1549
    1375    1376    1379    1375    1376    1553    1376    1379    1378
    1376    1379    1380    1376    1553    1558    1376    1553    1554
    1377    1378    1379    1377    1382    1381    1377    1382    1383
    1378    1377    1382    1378    1379    1380    1379    1376    1553
    1379    1380    1383    1379    1380    1557    1380    1383    1382
    1380    1383    1384    1380    1557    1562    1380    1557    1558
    1381    1382    1383    1381    1386    1385    1381    1386    1387
    1382    1381    1386    1382    1383    1384    1383    1380    1557
    1383    1384    1387    1383    1384    1561    1384    1387    1386
    1384    1387    1388    1384    1561    1562    1384    1561    1566
    1385    1386    1387    1385    1390    1389    1385    1390    1391
    1386    1385    1390    1386    1387    1388    1387    1384    1561
    1387    1388    1391    1387    1388    1565    1388    1391    1390
    1388    1391    1392    1388    1565    1566    1388    1565    1570
    1389    1390    1391    1389    1394    1393    1389    1394    1395
    1390    1389    1394    1390    1391    1392    1391    1388    1565
    1391    1392    1395    1391    1392    1569    1392    1395    1394
    1392    1395    1396    1392    1569    1570    1392    1569    1574
    1393    1394    1395    1393    1398    1397    1393    1398    1399
    1394    1393    1398    1394    1395    1396    1395    1392    1569
    1395    1396    1399    1395    1396    1573    1396    1399    1398
    1396    1399    1400    1396    1573    1574    1396    1573    1578
    1397    1398    1399    1397    1402    1401    1397    1402    1403
    1398    1397    1402    1398    1399    1400    1399    1396    1573
    1399    1400    1403    1399    1400    1577    1400    1403    1402
    1400    1403    1404    1400    1577    1578    1400    1577    1582
    1401    1402    1403    1401    1406    1405    1401    1406    1407
    1402    1401    1406    1402    1403    1404    1403    1400    1577
    1403    1404    1407    1403    1404    1581    1404    1407    1406
    1404    1407    1408    1404    1581    1582    1404    1581    1586
    1405    1406    1407    1405    1410    1409    1405    1410    1411
    1406    1405    1410    1406    1407    1408    1407    1404    1581
    1407    1408    1411    1407    1408    1585    1408    1411    1410
    1408    1411    1412    1408    1585    1586    1408    1585    1590
    1409    1410    1411    1409    1414    1413    1409    1414    1415
    1410    1409    1414    1410    1411    1412    1411    1408    1585
    1411    1412    1415    1411    1412    1589    1412    1415    1414
    1412    1415    1416    1412    1589    1594    1412    1589    1590
    1413    1414    1415    1413    1418    1417    1413    1418    1419
    1414    1413    1418    1414    1415    1416    1415    1412    1589
    1415    1416    1419    1415    1416    1593    1416    1419    1418
    1416    1419    1420    1416    1593    1598    1416    1593    1594
    1417    1418    1419    1417    1422    1421    1417    1422    1423
    1418    1417    1422    1418    1419    1420    1419    1416    1593
    1419    1420    1423    1419    1420    1597    1420    1423    1422
    1420    1423    1424    1420    1597    1602    1420    1597    1598
    1421    1422    1423    1421    1426    1425    1421    1426    1427
    1422    1421    1426    1422    1423    1424    1423    1420    1597
    1423    1424    1427    1423    1424    1601    1424    1427    1426
    1424    1427    1428    1424    1601    1602    1424    1601    1606
    1425    1426    1427    1425    1430    1429    1425    1430    1431
    1426    1425    1430    1426    1427    1428    1427    1424    1601
    1427    1428    1431    1427    1428    1605    1428    1431    1430
    1428    1431    1432    1428    1605    1606    1428    1605    1610
    1429    1430    1431    1429    1434    1433    1429    1434    1435
    1430    1429    1434    1430    1431    1432    1431    1428    1605
    1431    1432    1435    1431    1432    1609    1432    1435    1434
    1432    1435    1436    1432    1609    1614    1432    1609    1610
    1433    1434    1435    1433    1438    1437    1433    1438    1439
    1434    1433    1438    1434    1435    1436    1435    1432    1609
    1435    1436    1439    1435    1436    1613    1436    1439    1438
    1436    1439    1440    1436    1613    1618    1436    1613    1614
    1437    1438    1439    1438    1439    1440    1439    1436    1613
    1439    1440    1617    1440    1617    1618    1441    1442    1443
    1441    1446    1445    1441    1446    1447    1442    1441    1446
    1442    1443    1444    1443    1444    1621    1443    1444    1447
    1444    1447    1446    1444    1447    1448    1444    1621    1622
    1444    1621    1626    1445    1446    1447    1445    1450    1449
    1445    1450    1451    1446    1445    1450    1446    1447    1448
    1447    1444    1621    1447    1448    1625    1447    1448    1451
    1448    1451    1450    1448    1451    1452    1448    1625    1626
    1448    1625    1630    1449    1450    1451    1449    1454    1453
    1449    1454    1455    1450    1449    1454    1450    1451    1452
    1451    1448    1625    1451    1452    1629    1451    1452    1455
    1452    1455    1454    1452    1455    1456    1452    1629    1634
    1452    1629    1630    1453    1454    1455    1453    1458    1457
    1453    1458    1459    1454    1453    1458    1454    1455    1456
    1455    1452    1629    1455    1456    1633    1455    1456    1459
    1456    1459    1458    1456    1459    1460    1456    1633    1638
    1456    1633    1634    1457    1458    1459    1457    1462    1461
    1457    1462    1463    1458    1457    1462    1458    1459    1460
    1459    1456    1633    1459    1460    1637    1459    1460    1463
    1460    1463    1462    1460    1463    1464    1460    1637    1642
    1460    1637    1638    1461    1462    1463    1461    1466    1465
    1461    1466    1467    1462    1461    1466    1462    1463    1464
    1463    1460    1637    1463    1464    1641    1463    1464    1467
    1464    1467    1466    1464    1467    1468    1464    1641    1642
    1464    1641    1646    1465    1466    1467    1465    1470    1469
    1465    1470    1471    1466    1465    1470    1466    1467    1468
    1467    1464    1641    1467    1468    1645    1467    1468    1471
    1468    1471    1470    1468    1471    1472    1468    1645    1646
    1468    1645    1650    1469    1470    1471    1469    1474    1473
    1469    1474    1475    1470    1469    1474    1470    1471    1472
    1471    1468    1645    1471    1472    1475    1471    1472    1649
    1472    1475    1474    1472    1475    1476    1472    1649    1650
    1472    1649    1654    1473    1474    1475    1473    1478    1477
    1473    1478    1479    1474    1473    1478    1474    1475    1476
    1475    1472    1649    1475    1476    1479    1475    1476    1653
    1476    1479    1478    1476    1479    1480    1476    1653    1654
    1476    1653    1658    1477    1478    1479    1477    1482    1481
    1477    1482    1483    1478    1477    1482    1478    1479    1480
    1479    1476    1653    1479    1480    1657    1479    1480    1483
    1480    1483    1482    1480    1483    1484    1480    1657    1658
    1480    1657    1662    1481    1482    1483    1481    1486    1485
    1481    1486    1487    1482    1481    1486    1482    1483    1484
    1483    1480    1657    1483    1484    1661    1483    1484    1487
    1484    1487    1486    1484    1487    1488    1484    1661    1662
    1484    1661    1666    1485    1486    1487    1485    1490    1489
    1485    1490    1491    1486    1485    1490    1486    1487    1488
    1487    1484    1661    1487    1488    1665    1487    1488    1491
    1488    1491    1490    1488    1491    1492    1488    1665    1666
    1488    1665    1670    1489    1490    1491    1489    1494    1493
    1489    1494    1495    1490    1489    1494    1490    1491    1492
    1491    1488    1665    1491    1492    1495    1491    1492    1669
    1492    1495    1494    1492    1495    1496    1492    1669    1674
    1492    1669    1670    1493    1494    1495    1493    1498    1497
    1493    1498    1499    1494    1493    1498    1494    1495    1496
    1495    1492    1669    1495    1496    1499    1495    1496    1673
    1496    1499    1498    1496    1499    1500    1496    1673    1678
    1496    1673    1674    1497    1498    1499    1497    1502    1501
    1497    1502    1503    1498    1497    1502    1498    1499    1500
    1499    1496    1673    1499    1500    1677    1499    1500    1503
    1500    1503    1502    1500    1503    1504    1500    1677    1682
    1500    1677    1678    1501    1502    1503    1501    1506    1505
    1501    1506    1507    1502    1501    1506    1502    1503    1504
    1503    1500    1677    1503    1504    1681    1503    1504    1507
    1504    1507    1506    1504    1507    1508    1504    1681    1682
    1504    1681    1686    1505    1506    1507    1505    1510    1509
    1505    1510    1511    1506    1505    1510    1506    1507    1508
    1507    1504    1681    1507    1508    1685    1507    1508    1511
    1508    1511    1510    1508    1511    1512    1508    1685    1686
    1508    1685    1690    1509    1510    1511    1509    1514    1513
    1509    1514    1515    1510    1509    1514    1510    1511    1512
    1511    1508    1685    1511    1512    1515    1511    1512    1689
    1512    1515    1514    1512    1515    1516    1512    1689    1694
    1512    1689    1690    1513    1514    1515    1513    1518    1517
    1513    1518    1519    1514    1513    1518    1514    1515    1516
    1515    1512    1689    1515    1516    1693    1515    1516    1519
    1516    1519    1518    1516    1519    1520    1516    1693    1698
    1516    1693    1694    1517    1518    1519    1517    1522    1521
    1517    1522    1523    1518    1517    1522    1518    1519    1520
    1519    1516    1693    1519    1520    1697    1519    1520    1523
    1520    1523    1522    1520    1523    1524    1520    1697    1702
    1520    1697    1698    1521    1522    1523    1521    1526    1525
    1521    1526    1527    1522    1521    1526    1522    1523    1524
    1523    1520    1697    1523    1524    1701    1523    1524    1527
    1524    1527    1526    1524    1527    1528    1524    1701    1702
    1524    1701    1706    1525    1526    1527    1525    1530    1529
    1525    1530    1531    1526    1525    1530    1526    1527    1528
    1527    1524    1701    1527    1528    1705    1527    1528    1531
    1528    1531    1530    1528    1531    1532    1528    1705    1706
    1528    1705    1710    1529    1530    1531    1529    1534    1533
    1529    1534    1535    1530    1529    1534    1530    1531    1532
    1531    1528    1705    1531    1532    1709    1531    1532    1535
    1532    1535    1534    1532    1535    1536    1532    1709    1714
    1532    1709    1710    1533    1534    1535    1533    1538    1537
    1533    1538    1539    1534    1533    1538    1534    1535    1536
    1535    1532    1709    1535    1536    1539    1535    1536    1713
    1536    1539    1538    1536    1539    1540    1536    1713    1714
    1536    1713    1718    1537    1538    1539    1537    1542    1541
    1537    1542    1543    1538    1537    1542    1538    1539    1540
    1539    1536    1713    1539    1540    1717    1539    1540    1543
    1540    1543    1542    1540    1543    1544    1540    1717    1718
    1540    1717    1722    1541    1542    1543    1541    1546    1545
    1541    1546    1547    1542    1541    1546    1542    1543    1544
    1543    1540    1717    1543    1544    1721    1543    1544    1547
    1544    1547    1546    1544    1547    1548    1544    1721    1722
    1544    1721    1726    1545    1546    1547    1545    1550    1549
    1545    1550    1551    1546    1545    1550    1546    1547    1548
    1547    1544    1721    1547    1548    1725    1547    1548    1551
    1548    1551    1550    1548    1551    1552    1548    1725    1726
    1548    1725    1730    1549    1550    1551    1549    1554    1553
    1549    1554    1555    1550    1549    1554    1550    1551    1552
    1551    1548    1725    1551    1552    1555    1551    1552    1729
    1552    1555    1554    1552    1555    1556    1552    1729    1730
    1552    1729    1734    1553    1554    1555    1553    1558    1557
    1553    1558    1559    1554    1553    1558    1554    1555    1556
    1555    1552    1729    1555    1556    1559    1555    1556    1733
    1556    1559    1558    1556    1559    1560    1556    1733    1734
    1556    1733    1738    1557    1558    1559    1557    1562    1561
    1557    1562    1563    1558    1557    1562    1558    1559    1560
    1559    1556    1733    1559    1560    1737    1559    1560    1563
    1560    1563    1562    1560    1563    1564    1560    1737    1742
    1560    1737    1738    1561    1562    1563    1561    1566    1565
    1561    1566    1567    1562    1561    1566    1562    1563    1564
    1563    1560    1737    1563    1564    1741    1563    1564    1567
    1564    1567    1566    1564    1567    1568    1564    1741    1742
    1564    1741    1746    1565    1566    1567    1565    1570    1569
    1565    1570    1571    1566    1565    1570    1566    1567    1568
    1567    1564    1741    1567    1568    1745    1567    1568    1571
    1568    1571    1570    1568    1571    1572    1568    1745    1746
    1568    1745    1750    1569    1570    1571    1569    1574    1573
    1569    1574    1575    1570    1569    1574    1570    1571    1572
    1571    1568    1745    1571    1572    1575    1571    1572    1749
    1572    1575    1574    1572    1575    1576    1572    1749    1754
    1572    1749    1750    1573    1574    1575    1573    1578    1577
    1573    1578    1579    1574    1573    1578    1574    1575    1576
    1575    1572    1749    1575    1576    1579    1575    1576    1753
    1576    1579    1578    1576    1579    1580    1576    1753    1758
    1576    1753    1754    1577    1578    1579    1577    1582    1581
    1577    1582    1583    1578    1577    1582    1578    1579    1580
    1579    1576    1753    1579    1580    1757    1579    1580    1583
    1580    1583    1582    1580    1583    1584    1580    1757    1762
    1580    1757    1758    1581    1582    1583    1581    1586    1585
    1581    1586    1587    1582    1581    1586    1582    1583    1584
    1583    1580    1757    1583    1584    1761    1583    1584    1587
    1584    1587    1586    1584    1587    1588    1584    1761    1762
    1584    1761    1766    1585    1586    1587    1585    1590    1589
    1585    1590    1591    1586    1585    1590    1586    1587    1588
    1587    1584    1761    1587    1588    1765    1587    1588    1591
    1588    1591    1590    1588    1591    1592    1588    1765    1766
    1588    1765    1770    1589    1590    1591    1589    1594    1593
    1589    1594    1595    1590    1589    1594    1590    1591    1592
    1591    1588    1765    1591    1592    1769    1591    1592    1595
    1592    1595    1594    1592    1595    1596    1592    1769    1774
    1592    1769    1770    1593    1594    1595    1593    1598    1597
    1593    1598    1599    1594    1593    1598    1594    1595    1596
    1595    1592    1769    1595    1596    1773    1595    1596    1599
    1596    1599    1598    1596    1599    1600    1596    1773    1778
    1596    1773    1774    1597    1598    1599    1597    1602    1601
    1597    1602    1603    1598    1597    1602    1598    1599    1600
    1599    1596    1773    1599    1600    1777    1599    1600    1603
    1600    1603    1602    1600    1603    1604    1600    1777    1782
    1600    1777    1778    1601    1602    1603    1601    1606    1605
    1601    1606    1607    1602    1601    1606    1602    1603    1604
    1603    1600    1777    1603    1604    1781    1603    1604    1607
    1604    1607    1606    1604    1607    1608    1604    1781    1782
    1604    1781    1786    1605    1606    1607    1605    1610    1609
    1605    1610    1611    1606    1605    1610    1606    1607    1608
    1607    1604    1781    1607    1608    1785    1607    1608    1611
    1608    1611    1610    1608    1611    1612    1608    1785    1786
    1608    1785    1790    1609    1610    1611    1609    1614    1613
    1609    1614    1615    1610    1609    1614    1610    1611    1612
    1611    1608    1785    1611    1612    1615    1611    1612    1789
    1612    1615    1614    1612    1615    1616    1612    1789    1790
    1612    1789    1794    1613    1614    1615    1613    1618    1617
    1613    1618    1619    1614    1613    1618    1614    1615    1616
    1615    1612    1789    1615    1616    1619    1615    1616    1793
    1616    1619    1618    1616    1619    1620    1616    1793    1794
    1616    1793    1798    1617    1618    1619    1618    1619    1620
    1619    1616    1793    1619    1620    1797    1620    1797    1798
    1621    1622    1623    1621    1626    1625    1621    1626    1627
    1622    1621    1626    1622    1623    1624    1623    1624    1801
    1623    1624    1627    1624    1627    1626    1624    1627    1628
    1624    1801    1802    1624    1801    1806    1625    1626    1627
    1625    1630    1629    1625    1630    1631    1626    1625    1630
    1626    1627    1628    1627    1624    1801    1627    1628    1805
    1627    1628    1631    1628    1631    1630    1628    1631    1632
    1628    1805    1806    1628    1805    1810    1629    1630    1631
    1629    1634    1633    1629    1634    1635    1630    1629    1634
    1630    1631    1632    1631    1628    1805    1631    1632    1635
    1631    1632    1809    1632    1635    1634    1632    1635    1636
    1632    1809    1810    1632    1809    1814    1633    1634    1635
    1633    1638    1637    1633    1638    1639    1634    1633    1638
    1634    1635    1636    1635    1632    1809    1635    1636    1639
    1635    1636    1813    1636    1639    1638    1636    1639    1640
    1636    1813    1814    1636    1813    1818    1637    1638    1639
    1637    1642    1641    1637    1642    1643    1638    1637    1642
    1638    1639    1640    1639    1636    1813    1639    1640    1817
    1639    1640    1643    1640    1643    1642    1640    1643    1644
    1640    1817    1818    1640    1817    1822    1641    1642    1643
    1641    1646    1645    1641    1646    1647    1642    1641    1646
    1642    1643    1644    1643    1640    1817    1643    1644    1821
    1643    1644    1647    1644    1647    1646    1644    1647    1648
    1644    1821    1822    1644    1821    1826    1645    1646    1647
    1645    1650    1649    1645    1650    1651    1646    1645    1650
    1646    1647    1648    1647    1644    1821    1647    1648    1825
    1647    1648    1651    1648    1651    1650    1648    1651    1652
    1648    1825    1826    1648    1825    1830    1649    1650    1651
    1649    1654    1653    1649    1654    1655    1650    1649    1654
    1650    1651    1652    1651    1648    1825    1651    1652    1655
    1651    1652    1829    1652    1655    1654    1652    1655    1656
    1652    1829    1834    1652    1829    1830    1653    1654    1655
    1653    1658    1657    1653    1658    1659    1654    1653    1658
    1654    1655    1656    1655    1652    1829    1655    1656    1659
    1655    1656    1833    1656    1659    1658    1656    1659    1660
    1656    1833    1838    1656    1833    1834    1657    1658    1659
    1657    1662    1661    1657    1662    1663    1658    1657    1662
    1658    1659    1660    1659    1656    1833    1659    1660    1837
    1659    1660    1663    1660    1663    1662    1660    1663    1664
    1660    1837    1842    1660    1837    1838    1661    1662    1663
    1661    1666    1665    1661    1666    1667    1662    1661    1666
    1662    1663    1664    1663    1660    1837    1663    1664    1841
    1663    1664    1667    1664    1667    1666    1664    1667    1668
    1664    1841    1842    1664    1841    1846    1665    1666    1667
    1665    1670    1669    1665    1670    1671    1666    1665    1670
    1666    1667    1668    1667    1664    1841    1667    1668    1845
    1667    1668    1671    1668    1671    1670    1668    1671    1672
    1668    1845    1846    1668    1845    1850    1669    1670    1671
    1669    1674    1673    1669    1674    1675    1670    1669    1674
    1670    1671    1672    1671    1668    1845    1671    1672    1849
    1671    1672    1675    1672    1675    1674    1672    1675    1676
    1672    1849    1854    1672    1849    1850    1673    1674    1675
    1673    1678    1677    1673    1678    1679    1674    1673    1678
    1674    1675    1676    1675    1672    1849    1675    1676    1853
    1675    1676    1679    1676    1679    1678    1676    1679    1680
    1676    1853    1858    1676    1853    1854    1677    1678    1679
    1677    1682    1681    1677    1682    1683    1678    1677    1682
    1678    1679    1680    1679    1676    1853    1679    1680    1857
    1679    1680    1683    1680    1683    1682    1680    1683    1684
    1680    1857    1862    1680    1857    1858    1681    1682    1683
    1681    1686    1685    1681    1686    1687    1682    1681    1686
    1682    1683    1684    1683    1680    1857    1683    1684    1861
    1683    1684    1687    1684    1687    1686    1684    1687    1688
    1684    1861    1862    1684    1861    1866    1685    1686    1687
    1685    1690    1689    1685    1690    1691    1686    1685    1690
    1686    1687    1688    1687    1684    1861    1687    1688    1865
    1687    1688    1691    1688    1691    1690    1688    1691    1692
    1688    1865    1866    1688    1865    1870    1689    1690    1691
    1689    1694    1693    1689    1694    1695    1690    1689    1694
    1690    1691    1692    1691    1688    1865    1691    1692    1695
    1691    1692    1869    1692    1695    1694    1692    1695    1696
    1692    1869    1870    1692    1869    1874    1693    1694    1695
    1693    1698    1697    1693    1698    1699    1694    1693    1698
    1694    1695    1696    1695    1692    1869    1695    1696    1699
    1695    1696    1873    1696    1699    1698    1696    1699    1700
    1696    1873    1874    1696    1873    1878    1697    1698    1699
    1697    1702    1701    1697    1702    1703    1698    1697    1702
    1698    1699    1700    1699    1696    1873    1699    1700    1877
    1699    1700    1703    1700    1703    1702    1700    1703    1704
    1700    1877    1878    1700    1877    1882    1701    1702    1703
    1701    1706    1705    1701    1706    1707    1702    1701    1706
    1702    1703    1704    1703    1700    1877    1703    1704    1881
    1703    1704    1707    1704    1707    1706    1704    1707    1708
    1704    1881    1882    1704    1881    1886    1705    1706    1707
    1705    1710    1709    1705    1710    1711    1706    1705    1710
    1706    1707    1708    1707    1704    1881    1707    1708    1885
    1707    1708    1711    1708    1711    1710    1708    1711    1712
    1708    1885    1886    1708    1885    1890    1709    1710    1711
    1709    1714    1713    1709    1714    1715    1710    1709    1714
    1710    1711    1712    1711    1708    1885    1711    1712    1715
    1711    1712    1889    1712    1715    1714    1712    1715    1716
    1712    1889    1894    1712    1889    1890    1713    1714    1715
    1713    1718    1717    1713    1718    1719    1714    1713    1718
    1714    1715    1716    1715    1712    1889    1715    1716    1719
    1715    1716    1893    1716    1719    1718    1716    1719    1720
    1716    1893    1898    1716    1893    1894    1717    1718    1719
    1717    1722    1721    1717    1722    1723    1718    1717    1722
    1718    1719    1720    1719    1716    1893    1719    1720    1897
    1719    1720    1723    1720    1723    1722    1720    1723    1724
    1720    1897    1902    1720    1897    1898    1721    1722    1723
    1721    1726    1725    1721    1726    1727    1722    1721    1726
    1722    1723    1724    1723    1720    1897    1723    1724    1901
    1723    1724    1727    1724    1727    1726    1724    1727    1728
    1724    1901    1902    1724    1901    1906    1725    1726    1727
    1725    1730    1729    1725    1730    1731    1726    1725    1730
    1726    1727    1728    1727    1724    1901    1727    1728    1905
    1727    1728    1731    1728    1731    1730    1728    1731    1732
    1728    1905    1906    1728    1905    1910    1729    1730    1731
    1729    1734    1733    1729    1734    1735    1730    1729    1734
    1730    1731    1732    1731    1728    1905    1731    1732    1735
    1731    1732    1909    1732    1735    1734    1732    1735    1736
    1732    1909    1914    1732    1909    1910    1733    1734    1735
    1733    1738    1737    1733    1738    1739    1734    1733    1738
    1734    1735    1736    1735    1732    1909    1735    1736    1913
    1735    1736    1739    1736    1739    1738    1736    1739    1740
    1736    1913    1918    1736    1913    1914    1737    1738    1739
    1737    1742    1741    1737    1742    1743    1738    1737    1742
    1738    1739    1740    1739    1736    1913    1739    1740    1917
    1739    1740    1743    1740    1743    1742    1740    1743    1744
    1740    1917    1922    1740    1917    1918    1741    1742    1743
    1741    1746    1745    1741    1746    1747    1742    1741    1746
    1742    1743    1744    1743    1740    1917    1743    1744    1921
    1743    1744    1747    1744    1747    1746    1744    1747    1748
    1744    1921    1922    1744    1921    1926    1745    1746    1747
    1745    1750    1749    1745    1750    1751    1746    1745    1750
    1746    1747    1748    1747    1744    1921    1747    1748    1925
    1747    1748    1751    1748    1751    1750    1748    1751    1752
    1748    1925    1926    1748    1925    1930    1749    1750    1751
    1749    1754    1753    1749    1754    1755    1750    1749    1754
    1750    1751    1752    1751    1748    1925    1751    1752    1929
    1751    1752    1755    1752    1755    1754    1752    1755    1756
    1752    1929    1934    1752    1929    1930    1753    1754    1755
    1753    1758    1757    1753    1758    1759    1754    1753    1758
    1754    1755    1756    1755    1752    1929    1755    1756    1759
    1755    1756    1933    1756    1759    1758    1756    1759    1760
    1756    1933    1934    1756    1933    1938    1757    1758    1759
    1757    1762    1761    1757    1762    1763    1758    1757    1762
    1758    1759    1760    1759    1756    1933    1759    1760    1937
    1759    1760    1763    1760    1763    1762    1760    1763    1764
    1760    1937    1938    1760    1937    1942    1761    1762    1763
    1761    1766    1765    1761    1766    1767    1762    1761    1766
    1762    1763    1764    1763    1760    1937    1763    1764    1941
    1763    1764    1767    1764    1767    1766    1764    1767    1768
    1764    1941    1942    1764    1941    1946    1765    1766    1767
    1765    1770    1769    1765    1770    1771    1766    1765    1770
    1766    1767    1768    1767    1764    1941    1767    1768    1945
    1767    1768    1771    1768    1771    1770    1768    1771    1772
    1768    1945    1946    1768    1945    1950    1769    1770    1771
    1769    1774    1773    1769    1774    1775    1770    1769    1774
    1770    1771    1772    1771    1768    1945    1771    1772    1775
    1771    1772    1949    1772    1775    1774    1772    1775    1776
    1772    1949    1950    1772    1949    1954    1773    1774    1775
    1773    1778    1777    1773    1778    1779    1774    1773    1778
    1774    1775    1776    1775    1772    1949    1775    1776    1779
    1775    1776    1953    1776    1779    1778    1776    1779    1780
    1776    1953    1954    1776    1953    1958    1777    1778    1779
    1777    1782    1781    1777    1782    1783    1778    1777    1782
    1778    1779    1780    1779    1776    1953    1779    1780    1957
    1779    1780    1783    1780    1783    1782    1780    1783    1784
    1780    1957    1962    1780    1957    1958    1781    1782    1783
    1781    1786    1785    1781    1786    1787    1782    1781    1786
    1782    1783    1784    1783    1780    1957    1783    1784    1961
    1783    1784    1787    1784    1787    1786    1784    1787    1788
    1784    1961    1962    1784    1961    1966    1785    1786    1787
    1785    1790    1789    1785    1790    1791    1786    1785    1790
    1786    1787    1788    1787    1784    1961    1787    1788    1965
    1787    1788    1791    1788    1791    1790    1788    1791    1792
    1788    1965    1966    1788    1965    1970    1789    1790    1791
    1789    1794    1793    1789    1794    1795    1790    1789    1794
    1790    1791    1792    1791    1788    1965    1791    1792    1795
    1791    1792    1969    1792    1795    1794    1792    1795    1796
    1792    1969    1974    1792    1969    1970    1793    1794    1795
    1793    1798    1797    1793    1798    1799    1794    1793    1798
    1794    1795    1796    1795    1792    1969    1795    1796    1799
    1795    1796    1973    1796    1799    1798    1796    1799    1800
    1796    1973    1978    1796    1973    1974    1797    1798    1799
    1798    1799    1800    1799    1796    1973    1799    1800    1977
    1800    1977    1978    1801    1802    1803    1801    1806    1805
    1801    1806    1807    1802    1801    1806    1802    1803    1804
    1803    1804    1981    1803    1804    1807    1804    1807    1806
    1804    1807    1808    1804    1981    1982    1804    1981    1986
    1805    1806    1807    1805    1810    1809    1805    1810    1811
    1806    1805    1810    1806    1807    1808    1807    1804    1981
    1807    1808    1985    1807    1808    1811    1808    1811    1810
    1808    1811    1812    1808    1985    1986    1808    1985    1990
    1809    1810    1811    1809    1814    1813    1809    1814    1815
    1810    1809    1814    1810    1811    1812    1811    1808    1985
    1811    1812    1815    1811    1812    1989    1812    1815    1814
    1812    1815    1816    1812    1989    1994    1812    1989    1990
    1813    1814    1815    1813    1818    1817    1813    1818    1819
    1814    1813    1818    1814    1815    1816    1815    1812    1989
    1815    1816    1819    1815    1816    1993    1816    1819    1818
    1816    1819    1820    1816    1993    1998    1816    1993    1994
    1817    1818    1819    1817    1822    1821    1817    1822    1823
    1818    1817    1822    1818    1819    1820    1819    1816    1993
    1819    1820    1997    1819    1820    1823    1820    1823    1822
    1820    1823    1824    1820    1997    2002    1820    1997    1998
    1821    1822    1823    1821    1826    1825    1821    1826    1827
    1822    1821    1826    1822    1823    1824    1823    1820    1997
    1823    1824    2001    1823    1824    1827    1824    1827    1826
    1824    1827    1828    1824    2001    2002    1824    2001    2006
    1825    1826    1827    1825    1830    1829    1825    1830    1831
    1826    1825    1830    1826    1827    1828    1827    1824    2001
    1827    1828    2005    1827    1828    1831    1828    1831    1830
    1828    1831    1832    1828    2005    2006    1828    2005    2010
    1829    1830    1831    1829    1834    1833    1829    1834    1835
    1830    1829    1834    1830    1831    1832    1831    1828    2005
    1831    1832    2009    1831    1832    1835    1832    1835    1834
    1832    1835    1836    1832    2009    2014    1832    2009    2010
    1833    1834    1835    1833    1838    1837    1833    1838    1839
    1834    1833    1838    1834    1835    1836    1835    1832    2009
    1835    1836    2013    1835    1836    1839    1836    1839    1838
    1836    1839    1840    1836    2013    2018    1836    2013    2014
    1837    1838    1839    1837    1842    1841    1837    1842    1843
    1838    1837    1842    1838    1839    1840    1839    1836    2013
    1839    1840    2017    1839    1840    1843    1840    1843    1842
    1840    1843    1844    1840    2017    2022    1840    2017    2018
    1841    1842    1843    1841    1846    1845    1841    1846    1847
    1842    1841    1846    1842    1843    1844    1843    1840    2017
    1843    1844    2021    1843    1844    1847    1844    1847    1846
    1844    1847    1848    1844    2021    2022    1844    2021    2026
    1845    1846    1847    1845    1850    1849    1845    1850    1851
    1846    1845    1850    1846    1847    1848    1847    1844    2021
    1847    1848    2025    1847    1848    1851    1848    1851    1850
    1848    1851    1852    1848    2025    2026    1848    2025    2030
    1849    1850    1851    1849    1854    1853    1849    1854    1855
    1850    1849    1854    1850    1851    1852    1851    1848    2025
    1851    1852    1855    1851    1852    2029    1852    1855    1854
    1852    1855    1856    1852    2029    2030    1852    2029    2034
    1853    1854    1855    1853    1858    1857    1853    1858    1859
    1854    1853    1858    1854    1855    1856    1855    1852    2029
    1855    1856    1859    1855    1856    2033    1856    1859    1858
    1856    1859    1860    1856    2033    2034    1856    2033    2038
    1857    1858    1859    1857    1862    1861    1857    1862    1863
    1858    1857    1862    1858    1859    1860    1859    1856    2033
    1859    1860    2037    1859    1860    1863    1860    1863    1862
    1860    1863    1864    1860    2037    2038    1860    2037    2042
    1861    1862    1863    1861    1866    1865    1861    1866    1867
    1862    1861    1866    1862    1863    1864    1863    1860    2037
    1863    1864    2041    1863    1864    1867    1864    1867    1866
    1864    1867    1868    1864    2041    2042    1864    2041    2046
    1865    1866    1867    1865    1870    1869    1865    1870    1871
    1866    1865    1870    1866    1867    1868    1867    1864    2041
    1867    1868    2045    1867    1868    1871    1868    1871    1870
    1868    1871    1872    1868    2045    2046    1868    2045    2050
    1869    1870    1871    1869    1874    1873    1869    1874    1875
    1870    1869    1874    1870    1871    1872    1871    1868    2045
    1871    1872    1875    1871    1872    2049    1872    1875    1874
    1872    1875    1876    1872    2049    2054    1872    2049    2050
    1873    1874    1875    1873    1878    1877    1873    1878    1879
    1874    1873    1878    1874    1875    1876    1875    1872    2049
    1875    1876    1879    1875    1876    2053    1876    1879    1878
    1876    1879    1880    1876    2053    2058    1876    2053    2054
    1877    1878    1879    1877    1882    1881    1877    1882    1883
    1878    1877    1882    1878    1879    1880    1879    1876    2053
    1879    1880    2057    1879    1880    1883    1880    1883    1882
    1880    1883    1884    1880    2057    2062    1880    2057    2058
    1881    1882    1883    1881    1886    1885    1881    1886    1887
    1882    1881    1886    1882    1883    1884    1883    1880    2057
    1883    1884    2061    1883    1884    1887    1884    1887    1886
    1884    1887    1888    1884    2061    2062    1884    2061    2066
    1885    1886    1887    1885    1890    1889    1885    1890    1891
    1886    1885    1890    1886    1887    1888    1887    1884    2061
    1887    1888    2065    1887    1888    1891    1888    1891    1890
    1888    1891    1892    1888    2065    2066    1888    2065    2070
    1889    1890    1891    1889    1894    1893    1889    1894    1895
    1890    1889    1894    1890    1891    1892    1891    1888    2065
    1891    1892    2069    1891    1892    1895    1892    1895    1894
    1892    1895    1896    1892    2069    2074    1892    2069    2070
    1893    1894    1895    1893    1898    1897    1893    1898    1899
    1894    1893    1898    1894    1895    1896    1895    1892    2069
    1895    1896    2073    1895    1896    1899    1896    1899    1898
    1896    1899    1900    1896    2073    2078    1896    2073    2074
    1897    1898    1899    1897    1902    1901    1897    1902    1903
    1898    1897    1902    1898    1899    1900    1899    1896    2073
    1899    1900    2077    1899    1900    1903    1900    1903    1902
    1900    1903    1904    1900    2077    2082    1900    2077    2078
    1901    1902    1903    1901    1906    1905    1901    1906    1907
    1902    1901    1906    1902    1903    1904    1903    1900    2077
    1903    1904    2081    1903    1904    1907    1904    1907    1906
    1904    1907    1908    1904    2081    2082    1904    2081    2086
    1905    1906    1907    1905    1910    1909    1905    1910    1911
    1906    1905    1910    1906    1907    1908    1907    1904    2081
    1907    1908    2085    1907    1908    1911    1908    1911    1910
    1908    1911    1912    1908    2085    2086    1908    2085    2090
    1909    1910    1911    1909    1914    1913    1909    1914    1915
    1910    1909    1914    1910    1911    1912    1911    1908    2085
    1911    1912    1915    1911    1912    2089    1912    1915    1914
    1912    1915    1916    1912    2089    2090    1912    2089    2094
    1913    1914    1915    1913    1918    1917    1913    1918    1919
    1914    1913    1918    1914    1915    1916    1915    1912    2089
    1915    1916    1919    1915    1916    2093    1916    1919    1918
    1916    1919    1920    1916    2093    2094    1916    2093    2098
    1917    1918    1919    1917    1922    1921    1917    1922    1923
    1918    1917    1922    1918    1919    1920    1919    1916    2093
    1919    1920    2097    1919    1920    1923    1920    1923    1922
    1920    1923    1924    1920    2097    2098    1920    2097    2102
    1921    1922    1923    1921    1926    1925    1921    1926    1927
    1922    1921    1926    1922    1923    1924    1923    1920    2097
    1923    1924    2101    1923    1924    1927    1924    1927    1926
    1924    1927    1928    1924    2101    2102    1924    2101    2106
    1925    1926    1927    1925    1930    1929    1925    1930    1931
    1926    1925    1930    1926    1927    1928    1927    1924    2101
    1927    1928    2105    1927    1928    1931    1928    1931    1930
    1928    1931    1932    1928    2105    2106    1928    2105    2110
    1929    1930    1931    1929    1934    1933    1929    1934    1935
    1930    1929    1934    1930    1931    1932    1931    1928    2105
    1931    1932    1935    1931    1932    2109    1932    1935    1934
    1932    1935    1936    1932    2109    2114    1932    2109    2110
    1933    1934    1935    1933    1938    1937    1933    1938    1939
    1934    1933    1938    1934    1935    1936    1935    1932    2109
    1935    1936    1939    1935    1936    2113    1936    1939    1938
    1936    1939    1940    1936    2113    2118    1936    2113    2114
    1937    1938    1939    1937    1942    1941    1937    1942    1943
    1938    1937    1942    1938    1939    1940    1939    1936    2113
    1939    1940    2117    1939    1940    1943    1940    1943    1942
    1940    1943    1944    1940    2117    2122    1940    2117    2118
    1941    1942    1943    1941    1946    1945    1941    1946    1947
    1942    1941    1946    1942    1943    1944    1943    1940    2117
    1943    1944    2121    1943    1944    1947    1944    1947    1946
    1944    1947    1948    1944    2121    2122    1944    2121    2126
    1945    1946    1947    1945    1950    1949    1945    1950    1951
    1946    1945    1950    1946    1947    1948    1947    1944    2121
    1947    1948    2125    1947    1948    1951    1948    1951    1950
    1948    1951    1952    1948    2125    2126    1948    2125    2130
    1949    1950    1951    1949    1954    1953    1949    1954    1955
    1950    1949    1954    1950    1951    1952    1951    1948    2125
    1951    1952    1955    1951    1952    2129    1952    1955    1954
    1952    1955    1956    1952    2129    2134    1952    2129    2130
    1953    1954    1955    1953    1958    1957    1953    1958    1959
    1954    1953    1958    1954    1955    1956    1955    1952    2129
    1955    1956    2133    1955    1956    1959    1956    1959    1958
    1956    1959    1960    1956    2133    2138    1956    2133    2134
    1957    1958    1959    1957    1962    1961    1957    1962    1963
    1958    1957    1962    1958    1959    1960    1959    1956    2133
    1959    1960    2137    1959    1960    1963    1960    1963    1962
    1960    1963    1964    1960    2137    2142    1960    2137    2138
    1961    1962    1963    1961    1966    1965    1961    1966    1967
    1962    1961    1966    1962    1963    1964    1963    1960    2137
    1963    1964    2141    1963    1964    1967    1964    1967    1966
    1964    1967    1968    1964    2141    2142    1964    2141    2146
    1965    1966    1967    1965    1970    1969    1965    1970    1971
    1966    1965    1970    1966    1967    1968    1967    1964    2141
    1967    1968    2145    1967    1968    1971    1968    1971    1970
    1968    1971    1972    1968    2145    2146    1968    2145    2150
    1969    1970    1971    1969    1974    1973    1969    1974    1975
    1970    1969    1974    1970    1971    1972    1971    1968    2145
    1971    1972    2149    1971    1972    1975    1972    1975    1974
    1972    1975    1976    1972    2149    2154    1972    2149    2150
    1973    1974    1975    1973    1978    1977    1973    1978    1979
    1974    1973    1978    1974    1975    1976    1975    1972    2149
    1975    1976    1979    1975    1976    2153    1976    1979    1978
    1976    1979    1980    1976    2153    2154    1976    2153    2158
    1977    1978    1979    1978    1979    1980    1979    1976    2153
    1979    1980    2157    1980    2157    2158    1981    1982    1983
    1981    1986    1985    1981    1986    1987    1982    1981    1986
    1982    1983    1984    1983    1984    2161    1983    1984    1987
    1984    1987    1986    1984    1987    1988    1984    2161    2162
    1984    2161    2166    1985    1986    1987    1985    1990    1989
    1985    1990    1991    1986    1985    1990    1986    1987    1988
    1987    1984    2161    1987    1988    2165    1987    1988    1991
    1988    1991    1990    1988    1991    1992    1988    2165    2166
    1988    2165    2170    1989    1990    1991    1989    1994    1993
    1989    1994    1995    1990    1989    1994    1990    1991    1992
    1991    1988    2165    1991    1992    2169    1991    1992    1995
    1992    1995    1994    1992    1995    1996    1992    2169    2174
    1992    2169    2170    1993    1994    1995    1993    1998    1997
    1993    1998    1999    1994    1993    1998    1994    1995    1996
    1995    1992    2169    1995    1996    1999    1995    1996    2173
    1996    1999    1998    1996    1999    2000    1996    2173    2178
    1996    2173    2174    1997    1998    1999    1997    2002    2001
    1997    2002    2003    1998    1997    2002    1998    1999    2000
    1999    1996    2173    1999    2000    2177    1999    2000    2003
    2000    2003    2002    2000    2003    2004    2000    2177    2182
    2000    2177    2178    2001    2002    2003    2001    2006    2005
    2001    2006    2007    2002    2001    2006    2002    2003    2004
    2003    2000    2177    2003    2004    2181    2003    2004    2007
    2004    2007    2006    2004    2007    2008    2004    2181    2182
    2004    2181    2186    2005    2006    2007    2005    2010    2009
    2005    2010    2011    2006    2005    2010    2006    2007    2008
    2007    2004    2181    2007    2008    2185    2007    2008    2011
    2008    2011    2010    2008    2011    2012    2008    2185    2186
    2008    2185    2190    2009    2010    2011    2009    2014    2013
    2009    2014    2015    2010    2009    2014    2010    2011    2012
    2011    2008    2185    2011    2012    2015    2011    2012    2189
    2012    2015    2014    2012    2015    2016    2012    2189    2194
    2012    2189    2190    2013    2014    2015    2013    2018    2017
    2013    2018    2019    2014    2013    2018    2014    2015    2016
    2015    2012    2189    2015    2016    2019    2015    2016    2193
    2016    2019    2018    2016    2019    2020    2016    2193    2194
    2016    2193    2198    2017    2018    2019    2017    2022    2021
    2017    2022    2023    2018    2017    2022    2018    2019    2020
    2019    2016    2193    2019    2020    2197    2019    2020    2023
    2020    2023    2022    2020    2023    2024    2020    2197    2202
    2020    2197    2198    2021    2022    2023    2021    2026    2025
    2021    2026    2027    2022    2021    2026    2022    2023    2024
    2023    2020    2197    2023    2024    2201    2023    2024    2027
    2024    2027    2026    2024    2027    2028    2024    2201    2202
    2024    2201    2206    2025    2026    2027    2025    2030    2029
    2025    2030    2031    2026    2025    2030    2026    2027    2028
    2027    2024    2201    2027    2028    2205    2027    2028    2031
    2028    2031    2030    2028    2031    2032    2028    2205    2206
    2028    2205    2210    2029    2030    2031    2029    2034    2033
    2029    2034    2035    2030    2029    2034    2030    2031    2032
    2031    2028    2205    2031    2032    2035    2031    2032    2209
    2032    2035    2034    2032    2035    2036    2032    2209    2214
    2032    2209    2210    2033    2034    2035    2033    2038    2037
    2033    2038    2039    2034    2033    2038    2034    2035    2036
    2035    2032    2209    2035    2036    2039    2035    2036    2213
    2036    2039    2038    2036    2039    2040    2036    2213    2218
    2036    2213    2214    2037    2038    2039    2037    2042    2041
    2037    2042    2043    2038    2037    2042    2038    2039    2040
    2039    2036    2213    2039    2040    2217    2039    2040    2043
    2040    2043    2042    2040    2043    2044    2040    2217    2222
    2040    2217    2218    2041    2042    2043    2041    2046    2045
    2041    2046    2047    2042    2041    2046    2042    2043    2044
    2043    2040    2217    2043    2044    2221    2043    2044    2047
    2044    2047    2046    2044    2047    2048    2044    2221    2222
    2044    2221    2226    2045    2046    2047    2045    2050    2049
    2045    2050    2051    2046    2045    2050    2046    2047    2048
    2047    2044    2221    2047    2048    2225    2047    2048    2051
    2048    2051    2050    2048    2051    2052    2048    2225    2226
    2048    2225    2230    2049    2050    2051    2049    2054    2053
    2049    2054    2055    2050    2049    2054    2050    2051    2052
    2051    2048    2225    2051    2052    2229    2051    2052    2055
    2052    2055    2054    2052    2055    2056    2052    2229    2234
    2052    2229    2230    2053    2054    2055    2053    2058    2057
    2053    2058    2059    2054    2053    2058    2054    2055    2056
    2055    2052    2229    2055    2056    2233    2055    2056    2059
    2056    2059    2058    2056    2059    2060    2056    2233    2238
    2056    2233    2234    2057    2058    2059    2057    2062    2061
    2057    2062    2063    2058    2057    2062    2058    2059    2060
    2059    2056    2233    2059    2060    2237    2059    2060    2063
    2060    2063    2062    2060    2063    2064    2060    2237    2242
    2060    2237    2238    2061    2062    2063    2061    2066    2065
    2061    2066    2067    2062    2061    2066    2062    2063    2064
    2063    2060    2237    2063    2064    2241    2063    2064    2067
    2064    2067    2066    2064    2067    2068    2064    2241    2242
    2064    2241    2246    2065    2066    2067    2065    2070    2069
    2065    2070    2071    2066    2065    2070    2066    2067    2068
    2067    2064    2241    2067    2068    2245    2067    2068    2071
    2068    2071    2070    2068    2071    2072    2068    2245    2246
    2068    2245    2250    2069    2070    2071    2069    2074    2073
    2069    2074    2075    2070    2069    2074    2070    2071    2072
    2071    2068    2245    2071    2072    2075    2071    2072    2249
    2072    2075    2074    2072    2075    2076    2072    2249    2254
    2072    2249    2250    2073    2074    2075    2073    2078    2077
    2073    2078    2079    2074    2073    2078    2074    2075    2076
    2075    2072    2249    2075    2076    2079    2075    2076    2253
    2076    2079    2078    2076    2079    2080    2076    2253    2258
    2076    2253    2254    2077    2078    2079    2077    2082    2081
    2077    2082    2083    2078    2077    2082    2078    2079    2080
    2079    2076    2253    2079    2080    2257    2079    2080    2083
    2080    2083    2082    2080    2083    2084    2080    2257    2262
    2080    2257    2258    2081    2082    2083    2081    2086    2085
    2081    2086    2087    2082    2081    2086    2082    2083    2084
    2083    2080    2257    2083    2084    2261    2083    2084    2087
    2084    2087    2086    2084    2087    2088    2084    2261    2262
    2084    2261    2266    2085    2086    2087    2085    2090    2089
    2085    2090    2091    2086    2085    2090    2086    2087    2088
    2087    2084    2261    2087    2088    2265    2087    2088    2091
    2088    2091    2090    2088    2091    2092    2088    2265    2266
    2088    2265    2270    2089    2090    2091    2089    2094    2093
    2089    2094    2095    2090    2089    2094    2090    2091    2092
    2091    2088    2265    2091    2092    2095    2091    2092    2269
    2092    2095    2094    2092    2095    2096    2092    2269    2274
    2092    2269    2270    2093    2094    2095    2093    2098    2097
    2093    2098    2099    2094    2093    2098    2094    2095    2096
    2095    2092    2269    2095    2096    2099    2095    2096    2273
    2096    2099    2098    2096    2099    2100    2096    2273    2278
    2096    2273    2274    2097    2098    2099    2097    2102    2101
    2097    2102    2103    2098    2097    2102    2098    2099    2100
    2099    2096    2273    2099    2100    2277    2099    2100    2103
    2100    2103    2102    2100    2103    2104    2100    2277    2282
    2100    2277    2278    2101    2102    2103    2101    2106    2105
    2101    2106    2107    2102    2101    2106    2102    2103    2104
    2103    2100    2277    2103    2104    2281    2103    2104    2107
    2104    2107    2106    2104    2107    2108    2104    2281    2282
    2104    2281    2286    2105    2106    2107    2105    2110    2109
    2105    2110    2111    2106    2105    2110    2106    2107    2108
    2107    2104    2281    2107    2108    2285    2107    2108    2111
    2108    2111    2110    2108    2111    2112    2108    2285    2286
    2108    2285    2290    2109    2110    2111    2109    2114    2113
    2109    2114    2115    2110    2109    2114    2110    2111    2112
    2111    2108    2285    2111    2112    2289    2111    2112    2115
    2112    2115    2114    2112    2115    2116    2112    2289    2294
    2112    2289    2290    2113    2114    2115    2113    2118    2117
    2113    2118    2119    2114    2113    2118    2114    2115    2116
    2115    2112    2289    2115    2116    2293    2115    2116    2119
    2116    2119    2118    2116    2119    2120    2116    2293    2298
    2116    2293    2294    2117    2118    2119    2117    2122    2121
    2117    2122    2123    2118    2117    2122    2118    2119    2120
    2119    2116    2293    2119    2120    2297    2119    2120    2123
    2120    2123    2122    2120    2123    2124    2120    2297    2302
    2120    2297    2298    2121    2122    2123    2121    2126    2125
    2121    2126    2127    2122    2121    2126    2122    2123    2124
    2123    2120    2297    2123    2124    2301    2123    2124    2127
    2124    2127    2126    2124    2127    2128    2124    2301    2302
    2124    2301    2306    2125    2126    2127    2125    2130    2129
    2125    2130    2131    2126    2125    2130    2126    2127    2128
    2127    2124    2301    2127    2128    2305    2127    2128    2131
    2128    2131    2130    2128    2131    2132    2128    2305    2306
    2128    2305    2310    2129    2130    2131    2129    2134    2133
    2129    2134    2135    2130    2129    2134    2130    2131    2132
    2131    2128    2305    2131    2132    2135    2131    2132    2309
    2132    2135    2134    2132    2135    2136    2132    2309    2314
    2132    2309    2310    2133    2134    2135    2133    2138    2137
    2133    2138    2139    2134    2133    2138    2134    2135    2136
    2135    2132    2309    2135    2136    2139    2135    2136    2313
    2136    2139    2138    2136    2139    2140    2136    2313    2318
    2136    2313    2314    2137    2138    2139    2137    2142    2141
    2137    2142    2143    2138    2137    2142    2138    2139    2140
    2139    2136    2313    2139    2140    2317    2139    2140    2143
    2140    2143    2142    2140    2143    2144    2140    2317    2322
    2140    2317    2318    2141    2142    2143    2141    2146    2145
    2141    2146    2147    2142    2141    2146    2142    2143    2144
    2143    2140    2317    2143    2144    2321    2143    2144    2147
    2144    2147    2146    2144    2147    2148    2144    2321    2322
    2144    2321    2326    2145    2146    2147    2145    2150    2149
    2145    2150    2151    2146    2145    2150    2146    2147    2148
    2147    2144    2321    2147    2148    2325    2147    2148    2151
    2148    2151    2150    2148    2151    2152    2148    2325    2326
    2148    2325    2330    2149    2150    2151    2149    2154    2153
    2149    2154    2155    2150    2149    2154    2150    2151    2152
    2151    2148    2325    2151    2152    2155    2151    2152    2329
    2152    2155    2154    2152    2155    2156    2152    2329    2334
    2152    2329    2330    2153    2154    2155    2153    2158    2157
    2153    2158    2159    2154    2153    2158    2154    2155    2156
    2155    2152    2329    2155    2156    2159    2155    2156    2333
    2156    2159    2158    2156    2159    2160    2156    2333    2338
    2156    2333    2334    2157    2158    2159    2158    2159    2160
    2159    2156    2333    2159    2160    2337    2160    2337    2338
    2161    2162    2163    2161    2166    2165    2161    2166    2167
    2162    2161    2166    2162    2163    2164    2163    2164    2167
    2163    2164    2341    2164    2167    2166    2164    2167    2168
    2164    2341    2342    2164    2341    2346    2165    2166    2167
    2165    2170    2169    2165    2170    2171    2166    2165    2170
    2166    2167    2168    2167    2164    2341    2167    2168    2171
    2167    2168    2345    2168    2171    2170    2168    2171    2172
    2168    2345    2346    2168    2345    2350    2169    2170    2171
    2169    2174    2173    2169    2174    2175    2170    2169    2174
    2170    2171    2172    2171    2168    2345    2171    2172    2175
    2171    2172    2349    2172    2175    2174    2172    2175    2176
    2172    2349    2354    2172    2349    2350    2173    2174    2175
    2173    2178    2177    2173    2178    2179    2174    2173    2178
    2174    2175    2176    2175    2172    2349    2175    2176    2179
    2175    2176    2353    2176    2179    2178    2176    2179    2180
    2176    2353    2358    2176    2353    2354    2177    2178    2179
    2177    2182    2181    2177    2182    2183    2178    2177    2182
    2178    2179    2180    2179    2176    2353    2179    2180    2183
    2179    2180    2357    2180    2183    2182    2180    2183    2184
    2180    2357    2362    2180    2357    2358    2181    2182    2183
    2181    2186    2185    2181    2186    2187    2182    2181    2186
    2182    2183    2184    2183    2180    2357    2183    2184    2187
    2183    2184    2361    2184    2187    2186    2184    2187    2188
    2184    2361    2362    2184    2361    2366    2185    2186    2187
    2185    2190    2189    2185    2190    2191    2186    2185    2190
    2186    2187    2188    2187    2184    2361    2187    2188    2191
    2187    2188    2365    2188    2191    2190    2188    2191    2192
    2188    2365    2366    2188    2365    2370    2189    2190    2191
    2189    2194    2193    2189    2194    2195    2190    2189    2194
    2190    2191    2192    2191    2188    2365    2191    2192    2195
    2191    2192    2369    2192    2195    2194    2192    2195    2196
    2192    2369    2374    2192    2369    2370    2193    2194    2195
    2193    2198    2197    2193    2198    2199    2194    2193    2198
    2194    2195    2196    2195    2192    2369    2195    2196    2199
    2195    2196    2373    2196    2199    2198    2196    2199    2200
    2196    2373    2378    2196    2373    2374    2197    2198    2199
    2197    2202    2201    2197    2202    2203    2198    2197    2202
    2198    2199    2200    2199    2196    2373    2199    2200    2203
    2199    2200    2377    2200    2203    2202    2200    2203    2204
    2200    2377    2382    2200    2377    2378    2201    2202    2203
    2201    2206    2205    2201    2206    2207    2202    2201    2206
    2202    2203    2204    2203    2200    2377    2203    2204    2207
    2203    2204    2381    2204    2207    2206    2204    2207    2208
    2204    2381    2382    2204    2381    2386    2205    2206    2207
    2205    2210    2209    2205    2210    2211    2206    2205    2210
    2206    2207    2208    2207    2204    2381    2207    2208    2211
    2207    2208    2385    2208    2211    2210    2208    2211    2212
    2208    2385    2386    2208    2385    2390    2209    2210    2211
    2209    2214    2213    2209    2214    2215    2210    2209    2214
    2210    2211    2212    2211    2208    2385    2211    2212    2215
    2211    2212    2389    2212    2215    2214    2212    2215    2216
    2212    2389    2394    2212    2389    2390    2213    2214    2215
    2213    2218    2217    2213    2218    2219    2214    2213    2218
    2214    2215    2216    2215    2212    2389    2215    2216    2219
    2215    2216    2393    2216    2219    2218    2216    2219    2220
    2216    2393    2398    2216    2393    2394    2217    2218    2219
    2217    2222    2221    2217    2222    2223    2218    2217    2222
    2218    2219    2220    2219    2216    2393    2219    2220    2223
    2219    2220    2397    2220    2223    2222    2220    2223    2224
    2220    2397    2402    2220    2397    2398    2221    2222    2223
    2221    2226    2225    2221    2226    2227    2222    2221    2226
    2222    2223    2224    2223    2220    2397    2223    2224    2227
    2223    2224    2401    2224    2227    2226    2224    2227    2228
    2224    2401    2402    2224    2401    2406    2225    2226    2227
    2225    2230    2229    2225    2230    2231    2226    2225    2230
    2226    2227    2228    2227    2224    2401    2227    2228    2231
    2227    2228    2405    2228    2231    2230    2228    2231    2232
    2228    2405    2406    2228    2405    2410    2229    2230    2231
    2229    2234    2233    2229    2234    2235    2230    2229    2234
    2230    2231    2232    2231    2228    2405    2231    2232    2235
    2231    2232    2409    2232    2235    2234    2232    2235    2236
    2232    2409    2414    2232    2409    2410    2233    2234    2235
    2233    2238    2237    2233    2238    2239    2234    2233    2238
    2234    2235    2236    2235    2232    2409    2235    2236    2239
    2235    2236    2413    2236    2239    2238    2236    2239    2240
    2236    2413    2414    2236    2413    2418    2237    2238    2239
    2237    2242    2241    2237    2242    2243    2238    2237    2242
    2238    2239    2240    2239    2236    2413    2239    2240    2243
    2239    2240    2417    2240    2243    2242    2240    2243    2244
    2240    2417    2422    2240    2417    2418    2241    2242    2243
    2241    2246    2245    2241    2246    2247    2242    2241    2246
    2242    2243    2244    2243    2240    2417    2243    2244    2247
    2243    2244    2421    2244    2247    2246    2244    2247    2248
    2244    2421    2422    2244    2421    2426    2245    2246    2247
    2245    2250    2249    2245    2250    2251    2246    2245    2250
    2246    2247    2248    2247    2244    2421    2247    2248    2251
    2247    2248    2425    2248    2251    2250    2248    2251    2252
    2248    2425    2426    2248    2425    2430    2249    2250    2251
    2249    2254    2253    2249    2254    2255    2250    2249    2254
    2250    2251    2252    2251    2248    2425    2251    2252    2255
    2251    2252    2429    2252    2255    2254    2252    2255    2256
    2252    2429    2434    2252    2429    2430    2253    2254    2255
    2253    2258    2257    2253    2258    2259    2254    2253    2258
    2254    2255    2256    2255    2252    2429    2255    2256    2259
    2255    2256    2433    2256    2259    2258    2256    2259    2260
    2256    2433    2438    2256    2433    2434    2257    2258    2259
    2257    2262    2261    2257    2262    2263    2258    2257    2262
    2258    2259    2260    2259    2256    2433    2259    2260    2263
    2259    2260    2437    2260    2263    2262    2260    2263    2264
    2260    2437    2442    2260    2437    2438    2261    2262    2263
    2261    2266    2265    2261    2266    2267    2262    2261    2266
    2262    2263    2264    2263    2260    2437    2263    2264    2267
    2263    2264    2441    2264    2267    2266    2264    2267    2268
    2264    2441    2442    2264    2441    2446    2265    2266    2267
    2265    2270    2269    2265    2270    2271    2266    2265    2270
    2266    2267    2268    2267    2264    2441    2267    2268    2271
    2267    2268    2445    2268    2271    2270    2268    2271    2272
    2268    2445    2446    2268    2445    2450    2269    2270    2271
    2269    2274    2273    2269    2274    2275    2270    2269    2274
    2270    2271    2272    2271    2268    2445    2271    2272    2275
    2271    2272    2449    2272    2275    2274    2272    2275    2276
    2272    2449    2454    2272    2449    2450    2273    2274    2275
    2273    2278    2277    2273    2278    2279    2274    2273    2278
    2274    2275    2276    2275    2272    2449    2275    2276    2279
    2275    2276    2453    2276    2279    2278    2276    2279    2280
    2276    2453    2458    2276    2453    2454    2277    2278    2279
    2277    2282    2281    2277    2282    2283    2278    2277    2282
    2278    2279    2280    2279    2276    2453    2279    2280    2283
    2279    2280    2457    2280    2283    2282    2280    2283    2284
    2280    2457    2462    2280    2457    2458    2281    2282    2283
    2281    2286    2285    2281    2286    2287    2282    2281    2286
    2282    2283    2284    2283    2280    2457    2283    2284    2287
    2283    2284    2461    2284    2287    2286    2284    2287    2288
    2284    2461    2462    2284    2461    2466    2285    2286    2287
    2285    2290    2289    2285    2290    2291    2286    2285    2290
    2286    2287    2288    2287    2284    2461    2287    2288    2291
    2287    2288    2465    2288    2291    2290    2288    2291    2292
    2288    2465    2466    2288    2465    2470    2289    2290    2291
    2289    2294    2293    2289    2294    2295    2290    2289    2294
    2290    2291    2292    2291    2288    2465    2291    2292    2295
    2291    2292    2469    2292    2295    2294    2292    2295    2296
    2292    2469    2474    2292    2469    2470    2293    2294    2295
    2293    2298    2297    2293    2298    2299    2294    2293    2298
    2294    2295    2296    2295    2292    2469    2295    2296    2299
    2295    2296    2473    2296    2299    2298    2296    2299    2300
    2296    2473    2478    2296    2473    2474    2297    2298    2299
    2297    2302    2301    2297    2302    2303    2298    2297    2302
    2298    2299    2300    2299    2296    2473    2299    2300    2303
    2299    2300    2477    2300    2303    2302    2300    2303    2304
    2300    2477    2482    2300    2477    2478    2301    2302    2303
    2301    2306    2305    2301    2306    2307    2302    2301    2306
    2302    2303    2304    2303    2300    2477    2303    2304    2307
    2303    2304    2481    2304    2307    2306    2304    2307    2308
    2304    2481    2482    2304    2481    2486    2305    2306    2307
    2305    2310    2309    2305    2310    2311    2306    2305    2310
    2306    2307    2308    2307    2304    2481    2307    2308    2311
    2307    2308    2485    2308    2311    2310    2308    2311    2312
    2308    2485    2486    2308    2485    2490    2309    2310    2311
    2309    2314    2313    2309    2314    2315    2310    2309    2314
    2310    2311    2312    2311    2308    2485    2311    2312    2315
    2311    2312    2489    2312    2315    2314    2312    2315    2316
    2312    2489    2494    2312    2489    2490    2313    2314    2315
    2313    2318    2317    2313    2318    2319    2314    2313    2318
    2314    2315    2316    2315    2312    2489    2315    2316    2319
    2315    2316    2493    2316    2319    2318    2316    2319    2320
    2316    2493    2498    2316    2493    2494    2317    2318    2319
    2317    2322    2321    2317    2322    2323    2318    2317    2322
    2318    2319    2320    2319    2316    2493    2319    2320    2323
    2319    2320    2497    2320    2323    2322    2320    2323    2324
    2320    2497    2502    2320    2497    2498    2321    2322    2323
    2321    2326    2325    2321    2326    2327    2322    2321    2326
    2322    2323    2324    2323    2320    2497    2323    2324    2327
    2323    2324    2501    2324    2327    2326    2324    2327    2328
    2324    2501    2502    2324    2501    2506    2325    2326    2327
    2325    2330    2329    2325    2330    2331    2326    2325    2330
    2326    2327    2328    2327    2324    2501    2327    2328    2331
    2327    2328    2505    2328    2331    2330    2328    2331    2332
    2328    2505    2506    2328    2505    2510    2329    2330    2331
    2329    2334    2333    2329    2334    2335    2330    2329    2334
    2330    2331    2332    2331    2328    2505    2331    2332    2335
    2331    2332    2509    2332    2335    2334    2332    2335    2336
    2332    2509    2514    2332    2509    2510    2333    2334    2335
    2333    2338    2337    2333    2338    2339    2334    2333    2338
    2334    2335    2336    2335    2332    2509    2335    2336    2339
    2335    2336    2513    2336    2339    2338    2336    2339    2340
    2336    2513    2518    2336    2513    2514    2337    2338    2339
    2338    2339    2340    2339    2336    2513    2339    2340    2517
    2340    2517    2518    2341    2342    2343    2341    2346    2345
    2341    2346    2347    2342    2341    2346    2342    2343    2344
    2343    2344    2347    2343    2344    2521    2344    2347    2346
    2344    2347    2348    2344    2521    2522    2344    2521    2526
    2345    2346    2347    2345    2350    2349    2345    2350    2351
    2346    2345    2350    2346    2347    2348    2347    2344    2521
    2347    2348    2351    2347    2348    2525    2348    2351    2350
    2348    2351    2352    2348    2525    2526    2348    2525    2530
    2349    2350    2351    2349    2354    2353    2349    2354    2355
    2350    2349    2354    2350    2351    2352    2351    2348    2525
    2351    2352    2355    2351    2352    2529    2352    2355    2354
    2352    2355    2356    2352    2529    2534    2352    2529    2530
    2353    2354    2355    2353    2358    2357    2353    2358    2359
    2354    2353    2358    2354    2355    2356    2355    2352    2529
    2355    2356    2359    2355    2356    2533    2356    2359    2358
    2356    2359    2360    2356    2533    2538    2356    2533    2534
    2357    2358    2359    2357    2362    2361    2357    2362    2363
    2358    2357    2362    2358    2359    2360    2359    2356    2533
    2359    2360    2363    2359    2360    2537    2360    2363    2362
    2360    2363    2364    2360    2537    2542    2360    2537    2538
    2361    2362    2363    2361    2366    2365    2361    2366    2367
    2362    2361    2366    2362    2363    2364    2363    2360    2537
    2363    2364    2367    2363    2364    2541    2364    2367    2366
    2364    2367    2368    2364    2541    2542    2364    2541    2546
    2365    2366    2367    2365    2370    2369    2365    2370    2371
    2366    2365    2370    2366    2367    2368    2367    2364    2541
    2367    2368    2371    2367    2368    2545    2368    2371    2370
    2368    2371    2372    2368    2545    2546    2368    2545    2550
    2369    2370    2371    2369    2374    2373    2369    2374    2375
    2370    2369    2374    2370    2371    2372    2371    2368    2545
    2371    2372    2375    2371    2372    2549    2372    2375    2374
    2372    2375    2376    2372    2549    2554    2372    2549    2550
    2373    2374    2375    2373    2378    2377    2373    2378    2379
    2374    2373    2378    2374    2375    2376    2375    2372    2549
    2375    2376    2379    2375    2376    2553    2376    2379    2378
    2376    2379    2380    2376    2553    2558    2376    2553    2554
    2377    2378    2379    2377    2382    2381    2377    2382    2383
    2378    2377    2382    2378    2379    2380    2379    2376    2553
    2379    2380    2383    2379    2380    2557    2380    2383    2382
    2380    2383    2384    2380    2557    2562    2380    2557    2558
    2381    2382    2383    2381    2386    2385    2381    2386    2387
    2382    2381    2386    2382    2383    2384    2383    2380    2557
    2383    2384    2387    2383    2384    2561    2384    2387    2386
    2384    2387    2388    2384    2561    2562    2384    2561    2566
    2385    2386    2387    2385    2390    2389    2385    2390    2391
    2386    2385    2390    2386    2387    2388    2387    2384    2561
    2387    2388    2391    2387    2388    2565    2388    2391    2390
    2388    2391    2392    2388    2565    2566    2388    2565    2570
    2389    2390    2391    2389    2394    2393    2389    2394    2395
    2390    2389    2394    2390    2391    2392    2391    2388    2565
    2391    2392    2395    2391    2392    2569    2392    2395    2394
    2392    2395    2396    2392    2569    2574    2392    2569    2570
    2393    2394    2395    2393    2398    2397    2393    2398    2399
    2394    2393    2398    2394    2395    2396    2395    2392    2569
    2395    2396    2399    2395    2396    2573    2396    2399    2398
    2396    2399    2400    2396    2573    2578    2396    2573    2574
    2397    2398    2399    2397    2402    2401    2397    2402    2403
    2398    2397    2402    2398    2399    2400    2399    2396    2573
    2399    2400    2403    2399    2400    2577    2400    2403    2402
    2400    2403    2404    2400    2577    2582    2400    2577    2578
    2401    2402    2403    2401    2406    2405    2401    2406    2407
    2402    2401    2406    2402    2403    2404    2403    2400    2577
    2403    2404    2407    2403    2404    2581    2404    2407    2406
    2404    2407    2408    2404    2581    2582    2404    2581    2586
    2405    2406    2407    2405    2410    2409    2405    2410    2411
    2406    2405    2410    2406    2407    2408    2407    2404    2581
    2407    2408    2411    2407    2408    2585    2408    2411    2410
    2408    2411    2412    2408    2585    2586    2408    2585    2590
    2409    2410    2411    2409    2414    2413    2409    2414    2415
    2410    2409    2414    2410    2411    2412    2411    2408    2585
    2411    2412    2415    2411    2412    2589    2412    2415    2414
    2412    2415    2416    2412    2589    2594    2412    2589    2590
    2413    2414    2415    2413    2418    2417    2413    2418    2419
    2414    2413    2418    2414    2415    2416    2415    2412    2589
    2415    2416    2419    2415    2416    2593    2416    2419    2418
    2416    2419    2420    2416    2593    2598    2416    2593    2594
    2417    2418    2419    2417    2422    2421    2417    2422    2423
    2418    2417    2422    2418    2419    2420    2419    2416    2593
    2419    2420    2423    2419    2420    2597    2420    2423    2422
    2420    2423    2424    2420    2597    2602    2420    2597    2598
    2421    2422    2423    2421    2426    2425    2421    2426    2427
    2422    2421    2426    2422    2423    2424    2423    2420    2597
    2423    2424    2427    2423    2424    2601    2424    2427    2426
    2424    2427    2428    2424    2601    2602    2424    2601    2606
    2425    2426    2427    2425    2430    2429    2425    2430    2431
    2426    2425    2430    2426    2427    2428    2427    2424    2601
    2427    2428    2431    2427    2428    2605    2428    2431    2430
    2428    2431    2432    2428    2605    2606    2428    2605    2610
    2429    2430    2431    2429    2434    2433    2429    2434    2435
    2430    2429    2434    2430    2431    2432    2431    2428    2605
    2431    2432    2435    2431    2432    2609    2432    2435    2434
    2432    2435    2436    2432    2609    2614    2432    2609    2610
    2433    2434    2435    2433    2438    2437    2433    2438    2439
    2434    2433    2438    2434    2435    2436    2435    2432    2609
    2435    2436    2439    2435    2436    2613    2436    2439    2438
    2436    2439    2440    2436    2613    2618    2436    2613    2614
    2437    2438    2439    2437    2442    2441    2437    2442    2443
    2438    2437    2442    2438    2439    2440    2439    2436    2613
    2439    2440    2443    2439    2440    2617    2440    2443    2442
    2440    2443    2444    2440    2617    2622    2440    2617    2618
    2441    2442    2443    2441    2446    2445    2441    2446    2447
    2442    2441    2446    2442    2443    2444    2443    2440    2617
    2443    2444    2447    2443    2444    2621    2444    2447    2446
    2444    2447    2448    2444    2621    2622    2444    2621    2626
    2445    2446    2447    2445    2450    2449    2445    2450    2451
    2446    2445    2450    2446    2447    2448    2447    2444    2621
    2447    2448    2451    2447    2448    2625    2448    2451    2450
    2448    2451    2452    2448    2625    2626    2448    2625    2630
    2449    2450    2451    2449    2454    2453    2449    2454    2455
    2450    2449    2454    2450    2451    2452    2451    2448    2625
    2451    2452    2455    2451    2452    2629    2452    2455    2454
    2452    2455    2456    2452    2629    2634    2452    2629    2630
    2453    2454    2455    2453    2458    2457    2453    2458    2459
    2454    2453    2458    2454    2455    2456    2455    2452    2629
    2455    2456    2459    2455    2456    2633    2456    2459    2458
    2456    2459    2460    2456    2633    2634    2456    2633    2638
    2457    2458    2459    2457    2462    2461    2457    2462    2463
    2458    2457    2462    2458    2459    2460    2459    2456    2633
    2459    2460    2463    2459    2460    2637    2460    2463    2462
    2460    2463    2464    2460    2637    2642    2460    2637    2638
    2461    2462    2463    2461    2466    2465    2461    2466    2467
    2462    2461    2466    2462    2463    2464    2463    2460    2637
    2463    2464    2467    2463    2464    2641    2464    2467    2466
    2464    2467    2468    2464    2641    2642    2464    2641    2646
    2465    2466    2467    2465    2470    2469    2465    2470    2471
    2466    2465    2470    2466    2467    2468    2467    2464    2641
    2467    2468    2471    2467    2468    2645    2468    2471    2470
    2468    2471    2472    2468    2645    2646    2468    2645    2650
    2469    2470    2471    2469    2474    2473    2469    2474    2475
    2470    2469    2474    2470    2471    2472    2471    2468    2645
    2471    2472    2475    2471    2472    2649    2472    2475    2474
    2472    2475    2476    2472    2649    2654    2472    2649    2650
    2473    2474    2475    2473    2478    2477    2473    2478    2479
    2474    2473    2478    2474    2475    2476    2475    2472    2649
    2475    2476    2479    2475    2476    2653    2476    2479    2478
    2476    2479    2480    2476    2653    2658    2476    2653    2654
    2477    2478    2479    2477    2482    2481    2477    2482    2483
    2478    2477    2482    2478    2479    2480    2479    2476    2653
    2479    2480    2483    2479    2480    2657    2480    2483    2482
    2480    2483    2484    2480    2657    2662    2480    2657    2658
    2481    2482    2483    2481    2486    2485    2481    2486    2487
    2482    2481    2486    2482    2483    2484    2483    2480    2657
    2483    2484    2487    2483    2484    2661    2484    2487    2486
    2484    2487    2488    2484    2661    2662    2484    2661    2666
    2485    2486    2487    2485    2490    2489    2485    2490    2491
    2486    2485    2490    2486    2487    2488    2487    2484    2661
    2487    2488    2491    2487    2488    2665    2488    2491    2490
    2488    2491    2492    2488    2665    2666    2488    2665    2670
    2489    2490    2491    2489    2494    2493    2489    2494    2495
    2490    2489    2494    2490    2491    2492    2491    2488    2665
    2491    2492    2495    2491    2492    2669    2492    2495    2494
    2492    2495    2496    2492    2669    2674    2492    2669    2670
    2493    2494    2495    2493    2498    2497    2493    2498    2499
    2494    2493    2498    2494    2495    2496    2495    2492    2669
    2495    2496    2499    2495    2496    2673    2496    2499    2498
    2496    2499    2500    2496    2673    2678    2496    2673    2674
    2497    2498    2499    2497    2502    2501    2497    2502    2503
    2498    2497    2502    2498    2499    2500    2499    2496    2673
    2499    2500    2503    2499    2500    2677    2500    2503    2502
    2500    2503    2504    2500    2677    2682    2500    2677    2678
    2501    2502    2503    2501    2506    2505    2501    2506    2507
    2502    2501    2506    2502    2503    2504    2503    2500    2677
    2503    2504    2507    2503    2504    2681    2504    2507    2506
    2504    2507    2508    2504    2681    2682    2504    2681    2686
    2505    2506    2507    2505    2510    2509    2505    2510    2511
    2506    2505    2510    2506    2507    2508    2507    2504    2681
    2507    2508    2511    2507    2508    2685    2508    2511    2510
    2508    2511    2512    2508    2685    2686    2508    2685    2690
    2509    2510    2511    2509    2514    2513    2509    2514    2515
    2510    2509    2514    2510    2511    2512    2511    2508    2685
    2511    2512    2515    2511    2512    2689    2512    2515    2514
    2512    2515    2516    2512    2689    2694    2512    2689    2690
    2513    2514    2515    2513    2518    2517    2513    2518    2519
    2514    2513    2518    2514    2515    2516    2515    2512    2689
    2515    2516    2519    2515    2516    2693    2516    2519    2518
    2516    2519    2520    2516    2693    2698    2516    2693    2694
    2517    2518    2519    2518    2519    2520    2519    2516    2693
    2519    2520    2697    2520    2697    2698    2521    2522    2523
    2521    2526    2525    2521    2526    2527    2522    2521    2526
    2522    2523    2524    2523    2524    2527    2523    2524    2701
    2524    2527    2526    2524    2527    2528    2524    2701    2702
    2524    2701    2706    2525    2526    2527    2525    2530    2529
    2525    2530    2531    2526    2525    2530    2526    2527    2528
    2527    2524    2701    2527    2528    2531    2527    2528    2705
    2528    2531    2530    2528    2531    2532    2528    2705    2706
    2528    2705    2710    2529    2530    2531    2529    2534    2533
    2529    2534    2535    2530    2529    2534    2530    2531    2532
    2531    2528    2705    2531    2532    2535    2531    2532    2709
    2532    2535    2534    2532    2535    2536    2532    2709    2714
    2532    2709    2710    2533    2534    2535    2533    2538    2537
    2533    2538    2539    2534    2533    2538    2534    2535    2536
    2535    2532    2709    2535    2536    2539    2535    2536    2713
    2536    2539    2538    2536    2539    2540    2536    2713    2718
    2536    2713    2714    2537    2538    2539    2537    2542    2541
    2537    2542    2543    2538    2537    2542    2538    2539    2540
    2539    2536    2713    2539    2540    2543    2539    2540    2717
    2540    2543    2542    2540    2543    2544    2540    2717    2722
    2540    2717    2718    2541    2542    2543    2541    2546    2545
    2541    2546    2547    2542    2541    2546    2542    2543    2544
    2543    2540    2717    2543    2544    2547    2543    2544    2721
    2544    2547    2546    2544    2547    2548    2544    2721    2722
    2544    2721    2726    2545    2546    2547    2545    2550    2549
    2545    2550    2551    2546    2545    2550    2546    2547    2548
    2547    2544    2721    2547    2548    2551    2547    2548    2725
    2548    2551    2550    2548    2551    2552    2548    2725    2726
    2548    2725    2730    2549    2550    2551    2549    2554    2553
    2549    2554    2555    2550    2549    2554    2550    2551    2552
    2551    2548    2725    2551    2552    2555    2551    2552    2729
    2552    2555    2554    2552    2555    2556    2552    2729    2734
    2552    2729    2730    2553    2554    2555    2553    2558    2557
    2553    2558    2559    2554    2553    2558    2554    2555    2556
    2555    2552    2729    2555    2556    2559    2555    2556    2733
    2556    2559    2558    2556    2559    2560    2556    2733    2738
    2556    2733    2734    2557    2558    2559    2557    2562    2561
    2557    2562    2563    2558    2557    2562    2558    2559    2560
    2559    2556    2733    2559    2560    2563    2559    2560    2737
    2560    2563    2562    2560    2563    2564    2560    2737    2742
    2560    2737    2738    2561    2562    2563    2561    2566    2565
    2561    2566    2567    2562    2561    2566    2562    2563    2564
    2563    2560    2737    2563    2564    2567    2563    2564    2741
    2564    2567    2566    2564    2567    2568    2564    2741    2742
    2564    2741    2746    2565    2566    2567    2565    2570    2569
    2565    2570    2571    2566    2565    2570    2566    2567    2568
    2567    2564    2741    2567    2568    2571    2567    2568    2745
    2568    2571    2570    2568    2571    2572    2568    2745    2746
    2568    2745    2750    2569    2570    2571    2569    2574    2573
    2569    2574    2575    2570    2569    2574    2570    2571    2572
    2571    2568    2745    2571    2572    2575    2571    2572    2749
    2572    2575    2574    2572    2575    2576    2572    2749    2754
    2572    2749    2750    2573    2574    2575    2573    2578    2577
    2573    2578    2579    2574    2573    2578    2574    2575    2576
    2575    2572    2749    2575    2576    2579    2575    2576    2753
    2576    2579    2578    2576    2579    2580    2576    2753    2758
    2576    2753    2754    2577    2578    2579    2577    2582    2581
    2577    2582    2583    2578    2577    2582    2578    2579    2580
    2579    2576    2753    2579    2580    2583    2579    2580    2757
    2580    2583    2582    2580    2583    2584    2580    2757    2762
    2580    2757    2758    2581    2582    2583    2581    2586    2585
    2581    2586    2587    2582    2581    2586    2582    2583    2584
    2583    2580    2757    2583    2584    2587    2583    2584    2761
    2584    2587    2586    2584    2587    2588    2584    2761    2762
    2584    2761    2766    2585    2586    2587    2585    2590    2589
    2585    2590    2591    2586    2585    2590    2586    2587    2588
    2587    2584    2761    2587    2588    2591    2587    2588    2765
    2588    2591    2590    2588    2591    2592    2588    2765    2766
    2588    2765    2770    2589    2590    2591    2589    2594    2593
    2589    2594    2595    2590    2589    2594    2590    2591    2592
    2591    2588    2765    2591    2592    2595    2591    2592    2769
    2592    2595    2594    2592    2595    2596    2592    2769    2774
    2592    2769    2770    2593    2594    2595    2593    2598    2597
    2593    2598    2599    2594    2593    2598    2594    2595    2596
    2595    2592    2769    2595    2596    2599    2595    2596    2773
    2596    2599    2598    2596    2599    2600    2596    2773    2778
    2596    2773    2774    2597    2598    2599    2597    2602    2601
    2597    2602    2603    2598    2597    2602    2598    2599    2600
    2599    2596    2773    2599    2600    2603    2599    2600    2777
    2600    2603    2602    2600    2603    2604    2600    2777    2782
    2600    2777    2778    2601    2602    2603    2601    2606    2605
    2601    2606    2607    2602    2601    2606    2602    2603    2604
    2603    2600    2777    2603    2604    2607    2603    2604    2781
    2604    2607    2606    2604    2607    2608    2604    2781    2782
    2604    2781    2786    2605    2606    2607    2605    2610    2609
    2605    2610    2611    2606    2605    2610    2606    2607    2608
    2607    2604    2781    2607    2608    2611    2607    2608    2785
    2608    2611    2610    2608    2611    2612    2608    2785    2786
    2608    2785    2790    2609    2610    2611    2609    2614    2613
    2609    2614    2615    2610    2609    2614    2610    2611    2612
    2611    2608    2785    2611    2612    2615    2611    2612    2789
    2612    2615    2614    2612    2615    2616    2612    2789    2794
    2612    2789    2790    2613    2614    2615    2613    2618    2617
    2613    2618    2619    2614    2613    2618    2614    2615    2616
    2615    2612    2789    2615    2616    2619    2615    2616    2793
    2616    2619    2618    2616    2619    2620    2616    2793    2798
    2616    2793    2794    2617    2618    2619    2617    2622    2621
    2617    2622    2623    2618    2617    2622    2618    2619    2620
    2619    2616    2793    2619    2620    2623    2619    2620    2797
    2620    2623    2622    2620    2623    2624    2620    2797    2802
    2620    2797    2798    2621    2622    2623    2621    2626    2625
    2621    2626    2627    2622    2621    2626    2622    2623    2624
    2623    2620    2797    2623    2624    2627    2623    2624    2801
    2624    2627    2626    2624    2627    2628    2624    2801    2802
    2624    2801    2806    2625    2626    2627    2625    2630    2629
    2625    2630    2631    2626    2625    2630    2626    2627    2628
    2627    2624    2801    2627    2628    2631    2627    2628    2805
    2628    2631    2630    2628    2631    2632    2628    2805    2806
    2628    2805    2810    2629    2630    2631    2629    2634    2633
    2629    2634    2635    2630    2629    2634    2630    2631    2632
    2631    2628    2805    2631    2632    2635    2631    2632    2809
    2632    2635    2634    2632    2635    2636    2632    2809    2814
    2632    2809    2810    2633    2634    2635    2633    2638    2637
    2633    2638    2639    2634    2633    2638    2634    2635    2636
    2635    2632    2809    2635    2636    2639    2635    2636    2813
    2636    2639    2638    2636    2639    2640    2636    2813    2818
    2636    2813    2814    2637    2638    2639    2637    2642    2641
    2637    2642    2643    2638    2637    2642    2638    2639    2640
    2639    2636    2813    2639    2640    2643    2639    2640    2817
    2640    2643    2642    2640    2643    2644    2640    2817    2822
    2640    2817    2818    2641    2642    2643    2641    2646    2645
    2641    2646    2647    2642    2641    2646    2642    2643    2644
    2643    2640    2817    2643    2644    2647    2643    2644    2821
    2644    2647    2646    2644    2647    2648    2644    2821    2822
    2644    2821    2826    2645    2646    2647    2645    2650    2649
    2645    2650    2651    2646    2645    2650    2646    2647    2648
    2647    2644    2821    2647    2648    2651    2647    2648    2825
    2648    2651    2650    2648    2651    2652    2648    2825    2826
    2648    2825    2830    2649    2650    2651    2649    2654    2653
    2649    2654    2655    2650    2649    2654    2650    2651    2652
    2651    2648    2825    2651    2652    2655    2651    2652    2829
    2652    2655    2654    2652    2655    2656    2652    2829    2834
    2652    2829    2830    2653    2654    2655    2653    2658    2657
    2653    2658    2659    2654    2653    2658    2654    2655    2656
    2655    2652    2829    2655    2656    2659    2655    2656    2833
    2656    2659    2658    2656    2659    2660    2656    2833    2838
    2656    2833    2834    2657    2658    2659    2657    2662    2661
    2657    2662    2663    2658    2657    2662    2658    2659    2660
    2659    2656    2833    2659    2660    2663    2659    2660    2837
    2660    2663    2662    2660    2663    2664    2660    2837    2842
    2660    2837    2838    2661    2662    2663    2661    2666    2665
    2661    2666    2667    2662    2661    2666    2662    2663    2664
    2663    2660    2837    2663    2664    2667    2663    2664    2841
    2664    2667    2666    2664    2667    2668    2664    2841    2842
    2664    2841    2846    2665    2666    2667    2665    2670    2669
    2665    2670    2671    2666    2665    2670    2666    2667    2668
    2667    2664    2841    2667    2668    2671    2667    2668    2845
    2668    2671    2670    2668    2671    2672    2668    2845    2846
    2668    2845    2850    2669    2670    2671    2669    2674    2673
    2669    2674    2675    2670    2669    2674    2670    2671    2672
    2671    2668    2845    2671    2672    2675    2671    2672    2849
    2672    2675    2674    2672    2675    2676    2672    2849    2854
    2672    2849    2850    2673    2674    2675    2673    2678    2677
    2673    2678    2679    2674    2673    2678    2674    2675    2676
    2675    2672    2849    2675    2676    2679    2675    2676    2853
    2676    2679    2678    2676    2679    2680    2676    2853    2854
    2676    2853    2858    2677    2678    2679    2677    2682    2681
    2677    2682    2683    2678    2677    2682    2678    2679    2680
    2679    2676    2853    2679    2680    2683    2679    2680    2857
    2680    2683    2682    2680    2683    2684    2680    2857    2862
    2680    2857    2858    2681    2682    2683    2681    2686    2685
    2681    2686    2687    2682    2681    2686    2682    2683    2684
    2683    2680    2857    2683    2684    2687    2683    2684    2861
    2684    2687    2686    2684    2687    2688    2684    2861    2862
    2684    2861    2866    2685    2686    2687    2685    2690    2689
    2685    2690    2691    2686    2685    2690    2686    2687    2688
    2687    2684    2861    2687    2688    2691    2687    2688    2865
    2688    2691    2690    2688    2691    2692    2688    2865    2866
    2688    2865    2870    2689    2690    2691    2689    2694    2693
    2689    2694    2695    2690    2689    2694    2690    2691    2692
    2691    2688    2865    2691    2692    2695    2691    2692    2869
    2692    2695    2694    2692    2695    2696    2692    2869    2874
    2692    2869    2870    2693    2694    2695    2693    2698    2697
    2693    2698    2699    2694    2693    2698    2694    2695    2696
    2695    2692    2869    2695    2696    2699    2695    2696    2873
    2696    2699    2698    2696    2699    2700    2696    2873    2878
    2696    2873    2874    2697    2698    2699    2698    2699    2700
    2699    2696    2873    2699    2700    2877    2700    2877    2878
    2701    2702    2703    2701    2706    2705    2701    2706    2707
    2702    2701    2706    2702    2703    2704    2703    2704    2707
    2703    2704    2881    2704    2707    2706    2704    2707    2708
    2704    2881    2882    2704    2881    2886    2705    2706    2707
    2705    2710    2709    2705    2710    2711    2706    2705    2710
    2706    2707    2708    2707    2704    2881    2707    2708    2711
    2707    2708    2885    2708    2711    2710    2708    2711    2712
    2708    2885    2886    2708    2885    2890    2709    2710    2711
    2709    2714    2713    2709    2714    2715    2710    2709    2714
    2710    2711    2712    2711    2708    2885    2711    2712    2715
    2711    2712    2889    2712    2715    2714    2712    2715    2716
    2712    2889    2894    2712    2889    2890    2713    2714    2715
    2713    2718    2717    2713    2718    2719    2714    2713    2718
    2714    2715    2716    2715    2712    2889    2715    2716    2719
    2715    2716    2893    2716    2719    2718    2716    2719    2720
    2716    2893    2898    2716    2893    2894    2717    2718    2719
    2717    2722    2721    2717    2722    2723    2718    2717    2722
    2718    2719    2720    2719    2716    2893    2719    2720    2723
    2719    2720    2897    2720    2723    2722    2720    2723    2724
    2720    2897    2902    2720    2897    2898    2721    2722    2723
    2721    2726    2725    2721    2726    2727    2722    2721    2726
    2722    2723    2724    2723    2720    2897    2723    2724    2727
    2723    2724    2901    2724    2727    2726    2724    2727    2728
    2724    2901    2902    2724    2901    2906    2725    2726    2727
    2725    2730    2729    2725    2730    2731    2726    2725    2730
    2726    2727    2728    2727    2724    2901    2727    2728    2731
    2727    2728    2905    2728    2731    2730    2728    2731    2732
    2728    2905    2906    2728    2905    2910    2729    2730    2731
    2729    2734    2733    2729    2734    2735    2730    2729    2734
    2730    2731    2732    2731    2728    2905    2731    2732    2735
    2731    2732    2909    2732    2735    2734    2732    2735    2736
    2732    2909    2914    2732    2909    2910    2733    2734    2735
    2733    2738    2737    2733    2738    2739    2734    2733    2738
    2734    2735    2736    2735    2732    2909    2735    2736    2739
    2735    2736    2913    2736    2739    2738    2736    2739    2740
    2736    2913    2918    2736    2913    2914    2737    2738    2739
    2737    2742    2741    2737    2742    2743    2738    2737    2742
    2738    2739    2740    2739    2736    2913    2739    2740    2743
    2739    2740    2917    2740    2743    2742    2740    2743    2744
    2740    2917    2922    2740    2917    2918    2741    2742    2743
    2741    2746    2745    2741    2746    2747    2742    2741    2746
    2742    2743    2744    2743    2740    2917    2743    2744    2747
    2743    2744    2921    2744    2747    2746    2744    2747    2748
    2744    2921    2922    2744    2921    2926    2745    2746    2747
    2745    2750    2749    2745    2750    2751    2746    2745    2750
    2746    2747    2748    2747    2744    2921    2747    2748    2751
    2747    2748    2925    2748    2751    2750    2748    2751    2752
    2748    2925    2926    2748    2925    2930    2749    2750    2751
    2749    2754    2753    2749    2754    2755    2750    2749    2754
    2750    2751    2752    2751    2748    2925    2751    2752    2755
    2751    2752    2929    2752    2755    2754    2752    2755    2756
    2752    2929    2934    2752    2929    2930    2753    2754    2755
    2753    2758    2757    2753    2758    2759    2754    2753    2758
    2754    2755    2756    2755    2752    2929    2755    2756    2759
    2755    2756    2933    2756    2759    2758    2756    2759    2760
    2756    2933    2938    2756    2933    2934    2757    2758    2759
    2757    2762    2761    2757    2762    2763    2758    2757    2762
    2758    2759    2760    2759    2756    2933    2759    2760    2763
    2759    2760    2937    2760    2763    2762    2760    2763    2764
    2760    2937    2942    2760    2937    2938    2761    2762    2763
    2761    2766    2765    2761    2766    2767    2762    2761    2766
    2762    2763    2764    2763    2760    2937    2763    2764    2767
    2763    2764    2941    2764    2767    2766    2764    2767    2768
    2764    2941    2942    2764    2941    2946    2765    2766    2767
    2765    2770    2769    2765    2770    2771    2766    2765    2770
    2766    2767    2768    2767    2764    2941    2767    2768    2771
    2767    2768    2945    2768    2771    2770    2768    2771    2772
    2768    2945    2946    2768    2945    2950    2769    2770    2771
    2769    2774    2773    2769    2774    2775    2770    2769    2774
    2770    2771    2772    2771    2768    2945    2771    2772    2775
    2771    2772    2949    2772    2775    2774    2772    2775    2776
    2772    2949    2954    2772    2949    2950    2773    2774    2775
    2773    2778    2777    2773    2778    2779    2774    2773    2778
    2774    2775    2776    2775    2772    2949    2775    2776    2779
    2775    2776    2953    2776    2779    2778    2776    2779    2780
    2776    2953    2958    2776    2953    2954    2777    2778    2779
    2777    2782    2781    2777    2782    2783    2778    2777    2782
    2778    2779    2780    2779    2776    2953    2779    2780    2783
    2779    2780    2957    2780    2783    2782    2780    2783    2784
    2780    2957    2962    2780    2957    2958    2781    2782    2783
    2781    2786    2785    2781    2786    2787    2782    2781    2786
    2782    2783    2784    2783    2780    2957    2783    2784    2787
    2783    2784    2961    2784    2787    2786    2784    2787    2788
    2784    2961    2962    2784    2961    2966    2785    2786    2787
    2785    2790    2789    2785    2790    2791    2786    2785    2790
    2786    2787    2788    2787    2784    2961    2787    2788    2791
    2787    2788    2965    2788    2791    2790    2788    2791    2792
    2788    2965    2966    2788    2965    2970    2789    2790    2791
    2789    2794    2793    2789    2794    2795    2790    2789    2794
    2790    2791    2792    2791    2788    2965    2791    2792    2795
    2791    2792    2969    2792    2795    2794    2792    2795    2796
    2792    2969    2974    2792    2969    2970    2793    2794    2795
    2793    2798    2797    2793    2798    2799    2794    2793    2798
    2794    2795    2796    2795    2792    2969    2795    2796    2799
    2795    2796    2973    2796    2799    2798    2796    2799    2800
    2796    2973    2978    2796    2973    2974    2797    2798    2799
    2797    2802    2801    2797    2802    2803    2798    2797    2802
    2798    2799    2800    2799    2796    2973    2799    2800    2803
    2799    2800    2977    2800    2803    2802    2800    2803    2804
    2800    2977    2982    2800    2977    2978    2801    2802    2803
    2801    2806    2805    2801    2806    2807    2802    2801    2806
    2802    2803    2804    2803    2800    2977    2803    2804    2807
    2803    2804    2981    2804    2807    2806    2804    2807    2808
    2804    2981    2982    2804    2981    2986    2805    2806    2807
    2805    2810    2809    2805    2810    2811    2806    2805    2810
    2806    2807    2808    2807    2804    2981    2807    2808    2811
    2807    2808    2985    2808    2811    2810    2808    2811    2812
    2808    2985    2986    2808    2985    2990    2809    2810    2811
    2809    2814    2813    2809    2814    2815    2810    2809    2814
    2810    2811    2812    2811    2808    2985    2811    2812    2815
    2811    2812    2989    2812    2815    2814    2812    2815    2816
    2812    2989    2994    2812    2989    2990    2813    2814    2815
    2813    2818    2817    2813    2818    2819    2814    2813    2818
    2814    2815    2816    2815    2812    2989    2815    2816    2819
    2815    2816    2993    2816    2819    2818    2816    2819    2820
    2816    2993    2998    2816    2993    2994    2817    2818    2819
    2817    2822    2821    2817    2822    2823    2818    2817    2822
    2818    2819    2820    2819    2816    2993    2819    2820    2823
    2819    2820    2997    2820    2823    2822    2820    2823    2824
    2820    2997    3002    2820    2997    2998    2821    2822    2823
    2821    2826    2825    2821    2826    2827    2822    2821    2826
    2822    2823    2824    2823    2820    2997    2823    2824    2827
    2823    2824    3001    2824    2827    2826    2824    2827    2828
    2824    3001    3002    2824    3001    3006    2825    2826    2827
    2825    2830    2829    2825    2830    2831    2826    2825    2830
    2826    2827    2828    2827    2824    3001    2827    2828    2831
    2827    2828    3005    2828    2831    2830    2828    2831    2832
    2828    3005    3006    2828    3005    3010    2829    2830    2831
    2829    2834    2833    2829    2834    2835    2830    2829    2834
    2830    2831    2832    2831    2828    3005    2831    2832    2835
    2831    2832    3009    2832    2835    2834    2832    2835    2836
    2832    3009    3014    2832    3009    3010    2833    2834    2835
    2833    2838    2837    2833    2838    2839    2834    2833    2838
    2834    2835    2836    2835    2832    3009    2835    2836    2839
    2835    2836    3013    2836    2839    2838    2836    2839    2840
    2836    3013    3018    2836    3013    3014    2837    2838    2839
    2837    2842    2841    2837    2842    2843    2838    2837    2842
    2838    2839    2840    2839    2836    3013    2839    2840    2843
    2839    2840    3017    2840    2843    2842    2840    2843    2844
    2840    3017    3022    2840    3017    3018    2841    2842    2843
    2841    2846    2845    2841    2846    2847    2842    2841    2846
    2842    2843    2844    2843    2840    3017    2843    2844    2847
    2843    2844    3021    2844    2847    2846    2844    2847    2848
    2844    3021    3022    2844    3021    3026    2845    2846    2847
    2845    2850    2849    2845    2850    2851    2846    2845    2850
    2846    2847    2848    2847    2844    3021    2847    2848    2851
    2847    2848    3025    2848    2851    2850    2848    2851    2852
    2848    3025    3026    2848    3025    3030    2849    2850    2851
    2849    2854    2853    2849    2854    2855    2850    2849    2854
    2850    2851    2852    2851    2848    3025    2851    2852    2855
    2851    2852    3029    2852    2855    2854    2852    2855    2856
    2852    3029    3034    2852    3029    3030    2853    2854    2855
    2853    2858    2857    2853    2858    2859    2854    2853    2858
    2854    2855    2856    2855    2852    3029    2855    2856    2859
    2855    2856    3033    2856    2859    2858    2856    2859    2860
    2856    3033    3038    2856    3033    3034    2857    2858    2859
    2857    2862    2861    2857    2862    2863    2858    2857    2862
    2858    2859    2860    2859    2856    3033    2859    2860    2863
    2859    2860    3037    2860    2863    2862    2860    2863    2864
    2860    3037    3042    2860    3037    3038    2861    2862    2863
    2861    2866    2865    2861    2866    2867    2862    2861    2866
    2862    2863    2864    2863    2860    3037    2863    2864    2867
    2863    2864    3041    2864    2867    2866    2864    2867    2868
    2864    3041    3042    2864    3041    3046    2865    2866    2867
    2865    2870    2869    2865    2870    2871    2866    2865    2870
    2866    2867    2868    2867    2864    3041    2867    2868    2871
    2867    2868    3045    2868    2871    2870    2868    2871    2872
    2868    3045    3046    2868    3045    3050    2869    2870    2871
    2869    2874    2873    2869    2874    2875    2870    2869    2874
    2870    2871    2872    2871    2868    3045    2871    2872    2875
    2871    2872    3049    2872    2875    2874    2872    2875    2876
    2872    3049    3054    2872    3049    3050    2873    2874    2875
    2873    2878    2877    2873    2878    2879    2874    2873    2878
    2874    2875    2876    2875    2872    3049    2875    2876    2879
    2875    2876    3053    2876    2879    2878    2876    2879    2880
    2876    3053    3058    2876    3053    3054    2877    2878    2879
    2878    2879    2880    2879    2876    3053    2879    2880    3057
    2880    3057    3058    2881    2882    2883    2881    2886    2885
    2881    2886    2887    2882    2881    2886    2882    2883    2884
    2883    2884    2887    2883    2884    3061    2884    2887    2886
    2884    2887    2888    2884    3061    3062    2884    3061    3066
    2885    2886    2887    2885    2890    2889    2885    2890    2891
    2886    2885    2890    2886    2887    2888    2887    2884    3061
    2887    2888    2891    2887    2888    3065    2888    2891    2890
    2888    2891    2892    2888    3065    3066    2888    3065    3070
    2889    2890    2891    2889    2894    2893    2889    2894    2895
    2890    2889    2894    2890    2891    2892    2891    2888    3065
    2891    2892    2895    2891    2892    3069    2892    2895    2894
    2892    2895    2896    2892    3069    3074    2892    3069    3070
    2893    2894    2895    2893    2898    2897    2893    2898    2899
    2894    2893    2898    2894    2895    2896    2895    2892    3069
    2895    2896    2899    2895    2896    3073    2896    2899    2898
    2896    2899    2900    2896    3073    3078    2896    3073    3074
    2897    2898    2899    2897    2902    2901    2897    2902    2903
    2898    2897    2902    2898    2899    2900    2899    2896    3073
    2899    2900    2903    2899    2900    3077    2900    2903    2902
    2900    2903    2904    2900    3077    3082    2900    3077    3078
    2901    2902    2903    2901    2906    2905    2901    2906    2907
    2902    2901    2906    2902    2903    2904    2903    2900    3077
    2903    2904    2907    2903    2904    3081    2904    2907    2906
    2904    2907    2908    2904    3081    3082    2904    3081    3086
    2905    2906    2907    2905    2910    2909    2905    2910    2911
    2906    2905    2910    2906    2907    2908    2907    2904    3081
    2907    2908    2911    2907    2908    3085    2908    2911    2910
    2908    2911    2912    2908    3085    3086    2908    3085    3090
    2909    2910    2911    2909    2914    2913    2909    2914    2915
    2910    2909    2914    2910    2911    2912    2911    2908    3085
    2911    2912    2915    2911    2912    3089    2912    2915    2914
    2912    2915    2916    2912    3089    3094    2912    3089    3090
    2913    2914    2915    2913    2918    2917    2913    2918    2919
    2914    2913    2918    2914    2915    2916    2915    2912    3089
    2915    2916    2919    2915    2916    3093    2916    2919    2918
    2916    2919    2920    2916    3093    3094    2916    3093    3098
    2917    2918    2919    2917    2922    2921    2917    2922    2923
    2918    2917    2922    2918    2919    2920    2919    2916    3093
    2919    2920    2923    2919    2920    3097    2920    2923    2922
    2920    2923    2924    2920    3097    3102    2920    3097    3098
    2921    2922    2923    2921    2926    2925    2921    2926    2927
    2922    2921    2926    2922    2923    2924    2923    2920    3097
    2923    2924    2927    2923    2924    3101    2924    2927    2926
    2924    2927    2928    2924    3101    3102    2924    3101    3106
    2925    2926    2927    2925    2930    2929    2925    2930    2931
    2926    2925    2930    2926    2927    2928    2927    2924    3101
    2927    2928    2931    2927    2928    3105    2928    2931    2930
    2928    2931    2932    2928    3105    3106    2928    3105    3110
    2929    2930    2931    2929    2934    2933    2929    2934    2935
    2930    2929    2934    2930    2931    2932    2931    2928    3105
    2931    2932    2935    2931    2932    3109    2932    2935    2934
    2932    2935    2936    2932    3109    3114    2932    3109    3110
    2933    2934    2935    2933    2938    2937    2933    2938    2939
    2934    2933    2938    2934    2935    2936    2935    2932    3109
    2935    2936    2939    2935    2936    3113    2936    2939    2938
    2936    2939    2940    2936    3113    3118    2936    3113    3114
    2937    2938    2939    2937    2942    2941    2937    2942    2943
    2938    2937    2942    2938    2939    2940    2939    2936    3113
    2939    2940    2943    2939    2940    3117    2940    2943    2942
    2940    2943    2944    2940    3117    3122    2940    3117    3118
    2941    2942    2943    2941    2946    2945    2941    2946    2947
    2942    2941    2946    2942    2943    2944    2943    2940    3117
    2943    2944    2947    2943    2944    3121    2944    2947    2946
    2944    2947    2948    2944    3121    3122    2944    3121    3126
    2945    2946    2947    2945    2950    2949    2945    2950    2951
    2946    2945    2950    2946    2947    2948    2947    2944    3121
    2947    2948    2951    2947    2948    3125    2948    2951    2950
    2948    2951    2952    2948    3125    3126    2948    3125    3130
    2949    2950    2951    2949    2954    2953    2949    2954    2955
    2950    2949    2954    2950    2951    2952    2951    2948    3125
    2951    2952    2955    2951    2952    3129    2952    2955    2954
    2952    2955    2956    2952    3129    3134    2952    3129    3130
    2953    2954    2955    2953    2958    2957    2953    2958    2959
    2954    2953    2958    2954    2955    2956    2955    2952    3129
    2955    2956    2959    2955    2956    3133    2956    2959    2958
    2956    2959    2960    2956    3133    3138    2956    3133    3134
    2957    2958    2959    2957    2962    2961    2957    2962    2963
    2958    2957    2962    2958    2959    2960    2959    2956    3133
    2959    2960    2963    2959    2960    3137    2960    2963    2962
    2960    2963    2964    2960    3137    3142    2960    3137    3138
    2961    2962    2963    2961    2966    2965    2961    2966    2967
    2962    2961    2966    2962    2963    2964    2963    2960    3137
    2963    2964    2967    2963    2964    3141    2964    2967    2966
    2964    2967    2968    2964    3141    3142    2964    3141    3146
    2965    2966    2967    2965    2970    2969    2965    2970    2971
    2966    2965    2970    2966    2967    2968    2967    2964    3141
    2967    2968    2971    2967    2968    3145    2968    2971    2970
    2968    2971    2972    2968    3145    3146    2968    3145    3150
    2969    2970    2971    2969    2974    2973    2969    2974    2975
    2970    2969    2974    2970    2971    2972    2971    2968    3145
    2971    2972    2975    2971    2972    3149    2972    2975    2974
    2972    2975    2976    2972    3149    3154    2972    3149    3150
    2973    2974    2975    2973    2978    2977    2973    2978    2979
    2974    2973    2978    2974    2975    2976    2975    2972    3149
    2975    2976    2979    2975    2976    3153    2976    2979    2978
    2976    2979    2980    2976    3153    3158    2976    3153    3154
    2977    2978    2979    2977    2982    2981    2977    2982    2983
    2978    2977    2982    2978    2979    2980    2979    2976    3153
    2979    2980    2983    2979    2980    3157    2980    2983    2982
    2980    2983    2984    2980    3157    3162    2980    3157    3158
    2981    2982    2983    2981    2986    2985    2981    2986    2987
    2982    2981    2986    2982    2983    2984    2983    2980    3157
    2983    2984    2987    2983    2984    3161    2984    2987    2986
    2984    2987    2988    2984    3161    3162    2984    3161    3166
    2985    2986    2987    2985    2990    2989    2985    2990    2991
    2986    2985    2990    2986    2987    2988    2987    2984    3161
    2987    2988    2991    2987    2988    3165    2988    2991    2990
    2988    2991    2992    2988    3165    3166    2988    3165    3170
    2989    2990    2991    2989    2994    2993    2989    2994    2995
    2990    2989    2994    2990    2991    2992    2991    2988    3165
    2991    2992    2995    2991    2992    3169    2992    2995    2994
    2992    2995    2996    2992    3169    3174    2992    3169    3170
    2993    2994    2995    2993    2998    2997    2993    2998    2999
    2994    2993    2998    2994    2995    2996    2995    2992    3169
    2995    2996    2999    2995    2996    3173    2996    2999    2998
    2996    2999    3000    2996    3173    3178    2996    3173    3174
    2997    2998    2999    2997    3002    3001    2997    3002    3003
    2998    2997    3002    2998    2999    3000    2999    2996    3173
    2999    3000    3003    2999    3000    3177    3000    3003    3002
    3000    3003    3004    3000    3177    3182    3000    3177    3178
    3001    3002    3003    3001    3006    3005    3001    3006    3007
    3002    3001    3006    3002    3003    3004    3003    3000    3177
    3003    3004    3007    3003    3004    3181    3004    3007    3006
    3004    3007    3008    3004    3181    3182    3004    3181    3186
    3005    3006    3007    3005    3010    3009    3005    3010    3011
    3006    3005    3010    3006    3007    3008    3007    3004    3181
    3007    3008    3011    3007    3008    3185    3008    3011    3010
    3008    3011    3012    3008    3185    3186    3008    3185    3190
    3009    3010    3011    3009    3014    3013    3009    3014    3015
    3010    3009    3014    3010    3011    3012    3011    3008    3185
    3011    3012    3015    3011    3012    3189    3012    3015    3014
    3012    3015    3016    3012    3189    3194    3012    3189    3190
    3013    3014    3015    3013    3018    3017    3013    3018    3019
    3014    3013    3018    3014    3015    3016    3015    3012    3189
    3015    3016    3019    3015    3016    3193    3016    3019    3018
    3016    3019    3020    3016    3193    3198    3016    3193    3194
    3017    3018    3019    3017    3022    3021    3017    3022    3023
    3018    3017    3022    3018    3019    3020    3019    3016    3193
    3019    3020    3023    3019    3020    3197    3020    3023    3022
    3020    3023    3024    3020    3197    3202    3020    3197    3198
    3021    3022    3023    3021    3026    3025    3021    3026    3027
    3022    3021    3026    3022    3023    3024    3023    3020    3197
    3023    3024    3027    3023    3024    3201    3024    3027    3026
    3024    3027    3028    3024    3201    3202    3024    3201    3206
    3025    3026    3027    3025    3030    3029    3025    3030    3031
    3026    3025    3030    3026    3027    3028    3027    3024    3201
    3027    3028    3031    3027    3028    3205    3028    3031    3030
    3028    3031    3032    3028    3205    3206    3028    3205    3210
    3029    3030    3031    3029    3034    3033    3029    3034    3035
    3030    3029    3034    3030    3031    3032    3031    3028    3205
    3031    3032    3035    3031    3032    3209    3032    3035    3034
    3032    3035    3036    3032    3209    3214    3032    3209    3210
    3033    3034    3035    3033    3038    3037    3033    3038    3039
    3034    3033    3038    3034    3035    3036    3035    3032    3209
    3035    3036    3039    3035    3036    3213    3036    3039    3038
    3036    3039    3040    3036    3213    3218    3036    3213    3214
    3037    3038    3039    3037    3042    3041    3037    3042    3043
    3038    3037    3042    3038    3039    3040    3039    3036    3213
    3039    3040    3043    3039    3040    3217    3040    3043    3042
    3040    3043    3044    3040    3217    3222    3040    3217    3218
    3041    3042    3043    3041    3046    3045    3041    3046    3047
    3042    3041    3046    3042    3043    3044    3043    3040    3217
    3043    3044    3047    3043    3044    3221    3044    3047    3046
    3044    3047    3048    3044    3221    3222    3044    3221    3226
    3045    3046    3047    3045    3050    3049    3045    3050    3051
    3046    3045    3050    3046    3047    3048    3047    3044    3221
    3047    3048    3051    3047    3048    3225    3048    3051    3050
    3048    3051    3052    3048    3225    3226    3048    3225    3230
    3049    3050    3051    3049    3054    3053    3049    3054    3055
    3050    3049    3054    3050    3051    3052    3051    3048    3225
    3051    3052    3055    3051    3052    3229    3052    3055    3054
    3052    3055    3056    3052    3229    3234    3052    3229    3230
    3053    3054    3055    3053    3058    3057    3053    3058    3059
    3054    3053    3058    3054    3055    3056    3055    3052    3229
    3055    3056    3059    3055    3056    3233    3056    3059    3058
    3056    3059    3060    3056    3233    3238    3056    3233    3234
    3057    3058    3059    3058    3059    3060    3059    3056    3233
    3059    3060    3237    3060    3237    3238    3061    3062    3063
    3061    3066    3065    3061    3066    3067    3062    3061    3066
    3062    3063    3064    3063    3064    3067    3063    3064    3241
    3064    3067    3066    3064    3067    3068    3064    3241    3242
    3064    3241    3246    3065    3066    3067    3065    3070    3069
    3065    3070    3071    3066    3065    3070    3066    3067    3068
    3067    3064    3241    3067    3068    3071    3067    3068    3245
    3068    3071    3070    3068    3071    3072    3068    3245    3246
    3068    3245    3250    3069    3070    3071    3069    3074    3073
    3069    3074    3075    3070    3069    3074    3070    3071    3072
    3071    3068    3245    3071    3072    3075    3071    3072    3249
    3072    3075    3074    3072    3075    3076    3072    3249    3254
    3072    3249    3250    3073    3074    3075    3073    3078    3077
    3073    3078    3079    3074    3073    3078    3074    3075    3076
    3075    3072    3249    3075    3076    3079    3075    3076    3253
    3076    3079    3078    3076    3079    3080    3076    3253    3258
    3076    3253    3254    3077    3078    3079    3077    3082    3081
    3077    3082    3083    3078    3077    3082    3078    3079    3080
    3079    3076    3253    3079    3080    3083    3079    3080    3257
    3080    3083    3082    3080    3083    3084    3080    3257    3262
    3080    3257    3258    3081    3082    3083    3081    3086    3085
    3081    3086    3087    3082    3081    3086    3082    3083    3084
    3083    3080    3257    3083    3084    3087    3083    3084    3261
    3084    3087    3086    3084    3087    3088    3084    3261    3262
    3084    3261    3266    3085    3086    3087    3085    3090    3089
    3085    3090    3091    3086    3085    3090    3086    3087    3088
    3087    3084    3261    3087    3088    3091    3087    3088    3265
    3088    3091    3090    3088    3091    3092    3088    3265    3266
    3088    3265    3270    3089    3090    3091    3089    3094    3093
    3089    3094    3095    3090    3089    3094    3090    3091    3092
    3091    3088    3265    3091    3092    3095    3091    3092    3269
    3092    3095    3094    3092    3095    3096    3092    3269    3274
    3092    3269    3270    3093    3094    3095    3093    3098    3097
    3093    3098    3099    3094    3093    3098    3094    3095    3096
    3095    3092    3269    3095    3096    3099    3095    3096    3273
    3096    3099    3098    3096    3099    3100    3096    3273    3278
    3096    3273    3274    3097    3098    3099    3097    3102    3101
    3097    3102    3103    3098    3097    3102    3098    3099    3100
    3099    3096    3273    3099    3100    3103    3099    3100    3277
    3100    3103    3102    3100    3103    3104    3100    3277    3282
    3100    3277    3278    3101    3102    3103    3101    3106    3105
    3101    3106    3107    3102    3101    3106    3102    3103    3104
    3103    3100    3277    3103    3104    3107    3103    3104    3281
    3104    3107    3106    3104    3107    3108    3104    3281    3282
    3104    3281    3286    3105    3106    3107    3105    3110    3109
    3105    3110    3111    3106    3105    3110    3106    3107    3108
    3107    3104    3281    3107    3108    3111    3107    3108    3285
    3108    3111    3110    3108    3111    3112    3108    3285    3286
    3108    3285    3290    3109    3110    3111    3109    3114    3113
    3109    3114    3115    3110    3109    3114    3110    3111    3112
    3111    3108    3285    3111    3112    3115    3111    3112    3289
    3112    3115    3114    3112    3115    3116    3112    3289    3294
    3112    3289    3290    3113    3114    3115    3113    3118    3117
    3113    3118    3119    3114    3113    3118    3114    3115    3116
    3115    3112    3289    3115    3116    3119    3115    3116    3293
    3116    3119    3118    3116    3119    3120    3116    3293    3298
    3116    3293    3294    3117    3118    3119    3117    3122    3121
    3117    3122    3123    3118    3117    3122    3118    3119    3120
    3119    3116    3293    3119    3120    3123    3119    3120    3297
    3120    3123    3122    3120    3123    3124    3120    3297    3302
    3120    3297    3298    3121    3122    3123    3121    3126    3125
    3121    3126    3127    3122    3121    3126    3122    3123    3124
    3123    3120    3297    3123    3124    3127    3123    3124    3301
    3124    3127    3126    3124    3127    3128    3124    3301    3302
    3124    3301    3306    3125    3126    3127    3125    3130    3129
    3125    3130    3131    3126    3125    3130    3126    3127    3128
    3127    3124    3301    3127    3128    3131    3127    3128    3305
    3128    3131    3130    3128    3131    3132    3128    3305    3306
    3128    3305    3310    3129    3130    3131    3129    3134    3133
    3129    3134    3135    3130    3129    3134    3130    3131    3132
    3131    3128    3305    3131    3132    3135    3131    3132    3309
    3132    3135    3134    3132    3135    3136    3132    3309    3314
    3132    3309    3310    3133    3134    3135    3133    3138    3137
    3133    3138    3139    3134    3133    3138    3134    3135    3136
    3135    3132    3309    3135    3136    3139    3135    3136    3313
    3136    3139    3138    3136    3139    3140    3136    3313    3314
    3136    3313    3318    3137    3138    3139    3137    3142    3141
    3137    3142    3143    3138    3137    3142    3138    3139    3140
    3139    3136    3313    3139    3140    3143    3139    3140    3317
    3140    3143    3142    3140    3143    3144    3140    3317    3322
    3140    3317    3318    3141    3142    3143    3141    3146    3145
    3141    3146    3147    3142    3141    3146    3142    3143    3144
    3143    3140    3317    3143    3144    3147    3143    3144    3321
    3144    3147    3146    3144    3147    3148    3144    3321    3322
    3144    3321    3326    3145    3146    3147    3145    3150    3149
    3145    3150    3151    3146    3145    3150    3146    3147    3148
    3147    3144    3321    3147    3148    3151    3147    3148    3325
    3148    3151    3150    3148    3151    3152    3148    3325    3326
    3148    3325    3330    3149    3150    3151    3149    3154    3153
    3149    3154    3155    3150    3149    3154    3150    3151    3152
    3151    3148    3325    3151    3152    3155    3151    3152    3329
    3152    3155    3154    3152    3155    3156    3152    3329    3334
    3152    3329    3330    3153    3154    3155    3153    3158    3157
    3153    3158    3159    3154    3153    3158    3154    3155    3156
    3155    3152    3329    3155    3156    3159    3155    3156    3333
    3156    3159    3158    3156    3159    3160    3156    3333    3338
    3156    3333    3334    3157    3158    3159    3157    3162    3161
    3157    3162    3163    3158    3157    3162    3158    3159    3160
    3159    3156    3333    3159    3160    3163    3159    3160    3337
    3160    3163    3162    3160    3163    3164    3160    3337    3342
    3160    3337    3338    3161    3162    3163    3161    3166    3165
    3161    3166    3167    3162    3161    3166    3162    3163    3164
    3163    3160    3337    3163    3164    3167    3163    3164    3341
    3164    3167    3166    3164    3167    3168    3164    3341    3342
    3164    3341    3346    3165    3166    3167    3165    3170    3169
    3165    3170    3171    3166    3165    3170    3166    3167    3168
    3167    3164    3341    3167    3168    3171    3167    3168    3345
    3168    3171    3170    3168    3171    3172    3168    3345    3346
    3168    3345    3350    3169    3170    3171    3169    3174    3173
    3169    3174    3175    3170    3169    3174    3170    3171    3172
    3171    3168    3345    3171    3172    3175    3171    3172    3349
    3172    3175    3174    3172    3175    3176    3172    3349    3354
    3172    3349    3350    3173    3174    3175    3173    3178    3177
    3173    3178    3179    3174    3173    3178    3174    3175    3176
    3175    3172    3349    3175    3176    3179    3175    3176    3353
    3176    3179    3178    3176    3179    3180    3176    3353    3358
    3176    3353    3354    3177    3178    3179    3177    3182    3181
    3177    3182    3183    3178    3177    3182    3178    3179    3180
    3179    3176    3353    3179    3180    3183    3179    3180    3357
    3180    3183    3182    3180    3183    3184    3180    3357    3362
    3180    3357    3358    3181    3182    3183    3181    3186    3185
    3181    3186    3187    3182    3181    3186    3182    3183    3184
    3183    3180    3357    3183    3184    3187    3183    3184    3361
    3184    3187    3186    3184    3187    3188    3184    3361    3362
    3184    3361    3366    3185    3186    3187    3185    3190    3189
    3185    3190    3191    3186    3185    3190    3186    3187    3188
    3187    3184    3361    3187    3188    3191    3187    3188    3365
    3188    3191    3190    3188    3191    3192    3188    3365    3366
    3188    3365    3370    3189    3190    3191    3189    3194    3193
    3189    3194    3195    3190    3189    3194    3190    3191    3192
    3191    3188    3365    3191    3192    3195    3191    3192    3369
    3192    3195    3194    3192    3195    3196    3192    3369    3374
    3192    3369    3370    3193    3194    3195    3193    3198    3197
    3193    3198    3199    3194    3193    3198    3194    3195    3196
    3195    3192    3369    3195    3196    3199    3195    3196    3373
    3196    3199    3198    3196    3199    3200    3196    3373    3378
    3196    3373    3374    3197    3198    3199    3197    3202    3201
    3197    3202    3203    3198    3197    3202    3198    3199    3200
    3199    3196    3373    3199    3200    3203    3199    3200    3377
    3200    3203    3202    3200    3203    3204    3200    3377    3382
    3200    3377    3378    3201    3202    3203    3201    3206    3205
    3201    3206    3207    3202    3201    3206    3202    3203    3204
    3203    3200    3377    3203    3204    3207    3203    3204    3381
    3204    3207    3206    3204    3207    3208    3204    3381    3382
    3204    3381    3386    3205    3206    3207    3205    3210    3209
    3205    3210    3211    3206    3205    3210    3206    3207    3208
    3207    3204    3381    3207    3208    3211    3207    3208    3385
    3208    3211    3210    3208    3211    3212    3208    3385    3386
    3208    3385    3390    3209    3210    3211    3209    3214    3213
    3209    3214    3215    3210    3209    3214    3210    3211    3212
    3211    3208    3385    3211    3212    3215    3211    3212    3389
    3212    3215    3214    3212    3215    3216    3212    3389    3394
    3212    3389    3390    3213    3214    3215    3213    3218    3217
    3213    3218    3219    3214    3213    3218    3214    3215    3216
    3215    3212    3389    3215    3216    3219    3215    3216    3393
    3216    3219    3218    3216    3219    3220    3216    3393    3398
    3216    3393    3394    3217    3218    3219    3217    3222    3221
    3217    3222    3223    3218    3217    3222    3218    3219    3220
    3219    3216    3393    3219    3220    3223    3219    3220    3397
    3220    3223    3222    3220    3223    3224    3220    3397    3402
    3220    3397    3398    3221    3222    3223    3221    3226    3225
    3221    3226    3227    3222    3221    3226    3222    3223    3224
    3223    3220    3397    3223    3224    3227    3223    3224    3401
    3224    3227    3226    3224    3227    3228    3224    3401    3402
    3224    3401    3406    3225    3226    3227    3225    3230    3229
    3225    3230    3231    3226    3225    3230    3226    3227    3228
    3227    3224    3401    3227    3228    3231    3227    3228    3405
    3228    3231    3230    3228    3231    3232    3228    3405    3406
    3228    3405    3410    3229    3230    3231    3229    3234    3233
    3229    3234    3235    3230    3229    3234    3230    3231    3232
    3231    3228    3405    3231    3232    3235    3231    3232    3409
    3232    3235    3234    3232    3235    3236    3232    3409    3414
    3232    3409    3410    3233    3234    3235    3233    3238    3237
    3233    3238    3239    3234    3233    3238    3234    3235    3236
    3235    3232    3409    3235    3236    3239    3235    3236    3413
    3236    3239    3238    3236    3239    3240    3236    3413    3418
    3236    3413    3414    3237    3238    3239    3238    3239    3240
    3239    3236    3413    3239    3240    3417    3240    3417    3418
    3241    3242    3243    3241    3246    3245    3241    3246    3247
    3242    3241    3246    3242    3243    3244    3243    3244    3247
    3243    3244    3421    3244    3247    3246    3244    3247    3248
    3244    3421    3422    3244    3421    3426    3245    3246    3247
    3245    3250    3249    3245    3250    3251    3246    3245    3250
    3246    3247    3248    3247    3244    3421    3247    3248    3251
    3247    3248    3425    3248    3251    3250    3248    3251    3252
    3248    3425    3426    3248    3425    3430    3249    3250    3251
    3249    3254    3253    3249    3254    3255    3250    3249    3254
    3250    3251    3252    3251    3248    3425    3251    3252    3255
    3251    3252    3429    3252    3255    3254    3252    3255    3256
    3252    3429    3434    3252    3429    3430    3253    3254    3255
    3253    3258    3257    3253    3258    3259    3254    3253    3258
    3254    3255    3256    3255    3252    3429    3255    3256    3259
    3255    3256    3433    3256    3259    3258    3256    3259    3260
    3256    3433    3438    3256    3433    3434    3257    3258    3259
    3257    3262    3261    3257    3262    3263    3258    3257    3262
    3258    3259    3260    3259    3256    3433    3259    3260    3263
    3259    3260    3437    3260    3263    3262    3260    3263    3264
    3260    3437    3442    3260    3437    3438    3261    3262    3263
    3261    3266    3265    3261    3266    3267    3262    3261    3266
    3262    3263    3264    3263    3260    3437    3263    3264    3267
    3263    3264    3441    3264    3267    3266    3264    3267    3268
    3264    3441    3442    3264    3441    3446    3265    3266    3267
    3265    3270    3269    3265    3270    3271    3266    3265    3270
    3266    3267    3268    3267    3264    3441    3267    3268    3271
    3267    3268    3445    3268    3271    3270    3268    3271    3272
    3268    3445    3446    3268    3445    3450    3269    3270    3271
    3269    3274    3273    3269    3274    3275    3270    3269    3274
    3270    3271    3272    3271    3268    3445    3271    3272    3275
    3271    3272    3449    3272    3275    3274    3272    3275    3276
    3272    3449    3454    3272    3449    3450    3273    3274    3275
    3273    3278    3277    3273    3278    3279    3274    3273    3278
    3274    3275    3276    3275    3272    3449    3275    3276    3279
    3275    3276    3453    3276    3279    3278    3276    3279    3280
    3276    3453    3458    3276    3453    3454    3277    3278    3279
    3277    3282    3281    3277    3282    3283    3278    3277    3282
    3278    3279    3280    3279    3276    3453    3279    3280    3283
    3279    3280    3457    3280    3283    3282    3280    3283    3284
    3280    3457    3462    3280    3457    3458    3281    3282    3283
    3281    3286    3285    3281    3286    3287    3282    3281    3286
    3282    3283    3284    3283    3280    3457    3283    3284    3287
    3283    3284    3461    3284    3287    3286    3284    3287    3288
    3284    3461    3462    3284    3461    3466    3285    3286    3287
    3285    3290    3289    3285    3290    3291    3286    3285    3290
    3286    3287    3288    3287    3284    3461    3287    3288    3291
    3287    3288    3465    3288    3291    3290    3288    3291    3292
    3288    3465    3466    3288    3465    3470    3289    3290    3291
    3289    3294    3293    3289    3294    3295    3290    3289    3294
    3290    3291    3292    3291    3288    3465    3291    3292    3295
    3291    3292    3469    3292    3295    3294    3292    3295    3296
    3292    3469    3474    3292    3469    3470    3293    3294    3295
    3293    3298    3297    3293    3298    3299    3294    3293    3298
    3294    3295    3296    3295    3292    3469    3295    3296    3299
    3295    3296    3473    3296    3299    3298    3296    3299    3300
    3296    3473    3478    3296    3473    3474    3297    3298    3299
    3297    3302    3301    3297    3302    3303    3298    3297    3302
    3298    3299    3300    3299    3296    3473    3299    3300    3303
    3299    3300    3477    3300    3303    3302    3300    3303    3304
    3300    3477    3482    3300    3477    3478    3301    3302    3303
    3301    3306    3305    3301    3306    3307    3302    3301    3306
    3302    3303    3304    3303    3300    3477    3303    3304    3307
    3303    3304    3481    3304    3307    3306    3304    3307    3308
    3304    3481    3482    3304    3481    3486    3305    3306    3307
    3305    3310    3309    3305    3310    3311    3306    3305    3310
    3306    3307    3308    3307    3304    3481    3307    3308    3311
    3307    3308    3485    3308    3311    3310    3308    3311    3312
    3308    3485    3486    3308    3485    3490    3309    3310    3311
    3309    3314    3313    3309    3314    3315    3310    3309    3314
    3310    3311    3312    3311    3308    3485    3311    3312    3315
    3311    3312    3489    3312    3315    3314    3312    3315    3316
    3312    3489    3494    3312    3489    3490    3313    3314    3315
    3313    3318    3317    3313    3318    3319    3314    3313    3318
    3314    3315    3316    3315    3312    3489    3315    3316    3319
    3315    3316    3493    3316    3319    3318    3316    3319    3320
    3316    3493    3498    3316    3493    3494    3317    3318    3319
    3317    3322    3321    3317    3322    3323    3318    3317    3322
    3318    3319    3320    3319    3316    3493    3319    3320    3323
    3319    3320    3497    3320    3323    3322    3320    3323    3324
    3320    3497    3502    3320    3497    3498    3321    3322    3323
    3321    3326    3325    3321    3326    3327    3322    3321    3326
    3322    3323    3324    3323    3320    3497    3323    3324    3327
    3323    3324    3501    3324    3327    3326    3324    3327    3328
    3324    3501    3502    3324    3501    3506    3325    3326    3327
    3325    3330    3329    3325    3330    3331    3326    3325    3330
    3326    3327    3328    3327    3324    3501    3327    3328    3331
    3327    3328    3505    3328    3331    3330    3328    3331    3332
    3328    3505    3506    3328    3505    3510    3329    3330    3331
    3329    3334    3333    3329    3334    3335    3330    3329    3334
    3330    3331    3332    3331    3328    3505    3331    3332    3335
    3331    3332    3509    3332    3335    3334    3332    3335    3336
    3332    3509    3514    3332    3509    3510    3333    3334    3335
    3333    3338    3337    3333    3338    3339    3334    3333    3338
    3334    3335    3336    3335    3332    3509    3335    3336    3339
    3335    3336    3513    3336    3339    3338    3336    3339    3340
    3336    3513    3518    3336    3513    3514    3337    3338    3339
    3337    3342    3341    3337    3342    3343    3338    3337    3342
    3338    3339    3340    3339    3336    3513    3339    3340    3343
    3339    3340    3517    3340    3343    3342    3340    3343    3344
    3340    3517    3522    3340    3517    3518    3341    3342    3343
    3341    3346    3345    3341    3346    3347    3342    3341    3346
    3342    3343    3344    3343    3340    3517    3343    3344    3347
    3343    3344    3521    3344    3347    3346    3344    3347    3348
    3344    3521    3522    3344    3521    3526    3345    3346    3347
    3345    3350    3349    3345    3350    3351    3346    3345    3350
    3346    3347    3348    3347    3344    3521    3347    3348    3351
    3347    3348    3525    3348    3351    3350    3348    3351    3352
    3348    3525    3526    3348    3525    3530    3349    3350    3351
    3349    3354    3353    3349    3354    3355    3350    3349    3354
    3350    3351    3352    3351    3348    3525    3351    3352    3355
    3351    3352    3529    3352    3355    3354    3352    3355    3356
    3352    3529    3534    3352    3529    3530    3353    3354    3355
    3353    3358    3357    3353    3358    3359    3354    3353    3358
    3354    3355    3356    3355    3352    3529    3355    3356    3359
    3355    3356    3533    3356    3359    3358    3356    3359    3360
    3356    3533    3534    3356    3533    3538    3357    3358    3359
    3357    3362    3361    3357    3362    3363    3358    3357    3362
    3358    3359    3360    3359    3356    3533    3359    3360    3363
    3359    3360    3537    3360    3363    3362    3360    3363    3364
    3360    3537    3542    3360    3537    3538    3361    3362    3363
    3361    3366    3365    3361    3366    3367    3362    3361    3366
    3362    3363    3364    3363    3360    3537    3363    3364    3367
    3363    3364    3541    3364    3367    3366    3364    3367    3368
    3364    3541    3542    3364    3541    3546    3365    3366    3367
    3365    3370    3369    3365    3370    3371    3366    3365    3370
    3366    3367    3368    3367    3364    3541    3367    3368    3371
    3367    3368    3545    3368    3371    3370    3368    3371    3372
    3368    3545    3546    3368    3545    3550    3369    3370    3371
    3369    3374    3373    3369    3374    3375    3370    3369    3374
    3370    3371    3372    3371    3368    3545    3371    3372    3375
    3371    3372    3549    3372    3375    3374    3372    3375    3376
    3372    3549    3554    3372    3549    3550    3373    3374    3375
    3373    3378    3377    3373    3378    3379    3374    3373    3378
    3374    3375    3376    3375    3372    3549    3375    3376    3379
    3375    3376    3553    3376    3379    3378    3376    3379    3380
    3376    3553    3558    3376    3553    3554    3377    3378    3379
    3377    3382    3381    3377    3382    3383    3378    3377    3382
    3378    3379    3380    3379    3376    3553    3379    3380    3383
    3379    3380    3557    3380    3383    3382    3380    3383    3384
    3380    3557    3562    3380    3557    3558    3381    3382    3383
    3381    3386    3385    3381    3386    3387    3382    3381    3386
    3382    3383    3384    3383    3380    3557    3383    3384    3387
    3383    3384    3561    3384    3387    3386    3384    3387    3388
    3384    3561    3562    3384    3561    3566    3385    3386    3387
    3385    3390    3389    3385    3390    3391    3386    3385    3390
    3386    3387    3388    3387    3384    3561    3387    3388    3391
    3387    3388    3565    3388    3391    3390    3388    3391    3392
    3388    3565    3566    3388    3565    3570    3389    3390    3391
    3389    3394    3393    3389    3394    3395    3390    3389    3394
    3390    3391    3392    3391    3388    3565    3391    3392    3395
    3391    3392    3569    3392    3395    3394    3392    3395    3396
    3392    3569    3574    3392    3569    3570    3393    3394    3395
    3393    3398    3397    3393    3398    3399    3394    3393    3398
    3394    3395    3396    3395    3392    3569    3395    3396    3399
    3395    3396    3573    3396    3399    3398    3396    3399    3400
    3396    3573    3578    3396    3573    3574    3397    3398    3399
    3397    3402    3401    3397    3402    3403    3398    3397    3402
    3398    3399    3400    3399    3396    3573    3399    3400    3403
    3399    3400    3577    3400    3403    3402    3400    3403    3404
    3400    3577    3582    3400    3577    3578    3401    3402    3403
    3401    3406    3405    3401    3406    3407    3402    3401    3406
    3402    3403    3404    3403    3400    3577    3403    3404    3407
    3403    3404    3581    3404    3407    3406    3404    3407    3408
    3404    3581    3582    3404    3581    3586    3405    3406    3407
    3405    3410    3409    3405    3410    3411    3406    3405    3410
    3406    3407    3408    3407    3404    3581    3407    3408    3411
    3407    3408    3585    3408    3411    3410    3408    3411    3412
    3408    3585    3586    3408    3585    3590    3409    3410    3411
    3409    3414    3413    3409    3414    3415    3410    3409    3414
    3410    3411    3412    3411    3408    3585    3411    3412    3415
    3411    3412    3589    3412    3415    3414    3412    3415    3416
    3412    3589    3594    3412    3589    3590    3413    3414    3415
    3413    3418    3417    3413    3418    3419    3414    3413    3418
    3414    3415    3416    3415    3412    3589    3415    3416    3419
    3415    3416    3593    3416    3419    3418    3416    3419    3420
    3416    3593    3598    3416    3593    3594    3417    3418    3419
    3418    3419    3420    3419    3416    3593    3419    3420    3597
    3420    3597    3598    3421    3422    3423    3421    3426    3425
    3421    3426    3427    3422    3421    3426    3422    3423    3424
    3423    3424    3427    3423    3424    3601    3424    3427    3426
    3424    3427    3428    3424    3601    3602    3424    3601    3606
    3425    3426    3427    3425    3430    3429    3425    3430    3431
    3426    3425    3430    3426    3427    3428    3427    3424    3601
    3427    3428    3431    3427    3428    3605    3428    3431    3430
    3428    3431    3432    3428    3605    3606    3428    3605    3610
    3429    3430    3431    3429    3434    3433    3429    3434    3435
    3430    3429    3434    3430    3431    3432    3431    3428    3605
    3431    3432    3435    3431    3432    3609    3432    3435    3434
    3432    3435    3436    3432    3609    3614    3432    3609    3610
    3433    3434    3435    3433    3438    3437    3433    3438    3439
    3434    3433    3438    3434    3435    3436    3435    3432    3609
    3435    3436    3439    3435    3436    3613    3436    3439    3438
    3436    3439    3440    3436    3613    3618    3436    3613    3614
    3437    3438    3439    3437    3442    3441    3437    3442    3443
    3438    3437    3442    3438    3439    3440    3439    3436    3613
    3439    3440    3443    3439    3440    3617    3440    3443    3442
    3440    3443    3444    3440    3617    3622    3440    3617    3618
    3441    3442    3443    3441    3446    3445    3441    3446    3447
    3442    3441    3446    3442    3443    3444    3443    3440    3617
    3443    3444    3447    3443    3444    3621    3444    3447    3446
    3444    3447    3448    3444    3621    3622    3444    3621    3626
    3445    3446    3447    3445    3450    3449    3445    3450    3451
    3446    3445    3450    3446    3447    3448    3447    3444    3621
    3447    3448    3451    3447    3448    3625    3448    3451    3450
    3448    3451    3452    3448    3625    3626    3448    3625    3630
    3449    3450    3451    3449    3454    3453    3449    3454    3455
    3450    3449    3454    3450    3451    3452    3451    3448    3625
    3451    3452    3455    3451    3452    3629    3452    3455    3454
    3452    3455    3456    3452    3629    3630    3452    3629    3634
    3453    3454    3455    3453    3458    3457    3453    3458    3459
    3454    3453    3458    3454    3455    3456    3455    3452    3629
    3455    3456    3459    3455    3456    3633    3456    3459    3458
    3456    3459    3460    3456    3633    3634    3456    3633    3638
    3457    3458    3459    3457    3462    3461    3457    3462    3463
    3458    3457    3462    3458    3459    3460    3459    3456    3633
    3459    3460    3463    3459    3460    3637    3460    3463    3462
    3460    3463    3464    3460    3637    3638    3460    3637    3642
    3461    3462    3463    3461    3466    3465    3461    3466    3467
    3462    3461    3466    3462    3463    3464    3463    3460    3637
    3463    3464    3467    3463    3464    3641    3464    3467    3466
    3464    3467    3468    3464    3641    3642    3464    3641    3646
    3465    3466    3467    3465    3470    3469    3465    3470    3471
    3466    3465    3470    3466    3467    3468    3467    3464    3641
    3467    3468    3471    3467    3468    3645    3468    3471    3470
    3468    3471    3472    3468    3645    3646    3468    3645    3650
    3469    3470    3471    3469    3474    3473    3469    3474    3475
    3470    3469    3474    3470    3471    3472    3471    3468    3645
    3471    3472    3475    3471    3472    3649    3472    3475    3474
    3472    3475    3476    3472    3649    3654    3472    3649    3650
    3473    3474    3475    3473    3478    3477    3473    3478    3479
    3474    3473    3478    3474    3475    3476    3475    3472    3649
    3475    3476    3479    3475    3476    3653    3476    3479    3478
    3476    3479    3480    3476    3653    3658    3476    3653    3654
    3477    3478    3479    3477    3482    3481    3477    3482    3483
    3478    3477    3482    3478    3479    3480    3479    3476    3653
    3479    3480    3483    3479    3480    3657    3480    3483    3482
    3480    3483    3484    3480    3657    3662    3480    3657    3658
    3481    3482    3483    3481    3486    3485    3481    3486    3487
    3482    3481    3486    3482    3483    3484    3483    3480    3657
    3483    3484    3487    3483    3484    3661    3484    3487    3486
    3484    3487    3488    3484    3661    3662    3484    3661    3666
    3485    3486    3487    3485    3490    3489    3485    3490    3491
    3486    3485    3490    3486    3487    3488    3487    3484    3661
    3487    3488    3491    3487    3488    3665    3488    3491    3490
    3488    3491    3492    3488    3665    3666    3488    3665    3670
    3489    3490    3491    3489    3494    3493    3489    3494    3495
    3490    3489    3494    3490    3491    3492    3491    3488    3665
    3491    3492    3495    3491    3492    3669    3492    3495    3494
    3492    3495    3496    3492    3669    3674    3492    3669    3670
    3493    3494    3495    3493    3498    3497    3493    3498    3499
    3494    3493    3498    3494    3495    3496    3495    3492    3669
    3495    3496    3499    3495    3496    3673    3496    3499    3498
    3496    3499    3500    3496    3673    3678    3496    3673    3674
    3497    3498    3499    3497    3502    3501    3497    3502    3503
    3498    3497    3502    3498    3499    3500    3499    3496    3673
    3499    3500    3503    3499    3500    3677    3500    3503    3502
    3500    3503    3504    3500    3677    3682    3500    3677    3678
    3501    3502    3503    3501    3506    3505    3501    3506    3507
    3502    3501    3506    3502    3503    3504    3503    3500    3677
    3503    3504    3507    3503    3504    3681    3504    3507    3506
    3504    3507    3508    3504    3681    3682    3504    3681    3686
    3505    3506    3507    3505    3510    3509    3505    3510    3511
    3506    3505    3510    3506    3507    3508    3507    3504    3681
    3507    3508    3511    3507    3508    3685    3508    3511    3510
    3508    3511    3512    3508    3685    3686    3508    3685    3690
    3509    3510    3511    3509    3514    3513    3509    3514    3515
    3510    3509    3514    3510    3511    3512    3511    3508    3685
    3511    3512    3515    3511    3512    3689    3512    3515    3514
    3512    3515    3516    3512    3689    3690    3512    3689    3694
    3513    3514    3515    3513    3518    3517    3513    3518    3519
    3514    3513    3518    3514    3515    3516    3515    3512    3689
    3515    3516    3519    3515    3516    3693    3516    3519    3518
    3516    3519    3520    3516    3693    3694    3516    3693    3698
    3517    3518    3519    3517    3522    3521    3517    3522    3523
    3518    3517    3522    3518    3519    3520    3519    3516    3693
    3519    3520    3523    3519    3520    3697    3520    3523    3522
    3520    3523    3524    3520    3697    3698    3520    3697    3702
    3521    3522    3523    3521    3526    3525    3521    3526    3527
    3522    3521    3526    3522    3523    3524    3523    3520    3697
    3523    3524    3527    3523    3524    3701    3524    3527    3526
    3524    3527    3528    3524    3701    3702    3524    3701    3706
    3525    3526    3527    3525    3530    3529    3525    3530    3531
    3526    3525    3530    3526    3527    3528    3527    3524    3701
    3527    3528    3531    3527    3528    3705    3528    3531    3530
    3528    3531    3532    3528    3705    3706    3528    3705    3710
    3529    3530    3531    3529    3534    3533    3529    3534    3535
    3530    3529    3534    3530    3531    3532    3531    3528    3705
    3531    3532    3535    3531    3532    3709    3532    3535    3534
    3532    3535    3536    3532    3709    3714    3532    3709    3710
    3533    3534    3535    3533    3538    3537    3533    3538    3539
    3534    3533    3538    3534    3535    3536    3535    3532    3709
    3535    3536    3539    3535    3536    3713    3536    3539    3538
    3536    3539    3540    3536    3713    3718    3536    3713    3714
    3537    3538    3539    3537    3542    3541    3537    3542    3543
    3538    3537    3542    3538    3539    3540    3539    3536    3713
    3539    3540    3543    3539    3540    3717    3540    3543    3542
    3540    3543    3544    3540    3717    3722    3540    3717    3718
    3541    3542    3543    3541    3546    3545    3541    3546    3547
    3542    3541    3546    3542    3543    3544    3543    3540    3717
    3543    3544    3547    3543    3544    3721    3544    3547    3546
    3544    3547    3548    3544    3721    3722    3544    3721    3726
    3545    3546    3547    3545    3550    3549    3545    3550    3551
    3546    3545    3550    3546    3547    3548    3547    3544    3721
    3547    3548    3551    3547    3548    3725    3548    3551    3550
    3548    3551    3552    3548    3725    3726    3548    3725    3730
    3549    3550    3551    3549    3554    3553    3549    3554    3555
    3550    3549    3554    3550    3551    3552    3551    3548    3725
    3551    3552    3555    3551    3552    3729    3552    3555    3554
    3552    3555    3556    3552    3729    3734    3552    3729    3730
    3553    3554    3555    3553    3558    3557    3553    3558    3559
    3554    3553    3558    3554    3555    3556    3555    3552    3729
    3555    3556    3559    3555    3556    3733    3556    3559    3558
    3556    3559    3560    3556    3733    3738    3556    3733    3734
    3557    3558    3559    3557    3562    3561    3557    3562    3563
    3558    3557    3562    3558    3559    3560    3559    3556    3733
    3559    3560    3563    3559    3560    3737    3560    3563    3562
    3560    3563    3564    3560    3737    3742    3560    3737    3738
    3561    3562    3563    3561    3566    3565    3561    3566    3567
    3562    3561    3566    3562    3563    3564    3563    3560    3737
    3563    3564    3567    3563    3564    3741    3564    3567    3566
    3564    3567    3568    3564    3741    3742    3564    3741    3746
    3565    3566    3567    3565    3570    3569    3565    3570    3571
    3566    3565    3570    3566    3567    3568    3567    3564    3741
    3567    3568    3571    3567    3568    3745    3568    3571    3570
    3568    3571    3572    3568    3745    3746    3568    3745    3750
    3569    3570    3571    3569    3574    3573    3569    3574    3575
    3570    3569    3574    3570    3571    3572    3571    3568    3745
    3571    3572    3575    3571    3572    3749    3572    3575    3574
    3572    3575    3576    3572    3749    3754    3572    3749    3750
    3573    3574    3575    3573    3578    3577    3573    3578    3579
    3574    3573    3578    3574    3575    3576    3575    3572    3749
    3575    3576    3579    3575    3576    3753    3576    3579    3578
    3576    3579    3580    3576    3753    3754    3576    3753    3758
    3577    3578    3579    3577    3582    3581    3577    3582    3583
    3578    3577    3582    3578    3579    3580    3579    3576    3753
    3579    3580    3583    3579    3580    3757    3580    3583    3582
    3580    3583    3584    3580    3757    3758    3580    3757    3762
    3581    3582    3583    3581    3586    3585    3581    3586    3587
    3582    3581    3586    3582    3583    3584    3583    3580    3757
    3583    3584    3587    3583    3584    3761    3584    3587    3586
    3584    3587    3588    3584    3761    3762    3584    3761    3766
    3585    3586    3587    3585    3590    3589    3585    3590    3591
    3586    3585    3590    3586    3587    3588    3587    3584    3761
    3587    3588    3591    3587    3588    3765    3588    3591    3590
    3588    3591    3592    3588    3765    3766    3588    3765    3770
    3589    3590    3591    3589    3594    3593    3589    3594    3595
    3590    3589    3594    3590    3591    3592    3591    3588    3765
    3591    3592    3595    3591    3592    3769    3592    3595    3594
    3592    3595    3596    3592    3769    3770    3592    3769    3774
    3593    3594    3595    3593    3598    3597    3593    3598    3599
    3594    3593    3598    3594    3595    3596    3595    3592    3769
    3595    3596    3599    3595    3596    3773    3596    3599    3598
    3596    3599    3600    3596    3773    3774    3596    3773    3778
    3597    3598    3599    3598    3599    3600    3599    3596    3773
    3599    3600    3777    3600    3777    3778    3601    3602    3603
    3601    3606    3605    3601    3606    3607    3602    3601    3606
    3602    3603    3604    3603    3604    3781    3603    3604    3607
    3604    3607    3606    3604    3607    3608    3604    3781    3782
    3604    3781    3786    3605    3606    3607    3605    3610    3609
    3605    3610    3611    3606    3605    3610    3606    3607    3608
    3607    3604    3781    3607    3608    3785    3607    3608    3611
    3608    3611    3610    3608    3611    3612    3608    3785    3786
    3608    3785    3790    3609    3610    3611    3609    3614    3613
    3609    3614    3615    3610    3609    3614    3610    3611    3612
    3611    3608    3785    3611    3612    3615    3611    3612    3789
    3612    3615    3614    3612    3615    3616    3612    3789    3790
    3612    3789    3794    3613    3614    3615    3613    3618    3617
    3613    3618    3619    3614    3613    3618    3614    3615    3616
    3615    3612    3789    3615    3616    3619    3615    3616    3793
    3616    3619    3618    3616    3619    3620    3616    3793    3794
    3616    3793    3798    3617    3618    3619    3617    3622    3621
    3617    3622    3623    3618    3617    3622    3618    3619    3620
    3619    3616    3793    3619    3620    3797    3619    3620    3623
    3620    3623    3622    3620    3623    3624    3620    3797    3802
    3620    3797    3798    3621    3622    3623    3621    3626    3625
    3621    3626    3627    3622    3621    3626    3622    3623    3624
    3623    3620    3797    3623    3624    3801    3623    3624    3627
    3624    3627    3626    3624    3627    3628    3624    3801    3802
    3624    3801    3806    3625    3626    3627    3625    3630    3629
    3625    3630    3631    3626    3625    3630    3626    3627    3628
    3627    3624    3801    3627    3628    3805    3627    3628    3631
    3628    3631    3630    3628    3631    3632    3628    3805    3806
    3628    3805    3810    3629    3630    3631    3629    3634    3633
    3629    3634    3635    3630    3629    3634    3630    3631    3632
    3631    3628    3805    3631    3632    3635    3631    3632    3809
    3632    3635    3634    3632    3635    3636    3632    3809    3814
    3632    3809    3810    3633    3634    3635    3633    3638    3637
    3633    3638    3639    3634    3633    3638    3634    3635    3636
    3635    3632    3809    3635    3636    3639    3635    3636    3813
    3636    3639    3638    3636    3639    3640    3636    3813    3818
    3636    3813    3814    3637    3638    3639    3637    3642    3641
    3637    3642    3643    3638    3637    3642    3638    3639    3640
    3639    3636    3813    3639    3640    3817    3639    3640    3643
    3640    3643    3642    3640    3643    3644    3640    3817    3822
    3640    3817    3818    3641    3642    3643    3641    3646    3645
    3641    3646    3647    3642    3641    3646    3642    3643    3644
    3643    3640    3817    3643    3644    3821    3643    3644    3647
    3644    3647    3646    3644    3647    3648    3644    3821    3822
    3644    3821    3826    3645    3646    3647    3645    3650    3649
    3645    3650    3651    3646    3645    3650    3646    3647    3648
    3647    3644    3821    3647    3648    3825    3647    3648    3651
    3648    3651    3650    3648    3651    3652    3648    3825    3826
    3648    3825    3830    3649    3650    3651    3649    3654    3653
    3649    3654    3655    3650    3649    3654    3650    3651    3652
    3651    3648    3825    3651    3652    3829    3651    3652    3655
    3652    3655    3654    3652    3655    3656    3652    3829    3834
    3652    3829    3830    3653    3654    3655    3653    3658    3657
    3653    3658    3659    3654    3653    3658    3654    3655    3656
    3655    3652    3829    3655    3656    3833    3655    3656    3659
    3656    3659    3658    3656    3659    3660    3656    3833    3838
    3656    3833    3834    3657    3658    3659    3657    3662    3661
    3657    3662    3663    3658    3657    3662    3658    3659    3660
    3659    3656    3833    3659    3660    3837    3659    3660    3663
    3660    3663    3662    3660    3663    3664    3660    3837    3842
    3660    3837    3838    3661    3662    3663    3661    3666    3665
    3661    3666    3667    3662    3661    3666    3662    3663    3664
    3663    3660    3837    3663    3664    3841    3663    3664    3667
    3664    3667    3666    3664    3667    3668    3664    3841    3842
    3664    3841    3846    3665    3666    3667    3665    3670    3669
    3665    3670    3671    3666    3665    3670    3666    3667    3668
    3667    3664    3841    3667    3668    3845    3667    3668    3671
    3668    3671    3670    3668    3671    3672    3668    3845    3846
    3668    3845    3850    3669    3670    3671    3669    3674    3673
    3669    3674    3675    3670    3669    3674    3670    3671    3672
    3671    3668    3845    3671    3672    3675    3671    3672    3849
    3672    3675    3674    3672    3675    3676    3672    3849    3850
    3672    3849    3854    3673    3674    3675    3673    3678    3677
    3673    3678    3679    3674    3673    3678    3674    3675    3676
    3675    3672    3849    3675    3676    3679    3675    3676    3853
    3676    3679    3678    3676    3679    3680    3676    3853    3854
    3676    3853    3858    3677    3678    3679    3677    3682    3681
    3677    3682    3683    3678    3677    3682    3678    3679    3680
    3679    3676    3853    3679    3680    3857    3679    3680    3683
    3680    3683    3682    3680    3683    3684    3680    3857    3858
    3680    3857    3862    3681    3682    3683    3681    3686    3685
    3681    3686    3687    3682    3681    3686    3682    3683    3684
    3683    3680    3857    3683    3684    3861    3683    3684    3687
    3684    3687    3686    3684    3687    3688    3684    3861    3862
    3684    3861    3866    3685    3686    3687    3685    3690    3689
    3685    3690    3691    3686    3685    3690    3686    3687    3688
    3687    3684    3861    3687    3688    3865    3687    3688    3691
    3688    3691    3690    3688    3691    3692    3688    3865    3866
    3688    3865    3870    3689    3690    3691    3689    3694    3693
    3689    3694    3695    3690    3689    3694    3690    3691    3692
    3691    3688    3865    3691    3692    3695    3691    3692    3869
    3692    3695    3694    3692    3695    3696    3692    3869    3874
    3692    3869    3870    3693    3694    3695    3693    3698    3697
    3693    3698    3699    3694    3693    3698    3694    3695    3696
    3695    3692    3869    3695    3696    3699    3695    3696    3873
    3696    3699    3698    3696    3699    3700    3696    3873    3878
    3696    3873    3874    3697    3698    3699    3697    3702    3701
    3697    3702    3703    3698    3697    3702    3698    3699    3700
    3699    3696    3873    3699    3700    3877    3699    3700    3703
    3700    3703    3702    3700    3703    3704    3700    3877    3882
    3700    3877    3878    3701    3702    3703    3701    3706    3705
    3701    3706    3707    3702    3701    3706    3702    3703    3704
    3703    3700    3877    3703    3704    3881    3703    3704    3707
    3704    3707    3706    3704    3707    3708    3704    3881    3882
    3704    3881    3886    3705    3706    3707    3705    3710    3709
    3705    3710    3711    3706    3705    3710    3706    3707    3708
    3707    3704    3881    3707    3708    3885    3707    3708    3711
    3708    3711    3710    3708    3711    3712    3708    3885    3886
    3708    3885    3890    3709    3710    3711    3709    3714    3713
    3709    3714    3715    3710    3709    3714    3710    3711    3712
    3711    3708    3885    3711    3712    3889    3711    3712    3715
    3712    3715    3714    3712    3715    3716    3712    3889    3894
    3712    3889    3890    3713    3714    3715    3713    3718    3717
    3713    3718    3719    3714    3713    3718    3714    3715    3716
    3715    3712    3889    3715    3716    3893    3715    3716    3719
    3716    3719    3718    3716    3719    3720    3716    3893    3898
    3716    3893    3894    3717    3718    3719    3717    3722    3721
    3717    3722    3723    3718    3717    3722    3718    3719    3720
    3719    3716    3893    3719    3720    3897    3719    3720    3723
    3720    3723    3722    3720    3723    3724    3720    3897    3902
    3720    3897    3898    3721    3722    3723    3721    3726    3725
    3721    3726    3727    3722    3721    3726    3722    3723    3724
    3723    3720    3897    3723    3724    3901    3723    3724    3727
    3724    3727    3726    3724    3727    3728    3724    3901    3902
    3724    3901    3906    3725    3726    3727    3725    3730    3729
    3725    3730    3731    3726    3725    3730    3726    3727    3728
    3727    3724    3901    3727    3728    3905    3727    3728    3731
    3728    3731    3730    3728    3731    3732    3728    3905    3906
    3728    3905    3910    3729    3730    3731    3729    3734    3733
    3729    3734    3735    3730    3729    3734    3730    3731    3732
    3731    3728    3905    3731    3732    3735    3731    3732    3909
    3732    3735    3734    3732    3735    3736    3732    3909    3910
    3732    3909    3914    3733    3734    3735    3733    3738    3737
    3733    3738    3739    3734    3733    3738    3734    3735    3736
    3735    3732    3909    3735    3736    3739    3735    3736    3913
    3736    3739    3738    3736    3739    3740    3736    3913    3914
    3736    3913    3918    3737    3738    3739    3737    3742    3741
    3737    3742    3743    3738    3737    3742    3738    3739    3740
    3739    3736    3913    3739    3740    3917    3739    3740    3743
    3740    3743    3742    3740    3743    3744    3740    3917    3918
    3740    3917    3922    3741    3742    3743    3741    3746    3745
    3741    3746    3747    3742    3741    3746    3742    3743    3744
    3743    3740    3917    3743    3744    3921    3743    3744    3747
    3744    3747    3746    3744    3747    3748    3744    3921    3922
    3744    3921    3926    3745    3746    3747    3745    3750    3749
    3745    3750    3751    3746    3745    3750    3746    3747    3748
    3747    3744    3921    3747    3748    3925    3747    3748    3751
    3748    3751    3750    3748    3751    3752    3748    3925    3926
    3748    3925    3930    3749    3750    3751    3749    3754    3753
    3749    3754    3755    3750    3749    3754    3750    3751    3752
    3751    3748    3925    3751    3752    3755    3751    3752    3929
    3752    3755    3754    3752    3755    3756    3752    3929    3934
    3752    3929    3930    3753    3754    3755    3753    3758    3757
    3753    3758    3759    3754    3753    3758    3754    3755    3756
    3755    3752    3929    3755    3756    3759    3755    3756    3933
    3756    3759    3758    3756    3759    3760    3756    3933    3938
    3756    3933    3934    3757    3758    3759    3757    3762    3761
    3757    3762    3763    3758    3757    3762    3758    3759    3760
    3759    3756    3933    3759    3760    3937    3759    3760    3763
    3760    3763    3762    3760    3763    3764    3760    3937    3942
    3760    3937    3938    3761    3762    3763    3761    3766    3765
    3761    3766    3767    3762    3761    3766    3762    3763    3764
    3763    3760    3937    3763    3764    3941    3763    3764    3767
    3764    3767    3766    3764    3767    3768    3764    3941    3942
    3764    3941    3946    3765    3766    3767    3765    3770    3769
    3765    3770    3771    3766    3765    3770    3766    3767    3768
    3767    3764    3941    3767    3768    3945    3767    3768    3771
    3768    3771    3770    3768    3771    3772    3768    3945    3946
    3768    3945    3950    3769    3770    3771    3769    3774    3773
    3769    3774    3775    3770    3769    3774    3770    3771    3772
    3771    3768    3945    3771    3772    3775    3771    3772    3949
    3772    3775    3774    3772    3775    3776    3772    3949    3954
    3772    3949    3950    3773    3774    3775    3773    3778    3777
    3773    3778    3779    3774    3773    3778    3774    3775    3776
    3775    3772    3949    3775    3776    3953    3775    3776    3779
    3776    3779    3778    3776    3779    3780    3776    3953    3958
    3776    3953    3954    3777    3778    3779    3778    3779    3780
    3779    3776    3953    3779    3780    3957    3780    3957    3958
    3781    3782    3783    3781    3786    3785    3781    3786    3787
    3782    3781    3786    3782    3783    3784    3783    3784    3961
    3783    3784    3787    3784    3787    3786    3784    3787    3788
    3784    3961    3962    3784    3961    3966    3785    3786    3787
    3785    3790    3789    3785    3790    3791    3786    3785    3790
    3786    3787    3788    3787    3784    3961    3787    3788    3965
    3787    3788    3791    3788    3791    3790    3788    3791    3792
    3788    3965    3966    3788    3965    3970    3789    3790    3791
    3789    3794    3793    3789    3794    3795    3790    3789    3794
    3790    3791    3792    3791    3788    3965    3791    3792    3795
    3791    3792    3969    3792    3795    3794    3792    3795    3796
    3792    3969    3974    3792    3969    3970    3793    3794    3795
    3793    3798    3797    3793    3798    3799    3794    3793    3798
    3794    3795    3796    3795    3792    3969    3795    3796    3973
    3795    3796    3799    3796    3799    3798    3796    3799    3800
    3796    3973    3978    3796    3973    3974    3797    3798    3799
    3797    3802    3801    3797    3802    3803    3798    3797    3802
    3798    3799    3800    3799    3796    3973    3799    3800    3977
    3799    3800    3803    3800    3803    3802    3800    3803    3804
    3800    3977    3982    3800    3977    3978    3801    3802    3803
    3801    3806    3805    3801    3806    3807    3802    3801    3806
    3802    3803    3804    3803    3800    3977    3803    3804    3981
    3803    3804    3807    3804    3807    3806    3804    3807    3808
    3804    3981    3982    3804    3981    3986    3805    3806    3807
    3805    3810    3809    3805    3810    3811    3806    3805    3810
    3806    3807    3808    3807    3804    3981    3807    3808    3985
    3807    3808    3811    3808    3811    3810    3808    3811    3812
    3808    3985    3986    3808    3985    3990    3809    3810    3811
    3809    3814    3813    3809    3814    3815    3810    3809    3814
    3810    3811    3812    3811    3808    3985    3811    3812    3989
    3811    3812    3815    3812    3815    3814    3812    3815    3816
    3812    3989    3994    3812    3989    3990    3813    3814    3815
    3813    3818    3817    3813    3818    3819    3814    3813    3818
    3814    3815    3816    3815    3812    3989    3815    3816    3819
    3815    3816    3993    3816    3819    3818    3816    3819    3820
    3816    3993    3994    3816    3993    3998    3817    3818    3819
    3817    3822    3821    3817    3822    3823    3818    3817    3822
    3818    3819    3820    3819    3816    3993    3819    3820    3997
    3819    3820    3823    3820    3823    3822    3820    3823    3824
    3820    3997    3998    3820    3997    4002    3821    3822    3823
    3821    3826    3825    3821    3826    3827    3822    3821    3826
    3822    3823    3824    3823    3820    3997    3823    3824    4001
    3823    3824    3827    3824    3827    3826    3824    3827    3828
    3824    4001    4002    3824    4001    4006    3825    3826    3827
    3825    3830    3829    3825    3830    3831    3826    3825    3830
    3826    3827    3828    3827    3824    4001    3827    3828    4005
    3827    3828    3831    3828    3831    3830    3828    3831    3832
    3828    4005    4006    3828    4005    4010    3829    3830    3831
    3829    3834    3833    3829    3834    3835    3830    3829    3834
    3830    3831    3832    3831    3828    4005    3831    3832    3835
    3831    3832    4009    3832    3835    3834    3832    3835    3836
    3832    4009    4010    3832    4009    4014    3833    3834    3835
    3833    3838    3837    3833    3838    3839    3834    3833    3838
    3834    3835    3836    3835    3832    4009    3835    3836    3839
    3835    3836    4013    3836    3839    3838    3836    3839    3840
    3836    4013    4014    3836    4013    4018    3837    3838    3839
    3837    3842    3841    3837    3842    3843    3838    3837    3842
    3838    3839    3840    3839    3836    4013    3839    3840    4017
    3839    3840    3843    3840    3843    3842    3840    3843    3844
    3840    4017    4022    3840    4017    4018    3841    3842    3843
    3841    3846    3845    3841    3846    3847    3842    3841    3846
    3842    3843    3844    3843    3840    4017    3843    3844    4021
    3843    3844    3847    3844    3847    3846    3844    3847    3848
    3844    4021    4022    3844    4021    4026    3845    3846    3847
    3845    3850    3849    3845    3850    3851    3846    3845    3850
    3846    3847    3848    3847    3844    4021    3847    3848    4025
    3847    3848    3851    3848    3851    3850    3848    3851    3852
    3848    4025    4026    3848    4025    4030    3849    3850    3851
    3849    3854    3853    3849    3854    3855    3850    3849    3854
    3850    3851    3852    3851    3848    4025    3851    3852    3855
    3851    3852    4029    3852    3855    3854    3852    3855    3856
    3852    4029    4034    3852    4029    4030    3853    3854    3855
    3853    3858    3857    3853    3858    3859    3854    3853    3858
    3854    3855    3856    3855    3852    4029    3855    3856    3859
    3855    3856    4033    3856    3859    3858    3856    3859    3860
    3856    4033    4038    3856    4033    4034    3857    3858    3859
    3857    3862    3861    3857    3862    3863    3858    3857    3862
    3858    3859    3860    3859    3856    4033    3859    3860    4037
    3859    3860    3863    3860    3863    3862    3860    3863    3864
    3860    4037    4042    3860    4037    4038    3861    3862    3863
    3861    3866    3865    3861    3866    3867    3862    3861    3866
    3862    3863    3864    3863    3860    4037    3863    3864    4041
    3863    3864    3867    3864    3867    3866    3864    3867    3868
    3864    4041    4042    3864    4041    4046    3865    3866    3867
    3865    3870    3869    3865    3870    3871    3866    3865    3870
    3866    3867    3868    3867    3864    4041    3867    3868    4045
    3867    3868    3871    3868    3871    3870    3868    3871    3872
    3868    4045    4046    3868    4045    4050    3869    3870    3871
    3869    3874    3873    3869    3874    3875    3870    3869    3874
    3870    3871    3872    3871    3868    4045    3871    3872    4049
    3871    3872    3875    3872    3875    3874    3872    3875    3876
    3872    4049    4054    3872    4049    4050    3873    3874    3875
    3873    3878    3877    3873    3878    3879    3874    3873    3878
    3874    3875    3876    3875    3872    4049    3875    3876    4053
    3875    3876    3879    3876    3879    3878    3876    3879    3880
    3876    4053    4058    3876    4053    4054    3877    3878    3879
    3877    3882    3881    3877    3882    3883    3878    3877    3882
    3878    3879    3880    3879    3876    4053    3879    3880    4057
    3879    3880    3883    3880    3883    3882    3880    3883    3884
    3880    4057    4062    3880    4057    4058    3881    3882    3883
    3881    3886    3885    3881    3886    3887    3882    3881    3886
    3882    3883    3884    3883    3880    4057    3883    3884    4061
    3883    3884    3887    3884    3887    3886    3884    3887    3888
    3884    4061    4062    3884    4061    4066    3885    3886    3887
    3885    3890    3889    3885    3890    3891    3886    3885    3890
    3886    3887    3888    3887    3884    4061    3887    3888    4065
    3887    3888    3891    3888    3891    3890    3888    3891    3892
    3888    4065    4066    3888    4065    4070    3889    3890    3891
    3889    3894    3893    3889    3894    3895    3890    3889    3894
    3890    3891    3892    3891    3888    4065    3891    3892    3895
    3891    3892    4069    3892    3895    3894    3892    3895    3896
    3892    4069    4070    3892    4069    4074    3893    3894    3895
    3893    3898    3897    3893    3898    3899    3894    3893    3898
    3894    3895    3896    3895    3892    4069    3895    3896    3899
    3895    3896    4073    3896    3899    3898    3896    3899    3900
    3896    4073    4074    3896    4073    4078    3897    3898    3899
    3897    3902    3901    3897    3902    3903    3898    3897    3902
    3898    3899    3900    3899    3896    4073    3899    3900    4077
    3899    3900    3903    3900    3903    3902    3900    3903    3904
    3900    4077    4078    3900    4077    4082    3901    3902    3903
    3901    3906    3905    3901    3906    3907    3902    3901    3906
    3902    3903    3904    3903    3900    4077    3903    3904    4081
    3903    3904    3907    3904    3907    3906    3904    3907    3908
    3904    4081    4082    3904    4081    4086    3905    3906    3907
    3905    3910    3909    3905    3910    3911    3906    3905    3910
    3906    3907    3908    3907    3904    4081    3907    3908    4085
    3907    3908    3911    3908    3911    3910    3908    3911    3912
    3908    4085    4086    3908    4085    4090    3909    3910    3911
    3909    3914    3913    3909    3914    3915    3910    3909    3914
    3910    3911    3912    3911    3908    4085    3911    3912    3915
    3911    3912    4089    3912    3915    3914    3912    3915    3916
    3912    4089    4094    3912    4089    4090    3913    3914    3915
    3913    3918    3917    3913    3918    3919    3914    3913    3918
    3914    3915    3916    3915    3912    4089    3915    3916    3919
    3915    3916    4093    3916    3919    3918    3916    3919    3920
    3916    4093    4098    3916    4093    4094    3917    3918    3919
    3917    3922    3921    3917    3922    3923    3918    3917    3922
    3918    3919    3920    3919    3916    4093    3919    3920    4097
    3919    3920    3923    3920    3923    3922    3920    3923    3924
    3920    4097    4102    3920    4097    4098    3921    3922    3923
    3921    3926    3925    3921    3926    3927    3922    3921    3926
    3922    3923    3924    3923    3920    4097    3923    3924    4101
    3923    3924    3927    3924    3927    3926    3924    3927    3928
    3924    4101    4102    3924    4101    4106    3925    3926    3927
    3925    3930    3929    3925    3930    3931    3926    3925    3930
    3926    3927    3928    3927    3924    4101    3927    3928    4105
    3927    3928    3931    3928    3931    3930    3928    3931    3932
    3928    4105    4106    3928    4105    4110    3929    3930    3931
    3929    3934    3933    3929    3934    3935    3930    3929    3934
    3930    3931    3932    3931    3928    4105    3931    3932    4109
    3931    3932    3935    3932    3935    3934    3932    3935    3936
    3932    4109    4114    3932    4109    4110    3933    3934    3935
    3933    3938    3937    3933    3938    3939    3934    3933    3938
    3934    3935    3936    3935    3932    4109    3935    3936    4113
    3935    3936    3939    3936    3939    3938    3936    3939    3940
    3936    4113    4118    3936    4113    4114    3937    3938    3939
    3937    3942    3941    3937    3942    3943    3938    3937    3942
    3938    3939    3940    3939    3936    4113    3939    3940    4117
    3939    3940    3943    3940    3943    3942    3940    3943    3944
    3940    4117    4122    3940    4117    4118    3941    3942    3943
    3941    3946    3945    3941    3946    3947    3942    3941    3946
    3942    3943    3944    3943    3940    4117    3943    3944    4121
    3943    3944    3947    3944    3947    3946    3944    3947    3948
    3944    4121    4122    3944    4121    4126    3945    3946    3947
    3945    3950    3949    3945    3950    3951    3946    3945    3950
    3946    3947    3948    3947    3944    4121    3947    3948    4125
    3947    3948    3951    3948    3951    3950    3948    3951    3952
    3948    4125    4126    3948    4125    4130    3949    3950    3951
    3949    3954    3953    3949    3954    3955    3950    3949    3954
    3950    3951    3952    3951    3948    4125    3951    3952    3955
    3951    3952    4129    3952    3955    3954    3952    3955    3956
    3952    4129    4130    3952    4129    4134    3953    3954    3955
    3953    3958    3957    3953    3958    3959    3954    3953    3958
    3954    3955    3956    3955    3952    4129    3955    3956    3959
    3955    3956    4133    3956    3959    3958    3956    3959    3960
    3956    4133    4134    3956    4133    4138    3957    3958    3959
    3958    3959    3960    3959    3956    4133    3959    3960    4137
    3960    4137    4138    3961    3962    3963    3961    3966    3965
    3961    3966    3967    3962    3961    3966    3962    3963    3964
    3963    3964    4141    3963    3964    3967    3964    3967    3966
    3964    3967    3968    3964    4141    4142    3964    4141    4146
    3965    3966    3967    3965    3970    3969    3965    3970    3971
    3966    3965    3970    3966    3967    3968    3967    3964    4141
    3967    3968    4145    3967    3968    3971    3968    3971    3970
    3968    3971    3972    3968    4145    4146    3968    4145    4150
    3969    3970    3971    3969    3974    3973    3969    3974    3975
    3970    3969    3974    3970    3971    3972    3971    3968    4145
    3971    3972    3975    3971    3972    4149    3972    3975    3974
    3972    3975    3976    3972    4149    4150    3972    4149    4154
    3973    3974    3975    3973    3978    3977    3973    3978    3979
    3974    3973    3978    3974    3975    3976    3975    3972    4149
    3975    3976    3979    3975    3976    4153    3976    3979    3978
    3976    3979    3980    3976    4153    4154    3976    4153    4158
    3977    3978    3979    3977    3982    3981    3977    3982    3983
    3978    3977    3982    3978    3979    3980    3979    3976    4153
    3979    3980    4157    3979    3980    3983    3980    3983    3982
    3980    3983    3984    3980    4157    4158    3980    4157    4162
    3981    3982    3983    3981    3986    3985    3981    3986    3987
    3982    3981    3986    3982    3983    3984    3983    3980    4157
    3983    3984    4161    3983    3984    3987    3984    3987    3986
    3984    3987    3988    3984    4161    4162    3984    4161    4166
    3985    3986    3987    3985    3990    3989    3985    3990    3991
    3986    3985    3990    3986    3987    3988    3987    3984    4161
    3987    3988    4165    3987    3988    3991    3988    3991    3990
    3988    3991    3992    3988    4165    4166    3988    4165    4170
    3989    3990    3991    3989    3994    3993    3989    3994    3995
    3990    3989    3994    3990    3991    3992    3991    3988    4165
    3991    3992    3995    3991    3992    4169    3992    3995    3994
    3992    3995    3996    3992    4169    4174    3992    4169    4170
    3993    3994    3995    3993    3998    3997    3993    3998    3999
    3994    3993    3998    3994    3995    3996    3995    3992    4169
    3995    3996    3999    3995    3996    4173    3996    3999    3998
    3996    3999    4000    3996    4173    4178    3996    4173    4174
    3997    3998    3999    3997    4002    4001    3997    4002    4003
    3998    3997    4002    3998    3999    4000    3999    3996    4173
    3999    4000    4177    3999    4000    4003    4000    4003    4002
    4000    4003    4004    4000    4177    4182    4000    4177    4178
    4001    4002    4003    4001    4006    4005    4001    4006    4007
    4002    4001    4006    4002    4003    4004    4003    4000    4177
    4003    4004    4181    4003    4004    4007    4004    4007    4006
    4004    4007    4008    4004    4181    4182    4004    4181    4186
    4005    4006    4007    4005    4010    4009    4005    4010    4011
    4006    4005    4010    4006    4007    4008    4007    4004    4181
    4007    4008    4185    4007    4008    4011    4008    4011    4010
    4008    4011    4012    4008    4185    4186    4008    4185    4190
    4009    4010    4011    4009    4014    4013    4009    4014    4015
    4010    4009    4014    4010    4011    4012    4011    4008    4185
    4011    4012    4015    4011    4012    4189    4012    4015    4014
    4012    4015    4016    4012    4189    4194    4012    4189    4190
    4013    4014    4015    4013    4018    4017    4013    4018    4019
    4014    4013    4018    4014    4015    4016    4015    4012    4189
    4015    4016    4193    4015    4016    4019    4016    4019    4018
    4016    4019    4020    4016    4193    4198    4016    4193    4194
    4017    4018    4019    4017    4022    4021    4017    4022    4023
    4018    4017    4022    4018    4019    4020    4019    4016    4193
    4019    4020    4197    4019    4020    4023    4020    4023    4022
    4020    4023    4024    4020    4197    4202    4020    4197    4198
    4021    4022    4023    4021    4026    4025    4021    4026    4027
    4022    4021    4026    4022    4023    4024    4023    4020    4197
    4023    4024    4201    4023    4024    4027    4024    4027    4026
    4024    4027    4028    4024    4201    4202    4024    4201    4206
    4025    4026    4027    4025    4030    4029    4025    4030    4031
    4026    4025    4030    4026    4027    4028    4027    4024    4201
    4027    4028    4205    4027    4028    4031    4028    4031    4030
    4028    4031    4032    4028    4205    4206    4028    4205    4210
    4029    4030    4031    4029    4034    4033    4029    4034    4035
    4030    4029    4034    4030    4031    4032    4031    4028    4205
    4031    4032    4209    4031    4032    4035    4032    4035    4034
    4032    4035    4036    4032    4209    4214    4032    4209    4210
    4033    4034    4035    4033    4038    4037    4033    4038    4039
    4034    4033    4038    4034    4035    4036    4035    4032    4209
    4035    4036    4039    4035    4036    4213    4036    4039    4038
    4036    4039    4040    4036    4213    4214    4036    4213    4218
    4037    4038    4039    4037    4042    4041    4037    4042    4043
    4038    4037    4042    4038    4039    4040    4039    4036    4213
    4039    4040    4217    4039    4040    4043    4040    4043    4042
    4040    4043    4044    4040    4217    4218    4040    4217    4222
    4041    4042    4043    4041    4046    4045    4041    4046    4047
    4042    4041    4046    4042    4043    4044    4043    4040    4217
    4043    4044    4221    4043    4044    4047    4044    4047    4046
    4044    4047    4048    4044    4221    4222    4044    4221    4226
    4045    4046    4047    4045    4050    4049    4045    4050    4051
    4046    4045    4050    4046    4047    4048    4047    4044    4221
    4047    4048    4225    4047    4048    4051    4048    4051    4050
    4048    4051    4052    4048    4225    4226    4048    4225    4230
    4049    4050    4051    4049    4054    4053    4049    4054    4055
    4050    4049    4054    4050    4051    4052    4051    4048    4225
    4051    4052    4055    4051    4052    4229    4052    4055    4054
    4052    4055    4056    4052    4229    4230    4052    4229    4234
    4053    4054    4055    4053    4058    4057    4053    4058    4059
    4054    4053    4058    4054    4055    4056    4055    4052    4229
    4055    4056    4059    4055    4056    4233    4056    4059    4058
    4056    4059    4060    4056    4233    4234    4056    4233    4238
    4057    4058    4059    4057    4062    4061    4057    4062    4063
    4058    4057    4062    4058    4059    4060    4059    4056    4233
    4059    4060    4237    4059    4060    4063    4060    4063    4062
    4060    4063    4064    4060    4237    4242    4060    4237    4238
    4061    4062    4063    4061    4066    4065    4061    4066    4067
    4062    4061    4066    4062    4063    4064    4063    4060    4237
    4063    4064    4241    4063    4064    4067    4064    4067    4066
    4064    4067    4068    4064    4241    4242    4064    4241    4246
    4065    4066    4067    4065    4070    4069    4065    4070    4071
    4066    4065    4070    4066    4067    4068    4067    4064    4241
    4067    4068    4245    4067    4068    4071    4068    4071    4070
    4068    4071    4072    4068    4245    4246    4068    4245    4250
    4069    4070    4071    4069    4074    4073    4069    4074    4075
    4070    4069    4074    4070    4071    4072    4071    4068    4245
    4071    4072    4075    4071    4072    4249    4072    4075    4074
    4072    4075    4076    4072    4249    4254    4072    4249    4250
    4073    4074    4075    4073    4078    4077    4073    4078    4079
    4074    4073    4078    4074    4075    4076    4075    4072    4249
    4075    4076    4079    4075    4076    4253    4076    4079    4078
    4076    4079    4080    4076    4253    4258    4076    4253    4254
    4077    4078    4079    4077    4082    4081    4077    4082    4083
    4078    4077    4082    4078    4079    4080    4079    4076    4253
    4079    4080    4257    4079    4080    4083    4080    4083    4082
    4080    4083    4084    4080    4257    4262    4080    4257    4258
    4081    4082    4083    4081    4086    4085    4081    4086    4087
    4082    4081    4086    4082    4083    4084    4083    4080    4257
    4083    4084    4261    4083    4084    4087    4084    4087    4086
    4084    4087    4088    4084    4261    4262    4084    4261    4266
    4085    4086    4087    4085    4090    4089    4085    4090    4091
    4086    4085    4090    4086    4087    4088    4087    4084    4261
    4087    4088    4265    4087    4088    4091    4088    4091    4090
    4088    4091    4092    4088    4265    4266    4088    4265    4270
    4089    4090    4091    4089    4094    4093    4089    4094    4095
    4090    4089    4094    4090    4091    4092    4091    4088    4265
    4091    4092    4269    4091    4092    4095    4092    4095    4094
    4092    4095    4096    4092    4269    4274    4092    4269    4270
    4093    4094    4095    4093    4098    4097    4093    4098    4099
    4094    4093    4098    4094    4095    4096    4095    4092    4269
    4095    4096    4273    4095    4096    4099    4096    4099    4098
    4096    4099    4100    4096    4273    4278    4096    4273    4274
    4097    4098    4099    4097    4102    4101    4097    4102    4103
    4098    4097    4102    4098    4099    4100    4099    4096    4273
    4099    4100    4277    4099    4100    4103    4100    4103    4102
    4100    4103    4104    4100    4277    4282    4100    4277    4278
    4101    4102    4103    4101    4106    4105    4101    4106    4107
    4102    4101    4106    4102    4103    4104    4103    4100    4277
    4103    4104    4281    4103    4104    4107    4104    4107    4106
    4104    4107    4108    4104    4281    4282    4104    4281    4286
    4105    4106    4107    4105    4110    4109    4105    4110    4111
    4106    4105    4110    4106    4107    4108    4107    4104    4281
    4107    4108    4285    4107    4108    4111    4108    4111    4110
    4108    4111    4112    4108    4285    4286    4108    4285    4290
    4109    4110    4111    4109    4114    4113    4109    4114    4115
    4110    4109    4114    4110    4111    4112    4111    4108    4285
    4111    4112    4115    4111    4112    4289    4112    4115    4114
    4112    4115    4116    4112    4289    4290    4112    4289    4294
    4113    4114    4115    4113    4118    4117    4113    4118    4119
    4114    4113    4118    4114    4115    4116    4115    4112    4289
    4115    4116    4119    4115    4116    4293    4116    4119    4118
    4116    4119    4120    4116    4293    4294    4116    4293    4298
    4117    4118    4119    4117    4122    4121    4117    4122    4123
    4118    4117    4122    4118    4119    4120    4119    4116    4293
    4119    4120    4297    4119    4120    4123    4120    4123    4122
    4120    4123    4124    4120    4297    4298    4120    4297    4302
    4121    4122    4123    4121    4126    4125    4121    4126    4127
    4122    4121    4126    4122    4123    4124    4123    4120    4297
    4123    4124    4301    4123    4124    4127    4124    4127    4126
    4124    4127    4128    4124    4301    4302    4124    4301    4306
    4125    4126    4127    4125    4130    4129    4125    4130    4131
    4126    4125    4130    4126    4127    4128    4127    4124    4301
    4127    4128    4305    4127    4128    4131    4128    4131    4130
    4128    4131    4132    4128    4305    4306    4128    4305    4310
    4129    4130    4131    4129    4134    4133    4129    4134    4135
    4130    4129    4134    4130    4131    4132    4131    4128    4305
    4131    4132    4135    4131    4132    4309    4132    4135    4134
    4132    4135    4136    4132    4309    4314    4132    4309    4310
    4133    4134    4135    4133    4138    4137    4133    4138    4139
    4134    4133    4138    4134    4135    4136    4135    4132    4309
    4135    4136    4139    4135    4136    4313    4136    4139    4138
    4136    4139    4140    4136    4313    4318    4136    4313    4314
    4137    4138    4139    4138    4139    4140    4139    4136    4313
    4139    4140    4317    4140    4317    4318    4141    4142    4143
    4141    4146    4145    4141    4146    4147    4142    4141    4146
    4142    4143    4144    4143    4144    4321    4143    4144    4147
    4144    4147    4146    4144    4147    4148    4144    4321    4322
    4144    4321    4326    4145    4146    4147    4145    4150    4149
    4145    4150    4151    4146    4145    4150    4146    4147    4148
    4147    4144    4321    4147    4148    4325    4147    4148    4151
    4148    4151    4150    4148    4151    4152    4148    4325    4326
    4148    4325    4330    4149    4150    4151    4149    4154    4153
    4149    4154    4155    4150    4149    4154    4150    4151    4152
    4151    4148    4325    4151    4152    4155    4151    4152    4329
    4152    4155    4154    4152    4155    4156    4152    4329    4334
    4152    4329    4330    4153    4154    4155    4153    4158    4157
    4153    4158    4159    4154    4153    4158    4154    4155    4156
    4155    4152    4329    4155    4156    4159    4155    4156    4333
    4156    4159    4158    4156    4159    4160    4156    4333    4338
    4156    4333    4334    4157    4158    4159    4157    4162    4161
    4157    4162    4163    4158    4157    4162    4158    4159    4160
    4159    4156    4333    4159    4160    4337    4159    4160    4163
    4160    4163    4162    4160    4163    4164    4160    4337    4342
    4160    4337    4338    4161    4162    4163    4161    4166    4165
    4161    4166    4167    4162    4161    4166    4162    4163    4164
    4163    4160    4337    4163    4164    4341    4163    4164    4167
    4164    4167    4166    4164    4167    4168    4164    4341    4342
    4164    4341    4346    4165    4166    4167    4165    4170    4169
    4165    4170    4171    4166    4165    4170    4166    4167    4168
    4167    4164    4341    4167    4168    4345    4167    4168    4171
    4168    4171    4170    4168    4171    4172    4168    4345    4346
    4168    4345    4350    4169    4170    4171    4169    4174    4173
    4169    4174    4175    4170    4169    4174    4170    4171    4172
    4171    4168    4345    4171    4172    4349    4171    4172    4175
    4172    4175    4174    4172    4175    4176    4172    4349    4354
    4172    4349    4350    4173    4174    4175    4173    4178    4177
    4173    4178    4179    4174    4173    4178    4174    4175    4176
    4175    4172    4349    4175    4176    4353    4175    4176    4179
    4176    4179    4178    4176    4179    4180    4176    4353    4358
    4176    4353    4354    4177    4178    4179    4177    4182    4181
    4177    4182    4183    4178    4177    4182    4178    4179    4180
    4179    4176    4353    4179    4180    4357    4179    4180    4183
    4180    4183    4182    4180    4183    4184    4180    4357    4362
    4180    4357    4358    4181    4182    4183    4181    4186    4185
    4181    4186    4187    4182    4181    4186    4182    4183    4184
    4183    4180    4357    4183    4184    4361    4183    4184    4187
    4184    4187    4186    4184    4187    4188    4184    4361    4362
    4184    4361    4366    4185    4186    4187    4185    4190    4189
    4185    4190    4191    4186    4185    4190    4186    4187    4188
    4187    4184    4361    4187    4188    4365    4187    4188    4191
    4188    4191    4190    4188    4191    4192    4188    4365    4366
    4188    4365    4370    4189    4190    4191    4189    4194    4193
    4189    4194    4195    4190    4189    4194    4190    4191    4192
    4191    4188    4365    4191    4192    4195    4191    4192    4369
    4192    4195    4194    4192    4195    4196    4192    4369    4374
    4192    4369    4370    4193    4194    4195    4193    4198    4197
    4193    4198    4199    4194    4193    4198    4194    4195    4196
    4195    4192    4369    4195    4196    4199    4195    4196    4373
    4196    4199    4198    4196    4199    4200    4196    4373    4378
    4196    4373    4374    4197    4198    4199    4197    4202    4201
    4197    4202    4203    4198    4197    4202    4198    4199    4200
    4199    4196    4373    4199    4200    4377    4199    4200    4203
    4200    4203    4202    4200    4203    4204    4200    4377    4382
    4200    4377    4378    4201    4202    4203    4201    4206    4205
    4201    4206    4207    4202    4201    4206    4202    4203    4204
    4203    4200    4377    4203    4204    4381    4203    4204    4207
    4204    4207    4206    4204    4207    4208    4204    4381    4382
    4204    4381    4386    4205    4206    4207    4205    4210    4209
    4205    4210    4211    4206    4205    4210    4206    4207    4208
    4207    4204    4381    4207    4208    4385    4207    4208    4211
    4208    4211    4210    4208    4211    4212    4208    4385    4386
    4208    4385    4390    4209    4210    4211    4209    4214    4213
    4209    4214    4215    4210    4209    4214    4210    4211    4212
    4211    4208    4385    4211    4212    4215    4211    4212    4389
    4212    4215    4214    4212    4215    4216    4212    4389    4394
    4212    4389    4390    4213    4214    4215    4213    4218    4217
    4213    4218    4219    4214    4213    4218    4214    4215    4216
    4215    4212    4389    4215    4216    4219    4215    4216    4393
    4216    4219    4218    4216    4219    4220    4216    4393    4398
    4216    4393    4394    4217    4218    4219    4217    4222    4221
    4217    4222    4223    4218    4217    4222    4218    4219    4220
    4219    4216    4393    4219    4220    4397    4219    4220    4223
    4220    4223    4222    4220    4223    4224    4220    4397    4402
    4220    4397    4398    4221    4222    4223    4221    4226    4225
    4221    4226    4227    4222    4221    4226    4222    4223    4224
    4223    4220    4397    4223    4224    4401    4223    4224    4227
    4224    4227    4226    4224    4227    4228    4224    4401    4402
    4224    4401    4406    4225    4226    4227    4225    4230    4229
    4225    4230    4231    4226    4225    4230    4226    4227    4228
    4227    4224    4401    4227    4228    4405    4227    4228    4231
    4228    4231    4230    4228    4231    4232    4228    4405    4406
    4228    4405    4410    4229    4230    4231    4229    4234    4233
    4229    4234    4235    4230    4229    4234    4230    4231    4232
    4231    4228    4405    4231    4232    4235    4231    4232    4409
    4232    4235    4234    4232    4235    4236    4232    4409    4414
    4232    4409    4410    4233    4234    4235    4233    4238    4237
    4233    4238    4239    4234    4233    4238    4234    4235    4236
    4235    4232    4409    4235    4236    4413    4235    4236    4239
    4236    4239    4238    4236    4239    4240    4236    4413    4418
    4236    4413    4414    4237    4238    4239    4237    4242    4241
    4237    4242    4243    4238    4237    4242    4238    4239    4240
    4239    4236    4413    4239    4240    4417    4239    4240    4243
    4240    4243    4242    4240    4243    4244    4240    4417    4422
    4240    4417    4418    4241    4242    4243    4241    4246    4245
    4241    4246    4247    4242    4241    4246    4242    4243    4244
    4243    4240    4417    4243    4244    4421    4243    4244    4247
    4244    4247    4246    4244    4247    4248    4244    4421    4422
    4244    4421    4426    4245    4246    4247    4245    4250    4249
    4245    4250    4251    4246    4245    4250    4246    4247    4248
    4247    4244    4421    4247    4248    4425    4247    4248    4251
    4248    4251    4250    4248    4251    4252    4248    4425    4426
    4248    4425    4430    4249    4250    4251    4249    4254    4253
    4249    4254    4255    4250    4249    4254    4250    4251    4252
    4251    4248    4425    4251    4252    4429    4251    4252    4255
    4252    4255    4254    4252    4255    4256    4252    4429    4434
    4252    4429    4430    4253    4254    4255    4253    4258    4257
    4253    4258    4259    4254    4253    4258    4254    4255    4256
    4255    4252    4429    4255    4256    4259    4255    4256    4433
    4256    4259    4258    4256    4259    4260    4256    4433    4438
    4256    4433    4434    4257    4258    4259    4257    4262    4261
    4257    4262    4263    4258    4257    4262    4258    4259    4260
    4259    4256    4433    4259    4260    4437    4259    4260    4263
    4260    4263    4262    4260    4263    4264    4260    4437    4442
    4260    4437    4438    4261    4262    4263    4261    4266    4265
    4261    4266    4267    4262    4261    4266    4262    4263    4264
    4263    4260    4437    4263    4264    4441    4263    4264    4267
    4264    4267    4266    4264    4267    4268    4264    4441    4442
    4264    4441    4446    4265    4266    4267    4265    4270    4269
    4265    4270    4271    4266    4265    4270    4266    4267    4268
    4267    4264    4441    4267    4268    4445    4267    4268    4271
    4268    4271    4270    4268    4271    4272    4268    4445    4446
    4268    4445    4450    4269    4270    4271    4269    4274    4273
    4269    4274    4275    4270    4269    4274    4270    4271    4272
    4271    4268    4445    4271    4272    4275    4271    4272    4449
    4272    4275    4274    4272    4275    4276    4272    4449    4454
    4272    4449    4450    4273    4274    4275    4273    4278    4277
    4273    4278    4279    4274    4273    4278    4274    4275    4276
    4275    4272    4449    4275    4276    4279    4275    4276    4453
    4276    4279    4278    4276    4279    4280    4276    4453    4454
    4276    4453    4458    4277    4278    4279    4277    4282    4281
    4277    4282    4283    4278    4277    4282    4278    4279    4280
    4279    4276    4453    4279    4280    4457    4279    4280    4283
    4280    4283    4282    4280    4283    4284    4280    4457    4462
    4280    4457    4458    4281    4282    4283    4281    4286    4285
    4281    4286    4287    4282    4281    4286    4282    4283    4284
    4283    4280    4457    4283    4284    4461    4283    4284    4287
    4284    4287    4286    4284    4287    4288    4284    4461    4462
    4284    4461    4466    4285    4286    4287    4285    4290    4289
    4285    4290    4291    4286    4285    4290    4286    4287    4288
    4287    4284    4461    4287    4288    4465    4287    4288    4291
    4288    4291    4290    4288    4291    4292    4288    4465    4466
    4288    4465    4470    4289    4290    4291    4289    4294    4293
    4289    4294    4295    4290    4289    4294    4290    4291    4292
    4291    4288    4465    4291    4292    4295    4291    4292    4469
    4292    4295    4294    4292    4295    4296    4292    4469    4474
    4292    4469    4470    4293    4294    4295    4293    4298    4297
    4293    4298    4299    4294    4293    4298    4294    4295    4296
    4295    4292    4469    4295    4296    4299    4295    4296    4473
    4296    4299    4298    4296    4299    4300    4296    4473    4478
    4296    4473    4474    4297    4298    4299    4297    4302    4301
    4297    4302    4303    4298    4297    4302    4298    4299    4300
    4299    4296    4473    4299    4300    4477    4299    4300    4303
    4300    4303    4302    4300    4303    4304    4300    4477    4482
    4300    4477    4478    4301    4302    4303    4301    4306    4305
    4301    4306    4307    4302    4301    4306    4302    4303    4304
    4303    4300    4477    4303    4304    4481    4303    4304    4307
    4304    4307    4306    4304    4307    4308    4304    4481    4482
    4304    4481    4486    4305    4306    4307    4305    4310    4309
    4305    4310    4311    4306    4305    4310    4306    4307    4308
    4307    4304    4481    4307    4308    4485    4307    4308    4311
    4308    4311    4310    4308    4311    4312    4308    4485    4486
    4308    4485    4490    4309    4310    4311    4309    4314    4313
    4309    4314    4315    4310    4309    4314    4310    4311    4312
    4311    4308    4485    4311    4312    4489    4311    4312    4315
    4312    4315    4314    4312    4315    4316    4312    4489    4494
    4312    4489    4490    4313    4314    4315    4313    4318    4317
    4313    4318    4319    4314    4313    4318    4314    4315    4316
    4315    4312    4489    4315    4316    4493    4315    4316    4319
    4316    4319    4318    4316    4319    4320    4316    4493    4498
    4316    4493    4494    4317    4318    4319    4318    4319    4320
    4319    4316    4493    4319    4320    4497    4320    4497    4498
    4321    4322    4323    4321    4326    4325    4321    4326    4327
    4322    4321    4326    4322    4323    4324    4323    4324    4327
    4323    4324    4501    4324    4327    4326    4324    4327    4328
    4324    4501    4502    4324    4501    4506    4325    4326    4327
    4325    4330    4329    4325    4330    4331    4326    4325    4330
    4326    4327    4328    4327    4324    4501    4327    4328    4331
    4327    4328    4505    4328    4331    4330    4328    4331    4332
    4328    4505    4506    4328    4505    4510    4329    4330    4331
    4329    4334    4333    4329    4334    4335    4330    4329    4334
    4330    4331    4332    4331    4328    4505    4331    4332    4335
    4331    4332    4509    4332    4335    4334    4332    4335    4336
    4332    4509    4514    4332    4509    4510    4333    4334    4335
    4333    4338    4337    4333    4338    4339    4334    4333    4338
    4334    4335    4336    4335    4332    4509    4335    4336    4339
    4335    4336    4513    4336    4339    4338    4336    4339    4340
    4336    4513    4518    4336    4513    4514    4337    4338    4339
    4337    4342    4341    4337    4342    4343    4338    4337    4342
    4338    4339    4340    4339    4336    4513    4339    4340    4343
    4339    4340    4517    4340    4343    4342    4340    4343    4344
    4340    4517    4522    4340    4517    4518    4341    4342    4343
    4341    4346    4345    4341    4346    4347    4342    4341    4346
    4342    4343    4344    4343    4340    4517    4343    4344    4347
    4343    4344    4521    4344    4347    4346    4344    4347    4348
    4344    4521    4522    4344    4521    4526    4345    4346    4347
    4345    4350    4349    4345    4350    4351    4346    4345    4350
    4346    4347    4348    4347    4344    4521    4347    4348    4351
    4347    4348    4525    4348    4351    4350    4348    4351    4352
    4348    4525    4526    4348    4525    4530    4349    4350    4351
    4349    4354    4353    4349    4354    4355    4350    4349    4354
    4350    4351    4352    4351    4348    4525    4351    4352    4355
    4351    4352    4529    4352    4355    4354    4352    4355    4356
    4352    4529    4534    4352    4529    4530    4353    4354    4355
    4353    4358    4357    4353    4358    4359    4354    4353    4358
    4354    4355    4356    4355    4352    4529    4355    4356    4359
    4355    4356    4533    4356    4359    4358    4356    4359    4360
    4356    4533    4538    4356    4533    4534    4357    4358    4359
    4357    4362    4361    4357    4362    4363    4358    4357    4362
    4358    4359    4360    4359    4356    4533    4359    4360    4363
    4359    4360    4537    4360    4363    4362    4360    4363    4364
    4360    4537    4542    4360    4537    4538    4361    4362    4363
    4361    4366    4365    4361    4366    4367    4362    4361    4366
    4362    4363    4364    4363    4360    4537    4363    4364    4367
    4363    4364    4541    4364    4367    4366    4364    4367    4368
    4364    4541    4542    4364    4541    4546    4365    4366    4367
    4365    4370    4369    4365    4370    4371    4366    4365    4370
    4366    4367    4368    4367    4364    4541    4367    4368    4371
    4367    4368    4545    4368    4371    4370    4368    4371    4372
    4368    4545    4546    4368    4545    4550    4369    4370    4371
    4369    4374    4373    4369    4374    4375    4370    4369    4374
    4370    4371    4372    4371    4368    4545    4371    4372    4375
    4371    4372    4549    4372    4375    4374    4372    4375    4376
    4372    4549    4554    4372    4549    4550    4373    4374    4375
    4373    4378    4377    4373    4378    4379    4374    4373    4378
    4374    4375    4376    4375    4372    4549    4375    4376    4379
    4375    4376    4553    4376    4379    4378    4376    4379    4380
    4376    4553    4558    4376    4553    4554    4377    4378    4379
    4377    4382    4381    4377    4382    4383    4378    4377    4382
    4378    4379    4380    4379    4376    4553    4379    4380    4383
    4379    4380    4557    4380    4383    4382    4380    4383    4384
    4380    4557    4562    4380    4557    4558    4381    4382    4383
    4381    4386    4385    4381    4386    4387    4382    4381    4386
    4382    4383    4384    4383    4380    4557    4383    4384    4387
    4383    4384    4561    4384    4387    4386    4384    4387    4388
    4384    4561    4562    4384    4561    4566    4385    4386    4387
    4385    4390    4389    4385    4390    4391    4386    4385    4390
    4386    4387    4388    4387    4384    4561    4387    4388    4391
    4387    4388    4565    4388    4391    4390    4388    4391    4392
    4388    4565    4566    4388    4565    4570    4389    4390    4391
    4389    4394    4393    4389    4394    4395    4390    4389    4394
    4390    4391    4392    4391    4388    4565    4391    4392    4395
    4391    4392    4569    4392    4395    4394    4392    4395    4396
    4392    4569    4574    4392    4569    4570    4393    4394    4395
    4393    4398    4397    4393    4398    4399    4394    4393    4398
    4394    4395    4396    4395    4392    4569    4395    4396    4399
    4395    4396    4573    4396    4399    4398    4396    4399    4400
    4396    4573    4578    4396    4573    4574    4397    4398    4399
    4397    4402    4401    4397    4402    4403    4398    4397    4402
    4398    4399    4400    4399    4396    4573    4399    4400    4403
    4399    4400    4577    4400    4403    4402    4400    4403    4404
    4400    4577    4582    4400    4577    4578    4401    4402    4403
    4401    4406    4405    4401    4406    4407    4402    4401    4406
    4402    4403    4404    4403    4400    4577    4403    4404    4407
    4403    4404    4581    4404    4407    4406    4404    4407    4408
    4404    4581    4582    4404    4581    4586    4405    4406    4407
    4405    4410    4409    4405    4410    4411    4406    4405    4410
    4406    4407    4408    4407    4404    4581    4407    4408    4411
    4407    4408    4585    4408    4411    4410    4408    4411    4412
    4408    4585    4586    4408    4585    4590    4409    4410    4411
    4409    4414    4413    4409    4414    4415    4410    4409    4414
    4410    4411    4412    4411    4408    4585    4411    4412    4415
    4411    4412    4589    4412    4415    4414    4412    4415    4416
    4412    4589    4594    4412    4589    4590    4413    4414    4415
    4413    4418    4417    4413    4418    4419    4414    4413    4418
    4414    4415    4416    4415    4412    4589    4415    4416    4419
    4415    4416    4593    4416    4419    4418    4416    4419    4420
    4416    4593    4598    4416    4593    4594    4417    4418    4419
    4417    4422    4421    4417    4422    4423    4418    4417    4422
    4418    4419    4420    4419    4416    4593    4419    4420    4423
    4419    4420    4597    4420    4423    4422    4420    4423    4424
    4420    4597    4602    4420    4597    4598    4421    4422    4423
    4421    4426    4425    4421    4426    4427    4422    4421    4426
    4422    4423    4424    4423    4420    4597    4423    4424    4427
    4423    4424    4601    4424    4427    4426    4424    4427    4428
    4424    4601    4602    4424    4601    4606    4425    4426    4427
    4425    4430    4429    4425    4430    4431    4426    4425    4430
    4426    4427    4428    4427    4424    4601    4427    4428    4431
    4427    4428    4605    4428    4431    4430    4428    4431    4432
    4428    4605    4606    4428    4605    4610    4429    4430    4431
    4429    4434    4433    4429    4434    4435    4430    4429    4434
    4430    4431    4432    4431    4428    4605    4431    4432    4435
    4431    4432    4609    4432    4435    4434    4432    4435    4436
    4432    4609    4614    4432    4609    4610    4433    4434    4435
    4433    4438    4437    4433    4438    4439    4434    4433    4438
    4434    4435    4436    4435    4432    4609    4435    4436    4439
    4435    4436    4613    4436    4439    4438    4436    4439    4440
    4436    4613    4618    4436    4613    4614    4437    4438    4439
    4437    4442    4441    4437    4442    4443    4438    4437    4442
    4438    4439    4440    4439    4436    4613    4439    4440    4443
    4439    4440    4617    4440    4443    4442    4440    4443    4444
    4440    4617    4622    4440    4617    4618    4441    4442    4443
    4441    4446    4445    4441    4446    4447    4442    4441    4446
    4442    4443    4444    4443    4440    4617    4443    4444    4447
    4443    4444    4621    4444    4447    4446    4444    4447    4448
    4444    4621    4622    4444    4621    4626    4445    4446    4447
    4445    4450    4449    4445    4450    4451    4446    4445    4450
    4446    4447    4448    4447    4444    4621    4447    4448    4451
    4447    4448    4625    4448    4451    4450    4448    4451    4452
    4448    4625    4626    4448    4625    4630    4449    4450    4451
    4449    4454    4453    4449    4454    4455    4450    4449    4454
    4450    4451    4452    4451    4448    4625    4451    4452    4455
    4451    4452    4629    4452    4455    4454    4452    4455    4456
    4452    4629    4634    4452    4629    4630    4453    4454    4455
    4453    4458    4457    4453    4458    4459    4454    4453    4458
    4454    4455    4456    4455    4452    4629    4455    4456    4459
    4455    4456    4633    4456    4459    4458    4456    4459    4460
    4456    4633    4638    4456    4633    4634    4457    4458    4459
    4457    4462    4461    4457    4462    4463    4458    4457    4462
    4458    4459    4460    4459    4456    4633    4459    4460    4463
    4459    4460    4637    4460    4463    4462    4460    4463    4464
    4460    4637    4642    4460    4637    4638    4461    4462    4463
    4461    4466    4465    4461    4466    4467    4462    4461    4466
    4462    4463    4464    4463    4460    4637    4463    4464    4467
    4463    4464    4641    4464    4467    4466    4464    4467    4468
    4464    4641    4642    4464    4641    4646    4465    4466    4467
    4465    4470    4469    4465    4470    4471    4466    4465    4470
    4466    4467    4468    4467    4464    4641    4467    4468    4471
    4467    4468    4645    4468    4471    4470    4468    4471    4472
    4468    4645    4646    4468    4645    4650    4469    4470    4471
    4469    4474    4473    4469    4474    4475    4470    4469    4474
    4470    4471    4472    4471    4468    4645    4471    4472    4475
    4471    4472    4649    4472    4475    4474    4472    4475    4476
    4472    4649    4654    4472    4649    4650    4473    4474    4475
    4473    4478    4477    4473    4478    4479    4474    4473    4478
    4474    4475    4476    4475    4472    4649    4475    4476    4479
    4475    4476    4653    4476    4479    4478    4476    4479    4480
    4476    4653    4658    4476    4653    4654    4477    4478    4479
    4477    4482    4481    4477    4482    4483    4478    4477    4482
    4478    4479    4480    4479    4476    4653    4479    4480    4483
    4479    4480    4657    4480    4483    4482    4480    4483    4484
    4480    4657    4662    4480    4657    4658    4481    4482    4483
    4481    4486    4485    4481    4486    4487    4482    4481    4486
    4482    4483    4484    4483    4480    4657    4483    4484    4487
    4483    4484    4661    4484    4487    4486    4484    4487    4488
    4484    4661    4662    4484    4661    4666    4485    4486    4487
    4485    4490    4489    4485    4490    4491    4486    4485    4490
    4486    4487    4488    4487    4484    4661    4487    4488    4491
    4487    4488    4665    4488    4491    4490    4488    4491    4492
    4488    4665    4666    4488    4665    4670    4489    4490    4491
    4489    4494    4493    4489    4494    4495    4490    4489    4494
    4490    4491    4492    4491    4488    4665    4491    4492    4495
    4491    4492    4669    4492    4495    4494    4492    4495    4496
    4492    4669    4674    4492    4669    4670    4493    4494    4495
    4493    4498    4497    4493    4498    4499    4494    4493    4498
    4494    4495    4496    4495    4492    4669    4495    4496    4499
    4495    4496    4673    4496    4499    4498    4496    4499    4500
    4496    4673    4674    4496    4673    4678    4497    4498    4499
    4498    4499    4500    4499    4496    4673    4499    4500    4677
    4500    4677    4678    4501    4502    4503    4501    4506    4505
    4501    4506    4507    4502    4501    4506    4502    4503    4504
    4503    4504    4507    4504    4507    4506    4504    4507    4508
    4505    4506    4507    4505    4510    4509    4505    4510    4511
    4506    4505    4510    4506    4507    4508    4507    4508    4511
    4508    4511    4510    4508    4511    4512    4509    4510    4511
    4509    4514    4513    4509    4514    4515    4510    4509    4514
    4510    4511    4512    4511    4512    4515    4512    4515    4514
    4512    4515    4516    4513    4514    4515    4513    4518    4517
    4513    4518    4519    4514    4513    4518    4514    4515    4516
    4515    4516    4519    4516    4519    4518    4516    4519    4520
    4517    4518    4519    4517    4522    4521    4517    4522    4523
    4518    4517    4522    4518    4519    4520    4519    4520    4523
    4520    4523    4522    4520    4523    4524    4521    4522    4523
    4521    4526    4525    4521    4526    4527    4522    4521    4526
    4522    4523    4524    4523    4524    4527    4524    4527    4526
    4524    4527    4528    4525    4526    4527    4525    4530    4529
    4525    4530    4531    4526    4525    4530    4526    4527    4528
    4527    4528    4531    4528    4531    4530    4528    4531    4532
    4529    4530    4531    4529    4534    4533    4529    4534    4535
    4530    4529    4534    4530    4531    4532    4531    4532    4535
    4532    4535    4534    4532    4535    4536    4533    4534    4535
    4533    4538    4537    4533    4538    4539    4534    4533    4538
    4534    4535    4536    4535    4536    4539    4536    4539    4538
    4536    4539    4540    4537    4538    4539    4537    4542    4541
    4537    4542    4543    4538    4537    4542    4538    4539    4540
    4539    4540    4543    4540    4543    4542    4540    4543    4544
    4541    4542    4543    4541    4546    4545    4541    4546    4547
    4542    4541    4546    4542    4543    4544    4543    4544    4547
    4544    4547    4546    4544    4547    4548    4545    4546    4547
    4545    4550    4549    4545    4550    4551    4546    4545    4550
    4546    4547    4548    4547    4548    4551    4548    4551    4550
    4548    4551    4552    4549    4550    4551    4549    4554    4553
    4549    4554    4555    4550    4549    4554    4550    4551    4552
    4551    4552    4555    4552    4555    4554    4552    4555    4556
    4553    4554    4555    4553    4558    4557    4553    4558    4559
    4554    4553    4558    4554    4555    4556    4555    4556    4559
    4556    4559    4558    4556    4559    4560    4557    4558    4559
    4557    4562    4561    4557    4562    4563    4558    4557    4562
    4558    4559    4560    4559    4560    4563    4560    4563    4562
    4560    4563    4564    4561    4562    4563    4561    4566    4565
    4561    4566    4567    4562    4561    4566    4562    4563    4564
    4563    4564    4567    4564    4567    4566    4564    4567    4568
    4565    4566    4567    4565    4570    4569    4565    4570    4571
    4566    4565    4570    4566    4567    4568    4567    4568    4571
    4568    4571    4570    4568    4571    4572    4569    4570    4571
    4569    4574    4573    4569    4574    4575    4570    4569    4574
    4570    4571    4572    4571    4572    4575    4572    4575    4574
    4572    4575    4576    4573    4574    4575    4573    4578    4577
    4573    4578    4579    4574    4573    4578    4574    4575    4576
    4575    4576    4579    4576    4579    4578    4576    4579    4580
    4577    4578    4579    4577    4582    4581    4577    4582    4583
    4578    4577    4582    4578    4579    4580    4579    4580    4583
    4580    4583    4582    4580    4583    4584    4581    4582    4583
    4581    4586    4585    4581    4586    4587    4582    4581    4586
    4582    4583    4584    4583    4584    4587    4584    4587    4586
    4584    4587    4588    4585    4586    4587    4585    4590    4589
    4585    4590    4591    4586    4585    4590    4586    4587    4588
    4587    4588    4591    4588    4591    4590    4588    4591    4592
    4589    4590    4591    4589    4594    4593    4589    4594    4595
    4590    4589    4594    4590    4591    4592    4591    4592    4595
    4592    4595    4594    4592    4595    4596    4593    4594    4595
    4593    4598    4597    4593    4598    4599    4594    4593    4598
    4594    4595    4596    4595    4596    4599    4596    4599    4598
    4596    4599    4600    4597    4598    4599    4597    4602    4601
    4597    4602    4603    4598    4597    4602    4598    4599    4600
    4599    4600    4603    4600    4603    4602    4600    4603    4604
    4601    4602    4603    4601    4606    4605    4601    4606    4607
    4602    4601    4606    4602    4603    4604    4603    4604    4607
    4604    4607    4606    4604    4607    4608    4605    4606    4607
    4605    4610    4609    4605    4610    4611    4606    4605    4610
    4606    4607    4608    4607    4608    4611    4608    4611    4610
    4608    4611    4612    4609    4610    4611    4609    4614    4613
    4609    4614    4615    4610    4609    4614    4610    4611    4612
    4611    4612    4615    4612    4615    4614    4612    4615    4616
    4613    4614    4615    4613    4618    4617    4613    4618    4619
    4614    4613    4618    4614    4615    4616    4615    4616    4619
    4616    4619    4618    4616    4619    4620    4617    4618    4619
    4617    4622    4621    4617    4622    4623    4618    4617    4622
    4618    4619    4620    4619    4620    4623    4620    4623    4622
    4620    4623    4624    4621    4622    4623    4621    4626    4625
    4621    4626    4627    4622    4621    4626    4622    4623    4624
    4623    4624    4627    4624    4627    4626    4624    4627    4628
    4625    4626    4627    4625    4630    4629    4625    4630    4631
    4626    4625    4630    4626    4627    4628    4627    4628    4631
    4628    4631    4630    4628    4631    4632    4629    4630    4631
    4629    4634    4633    4629    4634    4635    4630    4629    4634
    4630    4631    4632    4631    4632    4635    4632    4635    4634
    4632    4635    4636    4633    4634    4635    4633    4638    4637
    4633    4638    4639    4634    4633    4638    4634    4635    4636
    4635    4636    4639    4636    4639    4638    4636    4639    4640
    4637    4638    4639    4637    4642    4641    4637    4642    4643
    4638    4637    4642    4638    4639    4640    4639    4640    4643
    4640    4643    4642    4640    4643    4644    4641    4642    4643
    4641    4646    4645    4641    4646    4647    4642    4641    4646
    4642    4643    4644    4643    4644    4647    4644    4647    4646
    4644    4647    4648    4645    4646    4647    4645    4650    4649
    4645    4650    4651    4646    4645    4650    4646    4647    4648
    4647    4648    4651    4648    4651    4650    4648    4651    4652
    4649    4650    4651    4649    4654    4653    4649    4654    4655
    4650    4649    4654    4650    4651    4652    4651    4652    4655
    4652    4655    4654    4652    4655    4656    4653    4654    4655
    4653    4658    4657    4653    4658    4659    4654    4653    4658
    4654    4655    4656    4655    4656    4659    4656    4659    4658
    4656    4659    4660    4657    4658    4659    4657    4662    4661
    4657    4662    4663    4658    4657    4662    4658    4659    4660
    4659    4660    4663    4660    4663    4662    4660    4663    4664
    4661    4662    4663    4661    4666    4665    4661    4666    4667
    4662    4661    4666    4662    4663    4664    4663    4664    4667
    4664    4667    4666    4664    4667    4668    4665    4666    4667
    4665    4670    4669    4665    4670    4671    4666    4665    4670
    4666    4667    4668    4667    4668    4671    4668    4671    4670
    4668    4671    4672    4669    4670    4671    4669    4674    4673
    4669    4674    4675    4670    4669    4674    4670    4671    4672
    4671    4672    4675    4672    4675    4674    4672    4675    4676
    4673    4674    4675    4673    4678    4677    4673    4678    4679
    4674    4673    4678    4674    4675    4676    4675    4676    4679
    4676    4679    4678    4676    4679    4680    4677    4678    4679
    4678    4679    4680    4682    4681    4683    4685    4684    4686
    4688    4687    4689    4691    4690    4692    4694    4693    4695
    4697    4696    4698    4700    4699    4701    4703    4702    4704
    4706    4705    4707    4709    4708    4710    4712    4711    4713
    4715    4714    4716    4718    4717    4719    4721    4720    4722
    4724    4723    4725    4727    4726    4728    4730    4729    4731
    4733    4732    4734    4736    4735    4737    4739    4738    4740
    4742    4741    4743    4745    4744    4746    4748    4747    4749
    4751    4750    4752    4754    4753    4755    4757    4756    4758
    4760    4759    4761    4763    4762    4764    4766    4765    4767
    4769    4768    4770    4772    4771    4773    4775    4774    4776
    4778    4777    4779    4781    4780    4782    4784    4783    4785
    4787    4786    4788    4790    4789    4791    4793    4792    4794
    4796    4795    4797    4799    4798    4800    4802    4801    4803
    4805    4804    4806    4808    4807    4809    4811    4810    4812
    4814    4813    4815    4817    4816    4818    4820    4819    4821
    4823    4822    4824    4826    4825    4827    4829    4828    4830
    4832    4831    4833    4835    4834    4836    4838    4837    4839
    4841    4840    4842    4844    4843    4845    4847    4846    4848
    4850    4849    4851    4853    4852    4854    4856    4855    4857
    4859    4858    4860    4862    4861    4863    4865    4864    4866
    4868    4867    4869    4871    4870    4872    4874    4873    4875
    4877    4876    4878    4880    4879    4881    4883    4882    4884
    4886    4885    4887    4889    4888    4890    4892    4891    4893
    4895    4894    4896    4898    4897    4899    4901    4900    4902
    4904    4903    4905    4907    4906    4908    4910    4909    4911
    4913    4912    4914    4916    4915    4917    4919    4918    4920
    4922    4921    4923    4925    4924    4926    4928    4927    4929
    4931    4930    4932    4934    4933    4935    4937    4936    4938
    4940    4939    4941    4943    4942    4944    4946    4945    4947
    4949    4948    4950    4952    4951    4953    4955    4954    4956
    4958    4957    4959    4961    4960    4962    4964    4963    4965
    4967    4966    4968    4970    4969    4971    4973    4972    4974
    4976    4975    4977    4979    4978    4980    4982    4981    4983
    4985    4984    4986    4988    4987    4989    4991    4990    4992
    4994    4993    4995    4997    4996    4998    5000    4999    5001
    5003    5002    5004    5006    5005    5007    5009    5008    5010
    5012    5011    5013    5015    5014    5016    5018    5017    5019
    5021    5020    5022    5024    5023    5025    5027    5026    5028
    5030    5029    5031    5033    5032    5034    5036    5035    5037
    5039    5038    5040    5042    5041    5043    5045    5044    5046
    5048    5047    5049    5051    5050    5052    5054    5053    5055
    5057    5056    5058    5060    5059    5061    5063    5062    5064
    5066    5065    5067    5069    5068    5070    5072    5071    5073
    5075    5074    5076    5078    5077    5079    5081    5080    5082
    5084    5083    5085    5087    5086    5088    5090    5089    5091
    5093    5092    5094    5096    5095    5097    5099    5098    5100
    5102    5101    5103    5105    5104    5106    5108    5107    5109
    5111    5110    5112    5114    5113    5115    5117    5116    5118
    5120    5119    5121    5123    5122    5124    5126    5125    5127
    5129    5128    5130    5132    5131    5133    5135    5134    5136
    5138    5137    5139    5141    5140    5142    5144    5143    5145
    5147    5146    5148    5150    5149    5151    5153    5152    5154
    5156    5155    5157    5159    5158    5160    5162    5161    5163
    5165    5164    5166    5168    5167    5169    5171    5170    5172
    5174    5173    5175    5177    5176    5178    5180    5179    5181
    5183    5182    5184    5186    5185    5187    5189    5188    5190
    5192    5191    5193    5195    5194    5196    5198    5197    5199
    5201    5200    5202    5204    5203    5205    5207    5206    5208
    5210    5209    5211    5213    5212    5214    5216    5215    5217
    5219    5218    5220    5222    5221    5223    5225    5224    5226
    5228    5227    5229    5231    5230    5232    5234    5233    5235
    5237    5236    5238    5240    5239    5241    5243    5242    5244
    5246    5245    5247    5249    5248    5250    5252    5251    5253
    5255    5254    5256    5258    5257    5259    5261    5260    5262
    5264    5263    5265    5267    5266    5268    5270    5269    5271
    5273    5272    5274    5276    5275    5277    5279    5278    5280
    5282    5281    5283    5285    5284    5286    5288    5287    5289
    5291    5290    5292    5294    5293    5295    5297    5296    5298
    5300    5299    5301    5303    5302    5304    5306    5305    5307
    5309    5308    5310    5312    5311    5313    5315    5314    5316
    5318    5317    5319    5321    5320    5322    5324    5323    5325
    5327    5326    5328    5330    5329    5331    5333    5332    5334
    5336    5335    5337    5339    5338    5340    5342    5341    5343
    5345    5344    5346    5348    5347    5349    5351    5350    5352
    5354    5353    5355    5357    5356    5358    5360    5359    5361
    5363    5362    5364    5366    5365    5367    5369    5368    5370
    5372    5371    5373    5375    5374    5376    5378    5377    5379
    5381    5380    5382    5384    5383    5385    5387    5386    5388
    5390    5389    5391    5393    5392    5394    5396    5395    5397
    5399    5398    5400    5402    5401    5403    5405    5404    5406
    5408    5407    5409    5411    5410    5412    5414    5413    5415
    5417    5416    5418    5420    5419    5421    5423    5422    5424
    5426    5425    5427    5429    5428    5430    5432    5431    5433
    5435    5434    5436    5438    5437    5439    5441    5440    5442
    5444    5443    5445    5447    5446    5448    5450    5449    5451
    5453    5452    5454    5456    5455    5457    5459    5458    5460
    5462    5461    5463    5465    5464    5466    5468    5467    5469
    5471    5470    5472    5474    5473    5475    5477    5476    5478
    5480    5479    5481    5483    5482    5484    5486    5485    5487
    5489    5488    5490    5492    5491    5493    5495    5494    5496
    5498    5497    5499    5501    5500    5502    5504    5503    5505
    5507    5506    5508    5510    5509    5511    5513    5512    5514
    5516    5515    5517    5519    5518    5520    5522    5521    5523
    5525    5524    5526    5528    5527    5529    5531    5530    5532
    5534    5533    5535    5537    5536    5538    5540    5539    5541
    5543    5542    5544    5546    5545    5547    5549    5548    5550
    5552    5551    5553    5555    5554    5556    5558    5557    5559
    5561    5560    5562    5564    5563    5565    5567    5566    5568
    5570    5569    5571    5573    5572    5574    5576    5575    5577
    5579    5578    5580    5582    5581    5583    5585    5584    5586
    5588    5587    5589    5591    5590    5592    5594    5593    5595
    5597    5596    5598    5600    5599    5601    5603    5602    5604
    5606    5605    5607    5609    5608    5610    5612    5611    5613
    5615    5614    5616    5618    5617    5619    5621    5620    5622
    5624    5623    5625    5627    5626    5628    5630    5629    5631
    5633    5632    5634    5636    5635    5637    5639    5638    5640
    5642    5641    5643    5645    5644    5646    5648    5647    5649
    5651    5650    5652    5654    5653    5655    5657    5656    5658
    5660    5659    5661    5663    5662    5664    5666    5665    5667
    5669    5668    5670    5672    5671    5673    5675    5674    5676
    5678    5677    5679    5681    5680    5682    5684    5683    5685
    5687    5686    5688    5690    5689    5691    5693    5692    5694
    5696    5695    5697    5699    5698    5700    5702    5701    5703
    5705    5704    5706    5708    5707    5709    5711    5710    5712
    5714    5713    5715    5717    5716    5718    5720    5719    5721
    5723    5722    5724    5726    5725    5727    5729    5728    5730
    5732    5731    5733    5735    5734    5736    5738    5737    5739
    5741    5740    5742    5744    5743    5745    5747    5746    5748
    5750    5749    5751    5753    5752    5754    5756    5755    5757
    5759    5758    5760    5762    5761    5763    5765    5764    5766
    5768    5767    5769    5771    5770    5772    5774    5773    5775
    5777    5776    5778    5780    5779    5781    5783    5782    5784
    5786    5785    5787    5789    5788    5790    5792    5791    5793
    5795    5794    5796    5798    5797    5799    5801    5800    5802
    5804    5803    5805    5807    5806    5808    5810    5809    5811
    5813    5812    5814    5816    5815    5817    5819    5818    5820
    5822    5821    5823    5825    5824    5826    5828    5827    5829
    5831    5830    5832    5834    5833    5835    5837    5836    5838
    5840    5839    5841    5843    5842    5844    5846    5845    5847
    5849    5848    5850    5852    5851    5853    5855    5854    5856
    5858    5857    5859    5861    5860    5862    5864    5863    5865
    5867    5866    5868    5870    5869    5871    5873    5872    5874
    5876    5875    5877    5879    5878    5880    5882    5881    5883
    5885    5884    5886    5888    5887    5889    5891    5890    5892
    5894    5893    5895    5897    5896    5898    5900    5899    5901
    5903    5902    5904    5906    5905    5907    5909    5908    5910
    5912    5911    5913    5915    5914    5916    5918    5917    5919
    5921    5920    5922    5924    5923    5925    5927    5926    5928
    5930    5929    5931    5933    5932    5934    5936    5935    5937
    5939    5938    5940    5942    5941    5943    5945    5944    5946
    5948    5947    5949    5951    5950    5952    5954    5953    5955
    5957    5956    5958    5960    5959    5961    5963    5962    5964
    5966    5965    5967    5969    5968    5970    5972    5971    5973
    5975    5974    5976    5978    5977    5979    5981    5980    5982
    5984    5983    5985    5987    5986    5988    5990    5989    5991
    5993    5992    5994    5996    5995    5997    5999    5998    6000
    6002    6001    6003    6005    6004    6006    6008    6007    6009
    6011    6010    6012    6014    6013    6015    6017    6016    6018
    6020    6019    6021    6023    6022    6024    6026    6025    6027
    6029    6028    6030    6032    6031    6033    6035    6034    6036
    6038    6037    6039    6041    6040    6042    6044    6043    6045
    6047    6046    6048    6050    6049    6051    6053    6052    6054
    6056    6055    6057    6059    6058    6060    6062    6061    6063
    6065    6064    6066    6068    6067    6069    6071    6070    6072
    6074    6073    6075    6077    6076    6078    6080    6079    6081
    6083    6082    6084    6086    6085    6087    6089    6088    6090
    6092    6091    6093    6095    6094    6096    6098    6097    6099
    6101    6100    6102    6104    6103    6105    6107    6106    6108
    6110    6109    6111    6113    6112    6114    6116    6115    6117
    6119    6118    6120    6122    6121    6123    6125    6124    6126
    6128    6127    6129    6131    6130    6132    6134    6133    6135
    6137    6136    6138    6140    6139    6141    6143    6142    6144
    6146    6145    6147    6149    6148    6150    6152    6151    6153
    6155    6154    6156    6158    6157    6159    6161    6160    6162
    6164    6163    6165    6167    6166    6168    6170    6169    6171
    6173    6172    6174    6176    6175    6177    6179    6178    6180
    6182    6181    6183    6185    6184    6186    6188    6187    6189
    6191    6190    6192    6194    6193    6195    6197    6196    6198
    6200    6199    6201    6203    6202    6204    6206    6205    6207
    6209    6208    6210    6212    6211    6213    6215    6214    6216
    6218    6217    6219    6221    6220    6222    6224    6223    6225
    6227    6226    6228    6230    6229    6231    6233    6232    6234
    6236    6235    6237    6239    6238    6240    6242    6241    6243
    6245    6244    6246    6248    6247    6249    6251    6250    6252
    6254    6253    6255    6257    6256    6258    6260    6259    6261
    6263    6262    6264    6266    6265    6267    6269    6268    6270
    6272    6271    6273    6275    6274    6276    6278    6277    6279
    6281    6280    6282    6284    6283    6285    6287    6286    6288
    6290    6289    6291    6293    6292    6294    6296    6295    6297
    6299    6298    6300    6302    6301    6303    6305    6304    6306
    6308    6307    6309    6311    6310    6312    6314    6313    6315
    6317    6316    6318    6320    6319    6321    6323    6322    6324
    6326    6325    6327    6329    6328    6330    6332    6331    6333
    6335    6334    6336    6338    6337    6339    6341    6340    6342
    6344    6343    6345    6347    6346    6348    6350    6349    6351
    6353    6352    6354    6356    6355    6357    6359    6358    6360
    6362    6361    6363    6365    6364    6366    6368    6367    6369
    6371    6370    6372    6374    6373    6375    6377    6376    6378
    6380    6379    6381    6383    6382    6384    6386    6385    6387
    6389    6388    6390    6392    6391    6393    6395    6394    6396
    6398    6397    6399    6401    6400    6402    6404    6403    6405
    6407    6406    6408    6410    6409    6411    6413    6412    6414
    6416    6415    6417    6419    6418    6420    6422    6421    6423
    6425    6424    6426    6428    6427    6429    6431    6430    6432
    6434    6433    6435    6437    6436    6438    6440    6439    6441
    6443    6442    6444    6446    6445    6447    6449    6448    6450
    6452    6451    6453    6455    6454    6456    6458    6457    6459
    6461    6460    6462    6464    6463    6465    6467    6466    6468
    6470    6469    6471    6473    6472    6474    6476    6475    6477
    6479    6478    6480    6482    6481    6483    6485    6484    6486
    6488    6487    6489    6491    6490    6492    6494    6493    6495
    6497    6496    6498    6500    6499    6501    6503    6502    6504
    6506    6505    6507    6509    6508    6510    6512    6511    6513
    6515    6514    6516    6518    6517    6519    6521    6520    6522
    6524    6523    6525    6527    6526    6528    6530    6529    6531
    6533    6532    6534    6536    6535    6537    6539    6538    6540
    6542    6541    6543    6545    6544    6546    6548    6547    6549
    6551    6550    6552    6554    6553    6555    6557    6556    6558
    6560    6559    6561    6563    6562    6564    6566    6565    6567
    6569    6568    6570    6572    6571    6573    6575    6574    6576
    6578    6577    6579    6581    6580    6582    6584    6583    6585
    6587    6586    6588    6590    6589    6591    6593    6592    6594
    6596    6595    6597    6599    6598    6600    6602    6601    6603
    6605    6604    6606    6608    6607    6609    6611    6610    6612
    6614    6613    6615    6617    6616    6618    6620    6619    6621
    6623    6622    6624    6626    6625    6627    6629    6628    6630
    6632    6631    6633    6635    6634    6636    6638    6637    6639
    6641    6640    6642    6644    6643    6645    6647    6646    6648
    6650    6649    6651    6653    6652    6654    6656    6655    6657
    6659    6658    6660    6662    6661    6663    6665    6664    6666
    6668    6667    6669    6671    6670    6672    6674    6673    6675
    6677    6676    6678    6680    6679    6681    6683    6682    6684
    6686    6685    6687    6689    6688    6690    6692    6691    6693
    6695    6694    6696    6698    6697    6699    6701    6700    6702
    6704    6703    6705    6707    6706    6708    6710    6709    6711
    6713    6712    6714    6716    6715    6717    6719    6718    6720
    6722    6721    6723    6725    6724    6726    6728    6727    6729
    6731    6730    6732    6734    6733    6735    6737    6736    6738
    6740    6739    6741    6743    6742    6744    6746    6745    6747
    6749    6748    6750    6752    6751    6753    6755    6754    6756
    6758    6757    6759    6761    6760    6762    6764    6763    6765
    6767    6766    6768    6770    6769    6771    6773    6772    6774
    6776    6775    6777    6779    6778    6780    6782    6781    6783
    6785    6784    6786    6788    6787    6789    6791    6790    6792
    6794    6793    6795    6797    6796    6798    6800    6799    6801
    6803    6802    6804    6806    6805    6807    6809    6808    6810
    6812    6811    6813    6815    6814    6816    6818    6817    6819
    6821    6820    6822    6824    6823    6825    6827    6826    6828
    6830    6829    6831    6833    6832    6834    6836    6835    6837
    6839    6838    6840    6842    6841    6843    6845    6844    6846
    6848    6847    6849    6851    6850    6852    6854    6853    6855
    6857    6856    6858    6860    6859    6861    6863    6862    6864
    6866    6865    6867    6869    6868    6870    6872    6871    6873
    6875    6874    6876    6878    6877    6879    6881    6880    6882
    6884    6883    6885    6887    6886    6888    6890    6889    6891
    6893    6892    6894    6896    6895    6897    6899    6898    6900
    6902    6901    6903    6905    6904    6906    6908    6907    6909
    6911    6910    6912    6914    6913    6915    6917    6916    6918
    6920    6919    6921    6923    6922    6924    6926    6925    6927
    6929    6928    6930    6932    6931    6933    6935    6934    6936
    6938    6937    6939    6941    6940    6942    6944    6943    6945
    6947    6946    6948    6950    6949    6951    6953    6952    6954
    6956    6955    6957    6959    6958    6960    6962    6961    6963
    6965    6964    6966    6968    6967    6969    6971    6970    6972
    6974    6973    6975    6977    6976    6978    6980    6979    6981
    6983    6982    6984    6986    6985    6987    6989    6988    6990
    6992    6991    6993    6995    6994    6996    6998    6997    6999
    7001    7000    7002    7004    7003    7005    7007    7006    7008
    7010    7009    7011    7013    7012    7014    7016    7015    7017
    7019    7018    7020    7022    7021    7023    7025    7024    7026
    7028    7027    7029    7031    7030    7032    7034    7033    7035
    7037    7036    7038    7040    7039    7041    7043    7042    7044
    7046    7045    7047    7049    7048    7050    7052    7051    7053
    7055    7054    7056    7058    7057    7059    7061    7060    7062
    7064    7063    7065    7067    7066    7068    7070    7069    7071
    7073    7072    7074    7076    7075    7077    7079    7078    7080
    7082    7081    7083    7085    7084    7086    7088    7087    7089
    7091    7090    7092    7094    7093    7095    7097    7096    7098
    7100    7099    7101    7103    7102    7104    7106    7105    7107
    7109    7108    7110    7112    7111    7113    7115    7114    7116
    7118    7117    7119    7121    7120    7122    7124    7123    7125
    7127    7126    7128    7130    7129    7131    7133    7132    7134
    7136    7135    7137    7139    7138    7140    7142    7141    7143
    7145    7144    7146    7148    7147    7149    7151    7150    7152
    7154    7153    7155    7157    7156    7158    7160    7159    7161
    7163    7162    7164    7166    7165    7167    7169    7168    7170
    7172    7171    7173    7175    7174    7176    7178    7177    7179
    7181    7180    7182    7184    7183    7185    7187    7186    7188
    7190    7189    7191    7193    7192    7194    7196    7195    7197
    7199    7198    7200    7202    7201    7203    7205    7204    7206
    7208    7207    7209    7211    7210    7212    7214    7213    7215
    7217    7216    7218    7220    7219    7221    7223    7222    7224
    7226    7225    7227    7229    7228    7230    7232    7231    7233
    7235    7234    7236    7238    7237    7239    7241    7240    7242
    7244    7243    7245    7247    7246    7248    7250    7249    7251
    7253    7252    7254    7256    7255    7257    7259    7258    7260
    7262    7261    7263    7265    7264    7266    7268    7267    7269
    7271    7270    7272    7274    7273    7275    7277    7276    7278
    7280    7279    7281    7283    7282    7284    7286    7285    7287
    7289    7288    7290    7292    7291    7293    7295    7294    7296
    7298    7297    7299    7301    7300    7302    7304    7303    7305
    7307    7306    7308    7310    7309    7311    7313    7312    7314
    7316    7315    7317    7319    7318    7320    7322    7321    7323
    7325    7324    7326    7328    7327    7329    7331    7330    7332
    7334    7333    7335    7337    7336    7338    7340    7339    7341
    7343    7342    7344    7346    7345    7347    7349    7348    7350
    7352    7351    7353    7355    7354    7356    7358    7357    7359
    7361    7360    7362    7364    7363    7365    7367    7366    7368
    7370    7369    7371    7373    7372    7374    7376    7375    7377
    7379    7378    7380    7382    7381    7383    7385    7384    7386
    7388    7387    7389    7391    7390    7392    7394    7393    7395
    7397    7396    7398    7400    7399    7401    7403    7402    7404
    7406    7405    7407    7409    7408    7410    7412    7411    7413
    7415    7414    7416    7418    7417    7419    7421    7420    7422
    7424    7423    7425    7427    7426    7428    7430    7429    7431
    7433    7432    7434    7436    7435    7437    7439    7438    7440
    7442    7441    7443    7445    7444    7446    7448    7447    7449
    7451    7450    7452    7454    7453    7455    7457    7456    7458
    7460    7459    7461    7463    7462    7464    7466    7465    7467
    7469    7468    7470    7472    7471    7473    7475    7474    7476
    7478    7477    7479    7481    7480    7482    7484    7483    7485
    7487    7486    7488    7490    7489    7491    7493    7492    7494
    7496    7495    7497    7499    7498    7500    7502    7501    7503
    7505    7504    7506    7508    7507    7509    7511    7510    7512
    7514    7513    7515    7517    7516    7518    7520    7519    7521
    7523    7522    7524    7526    7525    7527    7529    7528    7530
    7532    7531    7533    7535    7534    7536    7538    7537    7539
    7541    7540    7542    7544    7543    7545    7547    7546    7548
    7550    7549    7551    7553    7552    7554    7556    7555    7557
    7559    7558    7560    7562    7561    7563    7565    7564    7566
    7568    7567    7569    7571    7570    7572    7574    7573    7575
    7577    7576    7578    7580    7579    7581    7583    7582    7584
    7586    7585    7587    7589    7588    7590    7592    7591    7593
    7595    7594    7596    7598    7597    7599    7601    7600    7602
    7604    7603    7605    7607    7606    7608    7610    7609    7611
    7613    7612    7614    7616    7615    7617    7619    7618    7620
    7622    7621    7623    7625    7624    7626    7628    7627    7629
    7631    7630    7632    7634    7633    7635    7637    7636    7638
    7640    7639    7641    7643    7642    7644    7646    7645    7647
    7649    7648    7650    7652    7651    7653    7655    7654    7656
    7658    7657    7659    7661    7660    7662    7664    7663    7665
    7667    7666    7668    7670    7669    7671    7673    7672    7674
    7676    7675    7677    7679    7678    7680    7682    7681    7683
    7685    7684    7686    7688    7687    7689    7691    7690    7692
    7694    7693    7695    7697    7696    7698    7700    7699    7701
    7703    7702    7704    7706    7705    7707    7709    7708    7710
    7712    7711    7713    7715    7714    7716    7718    7717    7719
    7721    7720    7722    7724    7723    7725    7727    7726    7728
    7730    7729    7731    7733    7732    7734    7736    7735    7737
    7739    7738    7740    7742    7741    7743    7745    7744    7746
    7748    7747    7749    7751    7750    7752    7754    7753    7755
    7757    7756    7758    7760    7759    7761    7763    7762    7764
    7766    7765    7767    7769    7768    7770    7772    7771    7773
    7775    7774    7776    7778    7777    7779    7781    7780    7782
    7784    7783    7785    7787    7786    7788    7790    7789    7791
    7793    7792    7794    7796    7795    7797    7799    7798    7800
    7802    7801    7803    7805    7804    7806    7808    7807    7809
    7811    7810    7812    7814    7813    7815    7817    7816    7818
    7820    7819    7821    7823    7822    7824    7826    7825    7827
    7829    7828    7830    7832    7831    7833    7835    7834    7836
    7838    7837    7839    7841    7840    7842    7844    7843    7845
    7847    7846    7848    7850    7849    7851    7853    7852    7854
    7856    7855    7857    7859    7858    7860    7862    7861    7863
    7865    7864    7866    7868    7867    7869    7871    7870    7872
    7874    7873    7875    7877    7876    7878    7880    7879    7881
    7883    7882    7884    7886    7885    7887    7889    7888    7890
    7892    7891    7893    7895    7894    7896    7898    7897    7899
    7901    7900    7902    7904    7903    7905    7907    7906    7908
    7910    7909    7911    7913    7912    7914    7916    7915    7917
    7919    7918    7920    7922    7921    7923    7925    7924    7926
    7928    7927    7929    7931    7930    7932    7934    7933    7935
    7937    7936    7938    7940    7939    7941    7943    7942    7944
    7946    7945    7947    7949    7948    7950    7952    7951    7953
    7955    7954    7956    7958    7957    7959    7961    7960    7962
    7964    7963    7965    7967    7966    7968    7970    7969    7971
    7973    7972    7974    7976    7975    7977    7979    7978    7980
    7982    7981    7983    7985    7984    7986    7988    7987    7989
    7991    7990    7992    7994    7993    7995    7997    7996    7998
    8000    7999    8001    8003    8002    8004    8006    8005    8007
    8009    8008    8010    8012    8011    8013    8015    8014    8016
    8018    8017    8019    8021    8020    8022    8024    8023    8025
    8027    8026    8028    8030    8029    8031    8033    8032    8034
    8036    8035    8037    8039    8038    8040    8042    8041    8043
    8045    8044    8046    8048    8047    8049    8051    8050    8052
    8054    8053    8055    8057    8056    8058    8060    8059    8061
    8063    8062    8064    8066    8065    8067    8069    8068    8070
    8072    8071    8073    8075    8074    8076    8078    8077    8079
    8081    8080    8082    8084    8083    8085    8087    8086    8088
    8090    8089    8091    8093    8092    8094    8096    8095    8097
    8099    8098    8100    8102    8101    8103    8105    8104    8106
    8108    8107    8109    8111    8110    8112    8114    8113    8115
    8117    8116    8118    8120    8119    8121    8123    8122    8124
    8126    8125    8127    8129    8128    8130    8132    8131    8133
    8135    8134    8136    8138    8137    8139    8141    8140    8142
    8144    8143    8145    8147    8146    8148    8150    8149    8151
    8153    8152    8154    8156    8155    8157    8159    8158    8160
    8162    8161    8163    8165    8164    8166    8168    8167    8169
    8171    8170    8172    8174    8173    8175    8177    8176    8178
    8180    8179    8181    8183    8182    8184    8186    8185    8187
    8189    8188    8190    8192    8191    8193    8195    8194    8196
    8198    8197    8199    8201    8200    8202    8204    8203    8205
    8207    8206    8208    8210    8209    8211    8213    8212    8214
    8216    8215    8217    8219    8218    8220    8222    8221    8223
    8225    8224    8226    8228    8227    8229    8231    8230    8232
    8234    8233    8235    8237    8236    8238    8240    8239    8241
    8243    8242    8244    8246    8245    8247    8249    8248    8250
    8252    8251    8253    8255    8254    8256    8258    8257    8259
    8261    8260    8262    8264    8263    8265    8267    8266    8268
    8270    8269    8271    8273    8272    8274    8276    8275    8277
    8279    8278    8280    8282    8281    8283    8285    8284    8286
    8288    8287    8289    8291    8290    8292    8294    8293    8295
    8297    8296    8298    8300    8299    8301    8303    8302    8304
    8306    8305    8307    8309    8308    8310    8312    8311    8313
    8315    8314    8316    8318    8317    8319    8321    8320    8322
    8324    8323    8325    8327    8326    8328    8330    8329    8331
    8333    8332    8334    8336    8335    8337    8339    8338    8340
    8342    8341    8343    8345    8344    8346    8348    8347    8349
    8351    8350    8352    8354    8353    8355    8357    8356    8358
    8360    8359    8361    8363    8362    8364    8366    8365    8367
    8369    8368    8370    8372    8371    8373    8375    8374    8376
    8378    8377    8379    8381    8380    8382    8384    8383    8385
    8387    8386    8388    8390    8389    8391    8393    8392    8394
    8396    8395    8397    8399    8398    8400    8402    8401    8403
    8405    8404    8406    8408    8407    8409    8411    8410    8412
    8414    8413    8415    8417    8416    8418    8420    8419    8421
    8423    8422    8424    8426    8425    8427    8429    8428    8430
    8432    8431    8433    8435    8434    8436    8438    8437    8439
    8441    8440    8442    8444    8443    8445    8447    8446    8448
    8450    8449    8451    8453    8452    8454    8456    8455    8457
    8459    8458    8460    8462    8461    8463    8465    8464    8466
    8468    8467    8469    8471    8470    8472    8474    8473    8475
    8477    8476    8478    8480    8479    8481    8483    8482    8484
    8486    8485    8487    8489    8488    8490    8492    8491    8493
    8495    8494    8496    8498    8497    8499    8501    8500    8502
    8504    8503    8505    8507    8506    8508    8510    8509    8511
    8513    8512    8514    8516    8515    8517    8519    8518    8520
    8522    8521    8523    8525    8524    8526    8528    8527    8529
    8531    8530    8532    8534    8533    8535    8537    8536    8538
    8540    8539    8541    8543    8542    8544    8546    8545    8547
    8549    8548    8550    8552    8551    8553    8555    8554    8556
    8558    8557    8559    8561    8560    8562    8564    8563    8565
    8567    8566    8568    8570    8569    8571    8573    8572    8574
    8576    8575    8577    8579    8578    8580    8582    8581    8583
    8585    8584    8586    8588    8587    8589    8591    8590    8592
    8594    8593    8595    8597    8596    8598    8600    8599    8601
    8603    8602    8604    8606    8605    8607    8609    8608    8610
    8612    8611    8613    8615    8614    8616    8618    8617    8619
    8621    8620    8622    8624    8623    8625    8627    8626    8628
    8630    8629    8631    8633    8632    8634    8636    8635    8637
    8639    8638    8640    8642    8641    8643    8645    8644    8646
    8648    8647    8649    8651    8650    8652    8654    8653    8655
    8657    8656    8658    8660    8659    8661    8663    8662    8664
    8666    8665    8667    8669    8668    8670    8672    8671    8673
    8675    8674    8676    8678    8677    8679    8681    8680    8682
    8684    8683    8685    8687    8686    8688    8690    8689    8691
    8693    8692    8694    8696    8695    8697    8699    8698    8700
    8702    8701    8703    8705    8704    8706    8708    8707    8709
    8711    8710    8712    8714    8713    8715    8717    8716    8718
    8720    8719    8721    8723    8722    8724    8726    8725    8727
    8729    8728    8730    8732    8731    8733    8735    8734    8736
    8738    8737    8739    8741    8740    8742    8744    8743    8745
    8747    8746    8748    8750    8749    8751    8753    8752    8754
    8756    8755    8757    8759    8758    8760    8762    8761    8763
    8765    8764    8766    8768    8767    8769    8771    8770    8772
    8774    8773    8775    8777    8776    8778    8780    8779    8781
    8783    8782    8784    8786    8785    8787    8789    8788    8790
    8792    8791    8793    8795    8794    8796    8798    8797    8799
    8801    8800    8802    8804    8803    8805    8807    8806    8808
    8810    8809    8811    8813    8812    8814    8816    8815    8817
    8819    8818    8820    8822    8821    8823    8825    8824    8826
    8828    8827    8829    8831    8830    8832    8834    8833    8835
    8837    8836    8838    8840    8839    8841    8843    8842    8844
    8846    8845    8847    8849    8848    8850    8852    8851    8853
    8855    8854    8856    8858    8857    8859    8861    8860    8862
    8864    8863    8865    8867    8866    8868    8870    8869    8871
    8873    8872    8874    8876    8875    8877    8879    8878    8880
    8882    8881    8883    8885    8884    8886    8888    8887    8889
    8891    8890    8892    8894    8893    8895    8897    8896    8898
    8900    8899    8901    8903    8902    8904    8906    8905    8907
    8909    8908    8910    8912    8911    8913    8915    8914    8916
    8918    8917    8919    8921    8920    8922    8924    8923    8925
    8927    8926    8928    8930    8929    8931    8933    8932    8934
    8936    8935    8937    8939    8938    8940    8942    8941    8943
    8945    8944    8946    8948    8947    8949    8951    8950    8952
    8954    8953    8955    8957    8956    8958    8960    8959    8961
    8963    8962    8964    8966    8965    8967    8969    8968    8970
    8972    8971    8973    8975    8974    8976    8978    8977    8979
    8981    8980    8982    8984    8983    8985    8987    8986    8988
    8990    8989    8991    8993    8992    8994    8996    8995    8997
    8999    8998    9000    9002    9001    9003    9005    9004    9006
    9008    9007    9009    9011    9010    9012    9014    9013    9015
    9017    9016    9018    9020    9019    9021    9023    9022    9024
    9026    9025    9027    9029    9028    9030    9032    9031    9033
    9035    9034    9036    9038    9037    9039    9041    9040    9042
    9044    9043    9045    9047    9046    9048    9050    9049    9051
    9053    9052    9054    9056    9055    9057    9059    9058    9060
    9062    9061    9063    9065    9064    9066    9068    9067    9069
    9071    9070    9072    9074    9073    9075    9077    9076    9078
    9080    9079    9081    9083    9082    9084    9086    9085    9087
    9089    9088    9090    9092    9091    9093    9095    9094    9096
    9098    9097    9099    9101    9100    9102    9104    9103    9105
    9107    9106    9108    9110    9109    9111    9113    9112    9114
    9116    9115    9117    9119    9118    9120    9122    9121    9123
    9125    9124    9126    9128    9127    9129    9131    9130    9132
    9134    9133    9135    9137    9136    9138    9140    9139    9141
    9143    9142    9144    9146    9145    9147    9149    9148    9150
    9152    9151    9153    9155    9154    9156    9158    9157    9159
    9161    9160    9162    9164    9163    9165    9167    9166    9168
    9170    9169    9171    9173    9172    9174    9176    9175    9177
    9179    9178    9180    9182    9181    9183    9185    9184    9186
    9188    9187    9189    9191    9190    9192    9194    9193    9195
    9197    9196    9198    9200    9199    9201    9203    9202    9204
    9206    9205    9207    9209    9208    9210    9212    9211    9213
    9215    9214    9216    9218    9217    9219    9221    9220    9222
    9224    9223    9225    9227    9226    9228    9230    9229    9231
    9233    9232    9234    9236    9235    9237    9239    9238    9240
    9242    9241    9243    9245    9244    9246    9248    9247    9249
    9251    9250    9252    9254    9253    9255    9257    9256    9258
    9260    9259    9261    9263    9262    9264    9266    9265    9267
    9269    9268    9270    9272    9271    9273    9275    9274    9276
    9278    9277    9279    9281    9280    9282    9284    9283    9285
    9287    9286    9288    9290    9289    9291    9293    9292    9294
    9296    9295    9297    9299    9298    9300    9302    9301    9303
    9305    9304    9306    9308    9307    9309    9311    9310    9312
    9314    9313    9315    9317    9316    9318    9320    9319    9321
    9323    9322    9324    9326    9325    9327    9329    9328    9330
    9332    9331    9333    9335    9334    9336    9338    9337    9339
    9341    9340    9342    9344    9343    9345    9347    9346    9348
    9350    9349    9351    9353    9352    9354    9356    9355    9357
    9359    9358    9360    9362    9361    9363    9365    9364    9366
    9368    9367    9369    9371    9370    9372    9374    9373    9375
    9377    9376    9378    9380    9379    9381    9383    9382    9384
    9386    9385    9387    9389    9388    9390    9392    9391    9393
    9395    9394    9396    9398    9397    9399    9401    9400    9402
    9404    9403    9405    9407    9406    9408    9410    9409    9411
    9413    9412    9414    9416    9415    9417    9419    9418    9420
    9422    9421    9423    9425    9424    9426    9428    9427    9429
    9431    9430    9432    9434    9433    9435    9437    9436    9438
    9440    9439    9441    9443    9442    9444    9446    9445    9447
    9449    9448    9450    9452    9451    9453    9455    9454    9456
    9458    9457    9459    9461    9460    9462    9464    9463    9465
    9467    9466    9468    9470    9469    9471    9473    9472    9474
    9476    9475    9477    9479    9478    9480    9482    9481    9483
    9485    9484    9486    9488    9487    9489    9491    9490    9492
    9494    9493    9495    9497    9496    9498    9500    9499    9501
    9503    9502    9504    9506    9505    9507    9509    9508    9510
    9512    9511    9513    9515    9514    9516    9518    9517    9519
    9521    9520    9522    9524    9523    9525    9527    9526    9528
    9530    9529    9531    9533    9532    9534    9536    9535    9537
    9539    9538    9540    9542    9541    9543    9545    9544    9546
    9548    9547    9549    9551    9550    9552    9554    9553    9555
    9557    9556    9558    9560    9559    9561    9563    9562    9564
    9566    9565    9567    9569    9568    9570    9572    9571    9573
    9575    9574    9576    9578    9577    9579    9581    9580    9582
    9584    9583    9585    9587    9586    9588    9590    9589    9591
    9593    9592    9594    9596    9595    9597    9599    9598    9600
    9602    9601    9603    9605    9604    9606    9608    9607    9609
    9611    9610    9612    9614    9613    9615    9617    9616    9618
    9620    9619    9621    9623    9622    9624    9626    9625    9627
    9629    9628    9630    9632    9631    9633    9635    9634    9636
    9638    9637    9639    9641    9640    9642    9644    9643    9645
    9647    9646    9648    9650    9649    9651    9653    9652    9654
    9656    9655    9657    9659    9658    9660    9662    9661    9663
    9665    9664    9666    9668    9667    9669    9671    9670    9672
    9674    9673    9675    9677    9676    9678    9680    9679    9681
    9683    9682    9684    9686    9685    9687    9689    9688    9690
    9692    9691    9693    9695    9694    9696    9698    9697    9699
    9701    9700    9702    9704    9703    9705    9707    9706    9708
    9710    9709    9711    9713    9712    9714    9716    9715    9717
    9719    9718    9720    9722    9721    9723    9725    9724    9726
    9728    9727    9729    9731    9730    9732    9734    9733    9735
    9737    9736    9738    9740    9739    9741    9743    9742    9744
    9746    9745    9747    9749    9748    9750    9752    9751    9753
    9755    9754    9756    9758    9757    9759    9761    9760    9762
    9764    9763    9765    9767    9766    9768    9770    9769    9771
    9773    9772    9774    9776    9775    9777    9779    9778    9780
    9782    9781    9783    9785    9784    9786    9788    9787    9789
    9791    9790    9792    9794    9793    9795    9797    9796    9798
    9800    9799    9801    9803    9802    9804    9806    9805    9807
    9809    9808    9810    9812    9811    9813    9815    9814    9816
    9818    9817    9819    9821    9820    9822    9824    9823    9825
    9827    9826    9828    9830    9829    9831    9833    9832    9834
    9836    9835    9837    9839    9838    9840    9842    9841    9843
    9845    9844    9846    9848    9847    9849    9851    9850    9852
    9854    9853    9855    9857    9856    9858    9860    9859    9861
    9863    9862    9864    9866    9865    9867    9869    9868    9870
    9872    9871    9873    9875    9874    9876    9878    9877    9879
    9881    9880    9882    9884    9883    9885    9887    9886    9888
    9890    9889    9891    9893    9892    9894    9896    9895    9897
    9899    9898    9900    9902    9901    9903    9905    9904    9906
    9908    9907    9909    9911    9910    9912    9914    9913    9915
    9917    9916    9918    9920    9919    9921    9923    9922    9924
    9926    9925    9927    9929    9928    9930    9932    9931    9933
    9935    9934    9936    9938    9937    9939    9941    9940    9942
    9944    9943    9945    9947    9946    9948    9950    9949    9951
    9953    9952    9954    9956    9955    9957    9959    9958    9960
    9962    9961    9963    9965    9964    9966    9968    9967    9969
    9971    9970    9972    9974    9973    9975    9977    9976    9978
    9980    9979    9981    9983    9982    9984    9986    9985    9987
    9989    9988    9990    9992    9991    9993    9995    9994    9996
    9998    9997    9999   10001   10000   10002   10004   10003   10005
   10007   10006   10008   10010   10009   10011   10013   10012   10014
   10016   10015   10017   10019   10018   10020   10022   10021   10023
   10025   10024   10026   10028   10027   10029   10031   10030   10032
   10034   10033   10035   10037   10036   10038   10040   10039   10041
   10043   10042   10044   10046   10045   10047   10049   10048   10050
   10052   10051   10053   10055   10054   10056   10058   10057   10059
   10061   10060   10062   10064   10063   10065   10067   10066   10068
   10070   10069   10071   10073   10072   10074   10076   10075   10077
   10079   10078   10080   10082   10081   10083   10085   10084   10086
   10088   10087   10089   10091   10090   10092   10094   10093   10095
   10097   10096   10098   10100   10099   10101   10103   10102   10104
   10106   10105   10107   10109   10108   10110   10112   10111   10113
   10115   10114   10116   10118   10117   10119   10121   10120   10122
   10124   10123   10125   10127   10126   10128   10130   10129   10131
   10133   10132   10134   10136   10135   10137   10139   10138   10140
   10142   10141   10143   10145   10144   10146   10148   10147   10149
   10151   10150   10152   10154   10153   10155   10157   10156   10158
   10160   10159   10161   10163   10162   10164   10166   10165   10167
   10169   10168   10170   10172   10171   10173   10175   10174   10176
   10178   10177   10179   10181   10180   10182   10184   10183   10185
   10187   10186   10188   10190   10189   10191   10193   10192   10194
   10196   10195   10197   10199   10198   10200   10202   10201   10203
   10205   10204   10206   10208   10207   10209   10211   10210   10212
   10214   10213   10215   10217   10216   10218   10220   10219   10221
   10223   10222   10224   10226   10225   10227   10229   10228   10230
   10232   10231   10233   10235   10234   10236   10238   10237   10239
   10241   10240   10242   10244   10243   10245   10247   10246   10248
   10250   10249   10251   10253   10252   10254   10256   10255   10257
   10259   10258   10260   10262   10261   10263   10265   10264   10266
   10268   10267   10269   10271   10270   10272   10274   10273   10275
   10277   10276   10278   10280   10279   10281   10283   10282   10284
   10286   10285   10287   10289   10288   10290   10292   10291   10293
   10295   10294   10296   10298   10297   10299   10301   10300   10302
   10304   10303   10305   10307   10306   10308   10310   10309   10311
   10313   10312   10314   10316   10315   10317   10319   10318   10320
   10322   10321   10323   10325   10324   10326   10328   10327   10329
   10331   10330   10332   10334   10333   10335   10337   10336   10338
   10340   10339   10341   10343   10342   10344   10346   10345   10347
   10349   10348   10350   10352   10351   10353   10355   10354   10356
   10358   10357   10359   10361   10360   10362   10364   10363   10365
   10367   10366   10368   10370   10369   10371   10373   10372   10374
   10376   10375   10377   10379   10378   10380   10382   10381   10383
   10385   10384   10386   10388   10387   10389   10391   10390   10392
   10394   10393   10395   10397   10396   10398   10400   10399   10401
   10403   10402   10404   10406   10405   10407   10409   10408   10410
   10412   10411   10413   10415   10414   10416   10418   10417   10419
   10421   10420   10422   10424   10423   10425   10427   10426   10428
   10430   10429   10431   10433   10432   10434   10436   10435   10437
   10439   10438   10440   10442   10441   10443   10445   10444   10446
   10448   10447   10449   10451   10450   10452   10454   10453   10455
   10457   10456   10458   10460   10459   10461   10463   10462   10464
   10466   10465   10467   10469   10468   10470   10472   10471   10473
   10475   10474   10476   10478   10477   10479   10481   10480   10482
   10484   10483   10485   10487   10486   10488   10490   10489   10491
   10493   10492   10494   10496   10495   10497   10499   10498   10500
   10502   10501   10503   10505   10504   10506   10508   10507   10509
   10511   10510   10512   10514   10513   10515   10517   10516   10518
   10520   10519   10521   10523   10522   10524   10526   10525   10527
   10529   10528   10530   10532   10531   10533   10535   10534   10536
   10538   10537   10539   10541   10540   10542   10544   10543   10545
   10547   10546   10548   10550   10549   10551   10553   10552   10554
   10556   10555   10557   10559   10558   10560   10562   10561   10563
   10565   10564   10566   10568   10567   10569   10571   10570   10572
   10574   10573   10575   10577   10576   10578   10580   10579   10581
   10583   10582   10584   10586   10585   10587   10589   10588   10590
   10592   10591   10593   10595   10594   10596   10598   10597   10599
   10601   10600   10602   10604   10603   10605   10607   10606   10608
   10610   10609   10611   10613   10612   10614   10616   10615   10617
   10619   10618   10620   10622   10621   10623   10625   10624   10626
   10628   10627   10629   10631   10630   10632   10634   10633   10635
   10637   10636   10638   10640   10639   10641   10643   10642   10644
   10646   10645   10647   10649   10648   10650   10652   10651   10653
   10655   10654   10656   10658   10657   10659   10661   10660   10662
   10664   10663   10665   10667   10666   10668   10670   10669   10671
   10673   10672   10674   10676   10675   10677   10679   10678   10680
   10682   10681   10683   10685   10684   10686   10688   10687   10689
   10691   10690   10692   10694   10693   10695   10697   10696   10698
   10700   10699   10701   10703   10702   10704   10706   10705   10707
   10709   10708   10710   10712   10711   10713   10715   10714   10716
   10718   10717   10719   10721   10720   10722   10724   10723   10725
   10727   10726   10728   10730   10729   10731   10733   10732   10734
   10736   10735   10737   10739   10738   10740   10742   10741   10743
   10745   10744   10746   10748   10747   10749   10751   10750   10752
   10754   10753   10755   10757   10756   10758   10760   10759   10761
   10763   10762   10764   10766   10765   10767   10769   10768   10770
   10772   10771   10773   10775   10774   10776   10778   10777   10779
   10781   10780   10782   10784   10783   10785   10787   10786   10788
   10790   10789   10791   10793   10792   10794   10796   10795   10797
   10799   10798   10800   10802   10801   10803   10805   10804   10806
   10808   10807   10809   10811   10810   10812   10814   10813   10815
   10817   10816   10818   10820   10819   10821   10823   10822   10824
   10826   10825   10827   10829   10828   10830   10832   10831   10833
   10835   10834   10836   10838   10837   10839   10841   10840   10842
   10844   10843   10845   10847   10846   10848   10850   10849   10851
   10853   10852   10854   10856   10855   10857   10859   10858   10860
   10862   10861   10863   10865   10864   10866   10868   10867   10869
   10871   10870   10872   10874   10873   10875   10877   10876   10878
   10880   10879   10881   10883   10882   10884   10886   10885   10887
   10889   10888   10890   10892   10891   10893   10895   10894   10896
   10898   10897   10899   10901   10900   10902   10904   10903   10905
   10907   10906   10908   10910   10909   10911   10913   10912   10914
   10916   10915   10917   10919   10918   10920   10922   10921   10923
   10925   10924   10926   10928   10927   10929   10931   10930   10932
   10934   10933   10935   10937   10936   10938   10940   10939   10941
   10943   10942   10944   10946   10945   10947   10949   10948   10950
   10952   10951   10953   10955   10954   10956   10958   10957   10959
   10961   10960   10962   10964   10963   10965   10967   10966   10968
   10970   10969   10971   10973   10972   10974   10976   10975   10977
   10979   10978   10980   10982   10981   10983   10985   10984   10986
   10988   10987   10989   10991   10990   10992   10994   10993   10995
   10997   10996   10998   11000   10999   11001   11003   11002   11004
   11006   11005   11007   11009   11008   11010   11012   11011   11013
   11015   11014   11016   11018   11017   11019   11021   11020   11022
   11024   11023   11025   11027   11026   11028   11030   11029   11031
   11033   11032   11034   11036   11035   11037   11039   11038   11040
   11042   11041   11043   11045   11044   11046   11048   11047   11049
   11051   11050   11052   11054   11053   11055   11057   11056   11058
   11060   11059   11061   11063   11062   11064   11066   11065   11067
   11069   11068   11070   11072   11071   11073   11075   11074   11076
   11078   11077   11079   11081   11080   11082   11084   11083   11085
   11087   11086   11088   11090   11089   11091   11093   11092   11094
   11096   11095   11097   11099   11098   11100   11102   11101   11103
   11105   11104   11106   11108   11107   11109   11111   11110   11112
   11114   11113   11115   11117   11116   11118   11120   11119   11121
   11123   11122   11124   11126   11125   11127   11129   11128   11130
   11132   11131   11133   11135   11134   11136   11138   11137   11139
   11141   11140   11142   11144   11143   11145   11147   11146   11148
   11150   11149   11151   11153   11152   11154   11156   11155   11157
   11159   11158   11160   11162   11161   11163   11165   11164   11166
   11168   11167   11169   11171   11170   11172   11174   11173   11175
   11177   11176   11178   11180   11179   11181   11183   11182   11184
   11186   11185   11187   11189   11188   11190   11192   11191   11193
   11195   11194   11196   11198   11197   11199   11201   11200   11202
   11204   11203   11205   11207   11206   11208   11210   11209   11211
   11213   11212   11214   11216   11215   11217   11219   11218   11220
   11222   11221   11223   11225   11224   11226   11228   11227   11229
   11231   11230   11232   11234   11233   11235   11237   11236   11238
   11240   11239   11241   11243   11242   11244   11246   11245   11247
   11249   11248   11250   11252   11251   11253   11255   11254   11256
   11258   11257   11259   11261   11260   11262   11264   11263   11265
   11267   11266   11268   11270   11269   11271   11273   11272   11274
   11276   11275   11277   11279   11278   11280   11282   11281   11283
   11285   11284   11286   11288   11287   11289   11291   11290   11292
   11294   11293   11295   11297   11296   11298   11300   11299   11301
   11303   11302   11304   11306   11305   11307   11309   11308   11310
   11312   11311   11313   11315   11314   11316   11318   11317   11319
   11321   11320   11322   11324   11323   11325   11327   11326   11328
   11330   11329   11331   11333   11332   11334   11336   11335   11337
   11339   11338   11340   11342   11341   11343   11345   11344   11346
   11348   11347   11349   11351   11350   11352   11354   11353   11355
   11357   11356   11358   11360   11359   11361   11363   11362   11364
   11366   11365   11367   11369   11368   11370   11372   11371   11373
   11375   11374   11376   11378   11377   11379   11381   11380   11382
   11384   11383   11385   11387   11386   11388   11390   11389   11391
   11393   11392   11394   11396   11395   11397   11399   11398   11400
   11402   11401   11403   11405   11404   11406   11408   11407   11409
   11411   11410   11412   11414   11413   11415   11417   11416   11418
   11420   11419   11421   11423   11422   11424   11426   11425   11427
   11429   11428   11430   11432   11431   11433   11435   11434   11436
   11438   11437   11439   11441   11440   11442   11444   11443   11445
   11447   11446   11448   11450   11449   11451   11453   11452   11454
   11456   11455   11457   11459   11458   11460   11462   11461   11463
   11465   11464   11466   11468   11467   11469   11471   11470   11472
   11474   11473   11475   11477   11476   11478   11480   11479   11481
   11483   11482   11484   11486   11485   11487   11489   11488   11490
   11492   11491   11493   11495   11494   11496   11498   11497   11499
   11501   11500   11502   11504   11503   11505   11507   11506   11508
   11510   11509   11511   11513   11512   11514   11516   11515   11517
   11519   11518   11520   11522   11521   11523   11525   11524   11526
   11528   11527   11529   11531   11530   11532   11534   11533   11535
   11537   11536   11538   11540   11539   11541   11543   11542   11544
   11546   11545   11547   11549   11548   11550   11552   11551   11553
   11555   11554   11556   11558   11557   11559   11561   11560   11562
   11564   11563   11565   11567   11566   11568   11570   11569   11571
   11573   11572   11574   11576   11575   11577   11579   11578   11580
   11582   11581   11583   11585   11584   11586   11588   11587   11589
   11591   11590   11592   11594   11593   11595   11597   11596   11598
   11600   11599   11601   11603   11602   11604   11606   11605   11607
   11609   11608   11610   11612   11611   11613   11615   11614   11616
   11618   11617   11619   11621   11620   11622   11624   11623   11625
   11627   11626   11628   11630   11629   11631   11633   11632   11634
   11636   11635   11637   11639   11638   11640   11642   11641   11643
   11645   11644   11646   11648   11647   11649   11651   11650   11652
   11654   11653   11655   11657   11656   11658   11660   11659   11661
   11663   11662   11664   11666   11665   11667   11669   11668   11670
   11672   11671   11673   11675   11674   11676   11678   11677   11679
   11681   11680   11682   11684   11683   11685   11687   11686   11688
   11690   11689   11691   11693   11692   11694   11696   11695   11697
   11699   11698   11700   11702   11701   11703   11705   11704   11706
   11708   11707   11709   11711   11710   11712   11714   11713   11715
   11717   11716   11718   11720   11719   11721   11723   11722   11724
   11726   11725   11727   11729   11728   11730   11732   11731   11733
   11735   11734   11736   11738   11737   11739   11741   11740   11742
   11744   11743   11745   11747   11746   11748   11750   11749   11751
   11753   11752   11754   11756   11755   11757   11759   11758   11760
   11762   11761   11763   11765   11764   11766   11768   11767   11769
   11771   11770   11772   11774   11773   11775   11777   11776   11778
   11780   11779   11781   11783   11782   11784   11786   11785   11787
   11789   11788   11790   11792   11791   11793   11795   11794   11796
   11798   11797   11799   11801   11800   11802   11804   11803   11805
   11807   11806   11808   11810   11809   11811   11813   11812   11814
   11816   11815   11817   11819   11818   11820   11822   11821   11823
   11825   11824   11826   11828   11827   11829   11831   11830   11832
   11834   11833   11835   11837   11836   11838   11840   11839   11841
   11843   11842   11844   11846   11845   11847   11849   11848   11850
   11852   11851   11853   11855   11854   11856   11858   11857   11859
   11861   11860   11862   11864   11863   11865   11867   11866   11868
   11870   11869   11871   11873   11872   11874   11876   11875   11877
   11879   11878   11880   11882   11881   11883   11885   11884   11886
   11888   11887   11889   11891   11890   11892   11894   11893   11895
   11897   11896   11898   11900   11899   11901   11903   11902   11904
   11906   11905   11907   11909   11908   11910   11912   11911   11913
   11915   11914   11916   11918   11917   11919   11921   11920   11922
   11924   11923   11925   11927   11926   11928   11930   11929   11931
   11933   11932   11934   11936   11935   11937   11939   11938   11940
   11942   11941   11943   11945   11944   11946   11948   11947   11949
   11951   11950   11952   11954   11953   11955   11957   11956   11958
   11960   11959   11961   11963   11962   11964   11966   11965   11967
   11969   11968   11970   11972   11971   11973   11975   11974   11976
   11978   11977   11979   11981   11980   11982   11984   11983   11985
   11987   11986   11988   11990   11989   11991   11993   11992   11994
   11996   11995   11997   11999   11998   12000   12002   12001   12003
   12005   12004   12006   12008   12007   12009   12011   12010   12012
   12014   12013   12015   12017   12016   12018   12020   12019   12021
   12023   12022   12024   12026   12025   12027   12029   12028   12030
   12032   12031   12033   12035   12034   12036   12038   12037   12039
   12041   12040   12042   12044   12043   12045   12047   12046   12048
   12050   12049   12051   12053   12052   12054   12056   12055   12057
   12059   12058   12060   12062   12061   12063   12065   12064   12066
   12068   12067   12069   12071   12070   12072   12074   12073   12075
   12077   12076   12078   12080   12079   12081   12083   12082   12084
   12086   12085   12087   12089   12088   12090   12092   12091   12093
   12095   12094   12096   12098   12097   12099   12101   12100   12102
   12104   12103   12105   12107   12106   12108   12110   12109   12111
   12113   12112   12114   12116   12115   12117   12119   12118   12120
   12122   12121   12123   12125   12124   12126   12128   12127   12129
   12131   12130   12132   12134   12133   12135   12137   12136   12138
   12140   12139   12141   12143   12142   12144   12146   12145   12147
   12149   12148   12150   12152   12151   12153   12155   12154   12156
   12158   12157   12159   12161   12160   12162   12164   12163   12165
   12167   12166   12168   12170   12169   12171   12173   12172   12174
   12176   12175   12177   12179   12178   12180   12182   12181   12183
   12185   12184   12186   12188   12187   12189   12191   12190   12192
   12194   12193   12195   12197   12196   12198   12200   12199   12201
   12203   12202   12204   12206   12205   12207   12209   12208   12210
   12212   12211   12213   12215   12214   12216   12218   12217   12219
   12221   12220   12222   12224   12223   12225   12227   12226   12228
   12230   12229   12231   12233   12232   12234   12236   12235   12237
   12239   12238   12240   12242   12241   12243   12245   12244   12246
   12248   12247   12249   12251   12250   12252   12254   12253   12255
   12257   12256   12258   12260   12259   12261   12263   12262   12264
   12266   12265   12267   12269   12268   12270   12272   12271   12273
   12275   12274   12276   12278   12277   12279   12281   12280   12282
   12284   12283   12285   12287   12286   12288   12290   12289   12291
   12293   12292   12294   12296   12295   12297   12299   12298   12300
   12302   12301   12303   12305   12304   12306   12308   12307   12309
   12311   12310   12312   12314   12313   12315   12317   12316   12318
   12320   12319   12321   12323   12322   12324   12326   12325   12327
   12329   12328   12330   12332   12331   12333   12335   12334   12336
   12338   12337   12339   12341   12340   12342   12344   12343   12345
   12347   12346   12348   12350   12349   12351   12353   12352   12354
   12356   12355   12357   12359   12358   12360   12362   12361   12363
   12365   12364   12366   12368   12367   12369   12371   12370   12372
   12374   12373   12375   12377   12376   12378   12380   12379   12381
   12383   12382   12384   12386   12385   12387   12389   12388   12390
   12392   12391   12393   12395   12394   12396   12398   12397   12399
   12401   12400   12402   12404   12403   12405   12407   12406   12408
   12410   12409   12411   12413   12412   12414   12416   12415   12417
   12419   12418   12420   12422   12421   12423   12425   12424   12426
   12428   12427   12429   12431   12430   12432   12434   12433   12435
   12437   12436   12438   12440   12439   12441   12443   12442   12444
   12446   12445   12447   12449   12448   12450   12452   12451   12453
   12455   12454   12456   12458   12457   12459   12461   12460   12462
   12464   12463   12465   12467   12466   12468   12470   12469   12471
   12473   12472   12474   12476   12475   12477   12479   12478   12480
   12482   12481   12483   12485   12484   12486   12488   12487   12489
   12491   12490   12492   12494   12493   12495   12497   12496   12498
   12500   12499   12501   12503   12502   12504   12506   12505   12507
   12509   12508   12510   12512   12511   12513   12515   12514   12516
   12518   12517   12519   12521   12520   12522   12524   12523   12525
   12527   12526   12528   12530   12529   12531   12533   12532   12534
   12536   12535   12537   12539   12538   12540   12542   12541   12543
   12545   12544   12546   12548   12547   12549   12551   12550   12552
   12554   12553   12555   12557   12556   12558   12560   12559   12561
   12563   12562   12564   12566   12565   12567   12569   12568   12570
   12572   12571   12573   12575   12574   12576   12578   12577   12579
   12581   12580   12582   12584   12583   12585   12587   12586   12588
   12590   12589   12591   12593   12592   12594   12596   12595   12597
   12599   12598   12600   12602   12601   12603   12605   12604   12606
   12608   12607   12609   12611   12610   12612   12614   12613   12615
   12617   12616   12618   12620   12619   12621   12623   12622   12624
   12626   12625   12627   12629   12628   12630   12632   12631   12633
   12635   12634   12636   12638   12637   12639   12641   12640   12642
   12644   12643   12645   12647   12646   12648   12650   12649   12651
   12653   12652   12654   12656   12655   12657   12659   12658   12660
   12662   12661   12663   12665   12664   12666   12668   12667   12669
   12671   12670   12672   12674   12673   12675   12677   12676   12678
   12680   12679   12681   12683   12682   12684   12686   12685   12687
   12689   12688   12690   12692   12691   12693   12695   12694   12696
   12698   12697   12699   12701   12700   12702   12704   12703   12705
   12707   12706   12708   12710   12709   12711   12713   12712   12714
   12716   12715   12717   12719   12718   12720   12722   12721   12723
   12725   12724   12726   12728   12727   12729   12731   12730   12732
   12734   12733   12735   12737   12736   12738   12740   12739   12741
   12743   12742   12744   12746   12745   12747   12749   12748   12750
   12752   12751   12753   12755   12754   12756   12758   12757   12759
   12761   12760   12762   12764   12763   12765   12767   12766   12768
   12770   12769   12771   12773   12772   12774   12776   12775   12777
   12779   12778   12780   12782   12781   12783   12785   12784   12786
   12788   12787   12789   12791   12790   12792   12794   12793   12795
   12797   12796   12798   12800   12799   12801   12803   12802   12804
   12806   12805   12807   12809   12808   12810   12812   12811   12813
   12815   12814   12816   12818   12817   12819   12821   12820   12822
   12824   12823   12825   12827   12826   12828   12830   12829   12831
   12833   12832   12834   12836   12835   12837   12839   12838   12840
   12842   12841   12843   12845   12844   12846   12848   12847   12849
   12851   12850   12852   12854   12853   12855   12857   12856   12858
   12860   12859   12861   12863   12862   12864   12866   12865   12867
   12869   12868   12870   12872   12871   12873   12875   12874   12876
   12878   12877   12879   12881   12880   12882   12884   12883   12885
   12887   12886   12888   12890   12889   12891   12893   12892   12894
   12896   12895   12897   12899   12898   12900   12902   12901   12903
   12905   12904   12906   12908   12907   12909   12911   12910   12912
   12914   12913   12915   12917   12916   12918   12920   12919   12921
   12923   12922   12924   12926   12925   12927   12929   12928   12930
   12932   12931   12933   12935   12934   12936   12938   12937   12939
   12941   12940   12942   12944   12943   12945   12947   12946   12948
   12950   12949   12951   12953   12952   12954   12956   12955   12957
   12959   12958   12960   12962   12961   12963   12965   12964   12966
   12968   12967   12969   12971   12970   12972   12974   12973   12975
   12977   12976   12978   12980   12979   12981   12983   12982   12984
   12986   12985   12987   12989   12988   12990   12992   12991   12993
   12995   12994   12996   12998   12997   12999   13001   13000   13002
   13004   13003   13005   13007   13006   13008   13010   13009   13011
   13013   13012   13014   13016   13015   13017   13019   13018   13020
   13022   13021   13023   13025   13024   13026   13028   13027   13029
   13031   13030   13032   13034   13033   13035   13037   13036   13038
   13040   13039   13041   13043   13042   13044   13046   13045   13047
   13049   13048   13050   13052   13051   13053   13055   13054   13056
   13058   13057   13059   13061   13060   13062   13064   13063   13065
   13067   13066   13068   13070   13069   13071   13073   13072   13074
   13076   13075   13077   13079   13078   13080   13082   13081   13083
   13085   13084   13086   13088   13087   13089   13091   13090   13092
   13094   13093   13095   13097   13096   13098   13100   13099   13101
   13103   13102   13104   13106   13105   13107   13109   13108   13110
   13112   13111   13113   13115   13114   13116   13118   13117   13119
   13121   13120   13122   13124   13123   13125   13127   13126   13128
   13130   13129   13131   13133   13132   13134   13136   13135   13137
   13139   13138   13140   13142   13141   13143   13145   13144   13146
   13148   13147   13149   13151   13150   13152   13154   13153   13155
   13157   13156   13158   13160   13159   13161   13163   13162   13164
   13166   13165   13167   13169   13168   13170   13172   13171   13173
   13175   13174   13176   13178   13177   13179   13181   13180   13182
   13184   13183   13185   13187   13186   13188   13190   13189   13191
   13193   13192   13194   13196   13195   13197   13199   13198   13200
   13202   13201   13203   13205   13204   13206   13208   13207   13209
   13211   13210   13212   13214   13213   13215   13217   13216   13218
   13220   13219   13221   13223   13222   13224   13226   13225   13227
   13229   13228   13230   13232   13231   13233   13235   13234   13236
   13238   13237   13239   13241   13240   13242   13244   13243   13245
   13247   13246   13248   13250   13249   13251   13253   13252   13254
   13256   13255   13257   13259   13258   13260   13262   13261   13263
   13265   13264   13266   13268   13267   13269   13271   13270   13272
   13274   13273   13275   13277   13276   13278   13280   13279   13281
   13283   13282   13284   13286   13285   13287   13289   13288   13290
   13292   13291   13293   13295   13294   13296   13298   13297   13299
   13301   13300   13302   13304   13303   13305   13307   13306   13308
   13310   13309   13311   13313   13312   13314   13316   13315   13317
   13319   13318   13320   13322   13321   13323   13325   13324   13326
   13328   13327   13329   13331   13330   13332   13334   13333   13335
   13337   13336   13338   13340   13339   13341   13343   13342   13344
   13346   13345   13347   13349   13348   13350   13352   13351   13353
   13355   13354   13356   13358   13357   13359   13361   13360   13362
   13364   13363   13365   13367   13366   13368   13370   13369   13371
   13373   13372   13374   13376   13375   13377   13379   13378   13380
   13382   13381   13383   13385   13384   13386   13388   13387   13389
   13391   13390   13392   13394   13393   13395   13397   13396   13398
   13400   13399   13401   13403   13402   13404   13406   13405   13407
   13409   13408   13410   13412   13411   13413   13415   13414   13416
   13418   13417   13419   13421   13420   13422   13424   13423   13425
   13427   13426   13428   13430   13429   13431   13433   13432   13434
   13436   13435   13437   13439   13438   13440   13442   13441   13443
   13445   13444   13446   13448   13447   13449   13451   13450   13452
   13454   13453   13455   13457   13456   13458   13460   13459   13461
   13463   13462   13464   13466   13465   13467   13469   13468   13470
   13472   13471   13473   13475   13474   13476   13478   13477   13479
   13481   13480   13482   13484   13483   13485   13487   13486   13488
   13490   13489   13491   13493   13492   13494   13496   13495   13497
   13499   13498   13500   13502   13501   13503   13505   13504   13506
   13508   13507   13509   13511   13510   13512   13514   13513   13515
   13517   13516   13518   13520   13519   13521   13523   13522   13524
   13526   13525   13527   13529   13528   13530   13532   13531   13533
   13535   13534   13536   13538   13537   13539   13541   13540   13542
   13544   13543   13545   13547   13546   13548   13550   13549   13551
   13553   13552   13554   13556   13555   13557   13559   13558   13560
   13562   13561   13563   13565   13564   13566   13568   13567   13569
   13571   13570   13572   13574   13573   13575   13577   13576   13578
   13580   13579   13581   13583   13582   13584   13586   13585   13587
   13589   13588   13590   13592   13591   13593   13595   13594   13596
   13598   13597   13599   13601   13600   13602   13604   13603   13605
   13607   13606   13608   13610   13609   13611   13613   13612   13614
   13616   13615   13617   13619   13618   13620   13622   13621   13623
   13625   13624   13626   13628   13627   13629   13631   13630   13632
   13634   13633   13635   13637   13636   13638   13640   13639   13641
   13643   13642   13644   13646   13645   13647   13649   13648   13650
   13652   13651   13653   13655   13654   13656   13658   13657   13659
   13661   13660   13662   13664   13663   13665   13667   13666   13668
   13670   13669   13671   13673   13672   13674   13676   13675   13677
   13679   13678   13680   13682   13681   13683   13685   13684   13686
   13688   13687   13689   13691   13690   13692   13694   13693   13695
   13697   13696   13698   13700   13699   13701   13703   13702   13704
   13706   13705   13707   13709   13708   13710   13712   13711   13713
   13715   13714   13716   13718   13717   13719   13721   13720   13722
   13724   13723   13725   13727   13726   13728   13730   13729   13731
   13733   13732   13734   13736   13735   13737   13739   13738   13740
   13742   13741   13743   13745   13744   13746   13748   13747   13749
   13751   13750   13752   13754   13753   13755   13757   13756   13758
   13760   13759   13761   13763   13762   13764   13766   13765   13767
   13769   13768   13770   13772   13771   13773   13775   13774   13776
   13778   13777   13779   13781   13780   13782   13784   13783   13785
   13787   13786   13788   13790   13789   13791   13793   13792   13794
   13796   13795   13797   13799   13798   13800   13802   13801   13803
   13805   13804   13806   13808   13807   13809   13811   13810   13812
   13814   13813   13815   13817   13816   13818   13820   13819   13821
   13823   13822   13824   13826   13825   13827   13829   13828   13830
   13832   13831   13833   13835   13834   13836   13838   13837   13839
   13841   13840   13842   13844   13843   13845   13847   13846   13848
   13850   13849   13851   13853   13852   13854   13856   13855   13857
   13859   13858   13860   13862   13861   13863   13865   13864   13866
   13868   13867   13869   13871   13870   13872   13874   13873   13875
   13877   13876   13878   13880   13879   13881   13883   13882   13884
   13886   13885   13887   13889   13888   13890   13892   13891   13893
   13895   13894   13896   13898   13897   13899   13901   13900   13902
   13904   13903   13905   13907   13906   13908   13910   13909   13911
   13913   13912   13914   13916   13915   13917   13919   13918   13920
   13922   13921   13923   13925   13924   13926   13928   13927   13929
   13931   13930   13932   13934   13933   13935   13937   13936   13938
   13940   13939   13941   13943   13942   13944   13946   13945   13947
   13949   13948   13950   13952   13951   13953   13955   13954   13956
   13958   13957   13959   13961   13960   13962   13964   13963   13965
   13967   13966   13968   13970   13969   13971   13973   13972   13974
   13976   13975   13977   13979   13978   13980   13982   13981   13983
   13985   13984   13986   13988   13987   13989   13991   13990   13992
   13994   13993   13995   13997   13996   13998   14000   13999   14001
   14003   14002   14004   14006   14005   14007   14009   14008   14010
   14012   14011   14013   14015   14014   14016   14018   14017   14019
   14021   14020   14022   14024   14023   14025   14027   14026   14028
   14030   14029   14031   14033   14032   14034   14036   14035   14037
   14039   14038   14040   14042   14041   14043   14045   14044   14046
   14048   14047   14049   14051   14050   14052   14054   14053   14055
   14057   14056   14058   14060   14059   14061   14063   14062   14064
   14066   14065   14067   14069   14068   14070   14072   14071   14073
   14075   14074   14076   14078   14077   14079   14081   14080   14082
   14084   14083   14085   14087   14086   14088   14090   14089   14091
   14093   14092   14094   14096   14095   14097   14099   14098   14100
   14102   14101   14103   14105   14104   14106   14108   14107   14109
   14111   14110   14112   14114   14113   14115   14117   14116   14118
   14120   14119   14121   14123   14122   14124   14126   14125   14127
   14129   14128   14130   14132   14131   14133   14135   14134   14136
   14138   14137   14139   14141   14140   14142   14144   14143   14145
   14147   14146   14148   14150   14149   14151   14153   14152   14154
   14156   14155   14157   14159   14158   14160   14162   14161   14163
   14165   14164   14166   14168   14167   14169   14171   14170   14172
   14174   14173   14175   14177   14176   14178   14180   14179   14181
   14183   14182   14184   14186   14185   14187   14189   14188   14190
   14192   14191   14193   14195   14194   14196   14198   14197   14199
   14201   14200   14202   14204   14203   14205   14207   14206   14208
   14210   14209   14211   14213   14212   14214   14216   14215   14217
   14219   14218   14220   14222   14221   14223   14225   14224   14226
   14228   14227   14229   14231   14230   14232   14234   14233   14235
   14237   14236   14238   14240   14239   14241   14243   14242   14244
   14246   14245   14247   14249   14248   14250   14252   14251   14253
   14255   14254   14256   14258   14257   14259   14261   14260   14262
   14264   14263   14265   14267   14266   14268   14270   14269   14271
   14273   14272   14274   14276   14275   14277   14279   14278   14280
   14282   14281   14283   14285   14284   14286   14288   14287   14289
   14291   14290   14292   14294   14293   14295   14297   14296   14298
   14300   14299   14301   14303   14302   14304   14306   14305   14307
   14309   14308   14310   14312   14311   14313   14315   14314   14316
   14318   14317   14319   14321   14320   14322   14324   14323   14325
   14327   14326   14328   14330   14329   14331   14333   14332   14334
   14336   14335   14337   14339   14338   14340   14342   14341   14343
   14345   14344   14346   14348   14347   14349   14351   14350   14352
   14354   14353   14355   14357   14356   14358   14360   14359   14361
   14363   14362   14364   14366   14365   14367   14369   14368   14370
   14372   14371   14373   14375   14374   14376   14378   14377   14379
   14381   14380   14382   14384   14383   14385   14387   14386   14388
   14390   14389   14391   14393   14392   14394   14396   14395   14397
   14399   14398   14400   14402   14401   14403   14405   14404   14406
   14408   14407   14409   14411   14410   14412   14414   14413   14415
   14417   14416   14418   14420   14419   14421   14423   14422   14424
   14426   14425   14427   14429   14428   14430   14432   14431   14433
   14435   14434   14436   14438   14437   14439   14441   14440   14442
   14444   14443   14445   14447   14446   14448   14450   14449   14451
   14453   14452   14454   14456   14455   14457   14459   14458   14460
   14462   14461   14463   14465   14464   14466   14468   14467   14469
   14471   14470   14472   14474   14473   14475   14477   14476   14478
   14480   14479   14481   14483   14482   14484   14486   14485   14487
   14489   14488   14490   14492   14491   14493   14495   14494   14496
   14498   14497   14499   14501   14500   14502   14504   14503   14505
   14507   14506   14508   14510   14509   14511   14513   14512   14514
   14516   14515   14517   14519   14518   14520   14522   14521   14523
   14525   14524   14526   14528   14527   14529   14531   14530   14532
   14534   14533   14535   14537   14536   14538   14540   14539   14541
   14543   14542   14544   14546   14545   14547   14549   14548   14550
   14552   14551   14553   14555   14554   14556   14558   14557   14559
   14561   14560   14562   14564   14563   14565   14567   14566   14568
   14570   14569   14571   14573   14572   14574   14576   14575   14577
   14579   14578   14580   14582   14581   14583   14585   14584   14586
   14588   14587   14589   14591   14590   14592   14594   14593   14595
   14597   14596   14598   14600   14599   14601   14603   14602   14604
   14606   14605   14607   14609   14608   14610   14612   14611   14613
   14615   14614   14616   14618   14617   14619   14621   14620   14622
   14624   14623   14625   14627   14626   14628   14630   14629   14631
   14633   14632   14634   14636   14635   14637   14639   14638   14640
   14642   14641   14643   14645   14644   14646   14648   14647   14649
   14651   14650   14652   14654   14653   14655   14657   14656   14658
   14660   14659   14661   14663   14662   14664   14666   14665   14667
   14669   14668   14670   14672   14671   14673   14675   14674   14676
   14678   14677   14679   14681   14680   14682   14684   14683   14685
   14687   14686   14688   14690   14689   14691   14693   14692   14694
   14696   14695   14697   14699   14698   14700   14702   14701   14703
   14705   14704   14706   14708   14707   14709   14711   14710   14712
   14714   14713   14715   14717   14716   14718   14720   14719   14721
   14723   14722   14724   14726   14725   14727   14729   14728   14730
   14732   14731   14733   14735   14734   14736   14738   14737   14739
   14741   14740   14742   14744   14743   14745   14747   14746   14748
   14750   14749   14751   14753   14752   14754   14756   14755   14757
   14759   14758   14760   14762   14761   14763   14765   14764   14766
   14768   14767   14769   14771   14770   14772   14774   14773   14775
   14777   14776   14778   14780   14779   14781   14783   14782   14784
   14786   14785   14787   14789   14788   14790   14792   14791   14793
   14795   14794   14796   14798   14797   14799   14801   14800   14802
   14804   14803   14805   14807   14806   14808   14810   14809   14811
   14813   14812   14814   14816   14815   14817   14819   14818   14820
   14822   14821   14823   14825   14824   14826   14828   14827   14829
   14831   14830   14832   14834   14833   14835   14837   14836   14838
   14840   14839   14841   14843   14842   14844   14846   14845   14847
   14849   14848   14850   14852   14851   14853   14855   14854   14856
   14858   14857   14859   14861   14860   14862   14864   14863   14865
   14867   14866   14868   14870   14869   14871   14873   14872   14874
   14876   14875   14877   14879   14878   14880   14882   14881   14883
   14885   14884   14886   14888   14887   14889   14891   14890   14892
   14894   14893   14895   14897   14896   14898   14900   14899   14901
   14903   14902   14904   14906   14905   14907   14909   14908   14910
   14912   14911   14913   14915   14914   14916   14918   14917   14919
   14921   14920   14922   14924   14923   14925   14927   14926   14928
   14930   14929   14931   14933   14932   14934   14936   14935   14937
   14939   14938   14940   14942   14941   14943   14945   14944   14946
   14948   14947   14949   14951   14950   14952   14954   14953   14955
   14957   14956   14958   14960   14959   14961   14963   14962   14964
   14966   14965   14967   14969   14968   14970   14972   14971   14973
   14975   14974   14976   14978   14977   14979   14981   14980   14982
   14984   14983   14985   14987   14986   14988   14990   14989   14991
   14993   14992   14994   14996   14995   14997   14999   14998   15000
   15002   15001   15003   15005   15004   15006   15008   15007   15009
   15011   15010   15012   15014   15013   15015   15017   15016   15018
   15020   15019   15021   15023   15022   15024   15026   15025   15027
   15029   15028   15030   15032   15031   15033   15035   15034   15036
   15038   15037   15039   15041   15040   15042   15044   15043   15045
   15047   15046   15048   15050   15049   15051   15053   15052   15054
   15056   15055   15057   15059   15058   15060   15062   15061   15063
   15065   15064   15066   15068   15067   15069   15071   15070   15072
   15074   15073   15075   15077   15076   15078   15080   15079   15081
   15083   15082   15084   15086   15085   15087   15089   15088   15090
   15092   15091   15093   15095   15094   15096   15098   15097   15099
   15101   15100   15102   15104   15103   15105   15107   15106   15108
   15110   15109   15111   15113   15112   15114   15116   15115   15117
   15119   15118   15120   15122   15121   15123   15125   15124   15126
   15128   15127   15129   15131   15130   15132   15134   15133   15135
   15137   15136   15138   15140   15139   15141   15143   15142   15144
   15146   15145   15147   15149   15148   15150   15152   15151   15153
   15155   15154   15156   15158   15157   15159   15161   15160   15162
   15164   15163   15165   15167   15166   15168   15170   15169   15171
   15173   15172   15174   15176   15175   15177   15179   15178   15180
   15182   15181   15183   15185   15184   15186   15188   15187   15189
   15191   15190   15192   15194   15193   15195   15197   15196   15198
   15200   15199   15201   15203   15202   15204   15206   15205   15207
   15209   15208   15210   15212   15211   15213   15215   15214   15216
   15218   15217   15219   15221   15220   15222   15224   15223   15225
   15227   15226   15228   15230   15229   15231   15233   15232   15234
   15236   15235   15237   15239   15238   15240   15242   15241   15243
   15245   15244   15246   15248   15247   15249   15251   15250   15252
   15254   15253   15255   15257   15256   15258   15260   15259   15261
   15263   15262   15264   15266   15265   15267   15269   15268   15270
   15272   15271   15273   15275   15274   15276   15278   15277   15279
   15281   15280   15282   15284   15283   15285   15287   15286   15288
   15290   15289   15291   15293   15292   15294   15296   15295   15297
   15299   15298   15300   15302   15301   15303   15305   15304   15306
   15308   15307   15309   15311   15310   15312   15314   15313   15315
   15317   15316   15318   15320   15319   15321   15323   15322   15324
   15326   15325   15327   15329   15328   15330   15332   15331   15333
   15335   15334   15336   15338   15337   15339   15341   15340   15342
   15344   15343   15345   15347   15346   15348   15350   15349   15351
   15353   15352   15354   15356   15355   15357   15359   15358   15360
   15362   15361   15363   15365   15364   15366   15368   15367   15369
   15371   15370   15372   15374   15373   15375   15377   15376   15378
   15380   15379   15381   15383   15382   15384   15386   15385   15387
   15389   15388   15390   15392   15391   15393   15395   15394   15396
   15398   15397   15399   15401   15400   15402   15404   15403   15405
   15407   15406   15408   15410   15409   15411   15413   15412   15414
   15416   15415   15417   15419   15418   15420   15422   15421   15423
   15425   15424   15426   15428   15427   15429   15431   15430   15432
   15434   15433   15435   15437   15436   15438   15440   15439   15441
   15443   15442   15444   15446   15445   15447   15449   15448   15450
   15452   15451   15453   15455   15454   15456   15458   15457   15459
   15461   15460   15462   15464   15463   15465   15467   15466   15468
   15470   15469   15471   15473   15472   15474   15476   15475   15477
   15479   15478   15480   15482   15481   15483   15485   15484   15486
   15488   15487   15489   15491   15490   15492   15494   15493   15495
   15497   15496   15498   15500   15499   15501   15503   15502   15504
   15506   15505   15507   15509   15508   15510   15512   15511   15513
   15515   15514   15516   15518   15517   15519   15521   15520   15522
   15524   15523   15525   15527   15526   15528   15530   15529   15531
   15533   15532   15534   15536   15535   15537   15539   15538   15540
   15542   15541   15543   15545   15544   15546   15548   15547   15549
   15551   15550   15552   15554   15553   15555   15557   15556   15558
   15560   15559   15561   15563   15562   15564   15566   15565   15567
   15569   15568   15570   15572   15571   15573   15575   15574   15576
   15578   15577   15579   15581   15580   15582   15584   15583   15585
   15587   15586   15588   15590   15589   15591   15593   15592   15594
   15596   15595   15597   15599   15598   15600   15602   15601   15603
   15605   15604   15606   15608   15607   15609   15611   15610   15612
   15614   15613   15615   15617   15616   15618   15620   15619   15621
   15623   15622   15624   15626   15625   15627   15629   15628   15630
   15632   15631   15633   15635   15634   15636   15638   15637   15639
   15641   15640   15642   15644   15643   15645   15647   15646   15648
   15650   15649   15651   15653   15652   15654   15656   15655   15657
   15659   15658   15660   15662   15661   15663   15665   15664   15666
   15668   15667   15669   15671   15670   15672   15674   15673   15675
   15677   15676   15678   15680   15679   15681   15683   15682   15684
   15686   15685   15687   15689   15688   15690   15692   15691   15693
   15695   15694   15696   15698   15697   15699   15701   15700   15702
   15704   15703   15705   15707   15706   15708   15710   15709   15711
   15713   15712   15714   15716   15715   15717   15719   15718   15720
   15722   15721   15723   15725   15724   15726   15728   15727   15729
   15731   15730   15732   15734   15733   15735   15737   15736   15738
   15740   15739   15741   15743   15742   15744   15746   15745   15747
   15749   15748   15750   15752   15751   15753   15755   15754   15756
   15758   15757   15759   15761   15760   15762   15764   15763   15765
   15767   15766   15768   15770   15769   15771   15773   15772   15774
   15776   15775   15777   15779   15778   15780   15782   15781   15783
   15785   15784   15786   15788   15787   15789   15791   15790   15792
   15794   15793   15795   15797   15796   15798   15800   15799   15801
   15803   15802   15804   15806   15805   15807   15809   15808   15810
   15812   15811   15813   15815   15814   15816   15818   15817   15819
   15821   15820   15822   15824   15823   15825   15827   15826   15828
   15830   15829   15831   15833   15832   15834   15836   15835   15837
   15839   15838   15840   15842   15841   15843   15845   15844   15846
   15848   15847   15849   15851   15850   15852   15854   15853   15855
   15857   15856   15858   15860   15859   15861   15863   15862   15864
   15866   15865   15867   15869   15868   15870   15872   15871   15873
   15875   15874   15876   15878   15877   15879   15881   15880   15882
   15884   15883   15885   15887   15886   15888   15890   15889   15891
   15893   15892   15894   15896   15895   15897   15899   15898   15900
   15902   15901   15903   15905   15904   15906   15908   15907   15909
   15911   15910   15912   15914   15913   15915   15917   15916   15918
   15920   15919   15921   15923   15922   15924   15926   15925   15927
   15929   15928   15930   15932   15931   15933   15935   15934   15936
   15938   15937   15939   15941   15940   15942   15944   15943   15945
   15947   15946   15948   15950   15949   15951   15953   15952   15954
   15956   15955   15957   15959   15958   15960   15962   15961   15963
   15965   15964   15966   15968   15967   15969   15971   15970   15972
   15974   15973   15975   15977   15976   15978   15980   15979   15981
   15983   15982   15984   15986   15985   15987   15989   15988   15990
   15992   15991   15993   15995   15994   15996   15998   15997   15999
   16001   16000   16002   16004   16003   16005   16007   16006   16008
   16010   16009   16011   16013   16012   16014   16016   16015   16017
   16019   16018   16020   16022   16021   16023   16025   16024   16026
   16028   16027   16029   16031   16030   16032   16034   16033   16035
   16037   16036   16038   16040   16039   16041   16043   16042   16044
   16046   16045   16047   16049   16048   16050   16052   16051   16053
   16055   16054   16056   16058   16057   16059   16061   16060   16062
   16064   16063   16065   16067   16066   16068   16070   16069   16071
   16073   16072   16074   16076   16075   16077   16079   16078   16080
   16082   16081   16083   16085   16084   16086   16088   16087   16089
   16091   16090   16092   16094   16093   16095   16097   16096   16098
   16100   16099   16101   16103   16102   16104   16106   16105   16107
   16109   16108   16110   16112   16111   16113   16115   16114   16116
   16118   16117   16119   16121   16120   16122   16124   16123   16125
   16127   16126   16128   16130   16129   16131   16133   16132   16134
   16136   16135   16137   16139   16138   16140   16142   16141   16143
   16145   16144   16146   16148   16147   16149   16151   16150   16152
   16154   16153   16155   16157   16156   16158   16160   16159   16161
   16163   16162   16164   16166   16165   16167   16169   16168   16170
   16172   16171   16173   16175   16174   16176   16178   16177   16179
   16181   16180   16182   16184   16183   16185   16187   16186   16188
   16190   16189   16191   16193   16192   16194   16196   16195   16197
   16199   16198   16200   16202   16201   16203   16205   16204   16206
   16208   16207   16209   16211   16210   16212   16214   16213   16215
   16217   16216   16218   16220   16219   16221   16223   16222   16224
   16226   16225   16227   16229   16228   16230   16232   16231   16233
   16235   16234   16236   16238   16237   16239   16241   16240   16242
   16244   16243   16245   16247   16246   16248   16250   16249   16251
   16253   16252   16254   16256   16255   16257   16259   16258   16260
   16262   16261   16263   16265   16264   16266   16268   16267   16269
   16271   16270   16272   16274   16273   16275   16277   16276   16278
   16280   16279   16281   16283   16282   16284   16286   16285   16287
   16289   16288   16290   16292   16291   16293   16295   16294   16296
   16298   16297   16299   16301   16300   16302   16304   16303   16305
   16307   16306   16308   16310   16309   16311   16313   16312   16314
   16316   16315   16317   16319   16318   16320   16322   16321   16323
   16325   16324   16326   16328   16327   16329   16331   16330   16332
   16334   16333   16335   16337   16336   16338   16340   16339   16341
   16343   16342   16344   16346   16345   16347   16349   16348   16350
   16352   16351   16353   16355   16354   16356   16358   16357   16359
   16361   16360   16362   16364   16363   16365   16367   16366   16368
   16370   16369   16371   16373   16372   16374   16376   16375   16377
   16379   16378   16380   16382   16381   16383   16385   16384   16386
   16388   16387   16389   16391   16390   16392   16394   16393   16395
   16397   16396   16398   16400   16399   16401   16403   16402   16404
   16406   16405   16407   16409   16408   16410   16412   16411   16413
   16415   16414   16416   16418   16417   16419   16421   16420   16422
   16424   16423   16425   16427   16426   16428   16430   16429   16431
   16433   16432   16434   16436   16435   16437   16439   16438   16440
   16442   16441   16443   16445   16444   16446   16448   16447   16449
   16451   16450   16452   16454   16453   16455   16457   16456   16458
   16460   16459   16461   16463   16462   16464   16466   16465   16467
   16469   16468   16470   16472   16471   16473   16475   16474   16476
   16478   16477   16479   16481   16480   16482   16484   16483   16485
   16487   16486   16488   16490   16489   16491   16493   16492   16494
   16496   16495   16497   16499   16498   16500   16502   16501   16503
   16505   16504   16506   16508   16507   16509   16511   16510   16512
   16514   16513   16515   16517   16516   16518   16520   16519   16521
   16523   16522   16524   16526   16525   16527   16529   16528   16530
   16532   16531   16533   16535   16534   16536   16538   16537   16539
   16541   16540   16542   16544   16543   16545   16547   16546   16548
   16550   16549   16551   16553   16552   16554   16556   16555   16557
   16559   16558   16560   16562   16561   16563   16565   16564   16566
   16568   16567   16569   16571   16570   16572   16574   16573   16575
   16577   16576   16578   16580   16579   16581   16583   16582   16584
   16586   16585   16587   16589   16588   16590   16592   16591   16593
   16595   16594   16596   16598   16597   16599   16601   16600   16602
   16604   16603   16605   16607   16606   16608   16610   16609   16611
   16613   16612   16614   16616   16615   16617   16619   16618   16620
   16622   16621   16623   16625   16624   16626   16628   16627   16629
   16631   16630   16632   16634   16633   16635   16637   16636   16638
   16640   16639   16641   16643   16642   16644   16646   16645   16647
   16649   16648   16650   16652   16651   16653   16655   16654   16656
   16658   16657   16659   16661   16660   16662   16664   16663   16665
   16667   16666   16668   16670   16669   16671   16673   16672   16674
   16676   16675   16677   16679   16678   16680   16682   16681   16683
   16685   16684   16686   16688   16687   16689   16691   16690   16692
   16694   16693   16695   16697   16696   16698   16700   16699   16701
   16703   16702   16704   16706   16705   16707   16709   16708   16710
   16712   16711   16713   16715   16714   16716   16718   16717   16719
   16721   16720   16722   16724   16723   16725   16727   16726   16728
   16730   16729   16731   16733   16732   16734   16736   16735   16737
   16739   16738   16740   16742   16741   16743   16745   16744   16746
   16748   16747   16749   16751   16750   16752   16754   16753   16755
   16757   16756   16758   16760   16759   16761   16763   16762   16764
   16766   16765   16767   16769   16768   16770   16772   16771   16773
   16775   16774   16776   16778   16777   16779   16781   16780   16782
   16784   16783   16785   16787   16786   16788   16790   16789   16791
   16793   16792   16794   16796   16795   16797   16799   16798   16800
   16802   16801   16803   16805   16804   16806   16808   16807   16809
   16811   16810   16812   16814   16813   16815   16817   16816   16818
   16820   16819   16821   16823   16822   16824   16826   16825   16827
   16829   16828   16830   16832   16831   16833   16835   16834   16836
   16838   16837   16839   16841   16840   16842   16844   16843   16845
   16847   16846   16848   16850   16849   16851   16853   16852   16854
   16856   16855   16857   16859   16858   16860   16862   16861   16863
   16865   16864   16866   16868   16867   16869   16871   16870   16872
   16874   16873   16875   16877   16876   16878   16880   16879   16881
   16883   16882   16884   16886   16885   16887   16889   16888   16890
   16892   16891   16893   16895   16894   16896   16898   16897   16899
   16901   16900   16902   16904   16903   16905   16907   16906   16908
   16910   16909   16911   16913   16912   16914   16916   16915   16917
   16919   16918   16920   16922   16921   16923   16925   16924   16926
   16928   16927   16929   16931   16930   16932   16934   16933   16935
   16937   16936   16938   16940   16939   16941   16943   16942   16944
   16946   16945   16947   16949   16948   16950   16952   16951   16953
   16955   16954   16956   16958   16957   16959   16961   16960   16962
   16964   16963   16965   16967   16966   16968   16970   16969   16971
   16973   16972   16974   16976   16975   16977   16979   16978   16980
   16982   16981   16983   16985   16984   16986   16988   16987   16989
   16991   16990   16992   16994   16993   16995   16997   16996   16998
   17000   16999   17001   17003   17002   17004   17006   17005   17007
   17009   17008   17010   17012   17011   17013   17015   17014   17016
   17018   17017   17019   17021   17020   17022   17024   17023   17025
   17027   17026   17028   17030   17029   17031   17033   17032   17034
   17036   17035   17037   17039   17038   17040   17042   17041   17043
   17045   17044   17046   17048   17047   17049   17051   17050   17052
   17054   17053   17055   17057   17056   17058   17060   17059   17061
   17063   17062   17064   17066   17065   17067   17069   17068   17070
   17072   17071   17073   17075   17074   17076   17078   17077   17079
   17081   17080   17082   17084   17083   17085   17087   17086   17088
   17090   17089   17091   17093   17092   17094   17096   17095   17097
   17099   17098   17100   17102   17101   17103   17105   17104   17106
   17108   17107   17109   17111   17110   17112   17114   17113   17115
   17117   17116   17118   17120   17119   17121   17123   17122   17124
   17126   17125   17127   17129   17128   17130   17132   17131   17133
   17135   17134   17136   17138   17137   17139   17141   17140   17142
   17144   17143   17145   17147   17146   17148   17150   17149   17151
   17153   17152   17154   17156   17155   17157   17159   17158   17160
   17162   17161   17163   17165   17164   17166   17168   17167   17169
   17171   17170   17172   17174   17173   17175   17177   17176   17178
   17180   17179   17181   17183   17182   17184   17186   17185   17187
   17189   17188   17190   17192   17191   17193   17195   17194   17196
   17198   17197   17199   17201   17200   17202   17204   17203   17205
   17207   17206   17208   17210   17209   17211   17213   17212   17214
   17216   17215   17217   17219   17218   17220   17222   17221   17223
   17225   17224   17226   17228   17227   17229   17231   17230   17232
   17234   17233   17235   17237   17236   17238   17240   17239   17241
   17243   17242   17244   17246   17245   17247   17249   17248   17250
   17252   17251   17253   17255   17254   17256   17258   17257   17259
   17261   17260   17262   17264   17263   17265   17267   17266   17268
   17270   17269   17271   17273   17272   17274   17276   17275   17277
   17279   17278   17280   17282   17281   17283   17285   17284   17286
   17288   17287   17289   17291   17290   17292   17294   17293   17295
   17297   17296   17298   17300   17299   17301   17303   17302   17304
   17306   17305   17307   17309   17308   17310   17312   17311   17313
   17315   17314   17316   17318   17317   17319   17321   17320   17322
   17324   17323   17325   17327   17326   17328   17330   17329   17331
   17333   17332   17334   17336   17335   17337   17339   17338   17340
   17342   17341   17343   17345   17344   17346   17348   17347   17349
   17351   17350   17352   17354   17353   17355   17357   17356   17358
   17360   17359   17361   17363   17362   17364   17366   17365   17367
   17369   17368   17370   17372   17371   17373   17375   17374   17376
   17378   17377   17379   17381   17380   17382   17384   17383   17385
   17387   17386   17388   17390   17389   17391   17393   17392   17394
   17396   17395   17397   17399   17398   17400   17402   17401   17403
   17405   17404   17406   17408   17407   17409   17411   17410   17412
   17414   17413   17415   17417   17416   17418   17420   17419   17421
   17423   17422   17424   17426   17425   17427   17429   17428   17430
   17432   17431   17433   17435   17434   17436   17438   17437   17439
   17441   17440   17442   17444   17443   17445   17447   17446   17448
   17450   17449   17451   17453   17452   17454   17456   17455   17457
   17459   17458   17460   17462   17461   17463   17465   17464   17466
   17468   17467   17469   17471   17470   17472   17474   17473   17475
   17477   17476   17478   17480   17479   17481   17483   17482   17484
   17486   17485   17487   17489   17488   17490   17492   17491   17493
   17495   17494   17496   17498   17497   17499   17501   17500   17502
   17504   17503   17505   17507   17506   17508   17510   17509   17511
   17513   17512   17514   17516   17515   17517   17519   17518   17520
   17522   17521   17523   17525   17524   17526   17528   17527   17529
   17531   17530   17532   17534   17533   17535   17537   17536   17538
   17540   17539   17541   17543   17542   17544   17546   17545   17547
   17549   17548   17550   17552   17551   17553   17555   17554   17556
   17558   17557   17559   17561   17560   17562   17564   17563   17565
   17567   17566   17568   17570   17569   17571   17573   17572   17574
   17576   17575   17577   17579   17578   17580   17582   17581   17583
   17585   17584   17586   17588   17587   17589   17591   17590   17592
   17594   17593   17595   17597   17596   17598   17600   17599   17601
   17603   17602   17604   17606   17605   17607   17609   17608   17610
   17612   17611   17613   17615   17614   17616   17618   17617   17619
   17621   17620   17622   17624   17623   17625   17627   17626   17628
   17630   17629   17631   17633   17632   17634   17636   17635   17637
   17639   17638   17640   17642   17641   17643   17645   17644   17646
   17648   17647   17649   17651   17650   17652   17654   17653   17655
   17657   17656   17658   17660   17659   17661   17663   17662   17664
   17666   17665   17667   17669   17668   17670   17672   17671   17673
   17675   17674   17676   17678   17677   17679   17681   17680   17682
   17684   17683   17685   17687   17686   17688   17690   17689   17691
   17693   17692   17694   17696   17695   17697   17699   17698   17700
   17702   17701   17703   17705   17704   17706   17708   17707   17709
   17711   17710   17712   17714   17713   17715   17717   17716   17718
   17720   17719   17721   17723   17722   17724   17726   17725   17727
   17729   17728   17730   17732   17731   17733   17735   17734   17736
   17738   17737   17739   17741   17740   17742   17744   17743   17745
   17747   17746   17748   17750   17749   17751   17753   17752   17754
   17756   17755   17757   17759   17758   17760   17762   17761   17763
   17765   17764   17766   17768   17767   17769   17771   17770   17772
   17774   17773   17775   17777   17776   17778   17780   17779   17781
   17783   17782   17784   17786   17785   17787   17789   17788   17790
   17792   17791   17793   17795   17794   17796   17798   17797   17799
   17801   17800   17802   17804   17803   17805   17807   17806   17808
   17810   17809   17811   17813   17812   17814   17816   17815   17817
   17819   17818   17820   17822   17821   17823   17825   17824   17826
   17828   17827   17829   17831   17830   17832   17834   17833   17835
   17837   17836   17838   17840   17839   17841   17843   17842   17844
   17846   17845   17847   17849   17848   17850   17852   17851   17853
   17855   17854   17856   17858   17857   17859   17861   17860   17862
   17864   17863   17865   17867   17866   17868   17870   17869   17871
   17873   17872   17874   17876   17875   17877   17879   17878   17880
   17882   17881   17883   17885   17884   17886   17888   17887   17889
   17891   17890   17892   17894   17893   17895   17897   17896   17898
   17900   17899   17901   17903   17902   17904   17906   17905   17907
   17909   17908   17910   17912   17911   17913   17915   17914   17916
   17918   17917   17919   17921   17920   17922   17924   17923   17925
   17927   17926   17928   17930   17929   17931   17933   17932   17934
   17936   17935   17937   17939   17938   17940   17942   17941   17943
   17945   17944   17946   17948   17947   17949   17951   17950   17952
   17954   17953   17955   17957   17956   17958   17960   17959   17961
   17963   17962   17964   17966   17965   17967   17969   17968   17970
   17972   17971   17973   17975   17974   17976   17978   17977   17979
   17981   17980   17982   17984   17983   17985   17987   17986   17988
   17990   17989   17991   17993   17992   17994   17996   17995   17997
   17999   17998   18000   18002   18001   18003   18005   18004   18006
   18008   18007   18009   18011   18010   18012   18014   18013   18015
   18017   18016   18018   18020   18019   18021   18023   18022   18024
   18026   18025   18027   18029   18028   18030   18032   18031   18033
   18035   18034   18036   18038   18037   18039   18041   18040   18042
   18044   18043   18045   18047   18046   18048   18050   18049   18051
   18053   18052   18054   18056   18055   18057   18059   18058   18060
   18062   18061   18063   18065   18064   18066   18068   18067   18069
   18071   18070   18072   18074   18073   18075   18077   18076   18078
   18080   18079   18081   18083   18082   18084   18086   18085   18087
   18089   18088   18090   18092   18091   18093   18095   18094   18096
   18098   18097   18099   18101   18100   18102   18104   18103   18105
   18107   18106   18108   18110   18109   18111   18113   18112   18114
   18116   18115   18117   18119   18118   18120   18122   18121   18123
   18125   18124   18126   18128   18127   18129   18131   18130   18132
   18134   18133   18135   18137   18136   18138   18140   18139   18141
   18143   18142   18144   18146   18145   18147   18149   18148   18150
   18152   18151   18153   18155   18154   18156   18158   18157   18159
   18161   18160   18162   18164   18163   18165   18167   18166   18168
   18170   18169   18171   18173   18172   18174   18176   18175   18177
   18179   18178   18180   18182   18181   18183   18185   18184   18186
   18188   18187   18189   18191   18190   18192   18194   18193   18195
   18197   18196   18198   18200   18199   18201   18203   18202   18204
   18206   18205   18207   18209   18208   18210   18212   18211   18213
   18215   18214   18216   18218   18217   18219   18221   18220   18222
   18224   18223   18225   18227   18226   18228   18230   18229   18231
   18233   18232   18234   18236   18235   18237   18239   18238   18240
   18242   18241   18243   18245   18244   18246   18248   18247   18249
   18251   18250   18252   18254   18253   18255   18257   18256   18258
   18260   18259   18261   18263   18262   18264   18266   18265   18267
   18269   18268   18270   18272   18271   18273   18275   18274   18276
   18278   18277   18279   18281   18280   18282   18284   18283   18285
   18287   18286   18288   18290   18289   18291   18293   18292   18294
   18296   18295   18297   18299   18298   18300   18302   18301   18303
   18305   18304   18306   18308   18307   18309   18311   18310   18312
   18314   18313   18315   18317   18316   18318   18320   18319   18321
   18323   18322   18324   18326   18325   18327   18329   18328   18330
   18332   18331   18333   18335   18334   18336   18338   18337   18339
   18341   18340   18342   18344   18343   18345   18347   18346   18348
   18350   18349   18351   18353   18352   18354   18356   18355   18357
   18359   18358   18360   18362   18361   18363   18365   18364   18366
   18368   18367   18369   18371   18370   18372   18374   18373   18375
   18377   18376   18378   18380   18379   18381   18383   18382   18384
   18386   18385   18387   18389   18388   18390   18392   18391   18393
   18395   18394   18396   18398   18397   18399   18401   18400   18402
   18404   18403   18405   18407   18406   18408   18410   18409   18411
   18413   18412   18414   18416   18415   18417   18419   18418   18420
   18422   18421   18423   18425   18424   18426   18428   18427   18429
   18431   18430   18432   18434   18433   18435   18437   18436   18438
   18440   18439   18441   18443   18442   18444   18446   18445   18447
   18449   18448   18450   18452   18451   18453   18455   18454   18456
   18458   18457   18459   18461   18460   18462   18464   18463   18465
   18467   18466   18468   18470   18469   18471   18473   18472   18474
   18476   18475   18477   18479   18478   18480   18482   18481   18483
   18485   18484   18486   18488   18487   18489   18491   18490   18492
   18494   18493   18495   18497   18496   18498   18500   18499   18501
   18503   18502   18504   18506   18505   18507   18509   18508   18510
   18512   18511   18513   18515   18514   18516   18518   18517   18519
   18521   18520   18522   18524   18523   18525   18527   18526   18528
   18530   18529   18531   18533   18532   18534   18536   18535   18537
   18539   18538   18540   18542   18541   18543   18545   18544   18546
   18548   18547   18549   18551   18550   18552   18554   18553   18555
   18557   18556   18558   18560   18559   18561   18563   18562   18564
   18566   18565   18567   18569   18568   18570   18572   18571   18573
   18575   18574   18576   18578   18577   18579   18581   18580   18582
   18584   18583   18585   18587   18586   18588   18590   18589   18591
   18593   18592   18594   18596   18595   18597   18599   18598   18600
   18602   18601   18603   18605   18604   18606   18608   18607   18609
   18611   18610   18612   18614   18613   18615   18617   18616   18618
   18620   18619   18621   18623   18622   18624   18626   18625   18627
   18629   18628   18630   18632   18631   18633   18635   18634   18636
   18638   18637   18639   18641   18640   18642   18644   18643   18645
   18647   18646   18648   18650   18649   18651   18653   18652   18654
   18656   18655   18657   18659   18658   18660   18662   18661   18663
   18665   18664   18666   18668   18667   18669   18671   18670   18672
   18674   18673   18675   18677   18676   18678   18680   18679   18681
   18683   18682   18684   18686   18685   18687   18689   18688   18690
   18692   18691   18693   18695   18694   18696   18698   18697   18699
   18701   18700   18702   18704   18703   18705   18707   18706   18708
   18710   18709   18711   18713   18712   18714   18716   18715   18717
   18719   18718   18720   18722   18721   18723   18725   18724   18726
   18728   18727   18729   18731   18730   18732   18734   18733   18735
   18737   18736   18738   18740   18739   18741   18743   18742   18744
   18746   18745   18747   18749   18748   18750   18752   18751   18753
   18755   18754   18756   18758   18757   18759   18761   18760   18762
   18764   18763   18765   18767   18766   18768   18770   18769   18771
   18773   18772   18774   18776   18775   18777   18779   18778   18780
   18782   18781   18783   18785   18784   18786   18788   18787   18789
   18791   18790   18792   18794   18793   18795   18797   18796   18798
   18800   18799   18801   18803   18802   18804   18806   18805   18807
   18809   18808   18810   18812   18811   18813   18815   18814   18816
   18818   18817   18819   18821   18820   18822   18824   18823   18825
   18827   18826   18828   18830   18829   18831   18833   18832   18834
   18836   18835   18837   18839   18838   18840   18842   18841   18843
   18845   18844   18846   18848   18847   18849   18851   18850   18852
   18854   18853   18855   18857   18856   18858   18860   18859   18861
   18863   18862   18864   18866   18865   18867   18869   18868   18870
   18872   18871   18873   18875   18874   18876   18878   18877   18879
   18881   18880   18882   18884   18883   18885   18887   18886   18888
   18890   18889   18891   18893   18892   18894   18896   18895   18897
   18899   18898   18900   18902   18901   18903   18905   18904   18906
   18908   18907   18909   18911   18910   18912   18914   18913   18915
   18917   18916   18918   18920   18919   18921   18923   18922   18924
   18926   18925   18927   18929   18928   18930   18932   18931   18933
   18935   18934   18936   18938   18937   18939   18941   18940   18942
   18944   18943   18945   18947   18946   18948   18950   18949   18951
   18953   18952   18954   18956   18955   18957   18959   18958   18960
   18962   18961   18963   18965   18964   18966   18968   18967   18969
   18971   18970   18972   18974   18973   18975   18977   18976   18978
   18980   18979   18981   18983   18982   18984   18986   18985   18987
   18989   18988   18990   18992   18991   18993   18995   18994   18996
   18998   18997   18999   19001   19000   19002   19004   19003   19005
   19007   19006   19008   19010   19009   19011   19013   19012   19014
   19016   19015   19017   19019   19018   19020   19022   19021   19023
   19025   19024   19026   19028   19027   19029   19031   19030   19032
   19034   19033   19035   19037   19036   19038   19040   19039   19041
   19043   19042   19044   19046   19045   19047   19049   19048   19050
   19052   19051   19053   19055   19054   19056   19058   19057   19059
   19061   19060   19062   19064   19063   19065   19067   19066   19068
   19070   19069   19071   19073   19072   19074   19076   19075   19077
   19079   19078   19080   19082   19081   19083   19085   19084   19086
   19088   19087   19089   19091   19090   19092   19094   19093   19095
   19097   19096   19098   19100   19099   19101   19103   19102   19104
   19106   19105   19107   19109   19108   19110   19112   19111   19113
   19115   19114   19116   19118   19117   19119   19121   19120   19122
   19124   19123   19125   19127   19126   19128   19130   19129   19131
   19133   19132   19134   19136   19135   19137   19139   19138   19140
   19142   19141   19143   19145   19144   19146   19148   19147   19149
   19151   19150   19152   19154   19153   19155   19157   19156   19158
   19160   19159   19161   19163   19162   19164   19166   19165   19167
   19169   19168   19170   19172   19171   19173   19175   19174   19176
   19178   19177   19179   19181   19180   19182   19184   19183   19185
   19187   19186   19188   19190   19189   19191   19193   19192   19194
   19196   19195   19197   19199   19198   19200   19202   19201   19203
   19205   19204   19206   19208   19207   19209   19211   19210   19212
   19214   19213   19215   19217   19216   19218   19220   19219   19221
   19223   19222   19224   19226   19225   19227   19229   19228   19230
   19232   19231   19233   19235   19234   19236   19238   19237   19239
   19241   19240   19242   19244   19243   19245   19247   19246   19248
   19250   19249   19251   19253   19252   19254   19256   19255   19257
   19259   19258   19260   19262   19261   19263   19265   19264   19266
   19268   19267   19269   19271   19270   19272   19274   19273   19275
   19277   19276   19278   19280   19279   19281   19283   19282   19284
   19286   19285   19287   19289   19288   19290   19292   19291   19293
   19295   19294   19296   19298   19297   19299   19301   19300   19302
   19304   19303   19305   19307   19306   19308   19310   19309   19311
   19313   19312   19314   19316   19315   19317   19319   19318   19320
   19322   19321   19323   19325   19324   19326   19328   19327   19329
   19331   19330   19332   19334   19333   19335   19337   19336   19338
   19340   19339   19341   19343   19342   19344   19346   19345   19347
   19349   19348   19350   19352   19351   19353   19355   19354   19356
   19358   19357   19359   19361   19360   19362   19364   19363   19365
   19367   19366   19368   19370   19369   19371   19373   19372   19374
   19376   19375   19377   19379   19378   19380   19382   19381   19383
   19385   19384   19386   19388   19387   19389   19391   19390   19392
   19394   19393   19395   19397   19396   19398   19400   19399   19401
   19403   19402   19404   19406   19405   19407   19409   19408   19410
   19412   19411   19413   19415   19414   19416   19418   19417   19419
   19421   19420   19422   19424   19423   19425   19427   19426   19428
   19430   19429   19431   19433   19432   19434   19436   19435   19437
   19439   19438   19440   19442   19441   19443   19445   19444   19446
   19448   19447   19449   19451   19450   19452   19454   19453   19455
   19457   19456   19458   19460   19459   19461   19463   19462   19464
   19466   19465   19467   19469   19468   19470   19472   19471   19473
   19475   19474   19476   19478   19477   19479   19481   19480   19482
   19484   19483   19485   19487   19486   19488   19490   19489   19491
   19493   19492   19494   19496   19495   19497   19499   19498   19500
   19502   19501   19503   19505   19504   19506   19508   19507   19509
   19511   19510   19512   19514   19513   19515   19517   19516   19518
   19520   19519   19521   19523   19522   19524   19526   19525   19527
   19529   19528   19530   19532   19531   19533   19535   19534   19536
   19538   19537   19539   19541   19540   19542   19544   19543   19545
   19547   19546   19548   19550   19549   19551   19553   19552   19554
   19556   19555   19557   19559   19558   19560   19562   19561   19563
   19565   19564   19566   19568   19567   19569   19571   19570   19572
   19574   19573   19575   19577   19576   19578   19580   19579   19581
   19583   19582   19584   19586   19585   19587   19589   19588   19590
   19592   19591   19593   19595   19594   19596   19598   19597   19599
   19601   19600   19602   19604   19603   19605   19607   19606   19608
   19610   19609   19611   19613   19612   19614   19616   19615   19617
   19619   19618   19620   19622   19621   19623   19625   19624   19626
   19628   19627   19629   19631   19630   19632   19634   19633   19635
   19637   19636   19638   19640   19639   19641   19643   19642   19644
   19646   19645   19647   19649   19648   19650   19652   19651   19653
   19655   19654   19656   19658   19657   19659   19661   19660   19662
   19664   19663   19665   19667   19666   19668   19670   19669   19671
   19673   19672   19674   19676   19675   19677   19679   19678   19680
   19682   19681   19683   19685   19684   19686   19688   19687   19689
   19691   19690   19692   19694   19693   19695   19697   19696   19698
   19700   19699   19701   19703   19702   19704   19706   19705   19707
   19709   19708   19710   19712   19711   19713   19715   19714   19716
   19718   19717   19719   19721   19720   19722   19724   19723   19725
   19727   19726   19728   19730   19729   19731   19733   19732   19734
   19736   19735   19737   19739   19738   19740   19742   19741   19743
   19745   19744   19746   19748   19747   19749   19751   19750   19752
   19754   19753   19755   19757   19756   19758   19760   19759   19761
   19763   19762   19764   19766   19765   19767   19769   19768   19770
   19772   19771   19773   19775   19774   19776   19778   19777   19779
   19781   19780   19782   19784   19783   19785   19787   19786   19788
   19790   19789   19791   19793   19792   19794   19796   19795   19797
   19799   19798   19800   19802   19801   19803   19805   19804   19806
   19808   19807   19809   19811   19810   19812   19814   19813   19815
   19817   19816   19818   19820   19819   19821   19823   19822   19824
   19826   19825   19827   19829   19828   19830   19832   19831   19833
   19835   19834   19836   19838   19837   19839   19841   19840   19842
   19844   19843   19845   19847   19846   19848   19850   19849   19851
   19853   19852   19854   19856   19855   19857   19859   19858   19860
   19862   19861   19863   19865   19864   19866   19868   19867   19869
   19871   19870   19872   19874   19873   19875   19877   19876   19878
   19880   19879   19881   19883   19882   19884   19886   19885   19887
   19889   19888   19890   19892   19891   19893   19895   19894   19896
   19898   19897   19899   19901   19900   19902   19904   19903   19905
   19907   19906   19908   19910   19909   19911   19913   19912   19914
   19916   19915   19917   19919   19918   19920   19922   19921   19923
   19925   19924   19926   19928   19927   19929   19931   19930   19932
   19934   19933   19935   19937   19936   19938   19940   19939   19941
   19943   19942   19944   19946   19945   19947   19949   19948   19950
   19952   19951   19953   19955   19954   19956   19958   19957   19959
   19961   19960   19962   19964   19963   19965   19967   19966   19968
   19970   19969   19971   19973   19972   19974   19976   19975   19977
   19979   19978   19980   19982   19981   19983   19985   19984   19986
   19988   19987   19989   19991   19990   19992   19994   19993   19995
   19997   19996   19998   20000   19999   20001   20003   20002   20004
   20006   20005   20007   20009   20008   20010   20012   20011   20013
   20015   20014   20016   20018   20017   20019   20021   20020   20022
   20024   20023   20025   20027   20026   20028   20030   20029   20031
   20033   20032   20034   20036   20035   20037   20039   20038   20040
   20042   20041   20043   20045   20044   20046   20048   20047   20049
   20051   20050   20052   20054   20053   20055   20057   20056   20058
   20060   20059   20061   20063   20062   20064   20066   20065   20067
   20069   20068   20070   20072   20071   20073   20075   20074   20076
   20078   20077   20079   20081   20080   20082   20084   20083   20085
   20087   20086   20088   20090   20089   20091   20093   20092   20094
   20096   20095   20097   20099   20098   20100   20102   20101   20103
   20105   20104   20106   20108   20107   20109   20111   20110   20112
   20114   20113   20115   20117   20116   20118   20120   20119   20121
   20123   20122   20124   20126   20125   20127   20129   20128   20130
   20132   20131   20133   20135   20134   20136   20138   20137   20139
   20141   20140   20142   20144   20143   20145   20147   20146   20148
   20150   20149   20151   20153   20152   20154   20156   20155   20157
   20159   20158   20160   20162   20161   20163   20165   20164   20166
   20168   20167   20169   20171   20170   20172   20174   20173   20175
   20177   20176   20178   20180   20179   20181   20183   20182   20184
   20186   20185   20187   20189   20188   20190   20192   20191   20193
   20195   20194   20196   20198   20197   20199   20201   20200   20202
   20204   20203   20205   20207   20206   20208   20210   20209   20211
   20213   20212   20214   20216   20215   20217   20219   20218   20220
   20222   20221   20223   20225   20224   20226   20228   20227   20229
   20231   20230   20232   20234   20233   20235   20237   20236   20238
   20240   20239   20241   20243   20242   20244   20246   20245   20247
   20249   20248   20250   20252   20251   20253   20255   20254   20256
   20258   20257   20259   20261   20260   20262   20264   20263   20265
   20267   20266   20268   20270   20269   20271   20273   20272   20274
   20276   20275   20277   20279   20278   20280   20282   20281   20283
   20285   20284   20286   20288   20287   20289   20291   20290   20292
   20294   20293   20295   20297   20296   20298   20300   20299   20301
   20303   20302   20304   20306   20305   20307   20309   20308   20310
   20312   20311   20313   20315   20314   20316   20318   20317   20319
   20321   20320   20322   20324   20323   20325   20327   20326   20328
   20330   20329   20331   20333   20332   20334   20336   20335   20337
   20339   20338   20340   20342   20341   20343   20345   20344   20346
   20348   20347   20349   20351   20350   20352   20354   20353   20355
   20357   20356   20358   20360   20359   20361   20363   20362   20364
   20366   20365   20367   20369   20368   20370   20372   20371   20373
   20375   20374   20376   20378   20377   20379   20381   20380   20382
   20384   20383   20385   20387   20386   20388   20390   20389   20391
   20393   20392   20394   20396   20395   20397   20399   20398   20400
   20402   20401   20403   20405   20404   20406   20408   20407   20409
   20411   20410   20412   20414   20413   20415   20417   20416   20418
   20420   20419   20421   20423   20422   20424   20426   20425   20427
   20429   20428   20430   20432   20431   20433   20435   20434   20436
   20438   20437   20439   20441   20440   20442   20444   20443   20445
   20447   20446   20448   20450   20449   20451   20453   20452   20454
   20456   20455   20457   20459   20458   20460   20462   20461   20463
   20465   20464   20466   20468   20467   20469   20471   20470   20472
   20474   20473   20475   20477   20476   20478   20480   20479   20481
   20483   20482   20484   20486   20485   20487   20489   20488   20490
   20492   20491   20493   20495   20494   20496   20498   20497   20499
   20501   20500   20502   20504   20503   20505   20507   20506   20508
   20510   20509   20511   20513   20512   20514   20516   20515   20517
   20519   20518   20520   20522   20521   20523   20525   20524   20526
   20528   20527   20529   20531   20530   20532   20534   20533   20535
   20537   20536   20538   20540   20539   20541   20543   20542   20544
   20546   20545   20547   20549   20548   20550   20552   20551   20553
   20555   20554   20556   20558   20557   20559   20561   20560   20562
   20564   20563   20565   20567   20566   20568   20570   20569   20571
   20573   20572   20574   20576   20575   20577   20579   20578   20580
   20582   20581   20583   20585   20584   20586   20588   20587   20589
   20591   20590   20592   20594   20593   20595   20597   20596   20598
   20600   20599   20601   20603   20602   20604   20606   20605   20607
   20609   20608   20610   20612   20611   20613   20615   20614   20616
   20618   20617   20619   20621   20620   20622   20624   20623   20625
   20627   20626   20628   20630   20629   20631   20633   20632   20634
   20636   20635   20637   20639   20638   20640   20642   20641   20643
   20645   20644   20646   20648   20647   20649   20651   20650   20652
   20654   20653   20655   20657   20656   20658   20660   20659   20661
   20663   20662   20664   20666   20665   20667   20669   20668   20670
   20672   20671   20673   20675   20674   20676   20678   20677   20679
   20681   20680   20682   20684   20683   20685   20687   20686   20688
   20690   20689   20691   20693   20692   20694   20696   20695   20697
   20699   20698   20700   20702   20701   20703   20705   20704   20706
   20708   20707   20709   20711   20710   20712   20714   20713   20715
   20717   20716   20718   20720   20719   20721   20723   20722   20724
   20726   20725   20727   20729   20728   20730   20732   20731   20733
   20735   20734   20736   20738   20737   20739   20741   20740   20742
   20744   20743   20745   20747   20746   20748   20750   20749   20751
   20753   20752   20754   20756   20755   20757   20759   20758   20760
   20762   20761   20763   20765   20764   20766   20768   20767   20769
   20771   20770   20772   20774   20773   20775   20777   20776   20778
   20780   20779   20781   20783   20782   20784   20786   20785   20787
   20789   20788   20790   20792   20791   20793   20795   20794   20796
   20798   20797   20799   20801   20800   20802   20804   20803   20805
   20807   20806   20808   20810   20809   20811   20813   20812   20814
   20816   20815   20817   20819   20818   20820   20822   20821   20823
   20825   20824   20826   20828   20827   20829   20831   20830   20832
   20834   20833   20835   20837   20836   20838   20840   20839   20841
   20843   20842   20844   20846   20845   20847   20849   20848   20850
   20852   20851   20853   20855   20854   20856   20858   20857   20859
   20861   20860   20862   20864   20863   20865   20867   20866   20868
   20870   20869   20871   20873   20872   20874   20876   20875   20877
   20879   20878   20880   20882   20881   20883   20885   20884   20886
   20888   20887   20889   20891   20890   20892   20894   20893   20895
   20897   20896   20898   20900   20899   20901   20903   20902   20904
   20906   20905   20907   20909   20908   20910   20912   20911   20913
   20915   20914   20916   20918   20917   20919   20921   20920   20922
   20924   20923   20925   20927   20926   20928   20930   20929   20931
   20933   20932   20934   20936   20935   20937   20939   20938   20940
   20942   20941   20943   20945   20944   20946   20948   20947   20949
   20951   20950   20952   20954   20953   20955   20957   20956   20958
   20960   20959   20961   20963   20962   20964   20966   20965   20967
   20969   20968   20970   20972   20971   20973   20975   20974   20976
   20978   20977   20979   20981   20980   20982   20984   20983   20985
   20987   20986   20988   20990   20989   20991   20993   20992   20994
   20996   20995   20997   20999   20998   21000   21002   21001   21003
   21005   21004   21006   21008   21007   21009   21011   21010   21012
   21014   21013   21015   21017   21016   21018   21020   21019   21021
   21023   21022   21024   21026   21025   21027   21029   21028   21030
   21032   21031   21033   21035   21034   21036   21038   21037   21039
   21041   21040   21042   21044   21043   21045   21047   21046   21048
   21050   21049   21051   21053   21052   21054   21056   21055   21057
   21059   21058   21060   21062   21061   21063   21065   21064   21066
   21068   21067   21069   21071   21070   21072   21074   21073   21075
   21077   21076   21078   21080   21079   21081   21083   21082   21084
   21086   21085   21087   21089   21088   21090   21092   21091   21093
   21095   21094   21096   21098   21097   21099   21101   21100   21102
   21104   21103   21105   21107   21106   21108   21110   21109   21111
   21113   21112   21114   21116   21115   21117   21119   21118   21120
   21122   21121   21123   21125   21124   21126   21128   21127   21129
   21131   21130   21132   21134   21133   21135   21137   21136   21138
   21140   21139   21141   21143   21142   21144   21146   21145   21147
   21149   21148   21150   21152   21151   21153   21155   21154   21156
   21158   21157   21159   21161   21160   21162   21164   21163   21165
   21167   21166   21168   21170   21169   21171   21173   21172   21174
   21176   21175   21177   21179   21178   21180   21182   21181   21183
   21185   21184   21186   21188   21187   21189   21191   21190   21192
   21194   21193   21195   21197   21196   21198   21200   21199   21201
   21203   21202   21204   21206   21205   21207   21209   21208   21210
   21212   21211   21213   21215   21214   21216   21218   21217   21219
   21221   21220   21222   21224   21223   21225   21227   21226   21228
   21230   21229   21231   21233   21232   21234   21236   21235   21237
   21239   21238   21240   21242   21241   21243   21245   21244   21246
   21248   21247   21249   21251   21250   21252   21254   21253   21255
   21257   21256   21258   21260   21259   21261   21263   21262   21264
   21266   21265   21267   21269   21268   21270   21272   21271   21273
   21275   21274   21276   21278   21277   21279   21281   21280   21282
   21284   21283   21285   21287   21286   21288   21290   21289   21291
   21293   21292   21294   21296   21295   21297   21299   21298   21300
   21302   21301   21303   21305   21304   21306   21308   21307   21309
   21311   21310   21312   21314   21313   21315   21317   21316   21318
   21320   21319   21321   21323   21322   21324   21326   21325   21327
   21329   21328   21330   21332   21331   21333   21335   21334   21336
   21338   21337   21339   21341   21340   21342   21344   21343   21345
   21347   21346   21348   21350   21349   21351   21353   21352   21354
   21356   21355   21357   21359   21358   21360   21362   21361   21363
   21365   21364   21366   21368   21367   21369   21371   21370   21372
   21374   21373   21375   21377   21376   21378   21380   21379   21381
   21383   21382   21384   21386   21385   21387   21389   21388   21390
   21392   21391   21393   21395   21394   21396   21398   21397   21399
   21401   21400   21402   21404   21403   21405   21407   21406   21408
   21410   21409   21411   21413   21412   21414   21416   21415   21417
   21419   21418   21420   21422   21421   21423   21425   21424   21426
   21428   21427   21429   21431   21430   21432   21434   21433   21435
   21437   21436   21438   21440   21439   21441   21443   21442   21444
   21446   21445   21447   21449   21448   21450   21452   21451   21453
   21455   21454   21456   21458   21457   21459   21461   21460   21462
   21464   21463   21465   21467   21466   21468   21470   21469   21471
   21473   21472   21474   21476   21475   21477   21479   21478   21480
   21482   21481   21483   21485   21484   21486   21488   21487   21489
   21491   21490   21492   21494   21493   21495   21497   21496   21498
   21500   21499   21501   21503   21502   21504   21506   21505   21507
   21509   21508   21510   21512   21511   21513   21515   21514   21516
   21518   21517   21519   21521   21520   21522   21524   21523   21525
   21527   21526   21528   21530   21529   21531   21533   21532   21534
   21536   21535   21537   21539   21538   21540   21542   21541   21543
   21545   21544   21546   21548   21547   21549   21551   21550   21552
   21554   21553   21555   21557   21556   21558   21560   21559   21561
   21563   21562   21564   21566   21565   21567   21569   21568   21570
   21572   21571   21573   21575   21574   21576   21578   21577   21579
   21581   21580   21582   21584   21583   21585   21587   21586   21588
   21590   21589   21591   21593   21592   21594   21596   21595   21597
   21599   21598   21600   21602   21601   21603   21605   21604   21606
   21608   21607   21609   21611   21610   21612   21614   21613   21615
   21617   21616   21618   21620   21619   21621   21623   21622   21624
   21626   21625   21627   21629   21628   21630   21632   21631   21633
   21635   21634   21636   21638   21637   21639   21641   21640   21642
   21644   21643   21645   21647   21646   21648   21650   21649   21651
   21653   21652   21654   21656   21655   21657   21659   21658   21660
   21662   21661   21663   21665   21664   21666   21668   21667   21669
   21671   21670   21672   21674   21673   21675   21677   21676   21678
   21680   21679   21681   21683   21682   21684   21686   21685   21687
   21689   21688   21690   21692   21691   21693   21695   21694   21696
   21698   21697   21699   21701   21700   21702   21704   21703   21705
   21707   21706   21708   21710   21709   21711   21713   21712   21714
   21716   21715   21717   21719   21718   21720   21722   21721   21723
   21725   21724   21726   21728   21727   21729   21731   21730   21732
   21734   21733   21735   21737   21736   21738   21740   21739   21741
   21743   21742   21744   21746   21745   21747   21749   21748   21750
   21752   21751   21753   21755   21754   21756   21758   21757   21759
   21761   21760   21762   21764   21763   21765   21767   21766   21768
   21770   21769   21771   21773   21772   21774   21776   21775   21777
   21779   21778   21780   21782   21781   21783   21785   21784   21786
   21788   21787   21789   21791   21790   21792   21794   21793   21795
   21797   21796   21798   21800   21799   21801   21803   21802   21804
   21806   21805   21807   21809   21808   21810   21812   21811   21813
   21815   21814   21816   21818   21817   21819   21821   21820   21822
   21824   21823   21825   21827   21826   21828   21830   21829   21831
   21833   21832   21834   21836   21835   21837   21839   21838   21840
   21842   21841   21843   21845   21844   21846   21848   21847   21849
   21851   21850   21852   21854   21853   21855   21857   21856   21858
   21860   21859   21861   21863   21862   21864   21866   21865   21867
   21869   21868   21870   21872   21871   21873   21875   21874   21876
   21878   21877   21879   21881   21880   21882   21884   21883   21885
   21887   21886   21888   21890   21889   21891   21893   21892   21894
   21896   21895   21897   21899   21898   21900   21902   21901   21903
   21905   21904   21906   21908   21907   21909   21911   21910   21912
   21914   21913   21915   21917   21916   21918   21920   21919   21921
   21923   21922   21924   21926   21925   21927   21929   21928   21930
   21932   21931   21933   21935   21934   21936   21938   21937   21939
   21941   21940   21942   21944   21943   21945   21947   21946   21948
   21950   21949   21951   21953   21952   21954   21956   21955   21957
   21959   21958   21960   21962   21961   21963   21965   21964   21966
   21968   21967   21969   21971   21970   21972   21974   21973   21975
   21977   21976   21978   21980   21979   21981   21983   21982   21984
   21986   21985   21987   21989   21988   21990   21992   21991   21993
   21995   21994   21996   21998   21997   21999   22001   22000   22002
   22004   22003   22005   22007   22006   22008   22010   22009   22011
   22013   22012   22014   22016   22015   22017   22019   22018   22020
   22022   22021   22023   22025   22024   22026   22028   22027   22029
   22031   22030   22032   22034   22033   22035   22037   22036   22038
   22040   22039   22041   22043   22042   22044   22046   22045   22047
   22049   22048   22050   22052   22051   22053   22055   22054   22056
   22058   22057   22059   22061   22060   22062   22064   22063   22065
   22067   22066   22068   22070   22069   22071   22073   22072   22074
   22076   22075   22077   22079   22078   22080   22082   22081   22083
   22085   22084   22086   22088   22087   22089   22091   22090   22092
   22094   22093   22095   22097   22096   22098   22100   22099   22101
   22103   22102   22104   22106   22105   22107   22109   22108   22110
   22112   22111   22113   22115   22114   22116   22118   22117   22119
   22121   22120   22122   22124   22123   22125   22127   22126   22128
   22130   22129   22131   22133   22132   22134   22136   22135   22137
   22139   22138   22140   22142   22141   22143   22145   22144   22146
   22148   22147   22149   22151   22150   22152   22154   22153   22155
   22157   22156   22158   22160   22159   22161   22163   22162   22164
   22166   22165   22167   22169   22168   22170   22172   22171   22173
   22175   22174   22176   22178   22177   22179   22181   22180   22182
   22184   22183   22185   22187   22186   22188   22190   22189   22191
   22193   22192   22194   22196   22195   22197   22199   22198   22200
   22202   22201   22203   22205   22204   22206   22208   22207   22209
   22211   22210   22212   22214   22213   22215   22217   22216   22218
   22220   22219   22221   22223   22222   22224   22226   22225   22227
   22229   22228   22230   22232   22231   22233   22235   22234   22236
   22238   22237   22239   22241   22240   22242   22244   22243   22245
   22247   22246   22248   22250   22249   22251   22253   22252   22254
   22256   22255   22257   22259   22258   22260   22262   22261   22263
   22265   22264   22266   22268   22267   22269   22271   22270   22272
   22274   22273   22275   22277   22276   22278   22280   22279   22281
   22283   22282   22284   22286   22285   22287   22289   22288   22290
   22292   22291   22293   22295   22294   22296   22298   22297   22299
   22301   22300   22302   22304   22303   22305   22307   22306   22308
   22310   22309   22311   22313   22312   22314   22316   22315   22317
   22319   22318   22320   22322   22321   22323   22325   22324   22326
   22328   22327   22329   22331   22330   22332   22334   22333   22335
   22337   22336   22338   22340   22339   22341   22343   22342   22344
   22346   22345   22347   22349   22348   22350   22352   22351   22353
   22355   22354   22356   22358   22357   22359   22361   22360   22362
   22364   22363   22365   22367   22366   22368   22370   22369   22371
   22373   22372   22374   22376   22375   22377   22379   22378   22380
   22382   22381   22383   22385   22384   22386   22388   22387   22389
   22391   22390   22392   22394   22393   22395   22397   22396   22398
   22400   22399   22401   22403   22402   22404   22406   22405   22407
   22409   22408   22410   22412   22411   22413   22415   22414   22416
   22418   22417   22419   22421   22420   22422   22424   22423   22425
   22427   22426   22428   22430   22429   22431   22433   22432   22434
   22436   22435   22437   22439   22438   22440   22442   22441   22443
   22445   22444   22446   22448   22447   22449   22451   22450   22452
   22454   22453   22455   22457   22456   22458   22460   22459   22461
   22463   22462   22464   22466   22465   22467   22469   22468   22470
   22472   22471   22473   22475   22474   22476   22478   22477   22479
   22481   22480   22482   22484   22483   22485   22487   22486   22488
   22490   22489   22491   22493   22492   22494   22496   22495   22497
   22499   22498   22500   22502   22501   22503   22505   22504   22506
   22508   22507   22509   22511   22510   22512   22514   22513   22515
   22517   22516   22518   22520   22519   22521   22523   22522   22524
   22526   22525   22527   22529   22528   22530   22532   22531   22533
   22535   22534   22536   22538   22537   22539   22541   22540   22542
   22544   22543   22545   22547   22546   22548   22550   22549   22551
   22553   22552   22554   22556   22555   22557   22559   22558   22560
   22562   22561   22563   22565   22564   22566   22568   22567   22569
   22571   22570   22572   22574   22573   22575   22577   22576   22578
   22580   22579   22581   22583   22582   22584   22586   22585   22587
   22589   22588   22590   22592   22591   22593   22595   22594   22596
   22598   22597   22599   22601   22600   22602   22604   22603   22605
   22607   22606   22608   22610   22609   22611   22613   22612   22614
   22616   22615   22617   22619   22618   22620   22622   22621   22623
   22625   22624   22626   22628   22627   22629   22631   22630   22632
   22634   22633   22635   22637   22636   22638   22640   22639   22641
   22643   22642   22644   22646   22645   22647   22649   22648   22650
   22652   22651   22653   22655   22654   22656   22658   22657   22659
   22661   22660   22662   22664   22663   22665   22667   22666   22668
   22670   22669   22671   22673   22672   22674   22676   22675   22677
   22679   22678   22680   22682   22681   22683   22685   22684   22686
   22688   22687   22689   22691   22690   22692   22694   22693   22695
   22697   22696   22698   22700   22699   22701   22703   22702   22704
   22706   22705   22707   22709   22708   22710   22712   22711   22713
   22715   22714   22716   22718   22717   22719   22721   22720   22722
   22724   22723   22725   22727   22726   22728   22730   22729   22731
   22733   22732   22734   22736   22735   22737   22739   22738   22740
   22742   22741   22743   22745   22744   22746   22748   22747   22749
   22751   22750   22752   22754   22753   22755   22757   22756   22758
   22760   22759   22761   22763   22762   22764   22766   22765   22767
   22769   22768   22770   22772   22771   22773   22775   22774   22776
   22778   22777   22779   22781   22780   22782   22784   22783   22785
   22787   22786   22788   22790   22789   22791   22793   22792   22794
   22796   22795   22797   22799   22798   22800   22802   22801   22803
   22805   22804   22806   22808   22807   22809   22811   22810   22812
   22814   22813   22815   22817   22816   22818   22820   22819   22821
   22823   22822   22824   22826   22825   22827   22829   22828   22830
   22832   22831   22833   22835   22834   22836   22838   22837   22839
   22841   22840   22842   22844   22843   22845   22847   22846   22848
   22850   22849   22851   22853   22852   22854   22856   22855   22857
   22859   22858   22860   22862   22861   22863   22865   22864   22866
   22868   22867   22869   22871   22870   22872   22874   22873   22875
   22877   22876   22878   22880   22879   22881   22883   22882   22884
   22886   22885   22887   22889   22888   22890   22892   22891   22893
   22895   22894   22896   22898   22897   22899   22901   22900   22902
   22904   22903   22905   22907   22906   22908   22910   22909   22911
   22913   22912   22914   22916   22915   22917   22919   22918   22920
   22922   22921   22923   22925   22924   22926   22928   22927   22929
   22931   22930   22932   22934   22933   22935   22937   22936   22938
   22940   22939   22941   22943   22942   22944   22946   22945   22947
   22949   22948   22950   22952   22951   22953   22955   22954   22956
   22958   22957   22959   22961   22960   22962   22964   22963   22965
   22967   22966   22968   22970   22969   22971   22973   22972   22974
   22976   22975   22977   22979   22978   22980   22982   22981   22983
   22985   22984   22986   22988   22987   22989   22991   22990   22992
   22994   22993   22995   22997   22996   22998   23000   22999   23001
   23003   23002   23004   23006   23005   23007   23009   23008   23010
   23012   23011   23013   23015   23014   23016   23018   23017   23019
   23021   23020   23022   23024   23023   23025   23027   23026   23028
   23030   23029   23031   23033   23032   23034   23036   23035   23037
   23039   23038   23040   23042   23041   23043   23045   23044   23046
   23048   23047   23049   23051   23050   23052   23054   23053   23055
   23057   23056   23058   23060   23059   23061   23063   23062   23064
   23066   23065   23067   23069   23068   23070   23072   23071   23073
   23075   23074   23076   23078   23077   23079   23081   23080   23082
   23084   23083   23085   23087   23086   23088   23090   23089   23091
   23093   23092   23094   23096   23095   23097   23099   23098   23100
   23102   23101   23103   23105   23104   23106   23108   23107   23109
   23111   23110   23112   23114   23113   23115   23117   23116   23118
   23120   23119   23121   23123   23122   23124   23126   23125   23127
   23129   23128   23130   23132   23131   23133   23135   23134   23136
   23138   23137   23139   23141   23140   23142   23144   23143   23145
   23147   23146   23148   23150   23149   23151   23153   23152   23154
   23156   23155   23157   23159   23158   23160   23162   23161   23163
   23165   23164   23166   23168   23167   23169   23171   23170   23172
   23174   23173   23175   23177   23176   23178   23180   23179   23181
   23183   23182   23184   23186   23185   23187   23189   23188   23190
   23192   23191   23193   23195   23194   23196   23198   23197   23199
   23201   23200   23202   23204   23203   23205   23207   23206   23208
   23210   23209   23211   23213   23212   23214   23216   23215   23217
   23219   23218   23220   23222   23221   23223   23225   23224   23226
   23228   23227   23229   23231   23230   23232   23234   23233   23235
   23237   23236   23238   23240   23239   23241   23243   23242   23244
   23246   23245   23247   23249   23248   23250   23252   23251   23253
   23255   23254   23256   23258   23257   23259   23261   23260   23262
   23264   23263   23265   23267   23266   23268   23270   23269   23271
   23273   23272   23274   23276   23275   23277   23279   23278   23280
   23282   23281   23283   23285   23284   23286   23288   23287   23289
   23291   23290   23292   23294   23293   23295   23297   23296   23298
   23300   23299   23301   23303   23302   23304   23306   23305   23307
   23309   23308   23310   23312   23311   23313   23315   23314   23316
   23318   23317   23319   23321   23320   23322   23324   23323   23325
   23327   23326   23328   23330   23329   23331   23333   23332   23334
   23336   23335   23337   23339   23338   23340   23342   23341   23343
   23345   23344   23346   23348   23347   23349   23351   23350   23352
   23354   23353   23355   23357   23356   23358   23360   23359   23361
   23363   23362   23364   23366   23365   23367   23369   23368   23370
   23372   23371   23373   23375   23374   23376   23378   23377   23379
   23381   23380   23382   23384   23383   23385   23387   23386   23388
   23390   23389   23391   23393   23392   23394   23396   23395   23397
   23399   23398   23400   23402   23401   23403   23405   23404   23406
   23408   23407   23409   23411   23410   23412   23414   23413   23415
   23417   23416   23418   23420   23419   23421   23423   23422   23424
   23426   23425   23427   23429   23428   23430   23432   23431   23433
   23435   23434   23436   23438   23437   23439   23441   23440   23442
   23444   23443   23445   23447   23446   23448   23450   23449   23451
   23453   23452   23454   23456   23455   23457   23459   23458   23460
   23462   23461   23463   23465   23464   23466   23468   23467   23469
   23471   23470   23472   23474   23473   23475   23477   23476   23478
   23480   23479   23481   23483   23482   23484   23486   23485   23487
   23489   23488   23490   23492   23491   23493   23495   23494   23496
   23498   23497   23499   23501   23500   23502   23504   23503   23505
   23507   23506   23508   23510   23509   23511   23513   23512   23514
   23516   23515   23517   23519   23518   23520   23522   23521   23523
   23525   23524   23526   23528   23527   23529   23531   23530   23532
   23534   23533   23535   23537   23536   23538   23540   23539   23541
   23543   23542   23544   23546   23545   23547   23549   23548   23550
   23552   23551   23553   23555   23554   23556   23558   23557   23559
   23561   23560   23562   23564   23563   23565   23567   23566   23568
   23570   23569   23571   23573   23572   23574   23576   23575   23577
   23579   23578   23580   23582   23581   23583   23585   23584   23586
   23588   23587   23589   23591   23590   23592   23594   23593   23595
   23597   23596   23598   23600   23599   23601   23603   23602   23604
   23606   23605   23607   23609   23608   23610   23612   23611   23613
   23615   23614   23616   23618   23617   23619   23621   23620   23622
   23624   23623   23625   23627   23626   23628   23630   23629   23631
   23633   23632   23634   23636   23635   23637   23639   23638   23640
   23642   23641   23643   23645   23644   23646   23648   23647   23649
   23651   23650   23652   23654   23653   23655   23657   23656   23658
   23660   23659   23661   23663   23662   23664   23666   23665   23667
   23669   23668   23670   23672   23671   23673   23675   23674   23676
   23678   23677   23679   23681   23680   23682   23684   23683   23685
   23687   23686   23688   23690   23689   23691   23693   23692   23694
   23696   23695   23697   23699   23698   23700   23702   23701   23703
   23705   23704   23706   23708   23707   23709   23711   23710   23712
   23714   23713   23715   23717   23716   23718   23720   23719   23721
   23723   23722   23724   23726   23725   23727   23729   23728   23730
   23732   23731   23733   23735   23734   23736   23738   23737   23739
   23741   23740   23742   23744   23743   23745   23747   23746   23748
   23750   23749   23751   23753   23752   23754   23756   23755   23757
   23759   23758   23760   23762   23761   23763   23765   23764   23766
   23768   23767   23769   23771   23770   23772   23774   23773   23775
   23777   23776   23778   23780   23779   23781   23783   23782   23784
   23786   23785   23787   23789   23788   23790   23792   23791   23793
   23795   23794   23796   23798   23797   23799   23801   23800   23802
   23804   23803   23805   23807   23806   23808   23810   23809   23811
   23813   23812   23814   23816   23815   23817   23819   23818   23820
   23822   23821   23823   23825   23824   23826   23828   23827   23829
   23831   23830   23832   23834   23833   23835   23837   23836   23838
   23840   23839   23841   23843   23842   23844   23846   23845   23847
   23849   23848   23850   23852   23851   23853   23855   23854   23856
   23858   23857   23859   23861   23860   23862   23864   23863   23865
   23867   23866   23868   23870   23869   23871   23873   23872   23874
   23876   23875   23877   23879   23878   23880   23882   23881   23883
   23885   23884   23886   23888   23887   23889   23891   23890   23892
   23894   23893   23895   23897   23896   23898   23900   23899   23901
   23903   23902   23904   23906   23905   23907   23909   23908   23910
   23912   23911   23913   23915   23914   23916   23918   23917   23919
   23921   23920   23922   23924   23923   23925   23927   23926   23928
   23930   23929   23931   23933   23932   23934   23936   23935   23937
   23939   23938   23940   23942   23941   23943   23945   23944   23946
   23948   23947   23949   23951   23950   23952   23954   23953   23955
   23957   23956   23958   23960   23959   23961   23963   23962   23964
   23966   23965   23967   23969   23968   23970   23972   23971   23973
   23975   23974   23976   23978   23977   23979   23981   23980   23982
   23984   23983   23985   23987   23986   23988   23990   23989   23991
   23993   23992   23994   23996   23995   23997   23999   23998   24000
   24002   24001   24003   24005   24004   24006   24008   24007   24009
   24011   24010   24012   24014   24013   24015   24017   24016   24018
   24020   24019   24021   24023   24022   24024   24026   24025   24027
   24029   24028   24030   24032   24031   24033   24035   24034   24036
   24038   24037   24039   24041   24040   24042   24044   24043   24045
   24047   24046   24048   24050   24049   24051   24053   24052   24054
   24056   24055   24057   24059   24058   24060   24062   24061   24063
   24065   24064   24066   24068   24067   24069   24071   24070   24072
   24074   24073   24075   24077   24076   24078   24080   24079   24081
   24083   24082   24084   24086   24085   24087   24089   24088   24090
   24092   24091   24093   24095   24094   24096   24098   24097   24099
   24101   24100   24102   24104   24103   24105   24107   24106   24108
   24110   24109   24111   24113   24112   24114   24116   24115   24117
   24119   24118   24120   24122   24121   24123   24125   24124   24126
   24128   24127   24129   24131   24130   24132   24134   24133   24135
   24137   24136   24138   24140   24139   24141   24143   24142   24144
   24146   24145   24147   24149   24148   24150   24152   24151   24153
   24155   24154   24156   24158   24157   24159   24161   24160   24162
   24164   24163   24165   24167   24166   24168   24170   24169   24171
   24173   24172   24174   24176   24175   24177   24179   24178   24180
   24182   24181   24183   24185   24184   24186   24188   24187   24189
   24191   24190   24192   24194   24193   24195   24197   24196   24198
   24200   24199   24201   24203   24202   24204   24206   24205   24207
   24209   24208   24210   24212   24211   24213   24215   24214   24216
   24218   24217   24219   24221   24220   24222   24224   24223   24225
   24227   24226   24228   24230   24229   24231   24233   24232   24234
   24236   24235   24237   24239   24238   24240   24242   24241   24243
   24245   24244   24246   24248   24247   24249   24251   24250   24252
   24254   24253   24255   24257   24256   24258   24260   24259   24261
   24263   24262   24264   24266   24265   24267   24269   24268   24270
   24272   24271   24273   24275   24274   24276   24278   24277   24279
   24281   24280   24282   24284   24283   24285   24287   24286   24288
   24290   24289   24291   24293   24292   24294   24296   24295   24297
   24299   24298   24300   24302   24301   24303   24305   24304   24306
   24308   24307   24309   24311   24310   24312   24314   24313   24315
   24317   24316   24318   24320   24319   24321   24323   24322   24324
   24326   24325   24327   24329   24328   24330   24332   24331   24333
   24335   24334   24336   24338   24337   24339   24341   24340   24342
   24344   24343   24345   24347   24346   24348   24350   24349   24351
   24353   24352   24354   24356   24355   24357   24359   24358   24360
   24362   24361   24363   24365   24364   24366   24368   24367   24369
   24371   24370   24372   24374   24373   24375   24377   24376   24378
   24380   24379   24381   24383   24382   24384   24386   24385   24387
   24389   24388   24390   24392   24391   24393   24395   24394   24396
   24398   24397   24399   24401   24400   24402   24404   24403   24405
   24407   24406   24408   24410   24409   24411   24413   24412   24414
   24416   24415   24417   24419   24418   24420   24422   24421   24423
   24425   24424   24426   24428   24427   24429   24431   24430   24432
   24434   24433   24435   24437   24436   24438   24440   24439   24441
   24443   24442   24444   24446   24445   24447   24449   24448   24450
   24452   24451   24453   24455   24454   24456   24458   24457   24459
   24461   24460   24462   24464   24463   24465   24467   24466   24468
   24470   24469   24471   24473   24472   24474   24476   24475   24477
   24479   24478   24480   24482   24481   24483   24485   24484   24486
   24488   24487   24489   24491   24490   24492   24494   24493   24495
   24497   24496   24498   24500   24499   24501   24503   24502   24504
   24506   24505   24507   24509   24508   24510   24512   24511   24513
   24515   24514   24516   24518   24517   24519   24521   24520   24522
   24524   24523   24525   24527   24526   24528   24530   24529   24531
   24533   24532   24534   24536   24535   24537   24539   24538   24540
   24542   24541   24543   24545   24544   24546   24548   24547   24549
   24551   24550   24552   24554   24553   24555   24557   24556   24558
   24560   24559   24561   24563   24562   24564   24566   24565   24567
   24569   24568   24570   24572   24571   24573   24575   24574   24576
   24578   24577   24579   24581   24580   24582   24584   24583   24585
   24587   24586   24588   24590   24589   24591   24593   24592   24594
   24596   24595   24597   24599   24598   24600   24602   24601   24603
   24605   24604   24606   24608   24607   24609   24611   24610   24612
   24614   24613   24615   24617   24616   24618   24620   24619   24621
   24623   24622   24624   24626   24625   24627   24629   24628   24630
   24632   24631   24633   24635   24634   24636   24638   24637   24639
   24641   24640   24642   24644   24643   24645   24647   24646   24648
   24650   24649   24651   24653   24652   24654   24656   24655   24657
   24659   24658   24660   24662   24661   24663   24665   24664   24666
   24668   24667   24669   24671   24670   24672   24674   24673   24675
   24677   24676   24678   24680   24679   24681   24683   24682   24684
   24686   24685   24687   24689   24688   24690   24692   24691   24693
   24695   24694   24696   24698   24697   24699   24701   24700   24702
   24704   24703   24705   24707   24706   24708   24710   24709   24711
   24713   24712   24714   24716   24715   24717   24719   24718   24720
   24722   24721   24723   24725   24724   24726   24728   24727   24729
   24731   24730   24732   24734   24733   24735   24737   24736   24738
   24740   24739   24741   24743   24742   24744   24746   24745   24747
   24749   24748   24750   24752   24751   24753   24755   24754   24756
   24758   24757   24759   24761   24760   24762   24764   24763   24765
   24767   24766   24768   24770   24769   24771   24773   24772   24774
   24776   24775   24777   24779   24778   24780   24782   24781   24783
   24785   24784   24786   24788   24787   24789   24791   24790   24792
   24794   24793   24795   24797   24796   24798   24800   24799   24801
   24803   24802   24804   24806   24805   24807   24809   24808   24810
   24812   24811   24813   24815   24814   24816   24818   24817   24819
   24821   24820   24822   24824   24823   24825   24827   24826   24828
   24830   24829   24831   24833   24832   24834   24836   24835   24837
   24839   24838   24840   24842   24841   24843   24845   24844   24846
   24848   24847   24849   24851   24850   24852   24854   24853   24855
   24857   24856   24858   24860   24859   24861   24863   24862   24864
   24866   24865   24867   24869   24868   24870   24872   24871   24873
   24875   24874   24876   24878   24877   24879   24881   24880   24882
   24884   24883   24885   24887   24886   24888   24890   24889   24891
   24893   24892   24894   24896   24895   24897   24899   24898   24900
   24902   24901   24903   24905   24904   24906   24908   24907   24909
   24911   24910   24912   24914   24913   24915   24917   24916   24918
   24920   24919   24921   24923   24922   24924   24926   24925   24927
   24929   24928   24930   24932   24931   24933   24935   24934   24936
   24938   24937   24939   24941   24940   24942   24944   24943   24945
   24947   24946   24948   24950   24949   24951   24953   24952   24954
   24956   24955   24957   24959   24958   24960   24962   24961   24963
   24965   24964   24966   24968   24967   24969   24971   24970   24972
   24974   24973   24975   24977   24976   24978   24980   24979   24981
   24983   24982   24984   24986   24985   24987   24989   24988   24990
   24992   24991   24993   24995   24994   24996   24998   24997   24999
   25001   25000   25002   25004   25003   25005   25007   25006   25008
   25010   25009   25011   25013   25012   25014   25016   25015   25017
   25019   25018   25020   25022   25021   25023   25025   25024   25026
   25028   25027   25029   25031   25030   25032   25034   25033   25035
   25037   25036   25038   25040   25039   25041   25043   25042   25044
   25046   25045   25047   25049   25048   25050   25052   25051   25053
   25055   25054   25056   25058   25057   25059   25061   25060   25062
   25064   25063   25065   25067   25066   25068   25070   25069   25071
   25073   25072   25074   25076   25075   25077   25079   25078   25080
   25082   25081   25083   25085   25084   25086   25088   25087   25089
   25091   25090   25092   25094   25093   25095   25097   25096   25098
   25100   25099   25101   25103   25102   25104   25106   25105   25107
   25109   25108   25110   25112   25111   25113   25115   25114   25116
   25118   25117   25119   25121   25120   25122   25124   25123   25125
   25127   25126   25128   25130   25129   25131   25133   25132   25134
   25136   25135   25137   25139   25138   25140   25142   25141   25143
   25145   25144   25146   25148   25147   25149   25151   25150   25152
   25154   25153   25155   25157   25156   25158   25160   25159   25161
   25163   25162   25164   25166   25165   25167   25169   25168   25170
   25172   25171   25173   25175   25174   25176   25178   25177   25179
   25181   25180   25182   25184   25183   25185   25187   25186   25188
   25190   25189   25191   25193   25192   25194   25196   25195   25197
   25199   25198   25200   25202   25201   25203   25205   25204   25206
   25208   25207   25209   25211   25210   25212   25214   25213   25215
   25217   25216   25218   25220   25219   25221   25223   25222   25224
   25226   25225   25227   25229   25228   25230   25232   25231   25233
   25235   25234   25236   25238   25237   25239   25241   25240   25242
   25244   25243   25245   25247   25246   25248   25250   25249   25251
   25253   25252   25254   25256   25255   25257   25259   25258   25260
   25262   25261   25263   25265   25264   25266   25268   25267   25269
   25271   25270   25272   25274   25273   25275   25277   25276   25278
   25280   25279   25281   25283   25282   25284   25286   25285   25287
   25289   25288   25290   25292   25291   25293   25295   25294   25296
   25298   25297   25299   25301   25300   25302   25304   25303   25305
   25307   25306   25308   25310   25309   25311   25313   25312   25314
   25316   25315   25317   25319   25318   25320   25322   25321   25323
   25325   25324   25326   25328   25327   25329   25331   25330   25332
   25334   25333   25335   25337   25336   25338   25340   25339   25341
   25343   25342   25344   25346   25345   25347   25349   25348   25350
   25352   25351   25353   25355   25354   25356   25358   25357   25359
   25361   25360   25362   25364   25363   25365   25367   25366   25368
   25370   25369   25371   25373   25372   25374   25376   25375   25377
   25379   25378   25380   25382   25381   25383   25385   25384   25386
   25388   25387   25389   25391   25390   25392   25394   25393   25395
   25397   25396   25398   25400   25399   25401   25403   25402   25404
   25406   25405   25407   25409   25408   25410   25412   25411   25413
   25415   25414   25416   25418   25417   25419   25421   25420   25422
   25424   25423   25425   25427   25426   25428   25430   25429   25431
   25433   25432   25434   25436   25435   25437   25439   25438   25440
   25442   25441   25443   25445   25444   25446   25448   25447   25449
   25451   25450   25452   25454   25453   25455   25457   25456   25458
   25460   25459   25461   25463   25462   25464   25466   25465   25467
   25469   25468   25470   25472   25471   25473   25475   25474   25476
   25478   25477   25479   25481   25480   25482   25484   25483   25485
   25487   25486   25488   25490   25489   25491   25493   25492   25494
   25496   25495   25497   25499   25498   25500   25502   25501   25503
   25505   25504   25506   25508   25507   25509   25511   25510   25512
   25514   25513   25515   25517   25516   25518   25520   25519   25521
   25523   25522   25524   25526   25525   25527   25529   25528   25530
   25532   25531   25533   25535   25534   25536   25538   25537   25539
   25541   25540   25542   25544   25543   25545   25547   25546   25548
   25550   25549   25551   25553   25552   25554   25556   25555   25557
   25559   25558   25560   25562   25561   25563   25565   25564   25566
   25568   25567   25569   25571   25570   25572   25574   25573   25575
   25577   25576   25578   25580   25579   25581   25583   25582   25584
   25586   25585   25587   25589   25588   25590   25592   25591   25593
   25595   25594   25596   25598   25597   25599   25601   25600   25602
   25604   25603   25605   25607   25606   25608   25610   25609   25611
   25613   25612   25614   25616   25615   25617   25619   25618   25620
   25622   25621   25623   25625   25624   25626   25628   25627   25629
   25631   25630   25632   25634   25633   25635   25637   25636   25638
   25640   25639   25641   25643   25642   25644   25646   25645   25647
   25649   25648   25650   25652   25651   25653   25655   25654   25656
   25658   25657   25659   25661   25660   25662   25664   25663   25665
   25667   25666   25668   25670   25669   25671   25673   25672   25674
   25676   25675   25677   25679   25678   25680   25682   25681   25683
   25685   25684   25686   25688   25687   25689   25691   25690   25692
   25694   25693   25695   25697   25696   25698   25700   25699   25701
   25703   25702   25704   25706   25705   25707   25709   25708   25710
   25712   25711   25713   25715   25714   25716   25718   25717   25719
   25721   25720   25722   25724   25723   25725   25727   25726   25728
   25730   25729   25731   25733   25732   25734   25736   25735   25737
   25739   25738   25740   25742   25741   25743   25745   25744   25746
   25748   25747   25749   25751   25750   25752   25754   25753   25755
   25757   25756   25758   25760   25759   25761   25763   25762   25764
   25766   25765   25767   25769   25768   25770   25772   25771   25773
   25775   25774   25776   25778   25777   25779   25781   25780   25782
   25784   25783   25785   25787   25786   25788   25790   25789   25791
   25793   25792   25794   25796   25795   25797   25799   25798   25800
   25802   25801   25803   25805   25804   25806   25808   25807   25809
   25811   25810   25812   25814   25813   25815   25817   25816   25818
   25820   25819   25821   25823   25822   25824   25826   25825   25827
   25829   25828   25830   25832   25831   25833   25835   25834   25836
   25838   25837   25839   25841   25840   25842   25844   25843   25845
   25847   25846   25848   25850   25849   25851   25853   25852   25854
   25856   25855   25857   25859   25858   25860   25862   25861   25863
   25865   25864   25866   25868   25867   25869   25871   25870   25872
   25874   25873   25875   25877   25876   25878   25880   25879   25881
   25883   25882   25884   25886   25885   25887   25889   25888   25890
   25892   25891   25893   25895   25894   25896   25898   25897   25899
   25901   25900   25902   25904   25903   25905   25907   25906   25908
   25910   25909   25911   25913   25912   25914   25916   25915   25917
   25919   25918   25920   25922   25921   25923   25925   25924   25926
   25928   25927   25929   25931   25930   25932   25934   25933   25935
   25937   25936   25938   25940   25939   25941   25943   25942   25944
   25946   25945   25947   25949   25948   25950   25952   25951   25953
   25955   25954   25956   25958   25957   25959   25961   25960   25962
   25964   25963   25965   25967   25966   25968   25970   25969   25971
   25973   25972   25974   25976   25975   25977   25979   25978   25980
   25982   25981   25983   25985   25984   25986   25988   25987   25989
   25991   25990   25992   25994   25993   25995   25997   25996   25998
   26000   25999   26001   26003   26002   26004   26006   26005   26007
   26009   26008   26010   26012   26011   26013   26015   26014   26016
   26018   26017   26019   26021   26020   26022   26024   26023   26025
   26027   26026   26028   26030   26029   26031   26033   26032   26034
   26036   26035   26037   26039   26038   26040   26042   26041   26043
   26045   26044   26046   26048   26047   26049   26051   26050   26052
   26054   26053   26055   26057   26056   26058   26060   26059   26061
   26063   26062   26064   26066   26065   26067   26069   26068   26070
   26072   26071   26073   26075   26074   26076   26078   26077   26079
   26081   26080   26082   26084   26083   26085   26087   26086   26088
   26090   26089   26091   26093   26092   26094   26096   26095   26097
   26099   26098   26100   26102   26101   26103   26105   26104   26106
   26108   26107   26109   26111   26110   26112   26114   26113   26115
   26117   26116   26118   26120   26119   26121   26123   26122   26124
   26126   26125   26127   26129   26128   26130   26132   26131   26133
   26135   26134   26136   26138   26137   26139   26141   26140   26142
   26144   26143   26145   26147   26146   26148   26150   26149   26151
   26153   26152   26154   26156   26155   26157   26159   26158   26160
   26162   26161   26163   26165   26164   26166   26168   26167   26169
   26171   26170   26172   26174   26173   26175   26177   26176   26178
   26180   26179   26181   26183   26182   26184   26186   26185   26187
   26189   26188   26190   26192   26191   26193   26195   26194   26196
   26198   26197   26199   26201   26200   26202   26204   26203   26205
   26207   26206   26208   26210   26209   26211   26213   26212   26214
   26216   26215   26217   26219   26218   26220   26222   26221   26223
   26225   26224   26226   26228   26227   26229   26231   26230   26232
   26234   26233   26235   26237   26236   26238   26240   26239   26241
   26243   26242   26244   26246   26245   26247   26249   26248   26250
   26252   26251   26253   26255   26254   26256   26258   26257   26259
   26261   26260   26262   26264   26263   26265   26267   26266   26268
   26270   26269   26271   26273   26272   26274   26276   26275   26277
   26279   26278   26280   26282   26281   26283   26285   26284   26286
   26288   26287   26289   26291   26290   26292   26294   26293   26295
   26297   26296   26298   26300   26299   26301   26303   26302   26304
   26306   26305   26307   26309   26308   26310   26312   26311   26313
   26315   26314   26316   26318   26317   26319   26321   26320   26322
   26324   26323   26325   26327   26326   26328   26330   26329   26331
   26333   26332   26334   26336   26335   26337   26339   26338   26340
   26342   26341   26343   26345   26344   26346   26348   26347   26349
   26351   26350   26352   26354   26353   26355   26357   26356   26358
   26360   26359   26361   26363   26362   26364   26366   26365   26367
   26369   26368   26370   26372   26371   26373   26375   26374   26376
   26378   26377   26379   26381   26380   26382   26384   26383   26385
   26387   26386   26388   26390   26389   26391   26393   26392   26394
   26396   26395   26397   26399   26398   26400   26402   26401   26403
   26405   26404   26406   26408   26407   26409   26411   26410   26412
   26414   26413   26415   26417   26416   26418   26420   26419   26421
   26423   26422   26424   26426   26425   26427   26429   26428   26430
   26432   26431   26433   26435   26434   26436   26438   26437   26439
   26441   26440   26442   26444   26443   26445   26447   26446   26448
   26450   26449   26451   26453   26452   26454   26456   26455   26457
   26459   26458   26460   26462   26461   26463   26465   26464   26466
   26468   26467   26469   26471   26470   26472   26474   26473   26475
   26477   26476   26478   26480   26479   26481   26483   26482   26484
   26486   26485   26487   26489   26488   26490   26492   26491   26493
   26495   26494   26496   26498   26497   26499   26501   26500   26502
   26504   26503   26505   26507   26506   26508   26510   26509   26511
   26513   26512   26514   26516   26515   26517   26519   26518   26520
   26522   26521   26523   26525   26524   26526   26528   26527   26529
   26531   26530   26532   26534   26533   26535   26537   26536   26538
   26540   26539   26541   26543   26542   26544   26546   26545   26547
   26549   26548   26550   26552   26551   26553   26555   26554   26556
   26558   26557   26559   26561   26560   26562   26564   26563   26565
   26567   26566   26568   26570   26569   26571   26573   26572   26574
   26576   26575   26577   26579   26578   26580   26582   26581   26583
   26585   26584   26586   26588   26587   26589   26591   26590   26592
   26594   26593   26595   26597   26596   26598   26600   26599   26601
   26603   26602   26604   26606   26605   26607   26609   26608   26610
   26612   26611   26613   26615   26614   26616   26618   26617   26619
   26621   26620   26622   26624   26623   26625   26627   26626   26628
   26630   26629   26631   26633   26632   26634   26636   26635   26637
   26639   26638   26640   26642   26641   26643   26645   26644   26646
   26648   26647   26649   26651   26650   26652   26654   26653   26655
   26657   26656   26658   26660   26659   26661   26663   26662   26664
   26666   26665   26667   26669   26668   26670   26672   26671   26673
   26675   26674   26676   26678   26677   26679   26681   26680   26682
   26684   26683   26685   26687   26686   26688   26690   26689   26691
   26693   26692   26694   26696   26695   26697   26699   26698   26700
   26702   26701   26703   26705   26704   26706   26708   26707   26709
   26711   26710   26712   26714   26713   26715   26717   26716   26718
   26720   26719   26721   26723   26722   26724   26726   26725   26727
   26729   26728   26730   26732   26731   26733   26735   26734   26736
   26738   26737   26739   26741   26740   26742   26744   26743   26745
   26747   26746   26748   26750   26749   26751   26753   26752   26754
   26756   26755   26757   26759   26758   26760   26762   26761   26763
   26765   26764   26766   26768   26767   26769   26771   26770   26772
   26774   26773   26775   26777   26776   26778   26780   26779   26781
   26783   26782   26784   26786   26785   26787   26789   26788   26790
   26792   26791   26793   26795   26794   26796   26798   26797   26799
   26801   26800   26802   26804   26803   26805   26807   26806   26808
   26810   26809   26811   26813   26812   26814   26816   26815   26817
   26819   26818   26820   26822   26821   26823   26825   26824   26826
   26828   26827   26829   26831   26830   26832   26834   26833   26835
   26837   26836   26838   26840   26839   26841   26843   26842   26844
   26846   26845   26847   26849   26848   26850   26852   26851   26853
   26855   26854   26856   26858   26857   26859   26861   26860   26862
   26864   26863   26865   26867   26866   26868   26870   26869   26871
   26873   26872   26874   26876   26875   26877   26879   26878   26880
   26882   26881   26883   26885   26884   26886   26888   26887   26889
   26891   26890   26892   26894   26893   26895   26897   26896   26898
   26900   26899   26901   26903   26902   26904   26906   26905   26907
   26909   26908   26910   26912   26911   26913   26915   26914   26916
   26918   26917   26919   26921   26920   26922   26924   26923   26925
   26927   26926   26928   26930   26929   26931   26933   26932   26934
   26936   26935   26937   26939   26938   26940   26942   26941   26943
   26945   26944   26946   26948   26947   26949   26951   26950   26952
   26954   26953   26955   26957   26956   26958   26960   26959   26961
   26963   26962   26964   26966   26965   26967   26969   26968   26970
   26972   26971   26973   26975   26974   26976   26978   26977   26979
   26981   26980   26982   26984   26983   26985   26987   26986   26988
   26990   26989   26991   26993   26992   26994   26996   26995   26997
   26999   26998   27000   27002   27001   27003   27005   27004   27006
   27008   27007   27009   27011   27010   27012   27014   27013   27015
   27017   27016   27018   27020   27019   27021   27023   27022   27024
   27026   27025   27027   27029   27028   27030   27032   27031   27033
   27035   27034   27036   27038   27037   27039   27041   27040   27042
   27044   27043   27045   27047   27046   27048   27050   27049   27051
   27053   27052   27054   27056   27055   27057   27059   27058   27060
   27062   27061   27063   27065   27064   27066   27068   27067   27069
   27071   27070   27072   27074   27073   27075   27077   27076   27078
   27080   27079   27081   27083   27082   27084   27086   27085   27087
   27089   27088   27090   27092   27091   27093   27095   27094   27096
   27098   27097   27099   27101   27100   27102   27104   27103   27105
   27107   27106   27108   27110   27109   27111   27113   27112   27114
   27116   27115   27117   27119   27118   27120   27122   27121   27123
   27125   27124   27126   27128   27127   27129   27131   27130   27132
   27134   27133   27135   27137   27136   27138   27140   27139   27141
   27143   27142   27144   27146   27145   27147   27149   27148   27150
   27152   27151   27153   27155   27154   27156   27158   27157   27159
   27161   27160   27162   27164   27163   27165   27167   27166   27168
   27170   27169   27171   27173   27172   27174   27176   27175   27177
   27179   27178   27180   27182   27181   27183   27185   27184   27186
   27188   27187   27189   27191   27190   27192   27194   27193   27195
   27197   27196   27198   27200   27199   27201   27203   27202   27204
   27206   27205   27207   27209   27208   27210   27212   27211   27213
   27215   27214   27216   27218   27217   27219   27221   27220   27222
   27224   27223   27225   27227   27226   27228   27230   27229   27231
   27233   27232   27234   27236   27235   27237   27239   27238   27240
   27242   27241   27243   27245   27244   27246   27248   27247   27249
   27251   27250   27252   27254   27253   27255   27257   27256   27258
   27260   27259   27261   27263   27262   27264   27266   27265   27267
   27269   27268   27270   27272   27271   27273   27275   27274   27276
   27278   27277   27279   27281   27280   27282   27284   27283   27285
   27287   27286   27288   27290   27289   27291   27293   27292   27294
   27296   27295   27297   27299   27298   27300   27302   27301   27303
   27305   27304   27306   27308   27307   27309   27311   27310   27312
   27314   27313   27315   27317   27316   27318   27320   27319   27321
   27323   27322   27324   27326   27325   27327   27329   27328   27330
   27332   27331   27333   27335   27334   27336   27338   27337   27339
   27341   27340   27342   27344   27343   27345   27347   27346   27348
   27350   27349   27351   27353   27352   27354   27356   27355   27357
   27359   27358   27360   27362   27361   27363   27365   27364   27366
   27368   27367   27369   27371   27370   27372   27374   27373   27375
   27377   27376   27378   27380   27379   27381   27383   27382   27384
   27386   27385   27387   27389   27388   27390   27392   27391   27393
   27395   27394   27396   27398   27397   27399   27401   27400   27402
   27404   27403   27405   27407   27406   27408   27410   27409   27411
   27413   27412   27414   27416   27415   27417   27419   27418   27420
   27422   27421   27423   27425   27424   27426   27428   27427   27429
   27431   27430   27432   27434   27433   27435   27437   27436   27438
   27440   27439   27441   27443   27442   27444   27446   27445   27447
   27449   27448   27450   27452   27451   27453   27455   27454   27456
   27458   27457   27459   27461   27460   27462   27464   27463   27465
   27467   27466   27468   27470   27469   27471   27473   27472   27474
   27476   27475   27477   27479   27478   27480   27482   27481   27483
   27485   27484   27486   27488   27487   27489   27491   27490   27492
   27494   27493   27495   27497   27496   27498   27500   27499   27501
   27503   27502   27504   27506   27505   27507   27509   27508   27510
   27512   27511   27513   27515   27514   27516   27518   27517   27519
   27521   27520   27522   27524   27523   27525   27527   27526   27528
   27530   27529   27531   27533   27532   27534   27536   27535   27537
   27539   27538   27540   27542   27541   27543   27545   27544   27546
   27548   27547   27549   27551   27550   27552   27554   27553   27555
   27557   27556   27558   27560   27559   27561   27563   27562   27564
   27566   27565   27567   27569   27568   27570   27572   27571   27573
   27575   27574   27576   27578   27577   27579   27581   27580   27582
   27584   27583   27585   27587   27586   27588   27590   27589   27591
   27593   27592   27594   27596   27595   27597   27599   27598   27600
   27602   27601   27603   27605   27604   27606   27608   27607   27609
   27611   27610   27612   27614   27613   27615   27617   27616   27618
   27620   27619   27621   27623   27622   27624   27626   27625   27627
   27629   27628   27630   27632   27631   27633   27635   27634   27636
   27638   27637   27639   27641   27640   27642   27644   27643   27645
   27647   27646   27648   27650   27649   27651   27653   27652   27654
   27656   27655   27657   27659   27658   27660   27662   27661   27663
   27665   27664   27666   27668   27667   27669   27671   27670   27672
   27674   27673   27675   27677   27676   27678   27680   27679   27681
   27683   27682   27684   27686   27685   27687   27689   27688   27690
   27692   27691   27693   27695   27694   27696   27698   27697   27699
   27701   27700   27702   27704   27703   27705   27707   27706   27708
   27710   27709   27711   27713   27712   27714   27716   27715   27717
   27719   27718   27720   27722   27721   27723   27725   27724   27726
   27728   27727   27729   27731   27730   27732   27734   27733   27735
   27737   27736   27738   27740   27739   27741   27743   27742   27744
   27746   27745   27747   27749   27748   27750   27752   27751   27753
   27755   27754   27756   27758   27757   27759   27761   27760   27762
   27764   27763   27765   27767   27766   27768   27770   27769   27771
   27773   27772   27774   27776   27775   27777   27779   27778   27780
   27782   27781   27783   27785   27784   27786   27788   27787   27789
   27791   27790   27792   27794   27793   27795   27797   27796   27798
   27800   27799   27801   27803   27802   27804   27806   27805   27807
   27809   27808   27810   27812   27811   27813   27815   27814   27816
   27818   27817   27819   27821   27820   27822   27824   27823   27825
   27827   27826   27828   27830   27829   27831   27833   27832   27834
   27836   27835   27837   27839   27838   27840   27842   27841   27843
   27845   27844   27846   27848   27847   27849   27851   27850   27852
   27854   27853   27855   27857   27856   27858   27860   27859   27861
   27863   27862   27864   27866   27865   27867   27869   27868   27870
   27872   27871   27873   27875   27874   27876   27878   27877   27879
   27881   27880   27882   27884   27883   27885   27887   27886   27888
   27890   27889   27891   27893   27892   27894   27896   27895   27897
   27899   27898   27900   27902   27901   27903   27905   27904   27906
   27908   27907   27909   27911   27910   27912   27914   27913   27915
   27917   27916   27918   27920   27919   27921   27923   27922   27924
   27926   27925   27927   27929   27928   27930   27932   27931   27933
   27935   27934   27936   27938   27937   27939   27941   27940   27942
   27944   27943   27945   27947   27946   27948   27950   27949   27951
   27953   27952   27954   27956   27955   27957   27959   27958   27960
   27962   27961   27963   27965   27964   27966   27968   27967   27969
   27971   27970   27972   27974   27973   27975   27977   27976   27978
   27980   27979   27981   27983   27982   27984   27986   27985   27987
   27989   27988   27990   27992   27991   27993   27995   27994   27996
   27998   27997   27999   28001   28000   28002   28004   28003   28005
   28007   28006   28008   28010   28009   28011   28013   28012   28014
   28016   28015   28017   28019   28018   28020   28022   28021   28023
   28025   28024   28026   28028   28027   28029   28031   28030   28032
   28034   28033   28035   28037   28036   28038   28040   28039   28041
   28043   28042   28044   28046   28045   28047   28049   28048   28050
   28052   28051   28053   28055   28054   28056   28058   28057   28059
   28061   28060   28062   28064   28063   28065   28067   28066   28068
   28070   28069   28071   28073   28072   28074   28076   28075   28077
   28079   28078   28080   28082   28081   28083   28085   28084   28086
   28088   28087   28089   28091   28090   28092   28094   28093   28095
   28097   28096   28098   28100   28099   28101   28103   28102   28104
   28106   28105   28107   28109   28108   28110   28112   28111   28113
   28115   28114   28116   28118   28117   28119   28121   28120   28122
   28124   28123   28125   28127   28126   28128   28130   28129   28131
   28133   28132   28134   28136   28135   28137   28139   28138   28140
   28142   28141   28143   28145   28144   28146   28148   28147   28149
   28151   28150   28152   28154   28153   28155   28157   28156   28158
   28160   28159   28161   28163   28162   28164   28166   28165   28167
   28169   28168   28170   28172   28171   28173   28175   28174   28176
   28178   28177   28179   28181   28180   28182   28184   28183   28185
   28187   28186   28188   28190   28189   28191   28193   28192   28194
   28196   28195   28197   28199   28198   28200   28202   28201   28203
   28205   28204   28206   28208   28207   28209   28211   28210   28212
   28214   28213   28215   28217   28216   28218   28220   28219   28221
   28223   28222   28224   28226   28225   28227   28229   28228   28230
   28232   28231   28233   28235   28234   28236   28238   28237   28239
   28241   28240   28242   28244   28243   28245   28247   28246   28248
   28250   28249   28251   28253   28252   28254   28256   28255   28257
   28259   28258   28260   28262   28261   28263   28265   28264   28266
   28268   28267   28269   28271   28270   28272   28274   28273   28275
   28277   28276   28278   28280   28279   28281   28283   28282   28284
   28286   28285   28287   28289   28288   28290   28292   28291   28293
   28295   28294   28296   28298   28297   28299   28301   28300   28302
   28304   28303   28305   28307   28306   28308   28310   28309   28311
   28313   28312   28314   28316   28315   28317   28319   28318   28320
   28322   28321   28323   28325   28324   28326   28328   28327   28329
   28331   28330   28332   28334   28333   28335   28337   28336   28338
   28340   28339   28341   28343   28342   28344   28346   28345   28347
   28349   28348   28350   28352   28351   28353   28355   28354   28356
   28358   28357   28359   28361   28360   28362   28364   28363   28365
   28367   28366   28368   28370   28369   28371   28373   28372   28374
   28376   28375   28377   28379   28378   28380   28382   28381   28383
   28385   28384   28386   28388   28387   28389   28391   28390   28392
   28394   28393   28395   28397   28396   28398   28400   28399   28401
   28403   28402   28404   28406   28405   28407   28409   28408   28410
   28412   28411   28413   28415   28414   28416   28418   28417   28419
   28421   28420   28422   28424   28423   28425   28427   28426   28428
   28430   28429   28431   28433   28432   28434   28436   28435   28437
   28439   28438   28440   28442   28441   28443   28445   28444   28446
   28448   28447   28449   28451   28450   28452   28454   28453   28455
   28457   28456   28458   28460   28459   28461   28463   28462   28464
   28466   28465   28467   28469   28468   28470   28472   28471   28473
   28475   28474   28476   28478   28477   28479   28481   28480   28482
   28484   28483   28485   28487   28486   28488   28490   28489   28491
   28493   28492   28494   28496   28495   28497   28499   28498   28500
   28502   28501   28503   28505   28504   28506   28508   28507   28509
   28511   28510   28512   28514   28513   28515   28517   28516   28518
   28520   28519   28521   28523   28522   28524   28526   28525   28527
   28529   28528   28530   28532   28531   28533   28535   28534   28536
   28538   28537   28539   28541   28540   28542   28544   28543   28545
   28547   28546   28548   28550   28549   28551   28553   28552   28554
   28556   28555   28557   28559   28558   28560   28562   28561   28563
   28565   28564   28566   28568   28567   28569   28571   28570   28572
   28574   28573   28575   28577   28576   28578   28580   28579   28581
   28583   28582   28584   28586   28585   28587   28589   28588   28590
   28592   28591   28593   28595   28594   28596   28598   28597   28599
   28601   28600   28602   28604   28603   28605   28607   28606   28608
   28610   28609   28611   28613   28612   28614   28616   28615   28617
   28619   28618   28620   28622   28621   28623   28625   28624   28626
   28628   28627   28629   28631   28630   28632   28634   28633   28635
   28637   28636   28638   28640   28639   28641   28643   28642   28644
   28646   28645   28647   28649   28648   28650   28652   28651   28653
   28655   28654   28656   28658   28657   28659   28661   28660   28662
   28664   28663   28665   28667   28666   28668   28670   28669   28671
   28673   28672   28674   28676   28675   28677   28679   28678   28680
   28682   28681   28683   28685   28684   28686   28688   28687   28689
   28691   28690   28692   28694   28693   28695   28697   28696   28698
   28700   28699   28701   28703   28702   28704   28706   28705   28707
   28709   28708   28710   28712   28711   28713   28715   28714   28716
   28718   28717   28719   28721   28720   28722   28724   28723   28725
   28727   28726   28728   28730   28729   28731   28733   28732   28734
   28736   28735   28737   28739   28738   28740   28742   28741   28743
   28745   28744   28746   28748   28747   28749   28751   28750   28752
   28754   28753   28755   28757   28756   28758   28760   28759   28761
   28763   28762   28764   28766   28765   28767   28769   28768   28770
   28772   28771   28773   28775   28774   28776   28778   28777   28779
   28781   28780   28782   28784   28783   28785   28787   28786   28788
   28790   28789   28791   28793   28792   28794   28796   28795   28797
   28799   28798   28800   28802   28801   28803   28805   28804   28806
   28808   28807   28809   28811   28810   28812   28814   28813   28815
   28817   28816   28818   28820   28819   28821   28823   28822   28824
   28826   28825   28827   28829   28828   28830   28832   28831   28833
   28835   28834   28836   28838   28837   28839   28841   28840   28842
   28844   28843   28845   28847   28846   28848   28850   28849   28851
   28853   28852   28854   28856   28855   28857   28859   28858   28860
   28862   28861   28863   28865   28864   28866   28868   28867   28869
   28871   28870   28872   28874   28873   28875   28877   28876   28878
   28880   28879   28881   28883   28882   28884   28886   28885   28887
   28889   28888   28890   28892   28891   28893   28895   28894   28896
   28898   28897   28899   28901   28900   28902   28904   28903   28905
   28907   28906   28908   28910   28909   28911   28913   28912   28914
   28916   28915   28917   28919   28918   28920   28922   28921   28923
   28925   28924   28926   28928   28927   28929   28931   28930   28932
   28934   28933   28935   28937   28936   28938   28940   28939   28941
   28943   28942   28944   28946   28945   28947   28949   28948   28950
   28952   28951   28953   28955   28954   28956   28958   28957   28959
   28961   28960   28962   28964   28963   28965   28967   28966   28968
   28970   28969   28971   28973   28972   28974   28976   28975   28977
   28979   28978   28980   28982   28981   28983   28985   28984   28986
   28988   28987   28989   28991   28990   28992   28994   28993   28995
   28997   28996   28998   29000   28999   29001   29003   29002   29004
   29006   29005   29007   29009   29008   29010   29012   29011   29013
   29015   29014   29016   29018   29017   29019   29021   29020   29022
   29024   29023   29025   29027   29026   29028   29030   29029   29031
   29033   29032   29034   29036   29035   29037   29039   29038   29040
   29042   29041   29043   29045   29044   29046   29048   29047   29049
   29051   29050   29052   29054   29053   29055   29057   29056   29058
   29060   29059   29061   29063   29062   29064   29066   29065   29067
   29069   29068   29070   29072   29071   29073   29075   29074   29076
   29078   29077   29079   29081   29080   29082   29084   29083   29085
   29087   29086   29088   29090   29089   29091   29093   29092   29094
   29096   29095   29097   29099   29098   29100   29102   29101   29103
   29105   29104   29106   29108   29107   29109   29111   29110   29112
   29114   29113   29115   29117   29116   29118   29120   29119   29121
   29123   29122   29124   29126   29125   29127   29129   29128   29130
   29132   29131   29133   29135   29134   29136   29138   29137   29139
   29141   29140   29142   29144   29143   29145   29147   29146   29148
   29150   29149   29151   29153   29152   29154   29156   29155   29157
   29159   29158   29160   29162   29161   29163   29165   29164   29166
   29168   29167   29169   29171   29170   29172   29174   29173   29175
   29177   29176   29178   29180   29179   29181   29183   29182   29184
   29186   29185   29187   29189   29188   29190   29192   29191   29193
   29195   29194   29196   29198   29197   29199   29201   29200   29202
   29204   29203   29205   29207   29206   29208   29210   29209   29211
   29213   29212   29214   29216   29215   29217   29219   29218   29220
   29222   29221   29223   29225   29224   29226   29228   29227   29229
   29231   29230   29232   29234   29233   29235   29237   29236   29238
   29240   29239   29241   29243   29242   29244   29246   29245   29247
   29249   29248   29250   29252   29251   29253   29255   29254   29256
   29258   29257   29259   29261   29260   29262   29264   29263   29265
   29267   29266   29268   29270   29269   29271   29273   29272   29274
   29276   29275   29277   29279   29278   29280   29282   29281   29283
   29285   29284   29286   29288   29287   29289   29291   29290   29292
   29294   29293   29295   29297   29296   29298   29300   29299   29301
   29303   29302   29304   29306   29305   29307   29309   29308   29310
   29312   29311   29313   29315   29314   29316   29318   29317   29319
   29321   29320   29322   29324   29323   29325   29327   29326   29328
   29330   29329   29331   29333   29332   29334   29336   29335   29337
   29339   29338   29340   29342   29341   29343   29345   29344   29346
   29348   29347   29349   29351   29350   29352   29354   29353   29355
   29357   29356   29358   29360   29359   29361   29363   29362   29364
   29366   29365   29367   29369   29368   29370   29372   29371   29373
   29375   29374   29376   29378   29377   29379   29381   29380   29382
   29384   29383   29385   29387   29386   29388   29390   29389   29391
   29393   29392   29394   29396   29395   29397   29399   29398   29400
   29402   29401   29403   29405   29404   29406   29408   29407   29409
   29411   29410   29412   29414   29413   29415   29417   29416   29418
   29420   29419   29421   29423   29422   29424   29426   29425   29427
   29429   29428   29430   29432   29431   29433   29435   29434   29436
   29438   29437   29439   29441   29440   29442   29444   29443   29445
   29447   29446   29448   29450   29449   29451   29453   29452   29454
   29456   29455   29457   29459   29458   29460   29462   29461   29463
   29465   29464   29466   29468   29467   29469   29471   29470   29472
   29474   29473   29475   29477   29476   29478   29480   29479   29481
   29483   29482   29484   29486   29485   29487   29489   29488   29490
   29492   29491   29493   29495   29494   29496   29498   29497   29499
   29501   29500   29502   29504   29503   29505   29507   29506   29508
   29510   29509   29511   29513   29512   29514   29516   29515   29517
   29519   29518   29520   29522   29521   29523   29525   29524   29526
   29528   29527   29529   29531   29530   29532   29534   29533   29535
   29537   29536   29538   29540   29539   29541   29543   29542   29544
   29546   29545   29547   29549   29548   29550   29552   29551   29553
   29555   29554   29556   29558   29557   29559   29561   29560   29562
   29564   29563   29565   29567   29566   29568   29570   29569   29571
   29573   29572   29574   29576   29575   29577   29579   29578   29580
   29582   29581   29583   29585   29584   29586   29588   29587   29589
   29591   29590   29592   29594   29593   29595   29597   29596   29598
   29600   29599   29601   29603   29602   29604   29606   29605   29607
   29609   29608   29610   29612   29611   29613   29615   29614   29616
   29618   29617   29619   29621   29620   29622   29624   29623   29625
   29627   29626   29628   29630   29629   29631   29633   29632   29634
   29636   29635   29637   29639   29638   29640   29642   29641   29643
   29645   29644   29646   29648   29647   29649   29651   29650   29652
   29654   29653   29655   29657   29656   29658   29660   29659   29661
   29663   29662   29664   29666   29665   29667   29669   29668   29670
   29672   29671   29673   29675   29674   29676   29678   29677   29679
   29681   29680   29682   29684   29683   29685   29687   29686   29688
   29690   29689   29691   29693   29692   29694   29696   29695   29697
   29699   29698   29700   29702   29701   29703   29705   29704   29706
   29708   29707   29709   29711   29710   29712   29714   29713   29715
   29717   29716   29718   29720   29719   29721   29723   29722   29724
   29726   29725   29727   29729   29728   29730   29732   29731   29733
   29735   29734   29736   29738   29737   29739   29741   29740   29742
   29744   29743   29745   29747   29746   29748   29750   29749   29751
   29753   29752   29754   29756   29755   29757   29759   29758   29760
   29762   29761   29763   29765   29764   29766   29768   29767   29769
   29771   29770   29772   29774   29773   29775   29777   29776   29778
   29780   29779   29781   29783   29782   29784   29786   29785   29787
   29789   29788   29790   29792   29791   29793   29795   29794   29796
   29798   29797   29799   29801   29800   29802   29804   29803   29805
   29807   29806   29808   29810   29809   29811   29813   29812   29814
   29816   29815   29817   29819   29818   29820   29822   29821   29823
   29825   29824   29826   29828   29827   29829   29831   29830   29832
   29834   29833   29835   29837   29836   29838   29840   29839   29841
   29843   29842   29844   29846   29845   29847   29849   29848   29850
   29852   29851   29853   29855   29854   29856   29858   29857   29859
   29861   29860   29862   29864   29863   29865   29867   29866   29868
   29870   29869   29871   29873   29872   29874   29876   29875   29877
   29879   29878   29880   29882   29881   29883   29885   29884   29886
   29888   29887   29889   29891   29890   29892   29894   29893   29895
   29897   29896   29898   29900   29899   29901   29903   29902   29904
   29906   29905   29907   29909   29908   29910   29912   29911   29913
   29915   29914   29916   29918   29917   29919   29921   29920   29922
   29924   29923   29925   29927   29926   29928   29930   29929   29931
   29933   29932   29934   29936   29935   29937   29939   29938   29940
   29942   29941   29943   29945   29944   29946   29948   29947   29949
   29951   29950   29952   29954   29953   29955   29957   29956   29958
   29960   29959   29961   29963   29962   29964   29966   29965   29967
   29969   29968   29970   29972   29971   29973   29975   29974   29976
   29978   29977   29979   29981   29980   29982   29984   29983   29985
   29987   29986   29988   29990   29989   29991   29993   29992   29994
   29996   29995   29997   29999   29998   30000   30002   30001   30003
   30005   30004   30006   30008   30007   30009   30011   30010   30012
   30014   30013   30015   30017   30016   30018   30020   30019   30021
   30023   30022   30024   30026   30025   30027   30029   30028   30030
   30032   30031   30033   30035   30034   30036   30038   30037   30039
   30041   30040   30042   30044   30043   30045   30047   30046   30048
   30050   30049   30051   30053   30052   30054   30056   30055   30057
   30059   30058   30060   30062   30061   30063   30065   30064   30066
   30068   30067   30069   30071   30070   30072   30074   30073   30075
   30077   30076   30078   30080   30079   30081   30083   30082   30084
   30086   30085   30087   30089   30088   30090   30092   30091   30093
   30095   30094   30096   30098   30097   30099   30101   30100   30102
   30104   30103   30105   30107   30106   30108   30110   30109   30111
   30113   30112   30114   30116   30115   30117   30119   30118   30120
   30122   30121   30123   30125   30124   30126   30128   30127   30129
   30131   30130   30132   30134   30133   30135   30137   30136   30138
   30140   30139   30141   30143   30142   30144   30146   30145   30147
   30149   30148   30150   30152   30151   30153   30155   30154   30156
   30158   30157   30159   30161   30160   30162   30164   30163   30165
   30167   30166   30168   30170   30169   30171   30173   30172   30174
   30176   30175   30177   30179   30178   30180   30182   30181   30183
   30185   30184   30186   30188   30187   30189   30191   30190   30192
   30194   30193   30195   30197   30196   30198   30200   30199   30201
   30203   30202   30204   30206   30205   30207   30209   30208   30210
   30212   30211   30213   30215   30214   30216   30218   30217   30219
   30221   30220   30222   30224   30223   30225   30227   30226   30228
   30230   30229   30231   30233   30232   30234   30236   30235   30237
   30239   30238   30240   30242   30241   30243   30245   30244   30246
   30248   30247   30249   30251   30250   30252   30254   30253   30255
   30257   30256   30258   30260   30259   30261   30263   30262   30264
   30266   30265   30267   30269   30268   30270   30272   30271   30273
   30275   30274   30276   30278   30277   30279   30281   30280   30282
   30284   30283   30285   30287   30286   30288   30290   30289   30291
   30293   30292   30294   30296   30295   30297   30299   30298   30300
   30302   30301   30303   30305   30304   30306   30308   30307   30309
   30311   30310   30312   30314   30313   30315   30317   30316   30318
   30320   30319   30321   30323   30322   30324   30326   30325   30327
   30329   30328   30330   30332   30331   30333   30335   30334   30336
   30338   30337   30339   30341   30340   30342   30344   30343   30345
   30347   30346   30348   30350   30349   30351   30353   30352   30354
   30356   30355   30357   30359   30358   30360   30362   30361   30363
   30365   30364   30366   30368   30367   30369   30371   30370   30372
   30374   30373   30375   30377   30376   30378   30380   30379   30381
   30383   30382   30384   30386   30385   30387   30389   30388   30390
   30392   30391   30393   30395   30394   30396   30398   30397   30399
   30401   30400   30402   30404   30403   30405   30407   30406   30408
   30410   30409   30411   30413   30412   30414   30416   30415   30417
   30419   30418   30420   30422   30421   30423   30425   30424   30426
   30428   30427   30429   30431   30430   30432   30434   30433   30435
   30437   30436   30438   30440   30439   30441   30443   30442   30444
   30446   30445   30447   30449   30448   30450   30452   30451   30453
   30455   30454   30456   30458   30457   30459   30461   30460   30462
   30464   30463   30465   30467   30466   30468   30470   30469   30471
   30473   30472   30474   30476   30475   30477   30479   30478   30480
   30482   30481   30483   30485   30484   30486   30488   30487   30489
   30491   30490   30492   30494   30493   30495   30497   30496   30498
   30500   30499   30501   30503   30502   30504   30506   30505   30507
   30509   30508   30510   30512   30511   30513   30515   30514   30516
   30518   30517   30519   30521   30520   30522   30524   30523   30525
   30527   30526   30528   30530   30529   30531   30533   30532   30534
   30536   30535   30537   30539   30538   30540   30542   30541   30543
   30545   30544   30546   30548   30547   30549   30551   30550   30552
   30554   30553   30555   30557   30556   30558   30560   30559   30561
   30563   30562   30564   30566   30565   30567   30569   30568   30570
   30572   30571   30573   30575   30574   30576   30578   30577   30579
   30581   30580   30582   30584   30583   30585   30587   30586   30588
   30590   30589   30591   30593   30592   30594   30596   30595   30597
   30599   30598   30600   30602   30601   30603   30605   30604   30606
   30608   30607   30609   30611   30610   30612   30614   30613   30615
   30617   30616   30618   30620   30619   30621   30623   30622   30624
   30626   30625   30627   30629   30628   30630   30632   30631   30633
   30635   30634   30636   30638   30637   30639   30641   30640   30642
   30644   30643   30645   30647   30646   30648   30650   30649   30651
   30653   30652   30654   30656   30655   30657   30659   30658   30660
   30662   30661   30663   30665   30664   30666   30668   30667   30669
   30671   30670   30672   30674   30673   30675   30677   30676   30678
   30680   30679   30681   30683   30682   30684   30686   30685   30687
   30689   30688   30690   30692   30691   30693   30695   30694   30696
   30698   30697   30699   30701   30700   30702   30704   30703   30705
   30707   30706   30708   30710   30709   30711   30713   30712   30714
   30716   30715   30717   30719   30718   30720   30722   30721   30723
   30725   30724   30726   30728   30727   30729   30731   30730   30732
   30734   30733   30735   30737   30736   30738   30740   30739   30741
   30743   30742   30744   30746   30745   30747   30749   30748   30750
   30752   30751   30753   30755   30754   30756   30758   30757   30759
   30761   30760   30762   30764   30763   30765   30767   30766   30768
   30770   30769   30771   30773   30772   30774   30776   30775   30777
   30779   30778   30780   30782   30781   30783   30785   30784   30786
   30788   30787   30789   30791   30790   30792   30794   30793   30795
   30797   30796   30798   30800   30799   30801   30803   30802   30804
   30806   30805   30807   30809   30808   30810   30812   30811   30813
   30815   30814   30816   30818   30817   30819   30821   30820   30822
   30824   30823   30825   30827   30826   30828   30830   30829   30831
   30833   30832   30834   30836   30835   30837   30839   30838   30840
   30842   30841   30843   30845   30844   30846   30848   30847   30849
   30851   30850   30852   30854   30853   30855   30857   30856   30858
   30860   30859   30861   30863   30862   30864   30866   30865   30867
   30869   30868   30870   30872   30871   30873   30875   30874   30876
   30878   30877   30879   30881   30880   30882   30884   30883   30885
   30887   30886   30888   30890   30889   30891   30893   30892   30894
   30896   30895   30897   30899   30898   30900   30902   30901   30903
   30905   30904   30906   30908   30907   30909   30911   30910   30912
   30914   30913   30915   30917   30916   30918   30920   30919   30921
   30923   30922   30924   30926   30925   30927   30929   30928   30930
   30932   30931   30933   30935   30934   30936   30938   30937   30939
   30941   30940   30942   30944   30943   30945   30947   30946   30948
   30950   30949   30951   30953   30952   30954   30956   30955   30957
   30959   30958   30960   30962   30961   30963   30965   30964   30966
   30968   30967   30969   30971   30970   30972   30974   30973   30975
   30977   30976   30978   30980   30979   30981   30983   30982   30984
   30986   30985   30987   30989   30988   30990   30992   30991   30993
   30995   30994   30996   30998   30997   30999   31001   31000   31002
   31004   31003   31005   31007   31006   31008   31010   31009   31011
   31013   31012   31014   31016   31015   31017   31019   31018   31020
   31022   31021   31023   31025   31024   31026   31028   31027   31029
   31031   31030   31032   31034   31033   31035   31037   31036   31038
   31040   31039   31041   31043   31042   31044   31046   31045   31047
   31049   31048   31050   31052   31051   31053   31055   31054   31056
   31058   31057   31059   31061   31060   31062   31064   31063   31065
   31067   31066   31068   31070   31069   31071   31073   31072   31074
   31076   31075   31077   31079   31078   31080   31082   31081   31083
   31085   31084   31086   31088   31087   31089   31091   31090   31092
   31094   31093   31095   31097   31096   31098   31100   31099   31101
   31103   31102   31104   31106   31105   31107   31109   31108   31110
   31112   31111   31113   31115   31114   31116   31118   31117   31119
   31121   31120   31122   31124   31123   31125   31127   31126   31128
   31130   31129   31131   31133   31132   31134   31136   31135   31137
   31139   31138   31140   31142   31141   31143   31145   31144   31146
   31148   31147   31149   31151   31150   31152   31154   31153   31155
   31157   31156   31158   31160   31159   31161   31163   31162   31164
   31166   31165   31167   31169   31168   31170   31172   31171   31173
   31175   31174   31176   31178   31177   31179   31181   31180   31182
   31184   31183   31185   31187   31186   31188   31190   31189   31191
   31193   31192   31194   31196   31195   31197   31199   31198   31200
   31202   31201   31203   31205   31204   31206   31208   31207   31209
   31211   31210   31212   31214   31213   31215   31217   31216   31218
   31220   31219   31221   31223   31222   31224   31226   31225   31227
   31229   31228   31230   31232   31231   31233   31235   31234   31236
   31238   31237   31239   31241   31240   31242   31244   31243   31245
   31247   31246   31248   31250   31249   31251   31253   31252   31254
   31256   31255   31257   31259   31258   31260   31262   31261   31263
   31265   31264   31266   31268   31267   31269   31271   31270   31272
   31274   31273   31275   31277   31276   31278   31280   31279   31281
   31283   31282   31284   31286   31285   31287   31289   31288   31290
   31292   31291   31293   31295   31294   31296   31298   31297   31299
   31301   31300   31302   31304   31303   31305   31307   31306   31308
   31310   31309   31311   31313   31312   31314   31316   31315   31317
   31319   31318   31320   31322   31321   31323   31325   31324   31326
   31328   31327   31329   31331   31330   31332   31334   31333   31335
   31337   31336   31338   31340   31339   31341   31343   31342   31344
   31346   31345   31347   31349   31348   31350   31352   31351   31353
   31355   31354   31356   31358   31357   31359   31361   31360   31362
   31364   31363   31365   31367   31366   31368   31370   31369   31371
   31373   31372   31374   31376   31375   31377   31379   31378   31380
   31382   31381   31383   31385   31384   31386   31388   31387   31389
   31391   31390   31392   31394   31393   31395   31397   31396   31398
   31400   31399   31401   31403   31402   31404   31406   31405   31407
   31409   31408   31410   31412   31411   31413   31415   31414   31416
   31418   31417   31419   31421   31420   31422   31424   31423   31425
   31427   31426   31428   31430   31429   31431   31433   31432   31434
   31436   31435   31437   31439   31438   31440   31442   31441   31443
   31445   31444   31446   31448   31447   31449   31451   31450   31452
   31454   31453   31455   31457   31456   31458   31460   31459   31461
   31463   31462   31464   31466   31465   31467   31469   31468   31470
   31472   31471   31473   31475   31474   31476   31478   31477   31479
   31481   31480   31482   31484   31483   31485   31487   31486   31488
   31490   31489   31491   31493   31492   31494   31496   31495   31497
   31499   31498   31500   31502   31501   31503   31505   31504   31506
   31508   31507   31509   31511   31510   31512   31514   31513   31515
   31517   31516   31518   31520   31519   31521   31523   31522   31524
   31526   31525   31527   31529   31528   31530   31532   31531   31533
   31535   31534   31536   31538   31537   31539   31541   31540   31542
   31544   31543   31545   31547   31546   31548   31550   31549   31551
   31553   31552   31554   31556   31555   31557   31559   31558   31560
   31562   31561   31563   31565   31564   31566   31568   31567   31569
   31571   31570   31572   31574   31573   31575   31577   31576   31578
   31580   31579   31581   31583   31582   31584   31586   31585   31587
   31589   31588   31590   31592   31591   31593   31595   31594   31596
   31598   31597   31599   31601   31600   31602   31604   31603   31605
   31607   31606   31608   31610   31609   31611   31613   31612   31614
   31616   31615   31617   31619   31618   31620   31622   31621   31623
   31625   31624   31626   31628   31627   31629   31631   31630   31632
   31634   31633   31635   31637   31636   31638   31640   31639   31641
   31643   31642   31644   31646   31645   31647   31649   31648   31650
   31652   31651   31653   31655   31654   31656   31658   31657   31659
   31661   31660   31662   31664   31663   31665   31667   31666   31668
   31670   31669   31671   31673   31672   31674   31676   31675   31677
   31679   31678   31680   31682   31681   31683   31685   31684   31686
   31688   31687   31689   31691   31690   31692   31694   31693   31695
   31697   31696   31698   31700   31699   31701   31703   31702   31704
   31706   31705   31707   31709   31708   31710   31712   31711   31713
   31715   31714   31716   31718   31717   31719   31721   31720   31722
   31724   31723   31725   31727   31726   31728   31730   31729   31731
   31733   31732   31734   31736   31735   31737   31739   31738   31740
   31742   31741   31743   31745   31744   31746   31748   31747   31749
   31751   31750   31752   31754   31753   31755   31757   31756   31758
   31760   31759   31761   31763   31762   31764   31766   31765   31767
   31769   31768   31770   31772   31771   31773   31775   31774   31776
   31778   31777   31779   31781   31780   31782   31784   31783   31785
   31787   31786   31788   31790   31789   31791   31793   31792   31794
   31796   31795   31797   31799   31798   31800   31802   31801   31803
   31805   31804   31806   31808   31807   31809   31811   31810   31812
   31814   31813   31815   31817   31816   31818   31820   31819   31821
   31823   31822   31824   31826   31825   31827   31829   31828   31830
   31832   31831   31833   31835   31834   31836   31838   31837   31839
   31841   31840   31842   31844   31843   31845   31847   31846   31848
   31850   31849   31851   31853   31852   31854   31856   31855   31857
   31859   31858   31860   31862   31861   31863   31865   31864   31866
   31868   31867   31869   31871   31870   31872   31874   31873   31875
   31877   31876   31878   31880   31879   31881   31883   31882   31884
   31886   31885   31887   31889   31888   31890   31892   31891   31893
   31895   31894   31896   31898   31897   31899   31901   31900   31902
   31904   31903   31905   31907   31906   31908   31910   31909   31911
   31913   31912   31914   31916   31915   31917   31919   31918   31920
   31922   31921   31923   31925   31924   31926   31928   31927   31929
   31931   31930   31932   31934   31933   31935   31937   31936   31938
   31940   31939   31941   31943   31942   31944   31946   31945   31947
   31949   31948   31950   31952   31951   31953   31955   31954   31956
   31958   31957   31959   31961   31960   31962   31964   31963   31965
   31967   31966   31968   31970   31969   31971   31973   31972   31974
   31976   31975   31977   31979   31978   31980   31982   31981   31983
   31985   31984   31986   31988   31987   31989   31991   31990   31992
   31994   31993   31995   31997   31996   31998   32000   31999   32001
   32003   32002   32004   32006   32005   32007   32009   32008   32010
   32012   32011   32013   32015   32014   32016   32018   32017   32019
   32021   32020   32022   32024   32023   32025   32027   32026   32028
   32030   32029   32031   32033   32032   32034   32036   32035   32037
   32039   32038   32040   32042   32041   32043   32045   32044   32046
   32048   32047   32049   32051   32050   32052   32054   32053   32055
   32057   32056   32058   32060   32059   32061   32063   32062   32064
   32066   32065   32067   32069   32068   32070   32072   32071   32073
   32075   32074   32076   32078   32077   32079   32081   32080   32082
   32084   32083   32085   32087   32086   32088   32090   32089   32091
   32093   32092   32094   32096   32095   32097   32099   32098   32100
   32102   32101   32103   32105   32104   32106   32108   32107   32109
   32111   32110   32112   32114   32113   32115   32117   32116   32118
   32120   32119   32121   32123   32122   32124   32126   32125   32127
   32129   32128   32130   32132   32131   32133   32135   32134   32136
   32138   32137   32139   32141   32140   32142   32144   32143   32145
   32147   32146   32148   32150   32149   32151   32153   32152   32154
   32156   32155   32157   32159   32158   32160   32162   32161   32163
   32165   32164   32166   32168   32167   32169   32171   32170   32172
   32174   32173   32175   32177   32176   32178   32180   32179   32181
   32183   32182   32184   32186   32185   32187   32189   32188   32190
   32192   32191   32193   32195   32194   32196   32198   32197   32199
   32201   32200   32202   32204   32203   32205   32207   32206   32208
   32210   32209   32211   32213   32212   32214   32216   32215   32217
   32219   32218   32220   32222   32221   32223   32225   32224   32226
   32228   32227   32229   32231   32230   32232   32234   32233   32235
   32237   32236   32238   32240   32239   32241   32243   32242   32244
   32246   32245   32247   32249   32248   32250   32252   32251   32253
   32255   32254   32256   32258   32257   32259   32261   32260   32262
   32264   32263   32265   32267   32266   32268   32270   32269   32271
   32273   32272   32274   32276   32275   32277   32279   32278   32280
   32282   32281   32283   32285   32284   32286   32288   32287   32289
   32291   32290   32292   32294   32293   32295   32297   32296   32298
   32300   32299   32301   32303   32302   32304   32306   32305   32307
   32309   32308   32310   32312   32311   32313   32315   32314   32316
   32318   32317   32319   32321   32320   32322   32324   32323   32325
   32327   32326   32328   32330   32329   32331   32333   32332   32334
   32336   32335   32337   32339   32338   32340   32342   32341   32343
   32345   32344   32346   32348   32347   32349   32351   32350   32352
   32354   32353   32355   32357   32356   32358   32360   32359   32361
   32363   32362   32364   32366   32365   32367   32369   32368   32370
   32372   32371   32373   32375   32374   32376   32378   32377   32379
   32381   32380   32382   32384   32383   32385   32387   32386   32388
   32390   32389   32391   32393   32392   32394   32396   32395   32397
   32399   32398   32400   32402   32401   32403   32405   32404   32406
   32408   32407   32409   32411   32410   32412   32414   32413   32415
   32417   32416   32418   32420   32419   32421   32423   32422   32424
   32426   32425   32427   32429   32428   32430   32432   32431   32433
   32435   32434   32436   32438   32437   32439   32441   32440   32442
   32444   32443   32445   32447   32446   32448   32450   32449   32451
   32453   32452   32454   32456   32455   32457   32459   32458   32460
   32462   32461   32463   32465   32464   32466   32468   32467   32469
   32471   32470   32472   32474   32473   32475   32477   32476   32478
   32480   32479   32481   32483   32482   32484   32486   32485   32487
   32489   32488   32490   32492   32491   32493   32495   32494   32496
   32498   32497   32499   32501   32500   32502   32504   32503   32505
   32507   32506   32508   32510   32509   32511   32513   32512   32514
   32516   32515   32517   32519   32518   32520   32522   32521   32523
   32525   32524   32526   32528   32527   32529   32531   32530   32532
   32534   32533   32535   32537   32536   32538   32540   32539   32541
   32543   32542   32544   32546   32545   32547   32549   32548   32550
   32552   32551   32553   32555   32554   32556   32558   32557   32559
   32561   32560   32562   32564   32563   32565   32567   32566   32568
   32570   32569   32571   32573   32572   32574   32576   32575   32577
   32579   32578   32580   32582   32581   32583   32585   32584   32586
   32588   32587   32589   32591   32590   32592   32594   32593   32595
   32597   32596   32598   32600   32599   32601   32603   32602   32604
   32606   32605   32607   32609   32608   32610   32612   32611   32613
   32615   32614   32616   32618   32617   32619   32621   32620   32622
   32624   32623   32625   32627   32626   32628   32630   32629   32631
   32633   32632   32634   32636   32635   32637   32639   32638   32640
   32642   32641   32643   32645   32644   32646   32648   32647   32649
   32651   32650   32652   32654   32653   32655   32657   32656   32658
   32660   32659   32661   32663   32662   32664   32666   32665   32667
   32669   32668   32670   32672   32671   32673   32675   32674   32676
   32678   32677   32679   32681   32680   32682   32684   32683   32685
   32687   32686   32688   32690   32689   32691   32693   32692   32694
   32696   32695   32697   32699   32698   32700   32702   32701   32703
   32705   32704   32706   32708   32707   32709   32711   32710   32712
   32714   32713   32715   32717   32716   32718   32720   32719   32721
   32723   32722   32724   32726   32725   32727   32729   32728   32730
   32732   32731   32733   32735   32734   32736   32738   32737   32739
   32741   32740   32742   32744   32743   32745   32747   32746   32748
   32750   32749   32751   32753   32752   32754   32756   32755   32757
   32759   32758   32760   32762   32761   32763   32765   32764   32766
   32768   32767   32769   32771   32770   32772   32774   32773   32775
   32777   32776   32778   32780   32779   32781   32783   32782   32784
   32786   32785   32787   32789   32788   32790   32792   32791   32793
   32795   32794   32796   32798   32797   32799   32801   32800   32802
   32804   32803   32805   32807   32806   32808   32810   32809   32811
   32813   32812   32814   32816   32815   32817   32819   32818   32820
   32822   32821   32823   32825   32824   32826   32828   32827   32829
   32831   32830   32832   32834   32833   32835   32837   32836   32838
   32840   32839   32841   32843   32842   32844   32846   32845   32847
   32849   32848   32850   32852   32851   32853   32855   32854   32856
   32858   32857   32859   32861   32860   32862   32864   32863   32865
   32867   32866   32868   32870   32869   32871   32873   32872   32874
   32876   32875   32877   32879   32878   32880   32882   32881   32883
   32885   32884   32886   32888   32887   32889   32891   32890   32892
   32894   32893   32895   32897   32896   32898   32900   32899   32901
   32903   32902   32904   32906   32905   32907   32909   32908   32910
   32912   32911   32913   32915   32914   32916   32918   32917   32919
   32921   32920   32922   32924   32923   32925   32927   32926   32928
   32930   32929   32931   32933   32932   32934   32936   32935   32937
   32939   32938   32940   32942   32941   32943   32945   32944   32946
   32948   32947   32949   32951   32950   32952   32954   32953   32955
   32957   32956   32958   32960   32959   32961   32963   32962   32964
   32966   32965   32967   32969   32968   32970   32972   32971   32973
   32975   32974   32976   32978   32977   32979   32981   32980   32982
   32984   32983   32985   32987   32986   32988   32990   32989   32991
   32993   32992   32994   32996   32995   32997   32999   32998   33000
   33002   33001   33003   33005   33004   33006   33008   33007   33009
   33011   33010   33012   33014   33013   33015   33017   33016   33018
   33020   33019   33021   33023   33022   33024   33026   33025   33027
   33029   33028   33030   33032   33031   33033   33035   33034   33036
   33038   33037   33039   33041   33040   33042   33044   33043   33045
   33047   33046   33048   33050   33049   33051   33053   33052   33054
   33056   33055   33057   33059   33058   33060   33062   33061   33063
   33065   33064   33066   33068   33067   33069   33071   33070   33072
   33074   33073   33075   33077   33076   33078   33080   33079   33081
   33083   33082   33084   33086   33085   33087   33089   33088   33090
   33092   33091   33093   33095   33094   33096   33098   33097   33099
   33101   33100   33102   33104   33103   33105   33107   33106   33108
   33110   33109   33111   33113   33112   33114   33116   33115   33117
   33119   33118   33120   33122   33121   33123   33125   33124   33126
   33128   33127   33129   33131   33130   33132   33134   33133   33135
   33137   33136   33138   33140   33139   33141   33143   33142   33144
   33146   33145   33147   33149   33148   33150   33152   33151   33153
   33155   33154   33156   33158   33157   33159   33161   33160   33162
   33164   33163   33165   33167   33166   33168   33170   33169   33171
   33173   33172   33174   33176   33175   33177   33179   33178   33180
   33182   33181   33183   33185   33184   33186   33188   33187   33189
   33191   33190   33192   33194   33193   33195   33197   33196   33198
   33200   33199   33201   33203   33202   33204   33206   33205   33207
   33209   33208   33210   33212   33211   33213   33215   33214   33216
   33218   33217   33219   33221   33220   33222   33224   33223   33225
   33227   33226   33228   33230   33229   33231   33233   33232   33234
   33236   33235   33237   33239   33238   33240   33242   33241   33243
   33245   33244   33246   33248   33247   33249   33251   33250   33252
   33254   33253   33255   33257   33256   33258   33260   33259   33261
   33263   33262   33264   33266   33265   33267   33269   33268   33270
   33272   33271   33273   33275   33274   33276   33278   33277   33279
   33281   33280   33282   33284   33283   33285   33287   33286   33288
   33290   33289   33291   33293   33292   33294   33296   33295   33297
   33299   33298   33300   33302   33301   33303   33305   33304   33306
   33308   33307   33309   33311   33310   33312   33314   33313   33315
   33317   33316   33318   33320   33319   33321   33323   33322   33324
   33326   33325   33327   33329   33328   33330   33332   33331   33333
   33335   33334   33336   33338   33337   33339   33341   33340   33342
   33344   33343   33345   33347   33346   33348   33350   33349   33351
   33353   33352   33354   33356   33355   33357   33359   33358   33360
   33362   33361   33363   33365   33364   33366   33368   33367   33369
   33371   33370   33372   33374   33373   33375   33377   33376   33378
   33380   33379   33381   33383   33382   33384   33386   33385   33387
   33389   33388   33390   33392   33391   33393   33395   33394   33396
   33398   33397   33399   33401   33400   33402   33404   33403   33405
   33407   33406   33408   33410   33409   33411   33413   33412   33414
   33416   33415   33417   33419   33418   33420   33422   33421   33423
   33425   33424   33426   33428   33427   33429   33431   33430   33432
   33434   33433   33435   33437   33436   33438   33440   33439   33441
   33443   33442   33444   33446   33445   33447   33449   33448   33450
   33452   33451   33453   33455   33454   33456   33458   33457   33459
   33461   33460   33462   33464   33463   33465   33467   33466   33468
   33470   33469   33471   33473   33472   33474   33476   33475   33477
   33479   33478   33480   33482   33481   33483   33485   33484   33486
   33488   33487   33489   33491   33490   33492   33494   33493   33495
   33497   33496   33498   33500   33499   33501   33503   33502   33504
   33506   33505   33507   33509   33508   33510   33512   33511   33513
   33515   33514   33516   33518   33517   33519   33521   33520   33522
   33524   33523   33525   33527   33526   33528   33530   33529   33531
   33533   33532   33534   33536   33535   33537   33539   33538   33540
   33542   33541   33543   33545   33544   33546   33548   33547   33549
   33551   33550   33552   33554   33553   33555   33557   33556   33558
   33560   33559   33561   33563   33562   33564   33566   33565   33567
   33569   33568   33570   33572   33571   33573   33575   33574   33576
   33578   33577   33579   33581   33580   33582   33584   33583   33585
   33587   33586   33588   33590   33589   33591   33593   33592   33594
   33596   33595   33597   33599   33598   33600   33602   33601   33603
   33605   33604   33606   33608   33607   33609   33611   33610   33612
   33614   33613   33615   33617   33616   33618   33620   33619   33621
   33623   33622   33624   33626   33625   33627   33629   33628   33630
   33632   33631   33633   33635   33634   33636   33638   33637   33639
   33641   33640   33642   33644   33643   33645   33647   33646   33648
   33650   33649   33651   33653   33652   33654   33656   33655   33657
   33659   33658   33660   33662   33661   33663   33665   33664   33666
   33668   33667   33669   33671   33670   33672   33674   33673   33675
   33677   33676   33678   33680   33679   33681   33683   33682   33684
   33686   33685   33687   33689   33688   33690   33692   33691   33693
   33695   33694   33696   33698   33697   33699   33701   33700   33702
   33704   33703   33705   33707   33706   33708   33710   33709   33711
   33713   33712   33714   33716   33715   33717   33719   33718   33720
   33722   33721   33723   33725   33724   33726   33728   33727   33729
   33731   33730   33732   33734   33733   33735   33737   33736   33738
   33740   33739   33741   33743   33742   33744   33746   33745   33747
   33749   33748   33750   33752   33751   33753   33755   33754   33756
   33758   33757   33759   33761   33760   33762   33764   33763   33765
   33767   33766   33768   33770   33769   33771   33773   33772   33774
   33776   33775   33777   33779   33778   33780   33782   33781   33783
   33785   33784   33786   33788   33787   33789   33791   33790   33792
   33794   33793   33795   33797   33796   33798   33800   33799   33801
   33803   33802   33804   33806   33805   33807   33809   33808   33810
   33812   33811   33813   33815   33814   33816   33818   33817   33819
   33821   33820   33822   33824   33823   33825   33827   33826   33828
   33830   33829   33831   33833   33832   33834   33836   33835   33837
   33839   33838   33840   33842   33841   33843   33845   33844   33846
   33848   33847   33849   33851   33850   33852   33854   33853   33855
   33857   33856   33858   33860   33859   33861   33863   33862   33864
   33866   33865   33867   33869   33868   33870   33872   33871   33873
   33875   33874   33876   33878   33877   33879   33881   33880   33882
   33884   33883   33885   33887   33886   33888   33890   33889   33891
   33893   33892   33894   33896   33895   33897   33899   33898   33900
   33902   33901   33903   33905   33904   33906   33908   33907   33909
   33911   33910   33912   33914   33913   33915   33917   33916   33918
   33920   33919   33921   33923   33922   33924   33926   33925   33927
   33929   33928   33930   33932   33931   33933   33935   33934   33936
   33938   33937   33939   33941   33940   33942   33944   33943   33945
   33947   33946   33948   33950   33949   33951   33953   33952   33954
   33956   33955   33957   33959   33958   33960   33962   33961   33963
   33965   33964   33966   33968   33967   33969   33971   33970   33972
   33974   33973   33975   33977   33976   33978   33980   33979   33981
   33983   33982   33984   33986   33985   33987   33989   33988   33990
   33992   33991   33993   33995   33994   33996   33998   33997   33999
   34001   34000   34002   34004   34003   34005   34007   34006   34008
   34010   34009   34011   34013   34012   34014   34016   34015   34017
   34019   34018   34020   34022   34021   34023   34025   34024   34026
   34028   34027   34029   34031   34030   34032   34034   34033   34035
   34037   34036   34038   34040   34039   34041   34043   34042   34044
   34046   34045   34047   34049   34048   34050   34052   34051   34053
   34055   34054   34056   34058   34057   34059   34061   34060   34062
   34064   34063   34065   34067   34066   34068   34070   34069   34071
   34073   34072   34074   34076   34075   34077   34079   34078   34080
   34082   34081   34083   34085   34084   34086   34088   34087   34089
   34091   34090   34092   34094   34093   34095   34097   34096   34098
   34100   34099   34101   34103   34102   34104   34106   34105   34107
   34109   34108   34110   34112   34111   34113   34115   34114   34116
   34118   34117   34119   34121   34120   34122   34124   34123   34125
   34127   34126   34128   34130   34129   34131   34133   34132   34134
   34136   34135   34137   34139   34138   34140   34142   34141   34143
   34145   34144   34146   34148   34147   34149   34151   34150   34152
   34154   34153   34155   34157   34156   34158   34160   34159   34161
   34163   34162   34164   34166   34165   34167   34169   34168   34170
   34172   34171   34173   34175   34174   34176   34178   34177   34179
   34181   34180   34182   34184   34183   34185   34187   34186   34188
   34190   34189   34191   34193   34192   34194   34196   34195   34197
   34199   34198   34200   34202   34201   34203   34205   34204   34206
   34208   34207   34209   34211   34210   34212   34214   34213   34215
   34217   34216   34218   34220   34219   34221   34223   34222   34224
   34226   34225   34227   34229   34228   34230   34232   34231   34233
   34235   34234   34236   34238   34237   34239   34241   34240   34242
   34244   34243   34245   34247   34246   34248   34250   34249   34251
   34253   34252   34254   34256   34255   34257   34259   34258   34260
   34262   34261   34263   34265   34264   34266   34268   34267   34269
   34271   34270   34272   34274   34273   34275   34277   34276   34278
   34280   34279   34281   34283   34282   34284   34286   34285   34287
   34289   34288   34290   34292   34291   34293   34295   34294   34296
   34298   34297   34299   34301   34300   34302   34304   34303   34305
   34307   34306   34308   34310   34309   34311   34313   34312   34314
   34316   34315   34317   34319   34318   34320   34322   34321   34323
   34325   34324   34326   34328   34327   34329   34331   34330   34332
   34334   34333   34335   34337   34336   34338   34340   34339   34341
   34343   34342   34344   34346   34345   34347   34349   34348   34350
   34352   34351   34353   34355   34354   34356   34358   34357   34359
   34361   34360   34362   34364   34363   34365   34367   34366   34368
   34370   34369   34371   34373   34372   34374   34376   34375   34377
   34379   34378   34380   34382   34381   34383   34385   34384   34386
   34388   34387   34389   34391   34390   34392   34394   34393   34395
   34397   34396   34398   34400   34399   34401   34403   34402   34404
   34406   34405   34407   34409   34408   34410   34412   34411   34413
   34415   34414   34416   34418   34417   34419   34421   34420   34422
   34424   34423   34425   34427   34426   34428   34430   34429   34431
   34433   34432   34434   34436   34435   34437   34439   34438   34440
   34442   34441   34443   34445   34444   34446   34448   34447   34449
   34451   34450   34452   34454   34453   34455   34457   34456   34458
   34460   34459   34461   34463   34462   34464   34466   34465   34467
   34469   34468   34470   34472   34471   34473   34475   34474   34476
   34478   34477   34479   34481   34480   34482   34484   34483   34485
   34487   34486   34488   34490   34489   34491   34493   34492   34494
   34496   34495   34497   34499   34498   34500   34502   34501   34503
   34505   34504   34506   34508   34507   34509   34511   34510   34512
   34514   34513   34515   34517   34516   34518   34520   34519   34521
   34523   34522   34524   34526   34525   34527   34529   34528   34530
   34532   34531   34533   34535   34534   34536   34538   34537   34539
   34541   34540   34542   34544   34543   34545   34547   34546   34548
   34550   34549   34551   34553   34552   34554   34556   34555   34557
   34559   34558   34560   34562   34561   34563   34565   34564   34566
   34568   34567   34569   34571   34570   34572   34574   34573   34575
   34577   34576   34578   34580   34579   34581   34583   34582   34584
   34586   34585   34587   34589   34588   34590   34592   34591   34593
   34595   34594   34596   34598   34597   34599   34601   34600   34602
   34604   34603   34605   34607   34606   34608   34610   34609   34611
   34613   34612   34614   34616   34615   34617   34619   34618   34620
   34622   34621   34623   34625   34624   34626   34628   34627   34629
   34631   34630   34632   34634   34633   34635   34637   34636   34638
   34640   34639   34641   34643   34642   34644   34646   34645   34647
   34649   34648   34650   34652   34651   34653   34655   34654   34656
   34658   34657   34659   34661   34660   34662   34664   34663   34665
   34667   34666   34668   34670   34669   34671   34673   34672   34674
   34676   34675   34677   34679   34678   34680   34682   34681   34683
   34685   34684   34686   34688   34687   34689   34691   34690   34692
   34694   34693   34695   34697   34696   34698   34700   34699   34701
   34703   34702   34704   34706   34705   34707   34709   34708   34710
   34712   34711   34713   34715   34714   34716   34718   34717   34719
   34721   34720   34722   34724   34723   34725   34727   34726   34728
   34730   34729   34731   34733   34732   34734   34736   34735   34737
   34739   34738   34740   34742   34741   34743   34745   34744   34746
   34748   34747   34749   34751   34750   34752   34754   34753   34755
   34757   34756   34758   34760   34759   34761   34763   34762   34764
   34766   34765   34767   34769   34768   34770   34772   34771   34773
   34775   34774   34776   34778   34777   34779   34781   34780   34782
   34784   34783   34785   34787   34786   34788   34790   34789   34791
   34793   34792   34794   34796   34795   34797   34799   34798   34800
   34802   34801   34803   34805   34804   34806   34808   34807   34809
   34811   34810   34812   34814   34813   34815   34817   34816   34818
   34820   34819   34821   34823   34822   34824   34826   34825   34827
   34829   34828   34830   34832   34831   34833   34835   34834   34836
   34838   34837   34839   34841   34840   34842   34844   34843   34845
   34847   34846   34848   34850   34849   34851   34853   34852   34854
   34856   34855   34857   34859   34858   34860   34862   34861   34863
   34865   34864   34866   34868   34867   34869   34871   34870   34872
   34874   34873   34875   34877   34876   34878   34880   34879   34881
   34883   34882   34884   34886   34885   34887   34889   34888   34890
   34892   34891   34893   34895   34894   34896   34898   34897   34899
   34901   34900   34902   34904   34903   34905   34907   34906   34908
   34910   34909   34911   34913   34912   34914   34916   34915   34917
   34919   34918   34920   34922   34921   34923   34925   34924   34926
   34928   34927   34929   34931   34930   34932   34934   34933   34935
   34937   34936   34938   34940   34939   34941   34943   34942   34944
   34946   34945   34947   34949   34948   34950   34952   34951   34953
   34955   34954   34956   34958   34957   34959   34961   34960   34962
   34964   34963   34965   34967   34966   34968   34970   34969   34971
   34973   34972   34974   34976   34975   34977   34979   34978   34980
   34982   34981   34983   34985   34984   34986   34988   34987   34989
   34991   34990   34992   34994   34993   34995   34997   34996   34998
   35000   34999   35001   35003   35002   35004   35006   35005   35007
   35009   35008   35010   35012   35011   35013   35015   35014   35016
   35018   35017   35019   35021   35020   35022   35024   35023   35025
   35027   35026   35028   35030   35029   35031   35033   35032   35034
   35036   35035   35037   35039   35038   35040   35042   35041   35043
   35045   35044   35046   35048   35047   35049   35051   35050   35052
   35054   35053   35055   35057   35056   35058   35060   35059   35061
   35063   35062   35064   35066   35065   35067   35069   35068   35070
   35072   35071   35073   35075   35074   35076   35078   35077   35079
   35081   35080   35082   35084   35083   35085   35087   35086   35088
   35090   35089   35091   35093   35092   35094   35096   35095   35097
   35099   35098   35100   35102   35101   35103   35105   35104   35106
   35108   35107   35109   35111   35110   35112   35114   35113   35115
   35117   35116   35118   35120   35119   35121   35123   35122   35124
   35126   35125   35127   35129   35128   35130   35132   35131   35133
   35135   35134   35136   35138   35137   35139   35141   35140   35142
   35144   35143   35145   35147   35146   35148   35150   35149   35151
   35153   35152   35154   35156   35155   35157   35159   35158   35160
   35162   35161   35163   35165   35164   35166   35168   35167   35169
   35171   35170   35172   35174   35173   35175   35177   35176   35178
   35180   35179   35181   35183   35182   35184   35186   35185   35187
   35189   35188   35190   35192   35191   35193   35195   35194   35196
   35198   35197   35199   35201   35200   35202   35204   35203   35205
   35207   35206   35208   35210   35209   35211   35213   35212   35214
   35216   35215   35217   35219   35218   35220   35222   35221   35223
   35225   35224   35226   35228   35227   35229   35231   35230   35232
   35234   35233   35235   35237   35236   35238   35240   35239   35241
   35243   35242   35244   35246   35245   35247   35249   35248   35250
   35252   35251   35253   35255   35254   35256   35258   35257   35259
   35261   35260   35262   35264   35263   35265   35267   35266   35268
   35270   35269   35271   35273   35272   35274   35276   35275   35277
   35279   35278   35280   35282   35281   35283   35285   35284   35286
   35288   35287   35289   35291   35290   35292   35294   35293   35295
   35297   35296   35298   35300   35299   35301   35303   35302   35304
   35306   35305   35307   35309   35308   35310   35312   35311   35313
   35315   35314   35316   35318   35317   35319   35321   35320   35322
   35324   35323   35325   35327   35326   35328   35330   35329   35331
   35333   35332   35334   35336   35335   35337   35339   35338   35340
   35342   35341   35343   35345   35344   35346   35348   35347   35349
   35351   35350   35352   35354   35353   35355   35357   35356   35358
   35360   35359   35361   35363   35362   35364   35366   35365   35367
   35369   35368   35370   35372   35371   35373   35375   35374   35376
   35378   35377   35379   35381   35380   35382   35384   35383   35385
   35387   35386   35388   35390   35389   35391   35393   35392   35394
   35396   35395   35397   35399   35398   35400   35402   35401   35403
   35405   35404   35406   35408   35407   35409   35411   35410   35412
   35414   35413   35415   35417   35416   35418   35420   35419   35421
   35423   35422   35424   35426   35425   35427   35429   35428   35430
   35432   35431   35433   35435   35434   35436   35438   35437   35439
   35441   35440   35442   35444   35443   35445   35447   35446   35448
   35450   35449   35451   35453   35452   35454   35456   35455   35457
   35459   35458   35460   35462   35461   35463   35465   35464   35466
   35468   35467   35469   35471   35470   35472   35474   35473   35475
   35477   35476   35478   35480   35479   35481   35483   35482   35484
   35486   35485   35487   35489   35488   35490   35492   35491   35493
   35495   35494   35496   35498   35497   35499   35501   35500   35502
   35504   35503   35505   35507   35506   35508   35510   35509   35511
   35513   35512   35514   35516   35515   35517   35519   35518   35520
   35522   35521   35523   35525   35524   35526   35528   35527   35529
   35531   35530   35532   35534   35533   35535   35537   35536   35538
   35540   35539   35541   35543   35542   35544   35546   35545   35547
   35549   35548   35550   35552   35551   35553   35555   35554   35556
   35558   35557   35559   35561   35560   35562   35564   35563   35565
   35567   35566   35568   35570   35569   35571   35573   35572   35574
   35576   35575   35577   35579   35578   35580   35582   35581   35583
   35585   35584   35586   35588   35587   35589   35591   35590   35592
   35594   35593   35595   35597   35596   35598   35600   35599   35601
   35603   35602   35604   35606   35605   35607   35609   35608   35610
   35612   35611   35613   35615   35614   35616   35618   35617   35619
   35621   35620   35622   35624   35623   35625   35627   35626   35628
   35630   35629   35631   35633   35632   35634   35636   35635   35637
   35639   35638   35640   35642   35641   35643   35645   35644   35646
   35648   35647   35649   35651   35650   35652   35654   35653   35655
   35657   35656   35658   35660   35659   35661   35663   35662   35664
   35666   35665   35667   35669   35668   35670   35672   35671   35673
   35675   35674   35676   35678   35677   35679   35681   35680   35682
   35684   35683   35685   35687   35686   35688   35690   35689   35691
   35693   35692   35694   35696   35695   35697   35699   35698   35700
   35702   35701   35703   35705   35704   35706   35708   35707   35709
   35711   35710   35712   35714   35713   35715   35717   35716   35718
   35720   35719   35721   35723   35722   35724   35726   35725   35727
   35729   35728   35730   35732   35731   35733   35735   35734   35736
   35738   35737   35739   35741   35740   35742   35744   35743   35745
   35747   35746   35748   35750   35749   35751   35753   35752   35754
   35756   35755   35757   35759   35758   35760   35762   35761   35763
   35765   35764   35766   35768   35767   35769   35771   35770   35772
   35774   35773   35775   35777   35776   35778   35780   35779   35781
   35783   35782   35784   35786   35785   35787   35789   35788   35790
   35792   35791   35793   35795   35794   35796   35798   35797   35799
   35801   35800   35802   35804   35803   35805   35807   35806   35808
   35810   35809   35811   35813   35812   35814   35816   35815   35817
   35819   35818   35820   35822   35821   35823   35825   35824   35826
   35828   35827   35829   35831   35830   35832   35834   35833   35835
   35837   35836   35838   35840   35839   35841   35843   35842   35844
   35846   35845   35847   35849   35848   35850   35852   35851   35853
   35855   35854   35856   35858   35857   35859   35861   35860   35862
   35864   35863   35865   35867   35866   35868   35870   35869   35871
   35873   35872   35874   35876   35875   35877   35879   35878   35880
   35882   35881   35883   35885   35884   35886   35888   35887   35889
   35891   35890   35892   35894   35893   35895   35897   35896   35898
   35900   35899   35901   35903   35902   35904   35906   35905   35907
   35909   35908   35910   35912   35911   35913   35915   35914   35916
   35918   35917   35919   35921   35920   35922   35924   35923   35925
   35927   35926   35928   35930   35929   35931   35933   35932   35934
   35936   35935   35937   35939   35938   35940   35942   35941   35943
   35945   35944   35946   35948   35947   35949   35951   35950   35952
   35954   35953   35955   35957   35956   35958   35960   35959   35961
   35963   35962   35964   35966   35965   35967   35969   35968   35970
   35972   35971   35973   35975   35974   35976   35978   35977   35979
   35981   35980   35982   35984   35983   35985   35987   35986   35988
   35990   35989   35991   35993   35992   35994   35996   35995   35997
   35999   35998   36000   36002   36001   36003   36005   36004   36006
   36008   36007   36009   36011   36010   36012   36014   36013   36015
   36017   36016   36018   36020   36019   36021   36023   36022   36024
   36026   36025   36027   36029   36028   36030   36032   36031   36033
   36035   36034   36036   36038   36037   36039   36041   36040   36042
   36044   36043   36045   36047   36046   36048   36050   36049   36051
   36053   36052   36054   36056   36055   36057   36059   36058   36060
   36062   36061   36063   36065   36064   36066   36068   36067   36069
   36071   36070   36072   36074   36073   36075   36077   36076   36078
   36080   36079   36081   36083   36082   36084   36086   36085   36087
   36089   36088   36090   36092   36091   36093   36095   36094   36096
   36098   36097   36099   36101   36100   36102   36104   36103   36105
   36107   36106   36108   36110   36109   36111   36113   36112   36114
   36116   36115   36117   36119   36118   36120   36122   36121   36123
   36125   36124   36126   36128   36127   36129   36131   36130   36132
   36134   36133   36135   36137   36136   36138   36140   36139   36141
   36143   36142   36144   36146   36145   36147   36149   36148   36150
   36152   36151   36153   36155   36154   36156   36158   36157   36159
   36161   36160   36162   36164   36163   36165   36167   36166   36168
   36170   36169   36171   36173   36172   36174   36176   36175   36177
   36179   36178   36180   36182   36181   36183   36185   36184   36186
   36188   36187   36189   36191   36190   36192   36194   36193   36195
   36197   36196   36198   36200   36199   36201   36203   36202   36204
   36206   36205   36207   36209   36208   36210   36212   36211   36213
   36215   36214   36216   36218   36217   36219   36221   36220   36222
   36224   36223   36225   36227   36226   36228   36230   36229   36231
   36233   36232   36234   36236   36235   36237   36239   36238   36240
   36242   36241   36243   36245   36244   36246   36248   36247   36249
   36251   36250   36252   36254   36253   36255   36257   36256   36258
   36260   36259   36261   36263   36262   36264   36266   36265   36267
   36269   36268   36270   36272   36271   36273   36275   36274   36276
   36278   36277   36279   36281   36280   36282   36284   36283   36285
   36287   36286   36288   36290   36289   36291   36293   36292   36294
   36296   36295   36297   36299   36298   36300   36302   36301   36303
   36305   36304   36306   36308   36307   36309   36311   36310   36312
   36314   36313   36315   36317   36316   36318   36320   36319   36321
   36323   36322   36324   36326   36325   36327   36329   36328   36330
   36332   36331   36333   36335   36334   36336   36338   36337   36339
   36341   36340   36342   36344   36343   36345   36347   36346   36348
   36350   36349   36351   36353   36352   36354   36356   36355   36357
   36359   36358   36360   36362   36361   36363   36365   36364   36366
   36368   36367   36369   36371   36370   36372   36374   36373   36375
   36377   36376   36378   36380   36379   36381   36383   36382   36384
   36386   36385   36387   36389   36388   36390   36392   36391   36393
   36395   36394   36396   36398   36397   36399   36401   36400   36402
   36404   36403   36405   36407   36406   36408   36410   36409   36411
   36413   36412   36414   36416   36415   36417   36419   36418   36420
   36422   36421   36423   36425   36424   36426   36428   36427   36429
   36431   36430   36432   36434   36433   36435   36437   36436   36438
   36440   36439   36441   36443   36442   36444   36446   36445   36447
   36449   36448   36450   36452   36451   36453   36455   36454   36456
   36458   36457   36459   36461   36460   36462   36464   36463   36465
   36467   36466   36468   36470   36469   36471   36473   36472   36474
   36476   36475   36477   36479   36478   36480   36482   36481   36483
   36485   36484   36486   36488   36487   36489   36491   36490   36492
   36494   36493   36495   36497   36496   36498   36500   36499   36501
   36503   36502   36504   36506   36505   36507   36509   36508   36510
   36512   36511   36513   36515   36514   36516   36518   36517   36519
   36521   36520   36522   36524   36523   36525   36527   36526   36528
   36530   36529   36531   36533   36532   36534   36536   36535   36537
   36539   36538   36540   36542   36541   36543   36545   36544   36546
   36548   36547   36549   36551   36550   36552   36554   36553   36555
   36557   36556   36558   36560   36559   36561   36563   36562   36564
   36566   36565   36567   36569   36568   36570   36572   36571   36573
   36575   36574   36576   36578   36577   36579   36581   36580   36582
   36584   36583   36585   36587   36586   36588   36590   36589   36591
   36593   36592   36594   36596   36595   36597   36599   36598   36600
   36602   36601   36603   36605   36604   36606   36608   36607   36609
   36611   36610   36612   36614   36613   36615   36617   36616   36618
   36620   36619   36621   36623   36622   36624   36626   36625   36627
   36629   36628   36630   36632   36631   36633   36635   36634   36636
   36638   36637   36639   36641   36640   36642   36644   36643   36645
   36647   36646   36648   36650   36649   36651   36653   36652   36654
   36656   36655   36657   36659   36658   36660   36662   36661   36663
   36665   36664   36666   36668   36667   36669   36671   36670   36672
   36674   36673   36675   36677   36676   36678   36680   36679   36681
   36683   36682   36684   36686   36685   36687   36689   36688   36690
   36692   36691   36693   36695   36694   36696   36698   36697   36699
   36701   36700   36702   36704   36703   36705   36707   36706   36708
   36710   36709   36711   36713   36712   36714   36716   36715   36717
   36719   36718   36720   36722   36721   36723   36725   36724   36726
   36728   36727   36729   36731   36730   36732   36734   36733   36735
   36737   36736   36738   36740   36739   36741   36743   36742   36744
   36746   36745   36747   36749   36748   36750   36752   36751   36753
   36755   36754   36756   36758   36757   36759   36761   36760   36762
   36764   36763   36765   36767   36766   36768   36770   36769   36771
   36773   36772   36774   36776   36775   36777   36779   36778   36780
   36782   36781   36783   36785   36784   36786   36788   36787   36789
   36791   36790   36792   36794   36793   36795   36797   36796   36798
   36800   36799   36801   36803   36802   36804   36806   36805   36807
   36809   36808   36810   36812   36811   36813   36815   36814   36816
   36818   36817   36819   36821   36820   36822   36824   36823   36825
   36827   36826   36828   36830   36829   36831   36833   36832   36834
   36836   36835   36837   36839   36838   36840   36842   36841   36843
   36845   36844   36846   36848   36847   36849   36851   36850   36852
   36854   36853   36855   36857   36856   36858   36860   36859   36861
   36863   36862   36864   36866   36865   36867   36869   36868   36870
   36872   36871   36873   36875   36874   36876   36878   36877   36879
   36881   36880   36882   36884   36883   36885   36887   36886   36888
   36890   36889   36891   36893   36892   36894   36896   36895   36897
   36899   36898   36900   36902   36901   36903   36905   36904   36906
   36908   36907   36909   36911   36910   36912   36914   36913   36915
   36917   36916   36918   36920   36919   36921   36923   36922   36924
   36926   36925   36927   36929   36928   36930   36932   36931   36933
   36935   36934   36936   36938   36937   36939   36941   36940   36942
   36944   36943   36945   36947   36946   36948   36950   36949   36951
   36953   36952   36954   36956   36955   36957   36959   36958   36960
   36962   36961   36963   36965   36964   36966   36968   36967   36969
   36971   36970   36972   36974   36973   36975   36977   36976   36978
   36980   36979   36981   36983   36982   36984   36986   36985   36987
   36989   36988   36990   36992   36991   36993   36995   36994   36996
   36998   36997   36999   37001   37000   37002   37004   37003   37005
   37007   37006   37008   37010   37009   37011   37013   37012   37014
   37016   37015   37017   37019   37018   37020   37022   37021   37023
   37025   37024   37026   37028   37027   37029   37031   37030   37032
   37034   37033   37035   37037   37036   37038   37040   37039   37041
   37043   37042   37044   37046   37045   37047   37049   37048   37050
   37052   37051   37053   37055   37054   37056   37058   37057   37059
   37061   37060   37062   37064   37063   37065   37067   37066   37068
   37070   37069   37071   37073   37072   37074   37076   37075   37077
   37079   37078   37080   37082   37081   37083   37085   37084   37086
   37088   37087   37089   37091   37090   37092   37094   37093   37095
   37097   37096   37098   37100   37099   37101   37103   37102   37104
   37106   37105   37107   37109   37108   37110   37112   37111   37113
   37115   37114   37116   37118   37117   37119   37121   37120   37122
   37124   37123   37125   37127   37126   37128   37130   37129   37131
   37133   37132   37134   37136   37135   37137   37139   37138   37140
   37142   37141   37143   37145   37144   37146   37148   37147   37149
   37151   37150   37152   37154   37153   37155   37157   37156   37158
   37160   37159   37161   37163   37162   37164   37166   37165   37167
   37169   37168   37170   37172   37171   37173   37175   37174   37176
   37178   37177   37179   37181   37180   37182   37184   37183   37185
   37187   37186   37188   37190   37189   37191   37193   37192   37194
   37196   37195   37197   37199   37198   37200   37202   37201   37203
   37205   37204   37206   37208   37207   37209   37211   37210   37212
   37214   37213   37215   37217   37216   37218   37220   37219   37221
   37223   37222   37224   37226   37225   37227   37229   37228   37230
   37232   37231   37233   37235   37234   37236   37238   37237   37239
   37241   37240   37242   37244   37243   37245   37247   37246   37248
   37250   37249   37251   37253   37252   37254   37256   37255   37257
   37259   37258   37260   37262   37261   37263   37265   37264   37266
   37268   37267   37269   37271   37270   37272   37274   37273   37275
   37277   37276   37278   37280   37279   37281   37283   37282   37284
   37286   37285   37287   37289   37288   37290   37292   37291   37293
   37295   37294   37296   37298   37297   37299   37301   37300   37302
   37304   37303   37305   37307   37306   37308   37310   37309   37311
   37313   37312   37314   37316   37315   37317   37319   37318   37320
   37322   37321   37323   37325   37324   37326   37328   37327   37329
   37331   37330   37332   37334   37333   37335   37337   37336   37338
   37340   37339   37341   37343   37342   37344   37346   37345   37347
   37349   37348   37350   37352   37351   37353   37355   37354   37356
   37358   37357   37359   37361   37360   37362   37364   37363   37365
   37367   37366   37368   37370   37369   37371   37373   37372   37374
   37376   37375   37377   37379   37378   37380   37382   37381   37383
   37385   37384   37386   37388   37387   37389   37391   37390   37392
   37394   37393   37395   37397   37396   37398   37400   37399   37401
   37403   37402   37404   37406   37405   37407   37409   37408   37410
   37412   37411   37413   37415   37414   37416   37418   37417   37419
   37421   37420   37422   37424   37423   37425   37427   37426   37428
   37430   37429   37431   37433   37432   37434   37436   37435   37437
   37439   37438   37440   37442   37441   37443   37445   37444   37446
   37448   37447   37449   37451   37450   37452   37454   37453   37455
   37457   37456   37458   37460   37459   37461   37463   37462   37464
   37466   37465   37467   37469   37468   37470   37472   37471   37473
   37475   37474   37476   37478   37477   37479   37481   37480   37482
   37484   37483   37485   37487   37486   37488   37490   37489   37491
   37493   37492   37494   37496   37495   37497   37499   37498   37500
   37502   37501   37503   37505   37504   37506   37508   37507   37509
   37511   37510   37512   37514   37513   37515   37517   37516   37518
   37520   37519   37521   37523   37522   37524   37526   37525   37527
   37529   37528   37530   37532   37531   37533   37535   37534   37536
   37538   37537   37539   37541   37540   37542   37544   37543   37545
   37547   37546   37548   37550   37549   37551   37553   37552   37554
   37556   37555   37557   37559   37558   37560   37562   37561   37563
   37565   37564   37566   37568   37567   37569   37571   37570   37572
   37574   37573   37575   37577   37576   37578   37580   37579   37581
   37583   37582   37584   37586   37585   37587   37589   37588   37590
   37592   37591   37593   37595   37594   37596   37598   37597   37599
   37601   37600   37602   37604   37603   37605   37607   37606   37608
   37610   37609   37611   37613   37612   37614   37616   37615   37617
   37619   37618   37620   37622   37621   37623   37625   37624   37626
   37628   37627   37629   37631   37630   37632   37634   37633   37635
   37637   37636   37638   37640   37639   37641   37643   37642   37644
   37646   37645   37647   37649   37648   37650   37652   37651   37653
   37655   37654   37656   37658   37657   37659   37661   37660   37662
   37664   37663   37665   37667   37666   37668   37670   37669   37671
   37673   37672   37674   37676   37675   37677   37679   37678   37680
   37682   37681   37683   37685   37684   37686   37688   37687   37689
   37691   37690   37692   37694   37693   37695   37697   37696   37698
   37700   37699   37701   37703   37702   37704   37706   37705   37707
   37709   37708   37710   37712   37711   37713   37715   37714   37716
   37718   37717   37719   37721   37720   37722   37724   37723   37725
   37727   37726   37728   37730   37729   37731   37733   37732   37734
   37736   37735   37737   37739   37738   37740   37742   37741   37743
   37745   37744   37746   37748   37747   37749   37751   37750   37752
   37754   37753   37755   37757   37756   37758   37760   37759   37761
   37763   37762   37764   37766   37765   37767   37769   37768   37770
   37772   37771   37773   37775   37774   37776   37778   37777   37779
   37781   37780   37782   37784   37783   37785   37787   37786   37788
   37790   37789   37791   37793   37792   37794   37796   37795   37797
   37799   37798   37800   37802   37801   37803   37805   37804   37806
   37808   37807   37809   37811   37810   37812   37814   37813   37815
   37817   37816   37818   37820   37819   37821   37823   37822   37824
   37826   37825   37827   37829   37828   37830   37832   37831   37833
   37835   37834   37836   37838   37837   37839   37841   37840   37842
   37844   37843   37845   37847   37846   37848   37850   37849   37851
   37853   37852   37854   37856   37855   37857   37859   37858   37860
   37862   37861   37863   37865   37864   37866   37868   37867   37869
   37871   37870   37872   37874   37873   37875   37877   37876   37878
   37880   37879   37881   37883   37882   37884   37886   37885   37887
   37889   37888   37890   37892   37891   37893   37895   37894   37896
   37898   37897   37899   37901   37900   37902   37904   37903   37905
   37907   37906   37908   37910   37909   37911   37913   37912   37914
   37916   37915   37917   37919   37918   37920   37922   37921   37923
   37925   37924   37926   37928   37927   37929   37931   37930   37932
   37934   37933   37935   37937   37936   37938   37940   37939   37941
   37943   37942   37944   37946   37945   37947   37949   37948   37950
   37952   37951   37953   37955   37954   37956   37958   37957   37959
   37961   37960   37962   37964   37963   37965   37967   37966   37968
   37970   37969   37971   37973   37972   37974   37976   37975   37977
   37979   37978   37980   37982   37981   37983   37985   37984   37986
   37988   37987   37989   37991   37990   37992   37994   37993   37995
   37997   37996   37998   38000   37999   38001   38003   38002   38004
   38006   38005   38007   38009   38008   38010   38012   38011   38013
   38015   38014   38016   38018   38017   38019   38021   38020   38022
   38024   38023   38025   38027   38026   38028   38030   38029   38031
   38033   38032   38034   38036   38035   38037   38039   38038   38040
   38042   38041   38043   38045   38044   38046   38048   38047   38049
   38051   38050   38052   38054   38053   38055   38057   38056   38058
   38060   38059   38061   38063   38062   38064   38066   38065   38067
   38069   38068   38070   38072   38071   38073   38075   38074   38076
   38078   38077   38079   38081   38080   38082   38084   38083   38085
   38087   38086   38088   38090   38089   38091   38093   38092   38094
   38096   38095   38097   38099   38098   38100   38102   38101   38103
   38105   38104   38106   38108   38107   38109   38111   38110   38112
   38114   38113   38115   38117   38116   38118   38120   38119   38121
   38123   38122   38124   38126   38125   38127   38129   38128   38130
   38132   38131   38133   38135   38134   38136   38138   38137   38139
   38141   38140   38142   38144   38143   38145   38147   38146   38148
   38150   38149   38151   38153   38152   38154   38156   38155   38157
   38159   38158   38160   38162   38161   38163   38165   38164   38166
   38168   38167   38169   38171   38170   38172   38174   38173   38175
   38177   38176   38178   38180   38179   38181   38183   38182   38184
   38186   38185   38187   38189   38188   38190   38192   38191   38193
   38195   38194   38196   38198   38197   38199   38201   38200   38202
   38204   38203   38205   38207   38206   38208   38210   38209   38211
   38213   38212   38214   38216   38215   38217   38219   38218   38220
   38222   38221   38223   38225   38224   38226   38228   38227   38229
   38231   38230   38232   38234   38233   38235   38237   38236   38238
   38240   38239   38241   38243   38242   38244   38246   38245   38247
   38249   38248   38250   38252   38251   38253   38255   38254   38256
   38258   38257   38259   38261   38260   38262   38264   38263   38265
   38267   38266   38268   38270   38269   38271   38273   38272   38274
   38276   38275   38277   38279   38278   38280   38282   38281   38283
   38285   38284   38286   38288   38287   38289   38291   38290   38292
   38294   38293   38295   38297   38296   38298   38300   38299   38301
   38303   38302   38304   38306   38305   38307   38309   38308   38310
   38312   38311   38313   38315   38314   38316   38318   38317   38319
   38321   38320   38322   38324   38323   38325   38327   38326   38328
   38330   38329   38331   38333   38332   38334   38336   38335   38337
   38339   38338   38340   38342   38341   38343   38345   38344   38346
   38348   38347   38349   38351   38350   38352   38354   38353   38355
   38357   38356   38358   38360   38359   38361   38363   38362   38364
   38366   38365   38367   38369   38368   38370   38372   38371   38373
   38375   38374   38376   38378   38377   38379   38381   38380   38382
   38384   38383   38385   38387   38386   38388   38390   38389   38391
   38393   38392   38394   38396   38395   38397   38399   38398   38400
   38402   38401   38403   38405   38404   38406   38408   38407   38409
   38411   38410   38412   38414   38413   38415   38417   38416   38418
   38420   38419   38421   38423   38422   38424   38426   38425   38427
   38429   38428   38430   38432   38431   38433   38435   38434   38436
   38438   38437   38439   38441   38440   38442   38444   38443   38445
   38447   38446   38448   38450   38449   38451   38453   38452   38454
   38456   38455   38457   38459   38458   38460   38462   38461   38463
   38465   38464   38466   38468   38467   38469   38471   38470   38472
   38474   38473   38475   38477   38476   38478   38480   38479   38481
   38483   38482   38484   38486   38485   38487   38489   38488   38490
   38492   38491   38493   38495   38494   38496   38498   38497   38499
   38501   38500   38502   38504   38503   38505   38507   38506   38508
   38510   38509   38511   38513   38512   38514   38516   38515   38517
   38519   38518   38520   38522   38521   38523   38525   38524   38526
   38528   38527   38529   38531   38530   38532   38534   38533   38535
   38537   38536   38538   38540   38539   38541   38543   38542   38544
   38546   38545   38547   38549   38548   38550   38552   38551   38553
   38555   38554   38556   38558   38557   38559   38561   38560   38562
   38564   38563   38565   38567   38566   38568   38570   38569   38571
   38573   38572   38574   38576   38575   38577   38579   38578   38580
   38582   38581   38583   38585   38584   38586   38588   38587   38589
   38591   38590   38592   38594   38593   38595   38597   38596   38598
   38600   38599   38601   38603   38602   38604   38606   38605   38607
   38609   38608   38610   38612   38611   38613   38615   38614   38616
   38618   38617   38619   38621   38620   38622   38624   38623   38625
   38627   38626   38628   38630   38629   38631   38633   38632   38634
   38636   38635   38637   38639   38638   38640   38642   38641   38643
   38645   38644   38646   38648   38647   38649   38651   38650   38652
   38654   38653   38655   38657   38656   38658   38660   38659   38661
   38663   38662   38664   38666   38665   38667   38669   38668   38670
   38672   38671   38673   38675   38674   38676   38678   38677   38679
   38681   38680   38682   38684   38683   38685   38687   38686   38688
   38690   38689   38691   38693   38692   38694   38696   38695   38697
   38699   38698   38700   38702   38701   38703   38705   38704   38706
   38708   38707   38709   38711   38710   38712   38714   38713   38715
   38717   38716   38718   38720   38719   38721   38723   38722   38724
   38726   38725   38727   38729   38728   38730   38732   38731   38733
   38735   38734   38736   38738   38737   38739   38741   38740   38742
   38744   38743   38745   38747   38746   38748   38750   38749   38751
   38753   38752   38754   38756   38755   38757   38759   38758   38760
   38762   38761   38763   38765   38764   38766   38768   38767   38769
   38771   38770   38772   38774   38773   38775   38777   38776   38778
   38780   38779   38781   38783   38782   38784   38786   38785   38787
   38789   38788   38790   38792   38791   38793   38795   38794   38796
   38798   38797   38799   38801   38800   38802   38804   38803   38805
   38807   38806   38808   38810   38809   38811   38813   38812   38814
   38816   38815   38817   38819   38818   38820   38822   38821   38823
   38825   38824   38826   38828   38827   38829   38831   38830   38832
   38834   38833   38835   38837   38836   38838   38840   38839   38841
   38843   38842   38844   38846   38845   38847   38849   38848   38850
   38852   38851   38853   38855   38854   38856   38858   38857   38859
   38861   38860   38862   38864   38863   38865   38867   38866   38868
   38870   38869   38871   38873   38872   38874   38876   38875   38877
   38879   38878   38880   38882   38881   38883   38885   38884   38886
   38888   38887   38889   38891   38890   38892   38894   38893   38895
   38897   38896   38898   38900   38899   38901   38903   38902   38904
   38906   38905   38907   38909   38908   38910   38912   38911   38913
   38915   38914   38916   38918   38917   38919   38921   38920   38922
   38924   38923   38925   38927   38926   38928   38930   38929   38931
   38933   38932   38934   38936   38935   38937   38939   38938   38940
   38942   38941   38943   38945   38944   38946   38948   38947   38949
   38951   38950   38952   38954   38953   38955   38957   38956   38958
   38960   38959   38961   38963   38962   38964   38966   38965   38967
   38969   38968   38970   38972   38971   38973   38975   38974   38976
   38978   38977   38979   38981   38980   38982   38984   38983   38985
   38987   38986   38988   38990   38989   38991   38993   38992   38994
   38996   38995   38997   38999   38998   39000   39002   39001   39003
   39005   39004   39006   39008   39007   39009   39011   39010   39012
   39014   39013   39015   39017   39016   39018   39020   39019   39021
   39023   39022   39024   39026   39025   39027   39029   39028   39030
   39032   39031   39033   39035   39034   39036   39038   39037   39039
   39041   39040   39042   39044   39043   39045   39047   39046   39048
   39050   39049   39051   39053   39052   39054   39056   39055   39057
   39059   39058   39060   39062   39061   39063   39065   39064   39066
   39068   39067   39069   39071   39070   39072   39074   39073   39075
   39077   39076   39078   39080   39079   39081   39083   39082   39084
   39086   39085   39087   39089   39088   39090   39092   39091   39093
   39095   39094   39096   39098   39097   39099   39101   39100   39102
   39104   39103   39105   39107   39106   39108   39110   39109   39111
   39113   39112   39114   39116   39115   39117   39119   39118   39120
   39122   39121   39123   39125   39124   39126   39128   39127   39129
   39131   39130   39132   39134   39133   39135   39137   39136   39138
   39140   39139   39141   39143   39142   39144   39146   39145   39147
   39149   39148   39150   39152   39151   39153   39155   39154   39156
   39158   39157   39159   39161   39160   39162   39164   39163   39165
   39167   39166   39168   39170   39169   39171   39173   39172   39174
   39176   39175   39177   39179   39178   39180   39182   39181   39183
   39185   39184   39186   39188   39187   39189   39191   39190   39192
   39194   39193   39195   39197   39196   39198   39200   39199   39201
   39203   39202   39204   39206   39205   39207   39209   39208   39210
   39212   39211   39213   39215   39214   39216   39218   39217   39219
   39221   39220   39222   39224   39223   39225   39227   39226   39228
   39230   39229   39231   39233   39232   39234   39236   39235   39237
   39239   39238   39240   39242   39241   39243   39245   39244   39246
   39248   39247   39249   39251   39250   39252   39254   39253   39255
   39257   39256   39258   39260   39259   39261   39263   39262   39264
   39266   39265   39267   39269   39268   39270   39272   39271   39273
   39275   39274   39276   39278   39277   39279   39281   39280   39282
   39284   39283   39285   39287   39286   39288   39290   39289   39291
   39293   39292   39294   39296   39295   39297   39299   39298   39300
   39302   39301   39303   39305   39304   39306   39308   39307   39309
   39311   39310   39312   39314   39313   39315   39317   39316   39318
   39320   39319   39321   39323   39322   39324   39326   39325   39327
   39329   39328   39330   39332   39331   39333   39335   39334   39336
   39338   39337   39339   39341   39340   39342   39344   39343   39345
   39347   39346   39348   39350   39349   39351   39353   39352   39354
   39356   39355   39357   39359   39358   39360   39362   39361   39363
   39365   39364   39366   39368   39367   39369   39371   39370   39372
   39374   39373   39375   39377   39376   39378   39380   39379   39381
   39383   39382   39384   39386   39385   39387   39389   39388   39390
   39392   39391   39393   39395   39394   39396   39398   39397   39399
   39401   39400   39402   39404   39403   39405   39407   39406   39408
   39410   39409   39411   39413   39412   39414   39416   39415   39417
   39419   39418   39420   39422   39421   39423   39425   39424   39426
   39428   39427   39429   39431   39430   39432   39434   39433   39435
   39437   39436   39438   39440   39439   39441   39443   39442   39444
   39446   39445   39447   39449   39448   39450   39452   39451   39453
   39455   39454   39456   39458   39457   39459   39461   39460   39462
   39464   39463   39465   39467   39466   39468   39470   39469   39471
   39473   39472   39474   39476   39475   39477   39479   39478   39480
   39482   39481   39483   39485   39484   39486   39488   39487   39489
   39491   39490   39492   39494   39493   39495   39497   39496   39498
   39500   39499   39501   39503   39502   39504   39506   39505   39507
   39509   39508   39510   39512   39511   39513   39515   39514   39516
   39518   39517   39519   39521   39520   39522   39524   39523   39525
   39527   39526   39528   39530   39529   39531   39533   39532   39534
   39536   39535   39537   39539   39538   39540   39542   39541   39543
   39545   39544   39546   39548   39547   39549   39551   39550   39552
   39554   39553   39555   39557   39556   39558   39560   39559   39561
   39563   39562   39564   39566   39565   39567   39569   39568   39570
   39572   39571   39573   39575   39574   39576   39578   39577   39579
   39581   39580   39582   39584   39583   39585   39587   39586   39588
   39590   39589   39591   39593   39592   39594   39596   39595   39597
   39599   39598   39600   39602   39601   39603   39605   39604   39606
   39608   39607   39609   39611   39610   39612   39614   39613   39615
   39617   39616   39618   39620   39619   39621   39623   39622   39624
   39626   39625   39627   39629   39628   39630   39632   39631   39633
   39635   39634   39636   39638   39637   39639   39641   39640   39642
   39644   39643   39645   39647   39646   39648   39650   39649   39651
   39653   39652   39654   39656   39655   39657   39659   39658   39660
   39662   39661   39663   39665   39664   39666   39668   39667   39669
   39671   39670   39672   39674   39673   39675   39677   39676   39678
   39680   39679   39681   39683   39682   39684   39686   39685   39687
   39689   39688   39690   39692   39691   39693   39695   39694   39696
   39698   39697   39699   39701   39700   39702   39704   39703   39705
   39707   39706   39708   39710   39709   39711   39713   39712   39714
   39716   39715   39717   39719   39718   39720   39722   39721   39723
   39725   39724   39726   39728   39727   39729   39731   39730   39732
   39734   39733   39735   39737   39736   39738   39740   39739   39741
   39743   39742   39744   39746   39745   39747   39749   39748   39750
   39752   39751   39753   39755   39754   39756   39758   39757   39759
   39761   39760   39762   39764   39763   39765   39767   39766   39768
   39770   39769   39771   39773   39772   39774   39776   39775   39777
   39779   39778   39780   39782   39781   39783   39785   39784   39786
   39788   39787   39789   39791   39790   39792   39794   39793   39795
   39797   39796   39798   39800   39799   39801   39803   39802   39804
   39806   39805   39807   39809   39808   39810   39812   39811   39813
   39815   39814   39816   39818   39817   39819   39821   39820   39822
   39824   39823   39825   39827   39826   39828   39830   39829   39831
   39833   39832   39834   39836   39835   39837   39839   39838   39840
   39842   39841   39843   39845   39844   39846   39848   39847   39849
   39851   39850   39852   39854   39853   39855   39857   39856   39858
   39860   39859   39861   39863   39862   39864   39866   39865   39867
   39869   39868   39870   39872   39871   39873   39875   39874   39876
   39878   39877   39879   39881   39880   39882   39884   39883   39885
   39887   39886   39888   39890   39889   39891   39893   39892   39894
   39896   39895   39897   39899   39898   39900   39902   39901   39903
   39905   39904   39906   39908   39907   39909   39911   39910   39912
   39914   39913   39915   39917   39916   39918   39920   39919   39921
   39923   39922   39924   39926   39925   39927   39929   39928   39930
   39932   39931   39933   39935   39934   39936   39938   39937   39939
   39941   39940   39942   39944   39943   39945   39947   39946   39948
   39950   39949   39951   39953   39952   39954   39956   39955   39957
   39959   39958   39960   39962   39961   39963   39965   39964   39966
   39968   39967   39969   39971   39970   39972   39974   39973   39975
   39977   39976   39978   39980   39979   39981   39983   39982   39984
   39986   39985   39987   39989   39988   39990   39992   39991   39993
   39995   39994   39996   39998   39997   39999   40001   40000   40002
   40004   40003   40005   40007   40006   40008   40010   40009   40011
   40013   40012   40014   40016   40015   40017   40019   40018   40020
   40022   40021   40023   40025   40024   40026   40028   40027   40029
   40031   40030   40032   40034   40033   40035   40037   40036   40038
   40040   40039   40041   40043   40042   40044   40046   40045   40047
   40049   40048   40050   40052   40051   40053   40055   40054   40056
   40058   40057   40059   40061   40060   40062   40064   40063   40065
   40067   40066   40068   40070   40069   40071   40073   40072   40074
   40076   40075   40077   40079   40078   40080   40082   40081   40083
   40085   40084   40086   40088   40087   40089   40091   40090   40092
   40094   40093   40095   40097   40096   40098   40100   40099   40101
   40103   40102   40104   40106   40105   40107   40109   40108   40110
   40112   40111   40113   40115   40114   40116   40118   40117   40119
   40121   40120   40122   40124   40123   40125   40127   40126   40128
   40130   40129   40131   40133   40132   40134   40136   40135   40137
   40139   40138   40140   40142   40141   40143   40145   40144   40146
   40148   40147   40149   40151   40150   40152   40154   40153   40155
   40157   40156   40158   40160   40159   40161   40163   40162   40164
   40166   40165   40167   40169   40168   40170   40172   40171   40173
   40175   40174   40176   40178   40177   40179   40181   40180   40182
   40184   40183   40185   40187   40186   40188   40190   40189   40191
   40193   40192   40194   40196   40195   40197   40199   40198   40200
   40202   40201   40203   40205   40204   40206   40208   40207   40209
   40211   40210   40212   40214   40213   40215   40217   40216   40218
   40220   40219   40221   40223   40222   40224   40226   40225   40227
   40229   40228   40230   40232   40231   40233   40235   40234   40236
   40238   40237   40239   40241   40240   40242   40244   40243   40245
   40247   40246   40248   40250   40249   40251   40253   40252   40254
   40256   40255   40257   40259   40258   40260   40262   40261   40263
   40265   40264   40266   40268   40267   40269   40271   40270   40272
   40274   40273   40275   40277   40276   40278   40280   40279   40281
   40283   40282   40284   40286   40285   40287   40289   40288   40290
   40292   40291   40293   40295   40294   40296   40298   40297   40299
   40301   40300   40302   40304   40303   40305   40307   40306   40308
   40310   40309   40311   40313   40312   40314   40316   40315   40317
   40319   40318   40320   40322   40321   40323   40325   40324   40326
   40328   40327   40329   40331   40330   40332   40334   40333   40335
   40337   40336   40338   40340   40339   40341   40343   40342   40344
   40346   40345   40347   40349   40348   40350   40352   40351   40353
   40355   40354   40356   40358   40357   40359   40361   40360   40362
   40364   40363   40365   40367   40366   40368   40370   40369   40371
   40373   40372   40374   40376   40375   40377   40379   40378   40380
   40382   40381   40383   40385   40384   40386   40388   40387   40389
   40391   40390   40392   40394   40393   40395   40397   40396   40398
   40400   40399   40401   40403   40402   40404   40406   40405   40407
   40409   40408   40410   40412   40411   40413   40415   40414   40416
   40418   40417   40419   40421   40420   40422   40424   40423   40425
   40427   40426   40428   40430   40429   40431   40433   40432   40434
   40436   40435   40437   40439   40438   40440   40442   40441   40443
   40445   40444   40446   40448   40447   40449   40451   40450   40452
   40454   40453   40455   40457   40456   40458   40460   40459   40461
   40463   40462   40464   40466   40465   40467   40469   40468   40470
   40472   40471   40473   40475   40474   40476   40478   40477   40479
   40481   40480   40482   40484   40483   40485   40487   40486   40488
   40490   40489   40491   40493   40492   40494   40496   40495   40497
   40499   40498   40500   40502   40501   40503   40505   40504   40506
   40508   40507   40509   40511   40510   40512   40514   40513   40515
   40517   40516   40518   40520   40519   40521   40523   40522   40524
   40526   40525   40527   40529   40528   40530   40532   40531   40533
   40535   40534   40536   40538   40537   40539   40541   40540   40542
   40544   40543   40545   40547   40546   40548   40550   40549   40551
   40553   40552   40554   40556   40555   40557   40559   40558   40560
   40562   40561   40563   40565   40564   40566   40568   40567   40569
   40571   40570   40572   40574   40573   40575   40577   40576   40578
   40580   40579   40581   40583   40582   40584   40586   40585   40587
   40589   40588   40590   40592   40591   40593   40595   40594   40596
   40598   40597   40599   40601   40600   40602   40604   40603   40605
   40607   40606   40608   40610   40609   40611   40613   40612   40614
   40616   40615   40617   40619   40618   40620   40622   40621   40623
   40625   40624   40626   40628   40627   40629   40631   40630   40632
   40634   40633   40635   40637   40636   40638   40640   40639   40641
   40643   40642   40644   40646   40645   40647   40649   40648   40650
   40652   40651   40653   40655   40654   40656   40658   40657   40659
   40661   40660   40662   40664   40663   40665   40667   40666   40668
   40670   40669   40671   40673   40672   40674   40676   40675   40677
   40679   40678   40680   40682   40681   40683   40685   40684   40686
   40688   40687   40689   40691   40690   40692   40694   40693   40695
   40697   40696   40698   40700   40699   40701   40703   40702   40704
   40706   40705   40707   40709   40708   40710   40712   40711   40713
   40715   40714   40716   40718   40717   40719   40721   40720   40722
   40724   40723   40725   40727   40726   40728   40730   40729   40731
   40733   40732   40734   40736   40735   40737   40739   40738   40740
   40742   40741   40743   40745   40744   40746   40748   40747   40749
   40751   40750   40752   40754   40753   40755   40757   40756   40758
   40760   40759   40761   40763   40762   40764   40766   40765   40767
   40769   40768   40770   40772   40771   40773   40775   40774   40776
   40778   40777   40779   40781   40780   40782   40784   40783   40785
   40787   40786   40788   40790   40789   40791   40793   40792   40794
   40796   40795   40797   40799   40798   40800   40802   40801   40803
   40805   40804   40806   40808   40807   40809   40811   40810   40812
   40814   40813   40815   40817   40816   40818   40820   40819   40821
   40823   40822   40824   40826   40825   40827   40829   40828   40830
   40832   40831   40833   40835   40834   40836   40838   40837   40839
   40841   40840   40842   40844   40843   40845   40847   40846   40848
   40850   40849   40851   40853   40852   40854   40856   40855   40857
   40859   40858   40860   40862   40861   40863   40865   40864   40866
   40868   40867   40869   40871   40870   40872   40874   40873   40875
   40877   40876   40878   40880   40879   40881   40883   40882   40884
   40886   40885   40887   40889   40888   40890   40892   40891   40893
   40895   40894   40896   40898   40897   40899   40901   40900   40902
   40904   40903   40905   40907   40906   40908   40910   40909   40911
   40913   40912   40914   40916   40915   40917   40919   40918   40920
   40922   40921   40923   40925   40924   40926   40928   40927   40929
   40931   40930   40932   40934   40933   40935   40937   40936   40938
   40940   40939   40941   40943   40942   40944   40946   40945   40947
   40949   40948   40950   40952   40951   40953   40955   40954   40956
   40958   40957   40959   40961   40960   40962   40964   40963   40965
   40967   40966   40968   40970   40969   40971   40973   40972   40974
   40976   40975   40977   40979   40978   40980   40982   40981   40983
   40985   40984   40986   40988   40987   40989   40991   40990   40992
   40994   40993   40995   40997   40996   40998   41000   40999   41001
   41003   41002   41004   41006   41005   41007   41009   41008   41010
   41012   41011   41013   41015   41014   41016   41018   41017   41019
   41021   41020   41022   41024   41023   41025   41027   41026   41028
   41030   41029   41031   41033   41032   41034   41036   41035   41037
   41039   41038   41040   41042   41041   41043   41045   41044   41046
   41048   41047   41049   41051   41050   41052   41054   41053   41055
   41057   41056   41058   41060   41059   41061   41063   41062   41064
   41066   41065   41067   41069   41068   41070   41072   41071   41073
   41075   41074   41076   41078   41077   41079   41081   41080   41082
   41084   41083   41085   41087   41086   41088   41090   41089   41091
   41093   41092   41094   41096   41095   41097   41099   41098   41100
   41102   41101   41103   41105   41104   41106   41108   41107   41109
   41111   41110   41112   41114   41113   41115   41117   41116   41118
   41120   41119   41121   41123   41122   41124   41126   41125   41127
   41129   41128   41130   41132   41131   41133   41135   41134   41136
   41138   41137   41139   41141   41140   41142   41144   41143   41145
   41147   41146   41148   41150   41149   41151   41153   41152   41154
   41156   41155   41157   41159   41158   41160   41162   41161   41163
   41165   41164   41166   41168   41167   41169   41171   41170   41172
   41174   41173   41175   41177   41176   41178   41180   41179   41181
   41183   41182   41184   41186   41185   41187   41189   41188   41190
   41192   41191   41193   41195   41194   41196   41198   41197   41199
   41201   41200   41202   41204   41203   41205   41207   41206   41208
   41210   41209   41211   41213   41212   41214   41216   41215   41217
   41219   41218   41220   41222   41221   41223   41225   41224   41226
   41228   41227   41229   41231   41230   41232   41234   41233   41235
   41237   41236   41238   41240   41239   41241   41243   41242   41244
   41246   41245   41247   41249   41248   41250   41252   41251   41253
   41255   41254   41256   41258   41257   41259   41261   41260   41262
   41264   41263   41265   41267   41266   41268   41270   41269   41271
   41273   41272   41274   41276   41275   41277   41279   41278   41280
   41282   41281   41283   41285   41284   41286   41288   41287   41289
   41291   41290   41292   41294   41293   41295   41297   41296   41298
   41300   41299   41301   41303   41302   41304   41306   41305   41307
   41309   41308   41310   41312   41311   41313   41315   41314   41316
   41318   41317   41319   41321   41320   41322   41324   41323   41325
   41327   41326   41328   41330   41329   41331   41333   41332   41334
   41336   41335   41337   41339   41338   41340   41342   41341   41343
   41345   41344   41346   41348   41347   41349   41351   41350   41352
   41354   41353   41355   41357   41356   41358   41360   41359   41361
   41363   41362   41364   41366   41365   41367   41369   41368   41370
   41372   41371   41373   41375   41374   41376   41378   41377   41379
   41381   41380   41382   41384   41383   41385   41387   41386   41388
   41390   41389   41391   41393   41392   41394   41396   41395   41397
   41399   41398   41400   41402   41401   41403   41405   41404   41406
   41408   41407   41409   41411   41410   41412   41414   41413   41415
   41417   41416   41418   41420   41419   41421   41423   41422   41424
   41426   41425   41427   41429   41428   41430   41432   41431   41433
   41435   41434   41436   41438   41437   41439   41441   41440   41442
   41444   41443   41445   41447   41446   41448   41450   41449   41451
   41453   41452   41454   41456   41455   41457   41459   41458   41460
   41462   41461   41463   41465   41464   41466   41468   41467   41469
   41471   41470   41472   41474   41473   41475   41477   41476   41478
   41480   41479   41481   41483   41482   41484   41486   41485   41487
   41489   41488   41490   41492   41491   41493   41495   41494   41496
   41498   41497   41499   41501   41500   41502   41504   41503   41505
   41507   41506   41508   41510   41509   41511   41513   41512   41514
   41516   41515   41517   41519   41518   41520   41522   41521   41523
   41525   41524   41526   41528   41527   41529   41531   41530   41532
   41534   41533   41535   41537   41536   41538   41540   41539   41541
   41543   41542   41544   41546   41545   41547   41549   41548   41550
   41552   41551   41553   41555   41554   41556   41558   41557   41559
   41561   41560   41562   41564   41563   41565   41567   41566   41568
   41570   41569   41571   41573   41572   41574   41576   41575   41577
   41579   41578   41580   41582   41581   41583   41585   41584   41586
   41588   41587   41589   41591   41590   41592   41594   41593   41595
   41597   41596   41598   41600   41599   41601   41603   41602   41604
   41606   41605   41607   41609   41608   41610   41612   41611   41613
   41615   41614   41616   41618   41617   41619   41621   41620   41622
   41624   41623   41625   41627   41626   41628   41630   41629   41631
   41633   41632   41634   41636   41635   41637   41639   41638   41640
   41642   41641   41643   41645   41644   41646   41648   41647   41649
   41651   41650   41652   41654   41653   41655   41657   41656   41658
   41660   41659   41661   41663   41662   41664   41666   41665   41667
   41669   41668   41670   41672   41671   41673   41675   41674   41676
   41678   41677   41679   41681   41680   41682   41684   41683   41685
   41687   41686   41688   41690   41689   41691   41693   41692   41694
   41696   41695   41697   41699   41698   41700   41702   41701   41703
   41705   41704   41706   41708   41707   41709   41711   41710   41712
   41714   41713   41715   41717   41716   41718   41720   41719   41721
   41723   41722   41724   41726   41725   41727   41729   41728   41730
   41732   41731   41733   41735   41734   41736   41738   41737   41739
   41741   41740   41742   41744   41743   41745   41747   41746   41748
   41750   41749   41751   41753   41752   41754   41756   41755   41757
   41759   41758   41760   41762   41761   41763   41765   41764   41766
   41768   41767   41769   41771   41770   41772   41774   41773   41775
   41777   41776   41778   41780   41779   41781   41783   41782   41784
   41786   41785   41787   41789   41788   41790   41792   41791   41793
   41795   41794   41796   41798   41797   41799   41801   41800   41802
   41804   41803   41805   41807   41806   41808   41810   41809   41811
   41813   41812   41814   41816   41815   41817   41819   41818   41820
   41822   41821   41823   41825   41824   41826   41828   41827   41829
   41831   41830   41832   41834   41833   41835   41837   41836   41838
   41840   41839   41841   41843   41842   41844   41846   41845   41847
   41849   41848   41850   41852   41851   41853   41855   41854   41856
   41858   41857   41859   41861   41860   41862   41864   41863   41865
   41867   41866   41868   41870   41869   41871   41873   41872   41874
   41876   41875   41877   41879   41878   41880   41882   41881   41883
   41885   41884   41886   41888   41887   41889   41891   41890   41892
   41894   41893   41895   41897   41896   41898   41900   41899   41901
   41903   41902   41904   41906   41905   41907   41909   41908   41910
   41912   41911   41913   41915   41914   41916   41918   41917   41919
   41921   41920   41922   41924   41923   41925   41927   41926   41928
   41930   41929   41931   41933   41932   41934   41936   41935   41937
   41939   41938   41940   41942   41941   41943   41945   41944   41946
   41948   41947   41949   41951   41950   41952   41954   41953   41955
   41957   41956   41958   41960   41959   41961   41963   41962   41964
   41966   41965   41967   41969   41968   41970   41972   41971   41973
   41975   41974   41976   41978   41977   41979   41981   41980   41982
   41984   41983   41985   41987   41986   41988   41990   41989   41991
   41993   41992   41994   41996   41995   41997   41999   41998   42000
   42002   42001   42003   42005   42004   42006   42008   42007   42009
   42011   42010   42012   42014   42013   42015   42017   42016   42018
   42020   42019   42021   42023   42022   42024   42026   42025   42027
   42029   42028   42030   42032   42031   42033   42035   42034   42036
   42038   42037   42039   42041   42040   42042   42044   42043   42045
   42047   42046   42048   42050   42049   42051   42053   42052   42054
   42056   42055   42057   42059   42058   42060   42062   42061   42063
   42065   42064   42066   42068   42067   42069   42071   42070   42072
   42074   42073   42075   42077   42076   42078   42080   42079   42081
   42083   42082   42084   42086   42085   42087   42089   42088   42090
   42092   42091   42093   42095   42094   42096   42098   42097   42099
   42101   42100   42102   42104   42103   42105   42107   42106   42108
   42110   42109   42111   42113   42112   42114   42116   42115   42117
   42119   42118   42120   42122   42121   42123   42125   42124   42126
   42128   42127   42129   42131   42130   42132   42134   42133   42135
   42137   42136   42138   42140   42139   42141   42143   42142   42144
   42146   42145   42147   42149   42148   42150   42152   42151   42153
   42155   42154   42156   42158   42157   42159   42161   42160   42162
   42164   42163   42165   42167   42166   42168   42170   42169   42171
   42173   42172   42174   42176   42175   42177   42179   42178   42180
   42182   42181   42183   42185   42184   42186   42188   42187   42189
   42191   42190   42192   42194   42193   42195   42197   42196   42198
   42200   42199   42201   42203   42202   42204   42206   42205   42207
   42209   42208   42210   42212   42211   42213   42215   42214   42216
   42218   42217   42219   42221   42220   42222   42224   42223   42225
   42227   42226   42228   42230   42229   42231   42233   42232   42234
   42236   42235   42237   42239   42238   42240   42242   42241   42243
   42245   42244   42246   42248   42247   42249   42251   42250   42252
   42254   42253   42255   42257   42256   42258   42260   42259   42261
   42263   42262   42264   42266   42265   42267   42269   42268   42270
   42272   42271   42273   42275   42274   42276   42278   42277   42279
   42281   42280   42282   42284   42283   42285   42287   42286   42288
   42290   42289   42291   42293   42292   42294   42296   42295   42297
   42299   42298   42300   42302   42301   42303   42305   42304   42306
   42308   42307   42309   42311   42310   42312   42314   42313   42315
   42317   42316   42318   42320   42319   42321   42323   42322   42324
   42326   42325   42327   42329   42328   42330   42332   42331   42333
   42335   42334   42336   42338   42337   42339   42341   42340   42342
   42344   42343   42345   42347   42346   42348   42350   42349   42351
   42353   42352   42354   42356   42355   42357   42359   42358   42360
   42362   42361   42363   42365   42364   42366   42368   42367   42369
   42371   42370   42372   42374   42373   42375   42377   42376   42378
   42380   42379   42381   42383   42382   42384   42386   42385   42387
   42389   42388   42390   42392   42391   42393   42395   42394   42396
   42398   42397   42399   42401   42400   42402   42404   42403   42405
   42407   42406   42408   42410   42409   42411   42413   42412   42414
   42416   42415   42417   42419   42418   42420   42422   42421   42423
   42425   42424   42426   42428   42427   42429   42431   42430   42432
   42434   42433   42435   42437   42436   42438   42440   42439   42441
   42443   42442   42444   42446   42445   42447   42449   42448   42450
   42452   42451   42453   42455   42454   42456   42458   42457   42459
   42461   42460   42462   42464   42463   42465   42467   42466   42468
   42470   42469   42471   42473   42472   42474   42476   42475   42477
   42479   42478   42480   42482   42481   42483   42485   42484   42486
   42488   42487   42489   42491   42490   42492   42494   42493   42495
   42497   42496   42498   42500   42499   42501   42503   42502   42504
   42506   42505   42507   42509   42508   42510   42512   42511   42513
   42515   42514   42516   42518   42517   42519   42521   42520   42522
   42524   42523   42525   42527   42526   42528   42530   42529   42531
   42533   42532   42534   42536   42535   42537   42539   42538   42540
   42542   42541   42543   42545   42544   42546   42548   42547   42549
   42551   42550   42552   42554   42553   42555   42557   42556   42558
   42560   42559   42561   42563   42562   42564   42566   42565   42567
   42569   42568   42570   42572   42571   42573   42575   42574   42576
   42578   42577   42579   42581   42580   42582   42584   42583   42585
   42587   42586   42588   42590   42589   42591   42593   42592   42594
   42596   42595   42597   42599   42598   42600   42602   42601   42603
   42605   42604   42606   42608   42607   42609   42611   42610   42612
   42614   42613   42615   42617   42616   42618   42620   42619   42621
   42623   42622   42624   42626   42625   42627   42629   42628   42630
   42632   42631   42633   42635   42634   42636   42638   42637   42639
   42641   42640   42642   42644   42643   42645   42647   42646   42648
   42650   42649   42651   42653   42652   42654   42656   42655   42657
   42659   42658   42660   42662   42661   42663   42665   42664   42666
   42668   42667   42669   42671   42670   42672   42674   42673   42675
   42677   42676   42678   42680   42679   42681   42683   42682   42684
   42686   42685   42687   42689   42688   42690   42692   42691   42693
   42695   42694   42696   42698   42697   42699   42701   42700   42702
   42704   42703   42705   42707   42706   42708   42710   42709   42711
   42713   42712   42714   42716   42715   42717   42719   42718   42720
   42722   42721   42723   42725   42724   42726   42728   42727   42729
   42731   42730   42732   42734   42733   42735   42737   42736   42738
   42740   42739   42741   42743   42742   42744   42746   42745   42747
   42749   42748   42750   42752   42751   42753   42755   42754   42756
   42758   42757   42759   42761   42760   42762   42764   42763   42765
   42767   42766   42768   42770   42769   42771   42773   42772   42774
   42776   42775   42777   42779   42778   42780   42782   42781   42783
   42785   42784   42786   42788   42787   42789   42791   42790   42792
   42794   42793   42795   42797   42796   42798   42800   42799   42801
   42803   42802   42804   42806   42805   42807   42809   42808   42810
   42812   42811   42813   42815   42814   42816   42818   42817   42819
   42821   42820   42822   42824   42823   42825   42827   42826   42828
   42830   42829   42831   42833   42832   42834   42836   42835   42837
   42839   42838   42840   42842   42841   42843   42845   42844   42846
   42848   42847   42849   42851   42850   42852   42854   42853   42855
   42857   42856   42858   42860   42859   42861   42863   42862   42864
   42866   42865   42867   42869   42868   42870   42872   42871   42873
   42875   42874   42876   42878   42877   42879   42881   42880   42882
   42884   42883   42885   42887   42886   42888   42890   42889   42891
   42893   42892   42894   42896   42895   42897   42899   42898   42900
   42902   42901   42903   42905   42904   42906   42908   42907   42909
   42911   42910   42912   42914   42913   42915   42917   42916   42918
   42920   42919   42921   42923   42922   42924   42926   42925   42927
   42929   42928   42930   42932   42931   42933   42935   42934   42936
   42938   42937   42939   42941   42940   42942   42944   42943   42945
   42947   42946   42948   42950   42949   42951   42953   42952   42954
   42956   42955   42957   42959   42958   42960   42962   42961   42963
   42965   42964   42966   42968   42967   42969   42971   42970   42972
   42974   42973   42975   42977   42976   42978   42980   42979   42981
   42983   42982   42984   42986   42985   42987   42989   42988   42990
   42992   42991   42993   42995   42994   42996   42998   42997   42999
   43001   43000   43002   43004   43003   43005   43007   43006   43008
   43010   43009   43011   43013   43012   43014   43016   43015   43017
   43019   43018   43020   43022   43021   43023   43025   43024   43026
   43028   43027   43029   43031   43030   43032   43034   43033   43035
   43037   43036   43038   43040   43039   43041   43043   43042   43044
   43046   43045   43047   43049   43048   43050   43052   43051   43053
   43055   43054   43056   43058   43057   43059   43061   43060   43062
   43064   43063   43065   43067   43066   43068   43070   43069   43071
   43073   43072   43074   43076   43075   43077   43079   43078   43080
   43082   43081   43083   43085   43084   43086   43088   43087   43089
   43091   43090   43092   43094   43093   43095   43097   43096   43098
   43100   43099   43101   43103   43102   43104   43106   43105   43107
   43109   43108   43110   43112   43111   43113   43115   43114   43116
   43118   43117   43119   43121   43120   43122   43124   43123   43125
   43127   43126   43128   43130   43129   43131   43133   43132   43134
   43136   43135   43137   43139   43138   43140   43142   43141   43143
   43145   43144   43146   43148   43147   43149   43151   43150   43152
   43154   43153   43155   43157   43156   43158   43160   43159   43161
   43163   43162   43164   43166   43165   43167   43169   43168   43170
   43172   43171   43173   43175   43174   43176   43178   43177   43179
   43181   43180   43182   43184   43183   43185   43187   43186   43188
   43190   43189   43191   43193   43192   43194   43196   43195   43197
   43199   43198   43200   43202   43201   43203   43205   43204   43206
   43208   43207   43209   43211   43210   43212   43214   43213   43215
   43217   43216   43218   43220   43219   43221   43223   43222   43224
   43226   43225   43227   43229   43228   43230   43232   43231   43233
   43235   43234   43236   43238   43237   43239   43241   43240   43242
   43244   43243   43245   43247   43246   43248   43250   43249   43251
   43253   43252   43254   43256   43255   43257   43259   43258   43260
   43262   43261   43263   43265   43264   43266   43268   43267   43269
   43271   43270   43272   43274   43273   43275   43277   43276   43278
   43280   43279   43281   43283   43282   43284   43286   43285   43287
   43289   43288   43290   43292   43291   43293   43295   43294   43296
   43298   43297   43299   43301   43300   43302   43304   43303   43305
   43307   43306   43308   43310   43309   43311   43313   43312   43314
   43316   43315   43317   43319   43318   43320   43322   43321   43323
   43325   43324   43326   43328   43327   43329   43331   43330   43332
   43334   43333   43335   43337   43336   43338   43340   43339   43341
   43343   43342   43344   43346   43345   43347   43349   43348   43350
   43352   43351   43353   43355   43354   43356   43358   43357   43359
   43361   43360   43362   43364   43363   43365   43367   43366   43368
   43370   43369   43371   43373   43372   43374   43376   43375   43377
   43379   43378   43380   43382   43381   43383   43385   43384   43386
   43388   43387   43389   43391   43390   43392   43394   43393   43395
   43397   43396   43398   43400   43399   43401   43403   43402   43404
   43406   43405   43407   43409   43408   43410   43412   43411   43413
   43415   43414   43416   43418   43417   43419   43421   43420   43422
   43424   43423   43425   43427   43426   43428   43430   43429   43431
   43433   43432   43434   43436   43435   43437   43439   43438   43440
   43442   43441   43443   43445   43444   43446   43448   43447   43449
   43451   43450   43452   43454   43453   43455   43457   43456   43458
   43460   43459   43461   43463   43462   43464   43466   43465   43467
   43469   43468   43470   43472   43471   43473   43475   43474   43476
   43478   43477   43479   43481   43480   43482   43484   43483   43485
   43487   43486   43488   43490   43489   43491   43493   43492   43494
   43496   43495   43497   43499   43498   43500   43502   43501   43503
   43505   43504   43506   43508   43507   43509   43511   43510   43512
   43514   43513   43515   43517   43516   43518   43520   43519   43521
   43523   43522   43524   43526   43525   43527   43529   43528   43530
   43532   43531   43533   43535   43534   43536   43538   43537   43539
   43541   43540   43542   43544   43543   43545   43547   43546   43548
   43550   43549   43551   43553   43552   43554   43556   43555   43557
   43559   43558   43560   43562   43561   43563   43565   43564   43566
   43568   43567   43569   43571   43570   43572   43574   43573   43575
   43577   43576   43578   43580   43579   43581   43583   43582   43584
   43586   43585   43587   43589   43588   43590   43592   43591   43593
   43595   43594   43596   43598   43597   43599   43601   43600   43602
   43604   43603   43605   43607   43606   43608   43610   43609   43611
   43613   43612   43614   43616   43615   43617   43619   43618   43620
   43622   43621   43623   43625   43624   43626   43628   43627   43629
   43631   43630   43632   43634   43633   43635   43637   43636   43638
   43640   43639   43641   43643   43642   43644   43646   43645   43647
   43649   43648   43650   43652   43651   43653   43655   43654   43656
   43658   43657   43659   43661   43660   43662   43664   43663   43665
   43667   43666   43668   43670   43669   43671   43673   43672   43674
   43676   43675   43677   43679   43678   43680   43682   43681   43683
   43685   43684   43686   43688   43687   43689   43691   43690   43692
   43694   43693   43695   43697   43696   43698   43700   43699   43701
   43703   43702   43704   43706   43705   43707   43709   43708   43710
   43712   43711   43713   43715   43714   43716   43718   43717   43719
   43721   43720   43722   43724   43723   43725   43727   43726   43728
   43730   43729   43731   43733   43732   43734   43736   43735   43737
   43739   43738   43740   43742   43741   43743   43745   43744   43746
   43748   43747   43749   43751   43750   43752   43754   43753   43755
   43757   43756   43758   43760   43759   43761   43763   43762   43764
   43766   43765   43767   43769   43768   43770   43772   43771   43773
   43775   43774   43776   43778   43777   43779   43781   43780   43782
   43784   43783   43785   43787   43786   43788   43790   43789   43791
   43793   43792   43794   43796   43795   43797   43799   43798   43800
   43802   43801   43803   43805   43804   43806   43808   43807   43809
   43811   43810   43812   43814   43813   43815   43817   43816   43818
   43820   43819   43821   43823   43822   43824   43826   43825   43827
   43829   43828   43830   43832   43831   43833   43835   43834   43836
   43838   43837   43839   43841   43840   43842   43844   43843   43845
   43847   43846   43848   43850   43849   43851   43853   43852   43854
   43856   43855   43857   43859   43858   43860   43862   43861   43863
   43865   43864   43866   43868   43867   43869   43871   43870   43872
   43874   43873   43875   43877   43876   43878   43880   43879   43881
   43883   43882   43884   43886   43885   43887   43889   43888   43890
   43892   43891   43893   43895   43894   43896   43898   43897   43899
   43901   43900   43902   43904   43903   43905   43907   43906   43908
   43910   43909   43911   43913   43912   43914   43916   43915   43917
   43919   43918   43920   43922   43921   43923   43925   43924   43926
   43928   43927   43929   43931   43930   43932   43934   43933   43935
   43937   43936   43938   43940   43939   43941   43943   43942   43944
   43946   43945   43947   43949   43948   43950   43952   43951   43953
   43955   43954   43956   43958   43957   43959   43961   43960   43962
   43964   43963   43965   43967   43966   43968   43970   43969   43971
   43973   43972   43974   43976   43975   43977   43979   43978   43980
   43982   43981   43983   43985   43984   43986   43988   43987   43989
   43991   43990   43992   43994   43993   43995   43997   43996   43998
   44000   43999   44001   44003   44002   44004   44006   44005   44007
   44009   44008   44010   44012   44011   44013   44015   44014   44016
   44018   44017   44019   44021   44020   44022   44024   44023   44025
   44027   44026   44028   44030   44029   44031   44033   44032   44034
   44036   44035   44037   44039   44038   44040   44042   44041   44043
   44045   44044   44046   44048   44047   44049   44051   44050   44052
   44054   44053   44055   44057   44056   44058   44060   44059   44061
   44063   44062   44064   44066   44065   44067   44069   44068   44070
   44072   44071   44073   44075   44074   44076   44078   44077   44079
   44081   44080   44082   44084   44083   44085   44087   44086   44088
   44090   44089   44091   44093   44092   44094   44096   44095   44097
   44099   44098   44100   44102   44101   44103   44105   44104   44106
   44108   44107   44109   44111   44110   44112   44114   44113   44115
   44117   44116   44118   44120   44119   44121   44123   44122   44124
   44126   44125   44127   44129   44128   44130   44132   44131   44133
   44135   44134   44136   44138   44137   44139   44141   44140   44142
   44144   44143   44145   44147   44146   44148   44150   44149   44151
   44153   44152   44154   44156   44155   44157   44159   44158   44160
   44162   44161   44163   44165   44164   44166   44168   44167   44169
   44171   44170   44172   44174   44173   44175   44177   44176   44178
   44180   44179   44181   44183   44182   44184   44186   44185   44187
   44189   44188   44190   44192   44191   44193   44195   44194   44196
   44198   44197   44199   44201   44200   44202   44204   44203   44205
   44207   44206   44208   44210   44209   44211   44213   44212   44214
   44216   44215   44217   44219   44218   44220   44222   44221   44223
   44225   44224   44226   44228   44227   44229   44231   44230   44232
   44234   44233   44235   44237   44236   44238   44240   44239   44241
   44243   44242   44244   44246   44245   44247   44249   44248   44250
   44252   44251   44253   44255   44254   44256   44258   44257   44259
   44261   44260   44262   44264   44263   44265   44267   44266   44268
   44270   44269   44271   44273   44272   44274   44276   44275   44277
   44279   44278   44280   44282   44281   44283   44285   44284   44286
   44288   44287   44289   44291   44290   44292   44294   44293   44295
   44297   44296   44298   44300   44299   44301   44303   44302   44304
   44306   44305   44307   44309   44308   44310   44312   44311   44313
   44315   44314   44316   44318   44317   44319   44321   44320   44322
   44324   44323   44325   44327   44326   44328   44330   44329   44331
   44333   44332   44334   44336   44335   44337   44339   44338   44340
   44342   44341   44343   44345   44344   44346   44348   44347   44349
   44351   44350   44352   44354   44353   44355   44357   44356   44358
   44360   44359   44361   44363   44362   44364   44366   44365   44367
   44369   44368   44370   44372   44371   44373   44375   44374   44376
   44378   44377   44379   44381   44380   44382   44384   44383   44385
   44387   44386   44388   44390   44389   44391   44393   44392   44394
   44396   44395   44397   44399   44398   44400   44402   44401   44403
   44405   44404   44406   44408   44407   44409   44411   44410   44412
   44414   44413   44415   44417   44416   44418   44420   44419   44421
   44423   44422   44424   44426   44425   44427   44429   44428   44430
   44432   44431   44433   44435   44434   44436   44438   44437   44439
   44441   44440   44442   44444   44443   44445   44447   44446   44448
   44450   44449   44451   44453   44452   44454   44456   44455   44457
   44459   44458   44460   44462   44461   44463   44465   44464   44466
   44468   44467   44469   44471   44470   44472   44474   44473   44475
   44477   44476   44478   44480   44479   44481   44483   44482   44484
   44486   44485   44487   44489   44488   44490   44492   44491   44493
   44495   44494   44496   44498   44497   44499   44501   44500   44502
   44504   44503   44505   44507   44506   44508   44510   44509   44511
   44513   44512   44514   44516   44515   44517   44519   44518   44520
   44522   44521   44523   44525   44524   44526   44528   44527   44529
   44531   44530   44532   44534   44533   44535   44537   44536   44538
   44540   44539   44541   44543   44542   44544   44546   44545   44547
   44549   44548   44550   44552   44551   44553   44555   44554   44556
   44558   44557   44559   44561   44560   44562   44564   44563   44565
   44567   44566   44568   44570   44569   44571   44573   44572   44574
   44576   44575   44577   44579   44578   44580   44582   44581   44583
   44585   44584   44586   44588   44587   44589   44591   44590   44592
   44594   44593   44595   44597   44596   44598   44600   44599   44601
   44603   44602   44604   44606   44605   44607   44609   44608   44610
   44612   44611   44613   44615   44614   44616   44618   44617   44619
   44621   44620   44622   44624   44623   44625   44627   44626   44628
   44630   44629   44631   44633   44632   44634   44636   44635   44637
   44639   44638   44640   44642   44641   44643   44645   44644   44646
   44648   44647   44649   44651   44650   44652   44654   44653   44655
   44657   44656   44658   44660   44659   44661   44663   44662   44664
   44666   44665   44667   44669   44668   44670   44672   44671   44673
   44675   44674   44676   44678   44677   44679   44681   44680   44682
   44684   44683   44685   44687   44686   44688   44690   44689   44691
   44693   44692   44694   44696   44695   44697   44699   44698   44700
   44702   44701   44703   44705   44704   44706   44708   44707   44709
   44711   44710   44712   44714   44713   44715   44717   44716   44718
   44720   44719   44721   44723   44722   44724   44726   44725   44727
   44729   44728   44730   44732   44731   44733   44735   44734   44736
   44738   44737   44739   44741   44740   44742   44744   44743   44745
   44747   44746   44748   44750   44749   44751   44753   44752   44754
   44756   44755   44757   44759   44758   44760   44762   44761   44763
   44765   44764   44766   44768   44767   44769   44771   44770   44772
   44774   44773   44775   44777   44776   44778   44780   44779   44781
   44783   44782   44784   44786   44785   44787   44789   44788   44790
   44792   44791   44793   44795   44794   44796   44798   44797   44799
   44801   44800   44802   44804   44803   44805   44807   44806   44808
   44810   44809   44811   44813   44812   44814   44816   44815   44817
   44819   44818   44820   44822   44821   44823   44825   44824   44826
   44828   44827   44829   44831   44830   44832   44834   44833   44835
   44837   44836   44838   44840   44839   44841   44843   44842   44844
   44846   44845   44847   44849   44848   44850   44852   44851   44853
   44855   44854   44856   44858   44857   44859   44861   44860   44862
   44864   44863   44865   44867   44866   44868   44870   44869   44871
   44873   44872   44874   44876   44875   44877   44879   44878   44880
   44882   44881   44883   44885   44884   44886   44888   44887   44889
   44891   44890   44892   44894   44893   44895   44897   44896   44898
   44900   44899   44901   44903   44902   44904   44906   44905   44907
   44909   44908   44910   44912   44911   44913   44915   44914   44916
   44918   44917   44919   44921   44920   44922   44924   44923   44925
   44927   44926   44928   44930   44929   44931   44933   44932   44934
   44936   44935   44937   44939   44938   44940   44942   44941   44943
   44945   44944   44946   44948   44947   44949   44951   44950   44952
   44954   44953   44955   44957   44956   44958   44960   44959   44961
   44963   44962   44964   44966   44965   44967   44969   44968   44970
   44972   44971   44973   44975   44974   44976   44978   44977   44979
   44981   44980   44982   44984   44983   44985   44987   44986   44988
   44990   44989   44991   44993   44992   44994   44996   44995   44997
   44999   44998   45000   45002   45001   45003   45005   45004   45006
   45008   45007   45009   45011   45010   45012   45014   45013   45015
   45017   45016   45018   45020   45019   45021   45023   45022   45024
   45026   45025   45027   45029   45028   45030   45032   45031   45033
   45035   45034   45036   45038   45037   45039   45041   45040   45042
   45044   45043   45045   45047   45046   45048   45050   45049   45051
   45053   45052   45054   45056   45055   45057   45059   45058   45060
   45062   45061   45063   45065   45064   45066   45068   45067   45069
   45071   45070   45072   45074   45073   45075   45077   45076   45078
   45080   45079   45081   45083   45082   45084   45086   45085   45087
   45089   45088   45090   45092   45091   45093   45095   45094   45096
   45098   45097   45099   45101   45100   45102   45104   45103   45105
   45107   45106   45108   45110   45109   45111   45113   45112   45114
   45116   45115   45117   45119   45118   45120   45122   45121   45123
   45125   45124   45126   45128   45127   45129   45131   45130   45132
   45134   45133   45135   45137   45136   45138   45140   45139   45141
   45143   45142   45144   45146   45145   45147   45149   45148   45150
   45152   45151   45153   45155   45154   45156   45158   45157   45159
   45161   45160   45162   45164   45163   45165   45167   45166   45168
   45170   45169   45171   45173   45172   45174   45176   45175   45177
   45179   45178   45180   45182   45181   45183   45185   45184   45186
   45188   45187   45189   45191   45190   45192   45194   45193   45195
   45197   45196   45198   45200   45199   45201   45203   45202   45204
   45206   45205   45207   45209   45208   45210   45212   45211   45213
   45215   45214   45216   45218   45217   45219   45221   45220   45222
   45224   45223   45225   45227   45226   45228   45230   45229   45231
   45233   45232   45234   45236   45235   45237   45239   45238   45240
   45242   45241   45243   45245   45244   45246   45248   45247   45249
   45251   45250   45252   45254   45253   45255   45257   45256   45258
   45260   45259   45261   45263   45262   45264   45266   45265   45267
   45269   45268   45270   45272   45271   45273   45275   45274   45276
   45278   45277   45279   45281   45280   45282   45284   45283   45285
   45287   45286   45288   45290   45289   45291   45293   45292   45294
   45296   45295   45297   45299   45298   45300   45302   45301   45303
   45305   45304   45306   45308   45307   45309   45311   45310   45312
   45314   45313   45315   45317   45316   45318   45320   45319   45321
   45323   45322   45324   45326   45325   45327   45329   45328   45330
   45332   45331   45333   45335   45334   45336   45338   45337   45339
   45341   45340   45342   45344   45343   45345   45347   45346   45348
   45350   45349   45351   45353   45352   45354   45356   45355   45357
   45359   45358   45360   45362   45361   45363   45365   45364   45366
   45368   45367   45369   45371   45370   45372   45374   45373   45375
   45377   45376   45378   45380   45379   45381   45383   45382   45384
   45386   45385   45387   45389   45388   45390   45392   45391   45393
   45395   45394   45396   45398   45397   45399   45401   45400   45402
   45404   45403   45405   45407   45406   45408   45410   45409   45411
   45413   45412   45414   45416   45415   45417   45419   45418   45420
   45422   45421   45423   45425   45424   45426   45428   45427   45429
   45431   45430   45432   45434   45433   45435   45437   45436   45438
   45440   45439   45441   45443   45442   45444   45446   45445   45447
   45449   45448   45450   45452   45451   45453   45455   45454   45456
   45458   45457   45459   45461   45460   45462   45464   45463   45465
   45467   45466   45468   45470   45469   45471   45473   45472   45474
   45476   45475   45477   45479   45478   45480   45482   45481   45483
   45485   45484   45486   45488   45487   45489   45491   45490   45492
   45494   45493   45495   45497   45496   45498   45500   45499   45501
   45503   45502   45504   45506   45505   45507   45509   45508   45510
   45512   45511   45513   45515   45514   45516   45518   45517   45519
   45521   45520   45522   45524   45523   45525   45527   45526   45528
   45530   45529   45531   45533   45532   45534   45536   45535   45537
   45539   45538   45540   45542   45541   45543   45545   45544   45546
   45548   45547   45549   45551   45550   45552   45554   45553   45555
   45557   45556   45558   45560   45559   45561   45563   45562   45564
   45566   45565   45567   45569   45568   45570   45572   45571   45573
   45575   45574   45576   45578   45577   45579   45581   45580   45582
   45584   45583   45585   45587   45586   45588   45590   45589   45591
   45593   45592   45594   45596   45595   45597   45599   45598   45600
   45602   45601   45603   45605   45604   45606   45608   45607   45609
   45611   45610   45612   45614   45613   45615   45617   45616   45618
   45620   45619   45621   45623   45622   45624   45626   45625   45627
   45629   45628   45630   45632   45631   45633   45635   45634   45636
   45638   45637   45639   45641   45640   45642   45644   45643   45645
   45647   45646   45648   45650   45649   45651   45653   45652   45654
   45656   45655   45657   45659   45658   45660   45662   45661   45663
   45665   45664   45666   45668   45667   45669   45671   45670   45672
   45674   45673   45675   45677   45676   45678   45680   45679   45681
   45683   45682   45684   45686   45685   45687   45689   45688   45690
   45692   45691   45693   45695   45694   45696   45698   45697   45699
   45701   45700   45702   45704   45703   45705   45707   45706   45708
   45710   45709   45711   45713   45712   45714   45716   45715   45717
   45719   45718   45720   45722   45721   45723   45725   45724   45726
   45728   45727   45729   45731   45730   45732   45734   45733   45735
   45737   45736   45738   45740   45739   45741   45743   45742   45744
   45746   45745   45747   45749   45748   45750   45752   45751   45753
   45755   45754   45756   45758   45757   45759   45761   45760   45762
   45764   45763   45765   45767   45766   45768   45770   45769   45771
   45773   45772   45774   45776   45775   45777   45779   45778   45780
   45782   45781   45783   45785   45784   45786   45788   45787   45789
   45791   45790   45792   45794   45793   45795   45797   45796   45798
   45800   45799   45801   45803   45802   45804   45806   45805   45807
   45809   45808   45810   45812   45811   45813   45815   45814   45816
   45818   45817   45819   45821   45820   45822   45824   45823   45825
   45827   45826   45828   45830   45829   45831   45833   45832   45834
   45836   45835   45837   45839   45838   45840   45842   45841   45843
   45845   45844   45846   45848   45847   45849   45851   45850   45852
   45854   45853   45855   45857   45856   45858   45860   45859   45861
   45863   45862   45864   45866   45865   45867   45869   45868   45870
   45872   45871   45873   45875   45874   45876   45878   45877   45879
   45881   45880   45882   45884   45883   45885   45887   45886   45888
   45890   45889   45891   45893   45892   45894   45896   45895   45897
   45899   45898   45900   45902   45901   45903   45905   45904   45906
   45908   45907   45909   45911   45910   45912   45914   45913   45915
   45917   45916   45918   45920   45919   45921   45923   45922   45924
   45926   45925   45927   45929   45928   45930   45932   45931   45933
   45935   45934   45936   45938   45937   45939   45941   45940   45942
   45944   45943   45945   45947   45946   45948   45950   45949   45951
   45953   45952   45954   45956   45955   45957   45959   45958   45960
   45962   45961   45963   45965   45964   45966   45968   45967   45969
   45971   45970   45972   45974   45973   45975   45977   45976   45978
   45980   45979   45981   45983   45982   45984   45986   45985   45987
   45989   45988   45990   45992   45991   45993   45995   45994   45996
   45998   45997   45999   46001   46000   46002   46004   46003   46005
   46007   46006   46008   46010   46009   46011   46013   46012   46014
   46016   46015   46017   46019   46018   46020   46022   46021   46023
   46025   46024   46026   46028   46027   46029   46031   46030   46032
   46034   46033   46035   46037   46036   46038   46040   46039   46041
   46043   46042   46044   46046   46045   46047   46049   46048   46050
   46052   46051   46053   46055   46054   46056   46058   46057   46059
   46061   46060   46062   46064   46063   46065   46067   46066   46068
   46070   46069   46071   46073   46072   46074   46076   46075   46077
   46079   46078   46080   46082   46081   46083   46085   46084   46086
   46088   46087   46089   46091   46090   46092   46094   46093   46095
   46097   46096   46098   46100   46099   46101   46103   46102   46104
   46106   46105   46107   46109   46108   46110   46112   46111   46113
   46115   46114   46116   46118   46117   46119   46121   46120   46122
   46124   46123   46125   46127   46126   46128   46130   46129   46131
   46133   46132   46134   46136   46135   46137   46139   46138   46140
   46142   46141   46143   46145   46144   46146   46148   46147   46149
   46151   46150   46152   46154   46153   46155   46157   46156   46158
   46160   46159   46161   46163   46162   46164   46166   46165   46167
   46169   46168   46170   46172   46171   46173   46175   46174   46176
   46178   46177   46179   46181   46180   46182   46184   46183   46185
   46187   46186   46188   46190   46189   46191   46193   46192   46194
   46196   46195   46197   46199   46198   46200   46202   46201   46203
   46205   46204   46206   46208   46207   46209   46211   46210   46212
   46214   46213   46215   46217   46216   46218   46220   46219   46221
   46223   46222   46224   46226   46225   46227   46229   46228   46230
   46232   46231   46233   46235   46234   46236   46238   46237   46239
   46241   46240   46242   46244   46243   46245   46247   46246   46248
   46250   46249   46251   46253   46252   46254   46256   46255   46257
   46259   46258   46260   46262   46261   46263   46265   46264   46266
   46268   46267   46269   46271   46270   46272   46274   46273   46275
   46277   46276   46278   46280   46279   46281   46283   46282   46284
   46286   46285   46287   46289   46288   46290   46292   46291   46293
   46295   46294   46296   46298   46297   46299   46301   46300   46302
   46304   46303   46305   46307   46306   46308   46310   46309   46311
   46313   46312   46314   46316   46315   46317   46319   46318   46320
   46322   46321   46323   46325   46324   46326   46328   46327   46329
   46331   46330   46332   46334   46333   46335   46337   46336   46338
   46340   46339   46341   46343   46342   46344   46346   46345   46347
   46349   46348   46350   46352   46351   46353   46355   46354   46356
   46358   46357   46359   46361   46360   46362   46364   46363   46365
   46367   46366   46368   46370   46369   46371   46373   46372   46374
   46376   46375   46377   46379   46378   46380   46382   46381   46383
   46385   46384   46386   46388   46387   46389   46391   46390   46392
   46394   46393   46395   46397   46396   46398   46400   46399   46401
   46403   46402   46404   46406   46405   46407   46409   46408   46410
   46412   46411   46413   46415   46414   46416   46418   46417   46419
   46421   46420   46422   46424   46423   46425   46427   46426   46428
   46430   46429   46431   46433   46432   46434   46436   46435   46437
   46439   46438   46440   46442   46441   46443   46445   46444   46446
   46448   46447   46449   46451   46450   46452   46454   46453   46455
   46457   46456   46458   46460   46459   46461   46463   46462   46464
   46466   46465   46467   46469   46468   46470   46472   46471   46473
   46475   46474   46476   46478   46477   46479   46481   46480   46482
   46484   46483   46485   46487   46486   46488   46490   46489   46491
   46493   46492   46494   46496   46495   46497   46499   46498   46500
   46502   46501   46503   46505   46504   46506   46508   46507   46509
   46511   46510   46512   46514   46513   46515   46517   46516   46518
   46520   46519   46521   46523   46522   46524   46526   46525   46527
   46529   46528   46530   46532   46531   46533   46535   46534   46536
   46538   46537   46539   46541   46540   46542   46544   46543   46545
   46547   46546   46548   46550   46549   46551   46553   46552   46554
   46556   46555   46557   46559   46558   46560   46562   46561   46563
   46565   46564   46566   46568   46567   46569   46571   46570   46572
   46574   46573   46575   46577   46576   46578   46580   46579   46581
   46583   46582   46584   46586   46585   46587   46589   46588   46590
   46592   46591   46593   46595   46594   46596   46598   46597   46599
   46601   46600   46602   46604   46603   46605   46607   46606   46608
   46610   46609   46611   46613   46612   46614   46616   46615   46617
   46619   46618   46620   46622   46621   46623   46625   46624   46626
   46628   46627   46629   46631   46630   46632   46634   46633   46635
   46637   46636   46638   46640   46639   46641   46643   46642   46644
   46646   46645   46647   46649   46648   46650   46652   46651   46653
   46655   46654   46656   46658   46657   46659   46661   46660   46662
   46664   46663   46665   46667   46666   46668   46670   46669   46671
   46673   46672   46674   46676   46675   46677   46679   46678   46680
   46682   46681   46683   46685   46684   46686   46688   46687   46689
   46691   46690   46692   46694   46693   46695   46697   46696   46698
   46700   46699   46701   46703   46702   46704   46706   46705   46707
   46709   46708   46710   46712   46711   46713   46715   46714   46716
   46718   46717   46719   46721   46720   46722   46724   46723   46725
   46727   46726   46728   46730   46729   46731   46733   46732   46734
   46736   46735   46737   46739   46738   46740   46742   46741   46743
   46745   46744   46746   46748   46747   46749   46751   46750   46752
   46754   46753   46755   46757   46756   46758   46760   46759   46761
   46763   46762   46764   46766   46765   46767   46769   46768   46770
   46772   46771   46773   46775   46774   46776   46778   46777   46779
   46781   46780   46782   46784   46783   46785   46787   46786   46788
   46790   46789   46791   46793   46792   46794   46796   46795   46797
   46799   46798   46800   46802   46801   46803   46805   46804   46806
   46808   46807   46809   46811   46810   46812   46814   46813   46815
   46817   46816   46818   46820   46819   46821   46823   46822   46824
   46826   46825   46827   46829   46828   46830   46832   46831   46833
   46835   46834   46836   46838   46837   46839   46841   46840   46842
   46844   46843   46845   46847   46846   46848   46850   46849   46851
   46853   46852   46854   46856   46855   46857   46859   46858   46860
   46862   46861   46863   46865   46864   46866   46868   46867   46869
   46871   46870   46872   46874   46873   46875   46877   46876   46878
   46880   46879   46881   46883   46882   46884   46886   46885   46887
   46889   46888   46890   46892   46891   46893   46895   46894   46896
   46898   46897   46899   46901   46900   46902   46904   46903   46905
   46907   46906   46908   46910   46909   46911   46913   46912   46914
   46916   46915   46917   46919   46918   46920   46922   46921   46923
   46925   46924   46926   46928   46927   46929   46931   46930   46932
   46934   46933   46935   46937   46936   46938   46940   46939   46941
   46943   46942   46944   46946   46945   46947   46949   46948   46950
   46952   46951   46953   46955   46954   46956   46958   46957   46959
   46961   46960   46962   46964   46963   46965   46967   46966   46968
   46970   46969   46971   46973   46972   46974   46976   46975   46977
   46979   46978   46980   46982   46981   46983   46985   46984   46986
   46988   46987   46989   46991   46990   46992   46994   46993   46995
   46997   46996   46998   47000   46999   47001   47003   47002   47004
   47006   47005   47007   47009   47008   47010   47012   47011   47013
   47015   47014   47016   47018   47017   47019   47021   47020   47022
   47024   47023   47025   47027   47026   47028   47030   47029   47031
   47033   47032   47034   47036   47035   47037   47039   47038   47040
   47042   47041   47043   47045   47044   47046   47048   47047   47049
   47051   47050   47052   47054   47053   47055   47057   47056   47058
   47060   47059   47061   47063   47062   47064   47066   47065   47067
   47069   47068   47070   47072   47071   47073   47075   47074   47076
   47078   47077   47079   47081   47080   47082   47084   47083   47085
   47087   47086   47088   47090   47089   47091   47093   47092   47094
   47096   47095   47097   47099   47098   47100   47102   47101   47103
   47105   47104   47106   47108   47107   47109   47111   47110   47112
   47114   47113   47115   47117   47116   47118   47120   47119   47121
   47123   47122   47124   47126   47125   47127   47129   47128   47130
   47132   47131   47133   47135   47134   47136   47138   47137   47139
   47141   47140   47142   47144   47143   47145   47147   47146   47148
   47150   47149   47151   47153   47152   47154   47156   47155   47157
   47159   47158   47160   47162   47161   47163   47165   47164   47166
   47168   47167   47169   47171   47170   47172   47174   47173   47175
   47177   47176   47178   47180   47179   47181   47183   47182   47184
   47186   47185   47187   47189   47188   47190   47192   47191   47193
   47195   47194   47196   47198   47197   47199   47201   47200   47202
   47204   47203   47205   47207   47206   47208   47210   47209   47211
   47213   47212   47214   47216   47215   47217   47219   47218   47220
   47222   47221   47223   47225   47224   47226   47228   47227   47229
   47231   47230   47232   47234   47233   47235   47237   47236   47238
   47240   47239   47241   47243   47242   47244   47246   47245   47247
   47249   47248   47250   47252   47251   47253   47255   47254   47256
   47258   47257   47259   47261   47260   47262   47264   47263   47265
   47267   47266   47268   47270   47269   47271   47273   47272   47274
   47276   47275   47277   47279   47278   47280   47282   47281   47283
   47285   47284   47286   47288   47287   47289   47291   47290   47292
   47294   47293   47295   47297   47296   47298   47300   47299   47301
   47303   47302   47304   47306   47305   47307   47309   47308   47310
   47312   47311   47313   47315   47314   47316   47318   47317   47319
   47321   47320   47322   47324   47323   47325   47327   47326   47328
   47330   47329   47331   47333   47332   47334   47336   47335   47337
   47339   47338   47340   47342   47341   47343   47345   47344   47346
   47348   47347   47349   47351   47350   47352   47354   47353   47355
   47357   47356   47358   47360   47359   47361   47363   47362   47364
   47366   47365   47367   47369   47368   47370   47372   47371   47373
   47375   47374   47376   47378   47377   47379   47381   47380   47382
   47384   47383   47385   47387   47386   47388   47390   47389   47391
   47393   47392   47394   47396   47395   47397   47399   47398   47400
   47402   47401   47403   47405   47404   47406   47408   47407   47409
   47411   47410   47412   47414   47413   47415   47417   47416   47418
   47420   47419   47421   47423   47422   47424   47426   47425   47427
   47429   47428   47430   47432   47431   47433   47435   47434   47436
   47438   47437   47439   47441   47440   47442   47444   47443   47445
   47447   47446   47448   47450   47449   47451   47453   47452   47454
   47456   47455   47457   47459   47458   47460   47462   47461   47463
   47465   47464   47466   47468   47467   47469   47471   47470   47472
   47474   47473   47475   47477   47476   47478   47480   47479   47481
   47483   47482   47484   47486   47485   47487   47489   47488   47490
   47492   47491   47493   47495   47494   47496   47498   47497   47499
   47501   47500   47502   47504   47503   47505   47507   47506   47508
   47510   47509   47511   47513   47512   47514   47516   47515   47517
   47519   47518   47520   47522   47521   47523   47525   47524   47526
   47528   47527   47529   47531   47530   47532   47534   47533   47535
   47537   47536   47538   47540   47539   47541   47543   47542   47544
   47546   47545   47547   47549   47548   47550   47552   47551   47553
   47555   47554   47556   47558   47557   47559   47561   47560   47562
   47564   47563   47565   47567   47566   47568   47570   47569   47571
   47573   47572   47574   47576   47575   47577   47579   47578   47580
   47582   47581   47583   47585   47584   47586   47588   47587   47589
   47591   47590   47592   47594   47593   47595   47597   47596   47598
   47600   47599   47601   47603   47602   47604   47606   47605   47607
   47609   47608   47610   47612   47611   47613   47615   47614   47616
   47618   47617   47619   47621   47620   47622   47624   47623   47625
   47627   47626   47628   47630   47629   47631   47633   47632   47634
   47636   47635   47637   47639   47638   47640   47642   47641   47643
   47645   47644   47646   47648   47647   47649   47651   47650   47652
   47654   47653   47655   47657   47656   47658   47660   47659   47661
   47663   47662   47664   47666   47665   47667   47669   47668   47670
   47672   47671   47673   47675   47674   47676   47678   47677   47679
   47681   47680   47682   47684   47683   47685   47687   47686   47688
   47690   47689   47691   47693   47692   47694   47696   47695   47697
   47699   47698   47700   47702   47701   47703   47705   47704   47706
   47708   47707   47709   47711   47710   47712   47714   47713   47715
   47717   47716   47718   47720   47719   47721   47723   47722   47724
   47726   47725   47727   47729   47728   47730   47732   47731   47733
   47735   47734   47736   47738   47737   47739   47741   47740   47742
   47744   47743   47745   47747   47746   47748   47750   47749   47751
   47753   47752   47754   47756   47755   47757   47759   47758   47760
   47762   47761   47763   47765   47764   47766   47768   47767   47769
   47771   47770   47772   47774   47773   47775   47777   47776   47778
   47780   47779   47781   47783   47782   47784   47786   47785   47787
   47789   47788   47790   47792   47791   47793   47795   47794   47796
   47798   47797   47799   47801   47800   47802   47804   47803   47805
   47807   47806   47808   47810   47809   47811   47813   47812   47814
   47816   47815   47817   47819   47818   47820   47822   47821   47823
   47825   47824   47826   47828   47827   47829   47831   47830   47832
   47834   47833   47835   47837   47836   47838   47840   47839   47841
   47843   47842   47844   47846   47845   47847   47849   47848   47850
   47852   47851   47853   47855   47854   47856   47858   47857   47859
   47861   47860   47862   47864   47863   47865   47867   47866   47868
   47870   47869   47871   47873   47872   47874   47876   47875   47877
   47879   47878   47880   47882   47881   47883   47885   47884   47886
   47888   47887   47889   47891   47890   47892   47894   47893   47895
   47897   47896   47898   47900   47899   47901   47903   47902   47904
   47906   47905   47907   47909   47908   47910   47912   47911   47913
   47915   47914   47916   47918   47917   47919   47921   47920   47922
   47924   47923   47925   47927   47926   47928   47930   47929   47931
   47933   47932   47934   47936   47935   47937   47939   47938   47940
   47942   47941   47943   47945   47944   47946   47948   47947   47949
   47951   47950   47952   47954   47953   47955   47957   47956   47958
   47960   47959   47961   47963   47962   47964   47966   47965   47967
   47969   47968   47970   47972   47971   47973   47975   47974   47976
   47978   47977   47979   47981   47980   47982   47984   47983   47985
   47987   47986   47988   47990   47989   47991   47993   47992   47994
   47996   47995   47997   47999   47998   48000   48002   48001   48003
   48005   48004   48006   48008   48007   48009   48011   48010   48012
   48014   48013   48015   48017   48016   48018   48020   48019   48021
   48023   48022   48024   48026   48025   48027   48029   48028   48030
   48032   48031   48033   48035   48034   48036   48038   48037   48039
   48041   48040   48042   48044   48043   48045   48047   48046   48048
   48050   48049   48051   48053   48052   48054   48056   48055   48057
   48059   48058   48060   48062   48061   48063   48065   48064   48066
   48068   48067   48069   48071   48070   48072   48074   48073   48075
   48077   48076   48078   48080   48079   48081   48083   48082   48084
   48086   48085   48087   48089   48088   48090   48092   48091   48093
   48095   48094   48096   48098   48097   48099   48101   48100   48102
   48104   48103   48105   48107   48106   48108   48110   48109   48111
   48113   48112   48114   48116   48115   48117   48119   48118   48120
   48122   48121   48123   48125   48124   48126   48128   48127   48129
   48131   48130   48132   48134   48133   48135   48137   48136   48138
   48140   48139   48141   48143   48142   48144   48146   48145   48147
   48149   48148   48150   48152   48151   48153   48155   48154   48156
   48158   48157   48159   48161   48160   48162   48164   48163   48165
   48167   48166   48168   48170   48169   48171   48173   48172   48174
   48176   48175   48177   48179   48178   48180   48182   48181   48183
   48185   48184   48186   48188   48187   48189   48191   48190   48192
   48194   48193   48195   48197   48196   48198   48200   48199   48201
   48203   48202   48204   48206   48205   48207   48209   48208   48210
   48212   48211   48213   48215   48214   48216   48218   48217   48219
   48221   48220   48222   48224   48223   48225   48227   48226   48228
   48230   48229   48231   48233   48232   48234   48236   48235   48237
   48239   48238   48240   48242   48241   48243   48245   48244   48246
   48248   48247   48249   48251   48250   48252   48254   48253   48255
   48257   48256   48258   48260   48259   48261   48263   48262   48264
   48266   48265   48267   48269   48268   48270   48272   48271   48273
   48275   48274   48276   48278   48277   48279   48281   48280   48282
   48284   48283   48285   48287   48286   48288   48290   48289   48291
   48293   48292   48294   48296   48295   48297   48299   48298   48300
   48302   48301   48303   48305   48304   48306   48308   48307   48309
   48311   48310   48312   48314   48313   48315   48317   48316   48318
   48320   48319   48321   48323   48322   48324   48326   48325   48327
   48329   48328   48330   48332   48331   48333   48335   48334   48336
   48338   48337   48339   48341   48340   48342   48344   48343   48345
   48347   48346   48348   48350   48349   48351   48353   48352   48354
   48356   48355   48357   48359   48358   48360   48362   48361   48363
   48365   48364   48366   48368   48367   48369   48371   48370   48372
   48374   48373   48375   48377   48376   48378   48380   48379   48381
   48383   48382   48384   48386   48385   48387   48389   48388   48390
   48392   48391   48393   48395   48394   48396   48398   48397   48399
   48401   48400   48402   48404   48403   48405   48407   48406   48408
   48410   48409   48411   48413   48412   48414   48416   48415   48417
   48419   48418   48420   48422   48421   48423   48425   48424   48426
   48428   48427   48429   48431   48430   48432   48434   48433   48435
   48437   48436   48438   48440   48439   48441   48443   48442   48444
   48446   48445   48447   48449   48448   48450   48452   48451   48453
   48455   48454   48456   48458   48457   48459   48461   48460   48462
   48464   48463   48465   48467   48466   48468   48470   48469   48471
   48473   48472   48474   48476   48475   48477   48479   48478   48480
   48482   48481   48483   48485   48484   48486   48488   48487   48489
   48491   48490   48492   48494   48493   48495   48497   48496   48498
   48500   48499   48501   48503   48502   48504   48506   48505   48507
   48509   48508   48510   48512   48511   48513   48515   48514   48516
   48518   48517   48519   48521   48520   48522   48524   48523   48525
   48527   48526   48528   48530   48529   48531   48533   48532   48534
   48536   48535   48537   48539   48538   48540   48542   48541   48543
   48545   48544   48546   48548   48547   48549   48551   48550   48552
   48554   48553   48555   48557   48556   48558   48560   48559   48561
   48563   48562   48564   48566   48565   48567   48569   48568   48570
   48572   48571   48573   48575   48574   48576   48578   48577   48579
   48581   48580   48582   48584   48583   48585   48587   48586   48588
   48590   48589   48591   48593   48592   48594   48596   48595   48597
   48599   48598   48600   48602   48601   48603   48605   48604   48606
   48608   48607   48609   48611   48610   48612   48614   48613   48615
   48617   48616   48618   48620   48619   48621   48623   48622   48624
   48626   48625   48627   48629   48628   48630   48632   48631   48633
   48635   48634   48636   48638   48637   48639   48641   48640   48642
   48644   48643   48645   48647   48646   48648   48650   48649   48651
   48653   48652   48654   48656   48655   48657   48659   48658   48660
   48662   48661   48663   48665   48664   48666   48668   48667   48669
   48671   48670   48672   48674   48673   48675   48677   48676   48678
   48680   48679   48681   48683   48682   48684   48686   48685   48687
   48689   48688   48690   48692   48691   48693   48695   48694   48696
   48698   48697   48699   48701   48700   48702   48704   48703   48705
   48707   48706   48708   48710   48709   48711   48713   48712   48714
   48716   48715   48717   48719   48718   48720   48722   48721   48723
   48725   48724   48726   48728   48727   48729   48731   48730   48732
   48734   48733   48735   48737   48736   48738   48740   48739   48741
   48743   48742   48744   48746   48745   48747   48749   48748   48750
   48752   48751   48753   48755   48754   48756   48758   48757   48759
   48761   48760   48762   48764   48763   48765   48767   48766   48768
   48770   48769   48771   48773   48772   48774   48776   48775   48777
   48779   48778   48780   48782   48781   48783   48785   48784   48786
   48788   48787   48789   48791   48790   48792   48794   48793   48795
   48797   48796   48798   48800   48799   48801   48803   48802   48804
   48806   48805   48807   48809   48808   48810   48812   48811   48813
   48815   48814   48816   48818   48817   48819   48821   48820   48822
   48824   48823   48825   48827   48826   48828   48830   48829   48831
   48833   48832   48834   48836   48835   48837   48839   48838   48840
   48842   48841   48843   48845   48844   48846   48848   48847   48849
   48851   48850   48852   48854   48853   48855   48857   48856   48858
   48860   48859   48861   48863   48862   48864   48866   48865   48867
   48869   48868   48870   48872   48871   48873   48875   48874   48876
   48878   48877   48879   48881   48880   48882   48884   48883   48885
   48887   48886   48888   48890   48889   48891   48893   48892   48894
   48896   48895   48897   48899   48898   48900   48902   48901   48903
   48905   48904   48906   48908   48907   48909   48911   48910   48912
   48914   48913   48915   48917   48916   48918   48920   48919   48921
   48923   48922   48924   48926   48925   48927   48929   48928   48930
   48932   48931   48933   48935   48934   48936   48938   48937   48939
   48941   48940   48942   48944   48943   48945   48947   48946   48948
   48950   48949   48951   48953   48952   48954   48956   48955   48957
   48959   48958   48960   48962   48961   48963   48965   48964   48966
   48968   48967   48969   48971   48970   48972   48974   48973   48975
   48977   48976   48978   48980   48979   48981   48983   48982   48984
   48986   48985   48987   48989   48988   48990   48992   48991   48993
   48995   48994   48996   48998   48997   48999   49001   49000   49002
   49004   49003   49005   49007   49006   49008   49010   49009   49011
   49013   49012   49014   49016   49015   49017   49019   49018   49020
   49022   49021   49023   49025   49024   49026   49028   49027   49029
   49031   49030   49032   49034   49033   49035   49037   49036   49038
   49040   49039   49041   49043   49042   49044   49046   49045   49047
   49049   49048   49050   49052   49051   49053   49055   49054   49056
   49058   49057   49059   49061   49060   49062   49064   49063   49065
   49067   49066   49068   49070   49069   49071   49073   49072   49074
   49076   49075   49077   49079   49078   49080   49082   49081   49083
   49085   49084   49086   49088   49087   49089   49091   49090   49092
   49094   49093   49095   49097   49096   49098   49100   49099   49101
   49103   49102   49104   49106   49105   49107   49109   49108   49110
   49112   49111   49113   49115   49114   49116   49118   49117   49119
   49121   49120   49122   49124   49123   49125   49127   49126   49128
   49130   49129   49131   49133   49132   49134   49136   49135   49137
   49139   49138   49140   49142   49141   49143   49145   49144   49146
   49148   49147   49149   49151   49150   49152   49154   49153   49155
   49157   49156   49158   49160   49159   49161   49163   49162   49164
   49166   49165   49167   49169   49168   49170   49172   49171   49173
   49175   49174   49176   49178   49177   49179   49181   49180   49182
   49184   49183   49185   49187   49186   49188   49190   49189   49191
   49193   49192   49194   49196   49195   49197   49199   49198   49200
   49202   49201   49203   49205   49204   49206   49208   49207   49209
   49211   49210   49212   49214   49213   49215   49217   49216   49218
   49220   49219   49221   49223   49222   49224   49226   49225   49227
   49229   49228   49230   49232   49231   49233   49235   49234   49236
   49238   49237   49239   49241   49240   49242   49244   49243   49245
   49247   49246   49248   49250   49249   49251   49253   49252   49254
   49256   49255   49257   49259   49258   49260   49262   49261   49263
   49265   49264   49266   49268   49267   49269   49271   49270   49272
   49274   49273   49275   49277   49276   49278   49280   49279   49281
   49283   49282   49284   49286   49285   49287   49289   49288   49290
   49292   49291   49293   49295   49294   49296   49298   49297   49299
   49301   49300   49302   49304   49303   49305   49307   49306   49308
   49310   49309   49311   49313   49312   49314   49316   49315   49317
   49319   49318   49320   49322   49321   49323   49325   49324   49326
   49328   49327   49329   49331   49330   49332   49334   49333   49335
   49337   49336   49338   49340   49339   49341   49343   49342   49344
   49346   49345   49347   49349   49348   49350   49352   49351   49353
   49355   49354   49356   49358   49357   49359   49361   49360   49362
   49364   49363   49365   49367   49366   49368   49370   49369   49371
   49373   49372   49374   49376   49375   49377   49379   49378   49380
   49382   49381   49383   49385   49384   49386   49388   49387   49389
   49391   49390   49392   49394   49393   49395   49397   49396   49398
   49400   49399   49401   49403   49402   49404   49406   49405   49407
   49409   49408   49410   49412   49411   49413   49415   49414   49416
   49418   49417   49419   49421   49420   49422   49424   49423   49425
   49427   49426   49428   49430   49429   49431   49433   49432   49434
   49436   49435   49437   49439   49438   49440   49442   49441   49443
   49445   49444   49446   49448   49447   49449   49451   49450   49452
   49454   49453   49455   49457   49456   49458   49460   49459   49461
   49463   49462   49464   49466   49465   49467   49469   49468   49470
   49472   49471   49473   49475   49474   49476   49478   49477   49479
   49481   49480   49482   49484   49483   49485   49487   49486   49488
   49490   49489   49491   49493   49492   49494   49496   49495   49497
   49499   49498   49500   49502   49501   49503   49505   49504   49506
   49508   49507   49509   49511   49510   49512   49514   49513   49515
   49517   49516   49518   49520   49519   49521   49523   49522   49524
   49526   49525   49527   49529   49528   49530   49532   49531   49533
   49535   49534   49536   49538   49537   49539   49541   49540   49542
   49544   49543   49545   49547   49546   49548   49550   49549   49551
   49553   49552   49554   49556   49555   49557   49559   49558   49560
   49562   49561   49563   49565   49564   49566   49568   49567   49569
   49571   49570   49572   49574   49573   49575   49577   49576   49578
   49580   49579   49581   49583   49582   49584   49586   49585   49587
   49589   49588   49590   49592   49591   49593   49595   49594   49596
   49598   49597   49599   49601   49600   49602   49604   49603   49605
   49607   49606   49608   49610   49609   49611   49613   49612   49614
   49616   49615   49617   49619   49618   49620   49622   49621   49623
   49625   49624   49626   49628   49627   49629   49631   49630   49632
   49634   49633   49635   49637   49636   49638   49640   49639   49641
   49643   49642   49644   49646   49645   49647   49649   49648   49650
   49652   49651   49653   49655   49654   49656   49658   49657   49659
   49661   49660   49662   49664   49663   49665   49667   49666   49668
   49670   49669   49671   49673   49672   49674   49676   49675   49677
   49679   49678   49680   49682   49681   49683   49685   49684   49686
   49688   49687   49689   49691   49690   49692   49694   49693   49695
   49697   49696   49698   49700   49699   49701   49703   49702   49704
   49706   49705   49707   49709   49708   49710   49712   49711   49713
   49715   49714   49716   49718   49717   49719   49721   49720   49722
   49724   49723   49725   49727   49726   49728   49730   49729   49731
   49733   49732   49734   49736   49735   49737   49739   49738   49740
   49742   49741   49743   49745   49744   49746   49748   49747   49749
   49751   49750   49752   49754   49753   49755   49757   49756   49758
   49760   49759   49761   49763   49762   49764   49766   49765   49767
   49769   49768   49770   49772   49771   49773   49775   49774   49776
   49778   49777   49779   49781   49780   49782   49784   49783   49785
   49787   49786   49788   49790   49789   49791   49793   49792   49794
   49796   49795   49797   49799   49798   49800   49802   49801   49803
   49805   49804   49806   49808   49807   49809   49811   49810   49812
   49814   49813   49815   49817   49816   49818   49820   49819   49821
   49823   49822   49824   49826   49825   49827   49829   49828   49830
   49832   49831   49833   49835   49834   49836   49838   49837   49839
   49841   49840   49842   49844   49843   49845   49847   49846   49848
   49850   49849   49851   49853   49852   49854   49856   49855   49857
   49859   49858   49860   49862   49861   49863   49865   49864   49866
   49868   49867   49869   49871   49870   49872   49874   49873   49875
   49877   49876   49878   49880   49879   49881   49883   49882   49884
   49886   49885   49887   49889   49888   49890   49892   49891   49893
   49895   49894   49896   49898   49897   49899   49901   49900   49902
   49904   49903   49905   49907   49906   49908   49910   49909   49911
   49913   49912   49914   49916   49915   49917   49919   49918   49920
   49922   49921   49923   49925   49924   49926   49928   49927   49929
   49931   49930   49932   49934   49933   49935   49937   49936   49938
   49940   49939   49941   49943   49942   49944   49946   49945   49947
   49949   49948   49950   49952   49951   49953   49955   49954   49956
   49958   49957   49959   49961   49960   49962   49964   49963   49965
   49967   49966   49968   49970   49969   49971   49973   49972   49974
   49976   49975   49977   49979   49978   49980   49982   49981   49983
   49985   49984   49986   49988   49987   49989   49991   49990   49992
   49994   49993   49995   49997   49996   49998   50000   49999   50001
   50003   50002   50004   50006   50005   50007   50009   50008   50010
   50012   50011   50013   50015   50014   50016   50018   50017   50019
   50021   50020   50022   50024   50023   50025   50027   50026   50028
   50030   50029   50031   50033   50032   50034   50036   50035   50037
   50039   50038   50040   50042   50041   50043   50045   50044   50046
   50048   50047   50049   50051   50050   50052   50054   50053   50055
   50057   50056   50058   50060   50059   50061   50063   50062   50064
   50066   50065   50067   50069   50068   50070   50072   50071   50073
   50075   50074   50076   50078   50077   50079   50081   50080   50082
   50084   50083   50085   50087   50086   50088   50090   50089   50091
   50093   50092   50094   50096   50095   50097   50099   50098   50100
   50102   50101   50103   50105   50104   50106   50108   50107   50109
   50111   50110   50112   50114   50113   50115   50117   50116   50118
   50120   50119   50121   50123   50122   50124   50126   50125   50127
   50129   50128   50130   50132   50131   50133   50135   50134   50136
   50138   50137   50139   50141   50140   50142   50144   50143   50145
   50147   50146   50148   50150   50149   50151   50153   50152   50154
   50156   50155   50157   50159   50158   50160   50162   50161   50163
   50165   50164   50166   50168   50167   50169   50171   50170   50172
   50174   50173   50175   50177   50176   50178   50180   50179   50181
   50183   50182   50184   50186   50185   50187   50189   50188   50190
   50192   50191   50193   50195   50194   50196   50198   50197   50199
   50201   50200   50202   50204   50203   50205   50207   50206   50208
   50210   50209   50211   50213   50212   50214   50216   50215   50217
   50219   50218   50220   50222   50221   50223   50225   50224   50226
   50228   50227   50229   50231   50230   50232   50234   50233   50235
   50237   50236   50238   50240   50239   50241   50243   50242   50244
   50246   50245   50247   50249   50248   50250   50252   50251   50253
   50255   50254   50256   50258   50257   50259   50261   50260   50262
   50264   50263   50265   50267   50266   50268   50270   50269   50271
   50273   50272   50274   50276   50275   50277   50279   50278   50280
   50282   50281   50283   50285   50284   50286   50288   50287   50289
   50291   50290   50292   50294   50293   50295   50297   50296   50298
   50300   50299   50301   50303   50302   50304   50306   50305   50307
   50309   50308   50310   50312   50311   50313   50315   50314   50316
   50318   50317   50319   50321   50320   50322   50324   50323   50325
   50327   50326   50328   50330   50329   50331   50333   50332   50334
   50336   50335   50337   50339   50338   50340   50342   50341   50343
   50345   50344   50346   50348   50347   50349   50351   50350   50352
   50354   50353   50355   50357   50356   50358   50360   50359   50361
   50363   50362   50364   50366   50365   50367   50369   50368   50370
   50372   50371   50373   50375   50374   50376   50378   50377   50379
   50381   50380   50382   50384   50383   50385   50387   50386   50388
   50390   50389   50391   50393   50392   50394   50396   50395   50397
   50399   50398   50400   50402   50401   50403   50405   50404   50406
   50408   50407   50409   50411   50410   50412   50414   50413   50415
   50417   50416   50418   50420   50419   50421   50423   50422   50424
   50426   50425   50427   50429   50428   50430   50432   50431   50433
   50435   50434   50436   50438   50437   50439   50441   50440   50442
   50444   50443   50445   50447   50446   50448   50450   50449   50451
   50453   50452   50454   50456   50455   50457   50459   50458   50460
   50462   50461   50463   50465   50464   50466   50468   50467   50469
   50471   50470   50472   50474   50473   50475   50477   50476   50478
   50480   50479   50481   50483   50482   50484   50486   50485   50487
   50489   50488   50490   50492   50491   50493   50495   50494   50496
   50498   50497   50499   50501   50500   50502   50504   50503   50505
   50507   50506   50508   50510   50509   50511   50513   50512   50514
   50516   50515   50517   50519   50518   50520   50522   50521   50523
   50525   50524   50526   50528   50527   50529   50531   50530   50532
   50534   50533   50535   50537   50536   50538   50540   50539   50541
   50543   50542   50544   50546   50545   50547   50549   50548   50550
   50552   50551   50553   50555   50554   50556   50558   50557   50559
   50561   50560   50562   50564   50563   50565   50567   50566   50568
   50570   50569   50571   50573   50572   50574   50576   50575   50577
   50579   50578   50580   50582   50581   50583   50585   50584   50586
   50588   50587   50589   50591   50590   50592   50594   50593   50595
   50597   50596   50598   50600   50599   50601   50603   50602   50604
   50606   50605   50607   50609   50608   50610   50612   50611   50613
   50615   50614   50616   50618   50617   50619   50621   50620   50622
   50624   50623   50625   50627   50626   50628   50630   50629   50631
   50633   50632   50634   50636   50635   50637   50639   50638   50640
   50642   50641   50643   50645   50644   50646   50648   50647   50649
   50651   50650   50652   50654   50653   50655   50657   50656   50658
   50660   50659   50661   50663   50662   50664   50666   50665   50667
   50669   50668   50670   50672   50671   50673   50675   50674   50676
   50678   50677   50679   50681   50680   50682   50684   50683   50685
   50687   50686   50688   50690   50689   50691   50693   50692   50694
   50696   50695   50697   50699   50698   50700   50702   50701   50703
   50705   50704   50706   50708   50707   50709   50711   50710   50712
   50714   50713   50715   50717   50716   50718   50720   50719   50721
   50723   50722   50724   50726   50725   50727   50729   50728   50730
   50732   50731   50733   50735   50734   50736   50738   50737   50739
   50741   50740   50742   50744   50743   50745   50747   50746   50748
   50750   50749   50751   50753   50752   50754   50756   50755   50757
   50759   50758   50760   50762   50761   50763   50765   50764   50766
   50768   50767   50769   50771   50770   50772   50774   50773   50775
   50777   50776   50778   50780   50779   50781   50783   50782   50784
   50786   50785   50787   50789   50788   50790   50792   50791   50793
   50795   50794   50796   50798   50797   50799   50801   50800   50802
   50804   50803   50805   50807   50806   50808   50810   50809   50811
   50813   50812   50814   50816   50815   50817   50819   50818   50820
   50822   50821   50823   50825   50824   50826   50828   50827   50829
   50831   50830   50832   50834   50833   50835   50837   50836   50838
   50840   50839   50841   50843   50842   50844   50846   50845   50847
   50849   50848   50850   50852   50851   50853   50855   50854   50856
   50858   50857   50859   50861   50860   50862   50864   50863   50865
   50867   50866   50868   50870   50869   50871   50873   50872   50874
   50876   50875   50877   50879   50878   50880   50882   50881   50883
   50885   50884   50886   50888   50887   50889   50891   50890   50892
   50894   50893   50895   50897   50896   50898   50900   50899   50901
   50903   50902   50904   50906   50905   50907   50909   50908   50910
   50912   50911   50913   50915   50914   50916   50918   50917   50919
   50921   50920   50922   50924   50923   50925   50927   50926   50928
   50930   50929   50931   50933   50932   50934   50936   50935   50937
   50939   50938   50940   50942   50941   50943   50945   50944   50946
   50948   50947   50949   50951   50950   50952   50954   50953   50955
   50957   50956   50958   50960   50959   50961   50963   50962   50964
   50966   50965   50967   50969   50968   50970   50972   50971   50973
   50975   50974   50976   50978   50977   50979   50981   50980   50982
   50984   50983   50985   50987   50986   50988   50990   50989   50991
   50993   50992   50994   50996   50995   50997   50999   50998   51000
   51002   51001   51003   51005   51004   51006   51008   51007   51009
   51011   51010   51012   51014   51013   51015   51017   51016   51018
   51020   51019   51021   51023   51022   51024   51026   51025   51027
   51029   51028   51030   51032   51031   51033   51035   51034   51036
   51038   51037   51039   51041   51040   51042   51044   51043   51045
   51047   51046   51048   51050   51049   51051   51053   51052   51054
   51056   51055   51057   51059   51058   51060   51062   51061   51063
   51065   51064   51066   51068   51067   51069   51071   51070   51072
   51074   51073   51075   51077   51076   51078   51080   51079   51081
   51083   51082   51084   51086   51085   51087   51089   51088   51090
   51092   51091   51093   51095   51094   51096   51098   51097   51099
   51101   51100   51102   51104   51103   51105   51107   51106   51108
   51110   51109   51111   51113   51112   51114   51116   51115   51117
   51119   51118   51120   51122   51121   51123   51125   51124   51126
   51128   51127   51129   51131   51130   51132   51134   51133   51135
   51137   51136   51138   51140   51139   51141   51143   51142   51144
   51146   51145   51147   51149   51148   51150   51152   51151   51153
   51155   51154   51156   51158   51157   51159   51161   51160   51162
   51164   51163   51165   51167   51166   51168   51170   51169   51171
   51173   51172   51174   51176   51175   51177   51179   51178   51180
   51182   51181   51183   51185   51184   51186   51188   51187   51189
   51191   51190   51192   51194   51193   51195   51197   51196   51198
   51200   51199   51201   51203   51202   51204   51206   51205   51207
   51209   51208   51210   51212   51211   51213   51215   51214   51216
   51218   51217   51219   51221   51220   51222   51224   51223   51225
   51227   51226   51228   51230   51229   51231   51233   51232   51234
   51236   51235   51237   51239   51238   51240   51242   51241   51243
   51245   51244   51246   51248   51247   51249   51251   51250   51252
   51254   51253   51255   51257   51256   51258   51260   51259   51261
   51263   51262   51264   51266   51265   51267   51269   51268   51270
   51272   51271   51273   51275   51274   51276   51278   51277   51279
   51281   51280   51282   51284   51283   51285   51287   51286   51288
   51290   51289   51291   51293   51292   51294   51296   51295   51297
   51299   51298   51300   51302   51301   51303   51305   51304   51306
   51308   51307   51309   51311   51310   51312   51314   51313   51315
   51317   51316   51318   51320   51319   51321   51323   51322   51324
   51326   51325   51327   51329   51328   51330   51332   51331   51333
   51335   51334   51336   51338   51337   51339   51341   51340   51342
   51344   51343   51345   51347   51346   51348   51350   51349   51351
   51353   51352   51354   51356   51355   51357   51359   51358   51360
   51362   51361   51363   51365   51364   51366   51368   51367   51369
   51371   51370   51372   51374   51373   51375   51377   51376   51378
   51380   51379   51381   51383   51382   51384   51386   51385   51387
   51389   51388   51390   51392   51391   51393   51395   51394   51396
   51398   51397   51399   51401   51400   51402   51404   51403   51405
   51407   51406   51408   51410   51409   51411   51413   51412   51414
   51416   51415   51417   51419   51418   51420   51422   51421   51423
   51425   51424   51426   51428   51427   51429   51431   51430   51432
   51434   51433   51435   51437   51436   51438   51440   51439   51441
   51443   51442   51444   51446   51445   51447   51449   51448   51450
   51452   51451   51453   51455   51454   51456   51458   51457   51459
   51461   51460   51462   51464   51463   51465   51467   51466   51468
   51470   51469   51471   51473   51472   51474   51476   51475   51477
   51479   51478   51480   51482   51481   51483   51485   51484   51486
   51488   51487   51489   51491   51490   51492   51494   51493   51495
   51497   51496   51498   51500   51499   51501   51503   51502   51504
   51506   51505   51507   51509   51508   51510   51512   51511   51513
   51515   51514   51516   51518   51517   51519   51521   51520   51522
   51524   51523   51525   51527   51526   51528   51530   51529   51531
   51533   51532   51534   51536   51535   51537   51539   51538   51540
   51542   51541   51543   51545   51544   51546   51548   51547   51549
   51551   51550   51552   51554   51553   51555   51557   51556   51558
   51560   51559   51561   51563   51562   51564   51566   51565   51567
   51569   51568   51570   51572   51571   51573   51575   51574   51576
   51578   51577   51579   51581   51580   51582   51584   51583   51585
   51587   51586   51588   51590   51589   51591   51593   51592   51594
   51596   51595   51597   51599   51598   51600   51602   51601   51603
   51605   51604   51606   51608   51607   51609   51611   51610   51612
   51614   51613   51615   51617   51616   51618   51620   51619   51621
   51623   51622   51624   51626   51625   51627   51629   51628   51630
   51632   51631   51633   51635   51634   51636   51638   51637   51639
   51641   51640   51642   51644   51643   51645   51647   51646   51648
   51650   51649   51651   51653   51652   51654   51656   51655   51657
   51659   51658   51660   51662   51661   51663   51665   51664   51666
   51668   51667   51669   51671   51670   51672   51674   51673   51675
   51677   51676   51678   51680   51679   51681   51683   51682   51684
   51686   51685   51687   51689   51688   51690   51692   51691   51693
   51695   51694   51696   51698   51697   51699   51701   51700   51702
   51704   51703   51705   51707   51706   51708   51710   51709   51711
   51713   51712   51714   51716   51715   51717   51719   51718   51720
   51722   51721   51723   51725   51724   51726   51728   51727   51729
   51731   51730   51732   51734   51733   51735   51737   51736   51738
   51740   51739   51741   51743   51742   51744   51746   51745   51747
   51749   51748   51750   51752   51751   51753   51755   51754   51756
   51758   51757   51759   51761   51760   51762   51764   51763   51765
   51767   51766   51768   51770   51769   51771   51773   51772   51774
   51776   51775   51777   51779   51778   51780   51782   51781   51783
   51785   51784   51786   51788   51787   51789   51791   51790   51792
   51794   51793   51795   51797   51796   51798   51800   51799   51801
   51803   51802   51804   51806   51805   51807   51809   51808   51810
   51812   51811   51813   51815   51814   51816   51818   51817   51819
   51821   51820   51822   51824   51823   51825   51827   51826   51828
   51830   51829   51831   51833   51832   51834   51836   51835   51837
   51839   51838   51840   51842   51841   51843   51845   51844   51846
   51848   51847   51849   51851   51850   51852   51854   51853   51855
   51857   51856   51858   51860   51859   51861   51863   51862   51864
   51866   51865   51867   51869   51868   51870   51872   51871   51873
   51875   51874   51876   51878   51877   51879   51881   51880   51882
   51884   51883   51885   51887   51886   51888   51890   51889   51891
   51893   51892   51894   51896   51895   51897   51899   51898   51900
   51902   51901   51903   51905   51904   51906   51908   51907   51909
   51911   51910   51912   51914   51913   51915   51917   51916   51918
   51920   51919   51921   51923   51922   51924   51926   51925   51927
   51929   51928   51930   51932   51931   51933   51935   51934   51936
   51938   51937   51939   51941   51940   51942   51944   51943   51945
   51947   51946   51948   51950   51949   51951   51953   51952   51954
   51956   51955   51957   51959   51958   51960   51962   51961   51963
   51965   51964   51966   51968   51967   51969   51971   51970   51972
   51974   51973   51975   51977   51976   51978   51980   51979   51981
   51983   51982   51984   51986   51985   51987   51989   51988   51990
   51992   51991   51993   51995   51994   51996   51998   51997   51999
   52001   52000   52002   52004   52003   52005   52007   52006   52008
   52010   52009   52011   52013   52012   52014   52016   52015   52017
   52019   52018   52020   52022   52021   52023   52025   52024   52026
   52028   52027   52029   52031   52030   52032   52034   52033   52035
   52037   52036   52038   52040   52039   52041   52043   52042   52044
   52046   52045   52047   52049   52048   52050   52052   52051   52053
   52055   52054   52056   52058   52057   52059   52061   52060   52062
   52064   52063   52065   52067   52066   52068   52070   52069   52071
   52073   52072   52074   52076   52075   52077   52079   52078   52080
   52082   52081   52083   52085   52084   52086   52088   52087   52089
   52091   52090   52092   52094   52093   52095   52097   52096   52098
   52100   52099   52101   52103   52102   52104   52106   52105   52107
   52109   52108   52110   52112   52111   52113   52115   52114   52116
   52118   52117   52119   52121   52120   52122   52124   52123   52125
   52127   52126   52128   52130   52129   52131   52133   52132   52134
   52136   52135   52137   52139   52138   52140   52142   52141   52143
   52145   52144   52146   52148   52147   52149   52151   52150   52152
   52154   52153   52155   52157   52156   52158   52160   52159   52161
   52163   52162   52164   52166   52165   52167   52169   52168   52170
   52172   52171   52173   52175   52174   52176   52178   52177   52179
   52181   52180   52182   52184   52183   52185   52187   52186   52188
   52190   52189   52191   52193   52192   52194   52196   52195   52197
   52199   52198   52200   52202   52201   52203   52205   52204   52206
   52208   52207   52209   52211   52210   52212   52214   52213   52215
   52217   52216   52218   52220   52219   52221   52223   52222   52224
   52226   52225   52227   52229   52228   52230   52232   52231   52233
   52235   52234   52236   52238   52237   52239   52241   52240   52242
   52244   52243   52245   52247   52246   52248   52250   52249   52251
   52253   52252   52254   52256   52255   52257   52259   52258   52260
   52262   52261   52263   52265   52264   52266   52268   52267   52269
   52271   52270   52272   52274   52273   52275   52277   52276   52278
   52280   52279   52281   52283   52282   52284   52286   52285   52287
   52289   52288   52290   52292   52291   52293   52295   52294   52296
   52298   52297   52299   52301   52300   52302   52304   52303   52305
   52307   52306   52308   52310   52309   52311   52313   52312   52314
   52316   52315   52317   52319   52318   52320   52322   52321   52323
   52325   52324   52326   52328   52327   52329   52331   52330   52332
   52334   52333   52335   52337   52336   52338   52340   52339   52341
   52343   52342   52344   52346   52345   52347   52349   52348   52350
   52352   52351   52353   52355   52354   52356   52358   52357   52359
   52361   52360   52362   52364   52363   52365   52367   52366   52368
   52370   52369   52371   52373   52372   52374   52376   52375   52377
   52379   52378   52380   52382   52381   52383   52385   52384   52386
   52388   52387   52389   52391   52390   52392   52394   52393   52395
   52397   52396   52398   52400   52399   52401   52403   52402   52404
   52406   52405   52407   52409   52408   52410   52412   52411   52413
   52415   52414   52416   52418   52417   52419   52421   52420   52422
   52424   52423   52425   52427   52426   52428   52430   52429   52431
   52433   52432   52434   52436   52435   52437   52439   52438   52440
   52442   52441   52443   52445   52444   52446   52448   52447   52449
   52451   52450   52452   52454   52453   52455   52457   52456   52458
   52460   52459   52461   52463   52462   52464   52466   52465   52467
   52469   52468   52470   52472   52471   52473   52475   52474   52476
   52478   52477   52479   52481   52480   52482   52484   52483   52485
   52487   52486   52488   52490   52489   52491   52493   52492   52494
   52496   52495   52497   52499   52498   52500   52502   52501   52503
   52505   52504   52506   52508   52507   52509   52511   52510   52512
   52514   52513   52515   52517   52516   52518   52520   52519   52521
   52523   52522   52524   52526   52525   52527   52529   52528   52530
   52532   52531   52533   52535   52534   52536   52538   52537   52539
   52541   52540   52542   52544   52543   52545   52547   52546   52548
   52550   52549   52551   52553   52552   52554   52556   52555   52557
   52559   52558   52560   52562   52561   52563   52565   52564   52566
   52568   52567   52569   52571   52570   52572   52574   52573   52575
   52577   52576   52578   52580   52579   52581   52583   52582   52584
   52586   52585   52587   52589   52588   52590   52592   52591   52593
   52595   52594   52596   52598   52597   52599   52601   52600   52602
   52604   52603   52605   52607   52606   52608   52610   52609   52611
   52613   52612   52614   52616   52615   52617   52619   52618   52620
   52622   52621   52623   52625   52624   52626   52628   52627   52629
   52631   52630   52632   52634   52633   52635   52637   52636   52638
   52640   52639   52641   52643   52642   52644   52646   52645   52647
   52649   52648   52650   52652   52651   52653   52655   52654   52656
   52658   52657   52659   52661   52660   52662   52664   52663   52665
   52667   52666   52668   52670   52669   52671   52673   52672   52674
   52676   52675   52677   52679   52678   52680   52682   52681   52683
   52685   52684   52686   52688   52687   52689   52691   52690   52692
   52694   52693   52695   52697   52696   52698   52700   52699   52701
   52703   52702   52704   52706   52705   52707   52709   52708   52710
   52712   52711   52713   52715   52714   52716   52718   52717   52719
   52721   52720   52722   52724   52723   52725   52727   52726   52728
   52730   52729   52731   52733   52732   52734   52736   52735   52737
   52739   52738   52740   52742   52741   52743   52745   52744   52746
   52748   52747   52749   52751   52750   52752   52754   52753   52755
   52757   52756   52758   52760   52759   52761   52763   52762   52764
   52766   52765   52767   52769   52768   52770   52772   52771   52773
   52775   52774   52776   52778   52777   52779   52781   52780   52782
   52784   52783   52785   52787   52786   52788   52790   52789   52791
   52793   52792   52794   52796   52795   52797   52799   52798   52800
   52802   52801   52803   52805   52804   52806   52808   52807   52809
   52811   52810   52812   52814   52813   52815   52817   52816   52818
   52820   52819   52821   52823   52822   52824   52826   52825   52827
   52829   52828   52830   52832   52831   52833   52835   52834   52836
   52838   52837   52839   52841   52840   52842   52844   52843   52845
   52847   52846   52848   52850   52849   52851   52853   52852   52854
   52856   52855   52857   52859   52858   52860   52862   52861   52863
   52865   52864   52866   52868   52867   52869   52871   52870   52872
   52874   52873   52875   52877   52876   52878   52880   52879   52881
   52883   52882   52884   52886   52885   52887   52889   52888   52890
   52892   52891   52893   52895   52894   52896   52898   52897   52899
   52901   52900   52902   52904   52903   52905   52907   52906   52908
   52910   52909   52911   52913   52912   52914   52916   52915   52917
   52919   52918   52920   52922   52921   52923   52925   52924   52926
   52928   52927   52929   52931   52930   52932   52934   52933   52935
   52937   52936   52938   52940   52939   52941   52943   52942   52944
   52946   52945   52947   52949   52948   52950   52952   52951   52953
   52955   52954   52956   52958   52957   52959   52961   52960   52962
   52964   52963   52965   52967   52966   52968   52970   52969   52971
   52973   52972   52974   52976   52975   52977   52979   52978   52980
   52982   52981   52983   52985   52984   52986   52988   52987   52989
   52991   52990   52992   52994   52993   52995   52997   52996   52998
   53000   52999   53001   53003   53002   53004   53006   53005   53007
   53009   53008   53010   53012   53011   53013   53015   53014   53016
   53018   53017   53019   53021   53020   53022   53024   53023   53025
   53027   53026   53028   53030   53029   53031   53033   53032   53034
   53036   53035   53037   53039   53038   53040   53042   53041   53043
   53045   53044   53046   53048   53047   53049   53051   53050   53052
   53054   53053   53055   53057   53056   53058   53060   53059   53061
   53063   53062   53064   53066   53065   53067   53069   53068   53070
   53072   53071   53073   53075   53074   53076   53078   53077   53079
   53081   53080   53082   53084   53083   53085   53087   53086   53088
   53090   53089   53091   53093   53092   53094   53096   53095   53097
   53099   53098   53100   53102   53101   53103   53105   53104   53106
   53108   53107   53109   53111   53110   53112   53114   53113   53115
   53117   53116   53118   53120   53119   53121   53123   53122   53124
   53126   53125   53127   53129   53128   53130   53132   53131   53133
   53135   53134   53136   53138   53137   53139   53141   53140   53142
   53144   53143   53145   53147   53146   53148   53150   53149   53151
   53153   53152   53154   53156   53155   53157   53159   53158   53160
   53162   53161   53163   53165   53164   53166   53168   53167   53169
   53171   53170   53172   53174   53173   53175   53177   53176   53178
   53180   53179   53181   53183   53182   53184   53186   53185   53187
   53189   53188   53190   53192   53191   53193   53195   53194   53196
   53198   53197   53199   53201   53200   53202   53204   53203   53205
   53207   53206   53208   53210   53209   53211   53213   53212   53214
   53216   53215   53217   53219   53218   53220   53222   53221   53223
   53225   53224   53226   53228   53227   53229   53231   53230   53232
   53234   53233   53235   53237   53236   53238   53240   53239   53241
   53243   53242   53244   53246   53245   53247   53249   53248   53250
   53252   53251   53253   53255   53254   53256   53258   53257   53259
   53261   53260   53262   53264   53263   53265   53267   53266   53268
   53270   53269   53271   53273   53272   53274   53276   53275   53277
   53279   53278   53280   53282   53281   53283   53285   53284   53286
   53288   53287   53289   53291   53290   53292   53294   53293   53295
   53297   53296   53298   53300   53299   53301   53303   53302   53304
   53306   53305   53307   53309   53308   53310   53312   53311   53313
   53315   53314   53316   53318   53317   53319   53321   53320   53322
   53324   53323   53325   53327   53326   53328   53330   53329   53331
   53333   53332   53334   53336   53335   53337   53339   53338   53340
   53342   53341   53343   53345   53344   53346   53348   53347   53349
   53351   53350   53352   53354   53353   53355   53357   53356   53358
   53360   53359   53361   53363   53362   53364   53366   53365   53367
   53369   53368   53370   53372   53371   53373   53375   53374   53376
   53378   53377   53379   53381   53380   53382   53384   53383   53385
   53387   53386   53388   53390   53389   53391   53393   53392   53394
   53396   53395   53397   53399   53398   53400   53402   53401   53403
   53405   53404   53406   53408   53407   53409   53411   53410   53412
   53414   53413   53415   53417   53416   53418   53420   53419   53421
   53423   53422   53424   53426   53425   53427   53429   53428   53430
   53432   53431   53433   53435   53434   53436   53438   53437   53439
   53441   53440   53442   53444   53443   53445   53447   53446   53448
   53450   53449   53451   53453   53452   53454   53456   53455   53457
   53459   53458   53460   53462   53461   53463   53465   53464   53466
   53468   53467   53469   53471   53470   53472   53474   53473   53475
   53477   53476   53478   53480   53479   53481   53483   53482   53484
   53486   53485   53487   53489   53488   53490   53492   53491   53493
   53495   53494   53496   53498   53497   53499   53501   53500   53502
   53504   53503   53505   53507   53506   53508   53510   53509   53511
   53513   53512   53514   53516   53515   53517   53519   53518   53520
   53522   53521   53523   53525   53524   53526   53528   53527   53529
   53531   53530   53532   53534   53533   53535   53537   53536   53538
   53540   53539   53541   53543   53542   53544   53546   53545   53547
   53549   53548   53550   53552   53551   53553   53555   53554   53556
   53558   53557   53559   53561   53560   53562   53564   53563   53565
   53567   53566   53568   53570   53569   53571   53573   53572   53574
   53576   53575   53577   53579   53578   53580   53582   53581   53583
   53585   53584   53586   53588   53587   53589   53591   53590   53592
   53594   53593   53595   53597   53596   53598   53600   53599   53601
   53603   53602   53604   53606   53605   53607   53609   53608   53610
   53612   53611   53613   53615   53614   53616   53618   53617   53619
   53621   53620   53622   53624   53623   53625   53627   53626   53628
   53630   53629   53631   53633   53632   53634   53636   53635   53637
   53639   53638   53640   53642   53641   53643   53645   53644   53646
   53648   53647   53649   53651   53650   53652   53654   53653   53655
   53657   53656   53658   53660   53659   53661   53663   53662   53664
   53666   53665   53667   53669   53668   53670   53672   53671   53673
   53675   53674   53676   53678   53677   53679   53681   53680   53682
   53684   53683   53685   53687   53686   53688   53690   53689   53691
   53693   53692   53694   53696   53695   53697   53699   53698   53700
   53702   53701   53703   53705   53704   53706   53708   53707   53709
   53711   53710   53712   53714   53713   53715   53717   53716   53718
   53720   53719   53721   53723   53722   53724   53726   53725   53727
   53729   53728   53730   53732   53731   53733   53735   53734   53736
   53738   53737   53739   53741   53740   53742   53744   53743   53745
   53747   53746   53748   53750   53749   53751   53753   53752   53754
   53756   53755   53757   53759   53758   53760   53762   53761   53763
   53765   53764   53766   53768   53767   53769   53771   53770   53772
   53774   53773   53775   53777   53776   53778   53780   53779   53781
   53783   53782   53784   53786   53785   53787   53789   53788   53790
   53792   53791   53793   53795   53794   53796   53798   53797   53799
   53801   53800   53802   53804   53803   53805   53807   53806   53808
   53810   53809   53811   53813   53812   53814   53816   53815   53817
   53819   53818   53820   53822   53821   53823   53825   53824   53826
   53828   53827   53829   53831   53830   53832   53834   53833   53835
   53837   53836   53838   53840   53839   53841   53843   53842   53844
   53846   53845   53847   53849   53848   53850   53852   53851   53853
   53855   53854   53856   53858   53857   53859   53861   53860   53862
   53864   53863   53865   53867   53866   53868   53870   53869   53871
   53873   53872   53874   53876   53875   53877   53879   53878   53880
   53882   53881   53883   53885   53884   53886   53888   53887   53889
   53891   53890   53892   53894   53893   53895   53897   53896   53898
   53900   53899   53901   53903   53902   53904   53906   53905   53907
   53909   53908   53910   53912   53911   53913   53915   53914   53916
   53918   53917   53919   53921   53920   53922   53924   53923   53925
   53927   53926   53928   53930   53929   53931   53933   53932   53934
   53936   53935   53937   53939   53938   53940   53942   53941   53943
   53945   53944   53946   53948   53947   53949   53951   53950   53952
   53954   53953   53955   53957   53956   53958   53960   53959   53961
   53963   53962   53964   53966   53965   53967   53969   53968   53970
   53972   53971   53973   53975   53974   53976   53978   53977   53979
   53981   53980   53982   53984   53983   53985   53987   53986   53988
   53990   53989   53991   53993   53992   53994   53996   53995   53997
   53999   53998   54000   54002   54001   54003   54005   54004   54006
   54008   54007   54009   54011   54010   54012   54014   54013   54015
   54017   54016   54018   54020   54019   54021   54023   54022   54024
   54026   54025   54027   54029   54028   54030   54032   54031   54033
   54035   54034   54036   54038   54037   54039   54041   54040   54042
   54044   54043   54045   54047   54046   54048   54050   54049   54051
   54053   54052   54054   54056   54055   54057   54059   54058   54060
   54062   54061   54063   54065   54064   54066   54068   54067   54069
   54071   54070   54072   54074   54073   54075   54077   54076   54078
   54080   54079   54081   54083   54082   54084   54086   54085   54087
   54089   54088   54090   54092   54091   54093   54095   54094   54096
   54098   54097   54099   54101   54100   54102   54104   54103   54105
   54107   54106   54108   54110   54109   54111   54113   54112   54114
   54116   54115   54117   54119   54118   54120   54122   54121   54123
   54125   54124   54126   54128   54127   54129   54131   54130   54132
   54134   54133   54135   54137   54136   54138   54140   54139   54141
   54143   54142   54144   54146   54145   54147   54149   54148   54150
   54152   54151   54153   54155   54154   54156   54158   54157   54159
   54161   54160   54162   54164   54163   54165   54167   54166   54168
   54170   54169   54171   54173   54172   54174   54176   54175   54177
   54179   54178   54180   54182   54181   54183   54185   54184   54186
   54188   54187   54189   54191   54190   54192   54194   54193   54195
   54197   54196   54198   54200   54199   54201   54203   54202   54204
   54206   54205   54207   54209   54208   54210   54212   54211   54213
   54215   54214   54216   54218   54217   54219   54221   54220   54222
   54224   54223   54225   54227   54226   54228   54230   54229   54231
   54233   54232   54234   54236   54235   54237   54239   54238   54240
   54242   54241   54243   54245   54244   54246   54248   54247   54249
   54251   54250   54252   54254   54253   54255   54257   54256   54258
   54260   54259   54261   54263   54262   54264   54266   54265   54267
   54269   54268   54270   54272   54271   54273   54275   54274   54276
   54278   54277   54279   54281   54280   54282   54284   54283   54285
   54287   54286   54288   54290   54289   54291   54293   54292   54294
   54296   54295   54297   54299   54298   54300   54302   54301   54303
   54305   54304   54306   54308   54307   54309   54311   54310   54312
   54314   54313   54315   54317   54316   54318   54320   54319   54321
   54323   54322   54324   54326   54325   54327   54329   54328   54330
   54332   54331   54333   54335   54334   54336   54338   54337   54339
   54341   54340   54342   54344   54343   54345   54347   54346   54348
   54350   54349   54351   54353   54352   54354   54356   54355   54357
   54359   54358   54360   54362   54361   54363   54365   54364   54366
   54368   54367   54369   54371   54370   54372   54374   54373   54375
   54377   54376   54378   54380   54379   54381   54383   54382   54384
   54386   54385   54387   54389   54388   54390   54392   54391   54393
   54395   54394   54396   54398   54397   54399   54401   54400   54402
   54404   54403   54405   54407   54406   54408   54410   54409   54411
   54413   54412   54414   54416   54415   54417   54419   54418   54420
   54422   54421   54423   54425   54424   54426   54428   54427   54429
   54431   54430   54432   54434   54433   54435   54437   54436   54438
   54440   54439   54441   54443   54442   54444   54446   54445   54447
   54449   54448   54450   54452   54451   54453   54455   54454   54456
   54458   54457   54459   54461   54460   54462   54464   54463   54465
   54467   54466   54468   54470   54469   54471   54473   54472   54474
   54476   54475   54477   54479   54478   54480   54482   54481   54483
   54485   54484   54486   54488   54487   54489   54491   54490   54492
   54494   54493   54495   54497   54496   54498   54500   54499   54501
   54503   54502   54504   54506   54505   54507   54509   54508   54510
   54512   54511   54513   54515   54514   54516   54518   54517   54519
   54521   54520   54522   54524   54523   54525   54527   54526   54528
   54530   54529   54531   54533   54532   54534   54536   54535   54537
   54539   54538   54540   54542   54541   54543   54545   54544   54546
   54548   54547   54549   54551   54550   54552   54554   54553   54555
   54557   54556   54558   54560   54559   54561   54563   54562   54564
   54566   54565   54567   54569   54568   54570   54572   54571   54573
   54575   54574   54576   54578   54577   54579   54581   54580   54582
   54584   54583   54585   54587   54586   54588   54590   54589   54591
   54593   54592   54594   54596   54595   54597   54599   54598   54600
   54602   54601   54603   54605   54604   54606   54608   54607   54609
   54611   54610   54612   54614   54613   54615   54617   54616   54618
   54620   54619   54621   54623   54622   54624   54626   54625   54627
   54629   54628   54630   54632   54631   54633   54635   54634   54636
   54638   54637   54639   54641   54640   54642   54644   54643   54645
   54647   54646   54648   54650   54649   54651   54653   54652   54654
   54656   54655   54657   54659   54658   54660   54662   54661   54663
   54665   54664   54666   54668   54667   54669   54671   54670   54672
   54674   54673   54675   54677   54676   54678   54680   54679   54681
   54683   54682   54684   54686   54685   54687   54689   54688   54690
   54692   54691   54693   54695   54694   54696   54698   54697   54699
   54701   54700   54702   54704   54703   54705   54707   54706   54708
   54710   54709   54711   54713   54712   54714   54716   54715   54717
   54719   54718   54720   54722   54721   54723   54725   54724   54726
   54728   54727   54729   54731   54730   54732   54734   54733   54735
   54737   54736   54738   54740   54739   54741   54743   54742   54744
   54746   54745   54747   54749   54748   54750   54752   54751   54753
   54755   54754   54756   54758   54757   54759   54761   54760   54762
   54764   54763   54765   54767   54766   54768   54770   54769   54771
   54773   54772   54774   54776   54775   54777   54779   54778   54780
   54782   54781   54783   54785   54784   54786   54788   54787   54789
   54791   54790   54792   54794   54793   54795   54797   54796   54798
   54800   54799   54801   54803   54802   54804   54806   54805   54807
   54809   54808   54810   54812   54811   54813   54815   54814   54816
   54818   54817   54819   54821   54820   54822   54824   54823   54825
   54827   54826   54828   54830   54829   54831   54833   54832   54834
   54836   54835   54837   54839   54838   54840   54842   54841   54843
   54845   54844   54846   54848   54847   54849   54851   54850   54852
   54854   54853   54855   54857   54856   54858   54860   54859   54861
   54863   54862   54864   54866   54865   54867   54869   54868   54870
   54872   54871   54873   54875   54874   54876   54878   54877   54879
   54881   54880   54882   54884   54883   54885   54887   54886   54888
   54890   54889   54891   54893   54892   54894   54896   54895   54897
   54899   54898   54900   54902   54901   54903   54905   54904   54906
   54908   54907   54909   54911   54910   54912   54914   54913   54915
   54917   54916   54918   54920   54919   54921   54923   54922   54924
   54926   54925   54927   54929   54928   54930   54932   54931   54933
   54935   54934   54936   54938   54937   54939   54941   54940   54942
   54944   54943   54945   54947   54946   54948   54950   54949   54951
   54953   54952   54954   54956   54955   54957   54959   54958   54960
   54962   54961   54963   54965   54964   54966   54968   54967   54969
   54971   54970   54972   54974   54973   54975   54977   54976   54978
   54980   54979   54981   54983   54982   54984   54986   54985   54987
   54989   54988   54990   54992   54991   54993   54995   54994   54996
   54998   54997   54999   55001   55000   55002   55004   55003   55005
   55007   55006   55008   55010   55009   55011   55013   55012   55014
   55016   55015   55017   55019   55018   55020   55022   55021   55023
   55025   55024   55026   55028   55027   55029   55031   55030   55032
   55034   55033   55035   55037   55036   55038   55040   55039   55041
   55043   55042   55044   55046   55045   55047   55049   55048   55050
   55052   55051   55053   55055   55054   55056   55058   55057   55059
   55061   55060   55062   55064   55063   55065   55067   55066   55068
   55070   55069   55071   55073   55072   55074   55076   55075   55077
   55079   55078   55080   55082   55081   55083   55085   55084   55086
   55088   55087   55089   55091   55090   55092   55094   55093   55095
   55097   55096   55098   55100   55099   55101   55103   55102   55104
   55106   55105   55107   55109   55108   55110   55112   55111   55113
   55115   55114   55116   55118   55117   55119   55121   55120   55122
   55124   55123   55125   55127   55126   55128   55130   55129   55131
   55133   55132   55134   55136   55135   55137   55139   55138   55140
   55142   55141   55143   55145   55144   55146   55148   55147   55149
   55151   55150   55152   55154   55153   55155   55157   55156   55158
   55160   55159   55161   55163   55162   55164   55166   55165   55167
   55169   55168   55170   55172   55171   55173   55175   55174   55176
   55178   55177   55179   55181   55180   55182   55184   55183   55185
   55187   55186   55188   55190   55189   55191   55193   55192   55194
   55196   55195   55197   55199   55198   55200   55202   55201   55203
   55205   55204   55206   55208   55207   55209   55211   55210   55212
   55214   55213   55215   55217   55216   55218   55220   55219   55221
   55223   55222   55224   55226   55225   55227   55229   55228   55230
   55232   55231   55233   55235   55234   55236   55238   55237   55239
   55241   55240   55242   55244   55243   55245   55247   55246   55248
   55250   55249   55251   55253   55252   55254   55256   55255   55257
   55259   55258   55260   55262   55261   55263   55265   55264   55266
   55268   55267   55269   55271   55270   55272   55274   55273   55275
   55277   55276   55278   55280   55279   55281   55283   55282   55284
   55286   55285   55287   55289   55288   55290   55292   55291   55293
   55295   55294   55296   55298   55297   55299   55301   55300   55302
   55304   55303   55305   55307   55306   55308   55310   55309   55311
   55313   55312   55314   55316   55315   55317   55319   55318   55320
   55322   55321   55323   55325   55324   55326   55328   55327   55329
   55331   55330   55332   55334   55333   55335   55337   55336   55338
   55340   55339   55341   55343   55342   55344   55346   55345   55347
   55349   55348   55350   55352   55351   55353   55355   55354   55356
   55358   55357   55359   55361   55360   55362   55364   55363   55365
   55367   55366   55368   55370   55369   55371   55373   55372   55374
   55376   55375   55377   55379   55378   55380   55382   55381   55383
   55385   55384   55386   55388   55387   55389   55391   55390   55392
   55394   55393   55395   55397   55396   55398   55400   55399   55401
   55403   55402   55404   55406   55405   55407   55409   55408   55410
   55412   55411   55413   55415   55414   55416   55418   55417   55419
   55421   55420   55422   55424   55423   55425   55427   55426   55428
   55430   55429   55431   55433   55432   55434   55436   55435   55437
   55439   55438   55440   55442   55441   55443   55445   55444   55446
   55448   55447   55449   55451   55450   55452   55454   55453   55455
   55457   55456   55458   55460   55459   55461   55463   55462   55464
   55466   55465   55467   55469   55468   55470   55472   55471   55473
   55475   55474   55476   55478   55477   55479   55481   55480   55482
   55484   55483   55485   55487   55486   55488   55490   55489   55491
   55493   55492   55494   55496   55495   55497   55499   55498   55500
   55502   55501   55503   55505   55504   55506   55508   55507   55509
   55511   55510   55512   55514   55513   55515   55517   55516   55518
   55520   55519   55521   55523   55522   55524   55526   55525   55527
   55529   55528   55530   55532   55531   55533   55535   55534   55536
   55538   55537   55539   55541   55540   55542   55544   55543   55545
   55547   55546   55548   55550   55549   55551   55553   55552   55554
   55556   55555   55557   55559   55558   55560   55562   55561   55563
   55565   55564   55566   55568   55567   55569   55571   55570   55572
   55574   55573   55575   55577   55576   55578   55580   55579   55581
   55583   55582   55584   55586   55585   55587   55589   55588   55590
   55592   55591   55593   55595   55594   55596   55598   55597   55599
   55601   55600   55602   55604   55603   55605   55607   55606   55608
   55610   55609   55611   55613   55612   55614   55616   55615   55617
   55619   55618   55620   55622   55621   55623   55625   55624   55626
   55628   55627   55629   55631   55630   55632   55634   55633   55635
   55637   55636   55638   55640   55639   55641   55643   55642   55644
   55646   55645   55647   55649   55648   55650   55652   55651   55653
   55655   55654   55656   55658   55657   55659   55661   55660   55662
   55664   55663   55665   55667   55666   55668   55670   55669   55671
   55673   55672   55674   55676   55675   55677   55679   55678   55680
   55682   55681   55683   55685   55684   55686   55688   55687   55689
   55691   55690   55692   55694   55693   55695   55697   55696   55698
   55700   55699   55701   55703   55702   55704   55706   55705   55707
   55709   55708   55710   55712   55711   55713   55715   55714   55716
   55718   55717   55719   55721   55720   55722   55724   55723   55725
   55727   55726   55728   55730   55729   55731   55733   55732   55734
   55736   55735   55737   55739   55738   55740   55742   55741   55743
   55745   55744   55746   55748   55747   55749   55751   55750   55752
   55754   55753   55755   55757   55756   55758   55760   55759   55761
   55763   55762   55764   55766   55765   55767   55769   55768   55770
   55772   55771   55773   55775   55774   55776   55778   55777   55779
   55781   55780   55782   55784   55783   55785   55787   55786   55788
   55790   55789   55791   55793   55792   55794   55796   55795   55797
   55799   55798   55800   55802   55801   55803   55805   55804   55806
   55808   55807   55809   55811   55810   55812   55814   55813   55815
   55817   55816   55818   55820   55819   55821   55823   55822   55824
   55826   55825   55827   55829   55828   55830   55832   55831   55833
   55835   55834   55836   55838   55837   55839   55841   55840   55842
   55844   55843   55845   55847   55846   55848   55850   55849   55851
   55853   55852   55854   55856   55855   55857   55859   55858   55860
   55862   55861   55863   55865   55864   55866   55868   55867   55869
   55871   55870   55872   55874   55873   55875   55877   55876   55878
   55880   55879   55881   55883   55882   55884   55886   55885   55887
   55889   55888   55890   55892   55891   55893   55895   55894   55896
   55898   55897   55899   55901   55900   55902   55904   55903   55905
   55907   55906   55908   55910   55909   55911   55913   55912   55914
   55916   55915   55917   55919   55918   55920   55922   55921   55923
   55925   55924   55926   55928   55927   55929   55931   55930   55932
   55934   55933   55935   55937   55936   55938   55940   55939   55941
   55943   55942   55944   55946   55945   55947   55949   55948   55950
   55952   55951   55953   55955   55954   55956   55958   55957   55959
   55961   55960   55962   55964   55963   55965   55967   55966   55968
   55970   55969   55971   55973   55972   55974   55976   55975   55977
   55979   55978   55980   55982   55981   55983   55985   55984   55986
   55988   55987   55989   55991   55990   55992   55994   55993   55995
   55997   55996   55998   56000   55999   56001   56003   56002   56004
   56006   56005   56007   56009   56008   56010   56012   56011   56013
   56015   56014   56016   56018   56017   56019   56021   56020   56022
   56024   56023   56025   56027   56026   56028   56030   56029   56031
   56033   56032   56034   56036   56035   56037   56039   56038   56040
   56042   56041   56043   56045   56044   56046   56048   56047   56049
   56051   56050   56052   56054   56053   56055   56057   56056   56058
   56060   56059   56061   56063   56062   56064   56066   56065   56067
   56069   56068   56070   56072   56071   56073   56075   56074   56076
   56078   56077   56079   56081   56080   56082   56084   56083   56085
   56087   56086   56088   56090   56089   56091   56093   56092   56094
   56096   56095   56097   56099   56098   56100   56102   56101   56103
   56105   56104   56106   56108   56107   56109   56111   56110   56112
   56114   56113   56115   56117   56116   56118   56120   56119   56121
   56123   56122   56124   56126   56125   56127   56129   56128   56130
   56132   56131   56133   56135   56134   56136   56138   56137   56139
   56141   56140   56142   56144   56143   56145   56147   56146   56148
   56150   56149   56151   56153   56152   56154   56156   56155   56157
   56159   56158   56160   56162   56161   56163   56165   56164   56166
   56168   56167   56169   56171   56170   56172   56174   56173   56175
   56177   56176   56178   56180   56179   56181   56183   56182   56184
   56186   56185   56187   56189   56188   56190   56192   56191   56193
   56195   56194   56196   56198   56197   56199   56201   56200   56202
   56204   56203   56205   56207   56206   56208   56210   56209   56211
   56213   56212   56214   56216   56215   56217   56219   56218   56220
   56222   56221   56223   56225   56224   56226   56228   56227   56229
   56231   56230   56232   56234   56233   56235   56237   56236   56238
   56240   56239   56241   56243   56242   56244   56246   56245   56247
   56249   56248   56250   56252   56251   56253   56255   56254   56256
   56258   56257   56259   56261   56260   56262   56264   56263   56265
   56267   56266   56268   56270   56269   56271   56273   56272   56274
   56276   56275   56277   56279   56278   56280   56282   56281   56283
   56285   56284   56286   56288   56287   56289   56291   56290   56292
   56294   56293   56295   56297   56296   56298   56300   56299   56301
   56303   56302   56304   56306   56305   56307   56309   56308   56310
   56312   56311   56313   56315   56314   56316   56318   56317   56319
   56321   56320   56322   56324   56323   56325   56327   56326   56328
   56330   56329   56331   56333   56332   56334   56336   56335   56337
   56339   56338   56340   56342   56341   56343   56345   56344   56346
   56348   56347   56349   56351   56350   56352   56354   56353   56355
   56357   56356   56358   56360   56359   56361   56363   56362   56364
   56366   56365   56367   56369   56368   56370   56372   56371   56373
   56375   56374   56376   56378   56377   56379   56381   56380   56382
   56384   56383   56385   56387   56386   56388   56390   56389   56391
   56393   56392   56394   56396   56395   56397   56399   56398   56400
   56402   56401   56403   56405   56404   56406   56408   56407   56409
   56411   56410   56412   56414   56413   56415   56417   56416   56418
   56420   56419   56421   56423   56422   56424   56426   56425   56427
   56429   56428   56430   56432   56431   56433   56435   56434   56436
   56438   56437   56439   56441   56440   56442   56444   56443   56445
   56447   56446   56448   56450   56449   56451   56453   56452   56454
   56456   56455   56457   56459   56458   56460   56462   56461   56463
   56465   56464   56466   56468   56467   56469   56471   56470   56472
   56474   56473   56475   56477   56476   56478   56480   56479   56481
   56483   56482   56484   56486   56485   56487   56489   56488   56490
   56492   56491   56493   56495   56494   56496   56498   56497   56499
   56501   56500   56502   56504   56503   56505   56507   56506   56508
   56510   56509   56511   56513   56512   56514   56516   56515   56517
   56519   56518   56520   56522   56521   56523   56525   56524   56526
   56528   56527   56529   56531   56530   56532   56534   56533   56535
   56537   56536   56538   56540   56539   56541   56543   56542   56544
   56546   56545   56547   56549   56548   56550   56552   56551   56553
   56555   56554   56556   56558   56557   56559   56561   56560   56562
   56564   56563   56565   56567   56566   56568   56570   56569   56571
   56573   56572   56574   56576   56575   56577   56579   56578   56580
   56582   56581   56583   56585   56584   56586   56588   56587   56589
   56591   56590   56592   56594   56593   56595   56597   56596   56598
   56600   56599   56601   56603   56602   56604   56606   56605   56607
   56609   56608   56610   56612   56611   56613   56615   56614   56616
   56618   56617   56619   56621   56620   56622   56624   56623   56625
   56627   56626   56628   56630   56629   56631   56633   56632   56634
   56636   56635   56637   56639   56638   56640   56642   56641   56643
   56645   56644   56646   56648   56647   56649   56651   56650   56652
   56654   56653   56655   56657   56656   56658   56660   56659   56661
   56663   56662   56664   56666   56665   56667   56669   56668   56670
   56672   56671   56673   56675   56674   56676   56678   56677   56679
   56681   56680   56682   56684   56683   56685   56687   56686   56688
   56690   56689   56691   56693   56692   56694   56696   56695   56697
   56699   56698   56700   56702   56701   56703   56705   56704   56706
   56708   56707   56709   56711   56710   56712   56714   56713   56715
   56717   56716   56718   56720   56719   56721   56723   56722   56724
   56726   56725   56727   56729   56728   56730   56732   56731   56733
   56735   56734   56736   56738   56737   56739   56741   56740   56742
   56744   56743   56745   56747   56746   56748   56750   56749   56751
   56753   56752   56754   56756   56755   56757   56759   56758   56760
   56762   56761   56763   56765   56764   56766   56768   56767   56769
   56771   56770   56772   56774   56773   56775   56777   56776   56778
   56780   56779   56781   56783   56782   56784   56786   56785   56787
   56789   56788   56790   56792   56791   56793   56795   56794   56796
   56798   56797   56799   56801   56800   56802   56804   56803   56805
   56807   56806   56808   56810   56809   56811   56813   56812   56814
   56816   56815   56817   56819   56818   56820   56822   56821   56823
   56825   56824   56826   56828   56827   56829   56831   56830   56832
   56834   56833   56835   56837   56836   56838   56840   56839   56841
   56843   56842   56844   56846   56845   56847   56849   56848   56850
   56852   56851   56853   56855   56854   56856   56858   56857   56859
   56861   56860   56862   56864   56863   56865   56867   56866   56868
   56870   56869   56871   56873   56872   56874   56876   56875   56877
   56879   56878   56880   56882   56881   56883   56885   56884   56886
   56888   56887   56889   56891   56890   56892   56894   56893   56895
   56897   56896   56898   56900   56899   56901   56903   56902   56904
   56906   56905   56907   56909   56908   56910   56912   56911   56913
   56915   56914   56916   56918   56917   56919   56921   56920   56922
   56924   56923   56925   56927   56926   56928   56930   56929   56931
   56933   56932   56934   56936   56935   56937   56939   56938   56940
   56942   56941   56943   56945   56944   56946   56948   56947   56949
   56951   56950   56952   56954   56953   56955   56957   56956   56958
   56960   56959   56961   56963   56962   56964   56966   56965   56967
   56969   56968   56970   56972   56971   56973   56975   56974   56976
   56978   56977   56979   56981   56980   56982   56984   56983   56985
   56987   56986   56988   56990   56989   56991   56993   56992   56994
   56996   56995   56997   56999   56998   57000   57002   57001   57003
   57005   57004   57006   57008   57007   57009   57011   57010   57012
   57014   57013   57015   57017   57016   57018   57020   57019   57021
   57023   57022   57024   57026   57025   57027   57029   57028   57030
   57032   57031   57033   57035   57034   57036   57038   57037   57039
   57041   57040   57042   57044   57043   57045   57047   57046   57048
   57050   57049   57051   57053   57052   57054   57056   57055   57057
   57059   57058   57060   57062   57061   57063   57065   57064   57066
   57068   57067   57069   57071   57070   57072   57074   57073   57075
   57077   57076   57078   57080   57079   57081   57083   57082   57084
   57086   57085   57087   57089   57088   57090   57092   57091   57093
   57095   57094   57096   57098   57097   57099   57101   57100   57102
   57104   57103   57105   57107   57106   57108   57110   57109   57111
   57113   57112   57114   57116   57115   57117   57119   57118   57120
   57122   57121   57123   57125   57124   57126   57128   57127   57129
   57131   57130   57132   57134   57133   57135   57137   57136   57138
   57140   57139   57141   57143   57142   57144   57146   57145   57147
   57149   57148   57150   57152   57151   57153   57155   57154   57156
   57158   57157   57159   57161   57160   57162   57164   57163   57165
   57167   57166   57168   57170   57169   57171   57173   57172   57174
   57176   57175   57177   57179   57178   57180   57182   57181   57183
   57185   57184   57186   57188   57187   57189   57191   57190   57192
   57194   57193   57195   57197   57196   57198   57200   57199   57201
   57203   57202   57204   57206   57205   57207   57209   57208   57210
   57212   57211   57213   57215   57214   57216   57218   57217   57219
   57221   57220   57222   57224   57223   57225   57227   57226   57228
   57230   57229   57231   57233   57232   57234   57236   57235   57237
   57239   57238   57240   57242   57241   57243   57245   57244   57246
   57248   57247   57249   57251   57250   57252   57254   57253   57255
   57257   57256   57258   57260   57259   57261   57263   57262   57264
   57266   57265   57267   57269   57268   57270   57272   57271   57273
   57275   57274   57276   57278   57277   57279   57281   57280   57282
   57284   57283   57285   57287   57286   57288   57290   57289   57291
   57293   57292   57294   57296   57295   57297   57299   57298   57300
   57302   57301   57303   57305   57304   57306   57308   57307   57309
   57311   57310   57312   57314   57313   57315   57317   57316   57318
   57320   57319   57321   57323   57322   57324   57326   57325   57327
   57329   57328   57330   57332   57331   57333   57335   57334   57336
   57338   57337   57339   57341   57340   57342   57344   57343   57345
   57347   57346   57348   57350   57349   57351   57353   57352   57354
   57356   57355   57357   57359   57358   57360   57362   57361   57363
   57365   57364   57366   57368   57367   57369   57371   57370   57372
   57374   57373   57375   57377   57376   57378   57380   57379   57381
   57383   57382   57384   57386   57385   57387   57389   57388   57390
   57392   57391   57393   57395   57394   57396   57398   57397   57399
   57401   57400   57402   57404   57403   57405   57407   57406   57408
   57410   57409   57411   57413   57412   57414   57416   57415   57417
   57419   57418   57420   57422   57421   57423   57425   57424   57426
   57428   57427   57429   57431   57430   57432   57434   57433   57435
   57437   57436   57438   57440   57439   57441   57443   57442   57444
   57446   57445   57447   57449   57448   57450   57452   57451   57453
   57455   57454   57456   57458   57457   57459   57461   57460   57462
   57464   57463   57465   57467   57466   57468   57470   57469   57471
   57473   57472   57474   57476   57475   57477   57479   57478   57480
   57482   57481   57483   57485   57484   57486   57488   57487   57489
   57491   57490   57492   57494   57493   57495   57497   57496   57498
   57500   57499   57501   57503   57502   57504   57506   57505   57507
   57509   57508   57510   57512   57511   57513   57515   57514   57516
   57518   57517   57519   57521   57520   57522   57524   57523   57525
   57527   57526   57528   57530   57529   57531   57533   57532   57534
   57536   57535   57537   57539   57538   57540   57542   57541   57543
   57545   57544   57546   57548   57547   57549   57551   57550   57552
   57554   57553   57555   57557   57556   57558   57560   57559   57561
   57563   57562   57564   57566   57565   57567   57569   57568   57570
   57572   57571   57573   57575   57574   57576   57578   57577   57579
   57581   57580   57582   57584   57583   57585   57587   57586   57588
   57590   57589   57591   57593   57592   57594   57596   57595   57597
   57599   57598   57600   57602   57601   57603   57605   57604   57606
   57608   57607   57609   57611   57610   57612   57614   57613   57615
   57617   57616   57618   57620   57619   57621   57623   57622   57624
   57626   57625   57627   57629   57628   57630   57632   57631   57633
   57635   57634   57636   57638   57637   57639   57641   57640   57642
   57644   57643   57645   57647   57646   57648   57650   57649   57651
   57653   57652   57654   57656   57655   57657   57659   57658   57660
   57662   57661   57663   57665   57664   57666   57668   57667   57669
   57671   57670   57672   57674   57673   57675   57677   57676   57678
   57680   57679   57681   57683   57682   57684   57686   57685   57687
   57689   57688   57690   57692   57691   57693   57695   57694   57696
   57698   57697   57699   57701   57700   57702   57704   57703   57705
   57707   57706   57708   57710   57709   57711   57713   57712   57714
   57716   57715   57717   57719   57718   57720   57722   57721   57723
   57725   57724   57726   57728   57727   57729   57731   57730   57732
   57734   57733   57735   57737   57736   57738   57740   57739   57741
   57743   57742   57744   57746   57745   57747   57749   57748   57750
   57752   57751   57753   57755   57754   57756   57758   57757   57759
   57761   57760   57762   57764   57763   57765   57767   57766   57768
   57770   57769   57771   57773   57772   57774   57776   57775   57777
   57779   57778   57780   57782   57781   57783   57785   57784   57786
   57788   57787   57789   57791   57790   57792   57794   57793   57795
   57797   57796   57798   57800   57799   57801   57803   57802   57804
   57806   57805   57807   57809   57808   57810   57812   57811   57813
   57815   57814   57816   57818   57817   57819   57821   57820   57822
   57824   57823   57825   57827   57826   57828   57830   57829   57831
   57833   57832   57834   57836   57835   57837   57839   57838   57840
   57842   57841   57843   57845   57844   57846   57848   57847   57849
   57851   57850   57852   57854   57853   57855   57857   57856   57858
   57860   57859   57861   57863   57862   57864   57866   57865   57867
   57869   57868   57870   57872   57871   57873   57875   57874   57876
   57878   57877   57879   57881   57880   57882   57884   57883   57885
   57887   57886   57888   57890   57889   57891   57893   57892   57894
   57896   57895   57897   57899   57898   57900   57902   57901   57903
   57905   57904   57906   57908   57907   57909   57911   57910   57912
   57914   57913   57915   57917   57916   57918   57920   57919   57921
   57923   57922   57924   57926   57925   57927   57929   57928   57930
   57932   57931   57933   57935   57934   57936   57938   57937   57939
   57941   57940   57942   57944   57943   57945   57947   57946   57948
   57950   57949   57951   57953   57952   57954   57956   57955   57957
   57959   57958   57960   57962   57961   57963   57965   57964   57966
   57968   57967   57969   57971   57970   57972   57974   57973   57975
   57977   57976   57978   57980   57979   57981   57983   57982   57984
   57986   57985   57987   57989   57988   57990   57992   57991   57993
   57995   57994   57996   57998   57997   57999   58001   58000   58002
   58004   58003   58005   58007   58006   58008   58010   58009   58011
   58013   58012   58014   58016   58015   58017   58019   58018   58020
   58022   58021   58023   58025   58024   58026   58028   58027   58029
   58031   58030   58032   58034   58033   58035   58037   58036   58038
   58040   58039   58041   58043   58042   58044   58046   58045   58047
   58049   58048   58050   58052   58051   58053   58055   58054   58056
   58058   58057   58059   58061   58060   58062   58064   58063   58065
   58067   58066   58068   58070   58069   58071   58073   58072   58074
   58076   58075   58077   58079   58078   58080   58082   58081   58083
   58085   58084   58086   58088   58087   58089   58091   58090   58092
   58094   58093   58095   58097   58096   58098   58100   58099   58101
   58103   58102   58104   58106   58105   58107   58109   58108   58110
   58112   58111   58113   58115   58114   58116   58118   58117   58119
   58121   58120   58122   58124   58123   58125   58127   58126   58128
   58130   58129   58131   58133   58132   58134   58136   58135   58137
   58139   58138   58140   58142   58141   58143   58145   58144   58146
   58148   58147   58149   58151   58150   58152   58154   58153   58155
   58157   58156   58158   58160   58159   58161   58163   58162   58164
   58166   58165   58167   58169   58168   58170   58172   58171   58173
   58175   58174   58176   58178   58177   58179   58181   58180   58182
   58184   58183   58185   58187   58186   58188   58190   58189   58191
   58193   58192   58194   58196   58195   58197   58199   58198   58200
   58202   58201   58203   58205   58204   58206   58208   58207   58209
   58211   58210   58212   58214   58213   58215   58217   58216   58218
   58220   58219   58221   58223   58222   58224   58226   58225   58227
   58229   58228   58230   58232   58231   58233   58235   58234   58236
   58238   58237   58239   58241   58240   58242   58244   58243   58245
   58247   58246   58248   58250   58249   58251   58253   58252   58254
   58256   58255   58257   58259   58258   58260   58262   58261   58263
   58265   58264   58266   58268   58267   58269   58271   58270   58272
   58274   58273   58275   58277   58276   58278   58280   58279   58281
   58283   58282   58284   58286   58285   58287   58289   58288   58290
   58292   58291   58293   58295   58294   58296   58298   58297   58299
   58301   58300   58302   58304   58303   58305   58307   58306   58308
   58310   58309   58311   58313   58312   58314   58316   58315   58317
   58319   58318   58320   58322   58321   58323   58325   58324   58326
   58328   58327   58329   58331   58330   58332   58334   58333   58335
   58337   58336   58338   58340   58339   58341   58343   58342   58344
   58346   58345   58347   58349   58348   58350   58352   58351   58353
   58355   58354   58356   58358   58357   58359   58361   58360   58362
   58364   58363   58365   58367   58366   58368   58370   58369   58371
   58373   58372   58374   58376   58375   58377   58379   58378   58380
   58382   58381   58383   58385   58384   58386   58388   58387   58389
   58391   58390   58392   58394   58393   58395   58397   58396   58398
   58400   58399   58401   58403   58402   58404   58406   58405   58407
   58409   58408   58410   58412   58411   58413   58415   58414   58416
   58418   58417   58419   58421   58420   58422   58424   58423   58425
   58427   58426   58428   58430   58429   58431   58433   58432   58434
   58436   58435   58437   58439   58438   58440   58442   58441   58443
   58445   58444   58446   58448   58447   58449   58451   58450   58452
   58454   58453   58455   58457   58456   58458   58460   58459   58461
   58463   58462   58464   58466   58465   58467   58469   58468   58470
   58472   58471   58473   58475   58474   58476   58478   58477   58479
   58481   58480   58482   58484   58483   58485   58487   58486   58488
   58490   58489   58491   58493   58492   58494   58496   58495   58497
   58499   58498   58500   58502   58501   58503   58505   58504   58506
   58508   58507   58509   58511   58510   58512   58514   58513   58515
   58517   58516   58518   58520   58519   58521   58523   58522   58524
   58526   58525   58527   58529   58528   58530   58532   58531   58533
   58535   58534   58536   58538   58537   58539   58541   58540   58542
   58544   58543   58545   58547   58546   58548   58550   58549   58551
   58553   58552   58554   58556   58555   58557   58559   58558   58560
   58562   58561   58563   58565   58564   58566   58568   58567   58569
   58571   58570   58572   58574   58573   58575   58577   58576   58578
   58580   58579   58581   58583   58582   58584   58586   58585   58587
   58589   58588   58590   58592   58591   58593   58595   58594   58596
   58598   58597   58599   58601   58600   58602   58604   58603   58605
   58607   58606   58608   58610   58609   58611   58613   58612   58614
   58616   58615   58617   58619   58618   58620   58622   58621   58623
   58625   58624   58626   58628   58627   58629   58631   58630   58632
   58634   58633   58635   58637   58636   58638   58640   58639   58641
   58643   58642   58644   58646   58645   58647   58649   58648   58650
   58652   58651   58653   58655   58654   58656   58658   58657   58659
   58661   58660   58662   58664   58663   58665   58667   58666   58668
   58670   58669   58671   58673   58672   58674   58676   58675   58677
   58679   58678   58680   58682   58681   58683   58685   58684   58686
   58688   58687   58689   58691   58690   58692   58694   58693   58695
   58697   58696   58698   58700   58699   58701   58703   58702   58704
   58706   58705   58707   58709   58708   58710   58712   58711   58713
   58715   58714   58716   58718   58717   58719   58721   58720   58722
   58724   58723   58725   58727   58726   58728   58730   58729   58731
   58733   58732   58734   58736   58735   58737   58739   58738   58740
   58742   58741   58743   58745   58744   58746   58748   58747   58749
   58751   58750   58752   58754   58753   58755   58757   58756   58758
   58760   58759   58761   58763   58762   58764   58766   58765   58767
   58769   58768   58770   58772   58771   58773   58775   58774   58776
   58778   58777   58779   58781   58780   58782   58784   58783   58785
   58787   58786   58788   58790   58789   58791   58793   58792   58794
   58796   58795   58797   58799   58798   58800   58802   58801   58803
   58805   58804   58806   58808   58807   58809   58811   58810   58812
   58814   58813   58815   58817   58816   58818   58820   58819   58821
   58823   58822   58824   58826   58825   58827   58829   58828   58830
   58832   58831   58833   58835   58834   58836   58838   58837   58839
   58841   58840   58842   58844   58843   58845   58847   58846   58848
   58850   58849   58851   58853   58852   58854   58856   58855   58857
   58859   58858   58860   58862   58861   58863   58865   58864   58866
   58868   58867   58869   58871   58870   58872   58874   58873   58875
   58877   58876   58878   58880   58879   58881   58883   58882   58884
   58886   58885   58887   58889   58888   58890   58892   58891   58893
   58895   58894   58896   58898   58897   58899   58901   58900   58902
   58904   58903   58905   58907   58906   58908   58910   58909   58911
   58913   58912   58914   58916   58915   58917   58919   58918   58920
   58922   58921   58923   58925   58924   58926   58928   58927   58929
   58931   58930   58932   58934   58933   58935   58937   58936   58938
   58940   58939   58941   58943   58942   58944   58946   58945   58947
   58949   58948   58950   58952   58951   58953   58955   58954   58956
   58958   58957   58959   58961   58960   58962   58964   58963   58965
   58967   58966   58968   58970   58969   58971   58973   58972   58974
   58976   58975   58977   58979   58978   58980   58982   58981   58983
   58985   58984   58986   58988   58987   58989   58991   58990   58992
   58994   58993   58995   58997   58996   58998   59000   58999   59001
   59003   59002   59004   59006   59005   59007   59009   59008   59010
   59012   59011   59013   59015   59014   59016   59018   59017   59019
   59021   59020   59022   59024   59023   59025   59027   59026   59028
   59030   59029   59031   59033   59032   59034   59036   59035   59037
   59039   59038   59040   59042   59041   59043   59045   59044   59046
   59048   59047   59049   59051   59050   59052   59054   59053   59055
   59057   59056   59058   59060   59059   59061   59063   59062   59064
   59066   59065   59067   59069   59068   59070   59072   59071   59073
   59075   59074   59076   59078   59077   59079   59081   59080   59082
   59084   59083   59085   59087   59086   59088   59090   59089   59091
   59093   59092   59094   59096   59095   59097   59099   59098   59100
   59102   59101   59103   59105   59104   59106   59108   59107   59109
   59111   59110   59112   59114   59113   59115   59117   59116   59118
   59120   59119   59121   59123   59122   59124   59126   59125   59127
   59129   59128   59130   59132   59131   59133   59135   59134   59136
   59138   59137   59139   59141   59140   59142   59144   59143   59145
   59147   59146   59148   59150   59149   59151   59153   59152   59154
   59156   59155   59157   59159   59158   59160   59162   59161   59163
   59165   59164   59166   59168   59167   59169   59171   59170   59172
   59174   59173   59175   59177   59176   59178   59180   59179   59181
   59183   59182   59184   59186   59185   59187   59189   59188   59190
   59192   59191   59193   59195   59194   59196   59198   59197   59199
   59201   59200   59202   59204   59203   59205   59207   59206   59208
   59210   59209   59211   59213   59212   59214   59216   59215   59217
   59219   59218   59220   59222   59221   59223   59225   59224   59226
   59228   59227   59229   59231   59230   59232   59234   59233   59235
   59237   59236   59238   59240   59239   59241   59243   59242   59244
   59246   59245   59247   59249   59248   59250   59252   59251   59253
   59255   59254   59256   59258   59257   59259   59261   59260   59262
   59264   59263   59265   59267   59266   59268   59270   59269   59271
   59273   59272   59274   59276   59275   59277   59279   59278   59280
   59282   59281   59283   59285   59284   59286   59288   59287   59289
   59291   59290   59292   59294   59293   59295   59297   59296   59298
   59300   59299   59301   59303   59302   59304   59306   59305   59307
   59309   59308   59310   59312   59311   59313   59315   59314   59316
   59318   59317   59319   59321   59320   59322   59324   59323   59325
   59327   59326   59328   59330   59329   59331   59333   59332   59334
   59336   59335   59337   59339   59338   59340   59342   59341   59343
   59345   59344   59346   59348   59347   59349   59351   59350   59352
   59354   59353   59355   59357   59356   59358   59360   59359   59361
   59363   59362   59364   59366   59365   59367   59369   59368   59370
   59372   59371   59373   59375   59374   59376   59378   59377   59379
   59381   59380   59382   59384   59383   59385   59387   59386   59388
   59390   59389   59391   59393   59392   59394   59396   59395   59397
   59399   59398   59400   59402   59401   59403   59405   59404   59406
   59408   59407   59409   59411   59410   59412   59414   59413   59415
   59417   59416   59418   59420   59419   59421   59423   59422   59424
   59426   59425   59427   59429   59428   59430   59432   59431   59433
   59435   59434   59436   59438   59437   59439   59441   59440   59442
   59444   59443   59445   59447   59446   59448   59450   59449   59451
   59453   59452   59454   59456   59455   59457   59459   59458   59460
   59462   59461   59463   59465   59464   59466   59468   59467   59469
   59471   59470   59472   59474   59473   59475   59477   59476   59478
   59480   59479   59481   59483   59482   59484   59486   59485   59487
   59489   59488   59490   59492   59491   59493   59495   59494   59496
   59498   59497   59499   59501   59500   59502   59504   59503   59505
   59507   59506   59508   59510   59509   59511   59513   59512   59514
   59516   59515   59517   59519   59518   59520   59522   59521   59523
   59525   59524   59526   59528   59527   59529   59531   59530   59532
   59534   59533   59535   59537   59536   59538   59540   59539   59541
   59543   59542   59544   59546   59545   59547   59549   59548   59550
   59552   59551   59553   59555   59554   59556   59558   59557   59559
   59561   59560   59562   59564   59563   59565   59567   59566   59568
   59570   59569   59571   59573   59572   59574   59576   59575   59577
   59579   59578   59580   59582   59581   59583   59585   59584   59586
   59588   59587   59589   59591   59590   59592   59594   59593   59595
   59597   59596   59598   59600   59599   59601   59603   59602   59604
   59606   59605   59607   59609   59608   59610   59612   59611   59613
   59615   59614   59616   59618   59617   59619   59621   59620   59622
   59624   59623   59625   59627   59626   59628   59630   59629   59631
   59633   59632   59634   59636   59635   59637   59639   59638   59640
   59642   59641   59643   59645   59644   59646   59648   59647   59649
   59651   59650   59652   59654   59653   59655   59657   59656   59658
   59660   59659   59661   59663   59662   59664   59666   59665   59667
   59669   59668   59670   59672   59671   59673   59675   59674   59676
   59678   59677   59679   59681   59680   59682   59684   59683   59685
   59687   59686   59688   59690   59689   59691   59693   59692   59694
   59696   59695   59697   59699   59698   59700   59702   59701   59703
   59705   59704   59706   59708   59707   59709   59711   59710   59712
   59714   59713   59715   59717   59716   59718   59720   59719   59721
   59723   59722   59724   59726   59725   59727   59729   59728   59730
   59732   59731   59733   59735   59734   59736   59738   59737   59739
   59741   59740   59742   59744   59743   59745   59747   59746   59748
   59750   59749   59751   59753   59752   59754   59756   59755   59757
   59759   59758   59760   59762   59761   59763   59765   59764   59766
   59768   59767   59769   59771   59770   59772   59774   59773   59775
   59777   59776   59778   59780   59779   59781   59783   59782   59784
   59786   59785   59787   59789   59788   59790   59792   59791   59793
   59795   59794   59796   59798   59797   59799   59801   59800   59802
   59804   59803   59805   59807   59806   59808   59810   59809   59811
   59813   59812   59814   59816   59815   59817   59819   59818   59820
   59822   59821   59823   59825   59824   59826   59828   59827   59829
   59831   59830   59832   59834   59833   59835   59837   59836   59838
   59840   59839   59841   59843   59842   59844   59846   59845   59847
   59849   59848   59850   59852   59851   59853   59855   59854   59856
   59858   59857   59859   59861   59860   59862   59864   59863   59865
   59867   59866   59868   59870   59869   59871   59873   59872   59874
   59876   59875   59877   59879   59878   59880   59882   59881   59883
   59885   59884   59886   59888   59887   59889   59891   59890   59892
   59894   59893   59895   59897   59896   59898   59900   59899   59901
   59903   59902   59904   59906   59905   59907   59909   59908   59910
   59912   59911   59913   59915   59914   59916   59918   59917   59919
   59921   59920   59922   59924   59923   59925   59927   59926   59928
   59930   59929   59931   59933   59932   59934   59936   59935   59937
   59939   59938   59940   59942   59941   59943   59945   59944   59946
   59948   59947   59949   59951   59950   59952   59954   59953   59955
   59957   59956   59958   59960   59959   59961   59963   59962   59964
   59966   59965   59967   59969   59968   59970   59972   59971   59973
   59975   59974   59976   59978   59977   59979   59981   59980   59982
   59984   59983   59985   59987   59986   59988   59990   59989   59991
   59993   59992   59994   59996   59995   59997   59999   59998   60000
   60002   60001   60003   60005   60004   60006   60008   60007   60009
   60011   60010   60012   60014   60013   60015   60017   60016   60018
   60020   60019   60021   60023   60022   60024   60026   60025   60027
   60029   60028   60030   60032   60031   60033   60035   60034   60036
   60038   60037   60039   60041   60040   60042   60044   60043   60045
   60047   60046   60048   60050   60049   60051   60053   60052   60054
   60056   60055   60057   60059   60058   60060   60062   60061   60063
   60065   60064   60066   60068   60067   60069   60071   60070   60072
   60074   60073   60075   60077   60076   60078   60080   60079   60081
   60083   60082   60084   60086   60085   60087   60089   60088   60090
   60092   60091   60093   60095   60094   60096   60098   60097   60099
   60101   60100   60102   60104   60103   60105   60107   60106   60108
   60110   60109   60111   60113   60112   60114   60116   60115   60117
   60119   60118   60120   60122   60121   60123   60125   60124   60126
   60128   60127   60129   60131   60130   60132   60134   60133   60135
   60137   60136   60138   60140   60139   60141   60143   60142   60144
   60146   60145   60147   60149   60148   60150   60152   60151   60153
   60155   60154   60156   60158   60157   60159   60161   60160   60162
   60164   60163   60165   60167   60166   60168   60170   60169   60171
   60173   60172   60174   60176   60175   60177   60179   60178   60180
   60182   60181   60183   60185   60184   60186   60188   60187   60189
   60191   60190   60192   60194   60193   60195   60197   60196   60198
   60200   60199   60201   60203   60202   60204   60206   60205   60207
   60209   60208   60210   60212   60211   60213   60215   60214   60216
   60218   60217   60219   60221   60220   60222   60224   60223   60225
   60227   60226   60228   60230   60229   60231   60233   60232   60234
   60236   60235   60237   60239   60238   60240   60242   60241   60243
   60245   60244   60246   60248   60247   60249   60251   60250   60252
   60254   60253   60255   60257   60256   60258   60260   60259   60261
   60263   60262   60264   60266   60265   60267   60269   60268   60270
   60272   60271   60273   60275   60274   60276   60278   60277   60279
   60281   60280   60282   60284   60283   60285   60287   60286   60288
   60290   60289   60291   60293   60292   60294   60296   60295   60297
   60299   60298   60300   60302   60301   60303   60305   60304   60306
   60308   60307   60309   60311   60310   60312   60314   60313   60315
   60317   60316   60318   60320   60319   60321   60323   60322   60324
   60326   60325   60327   60329   60328   60330   60332   60331   60333
   60335   60334   60336   60338   60337   60339   60341   60340   60342
   60344   60343   60345   60347   60346   60348   60350   60349   60351
   60353   60352   60354   60356   60355   60357   60359   60358   60360
   60362   60361   60363   60365   60364   60366   60368   60367   60369
   60371   60370   60372   60374   60373   60375   60377   60376   60378
   60380   60379   60381   60383   60382   60384   60386   60385   60387
   60389   60388   60390   60392   60391   60393   60395   60394   60396
   60398   60397   60399   60401   60400   60402   60404   60403   60405
   60407   60406   60408   60410   60409   60411   60413   60412   60414
   60416   60415   60417   60419   60418   60420   60422   60421   60423
   60425   60424   60426   60428   60427   60429   60431   60430   60432
   60434   60433   60435   60437   60436   60438   60440   60439   60441
   60443   60442   60444   60446   60445   60447   60449   60448   60450
   60452   60451   60453   60455   60454   60456   60458   60457   60459
   60461   60460   60462   60464   60463   60465   60467   60466   60468
   60470   60469   60471   60473   60472   60474   60476   60475   60477
   60479   60478   60480   60482   60481   60483   60485   60484   60486
   60488   60487   60489   60491   60490   60492   60494   60493   60495
   60497   60496   60498   60500   60499   60501   60503   60502   60504
   60506   60505   60507   60509   60508   60510   60512   60511   60513
   60515   60514   60516   60518   60517   60519   60521   60520   60522
   60524   60523   60525   60527   60526   60528   60530   60529   60531
   60533   60532   60534   60536   60535   60537   60539   60538   60540
   60542   60541   60543   60545   60544   60546   60548   60547   60549
   60551   60550   60552   60554   60553   60555   60557   60556   60558
   60560   60559   60561   60563   60562   60564   60566   60565   60567
   60569   60568   60570   60572   60571   60573   60575   60574   60576
   60578   60577   60579   60581   60580   60582   60584   60583   60585
   60587   60586   60588   60590   60589   60591   60593   60592   60594
   60596   60595   60597   60599   60598   60600   60602   60601   60603
   60605   60604   60606   60608   60607   60609   60611   60610   60612
   60614   60613   60615   60617   60616   60618   60620   60619   60621
   60623   60622   60624   60626   60625   60627   60629   60628   60630
   60632   60631   60633   60635   60634   60636   60638   60637   60639
   60641   60640   60642   60644   60643   60645   60647   60646   60648
   60650   60649   60651   60653   60652   60654   60656   60655   60657
   60659   60658   60660   60662   60661   60663   60665   60664   60666
   60668   60667   60669   60671   60670   60672   60674   60673   60675
   60677   60676   60678   60680   60679   60681   60683   60682   60684
   60686   60685   60687   60689   60688   60690   60692   60691   60693
   60695   60694   60696   60698   60697   60699   60701   60700   60702
   60704   60703   60705   60707   60706   60708   60710   60709   60711
   60713   60712   60714   60716   60715   60717   60719   60718   60720
   60722   60721   60723   60725   60724   60726   60728   60727   60729
   60731   60730   60732   60734   60733   60735   60737   60736   60738
   60740   60739   60741   60743   60742   60744   60746   60745   60747
   60749   60748   60750   60752   60751   60753   60755   60754   60756
   60758   60757   60759   60761   60760   60762   60764   60763   60765
   60767   60766   60768   60770   60769   60771   60773   60772   60774
   60776   60775   60777   60779   60778   60780   60782   60781   60783
   60785   60784   60786   60788   60787   60789   60791   60790   60792
   60794   60793   60795   60797   60796   60798   60800   60799   60801
   60803   60802   60804   60806   60805   60807   60809   60808   60810
   60812   60811   60813   60815   60814   60816   60818   60817   60819
   60821   60820   60822   60824   60823   60825   60827   60826   60828
   60830   60829   60831   60833   60832   60834   60836   60835   60837
   60839   60838   60840   60842   60841   60843   60845   60844   60846
   60848   60847   60849   60851   60850   60852   60854   60853   60855
   60857   60856   60858   60860   60859   60861   60863   60862   60864
   60866   60865   60867   60869   60868   60870   60872   60871   60873
   60875   60874   60876   60878   60877   60879   60881   60880   60882
   60884   60883   60885   60887   60886   60888   60890   60889   60891
   60893   60892   60894   60896   60895   60897   60899   60898   60900
   60902   60901   60903   60905   60904   60906   60908   60907   60909
   60911   60910   60912   60914   60913   60915   60917   60916   60918
   60920   60919   60921   60923   60922   60924   60926   60925   60927
   60929   60928   60930   60932   60931   60933   60935   60934   60936
   60938   60937   60939   60941   60940   60942   60944   60943   60945
   60947   60946   60948   60950   60949   60951   60953   60952   60954
   60956   60955   60957   60959   60958   60960   60962   60961   60963
   60965   60964   60966   60968   60967   60969   60971   60970   60972
   60974   60973   60975   60977   60976   60978   60980   60979   60981
   60983   60982   60984   60986   60985   60987   60989   60988   60990
   60992   60991   60993   60995   60994   60996   60998   60997   60999
   61001   61000   61002   61004   61003   61005   61007   61006   61008
   61010   61009   61011   61013   61012   61014   61016   61015   61017
   61019   61018   61020   61022   61021   61023   61025   61024   61026
   61028   61027   61029   61031   61030   61032   61034   61033   61035
   61037   61036   61038   61040   61039   61041   61043   61042   61044
   61046   61045   61047   61049   61048   61050   61052   61051   61053
   61055   61054   61056   61058   61057   61059   61061   61060   61062
   61064   61063   61065   61067   61066   61068   61070   61069   61071
   61073   61072   61074   61076   61075   61077   61079   61078   61080
   61082   61081   61083   61085   61084   61086   61088   61087   61089
   61091   61090   61092   61094   61093   61095   61097   61096   61098
   61100   61099   61101   61103   61102   61104   61106   61105   61107
   61109   61108   61110   61112   61111   61113   61115   61114   61116
   61118   61117   61119   61121   61120   61122   61124   61123   61125
   61127   61126   61128   61130   61129   61131   61133   61132   61134
   61136   61135   61137   61139   61138   61140   61142   61141   61143
   61145   61144   61146   61148   61147   61149   61151   61150   61152
   61154   61153   61155   61157   61156   61158   61160   61159   61161
   61163   61162   61164   61166   61165   61167   61169   61168   61170
   61172   61171   61173   61175   61174   61176   61178   61177   61179
   61181   61180   61182   61184   61183   61185   61187   61186   61188
   61190   61189   61191   61193   61192   61194   61196   61195   61197
   61199   61198   61200   61202   61201   61203   61205   61204   61206
   61208   61207   61209   61211   61210   61212   61214   61213   61215
   61217   61216   61218   61220   61219   61221   61223   61222   61224
   61226   61225   61227   61229   61228   61230   61232   61231   61233
   61235   61234   61236   61238   61237   61239   61241   61240   61242
   61244   61243   61245   61247   61246   61248   61250   61249   61251
   61253   61252   61254   61256   61255   61257   61259   61258   61260
   61262   61261   61263   61265   61264   61266   61268   61267   61269
   61271   61270   61272   61274   61273   61275   61277   61276   61278
   61280   61279   61281   61283   61282   61284   61286   61285   61287
   61289   61288   61290   61292   61291   61293   61295   61294   61296
   61298   61297   61299   61301   61300   61302   61304   61303   61305
   61307   61306   61308   61310   61309   61311   61313   61312   61314
   61316   61315   61317   61319   61318   61320   61322   61321   61323
   61325   61324   61326   61328   61327   61329   61331   61330   61332
   61334   61333   61335   61337   61336   61338   61340   61339   61341
   61343   61342   61344   61346   61345   61347   61349   61348   61350
   61352   61351   61353   61355   61354   61356   61358   61357   61359
   61361   61360   61362   61364   61363   61365   61367   61366   61368
   61370   61369   61371   61373   61372   61374   61376   61375   61377
   61379   61378   61380   61382   61381   61383   61385   61384   61386
   61388   61387   61389   61391   61390   61392   61394   61393   61395
   61397   61396   61398   61400   61399   61401   61403   61402   61404
   61406   61405   61407   61409   61408   61410   61412   61411   61413
   61415   61414   61416   61418   61417   61419   61421   61420   61422
   61424   61423   61425   61427   61426   61428   61430   61429   61431
   61433   61432   61434   61436   61435   61437   61439   61438   61440
   61442   61441   61443   61445   61444   61446   61448   61447   61449
   61451   61450   61452   61454   61453   61455   61457   61456   61458
   61460   61459   61461   61463   61462   61464   61466   61465   61467
   61469   61468   61470   61472   61471   61473   61475   61474   61476
   61478   61477   61479   61481   61480   61482   61484   61483   61485
   61487   61486   61488   61490   61489   61491   61493   61492   61494
   61496   61495   61497   61499   61498   61500   61502   61501   61503
   61505   61504   61506   61508   61507   61509   61511   61510   61512
   61514   61513   61515   61517   61516   61518   61520   61519   61521
   61523   61522   61524   61526   61525   61527   61529   61528   61530
   61532   61531   61533   61535   61534   61536   61538   61537   61539
   61541   61540   61542   61544   61543   61545   61547   61546   61548
   61550   61549   61551   61553   61552   61554   61556   61555   61557
   61559   61558   61560   61562   61561   61563   61565   61564   61566
   61568   61567   61569   61571   61570   61572   61574   61573   61575
   61577   61576   61578   61580   61579   61581   61583   61582   61584
   61586   61585   61587   61589   61588   61590   61592   61591   61593
   61595   61594   61596   61598   61597   61599   61601   61600   61602
   61604   61603   61605   61607   61606   61608   61610   61609   61611
   61613   61612   61614   61616   61615   61617   61619   61618   61620
   61622   61621   61623   61625   61624   61626   61628   61627   61629
   61631   61630   61632   61634   61633   61635   61637   61636   61638
   61640   61639   61641   61643   61642   61644   61646   61645   61647
   61649   61648   61650   61652   61651   61653   61655   61654   61656
   61658   61657   61659   61661   61660   61662   61664   61663   61665
   61667   61666   61668   61670   61669   61671   61673   61672   61674
   61676   61675   61677   61679   61678   61680   61682   61681   61683
   61685   61684   61686   61688   61687   61689   61691   61690   61692
   61694   61693   61695   61697   61696   61698   61700   61699   61701
   61703   61702   61704   61706   61705   61707   61709   61708   61710
   61712   61711   61713   61715   61714   61716   61718   61717   61719
   61721   61720   61722   61724   61723   61725   61727   61726   61728
   61730   61729   61731   61733   61732   61734   61736   61735   61737
   61739   61738   61740   61742   61741   61743   61745   61744   61746
   61748   61747   61749   61751   61750   61752   61754   61753   61755
   61757   61756   61758   61760   61759   61761   61763   61762   61764
   61766   61765   61767   61769   61768   61770   61772   61771   61773
   61775   61774   61776   61778   61777   61779   61781   61780   61782
   61784   61783   61785   61787   61786   61788   61790   61789   61791
   61793   61792   61794   61796   61795   61797   61799   61798   61800
   61802   61801   61803   61805   61804   61806   61808   61807   61809
   61811   61810   61812   61814   61813   61815   61817   61816   61818
   61820   61819   61821   61823   61822   61824   61826   61825   61827
   61829   61828   61830   61832   61831   61833   61835   61834   61836
   61838   61837   61839   61841   61840   61842   61844   61843   61845
   61847   61846   61848   61850   61849   61851   61853   61852   61854
   61856   61855   61857   61859   61858   61860   61862   61861   61863
   61865   61864   61866   61868   61867   61869   61871   61870   61872
   61874   61873   61875   61877   61876   61878   61880   61879   61881
   61883   61882   61884   61886   61885   61887   61889   61888   61890
   61892   61891   61893   61895   61894   61896   61898   61897   61899
   61901   61900   61902   61904   61903   61905   61907   61906   61908
   61910   61909   61911   61913   61912   61914   61916   61915   61917
   61919   61918   61920   61922   61921   61923   61925   61924   61926
   61928   61927   61929   61931   61930   61932   61934   61933   61935
   61937   61936   61938   61940   61939   61941   61943   61942   61944
   61946   61945   61947   61949   61948   61950   61952   61951   61953
   61955   61954   61956   61958   61957   61959   61961   61960   61962
   61964   61963   61965   61967   61966   61968   61970   61969   61971
   61973   61972   61974   61976   61975   61977   61979   61978   61980
   61982   61981   61983   61985   61984   61986   61988   61987   61989
   61991   61990   61992   61994   61993   61995   61997   61996   61998
   62000   61999   62001   62003   62002   62004   62006   62005   62007
   62009   62008   62010   62012   62011   62013   62015   62014   62016
   62018   62017   62019   62021   62020   62022   62024   62023   62025
   62027   62026   62028   62030   62029   62031   62033   62032   62034
   62036   62035   62037   62039   62038   62040   62042   62041   62043
   62045   62044   62046   62048   62047   62049   62051   62050   62052
   62054   62053   62055   62057   62056   62058   62060   62059   62061
   62063   62062   62064   62066   62065   62067   62069   62068   62070
   62072   62071   62073   62075   62074   62076   62078   62077   62079
   62081   62080   62082   62084   62083   62085   62087   62086   62088
   62090   62089   62091   62093   62092   62094   62096   62095   62097
   62099   62098   62100   62102   62101   62103   62105   62104   62106
   62108   62107   62109   62111   62110   62112   62114   62113   62115
   62117   62116   62118   62120   62119   62121   62123   62122   62124
   62126   62125   62127   62129   62128   62130   62132   62131   62133
   62135   62134   62136   62138   62137   62139   62141   62140   62142
   62144   62143   62145   62147   62146   62148   62150   62149   62151
   62153   62152   62154   62156   62155   62157   62159   62158   62160
   62162   62161   62163   62165   62164   62166   62168   62167   62169
   62171   62170   62172   62174   62173   62175   62177   62176   62178
   62180   62179   62181   62183   62182   62184   62186   62185   62187
   62189   62188   62190   62192   62191   62193   62195   62194   62196
   62198   62197   62199   62201   62200   62202   62204   62203   62205
   62207   62206   62208   62210   62209   62211   62213   62212   62214
   62216   62215   62217   62219   62218   62220   62222   62221   62223
   62225   62224   62226   62228   62227   62229   62231   62230   62232
   62234   62233   62235   62237   62236   62238   62240   62239   62241
   62243   62242   62244   62246   62245   62247   62249   62248   62250
   62252   62251   62253   62255   62254   62256   62258   62257   62259
   62261   62260   62262   62264   62263   62265   62267   62266   62268
   62270   62269   62271   62273   62272   62274   62276   62275   62277
   62279   62278   62280   62282   62281   62283   62285   62284   62286
   62288   62287   62289   62291   62290   62292   62294   62293   62295
   62297   62296   62298   62300   62299   62301   62303   62302   62304
   62306   62305   62307   62309   62308   62310   62312   62311   62313
   62315   62314   62316   62318   62317   62319   62321   62320   62322
   62324   62323   62325   62327   62326   62328   62330   62329   62331
   62333   62332   62334   62336   62335   62337   62339   62338   62340
   62342   62341   62343   62345   62344   62346   62348   62347   62349
   62351   62350   62352   62354   62353   62355   62357   62356   62358
   62360   62359   62361   62363   62362   62364   62366   62365   62367
   62369   62368   62370   62372   62371   62373   62375   62374   62376
   62378   62377   62379   62381   62380   62382   62384   62383   62385
   62387   62386   62388   62390   62389   62391   62393   62392   62394
   62396   62395   62397   62399   62398   62400   62402   62401   62403
   62405   62404   62406   62408   62407   62409   62411   62410   62412
   62414   62413   62415   62417   62416   62418   62420   62419   62421
   62423   62422   62424   62426   62425   62427   62429   62428   62430
   62432   62431   62433   62435   62434   62436   62438   62437   62439
   62441   62440   62442   62444   62443   62445   62447   62446   62448
   62450   62449   62451   62453   62452   62454   62456   62455   62457
   62459   62458   62460   62462   62461   62463   62465   62464   62466
   62468   62467   62469   62471   62470   62472   62474   62473   62475
   62477   62476   62478   62480   62479   62481   62483   62482   62484
   62486   62485   62487   62489   62488   62490   62492   62491   62493
   62495   62494   62496   62498   62497   62499   62501   62500   62502
   62504   62503   62505   62507   62506   62508   62510   62509   62511
   62513   62512   62514   62516   62515   62517   62519   62518   62520
   62522   62521   62523   62525   62524   62526   62528   62527   62529
   62531   62530   62532   62534   62533   62535   62537   62536   62538
   62540   62539   62541   62543   62542   62544   62546   62545   62547
   62549   62548   62550   62552   62551   62553   62555   62554   62556
   62558   62557   62559   62561   62560   62562   62564   62563   62565
   62567   62566   62568   62570   62569   62571   62573   62572   62574
   62576   62575   62577   62579   62578   62580   62582   62581   62583
   62585   62584   62586   62588   62587   62589   62591   62590   62592
   62594   62593   62595   62597   62596   62598   62600   62599   62601
   62603   62602   62604   62606   62605   62607   62609   62608   62610
   62612   62611   62613   62615   62614   62616   62618   62617   62619
   62621   62620   62622   62624   62623   62625   62627   62626   62628
   62630   62629   62631   62633   62632   62634   62636   62635   62637
   62639   62638   62640   62642   62641   62643   62645   62644   62646
   62648   62647   62649   62651   62650   62652   62654   62653   62655
   62657   62656   62658   62660   62659   62661   62663   62662   62664
   62666   62665   62667   62669   62668   62670   62672   62671   62673
   62675   62674   62676   62678   62677   62679   62681   62680   62682
   62684   62683   62685   62687   62686   62688   62690   62689   62691
   62693   62692   62694   62696   62695   62697   62699   62698   62700
   62702   62701   62703   62705   62704   62706   62708   62707   62709
   62711   62710   62712   62714   62713   62715   62717   62716   62718
   62720   62719   62721   62723   62722   62724   62726   62725   62727
   62729   62728   62730   62732   62731   62733   62735   62734   62736
   62738   62737   62739   62741   62740   62742   62744   62743   62745
   62747   62746   62748   62750   62749   62751   62753   62752   62754
   62756   62755   62757   62759   62758   62760   62762   62761   62763
   62765   62764   62766   62768   62767   62769   62771   62770   62772
   62774   62773   62775   62777   62776   62778   62780   62779   62781
   62783   62782   62784   62786   62785   62787   62789   62788   62790
   62792   62791   62793   62795   62794   62796   62798   62797   62799
   62801   62800   62802   62804   62803   62805   62807   62806   62808
   62810   62809   62811   62813   62812   62814   62816   62815   62817
   62819   62818   62820   62822   62821   62823   62825   62824   62826
   62828   62827   62829   62831   62830   62832   62834   62833   62835
   62837   62836   62838   62840   62839   62841   62843   62842   62844
   62846   62845   62847   62849   62848   62850   62852   62851   62853
   62855   62854   62856   62858   62857   62859   62861   62860   62862
   62864   62863   62865   62867   62866   62868   62870   62869   62871
   62873   62872   62874   62876   62875   62877   62879   62878   62880
   62882   62881   62883   62885   62884   62886   62888   62887   62889
   62891   62890   62892   62894   62893   62895   62897   62896   62898
   62900   62899   62901   62903   62902   62904   62906   62905   62907
   62909   62908   62910   62912   62911   62913   62915   62914   62916
   62918   62917   62919   62921   62920   62922   62924   62923   62925
   62927   62926   62928   62930   62929   62931   62933   62932   62934
   62936   62935   62937   62939   62938   62940   62942   62941   62943
   62945   62944   62946   62948   62947   62949   62951   62950   62952
   62954   62953   62955   62957   62956   62958   62960   62959   62961
   62963   62962   62964   62966   62965   62967   62969   62968   62970
   62972   62971   62973   62975   62974   62976   62978   62977   62979
   62981   62980   62982   62984   62983   62985   62987   62986   62988
   62990   62989   62991   62993   62992   62994   62996   62995   62997
   62999   62998   63000   63002   63001   63003   63005   63004   63006
   63008   63007   63009   63011   63010   63012   63014   63013   63015
   63017   63016   63018   63020   63019   63021   63023   63022   63024
   63026   63025   63027   63029   63028   63030   63032   63031   63033
   63035   63034   63036   63038   63037   63039   63041   63040   63042
   63044   63043   63045   63047   63046   63048   63050   63049   63051
   63053   63052   63054   63056   63055   63057   63059   63058   63060
   63062   63061   63063   63065   63064   63066   63068   63067   63069
   63071   63070   63072   63074   63073   63075   63077   63076   63078
   63080   63079   63081   63083   63082   63084   63086   63085   63087
   63089   63088   63090   63092   63091   63093   63095   63094   63096
   63098   63097   63099   63101   63100   63102   63104   63103   63105
   63107   63106   63108   63110   63109   63111   63113   63112   63114
   63116   63115   63117   63119   63118   63120   63122   63121   63123
   63125   63124   63126   63128   63127   63129   63131   63130   63132
   63134   63133   63135   63137   63136   63138   63140   63139   63141
   63143   63142   63144   63146   63145   63147   63149   63148   63150
   63152   63151   63153   63155   63154   63156   63158   63157   63159
   63161   63160   63162   63164   63163   63165   63167   63166   63168
   63170   63169   63171   63173   63172   63174   63176   63175   63177
   63179   63178   63180   63182   63181   63183   63185   63184   63186
   63188   63187   63189   63191   63190   63192   63194   63193   63195
   63197   63196   63198   63200   63199   63201   63203   63202   63204
   63206   63205   63207   63209   63208   63210   63212   63211   63213
   63215   63214   63216   63218   63217   63219   63221   63220   63222
   63224   63223   63225   63227   63226   63228   63230   63229   63231
   63233   63232   63234   63236   63235   63237   63239   63238   63240
   63242   63241   63243   63245   63244   63246   63248   63247   63249
   63251   63250   63252   63254   63253   63255   63257   63256   63258
   63260   63259   63261   63263   63262   63264   63266   63265   63267
   63269   63268   63270   63272   63271   63273   63275   63274   63276
   63278   63277   63279   63281   63280   63282   63284   63283   63285
   63287   63286   63288   63290   63289   63291   63293   63292   63294
   63296   63295   63297   63299   63298   63300   63302   63301   63303
   63305   63304   63306   63308   63307   63309   63311   63310   63312
   63314   63313   63315   63317   63316   63318   63320   63319   63321
   63323   63322   63324   63326   63325   63327   63329   63328   63330
   63332   63331   63333   63335   63334   63336   63338   63337   63339
   63341   63340   63342   63344   63343   63345   63347   63346   63348
   63350   63349   63351   63353   63352   63354   63356   63355   63357
   63359   63358   63360   63362   63361   63363   63365   63364   63366
   63368   63367   63369   63371   63370   63372   63374   63373   63375
   63377   63376   63378   63380   63379   63381   63383   63382   63384
   63386   63385   63387   63389   63388   63390   63392   63391   63393
   63395   63394   63396   63398   63397   63399   63401   63400   63402
   63404   63403   63405   63407   63406   63408   63410   63409   63411
   63413   63412   63414   63416   63415   63417   63419   63418   63420
   63422   63421   63423   63425   63424   63426   63428   63427   63429
   63431   63430   63432   63434   63433   63435   63437   63436   63438
   63440   63439   63441   63443   63442   63444   63446   63445   63447
   63449   63448   63450   63452   63451   63453   63455   63454   63456
   63458   63457   63459   63461   63460   63462   63464   63463   63465
   63467   63466   63468   63470   63469   63471   63473   63472   63474
   63476   63475   63477   63479   63478   63480   63482   63481   63483
   63485   63484   63486   63488   63487   63489   63491   63490   63492
   63494   63493   63495   63497   63496   63498   63500   63499   63501
   63503   63502   63504   63506   63505   63507   63509   63508   63510
   63512   63511   63513   63515   63514   63516   63518   63517   63519
   63521   63520   63522   63524   63523   63525   63527   63526   63528
   63530   63529   63531   63533   63532   63534   63536   63535   63537
   63539   63538   63540   63542   63541   63543   63545   63544   63546
   63548   63547   63549   63551   63550   63552   63554   63553   63555
   63557   63556   63558   63560   63559   63561   63563   63562   63564
   63566   63565   63567   63569   63568   63570   63572   63571   63573
   63575   63574   63576   63578   63577   63579   63581   63580   63582
   63584   63583   63585   63587   63586   63588   63590   63589   63591
   63593   63592   63594   63596   63595   63597   63599   63598   63600
   63602   63601   63603   63605   63604   63606   63608   63607   63609
   63611   63610   63612   63614   63613   63615   63617   63616   63618
   63620   63619   63621   63623   63622   63624   63626   63625   63627
   63629   63628   63630   63632   63631   63633   63635   63634   63636
   63638   63637   63639   63641   63640   63642   63644   63643   63645
   63647   63646   63648   63650   63649   63651   63653   63652   63654
   63656   63655   63657   63659   63658   63660   63662   63661   63663
   63665   63664   63666   63668   63667   63669   63671   63670   63672
   63674   63673   63675   63677   63676   63678   63680   63679   63681
   63683   63682   63684   63686   63685   63687   63689   63688   63690
   63692   63691   63693   63695   63694   63696   63698   63697   63699
   63701   63700   63702   63704   63703   63705   63707   63706   63708
   63710   63709   63711   63713   63712   63714   63716   63715   63717
   63719   63718   63720   63722   63721   63723   63725   63724   63726
   63728   63727   63729   63731   63730   63732   63734   63733   63735
   63737   63736   63738   63740   63739   63741   63743   63742   63744
   63746   63745   63747   63749   63748   63750   63752   63751   63753
   63755   63754   63756   63758   63757   63759   63761   63760   63762
   63764   63763   63765   63767   63766   63768   63770   63769   63771
   63773   63772   63774   63776   63775   63777   63779   63778   63780
   63782   63781   63783   63785   63784   63786   63788   63787   63789
   63791   63790   63792   63794   63793   63795   63797   63796   63798
   63800   63799   63801   63803   63802   63804   63806   63805   63807
   63809   63808   63810   63812   63811   63813   63815   63814   63816
   63818   63817   63819   63821   63820   63822   63824   63823   63825
   63827   63826   63828   63830   63829   63831   63833   63832   63834
   63836   63835   63837   63839   63838   63840   63842   63841   63843
   63845   63844   63846   63848   63847   63849   63851   63850   63852
   63854   63853   63855   63857   63856   63858   63860   63859   63861
   63863   63862   63864   63866   63865   63867   63869   63868   63870
   63872   63871   63873   63875   63874   63876   63878   63877   63879
   63881   63880   63882   63884   63883   63885   63887   63886   63888
   63890   63889   63891   63893   63892   63894   63896   63895   63897
   63899   63898   63900   63902   63901   63903   63905   63904   63906
   63908   63907   63909   63911   63910   63912   63914   63913   63915
   63917   63916   63918   63920   63919   63921   63923   63922   63924
   63926   63925   63927   63929   63928   63930   63932   63931   63933
   63935   63934   63936   63938   63937   63939   63941   63940   63942
   63944   63943   63945   63947   63946   63948   63950   63949   63951
   63953   63952   63954   63956   63955   63957   63959   63958   63960
   63962   63961   63963   63965   63964   63966   63968   63967   63969
   63971   63970   63972   63974   63973   63975   63977   63976   63978
   63980   63979   63981   63983   63982   63984   63986   63985   63987
   63989   63988   63990   63992   63991   63993   63995   63994   63996
   63998   63997   63999   64001   64000   64002   64004   64003   64005
   64007   64006   64008   64010   64009   64011   64013   64012   64014
   64016   64015   64017   64019   64018   64020   64022   64021   64023
   64025   64024   64026   64028   64027   64029   64031   64030   64032
   64034   64033   64035   64037   64036   64038   64040   64039   64041
   64043   64042   64044   64046   64045   64047   64049   64048   64050
   64052   64051   64053   64055   64054   64056   64058   64057   64059
   64061   64060   64062   64064   64063   64065   64067   64066   64068
   64070   64069   64071   64073   64072   64074   64076   64075   64077
   64079   64078   64080   64082   64081   64083   64085   64084   64086
   64088   64087   64089   64091   64090   64092   64094   64093   64095
   64097   64096   64098   64100   64099   64101   64103   64102   64104
   64106   64105   64107   64109   64108   64110   64112   64111   64113
   64115   64114   64116   64118   64117   64119   64121   64120   64122
   64124   64123   64125   64127   64126   64128   64130   64129   64131
   64133   64132   64134   64136   64135   64137   64139   64138   64140
   64142   64141   64143   64145   64144   64146   64148   64147   64149
   64151   64150   64152   64154   64153   64155   64157   64156   64158
   64160   64159   64161   64163   64162   64164   64166   64165   64167
   64169   64168   64170   64172   64171   64173   64175   64174   64176
   64178   64177   64179   64181   64180   64182   64184   64183   64185
   64187   64186   64188   64190   64189   64191   64193   64192   64194
   64196   64195   64197   64199   64198   64200   64202   64201   64203
   64205   64204   64206   64208   64207   64209   64211   64210   64212
   64214   64213   64215   64217   64216   64218   64220   64219   64221
   64223   64222   64224   64226   64225   64227   64229   64228   64230
   64232   64231   64233   64235   64234   64236   64238   64237   64239
   64241   64240   64242   64244   64243   64245   64247   64246   64248
   64250   64249   64251   64253   64252   64254   64256   64255   64257
   64259   64258   64260   64262   64261   64263   64265   64264   64266
   64268   64267   64269   64271   64270   64272   64274   64273   64275
   64277   64276   64278   64280   64279   64281   64283   64282   64284
   64286   64285   64287   64289   64288   64290   64292   64291   64293
   64295   64294   64296   64298   64297   64299   64301   64300   64302
   64304   64303   64305   64307   64306   64308   64310   64309   64311
   64313   64312   64314   64316   64315   64317   64319   64318   64320
   64322   64321   64323   64325   64324   64326   64328   64327   64329
   64331   64330   64332   64334   64333   64335   64337   64336   64338
   64340   64339   64341   64343   64342   64344   64346   64345   64347
   64349   64348   64350   64352   64351   64353   64355   64354   64356
   64358   64357   64359   64361   64360   64362   64364   64363   64365
   64367   64366   64368   64370   64369   64371   64373   64372   64374
   64376   64375   64377   64379   64378   64380   64382   64381   64383
   64385   64384   64386   64388   64387   64389   64391   64390   64392
   64394   64393   64395   64397   64396   64398   64400   64399   64401
   64403   64402   64404   64406   64405   64407   64409   64408   64410
   64412   64411   64413   64415   64414   64416   64418   64417   64419
   64421   64420   64422   64424   64423   64425   64427   64426   64428
   64430   64429   64431   64433   64432   64434   64436   64435   64437
   64439   64438   64440   64442   64441   64443   64445   64444   64446
   64448   64447   64449   64451   64450   64452   64454   64453   64455
   64457   64456   64458   64460   64459   64461   64463   64462   64464
   64466   64465   64467   64469   64468   64470   64472   64471   64473
   64475   64474   64476   64478   64477   64479   64481   64480   64482
   64484   64483   64485   64487   64486   64488   64490   64489   64491
   64493   64492   64494   64496   64495   64497   64499   64498   64500
   64502   64501   64503   64505   64504   64506   64508   64507   64509
   64511   64510   64512   64514   64513   64515   64517   64516   64518
   64520   64519   64521   64523   64522   64524   64526   64525   64527
   64529   64528   64530   64532   64531   64533   64535   64534   64536
   64538   64537   64539   64541   64540   64542   64544   64543   64545
   64547   64546   64548   64550   64549   64551   64553   64552   64554
   64556   64555   64557   64559   64558   64560   64562   64561   64563
   64565   64564   64566   64568   64567   64569   64571   64570   64572
   64574   64573   64575   64577   64576   64578   64580   64579   64581
   64583   64582   64584   64586   64585   64587   64589   64588   64590
   64592   64591   64593   64595   64594   64596   64598   64597   64599
   64601   64600   64602   64604   64603   64605   64607   64606   64608
   64610   64609   64611   64613   64612   64614   64616   64615   64617
   64619   64618   64620   64622   64621   64623   64625   64624   64626
   64628   64627   64629   64631   64630   64632   64634   64633   64635
   64637   64636   64638   64640   64639   64641   64643   64642   64644
   64646   64645   64647   64649   64648   64650   64652   64651   64653
   64655   64654   64656   64658   64657   64659   64661   64660   64662
   64664   64663   64665   64667   64666   64668   64670   64669   64671
   64673   64672   64674   64676   64675   64677   64679   64678   64680
   64682   64681   64683   64685   64684   64686   64688   64687   64689
   64691   64690   64692   64694   64693   64695   64697   64696   64698
   64700   64699   64701   64703   64702   64704   64706   64705   64707
   64709   64708   64710   64712   64711   64713   64715   64714   64716
   64718   64717   64719   64721   64720   64722   64724   64723   64725
   64727   64726   64728   64730   64729   64731   64733   64732   64734
   64736   64735   64737   64739   64738   64740   64742   64741   64743
   64745   64744   64746   64748   64747   64749   64751   64750   64752
   64754   64753   64755   64757   64756   64758   64760   64759   64761
   64763   64762   64764   64766   64765   64767   64769   64768   64770
   64772   64771   64773   64775   64774   64776   64778   64777   64779
   64781   64780   64782   64784   64783   64785   64787   64786   64788
   64790   64789   64791   64793   64792   64794   64796   64795   64797
   64799   64798   64800   64802   64801   64803   64805   64804   64806
   64808   64807   64809   64811   64810   64812   64814   64813   64815
   64817   64816   64818   64820   64819   64821   64823   64822   64824
   64826   64825   64827   64829   64828   64830   64832   64831   64833
   64835   64834   64836   64838   64837   64839   64841   64840   64842
   64844   64843   64845   64847   64846   64848   64850   64849   64851
   64853   64852   64854   64856   64855   64857   64859   64858   64860
   64862   64861   64863   64865   64864   64866   64868   64867   64869
   64871   64870   64872   64874   64873   64875   64877   64876   64878
   64880   64879   64881   64883   64882   64884   64886   64885   64887
   64889   64888   64890   64892   64891   64893   64895   64894   64896
   64898   64897   64899   64901   64900   64902   64904   64903   64905
   64907   64906   64908   64910   64909   64911   64913   64912   64914
   64916   64915   64917   64919   64918   64920   64922   64921   64923
   64925   64924   64926   64928   64927   64929   64931   64930   64932
   64934   64933   64935   64937   64936   64938   64940   64939   64941
   64943   64942   64944   64946   64945   64947   64949   64948   64950
   64952   64951   64953   64955   64954   64956   64958   64957   64959
   64961   64960   64962   64964   64963   64965   64967   64966   64968
   64970   64969   64971   64973   64972   64974   64976   64975   64977
   64979   64978   64980   64982   64981   64983   64985   64984   64986
   64988   64987   64989   64991   64990   64992   64994   64993   64995
   64997   64996   64998   65000   64999   65001   65003   65002   65004
   65006   65005   65007   65009   65008   65010   65012   65011   65013
   65015   65014   65016   65018   65017   65019   65021   65020   65022
   65024   65023   65025   65027   65026   65028   65030   65029   65031
   65033   65032   65034   65036   65035   65037   65039   65038   65040
   65042   65041   65043   65045   65044   65046   65048   65047   65049
   65051   65050   65052   65054   65053   65055   65057   65056   65058
   65060   65059   65061   65063   65062   65064   65066   65065   65067
   65069   65068   65070   65072   65071   65073   65075   65074   65076
   65078   65077   65079   65081   65080   65082   65084   65083   65085
   65087   65086   65088   65090   65089   65091   65093   65092   65094
   65096   65095   65097   65099   65098   65100   65102   65101   65103
   65105   65104   65106   65108   65107   65109   65111   65110   65112
   65114   65113   65115   65117   65116   65118   65120   65119   65121
   65123   65122   65124   65126   65125   65127   65129   65128   65130
   65132   65131   65133   65135   65134   65136   65138   65137   65139
   65141   65140   65142   65144   65143   65145   65147   65146   65148
   65150   65149   65151   65153   65152   65154   65156   65155   65157
   65159   65158   65160   65162   65161   65163   65165   65164   65166
   65168   65167   65169   65171   65170   65172   65174   65173   65175
   65177   65176   65178   65180   65179   65181   65183   65182   65184
   65186   65185   65187   65189   65188   65190   65192   65191   65193
   65195   65194   65196   65198   65197   65199   65201   65200   65202
   65204   65203   65205   65207   65206   65208   65210   65209   65211
   65213   65212   65214   65216   65215   65217   65219   65218   65220
   65222   65221   65223   65225   65224   65226   65228   65227   65229
   65231   65230   65232   65234   65233   65235   65237   65236   65238
   65240   65239   65241   65243   65242   65244   65246   65245   65247
   65249   65248   65250   65252   65251   65253   65255   65254   65256
   65258   65257   65259   65261   65260   65262   65264   65263   65265
   65267   65266   65268   65270   65269   65271   65273   65272   65274
   65276   65275   65277   65279   65278   65280   65282   65281   65283
   65285   65284   65286   65288   65287   65289   65291   65290   65292
   65294   65293   65295   65297   65296   65298   65300   65299   65301
   65303   65302   65304   65306   65305   65307   65309   65308   65310
   65312   65311   65313   65315   65314   65316   65318   65317   65319
   65321   65320   65322   65324   65323   65325   65327   65326   65328
   65330   65329   65331   65333   65332   65334   65336   65335   65337
   65339   65338   65340   65342   65341   65343   65345   65344   65346
   65348   65347   65349   65351   65350   65352   65354   65353   65355
   65357   65356   65358   65360   65359   65361   65363   65362   65364
   65366   65365   65367   65369   65368   65370   65372   65371   65373
   65375   65374   65376   65378   65377   65379   65381   65380   65382
   65384   65383   65385   65387   65386   65388   65390   65389   65391
   65393   65392   65394   65396   65395   65397   65399   65398   65400
   65402   65401   65403   65405   65404   65406   65408   65407   65409
   65411   65410   65412   65414   65413   65415   65417   65416   65418
   65420   65419   65421   65423   65422   65424   65426   65425   65427
   65429   65428   65430   65432   65431   65433   65435   65434   65436
   65438   65437   65439   65441   65440   65442   65444   65443   65445
   65447   65446   65448   65450   65449   65451   65453   65452   65454
   65456   65455   65457   65459   65458   65460   65462   65461   65463
   65465   65464   65466   65468   65467   65469   65471   65470   65472
   65474   65473   65475   65477   65476   65478   65480   65479   65481
   65483   65482   65484   65486   65485   65487   65489   65488   65490
   65492   65491   65493   65495   65494   65496   65498   65497   65499
   65501   65500   65502   65504   65503   65505   65507   65506   65508
   65510   65509   65511   65513   65512   65514   65516   65515   65517
   65519   65518   65520   65522   65521   65523   65525   65524   65526
   65528   65527   65529   65531   65530   65532   65534   65533   65535
   65537   65536   65538   65540   65539   65541   65543   65542   65544
   65546   65545   65547   65549   65548   65550   65552   65551   65553
   65555   65554   65556   65558   65557   65559   65561   65560   65562
   65564   65563   65565   65567   65566   65568   65570   65569   65571
   65573   65572   65574   65576   65575   65577   65579   65578   65580
   65582   65581   65583   65585   65584   65586   65588   65587   65589
   65591   65590   65592   65594   65593   65595   65597   65596   65598
   65600   65599   65601   65603   65602   65604   65606   65605   65607
   65609   65608   65610   65612   65611   65613   65615   65614   65616
   65618   65617   65619   65621   65620   65622   65624   65623   65625
   65627   65626   65628   65630   65629   65631   65633   65632   65634
   65636   65635   65637   65639   65638   65640   65642   65641   65643
   65645   65644   65646   65648   65647   65649   65651   65650   65652
   65654   65653   65655   65657   65656   65658   65660   65659   65661
   65663   65662   65664   65666   65665   65667   65669   65668   65670
   65672   65671   65673   65675   65674   65676   65678   65677   65679
   65681   65680   65682   65684   65683   65685   65687   65686   65688
   65690   65689   65691   65693   65692   65694   65696   65695   65697
   65699   65698   65700   65702   65701   65703   65705   65704   65706
   65708   65707   65709   65711   65710   65712   65714   65713   65715
   65717   65716   65718   65720   65719   65721   65723   65722   65724
   65726   65725   65727   65729   65728   65730   65732   65731   65733
   65735   65734   65736   65738   65737   65739   65741   65740   65742
   65744   65743   65745   65747   65746   65748   65750   65749   65751
   65753   65752   65754   65756   65755   65757   65759   65758   65760
   65762   65761   65763   65765   65764   65766   65768   65767   65769
   65771   65770   65772   65774   65773   65775   65777   65776   65778
   65780   65779   65781   65783   65782   65784   65786   65785   65787
   65789   65788   65790   65792   65791   65793   65795   65794   65796
   65798   65797   65799   65801   65800   65802   65804   65803   65805
   65807   65806   65808   65810   65809   65811   65813   65812   65814
   65816   65815   65817   65819   65818   65820   65822   65821   65823
   65825   65824   65826   65828   65827   65829   65831   65830   65832
   65834   65833   65835   65837   65836   65838   65840   65839   65841
   65843   65842   65844   65846   65845   65847   65849   65848   65850
   65852   65851   65853   65855   65854   65856   65858   65857   65859
   65861   65860   65862   65864   65863   65865   65867   65866   65868
   65870   65869   65871   65873   65872   65874   65876   65875   65877
   65879   65878   65880   65882   65881   65883   65885   65884   65886
   65888   65887   65889   65891   65890   65892   65894   65893   65895
   65897   65896   65898   65900   65899   65901   65903   65902   65904
   65906   65905   65907   65909   65908   65910   65912   65911   65913
   65915   65914   65916   65918   65917   65919   65921   65920   65922
   65924   65923   65925   65927   65926   65928   65930   65929   65931
   65933   65932   65934   65936   65935   65937   65939   65938   65940
   65942   65941   65943   65945   65944   65946   65948   65947   65949
   65951   65950   65952   65954   65953   65955   65957   65956   65958
   65960   65959   65961   65963   65962   65964   65966   65965   65967
   65969   65968   65970   65972   65971   65973   65975   65974   65976
   65978   65977   65979   65981   65980   65982   65984   65983   65985
   65987   65986   65988   65990   65989   65991   65993   65992   65994
   65996   65995   65997   65999   65998   66000   66002   66001   66003
   66005   66004   66006   66008   66007   66009   66011   66010   66012
   66014   66013   66015   66017   66016   66018   66020   66019   66021
   66023   66022   66024   66026   66025   66027   66029   66028   66030
   66032   66031   66033   66035   66034   66036   66038   66037   66039
   66041   66040   66042   66044   66043   66045   66047   66046   66048
   66050   66049   66051   66053   66052   66054   66056   66055   66057
   66059   66058   66060   66062   66061   66063   66065   66064   66066
   66068   66067   66069   66071   66070   66072   66074   66073   66075
   66077   66076   66078   66080   66079   66081   66083   66082   66084
   66086   66085   66087   66089   66088   66090   66092   66091   66093
   66095   66094   66096   66098   66097   66099   66101   66100   66102
   66104   66103   66105   66107   66106   66108   66110   66109   66111
   66113   66112   66114   66116   66115   66117   66119   66118   66120
   66122   66121   66123   66125   66124   66126   66128   66127   66129
   66131   66130   66132   66134   66133   66135   66137   66136   66138
   66140   66139   66141   66143   66142   66144   66146   66145   66147
   66149   66148   66150   66152   66151   66153   66155   66154   66156
   66158   66157   66159   66161   66160   66162   66164   66163   66165
   66167   66166   66168   66170   66169   66171   66173   66172   66174
   66176   66175   66177   66179   66178   66180   66182   66181   66183
   66185   66184   66186   66188   66187   66189   66191   66190   66192
   66194   66193   66195   66197   66196   66198   66200   66199   66201
   66203   66202   66204   66206   66205   66207   66209   66208   66210
   66212   66211   66213   66215   66214   66216   66218   66217   66219
   66221   66220   66222   66224   66223   66225   66227   66226   66228
   66230   66229   66231   66233   66232   66234   66236   66235   66237
   66239   66238   66240   66242   66241   66243   66245   66244   66246
   66248   66247   66249   66251   66250   66252   66254   66253   66255
   66257   66256   66258   66260   66259   66261   66263   66262   66264
   66266   66265   66267   66269   66268   66270   66272   66271   66273
   66275   66274   66276   66278   66277   66279   66281   66280   66282
   66284   66283   66285   66287   66286   66288   66290   66289   66291
   66293   66292   66294   66296   66295   66297   66299   66298   66300
   66302   66301   66303   66305   66304   66306   66308   66307   66309
   66311   66310   66312   66314   66313   66315   66317   66316   66318
   66320   66319   66321   66323   66322   66324   66326   66325   66327
   66329   66328   66330   66332   66331   66333   66335   66334   66336
   66338   66337   66339   66341   66340   66342   66344   66343   66345
   66347   66346   66348   66350   66349   66351   66353   66352   66354
   66356   66355   66357   66359   66358   66360   66362   66361   66363
   66365   66364   66366   66368   66367   66369   66371   66370   66372
   66374   66373   66375   66377   66376   66378   66380   66379   66381
   66383   66382   66384   66386   66385   66387   66389   66388   66390
   66392   66391   66393   66395   66394   66396   66398   66397   66399
   66401   66400   66402   66404   66403   66405   66407   66406   66408
   66410   66409   66411   66413   66412   66414   66416   66415   66417
   66419   66418   66420   66422   66421   66423   66425   66424   66426
   66428   66427   66429   66431   66430   66432   66434   66433   66435
   66437   66436   66438   66440   66439   66441   66443   66442   66444
   66446   66445   66447   66449   66448   66450   66452   66451   66453
   66455   66454   66456   66458   66457   66459   66461   66460   66462
   66464   66463   66465   66467   66466   66468   66470   66469   66471
   66473   66472   66474   66476   66475   66477   66479   66478   66480
   66482   66481   66483   66485   66484   66486   66488   66487   66489
   66491   66490   66492   66494   66493   66495   66497   66496   66498
   66500   66499   66501   66503   66502   66504   66506   66505   66507
   66509   66508   66510   66512   66511   66513   66515   66514   66516
   66518   66517   66519   66521   66520   66522   66524   66523   66525
   66527   66526   66528   66530   66529   66531   66533   66532   66534
   66536   66535   66537   66539   66538   66540   66542   66541   66543
   66545   66544   66546   66548   66547   66549   66551   66550   66552
   66554   66553   66555   66557   66556   66558   66560   66559   66561
   66563   66562   66564   66566   66565   66567   66569   66568   66570
   66572   66571   66573   66575   66574   66576   66578   66577   66579
   66581   66580   66582   66584   66583   66585   66587   66586   66588
   66590   66589   66591   66593   66592   66594   66596   66595   66597
   66599   66598   66600   66602   66601   66603   66605   66604   66606
   66608   66607   66609   66611   66610   66612   66614   66613   66615
   66617   66616   66618   66620   66619   66621   66623   66622   66624
   66626   66625   66627   66629   66628   66630   66632   66631   66633
   66635   66634   66636   66638   66637   66639   66641   66640   66642
   66644   66643   66645   66647   66646   66648   66650   66649   66651
   66653   66652   66654   66656   66655   66657   66659   66658   66660
   66662   66661   66663   66665   66664   66666   66668   66667   66669
   66671   66670   66672   66674   66673   66675   66677   66676   66678
   66680   66679   66681   66683   66682   66684   66686   66685   66687
   66689   66688   66690   66692   66691   66693   66695   66694   66696
   66698   66697   66699   66701   66700   66702   66704   66703   66705
   66707   66706   66708   66710   66709   66711   66713   66712   66714
   66716   66715   66717   66719   66718   66720   66722   66721   66723
   66725   66724   66726   66728   66727   66729   66731   66730   66732
   66734   66733   66735   66737   66736   66738   66740   66739   66741
   66743   66742   66744   66746   66745   66747   66749   66748   66750
   66752   66751   66753   66755   66754   66756   66758   66757   66759
   66761   66760   66762   66764   66763   66765   66767   66766   66768
   66770   66769   66771   66773   66772   66774   66776   66775   66777
   66779   66778   66780   66782   66781   66783   66785   66784   66786
   66788   66787   66789   66791   66790   66792   66794   66793   66795
   66797   66796   66798   66800   66799   66801   66803   66802   66804
   66806   66805   66807   66809   66808   66810   66812   66811   66813
   66815   66814   66816   66818   66817   66819   66821   66820   66822
   66824   66823   66825   66827   66826   66828   66830   66829   66831
   66833   66832   66834   66836   66835   66837   66839   66838   66840
   66842   66841   66843   66845   66844   66846   66848   66847   66849
   66851   66850   66852   66854   66853   66855   66857   66856   66858
   66860   66859   66861   66863   66862   66864   66866   66865   66867
   66869   66868   66870   66872   66871   66873   66875   66874   66876
   66878   66877   66879   66881   66880   66882   66884   66883   66885
   66887   66886   66888   66890   66889   66891   66893   66892   66894
   66896   66895   66897   66899   66898   66900   66902   66901   66903
   66905   66904   66906   66908   66907   66909   66911   66910   66912
   66914   66913   66915   66917   66916   66918   66920   66919   66921
   66923   66922   66924   66926   66925   66927   66929   66928   66930
   66932   66931   66933   66935   66934   66936   66938   66937   66939
   66941   66940   66942   66944   66943   66945   66947   66946   66948
   66950   66949   66951   66953   66952   66954   66956   66955   66957
   66959   66958   66960   66962   66961   66963   66965   66964   66966
   66968   66967   66969   66971   66970   66972   66974   66973   66975
   66977   66976   66978   66980   66979   66981   66983   66982   66984
   66986   66985   66987   66989   66988   66990   66992   66991   66993
   66995   66994   66996   66998   66997   66999   67001   67000   67002
   67004   67003   67005   67007   67006   67008   67010   67009   67011
   67013   67012   67014   67016   67015   67017   67019   67018   67020
   67022   67021   67023   67025   67024   67026   67028   67027   67029
   67031   67030   67032   67034   67033   67035   67037   67036   67038
   67040   67039   67041   67043   67042   67044   67046   67045   67047
   67049   67048   67050   67052   67051   67053   67055   67054   67056
   67058   67057   67059   67061   67060   67062   67064   67063   67065
   67067   67066   67068   67070   67069   67071   67073   67072   67074
   67076   67075   67077   67079   67078   67080   67082   67081   67083
   67085   67084   67086   67088   67087   67089   67091   67090   67092
   67094   67093   67095   67097   67096   67098   67100   67099   67101
   67103   67102   67104   67106   67105   67107   67109   67108   67110
   67112   67111   67113   67115   67114   67116   67118   67117   67119
   67121   67120   67122   67124   67123   67125   67127   67126   67128
   67130   67129   67131   67133   67132   67134   67136   67135   67137
   67139   67138   67140   67142   67141   67143   67145   67144   67146
   67148   67147   67149   67151   67150   67152   67154   67153   67155
   67157   67156   67158   67160   67159   67161   67163   67162   67164
   67166   67165   67167   67169   67168   67170   67172   67171   67173
   67175   67174   67176   67178   67177   67179   67181   67180   67182
   67184   67183   67185   67187   67186   67188   67190   67189   67191
   67193   67192   67194   67196   67195   67197   67199   67198   67200
   67202   67201   67203   67205   67204   67206   67208   67207   67209
   67211   67210   67212   67214   67213   67215   67217   67216   67218
   67220   67219   67221   67223   67222   67224   67226   67225   67227
   67229   67228   67230   67232   67231   67233   67235   67234   67236
   67238   67237   67239   67241   67240   67242   67244   67243   67245
   67247   67246   67248   67250   67249   67251   67253   67252   67254
   67256   67255   67257   67259   67258   67260   67262   67261   67263
   67265   67264   67266   67268   67267   67269   67271   67270   67272
   67274   67273   67275   67277   67276   67278   67280   67279   67281
   67283   67282   67284   67286   67285   67287   67289   67288   67290
   67292   67291   67293   67295   67294   67296   67298   67297   67299
   67301   67300   67302   67304   67303   67305   67307   67306   67308
   67310   67309   67311   67313   67312   67314   67316   67315   67317
   67319   67318   67320   67322   67321   67323   67325   67324   67326
   67328   67327   67329   67331   67330   67332   67334   67333   67335
   67337   67336   67338   67340   67339   67341   67343   67342   67344
   67346   67345   67347   67349   67348   67350   67352   67351   67353
   67355   67354   67356   67358   67357   67359   67361   67360   67362
   67364   67363   67365   67367   67366   67368   67370   67369   67371
   67373   67372   67374   67376   67375   67377   67379   67378   67380
   67382   67381   67383   67385   67384   67386   67388   67387   67389
   67391   67390   67392   67394   67393   67395   67397   67396   67398
   67400   67399   67401   67403   67402   67404   67406   67405   67407
   67409   67408   67410   67412   67411   67413   67415   67414   67416
   67418   67417   67419   67421   67420   67422   67424   67423   67425
   67427   67426   67428   67430   67429   67431   67433   67432   67434
   67436   67435   67437   67439   67438   67440   67442   67441   67443
   67445   67444   67446   67448   67447   67449   67451   67450   67452
   67454   67453   67455   67457   67456   67458   67460   67459   67461
   67463   67462   67464   67466   67465   67467   67469   67468   67470
   67472   67471   67473   67475   67474   67476   67478   67477   67479
   67481   67480   67482   67484   67483   67485   67487   67486   67488
   67490   67489   67491   67493   67492   67494   67496   67495   67497
   67499   67498   67500   67502   67501   67503   67505   67504   67506
   67508   67507   67509   67511   67510   67512   67514   67513   67515
   67517   67516   67518   67520   67519   67521   67523   67522   67524
   67526   67525   67527   67529   67528   67530   67532   67531   67533
   67535   67534   67536   67538   67537   67539   67541   67540   67542
   67544   67543   67545   67547   67546   67548   67550   67549   67551
   67553   67552   67554   67556   67555   67557   67559   67558   67560
   67562   67561   67563   67565   67564   67566   67568   67567   67569
   67571   67570   67572   67574   67573   67575   67577   67576   67578
   67580   67579   67581   67583   67582   67584   67586   67585   67587
   67589   67588   67590   67592   67591   67593   67595   67594   67596
   67598   67597   67599   67601   67600   67602   67604   67603   67605
   67607   67606   67608   67610   67609   67611   67613   67612   67614
   67616   67615   67617   67619   67618   67620   67622   67621   67623
   67625   67624   67626   67628   67627   67629   67631   67630   67632
   67634   67633   67635   67637   67636   67638   67640   67639   67641
   67643   67642   67644   67646   67645   67647   67649   67648   67650
   67652   67651   67653   67655   67654   67656   67658   67657   67659
   67661   67660   67662   67664   67663   67665   67667   67666   67668
   67670   67669   67671   67673   67672   67674   67676   67675   67677
   67679   67678   67680   67682   67681   67683   67685   67684   67686
   67688   67687   67689   67691   67690   67692   67694   67693   67695
   67697   67696   67698   67700   67699   67701   67703   67702   67704
   67706   67705   67707   67709   67708   67710   67712   67711   67713
   67715   67714   67716   67718   67717   67719   67721   67720   67722
   67724   67723   67725   67727   67726   67728   67730   67729   67731
   67733   67732   67734   67736   67735   67737   67739   67738   67740
   67742   67741   67743   67745   67744   67746   67748   67747   67749
   67751   67750   67752   67754   67753   67755   67757   67756   67758
   67760   67759   67761   67763   67762   67764   67766   67765   67767
   67769   67768   67770   67772   67771   67773   67775   67774   67776
   67778   67777   67779   67781   67780   67782   67784   67783   67785
   67787   67786   67788   67790   67789   67791   67793   67792   67794
   67796   67795   67797   67799   67798   67800   67802   67801   67803
   67805   67804   67806   67808   67807   67809   67811   67810   67812
   67814   67813   67815   67817   67816   67818   67820   67819   67821
   67823   67822   67824   67826   67825   67827   67829   67828   67830
   67832   67831   67833   67835   67834   67836   67838   67837   67839
   67841   67840   67842   67844   67843   67845   67847   67846   67848
   67850   67849   67851   67853   67852   67854   67856   67855   67857
   67859   67858   67860   67862   67861   67863   67865   67864   67866
   67868   67867   67869   67871   67870   67872   67874   67873   67875
   67877   67876   67878   67880   67879   67881   67883   67882   67884
   67886   67885   67887   67889   67888   67890   67892   67891   67893
   67895   67894   67896   67898   67897   67899   67901   67900   67902
   67904   67903   67905   67907   67906   67908   67910   67909   67911
   67913   67912   67914   67916   67915   67917   67919   67918   67920
   67922   67921   67923   67925   67924   67926   67928   67927   67929
   67931   67930   67932   67934   67933   67935   67937   67936   67938
   67940   67939   67941   67943   67942   67944   67946   67945   67947
   67949   67948   67950   67952   67951   67953   67955   67954   67956
   67958   67957   67959   67961   67960   67962   67964   67963   67965
   67967   67966   67968   67970   67969   67971   67973   67972   67974
   67976   67975   67977   67979   67978   67980   67982   67981   67983
   67985   67984   67986   67988   67987   67989   67991   67990   67992
   67994   67993   67995   67997   67996   67998   68000   67999   68001
   68003   68002   68004   68006   68005   68007   68009   68008   68010
   68012   68011   68013   68015   68014   68016   68018   68017   68019
   68021   68020   68022   68024   68023   68025   68027   68026   68028
   68030   68029   68031   68033   68032   68034   68036   68035   68037
   68039   68038   68040   68042   68041   68043   68045   68044   68046
   68048   68047   68049   68051   68050   68052   68054   68053   68055
   68057   68056   68058   68060   68059   68061   68063   68062   68064
   68066   68065   68067   68069   68068   68070   68072   68071   68073
   68075   68074   68076   68078   68077   68079   68081   68080   68082
   68084   68083   68085   68087   68086   68088   68090   68089   68091
   68093   68092   68094   68096   68095   68097   68099   68098   68100
   68102   68101   68103   68105   68104   68106   68108   68107   68109
   68111   68110   68112   68114   68113   68115   68117   68116   68118
   68120   68119   68121   68123   68122   68124   68126   68125   68127
   68129   68128   68130   68132   68131   68133   68135   68134   68136
   68138   68137   68139   68141   68140   68142   68144   68143   68145
   68147   68146   68148   68150   68149   68151   68153   68152   68154
   68156   68155   68157   68159   68158   68160   68162   68161   68163
   68165   68164   68166   68168   68167   68169   68171   68170   68172
   68174   68173   68175   68177   68176   68178   68180   68179   68181
   68183   68182   68184   68186   68185   68187   68189   68188   68190
   68192   68191   68193   68195   68194   68196   68198   68197   68199
   68201   68200   68202   68204   68203   68205   68207   68206   68208
   68210   68209   68211   68213   68212   68214   68216   68215   68217
   68219   68218   68220   68222   68221   68223   68225   68224   68226
   68228   68227   68229   68231   68230   68232   68234   68233   68235
   68237   68236   68238   68240   68239   68241   68243   68242   68244
   68246   68245   68247   68249   68248   68250   68252   68251   68253
   68255   68254   68256   68258   68257   68259   68261   68260   68262
   68264   68263   68265   68267   68266   68268   68270   68269   68271
   68273   68272   68274   68276   68275   68277   68279   68278   68280
   68282   68281   68283   68285   68284   68286   68288   68287   68289
   68291   68290   68292   68294   68293   68295   68297   68296   68298
   68300   68299   68301   68303   68302   68304   68306   68305   68307
   68309   68308   68310   68312   68311   68313   68315   68314   68316
   68318   68317   68319   68321   68320   68322   68324   68323   68325
   68327   68326   68328   68330   68329   68331   68333   68332   68334
   68336   68335   68337   68339   68338   68340   68342   68341   68343
   68345   68344   68346   68348   68347   68349   68351   68350   68352
   68354   68353   68355   68357   68356   68358   68360   68359   68361
   68363   68362   68364   68366   68365   68367   68369   68368   68370
   68372   68371   68373   68375   68374   68376   68378   68377   68379
   68381   68380   68382   68384   68383   68385   68387   68386   68388
   68390   68389   68391   68393   68392   68394   68396   68395   68397
   68399   68398   68400   68402   68401   68403   68405   68404   68406
   68408   68407   68409   68411   68410   68412   68414   68413   68415
   68417   68416   68418   68420   68419   68421   68423   68422   68424
   68426   68425   68427   68429   68428   68430   68432   68431   68433
   68435   68434   68436   68438   68437   68439   68441   68440   68442
   68444   68443   68445   68447   68446   68448   68450   68449   68451
   68453   68452   68454   68456   68455   68457   68459   68458   68460
   68462   68461   68463   68465   68464   68466   68468   68467   68469
   68471   68470   68472   68474   68473   68475   68477   68476   68478
   68480   68479   68481   68483   68482   68484   68486   68485   68487
   68489   68488   68490   68492   68491   68493   68495   68494   68496
   68498   68497   68499   68501   68500   68502   68504   68503   68505
   68507   68506   68508   68510   68509   68511   68513   68512   68514
   68516   68515   68517   68519   68518   68520   68522   68521   68523
   68525   68524   68526   68528   68527   68529   68531   68530   68532
   68534   68533   68535   68537   68536   68538   68540   68539   68541
   68543   68542   68544   68546   68545   68547   68549   68548   68550
   68552   68551   68553   68555   68554   68556   68558   68557   68559
   68561   68560   68562   68564   68563   68565   68567   68566   68568
   68570   68569   68571   68573   68572   68574   68576   68575   68577
   68579   68578   68580   68582   68581   68583   68585   68584   68586
   68588   68587   68589   68591   68590   68592   68594   68593   68595
   68597   68596   68598   68600   68599   68601   68603   68602   68604
   68606   68605   68607   68609   68608   68610   68612   68611   68613
   68615   68614   68616   68618   68617   68619   68621   68620   68622
   68624   68623   68625   68627   68626   68628   68630   68629   68631
   68633   68632   68634   68636   68635   68637   68639   68638   68640
   68642   68641   68643   68645   68644   68646   68648   68647   68649
   68651   68650   68652   68654   68653   68655   68657   68656   68658
   68660   68659   68661   68663   68662   68664   68666   68665   68667
   68669   68668   68670   68672   68671   68673   68675   68674   68676
   68678   68677   68679   68681   68680   68682   68684   68683   68685
   68687   68686   68688   68690   68689   68691   68693   68692   68694
   68696   68695   68697   68699   68698   68700   68702   68701   68703
   68705   68704   68706   68708   68707   68709   68711   68710   68712
   68714   68713   68715   68717   68716   68718   68720   68719   68721
   68723   68722   68724   68726   68725   68727   68729   68728   68730
   68732   68731   68733   68735   68734   68736   68738   68737   68739
   68741   68740   68742   68744   68743   68745   68747   68746   68748
   68750   68749   68751   68753   68752   68754   68756   68755   68757
   68759   68758   68760   68762   68761   68763   68765   68764   68766
   68768   68767   68769   68771   68770   68772   68774   68773   68775
   68777   68776   68778   68780   68779   68781   68783   68782   68784
   68786   68785   68787   68789   68788   68790   68792   68791   68793
   68795   68794   68796   68798   68797   68799   68801   68800   68802
   68804   68803   68805   68807   68806   68808   68810   68809   68811
   68813   68812   68814   68816   68815   68817   68819   68818   68820
   68822   68821   68823   68825   68824   68826   68828   68827   68829
   68831   68830   68832   68834   68833   68835   68837   68836   68838
   68840   68839   68841   68843   68842   68844   68846   68845   68847
   68849   68848   68850   68852   68851   68853   68855   68854   68856
   68858   68857   68859   68861   68860   68862   68864   68863   68865
   68867   68866   68868   68870   68869   68871   68873   68872   68874
   68876   68875   68877   68879   68878   68880   68882   68881   68883
   68885   68884   68886   68888   68887   68889   68891   68890   68892
   68894   68893   68895   68897   68896   68898   68900   68899   68901
   68903   68902   68904   68906   68905   68907   68909   68908   68910
   68912   68911   68913   68915   68914   68916   68918   68917   68919
   68921   68920   68922   68924   68923   68925   68927   68926   68928
   68930   68929   68931   68933   68932   68934   68936   68935   68937
   68939   68938   68940   68942   68941   68943   68945   68944   68946
   68948   68947   68949   68951   68950   68952   68954   68953   68955
   68957   68956   68958   68960   68959   68961   68963   68962   68964
   68966   68965   68967   68969   68968   68970   68972   68971   68973
   68975   68974   68976   68978   68977   68979   68981   68980   68982
   68984   68983   68985   68987   68986   68988   68990   68989   68991
   68993   68992   68994   68996   68995   68997   68999   68998   69000
   69002   69001   69003   69005   69004   69006   69008   69007   69009
   69011   69010   69012   69014   69013   69015   69017   69016   69018
   69020   69019   69021   69023   69022   69024   69026   69025   69027
   69029   69028   69030   69032   69031   69033   69035   69034   69036
   69038   69037   69039   69041   69040   69042   69044   69043   69045
   69047   69046   69048   69050   69049   69051   69053   69052   69054
   69056   69055   69057   69059   69058   69060   69062   69061   69063
   69065   69064   69066   69068   69067   69069   69071   69070   69072
   69074   69073   69075   69077   69076   69078   69080   69079   69081
   69083   69082   69084   69086   69085   69087   69089   69088   69090
   69092   69091   69093   69095   69094   69096   69098   69097   69099
   69101   69100   69102   69104   69103   69105   69107   69106   69108
   69110   69109   69111   69113   69112   69114   69116   69115   69117
   69119   69118   69120   69122   69121   69123   69125   69124   69126
   69128   69127   69129   69131   69130   69132   69134   69133   69135
   69137   69136   69138   69140   69139   69141   69143   69142   69144
   69146   69145   69147   69149   69148   69150   69152   69151   69153
   69155   69154   69156   69158   69157   69159   69161   69160   69162
   69164   69163   69165   69167   69166   69168   69170   69169   69171
   69173   69172   69174   69176   69175   69177   69179   69178   69180
   69182   69181   69183   69185   69184   69186   69188   69187   69189
   69191   69190   69192   69194   69193   69195   69197   69196   69198
   69200   69199   69201   69203   69202   69204   69206   69205   69207
   69209   69208   69210   69212   69211   69213   69215   69214   69216
   69218   69217   69219   69221   69220   69222   69224   69223   69225
   69227   69226   69228   69230   69229   69231   69233   69232   69234
   69236   69235   69237   69239   69238   69240   69242   69241   69243
   69245   69244   69246   69248   69247   69249   69251   69250   69252
   69254   69253   69255   69257   69256   69258   69260   69259   69261
   69263   69262   69264   69266   69265   69267   69269   69268   69270
   69272   69271   69273   69275   69274   69276   69278   69277   69279
   69281   69280   69282   69284   69283   69285   69287   69286   69288
   69290   69289   69291   69293   69292   69294   69296   69295   69297
   69299   69298   69300   69302   69301   69303   69305   69304   69306
   69308   69307   69309   69311   69310   69312   69314   69313   69315
   69317   69316   69318   69320   69319   69321   69323   69322   69324
   69326   69325   69327   69329   69328   69330   69332   69331   69333
   69335   69334   69336   69338   69337   69339   69341   69340   69342
   69344   69343   69345   69347   69346   69348   69350   69349   69351
   69353   69352   69354   69356   69355   69357   69359   69358   69360
   69362   69361   69363   69365   69364   69366   69368   69367   69369
   69371   69370   69372   69374   69373   69375   69377   69376   69378
   69380   69379   69381   69383   69382   69384   69386   69385   69387
   69389   69388   69390   69392   69391   69393   69395   69394   69396
   69398   69397   69399   69401   69400   69402   69404   69403   69405
   69407   69406   69408   69410   69409   69411   69413   69412   69414
   69416   69415   69417   69419   69418   69420   69422   69421   69423
   69425   69424   69426   69428   69427   69429   69431   69430   69432
   69434   69433   69435   69437   69436   69438   69440   69439   69441
   69443   69442   69444   69446   69445   69447   69449   69448   69450
   69452   69451   69453   69455   69454   69456   69458   69457   69459
   69461   69460   69462   69464   69463   69465   69467   69466   69468
   69470   69469   69471   69473   69472   69474   69476   69475   69477
   69479   69478   69480   69482   69481   69483   69485   69484   69486
   69488   69487   69489   69491   69490   69492   69494   69493   69495
   69497   69496   69498   69500   69499   69501   69503   69502   69504
   69506   69505   69507   69509   69508   69510   69512   69511   69513
   69515   69514   69516   69518   69517   69519   69521   69520   69522
   69524   69523   69525   69527   69526   69528   69530   69529   69531
   69533   69532   69534   69536   69535   69537   69539   69538   69540
   69542   69541   69543   69545   69544   69546   69548   69547   69549
   69551   69550   69552   69554   69553   69555   69557   69556   69558
   69560   69559   69561   69563   69562   69564   69566   69565   69567
   69569   69568   69570   69572   69571   69573   69575   69574   69576
   69578   69577   69579   69581   69580   69582   69584   69583   69585
   69587   69586   69588   69590   69589   69591   69593   69592   69594
   69596   69595   69597   69599   69598   69600   69602   69601   69603
   69605   69604   69606   69608   69607   69609   69611   69610   69612
   69614   69613   69615   69617   69616   69618   69620   69619   69621
   69623   69622   69624   69626   69625   69627   69629   69628   69630
   69632   69631   69633   69635   69634   69636   69638   69637   69639
   69641   69640   69642   69644   69643   69645   69647   69646   69648
   69650   69649   69651   69653   69652   69654   69656   69655   69657
   69659   69658   69660   69662   69661   69663   69665   69664   69666
   69668   69667   69669   69671   69670   69672   69674   69673   69675
   69677   69676   69678   69680   69679   69681   69683   69682   69684
   69686   69685   69687   69689   69688   69690   69692   69691   69693
   69695   69694   69696   69698   69697   69699   69701   69700   69702
   69704   69703   69705   69707   69706   69708   69710   69709   69711
   69713   69712   69714   69716   69715   69717   69719   69718   69720
   69722   69721   69723   69725   69724   69726   69728   69727   69729
   69731   69730   69732   69734   69733   69735   69737   69736   69738
   69740   69739   69741   69743   69742   69744   69746   69745   69747
   69749   69748   69750   69752   69751   69753   69755   69754   69756
   69758   69757   69759   69761   69760   69762   69764   69763   69765
   69767   69766   69768   69770   69769   69771   69773   69772   69774
   69776   69775   69777   69779   69778   69780   69782   69781   69783
   69785   69784   69786   69788   69787   69789   69791   69790   69792
   69794   69793   69795   69797   69796   69798   69800   69799   69801
   69803   69802   69804   69806   69805   69807   69809   69808   69810
   69812   69811   69813   69815   69814   69816   69818   69817   69819
   69821   69820   69822   69824   69823   69825   69827   69826   69828
   69830   69829   69831   69833   69832   69834   69836   69835   69837
   69839   69838   69840   69842   69841   69843   69845   69844   69846
   69848   69847   69849   69851   69850   69852   69854   69853   69855
   69857   69856   69858   69860   69859   69861   69863   69862   69864
   69866   69865   69867   69869   69868   69870   69872   69871   69873
   69875   69874   69876   69878   69877   69879   69881   69880   69882
   69884   69883   69885   69887   69886   69888   69890   69889   69891
   69893   69892   69894   69896   69895   69897   69899   69898   69900
   69902   69901   69903   69905   69904   69906   69908   69907   69909
   69911   69910   69912   69914   69913   69915   69917   69916   69918
   69920   69919   69921   69923   69922   69924   69926   69925   69927
   69929   69928   69930   69932   69931   69933   69935   69934   69936
   69938   69937   69939   69941   69940   69942   69944   69943   69945
   69947   69946   69948   69950   69949   69951   69953   69952   69954
   69956   69955   69957   69959   69958   69960   69962   69961   69963
   69965   69964   69966   69968   69967   69969   69971   69970   69972
   69974   69973   69975   69977   69976   69978   69980   69979   69981
   69983   69982   69984   69986   69985   69987   69989   69988   69990
   69992   69991   69993   69995   69994   69996   69998   69997   69999
   70001   70000   70002   70004   70003   70005   70007   70006   70008
   70010   70009   70011   70013   70012   70014   70016   70015   70017
   70019   70018   70020   70022   70021   70023   70025   70024   70026
   70028   70027   70029   70031   70030   70032   70034   70033   70035
   70037   70036   70038   70040   70039   70041   70043   70042   70044
   70046   70045   70047   70049   70048   70050   70052   70051   70053
   70055   70054   70056   70058   70057   70059   70061   70060   70062
   70064   70063   70065   70067   70066   70068   70070   70069   70071
   70073   70072   70074   70076   70075   70077   70079   70078   70080
   70082   70081   70083   70085   70084   70086   70088   70087   70089
   70091   70090   70092   70094   70093   70095   70097   70096   70098
   70100   70099   70101   70103   70102   70104   70106   70105   70107
   70109   70108   70110   70112   70111   70113   70115   70114   70116
   70118   70117   70119   70121   70120   70122   70124   70123   70125
   70127   70126   70128   70130   70129   70131   70133   70132   70134
   70136   70135   70137   70139   70138   70140   70142   70141   70143
   70145   70144   70146   70148   70147   70149   70151   70150   70152
   70154   70153   70155   70157   70156   70158   70160   70159   70161
   70163   70162   70164   70166   70165   70167   70169   70168   70170
   70172   70171   70173   70175   70174   70176   70178   70177   70179
   70181   70180   70182   70184   70183   70185   70187   70186   70188
   70190   70189   70191   70193   70192   70194   70196   70195   70197
   70199   70198   70200   70202   70201   70203   70205   70204   70206
   70208   70207   70209   70211   70210   70212   70214   70213   70215
   70217   70216   70218   70220   70219   70221   70223   70222   70224
   70226   70225   70227   70229   70228   70230   70232   70231   70233
   70235   70234   70236   70238   70237   70239   70241   70240   70242
   70244   70243   70245   70247   70246   70248   70250   70249   70251
   70253   70252   70254   70256   70255   70257   70259   70258   70260
   70262   70261   70263   70265   70264   70266   70268   70267   70269
   70271   70270   70272   70274   70273   70275   70277   70276   70278
   70280   70279   70281   70283   70282   70284   70286   70285   70287
   70289   70288   70290   70292   70291   70293   70295   70294   70296
   70298   70297   70299   70301   70300   70302   70304   70303   70305
   70307   70306   70308   70310   70309   70311   70313   70312   70314
   70316   70315   70317   70319   70318   70320   70322   70321   70323
   70325   70324   70326   70328   70327   70329   70331   70330   70332
   70334   70333   70335   70337   70336   70338   70340   70339   70341
   70343   70342   70344   70346   70345   70347   70349   70348   70350
   70352   70351   70353   70355   70354   70356   70358   70357   70359
   70361   70360   70362   70364   70363   70365   70367   70366   70368
   70370   70369   70371   70373   70372   70374   70376   70375   70377
   70379   70378   70380   70382   70381   70383   70385   70384   70386
   70388   70387   70389   70391   70390   70392   70394   70393   70395
   70397   70396   70398   70400   70399   70401   70403   70402   70404
   70406   70405   70407   70409   70408   70410   70412   70411   70413
   70415   70414   70416   70418   70417   70419   70421   70420   70422
   70424   70423   70425   70427   70426   70428   70430   70429   70431
   70433   70432   70434   70436   70435   70437   70439   70438   70440
   70442   70441   70443   70445   70444   70446   70448   70447   70449
   70451   70450   70452   70454   70453   70455   70457   70456   70458
   70460   70459   70461   70463   70462   70464   70466   70465   70467
   70469   70468   70470   70472   70471   70473   70475   70474   70476
   70478   70477   70479   70481   70480   70482   70484   70483   70485
   70487   70486   70488   70490   70489   70491   70493   70492   70494
   70496   70495   70497   70499   70498   70500   70502   70501   70503
   70505   70504   70506   70508   70507   70509   70511   70510   70512
   70514   70513   70515   70517   70516   70518   70520   70519   70521
   70523   70522   70524   70526   70525   70527   70529   70528   70530
   70532   70531   70533   70535   70534   70536   70538   70537   70539
   70541   70540   70542   70544   70543   70545   70547   70546   70548
   70550   70549   70551   70553   70552   70554   70556   70555   70557
   70559   70558   70560   70562   70561   70563   70565   70564   70566
   70568   70567   70569   70571   70570   70572   70574   70573   70575
   70577   70576   70578   70580   70579   70581   70583   70582   70584
   70586   70585   70587   70589   70588   70590   70592   70591   70593
   70595   70594   70596   70598   70597   70599   70601   70600   70602
   70604   70603   70605   70607   70606   70608   70610   70609   70611
   70613   70612   70614   70616   70615   70617   70619   70618   70620
   70622   70621   70623   70625   70624   70626   70628   70627   70629
   70631   70630   70632   70634   70633   70635   70637   70636   70638
   70640   70639   70641   70643   70642   70644   70646   70645   70647
   70649   70648   70650   70652   70651   70653   70655   70654   70656
   70658   70657   70659   70661   70660   70662   70664   70663   70665
   70667   70666   70668   70670   70669   70671   70673   70672   70674
   70676   70675   70677   70679   70678   70680   70682   70681   70683
   70685   70684   70686   70688   70687   70689   70691   70690   70692
   70694   70693   70695   70697   70696   70698   70700   70699   70701
   70703   70702   70704   70706   70705   70707   70709   70708   70710
   70712   70711   70713   70715   70714   70716   70718   70717   70719
   70721   70720   70722   70724   70723   70725   70727   70726   70728
   70730   70729   70731   70733   70732   70734   70736   70735   70737
   70739   70738   70740   70742   70741   70743   70745   70744   70746
   70748   70747   70749   70751   70750   70752   70754   70753   70755
   70757   70756   70758   70760   70759   70761   70763   70762   70764
   70766   70765   70767   70769   70768   70770   70772   70771   70773
   70775   70774   70776   70778   70777   70779   70781   70780   70782
   70784   70783   70785   70787   70786   70788   70790   70789   70791
   70793   70792   70794   70796   70795   70797   70799   70798   70800
   70802   70801   70803   70805   70804   70806   70808   70807   70809
   70811   70810   70812   70814   70813   70815   70817   70816   70818
   70820   70819   70821   70823   70822   70824   70826   70825   70827
   70829   70828   70830   70832   70831   70833   70835   70834   70836
   70838   70837   70839   70841   70840   70842   70844   70843   70845
   70847   70846   70848   70850   70849   70851   70853   70852   70854
   70856   70855   70857   70859   70858   70860   70862   70861   70863
   70865   70864   70866   70868   70867   70869   70871   70870   70872
   70874   70873   70875   70877   70876   70878   70880   70879   70881
   70883   70882   70884   70886   70885   70887   70889   70888   70890
   70892   70891   70893   70895   70894   70896   70898   70897   70899
   70901   70900   70902   70904   70903   70905   70907   70906   70908
   70910   70909   70911   70913   70912   70914   70916   70915   70917
   70919   70918   70920   70922   70921   70923   70925   70924   70926
   70928   70927   70929   70931   70930   70932   70934   70933   70935
   70937   70936   70938   70940   70939   70941   70943   70942   70944
   70946   70945   70947   70949   70948   70950   70952   70951   70953
   70955   70954   70956   70958   70957   70959   70961   70960   70962
   70964   70963   70965   70967   70966   70968   70970   70969   70971
   70973   70972   70974   70976   70975   70977   70979   70978   70980
   70982   70981   70983   70985   70984   70986   70988   70987   70989
   70991   70990   70992   70994   70993   70995   70997   70996   70998
   71000   70999   71001   71003   71002   71004   71006   71005   71007
   71009   71008   71010   71012   71011   71013   71015   71014   71016
   71018   71017   71019   71021   71020   71022   71024   71023   71025
   71027   71026   71028   71030   71029   71031   71033   71032   71034
   71036   71035   71037   71039   71038   71040   71042   71041   71043
   71045   71044   71046   71048   71047   71049   71051   71050   71052
   71054   71053   71055   71057   71056   71058   71060   71059   71061
   71063   71062   71064   71066   71065   71067   71069   71068   71070
   71072   71071   71073   71075   71074   71076   71078   71077   71079
   71081   71080   71082   71084   71083   71085   71087   71086   71088
   71090   71089   71091   71093   71092   71094   71096   71095   71097
   71099   71098   71100   71102   71101   71103   71105   71104   71106
   71108   71107   71109   71111   71110   71112   71114   71113   71115
   71117   71116   71118   71120   71119   71121   71123   71122   71124
   71126   71125   71127   71129   71128   71130   71132   71131   71133
   71135   71134   71136   71138   71137   71139   71141   71140   71142
   71144   71143   71145   71147   71146   71148   71150   71149   71151
   71153   71152   71154   71156   71155   71157   71159   71158   71160
   71162   71161   71163   71165   71164   71166   71168   71167   71169
   71171   71170   71172   71174   71173   71175   71177   71176   71178
   71180   71179   71181   71183   71182   71184   71186   71185   71187
   71189   71188   71190   71192   71191   71193   71195   71194   71196
   71198   71197   71199   71201   71200   71202   71204   71203   71205
   71207   71206   71208   71210   71209   71211   71213   71212   71214
   71216   71215   71217   71219   71218   71220   71222   71221   71223
   71225   71224   71226   71228   71227   71229   71231   71230   71232
   71234   71233   71235   71237   71236   71238   71240   71239   71241
   71243   71242   71244   71246   71245   71247   71249   71248   71250
   71252   71251   71253   71255   71254   71256   71258   71257   71259
   71261   71260   71262   71264   71263   71265   71267   71266   71268
   71270   71269   71271   71273   71272   71274   71276   71275   71277
   71279   71278   71280   71282   71281   71283   71285   71284   71286
   71288   71287   71289   71291   71290   71292   71294   71293   71295
   71297   71296   71298   71300   71299   71301   71303   71302   71304
   71306   71305   71307   71309   71308   71310   71312   71311   71313
   71315   71314   71316   71318   71317   71319   71321   71320   71322
   71324   71323   71325   71327   71326   71328   71330   71329   71331
   71333   71332   71334   71336   71335   71337   71339   71338   71340
   71342   71341   71343   71345   71344   71346   71348   71347   71349
   71351   71350   71352   71354   71353   71355   71357   71356   71358
   71360   71359   71361   71363   71362   71364   71366   71365   71367
   71369   71368   71370   71372   71371   71373   71375   71374   71376
   71378   71377   71379   71381   71380   71382   71384   71383   71385
   71387   71386   71388   71390   71389   71391   71393   71392   71394
   71396   71395   71397   71399   71398   71400   71402   71401   71403
   71405   71404   71406   71408   71407   71409   71411   71410   71412
   71414   71413   71415   71417   71416   71418   71420   71419   71421
   71423   71422   71424   71426   71425   71427   71429   71428   71430
   71432   71431   71433   71435   71434   71436   71438   71437   71439
   71441   71440   71442   71444   71443   71445   71447   71446   71448
   71450   71449   71451   71453   71452   71454   71456   71455   71457
   71459   71458   71460   71462   71461   71463   71465   71464   71466
   71468   71467   71469   71471   71470   71472   71474   71473   71475
   71477   71476   71478   71480   71479   71481   71483   71482   71484
   71486   71485   71487   71489   71488   71490   71492   71491   71493
   71495   71494   71496   71498   71497   71499   71501   71500   71502
   71504   71503   71505   71507   71506   71508   71510   71509   71511
   71513   71512   71514   71516   71515   71517   71519   71518   71520
   71522   71521   71523   71525   71524   71526   71528   71527   71529
   71531   71530   71532   71534   71533   71535   71537   71536   71538
   71540   71539   71541   71543   71542   71544   71546   71545   71547
   71549   71548   71550   71552   71551   71553   71555   71554   71556
   71558   71557   71559   71561   71560   71562   71564   71563   71565
   71567   71566   71568   71570   71569   71571   71573   71572   71574
   71576   71575   71577   71579   71578   71580   71582   71581   71583
   71585   71584   71586   71588   71587   71589   71591   71590   71592
   71594   71593   71595   71597   71596   71598   71600   71599   71601
   71603   71602   71604   71606   71605   71607   71609   71608   71610
   71612   71611   71613   71615   71614   71616   71618   71617   71619
   71621   71620   71622   71624   71623   71625   71627   71626   71628
   71630   71629   71631   71633   71632   71634   71636   71635   71637
   71639   71638   71640   71642   71641   71643   71645   71644   71646
   71648   71647   71649   71651   71650   71652   71654   71653   71655
   71657   71656   71658   71660   71659   71661   71663   71662   71664
   71666   71665   71667   71669   71668   71670   71672   71671   71673
   71675   71674   71676   71678   71677   71679   71681   71680   71682
   71684   71683   71685   71687   71686   71688   71690   71689   71691
   71693   71692   71694   71696   71695   71697   71699   71698   71700
   71702   71701   71703   71705   71704   71706   71708   71707   71709
   71711   71710   71712   71714   71713   71715   71717   71716   71718
   71720   71719   71721   71723   71722   71724   71726   71725   71727
   71729   71728   71730   71732   71731   71733   71735   71734   71736
   71738   71737   71739   71741   71740   71742   71744   71743   71745
   71747   71746   71748   71750   71749   71751   71753   71752   71754
   71756   71755   71757   71759   71758   71760   71762   71761   71763
   71765   71764   71766   71768   71767   71769   71771   71770   71772
   71774   71773   71775   71777   71776   71778   71780   71779   71781
   71783   71782   71784   71786   71785   71787   71789   71788   71790
   71792   71791   71793   71795   71794   71796   71798   71797   71799
   71801   71800   71802   71804   71803   71805   71807   71806   71808
   71810   71809   71811   71813   71812   71814   71816   71815   71817
   71819   71818   71820   71822   71821   71823   71825   71824   71826
   71828   71827   71829   71831   71830   71832   71834   71833   71835
   71837   71836   71838   71840   71839   71841   71843   71842   71844
   71846   71845   71847   71849   71848   71850   71852   71851   71853
   71855   71854   71856   71858   71857   71859   71861   71860   71862
   71864   71863   71865   71867   71866   71868   71870   71869   71871
   71873   71872   71874   71876   71875   71877   71879   71878   71880
   71882   71881   71883   71885   71884   71886   71888   71887   71889
   71891   71890   71892   71894   71893   71895   71897   71896   71898
   71900   71899   71901   71903   71902   71904   71906   71905   71907
   71909   71908   71910   71912   71911   71913   71915   71914   71916
   71918   71917   71919   71921   71920   71922   71924   71923   71925
   71927   71926   71928   71930   71929   71931   71933   71932   71934
   71936   71935   71937   71939   71938   71940   71942   71941   71943
   71945   71944   71946   71948   71947   71949   71951   71950   71952
   71954   71953   71955   71957   71956   71958   71960   71959   71961
   71963   71962   71964   71966   71965   71967   71969   71968   71970
   71972   71971   71973   71975   71974   71976   71978   71977   71979
   71981   71980   71982   71984   71983   71985   71987   71986   71988
   71990   71989   71991   71993   71992   71994   71996   71995   71997
   71999   71998   72000   72002   72001   72003   72005   72004   72006
   72008   72007   72009   72011   72010   72012   72014   72013   72015
   72017   72016   72018   72020   72019   72021   72023   72022   72024
   72026   72025   72027   72029   72028   72030   72032   72031   72033
   72035   72034   72036   72038   72037   72039   72041   72040   72042
   72044   72043   72045   72047   72046   72048   72050   72049   72051
   72053   72052   72054   72056   72055   72057   72059   72058   72060
   72062   72061   72063   72065   72064   72066   72068   72067   72069
   72071   72070   72072   72074   72073   72075   72077   72076   72078
   72080   72079   72081   72083   72082   72084   72086   72085   72087
   72089   72088   72090   72092   72091   72093   72095   72094   72096
   72098   72097   72099   72101   72100   72102   72104   72103   72105
   72107   72106   72108   72110   72109   72111   72113   72112   72114
   72116   72115   72117   72119   72118   72120   72122   72121   72123
   72125   72124   72126   72128   72127   72129   72131   72130   72132
   72134   72133   72135   72137   72136   72138   72140   72139   72141
   72143   72142   72144   72146   72145   72147   72149   72148   72150
   72152   72151   72153   72155   72154   72156   72158   72157   72159
   72161   72160   72162   72164   72163   72165   72167   72166   72168
   72170   72169   72171   72173   72172   72174   72176   72175   72177
   72179   72178   72180   72182   72181   72183   72185   72184   72186
   72188   72187   72189   72191   72190   72192   72194   72193   72195
   72197   72196   72198   72200   72199   72201   72203   72202   72204
   72206   72205   72207   72209   72208   72210   72212   72211   72213
   72215   72214   72216   72218   72217   72219   72221   72220   72222
   72224   72223   72225   72227   72226   72228   72230   72229   72231
   72233   72232   72234   72236   72235   72237   72239   72238   72240
   72242   72241   72243   72245   72244   72246   72248   72247   72249
   72251   72250   72252   72254   72253   72255   72257   72256   72258
   72260   72259   72261   72263   72262   72264   72266   72265   72267
   72269   72268   72270   72272   72271   72273   72275   72274   72276
   72278   72277   72279   72281   72280   72282   72284   72283   72285
   72287   72286   72288   72290   72289   72291   72293   72292   72294
   72296   72295   72297   72299   72298   72300   72302   72301   72303
   72305   72304   72306   72308   72307   72309   72311   72310   72312
   72314   72313   72315   72317   72316   72318   72320   72319   72321
   72323   72322   72324   72326   72325   72327   72329   72328   72330
   72332   72331   72333   72335   72334   72336   72338   72337   72339
   72341   72340   72342   72344   72343   72345   72347   72346   72348
   72350   72349   72351   72353   72352   72354   72356   72355   72357
   72359   72358   72360   72362   72361   72363   72365   72364   72366
   72368   72367   72369   72371   72370   72372   72374   72373   72375
   72377   72376   72378   72380   72379   72381   72383   72382   72384
   72386   72385   72387   72389   72388   72390   72392   72391   72393
   72395   72394   72396   72398   72397   72399   72401   72400   72402
   72404   72403   72405   72407   72406   72408   72410   72409   72411
   72413   72412   72414   72416   72415   72417   72419   72418   72420
   72422   72421   72423   72425   72424   72426   72428   72427   72429
   72431   72430   72432   72434   72433   72435   72437   72436   72438
   72440   72439   72441   72443   72442   72444   72446   72445   72447
   72449   72448   72450   72452   72451   72453   72455   72454   72456
   72458   72457   72459   72461   72460   72462   72464   72463   72465
   72467   72466   72468   72470   72469   72471   72473   72472   72474
   72476   72475   72477   72479   72478   72480   72482   72481   72483
   72485   72484   72486   72488   72487   72489   72491   72490   72492
   72494   72493   72495   72497   72496   72498   72500   72499   72501
   72503   72502   72504   72506   72505   72507   72509   72508   72510
   72512   72511   72513   72515   72514   72516   72518   72517   72519
   72521   72520   72522   72524   72523   72525   72527   72526   72528
   72530   72529   72531   72533   72532   72534   72536   72535   72537
   72539   72538   72540   72542   72541   72543   72545   72544   72546
   72548   72547   72549   72551   72550   72552   72554   72553   72555
   72557   72556   72558   72560   72559   72561   72563   72562   72564
   72566   72565   72567   72569   72568   72570   72572   72571   72573
   72575   72574   72576   72578   72577   72579   72581   72580   72582
   72584   72583   72585   72587   72586   72588   72590   72589   72591
   72593   72592   72594   72596   72595   72597   72599   72598   72600
   72602   72601   72603   72605   72604   72606   72608   72607   72609
   72611   72610   72612   72614   72613   72615   72617   72616   72618
   72620   72619   72621   72623   72622   72624   72626   72625   72627
   72629   72628   72630   72632   72631   72633   72635   72634   72636
   72638   72637   72639   72641   72640   72642   72644   72643   72645
   72647   72646   72648   72650   72649   72651   72653   72652   72654
   72656   72655   72657   72659   72658   72660   72662   72661   72663
   72665   72664   72666   72668   72667   72669   72671   72670   72672
   72674   72673   72675   72677   72676   72678   72680   72679   72681
   72683   72682   72684   72686   72685   72687   72689   72688   72690
   72692   72691   72693   72695   72694   72696   72698   72697   72699
   72701   72700   72702   72704   72703   72705   72707   72706   72708
   72710   72709   72711   72713   72712   72714   72716   72715   72717
   72719   72718   72720   72722   72721   72723   72725   72724   72726
   72728   72727   72729   72731   72730   72732   72734   72733   72735
   72737   72736   72738   72740   72739   72741   72743   72742   72744
   72746   72745   72747   72749   72748   72750   72752   72751   72753
   72755   72754   72756   72758   72757   72759   72761   72760   72762
   72764   72763   72765   72767   72766   72768   72770   72769   72771
   72773   72772   72774   72776   72775   72777   72779   72778   72780
   72782   72781   72783   72785   72784   72786   72788   72787   72789
   72791   72790   72792   72794   72793   72795   72797   72796   72798
   72800   72799   72801   72803   72802   72804   72806   72805   72807
   72809   72808   72810   72812   72811   72813   72815   72814   72816
   72818   72817   72819   72821   72820   72822   72824   72823   72825
   72827   72826   72828   72830   72829   72831   72833   72832   72834
   72836   72835   72837   72839   72838   72840   72842   72841   72843
   72845   72844   72846   72848   72847   72849   72851   72850   72852
   72854   72853   72855   72857   72856   72858   72860   72859   72861
   72863   72862   72864   72866   72865   72867   72869   72868   72870
   72872   72871   72873   72875   72874   72876   72878   72877   72879
   72881   72880   72882   72884   72883   72885   72887   72886   72888
   72890   72889   72891   72893   72892   72894   72896   72895   72897
   72899   72898   72900   72902   72901   72903   72905   72904   72906
   72908   72907   72909   72911   72910   72912   72914   72913   72915
   72917   72916   72918   72920   72919   72921   72923   72922   72924
   72926   72925   72927   72929   72928   72930   72932   72931   72933
   72935   72934   72936   72938   72937   72939   72941   72940   72942
   72944   72943   72945   72947   72946   72948   72950   72949   72951
   72953   72952   72954   72956   72955   72957   72959   72958   72960
   72962   72961   72963   72965   72964   72966   72968   72967   72969
   72971   72970   72972   72974   72973   72975   72977   72976   72978
   72980   72979   72981   72983   72982   72984   72986   72985   72987
   72989   72988   72990   72992   72991   72993   72995   72994   72996
   72998   72997   72999   73001   73000   73002   73004   73003   73005
   73007   73006   73008   73010   73009   73011   73013   73012   73014
   73016   73015   73017   73019   73018   73020   73022   73021   73023
   73025   73024   73026   73028   73027   73029   73031   73030   73032
   73034   73033   73035   73037   73036   73038   73040   73039   73041
   73043   73042   73044   73046   73045   73047   73049   73048   73050
   73052   73051   73053   73055   73054   73056   73058   73057   73059
   73061   73060   73062   73064   73063   73065   73067   73066   73068
   73070   73069   73071   73073   73072   73074   73076   73075   73077
   73079   73078   73080   73082   73081   73083   73085   73084   73086
   73088   73087   73089   73091   73090   73092   73094   73093   73095
   73097   73096   73098   73100   73099   73101   73103   73102   73104
   73106   73105   73107   73109   73108   73110   73112   73111   73113
   73115   73114   73116   73118   73117   73119   73121   73120   73122
   73124   73123   73125   73127   73126   73128   73130   73129   73131
   73133   73132   73134   73136   73135   73137   73139   73138   73140
   73142   73141   73143   73145   73144   73146   73148   73147   73149
   73151   73150   73152   73154   73153   73155   73157   73156   73158
   73160   73159   73161   73163   73162   73164   73166   73165   73167
   73169   73168   73170   73172   73171   73173   73175   73174   73176
   73178   73177   73179   73181   73180   73182   73184   73183   73185
   73187   73186   73188   73190   73189   73191   73193   73192   73194
   73196   73195   73197   73199   73198   73200   73202   73201   73203
   73205   73204   73206   73208   73207   73209   73211   73210   73212
   73214   73213   73215   73217   73216   73218   73220   73219   73221
   73223   73222   73224   73226   73225   73227   73229   73228   73230
   73232   73231   73233   73235   73234   73236   73238   73237   73239
   73241   73240   73242   73244   73243   73245   73247   73246   73248
   73250   73249   73251   73253   73252   73254   73256   73255   73257
   73259   73258   73260   73262   73261   73263   73265   73264   73266
   73268   73267   73269   73271   73270   73272   73274   73273   73275
   73277   73276   73278   73280   73279   73281   73283   73282   73284
   73286   73285   73287   73289   73288   73290   73292   73291   73293
   73295   73294   73296   73298   73297   73299   73301   73300   73302
   73304   73303   73305   73307   73306   73308   73310   73309   73311
   73313   73312   73314   73316   73315   73317   73319   73318   73320
   73322   73321   73323   73325   73324   73326   73328   73327   73329
   73331   73330   73332   73334   73333   73335   73337   73336   73338
   73340   73339   73341   73343   73342   73344   73346   73345   73347
   73349   73348   73350   73352   73351   73353   73355   73354   73356
   73358   73357   73359   73361   73360   73362   73364   73363   73365
   73367   73366   73368   73370   73369   73371   73373   73372   73374
   73376   73375   73377   73379   73378   73380   73382   73381   73383
   73385   73384   73386   73388   73387   73389   73391   73390   73392
   73394   73393   73395   73397   73396   73398   73400   73399   73401
   73403   73402   73404   73406   73405   73407   73409   73408   73410
   73412   73411   73413   73415   73414   73416   73418   73417   73419
   73421   73420   73422   73424   73423   73425   73427   73426   73428
   73430   73429   73431   73433   73432   73434   73436   73435   73437
   73439   73438   73440   73442   73441   73443   73445   73444   73446
   73448   73447   73449   73451   73450   73452   73454   73453   73455
   73457   73456   73458   73460   73459   73461   73463   73462   73464
   73466   73465   73467   73469   73468   73470   73472   73471   73473
   73475   73474   73476   73478   73477   73479   73481   73480   73482
   73484   73483   73485   73487   73486   73488   73490   73489   73491
   73493   73492   73494   73496   73495   73497   73499   73498   73500
   73502   73501   73503   73505   73504   73506   73508   73507   73509
   73511   73510   73512   73514   73513   73515   73517   73516   73518
   73520   73519   73521   73523   73522   73524   73526   73525   73527
   73529   73528   73530   73532   73531   73533   73535   73534   73536
   73538   73537   73539   73541   73540   73542   73544   73543   73545
   73547   73546   73548   73550   73549   73551   73553   73552   73554
   73556   73555   73557   73559   73558   73560   73562   73561   73563
   73565   73564   73566   73568   73567   73569   73571   73570   73572
   73574   73573   73575   73577   73576   73578   73580   73579   73581
   73583   73582   73584   73586   73585   73587   73589   73588   73590
   73592   73591   73593   73595   73594   73596   73598   73597   73599
   73601   73600   73602   73604   73603   73605   73607   73606   73608
   73610   73609   73611   73613   73612   73614   73616   73615   73617
   73619   73618   73620   73622   73621   73623   73625   73624   73626
   73628   73627   73629   73631   73630   73632   73634   73633   73635
   73637   73636   73638   73640   73639   73641   73643   73642   73644
   73646   73645   73647   73649   73648   73650   73652   73651   73653
   73655   73654   73656   73658   73657   73659   73661   73660   73662
   73664   73663   73665   73667   73666   73668   73670   73669   73671
   73673   73672   73674   73676   73675   73677   73679   73678   73680
   73682   73681   73683   73685   73684   73686   73688   73687   73689
   73691   73690   73692   73694   73693   73695   73697   73696   73698
   73700   73699   73701   73703   73702   73704   73706   73705   73707
   73709   73708   73710   73712   73711   73713   73715   73714   73716
   73718   73717   73719   73721   73720   73722   73724   73723   73725
   73727   73726   73728   73730   73729   73731   73733   73732   73734
   73736   73735   73737   73739   73738   73740   73742   73741   73743
   73745   73744   73746   73748   73747   73749   73751   73750   73752
   73754   73753   73755   73757   73756   73758   73760   73759   73761
   73763   73762   73764   73766   73765   73767   73769   73768   73770
   73772   73771   73773   73775   73774   73776   73778   73777   73779
   73781   73780   73782   73784   73783   73785   73787   73786   73788
   73790   73789   73791   73793   73792   73794   73796   73795   73797
   73799   73798   73800   73802   73801   73803   73805   73804   73806
   73808   73807   73809   73811   73810   73812   73814   73813   73815
   73817   73816   73818   73820   73819   73821   73823   73822   73824
   73826   73825   73827   73829   73828   73830   73832   73831   73833
   73835   73834   73836   73838   73837   73839   73841   73840   73842
   73844   73843   73845   73847   73846   73848   73850   73849   73851
   73853   73852   73854   73856   73855   73857   73859   73858   73860
   73862   73861   73863   73865   73864   73866   73868   73867   73869
   73871   73870   73872   73874   73873   73875   73877   73876   73878
   73880   73879   73881   73883   73882   73884   73886   73885   73887
   73889   73888   73890   73892   73891   73893   73895   73894   73896
   73898   73897   73899   73901   73900   73902   73904   73903   73905
   73907   73906   73908   73910   73909   73911   73913   73912   73914
   73916   73915   73917   73919   73918   73920   73922   73921   73923
   73925   73924   73926   73928   73927   73929   73931   73930   73932
   73934   73933   73935   73937   73936   73938   73940   73939   73941
   73943   73942   73944   73946   73945   73947   73949   73948   73950
   73952   73951   73953   73955   73954   73956   73958   73957   73959
   73961   73960   73962   73964   73963   73965   73967   73966   73968
   73970   73969   73971   73973   73972   73974   73976   73975   73977
   73979   73978   73980   73982   73981   73983   73985   73984   73986
   73988   73987   73989   73991   73990   73992   73994   73993   73995
   73997   73996   73998   74000   73999   74001   74003   74002   74004
   74006   74005   74007   74009   74008   74010   74012   74011   74013
   74015   74014   74016   74018   74017   74019   74021   74020   74022
   74024   74023   74025   74027   74026   74028   74030   74029   74031
   74033   74032   74034   74036   74035   74037   74039   74038   74040
   74042   74041   74043   74045   74044   74046   74048   74047   74049
   74051   74050   74052   74054   74053   74055   74057   74056   74058
   74060   74059   74061   74063   74062   74064   74066   74065   74067
   74069   74068   74070   74072   74071   74073   74075   74074   74076
   74078   74077   74079   74081   74080   74082   74084   74083   74085
   74087   74086   74088   74090   74089   74091   74093   74092   74094
   74096   74095   74097   74099   74098   74100   74102   74101   74103
   74105   74104   74106   74108   74107   74109   74111   74110   74112
   74114   74113   74115   74117   74116   74118   74120   74119   74121
   74123   74122   74124   74126   74125   74127   74129   74128   74130
   74132   74131   74133   74135   74134   74136   74138   74137   74139
   74141   74140   74142   74144   74143   74145   74147   74146   74148
   74150   74149   74151   74153   74152   74154   74156   74155   74157
   74159   74158   74160   74162   74161   74163   74165   74164   74166
   74168   74167   74169   74171   74170   74172   74174   74173   74175
   74177   74176   74178   74180   74179   74181   74183   74182   74184
   74186   74185   74187   74189   74188   74190   74192   74191   74193
   74195   74194   74196   74198   74197   74199   74201   74200   74202
   74204   74203   74205   74207   74206   74208   74210   74209   74211
   74213   74212   74214   74216   74215   74217   74219   74218   74220
   74222   74221   74223   74225   74224   74226   74228   74227   74229
   74231   74230   74232   74234   74233   74235   74237   74236   74238
   74240   74239   74241   74243   74242   74244   74246   74245   74247
   74249   74248   74250   74252   74251   74253   74255   74254   74256
   74258   74257   74259   74261   74260   74262   74264   74263   74265
   74267   74266   74268   74270   74269   74271   74273   74272   74274
   74276   74275   74277   74279   74278   74280   74282   74281   74283
   74285   74284   74286   74288   74287   74289   74291   74290   74292
   74294   74293   74295   74297   74296   74298   74300   74299   74301
   74303   74302   74304   74306   74305   74307   74309   74308   74310
   74312   74311   74313   74315   74314   74316   74318   74317   74319
   74321   74320   74322   74324   74323   74325   74327   74326   74328
   74330   74329   74331   74333   74332   74334   74336   74335   74337
   74339   74338   74340   74342   74341   74343   74345   74344   74346
   74348   74347   74349   74351   74350   74352   74354   74353   74355
   74357   74356   74358   74360   74359   74361   74363   74362   74364
   74366   74365   74367   74369   74368   74370   74372   74371   74373
   74375   74374   74376   74378   74377   74379   74381   74380   74382
   74384   74383   74385   74387   74386   74388   74390   74389   74391
   74393   74392   74394   74396   74395   74397   74399   74398   74400
   74402   74401   74403   74405   74404   74406   74408   74407   74409
   74411   74410   74412   74414   74413   74415   74417   74416   74418
   74420   74419   74421   74423   74422   74424   74426   74425   74427
   74429   74428   74430   74432   74431   74433   74435   74434   74436
   74438   74437   74439   74441   74440   74442   74444   74443   74445
   74447   74446   74448   74450   74449   74451   74453   74452   74454
   74456   74455   74457   74459   74458   74460   74462   74461   74463
   74465   74464   74466   74468   74467   74469   74471   74470   74472
   74474   74473   74475   74477   74476   74478   74480   74479   74481
   74483   74482   74484   74486   74485   74487   74489   74488   74490
   74492   74491   74493   74495   74494   74496   74498   74497   74499
   74501   74500   74502   74504   74503   74505   74507   74506   74508
   74510   74509   74511   74513   74512   74514   74516   74515   74517
   74519   74518   74520   74522   74521   74523   74525   74524   74526
   74528   74527   74529   74531   74530   74532   74534   74533   74535
   74537   74536   74538   74540   74539   74541   74543   74542   74544
   74546   74545   74547   74549   74548   74550   74552   74551   74553
   74555   74554   74556   74558   74557   74559   74561   74560   74562
   74564   74563   74565   74567   74566   74568   74570   74569   74571
   74573   74572   74574   74576   74575   74577   74579   74578   74580
   74582   74581   74583   74585   74584   74586   74588   74587   74589
   74591   74590   74592   74594   74593   74595   74597   74596   74598
   74600   74599   74601   74603   74602   74604   74606   74605   74607
   74609   74608   74610   74612   74611   74613   74615   74614   74616
   74618   74617   74619   74621   74620   74622   74624   74623   74625
   74627   74626   74628   74630   74629   74631   74633   74632   74634
   74636   74635   74637   74639   74638   74640   74642   74641   74643
   74645   74644   74646   74648   74647   74649   74651   74650   74652
   74654   74653   74655   74657   74656   74658   74660   74659   74661
   74663   74662   74664   74666   74665   74667   74669   74668   74670
   74672   74671   74673   74675   74674   74676   74678   74677   74679
   74681   74680   74682   74684   74683   74685   74687   74686   74688
   74690   74689   74691   74693   74692   74694   74696   74695   74697
   74699   74698   74700   74702   74701   74703   74705   74704   74706
   74708   74707   74709   74711   74710   74712   74714   74713   74715
   74717   74716   74718   74720   74719   74721   74723   74722   74724
   74726   74725   74727   74729   74728   74730   74732   74731   74733
   74735   74734   74736   74738   74737   74739   74741   74740   74742
   74744   74743   74745   74747   74746   74748   74750   74749   74751
   74753   74752   74754   74756   74755   74757   74759   74758   74760
   74762   74761   74763   74765   74764   74766   74768   74767   74769
   74771   74770   74772   74774   74773   74775   74777   74776   74778
   74780   74779   74781   74783   74782   74784   74786   74785   74787
   74789   74788   74790   74792   74791   74793   74795   74794   74796
   74798   74797   74799   74801   74800   74802   74804   74803   74805
   74807   74806   74808   74810   74809   74811   74813   74812   74814
   74816   74815   74817   74819   74818   74820   74822   74821   74823
   74825   74824   74826   74828   74827   74829   74831   74830   74832
   74834   74833   74835   74837   74836   74838   74840   74839   74841
   74843   74842   74844   74846   74845   74847   74849   74848   74850
   74852   74851   74853   74855   74854   74856   74858   74857   74859
   74861   74860   74862   74864   74863   74865   74867   74866   74868
   74870   74869   74871   74873   74872   74874   74876   74875   74877
   74879   74878   74880   74882   74881   74883   74885   74884   74886
   74888   74887   74889   74891   74890   74892   74894   74893   74895
   74897   74896   74898   74900   74899   74901   74903   74902   74904
   74906   74905   74907   74909   74908   74910   74912   74911   74913
   74915   74914   74916   74918   74917   74919   74921   74920   74922
   74924   74923   74925   74927   74926   74928   74930   74929   74931
   74933   74932   74934   74936   74935   74937   74939   74938   74940
   74942   74941   74943   74945   74944   74946   74948   74947   74949
   74951   74950   74952   74954   74953   74955   74957   74956   74958
   74960   74959   74961   74963   74962   74964   74966   74965   74967
   74969   74968   74970   74972   74971   74973   74975   74974   74976
   74978   74977   74979   74981   74980   74982   74984   74983   74985
   74987   74986   74988   74990   74989   74991   74993   74992   74994
   74996   74995   74997   74999   74998   75000   75002   75001   75003
   75005   75004   75006   75008   75007   75009   75011   75010   75012
   75014   75013   75015   75017   75016   75018   75020   75019   75021
   75023   75022   75024   75026   75025   75027   75029   75028   75030
   75032   75031   75033   75035   75034   75036   75038   75037   75039
   75041   75040   75042   75044   75043   75045   75047   75046   75048
   75050   75049   75051   75053   75052   75054   75056   75055   75057
   75059   75058   75060   75062   75061   75063   75065   75064   75066
   75068   75067   75069   75071   75070   75072   75074   75073   75075
   75077   75076   75078   75080   75079   75081   75083   75082   75084
   75086   75085   75087   75089   75088   75090   75092   75091   75093
   75095   75094   75096   75098   75097   75099   75101   75100   75102
   75104   75103   75105   75107   75106   75108   75110   75109   75111
   75113   75112   75114   75116   75115   75117   75119   75118   75120
   75122   75121   75123   75125   75124   75126   75128   75127   75129
   75131   75130   75132   75134   75133   75135   75137   75136   75138
   75140   75139   75141   75143   75142   75144   75146   75145   75147
   75149   75148   75150   75152   75151   75153   75155   75154   75156
   75158   75157   75159   75161   75160   75162   75164   75163   75165
   75167   75166   75168   75170   75169   75171   75173   75172   75174
   75176   75175   75177   75179   75178   75180   75182   75181   75183
   75185   75184   75186   75188   75187   75189   75191   75190   75192
   75194   75193   75195   75197   75196   75198   75200   75199   75201
   75203   75202   75204   75206   75205   75207   75209   75208   75210
   75212   75211   75213   75215   75214   75216   75218   75217   75219
   75221   75220   75222   75224   75223   75225   75227   75226   75228
   75230   75229   75231   75233   75232   75234   75236   75235   75237
   75239   75238   75240   75242   75241   75243   75245   75244   75246
   75248   75247   75249   75251   75250   75252   75254   75253   75255
   75257   75256   75258   75260   75259   75261   75263   75262   75264
   75266   75265   75267   75269   75268   75270   75272   75271   75273
   75275   75274   75276   75278   75277   75279   75281   75280   75282
   75284   75283   75285   75287   75286   75288   75290   75289   75291
   75293   75292   75294   75296   75295   75297   75299   75298   75300
   75302   75301   75303   75305   75304   75306   75308   75307   75309
   75311   75310   75312   75314   75313   75315   75317   75316   75318
   75320   75319   75321   75323   75322   75324   75326   75325   75327
   75329   75328   75330   75332   75331   75333   75335   75334   75336
   75338   75337   75339   75341   75340   75342   75344   75343   75345
   75347   75346   75348   75350   75349   75351   75353   75352   75354
   75356   75355   75357   75359   75358   75360   75362   75361   75363
   75365   75364   75366   75368   75367   75369   75371   75370   75372
   75374   75373   75375   75377   75376   75378   75380   75379   75381
   75383   75382   75384   75386   75385   75387   75389   75388   75390
   75392   75391   75393   75395   75394   75396   75398   75397   75399
   75401   75400   75402   75404   75403   75405   75407   75406   75408
   75410   75409   75411   75413   75412   75414   75416   75415   75417
   75419   75418   75420   75422   75421   75423   75425   75424   75426
   75428   75427   75429   75431   75430   75432   75434   75433   75435
   75437   75436   75438   75440   75439   75441   75443   75442   75444
   75446   75445   75447   75449   75448   75450   75452   75451   75453
   75455   75454   75456   75458   75457   75459   75461   75460   75462
   75464   75463   75465   75467   75466   75468   75470   75469   75471
   75473   75472   75474   75476   75475   75477   75479   75478   75480
   75482   75481   75483   75485   75484   75486   75488   75487   75489
   75491   75490   75492   75494   75493   75495   75497   75496   75498
   75500   75499   75501   75503   75502   75504   75506   75505   75507
   75509   75508   75510   75512   75511   75513   75515   75514   75516
   75518   75517   75519   75521   75520   75522   75524   75523   75525
   75527   75526   75528   75530   75529   75531   75533   75532   75534
   75536   75535   75537   75539   75538   75540   75542   75541   75543
   75545   75544   75546   75548   75547   75549   75551   75550   75552
   75554   75553   75555   75557   75556   75558   75560   75559   75561
   75563   75562   75564   75566   75565   75567   75569   75568   75570
   75572   75571   75573   75575   75574   75576   75578   75577   75579
   75581   75580   75582   75584   75583   75585   75587   75586   75588
   75590   75589   75591   75593   75592   75594   75596   75595   75597
   75599   75598   75600   75602   75601   75603   75605   75604   75606
   75608   75607   75609   75611   75610   75612   75614   75613   75615
   75617   75616   75618   75620   75619   75621   75623   75622   75624
   75626   75625   75627   75629   75628   75630   75632   75631   75633
   75635   75634   75636   75638   75637   75639   75641   75640   75642
   75644   75643   75645   75647   75646   75648   75650   75649   75651
   75653   75652   75654   75656   75655   75657   75659   75658   75660
   75662   75661   75663   75665   75664   75666   75668   75667   75669
   75671   75670   75672   75674   75673   75675   75677   75676   75678
   75680   75679   75681   75683   75682   75684   75686   75685   75687
   75689   75688   75690   75692   75691   75693   75695   75694   75696
   75698   75697   75699   75701   75700   75702   75704   75703   75705
   75707   75706   75708   75710   75709   75711   75713   75712   75714
   75716   75715   75717   75719   75718   75720   75722   75721   75723
   75725   75724   75726   75728   75727   75729   75731   75730   75732
   75734   75733   75735   75737   75736   75738   75740   75739   75741
   75743   75742   75744   75746   75745   75747   75749   75748   75750
   75752   75751   75753   75755   75754   75756   75758   75757   75759
   75761   75760   75762   75764   75763   75765   75767   75766   75768
   75770   75769   75771   75773   75772   75774   75776   75775   75777
   75779   75778   75780   75782   75781   75783   75785   75784   75786
   75788   75787   75789   75791   75790   75792   75794   75793   75795
   75797   75796   75798   75800   75799   75801   75803   75802   75804
   75806   75805   75807   75809   75808   75810   75812   75811   75813
   75815   75814   75816   75818   75817   75819   75821   75820   75822
   75824   75823   75825   75827   75826   75828   75830   75829   75831
   75833   75832   75834   75836   75835   75837   75839   75838   75840
   75842   75841   75843   75845   75844   75846   75848   75847   75849
   75851   75850   75852   75854   75853   75855   75857   75856   75858
   75860   75859   75861   75863   75862   75864   75866   75865   75867
   75869   75868   75870   75872   75871   75873   75875   75874   75876
   75878   75877   75879   75881   75880   75882   75884   75883   75885
   75887   75886   75888   75890   75889   75891   75893   75892   75894
   75896   75895   75897   75899   75898   75900   75902   75901   75903
   75905   75904   75906   75908   75907   75909   75911   75910   75912
   75914   75913   75915   75917   75916   75918   75920   75919   75921
   75923   75922   75924   75926   75925   75927   75929   75928   75930
   75932   75931   75933   75935   75934   75936   75938   75937   75939
   75941   75940   75942   75944   75943   75945   75947   75946   75948
   75950   75949   75951   75953   75952   75954   75956   75955   75957
   75959   75958   75960   75962   75961   75963   75965   75964   75966
   75968   75967   75969   75971   75970   75972   75974   75973   75975
   75977   75976   75978   75980   75979   75981   75983   75982   75984
   75986   75985   75987   75989   75988   75990   75992   75991   75993
   75995   75994   75996   75998   75997   75999   76001   76000   76002
   76004   76003   76005   76007   76006   76008   76010   76009   76011
   76013   76012   76014   76016   76015   76017   76019   76018   76020
   76022   76021   76023   76025   76024   76026   76028   76027   76029
   76031   76030   76032   76034   76033   76035   76037   76036   76038
   76040   76039   76041   76043   76042   76044   76046   76045   76047
   76049   76048   76050   76052   76051   76053   76055   76054   76056
   76058   76057   76059   76061   76060   76062   76064   76063   76065
   76067   76066   76068   76070   76069   76071   76073   76072   76074
   76076   76075   76077   76079   76078   76080   76082   76081   76083
   76085   76084   76086   76088   76087   76089   76091   76090   76092
   76094   76093   76095   76097   76096   76098   76100   76099   76101
   76103   76102   76104   76106   76105   76107   76109   76108   76110
   76112   76111   76113   76115   76114   76116   76118   76117   76119
   76121   76120   76122   76124   76123   76125   76127   76126   76128
   76130   76129   76131   76133   76132   76134   76136   76135   76137
   76139   76138   76140   76142   76141   76143   76145   76144   76146
   76148   76147   76149   76151   76150   76152   76154   76153   76155
   76157   76156   76158   76160   76159   76161   76163   76162   76164
   76166   76165   76167   76169   76168   76170   76172   76171   76173
   76175   76174   76176   76178   76177   76179   76181   76180   76182
   76184   76183   76185   76187   76186   76188   76190   76189   76191
   76193   76192   76194   76196   76195   76197   76199   76198   76200
   76202   76201   76203   76205   76204   76206   76208   76207   76209
   76211   76210   76212   76214   76213   76215   76217   76216   76218
   76220   76219   76221   76223   76222   76224   76226   76225   76227
   76229   76228   76230   76232   76231   76233   76235   76234   76236
   76238   76237   76239   76241   76240   76242   76244   76243   76245
   76247   76246   76248   76250   76249   76251   76253   76252   76254
   76256   76255   76257   76259   76258   76260   76262   76261   76263
   76265   76264   76266   76268   76267   76269   76271   76270   76272
   76274   76273   76275   76277   76276   76278   76280   76279   76281
   76283   76282   76284   76286   76285   76287   76289   76288   76290
   76292   76291   76293   76295   76294   76296   76298   76297   76299
   76301   76300   76302   76304   76303   76305   76307   76306   76308
   76310   76309   76311   76313   76312   76314   76316   76315   76317
   76319   76318   76320   76322   76321   76323   76325   76324   76326
   76328   76327   76329   76331   76330   76332   76334   76333   76335
   76337   76336   76338   76340   76339   76341   76343   76342   76344
   76346   76345   76347   76349   76348   76350   76352   76351   76353
   76355   76354   76356   76358   76357   76359   76361   76360   76362
   76364   76363   76365   76367   76366   76368   76370   76369   76371
   76373   76372   76374   76376   76375   76377   76379   76378   76380
   76382   76381   76383   76385   76384   76386   76388   76387   76389
   76391   76390   76392   76394   76393   76395   76397   76396   76398
   76400   76399   76401   76403   76402   76404   76406   76405   76407
   76409   76408   76410   76412   76411   76413   76415   76414   76416
   76418   76417   76419   76421   76420   76422   76424   76423   76425
   76427   76426   76428   76430   76429   76431   76433   76432   76434
   76436   76435   76437   76439   76438   76440   76442   76441   76443
   76445   76444   76446   76448   76447   76449   76451   76450   76452
   76454   76453   76455   76457   76456   76458   76460   76459   76461
   76463   76462   76464   76466   76465   76467   76469   76468   76470
   76472   76471   76473   76475   76474   76476   76478   76477   76479
   76481   76480   76482   76484   76483   76485   76487   76486   76488
   76490   76489   76491   76493   76492   76494   76496   76495   76497
   76499   76498   76500   76502   76501   76503   76505   76504   76506
   76508   76507   76509   76511   76510   76512   76514   76513   76515
   76517   76516   76518   76520   76519   76521   76523   76522   76524
   76526   76525   76527   76529   76528   76530   76532   76531   76533
   76535   76534   76536   76538   76537   76539   76541   76540   76542
   76544   76543   76545   76547   76546   76548   76550   76549   76551
   76553   76552   76554   76556   76555   76557   76559   76558   76560
   76562   76561   76563   76565   76564   76566   76568   76567   76569
   76571   76570   76572   76574   76573   76575   76577   76576   76578
   76580   76579   76581   76583   76582   76584   76586   76585   76587
   76589   76588   76590   76592   76591   76593   76595   76594   76596
   76598   76597   76599   76601   76600   76602   76604   76603   76605
   76607   76606   76608   76610   76609   76611   76613   76612   76614
   76616   76615   76617   76619   76618   76620   76622   76621   76623
   76625   76624   76626   76628   76627   76629   76631   76630   76632
   76634   76633   76635   76637   76636   76638   76640   76639   76641
   76643   76642   76644   76646   76645   76647   76649   76648   76650
   76652   76651   76653   76655   76654   76656   76658   76657   76659
   76661   76660   76662   76664   76663   76665   76667   76666   76668
   76670   76669   76671   76673   76672   76674   76676   76675   76677
   76679   76678   76680   76682   76681   76683   76685   76684   76686
   76688   76687   76689   76691   76690   76692   76694   76693   76695
   76697   76696   76698   76700   76699   76701   76703   76702   76704
   76706   76705   76707   76709   76708   76710   76712   76711   76713
   76715   76714   76716   76718   76717   76719   76721   76720   76722
   76724   76723   76725   76727   76726   76728   76730   76729   76731
   76733   76732   76734   76736   76735   76737   76739   76738   76740
   76742   76741   76743   76745   76744   76746   76748   76747   76749
   76751   76750   76752   76754   76753   76755   76757   76756   76758
   76760   76759   76761   76763   76762   76764   76766   76765   76767
   76769   76768   76770   76772   76771   76773   76775   76774   76776
   76778   76777   76779   76781   76780   76782   76784   76783   76785
   76787   76786   76788   76790   76789   76791   76793   76792   76794
   76796   76795   76797   76799   76798   76800   76802   76801   76803
   76805   76804   76806   76808   76807   76809   76811   76810   76812
   76814   76813   76815   76817   76816   76818   76820   76819   76821
   76823   76822   76824   76826   76825   76827   76829   76828   76830
   76832   76831   76833   76835   76834   76836   76838   76837   76839
   76841   76840   76842   76844   76843   76845   76847   76846   76848
   76850   76849   76851   76853   76852   76854   76856   76855   76857
   76859   76858   76860   76862   76861   76863   76865   76864   76866
   76868   76867   76869   76871   76870   76872   76874   76873   76875
   76877   76876   76878   76880   76879   76881   76883   76882   76884
   76886   76885   76887   76889   76888   76890   76892   76891   76893
   76895   76894   76896   76898   76897   76899   76901   76900   76902
   76904   76903   76905   76907   76906   76908   76910   76909   76911
   76913   76912   76914   76916   76915   76917   76919   76918   76920
   76922   76921   76923   76925   76924   76926   76928   76927   76929
   76931   76930   76932   76934   76933   76935   76937   76936   76938
   76940   76939   76941   76943   76942   76944   76946   76945   76947
   76949   76948   76950   76952   76951   76953   76955   76954   76956
   76958   76957   76959   76961   76960   76962   76964   76963   76965
   76967   76966   76968   76970   76969   76971   76973   76972   76974
   76976   76975   76977   76979   76978   76980   76982   76981   76983
   76985   76984   76986   76988   76987   76989   76991   76990   76992
   76994   76993   76995   76997   76996   76998   77000   76999   77001
   77003   77002   77004   77006   77005   77007   77009   77008   77010
   77012   77011   77013   77015   77014   77016   77018   77017   77019
   77021   77020   77022   77024   77023   77025   77027   77026   77028
   77030   77029   77031   77033   77032   77034   77036   77035   77037
   77039   77038   77040   77042   77041   77043   77045   77044   77046
   77048   77047   77049   77051   77050   77052   77054   77053   77055
   77057   77056   77058   77060   77059   77061   77063   77062   77064
   77066   77065   77067   77069   77068   77070   77072   77071   77073
   77075   77074   77076   77078   77077   77079   77081   77080   77082
   77084   77083   77085   77087   77086   77088   77090   77089   77091
   77093   77092   77094   77096   77095   77097   77099   77098   77100
   77102   77101   77103   77105   77104   77106   77108   77107   77109
   77111   77110   77112   77114   77113   77115   77117   77116   77118
   77120   77119   77121   77123   77122   77124   77126   77125   77127
   77129   77128   77130   77132   77131   77133   77135   77134   77136
   77138   77137   77139   77141   77140   77142   77144   77143   77145
   77147   77146   77148   77150   77149   77151   77153   77152   77154
   77156   77155   77157   77159   77158   77160   77162   77161   77163
   77165   77164   77166   77168   77167   77169   77171   77170   77172
   77174   77173   77175   77177   77176   77178   77180   77179   77181
   77183   77182   77184   77186   77185   77187   77189   77188   77190
   77192   77191   77193   77195   77194   77196   77198   77197   77199
   77201   77200   77202   77204   77203   77205   77207   77206   77208
   77210   77209   77211   77213   77212   77214   77216   77215   77217
   77219   77218   77220   77222   77221   77223   77225   77224   77226
   77228   77227   77229   77231   77230   77232   77234   77233   77235
   77237   77236   77238   77240   77239   77241   77243   77242   77244
   77246   77245   77247   77249   77248   77250   77252   77251   77253
   77255   77254   77256   77258   77257   77259   77261   77260   77262
   77264   77263   77265   77267   77266   77268   77270   77269   77271
   77273   77272   77274   77276   77275   77277   77279   77278   77280
   77282   77281   77283   77285   77284   77286   77288   77287   77289
   77291   77290   77292   77294   77293   77295   77297   77296   77298
   77300   77299   77301   77303   77302   77304   77306   77305   77307
   77309   77308   77310   77312   77311   77313   77315   77314   77316
   77318   77317   77319   77321   77320   77322   77324   77323   77325
   77327   77326   77328   77330   77329   77331   77333   77332   77334
   77336   77335   77337   77339   77338   77340   77342   77341   77343
   77345   77344   77346   77348   77347   77349   77351   77350   77352
   77354   77353   77355   77357   77356   77358   77360   77359   77361
   77363   77362   77364   77366   77365   77367   77369   77368   77370
   77372   77371   77373   77375   77374   77376   77378   77377   77379
   77381   77380   77382   77384   77383   77385   77387   77386   77388
   77390   77389   77391   77393   77392   77394   77396   77395   77397
   77399   77398   77400   77402   77401   77403   77405   77404   77406
   77408   77407   77409   77411   77410   77412   77414   77413   77415
   77417   77416   77418   77420   77419   77421   77423   77422   77424
   77426   77425   77427   77429   77428   77430   77432   77431   77433
   77435   77434   77436   77438   77437   77439   77441   77440   77442
   77444   77443   77445   77447   77446   77448   77450   77449   77451
   77453   77452   77454   77456   77455   77457   77459   77458   77460
   77462   77461   77463   77465   77464   77466   77468   77467   77469
   77471   77470   77472   77474   77473   77475   77477   77476   77478
   77480   77479   77481   77483   77482   77484   77486   77485   77487
   77489   77488   77490   77492   77491   77493   77495   77494   77496
   77498   77497   77499   77501   77500   77502   77504   77503   77505
   77507   77506   77508   77510   77509   77511   77513   77512   77514
   77516   77515   77517   77519   77518   77520   77522   77521   77523
   77525   77524   77526   77528   77527   77529   77531   77530   77532
   77534   77533   77535   77537   77536   77538   77540   77539   77541
   77543   77542   77544   77546   77545   77547   77549   77548   77550
   77552   77551   77553   77555   77554   77556   77558   77557   77559
   77561   77560   77562   77564   77563   77565   77567   77566   77568
   77570   77569   77571   77573   77572   77574   77576   77575   77577
   77579   77578   77580   77582   77581   77583   77585   77584   77586
   77588   77587   77589   77591   77590   77592   77594   77593   77595
   77597   77596   77598   77600   77599   77601   77603   77602   77604
   77606   77605   77607   77609   77608   77610   77612   77611   77613
   77615   77614   77616   77618   77617   77619   77621   77620   77622
   77624   77623   77625   77627   77626   77628   77630   77629   77631
   77633   77632   77634   77636   77635   77637   77639   77638   77640
   77642   77641   77643   77645   77644   77646   77648   77647   77649
   77651   77650   77652   77654   77653   77655   77657   77656   77658
   77660   77659   77661   77663   77662   77664   77666   77665   77667
   77669   77668   77670   77672   77671   77673   77675   77674   77676
   77678   77677   77679   77681   77680   77682   77684   77683   77685
   77687   77686   77688   77690   77689   77691   77693   77692   77694
   77696   77695   77697   77699   77698   77700   77702   77701   77703
   77705   77704   77706   77708   77707   77709   77711   77710   77712
   77714   77713   77715   77717   77716   77718   77720   77719   77721
   77723   77722   77724   77726   77725   77727   77729   77728   77730
   77732   77731   77733   77735   77734   77736   77738   77737   77739
   77741   77740   77742   77744   77743   77745   77747   77746   77748
   77750   77749   77751   77753   77752   77754   77756   77755   77757
   77759   77758   77760   77762   77761   77763   77765   77764   77766
   77768   77767   77769   77771   77770   77772   77774   77773   77775
   77777   77776   77778   77780   77779   77781   77783   77782   77784
   77786   77785   77787   77789   77788   77790   77792   77791   77793
   77795   77794   77796   77798   77797   77799   77801   77800   77802
   77804   77803   77805   77807   77806   77808   77810   77809   77811
   77813   77812   77814   77816   77815   77817   77819   77818   77820
   77822   77821   77823   77825   77824   77826   77828   77827   77829
   77831   77830   77832   77834   77833   77835   77837   77836   77838
   77840   77839   77841   77843   77842   77844   77846   77845   77847
   77849   77848   77850   77852   77851   77853   77855   77854   77856
   77858   77857   77859   77861   77860   77862   77864   77863   77865
   77867   77866   77868   77870   77869   77871   77873   77872   77874
   77876   77875   77877   77879   77878   77880   77882   77881   77883
   77885   77884   77886   77888   77887   77889   77891   77890   77892
   77894   77893   77895   77897   77896   77898   77900   77899   77901
   77903   77902   77904   77906   77905   77907   77909   77908   77910
   77912   77911   77913   77915   77914   77916   77918   77917   77919
   77921   77920   77922   77924   77923   77925   77927   77926   77928
   77930   77929   77931   77933   77932   77934   77936   77935   77937
   77939   77938   77940   77942   77941   77943   77945   77944   77946
   77948   77947   77949   77951   77950   77952   77954   77953   77955
   77957   77956   77958   77960   77959   77961   77963   77962   77964
   77966   77965   77967   77969   77968   77970   77972   77971   77973
   77975   77974   77976   77978   77977   77979   77981   77980   77982
   77984   77983   77985   77987   77986   77988   77990   77989   77991
   77993   77992   77994   77996   77995   77997   77999   77998   78000
   78002   78001   78003   78005   78004   78006   78008   78007   78009
   78011   78010   78012   78014   78013   78015   78017   78016   78018
   78020   78019   78021   78023   78022   78024   78026   78025   78027
   78029   78028   78030   78032   78031   78033   78035   78034   78036
   78038   78037   78039   78041   78040   78042   78044   78043   78045
   78047   78046   78048   78050   78049   78051   78053   78052   78054
   78056   78055   78057   78059   78058   78060   78062   78061   78063
   78065   78064   78066   78068   78067   78069   78071   78070   78072
   78074   78073   78075   78077   78076   78078   78080   78079   78081
   78083   78082   78084   78086   78085   78087   78089   78088   78090
   78092   78091   78093   78095   78094   78096   78098   78097   78099
   78101   78100   78102   78104   78103   78105   78107   78106   78108
   78110   78109   78111   78113   78112   78114   78116   78115   78117
   78119   78118   78120   78122   78121   78123   78125   78124   78126
   78128   78127   78129   78131   78130   78132   78134   78133   78135
   78137   78136   78138   78140   78139   78141   78143   78142   78144
   78146   78145   78147   78149   78148   78150   78152   78151   78153
   78155   78154   78156   78158   78157   78159   78161   78160   78162
   78164   78163   78165   78167   78166   78168   78170   78169   78171
   78173   78172   78174   78176   78175   78177   78179   78178   78180
   78182   78181   78183   78185   78184   78186   78188   78187   78189
   78191   78190   78192   78194   78193   78195   78197   78196   78198
   78200   78199   78201   78203   78202   78204   78206   78205   78207
   78209   78208   78210   78212   78211   78213   78215   78214   78216
   78218   78217   78219   78221   78220   78222   78224   78223   78225
   78227   78226   78228   78230   78229   78231   78233   78232   78234
   78236   78235   78237   78239   78238   78240   78242   78241   78243
   78245   78244   78246   78248   78247   78249   78251   78250   78252
   78254   78253   78255   78257   78256   78258   78260   78259   78261
   78263   78262   78264   78266   78265   78267   78269   78268   78270
   78272   78271   78273   78275   78274   78276   78278   78277   78279
   78281   78280   78282   78284   78283   78285   78287   78286   78288
   78290   78289   78291   78293   78292   78294   78296   78295   78297
   78299   78298   78300   78302   78301   78303   78305   78304   78306
   78308   78307   78309   78311   78310   78312   78314   78313   78315
   78317   78316   78318   78320   78319   78321   78323   78322   78324
   78326   78325   78327   78329   78328   78330   78332   78331   78333
   78335   78334   78336   78338   78337   78339   78341   78340   78342
   78344   78343   78345   78347   78346   78348   78350   78349   78351
   78353   78352   78354   78356   78355   78357   78359   78358   78360
   78362   78361   78363   78365   78364   78366   78368   78367   78369
   78371   78370   78372   78374   78373   78375   78377   78376   78378
   78380   78379   78381   78383   78382   78384   78386   78385   78387
   78389   78388   78390   78392   78391   78393   78395   78394   78396
   78398   78397   78399   78401   78400   78402   78404   78403   78405
   78407   78406   78408   78410   78409   78411   78413   78412   78414
   78416   78415   78417   78419   78418   78420   78422   78421   78423
   78425   78424   78426   78428   78427   78429   78431   78430   78432
   78434   78433   78435   78437   78436   78438   78440   78439   78441
   78443   78442   78444   78446   78445   78447   78449   78448   78450
   78452   78451   78453   78455   78454   78456   78458   78457   78459
   78461   78460   78462   78464   78463   78465   78467   78466   78468
   78470   78469   78471   78473   78472   78474   78476   78475   78477
   78479   78478   78480   78482   78481   78483   78485   78484   78486
   78488   78487   78489   78491   78490   78492   78494   78493   78495
   78497   78496   78498   78500   78499   78501   78503   78502   78504
   78506   78505   78507   78509   78508   78510   78512   78511   78513
   78515   78514   78516   78518   78517   78519   78521   78520   78522
   78524   78523   78525   78527   78526   78528   78530   78529   78531
   78533   78532   78534   78536   78535   78537   78539   78538   78540
   78542   78541   78543   78545   78544   78546   78548   78547   78549
   78551   78550   78552   78554   78553   78555   78557   78556   78558
   78560   78559   78561   78563   78562   78564   78566   78565   78567
   78569   78568   78570   78572   78571   78573   78575   78574   78576
   78578   78577   78579   78581   78580   78582   78584   78583   78585
   78587   78586   78588   78590   78589   78591   78593   78592   78594
   78596   78595   78597   78599   78598   78600   78602   78601   78603
   78605   78604   78606   78608   78607   78609   78611   78610   78612
   78614   78613   78615   78617   78616   78618   78620   78619   78621
   78623   78622   78624   78626   78625   78627   78629   78628   78630
   78632   78631   78633   78635   78634   78636   78638   78637   78639
   78641   78640   78642   78644   78643   78645   78647   78646   78648
   78650   78649   78651   78653   78652   78654   78656   78655   78657
   78659   78658   78660   78662   78661   78663   78665   78664   78666
   78668   78667   78669   78671   78670   78672   78674   78673   78675
   78677   78676   78678   78680   78679   78681   78683   78682   78684
   78686   78685   78687   78689   78688   78690   78692   78691   78693
   78695   78694   78696   78698   78697   78699   78701   78700   78702
   78704   78703   78705   78707   78706   78708   78710   78709   78711
   78713   78712   78714   78716   78715   78717   78719   78718   78720
   78722   78721   78723   78725   78724   78726   78728   78727   78729
   78731   78730   78732   78734   78733   78735   78737   78736   78738
   78740   78739   78741   78743   78742   78744   78746   78745   78747
   78749   78748   78750   78752   78751   78753   78755   78754   78756
   78758   78757   78759   78761   78760   78762   78764   78763   78765
   78767   78766   78768   78770   78769   78771   78773   78772   78774
   78776   78775   78777   78779   78778   78780   78782   78781   78783
   78785   78784   78786   78788   78787   78789   78791   78790   78792
   78794   78793   78795   78797   78796   78798   78800   78799   78801
   78803   78802   78804   78806   78805   78807   78809   78808   78810
   78812   78811   78813   78815   78814   78816   78818   78817   78819
   78821   78820   78822   78824   78823   78825   78827   78826   78828
   78830   78829   78831   78833   78832   78834   78836   78835   78837
   78839   78838   78840   78842   78841   78843   78845   78844   78846
   78848   78847   78849   78851   78850   78852   78854   78853   78855
   78857   78856   78858   78860   78859   78861   78863   78862   78864
   78866   78865   78867   78869   78868   78870   78872   78871   78873
   78875   78874   78876   78878   78877   78879   78881   78880   78882
   78884   78883   78885   78887   78886   78888   78890   78889   78891
   78893   78892   78894   78896   78895   78897   78899   78898   78900
   78902   78901   78903   78905   78904   78906   78908   78907   78909
   78911   78910   78912   78914   78913   78915   78917   78916   78918
   78920   78919   78921   78923   78922   78924   78926   78925   78927
   78929   78928   78930   78932   78931   78933   78935   78934   78936
   78938   78937   78939   78941   78940   78942   78944   78943   78945
   78947   78946   78948   78950   78949   78951   78953   78952   78954
   78956   78955   78957   78959   78958   78960   78962   78961   78963
   78965   78964   78966   78968   78967   78969   78971   78970   78972
   78974   78973   78975   78977   78976   78978   78980   78979   78981
   78983   78982   78984   78986   78985   78987   78989   78988   78990
   78992   78991   78993   78995   78994   78996   78998   78997   78999
   79001   79000   79002   79004   79003   79005   79007   79006   79008
   79010   79009   79011   79013   79012   79014   79016   79015   79017
   79019   79018   79020   79022   79021   79023   79025   79024   79026
   79028   79027   79029   79031   79030   79032   79034   79033   79035
   79037   79036   79038   79040   79039   79041   79043   79042   79044
   79046   79045   79047   79049   79048   79050   79052   79051   79053
   79055   79054   79056   79058   79057   79059   79061   79060   79062
   79064   79063   79065   79067   79066   79068   79070   79069   79071
   79073   79072   79074   79076   79075   79077   79079   79078   79080
   79082   79081   79083   79085   79084   79086   79088   79087   79089
   79091   79090   79092   79094   79093   79095   79097   79096   79098
   79100   79099   79101   79103   79102   79104   79106   79105   79107
   79109   79108   79110   79112   79111   79113   79115   79114   79116
   79118   79117   79119   79121   79120   79122   79124   79123   79125
   79127   79126   79128   79130   79129   79131   79133   79132   79134
   79136   79135   79137   79139   79138   79140   79142   79141   79143
   79145   79144   79146   79148   79147   79149   79151   79150   79152
   79154   79153   79155   79157   79156   79158   79160   79159   79161
   79163   79162   79164   79166   79165   79167   79169   79168   79170
   79172   79171   79173   79175   79174   79176   79178   79177   79179
   79181   79180   79182   79184   79183   79185   79187   79186   79188
   79190   79189   79191   79193   79192   79194   79196   79195   79197
   79199   79198   79200   79202   79201   79203   79205   79204   79206
   79208   79207   79209   79211   79210   79212   79214   79213   79215
   79217   79216   79218   79220   79219   79221   79223   79222   79224
   79226   79225   79227   79229   79228   79230   79232   79231   79233
   79235   79234   79236   79238   79237   79239   79241   79240   79242
   79244   79243   79245   79247   79246   79248   79250   79249   79251
   79253   79252   79254   79256   79255   79257   79259   79258   79260
   79262   79261   79263   79265   79264   79266   79268   79267   79269
   79271   79270   79272   79274   79273   79275   79277   79276   79278
   79280   79279   79281   79283   79282   79284   79286   79285   79287
   79289   79288   79290   79292   79291   79293   79295   79294   79296
   79298   79297   79299   79301   79300   79302   79304   79303   79305
   79307   79306   79308   79310   79309   79311   79313   79312   79314
   79316   79315   79317   79319   79318   79320   79322   79321   79323
   79325   79324   79326   79328   79327   79329   79331   79330   79332
   79334   79333   79335   79337   79336   79338   79340   79339   79341
   79343   79342   79344   79346   79345   79347   79349   79348   79350
   79352   79351   79353   79355   79354   79356   79358   79357   79359
   79361   79360   79362   79364   79363   79365   79367   79366   79368
   79370   79369   79371   79373   79372   79374   79376   79375   79377
   79379   79378   79380   79382   79381   79383   79385   79384   79386
   79388   79387   79389   79391   79390   79392   79394   79393   79395
   79397   79396   79398   79400   79399   79401   79403   79402   79404
   79406   79405   79407   79409   79408   79410   79412   79411   79413
   79415   79414   79416   79418   79417   79419   79421   79420   79422
   79424   79423   79425   79427   79426   79428   79430   79429   79431
   79433   79432   79434   79436   79435   79437   79439   79438   79440
   79442   79441   79443   79445   79444   79446   79448   79447   79449
   79451   79450   79452   79454   79453   79455   79457   79456   79458
   79460   79459   79461   79463   79462   79464   79466   79465   79467
   79469   79468   79470   79472   79471   79473   79475   79474   79476
   79478   79477   79479   79481   79480   79482   79484   79483   79485
   79487   79486   79488   79490   79489   79491   79493   79492   79494
   79496   79495   79497   79499   79498   79500   79502   79501   79503
   79505   79504   79506   79508   79507   79509   79511   79510   79512
   79514   79513   79515   79517   79516   79518   79520   79519   79521
   79523   79522   79524   79526   79525   79527   79529   79528   79530
   79532   79531   79533   79535   79534   79536   79538   79537   79539
   79541   79540   79542   79544   79543   79545   79547   79546   79548
   79550   79549   79551   79553   79552   79554   79556   79555   79557
   79559   79558   79560   79562   79561   79563   79565   79564   79566
   79568   79567   79569   79571   79570   79572   79574   79573   79575
   79577   79576   79578   79580   79579   79581   79583   79582   79584
   79586   79585   79587   79589   79588   79590   79592   79591   79593
   79595   79594   79596   79598   79597   79599   79601   79600   79602
   79604   79603   79605   79607   79606   79608   79610   79609   79611
   79613   79612   79614   79616   79615   79617   79619   79618   79620
   79622   79621   79623   79625   79624   79626   79628   79627   79629
   79631   79630   79632   79634   79633   79635   79637   79636   79638
   79640   79639   79641   79643   79642   79644   79646   79645   79647
   79649   79648   79650   79652   79651   79653   79655   79654   79656
   79658   79657   79659   79661   79660   79662   79664   79663   79665
   79667   79666   79668   79670   79669   79671   79673   79672   79674
   79676   79675   79677   79679   79678   79680   79682   79681   79683
   79685   79684   79686   79688   79687   79689   79691   79690   79692
   79694   79693   79695   79697   79696   79698   79700   79699   79701
   79703   79702   79704   79706   79705   79707   79709   79708   79710
   79712   79711   79713   79715   79714   79716   79718   79717   79719
   79721   79720   79722   79724   79723   79725   79727   79726   79728
   79730   79729   79731   79733   79732   79734   79736   79735   79737
   79739   79738   79740   79742   79741   79743   79745   79744   79746
   79748   79747   79749   79751   79750   79752   79754   79753   79755
   79757   79756   79758   79760   79759   79761   79763   79762   79764
   79766   79765   79767   79769   79768   79770   79772   79771   79773
   79775   79774   79776   79778   79777   79779   79781   79780   79782
   79784   79783   79785   79787   79786   79788   79790   79789   79791
   79793   79792   79794   79796   79795   79797   79799   79798   79800
   79802   79801   79803   79805   79804   79806   79808   79807   79809
   79811   79810   79812   79814   79813   79815   79817   79816   79818
   79820   79819   79821   79823   79822   79824   79826   79825   79827
   79829   79828   79830   79832   79831   79833   79835   79834   79836
   79838   79837   79839   79841   79840   79842   79844   79843   79845
   79847   79846   79848   79850   79849   79851   79853   79852   79854
   79856   79855   79857   79859   79858   79860   79862   79861   79863
   79865   79864   79866   79868   79867   79869   79871   79870   79872
   79874   79873   79875   79877   79876   79878   79880   79879   79881
   79883   79882   79884   79886   79885   79887   79889   79888   79890
   79892   79891   79893   79895   79894   79896   79898   79897   79899
   79901   79900   79902   79904   79903   79905   79907   79906   79908
   79910   79909   79911   79913   79912   79914   79916   79915   79917
   79919   79918   79920   79922   79921   79923   79925   79924   79926
   79928   79927   79929   79931   79930   79932   79934   79933   79935
   79937   79936   79938   79940   79939   79941   79943   79942   79944
   79946   79945   79947   79949   79948   79950   79952   79951   79953
   79955   79954   79956   79958   79957   79959   79961   79960   79962
   79964   79963   79965   79967   79966   79968   79970   79969   79971
   79973   79972   79974   79976   79975   79977   79979   79978   79980
   79982   79981   79983   79985   79984   79986   79988   79987   79989
   79991   79990   79992   79994   79993   79995   79997   79996   79998
   80000   79999   80001   80003   80002   80004   80006   80005   80007
   80009   80008   80010   80012   80011   80013   80015   80014   80016
   80018   80017   80019   80021   80020   80022   80024   80023   80025
   80027   80026   80028   80030   80029   80031   80033   80032   80034
   80036   80035   80037   80039   80038   80040   80042   80041   80043
   80045   80044   80046   80048   80047   80049   80051   80050   80052
   80054   80053   80055   80057   80056   80058   80060   80059   80061
   80063   80062   80064   80066   80065   80067   80069   80068   80070
   80072   80071   80073   80075   80074   80076   80078   80077   80079
   80081   80080   80082   80084   80083   80085   80087   80086   80088
   80090   80089   80091   80093   80092   80094   80096   80095   80097
   80099   80098   80100   80102   80101   80103   80105   80104   80106
   80108   80107   80109   80111   80110   80112   80114   80113   80115
   80117   80116   80118   80120   80119   80121   80123   80122   80124
   80126   80125   80127   80129   80128   80130   80132   80131   80133
   80135   80134   80136   80138   80137   80139   80141   80140   80142
   80144   80143   80145   80147   80146   80148   80150   80149   80151
   80153   80152   80154   80156   80155   80157   80159   80158   80160
   80162   80161   80163   80165   80164   80166   80168   80167   80169
   80171   80170   80172   80174   80173   80175   80177   80176   80178
   80180   80179   80181   80183   80182   80184   80186   80185   80187
   80189   80188   80190   80192   80191   80193   80195   80194   80196
   80198   80197   80199   80201   80200   80202   80204   80203   80205
   80207   80206   80208   80210   80209   80211   80213   80212   80214
   80216   80215   80217   80219   80218   80220   80222   80221   80223
   80225   80224   80226   80228   80227   80229   80231   80230   80232
   80234   80233   80235   80237   80236   80238   80240   80239   80241
   80243   80242   80244   80246   80245   80247   80249   80248   80250
   80252   80251   80253   80255   80254   80256   80258   80257   80259
   80261   80260   80262   80264   80263   80265   80267   80266   80268
   80270   80269   80271   80273   80272   80274   80276   80275   80277
   80279   80278   80280   80282   80281   80283   80285   80284   80286
   80288   80287   80289   80291   80290   80292   80294   80293   80295
   80297   80296   80298   80300   80299   80301   80303   80302   80304
   80306   80305   80307   80309   80308   80310   80312   80311   80313
   80315   80314   80316   80318   80317   80319   80321   80320   80322
   80324   80323   80325   80327   80326   80328   80330   80329   80331
   80333   80332   80334   80336   80335   80337   80339   80338   80340
   80342   80341   80343   80345   80344   80346   80348   80347   80349
   80351   80350   80352   80354   80353   80355   80357   80356   80358
   80360   80359   80361   80363   80362   80364   80366   80365   80367
   80369   80368   80370   80372   80371   80373   80375   80374   80376
   80378   80377   80379   80381   80380   80382   80384   80383   80385
   80387   80386   80388   80390   80389   80391   80393   80392   80394
   80396   80395   80397   80399   80398   80400   80402   80401   80403
   80405   80404   80406   80408   80407   80409   80411   80410   80412
   80414   80413   80415   80417   80416   80418   80420   80419   80421
   80423   80422   80424   80426   80425   80427   80429   80428   80430
   80432   80431   80433   80435   80434   80436   80438   80437   80439
   80441   80440   80442   80444   80443   80445   80447   80446   80448
   80450   80449   80451   80453   80452   80454   80456   80455   80457
   80459   80458   80460   80462   80461   80463   80465   80464   80466
   80468   80467   80469   80471   80470   80472   80474   80473   80475
   80477   80476   80478   80480   80479   80481   80483   80482   80484
   80486   80485   80487   80489   80488   80490   80492   80491   80493
   80495   80494   80496   80498   80497   80499   80501   80500   80502
   80504   80503   80505   80507   80506   80508   80510   80509   80511
   80513   80512   80514   80516   80515   80517   80519   80518   80520
   80522   80521   80523   80525   80524   80526   80528   80527   80529
   80531   80530   80532   80534   80533   80535   80537   80536   80538
   80540   80539   80541   80543   80542   80544   80546   80545   80547
   80549   80548   80550   80552   80551   80553   80555   80554   80556
   80558   80557   80559   80561   80560   80562   80564   80563   80565
   80567   80566   80568   80570   80569   80571   80573   80572   80574
   80576   80575   80577   80579   80578   80580   80582   80581   80583
   80585   80584   80586   80588   80587   80589   80591   80590   80592
   80594   80593   80595   80597   80596   80598   80600   80599   80601
   80603   80602   80604   80606   80605   80607   80609   80608   80610
   80612   80611   80613   80615   80614   80616   80618   80617   80619
   80621   80620   80622   80624   80623   80625   80627   80626   80628
   80630   80629   80631   80633   80632   80634   80636   80635   80637
   80639   80638   80640   80642   80641   80643   80645   80644   80646
   80648   80647   80649   80651   80650   80652   80654   80653   80655
   80657   80656   80658   80660   80659   80661   80663   80662   80664
   80666   80665   80667   80669   80668   80670   80672   80671   80673
   80675   80674   80676   80678   80677   80679   80681   80680   80682
   80684   80683   80685   80687   80686   80688   80690   80689   80691
   80693   80692   80694   80696   80695   80697   80699   80698   80700
   80702   80701   80703   80705   80704   80706   80708   80707   80709
   80711   80710   80712   80714   80713   80715   80717   80716   80718
   80720   80719   80721   80723   80722   80724   80726   80725   80727
   80729   80728   80730   80732   80731   80733   80735   80734   80736
   80738   80737   80739   80741   80740   80742   80744   80743   80745
   80747   80746   80748   80750   80749   80751   80753   80752   80754
   80756   80755   80757   80759   80758   80760   80762   80761   80763
   80765   80764   80766   80768   80767   80769   80771   80770   80772
   80774   80773   80775   80777   80776   80778   80780   80779   80781
   80783   80782   80784   80786   80785   80787   80789   80788   80790
   80792   80791   80793   80795   80794   80796   80798   80797   80799
   80801   80800   80802   80804   80803   80805   80807   80806   80808
   80810   80809   80811   80813   80812   80814   80816   80815   80817
   80819   80818   80820   80822   80821   80823   80825   80824   80826
   80828   80827   80829   80831   80830   80832   80834   80833   80835
   80837   80836   80838   80840   80839   80841   80843   80842   80844
   80846   80845   80847   80849   80848   80850   80852   80851   80853
   80855   80854   80856   80858   80857   80859   80861   80860   80862
   80864   80863   80865   80867   80866   80868   80870   80869   80871
   80873   80872   80874   80876   80875   80877   80879   80878   80880
   80882   80881   80883   80885   80884   80886   80888   80887   80889
   80891   80890   80892   80894   80893   80895   80897   80896   80898
   80900   80899   80901   80903   80902   80904   80906   80905   80907
   80909   80908   80910   80912   80911   80913   80915   80914   80916
   80918   80917   80919   80921   80920   80922   80924   80923   80925
   80927   80926   80928   80930   80929   80931   80933   80932   80934
   80936   80935   80937   80939   80938   80940   80942   80941   80943
   80945   80944   80946   80948   80947   80949   80951   80950   80952
   80954   80953   80955   80957   80956   80958   80960   80959   80961
   80963   80962   80964   80966   80965   80967   80969   80968   80970
   80972   80971   80973   80975   80974   80976   80978   80977   80979
   80981   80980   80982   80984   80983   80985   80987   80986   80988
   80990   80989   80991   80993   80992   80994   80996   80995   80997
   80999   80998   81000   81002   81001   81003   81005   81004   81006
   81008   81007   81009   81011   81010   81012   81014   81013   81015
   81017   81016   81018   81020   81019   81021   81023   81022   81024
   81026   81025   81027   81029   81028   81030   81032   81031   81033
   81035   81034   81036   81038   81037   81039   81041   81040   81042
   81044   81043   81045   81047   81046   81048   81050   81049   81051
   81053   81052   81054   81056   81055   81057   81059   81058   81060
   81062   81061   81063   81065   81064   81066   81068   81067   81069
   81071   81070   81072   81074   81073   81075   81077   81076   81078
   81080   81079   81081   81083   81082   81084   81086   81085   81087
   81089   81088   81090   81092   81091   81093   81095   81094   81096
   81098   81097   81099   81101   81100   81102   81104   81103   81105
   81107   81106   81108   81110   81109   81111   81113   81112   81114
   81116   81115   81117   81119   81118   81120   81122   81121   81123
   81125   81124   81126   81128   81127   81129   81131   81130   81132
   81134   81133   81135   81137   81136   81138   81140   81139   81141
   81143   81142   81144   81146   81145   81147   81149   81148   81150
   81152   81151   81153   81155   81154   81156   81158   81157   81159
   81161   81160   81162   81164   81163   81165   81167   81166   81168
   81170   81169   81171   81173   81172   81174   81176   81175   81177
   81179   81178   81180   81182   81181   81183   81185   81184   81186
   81188   81187   81189   81191   81190   81192   81194   81193   81195
   81197   81196   81198   81200   81199   81201   81203   81202   81204
   81206   81205   81207   81209   81208   81210   81212   81211   81213
   81215   81214   81216   81218   81217   81219   81221   81220   81222
   81224   81223   81225   81227   81226   81228   81230   81229   81231
   81233   81232   81234   81236   81235   81237   81239   81238   81240
   81242   81241   81243   81245   81244   81246   81248   81247   81249
   81251   81250   81252   81254   81253   81255   81257   81256   81258
   81260   81259   81261   81263   81262   81264   81266   81265   81267
   81269   81268   81270   81272   81271   81273   81275   81274   81276
   81278   81277   81279   81281   81280   81282   81284   81283   81285
   81287   81286   81288   81290   81289   81291   81293   81292   81294
   81296   81295   81297   81299   81298   81300   81302   81301   81303
   81305   81304   81306   81308   81307   81309   81311   81310   81312
   81314   81313   81315   81317   81316   81318   81320   81319   81321
   81323   81322   81324   81326   81325   81327   81329   81328   81330
   81332   81331   81333   81335   81334   81336   81338   81337   81339
   81341   81340   81342   81344   81343   81345   81347   81346   81348
   81350   81349   81351   81353   81352   81354   81356   81355   81357
   81359   81358   81360   81362   81361   81363   81365   81364   81366
   81368   81367   81369   81371   81370   81372   81374   81373   81375
   81377   81376   81378   81380   81379   81381   81383   81382   81384
   81386   81385   81387   81389   81388   81390   81392   81391   81393
   81395   81394   81396   81398   81397   81399   81401   81400   81402
   81404   81403   81405   81407   81406   81408   81410   81409   81411
   81413   81412   81414   81416   81415   81417   81419   81418   81420
   81422   81421   81423   81425   81424   81426   81428   81427   81429
   81431   81430   81432   81434   81433   81435   81437   81436   81438
   81440   81439   81441   81443   81442   81444   81446   81445   81447
   81449   81448   81450   81452   81451   81453   81455   81454   81456
   81458   81457   81459   81461   81460   81462   81464   81463   81465
   81467   81466   81468   81470   81469   81471   81473   81472   81474
   81476   81475   81477   81479   81478   81480   81482   81481   81483
   81485   81484   81486   81488   81487   81489   81491   81490   81492
   81494   81493   81495   81497   81496   81498   81500   81499   81501
   81503   81502   81504   81506   81505   81507   81509   81508   81510
   81512   81511   81513   81515   81514   81516   81518   81517   81519
   81521   81520   81522   81524   81523   81525   81527   81526   81528
   81530   81529   81531   81533   81532   81534   81536   81535   81537
   81539   81538   81540   81542   81541   81543   81545   81544   81546
   81548   81547   81549   81551   81550   81552   81554   81553   81555
   81557   81556   81558   81560   81559   81561   81563   81562   81564
   81566   81565   81567   81569   81568   81570   81572   81571   81573
   81575   81574   81576   81578   81577   81579   81581   81580   81582
   81584   81583   81585   81587   81586   81588   81590   81589   81591
   81593   81592   81594   81596   81595   81597   81599   81598   81600
   81602   81601   81603   81605   81604   81606   81608   81607   81609
   81611   81610   81612   81614   81613   81615   81617   81616   81618
   81620   81619   81621   81623   81622   81624   81626   81625   81627
   81629   81628   81630   81632   81631   81633   81635   81634   81636
   81638   81637   81639   81641   81640   81642   81644   81643   81645
   81647   81646   81648   81650   81649   81651   81653   81652   81654
   81656   81655   81657   81659   81658   81660   81662   81661   81663
   81665   81664   81666   81668   81667   81669   81671   81670   81672
   81674   81673   81675   81677   81676   81678   81680   81679   81681
   81683   81682   81684   81686   81685   81687   81689   81688   81690
   81692   81691   81693   81695   81694   81696   81698   81697   81699
   81701   81700   81702   81704   81703   81705   81707   81706   81708
   81710   81709   81711   81713   81712   81714   81716   81715   81717
   81719   81718   81720   81722   81721   81723   81725   81724   81726
   81728   81727   81729   81731   81730   81732   81734   81733   81735
   81737   81736   81738   81740   81739   81741   81743   81742   81744
   81746   81745   81747   81749   81748   81750   81752   81751   81753
   81755   81754   81756   81758   81757   81759   81761   81760   81762
   81764   81763   81765   81767   81766   81768   81770   81769   81771
   81773   81772   81774   81776   81775   81777   81779   81778   81780
   81782   81781   81783   81785   81784   81786   81788   81787   81789
   81791   81790   81792   81794   81793   81795   81797   81796   81798
   81800   81799   81801   81803   81802   81804   81806   81805   81807
   81809   81808   81810   81812   81811   81813   81815   81814   81816
   81818   81817   81819   81821   81820   81822   81824   81823   81825
   81827   81826   81828   81830   81829   81831   81833   81832   81834
   81836   81835   81837   81839   81838   81840   81842   81841   81843
   81845   81844   81846   81848   81847   81849   81851   81850   81852
   81854   81853   81855   81857   81856   81858   81860   81859   81861
   81863   81862   81864   81866   81865   81867   81869   81868   81870
   81872   81871   81873   81875   81874   81876   81878   81877   81879
   81881   81880   81882   81884   81883   81885   81887   81886   81888
   81890   81889   81891   81893   81892   81894   81896   81895   81897
   81899   81898   81900   81902   81901   81903   81905   81904   81906
   81908   81907   81909   81911   81910   81912   81914   81913   81915
   81917   81916   81918   81920   81919   81921   81923   81922   81924
   81926   81925   81927   81929   81928   81930   81932   81931   81933
   81935   81934   81936   81938   81937   81939   81941   81940   81942
   81944   81943   81945   81947   81946   81948   81950   81949   81951
   81953   81952   81954   81956   81955   81957   81959   81958   81960
   81962   81961   81963   81965   81964   81966   81968   81967   81969
   81971   81970   81972   81974   81973   81975   81977   81976   81978
   81980   81979   81981   81983   81982   81984   81986   81985   81987
   81989   81988   81990   81992   81991   81993   81995   81994   81996
   81998   81997   81999   82001   82000   82002   82004   82003   82005
   82007   82006   82008   82010   82009   82011   82013   82012   82014
   82016   82015   82017   82019   82018   82020   82022   82021   82023
   82025   82024   82026   82028   82027   82029   82031   82030   82032
   82034   82033   82035   82037   82036   82038   82040   82039   82041
   82043   82042   82044   82046   82045   82047   82049   82048   82050
   82052   82051   82053   82055   82054   82056   82058   82057   82059
   82061   82060   82062   82064   82063   82065   82067   82066   82068
   82070   82069   82071   82073   82072   82074   82076   82075   82077
   82079   82078   82080   82082   82081   82083   82085   82084   82086
   82088   82087   82089   82091   82090   82092   82094   82093   82095
   82097   82096   82098   82100   82099   82101   82103   82102   82104
   82106   82105   82107   82109   82108   82110   82112   82111   82113
   82115   82114   82116   82118   82117   82119   82121   82120   82122
   82124   82123   82125   82127   82126   82128   82130   82129   82131
   82133   82132   82134   82136   82135   82137   82139   82138   82140
   82142   82141   82143   82145   82144   82146   82148   82147   82149
   82151   82150   82152   82154   82153   82155   82157   82156   82158
   82160   82159   82161   82163   82162   82164   82166   82165   82167
   82169   82168   82170   82172   82171   82173   82175   82174   82176
   82178   82177   82179   82181   82180   82182   82184   82183   82185
   82187   82186   82188   82190   82189   82191   82193   82192   82194
   82196   82195   82197   82199   82198   82200   82202   82201   82203
   82205   82204   82206   82208   82207   82209   82211   82210   82212
   82214   82213   82215   82217   82216   82218   82220   82219   82221
   82223   82222   82224   82226   82225   82227   82229   82228   82230
   82232   82231   82233   82235   82234   82236   82238   82237   82239
   82241   82240   82242   82244   82243   82245   82247   82246   82248
   82250   82249   82251   82253   82252   82254   82256   82255   82257
   82259   82258   82260   82262   82261   82263   82265   82264   82266
   82268   82267   82269   82271   82270   82272   82274   82273   82275
   82277   82276   82278   82280   82279   82281   82283   82282   82284
   82286   82285   82287   82289   82288   82290   82292   82291   82293
   82295   82294   82296   82298   82297   82299   82301   82300   82302
   82304   82303   82305   82307   82306   82308   82310   82309   82311
   82313   82312   82314   82316   82315   82317   82319   82318   82320
   82322   82321   82323   82325   82324   82326   82328   82327   82329
   82331   82330   82332   82334   82333   82335   82337   82336   82338
   82340   82339   82341   82343   82342   82344   82346   82345   82347
   82349   82348   82350   82352   82351   82353   82355   82354   82356
   82358   82357   82359   82361   82360   82362   82364   82363   82365
   82367   82366   82368   82370   82369   82371   82373   82372   82374
   82376   82375   82377   82379   82378   82380   82382   82381   82383
   82385   82384   82386   82388   82387   82389   82391   82390   82392
   82394   82393   82395   82397   82396   82398   82400   82399   82401
   82403   82402   82404   82406   82405   82407   82409   82408   82410
   82412   82411   82413   82415   82414   82416   82418   82417   82419
   82421   82420   82422   82424   82423   82425   82427   82426   82428
   82430   82429   82431   82433   82432   82434   82436   82435   82437
   82439   82438   82440   82442   82441   82443   82445   82444   82446
   82448   82447   82449   82451   82450   82452   82454   82453   82455
   82457   82456   82458   82460   82459   82461   82463   82462   82464
   82466   82465   82467   82469   82468   82470   82472   82471   82473
   82475   82474   82476   82478   82477   82479   82481   82480   82482
   82484   82483   82485   82487   82486   82488   82490   82489   82491
   82493   82492   82494   82496   82495   82497   82499   82498   82500
   82502   82501   82503   82505   82504   82506   82508   82507   82509
   82511   82510   82512   82514   82513   82515   82517   82516   82518
   82520   82519   82521   82523   82522   82524   82526   82525   82527
   82529   82528   82530   82532   82531   82533   82535   82534   82536
   82538   82537   82539   82541   82540   82542   82544   82543   82545
   82547   82546   82548   82550   82549   82551   82553   82552   82554
   82556   82555   82557   82559   82558   82560   82562   82561   82563
   82565   82564   82566   82568   82567   82569   82571   82570   82572
   82574   82573   82575   82577   82576   82578   82580   82579   82581
   82583   82582   82584   82586   82585   82587   82589   82588   82590
   82592   82591   82593   82595   82594   82596   82598   82597   82599
   82601   82600   82602   82604   82603   82605   82607   82606   82608
   82610   82609   82611   82613   82612   82614   82616   82615   82617
   82619   82618   82620   82622   82621   82623   82625   82624   82626
   82628   82627   82629   82631   82630   82632   82634   82633   82635
   82637   82636   82638   82640   82639   82641   82643   82642   82644
   82646   82645   82647   82649   82648   82650   82652   82651   82653
   82655   82654   82656   82658   82657   82659   82661   82660   82662
   82664   82663   82665   82667   82666   82668   82670   82669   82671
   82673   82672   82674   82676   82675   82677   82679   82678   82680
   82682   82681   82683   82685   82684   82686   82688   82687   82689
   82691   82690   82692   82694   82693   82695   82697   82696   82698
   82700   82699   82701   82703   82702   82704   82706   82705   82707
   82709   82708   82710   82712   82711   82713   82715   82714   82716
   82718   82717   82719   82721   82720   82722   82724   82723   82725
   82727   82726   82728   82730   82729   82731   82733   82732   82734
   82736   82735   82737   82739   82738   82740   82742   82741   82743
   82745   82744   82746   82748   82747   82749   82751   82750   82752
   82754   82753   82755   82757   82756   82758   82760   82759   82761
   82763   82762   82764   82766   82765   82767   82769   82768   82770
   82772   82771   82773   82775   82774   82776   82778   82777   82779
   82781   82780   82782   82784   82783   82785   82787   82786   82788
   82790   82789   82791   82793   82792   82794   82796   82795   82797
   82799   82798   82800   82802   82801   82803   82805   82804   82806
   82808   82807   82809   82811   82810   82812   82814   82813   82815
   82817   82816   82818   82820   82819   82821   82823   82822   82824
   82826   82825   82827   82829   82828   82830   82832   82831   82833
   82835   82834   82836   82838   82837   82839   82841   82840   82842
   82844   82843   82845   82847   82846   82848   82850   82849   82851
   82853   82852   82854   82856   82855   82857   82859   82858   82860
   82862   82861   82863   82865   82864   82866   82868   82867   82869
   82871   82870   82872   82874   82873   82875   82877   82876   82878
   82880   82879   82881   82883   82882   82884   82886   82885   82887
   82889   82888   82890   82892   82891   82893   82895   82894   82896
   82898   82897   82899   82901   82900   82902   82904   82903   82905
   82907   82906   82908   82910   82909   82911   82913   82912   82914
   82916   82915   82917   82919   82918   82920   82922   82921   82923
   82925   82924   82926   82928   82927   82929   82931   82930   82932
   82934   82933   82935   82937   82936   82938   82940   82939   82941
   82943   82942   82944   82946   82945   82947   82949   82948   82950
   82952   82951   82953   82955   82954   82956   82958   82957   82959
   82961   82960   82962   82964   82963   82965   82967   82966   82968
   82970   82969   82971   82973   82972   82974   82976   82975   82977
   82979   82978   82980   82982   82981   82983   82985   82984   82986
   82988   82987   82989   82991   82990   82992   82994   82993   82995
   82997   82996   82998   83000   82999   83001   83003   83002   83004
   83006   83005   83007   83009   83008   83010   83012   83011   83013
   83015   83014   83016   83018   83017   83019   83021   83020   83022
   83024   83023   83025   83027   83026   83028   83030   83029   83031
   83033   83032   83034   83036   83035   83037   83039   83038   83040
   83042   83041   83043   83045   83044   83046   83048   83047   83049
   83051   83050   83052   83054   83053   83055   83057   83056   83058
   83060   83059   83061   83063   83062   83064   83066   83065   83067
   83069   83068   83070   83072   83071   83073   83075   83074   83076
   83078   83077   83079   83081   83080   83082   83084   83083   83085
   83087   83086   83088   83090   83089   83091   83093   83092   83094
   83096   83095   83097   83099   83098   83100   83102   83101   83103
   83105   83104   83106   83108   83107   83109   83111   83110   83112
   83114   83113   83115   83117   83116   83118   83120   83119   83121
   83123   83122   83124   83126   83125   83127   83129   83128   83130
   83132   83131   83133   83135   83134   83136   83138   83137   83139
   83141   83140   83142   83144   83143   83145   83147   83146   83148
   83150   83149   83151   83153   83152   83154   83156   83155   83157
   83159   83158   83160   83162   83161   83163   83165   83164   83166
   83168   83167   83169   83171   83170   83172   83174   83173   83175
   83177   83176   83178   83180   83179   83181   83183   83182   83184
   83186   83185   83187   83189   83188   83190   83192   83191   83193
   83195   83194   83196   83198   83197   83199   83201   83200   83202
   83204   83203   83205   83207   83206   83208   83210   83209   83211
   83213   83212   83214   83216   83215   83217   83219   83218   83220
   83222   83221   83223   83225   83224   83226   83228   83227   83229
   83231   83230   83232   83234   83233   83235   83237   83236   83238
   83240   83239   83241   83243   83242   83244   83246   83245   83247
   83249   83248   83250   83252   83251   83253   83255   83254   83256
   83258   83257   83259   83261   83260   83262   83264   83263   83265
   83267   83266   83268   83270   83269   83271   83273   83272   83274
   83276   83275   83277   83279   83278   83280   83282   83281   83283
   83285   83284   83286   83288   83287   83289   83291   83290   83292
   83294   83293   83295   83297   83296   83298   83300   83299   83301
   83303   83302   83304   83306   83305   83307   83309   83308   83310
   83312   83311   83313   83315   83314   83316   83318   83317   83319
   83321   83320   83322   83324   83323   83325   83327   83326   83328
   83330   83329   83331   83333   83332   83334   83336   83335   83337
   83339   83338   83340   83342   83341   83343   83345   83344   83346
   83348   83347   83349   83351   83350   83352   83354   83353   83355
   83357   83356   83358   83360   83359   83361   83363   83362   83364
   83366   83365   83367   83369   83368   83370   83372   83371   83373
   83375   83374   83376   83378   83377   83379   83381   83380   83382
   83384   83383   83385   83387   83386   83388   83390   83389   83391
   83393   83392   83394   83396   83395   83397   83399   83398   83400
   83402   83401   83403   83405   83404   83406   83408   83407   83409
   83411   83410   83412   83414   83413   83415   83417   83416   83418
   83420   83419   83421   83423   83422   83424   83426   83425   83427
   83429   83428   83430   83432   83431   83433   83435   83434   83436
   83438   83437   83439   83441   83440   83442   83444   83443   83445
   83447   83446   83448   83450   83449   83451   83453   83452   83454
   83456   83455   83457   83459   83458   83460   83462   83461   83463
   83465   83464   83466   83468   83467   83469   83471   83470   83472
   83474   83473   83475   83477   83476   83478   83480   83479   83481
   83483   83482   83484   83486   83485   83487   83489   83488   83490
   83492   83491   83493   83495   83494   83496   83498   83497   83499
   83501   83500   83502   83504   83503   83505   83507   83506   83508
   83510   83509   83511   83513   83512   83514   83516   83515   83517
   83519   83518   83520   83522   83521   83523   83525   83524   83526
   83528   83527   83529   83531   83530   83532   83534   83533   83535
   83537   83536   83538   83540   83539   83541   83543   83542   83544
   83546   83545   83547   83549   83548   83550   83552   83551   83553
   83555   83554   83556   83558   83557   83559   83561   83560   83562
   83564   83563   83565   83567   83566   83568   83570   83569   83571
   83573   83572   83574   83576   83575   83577   83579   83578   83580
   83582   83581   83583   83585   83584   83586   83588   83587   83589
   83591   83590   83592   83594   83593   83595   83597   83596   83598
   83600   83599   83601   83603   83602   83604   83606   83605   83607
   83609   83608   83610   83612   83611   83613   83615   83614   83616
   83618   83617   83619   83621   83620   83622   83624   83623   83625
   83627   83626   83628   83630   83629   83631   83633   83632   83634
   83636   83635   83637   83639   83638   83640   83642   83641   83643
   83645   83644   83646   83648   83647   83649   83651   83650   83652
   83654   83653   83655   83657   83656   83658   83660   83659   83661
   83663   83662   83664   83666   83665   83667   83669   83668   83670
   83672   83671   83673   83675   83674   83676   83678   83677   83679
   83681   83680   83682   83684   83683   83685   83687   83686   83688
   83690   83689   83691   83693   83692   83694   83696   83695   83697
   83699   83698   83700   83702   83701   83703   83705   83704   83706
   83708   83707   83709   83711   83710   83712   83714   83713   83715
   83717   83716   83718   83720   83719   83721   83723   83722   83724
   83726   83725   83727   83729   83728   83730   83732   83731   83733
   83735   83734   83736   83738   83737   83739   83741   83740   83742
   83744   83743   83745   83747   83746   83748   83750   83749   83751
   83753   83752   83754   83756   83755   83757   83759   83758   83760
   83762   83761   83763   83765   83764   83766   83768   83767   83769
   83771   83770   83772   83774   83773   83775   83777   83776   83778
   83780   83779   83781   83783   83782   83784   83786   83785   83787
   83789   83788   83790   83792   83791   83793   83795   83794   83796
   83798   83797   83799   83801   83800   83802   83804   83803   83805
   83807   83806   83808   83810   83809   83811   83813   83812   83814
   83816   83815   83817   83819   83818   83820   83822   83821   83823
   83825   83824   83826   83828   83827   83829   83831   83830   83832
   83834   83833   83835   83837   83836   83838   83840   83839   83841
   83843   83842   83844   83846   83845   83847   83849   83848   83850
   83852   83851   83853   83855   83854   83856   83858   83857   83859
   83861   83860   83862   83864   83863   83865   83867   83866   83868
   83870   83869   83871   83873   83872   83874   83876   83875   83877
   83879   83878   83880   83882   83881   83883   83885   83884   83886
   83888   83887   83889   83891   83890   83892   83894   83893   83895
   83897   83896   83898   83900   83899   83901   83903   83902   83904
   83906   83905   83907   83909   83908   83910   83912   83911   83913
   83915   83914   83916   83918   83917   83919   83921   83920   83922
   83924   83923   83925   83927   83926   83928   83930   83929   83931
   83933   83932   83934   83936   83935   83937   83939   83938   83940
   83942   83941   83943   83945   83944   83946   83948   83947   83949
   83951   83950   83952   83954   83953   83955   83957   83956   83958
   83960   83959   83961   83963   83962   83964   83966   83965   83967
   83969   83968   83970   83972   83971   83973   83975   83974   83976
   83978   83977   83979   83981   83980   83982   83984   83983   83985
   83987   83986   83988   83990   83989   83991   83993   83992   83994
   83996   83995   83997   83999   83998   84000   84002   84001   84003
   84005   84004   84006   84008   84007   84009   84011   84010   84012
   84014   84013   84015   84017   84016   84018   84020   84019   84021
   84023   84022   84024   84026   84025   84027   84029   84028   84030
   84032   84031   84033   84035   84034   84036   84038   84037   84039
   84041   84040   84042   84044   84043   84045   84047   84046   84048
   84050   84049   84051   84053   84052   84054   84056   84055   84057
   84059   84058   84060   84062   84061   84063   84065   84064   84066
   84068   84067   84069   84071   84070   84072   84074   84073   84075
   84077   84076   84078   84080   84079   84081   84083   84082   84084
   84086   84085   84087   84089   84088   84090   84092   84091   84093
   84095   84094   84096   84098   84097   84099   84101   84100   84102
   84104   84103   84105   84107   84106   84108   84110   84109   84111
   84113   84112   84114   84116   84115   84117   84119   84118   84120
   84122   84121   84123   84125   84124   84126   84128   84127   84129
   84131   84130   84132   84134   84133   84135   84137   84136   84138
   84140   84139   84141   84143   84142   84144   84146   84145   84147
   84149   84148   84150   84152   84151   84153   84155   84154   84156
   84158   84157   84159   84161   84160   84162   84164   84163   84165
   84167   84166   84168   84170   84169   84171   84173   84172   84174
   84176   84175   84177   84179   84178   84180   84182   84181   84183
   84185   84184   84186   84188   84187   84189   84191   84190   84192
   84194   84193   84195   84197   84196   84198   84200   84199   84201
   84203   84202   84204   84206   84205   84207   84209   84208   84210
   84212   84211   84213   84215   84214   84216   84218   84217   84219
   84221   84220   84222   84224   84223   84225   84227   84226   84228
   84230   84229   84231   84233   84232   84234   84236   84235   84237
   84239   84238   84240   84242   84241   84243   84245   84244   84246
   84248   84247   84249   84251   84250   84252   84254   84253   84255
   84257   84256   84258   84260   84259   84261   84263   84262   84264
   84266   84265   84267   84269   84268   84270   84272   84271   84273
   84275   84274   84276   84278   84277   84279   84281   84280   84282
   84284   84283   84285   84287   84286   84288   84290   84289   84291
   84293   84292   84294   84296   84295   84297   84299   84298   84300
   84302   84301   84303   84305   84304   84306   84308   84307   84309
   84311   84310   84312   84314   84313   84315   84317   84316   84318
   84320   84319   84321   84323   84322   84324   84326   84325   84327
   84329   84328   84330   84332   84331   84333   84335   84334   84336
   84338   84337   84339   84341   84340   84342   84344   84343   84345
   84347   84346   84348   84350   84349   84351   84353   84352   84354
   84356   84355   84357   84359   84358   84360   84362   84361   84363
   84365   84364   84366   84368   84367   84369   84371   84370   84372
   84374   84373   84375   84377   84376   84378   84380   84379   84381
   84383   84382   84384   84386   84385   84387   84389   84388   84390
   84392   84391   84393   84395   84394   84396   84398   84397   84399
   84401   84400   84402   84404   84403   84405   84407   84406   84408
   84410   84409   84411   84413   84412   84414   84416   84415   84417
   84419   84418   84420   84422   84421   84423   84425   84424   84426
   84428   84427   84429   84431   84430   84432   84434   84433   84435
   84437   84436   84438   84440   84439   84441   84443   84442   84444
   84446   84445   84447   84449   84448   84450   84452   84451   84453
   84455   84454   84456   84458   84457   84459   84461   84460   84462
   84464   84463   84465   84467   84466   84468   84470   84469   84471
   84473   84472   84474   84476   84475   84477   84479   84478   84480
   84482   84481   84483   84485   84484   84486   84488   84487   84489
   84491   84490   84492   84494   84493   84495   84497   84496   84498
   84500   84499   84501   84503   84502   84504   84506   84505   84507
   84509   84508   84510   84512   84511   84513   84515   84514   84516
   84518   84517   84519   84521   84520   84522   84524   84523   84525
   84527   84526   84528   84530   84529   84531   84533   84532   84534
   84536   84535   84537   84539   84538   84540   84542   84541   84543
   84545   84544   84546   84548   84547   84549   84551   84550   84552
   84554   84553   84555   84557   84556   84558   84560   84559   84561
   84563   84562   84564   84566   84565   84567   84569   84568   84570
   84572   84571   84573   84575   84574   84576   84578   84577   84579
   84581   84580   84582   84584   84583   84585   84587   84586   84588
   84590   84589   84591   84593   84592   84594   84596   84595   84597
   84599   84598   84600   84602   84601   84603   84605   84604   84606
   84608   84607   84609   84611   84610   84612   84614   84613   84615
   84617   84616   84618   84620   84619   84621   84623   84622   84624
   84626   84625   84627   84629   84628   84630   84632   84631   84633
   84635   84634   84636   84638   84637   84639   84641   84640   84642
   84644   84643   84645   84647   84646   84648   84650   84649   84651
   84653   84652   84654   84656   84655   84657   84659   84658   84660
   84662   84661   84663   84665   84664   84666   84668   84667   84669
   84671   84670   84672   84674   84673   84675   84677   84676   84678
   84680   84679   84681   84683   84682   84684   84686   84685   84687
   84689   84688   84690   84692   84691   84693   84695   84694   84696
   84698   84697   84699   84701   84700   84702   84704   84703   84705
   84707   84706   84708   84710   84709   84711   84713   84712   84714
   84716   84715   84717   84719   84718   84720   84722   84721   84723
   84725   84724   84726   84728   84727   84729   84731   84730   84732
   84734   84733   84735   84737   84736   84738   84740   84739   84741
   84743   84742   84744   84746   84745   84747   84749   84748   84750
   84752   84751   84753   84755   84754   84756   84758   84757   84759
   84761   84760   84762   84764   84763   84765   84767   84766   84768
   84770   84769   84771   84773   84772   84774   84776   84775   84777
   84779   84778   84780   84782   84781   84783   84785   84784   84786
   84788   84787   84789   84791   84790   84792   84794   84793   84795
   84797   84796   84798   84800   84799   84801   84803   84802   84804
   84806   84805   84807   84809   84808   84810   84812   84811   84813
   84815   84814   84816   84818   84817   84819   84821   84820   84822
   84824   84823   84825   84827   84826   84828   84830   84829   84831
   84833   84832   84834   84836   84835   84837   84839   84838   84840
   84842   84841   84843   84845   84844   84846   84848   84847   84849
   84851   84850   84852   84854   84853   84855   84857   84856   84858
   84860   84859   84861   84863   84862   84864   84866   84865   84867
   84869   84868   84870   84872   84871   84873   84875   84874   84876
   84878   84877   84879   84881   84880   84882   84884   84883   84885
   84887   84886   84888   84890   84889   84891   84893   84892   84894
   84896   84895   84897   84899   84898   84900   84902   84901   84903
   84905   84904   84906   84908   84907   84909   84911   84910   84912
   84914   84913   84915   84917   84916   84918   84920   84919   84921
   84923   84922   84924   84926   84925   84927   84929   84928   84930
   84932   84931   84933   84935   84934   84936   84938   84937   84939
   84941   84940   84942   84944   84943   84945   84947   84946   84948
   84950   84949   84951   84953   84952   84954   84956   84955   84957
   84959   84958   84960   84962   84961   84963   84965   84964   84966
   84968   84967   84969   84971   84970   84972   84974   84973   84975
   84977   84976   84978   84980   84979   84981   84983   84982   84984
   84986   84985   84987   84989   84988   84990   84992   84991   84993
   84995   84994   84996   84998   84997   84999   85001   85000   85002
   85004   85003   85005   85007   85006   85008   85010   85009   85011
   85013   85012   85014   85016   85015   85017   85019   85018   85020
   85022   85021   85023   85025   85024   85026   85028   85027   85029
   85031   85030   85032   85034   85033   85035   85037   85036   85038
   85040   85039   85041   85043   85042   85044   85046   85045   85047
   85049   85048   85050   85052   85051   85053   85055   85054   85056
   85058   85057   85059   85061   85060   85062   85064   85063   85065
   85067   85066   85068   85070   85069   85071   85073   85072   85074
   85076   85075   85077   85079   85078   85080   85082   85081   85083
   85085   85084   85086   85088   85087   85089   85091   85090   85092
   85094   85093   85095   85097   85096   85098   85100   85099   85101
   85103   85102   85104   85106   85105   85107   85109   85108   85110
   85112   85111   85113   85115   85114   85116   85118   85117   85119
   85121   85120   85122   85124   85123   85125   85127   85126   85128
   85130   85129   85131   85133   85132   85134   85136   85135   85137
   85139   85138   85140   85142   85141   85143   85145   85144   85146
   85148   85147   85149   85151   85150   85152   85154   85153   85155
   85157   85156   85158   85160   85159   85161   85163   85162   85164
   85166   85165   85167   85169   85168   85170   85172   85171   85173
   85175   85174   85176   85178   85177   85179   85181   85180   85182
   85184   85183   85185   85187   85186   85188   85190   85189   85191
   85193   85192   85194   85196   85195   85197   85199   85198   85200
   85202   85201   85203   85205   85204   85206   85208   85207   85209
   85211   85210   85212   85214   85213   85215   85217   85216   85218
   85220   85219   85221   85223   85222   85224   85226   85225   85227
   85229   85228   85230   85232   85231   85233   85235   85234   85236
   85238   85237   85239   85241   85240   85242   85244   85243   85245
   85247   85246   85248   85250   85249   85251   85253   85252   85254
   85256   85255   85257   85259   85258   85260   85262   85261   85263
   85265   85264   85266   85268   85267   85269   85271   85270   85272
   85274   85273   85275   85277   85276   85278   85280   85279   85281
   85283   85282   85284   85286   85285   85287   85289   85288   85290
   85292   85291   85293   85295   85294   85296   85298   85297   85299
   85301   85300   85302   85304   85303   85305   85307   85306   85308
   85310   85309   85311   85313   85312   85314   85316   85315   85317
   85319   85318   85320   85322   85321   85323   85325   85324   85326
   85328   85327   85329   85331   85330   85332   85334   85333   85335
   85337   85336   85338   85340   85339   85341   85343   85342   85344
   85346   85345   85347   85349   85348   85350   85352   85351   85353
   85355   85354   85356   85358   85357   85359   85361   85360   85362
   85364   85363   85365   85367   85366   85368   85370   85369   85371
   85373   85372   85374   85376   85375   85377   85379   85378   85380
   85382   85381   85383   85385   85384   85386   85388   85387   85389
   85391   85390   85392   85394   85393   85395   85397   85396   85398
   85400   85399   85401   85403   85402   85404   85406   85405   85407
   85409   85408   85410   85412   85411   85413   85415   85414   85416
   85418   85417   85419   85421   85420   85422   85424   85423   85425
   85427   85426   85428   85430   85429   85431   85433   85432   85434
   85436   85435   85437   85439   85438   85440   85442   85441   85443
   85445   85444   85446   85448   85447   85449   85451   85450   85452
   85454   85453   85455   85457   85456   85458   85460   85459   85461
   85463   85462   85464   85466   85465   85467   85469   85468   85470
   85472   85471   85473   85475   85474   85476   85478   85477   85479
   85481   85480   85482   85484   85483   85485   85487   85486   85488
   85490   85489   85491   85493   85492   85494   85496   85495   85497
   85499   85498   85500   85502   85501   85503   85505   85504   85506
   85508   85507   85509   85511   85510   85512   85514   85513   85515
   85517   85516   85518   85520   85519   85521   85523   85522   85524
   85526   85525   85527   85529   85528   85530   85532   85531   85533
   85535   85534   85536   85538   85537   85539   85541   85540   85542
   85544   85543   85545   85547   85546   85548   85550   85549   85551
   85553   85552   85554   85556   85555   85557   85559   85558   85560
   85562   85561   85563   85565   85564   85566   85568   85567   85569
   85571   85570   85572   85574   85573   85575   85577   85576   85578
   85580   85579   85581   85583   85582   85584   85586   85585   85587
   85589   85588   85590   85592   85591   85593   85595   85594   85596
   85598   85597   85599   85601   85600   85602   85604   85603   85605
   85607   85606   85608   85610   85609   85611   85613   85612   85614
   85616   85615   85617   85619   85618   85620   85622   85621   85623
   85625   85624   85626   85628   85627   85629   85631   85630   85632
   85634   85633   85635   85637   85636   85638   85640   85639   85641
   85643   85642   85644   85646   85645   85647   85649   85648   85650
   85652   85651   85653   85655   85654   85656   85658   85657   85659
   85661   85660   85662   85664   85663   85665   85667   85666   85668
   85670   85669   85671   85673   85672   85674   85676   85675   85677
   85679   85678   85680   85682   85681   85683   85685   85684   85686
   85688   85687   85689   85691   85690   85692   85694   85693   85695
   85697   85696   85698   85700   85699   85701   85703   85702   85704
   85706   85705   85707   85709   85708   85710   85712   85711   85713
   85715   85714   85716   85718   85717   85719   85721   85720   85722
   85724   85723   85725   85727   85726   85728   85730   85729   85731
   85733   85732   85734   85736   85735   85737   85739   85738   85740
   85742   85741   85743   85745   85744   85746   85748   85747   85749
   85751   85750   85752   85754   85753   85755   85757   85756   85758
   85760   85759   85761   85763   85762   85764   85766   85765   85767
   85769   85768   85770   85772   85771   85773   85775   85774   85776
   85778   85777   85779   85781   85780   85782   85784   85783   85785
   85787   85786   85788   85790   85789   85791   85793   85792   85794
   85796   85795   85797   85799   85798   85800   85802   85801   85803
   85805   85804   85806   85808   85807   85809   85811   85810   85812
   85814   85813   85815   85817   85816   85818   85820   85819   85821
   85823   85822   85824   85826   85825   85827   85829   85828   85830
   85832   85831   85833   85835   85834   85836   85838   85837   85839
   85841   85840   85842   85844   85843   85845   85847   85846   85848
   85850   85849   85851   85853   85852   85854   85856   85855   85857
   85859   85858   85860   85862   85861   85863   85865   85864   85866
   85868   85867   85869   85871   85870   85872   85874   85873   85875
   85877   85876   85878   85880   85879   85881   85883   85882   85884
   85886   85885   85887   85889   85888   85890   85892   85891   85893
   85895   85894   85896   85898   85897   85899   85901   85900   85902
   85904   85903   85905   85907   85906   85908   85910   85909   85911
   85913   85912   85914   85916   85915   85917   85919   85918   85920
   85922   85921   85923   85925   85924   85926   85928   85927   85929
   85931   85930   85932   85934   85933   85935   85937   85936   85938
   85940   85939   85941   85943   85942   85944   85946   85945   85947
   85949   85948   85950   85952   85951   85953   85955   85954   85956
   85958   85957   85959   85961   85960   85962   85964   85963   85965
   85967   85966   85968   85970   85969   85971   85973   85972   85974
   85976   85975   85977   85979   85978   85980   85982   85981   85983
   85985   85984   85986   85988   85987   85989   85991   85990   85992
   85994   85993   85995   85997   85996   85998   86000   85999   86001
   86003   86002   86004   86006   86005   86007   86009   86008   86010
   86012   86011   86013   86015   86014   86016   86018   86017   86019
   86021   86020   86022   86024   86023   86025   86027   86026   86028
   86030   86029   86031   86033   86032   86034   86036   86035   86037
   86039   86038   86040   86042   86041   86043   86045   86044   86046
   86048   86047   86049   86051   86050   86052   86054   86053   86055
   86057   86056   86058   86060   86059   86061   86063   86062   86064
   86066   86065   86067   86069   86068   86070   86072   86071   86073
   86075   86074   86076   86078   86077   86079   86081   86080   86082
   86084   86083   86085   86087   86086   86088   86090   86089   86091
   86093   86092   86094   86096   86095   86097   86099   86098   86100
   86102   86101   86103   86105   86104   86106   86108   86107   86109
   86111   86110   86112   86114   86113   86115   86117   86116   86118
   86120   86119   86121   86123   86122   86124   86126   86125   86127
   86129   86128   86130   86132   86131   86133   86135   86134   86136
   86138   86137   86139   86141   86140   86142   86144   86143   86145
   86147   86146   86148   86150   86149   86151   86153   86152   86154
   86156   86155   86157   86159   86158   86160   86162   86161   86163
   86165   86164   86166   86168   86167   86169   86171   86170   86172
   86174   86173   86175   86177   86176   86178   86180   86179   86181
   86183   86182   86184   86186   86185   86187   86189   86188   86190
   86192   86191   86193   86195   86194   86196   86198   86197   86199
   86201   86200   86202   86204   86203   86205   86207   86206   86208
   86210   86209   86211   86213   86212   86214   86216   86215   86217
   86219   86218   86220   86222   86221   86223   86225   86224   86226
   86228   86227   86229   86231   86230   86232   86234   86233   86235
   86237   86236   86238   86240   86239   86241   86243   86242   86244
   86246   86245   86247   86249   86248   86250   86252   86251   86253
   86255   86254   86256   86258   86257   86259   86261   86260   86262
   86264   86263   86265   86267   86266   86268   86270   86269   86271
   86273   86272   86274   86276   86275   86277   86279   86278   86280
   86282   86281   86283   86285   86284   86286   86288   86287   86289
   86291   86290   86292   86294   86293   86295   86297   86296   86298
   86300   86299   86301   86303   86302   86304   86306   86305   86307
   86309   86308   86310   86312   86311   86313   86315   86314   86316
   86318   86317   86319   86321   86320   86322   86324   86323   86325
   86327   86326   86328   86330   86329   86331   86333   86332   86334
   86336   86335   86337   86339   86338   86340   86342   86341   86343
   86345   86344   86346   86348   86347   86349   86351   86350   86352
   86354   86353   86355   86357   86356   86358   86360   86359   86361
   86363   86362   86364   86366   86365   86367   86369   86368   86370
   86372   86371   86373   86375   86374   86376   86378   86377   86379
   86381   86380   86382   86384   86383   86385   86387   86386   86388
   86390   86389   86391   86393   86392   86394   86396   86395   86397
   86399   86398   86400   86402   86401   86403   86405   86404   86406
   86408   86407   86409   86411   86410   86412   86414   86413   86415
   86417   86416   86418   86420   86419   86421   86423   86422   86424
   86426   86425   86427   86429   86428   86430   86432   86431   86433
   86435   86434   86436   86438   86437   86439   86441   86440   86442
   86444   86443   86445   86447   86446   86448   86450   86449   86451
   86453   86452   86454   86456   86455   86457   86459   86458   86460
   86462   86461   86463   86465   86464   86466   86468   86467   86469
   86471   86470   86472   86474   86473   86475   86477   86476   86478
   86480   86479   86481   86483   86482   86484   86486   86485   86487
   86489   86488   86490   86492   86491   86493   86495   86494   86496
   86498   86497   86499   86501   86500   86502   86504   86503   86505
   86507   86506   86508   86510   86509   86511   86513   86512   86514
   86516   86515   86517   86519   86518   86520   86522   86521   86523
   86525   86524   86526   86528   86527   86529   86531   86530   86532
   86534   86533   86535   86537   86536   86538   86540   86539   86541
   86543   86542   86544   86546   86545   86547   86549   86548   86550
   86552   86551   86553   86555   86554   86556   86558   86557   86559
   86561   86560   86562   86564   86563   86565   86567   86566   86568
   86570   86569   86571   86573   86572   86574   86576   86575   86577
   86579   86578   86580   86582   86581   86583   86585   86584   86586
   86588   86587   86589   86591   86590   86592   86594   86593   86595
   86597   86596   86598   86600   86599   86601   86603   86602   86604
   86606   86605   86607   86609   86608   86610   86612   86611   86613
   86615   86614   86616   86618   86617   86619   86621   86620   86622
   86624   86623   86625   86627   86626   86628   86630   86629   86631
   86633   86632   86634   86636   86635   86637   86639   86638   86640
   86642   86641   86643   86645   86644   86646   86648   86647   86649
   86651   86650   86652   86654   86653   86655   86657   86656   86658
   86660   86659   86661   86663   86662   86664   86666   86665   86667
   86669   86668   86670   86672   86671   86673   86675   86674   86676
   86678   86677   86679   86681   86680   86682   86684   86683   86685
   86687   86686   86688   86690   86689   86691   86693   86692   86694
   86696   86695   86697   86699   86698   86700   86702   86701   86703
   86705   86704   86706   86708   86707   86709   86711   86710   86712
   86714   86713   86715   86717   86716   86718   86720   86719   86721
   86723   86722   86724   86726   86725   86727   86729   86728   86730
   86732   86731   86733   86735   86734   86736   86738   86737   86739
   86741   86740   86742   86744   86743   86745   86747   86746   86748
   86750   86749   86751   86753   86752   86754   86756   86755   86757
   86759   86758   86760   86762   86761   86763   86765   86764   86766
   86768   86767   86769   86771   86770   86772   86774   86773   86775
   86777   86776   86778   86780   86779   86781   86783   86782   86784
   86786   86785   86787   86789   86788   86790   86792   86791   86793
   86795   86794   86796   86798   86797   86799   86801   86800   86802
   86804   86803   86805   86807   86806   86808   86810   86809   86811
   86813   86812   86814   86816   86815   86817   86819   86818   86820
   86822   86821   86823   86825   86824   86826   86828   86827   86829
   86831   86830   86832   86834   86833   86835   86837   86836   86838
   86840   86839   86841   86843   86842   86844   86846   86845   86847
   86849   86848   86850   86852   86851   86853   86855   86854   86856
   86858   86857   86859   86861   86860   86862   86864   86863   86865
   86867   86866   86868   86870   86869   86871   86873   86872   86874
   86876   86875   86877   86879   86878   86880   86882   86881   86883
   86885   86884   86886   86888   86887   86889   86891   86890   86892
   86894   86893   86895   86897   86896   86898   86900   86899   86901
   86903   86902   86904   86906   86905   86907   86909   86908   86910
   86912   86911   86913   86915   86914   86916   86918   86917   86919
   86921   86920   86922   86924   86923   86925   86927   86926   86928
   86930   86929   86931   86933   86932   86934   86936   86935   86937
   86939   86938   86940   86942   86941   86943   86945   86944   86946
   86948   86947   86949   86951   86950   86952   86954   86953   86955
   86957   86956   86958   86960   86959   86961   86963   86962   86964
   86966   86965   86967   86969   86968   86970   86972   86971   86973
   86975   86974   86976   86978   86977   86979   86981   86980   86982
   86984   86983   86985   86987   86986   86988   86990   86989   86991
   86993   86992   86994   86996   86995   86997   86999   86998   87000
   87002   87001   87003   87005   87004   87006   87008   87007   87009
   87011   87010   87012   87014   87013   87015   87017   87016   87018
   87020   87019   87021   87023   87022   87024   87026   87025   87027
   87029   87028   87030   87032   87031   87033   87035   87034   87036
   87038   87037   87039   87041   87040   87042   87044   87043   87045
   87047   87046   87048   87050   87049   87051   87053   87052   87054
   87056   87055   87057   87059   87058   87060   87062   87061   87063
   87065   87064   87066   87068   87067   87069   87071   87070   87072
   87074   87073   87075   87077   87076   87078   87080   87079   87081
   87083   87082   87084   87086   87085   87087   87089   87088   87090
   87092   87091   87093   87095   87094   87096   87098   87097   87099
   87101   87100   87102   87104   87103   87105   87107   87106   87108
   87110   87109   87111   87113   87112   87114   87116   87115   87117
   87119   87118   87120   87122   87121   87123   87125   87124   87126
   87128   87127   87129   87131   87130   87132   87134   87133   87135
   87137   87136   87138   87140   87139   87141   87143   87142   87144
   87146   87145   87147   87149   87148   87150   87152   87151   87153
   87155   87154   87156   87158   87157   87159   87161   87160   87162
   87164   87163   87165   87167   87166   87168   87170   87169   87171
   87173   87172   87174   87176   87175   87177   87179   87178   87180
   87182   87181   87183   87185   87184   87186   87188   87187   87189
   87191   87190   87192   87194   87193   87195   87197   87196   87198
   87200   87199   87201   87203   87202   87204   87206   87205   87207
   87209   87208   87210   87212   87211   87213   87215   87214   87216
   87218   87217   87219   87221   87220   87222   87224   87223   87225
   87227   87226   87228   87230   87229   87231   87233   87232   87234
   87236   87235   87237   87239   87238   87240   87242   87241   87243
   87245   87244   87246   87248   87247   87249   87251   87250   87252
   87254   87253   87255   87257   87256   87258   87260   87259   87261
   87263   87262   87264   87266   87265   87267   87269   87268   87270
   87272   87271   87273   87275   87274   87276   87278   87277   87279
   87281   87280   87282   87284   87283   87285   87287   87286   87288
   87290   87289   87291   87293   87292   87294   87296   87295   87297
   87299   87298   87300   87302   87301   87303   87305   87304   87306
   87308   87307   87309   87311   87310   87312   87314   87313   87315
   87317   87316   87318   87320   87319   87321   87323   87322   87324
   87326   87325   87327   87329   87328   87330   87332   87331   87333
   87335   87334   87336   87338   87337   87339   87341   87340   87342
   87344   87343   87345   87347   87346   87348   87350   87349   87351
   87353   87352   87354   87356   87355   87357   87359   87358   87360
   87362   87361   87363   87365   87364   87366   87368   87367   87369
   87371   87370   87372   87374   87373   87375   87377   87376   87378
   87380   87379   87381   87383   87382   87384   87386   87385   87387
   87389   87388   87390   87392   87391   87393   87395   87394   87396
   87398   87397   87399   87401   87400   87402   87404   87403   87405
   87407   87406   87408   87410   87409   87411   87413   87412   87414
   87416   87415   87417   87419   87418   87420   87422   87421   87423
   87425   87424   87426   87428   87427   87429   87431   87430   87432
   87434   87433   87435   87437   87436   87438   87440   87439   87441
   87443   87442   87444   87446   87445   87447   87449   87448   87450
   87452   87451   87453   87455   87454   87456   87458   87457   87459
   87461   87460   87462   87464   87463   87465   87467   87466   87468
   87470   87469   87471   87473   87472   87474   87476   87475   87477
   87479   87478   87480   87482   87481   87483   87485   87484   87486
   87488   87487   87489   87491   87490   87492   87494   87493   87495
   87497   87496   87498   87500   87499   87501   87503   87502   87504
   87506   87505   87507   87509   87508   87510   87512   87511   87513
   87515   87514   87516   87518   87517   87519   87521   87520   87522
   87524   87523   87525   87527   87526   87528   87530   87529   87531
   87533   87532   87534   87536   87535   87537   87539   87538   87540
   87542   87541   87543   87545   87544   87546   87548   87547   87549
   87551   87550   87552   87554   87553   87555   87557   87556   87558
   87560   87559   87561   87563   87562   87564   87566   87565   87567
   87569   87568   87570   87572   87571   87573   87575   87574   87576
   87578   87577   87579   87581   87580   87582   87584   87583   87585
   87587   87586   87588   87590   87589   87591   87593   87592   87594
   87596   87595   87597   87599   87598   87600   87602   87601   87603
   87605   87604   87606   87608   87607   87609   87611   87610   87612
   87614   87613   87615   87617   87616   87618   87620   87619   87621
   87623   87622   87624   87626   87625   87627   87629   87628   87630
   87632   87631   87633   87635   87634   87636   87638   87637   87639
   87641   87640   87642   87644   87643   87645   87647   87646   87648
   87650   87649   87651   87653   87652   87654   87656   87655   87657
   87659   87658   87660   87662   87661   87663   87665   87664   87666
   87668   87667   87669   87671   87670   87672   87674   87673   87675
   87677   87676   87678   87680   87679   87681   87683   87682   87684
   87686   87685   87687   87689   87688   87690   87692   87691   87693
   87695   87694   87696   87698   87697   87699   87701   87700   87702
   87704   87703   87705   87707   87706   87708   87710   87709   87711
   87713   87712   87714   87716   87715   87717   87719   87718   87720
   87722   87721   87723   87725   87724   87726   87728   87727   87729
   87731   87730   87732   87734   87733   87735   87737   87736   87738
   87740   87739   87741   87743   87742   87744   87746   87745   87747
   87749   87748   87750   87752   87751   87753   87755   87754   87756
   87758   87757   87759   87761   87760   87762   87764   87763   87765
   87767   87766   87768   87770   87769   87771   87773   87772   87774
   87776   87775   87777   87779   87778   87780   87782   87781   87783
   87785   87784   87786   87788   87787   87789   87791   87790   87792
   87794   87793   87795   87797   87796   87798   87800   87799   87801
   87803   87802   87804   87806   87805   87807   87809   87808   87810
   87812   87811   87813   87815   87814   87816   87818   87817   87819
   87821   87820   87822   87824   87823   87825   87827   87826   87828
   87830   87829   87831   87833   87832   87834   87836   87835   87837
   87839   87838   87840   87842   87841   87843   87845   87844   87846
   87848   87847   87849   87851   87850   87852   87854   87853   87855
   87857   87856   87858   87860   87859   87861   87863   87862   87864
   87866   87865   87867   87869   87868   87870   87872   87871   87873
   87875   87874   87876   87878   87877   87879   87881   87880   87882
   87884   87883   87885   87887   87886   87888   87890   87889   87891
   87893   87892   87894   87896   87895   87897   87899   87898   87900
   87902   87901   87903   87905   87904   87906   87908   87907   87909
   87911   87910   87912   87914   87913   87915   87917   87916   87918
   87920   87919   87921   87923   87922   87924   87926   87925   87927
   87929   87928   87930   87932   87931   87933   87935   87934   87936
   87938   87937   87939   87941   87940   87942   87944   87943   87945
   87947   87946   87948   87950   87949   87951   87953   87952   87954
   87956   87955   87957   87959   87958   87960   87962   87961   87963
   87965   87964   87966   87968   87967   87969   87971   87970   87972
   87974   87973   87975   87977   87976   87978   87980   87979   87981
   87983   87982   87984   87986   87985   87987   87989   87988   87990
   87992   87991   87993   87995   87994   87996   87998   87997   87999
   88001   88000   88002   88004   88003   88005   88007   88006   88008
   88010   88009   88011   88013   88012   88014   88016   88015   88017
   88019   88018   88020   88022   88021   88023   88025   88024   88026
   88028   88027   88029   88031   88030   88032   88034   88033   88035
   88037   88036   88038   88040   88039   88041   88043   88042   88044
   88046   88045   88047   88049   88048   88050   88052   88051   88053
   88055   88054   88056   88058   88057   88059   88061   88060   88062
   88064   88063   88065   88067   88066   88068   88070   88069   88071
   88073   88072   88074   88076   88075   88077   88079   88078   88080
   88082   88081   88083   88085   88084   88086   88088   88087   88089
   88091   88090   88092   88094   88093   88095   88097   88096   88098
   88100   88099   88101   88103   88102   88104   88106   88105   88107
   88109   88108   88110   88112   88111   88113   88115   88114   88116
   88118   88117   88119   88121   88120   88122   88124   88123   88125
   88127   88126   88128   88130   88129   88131   88133   88132   88134
   88136   88135   88137   88139   88138   88140   88142   88141   88143
   88145   88144   88146   88148   88147   88149   88151   88150   88152
   88154   88153   88155   88157   88156   88158   88160   88159   88161
   88163   88162   88164   88166   88165   88167   88169   88168   88170
   88172   88171   88173   88175   88174   88176   88178   88177   88179
   88181   88180   88182   88184   88183   88185   88187   88186   88188
   88190   88189   88191   88193   88192   88194   88196   88195   88197
   88199   88198   88200   88202   88201   88203   88205   88204   88206
   88208   88207   88209   88211   88210   88212   88214   88213   88215
   88217   88216   88218   88220   88219   88221   88223   88222   88224
   88226   88225   88227   88229   88228   88230   88232   88231   88233
   88235   88234   88236   88238   88237   88239   88241   88240   88242
   88244   88243   88245   88247   88246   88248   88250   88249   88251
   88253   88252   88254   88256   88255   88257   88259   88258   88260
   88262   88261   88263   88265   88264   88266   88268   88267   88269
   88271   88270   88272   88274   88273   88275   88277   88276   88278
   88280   88279   88281   88283   88282   88284   88286   88285   88287
   88289   88288   88290   88292   88291   88293   88295   88294   88296
   88298   88297   88299   88301   88300   88302   88304   88303   88305
   88307   88306   88308   88310   88309   88311   88313   88312   88314
   88316   88315   88317   88319   88318   88320   88322   88321   88323
   88325   88324   88326   88328   88327   88329   88331   88330   88332
   88334   88333   88335   88337   88336   88338   88340   88339   88341
   88343   88342   88344   88346   88345   88347   88349   88348   88350
   88352   88351   88353   88355   88354   88356   88358   88357   88359
   88361   88360   88362   88364   88363   88365   88367   88366   88368
   88370   88369   88371   88373   88372   88374   88376   88375   88377
   88379   88378   88380   88382   88381   88383   88385   88384   88386
   88388   88387   88389   88391   88390   88392   88394   88393   88395
   88397   88396   88398   88400   88399   88401   88403   88402   88404
   88406   88405   88407   88409   88408   88410   88412   88411   88413
   88415   88414   88416   88418   88417   88419   88421   88420   88422
   88424   88423   88425   88427   88426   88428   88430   88429   88431
   88433   88432   88434   88436   88435   88437   88439   88438   88440
   88442   88441   88443   88445   88444   88446   88448   88447   88449
   88451   88450   88452   88454   88453   88455   88457   88456   88458
   88460   88459   88461   88463   88462   88464   88466   88465   88467
   88469   88468   88470   88472   88471   88473   88475   88474   88476
   88478   88477   88479   88481   88480   88482   88484   88483   88485
   88487   88486   88488   88490   88489   88491   88493   88492   88494
   88496   88495   88497   88499   88498   88500   88502   88501   88503
   88505   88504   88506   88508   88507   88509   88511   88510   88512
   88514   88513   88515   88517   88516   88518   88520   88519   88521
   88523   88522   88524   88526   88525   88527   88529   88528   88530
   88532   88531   88533   88535   88534   88536   88538   88537   88539
   88541   88540   88542   88544   88543   88545   88547   88546   88548
   88550   88549   88551   88553   88552   88554   88556   88555   88557
   88559   88558   88560   88562   88561   88563   88565   88564   88566
   88568   88567   88569   88571   88570   88572   88574   88573   88575
   88577   88576   88578   88580   88579   88581   88583   88582   88584
   88586   88585   88587   88589   88588   88590   88592   88591   88593
   88595   88594   88596   88598   88597   88599   88601   88600   88602
   88604   88603   88605   88607   88606   88608   88610   88609   88611
   88613   88612   88614   88616   88615   88617   88619   88618   88620
   88622   88621   88623   88625   88624   88626   88628   88627   88629
   88631   88630   88632   88634   88633   88635   88637   88636   88638
   88640   88639   88641   88643   88642   88644   88646   88645   88647
   88649   88648   88650   88652   88651   88653   88655   88654   88656
   88658   88657   88659   88661   88660   88662   88664   88663   88665
   88667   88666   88668   88670   88669   88671   88673   88672   88674
   88676   88675   88677   88679   88678   88680   88682   88681   88683
   88685   88684   88686   88688   88687   88689   88691   88690   88692
   88694   88693   88695   88697   88696   88698   88700   88699   88701
   88703   88702   88704   88706   88705   88707   88709   88708   88710
   88712   88711   88713   88715   88714   88716   88718   88717   88719
   88721   88720   88722   88724   88723   88725   88727   88726   88728
   88730   88729   88731   88733   88732   88734   88736   88735   88737
   88739   88738   88740   88742   88741   88743   88745   88744   88746
   88748   88747   88749   88751   88750   88752   88754   88753   88755
   88757   88756   88758   88760   88759   88761   88763   88762   88764
   88766   88765   88767   88769   88768   88770   88772   88771   88773
   88775   88774   88776   88778   88777   88779   88781   88780   88782
   88784   88783   88785   88787   88786   88788   88790   88789   88791
   88793   88792   88794   88796   88795   88797   88799   88798   88800
   88802   88801   88803   88805   88804   88806   88808   88807   88809
   88811   88810   88812   88814   88813   88815   88817   88816   88818
   88820   88819   88821   88823   88822   88824   88826   88825   88827
   88829   88828   88830   88832   88831   88833   88835   88834   88836
   88838   88837   88839   88841   88840   88842   88844   88843   88845
   88847   88846   88848   88850   88849   88851   88853   88852   88854
   88856   88855   88857   88859   88858   88860   88862   88861   88863
   88865   88864   88866   88868   88867   88869   88871   88870   88872
   88874   88873   88875   88877   88876   88878   88880   88879   88881
   88883   88882   88884   88886   88885   88887   88889   88888   88890
   88892   88891   88893   88895   88894   88896   88898   88897   88899
   88901   88900   88902   88904   88903   88905   88907   88906   88908
   88910   88909   88911   88913   88912   88914   88916   88915   88917
   88919   88918   88920   88922   88921   88923   88925   88924   88926
   88928   88927   88929   88931   88930   88932   88934   88933   88935
   88937   88936   88938   88940   88939   88941   88943   88942   88944
   88946   88945   88947   88949   88948   88950   88952   88951   88953
   88955   88954   88956   88958   88957   88959   88961   88960   88962
   88964   88963   88965   88967   88966   88968   88970   88969   88971
   88973   88972   88974   88976   88975   88977   88979   88978   88980
   88982   88981   88983   88985   88984   88986   88988   88987   88989
   88991   88990   88992   88994   88993   88995   88997   88996   88998
   89000   88999   89001   89003   89002   89004   89006   89005   89007
   89009   89008   89010   89012   89011   89013   89015   89014   89016
   89018   89017   89019   89021   89020   89022   89024   89023   89025
   89027   89026   89028   89030   89029   89031   89033   89032   89034
   89036   89035   89037   89039   89038   89040   89042   89041   89043
   89045   89044   89046   89048   89047   89049   89051   89050   89052
   89054   89053   89055   89057   89056   89058   89060   89059   89061
   89063   89062   89064   89066   89065   89067   89069   89068   89070
   89072   89071   89073   89075   89074   89076   89078   89077   89079
   89081   89080   89082   89084   89083   89085   89087   89086   89088
   89090   89089   89091   89093   89092   89094   89096   89095   89097
   89099   89098   89100   89102   89101   89103   89105   89104   89106
   89108   89107   89109   89111   89110   89112   89114   89113   89115
   89117   89116   89118   89120   89119   89121   89123   89122   89124
   89126   89125   89127   89129   89128   89130   89132   89131   89133
   89135   89134   89136   89138   89137   89139   89141   89140   89142
   89144   89143   89145   89147   89146   89148   89150   89149   89151
   89153   89152   89154   89156   89155   89157   89159   89158   89160
   89162   89161   89163   89165   89164   89166   89168   89167   89169
   89171   89170   89172   89174   89173   89175   89177   89176   89178
   89180   89179   89181   89183   89182   89184   89186   89185   89187
   89189   89188   89190   89192   89191   89193   89195   89194   89196
   89198   89197   89199   89201   89200   89202   89204   89203   89205
   89207   89206   89208   89210   89209   89211   89213   89212   89214
   89216   89215   89217   89219   89218   89220   89222   89221   89223
   89225   89224   89226   89228   89227   89229   89231   89230   89232
   89234   89233   89235   89237   89236   89238   89240   89239   89241
   89243   89242   89244   89246   89245   89247   89249   89248   89250
   89252   89251   89253   89255   89254   89256   89258   89257   89259
   89261   89260   89262   89264   89263   89265   89267   89266   89268
   89270   89269   89271   89273   89272   89274   89276   89275   89277
   89279   89278   89280   89282   89281   89283   89285   89284   89286
   89288   89287   89289   89291   89290   89292   89294   89293   89295
   89297   89296   89298   89300   89299   89301   89303   89302   89304
   89306   89305   89307   89309   89308   89310   89312   89311   89313
   89315   89314   89316   89318   89317   89319   89321   89320   89322
   89324   89323   89325   89327   89326   89328   89330   89329   89331
   89333   89332   89334   89336   89335   89337   89339   89338   89340
   89342   89341   89343   89345   89344   89346   89348   89347   89349
   89351   89350   89352   89354   89353   89355   89357   89356   89358
   89360   89359   89361   89363   89362   89364   89366   89365   89367
   89369   89368   89370   89372   89371   89373   89375   89374   89376
   89378   89377   89379   89381   89380   89382   89384   89383   89385
   89387   89386   89388   89390   89389   89391   89393   89392   89394
   89396   89395   89397   89399   89398   89400   89402   89401   89403
   89405   89404   89406   89408   89407   89409   89411   89410   89412
   89414   89413   89415   89417   89416   89418   89420   89419   89421
   89423   89422   89424   89426   89425   89427   89429   89428   89430
   89432   89431   89433   89435   89434   89436   89438   89437   89439
   89441   89440   89442   89444   89443   89445   89447   89446   89448
   89450   89449   89451   89453   89452   89454   89456   89455   89457
   89459   89458   89460   89462   89461   89463   89465   89464   89466
   89468   89467   89469   89471   89470   89472   89474   89473   89475
   89477   89476   89478   89480   89479   89481   89483   89482   89484
   89486   89485   89487   89489   89488   89490   89492   89491   89493
   89495   89494   89496   89498   89497   89499   89501   89500   89502
   89504   89503   89505   89507   89506   89508   89510   89509   89511
   89513   89512   89514   89516   89515   89517   89519   89518   89520
   89522   89521   89523   89525   89524   89526   89528   89527   89529
   89531   89530   89532   89534   89533   89535   89537   89536   89538
   89540   89539   89541   89543   89542   89544   89546   89545   89547
   89549   89548   89550   89552   89551   89553   89555   89554   89556
   89558   89557   89559   89561   89560   89562   89564   89563   89565
   89567   89566   89568   89570   89569   89571   89573   89572   89574
   89576   89575   89577   89579   89578   89580   89582   89581   89583
   89585   89584   89586   89588   89587   89589   89591   89590   89592
   89594   89593   89595   89597   89596   89598   89600   89599   89601
   89603   89602   89604   89606   89605   89607   89609   89608   89610
   89612   89611   89613   89615   89614   89616   89618   89617   89619
   89621   89620   89622   89624   89623   89625   89627   89626   89628
   89630   89629   89631   89633   89632   89634   89636   89635   89637
   89639   89638   89640   89642   89641   89643   89645   89644   89646
   89648   89647   89649   89651   89650   89652   89654   89653   89655
   89657   89656   89658   89660   89659   89661   89663   89662   89664
   89666   89665   89667   89669   89668   89670   89672   89671   89673
   89675   89674   89676   89678   89677   89679   89681   89680   89682
   89684   89683   89685   89687   89686   89688   89690   89689   89691
   89693   89692   89694   89696   89695   89697   89699   89698   89700
   89702   89701   89703   89705   89704   89706   89708   89707   89709
   89711   89710   89712   89714   89713   89715   89717   89716   89718
   89720   89719   89721   89723   89722   89724   89726   89725   89727
   89729   89728   89730   89732   89731   89733   89735   89734   89736
   89738   89737   89739   89741   89740   89742   89744   89743   89745
   89747   89746   89748   89750   89749   89751   89753   89752   89754
   89756   89755   89757   89759   89758   89760   89762   89761   89763
   89765   89764   89766   89768   89767   89769   89771   89770   89772
   89774   89773   89775   89777   89776   89778   89780   89779   89781
   89783   89782   89784   89786   89785   89787   89789   89788   89790
   89792   89791   89793   89795   89794   89796   89798   89797   89799
   89801   89800   89802   89804   89803   89805   89807   89806   89808
   89810   89809   89811   89813   89812   89814   89816   89815   89817
   89819   89818   89820   89822   89821   89823   89825   89824   89826
   89828   89827   89829   89831   89830   89832   89834   89833   89835
   89837   89836   89838   89840   89839   89841   89843   89842   89844
   89846   89845   89847   89849   89848   89850   89852   89851   89853
   89855   89854   89856   89858   89857   89859   89861   89860   89862
   89864   89863   89865   89867   89866   89868   89870   89869   89871
   89873   89872   89874   89876   89875   89877   89879   89878   89880
   89882   89881   89883   89885   89884   89886   89888   89887   89889
   89891   89890   89892   89894   89893   89895   89897   89896   89898
   89900   89899   89901   89903   89902   89904   89906   89905   89907
   89909   89908   89910   89912   89911   89913   89915   89914   89916
   89918   89917   89919   89921   89920   89922   89924   89923   89925
   89927   89926   89928   89930   89929   89931   89933   89932   89934
   89936   89935   89937   89939   89938   89940   89942   89941   89943
   89945   89944   89946   89948   89947   89949   89951   89950   89952
   89954   89953   89955   89957   89956   89958   89960   89959   89961
   89963   89962   89964   89966   89965   89967   89969   89968   89970
   89972   89971   89973   89975   89974   89976   89978   89977   89979
   89981   89980   89982   89984   89983   89985   89987   89986   89988
   89990   89989   89991   89993   89992   89994   89996   89995   89997
   89999   89998   90000   90002   90001   90003   90005   90004   90006
   90008   90007   90009   90011   90010   90012   90014   90013   90015
   90017   90016   90018   90020   90019   90021   90023   90022   90024
   90026   90025   90027   90029   90028   90030   90032   90031   90033
   90035   90034   90036   90038   90037   90039   90041   90040   90042
   90044   90043   90045   90047   90046   90048   90050   90049   90051
   90053   90052   90054   90056   90055   90057   90059   90058   90060
   90062   90061   90063   90065   90064   90066   90068   90067   90069
   90071   90070   90072   90074   90073   90075   90077   90076   90078
   90080   90079   90081   90083   90082   90084   90086   90085   90087
   90089   90088   90090   90092   90091   90093   90095   90094   90096
   90098   90097   90099   90101   90100   90102   90104   90103   90105
   90107   90106   90108   90110   90109   90111   90113   90112   90114
   90116   90115   90117   90119   90118   90120   90122   90121   90123
   90125   90124   90126   90128   90127   90129   90131   90130   90132
   90134   90133   90135   90137   90136   90138   90140   90139   90141
   90143   90142   90144   90146   90145   90147   90149   90148   90150
   90152   90151   90153   90155   90154   90156   90158   90157   90159
   90161   90160   90162   90164   90163   90165   90167   90166   90168
   90170   90169   90171   90173   90172   90174   90176   90175   90177
   90179   90178   90180   90182   90181   90183   90185   90184   90186
   90188   90187   90189   90191   90190   90192   90194   90193   90195
   90197   90196   90198   90200   90199   90201   90203   90202   90204
   90206   90205   90207   90209   90208   90210   90212   90211   90213
   90215   90214   90216   90218   90217   90219   90221   90220   90222
   90224   90223   90225   90227   90226   90228   90230   90229   90231
   90233   90232   90234   90236   90235   90237   90239   90238   90240
   90242   90241   90243   90245   90244   90246   90248   90247   90249
   90251   90250   90252   90254   90253   90255   90257   90256   90258
   90260   90259   90261   90263   90262   90264   90266   90265   90267
   90269   90268   90270   90272   90271   90273   90275   90274   90276
   90278   90277   90279   90281   90280   90282   90284   90283   90285
   90287   90286   90288   90290   90289   90291   90293   90292   90294
   90296   90295   90297   90299   90298   90300   90302   90301   90303
   90305   90304   90306   90308   90307   90309   90311   90310   90312
   90314   90313   90315   90317   90316   90318   90320   90319   90321
   90323   90322   90324   90326   90325   90327   90329   90328   90330
   90332   90331   90333   90335   90334   90336   90338   90337   90339
   90341   90340   90342   90344   90343   90345   90347   90346   90348
   90350   90349   90351   90353   90352   90354   90356   90355   90357
   90359   90358   90360   90362   90361   90363   90365   90364   90366
   90368   90367   90369   90371   90370   90372   90374   90373   90375
   90377   90376   90378   90380   90379   90381   90383   90382   90384
   90386   90385   90387   90389   90388   90390   90392   90391   90393
   90395   90394   90396   90398   90397   90399   90401   90400   90402
   90404   90403   90405   90407   90406   90408   90410   90409   90411
   90413   90412   90414   90416   90415   90417   90419   90418   90420
   90422   90421   90423   90425   90424   90426   90428   90427   90429
   90431   90430   90432   90434   90433   90435   90437   90436   90438
   90440   90439   90441   90443   90442   90444   90446   90445   90447
   90449   90448   90450   90452   90451   90453   90455   90454   90456
   90458   90457   90459   90461   90460   90462   90464   90463   90465
   90467   90466   90468   90470   90469   90471   90473   90472   90474
   90476   90475   90477   90479   90478   90480   90482   90481   90483
   90485   90484   90486   90488   90487   90489   90491   90490   90492
   90494   90493   90495   90497   90496   90498   90500   90499   90501
   90503   90502   90504   90506   90505   90507   90509   90508   90510
   90512   90511   90513   90515   90514   90516   90518   90517   90519
   90521   90520   90522   90524   90523   90525   90527   90526   90528
   90530   90529   90531   90533   90532   90534   90536   90535   90537
   90539   90538   90540   90542   90541   90543   90545   90544   90546
   90548   90547   90549   90551   90550   90552   90554   90553   90555
   90557   90556   90558   90560   90559   90561   90563   90562   90564
   90566   90565   90567   90569   90568   90570   90572   90571   90573
   90575   90574   90576   90578   90577   90579   90581   90580   90582
   90584   90583   90585   90587   90586   90588   90590   90589   90591
   90593   90592   90594   90596   90595   90597   90599   90598   90600
   90602   90601   90603   90605   90604   90606   90608   90607   90609
   90611   90610   90612   90614   90613   90615   90617   90616   90618
   90620   90619   90621   90623   90622   90624   90626   90625   90627
   90629   90628   90630   90632   90631   90633   90635   90634   90636
   90638   90637   90639   90641   90640   90642   90644   90643   90645
   90647   90646   90648   90650   90649   90651   90653   90652   90654
   90656   90655   90657   90659   90658   90660   90662   90661   90663
   90665   90664   90666   90668   90667   90669   90671   90670   90672
   90674   90673   90675   90677   90676   90678   90680   90679   90681
   90683   90682   90684   90686   90685   90687   90689   90688   90690
   90692   90691   90693   90695   90694   90696   90698   90697   90699
   90701   90700   90702   90704   90703   90705   90707   90706   90708
   90710   90709   90711   90713   90712   90714   90716   90715   90717
   90719   90718   90720   90722   90721   90723   90725   90724   90726
   90728   90727   90729   90731   90730   90732   90734   90733   90735
   90737   90736   90738   90740   90739   90741   90743   90742   90744
   90746   90745   90747   90749   90748   90750   90752   90751   90753
   90755   90754   90756   90758   90757   90759   90761   90760   90762
   90764   90763   90765   90767   90766   90768   90770   90769   90771
   90773   90772   90774   90776   90775   90777   90779   90778   90780
   90782   90781   90783   90785   90784   90786   90788   90787   90789
   90791   90790   90792   90794   90793   90795   90797   90796   90798
   90800   90799   90801   90803   90802   90804   90806   90805   90807
   90809   90808   90810   90812   90811   90813   90815   90814   90816
   90818   90817   90819   90821   90820   90822   90824   90823   90825
   90827   90826   90828   90830   90829   90831   90833   90832   90834
   90836   90835   90837   90839   90838   90840   90842   90841   90843
   90845   90844   90846   90848   90847   90849   90851   90850   90852
   90854   90853   90855   90857   90856   90858   90860   90859   90861
   90863   90862   90864   90866   90865   90867   90869   90868   90870
   90872   90871   90873   90875   90874   90876   90878   90877   90879
   90881   90880   90882   90884   90883   90885   90887   90886   90888
   90890   90889   90891   90893   90892   90894   90896   90895   90897
   90899   90898   90900   90902   90901   90903   90905   90904   90906
   90908   90907   90909   90911   90910   90912   90914   90913   90915
   90917   90916   90918   90920   90919   90921   90923   90922   90924
   90926   90925   90927   90929   90928   90930   90932   90931   90933
   90935   90934   90936   90938   90937   90939   90941   90940   90942
   90944   90943   90945   90947   90946   90948   90950   90949   90951
   90953   90952   90954   90956   90955   90957   90959   90958   90960
   90962   90961   90963   90965   90964   90966   90968   90967   90969
   90971   90970   90972   90974   90973   90975   90977   90976   90978
   90980   90979   90981   90983   90982   90984   90986   90985   90987
   90989   90988   90990   90992   90991   90993   90995   90994   90996
   90998   90997   90999   91001   91000   91002   91004   91003   91005
   91007   91006   91008   91010   91009   91011   91013   91012   91014
   91016   91015   91017   91019   91018   91020   91022   91021   91023
   91025   91024   91026   91028   91027   91029   91031   91030   91032
   91034   91033   91035   91037   91036   91038   91040   91039   91041
   91043   91042   91044   91046   91045   91047   91049   91048   91050
   91052   91051   91053   91055   91054   91056   91058   91057   91059
   91061   91060   91062   91064   91063   91065   91067   91066   91068
   91070   91069   91071   91073   91072   91074   91076   91075   91077
   91079   91078   91080   91082   91081   91083   91085   91084   91086
   91088   91087   91089   91091   91090   91092   91094   91093   91095
   91097   91096   91098   91100   91099   91101   91103   91102   91104
   91106   91105   91107   91109   91108   91110   91112   91111   91113
   91115   91114   91116   91118   91117   91119   91121   91120   91122
   91124   91123   91125   91127   91126   91128   91130   91129   91131
   91133   91132   91134   91136   91135   91137   91139   91138   91140
   91142   91141   91143   91145   91144   91146   91148   91147   91149
   91151   91150   91152   91154   91153   91155   91157   91156   91158
   91160   91159   91161   91163   91162   91164   91166   91165   91167
   91169   91168   91170   91172   91171   91173   91175   91174   91176
   91178   91177   91179   91181   91180   91182   91184   91183   91185
   91187   91186   91188   91190   91189   91191   91193   91192   91194
   91196   91195   91197   91199   91198   91200   91202   91201   91203
   91205   91204   91206   91208   91207   91209   91211   91210   91212
   91214   91213   91215   91217   91216   91218   91220   91219   91221
   91223   91222   91224   91226   91225   91227   91229   91228   91230
   91232   91231   91233   91235   91234   91236   91238   91237   91239
   91241   91240   91242   91244   91243   91245   91247   91246   91248
   91250   91249   91251   91253   91252   91254   91256   91255   91257
   91259   91258   91260   91262   91261   91263   91265   91264   91266
   91268   91267   91269   91271   91270   91272   91274   91273   91275
   91277   91276   91278   91280   91279   91281   91283   91282   91284
   91286   91285   91287   91289   91288   91290   91292   91291   91293
   91295   91294   91296   91298   91297   91299   91301   91300   91302
   91304   91303   91305   91307   91306   91308   91310   91309   91311
   91313   91312   91314   91316   91315   91317   91319   91318   91320
   91322   91321   91323   91325   91324   91326   91328   91327   91329
   91331   91330   91332   91334   91333   91335   91337   91336   91338
   91340   91339   91341   91343   91342   91344   91346   91345   91347
   91349   91348   91350   91352   91351   91353   91355   91354   91356
   91358   91357   91359   91361   91360   91362   91364   91363   91365
   91367   91366   91368   91370   91369   91371   91373   91372   91374
   91376   91375   91377   91379   91378   91380   91382   91381   91383
   91385   91384   91386   91388   91387   91389   91391   91390   91392
   91394   91393   91395   91397   91396   91398   91400   91399   91401
   91403   91402   91404   91406   91405   91407   91409   91408   91410
   91412   91411   91413   91415   91414   91416   91418   91417   91419
   91421   91420   91422   91424   91423   91425   91427   91426   91428
   91430   91429   91431   91433   91432   91434   91436   91435   91437
   91439   91438   91440   91442   91441   91443   91445   91444   91446
   91448   91447   91449   91451   91450   91452   91454   91453   91455
   91457   91456   91458   91460   91459   91461   91463   91462   91464
   91466   91465   91467   91469   91468   91470   91472   91471   91473
   91475   91474   91476   91478   91477   91479   91481   91480   91482
   91484   91483   91485   91487   91486   91488   91490   91489   91491
   91493   91492   91494   91496   91495   91497   91499   91498   91500
   91502   91501   91503   91505   91504   91506   91508   91507   91509
   91511   91510   91512   91514   91513   91515   91517   91516   91518
   91520   91519   91521   91523   91522   91524   91526   91525   91527
   91529   91528   91530   91532   91531   91533   91535   91534   91536
   91538   91537   91539   91541   91540   91542   91544   91543   91545
   91547   91546   91548   91550   91549   91551   91553   91552   91554
   91556   91555   91557   91559   91558   91560   91562   91561   91563
   91565   91564   91566   91568   91567   91569   91571   91570   91572
   91574   91573   91575   91577   91576   91578   91580   91579   91581
   91583   91582   91584   91586   91585   91587   91589   91588   91590
   91592   91591   91593   91595   91594   91596   91598   91597   91599
   91601   91600   91602   91604   91603   91605   91607   91606   91608
   91610   91609   91611   91613   91612   91614   91616   91615   91617
   91619   91618   91620   91622   91621   91623   91625   91624   91626
   91628   91627   91629   91631   91630   91632   91634   91633   91635
   91637   91636   91638   91640   91639   91641   91643   91642   91644
   91646   91645   91647   91649   91648   91650   91652   91651   91653
   91655   91654   91656   91658   91657   91659   91661   91660   91662
   91664   91663   91665   91667   91666   91668   91670   91669   91671
   91673   91672   91674   91676   91675   91677   91679   91678   91680
   91682   91681   91683   91685   91684   91686   91688   91687   91689
   91691   91690   91692   91694   91693   91695   91697   91696   91698
   91700   91699   91701   91703   91702   91704   91706   91705   91707
   91709   91708   91710   91712   91711   91713   91715   91714   91716
   91718   91717   91719   91721   91720   91722   91724   91723   91725
   91727   91726   91728   91730   91729   91731   91733   91732   91734
   91736   91735   91737   91739   91738   91740   91742   91741   91743
   91745   91744   91746   91748   91747   91749   91751   91750   91752
   91754   91753   91755   91757   91756   91758   91760   91759   91761
   91763   91762   91764   91766   91765   91767   91769   91768   91770
   91772   91771   91773   91775   91774   91776   91778   91777   91779
   91781   91780   91782   91784   91783   91785   91787   91786   91788
   91790   91789   91791   91793   91792   91794   91796   91795   91797
   91799   91798   91800   91802   91801   91803   91805   91804   91806
   91808   91807   91809   91811   91810   91812   91814   91813   91815
   91817   91816   91818   91820   91819   91821   91823   91822   91824
   91826   91825   91827   91829   91828   91830   91832   91831   91833
   91835   91834   91836   91838   91837   91839   91841   91840   91842
   91844   91843   91845   91847   91846   91848   91850   91849   91851
   91853   91852   91854   91856   91855   91857   91859   91858   91860
   91862   91861   91863   91865   91864   91866   91868   91867   91869
   91871   91870   91872   91874   91873   91875   91877   91876   91878
   91880   91879   91881   91883   91882   91884   91886   91885   91887
   91889   91888   91890   91892   91891   91893   91895   91894   91896
   91898   91897   91899   91901   91900   91902   91904   91903   91905
   91907   91906   91908   91910   91909   91911   91913   91912   91914
   91916   91915   91917   91919   91918   91920   91922   91921   91923
   91925   91924   91926   91928   91927   91929   91931   91930   91932
   91934   91933   91935   91937   91936   91938   91940   91939   91941
   91943   91942   91944   91946   91945   91947   91949   91948   91950
   91952   91951   91953   91955   91954   91956   91958   91957   91959
   91961   91960   91962   91964   91963   91965   91967   91966   91968
   91970   91969   91971   91973   91972   91974   91976   91975   91977
   91979   91978   91980   91982   91981   91983   91985   91984   91986
   91988   91987   91989   91991   91990   91992   91994   91993   91995
   91997   91996   91998   92000   91999   92001   92003   92002   92004
   92006   92005   92007   92009   92008   92010   92012   92011   92013
   92015   92014   92016   92018   92017   92019   92021   92020   92022
   92024   92023   92025   92027   92026   92028   92030   92029   92031
   92033   92032   92034   92036   92035   92037   92039   92038   92040
   92042   92041   92043   92045   92044   92046   92048   92047   92049
   92051   92050   92052   92054   92053   92055   92057   92056   92058
   92060   92059   92061   92063   92062   92064   92066   92065   92067
   92069   92068   92070   92072   92071   92073   92075   92074   92076
   92078   92077   92079   92081   92080   92082   92084   92083   92085
   92087   92086   92088   92090   92089   92091   92093   92092   92094
   92096   92095   92097   92099   92098   92100   92102   92101   92103
   92105   92104   92106   92108   92107   92109   92111   92110   92112
   92114   92113   92115   92117   92116   92118   92120   92119   92121
   92123   92122   92124   92126   92125   92127   92129   92128   92130
   92132   92131   92133   92135   92134   92136   92138   92137   92139
   92141   92140   92142   92144   92143   92145   92147   92146   92148
   92150   92149   92151   92153   92152   92154   92156   92155   92157
   92159   92158   92160   92162   92161   92163   92165   92164   92166
   92168   92167   92169   92171   92170   92172   92174   92173   92175
   92177   92176   92178   92180   92179   92181   92183   92182   92184
   92186   92185   92187   92189   92188   92190   92192   92191   92193
   92195   92194   92196   92198   92197   92199   92201   92200   92202
   92204   92203   92205   92207   92206   92208   92210   92209   92211
   92213   92212   92214   92216   92215   92217   92219   92218   92220
   92222   92221   92223   92225   92224   92226   92228   92227   92229
   92231   92230   92232   92234   92233   92235   92237   92236   92238
   92240   92239   92241   92243   92242   92244   92246   92245   92247
   92249   92248   92250   92252   92251   92253   92255   92254   92256
   92258   92257   92259   92261   92260   92262   92264   92263   92265
   92267   92266   92268   92270   92269   92271   92273   92272   92274
   92276   92275   92277   92279   92278   92280   92282   92281   92283
   92285   92284   92286   92288   92287   92289   92291   92290   92292
   92294   92293   92295   92297   92296   92298   92300   92299   92301
   92303   92302   92304   92306   92305   92307   92309   92308   92310
   92312   92311   92313   92315   92314   92316   92318   92317   92319
   92321   92320   92322   92324   92323   92325   92327   92326   92328
   92330   92329   92331   92333   92332   92334   92336   92335   92337
   92339   92338   92340   92342   92341   92343   92345   92344   92346
   92348   92347   92349   92351   92350   92352   92354   92353   92355
   92357   92356   92358   92360   92359   92361   92363   92362   92364
   92366   92365   92367   92369   92368   92370   92372   92371   92373
   92375   92374   92376   92378   92377   92379   92381   92380   92382
   92384   92383   92385   92387   92386   92388   92390   92389   92391
   92393   92392   92394   92396   92395   92397   92399   92398   92400
   92402   92401   92403   92405   92404   92406   92408   92407   92409
   92411   92410   92412   92414   92413   92415   92417   92416   92418
   92420   92419   92421   92423   92422   92424   92426   92425   92427
   92429   92428   92430   92432   92431   92433   92435   92434   92436
   92438   92437   92439   92441   92440   92442   92444   92443   92445
   92447   92446   92448   92450   92449   92451   92453   92452   92454
   92456   92455   92457   92459   92458   92460   92462   92461   92463
   92465   92464   92466   92468   92467   92469   92471   92470   92472
   92474   92473   92475   92477   92476   92478   92480   92479   92481
   92483   92482   92484   92486   92485   92487   92489   92488   92490
   92492   92491   92493   92495   92494   92496   92498   92497   92499
   92501   92500   92502   92504   92503   92505   92507   92506   92508
   92510   92509   92511   92513   92512   92514   92516   92515   92517
   92519   92518   92520   92522   92521   92523   92525   92524   92526
   92528   92527   92529   92531   92530   92532   92534   92533   92535
   92537   92536   92538   92540   92539   92541   92543   92542   92544
   92546   92545   92547   92549   92548   92550   92552   92551   92553
   92555   92554   92556   92558   92557   92559   92561   92560   92562
   92564   92563   92565   92567   92566   92568   92570   92569   92571
   92573   92572   92574   92576   92575   92577   92579   92578   92580
   92582   92581   92583   92585   92584   92586   92588   92587   92589
   92591   92590   92592   92594   92593   92595   92597   92596   92598
   92600   92599   92601   92603   92602   92604   92606   92605   92607
   92609   92608   92610   92612   92611   92613   92615   92614   92616
   92618   92617   92619   92621   92620   92622   92624   92623   92625
   92627   92626   92628   92630   92629   92631   92633   92632   92634
   92636   92635   92637   92639   92638   92640   92642   92641   92643
   92645   92644   92646   92648   92647   92649   92651   92650   92652
   92654   92653   92655   92657   92656   92658   92660   92659   92661
   92663   92662   92664   92666   92665   92667   92669   92668   92670
   92672   92671   92673   92675   92674   92676   92678   92677   92679
   92681   92680   92682   92684   92683   92685   92687   92686   92688
   92690   92689   92691   92693   92692   92694   92696   92695   92697
   92699   92698   92700   92702   92701   92703   92705   92704   92706
   92708   92707   92709   92711   92710   92712   92714   92713   92715
   92717   92716   92718   92720   92719   92721   92723   92722   92724
   92726   92725   92727   92729   92728   92730   92732   92731   92733
   92735   92734   92736   92738   92737   92739   92741   92740   92742
   92744   92743   92745   92747   92746   92748   92750   92749   92751
   92753   92752   92754   92756   92755   92757   92759   92758   92760
   92762   92761   92763   92765   92764   92766   92768   92767   92769
   92771   92770   92772   92774   92773   92775   92777   92776   92778
   92780   92779   92781   92783   92782   92784   92786   92785   92787
   92789   92788   92790   92792   92791   92793   92795   92794   92796
   92798   92797   92799   92801   92800   92802   92804   92803   92805
   92807   92806   92808   92810   92809   92811   92813   92812   92814
   92816   92815   92817   92819   92818   92820   92822   92821   92823
   92825   92824   92826   92828   92827   92829   92831   92830   92832
   92834   92833   92835   92837   92836   92838   92840   92839   92841
   92843   92842   92844   92846   92845   92847   92849   92848   92850
   92852   92851   92853   92855   92854   92856   92858   92857   92859
   92861   92860   92862   92864   92863   92865   92867   92866   92868
   92870   92869   92871   92873   92872   92874   92876   92875   92877
   92879   92878   92880   92882   92881   92883   92885   92884   92886
   92888   92887   92889   92891   92890   92892   92894   92893   92895
   92897   92896   92898   92900   92899   92901   92903   92902   92904
   92906   92905   92907   92909   92908   92910   92912   92911   92913
   92915   92914   92916   92918   92917   92919   92921   92920   92922
   92924   92923   92925   92927   92926   92928   92930   92929   92931
   92933   92932   92934   92936   92935   92937   92939   92938   92940
   92942   92941   92943   92945   92944   92946   92948   92947   92949
   92951   92950   92952   92954   92953   92955   92957   92956   92958
   92960   92959   92961   92963   92962   92964   92966   92965   92967
   92969   92968   92970   92972   92971   92973   92975   92974   92976
   92978   92977   92979   92981   92980   92982   92984   92983   92985
   92987   92986   92988   92990   92989   92991   92993   92992   92994
   92996   92995   92997   92999   92998   93000   93002   93001   93003
   93005   93004   93006   93008   93007   93009   93011   93010   93012
   93014   93013   93015   93017   93016   93018   93020   93019   93021
   93023   93022   93024   93026   93025   93027   93029   93028   93030
   93032   93031   93033   93035   93034   93036   93038   93037   93039
   93041   93040   93042   93044   93043   93045   93047   93046   93048
   93050   93049   93051   93053   93052   93054   93056   93055   93057
   93059   93058   93060   93062   93061   93063   93065   93064   93066
   93068   93067   93069   93071   93070   93072   93074   93073   93075
   93077   93076   93078   93080   93079   93081   93083   93082   93084
   93086   93085   93087   93089   93088   93090   93092   93091   93093
   93095   93094   93096   93098   93097   93099   93101   93100   93102
   93104   93103   93105   93107   93106   93108   93110   93109   93111
   93113   93112   93114   93116   93115   93117   93119   93118   93120
   93122   93121   93123   93125   93124   93126   93128   93127   93129
   93131   93130   93132   93134   93133   93135   93137   93136   93138
   93140   93139   93141   93143   93142   93144   93146   93145   93147
   93149   93148   93150   93152   93151   93153   93155   93154   93156
   93158   93157   93159   93161   93160   93162   93164   93163   93165
   93167   93166   93168   93170   93169   93171   93173   93172   93174
   93176   93175   93177   93179   93178   93180   93182   93181   93183
   93185   93184   93186   93188   93187   93189   93191   93190   93192
   93194   93193   93195   93197   93196   93198   93200   93199   93201
   93203   93202   93204   93206   93205   93207   93209   93208   93210
   93212   93211   93213   93215   93214   93216   93218   93217   93219
   93221   93220   93222   93224   93223   93225   93227   93226   93228
   93230   93229   93231   93233   93232   93234   93236   93235   93237
   93239   93238   93240   93242   93241   93243   93245   93244   93246
   93248   93247   93249   93251   93250   93252   93254   93253   93255
   93257   93256   93258   93260   93259   93261   93263   93262   93264
   93266   93265   93267   93269   93268   93270   93272   93271   93273
   93275   93274   93276   93278   93277   93279   93281   93280   93282
   93284   93283   93285   93287   93286   93288   93290   93289   93291
   93293   93292   93294   93296   93295   93297   93299   93298   93300
   93302   93301   93303   93305   93304   93306   93308   93307   93309
   93311   93310   93312   93314   93313   93315   93317   93316   93318
   93320   93319   93321   93323   93322   93324   93326   93325   93327
   93329   93328   93330   93332   93331   93333   93335   93334   93336
   93338   93337   93339   93341   93340   93342   93344   93343   93345
   93347   93346   93348   93350   93349   93351   93353   93352   93354
   93356   93355   93357   93359   93358   93360   93362   93361   93363
   93365   93364   93366   93368   93367   93369   93371   93370   93372
   93374   93373   93375   93377   93376   93378   93380   93379   93381
   93383   93382   93384   93386   93385   93387   93389   93388   93390
   93392   93391   93393   93395   93394   93396   93398   93397   93399
   93401   93400   93402   93404   93403   93405   93407   93406   93408
   93410   93409   93411   93413   93412   93414   93416   93415   93417
   93419   93418   93420   93422   93421   93423   93425   93424   93426
   93428   93427   93429   93431   93430   93432   93434   93433   93435
   93437   93436   93438   93440   93439   93441   93443   93442   93444
   93446   93445   93447   93449   93448   93450   93452   93451   93453
   93455   93454   93456   93458   93457   93459   93461   93460   93462
   93464   93463   93465   93467   93466   93468   93470   93469   93471
   93473   93472   93474   93476   93475   93477   93479   93478   93480
   93482   93481   93483   93485   93484   93486   93488   93487   93489
   93491   93490   93492   93494   93493   93495   93497   93496   93498
   93500   93499   93501   93503   93502   93504   93506   93505   93507
   93509   93508   93510   93512   93511   93513   93515   93514   93516
   93518   93517   93519   93521   93520   93522   93524   93523   93525
   93527   93526   93528   93530   93529   93531   93533   93532   93534
   93536   93535   93537   93539   93538   93540   93542   93541   93543
   93545   93544   93546   93548   93547   93549   93551   93550   93552
   93554   93553   93555   93557   93556   93558   93560   93559   93561
   93563   93562   93564   93566   93565   93567   93569   93568   93570
   93572   93571   93573   93575   93574   93576   93578   93577   93579
   93581   93580   93582   93584   93583   93585   93587   93586   93588
   93590   93589   93591   93593   93592   93594   93596   93595   93597
   93599   93598   93600   93602   93601   93603   93605   93604   93606
   93608   93607   93609   93611   93610   93612   93614   93613   93615
   93617   93616   93618   93620   93619   93621   93623   93622   93624
   93626   93625   93627   93629   93628   93630   93632   93631   93633
   93635   93634   93636   93638   93637   93639   93641   93640   93642
   93644   93643   93645   93647   93646   93648   93650   93649   93651
   93653   93652   93654   93656   93655   93657   93659   93658   93660
   93662   93661   93663   93665   93664   93666   93668   93667   93669
   93671   93670   93672   93674   93673   93675   93677   93676   93678
   93680   93679   93681   93683   93682   93684   93686   93685   93687
   93689   93688   93690   93692   93691   93693   93695   93694   93696
   93698   93697   93699   93701   93700   93702   93704   93703   93705
   93707   93706   93708   93710   93709   93711   93713   93712   93714
   93716   93715   93717   93719   93718   93720   93722   93721   93723
   93725   93724   93726   93728   93727   93729   93731   93730   93732
   93734   93733   93735   93737   93736   93738   93740   93739   93741
   93743   93742   93744   93746   93745   93747   93749   93748   93750
   93752   93751   93753   93755   93754   93756   93758   93757   93759
   93761   93760   93762   93764   93763   93765   93767   93766   93768
   93770   93769   93771   93773   93772   93774   93776   93775   93777
   93779   93778   93780   93782   93781   93783   93785   93784   93786
   93788   93787   93789   93791   93790   93792   93794   93793   93795
   93797   93796   93798   93800   93799   93801   93803   93802   93804
   93806   93805   93807   93809   93808   93810   93812   93811   93813
   93815   93814   93816   93818   93817   93819   93821   93820   93822
   93824   93823   93825   93827   93826   93828   93830   93829   93831
   93833   93832   93834   93836   93835   93837   93839   93838   93840
   93842   93841   93843   93845   93844   93846   93848   93847   93849
   93851   93850   93852   93854   93853   93855   93857   93856   93858
   93860   93859   93861   93863   93862   93864   93866   93865   93867
   93869   93868   93870   93872   93871   93873   93875   93874   93876
   93878   93877   93879   93881   93880   93882   93884   93883   93885
   93887   93886   93888   93890   93889   93891   93893   93892   93894
   93896   93895   93897   93899   93898   93900   93902   93901   93903
   93905   93904   93906   93908   93907   93909   93911   93910   93912
   93914   93913   93915   93917   93916   93918   93920   93919   93921
   93923   93922   93924   93926   93925   93927   93929   93928   93930
   93932   93931   93933   93935   93934   93936   93938   93937   93939
   93941   93940   93942   93944   93943   93945   93947   93946   93948
   93950   93949   93951   93953   93952   93954   93956   93955   93957
   93959   93958   93960   93962   93961   93963   93965   93964   93966
   93968   93967   93969   93971   93970   93972   93974   93973   93975
   93977   93976   93978   93980   93979   93981   93983   93982   93984
   93986   93985   93987   93989   93988   93990   93992   93991   93993
   93995   93994   93996   93998   93997   93999   94001   94000   94002
   94004   94003   94005   94007   94006   94008   94010   94009   94011
   94013   94012   94014   94016   94015   94017   94019   94018   94020
   94022   94021   94023   94025   94024   94026   94028   94027   94029
   94031   94030   94032   94034   94033   94035   94037   94036   94038
   94040   94039   94041   94043   94042   94044   94046   94045   94047
   94049   94048   94050   94052   94051   94053   94055   94054   94056
   94058   94057   94059   94061   94060   94062   94064   94063   94065
   94067   94066   94068   94070   94069   94071   94073   94072   94074
   94076   94075   94077   94079   94078   94080   94082   94081   94083
   94085   94084   94086   94088   94087   94089   94091   94090   94092
   94094   94093   94095   94097   94096   94098   94100   94099   94101
   94103   94102   94104   94106   94105   94107   94109   94108   94110
   94112   94111   94113   94115   94114   94116   94118   94117   94119
   94121   94120   94122   94124   94123   94125   94127   94126   94128
   94130   94129   94131   94133   94132   94134   94136   94135   94137
   94139   94138   94140   94142   94141   94143   94145   94144   94146
   94148   94147   94149   94151   94150   94152   94154   94153   94155
   94157   94156   94158   94160   94159   94161   94163   94162   94164
   94166   94165   94167   94169   94168   94170   94172   94171   94173
   94175   94174   94176   94178   94177   94179   94181   94180   94182
   94184   94183   94185   94187   94186   94188   94190   94189   94191
   94193   94192   94194   94196   94195   94197   94199   94198   94200
   94202   94201   94203   94205   94204   94206   94208   94207   94209
   94211   94210   94212   94214   94213   94215   94217   94216   94218
   94220   94219   94221   94223   94222   94224   94226   94225   94227
   94229   94228   94230   94232   94231   94233   94235   94234   94236
   94238   94237   94239   94241   94240   94242   94244   94243   94245
   94247   94246   94248   94250   94249   94251   94253   94252   94254
   94256   94255   94257   94259   94258   94260   94262   94261   94263
   94265   94264   94266   94268   94267   94269   94271   94270   94272
   94274   94273   94275   94277   94276   94278   94280   94279   94281
   94283   94282   94284   94286   94285   94287   94289   94288   94290
   94292   94291   94293   94295   94294   94296   94298   94297   94299
   94301   94300   94302   94304   94303   94305   94307   94306   94308
   94310   94309   94311   94313   94312   94314   94316   94315   94317
   94319   94318   94320   94322   94321   94323   94325   94324   94326
   94328   94327   94329   94331   94330   94332   94334   94333   94335
   94337   94336   94338   94340   94339   94341   94343   94342   94344
   94346   94345   94347   94349   94348   94350   94352   94351   94353
   94355   94354   94356   94358   94357   94359   94361   94360   94362
   94364   94363   94365   94367   94366   94368   94370   94369   94371
   94373   94372   94374   94376   94375   94377   94379   94378   94380
   94382   94381   94383   94385   94384   94386   94388   94387   94389
   94391   94390   94392   94394   94393   94395   94397   94396   94398
   94400   94399   94401   94403   94402   94404   94406   94405   94407
   94409   94408   94410   94412   94411   94413   94415   94414   94416
   94418   94417   94419   94421   94420   94422   94424   94423   94425
   94427   94426   94428   94430   94429   94431   94433   94432   94434
   94436   94435   94437   94439   94438   94440   94442   94441   94443
   94445   94444   94446   94448   94447   94449   94451   94450   94452
   94454   94453   94455   94457   94456   94458   94460   94459   94461
   94463   94462   94464   94466   94465   94467   94469   94468   94470
   94472   94471   94473   94475   94474   94476   94478   94477   94479
   94481   94480   94482   94484   94483   94485   94487   94486   94488
   94490   94489   94491   94493   94492   94494   94496   94495   94497
   94499   94498   94500   94502   94501   94503   94505   94504   94506
   94508   94507   94509   94511   94510   94512   94514   94513   94515
   94517   94516   94518   94520   94519   94521   94523   94522   94524
   94526   94525   94527   94529   94528   94530   94532   94531   94533
   94535   94534   94536   94538   94537   94539   94541   94540   94542
   94544   94543   94545   94547   94546   94548   94550   94549   94551
   94553   94552   94554   94556   94555   94557   94559   94558   94560
   94562   94561   94563   94565   94564   94566   94568   94567   94569
   94571   94570   94572   94574   94573   94575   94577   94576   94578
   94580   94579   94581   94583   94582   94584   94586   94585   94587
   94589   94588   94590   94592   94591   94593   94595   94594   94596
   94598   94597   94599   94601   94600   94602   94604   94603   94605
   94607   94606   94608   94610   94609   94611   94613   94612   94614
   94616   94615   94617   94619   94618   94620   94622   94621   94623
   94625   94624   94626   94628   94627   94629   94631   94630   94632
   94634   94633   94635   94637   94636   94638   94640   94639   94641
   94643   94642   94644   94646   94645   94647   94649   94648   94650
   94652   94651   94653   94655   94654   94656   94658   94657   94659
   94661   94660   94662   94664   94663   94665   94667   94666   94668
   94670   94669   94671   94673   94672   94674   94676   94675   94677
   94679   94678   94680   94682   94681   94683   94685   94684   94686
   94688   94687   94689   94691   94690   94692   94694   94693   94695
   94697   94696   94698   94700   94699   94701   94703   94702   94704
   94706   94705   94707   94709   94708   94710   94712   94711   94713
   94715   94714   94716   94718   94717   94719   94721   94720   94722
   94724   94723   94725   94727   94726   94728   94730   94729   94731
   94733   94732   94734   94736   94735   94737   94739   94738   94740
   94742   94741   94743   94745   94744   94746   94748   94747   94749
   94751   94750   94752   94754   94753   94755   94757   94756   94758
   94760   94759   94761   94763   94762   94764   94766   94765   94767
   94769   94768   94770   94772   94771   94773   94775   94774   94776
   94778   94777   94779   94781   94780   94782   94784   94783   94785
   94787   94786   94788   94790   94789   94791   94793   94792   94794
   94796   94795   94797   94799   94798   94800   94802   94801   94803
   94805   94804   94806   94808   94807   94809   94811   94810   94812
   94814   94813   94815   94817   94816   94818   94820   94819   94821
   94823   94822   94824   94826   94825   94827   94829   94828   94830
   94832   94831   94833   94835   94834   94836   94838   94837   94839
   94841   94840   94842   94844   94843   94845   94847   94846   94848
   94850   94849   94851   94853   94852   94854   94856   94855   94857
   94859   94858   94860   94862   94861   94863   94865   94864   94866
   94868   94867   94869   94871   94870   94872   94874   94873   94875
   94877   94876   94878   94880   94879   94881   94883   94882   94884
   94886   94885   94887   94889   94888   94890   94892   94891   94893
   94895   94894   94896   94898   94897   94899   94901   94900   94902
   94904   94903   94905   94907   94906   94908   94910   94909   94911
   94913   94912   94914   94916   94915   94917   94919   94918   94920
   94922   94921   94923   94925   94924   94926   94928   94927   94929
   94931   94930   94932   94934   94933   94935   94937   94936   94938
   94940   94939   94941   94943   94942   94944   94946   94945   94947
   94949   94948   94950   94952   94951   94953   94955   94954   94956
   94958   94957   94959   94961   94960   94962   94964   94963   94965
   94967   94966   94968   94970   94969   94971   94973   94972   94974
   94976   94975   94977   94979   94978   94980   94982   94981   94983
   94985   94984   94986   94988   94987   94989   94991   94990   94992
   94994   94993   94995   94997   94996   94998   95000   94999   95001
   95003   95002   95004   95006   95005   95007   95009   95008   95010
   95012   95011   95013   95015   95014   95016   95018   95017   95019
   95021   95020   95022   95024   95023   95025   95027   95026   95028
   95030   95029   95031   95033   95032   95034   95036   95035   95037
   95039   95038   95040   95042   95041   95043   95045   95044   95046
   95048   95047   95049   95051   95050   95052   95054   95053   95055
   95057   95056   95058   95060   95059   95061   95063   95062   95064
   95066   95065   95067   95069   95068   95070   95072   95071   95073
   95075   95074   95076   95078   95077   95079   95081   95080   95082
   95084   95083   95085   95087   95086   95088   95090   95089   95091
   95093   95092   95094   95096   95095   95097   95099   95098   95100
   95102   95101   95103   95105   95104   95106   95108   95107   95109
   95111   95110   95112   95114   95113   95115   95117   95116   95118
   95120   95119   95121   95123   95122   95124   95126   95125   95127
   95129   95128   95130   95132   95131   95133   95135   95134   95136
   95138   95137   95139   95141   95140   95142   95144   95143   95145
   95147   95146   95148   95150   95149   95151   95153   95152   95154
   95156   95155   95157   95159   95158   95160   95162   95161   95163
   95165   95164   95166   95168   95167   95169   95171   95170   95172
   95174   95173   95175   95177   95176   95178   95180   95179   95181
   95183   95182   95184   95186   95185   95187   95189   95188   95190
   95192   95191   95193   95195   95194   95196   95198   95197   95199
   95201   95200   95202   95204   95203   95205   95207   95206   95208
   95210   95209   95211   95213   95212   95214   95216   95215   95217
   95219   95218   95220   95222   95221   95223   95225   95224   95226
   95228   95227   95229   95231   95230   95232   95234   95233   95235
   95237   95236   95238   95240   95239   95241   95243   95242   95244
   95246   95245   95247   95249   95248   95250   95252   95251   95253
   95255   95254   95256   95258   95257   95259   95261   95260   95262
   95264   95263   95265   95267   95266   95268   95270   95269   95271
   95273   95272   95274   95276   95275   95277   95279   95278   95280
   95282   95281   95283   95285   95284   95286   95288   95287   95289
   95291   95290   95292   95294   95293   95295   95297   95296   95298
   95300   95299   95301   95303   95302   95304   95306   95305   95307
   95309   95308   95310   95312   95311   95313   95315   95314   95316
   95318   95317   95319   95321   95320   95322   95324   95323   95325
   95327   95326   95328   95330   95329   95331   95333   95332   95334
   95336   95335   95337   95339   95338   95340   95342   95341   95343
   95345   95344   95346   95348   95347   95349   95351   95350   95352
   95354   95353   95355   95357   95356   95358   95360   95359   95361
   95363   95362   95364   95366   95365   95367   95369   95368   95370
   95372   95371   95373   95375   95374   95376   95378   95377   95379
   95381   95380   95382   95384   95383   95385   95387   95386   95388
   95390   95389   95391   95393   95392   95394   95396   95395   95397
   95399   95398   95400   95402   95401   95403   95405   95404   95406
   95408   95407   95409   95411   95410   95412   95414   95413   95415
   95417   95416   95418   95420   95419   95421   95423   95422   95424
   95426   95425   95427   95429   95428   95430   95432   95431   95433
   95435   95434   95436   95438   95437   95439   95441   95440   95442
   95444   95443   95445   95447   95446   95448   95450   95449   95451
   95453   95452   95454   95456   95455   95457   95459   95458   95460
   95462   95461   95463   95465   95464   95466   95468   95467   95469
   95471   95470   95472   95474   95473   95475   95477   95476   95478
   95480   95479   95481   95483   95482   95484   95486   95485   95487
   95489   95488   95490   95492   95491   95493   95495   95494   95496
   95498   95497   95499   95501   95500   95502   95504   95503   95505
   95507   95506   95508   95510   95509   95511   95513   95512   95514
   95516   95515   95517   95519   95518   95520   95522   95521   95523
   95525   95524   95526   95528   95527   95529   95531   95530   95532
   95534   95533   95535   95537   95536   95538   95540   95539   95541
   95543   95542   95544   95546   95545   95547   95549   95548   95550
   95552   95551   95553   95555   95554   95556   95558   95557   95559
   95561   95560   95562   95564   95563   95565   95567   95566   95568
   95570   95569   95571   95573   95572   95574   95576   95575   95577
   95579   95578   95580   95582   95581   95583   95585   95584   95586
   95588   95587   95589   95591   95590   95592   95594   95593   95595
   95597   95596   95598   95600   95599   95601   95603   95602   95604
   95606   95605   95607   95609   95608   95610   95612   95611   95613
   95615   95614   95616   95618   95617   95619   95621   95620   95622
   95624   95623   95625   95627   95626   95628   95630   95629   95631
   95633   95632   95634   95636   95635   95637   95639   95638   95640
   95642   95641   95643   95645   95644   95646   95648   95647   95649
   95651   95650   95652   95654   95653   95655   95657   95656   95658
   95660   95659   95661   95663   95662   95664   95666   95665   95667
   95669   95668   95670   95672   95671   95673   95675   95674   95676
   95678   95677   95679   95681   95680   95682   95684   95683   95685
   95687   95686   95688   95690   95689   95691   95693   95692   95694
   95696   95695   95697   95699   95698   95700   95702   95701   95703
   95705   95704   95706   95708   95707   95709   95711   95710   95712
   95714   95713   95715   95717   95716   95718   95720   95719   95721
   95723   95722   95724   95726   95725   95727   95729   95728   95730
   95732   95731   95733   95735   95734   95736   95738   95737   95739
   95741   95740   95742   95744   95743   95745   95747   95746   95748
   95750   95749   95751   95753   95752   95754   95756   95755   95757
   95759   95758   95760   95762   95761   95763   95765   95764   95766
   95768   95767   95769   95771   95770   95772   95774   95773   95775
   95777   95776   95778   95780   95779   95781   95783   95782   95784
   95786   95785   95787   95789   95788   95790   95792   95791   95793
   95795   95794   95796   95798   95797   95799   95801   95800   95802
   95804   95803   95805   95807   95806   95808   95810   95809   95811
   95813   95812   95814   95816   95815   95817   95819   95818   95820
   95822   95821   95823   95825   95824   95826   95828   95827   95829
   95831   95830   95832   95834   95833   95835   95837   95836   95838
   95840   95839   95841   95843   95842   95844   95846   95845   95847
   95849   95848   95850   95852   95851   95853   95855   95854   95856
   95858   95857   95859   95861   95860   95862   95864   95863   95865
   95867   95866   95868   95870   95869   95871   95873   95872   95874
   95876   95875   95877   95879   95878   95880   95882   95881   95883
   95885   95884   95886   95888   95887   95889   95891   95890   95892
   95894   95893   95895   95897   95896   95898   95900   95899   95901
   95903   95902   95904   95906   95905   95907   95909   95908   95910
   95912   95911   95913   95915   95914   95916   95918   95917   95919
   95921   95920   95922   95924   95923   95925   95927   95926   95928
   95930   95929   95931   95933   95932   95934   95936   95935   95937
   95939   95938   95940   95942   95941   95943   95945   95944   95946
   95948   95947   95949   95951   95950   95952   95954   95953   95955
   95957   95956   95958   95960   95959   95961   95963   95962   95964
   95966   95965   95967   95969   95968   95970   95972   95971   95973
   95975   95974   95976   95978   95977   95979   95981   95980   95982
   95984   95983   95985   95987   95986   95988   95990   95989   95991
   95993   95992   95994   95996   95995   95997   95999   95998   96000
   96002   96001   96003   96005   96004   96006   96008   96007   96009
   96011   96010   96012   96014   96013   96015   96017   96016   96018
   96020   96019   96021   96023   96022   96024   96026   96025   96027
   96029   96028   96030   96032   96031   96033   96035   96034   96036
   96038   96037   96039   96041   96040   96042   96044   96043   96045
   96047   96046   96048   96050   96049   96051   96053   96052   96054
   96056   96055   96057   96059   96058   96060   96062   96061   96063
   96065   96064   96066   96068   96067   96069   96071   96070   96072
   96074   96073   96075   96077   96076   96078   96080   96079   96081
   96083   96082   96084   96086   96085   96087   96089   96088   96090
   96092   96091   96093   96095   96094   96096   96098   96097   96099
   96101   96100   96102   96104   96103   96105   96107   96106   96108
   96110   96109   96111   96113   96112   96114   96116   96115   96117
   96119   96118   96120   96122   96121   96123   96125   96124   96126
   96128   96127   96129   96131   96130   96132   96134   96133   96135
   96137   96136   96138   96140   96139   96141   96143   96142   96144
   96146   96145   96147   96149   96148   96150   96152   96151   96153
   96155   96154   96156   96158   96157   96159   96161   96160   96162
   96164   96163   96165   96167   96166   96168   96170   96169   96171
   96173   96172   96174   96176   96175   96177   96179   96178   96180
   96182   96181   96183   96185   96184   96186   96188   96187   96189
   96191   96190   96192   96194   96193   96195   96197   96196   96198
   96200   96199   96201   96203   96202   96204   96206   96205   96207
   96209   96208   96210   96212   96211   96213   96215   96214   96216
   96218   96217   96219   96221   96220   96222   96224   96223   96225
   96227   96226   96228   96230   96229   96231   96233   96232   96234
   96236   96235   96237   96239   96238   96240   96242   96241   96243
   96245   96244   96246   96248   96247   96249   96251   96250   96252
   96254   96253   96255   96257   96256   96258   96260   96259   96261
   96263   96262   96264   96266   96265   96267   96269   96268   96270
   96272   96271   96273   96275   96274   96276   96278   96277   96279
   96281   96280   96282   96284   96283   96285   96287   96286   96288
   96290   96289   96291   96293   96292   96294   96296   96295   96297
   96299   96298   96300   96302   96301   96303   96305   96304   96306
   96308   96307   96309   96311   96310   96312   96314   96313   96315
   96317   96316   96318   96320   96319   96321   96323   96322   96324
   96326   96325   96327   96329   96328   96330   96332   96331   96333
   96335   96334   96336   96338   96337   96339   96341   96340   96342
   96344   96343   96345   96347   96346   96348   96350   96349   96351
   96353   96352   96354   96356   96355   96357   96359   96358   96360
   96362   96361   96363   96365   96364   96366   96368   96367   96369
   96371   96370   96372   96374   96373   96375   96377   96376   96378
   96380   96379   96381   96383   96382   96384   96386   96385   96387
   96389   96388   96390   96392   96391   96393   96395   96394   96396
   96398   96397   96399   96401   96400   96402   96404   96403   96405
   96407   96406   96408   96410   96409   96411   96413   96412   96414
   96416   96415   96417   96419   96418   96420   96422   96421   96423
   96425   96424   96426   96428   96427   96429   96431   96430   96432
   96434   96433   96435   96437   96436   96438   96440   96439   96441
   96443   96442   96444   96446   96445   96447   96449   96448   96450
   96452   96451   96453   96455   96454   96456   96458   96457   96459
   96461   96460   96462   96464   96463   96465   96467   96466   96468
   96470   96469   96471   96473   96472   96474   96476   96475   96477
   96479   96478   96480   96482   96481   96483   96485   96484   96486
   96488   96487   96489   96491   96490   96492   96494   96493   96495
   96497   96496   96498   96500   96499   96501   96503   96502   96504
   96506   96505   96507   96509   96508   96510   96512   96511   96513
   96515   96514   96516   96518   96517   96519   96521   96520   96522
   96524   96523   96525   96527   96526   96528   96530   96529   96531
   96533   96532   96534   96536   96535   96537   96539   96538   96540
   96542   96541   96543   96545   96544   96546   96548   96547   96549
   96551   96550   96552   96554   96553   96555   96557   96556   96558
   96560   96559   96561   96563   96562   96564   96566   96565   96567
   96569   96568   96570   96572   96571   96573   96575   96574   96576
   96578   96577   96579   96581   96580   96582   96584   96583   96585
   96587   96586   96588   96590   96589   96591   96593   96592   96594
   96596   96595   96597   96599   96598   96600   96602   96601   96603
   96605   96604   96606   96608   96607   96609   96611   96610   96612
   96614   96613   96615   96617   96616   96618   96620   96619   96621
   96623   96622   96624   96626   96625   96627   96629   96628   96630
   96632   96631   96633   96635   96634   96636   96638   96637   96639
   96641   96640   96642   96644   96643   96645   96647   96646   96648
   96650   96649   96651   96653   96652   96654   96656   96655   96657
   96659   96658   96660   96662   96661   96663   96665   96664   96666
   96668   96667   96669   96671   96670   96672   96674   96673   96675
   96677   96676   96678   96680   96679   96681   96683   96682   96684
   96686   96685   96687   96689   96688   96690   96692   96691   96693
   96695   96694   96696   96698   96697   96699   96701   96700   96702
   96704   96703   96705   96707   96706   96708   96710   96709   96711
   96713   96712   96714   96716   96715   96717   96719   96718   96720
   96722   96721   96723   96725   96724   96726   96728   96727   96729
   96731   96730   96732   96734   96733   96735   96737   96736   96738
   96740   96739   96741   96743   96742   96744   96746   96745   96747
   96749   96748   96750   96752   96751   96753   96755   96754   96756
   96758   96757   96759   96761   96760   96762   96764   96763   96765
   96767   96766   96768   96770   96769   96771   96773   96772   96774
   96776   96775   96777   96779   96778   96780   96782   96781   96783
   96785   96784   96786   96788   96787   96789   96791   96790   96792
   96794   96793   96795   96797   96796   96798   96800   96799   96801
   96803   96802   96804   96806   96805   96807   96809   96808   96810
   96812   96811   96813   96815   96814   96816   96818   96817   96819
   96821   96820   96822   96824   96823   96825   96827   96826   96828
   96830   96829   96831   96833   96832   96834   96836   96835   96837
   96839   96838   96840   96842   96841   96843   96845   96844   96846
   96848   96847   96849   96851   96850   96852   96854   96853   96855
   96857   96856   96858   96860   96859   96861   96863   96862   96864
   96866   96865   96867   96869   96868   96870   96872   96871   96873
   96875   96874   96876   96878   96877   96879   96881   96880   96882
   96884   96883   96885   96887   96886   96888   96890   96889   96891
   96893   96892   96894   96896   96895   96897   96899   96898   96900
   96902   96901   96903   96905   96904   96906   96908   96907   96909
   96911   96910   96912   96914   96913   96915   96917   96916   96918
   96920   96919   96921   96923   96922   96924   96926   96925   96927
   96929   96928   96930   96932   96931   96933   96935   96934   96936
   96938   96937   96939   96941   96940   96942   96944   96943   96945
   96947   96946   96948   96950   96949   96951   96953   96952   96954
   96956   96955   96957   96959   96958   96960   96962   96961   96963
   96965   96964   96966   96968   96967   96969   96971   96970   96972
   96974   96973   96975   96977   96976   96978   96980   96979   96981
   96983   96982   96984   96986   96985   96987   96989   96988   96990
   96992   96991   96993   96995   96994   96996   96998   96997   96999
   97001   97000   97002   97004   97003   97005   97007   97006   97008
   97010   97009   97011   97013   97012   97014   97016   97015   97017
   97019   97018   97020   97022   97021   97023   97025   97024   97026
   97028   97027   97029   97031   97030   97032   97034   97033   97035
   97037   97036   97038   97040   97039   97041   97043   97042   97044
   97046   97045   97047   97049   97048   97050   97052   97051   97053
   97055   97054   97056   97058   97057   97059   97061   97060   97062
   97064   97063   97065   97067   97066   97068   97070   97069   97071
   97073   97072   97074   97076   97075   97077   97079   97078   97080
   97082   97081   97083   97085   97084   97086   97088   97087   97089
   97091   97090   97092   97094   97093   97095   97097   97096   97098
   97100   97099   97101   97103   97102   97104   97106   97105   97107
   97109   97108   97110   97112   97111   97113   97115   97114   97116
   97118   97117   97119   97121   97120   97122   97124   97123   97125
   97127   97126   97128   97130   97129   97131   97133   97132   97134
   97136   97135   97137   97139   97138   97140   97142   97141   97143
   97145   97144   97146   97148   97147   97149   97151   97150   97152
   97154   97153   97155   97157   97156   97158   97160   97159   97161
   97163   97162   97164   97166   97165   97167   97169   97168   97170
   97172   97171   97173   97175   97174   97176   97178   97177   97179
   97181   97180   97182   97184   97183   97185   97187   97186   97188
   97190   97189   97191   97193   97192   97194   97196   97195   97197
   97199   97198   97200   97202   97201   97203   97205   97204   97206
   97208   97207   97209   97211   97210   97212   97214   97213   97215
   97217   97216   97218   97220   97219   97221   97223   97222   97224
   97226   97225   97227   97229   97228   97230   97232   97231   97233
   97235   97234   97236   97238   97237   97239   97241   97240   97242
   97244   97243   97245   97247   97246   97248   97250   97249   97251
   97253   97252   97254   97256   97255   97257   97259   97258   97260
   97262   97261   97263   97265   97264   97266   97268   97267   97269
   97271   97270   97272   97274   97273   97275   97277   97276   97278
   97280   97279   97281   97283   97282   97284   97286   97285   97287
   97289   97288   97290   97292   97291   97293   97295   97294   97296
   97298   97297   97299   97301   97300   97302   97304   97303   97305
   97307   97306   97308   97310   97309   97311   97313   97312   97314
   97316   97315   97317   97319   97318   97320   97322   97321   97323
   97325   97324   97326   97328   97327   97329   97331   97330   97332
   97334   97333   97335   97337   97336   97338   97340   97339   97341
   97343   97342   97344   97346   97345   97347   97349   97348   97350
   97352   97351   97353   97355   97354   97356   97358   97357   97359
   97361   97360   97362   97364   97363   97365   97367   97366   97368
   97370   97369   97371   97373   97372   97374   97376   97375   97377
   97379   97378   97380   97382   97381   97383   97385   97384   97386
   97388   97387   97389   97391   97390   97392   97394   97393   97395
   97397   97396   97398   97400   97399   97401   97403   97402   97404
   97406   97405   97407   97409   97408   97410   97412   97411   97413
   97415   97414   97416   97418   97417   97419   97421   97420   97422
   97424   97423   97425   97427   97426   97428   97430   97429   97431
   97433   97432   97434   97436   97435   97437   97439   97438   97440
   97442   97441   97443   97445   97444   97446   97448   97447   97449
   97451   97450   97452   97454   97453   97455   97457   97456   97458
   97460   97459   97461   97463   97462   97464   97466   97465   97467
   97469   97468   97470   97472   97471   97473   97475   97474   97476
   97478   97477   97479   97481   97480   97482   97484   97483   97485
   97487   97486   97488   97490   97489   97491   97493   97492   97494
   97496   97495   97497   97499   97498   97500   97502   97501   97503
   97505   97504   97506   97508   97507   97509   97511   97510   97512
   97514   97513   97515   97517   97516   97518   97520   97519   97521
   97523   97522   97524   97526   97525   97527   97529   97528   97530
   97532   97531   97533   97535   97534   97536   97538   97537   97539
   97541   97540   97542   97544   97543   97545   97547   97546   97548
   97550   97549   97551   97553   97552   97554   97556   97555   97557
   97559   97558   97560   97562   97561   97563   97565   97564   97566
   97568   97567   97569   97571   97570   97572   97574   97573   97575
   97577   97576   97578   97580   97579   97581   97583   97582   97584
   97586   97585   97587   97589   97588   97590   97592   97591   97593
   97595   97594   97596   97598   97597   97599   97601   97600   97602
   97604   97603   97605   97607   97606   97608   97610   97609   97611
   97613   97612   97614   97616   97615   97617   97619   97618   97620
   97622   97621   97623   97625   97624   97626   97628   97627   97629
   97631   97630   97632   97634   97633   97635   97637   97636   97638
   97640   97639   97641   97643   97642   97644   97646   97645   97647
   97649   97648   97650   97652   97651   97653   97655   97654   97656
   97658   97657   97659   97661   97660   97662   97664   97663   97665
   97667   97666   97668   97670   97669   97671   97673   97672   97674
   97676   97675   97677   97679   97678   97680   97682   97681   97683
   97685   97684   97686   97688   97687   97689   97691   97690   97692
   97694   97693   97695   97697   97696   97698   97700   97699   97701
   97703   97702   97704   97706   97705   97707   97709   97708   97710
   97712   97711   97713   97715   97714   97716   97718   97717   97719
   97721   97720   97722   97724   97723   97725   97727   97726   97728
   97730   97729   97731   97733   97732   97734   97736   97735   97737
   97739   97738   97740   97742   97741   97743   97745   97744   97746
   97748   97747   97749   97751   97750   97752   97754   97753   97755
   97757   97756   97758   97760   97759   97761   97763   97762   97764
   97766   97765   97767   97769   97768   97770   97772   97771   97773
   97775   97774   97776   97778   97777   97779   97781   97780   97782
   97784   97783   97785   97787   97786   97788   97790   97789   97791
   97793   97792   97794   97796   97795   97797   97799   97798   97800
   97802   97801   97803   97805   97804   97806   97808   97807   97809
   97811   97810   97812   97814   97813   97815   97817   97816   97818
   97820   97819   97821   97823   97822   97824   97826   97825   97827
   97829   97828   97830   97832   97831   97833   97835   97834   97836
   97838   97837   97839   97841   97840   97842   97844   97843   97845
   97847   97846   97848   97850   97849   97851   97853   97852   97854
   97856   97855   97857   97859   97858   97860   97862   97861   97863
   97865   97864   97866   97868   97867   97869   97871   97870   97872
   97874   97873   97875   97877   97876   97878   97880   97879   97881
   97883   97882   97884   97886   97885   97887   97889   97888   97890
   97892   97891   97893   97895   97894   97896   97898   97897   97899
   97901   97900   97902   97904   97903   97905   97907   97906   97908
   97910   97909   97911   97913   97912   97914   97916   97915   97917
   97919   97918   97920   97922   97921   97923   97925   97924   97926
   97928   97927   97929   97931   97930   97932   97934   97933   97935
   97937   97936   97938   97940   97939   97941   97943   97942   97944
   97946   97945   97947   97949   97948   97950   97952   97951   97953
   97955   97954   97956   97958   97957   97959   97961   97960   97962
   97964   97963   97965   97967   97966   97968   97970   97969   97971
   97973   97972   97974   97976   97975   97977   97979   97978   97980
   97982   97981   97983   97985   97984   97986   97988   97987   97989
   97991   97990   97992   97994   97993   97995   97997   97996   97998
   98000   97999   98001   98003   98002   98004   98006   98005   98007
   98009   98008   98010   98012   98011   98013   98015   98014   98016
   98018   98017   98019   98021   98020   98022   98024   98023   98025
   98027   98026   98028   98030   98029   98031   98033   98032   98034
   98036   98035   98037   98039   98038   98040   98042   98041   98043
   98045   98044   98046   98048   98047   98049   98051   98050   98052
   98054   98053   98055   98057   98056   98058   98060   98059   98061
   98063   98062   98064   98066   98065   98067   98069   98068   98070
   98072   98071   98073   98075   98074   98076   98078   98077   98079
   98081   98080   98082   98084   98083   98085   98087   98086   98088
   98090   98089   98091   98093   98092   98094   98096   98095   98097
   98099   98098   98100   98102   98101   98103   98105   98104   98106
   98108   98107   98109   98111   98110   98112   98114   98113   98115
   98117   98116   98118   98120   98119   98121   98123   98122   98124
   98126   98125   98127   98129   98128   98130   98132   98131   98133
   98135   98134   98136   98138   98137   98139   98141   98140   98142
   98144   98143   98145   98147   98146   98148   98150   98149   98151
   98153   98152   98154   98156   98155   98157   98159   98158   98160
   98162   98161   98163   98165   98164   98166   98168   98167   98169
   98171   98170   98172   98174   98173   98175   98177   98176   98178
   98180   98179   98181   98183   98182   98184   98186   98185   98187
   98189   98188   98190   98192   98191   98193   98195   98194   98196
   98198   98197   98199   98201   98200   98202   98204   98203   98205
   98207   98206   98208   98210   98209   98211   98213   98212   98214
   98216   98215   98217   98219   98218   98220   98222   98221   98223
   98225   98224   98226   98228   98227   98229   98231   98230   98232
   98234   98233   98235   98237   98236   98238   98240   98239   98241
   98243   98242   98244   98246   98245   98247   98249   98248   98250
   98252   98251   98253   98255   98254   98256   98258   98257   98259
   98261   98260   98262   98264   98263   98265   98267   98266   98268
   98270   98269   98271   98273   98272   98274   98276   98275   98277
   98279   98278   98280   98282   98281   98283   98285   98284   98286
   98288   98287   98289   98291   98290   98292   98294   98293   98295
   98297   98296   98298   98300   98299   98301   98303   98302   98304
   98306   98305   98307   98309   98308   98310   98312   98311   98313
   98315   98314   98316   98318   98317   98319   98321   98320   98322
   98324   98323   98325   98327   98326   98328   98330   98329   98331
   98333   98332   98334   98336   98335   98337   98339   98338   98340
   98342   98341   98343   98345   98344   98346   98348   98347   98349
   98351   98350   98352   98354   98353   98355   98357   98356   98358
   98360   98359   98361   98363   98362   98364   98366   98365   98367
   98369   98368   98370   98372   98371   98373   98375   98374   98376
   98378   98377   98379   98381   98380   98382   98384   98383   98385
   98387   98386   98388   98390   98389   98391   98393   98392   98394
   98396   98395   98397   98399   98398   98400   98402   98401   98403
   98405   98404   98406   98408   98407   98409   98411   98410   98412
   98414   98413   98415   98417   98416   98418   98420   98419   98421
   98423   98422   98424   98426   98425   98427   98429   98428   98430
   98432   98431   98433   98435   98434   98436   98438   98437   98439
   98441   98440   98442   98444   98443   98445   98447   98446   98448
   98450   98449   98451   98453   98452   98454   98456   98455   98457
   98459   98458   98460   98462   98461   98463   98465   98464   98466
   98468   98467   98469   98471   98470   98472   98474   98473   98475
   98477   98476   98478   98480   98479   98481   98483   98482   98484
   98486   98485   98487   98489   98488   98490   98492   98491   98493
   98495   98494   98496   98498   98497   98499   98501   98500   98502
   98504   98503   98505   98507   98506   98508   98510   98509   98511
   98513   98512   98514   98516   98515   98517   98519   98518   98520
   98522   98521   98523   98525   98524   98526   98528   98527   98529
   98531   98530   98532   98534   98533   98535   98537   98536   98538
   98540   98539   98541   98543   98542   98544   98546   98545   98547
   98549   98548   98550   98552   98551   98553   98555   98554   98556
   98558   98557   98559   98561   98560   98562   98564   98563   98565
   98567   98566   98568   98570   98569   98571   98573   98572   98574
   98576   98575   98577   98579   98578   98580   98582   98581   98583
   98585   98584   98586   98588   98587   98589   98591   98590   98592
   98594   98593   98595   98597   98596   98598   98600   98599   98601
   98603   98602   98604   98606   98605   98607   98609   98608   98610
   98612   98611   98613   98615   98614   98616   98618   98617   98619
   98621   98620   98622   98624   98623   98625   98627   98626   98628
   98630   98629   98631   98633   98632   98634   98636   98635   98637
   98639   98638   98640   98642   98641   98643   98645   98644   98646
   98648   98647   98649   98651   98650   98652   98654   98653   98655
   98657   98656   98658   98660   98659   98661   98663   98662   98664
   98666   98665   98667   98669   98668   98670   98672   98671   98673
   98675   98674   98676   98678   98677   98679   98681   98680   98682
   98684   98683   98685   98687   98686   98688   98690   98689   98691
   98693   98692   98694   98696   98695   98697   98699   98698   98700
   98702   98701   98703   98705   98704   98706   98708   98707   98709
   98711   98710   98712   98714   98713   98715   98717   98716   98718
   98720   98719   98721   98723   98722   98724   98726   98725   98727
   98729   98728   98730   98732   98731   98733   98735   98734   98736
   98738   98737   98739   98741   98740   98742   98744   98743   98745
   98747   98746   98748   98750   98749   98751   98753   98752   98754
   98756   98755   98757   98759   98758   98760   98762   98761   98763
   98765   98764   98766   98768   98767   98769   98771   98770   98772
   98774   98773   98775   98777   98776   98778   98780   98779   98781
   98783   98782   98784   98786   98785   98787   98789   98788   98790
   98792   98791   98793   98795   98794   98796   98798   98797   98799
   98801   98800   98802   98804   98803   98805   98807   98806   98808
   98810   98809   98811   98813   98812   98814   98816   98815   98817
   98819   98818   98820   98822   98821   98823   98825   98824   98826
   98828   98827   98829   98831   98830   98832   98834   98833   98835
   98837   98836   98838   98840   98839   98841   98843   98842   98844
   98846   98845   98847   98849   98848   98850   98852   98851   98853
   98855   98854   98856   98858   98857   98859   98861   98860   98862
   98864   98863   98865   98867   98866   98868   98870   98869   98871
   98873   98872   98874   98876   98875   98877   98879   98878   98880
   98882   98881   98883   98885   98884   98886   98888   98887   98889
   98891   98890   98892   98894   98893   98895   98897   98896   98898
   98900   98899   98901   98903   98902   98904   98906   98905   98907
   98909   98908   98910   98912   98911   98913   98915   98914   98916
   98918   98917   98919   98921   98920   98922   98924   98923   98925
   98927   98926   98928   98930   98929   98931   98933   98932   98934
   98936   98935   98937   98939   98938   98940   98942   98941   98943
   98945   98944   98946   98948   98947   98949   98951   98950   98952
   98954   98953   98955   98957   98956   98958   98960   98959   98961
   98963   98962   98964   98966   98965   98967   98969   98968   98970
   98972   98971   98973   98975   98974   98976   98978   98977   98979
   98981   98980   98982   98984   98983   98985   98987   98986   98988
   98990   98989   98991   98993   98992   98994   98996   98995   98997
   98999   98998   99000   99002   99001   99003   99005   99004   99006
   99008   99007   99009   99011   99010   99012   99014   99013   99015
   99017   99016   99018   99020   99019   99021   99023   99022   99024
   99026   99025   99027   99029   99028   99030   99032   99031   99033
   99035   99034   99036   99038   99037   99039   99041   99040   99042
   99044   99043   99045   99047   99046   99048   99050   99049   99051
   99053   99052   99054   99056   99055   99057   99059   99058   99060
   99062   99061   99063   99065   99064   99066   99068   99067   99069
   99071   99070   99072   99074   99073   99075   99077   99076   99078
   99080   99079   99081   99083   99082   99084   99086   99085   99087
   99089   99088   99090   99092   99091   99093   99095   99094   99096
   99098   99097   99099   99101   99100   99102   99104   99103   99105
   99107   99106   99108   99110   99109   99111   99113   99112   99114
   99116   99115   99117   99119   99118   99120   99122   99121   99123
   99125   99124   99126   99128   99127   99129   99131   99130   99132
   99134   99133   99135   99137   99136   99138   99140   99139   99141
   99143   99142   99144   99146   99145   99147   99149   99148   99150
   99152   99151   99153   99155   99154   99156   99158   99157   99159
   99161   99160   99162   99164   99163   99165   99167   99166   99168
   99170   99169   99171   99173   99172   99174   99176   99175   99177
   99179   99178   99180   99182   99181   99183   99185   99184   99186
   99188   99187   99189   99191   99190   99192   99194   99193   99195
   99197   99196   99198   99200   99199   99201   99203   99202   99204
   99206   99205   99207   99209   99208   99210   99212   99211   99213
   99215   99214   99216   99218   99217   99219   99221   99220   99222
   99224   99223   99225   99227   99226   99228   99230   99229   99231
   99233   99232   99234   99236   99235   99237   99239   99238   99240
   99242   99241   99243   99245   99244   99246   99248   99247   99249
   99251   99250   99252   99254   99253   99255   99257   99256   99258
   99260   99259   99261   99263   99262   99264   99266   99265   99267
   99269   99268   99270   99272   99271   99273   99275   99274   99276
   99278   99277   99279   99281   99280   99282   99284   99283   99285
   99287   99286   99288   99290   99289   99291   99293   99292   99294
   99296   99295   99297   99299   99298   99300   99302   99301   99303
   99305   99304   99306   99308   99307   99309   99311   99310   99312
   99314   99313   99315   99317   99316   99318   99320   99319   99321
   99323   99322   99324   99326   99325   99327   99329   99328   99330
   99332   99331   99333   99335   99334   99336   99338   99337   99339
   99341   99340   99342   99344   99343   99345   99347   99346   99348
   99350   99349   99351   99353   99352   99354   99356   99355   99357
   99359   99358   99360   99362   99361   99363   99365   99364   99366
   99368   99367   99369   99371   99370   99372   99374   99373   99375
   99377   99376   99378   99380   99379   99381   99383   99382   99384
   99386   99385   99387   99389   99388   99390   99392   99391   99393
   99395   99394   99396   99398   99397   99399   99401   99400   99402
   99404   99403   99405   99407   99406   99408   99410   99409   99411
   99413   99412   99414   99416   99415   99417   99419   99418   99420
   99422   99421   99423   99425   99424   99426   99428   99427   99429
   99431   99430   99432   99434   99433   99435   99437   99436   99438
   99440   99439   99441   99443   99442   99444   99446   99445   99447
   99449   99448   99450   99452   99451   99453   99455   99454   99456
   99458   99457   99459   99461   99460   99462   99464   99463   99465
   99467   99466   99468   99470   99469   99471   99473   99472   99474
   99476   99475   99477   99479   99478   99480   99482   99481   99483
   99485   99484   99486   99488   99487   99489   99491   99490   99492
   99494   99493   99495   99497   99496   99498   99500   99499   99501
   99503   99502   99504   99506   99505   99507   99509   99508   99510
   99512   99511   99513   99515   99514   99516   99518   99517   99519
   99521   99520   99522   99524   99523   99525   99527   99526   99528
   99530   99529   99531   99533   99532   99534   99536   99535   99537
   99539   99538   99540   99542   99541   99543   99545   99544   99546
   99548   99547   99549   99551   99550   99552   99554   99553   99555
   99557   99556   99558   99560   99559   99561   99563   99562   99564
   99566   99565   99567   99569   99568   99570   99572   99571   99573
   99575   99574   99576   99578   99577   99579   99581   99580   99582
   99584   99583   99585   99587   99586   99588   99590   99589   99591
   99593   99592   99594   99596   99595   99597   99599   99598   99600
   99602   99601   99603   99605   99604   99606   99608   99607   99609
   99611   99610   99612   99614   99613   99615   99617   99616   99618
   99620   99619   99621   99623   99622   99624   99626   99625   99627
   99629   99628   99630   99632   99631   99633   99635   99634   99636
   99638   99637   99639   99641   99640   99642   99644   99643   99645
   99647   99646   99648   99650   99649   99651   99653   99652   99654
   99656   99655   99657   99659   99658   99660   99662   99661   99663
   99665   99664   99666   99668   99667   99669   99671   99670   99672
   99674   99673   99675   99677   99676   99678   99680   99679   99681
   99683   99682   99684   99686   99685   99687   99689   99688   99690
   99692   99691   99693   99695   99694   99696   99698   99697   99699
   99701   99700   99702   99704   99703   99705   99707   99706   99708
   99710   99709   99711   99713   99712   99714   99716   99715   99717
   99719   99718   99720   99722   99721   99723   99725   99724   99726
   99728   99727   99729   99731   99730   99732   99734   99733   99735
   99737   99736   99738   99740   99739   99741   99743   99742   99744
   99746   99745   99747   99749   99748   99750   99752   99751   99753
   99755   99754   99756   99758   99757   99759   99761   99760   99762
   99764   99763   99765   99767   99766   99768   99770   99769   99771
   99773   99772   99774   99776   99775   99777   99779   99778   99780
   99782   99781   99783   99785   99784   99786   99788   99787   99789
   99791   99790   99792   99794   99793   99795   99797   99796   99798
   99800   99799   99801   99803   99802   99804   99806   99805   99807
   99809   99808   99810   99812   99811   99813   99815   99814   99816
   99818   99817   99819   99821   99820   99822   99824   99823   99825
   99827   99826   99828   99830   99829   99831   99833   99832   99834
   99836   99835   99837   99839   99838   99840   99842   99841   99843
   99845   99844   99846   99848   99847   99849   99851   99850   99852
   99854   99853   99855   99857   99856   99858   99860   99859   99861
   99863   99862   99864   99866   99865   99867   99869   99868   99870
   99872   99871   99873   99875   99874   99876   99878   99877   99879
   99881   99880   99882   99884   99883   99885   99887   99886   99888
   99890   99889   99891   99893   99892   99894   99896   99895   99897
   99899   99898   99900   99902   99901   99903   99905   99904   99906
   99908   99907   99909   99911   99910   99912   99914   99913   99915
   99917   99916   99918   99920   99919   99921   99923   99922   99924
   99926   99925   99927   99929   99928   99930   99932   99931   99933
   99935   99934   99936   99938   99937   99939   99941   99940   99942
   99944   99943   99945   99947   99946   99948   99950   99949   99951
   99953   99952   99954   99956   99955   99957   99959   99958   99960
   99962   99961   99963   99965   99964   99966   99968   99967   99969
   99971   99970   99972   99974   99973   99975   99977   99976   99978
   99980   99979   99981   99983   99982   99984   99986   99985   99987
   99989   99988   99990   99992   99991   99993   99995   99994   99996
   99998   99997   99999  100001  100000  100002  100004  100003  100005
  100007  100006  100008  100010  100009  100011  100013  100012  100014
  100016  100015  100017  100019  100018  100020  100022  100021  100023
  100025  100024  100026  100028  100027  100029  100031  100030  100032
  100034  100033  100035  100037  100036  100038  100040  100039  100041
  100043  100042  100044  100046  100045  100047  100049  100048  100050
  100052  100051  100053  100055  100054  100056  100058  100057  100059
  100061  100060  100062  100064  100063  100065  100067  100066  100068
  100070  100069  100071  100073  100072  100074  100076  100075  100077
  100079  100078  100080  100082  100081  100083  100085  100084  100086
  100088  100087  100089  100091  100090  100092  100094  100093  100095
  100097  100096  100098  100100  100099  100101  100103  100102  100104
  100106  100105  100107  100109  100108  100110  100112  100111  100113
  100115  100114  100116  100118  100117  100119  100121  100120  100122
  100124  100123  100125  100127  100126  100128  100130  100129  100131
  100133  100132  100134  100136  100135  100137  100139  100138  100140
  100142  100141  100143  100145  100144  100146  100148  100147  100149
  100151  100150  100152  100154  100153  100155  100157  100156  100158
  100160  100159  100161  100163  100162  100164  100166  100165  100167
  100169  100168  100170  100172  100171  100173  100175  100174  100176
  100178  100177  100179  100181  100180  100182  100184  100183  100185
  100187  100186  100188  100190  100189  100191  100193  100192  100194
  100196  100195  100197  100199  100198  100200  100202  100201  100203
  100205  100204  100206  100208  100207  100209  100211  100210  100212
  100214  100213  100215  100217  100216  100218  100220  100219  100221
  100223  100222  100224  100226  100225  100227  100229  100228  100230
  100232  100231  100233  100235  100234  100236  100238  100237  100239
  100241  100240  100242  100244  100243  100245  100247  100246  100248
  100250  100249  100251  100253  100252  100254  100256  100255  100257
  100259  100258  100260  100262  100261  100263  100265  100264  100266
  100268  100267  100269  100271  100270  100272  100274  100273  100275
  100277  100276  100278  100280  100279  100281  100283  100282  100284
  100286  100285  100287  100289  100288  100290  100292  100291  100293
  100295  100294  100296  100298  100297  100299  100301  100300  100302
  100304  100303  100305  100307  100306  100308  100310  100309  100311
  100313  100312  100314  100316  100315  100317  100319  100318  100320
  100322  100321  100323  100325  100324  100326  100328  100327  100329
  100331  100330  100332  100334  100333  100335  100337  100336  100338
  100340  100339  100341  100343  100342  100344  100346  100345  100347
  100349  100348  100350  100352  100351  100353  100355  100354  100356
  100358  100357  100359  100361  100360  100362  100364  100363  100365
  100367  100366  100368  100370  100369  100371  100373  100372  100374
  100376  100375  100377  100379  100378  100380  100382  100381  100383
  100385  100384  100386  100388  100387  100389  100391  100390  100392
  100394  100393  100395  100397  100396  100398  100400  100399  100401
  100403  100402  100404  100406  100405  100407  100409  100408  100410
  100412  100411  100413  100415  100414  100416  100418  100417  100419
  100421  100420  100422  100424  100423  100425  100427  100426  100428
  100430  100429  100431  100433  100432  100434  100436  100435  100437
  100439  100438  100440  100442  100441  100443  100445  100444  100446
  100448  100447  100449  100451  100450  100452  100454  100453  100455
  100457  100456  100458  100460  100459  100461  100463  100462  100464
  100466  100465  100467  100469  100468  100470  100472  100471  100473
  100475  100474  100476  100478  100477  100479  100481  100480  100482
  100484  100483  100485  100487  100486  100488  100490  100489  100491
  100493  100492  100494  100496  100495  100497  100499  100498  100500
  100502  100501  100503  100505  100504  100506  100508  100507  100509
  100511  100510  100512  100514  100513  100515  100517  100516  100518
  100520  100519  100521  100523  100522  100524  100526  100525  100527
  100529  100528  100530  100532  100531  100533  100535  100534  100536
  100538  100537  100539  100541  100540  100542  100544  100543  100545
  100547  100546  100548  100550  100549  100551  100553  100552  100554
  100556  100555  100557  100559  100558  100560  100562  100561  100563
  100565  100564  100566  100568  100567  100569  100571  100570  100572
  100574  100573  100575  100577  100576  100578  100580  100579  100581
  100583  100582  100584  100586  100585  100587  100589  100588  100590
  100592  100591  100593  100595  100594  100596  100598  100597  100599
  100601  100600  100602  100604  100603  100605  100607  100606  100608
  100610  100609  100611  100613  100612  100614  100616  100615  100617
  100619  100618  100620  100622  100621  100623  100625  100624  100626
  100628  100627  100629  100631  100630  100632  100634  100633  100635
  100637  100636  100638  100640  100639  100641  100643  100642  100644
  100646  100645  100647  100649  100648  100650  100652  100651  100653
  100655  100654  100656  100658  100657  100659  100661  100660  100662
  100664  100663  100665  100667  100666  100668  100670  100669  100671
  100673  100672  100674  100676  100675  100677  100679  100678  100680
  100682  100681  100683  100685  100684  100686  100688  100687  100689
  100691  100690  100692  100694  100693  100695  100697  100696  100698
  100700  100699  100701  100703  100702  100704  100706  100705  100707
  100709  100708  100710  100712  100711  100713  100715  100714  100716
  100718  100717  100719  100721  100720  100722  100724  100723  100725
  100727  100726  100728  100730  100729  100731  100733  100732  100734
  100736  100735  100737  100739  100738  100740  100742  100741  100743
  100745  100744  100746  100748  100747  100749  100751  100750  100752
  100754  100753  100755  100757  100756  100758  100760  100759  100761
  100763  100762  100764  100766  100765  100767  100769  100768  100770
  100772  100771  100773  100775  100774  100776  100778  100777  100779
  100781  100780  100782  100784  100783  100785  100787  100786  100788
  100790  100789  100791  100793  100792  100794  100796  100795  100797
  100799  100798  100800  100802  100801  100803  100805  100804  100806
  100808  100807  100809  100811  100810  100812  100814  100813  100815
  100817  100816  100818  100820  100819  100821  100823  100822  100824
  100826  100825  100827  100829  100828  100830  100832  100831  100833
  100835  100834  100836  100838  100837  100839  100841  100840  100842
  100844  100843  100845  100847  100846  100848  100850  100849  100851
  100853  100852  100854  100856  100855  100857  100859  100858  100860
  100862  100861  100863  100865  100864  100866  100868  100867  100869
  100871  100870  100872  100874  100873  100875  100877  100876  100878
  100880  100879  100881  100883  100882  100884  100886  100885  100887
  100889  100888  100890  100892  100891  100893  100895  100894  100896
  100898  100897  100899  100901  100900  100902  100904  100903  100905
  100907  100906  100908  100910  100909  100911  100913  100912  100914
  100916  100915  100917  100919  100918  100920  100922  100921  100923
  100925  100924  100926  100928  100927  100929  100931  100930  100932
  100934  100933  100935  100937  100936  100938  100940  100939  100941
  100943  100942  100944  100946  100945  100947  100949  100948  100950
  100952  100951  100953  100955  100954  100956  100958  100957  100959
  100961  100960  100962  100964  100963  100965  100967  100966  100968
  100970  100969  100971  100973  100972  100974  100976  100975  100977
  100979  100978  100980  100982  100981  100983  100985  100984  100986
  100988  100987  100989  100991  100990  100992  100994  100993  100995
  100997  100996  100998  101000  100999  101001  101003  101002  101004
  101006  101005  101007  101009  101008  101010  101012  101011  101013
  101015  101014  101016  101018  101017  101019  101021  101020  101022
  101024  101023  101025  101027  101026  101028  101030  101029  101031
  101033  101032  101034  101036  101035  101037  101039  101038  101040
  101042  101041  101043  101045  101044  101046  101048  101047  101049
  101051  101050  101052  101054  101053  101055  101057  101056  101058
  101060  101059  101061  101063  101062  101064  101066  101065  101067
  101069  101068  101070  101072  101071  101073  101075  101074  101076
  101078  101077  101079  101081  101080  101082  101084  101083  101085
  101087  101086  101088  101090  101089  101091  101093  101092  101094
  101096  101095  101097  101099  101098  101100  101102  101101  101103
  101105  101104  101106  101108  101107  101109  101111  101110  101112
  101114  101113  101115  101117  101116  101118  101120  101119  101121
  101123  101122  101124  101126  101125  101127  101129  101128  101130
  101132  101131  101133  101135  101134  101136  101138  101137  101139
  101141  101140  101142  101144  101143  101145  101147  101146  101148
  101150  101149  101151  101153  101152  101154  101156  101155  101157
  101159  101158  101160  101162  101161  101163  101165  101164  101166
  101168  101167  101169  101171  101170  101172  101174  101173  101175
  101177  101176  101178  101180  101179  101181  101183  101182  101184
  101186  101185  101187  101189  101188  101190  101192  101191  101193
  101195  101194  101196  101198  101197  101199  101201  101200  101202
  101204  101203  101205  101207  101206  101208  101210  101209  101211
  101213  101212  101214  101216  101215  101217  101219  101218  101220
  101222  101221  101223  101225  101224  101226  101228  101227  101229
  101231  101230  101232  101234  101233  101235  101237  101236  101238
  101240  101239  101241  101243  101242  101244  101246  101245  101247
  101249  101248  101250  101252  101251  101253  101255  101254  101256
  101258  101257  101259  101261  101260  101262  101264  101263  101265
  101267  101266  101268  101270  101269  101271  101273  101272  101274
  101276  101275  101277  101279  101278  101280  101282  101281  101283
  101285  101284  101286  101288  101287  101289  101291  101290  101292
  101294  101293  101295  101297  101296  101298  101300  101299  101301
  101303  101302  101304  101306  101305  101307  101309  101308  101310
  101312  101311  101313  101315  101314  101316  101318  101317  101319
  101321  101320  101322  101324  101323  101325  101327  101326  101328
  101330  101329  101331  101333  101332  101334  101336  101335  101337
  101339  101338  101340  101342  101341  101343  101345  101344  101346
  101348  101347  101349  101351  101350  101352  101354  101353  101355
  101357  101356  101358  101360  101359  101361  101363  101362  101364
  101366  101365  101367  101369  101368  101370  101372  101371  101373
  101375  101374  101376  101378  101377  101379  101381  101380  101382
  101384  101383  101385  101387  101386  101388  101390  101389  101391
  101393  101392  101394  101396  101395  101397  101399  101398  101400
  101402  101401  101403  101405  101404  101406  101408  101407  101409
  101411  101410  101412  101414  101413  101415  101417  101416  101418
  101420  101419  101421  101423  101422  101424  101426  101425  101427
  101429  101428  101430  101432  101431  101433  101435  101434  101436
  101438  101437  101439  101441  101440  101442  101444  101443  101445
  101447  101446  101448  101450  101449  101451  101453  101452  101454
  101456  101455  101457  101459  101458  101460  101462  101461  101463
  101465  101464  101466  101468  101467  101469  101471  101470  101472
  101474  101473  101475  101477  101476  101478  101480  101479  101481
  101483  101482  101484  101486  101485  101487  101489  101488  101490
  101492  101491  101493  101495  101494  101496  101498  101497  101499
  101501  101500  101502  101504  101503  101505  101507  101506  101508
  101510  101509  101511  101513  101512  101514  101516  101515  101517
  101519  101518  101520  101522  101521  101523  101525  101524  101526
  101528  101527  101529  101531  101530  101532  101534  101533  101535
  101537  101536  101538  101540  101539  101541  101543  101542  101544
  101546  101545  101547  101549  101548  101550  101552  101551  101553
  101555  101554  101556  101558  101557  101559  101561  101560  101562
  101564  101563  101565  101567  101566  101568  101570  101569  101571
  101573  101572  101574  101576  101575  101577  101579  101578  101580
  101582  101581  101583  101585  101584  101586  101588  101587  101589
  101591  101590  101592  101594  101593  101595  101597  101596  101598
  101600  101599  101601  101603  101602  101604  101606  101605  101607
  101609  101608  101610  101612  101611  101613  101615  101614  101616
  101618  101617  101619  101621  101620  101622  101624  101623  101625
  101627  101626  101628  101630  101629  101631  101633  101632  101634
  101636  101635  101637  101639  101638  101640  101642  101641  101643
  101645  101644  101646  101648  101647  101649  101651  101650  101652
  101654  101653  101655  101657  101656  101658  101660  101659  101661
  101663  101662  101664  101666  101665  101667  101669  101668  101670
  101672  101671  101673  101675  101674  101676  101678  101677  101679
  101681  101680  101682  101684  101683  101685  101687  101686  101688
  101690  101689  101691  101693  101692  101694  101696  101695  101697
  101699  101698  101700  101702  101701  101703  101705  101704  101706
  101708  101707  101709  101711  101710  101712  101714  101713  101715
  101717  101716  101718  101720  101719  101721  101723  101722  101724
  101726  101725  101727  101729  101728  101730  101732  101731  101733
  101735  101734  101736  101738  101737  101739  101741  101740  101742
  101744  101743  101745  101747  101746  101748  101750  101749  101751
  101753  101752  101754  101756  101755  101757  101759  101758  101760
  101762  101761  101763  101765  101764  101766  101768  101767  101769
  101771  101770  101772  101774  101773  101775  101777  101776  101778
  101780  101779  101781  101783  101782  101784  101786  101785  101787
  101789  101788  101790  101792  101791  101793  101795  101794  101796
  101798  101797  101799  101801  101800  101802  101804  101803  101805
  101807  101806  101808  101810  101809  101811  101813  101812  101814
  101816  101815  101817  101819  101818  101820  101822  101821  101823
  101825  101824  101826  101828  101827  101829  101831  101830  101832
  101834  101833  101835  101837  101836  101838  101840  101839  101841
  101843  101842  101844  101846  101845  101847  101849  101848  101850
  101852  101851  101853  101855  101854  101856  101858  101857  101859
  101861  101860  101862  101864  101863  101865  101867  101866  101868
  101870  101869  101871  101873  101872  101874  101876  101875  101877
  101879  101878  101880  101882  101881  101883  101885  101884  101886
  101888  101887  101889  101891  101890  101892  101894  101893  101895
  101897  101896  101898  101900  101899  101901  101903  101902  101904
  101906  101905  101907  101909  101908  101910  101912  101911  101913
  101915  101914  101916  101918  101917  101919  101921  101920  101922
  101924  101923  101925  101927  101926  101928  101930  101929  101931
  101933  101932  101934  101936  101935  101937  101939  101938  101940
  101942  101941  101943  101945  101944  101946  101948  101947  101949
  101951  101950  101952  101954  101953  101955  101957  101956  101958
  101960  101959  101961  101963  101962  101964  101966  101965  101967
  101969  101968  101970  101972  101971  101973  101975  101974  101976
  101978  101977  101979  101981  101980  101982  101984  101983  101985
  101987  101986  101988  101990  101989  101991  101993  101992  101994
  101996  101995  101997  101999  101998  102000  102002  102001  102003
  102005  102004  102006  102008  102007  102009  102011  102010  102012
  102014  102013  102015  102017  102016  102018  102020  102019  102021
  102023  102022  102024  102026  102025  102027  102029  102028  102030
  102032  102031  102033  102035  102034  102036  102038  102037  102039
  102041  102040  102042  102044  102043  102045  102047  102046  102048
  102050  102049  102051  102053  102052  102054  102056  102055  102057
  102059  102058  102060  102062  102061  102063  102065  102064  102066
  102068  102067  102069  102071  102070  102072  102074  102073  102075
  102077  102076  102078  102080  102079  102081  102083  102082  102084
  102086  102085  102087  102089  102088  102090  102092  102091  102093
  102095  102094  102096  102098  102097  102099  102101  102100  102102
  102104  102103  102105  102107  102106  102108  102110  102109  102111
  102113  102112  102114  102116  102115  102117  102119  102118  102120
  102122  102121  102123  102125  102124  102126  102128  102127  102129
  102131  102130  102132  102134  102133  102135  102137  102136  102138
  102140  102139  102141  102143  102142  102144  102146  102145  102147
  102149  102148  102150  102152  102151  102153  102155  102154  102156
  102158  102157  102159  102161  102160  102162  102164  102163  102165
  102167  102166  102168  102170  102169  102171  102173  102172  102174
  102176  102175  102177  102179  102178  102180  102182  102181  102183
  102185  102184  102186  102188  102187  102189  102191  102190  102192
  102194  102193  102195  102197  102196  102198  102200  102199  102201
  102203  102202  102204  102206  102205  102207  102209  102208  102210
  102212  102211  102213  102215  102214  102216  102218  102217  102219
  102221  102220  102222  102224  102223  102225  102227  102226  102228
  102230  102229  102231  102233  102232  102234  102236  102235  102237
  102239  102238  102240  102242  102241  102243  102245  102244  102246
  102248  102247  102249  102251  102250  102252  102254  102253  102255
  102257  102256  102258  102260  102259  102261  102263  102262  102264
  102266  102265  102267  102269  102268  102270  102272  102271  102273
  102275  102274  102276  102278  102277  102279  102281  102280  102282
  102284  102283  102285  102287  102286  102288  102290  102289  102291
  102293  102292  102294  102296  102295  102297  102299  102298  102300
  102302  102301  102303  102305  102304  102306  102308  102307  102309
  102311  102310  102312  102314  102313  102315  102317  102316  102318
  102320  102319  102321  102323  102322  102324  102326  102325  102327
  102329  102328  102330  102332  102331  102333  102335  102334  102336
  102338  102337  102339  102341  102340  102342  102344  102343  102345
  102347  102346  102348  102350  102349  102351  102353  102352  102354
  102356  102355  102357  102359  102358  102360  102362  102361  102363
  102365  102364  102366  102368  102367  102369  102371  102370  102372
  102374  102373  102375  102377  102376  102378  102380  102379  102381
  102383  102382  102384  102386  102385  102387  102389  102388  102390
  102392  102391  102393  102395  102394  102396  102398  102397  102399
  102401  102400  102402  102404  102403  102405  102407  102406  102408
  102410  102409  102411  102413  102412  102414  102416  102415  102417
  102419  102418  102420  102422  102421  102423  102425  102424  102426
  102428  102427  102429  102431  102430  102432  102434  102433  102435
  102437  102436  102438  102440  102439  102441  102443  102442  102444
  102446  102445  102447  102449  102448  102450  102452  102451  102453
  102455  102454  102456  102458  102457  102459  102461  102460  102462
  102464  102463  102465  102467  102466  102468  102470  102469  102471
  102473  102472  102474  102476  102475  102477  102479  102478  102480
  102482  102481  102483  102485  102484  102486  102488  102487  102489
  102491  102490  102492  102494  102493  102495  102497  102496  102498
  102500  102499  102501  102503  102502  102504  102506  102505  102507
  102509  102508  102510  102512  102511  102513  102515  102514  102516
  102518  102517  102519  102521  102520  102522  102524  102523  102525
  102527  102526  102528  102530  102529  102531  102533  102532  102534
  102536  102535  102537  102539  102538  102540  102542  102541  102543
  102545  102544  102546  102548  102547  102549  102551  102550  102552
  102554  102553  102555  102557  102556  102558  102560  102559  102561
  102563  102562  102564  102566  102565  102567  102569  102568  102570
  102572  102571  102573  102575  102574  102576  102578  102577  102579
  102581  102580  102582  102584  102583  102585  102587  102586  102588
  102590  102589  102591  102593  102592  102594  102596  102595  102597
  102599  102598  102600  102602  102601  102603  102605  102604  102606
  102608  102607  102609  102611  102610  102612  102614  102613  102615
  102617  102616  102618  102620  102619  102621  102623  102622  102624
  102626  102625  102627  102629  102628  102630  102632  102631  102633
  102635  102634  102636  102638  102637  102639  102641  102640  102642
  102644  102643  102645  102647  102646  102648  102650  102649  102651
  102653  102652  102654  102656  102655  102657  102659  102658  102660
  102662  102661  102663  102665  102664  102666  102668  102667  102669
  102671  102670  102672  102674  102673  102675  102677  102676  102678
  102680  102679  102681  102683  102682  102684  102686  102685  102687
  102689  102688  102690  102692  102691  102693  102695  102694  102696
  102698  102697  102699  102701  102700  102702  102704  102703  102705
  102707  102706  102708  102710  102709  102711  102713  102712  102714
  102716  102715  102717  102719  102718  102720  102722  102721  102723
  102725  102724  102726  102728  102727  102729  102731  102730  102732
  102734  102733  102735  102737  102736  102738  102740  102739  102741
  102743  102742  102744  102746  102745  102747  102749  102748  102750
  102752  102751  102753  102755  102754  102756  102758  102757  102759
  102761  102760  102762  102764  102763  102765  102767  102766  102768
  102770  102769  102771  102773  102772  102774  102776  102775  102777
  102779  102778  102780  102782  102781  102783  102785  102784  102786
  102788  102787  102789  102791  102790  102792  102794  102793  102795
  102797  102796  102798  102800  102799  102801  102803  102802  102804
  102806  102805  102807  102809  102808  102810  102812  102811  102813
  102815  102814  102816  102818  102817  102819  102821  102820  102822
  102824  102823  102825  102827  102826  102828  102830  102829  102831
  102833  102832  102834  102836  102835  102837  102839  102838  102840
  102842  102841  102843  102845  102844  102846  102848  102847  102849
  102851  102850  102852  102854  102853  102855  102857  102856  102858
  102860  102859  102861  102863  102862  102864  102866  102865  102867
  102869  102868  102870  102872  102871  102873  102875  102874  102876
  102878  102877  102879  102881  102880  102882  102884  102883  102885
  102887  102886  102888  102890  102889  102891  102893  102892  102894
  102896  102895  102897  102899  102898  102900  102902  102901  102903
  102905  102904  102906  102908  102907  102909  102911  102910  102912
  102914  102913  102915  102917  102916  102918  102920  102919  102921
  102923  102922  102924  102926  102925  102927  102929  102928  102930
  102932  102931  102933  102935  102934  102936  102938  102937  102939
  102941  102940  102942  102944  102943  102945  102947  102946  102948
  102950  102949  102951  102953  102952  102954  102956  102955  102957
  102959  102958  102960  102962  102961  102963  102965  102964  102966
  102968  102967  102969  102971  102970  102972  102974  102973  102975
  102977  102976  102978  102980  102979  102981  102983  102982  102984
  102986  102985  102987  102989  102988  102990  102992  102991  102993
  102995  102994  102996  102998  102997  102999  103001  103000  103002
  103004  103003  103005  103007  103006  103008  103010  103009  103011
  103013  103012  103014  103016  103015  103017  103019  103018  103020
  103022  103021  103023  103025  103024  103026  103028  103027  103029
  103031  103030  103032  103034  103033  103035  103037  103036  103038
  103040  103039  103041  103043  103042  103044  103046  103045  103047
  103049  103048  103050  103052  103051  103053  103055  103054  103056
  103058  103057  103059  103061  103060  103062  103064  103063  103065
  103067  103066  103068  103070  103069  103071  103073  103072  103074
  103076  103075  103077  103079  103078  103080  103082  103081  103083
  103085  103084  103086  103088  103087  103089  103091  103090  103092
  103094  103093  103095  103097  103096  103098  103100  103099  103101
  103103  103102  103104  103106  103105  103107  103109  103108  103110
  103112  103111  103113  103115  103114  103116  103118  103117  103119
  103121  103120  103122  103124  103123  103125  103127  103126  103128
  103130  103129  103131  103133  103132  103134  103136  103135  103137
  103139  103138  103140  103142  103141  103143  103145  103144  103146
  103148  103147  103149  103151  103150  103152  103154  103153  103155
  103157  103156  103158  103160  103159  103161  103163  103162  103164
  103166  103165  103167  103169  103168  103170  103172  103171  103173
  103175  103174  103176  103178  103177  103179  103181  103180  103182
  103184  103183  103185  103187  103186  103188  103190  103189  103191
  103193  103192  103194  103196  103195  103197  103199  103198  103200
  103202  103201  103203  103205  103204  103206  103208  103207  103209
  103211  103210  103212  103214  103213  103215  103217  103216  103218
  103220  103219  103221  103223  103222  103224  103226  103225  103227
  103229  103228  103230  103232  103231  103233  103235  103234  103236
  103238  103237  103239  103241  103240  103242  103244  103243  103245
  103247  103246  103248  103250  103249  103251  103253  103252  103254
  103256  103255  103257  103259  103258  103260  103262  103261  103263
  103265  103264  103266  103268  103267  103269  103271  103270  103272
  103274  103273  103275  103277  103276  103278  103280  103279  103281
  103283  103282  103284  103286  103285  103287  103289  103288  103290
  103292  103291  103293  103295  103294  103296  103298  103297  103299
  103301  103300  103302  103304  103303  103305  103307  103306  103308
  103310  103309  103311  103313  103312  103314  103316  103315  103317
  103319  103318  103320  103322  103321  103323  103325  103324  103326
  103328  103327  103329  103331  103330  103332  103334  103333  103335
  103337  103336  103338  103340  103339  103341  103343  103342  103344
  103346  103345  103347  103349  103348  103350  103352  103351  103353
  103355  103354  103356  103358  103357  103359  103361  103360  103362
  103364  103363  103365  103367  103366  103368  103370  103369  103371
  103373  103372  103374  103376  103375  103377  103379  103378  103380
  103382  103381  103383  103385  103384  103386  103388  103387  103389
  103391  103390  103392  103394  103393  103395  103397  103396  103398
  103400  103399  103401  103403  103402  103404  103406  103405  103407
  103409  103408  103410  103412  103411  103413  103415  103414  103416
  103418  103417  103419  103421  103420  103422  103424  103423  103425
  103427  103426  103428  103430  103429  103431  103433  103432  103434
  103436  103435  103437  103439  103438  103440  103442  103441  103443
  103445  103444  103446  103448  103447  103449  103451  103450  103452
  103454  103453  103455  103457  103456  103458  103460  103459  103461
  103463  103462  103464  103466  103465  103467  103469  103468  103470
  103472  103471  103473  103475  103474  103476  103478  103477  103479
  103481  103480  103482  103484  103483  103485  103487  103486  103488
  103490  103489  103491  103493  103492  103494  103496  103495  103497
  103499  103498  103500  103502  103501  103503  103505  103504  103506
  103508  103507  103509  103511  103510  103512  103514  103513  103515
  103517  103516  103518  103520  103519  103521  103523  103522  103524
  103526  103525  103527  103529  103528  103530  103532  103531  103533
  103535  103534  103536  103538  103537  103539  103541  103540  103542
  103544  103543  103545  103547  103546  103548  103550  103549  103551
  103553  103552  103554  103556  103555  103557  103559  103558  103560
  103562  103561  103563  103565  103564  103566  103568  103567  103569
  103571  103570  103572  103574  103573  103575  103577  103576  103578
  103580  103579  103581  103583  103582  103584  103586  103585  103587
  103589  103588  103590  103592  103591  103593  103595  103594  103596
  103598  103597  103599  103601  103600  103602  103604  103603  103605
  103607  103606  103608  103610  103609  103611  103613  103612  103614
  103616  103615  103617  103619  103618  103620  103622  103621  103623
  103625  103624  103626  103628  103627  103629  103631  103630  103632
  103634  103633  103635  103637  103636  103638  103640  103639  103641
  103643  103642  103644  103646  103645  103647  103649  103648  103650
  103652  103651  103653  103655  103654  103656  103658  103657  103659
  103661  103660  103662  103664  103663  103665  103667  103666  103668
  103670  103669  103671  103673  103672  103674  103676  103675  103677
  103679  103678  103680  103682  103681  103683  103685  103684  103686
  103688  103687  103689  103691  103690  103692  103694  103693  103695
  103697  103696  103698  103700  103699  103701  103703  103702  103704
  103706  103705  103707  103709  103708  103710  103712  103711  103713
  103715  103714  103716  103718  103717  103719  103721  103720  103722
  103724  103723  103725  103727  103726  103728  103730  103729  103731
  103733  103732  103734  103736  103735  103737  103739  103738  103740
  103742  103741  103743  103745  103744  103746  103748  103747  103749
  103751  103750  103752  103754  103753  103755  103757  103756  103758
  103760  103759  103761  103763  103762  103764  103766  103765  103767
  103769  103768  103770  103772  103771  103773  103775  103774  103776
  103778  103777  103779  103781  103780  103782  103784  103783  103785
  103787  103786  103788  103790  103789  103791  103793  103792  103794
  103796  103795  103797  103799  103798  103800  103802  103801  103803
  103805  103804  103806  103808  103807  103809  103811  103810  103812
  103814  103813  103815  103817  103816  103818  103820  103819  103821
  103823  103822  103824  103826  103825  103827  103829  103828  103830
  103832  103831  103833  103835  103834  103836  103838  103837  103839
  103841  103840  103842  103844  103843  103845  103847  103846  103848
  103850  103849  103851  103853  103852  103854  103856  103855  103857
  103859  103858  103860  103862  103861  103863  103865  103864  103866
  103868  103867  103869  103871  103870  103872  103874  103873  103875
  103877  103876  103878  103880  103879  103881  103883  103882  103884
  103886  103885  103887  103889  103888  103890  103892  103891  103893
  103895  103894  103896  103898  103897  103899  103901  103900  103902
  103904  103903  103905  103907  103906  103908  103910  103909  103911
  103913  103912  103914  103916  103915  103917  103919  103918  103920
  103922  103921  103923  103925  103924  103926  103928  103927  103929
  103931  103930  103932  103934  103933  103935  103937  103936  103938
  103940  103939  103941  103943  103942  103944  103946  103945  103947
  103949  103948  103950  103952  103951  103953  103955  103954  103956
  103958  103957  103959  103961  103960  103962  103964  103963  103965
  103967  103966  103968  103970  103969  103971  103973  103972  103974
  103976  103975  103977  103979  103978  103980  103982  103981  103983
  103985  103984  103986  103988  103987  103989  103991  103990  103992
  103994  103993  103995  103997  103996  103998  104000  103999  104001
  104003  104002  104004  104006  104005  104007  104009  104008  104010
  104012  104011  104013  104015  104014  104016  104018  104017  104019
  104021  104020  104022  104024  104023  104025  104027  104026  104028
  104030  104029  104031  104033  104032  104034  104036  104035  104037
  104039  104038  104040  104042  104041  104043  104045  104044  104046
  104048  104047  104049  104051  104050  104052  104054  104053  104055
  104057  104056  104058  104060  104059  104061  104063  104062  104064
  104066  104065  104067  104069  104068  104070  104072  104071  104073
  104075  104074  104076  104078  104077  104079  104081  104080  104082
  104084  104083  104085  104087  104086  104088  104090  104089  104091
  104093  104092  104094  104096  104095  104097  104099  104098  104100
  104102  104101  104103  104105  104104  104106  104108  104107  104109
  104111  104110  104112  104114  104113  104115  104117  104116  104118
  104120  104119  104121  104123  104122  104124  104126  104125  104127
  104129  104128  104130  104132  104131  104133  104135  104134  104136
  104138  104137  104139  104141  104140  104142  104144  104143  104145
  104147  104146  104148  104150  104149  104151  104153  104152  104154
  104156  104155  104157  104159  104158  104160  104162  104161  104163
  104165  104164  104166  104168  104167  104169  104171  104170  104172
  104174  104173  104175  104177  104176  104178  104180  104179  104181
  104183  104182  104184  104186  104185  104187  104189  104188  104190
  104192  104191  104193  104195  104194  104196  104198  104197  104199
  104201  104200  104202  104204  104203  104205  104207  104206  104208
  104210  104209  104211  104213  104212  104214  104216  104215  104217
  104219  104218  104220  104222  104221  104223  104225  104224  104226
  104228  104227  104229  104231  104230  104232  104234  104233  104235
  104237  104236  104238  104240  104239  104241  104243  104242  104244
  104246  104245  104247  104249  104248  104250  104252  104251  104253
  104255  104254  104256  104258  104257  104259  104261  104260  104262
  104264  104263  104265  104267  104266  104268  104270  104269  104271
  104273  104272  104274  104276  104275  104277  104279  104278  104280
  104282  104281  104283  104285  104284  104286  104288  104287  104289
  104291  104290  104292  104294  104293  104295  104297  104296  104298
  104300  104299  104301  104303  104302  104304  104306  104305  104307
  104309  104308  104310  104312  104311  104313  104315  104314  104316
  104318  104317  104319  104321  104320  104322  104324  104323  104325
  104327  104326  104328  104330  104329  104331  104333  104332  104334
  104336  104335  104337  104339  104338  104340  104342  104341  104343
  104345  104344  104346  104348  104347  104349  104351  104350  104352
  104354  104353  104355  104357  104356  104358  104360  104359  104361
  104363  104362  104364  104366  104365  104367  104369  104368  104370
  104372  104371  104373  104375  104374  104376  104378  104377  104379
  104381  104380  104382  104384  104383  104385  104387  104386  104388
  104390  104389  104391  104393  104392  104394  104396  104395  104397
  104399  104398  104400  104402  104401  104403  104405  104404  104406
  104408  104407  104409  104411  104410  104412  104414  104413  104415
  104417  104416  104418  104420  104419  104421  104423  104422  104424
  104426  104425  104427  104429  104428  104430  104432  104431  104433
  104435  104434  104436  104438  104437  104439  104441  104440  104442
  104444  104443  104445  104447  104446  104448  104450  104449  104451
  104453  104452  104454  104456  104455  104457  104459  104458  104460
  104462  104461  104463  104465  104464  104466  104468  104467  104469
  104471  104470  104472  104474  104473  104475  104477  104476  104478
  104480  104479  104481  104483  104482  104484  104486  104485  104487
  104489  104488  104490  104492  104491  104493  104495  104494  104496
  104498  104497  104499  104501  104500  104502  104504  104503  104505
  104507  104506  104508  104510  104509  104511  104513  104512  104514
  104516  104515  104517  104519  104518  104520  104522  104521  104523
  104525  104524  104526  104528  104527  104529  104531  104530  104532
  104534  104533  104535  104537  104536  104538  104540  104539  104541
  104543  104542  104544  104546  104545  104547  104549  104548  104550
  104552  104551  104553  104555  104554  104556  104558  104557  104559
  104561  104560  104562  104564  104563  104565  104567  104566  104568
  104570  104569  104571  104573  104572  104574  104576  104575  104577
  104579  104578  104580  104582  104581  104583  104585  104584  104586
  104588  104587  104589  104591  104590  104592  104594  104593  104595
  104597  104596  104598  104600  104599  104601  104603  104602  104604
  104606  104605  104607  104609  104608  104610  104612  104611  104613
  104615  104614  104616  104618  104617  104619  104621  104620  104622
  104624  104623  104625  104627  104626  104628  104630  104629  104631
  104633  104632  104634  104636  104635  104637  104639  104638  104640
  104642  104641  104643  104645  104644  104646  104648  104647  104649
  104651  104650  104652  104654  104653  104655  104657  104656  104658
  104660  104659  104661  104663  104662  104664  104666  104665  104667
  104669  104668  104670  104672  104671  104673  104675  104674  104676
  104678  104677  104679  104681  104680  104682  104684  104683  104685
  104687  104686  104688  104690  104689  104691  104693  104692  104694
  104696  104695  104697  104699  104698  104700  104702  104701  104703
  104705  104704  104706  104708  104707  104709  104711  104710  104712
  104714  104713  104715  104717  104716  104718  104720  104719  104721
  104723  104722  104724  104726  104725  104727  104729  104728  104730
  104732  104731  104733  104735  104734  104736  104738  104737  104739
  104741  104740  104742  104744  104743  104745  104747  104746  104748
  104750  104749  104751  104753  104752  104754  104756  104755  104757
  104759  104758  104760  104762  104761  104763  104765  104764  104766
  104768  104767  104769  104771  104770  104772  104774  104773  104775
  104777  104776  104778  104780  104779  104781  104783  104782  104784
  104786  104785  104787  104789  104788  104790  104792  104791  104793
  104795  104794  104796  104798  104797  104799  104801  104800  104802
  104804  104803  104805  104807  104806  104808  104810  104809  104811
  104813  104812  104814  104816  104815  104817  104819  104818  104820
  104822  104821  104823  104825  104824  104826  104828  104827  104829
  104831  104830  104832  104834  104833  104835  104837  104836  104838
  104840  104839  104841  104843  104842  104844  104846  104845  104847
  104849  104848  104850  104852  104851  104853  104855  104854  104856
  104858  104857  104859  104861  104860  104862  104864  104863  104865
  104867  104866  104868  104870  104869  104871  104873  104872  104874
  104876  104875  104877  104879  104878  104880  104882  104881  104883
  104885  104884  104886  104888  104887  104889  104891  104890  104892
  104894  104893  104895  104897  104896  104898  104900  104899  104901
  104903  104902  104904  104906  104905  104907  104909  104908  104910
  104912  104911  104913  104915  104914  104916  104918  104917  104919
  104921  104920  104922  104924  104923  104925  104927  104926  104928
  104930  104929  104931  104933  104932  104934  104936  104935  104937
  104939  104938  104940  104942  104941  104943  104945  104944  104946
  104948  104947  104949  104951  104950  104952  104954  104953  104955
  104957  104956  104958  104960  104959  104961  104963  104962  104964
  104966  104965  104967  104969  104968  104970  104972  104971  104973
  104975  104974  104976  104978  104977  104979  104981  104980  104982
  104984  104983  104985  104987  104986  104988  104990  104989  104991
  104993  104992  104994  104996  104995  104997  104999  104998  105000
  105002  105001  105003  105005  105004  105006  105008  105007  105009
  105011  105010  105012  105014  105013  105015  105017  105016  105018
  105020  105019  105021  105023  105022  105024  105026  105025  105027
  105029  105028  105030  105032  105031  105033  105035  105034  105036
  105038  105037  105039  105041  105040  105042  105044  105043  105045
  105047  105046  105048  105050  105049  105051  105053  105052  105054
  105056  105055  105057  105059  105058  105060  105062  105061  105063
  105065  105064  105066  105068  105067  105069  105071  105070  105072
  105074  105073  105075  105077  105076  105078  105080  105079  105081
  105083  105082  105084  105086  105085  105087  105089  105088  105090
  105092  105091  105093  105095  105094  105096  105098  105097  105099
  105101  105100  105102  105104  105103  105105  105107  105106  105108
  105110  105109  105111  105113  105112  105114  105116  105115  105117
  105119  105118  105120  105122  105121  105123  105125  105124  105126
  105128  105127  105129  105131  105130  105132  105134  105133  105135
  105137  105136  105138  105140  105139  105141  105143  105142  105144
  105146  105145  105147  105149  105148  105150  105152  105151  105153
  105155  105154  105156  105158  105157  105159  105161  105160  105162
  105164  105163  105165  105167  105166  105168  105170  105169  105171
  105173  105172  105174  105176  105175  105177  105179  105178  105180
  105182  105181  105183  105185  105184  105186  105188  105187  105189
  105191  105190  105192  105194  105193  105195  105197  105196  105198
  105200  105199  105201  105203  105202  105204  105206  105205  105207
  105209  105208  105210  105212  105211  105213  105215  105214  105216
  105218  105217  105219  105221  105220  105222  105224  105223  105225
  105227  105226  105228  105230  105229  105231  105233  105232  105234
  105236  105235  105237  105239  105238  105240  105242  105241  105243
  105245  105244  105246  105248  105247  105249  105251  105250  105252
  105254  105253  105255  105257  105256  105258  105260  105259  105261
  105263  105262  105264  105266  105265  105267  105269  105268  105270
  105272  105271  105273  105275  105274  105276  105278  105277  105279
  105281  105280  105282  105284  105283  105285  105287  105286  105288
  105290  105289  105291  105293  105292  105294  105296  105295  105297
  105299  105298  105300  105302  105301  105303  105305  105304  105306
  105308  105307  105309  105311  105310  105312  105314  105313  105315
  105317  105316  105318  105320  105319  105321  105323  105322  105324
  105326  105325  105327  105329  105328  105330  105332  105331  105333
  105335  105334  105336  105338  105337  105339  105341  105340  105342
  105344  105343  105345  105347  105346  105348  105350  105349  105351
  105353  105352  105354  105356  105355  105357  105359  105358  105360
  105362  105361  105363  105365  105364  105366  105368  105367  105369
  105371  105370  105372  105374  105373  105375  105377  105376  105378
  105380  105379  105381  105383  105382  105384  105386  105385  105387
  105389  105388  105390  105392  105391  105393  105395  105394  105396
  105398  105397  105399  105401  105400  105402  105404  105403  105405
  105407  105406  105408  105410  105409  105411  105413  105412  105414
  105416  105415  105417  105419  105418  105420  105422  105421  105423
  105425  105424  105426  105428  105427  105429  105431  105430  105432
  105434  105433  105435  105437  105436  105438  105440  105439  105441
  105443  105442  105444  105446  105445  105447  105449  105448  105450
  105452  105451  105453  105455  105454  105456  105458  105457  105459
  105461  105460  105462  105464  105463  105465  105467  105466  105468
  105470  105469  105471  105473  105472  105474  105476  105475  105477
  105479  105478  105480  105482  105481  105483  105485  105484  105486
  105488  105487  105489  105491  105490  105492  105494  105493  105495
  105497  105496  105498  105500  105499  105501  105503  105502  105504
  105506  105505  105507  105509  105508  105510  105512  105511  105513
  105515  105514  105516  105518  105517  105519  105521  105520  105522
  105524  105523  105525  105527  105526  105528  105530  105529  105531
  105533  105532  105534  105536  105535  105537  105539  105538  105540
  105542  105541  105543  105545  105544  105546  105548  105547  105549
  105551  105550  105552  105554  105553  105555  105557  105556  105558
  105560  105559  105561  105563  105562  105564  105566  105565  105567
  105569  105568  105570  105572  105571  105573  105575  105574  105576
  105578  105577  105579  105581  105580  105582  105584  105583  105585
  105587  105586  105588  105590  105589  105591  105593  105592  105594
  105596  105595  105597  105599  105598  105600  105602  105601  105603
  105605  105604  105606  105608  105607  105609  105611  105610  105612
  105614  105613  105615  105617  105616  105618  105620  105619  105621
  105623  105622  105624  105626  105625  105627  105629  105628  105630
  105632  105631  105633  105635  105634  105636  105638  105637  105639
  105641  105640  105642  105644  105643  105645  105647  105646  105648
  105650  105649  105651  105653  105652  105654  105656  105655  105657
  105659  105658  105660  105662  105661  105663  105665  105664  105666
  105668  105667  105669  105671  105670  105672  105674  105673  105675
  105677  105676  105678  105680  105679  105681  105683  105682  105684
  105686  105685  105687  105689  105688  105690  105692  105691  105693
  105695  105694  105696  105698  105697  105699  105701  105700  105702
  105704  105703  105705  105707  105706  105708  105710  105709  105711
  105713  105712  105714  105716  105715  105717  105719  105718  105720
  105722  105721  105723  105725  105724  105726  105728  105727  105729
  105731  105730  105732  105734  105733  105735  105737  105736  105738
  105740  105739  105741  105743  105742  105744  105746  105745  105747
  105749  105748  105750  105752  105751  105753  105755  105754  105756
  105758  105757  105759  105761  105760  105762  105764  105763  105765
  105767  105766  105768  105770  105769  105771  105773  105772  105774
  105776  105775  105777  105779  105778  105780  105782  105781  105783
  105785  105784  105786  105788  105787  105789  105791  105790  105792
  105794  105793  105795  105797  105796  105798  105800  105799  105801
  105803  105802  105804  105806  105805  105807  105809  105808  105810
  105812  105811  105813  105815  105814  105816  105818  105817  105819
  105821  105820  105822  105824  105823  105825  105827  105826  105828
  105830  105829  105831  105833  105832  105834  105836  105835  105837
  105839  105838  105840  105842  105841  105843  105845  105844  105846
  105848  105847  105849  105851  105850  105852  105854  105853  105855
  105857  105856  105858  105860  105859  105861  105863  105862  105864
  105866  105865  105867  105869  105868  105870  105872  105871  105873
  105875  105874  105876  105878  105877  105879  105881  105880  105882
  105884  105883  105885  105887  105886  105888  105890  105889  105891
  105893  105892  105894  105896  105895  105897  105899  105898  105900
  105902  105901  105903  105905  105904  105906  105908  105907  105909
  105911  105910  105912  105914  105913  105915  105917  105916  105918
  105920  105919  105921  105923  105922  105924  105926  105925  105927
  105929  105928  105930  105932  105931  105933  105935  105934  105936
  105938  105937  105939  105941  105940  105942  105944  105943  105945
  105947  105946  105948  105950  105949  105951  105953  105952  105954
  105956  105955  105957  105959  105958  105960  105962  105961  105963
  105965  105964  105966  105968  105967  105969  105971  105970  105972
  105974  105973  105975  105977  105976  105978  105980  105979  105981
  105983  105982  105984  105986  105985  105987  105989  105988  105990
  105992  105991  105993  105995  105994  105996  105998  105997  105999
  106001  106000  106002  106004  106003  106005  106007  106006  106008
  106010  106009  106011  106013  106012  106014  106016  106015  106017
  106019  106018  106020  106022  106021  106023  106025  106024  106026
  106028  106027  106029  106031  106030  106032  106034  106033  106035
  106037  106036  106038  106040  106039  106041  106043  106042  106044
  106046  106045  106047  106049  106048  106050  106052  106051  106053
  106055  106054  106056  106058  106057  106059  106061  106060  106062
  106064  106063  106065  106067  106066  106068  106070  106069  106071
  106073  106072  106074  106076  106075  106077  106079  106078  106080
  106082  106081  106083  106085  106084  106086  106088  106087  106089
  106091  106090  106092  106094  106093  106095  106097  106096  106098
  106100  106099  106101  106103  106102  106104  106106  106105  106107
  106109  106108  106110  106112  106111  106113  106115  106114  106116
  106118  106117  106119  106121  106120  106122  106124  106123  106125
  106127  106126  106128  106130  106129  106131  106133  106132  106134
  106136  106135  106137  106139  106138  106140  106142  106141  106143
  106145  106144  106146  106148  106147  106149  106151  106150  106152
  106154  106153  106155  106157  106156  106158  106160  106159  106161
  106163  106162  106164  106166  106165  106167  106169  106168  106170
  106172  106171  106173  106175  106174  106176  106178  106177  106179
  106181  106180  106182  106184  106183  106185  106187  106186  106188
  106190  106189  106191  106193  106192  106194  106196  106195  106197
  106199  106198  106200  106202  106201  106203  106205  106204  106206
  106208  106207  106209  106211  106210  106212  106214  106213  106215
  106217  106216  106218  106220  106219  106221  106223  106222  106224
  106226  106225  106227  106229  106228  106230  106232  106231  106233
  106235  106234  106236  106238  106237  106239  106241  106240  106242
  106244  106243  106245  106247  106246  106248  106250  106249  106251
  106253  106252  106254  106256  106255  106257  106259  106258  106260
  106262  106261  106263  106265  106264  106266  106268  106267  106269
  106271  106270  106272  106274  106273  106275  106277  106276  106278
  106280  106279  106281  106283  106282  106284  106286  106285  106287
  106289  106288  106290  106292  106291  106293  106295  106294  106296
  106298  106297  106299  106301  106300  106302  106304  106303  106305
  106307  106306  106308  106310  106309  106311  106313  106312  106314
  106316  106315  106317  106319  106318  106320  106322  106321  106323
  106325  106324  106326  106328  106327  106329  106331  106330  106332
  106334  106333  106335  106337  106336  106338  106340  106339  106341
  106343  106342  106344  106346  106345  106347  106349  106348  106350
  106352  106351  106353  106355  106354  106356  106358  106357  106359
  106361  106360  106362  106364  106363  106365  106367  106366  106368
  106370  106369  106371  106373  106372  106374  106376  106375  106377
  106379  106378  106380  106382  106381  106383  106385  106384  106386
  106388  106387  106389  106391  106390  106392  106394  106393  106395
  106397  106396  106398  106400  106399  106401  106403  106402  106404
  106406  106405  106407  106409  106408  106410  106412  106411  106413
  106415  106414  106416  106418  106417  106419  106421  106420  106422
  106424  106423  106425  106427  106426  106428  106430  106429  106431
  106433  106432  106434  106436  106435  106437  106439  106438  106440
  106442  106441  106443  106445  106444  106446  106448  106447  106449
  106451  106450  106452  106454  106453  106455  106457  106456  106458
  106460  106459  106461  106463  106462  106464  106466  106465  106467
  106469  106468  106470  106472  106471  106473  106475  106474  106476
  106478  106477  106479  106481  106480  106482  106484  106483  106485
  106487  106486  106488  106490  106489  106491  106493  106492  106494
  106496  106495  106497  106499  106498  106500  106502  106501  106503
  106505  106504  106506  106508  106507  106509  106511  106510  106512
  106514  106513  106515  106517  106516  106518  106520  106519  106521
  106523  106522  106524  106526  106525  106527  106529  106528  106530
  106532  106531  106533  106535  106534  106536  106538  106537  106539
  106541  106540  106542  106544  106543  106545  106547  106546  106548
  106550  106549  106551  106553  106552  106554  106556  106555  106557
  106559  106558  106560  106562  106561  106563  106565  106564  106566
  106568  106567  106569  106571  106570  106572  106574  106573  106575
  106577  106576  106578  106580  106579  106581  106583  106582  106584
  106586  106585  106587  106589  106588  106590  106592  106591  106593
  106595  106594  106596  106598  106597  106599  106601  106600  106602
  106604  106603  106605  106607  106606  106608  106610  106609  106611
  106613  106612  106614  106616  106615  106617  106619  106618  106620
  106622  106621  106623  106625  106624  106626  106628  106627  106629
  106631  106630  106632  106634  106633  106635  106637  106636  106638
  106640  106639  106641  106643  106642  106644  106646  106645  106647
  106649  106648  106650  106652  106651  106653  106655  106654  106656
  106658  106657  106659  106661  106660  106662  106664  106663  106665
  106667  106666  106668  106670  106669  106671  106673  106672  106674
  106676  106675  106677  106679  106678  106680  106682  106681  106683
  106685  106684  106686  106688  106687  106689  106691  106690  106692
  106694  106693  106695  106697  106696  106698  106700  106699  106701
  106703  106702  106704  106706  106705  106707  106709  106708  106710
  106712  106711  106713  106715  106714  106716  106718  106717  106719
  106721  106720  106722  106724  106723  106725  106727  106726  106728
  106730  106729  106731  106733  106732  106734  106736  106735  106737
  106739  106738  106740  106742  106741  106743  106745  106744  106746
  106748  106747  106749  106751  106750  106752  106754  106753  106755
  106757  106756  106758  106760  106759  106761  106763  106762  106764
  106766  106765  106767  106769  106768  106770  106772  106771  106773
  106775  106774  106776  106778  106777  106779  106781  106780  106782
  106784  106783  106785  106787  106786  106788  106790  106789  106791
  106793  106792  106794  106796  106795  106797  106799  106798  106800
  106802  106801  106803  106805  106804  106806  106808  106807  106809
  106811  106810  106812  106814  106813  106815  106817  106816  106818
  106820  106819  106821  106823  106822  106824  106826  106825  106827
  106829  106828  106830  106832  106831  106833  106835  106834  106836
  106838  106837  106839  106841  106840  106842  106844  106843  106845
  106847  106846  106848  106850  106849  106851  106853  106852  106854
  106856  106855  106857  106859  106858  106860  106862  106861  106863
  106865  106864  106866  106868  106867  106869  106871  106870  106872
  106874  106873  106875  106877  106876  106878  106880  106879  106881
  106883  106882  106884  106886  106885  106887  106889  106888  106890
  106892  106891  106893  106895  106894  106896  106898  106897  106899
  106901  106900  106902  106904  106903  106905  106907  106906  106908
  106910  106909  106911  106913  106912  106914  106916  106915  106917
  106919  106918  106920  106922  106921  106923  106925  106924  106926
  106928  106927  106929  106931  106930  106932  106934  106933  106935
  106937  106936  106938  106940  106939  106941  106943  106942  106944
  106946  106945  106947  106949  106948  106950  106952  106951  106953
  106955  106954  106956  106958  106957  106959  106961  106960  106962
  106964  106963  106965  106967  106966  106968  106970  106969  106971
  106973  106972  106974  106976  106975  106977  106979  106978  106980
  106982  106981  106983  106985  106984  106986  106988  106987  106989
  106991  106990  106992  106994  106993  106995  106997  106996  106998
  107000  106999  107001  107003  107002  107004  107006  107005  107007
  107009  107008  107010  107012  107011  107013  107015  107014  107016
  107018  107017  107019  107021  107020  107022  107024  107023  107025
  107027  107026  107028  107030  107029  107031  107033  107032  107034
  107036  107035  107037  107039  107038  107040  107042  107041  107043
  107045  107044  107046  107048  107047  107049  107051  107050  107052
  107054  107053  107055  107057  107056  107058  107060  107059  107061
  107063  107062  107064  107066  107065  107067  107069  107068  107070
  107072  107071  107073  107075  107074  107076  107078  107077  107079
  107081  107080  107082  107084  107083  107085  107087  107086  107088
  107090  107089  107091  107093  107092  107094  107096  107095  107097
  107099  107098  107100  107102  107101  107103  107105  107104  107106
  107108  107107  107109  107111  107110  107112  107114  107113  107115
  107117  107116  107118  107120  107119  107121  107123  107122  107124
  107126  107125  107127  107129  107128  107130  107132  107131  107133
  107135  107134  107136  107138  107137  107139  107141  107140  107142
  107144  107143  107145  107147  107146  107148  107150  107149  107151
  107153  107152  107154  107156  107155  107157  107159  107158  107160
  107162  107161  107163  107165  107164  107166  107168  107167  107169
  107171  107170  107172  107174  107173  107175  107177  107176  107178
  107180  107179  107181  107183  107182  107184  107186  107185  107187
  107189  107188  107190  107192  107191  107193  107195  107194  107196
  107198  107197  107199  107201  107200  107202  107204  107203  107205
  107207  107206  107208  107210  107209  107211  107213  107212  107214
  107216  107215  107217  107219  107218  107220  107222  107221  107223
  107225  107224  107226  107228  107227  107229  107231  107230  107232
  107234  107233  107235  107237  107236  107238  107240  107239  107241
  107243  107242  107244  107246  107245  107247  107249  107248  107250
  107252  107251  107253  107255  107254  107256  107258  107257  107259
  107261  107260  107262  107264  107263  107265  107267  107266  107268
  107270  107269  107271  107273  107272  107274  107276  107275  107277
  107279  107278  107280  107282  107281  107283  107285  107284  107286
  107288  107287  107289  107291  107290  107292  107294  107293  107295
  107297  107296  107298  107300  107299  107301  107303  107302  107304
  107306  107305  107307  107309  107308  107310  107312  107311  107313
  107315  107314  107316  107318  107317  107319  107321  107320  107322
  107324  107323  107325  107327  107326  107328  107330  107329  107331
  107333  107332  107334  107336  107335  107337  107339  107338  107340
  107342  107341  107343  107345  107344  107346  107348  107347  107349
  107351  107350  107352  107354  107353  107355  107357  107356  107358
  107360  107359  107361  107363  107362  107364  107366  107365  107367
  107369  107368  107370  107372  107371  107373  107375  107374  107376
  107378  107377  107379  107381  107380  107382  107384  107383  107385
  107387  107386  107388  107390  107389  107391  107393  107392  107394
  107396  107395  107397  107399  107398  107400  107402  107401  107403
  107405  107404  107406  107408  107407  107409  107411  107410  107412
  107414  107413  107415  107417  107416  107418  107420  107419  107421
  107423  107422  107424  107426  107425  107427  107429  107428  107430
  107432  107431  107433  107435  107434  107436  107438  107437  107439
  107441  107440  107442  107444  107443  107445  107447  107446  107448
  107450  107449  107451  107453  107452  107454  107456  107455  107457
  107459  107458  107460  107462  107461  107463  107465  107464  107466
  107468  107467  107469  107471  107470  107472  107474  107473  107475
  107477  107476  107478  107480  107479  107481  107483  107482  107484
  107486  107485  107487  107489  107488  107490  107492  107491  107493
  107495  107494  107496  107498  107497  107499  107501  107500  107502
  107504  107503  107505  107507  107506  107508  107510  107509  107511
  107513  107512  107514  107516  107515  107517  107519  107518  107520
  107522  107521  107523  107525  107524  107526  107528  107527  107529
  107531  107530  107532  107534  107533  107535  107537  107536  107538
  107540  107539  107541  107543  107542  107544  107546  107545  107547
  107549  107548  107550  107552  107551  107553  107555  107554  107556
  107558  107557  107559  107561  107560  107562  107564  107563  107565
  107567  107566  107568  107570  107569  107571  107573  107572  107574
  107576  107575  107577  107579  107578  107580  107582  107581  107583
  107585  107584  107586  107588  107587  107589  107591  107590  107592
  107594  107593  107595  107597  107596  107598  107600  107599  107601
  107603  107602  107604  107606  107605  107607  107609  107608  107610
  107612  107611  107613  107615  107614  107616  107618  107617  107619
  107621  107620  107622  107624  107623  107625  107627  107626  107628
  107630  107629  107631  107633  107632  107634  107636  107635  107637
  107639  107638  107640  107642  107641  107643  107645  107644  107646
  107648  107647  107649  107651  107650  107652  107654  107653  107655
  107657  107656  107658  107660  107659  107661  107663  107662  107664
  107666  107665  107667  107669  107668  107670  107672  107671  107673
  107675  107674  107676  107678  107677  107679  107681  107680  107682
  107684  107683  107685  107687  107686  107688  107690  107689  107691
  107693  107692  107694  107696  107695  107697  107699  107698  107700
  107702  107701  107703  107705  107704  107706  107708  107707  107709
  107711  107710  107712  107714  107713  107715  107717  107716  107718
  107720  107719  107721  107723  107722  107724  107726  107725  107727
  107729  107728  107730  107732  107731  107733  107735  107734  107736
  107738  107737  107739  107741  107740  107742  107744  107743  107745
  107747  107746  107748  107750  107749  107751  107753  107752  107754
  107756  107755  107757  107759  107758  107760  107762  107761  107763
  107765  107764  107766  107768  107767  107769  107771  107770  107772
  107774  107773  107775  107777  107776  107778  107780  107779  107781
  107783  107782  107784  107786  107785  107787  107789  107788  107790
  107792  107791  107793  107795  107794  107796  107798  107797  107799
  107801  107800  107802  107804  107803  107805  107807  107806  107808
  107810  107809  107811  107813  107812  107814  107816  107815  107817
  107819  107818  107820  107822  107821  107823  107825  107824  107826
  107828  107827  107829  107831  107830  107832  107834  107833  107835
  107837  107836  107838  107840  107839  107841  107843  107842  107844
  107846  107845  107847  107849  107848  107850  107852  107851  107853
  107855  107854  107856  107858  107857  107859  107861  107860  107862
  107864  107863  107865  107867  107866  107868  107870  107869  107871
  107873  107872  107874  107876  107875  107877  107879  107878  107880
  107882  107881  107883  107885  107884  107886  107888  107887  107889
  107891  107890  107892  107894  107893  107895  107897  107896  107898
  107900  107899  107901  107903  107902  107904  107906  107905  107907
  107909  107908  107910  107912  107911  107913  107915  107914  107916
  107918  107917  107919  107921  107920  107922  107924  107923  107925
  107927  107926  107928  107930  107929  107931  107933  107932  107934
  107936  107935  107937  107939  107938  107940  107942  107941  107943
  107945  107944  107946  107948  107947  107949  107951  107950  107952
  107954  107953  107955  107957  107956  107958  107960  107959  107961
  107963  107962  107964  107966  107965  107967  107969  107968  107970
  107972  107971  107973  107975  107974  107976  107978  107977  107979
  107981  107980  107982  107984  107983  107985  107987  107986  107988
  107990  107989  107991  107993  107992  107994  107996  107995  107997
  107999  107998  108000  108002  108001  108003  108005  108004  108006
  108008  108007  108009  108011  108010  108012  108014  108013  108015
  108017  108016  108018  108020  108019  108021  108023  108022  108024
  108026  108025  108027  108029  108028  108030  108032  108031  108033
  108035  108034  108036  108038  108037  108039  108041  108040  108042
  108044  108043  108045  108047  108046  108048  108050  108049  108051
  108053  108052  108054  108056  108055  108057  108059  108058  108060
  108062  108061  108063  108065  108064  108066  108068  108067  108069
  108071  108070  108072  108074  108073  108075  108077  108076  108078
  108080  108079  108081  108083  108082  108084  108086  108085  108087
  108089  108088  108090  108092  108091  108093  108095  108094  108096
  108098  108097  108099  108101  108100  108102  108104  108103  108105
  108107  108106  108108  108110  108109  108111  108113  108112  108114
  108116  108115  108117  108119  108118  108120  108122  108121  108123
  108125  108124  108126  108128  108127  108129  108131  108130  108132
  108134  108133  108135  108137  108136  108138  108140  108139  108141
  108143  108142  108144  108146  108145  108147  108149  108148  108150
  108152  108151  108153  108155  108154  108156  108158  108157  108159
  108161  108160  108162  108164  108163  108165  108167  108166  108168
  108170  108169  108171  108173  108172  108174  108176  108175  108177
  108179  108178  108180  108182  108181  108183  108185  108184  108186
  108188  108187  108189  108191  108190  108192  108194  108193  108195
  108197  108196  108198  108200  108199  108201  108203  108202  108204
  108206  108205  108207  108209  108208  108210  108212  108211  108213
  108215  108214  108216  108218  108217  108219  108221  108220  108222
  108224  108223  108225  108227  108226  108228  108230  108229  108231
  108233  108232  108234  108236  108235  108237  108239  108238  108240
  108242  108241  108243  108245  108244  108246  108248  108247  108249
  108251  108250  108252  108254  108253  108255  108257  108256  108258
  108260  108259  108261  108263  108262  108264  108266  108265  108267
  108269  108268  108270  108272  108271  108273  108275  108274  108276
  108278  108277  108279  108281  108280  108282  108284  108283  108285
  108287  108286  108288  108290  108289  108291  108293  108292  108294
  108296  108295  108297  108299  108298  108300  108302  108301  108303
  108305  108304  108306  108308  108307  108309  108311  108310  108312
  108314  108313  108315  108317  108316  108318  108320  108319  108321
  108323  108322  108324  108326  108325  108327  108329  108328  108330
  108332  108331  108333  108335  108334  108336  108338  108337  108339
  108341  108340  108342  108344  108343  108345  108347  108346  108348
  108350  108349  108351  108353  108352  108354  108356  108355  108357
  108359  108358  108360  108362  108361  108363  108365  108364  108366
  108368  108367  108369  108371  108370  108372  108374  108373  108375
  108377  108376  108378  108380  108379  108381  108383  108382  108384
  108386  108385  108387  108389  108388  108390  108392  108391  108393
  108395  108394  108396  108398  108397  108399  108401  108400  108402
  108404  108403  108405  108407  108406  108408  108410  108409  108411
  108413  108412  108414  108416  108415  108417  108419  108418  108420
  108422  108421  108423  108425  108424  108426  108428  108427  108429
  108431  108430  108432  108434  108433  108435  108437  108436  108438
  108440  108439  108441  108443  108442  108444  108446  108445  108447
  108449  108448  108450  108452  108451  108453  108455  108454  108456
  108458  108457  108459  108461  108460  108462  108464  108463  108465
  108467  108466  108468  108470  108469  108471  108473  108472  108474
  108476  108475  108477  108479  108478  108480  108482  108481  108483
  108485  108484  108486  108488  108487  108489  108491  108490  108492
  108494  108493  108495  108497  108496  108498  108500  108499  108501
  108503  108502  108504  108506  108505  108507  108509  108508  108510
  108512  108511  108513  108515  108514  108516  108518  108517  108519
  108521  108520  108522  108524  108523  108525  108527  108526  108528
  108530  108529  108531  108533  108532  108534  108536  108535  108537
  108539  108538  108540  108542  108541  108543  108545  108544  108546
  108548  108547  108549  108551  108550  108552  108554  108553  108555
  108557  108556  108558  108560  108559  108561  108563  108562  108564
  108566  108565  108567  108569  108568  108570  108572  108571  108573
  108575  108574  108576  108578  108577  108579  108581  108580  108582
  108584  108583  108585  108587  108586  108588  108590  108589  108591
  108593  108592  108594  108596  108595  108597  108599  108598  108600
  108602  108601  108603  108605  108604  108606  108608  108607  108609
  108611  108610  108612  108614  108613  108615  108617  108616  108618
  108620  108619  108621  108623  108622  108624  108626  108625  108627
  108629  108628  108630  108632  108631  108633  108635  108634  108636
  108638  108637  108639  108641  108640  108642  108644  108643  108645
  108647  108646  108648  108650  108649  108651  108653  108652  108654
  108656  108655  108657  108659  108658  108660  108662  108661  108663
  108665  108664  108666  108668  108667  108669  108671  108670  108672
  108674  108673  108675  108677  108676  108678  108680  108679  108681
  108683  108682  108684  108686  108685  108687  108689  108688  108690
  108692  108691  108693  108695  108694  108696  108698  108697  108699
  108701  108700  108702  108704  108703  108705  108707  108706  108708
  108710  108709  108711  108713  108712  108714  108716  108715  108717
  108719  108718  108720  108722  108721  108723  108725  108724  108726
  108728  108727  108729  108731  108730  108732  108734  108733  108735
  108737  108736  108738  108740  108739  108741  108743  108742  108744
  108746  108745  108747  108749  108748  108750  108752  108751  108753
  108755  108754  108756  108758  108757  108759  108761  108760  108762
  108764  108763  108765  108767  108766  108768  108770  108769  108771
  108773  108772  108774  108776  108775  108777  108779  108778  108780
  108782  108781  108783  108785  108784  108786  108788  108787  108789
  108791  108790  108792  108794  108793  108795  108797  108796  108798
  108800  108799  108801  108803  108802  108804  108806  108805  108807
  108809  108808  108810  108812  108811  108813  108815  108814  108816
  108818  108817  108819  108821  108820  108822  108824  108823  108825
  108827  108826  108828  108830  108829  108831  108833  108832  108834
  108836  108835  108837  108839  108838  108840  108842  108841  108843
  108845  108844  108846  108848  108847  108849  108851  108850  108852
  108854  108853  108855  108857  108856  108858  108860  108859  108861
  108863  108862  108864  108866  108865  108867  108869  108868  108870
  108872  108871  108873  108875  108874  108876  108878  108877  108879
  108881  108880  108882  108884  108883  108885  108887  108886  108888
  108890  108889  108891  108893  108892  108894  108896  108895  108897
  108899  108898  108900  108902  108901  108903  108905  108904  108906
  108908  108907  108909  108911  108910  108912  108914  108913  108915
  108917  108916  108918  108920  108919  108921  108923  108922  108924
  108926  108925  108927  108929  108928  108930  108932  108931  108933
  108935  108934  108936  108938  108937  108939  108941  108940  108942
  108944  108943  108945  108947  108946  108948  108950  108949  108951
  108953  108952  108954  108956  108955  108957  108959  108958  108960
  108962  108961  108963  108965  108964  108966  108968  108967  108969
  108971  108970  108972  108974  108973  108975  108977  108976  108978
  108980  108979  108981  108983  108982  108984  108986  108985  108987
  108989  108988  108990  108992  108991  108993  108995  108994  108996
  108998  108997  108999  109001  109000  109002  109004  109003  109005
  109007  109006  109008  109010  109009  109011  109013  109012  109014
  109016  109015  109017  109019  109018  109020  109022  109021  109023
  109025  109024  109026  109028  109027  109029  109031  109030  109032
  109034  109033  109035  109037  109036  109038  109040  109039  109041
  109043  109042  109044  109046  109045  109047  109049  109048  109050
  109052  109051  109053  109055  109054  109056  109058  109057  109059
  109061  109060  109062  109064  109063  109065  109067  109066  109068
  109070  109069  109071  109073  109072  109074  109076  109075  109077
  109079  109078  109080  109082  109081  109083  109085  109084  109086
  109088  109087  109089  109091  109090  109092  109094  109093  109095
  109097  109096  109098  109100  109099  109101  109103  109102  109104
  109106  109105  109107  109109  109108  109110  109112  109111  109113
  109115  109114  109116  109118  109117  109119  109121  109120  109122
  109124  109123  109125  109127  109126  109128  109130  109129  109131
  109133  109132  109134  109136  109135  109137  109139  109138  109140
  109142  109141  109143  109145  109144  109146  109148  109147  109149
  109151  109150  109152  109154  109153  109155  109157  109156  109158
  109160  109159  109161  109163  109162  109164  109166  109165  109167
  109169  109168  109170  109172  109171  109173  109175  109174  109176
  109178  109177  109179  109181  109180  109182  109184  109183  109185
  109187  109186  109188  109190  109189  109191  109193  109192  109194
  109196  109195  109197  109199  109198  109200  109202  109201  109203
  109205  109204  109206  109208  109207  109209  109211  109210  109212
  109214  109213  109215  109217  109216  109218  109220  109219  109221
  109223  109222  109224  109226  109225  109227  109229  109228  109230
  109232  109231  109233  109235  109234  109236  109238  109237  109239
  109241  109240  109242  109244  109243  109245  109247  109246  109248
  109250  109249  109251  109253  109252  109254  109256  109255  109257
  109259  109258  109260  109262  109261  109263  109265  109264  109266
  109268  109267  109269  109271  109270  109272  109274  109273  109275
  109277  109276  109278  109280  109279  109281  109283  109282  109284
  109286  109285  109287  109289  109288  109290  109292  109291  109293
  109295  109294  109296  109298  109297  109299  109301  109300  109302
  109304  109303  109305  109307  109306  109308  109310  109309  109311
  109313  109312  109314  109316  109315  109317  109319  109318  109320
  109322  109321  109323  109325  109324  109326  109328  109327  109329
  109331  109330  109332  109334  109333  109335  109337  109336  109338
  109340  109339  109341  109343  109342  109344  109346  109345  109347
  109349  109348  109350  109352  109351  109353  109355  109354  109356
  109358  109357  109359  109361  109360  109362  109364  109363  109365
  109367  109366  109368  109370  109369  109371  109373  109372  109374
  109376  109375  109377  109379  109378  109380  109382  109381  109383
  109385  109384  109386  109388  109387  109389  109391  109390  109392
  109394  109393  109395  109397  109396  109398  109400  109399  109401
  109403  109402  109404  109406  109405  109407  109409  109408  109410
  109412  109411  109413  109415  109414  109416  109418  109417  109419
  109421  109420  109422  109424  109423  109425  109427  109426  109428
  109430  109429  109431  109433  109432  109434  109436  109435  109437
  109439  109438  109440  109442  109441  109443  109445  109444  109446
  109448  109447  109449  109451  109450  109452  109454  109453  109455
  109457  109456  109458  109460  109459  109461  109463  109462  109464
  109466  109465  109467  109469  109468  109470  109472  109471  109473
  109475  109474  109476  109478  109477  109479  109481  109480  109482
  109484  109483  109485  109487  109486  109488  109490  109489  109491
  109493  109492  109494  109496  109495  109497  109499  109498  109500
  109502  109501  109503  109505  109504  109506  109508  109507  109509
  109511  109510  109512  109514  109513  109515  109517  109516  109518
  109520  109519  109521  109523  109522  109524  109526  109525  109527
  109529  109528  109530  109532  109531  109533  109535  109534  109536
  109538  109537  109539  109541  109540  109542  109544  109543  109545
  109547  109546  109548  109550  109549  109551  109553  109552  109554
  109556  109555  109557  109559  109558  109560  109562  109561  109563
  109565  109564  109566  109568  109567  109569  109571  109570  109572
  109574  109573  109575  109577  109576  109578  109580  109579  109581
  109583  109582  109584  109586  109585  109587  109589  109588  109590
  109592  109591  109593  109595  109594  109596  109598  109597  109599
  109601  109600  109602  109604  109603  109605  109607  109606  109608
  109610  109609  109611  109613  109612  109614  109616  109615  109617
  109619  109618  109620  109622  109621  109623  109625  109624  109626
  109628  109627  109629  109631  109630  109632  109634  109633  109635
  109637  109636  109638  109640  109639  109641  109643  109642  109644
  109646  109645  109647  109649  109648  109650  109652  109651  109653
  109655  109654  109656  109658  109657  109659  109661  109660  109662
  109664  109663  109665  109667  109666  109668  109670  109669  109671
  109673  109672  109674  109676  109675  109677  109679  109678  109680
  109682  109681  109683  109685  109684  109686  109688  109687  109689
  109691  109690  109692  109694  109693  109695  109697  109696  109698
  109700  109699  109701  109703  109702  109704  109706  109705  109707
  109709  109708  109710  109712  109711  109713  109715  109714  109716
  109718  109717  109719  109721  109720  109722  109724  109723  109725
  109727  109726  109728  109730  109729  109731  109733  109732  109734
  109736  109735  109737  109739  109738  109740  109742  109741  109743
  109745  109744  109746  109748  109747  109749  109751  109750  109752
  109754  109753  109755  109757  109756  109758  109760  109759  109761
  109763  109762  109764  109766  109765  109767  109769  109768  109770
  109772  109771  109773  109775  109774  109776  109778  109777  109779
  109781  109780  109782  109784  109783  109785  109787  109786  109788
  109790  109789  109791  109793  109792  109794  109796  109795  109797
  109799  109798  109800  109802  109801  109803  109805  109804  109806
  109808  109807  109809  109811  109810  109812  109814  109813  109815
  109817  109816  109818  109820  109819  109821  109823  109822  109824
  109826  109825  109827  109829  109828  109830  109832  109831  109833
  109835  109834  109836  109838  109837  109839  109841  109840  109842
  109844  109843  109845  109847  109846  109848  109850  109849  109851
  109853  109852  109854  109856  109855  109857  109859  109858  109860
  109862  109861  109863  109865  109864  109866  109868  109867  109869
  109871  109870  109872  109874  109873  109875  109877  109876  109878
  109880  109879  109881  109883  109882  109884  109886  109885  109887
  109889  109888  109890  109892  109891  109893  109895  109894  109896
  109898  109897  109899  109901  109900  109902  109904  109903  109905
  109907  109906  109908  109910  109909  109911  109913  109912  109914
  109916  109915  109917  109919  109918  109920  109922  109921  109923
  109925  109924  109926  109928  109927  109929  109931  109930  109932
  109934  109933  109935  109937  109936  109938  109940  109939  109941
  109943  109942  109944  109946  109945  109947  109949  109948  109950
  109952  109951  109953  109955  109954  109956  109958  109957  109959
  109961  109960  109962  109964  109963  109965  109967  109966  109968
  109970  109969  109971  109973  109972  109974  109976  109975  109977
  109979  109978  109980  109982  109981  109983  109985  109984  109986
  109988  109987  109989  109991  109990  109992  109994  109993  109995
  109997  109996  109998  110000  109999  110001  110003  110002  110004
  110006  110005  110007  110009  110008  110010  110012  110011  110013
  110015  110014  110016  110018  110017  110019  110021  110020  110022
  110024  110023  110025  110027  110026  110028  110030  110029  110031
  110033  110032  110034  110036  110035  110037  110039  110038  110040
  110042  110041  110043  110045  110044  110046  110048  110047  110049
  110051  110050  110052  110054  110053  110055  110057  110056  110058
  110060  110059  110061  110063  110062  110064  110066  110065  110067
  110069  110068  110070  110072  110071  110073  110075  110074  110076
  110078  110077  110079  110081  110080  110082  110084  110083  110085
  110087  110086  110088  110090  110089  110091  110093  110092  110094
  110096  110095  110097  110099  110098  110100  110102  110101  110103
  110105  110104  110106  110108  110107  110109  110111  110110  110112
  110114  110113  110115  110117  110116  110118  110120  110119  110121
  110123  110122  110124  110126  110125  110127  110129  110128  110130
  110132  110131  110133  110135  110134  110136  110138  110137  110139
  110141  110140  110142  110144  110143  110145  110147  110146  110148
  110150  110149  110151  110153  110152  110154  110156  110155  110157
  110159  110158  110160  110162  110161  110163  110165  110164  110166
  110168  110167  110169  110171  110170  110172  110174  110173  110175
  110177  110176  110178  110180  110179  110181  110183  110182  110184
  110186  110185  110187  110189  110188  110190  110192  110191  110193
  110195  110194  110196  110198  110197  110199  110201  110200  110202
  110204  110203  110205  110207  110206  110208  110210  110209  110211
  110213  110212  110214  110216  110215  110217  110219  110218  110220
  110222  110221  110223  110225  110224  110226  110228  110227  110229
  110231  110230  110232  110234  110233  110235  110237  110236  110238
  110240  110239  110241  110243  110242  110244  110246  110245  110247
  110249  110248  110250  110252  110251  110253  110255  110254  110256
  110258  110257  110259  110261  110260  110262  110264  110263  110265
  110267  110266  110268  110270  110269  110271  110273  110272  110274
  110276  110275  110277  110279  110278  110280  110282  110281  110283
  110285  110284  110286  110288  110287  110289  110291  110290  110292
  110294  110293  110295  110297  110296  110298  110300  110299  110301
  110303  110302  110304  110306  110305  110307  110309  110308  110310
  110312  110311  110313  110315  110314  110316  110318  110317  110319
  110321  110320  110322  110324  110323  110325  110327  110326  110328
  110330  110329  110331  110333  110332  110334  110336  110335  110337
  110339  110338  110340  110342  110341  110343  110345  110344  110346
  110348  110347  110349  110351  110350  110352  110354  110353  110355
  110357  110356  110358  110360  110359  110361  110363  110362  110364
  110366  110365  110367  110369  110368  110370  110372  110371  110373
  110375  110374  110376  110378  110377  110379  110381  110380  110382
  110384  110383  110385  110387  110386  110388  110390  110389  110391
  110393  110392  110394  110396  110395  110397  110399  110398  110400
  110402  110401  110403  110405  110404  110406  110408  110407  110409
  110411  110410  110412  110414  110413  110415  110417  110416  110418
  110420  110419  110421  110423  110422  110424  110426  110425  110427
  110429  110428  110430  110432  110431  110433  110435  110434  110436
  110438  110437  110439  110441  110440  110442  110444  110443  110445
  110447  110446  110448  110450  110449  110451  110453  110452  110454
  110456  110455  110457  110459  110458  110460  110462  110461  110463
  110465  110464  110466  110468  110467  110469  110471  110470  110472
  110474  110473  110475  110477  110476  110478  110480  110479  110481
  110483  110482  110484  110486  110485  110487  110489  110488  110490
  110492  110491  110493  110495  110494  110496  110498  110497  110499
  110501  110500  110502  110504  110503  110505  110507  110506  110508
  110510  110509  110511  110513  110512  110514  110516  110515  110517
  110519  110518  110520  110522  110521  110523  110525  110524  110526
  110528  110527  110529  110531  110530  110532  110534  110533  110535
  110537  110536  110538  110540  110539  110541  110543  110542  110544
  110546  110545  110547  110549  110548  110550  110552  110551  110553
  110555  110554  110556  110558  110557  110559  110561  110560  110562
  110564  110563  110565  110567  110566  110568  110570  110569  110571
  110573  110572  110574  110576  110575  110577  110579  110578  110580
  110582  110581  110583  110585  110584  110586  110588  110587  110589
  110591  110590  110592  110594  110593  110595  110597  110596  110598
  110600  110599  110601  110603  110602  110604  110606  110605  110607
  110609  110608  110610  110612  110611  110613  110615  110614  110616
  110618  110617  110619  110621  110620  110622  110624  110623  110625
  110627  110626  110628  110630  110629  110631  110633  110632  110634
  110636  110635  110637  110639  110638  110640  110642  110641  110643
  110645  110644  110646  110648  110647  110649  110651  110650  110652
  110654  110653  110655  110657  110656  110658  110660  110659  110661
  110663  110662  110664  110666  110665  110667  110669  110668  110670
  110672  110671  110673  110675  110674  110676  110678  110677  110679
  110681  110680  110682  110684  110683  110685  110687  110686  110688
  110690  110689  110691  110693  110692  110694  110696  110695  110697
  110699  110698  110700  110702  110701  110703  110705  110704  110706
  110708  110707  110709  110711  110710  110712  110714  110713  110715
  110717  110716  110718  110720  110719  110721  110723  110722  110724
  110726  110725  110727  110729  110728  110730  110732  110731  110733
  110735  110734  110736  110738  110737  110739  110741  110740  110742
  110744  110743  110745  110747  110746  110748  110750  110749  110751
  110753  110752  110754  110756  110755  110757  110759  110758  110760
  110762  110761  110763  110765  110764  110766  110768  110767  110769
  110771  110770  110772  110774  110773  110775  110777  110776  110778
  110780  110779  110781  110783  110782  110784  110786  110785  110787
  110789  110788  110790  110792  110791  110793  110795  110794  110796
  110798  110797  110799  110801  110800  110802  110804  110803  110805
  110807  110806  110808  110810  110809  110811  110813  110812  110814
  110816  110815  110817  110819  110818  110820  110822  110821  110823
  110825  110824  110826  110828  110827  110829  110831  110830  110832
  110834  110833  110835  110837  110836  110838  110840  110839  110841
  110843  110842  110844  110846  110845  110847  110849  110848  110850
  110852  110851  110853  110855  110854  110856  110858  110857  110859
  110861  110860  110862  110864  110863  110865  110867  110866  110868
  110870  110869  110871  110873  110872  110874  110876  110875  110877
  110879  110878  110880  110882  110881  110883  110885  110884  110886
  110888  110887  110889  110891  110890  110892  110894  110893  110895
  110897  110896  110898  110900  110899  110901  110903  110902  110904
  110906  110905  110907  110909  110908  110910  110912  110911  110913
  110915  110914  110916  110918  110917  110919  110921  110920  110922
  110924  110923  110925  110927  110926  110928  110930  110929  110931
  110933  110932  110934  110936  110935  110937  110939  110938  110940
  110942  110941  110943  110945  110944  110946  110948  110947  110949
  110951  110950  110952  110954  110953  110955  110957  110956  110958
  110960  110959  110961  110963  110962  110964  110966  110965  110967
  110969  110968  110970  110972  110971  110973  110975  110974  110976
  110978  110977  110979  110981  110980  110982  110984  110983  110985
  110987  110986  110988  110990  110989  110991  110993  110992  110994
  110996  110995  110997  110999  110998  111000  111002  111001  111003
  111005  111004  111006  111008  111007  111009  111011  111010  111012
  111014  111013  111015  111017  111016  111018  111020  111019  111021
  111023  111022  111024  111026  111025  111027  111029  111028  111030
  111032  111031  111033  111035  111034  111036  111038  111037  111039
  111041  111040  111042  111044  111043  111045  111047  111046  111048
  111050  111049  111051  111053  111052  111054  111056  111055  111057
  111059  111058  111060  111062  111061  111063  111065  111064  111066
  111068  111067  111069  111071  111070  111072  111074  111073  111075
  111077  111076  111078  111080  111079  111081  111083  111082  111084
  111086  111085  111087  111089  111088  111090  111092  111091  111093
  111095  111094  111096  111098  111097  111099  111101  111100  111102
  111104  111103  111105  111107  111106  111108  111110  111109  111111
  111113  111112  111114  111116  111115  111117  111119  111118  111120
  111122  111121  111123  111125  111124  111126  111128  111127  111129
  111131  111130  111132  111134  111133  111135  111137  111136  111138
  111140  111139  111141  111143  111142  111144  111146  111145  111147
  111149  111148  111150  111152  111151  111153  111155  111154  111156
  111158  111157  111159  111161  111160  111162  111164  111163  111165
  111167  111166  111168  111170  111169  111171  111173  111172  111174
  111176  111175  111177  111179  111178  111180  111182  111181  111183
  111185  111184  111186  111188  111187  111189  111191  111190  111192
  111194  111193  111195  111197  111196  111198  111200  111199  111201
  111203  111202  111204  111206  111205  111207  111209  111208  111210
  111212  111211  111213  111215  111214  111216  111218  111217  111219
  111221  111220  111222  111224  111223  111225  111227  111226  111228
  111230  111229  111231  111233  111232  111234  111236  111235  111237
  111239  111238  111240  111242  111241  111243  111245  111244  111246
  111248  111247  111249  111251  111250  111252  111254  111253  111255
  111257  111256  111258  111260  111259  111261  111263  111262  111264
  111266  111265  111267  111269  111268  111270  111272  111271  111273
  111275  111274  111276  111278  111277  111279  111281  111280  111282
  111284  111283  111285  111287  111286  111288  111290  111289  111291
  111293  111292  111294  111296  111295  111297  111299  111298  111300
  111302  111301  111303  111305  111304  111306  111308  111307  111309
  111311  111310  111312  111314  111313  111315  111317  111316  111318
  111320  111319  111321  111323  111322  111324  111326  111325  111327
  111329  111328  111330  111332  111331  111333  111335  111334  111336
  111338  111337  111339  111341  111340  111342  111344  111343  111345
  111347  111346  111348  111350  111349  111351  111353  111352  111354
  111356  111355  111357  111359  111358  111360  111362  111361  111363
  111365  111364  111366  111368  111367  111369  111371  111370  111372
  111374  111373  111375  111377  111376  111378  111380  111379  111381
  111383  111382  111384  111386  111385  111387  111389  111388  111390
  111392  111391  111393  111395  111394  111396  111398  111397  111399
  111401  111400  111402  111404  111403  111405  111407  111406  111408
  111410  111409  111411  111413  111412  111414  111416  111415  111417
  111419  111418  111420  111422  111421  111423  111425  111424  111426
  111428  111427  111429  111431  111430  111432  111434  111433  111435
  111437  111436  111438  111440  111439  111441  111443  111442  111444
  111446  111445  111447  111449  111448  111450  111452  111451  111453
  111455  111454  111456  111458  111457  111459  111461  111460  111462
  111464  111463  111465  111467  111466  111468  111470  111469  111471
  111473  111472  111474  111476  111475  111477  111479  111478  111480
  111482  111481  111483  111485  111484  111486  111488  111487  111489
  111491  111490  111492  111494  111493  111495  111497  111496  111498
  111500  111499  111501  111503  111502  111504  111506  111505  111507
  111509  111508  111510  111512  111511  111513  111515  111514  111516
  111518  111517  111519  111521  111520  111522  111524  111523  111525
  111527  111526  111528  111530  111529  111531  111533  111532  111534
  111536  111535  111537  111539  111538  111540  111542  111541  111543
  111545  111544  111546  111548  111547  111549  111551  111550  111552
  111554  111553  111555  111557  111556  111558  111560  111559  111561
  111563  111562  111564  111566  111565  111567  111569  111568  111570
  111572  111571  111573  111575  111574  111576  111578  111577  111579
  111581  111580  111582  111584  111583  111585  111587  111586  111588
  111590  111589  111591  111593  111592  111594  111596  111595  111597
  111599  111598  111600  111602  111601  111603  111605  111604  111606
  111608  111607  111609  111611  111610  111612  111614  111613  111615
  111617  111616  111618  111620  111619  111621  111623  111622  111624
  111626  111625  111627  111629  111628  111630  111632  111631  111633
  111635  111634  111636  111638  111637  111639  111641  111640  111642
  111644  111643  111645  111647  111646  111648  111650  111649  111651
  111653  111652  111654  111656  111655  111657  111659  111658  111660
  111662  111661  111663  111665  111664  111666  111668  111667  111669
  111671  111670  111672  111674  111673  111675  111677  111676  111678
  111680  111679  111681  111683  111682  111684  111686  111685  111687
  111689  111688  111690  111692  111691  111693  111695  111694  111696
  111698  111697  111699  111701  111700  111702  111704  111703  111705
  111707  111706  111708  111710  111709  111711  111713  111712  111714
  111716  111715  111717  111719  111718  111720  111722  111721  111723
  111725  111724  111726  111728  111727  111729  111731  111730  111732
  111734  111733  111735  111737  111736  111738  111740  111739  111741
  111743  111742  111744  111746  111745  111747  111749  111748  111750
  111752  111751  111753  111755  111754  111756  111758  111757  111759
  111761  111760  111762  111764  111763  111765  111767  111766  111768
  111770  111769  111771  111773  111772  111774  111776  111775  111777
  111779  111778  111780  111782  111781  111783  111785  111784  111786
  111788  111787  111789  111791  111790  111792  111794  111793  111795
  111797  111796  111798  111800  111799  111801  111803  111802  111804
  111806  111805  111807  111809  111808  111810  111812  111811  111813
  111815  111814  111816  111818  111817  111819  111821  111820  111822
  111824  111823  111825  111827  111826  111828  111830  111829  111831
  111833  111832  111834  111836  111835  111837  111839  111838  111840
  111842  111841  111843  111845  111844  111846  111848  111847  111849
  111851  111850  111852  111854  111853  111855  111857  111856  111858
  111860  111859  111861  111863  111862  111864  111866  111865  111867
  111869  111868  111870  111872  111871  111873  111875  111874  111876
  111878  111877  111879  111881  111880  111882  111884  111883  111885
  111887  111886  111888  111890  111889  111891  111893  111892  111894
  111896  111895  111897  111899  111898  111900  111902  111901  111903
  111905  111904  111906  111908  111907  111909  111911  111910  111912
  111914  111913  111915  111917  111916  111918  111920  111919  111921
  111923  111922  111924  111926  111925  111927  111929  111928  111930
  111932  111931  111933  111935  111934  111936  111938  111937  111939
  111941  111940  111942  111944  111943  111945  111947  111946  111948
  111950  111949  111951  111953  111952  111954  111956  111955  111957
  111959  111958  111960  111962  111961  111963  111965  111964  111966
  111968  111967  111969  111971  111970  111972  111974  111973  111975
  111977  111976  111978  111980  111979  111981  111983  111982  111984
  111986  111985  111987  111989  111988  111990  111992  111991  111993
  111995  111994  111996  111998  111997  111999  112001  112000  112002
  112004  112003  112005  112007  112006  112008  112010  112009  112011
  112013  112012  112014  112016  112015  112017  112019  112018  112020
  112022  112021  112023  112025  112024  112026  112028  112027  112029
  112031  112030  112032  112034  112033  112035  112037  112036  112038
  112040  112039  112041  112043  112042  112044  112046  112045  112047
  112049  112048  112050  112052  112051  112053  112055  112054  112056
  112058  112057  112059  112061  112060  112062  112064  112063  112065
  112067  112066  112068  112070  112069  112071  112073  112072  112074
  112076  112075  112077  112079  112078  112080  112082  112081  112083
  112085  112084  112086  112088  112087  112089  112091  112090  112092
  112094  112093  112095  112097  112096  112098  112100  112099  112101
  112103  112102  112104  112106  112105  112107  112109  112108  112110
  112112  112111  112113  112115  112114  112116  112118  112117  112119
  112121  112120  112122  112124  112123  112125  112127  112126  112128
  112130  112129  112131  112133  112132  112134  112136  112135  112137
  112139  112138  112140  112142  112141  112143  112145  112144  112146
  112148  112147  112149  112151  112150  112152  112154  112153  112155
  112157  112156  112158  112160  112159  112161  112163  112162  112164
  112166  112165  112167  112169  112168  112170  112172  112171  112173
  112175  112174  112176  112178  112177  112179  112181  112180  112182
  112184  112183  112185  112187  112186  112188  112190  112189  112191
  112193  112192  112194  112196  112195  112197  112199  112198  112200
  112202  112201  112203  112205  112204  112206  112208  112207  112209
  112211  112210  112212  112214  112213  112215  112217  112216  112218
  112220  112219  112221  112223  112222  112224  112226  112225  112227
  112229  112228  112230  112232  112231  112233  112235  112234  112236
  112238  112237  112239  112241  112240  112242  112244  112243  112245
  112247  112246  112248  112250  112249  112251  112253  112252  112254
  112256  112255  112257  112259  112258  112260  112262  112261  112263
  112265  112264  112266  112268  112267  112269  112271  112270  112272
  112274  112273  112275  112277  112276  112278  112280  112279  112281
  112283  112282  112284  112286  112285  112287  112289  112288  112290
  112292  112291  112293  112295  112294  112296  112298  112297  112299
  112301  112300  112302  112304  112303  112305  112307  112306  112308
  112310  112309  112311  112313  112312  112314  112316  112315  112317
  112319  112318  112320  112322  112321  112323  112325  112324  112326
  112328  112327  112329  112331  112330  112332  112334  112333  112335
  112337  112336  112338  112340  112339  112341  112343  112342  112344
  112346  112345  112347  112349  112348  112350  112352  112351  112353
  112355  112354  112356  112358  112357  112359  112361  112360  112362
  112364  112363  112365  112367  112366  112368  112370  112369  112371
  112373  112372  112374  112376  112375  112377  112379  112378  112380
  112382  112381  112383  112385  112384  112386  112388  112387  112389
  112391  112390  112392  112394  112393  112395  112397  112396  112398
  112400  112399  112401  112403  112402  112404  112406  112405  112407
  112409  112408  112410  112412  112411  112413  112415  112414  112416
  112418  112417  112419  112421  112420  112422  112424  112423  112425
  112427  112426  112428  112430  112429  112431  112433  112432  112434
  112436  112435  112437  112439  112438  112440  112442  112441  112443
  112445  112444  112446  112448  112447  112449  112451  112450  112452
  112454  112453  112455  112457  112456  112458  112460  112459  112461
  112463  112462  112464  112466  112465  112467  112469  112468  112470
  112472  112471  112473  112475  112474  112476  112478  112477  112479
  112481  112480  112482  112484  112483  112485  112487  112486  112488
  112490  112489  112491  112493  112492  112494  112496  112495  112497
  112499  112498  112500  112502  112501  112503  112505  112504  112506
  112508  112507  112509  112511  112510  112512  112514  112513  112515
  112517  112516  112518  112520  112519  112521  112523  112522  112524
  112526  112525  112527  112529  112528  112530  112532  112531  112533
  112535  112534  112536  112538  112537  112539  112541  112540  112542
  112544  112543  112545  112547  112546  112548  112550  112549  112551
  112553  112552  112554  112556  112555  112557  112559  112558  112560
  112562  112561  112563  112565  112564  112566  112568  112567  112569
  112571  112570  112572  112574  112573  112575  112577  112576  112578
  112580  112579  112581  112583  112582  112584  112586  112585  112587
  112589  112588  112590  112592  112591  112593  112595  112594  112596
  112598  112597  112599  112601  112600  112602  112604  112603  112605
  112607  112606  112608  112610  112609  112611  112613  112612  112614
  112616  112615  112617  112619  112618  112620  112622  112621  112623
  112625  112624  112626  112628  112627  112629  112631  112630  112632
  112634  112633  112635  112637  112636  112638  112640  112639  112641
  112643  112642  112644  112646  112645  112647  112649  112648  112650
  112652  112651  112653  112655  112654  112656  112658  112657  112659
  112661  112660  112662  112664  112663  112665  112667  112666  112668
  112670  112669  112671  112673  112672  112674  112676  112675  112677
  112679  112678  112680  112682  112681  112683  112685  112684  112686
  112688  112687  112689  112691  112690  112692  112694  112693  112695
  112697  112696  112698  112700  112699  112701  112703  112702  112704
  112706  112705  112707  112709  112708  112710  112712  112711  112713
  112715  112714  112716  112718  112717  112719  112721  112720  112722
  112724  112723  112725  112727  112726  112728  112730  112729  112731
  112733  112732  112734  112736  112735  112737  112739  112738  112740
  112742  112741  112743  112745  112744  112746  112748  112747  112749
  112751  112750  112752  112754  112753  112755  112757  112756  112758
  112760  112759  112761  112763  112762  112764  112766  112765  112767
  112769  112768  112770  112772  112771  112773  112775  112774  112776
  112778  112777  112779  112781  112780  112782  112784  112783  112785
  112787  112786  112788  112790  112789  112791  112793  112792  112794
  112796  112795  112797  112799  112798  112800  112802  112801  112803
  112805  112804  112806  112808  112807  112809  112811  112810  112812
  112814  112813  112815  112817  112816  112818  112820  112819  112821
  112823  112822  112824  112826  112825  112827  112829  112828  112830
  112832  112831  112833  112835  112834  112836  112838  112837  112839
  112841  112840  112842  112844  112843  112845  112847  112846  112848
  112850  112849  112851  112853  112852  112854  112856  112855  112857
  112859  112858  112860  112862  112861  112863  112865  112864  112866
  112868  112867  112869  112871  112870  112872  112874  112873  112875
  112877  112876  112878  112880  112879  112881  112883  112882  112884
  112886  112885  112887  112889  112888  112890  112892  112891  112893
  112895  112894  112896  112898  112897  112899  112901  112900  112902
  112904  112903  112905  112907  112906  112908  112910  112909  112911
  112913  112912  112914  112916  112915  112917  112919  112918  112920
  112922  112921  112923  112925  112924  112926  112928  112927  112929
  112931  112930  112932  112934  112933  112935  112937  112936  112938
  112940  112939  112941  112943  112942  112944  112946  112945  112947
  112949  112948  112950  112952  112951  112953  112955  112954  112956
  112958  112957  112959  112961  112960  112962  112964  112963  112965
  112967  112966  112968  112970  112969  112971  112973  112972  112974
  112976  112975  112977  112979  112978  112980  112982  112981  112983
  112985  112984  112986  112988  112987  112989  112991  112990  112992
  112994  112993  112995  112997  112996  112998  113000  112999  113001
  113003  113002  113004  113006  113005  113007  113009  113008  113010
  113012  113011  113013  113015  113014  113016  113018  113017  113019
  113021  113020  113022  113024  113023  113025  113027  113026  113028
  113030  113029  113031  113033  113032  113034  113036  113035  113037
  113039  113038  113040  113042  113041  113043  113045  113044  113046
  113048  113047  113049  113051  113050  113052  113054  113053  113055
  113057  113056  113058  113060  113059  113061  113063  113062  113064
  113066  113065  113067  113069  113068  113070  113072  113071  113073
  113075  113074  113076  113078  113077  113079  113081  113080  113082
  113084  113083  113085  113087  113086  113088  113090  113089  113091
  113093  113092  113094  113096  113095  113097  113099  113098  113100
  113102  113101  113103  113105  113104  113106  113108  113107  113109
  113111  113110  113112  113114  113113  113115  113117  113116  113118
  113120  113119  113121  113123  113122  113124  113126  113125  113127
  113129  113128  113130  113132  113131  113133  113135  113134  113136
  113138  113137  113139  113141  113140  113142  113144  113143  113145
  113147  113146  113148  113150  113149  113151  113153  113152  113154
  113156  113155  113157  113159  113158  113160  113162  113161  113163
  113165  113164  113166  113168  113167  113169  113171  113170  113172
  113174  113173  113175  113177  113176  113178  113180  113179  113181
  113183  113182  113184  113186  113185  113187  113189  113188  113190
  113192  113191  113193  113195  113194  113196  113198  113197  113199
  113201  113200  113202  113204  113203  113205  113207  113206  113208
  113210  113209  113211  113213  113212  113214  113216  113215  113217
  113219  113218  113220  113222  113221  113223  113225  113224  113226
  113228  113227  113229  113231  113230  113232  113234  113233  113235
  113237  113236  113238  113240  113239  113241  113243  113242  113244
  113246  113245  113247  113249  113248  113250  113252  113251  113253
  113255  113254  113256  113258  113257  113259  113261  113260  113262
  113264  113263  113265  113267  113266  113268  113270  113269  113271
  113273  113272  113274  113276  113275  113277  113279  113278  113280
  113282  113281  113283  113285  113284  113286  113288  113287  113289
  113291  113290  113292  113294  113293  113295  113297  113296  113298
  113300  113299  113301  113303  113302  113304  113306  113305  113307
  113309  113308  113310  113312  113311  113313  113315  113314  113316
  113318  113317  113319  113321  113320  113322  113324  113323  113325
  113327  113326  113328  113330  113329  113331  113333  113332  113334
  113336  113335  113337  113339  113338  113340  113342  113341  113343
  113345  113344  113346  113348  113347  113349  113351  113350  113352
  113354  113353  113355  113357  113356  113358  113360  113359  113361
  113363  113362  113364  113366  113365  113367  113369  113368  113370
  113372  113371  113373  113375  113374  113376  113378  113377  113379
  113381  113380  113382  113384  113383  113385  113387  113386  113388
  113390  113389  113391  113393  113392  113394  113396  113395  113397
  113399  113398  113400  113402  113401  113403  113405  113404  113406
  113408  113407  113409  113411  113410  113412  113414  113413  113415
  113417  113416  113418  113420  113419  113421  113423  113422  113424
  113426  113425  113427  113429  113428  113430  113432  113431  113433
  113435  113434  113436  113438  113437  113439  113441  113440  113442
  113444  113443  113445  113447  113446  113448  113450  113449  113451
  113453  113452  113454  113456  113455  113457  113459  113458  113460
  113462  113461  113463  113465  113464  113466  113468  113467  113469
  113471  113470  113472  113474  113473  113475  113477  113476  113478
  113480  113479  113481  113483  113482  113484  113486  113485  113487
  113489  113488  113490  113492  113491  113493  113495  113494  113496
  113498  113497  113499  113501  113500  113502  113504  113503  113505
  113507  113506  113508  113510  113509  113511  113513  113512  113514
  113516  113515  113517  113519  113518  113520  113522  113521  113523
  113525  113524  113526  113528  113527  113529  113531  113530  113532
  113534  113533  113535  113537  113536  113538  113540  113539  113541
  113543  113542  113544  113546  113545  113547  113549  113548  113550
  113552  113551  113553  113555  113554  113556  113558  113557  113559
  113561  113560  113562  113564  113563  113565  113567  113566  113568
  113570  113569  113571  113573  113572  113574  113576  113575  113577
  113579  113578  113580  113582  113581  113583  113585  113584  113586
  113588  113587  113589  113591  113590  113592  113594  113593  113595
  113597  113596  113598  113600  113599  113601  113603  113602  113604
  113606  113605  113607  113609  113608  113610  113612  113611  113613
  113615  113614  113616  113618  113617  113619  113621  113620  113622
  113624  113623  113625  113627  113626  113628  113630  113629  113631
  113633  113632  113634  113636  113635  113637  113639  113638  113640
  113642  113641  113643  113645  113644  113646  113648  113647  113649
  113651  113650  113652  113654  113653  113655  113657  113656  113658
  113660  113659  113661  113663  113662  113664  113666  113665  113667
  113669  113668  113670  113672  113671  113673  113675  113674  113676
  113678  113677  113679  113681  113680  113682  113684  113683  113685
  113687  113686  113688  113690  113689  113691  113693  113692  113694
  113696  113695  113697  113699  113698  113700  113702  113701  113703
  113705  113704  113706  113708  113707  113709  113711  113710  113712
  113714  113713  113715  113717  113716  113718  113720  113719  113721
  113723  113722  113724  113726  113725  113727  113729  113728  113730
  113732  113731  113733  113735  113734  113736  113738  113737  113739
  113741  113740  113742  113744  113743  113745  113747  113746  113748
  113750  113749  113751  113753  113752  113754  113756  113755  113757
  113759  113758  113760  113762  113761  113763  113765  113764  113766
  113768  113767  113769  113771  113770  113772  113774  113773  113775
  113777  113776  113778  113780  113779  113781  113783  113782  113784
  113786  113785  113787  113789  113788  113790  113792  113791  113793
  113795  113794  113796  113798  113797  113799  113801  113800  113802
  113804  113803  113805  113807  113806  113808  113810  113809  113811
  113813  113812  113814  113816  113815  113817  113819  113818  113820
  113822  113821  113823  113825  113824  113826  113828  113827  113829
  113831  113830  113832  113834  113833  113835  113837  113836  113838
  113840  113839  113841  113843  113842  113844  113846  113845  113847
  113849  113848  113850  113852  113851  113853  113855  113854  113856
  113858  113857  113859  113861  113860  113862  113864  113863  113865
  113867  113866  113868  113870  113869  113871  113873  113872  113874
  113876  113875  113877  113879  113878  113880  113882  113881  113883
  113885  113884  113886  113888  113887  113889  113891  113890  113892
  113894  113893  113895  113897  113896  113898  113900  113899  113901
  113903  113902  113904  113906  113905  113907  113909  113908  113910
  113912  113911  113913  113915  113914  113916  113918  113917  113919
  113921  113920  113922  113924  113923  113925  113927  113926  113928
  113930  113929  113931  113933  113932  113934  113936  113935  113937
  113939  113938  113940  113942  113941  113943  113945  113944  113946
  113948  113947  113949  113951  113950  113952  113954  113953  113955
  113957  113956  113958  113960  113959  113961  113963  113962  113964
  113966  113965  113967  113969  113968  113970  113972  113971  113973
  113975  113974  113976  113978  113977  113979  113981  113980  113982
  113984  113983  113985  113987  113986  113988  113990  113989  113991
  113993  113992  113994  113996  113995  113997  113999  113998  114000
  114002  114001  114003  114005  114004  114006  114008  114007  114009
  114011  114010  114012  114014  114013  114015  114017  114016  114018
  114020  114019  114021  114023  114022  114024  114026  114025  114027
  114029  114028  114030  114032  114031  114033  114035  114034  114036
  114038  114037  114039  114041  114040  114042  114044  114043  114045
  114047  114046  114048  114050  114049  114051  114053  114052  114054
  114056  114055  114057  114059  114058  114060  114062  114061  114063
  114065  114064  114066  114068  114067  114069  114071  114070  114072
  114074  114073  114075  114077  114076  114078  114080  114079  114081
  114083  114082  114084  114086  114085  114087  114089  114088  114090
  114092  114091  114093  114095  114094  114096  114098  114097  114099
  114101  114100  114102  114104  114103  114105  114107  114106  114108
  114110  114109  114111  114113  114112  114114  114116  114115  114117
  114119  114118  114120  114122  114121  114123  114125  114124  114126
  114128  114127  114129  114131  114130  114132  114134  114133  114135
  114137  114136  114138  114140  114139  114141  114143  114142  114144
  114146  114145  114147  114149  114148  114150  114152  114151  114153
  114155  114154  114156  114158  114157  114159  114161  114160  114162
  114164  114163  114165  114167  114166  114168  114170  114169  114171
  114173  114172  114174  114176  114175  114177  114179  114178  114180
  114182  114181  114183  114185  114184  114186  114188  114187  114189
  114191  114190  114192  114194  114193  114195  114197  114196  114198
  114200  114199  114201  114203  114202  114204  114206  114205  114207
  114209  114208  114210  114212  114211  114213  114215  114214  114216
  114218  114217  114219  114221  114220  114222  114224  114223  114225
  114227  114226  114228  114230  114229  114231  114233  114232  114234
  114236  114235  114237  114239  114238  114240  114242  114241  114243
  114245  114244  114246  114248  114247  114249  114251  114250  114252
  114254  114253  114255  114257  114256  114258  114260  114259  114261
  114263  114262  114264  114266  114265  114267  114269  114268  114270
  114272  114271  114273  114275  114274  114276  114278  114277  114279
  114281  114280  114282  114284  114283  114285  114287  114286  114288
  114290  114289  114291  114293  114292  114294  114296  114295  114297
  114299  114298  114300  114302  114301  114303  114305  114304  114306
  114308  114307  114309  114311  114310  114312  114314  114313  114315
  114317  114316  114318  114320  114319  114321  114323  114322  114324
  114326  114325  114327  114329  114328  114330  114332  114331  114333
  114335  114334  114336  114338  114337  114339  114341  114340  114342
  114344  114343  114345  114347  114346  114348  114350  114349  114351
  114353  114352  114354  114356  114355  114357  114359  114358  114360
  114362  114361  114363  114365  114364  114366  114368  114367  114369
  114371  114370  114372  114374  114373  114375  114377  114376  114378
  114380  114379  114381  114383  114382  114384  114386  114385  114387
  114389  114388  114390  114392  114391  114393  114395  114394  114396
  114398  114397  114399  114401  114400  114402  114404  114403  114405
  114407  114406  114408  114410  114409  114411  114413  114412  114414
  114416  114415  114417  114419  114418  114420  114422  114421  114423
  114425  114424  114426  114428  114427  114429  114431  114430  114432
  114434  114433  114435  114437  114436  114438  114440  114439  114441
  114443  114442  114444  114446  114445  114447  114449  114448  114450
  114452  114451  114453  114455  114454  114456  114458  114457  114459
  114461  114460  114462  114464  114463  114465  114467  114466  114468
  114470  114469  114471  114473  114472  114474  114476  114475  114477
  114479  114478  114480  114482  114481  114483  114485  114484  114486
  114488  114487  114489  114491  114490  114492  114494  114493  114495
  114497  114496  114498  114500  114499  114501  114503  114502  114504
  114506  114505  114507  114509  114508  114510  114512  114511  114513
  114515  114514  114516  114518  114517  114519  114521  114520  114522
  114524  114523  114525  114527  114526  114528  114530  114529  114531
  114533  114532  114534  114536  114535  114537  114539  114538  114540
  114542  114541  114543  114545  114544  114546  114548  114547  114549
  114551  114550  114552  114554  114553  114555  114557  114556  114558
  114560  114559  114561  114563  114562  114564  114566  114565  114567
  114569  114568  114570  114572  114571  114573  114575  114574  114576
  114578  114577  114579  114581  114580  114582  114584  114583  114585
  114587  114586  114588  114590  114589  114591  114593  114592  114594
  114596  114595  114597  114599  114598  114600  114602  114601  114603
  114605  114604  114606  114608  114607  114609  114611  114610  114612
  114614  114613  114615  114617  114616  114618  114620  114619  114621
  114623  114622  114624  114626  114625  114627  114629  114628  114630
  114632  114631  114633  114635  114634  114636  114638  114637  114639
  114641  114640  114642  114644  114643  114645  114647  114646  114648
  114650  114649  114651  114653  114652  114654  114656  114655  114657
  114659  114658  114660  114662  114661  114663  114665  114664  114666
  114668  114667  114669  114671  114670  114672  114674  114673  114675
  114677  114676  114678  114680  114679  114681  114683  114682  114684
  114686  114685  114687  114689  114688  114690  114692  114691  114693
  114695  114694  114696  114698  114697  114699  114701  114700  114702
  114704  114703  114705  114707  114706  114708  114710  114709  114711
  114713  114712  114714  114716  114715  114717  114719  114718  114720
  114722  114721  114723  114725  114724  114726  114728  114727  114729
  114731  114730  114732  114734  114733  114735  114737  114736  114738
  114740  114739  114741  114743  114742  114744  114746  114745  114747
  114749  114748  114750  114752  114751  114753  114755  114754  114756
  114758  114757  114759  114761  114760  114762  114764  114763  114765
  114767  114766  114768  114770  114769  114771  114773  114772  114774
  114776  114775  114777  114779  114778  114780  114782  114781  114783
  114785  114784  114786  114788  114787  114789  114791  114790  114792
  114794  114793  114795  114797  114796  114798  114800  114799  114801
  114803  114802  114804  114806  114805  114807  114809  114808  114810
  114812  114811  114813  114815  114814  114816  114818  114817  114819
  114821  114820  114822  114824  114823  114825  114827  114826  114828
  114830  114829  114831  114833  114832  114834  114836  114835  114837
  114839  114838  114840  114842  114841  114843  114845  114844  114846
  114848  114847  114849  114851  114850  114852  114854  114853  114855
  114857  114856  114858  114860  114859  114861  114863  114862  114864
  114866  114865  114867  114869  114868  114870  114872  114871  114873
  114875  114874  114876  114878  114877  114879  114881  114880  114882
  114884  114883  114885  114887  114886  114888  114890  114889  114891
  114893  114892  114894  114896  114895  114897  114899  114898  114900
  114902  114901  114903  114905  114904  114906  114908  114907  114909
  114911  114910  114912  114914  114913  114915  114917  114916  114918
  114920  114919  114921  114923  114922  114924  114926  114925  114927
  114929  114928  114930  114932  114931  114933  114935  114934  114936
  114938  114937  114939  114941  114940  114942  114944  114943  114945
  114947  114946  114948  114950  114949  114951  114953  114952  114954
  114956  114955  114957  114959  114958  114960  114962  114961  114963
  114965  114964  114966  114968  114967  114969  114971  114970  114972
  114974  114973  114975  114977  114976  114978  114980  114979  114981
  114983  114982  114984  114986  114985  114987  114989  114988  114990
  114992  114991  114993  114995  114994  114996  114998  114997  114999
  115001  115000  115002  115004  115003  115005  115007  115006  115008
  115010  115009  115011  115013  115012  115014  115016  115015  115017
  115019  115018  115020  115022  115021  115023  115025  115024  115026
  115028  115027  115029  115031  115030  115032  115034  115033  115035
  115037  115036  115038  115040  115039  115041  115043  115042  115044
  115046  115045  115047  115049  115048  115050  115052  115051  115053
  115055  115054  115056  115058  115057  115059  115061  115060  115062
  115064  115063  115065  115067  115066  115068  115070  115069  115071
  115073  115072  115074  115076  115075  115077  115079  115078  115080
  115082  115081  115083  115085  115084  115086  115088  115087  115089
  115091  115090  115092  115094  115093  115095  115097  115096  115098
  115100  115099  115101  115103  115102  115104  115106  115105  115107
  115109  115108  115110  115112  115111  115113  115115  115114  115116
  115118  115117  115119  115121  115120  115122  115124  115123  115125
  115127  115126  115128  115130  115129  115131  115133  115132  115134
  115136  115135  115137  115139  115138  115140  115142  115141  115143
  115145  115144  115146  115148  115147  115149  115151  115150  115152
  115154  115153  115155  115157  115156  115158  115160  115159  115161
  115163  115162  115164  115166  115165  115167  115169  115168  115170
  115172  115171  115173  115175  115174  115176  115178  115177  115179
  115181  115180  115182  115184  115183  115185  115187  115186  115188
  115190  115189  115191  115193  115192  115194  115196  115195  115197
  115199  115198  115200  115202  115201  115203  115205  115204  115206
  115208  115207  115209  115211  115210  115212  115214  115213  115215
  115217  115216  115218  115220  115219  115221  115223  115222  115224
  115226  115225  115227  115229  115228  115230  115232  115231  115233
  115235  115234  115236  115238  115237  115239  115241  115240  115242
  115244  115243  115245  115247  115246  115248  115250  115249  115251
  115253  115252  115254  115256  115255  115257  115259  115258  115260
  115262  115261  115263  115265  115264  115266  115268  115267  115269
  115271  115270  115272  115274  115273  115275  115277  115276  115278
  115280  115279  115281  115283  115282  115284  115286  115285  115287
  115289  115288  115290  115292  115291  115293  115295  115294  115296
  115298  115297  115299  115301  115300  115302  115304  115303  115305
  115307  115306  115308  115310  115309  115311  115313  115312  115314
  115316  115315  115317  115319  115318  115320  115322  115321  115323
  115325  115324  115326  115328  115327  115329  115331  115330  115332
  115334  115333  115335  115337  115336  115338  115340  115339  115341
  115343  115342  115344  115346  115345  115347  115349  115348  115350
  115352  115351  115353  115355  115354  115356  115358  115357  115359
  115361  115360  115362  115364  115363  115365  115367  115366  115368
  115370  115369  115371  115373  115372  115374  115376  115375  115377
  115379  115378  115380  115382  115381  115383  115385  115384  115386
  115388  115387  115389  115391  115390  115392  115394  115393  115395
  115397  115396  115398  115400  115399  115401  115403  115402  115404
  115406  115405  115407  115409  115408  115410  115412  115411  115413
  115415  115414  115416  115418  115417  115419  115421  115420  115422
  115424  115423  115425  115427  115426  115428  115430  115429  115431
  115433  115432  115434  115436  115435  115437  115439  115438  115440
  115442  115441  115443  115445  115444  115446  115448  115447  115449
  115451  115450  115452  115454  115453  115455  115457  115456  115458
  115460  115459  115461  115463  115462  115464  115466  115465  115467
  115469  115468  115470  115472  115471  115473  115475  115474  115476
  115478  115477  115479  115481  115480  115482  115484  115483  115485
  115487  115486  115488  115490  115489  115491  115493  115492  115494
  115496  115495  115497  115499  115498  115500  115502  115501  115503
  115505  115504  115506  115508  115507  115509  115511  115510  115512
  115514  115513  115515  115517  115516  115518  115520  115519  115521
  115523  115522  115524  115526  115525  115527  115529  115528  115530
  115532  115531  115533  115535  115534  115536  115538  115537  115539
  115541  115540  115542  115544  115543  115545  115547  115546  115548
  115550  115549  115551  115553  115552  115554  115556  115555  115557
  115559  115558  115560  115562  115561  115563  115565  115564  115566
  115568  115567  115569  115571  115570  115572  115574  115573  115575
  115577  115576  115578  115580  115579  115581  115583  115582  115584
  115586  115585  115587  115589  115588  115590  115592  115591  115593
  115595  115594  115596  115598  115597  115599  115601  115600  115602
  115604  115603  115605  115607  115606  115608  115610  115609  115611
  115613  115612  115614  115616  115615  115617  115619  115618  115620
  115622  115621  115623  115625  115624  115626  115628  115627  115629
  115631  115630  115632  115634  115633  115635  115637  115636  115638
  115640  115639  115641  115643  115642  115644  115646  115645  115647
  115649  115648  115650  115652  115651  115653  115655  115654  115656
  115658  115657  115659  115661  115660  115662  115664  115663  115665
  115667  115666  115668  115670  115669  115671  115673  115672  115674
  115676  115675  115677  115679  115678  115680  115682  115681  115683
  115685  115684  115686  115688  115687  115689  115691  115690  115692
  115694  115693  115695  115697  115696  115698  115700  115699  115701
  115703  115702  115704  115706  115705  115707  115709  115708  115710
  115712  115711  115713  115715  115714  115716  115718  115717  115719
  115721  115720  115722  115724  115723  115725  115727  115726  115728
  115730  115729  115731  115733  115732  115734  115736  115735  115737
  115739  115738  115740  115742  115741  115743  115745  115744  115746
  115748  115747  115749  115751  115750  115752  115754  115753  115755
  115757  115756  115758  115760  115759  115761  115763  115762  115764
  115766  115765  115767  115769  115768  115770  115772  115771  115773
  115775  115774  115776  115778  115777  115779  115781  115780  115782
  115784  115783  115785  115787  115786  115788  115790  115789  115791
  115793  115792  115794  115796  115795  115797  115799  115798  115800
  115802  115801  115803  115805  115804  115806  115808  115807  115809
  115811  115810  115812  115814  115813  115815  115817  115816  115818
  115820  115819  115821  115823  115822  115824  115826  115825  115827
  115829  115828  115830  115832  115831  115833  115835  115834  115836
  115838  115837  115839  115841  115840  115842  115844  115843  115845
  115847  115846  115848  115850  115849  115851  115853  115852  115854
  115856  115855  115857  115859  115858  115860  115862  115861  115863
  115865  115864  115866  115868  115867  115869  115871  115870  115872
  115874  115873  115875  115877  115876  115878  115880  115879  115881
  115883  115882  115884  115886  115885  115887  115889  115888  115890
  115892  115891  115893  115895  115894  115896  115898  115897  115899
  115901  115900  115902  115904  115903  115905  115907  115906  115908
  115910  115909  115911  115913  115912  115914  115916  115915  115917
  115919  115918  115920  115922  115921  115923  115925  115924  115926
  115928  115927  115929  115931  115930  115932  115934  115933  115935
  115937  115936  115938  115940  115939  115941  115943  115942  115944
  115946  115945  115947  115949  115948  115950  115952  115951  115953
  115955  115954  115956  115958  115957  115959  115961  115960  115962
  115964  115963  115965  115967  115966  115968  115970  115969  115971
  115973  115972  115974  115976  115975  115977  115979  115978  115980
  115982  115981  115983  115985  115984  115986  115988  115987  115989
  115991  115990  115992  115994  115993  115995  115997  115996  115998
  116000  115999  116001  116003  116002  116004  116006  116005  116007
  116009  116008  116010  116012  116011  116013  116015  116014  116016
  116018  116017  116019  116021  116020  116022  116024  116023  116025
  116027  116026  116028  116030  116029  116031  116033  116032  116034
  116036  116035  116037  116039  116038  116040  116042  116041  116043
  116045  116044  116046  116048  116047  116049  116051  116050  116052
  116054  116053  116055  116057  116056  116058  116060  116059  116061
  116063  116062  116064  116066  116065  116067  116069  116068  116070
  116072  116071  116073  116075  116074  116076  116078  116077  116079
  116081  116080  116082  116084  116083  116085  116087  116086  116088
  116090  116089  116091  116093  116092  116094  116096  116095  116097
  116099  116098  116100  116102  116101  116103  116105  116104  116106
  116108  116107  116109  116111  116110  116112  116114  116113  116115
  116117  116116  116118  116120  116119  116121  116123  116122  116124
  116126  116125  116127  116129  116128  116130  116132  116131  116133
  116135  116134  116136  116138  116137  116139  116141  116140  116142
  116144  116143  116145  116147  116146  116148  116150  116149  116151
  116153  116152  116154  116156  116155  116157  116159  116158  116160
  116162  116161  116163  116165  116164  116166  116168  116167  116169
  116171  116170  116172  116174  116173  116175  116177  116176  116178
  116180  116179  116181  116183  116182  116184  116186  116185  116187
  116189  116188  116190  116192  116191  116193  116195  116194  116196
  116198  116197  116199  116201  116200  116202  116204  116203  116205
  116207  116206  116208  116210  116209  116211  116213  116212  116214
  116216  116215  116217  116219  116218  116220  116222  116221  116223
  116225  116224  116226  116228  116227  116229  116231  116230  116232
  116234  116233  116235  116237  116236  116238  116240  116239  116241
  116243  116242  116244  116246  116245  116247  116249  116248  116250
  116252  116251  116253  116255  116254  116256  116258  116257  116259
  116261  116260  116262  116264  116263  116265  116267  116266  116268
  116270  116269  116271  116273  116272  116274  116276  116275  116277
  116279  116278  116280  116282  116281  116283  116285  116284  116286
  116288  116287  116289  116291  116290  116292  116294  116293  116295
  116297  116296  116298  116300  116299  116301  116303  116302  116304
  116306  116305  116307  116309  116308  116310  116312  116311  116313
  116315  116314  116316  116318  116317  116319  116321  116320  116322
  116324  116323  116325  116327  116326  116328  116330  116329  116331
  116333  116332  116334  116336  116335  116337  116339  116338  116340
  116342  116341  116343  116345  116344  116346  116348  116347  116349
  116351  116350  116352  116354  116353  116355  116357  116356  116358
  116360  116359  116361  116363  116362  116364  116366  116365  116367
  116369  116368  116370  116372  116371  116373  116375  116374  116376
  116378  116377  116379  116381  116380  116382  116384  116383  116385
  116387  116386  116388  116390  116389  116391  116393  116392  116394
  116396  116395  116397  116399  116398  116400  116402  116401  116403
  116405  116404  116406  116408  116407  116409  116411  116410  116412
  116414  116413  116415  116417  116416  116418  116420  116419  116421
  116423  116422  116424  116426  116425  116427  116429  116428  116430
  116432  116431  116433  116435  116434  116436  116438  116437  116439
  116441  116440  116442  116444  116443  116445  116447  116446  116448
  116450  116449  116451  116453  116452  116454  116456  116455  116457
  116459  116458  116460  116462  116461  116463  116465  116464  116466
  116468  116467  116469  116471  116470  116472  116474  116473  116475
  116477  116476  116478  116480  116479  116481  116483  116482  116484
  116486  116485  116487  116489  116488  116490  116492  116491  116493
  116495  116494  116496  116498  116497  116499  116501  116500  116502
  116504  116503  116505  116507  116506  116508  116510  116509  116511
  116513  116512  116514  116516  116515  116517  116519  116518  116520
  116522  116521  116523  116525  116524  116526  116528  116527  116529
  116531  116530  116532  116534  116533  116535  116537  116536  116538
  116540  116539  116541  116543  116542  116544  116546  116545  116547
  116549  116548  116550  116552  116551  116553  116555  116554  116556
  116558  116557  116559  116561  116560  116562  116564  116563  116565
  116567  116566  116568  116570  116569  116571  116573  116572  116574
  116576  116575  116577  116579  116578  116580  116582  116581  116583
  116585  116584  116586  116588  116587  116589  116591  116590  116592
  116594  116593  116595  116597  116596  116598  116600  116599  116601
  116603  116602  116604  116606  116605  116607  116609  116608  116610
  116612  116611  116613  116615  116614  116616  116618  116617  116619
  116621  116620  116622  116624  116623  116625  116627  116626  116628
  116630  116629  116631  116633  116632  116634  116636  116635  116637
  116639  116638  116640  116642  116641  116643  116645  116644  116646
  116648  116647  116649  116651  116650  116652  116654  116653  116655
  116657  116656  116658  116660  116659  116661  116663  116662  116664
  116666  116665  116667  116669  116668  116670  116672  116671  116673
  116675  116674  116676  116678  116677  116679  116681  116680  116682
  116684  116683  116685  116687  116686  116688  116690  116689  116691
  116693  116692  116694  116696  116695  116697  116699  116698  116700
  116702  116701  116703  116705  116704  116706  116708  116707  116709
  116711  116710  116712  116714  116713  116715  116717  116716  116718
  116720  116719  116721  116723  116722  116724  116726  116725  116727
  116729  116728  116730  116732  116731  116733  116735  116734  116736
  116738  116737  116739  116741  116740  116742  116744  116743  116745
  116747  116746  116748  116750  116749  116751  116753  116752  116754
  116756  116755  116757  116759  116758  116760  116762  116761  116763
  116765  116764  116766  116768  116767  116769  116771  116770  116772
  116774  116773  116775  116777  116776  116778  116780  116779  116781
  116783  116782  116784  116786  116785  116787  116789  116788  116790
  116792  116791  116793  116795  116794  116796  116798  116797  116799
  116801  116800  116802  116804  116803  116805  116807  116806  116808
  116810  116809  116811  116813  116812  116814  116816  116815  116817
  116819  116818  116820  116822  116821  116823  116825  116824  116826
  116828  116827  116829  116831  116830  116832  116834  116833  116835
  116837  116836  116838  116840  116839  116841  116843  116842  116844
  116846  116845  116847  116849  116848  116850  116852  116851  116853
  116855  116854  116856  116858  116857  116859  116861  116860  116862
  116864  116863  116865  116867  116866  116868  116870  116869  116871
  116873  116872  116874  116876  116875  116877  116879  116878  116880
  116882  116881  116883  116885  116884  116886  116888  116887  116889
  116891  116890  116892  116894  116893  116895  116897  116896  116898
  116900  116899  116901  116903  116902  116904  116906  116905  116907
  116909  116908  116910  116912  116911  116913  116915  116914  116916
  116918  116917  116919  116921  116920  116922  116924  116923  116925
  116927  116926  116928  116930  116929  116931  116933  116932  116934
  116936  116935  116937  116939  116938  116940  116942  116941  116943
  116945  116944  116946  116948  116947  116949  116951  116950  116952
  116954  116953  116955  116957  116956  116958  116960  116959  116961
  116963  116962  116964  116966  116965  116967  116969  116968  116970
  116972  116971  116973  116975  116974  116976  116978  116977  116979
  116981  116980  116982  116984  116983  116985  116987  116986  116988
  116990  116989  116991  116993  116992  116994  116996  116995  116997
  116999  116998  117000  117002  117001  117003  117005  117004  117006
  117008  117007  117009  117011  117010  117012  117014  117013  117015
  117017  117016  117018  117020  117019  117021  117023  117022  117024
  117026  117025  117027  117029  117028  117030  117032  117031  117033
  117035  117034  117036  117038  117037  117039  117041  117040  117042
  117044  117043  117045  117047  117046  117048  117050  117049  117051
  117053  117052  117054  117056  117055  117057  117059  117058  117060
  117062  117061  117063  117065  117064  117066  117068  117067  117069
  117071  117070  117072  117074  117073  117075  117077  117076  117078
  117080  117079  117081  117083  117082  117084  117086  117085  117087
  117089  117088  117090  117092  117091  117093  117095  117094  117096
  117098  117097  117099  117101  117100  117102  117104  117103  117105
  117107  117106  117108  117110  117109  117111  117113  117112  117114
  117116  117115  117117  117119  117118  117120  117122  117121  117123
  117125  117124  117126  117128  117127  117129  117131  117130  117132
  117134  117133  117135  117137  117136  117138  117140  117139  117141
  117143  117142  117144  117146  117145  117147  117149  117148  117150
  117152  117151  117153  117155  117154  117156  117158  117157  117159
  117161  117160  117162  117164  117163  117165  117167  117166  117168
  117170  117169  117171  117173  117172  117174  117176  117175  117177
  117179  117178  117180  117182  117181  117183  117185  117184  117186
  117188  117187  117189  117191  117190  117192  117194  117193  117195
  117197  117196  117198  117200  117199  117201  117203  117202  117204
  117206  117205  117207  117209  117208  117210  117212  117211  117213
  117215  117214  117216  117218  117217  117219  117221  117220  117222
  117224  117223  117225  117227  117226  117228  117230  117229  117231
  117233  117232  117234  117236  117235  117237  117239  117238  117240
  117242  117241  117243  117245  117244  117246  117248  117247  117249
  117251  117250  117252  117254  117253  117255  117257  117256  117258
  117260  117259  117261  117263  117262  117264  117266  117265  117267
  117269  117268  117270  117272  117271  117273  117275  117274  117276
  117278  117277  117279  117281  117280  117282  117284  117283  117285
  117287  117286  117288  117290  117289  117291  117293  117292  117294
  117296  117295  117297  117299  117298  117300  117302  117301  117303
  117305  117304  117306  117308  117307  117309  117311  117310  117312
  117314  117313  117315  117317  117316  117318  117320  117319  117321
  117323  117322  117324  117326  117325  117327  117329  117328  117330
  117332  117331  117333  117335  117334  117336  117338  117337  117339
  117341  117340  117342  117344  117343  117345  117347  117346  117348
  117350  117349  117351  117353  117352  117354  117356  117355  117357
  117359  117358  117360  117362  117361  117363  117365  117364  117366
  117368  117367  117369  117371  117370  117372  117374  117373  117375
  117377  117376  117378  117380  117379  117381  117383  117382  117384
  117386  117385  117387  117389  117388  117390  117392  117391  117393
  117395  117394  117396  117398  117397  117399  117401  117400  117402
  117404  117403  117405  117407  117406  117408  117410  117409  117411
  117413  117412  117414  117416  117415  117417  117419  117418  117420
  117422  117421  117423  117425  117424  117426  117428  117427  117429
  117431  117430  117432  117434  117433  117435  117437  117436  117438
  117440  117439  117441  117443  117442  117444  117446  117445  117447
  117449  117448  117450  117452  117451  117453  117455  117454  117456
  117458  117457  117459  117461  117460  117462  117464  117463  117465
  117467  117466  117468  117470  117469  117471  117473  117472  117474
  117476  117475  117477  117479  117478  117480  117482  117481  117483
  117485  117484  117486  117488  117487  117489  117491  117490  117492
  117494  117493  117495  117497  117496  117498  117500  117499  117501
  117503  117502  117504  117506  117505  117507  117509  117508  117510
  117512  117511  117513  117515  117514  117516  117518  117517  117519
  117521  117520  117522  117524  117523  117525  117527  117526  117528
  117530  117529  117531  117533  117532  117534  117536  117535  117537
  117539  117538  117540  117542  117541  117543  117545  117544  117546
  117548  117547  117549  117551  117550  117552  117554  117553  117555
  117557  117556  117558  117560  117559  117561  117563  117562  117564
  117566  117565  117567  117569  117568  117570  117572  117571  117573
  117575  117574  117576  117578  117577  117579  117581  117580  117582
  117584  117583  117585  117587  117586  117588  117590  117589  117591
  117593  117592  117594  117596  117595  117597  117599  117598  117600
  117602  117601  117603  117605  117604  117606  117608  117607  117609
  117611  117610  117612  117614  117613  117615  117617  117616  117618
  117620  117619  117621  117623  117622  117624  117626  117625  117627
  117629  117628  117630  117632  117631  117633  117635  117634  117636
  117638  117637  117639  117641  117640  117642  117644  117643  117645
  117647  117646  117648  117650  117649  117651  117653  117652  117654
  117656  117655  117657  117659  117658  117660  117662  117661  117663
  117665  117664  117666  117668  117667  117669  117671  117670  117672
  117674  117673  117675  117677  117676  117678  117680  117679  117681
  117683  117682  117684  117686  117685  117687  117689  117688  117690
  117692  117691  117693  117695  117694  117696  117698  117697  117699
  117701  117700  117702  117704  117703  117705  117707  117706  117708
  117710  117709  117711  117713  117712  117714  117716  117715  117717
  117719  117718  117720  117722  117721  117723  117725  117724  117726
  117728  117727  117729  117731  117730  117732  117734  117733  117735
  117737  117736  117738  117740  117739  117741  117743  117742  117744
  117746  117745  117747  117749  117748  117750  117752  117751  117753
  117755  117754  117756  117758  117757  117759  117761  117760  117762
  117764  117763  117765  117767  117766  117768  117770  117769  117771
  117773  117772  117774  117776  117775  117777  117779  117778  117780
  117782  117781  117783  117785  117784  117786  117788  117787  117789
  117791  117790  117792  117794  117793  117795  117797  117796  117798
  117800  117799  117801  117803  117802  117804  117806  117805  117807
  117809  117808  117810  117812  117811  117813  117815  117814  117816
  117818  117817  117819  117821  117820  117822  117824  117823  117825
  117827  117826  117828  117830  117829  117831  117833  117832  117834
  117836  117835  117837  117839  117838  117840  117842  117841  117843
  117845  117844  117846  117848  117847  117849  117851  117850  117852
  117854  117853  117855  117857  117856  117858  117860  117859  117861
  117863  117862  117864  117866  117865  117867  117869  117868  117870
  117872  117871  117873  117875  117874  117876  117878  117877  117879
  117881  117880  117882  117884  117883  117885  117887  117886  117888
  117890  117889  117891  117893  117892  117894  117896  117895  117897
  117899  117898  117900  117902  117901  117903  117905  117904  117906
  117908  117907  117909  117911  117910  117912  117914  117913  117915
  117917  117916  117918  117920  117919  117921  117923  117922  117924
  117926  117925  117927  117929  117928  117930  117932  117931  117933
  117935  117934  117936  117938  117937  117939  117941  117940  117942
  117944  117943  117945  117947  117946  117948  117950  117949  117951
  117953  117952  117954  117956  117955  117957  117959  117958  117960
  117962  117961  117963  117965  117964  117966  117968  117967  117969
  117971  117970  117972  117974  117973  117975  117977  117976  117978
  117980  117979  117981  117983  117982  117984  117986  117985  117987
  117989  117988  117990  117992  117991  117993  117995  117994  117996
  117998  117997  117999  118001  118000  118002  118004  118003  118005
  118007  118006  118008  118010  118009  118011  118013  118012  118014
  118016  118015  118017  118019  118018  118020  118022  118021  118023
  118025  118024  118026  118028  118027  118029  118031  118030  118032
  118034  118033  118035  118037  118036  118038  118040  118039  118041
  118043  118042  118044  118046  118045  118047  118049  118048  118050
  118052  118051  118053  118055  118054  118056  118058  118057  118059
  118061  118060  118062  118064  118063  118065  118067  118066  118068
  118070  118069  118071  118073  118072  118074  118076  118075  118077
  118079  118078  118080  118082  118081  118083  118085  118084  118086
  118088  118087  118089  118091  118090  118092  118094  118093  118095
  118097  118096  118098  118100  118099  118101  118103  118102  118104
  118106  118105  118107  118109  118108  118110  118112  118111  118113
  118115  118114  118116  118118  118117  118119  118121  118120  118122
  118124  118123  118125  118127  118126  118128  118130  118129  118131
  118133  118132  118134  118136  118135  118137  118139  118138  118140
  118142  118141  118143  118145  118144  118146  118148  118147  118149
  118151  118150  118152  118154  118153  118155  118157  118156  118158
  118160  118159  118161  118163  118162  118164  118166  118165  118167
  118169  118168  118170  118172  118171  118173  118175  118174  118176
  118178  118177  118179  118181  118180  118182  118184  118183  118185
  118187  118186  118188  118190  118189  118191  118193  118192  118194
  118196  118195  118197  118199  118198  118200  118202  118201  118203
  118205  118204  118206  118208  118207  118209  118211  118210  118212
  118214  118213  118215  118217  118216  118218  118220  118219  118221
  118223  118222  118224  118226  118225  118227  118229  118228  118230
  118232  118231  118233  118235  118234  118236  118238  118237  118239
  118241  118240  118242  118244  118243  118245  118247  118246  118248
  118250  118249  118251  118253  118252  118254  118256  118255  118257
  118259  118258  118260  118262  118261  118263  118265  118264  118266
  118268  118267  118269  118271  118270  118272  118274  118273  118275
  118277  118276  118278  118280  118279  118281  118283  118282  118284
  118286  118285  118287  118289  118288  118290  118292  118291  118293
  118295  118294  118296  118298  118297  118299  118301  118300  118302
  118304  118303  118305  118307  118306  118308  118310  118309  118311
  118313  118312  118314  118316  118315  118317  118319  118318  118320
  118322  118321  118323  118325  118324  118326  118328  118327  118329
  118331  118330  118332  118334  118333  118335  118337  118336  118338
  118340  118339  118341  118343  118342  118344  118346  118345  118347
  118349  118348  118350  118352  118351  118353  118355  118354  118356
  118358  118357  118359  118361  118360  118362  118364  118363  118365
  118367  118366  118368  118370  118369  118371  118373  118372  118374
  118376  118375  118377  118379  118378  118380  118382  118381  118383
  118385  118384  118386  118388  118387  118389  118391  118390  118392
  118394  118393  118395  118397  118396  118398  118400  118399  118401
  118403  118402  118404  118406  118405  118407  118409  118408  118410
  118412  118411  118413  118415  118414  118416  118418  118417  118419
  118421  118420  118422  118424  118423  118425  118427  118426  118428
  118430  118429  118431  118433  118432  118434  118436  118435  118437
  118439  118438  118440  118442  118441  118443  118445  118444  118446
  118448  118447  118449  118451  118450  118452  118454  118453  118455
  118457  118456  118458  118460  118459  118461  118463  118462  118464
  118466  118465  118467  118469  118468  118470  118472  118471  118473
  118475  118474  118476  118478  118477  118479  118481  118480  118482
  118484  118483  118485  118487  118486  118488  118490  118489  118491
  118493  118492  118494  118496  118495  118497  118499  118498  118500
  118502  118501  118503  118505  118504  118506  118508  118507  118509
  118511  118510  118512  118514  118513  118515  118517  118516  118518
  118520  118519  118521  118523  118522  118524  118526  118525  118527
  118529  118528  118530  118532  118531  118533  118535  118534  118536
  118538  118537  118539  118541  118540  118542  118544  118543  118545
  118547  118546  118548  118550  118549  118551  118553  118552  118554
  118556  118555  118557  118559  118558  118560  118562  118561  118563
  118565  118564  118566  118568  118567  118569  118571  118570  118572
  118574  118573  118575  118577  118576  118578  118580  118579  118581
  118583  118582  118584  118586  118585  118587  118589  118588  118590
  118592  118591  118593  118595  118594  118596  118598  118597  118599
  118601  118600  118602  118604  118603  118605  118607  118606  118608
  118610  118609  118611  118613  118612  118614  118616  118615  118617
  118619  118618  118620  118622  118621  118623  118625  118624  118626
  118628  118627  118629  118631  118630  118632  118634  118633  118635
  118637  118636  118638  118640  118639  118641  118643  118642  118644
  118646  118645  118647  118649  118648  118650  118652  118651  118653
  118655  118654  118656  118658  118657  118659  118661  118660  118662
  118664  118663  118665  118667  118666  118668  118670  118669  118671
  118673  118672  118674  118676  118675  118677  118679  118678  118680
  118682  118681  118683  118685  118684  118686  118688  118687  118689
  118691  118690  118692  118694  118693  118695  118697  118696  118698
  118700  118699  118701  118703  118702  118704  118706  118705  118707
  118709  118708  118710  118712  118711  118713  118715  118714  118716
  118718  118717  118719  118721  118720  118722  118724  118723  118725
  118727  118726  118728  118730  118729  118731  118733  118732  118734
  118736  118735  118737  118739  118738  118740  118742  118741  118743
  118745  118744  118746  118748  118747  118749  118751  118750  118752
  118754  118753  118755  118757  118756  118758  118760  118759  118761
  118763  118762  118764  118766  118765  118767  118769  118768  118770
  118772  118771  118773  118775  118774  118776  118778  118777  118779
  118781  118780  118782  118784  118783  118785  118787  118786  118788
  118790  118789  118791  118793  118792  118794  118796  118795  118797
  118799  118798  118800  118802  118801  118803  118805  118804  118806
  118808  118807  118809  118811  118810  118812  118814  118813  118815
  118817  118816  118818  118820  118819  118821  118823  118822  118824
  118826  118825  118827  118829  118828  118830  118832  118831  118833
  118835  118834  118836  118838  118837  118839  118841  118840  118842
  118844  118843  118845  118847  118846  118848  118850  118849  118851
  118853  118852  118854  118856  118855  118857  118859  118858  118860
  118862  118861  118863  118865  118864  118866  118868  118867  118869
  118871  118870  118872  118874  118873  118875  118877  118876  118878
  118880  118879  118881  118883  118882  118884  118886  118885  118887
  118889  118888  118890  118892  118891  118893  118895  118894  118896
  118898  118897  118899  118901  118900  118902  118904  118903  118905
  118907  118906  118908  118910  118909  118911  118913  118912  118914
  118916  118915  118917  118919  118918  118920  118922  118921  118923
  118925  118924  118926  118928  118927  118929  118931  118930  118932
  118934  118933  118935  118937  118936  118938  118940  118939  118941
  118943  118942  118944  118946  118945  118947  118949  118948  118950
  118952  118951  118953  118955  118954  118956  118958  118957  118959
  118961  118960  118962  118964  118963  118965  118967  118966  118968
  118970  118969  118971  118973  118972  118974  118976  118975  118977
  118979  118978  118980  118982  118981  118983  118985  118984  118986
  118988  118987  118989  118991  118990  118992  118994  118993  118995
  118997  118996  118998  119000  118999  119001  119003  119002  119004
  119006  119005  119007  119009  119008  119010  119012  119011  119013
  119015  119014  119016  119018  119017  119019  119021  119020  119022
  119024  119023  119025  119027  119026  119028  119030  119029  119031
  119033  119032  119034  119036  119035  119037  119039  119038  119040
  119042  119041  119043  119045  119044  119046  119048  119047  119049
  119051  119050  119052  119054  119053  119055  119057  119056  119058
  119060  119059  119061  119063  119062  119064  119066  119065  119067
  119069  119068  119070  119072  119071  119073  119075  119074  119076
  119078  119077  119079  119081  119080  119082  119084  119083  119085
  119087  119086  119088  119090  119089  119091  119093  119092  119094
  119096  119095  119097  119099  119098  119100  119102  119101  119103
  119105  119104  119106  119108  119107  119109  119111  119110  119112
  119114  119113  119115  119117  119116  119118  119120  119119  119121
  119123  119122  119124  119126  119125  119127  119129  119128  119130
  119132  119131  119133  119135  119134  119136  119138  119137  119139
  119141  119140  119142  119144  119143  119145  119147  119146  119148
  119150  119149  119151  119153  119152  119154  119156  119155  119157
  119159  119158  119160  119162  119161  119163  119165  119164  119166
  119168  119167  119169  119171  119170  119172  119174  119173  119175
  119177  119176  119178  119180  119179  119181  119183  119182  119184
  119186  119185  119187  119189  119188  119190  119192  119191  119193
  119195  119194  119196  119198  119197  119199  119201  119200  119202
  119204  119203  119205  119207  119206  119208  119210  119209  119211
  119213  119212  119214  119216  119215  119217  119219  119218  119220
  119222  119221  119223  119225  119224  119226  119228  119227  119229
  119231  119230  119232  119234  119233  119235  119237  119236  119238
  119240  119239  119241  119243  119242  119244  119246  119245  119247
  119249  119248  119250  119252  119251  119253  119255  119254  119256
  119258  119257  119259  119261  119260  119262  119264  119263  119265
  119267  119266  119268  119270  119269  119271  119273  119272  119274
  119276  119275  119277  119279  119278  119280  119282  119281  119283
  119285  119284  119286  119288  119287  119289  119291  119290  119292
  119294  119293  119295  119297  119296  119298  119300  119299  119301
  119303  119302  119304  119306  119305  119307  119309  119308  119310
  119312  119311  119313  119315  119314  119316  119318  119317  119319
  119321  119320  119322  119324  119323  119325  119327  119326  119328
  119330  119329  119331  119333  119332  119334  119336  119335  119337
  119339  119338  119340  119342  119341  119343  119345  119344  119346
  119348  119347  119349  119351  119350  119352  119354  119353  119355
  119357  119356  119358  119360  119359  119361  119363  119362  119364
  119366  119365  119367  119369  119368  119370  119372  119371  119373
  119375  119374  119376  119378  119377  119379  119381  119380  119382
  119384  119383  119385  119387  119386  119388  119390  119389  119391
  119393  119392  119394  119396  119395  119397  119399  119398  119400
  119402  119401  119403  119405  119404  119406  119408  119407  119409
  119411  119410  119412  119414  119413  119415  119417  119416  119418
  119420  119419  119421  119423  119422  119424  119426  119425  119427
  119429  119428  119430  119432  119431  119433  119435  119434  119436
  119438  119437  119439  119441  119440  119442  119444  119443  119445
  119447  119446  119448  119450  119449  119451  119453  119452  119454
  119456  119455  119457  119459  119458  119460  119462  119461  119463
  119465  119464  119466  119468  119467  119469  119471  119470  119472
  119474  119473  119475  119477  119476  119478  119480  119479  119481
  119483  119482  119484  119486  119485  119487  119489  119488  119490
  119492  119491  119493  119495  119494  119496  119498  119497  119499
  119501  119500  119502  119504  119503  119505  119507  119506  119508
  119510  119509  119511  119513  119512  119514  119516  119515  119517
  119519  119518  119520  119522  119521  119523  119525  119524  119526
  119528  119527  119529  119531  119530  119532  119534  119533  119535
  119537  119536  119538  119540  119539  119541  119543  119542  119544
  119546  119545  119547  119549  119548  119550  119552  119551  119553
  119555  119554  119556  119558  119557  119559  119561  119560  119562
  119564  119563  119565  119567  119566  119568  119570  119569  119571
  119573  119572  119574  119576  119575  119577  119579  119578  119580
  119582  119581  119583  119585  119584  119586  119588  119587  119589
  119591  119590  119592  119594  119593  119595  119597  119596  119598
  119600  119599  119601  119603  119602  119604  119606  119605  119607
  119609  119608  119610  119612  119611  119613  119615  119614  119616
  119618  119617  119619  119621  119620  119622  119624  119623  119625
  119627  119626  119628  119630  119629  119631  119633  119632  119634
  119636  119635  119637  119639  119638  119640  119642  119641  119643
  119645  119644  119646  119648  119647  119649  119651  119650  119652
  119654  119653  119655  119657  119656  119658  119660  119659  119661
  119663  119662  119664  119666  119665  119667  119669  119668  119670
  119672  119671  119673  119675  119674  119676  119678  119677  119679
  119681  119680  119682  119684  119683  119685  119687  119686  119688
  119690  119689  119691  119693  119692  119694  119696  119695  119697
  119699  119698  119700  119702  119701  119703  119705  119704  119706
  119708  119707  119709  119711  119710  119712  119714  119713  119715
  119717  119716  119718  119720  119719  119721  119723  119722  119724
  119726  119725  119727  119729  119728  119730  119732  119731  119733
  119735  119734  119736  119738  119737  119739  119741  119740  119742
  119744  119743  119745  119747  119746  119748  119750  119749  119751
  119753  119752  119754  119756  119755  119757  119759  119758  119760
  119762  119761  119763  119765  119764  119766  119768  119767  119769
  119771  119770  119772  119774  119773  119775  119777  119776  119778
  119780  119779  119781  119783  119782  119784  119786  119785  119787
  119789  119788  119790  119792  119791  119793  119795  119794  119796
  119798  119797  119799  119801  119800  119802  119804  119803  119805
  119807  119806  119808  119810  119809  119811  119813  119812  119814
  119816  119815  119817  119819  119818  119820  119822  119821  119823
  119825  119824  119826  119828  119827  119829  119831  119830  119832
  119834  119833  119835  119837  119836  119838  119840  119839  119841
  119843  119842  119844  119846  119845  119847  119849  119848  119850
  119852  119851  119853  119855  119854  119856  119858  119857  119859
  119861  119860  119862  119864  119863  119865  119867  119866  119868
  119870  119869  119871  119873  119872  119874  119876  119875  119877
  119879  119878  119880  119882  119881  119883  119885  119884  119886
  119888  119887  119889  119891  119890  119892  119894  119893  119895
  119897  119896  119898  119900  119899  119901  119903  119902  119904
  119906  119905  119907  119909  119908  119910  119912  119911  119913
  119915  119914  119916  119918  119917  119919  119921  119920  119922
  119924  119923  119925  119927  119926  119928  119930  119929  119931
  119933  119932  119934  119936  119935  119937  119939  119938  119940
  119942  119941  119943  119945  119944  119946  119948  119947  119949
  119951  119950  119952  119954  119953  119955  119957  119956  119958
  119960  119959  119961  119963  119962  119964  119966  119965  119967
  119969  119968  119970  119972  119971  119973  119975  119974  119976
  119978  119977  119979  119981  119980  119982  119984  119983  119985
  119987  119986  119988  119990  119989  119991  119993  119992  119994
  119996  119995  119997  119999  119998  120000  120002  120001  120003
  120005  120004  120006  120008  120007  120009  120011  120010  120012
  120014  120013  120015  120017  120016  120018  120020  120019  120021
  120023  120022  120024  120026  120025  120027  120029  120028  120030
  120032  120031  120033  120035  120034  120036  120038  120037  120039
  120041  120040  120042  120044  120043  120045  120047  120046  120048
  120050  120049  120051  120053  120052  120054  120056  120055  120057
  120059  120058  120060  120062  120061  120063  120065  120064  120066
  120068  120067  120069  120071  120070  120072  120074  120073  120075
  120077  120076  120078  120080  120079  120081  120083  120082  120084
  120086  120085  120087  120089  120088  120090  120092  120091  120093
  120095  120094  120096  120098  120097  120099  120101  120100  120102
  120104  120103  120105  120107  120106  120108  120110  120109  120111
  120113  120112  120114  120116  120115  120117  120119  120118  120120
  120122  120121  120123  120125  120124  120126  120128  120127  120129
  120131  120130  120132  120134  120133  120135  120137  120136  120138
  120140  120139  120141  120143  120142  120144  120146  120145  120147
  120149  120148  120150  120152  120151  120153  120155  120154  120156
  120158  120157  120159  120161  120160  120162  120164  120163  120165
  120167  120166  120168  120170  120169  120171  120173  120172  120174
  120176  120175  120177  120179  120178  120180  120182  120181  120183
  120185  120184  120186  120188  120187  120189  120191  120190  120192
  120194  120193  120195  120197  120196  120198  120200  120199  120201
  120203  120202  120204  120206  120205  120207  120209  120208  120210
  120212  120211  120213  120215  120214  120216  120218  120217  120219
  120221  120220  120222  120224  120223  120225  120227  120226  120228
  120230  120229  120231  120233  120232  120234  120236  120235  120237
  120239  120238  120240  120242  120241  120243  120245  120244  120246
  120248  120247  120249  120251  120250  120252  120254  120253  120255
  120257  120256  120258  120260  120259  120261  120263  120262  120264
  120266  120265  120267  120269  120268  120270  120272  120271  120273
  120275  120274  120276  120278  120277  120279  120281  120280  120282
  120284  120283  120285  120287  120286  120288  120290  120289  120291
  120293  120292  120294  120296  120295  120297  120299  120298  120300
  120302  120301  120303  120305  120304  120306  120308  120307  120309
  120311  120310  120312  120314  120313  120315  120317  120316  120318
  120320  120319  120321  120323  120322  120324  120326  120325  120327
  120329  120328  120330  120332  120331  120333  120335  120334  120336
  120338  120337  120339  120341  120340  120342  120344  120343  120345
  120347  120346  120348  120350  120349  120351  120353  120352  120354
  120356  120355  120357  120359  120358  120360  120362  120361  120363
  120365  120364  120366  120368  120367  120369  120371  120370  120372
  120374  120373  120375  120377  120376  120378  120380  120379  120381
  120383  120382  120384  120386  120385  120387  120389  120388  120390
  120392  120391  120393  120395  120394  120396  120398  120397  120399
  120401  120400  120402  120404  120403  120405  120407  120406  120408
  120410  120409  120411  120413  120412  120414  120416  120415  120417
  120419  120418  120420  120422  120421  120423  120425  120424  120426
  120428  120427  120429  120431  120430  120432  120434  120433  120435
  120437  120436  120438  120440  120439  120441  120443  120442  120444
  120446  120445  120447  120449  120448  120450  120452  120451  120453
  120455  120454  120456  120458  120457  120459  120461  120460  120462
  120464  120463  120465  120467  120466  120468  120470  120469  120471
  120473  120472  120474  120476  120475  120477  120479  120478  120480
  120482  120481  120483  120485  120484  120486  120488  120487  120489
  120491  120490  120492  120494  120493  120495  120497  120496  120498
  120500  120499  120501  120503  120502  120504  120506  120505  120507
  120509  120508  120510  120512  120511  120513  120515  120514  120516
  120518  120517  120519  120521  120520  120522  120524  120523  120525
  120527  120526  120528  120530  120529  120531  120533  120532  120534
  120536  120535  120537  120539  120538  120540  120542  120541  120543
  120545  120544  120546  120548  120547  120549  120551  120550  120552
  120554  120553  120555  120557  120556  120558  120560  120559  120561
  120563  120562  120564  120566  120565  120567  120569  120568  120570
  120572  120571  120573  120575  120574  120576  120578  120577  120579
  120581  120580  120582  120584  120583  120585  120587  120586  120588
  120590  120589  120591  120593  120592  120594  120596  120595  120597
  120599  120598  120600  120602  120601  120603  120605  120604  120606
  120608  120607  120609  120611  120610  120612  120614  120613  120615
  120617  120616  120618  120620  120619  120621  120623  120622  120624
  120626  120625  120627  120629  120628  120630  120632  120631  120633
  120635  120634  120636  120638  120637  120639  120641  120640  120642
  120644  120643  120645  120647  120646  120648  120650  120649  120651
  120653  120652  120654  120656  120655  120657  120659  120658  120660
  120662  120661  120663  120665  120664  120666  120668  120667  120669
  120671  120670  120672  120674  120673  120675  120677  120676  120678
  120680  120679  120681  120683  120682  120684  120686  120685  120687
  120689  120688  120690  120692  120691  120693  120695  120694  120696
  120698  120697  120699  120701  120700  120702  120704  120703  120705
  120707  120706  120708  120710  120709  120711  120713  120712  120714
  120716  120715  120717  120719  120718  120720  120722  120721  120723
  120725  120724  120726  120728  120727  120729  120731  120730  120732
  120734  120733  120735  120737  120736  120738  120740  120739  120741
  120743  120742  120744  120746  120745  120747  120749  120748  120750
  120752  120751  120753  120755  120754  120756  120758  120757  120759
  120761  120760  120762  120764  120763  120765  120767  120766  120768
  120770  120769  120771  120773  120772  120774  120776  120775  120777
  120779  120778  120780  120782  120781  120783  120785  120784  120786
  120788  120787  120789  120791  120790  120792  120794  120793  120795
  120797  120796  120798  120800  120799  120801  120803  120802  120804
  120806  120805  120807  120809  120808  120810  120812  120811  120813
  120815  120814  120816  120818  120817  120819  120821  120820  120822
  120824  120823  120825  120827  120826  120828  120830  120829  120831
  120833  120832  120834  120836  120835  120837  120839  120838  120840
  120842  120841  120843  120845  120844  120846  120848  120847  120849
  120851  120850  120852  120854  120853  120855  120857  120856  120858
  120860  120859  120861  120863  120862  120864  120866  120865  120867
  120869  120868  120870  120872  120871  120873  120875  120874  120876
  120878  120877  120879  120881  120880  120882  120884  120883  120885
  120887  120886  120888  120890  120889  120891  120893  120892  120894
  120896  120895  120897  120899  120898  120900  120902  120901  120903
  120905  120904  120906  120908  120907  120909  120911  120910  120912
  120914  120913  120915  120917  120916  120918  120920  120919  120921
  120923  120922  120924  120926  120925  120927  120929  120928  120930
  120932  120931  120933  120935  120934  120936  120938  120937  120939
  120941  120940  120942  120944  120943  120945  120947  120946  120948
  120950  120949  120951  120953  120952  120954  120956  120955  120957
  120959  120958  120960  120962  120961  120963  120965  120964  120966
  120968  120967  120969  120971  120970  120972  120974  120973  120975
  120977  120976  120978  120980  120979  120981  120983  120982  120984
  120986  120985  120987  120989  120988  120990  120992  120991  120993
  120995  120994  120996  120998  120997  120999  121001  121000  121002
  121004  121003  121005  121007  121006  121008  121010  121009  121011
  121013  121012  121014  121016  121015  121017  121019  121018  121020
  121022  121021  121023  121025  121024  121026  121028  121027  121029
  121031  121030  121032  121034  121033  121035  121037  121036  121038
  121040  121039  121041  121043  121042  121044  121046  121045  121047
  121049  121048  121050  121052  121051  121053  121055  121054  121056
  121058  121057  121059  121061  121060  121062  121064  121063  121065
  121067  121066  121068  121070  121069  121071  121073  121072  121074
  121076  121075  121077  121079  121078  121080  121082  121081  121083
  121085  121084  121086  121088  121087  121089  121091  121090  121092
  121094  121093  121095  121097  121096  121098  121100  121099  121101
  121103  121102  121104  121106  121105  121107  121109  121108  121110
  121112  121111  121113  121115  121114  121116  121118  121117  121119
  121121  121120  121122  121124  121123  121125  121127  121126  121128
  121130  121129  121131  121133  121132  121134  121136  121135  121137
  121139  121138  121140  121142  121141  121143  121145  121144  121146
  121148  121147  121149  121151  121150  121152  121154  121153  121155
  121157  121156  121158  121160  121159  121161  121163  121162  121164
  121166  121165  121167  121169  121168  121170  121172  121171  121173
  121175  121174  121176  121178  121177  121179  121181  121180  121182
  121184  121183  121185  121187  121186  121188  121190  121189  121191
  121193  121192  121194  121196  121195  121197  121199  121198  121200
  121202  121201  121203  121205  121204  121206  121208  121207  121209
  121211  121210  121212  121214  121213  121215  121217  121216  121218
  121220  121219  121221  121223  121222  121224  121226  121225  121227
  121229  121228  121230  121232  121231  121233  121235  121234  121236
  121238  121237  121239  121241  121240  121242  121244  121243  121245
  121247  121246  121248  121250  121249  121251  121253  121252  121254
  121256  121255  121257  121259  121258  121260  121262  121261  121263
  121265  121264  121266  121268  121267  121269  121271  121270  121272
  121274  121273  121275  121277  121276  121278  121280  121279  121281
  121283  121282  121284  121286  121285  121287  121289  121288  121290
  121292  121291  121293  121295  121294  121296  121298  121297  121299
  121301  121300  121302  121304  121303  121305  121307  121306  121308
  121310  121309  121311  121313  121312  121314  121316  121315  121317
  121319  121318  121320  121322  121321  121323  121325  121324  121326
  121328  121327  121329  121331  121330  121332  121334  121333  121335
  121337  121336  121338  121340  121339  121341  121343  121342  121344
  121346  121345  121347  121349  121348  121350  121352  121351  121353
  121355  121354  121356  121358  121357  121359  121361  121360  121362
  121364  121363  121365  121367  121366  121368  121370  121369  121371
  121373  121372  121374  121376  121375  121377  121379  121378  121380
  121382  121381  121383  121385  121384  121386  121388  121387  121389
  121391  121390  121392  121394  121393  121395  121397  121396  121398
  121400  121399  121401  121403  121402  121404  121406  121405  121407
  121409  121408  121410  121412  121411  121413  121415  121414  121416
  121418  121417  121419  121421  121420  121422  121424  121423  121425
  121427  121426  121428  121430  121429  121431  121433  121432  121434
  121436  121435  121437  121439  121438  121440  121442  121441  121443
  121445  121444  121446  121448  121447  121449  121451  121450  121452
  121454  121453  121455  121457  121456  121458  121460  121459  121461
  121463  121462  121464  121466  121465  121467  121469  121468  121470
  121472  121471  121473  121475  121474  121476  121478  121477  121479
  121481  121480  121482  121484  121483  121485  121487  121486  121488
  121490  121489  121491  121493  121492  121494  121496  121495  121497
  121499  121498  121500  121502  121501  121503  121505  121504  121506
  121508  121507  121509  121511  121510  121512  121514  121513  121515
  121517  121516  121518  121520  121519  121521  121523  121522  121524
  121526  121525  121527  121529  121528  121530  121532  121531  121533
  121535  121534  121536  121538  121537  121539  121541  121540  121542
  121544  121543  121545  121547  121546  121548  121550  121549  121551
  121553  121552  121554  121556  121555  121557  121559  121558  121560
  121562  121561  121563  121565  121564  121566  121568  121567  121569
  121571  121570  121572  121574  121573  121575  121577  121576  121578
  121580  121579  121581  121583  121582  121584  121586  121585  121587
  121589  121588  121590  121592  121591  121593  121595  121594  121596
  121598  121597  121599  121601  121600  121602  121604  121603  121605
  121607  121606  121608  121610  121609  121611  121613  121612  121614
  121616  121615  121617  121619  121618  121620  121622  121621  121623
  121625  121624  121626  121628  121627  121629  121631  121630  121632
  121634  121633  121635  121637  121636  121638  121640  121639  121641
  121643  121642  121644  121646  121645  121647  121649  121648  121650
  121652  121651  121653  121655  121654  121656  121658  121657  121659
  121661  121660  121662  121664  121663  121665  121667  121666  121668
  121670  121669  121671  121673  121672  121674  121676  121675  121677
  121679  121678  121680  121682  121681  121683  121685  121684  121686
  121688  121687  121689  121691  121690  121692  121694  121693  121695
  121697  121696  121698  121700  121699  121701  121703  121702  121704
  121706  121705  121707  121709  121708  121710  121712  121711  121713
  121715  121714  121716  121718  121717  121719  121721  121720  121722
  121724  121723  121725  121727  121726  121728  121730  121729  121731
  121733  121732  121734  121736  121735  121737  121739  121738  121740
  121742  121741  121743  121745  121744  121746  121748  121747  121749
  121751  121750  121752  121754  121753  121755  121757  121756  121758
  121760  121759  121761  121763  121762  121764  121766  121765  121767
  121769  121768  121770  121772  121771  121773  121775  121774  121776
  121778  121777  121779  121781  121780  121782  121784  121783  121785
  121787  121786  121788  121790  121789  121791  121793  121792  121794
  121796  121795  121797  121799  121798  121800  121802  121801  121803
  121805  121804  121806  121808  121807  121809  121811  121810  121812
  121814  121813  121815  121817  121816  121818  121820  121819  121821
  121823  121822  121824  121826  121825  121827  121829  121828  121830
  121832  121831  121833  121835  121834  121836  121838  121837  121839
  121841  121840  121842  121844  121843  121845  121847  121846  121848
  121850  121849  121851  121853  121852  121854  121856  121855  121857
  121859  121858  121860  121862  121861  121863  121865  121864  121866
  121868  121867  121869  121871  121870  121872  121874  121873  121875
  121877  121876  121878  121880  121879  121881  121883  121882  121884
  121886  121885  121887  121889  121888  121890  121892  121891  121893
  121895  121894  121896  121898  121897  121899  121901  121900  121902
  121904  121903  121905  121907  121906  121908  121910  121909  121911
  121913  121912  121914  121916  121915  121917  121919  121918  121920
  121922  121921  121923  121925  121924  121926  121928  121927  121929
  121931  121930  121932  121934  121933  121935  121937  121936  121938
  121940  121939  121941  121943  121942  121944  121946  121945  121947
  121949  121948  121950  121952  121951  121953  121955  121954  121956
  121958  121957  121959  121961  121960  121962  121964  121963  121965
  121967  121966  121968  121970  121969  121971  121973  121972  121974
  121976  121975  121977  121979  121978  121980  121982  121981  121983
  121985  121984  121986  121988  121987  121989  121991  121990  121992
  121994  121993  121995  121997  121996  121998  122000  121999  122001
  122003  122002  122004  122006  122005  122007  122009  122008  122010
  122012  122011  122013  122015  122014  122016  122018  122017  122019
  122021  122020  122022  122024  122023  122025  122027  122026  122028
  122030  122029  122031  122033  122032  122034  122036  122035  122037
  122039  122038  122040  122042  122041  122043  122045  122044  122046
  122048  122047  122049  122051  122050  122052  122054  122053  122055
  122057  122056  122058  122060  122059  122061  122063  122062  122064
  122066  122065  122067  122069  122068  122070  122072  122071  122073
  122075  122074  122076  122078  122077  122079  122081  122080  122082
  122084  122083  122085  122087  122086  122088  122090  122089  122091
  122093  122092  122094  122096  122095  122097  122099  122098  122100
  122102  122101  122103  122105  122104  122106  122108  122107  122109
  122111  122110  122112  122114  122113  122115  122117  122116  122118
  122120  122119  122121  122123  122122  122124  122126  122125  122127
  122129  122128  122130  122132  122131  122133  122135  122134  122136
  122138  122137  122139  122141  122140  122142  122144  122143  122145
  122147  122146  122148  122150  122149  122151  122153  122152  122154
  122156  122155  122157  122159  122158  122160  122162  122161  122163
  122165  122164  122166  122168  122167  122169  122171  122170  122172
  122174  122173  122175  122177  122176  122178  122180  122179  122181
  122183  122182  122184  122186  122185  122187  122189  122188  122190
  122192  122191  122193  122195  122194  122196  122198  122197  122199
  122201  122200  122202  122204  122203  122205  122207  122206  122208
  122210  122209  122211  122213  122212  122214  122216  122215  122217
  122219  122218  122220  122222  122221  122223  122225  122224  122226
  122228  122227  122229  122231  122230  122232  122234  122233  122235
  122237  122236  122238  122240  122239  122241  122243  122242  122244
  122246  122245  122247  122249  122248  122250  122252  122251  122253
  122255  122254  122256  122258  122257  122259  122261  122260  122262
  122264  122263  122265  122267  122266  122268  122270  122269  122271
  122273  122272  122274  122276  122275  122277  122279  122278  122280
  122282  122281  122283  122285  122284  122286  122288  122287  122289
  122291  122290  122292  122294  122293  122295  122297  122296  122298
  122300  122299  122301  122303  122302  122304  122306  122305  122307
  122309  122308  122310  122312  122311  122313  122315  122314  122316
  122318  122317  122319  122321  122320  122322  122324  122323  122325
  122327  122326  122328  122330  122329  122331  122333  122332  122334
  122336  122335  122337  122339  122338  122340  122342  122341  122343
  122345  122344  122346  122348  122347  122349  122351  122350  122352
  122354  122353  122355  122357  122356  122358  122360  122359  122361
  122363  122362  122364  122366  122365  122367  122369  122368  122370
  122372  122371  122373  122375  122374  122376  122378  122377  122379
  122381  122380  122382  122384  122383  122385  122387  122386  122388
  122390  122389  122391  122393  122392  122394  122396  122395  122397
  122399  122398  122400  122402  122401  122403  122405  122404  122406
  122408  122407  122409  122411  122410  122412  122414  122413  122415
  122417  122416  122418  122420  122419  122421  122423  122422  122424
  122426  122425  122427  122429  122428  122430  122432  122431  122433
  122435  122434  122436  122438  122437  122439  122441  122440  122442
  122444  122443  122445  122447  122446  122448  122450  122449  122451
  122453  122452  122454  122456  122455  122457  122459  122458  122460
  122462  122461  122463  122465  122464  122466  122468  122467  122469
  122471  122470  122472  122474  122473  122475  122477  122476  122478
  122480  122479  122481  122483  122482  122484  122486  122485  122487
  122489  122488  122490  122492  122491  122493  122495  122494  122496
  122498  122497  122499  122501  122500  122502  122504  122503  122505
  122507  122506  122508  122510  122509  122511  122513  122512  122514
  122516  122515  122517  122519  122518  122520  122522  122521  122523
  122525  122524  122526  122528  122527  122529  122531  122530  122532
  122534  122533  122535  122537  122536  122538  122540  122539  122541
  122543  122542  122544  122546  122545  122547  122549  122548  122550
  122552  122551  122553  122555  122554  122556  122558  122557  122559
  122561  122560  122562  122564  122563  122565  122567  122566  122568
  122570  122569  122571  122573  122572  122574  122576  122575  122577
  122579  122578  122580  122582  122581  122583  122585  122584  122586
  122588  122587  122589  122591  122590  122592  122594  122593  122595
  122597  122596  122598  122600  122599  122601  122603  122602  122604
  122606  122605  122607  122609  122608  122610  122612  122611  122613
  122615  122614  122616  122618  122617  122619  122621  122620  122622
  122624  122623  122625  122627  122626  122628  122630  122629  122631
  122633  122632  122634  122636  122635  122637  122639  122638  122640
  122642  122641  122643  122645  122644  122646  122648  122647  122649
  122651  122650  122652  122654  122653  122655  122657  122656  122658
  122660  122659  122661  122663  122662  122664  122666  122665  122667
  122669  122668  122670  122672  122671  122673  122675  122674  122676
  122678  122677  122679  122681  122680  122682  122684  122683  122685
  122687  122686  122688  122690  122689  122691  122693  122692  122694
  122696  122695  122697  122699  122698  122700  122702  122701  122703
  122705  122704  122706  122708  122707  122709  122711  122710  122712
  122714  122713  122715  122717  122716  122718  122720  122719  122721
  122723  122722  122724  122726  122725  122727  122729  122728  122730
  122732  122731  122733  122735  122734  122736  122738  122737  122739
  122741  122740  122742  122744  122743  122745  122747  122746  122748
  122750  122749  122751  122753  122752  122754  122756  122755  122757
  122759  122758  122760  122762  122761  122763  122765  122764  122766
  122768  122767  122769  122771  122770  122772  122774  122773  122775
  122777  122776  122778  122780  122779  122781  122783  122782  122784
  122786  122785  122787  122789  122788  122790  122792  122791  122793
  122795  122794  122796  122798  122797  122799  122801  122800  122802
  122804  122803  122805  122807  122806  122808  122810  122809  122811
  122813  122812  122814  122816  122815  122817  122819  122818  122820
  122822  122821  122823  122825  122824  122826  122828  122827  122829
  122831  122830  122832  122834  122833  122835  122837  122836  122838
  122840  122839  122841  122843  122842  122844  122846  122845  122847
  122849  122848  122850  122852  122851  122853  122855  122854  122856
  122858  122857  122859  122861  122860  122862  122864  122863  122865
  122867  122866  122868  122870  122869  122871  122873  122872  122874
  122876  122875  122877  122879  122878  122880  122882  122881  122883
  122885  122884  122886  122888  122887  122889  122891  122890  122892
  122894  122893  122895  122897  122896  122898  122900  122899  122901
  122903  122902  122904  122906  122905  122907  122909  122908  122910
  122912  122911  122913  122915  122914  122916  122918  122917  122919
  122921  122920  122922  122924  122923  122925  122927  122926  122928
  122930  122929  122931  122933  122932  122934  122936  122935  122937
  122939  122938  122940  122942  122941  122943  122945  122944  122946
  122948  122947  122949  122951  122950  122952  122954  122953  122955
  122957  122956  122958  122960  122959  122961  122963  122962  122964
  122966  122965  122967  122969  122968  122970  122972  122971  122973
  122975  122974  122976  122978  122977  122979  122981  122980  122982
  122984  122983  122985  122987  122986  122988  122990  122989  122991
  122993  122992  122994  122996  122995  122997  122999  122998  123000
  123002  123001  123003  123005  123004  123006  123008  123007  123009
  123011  123010  123012  123014  123013  123015  123017  123016  123018
  123020  123019  123021  123023  123022  123024  123026  123025  123027
  123029  123028  123030  123032  123031  123033  123035  123034  123036
  123038  123037  123039  123041  123040  123042  123044  123043  123045
  123047  123046  123048  123050  123049  123051  123053  123052  123054
  123056  123055  123057  123059  123058  123060  123062  123061  123063
  123065  123064  123066  123068  123067  123069  123071  123070  123072
  123074  123073  123075  123077  123076  123078  123080  123079  123081
  123083  123082  123084  123086  123085  123087  123089  123088  123090
  123092  123091  123093  123095  123094  123096  123098  123097  123099
  123101  123100  123102  123104  123103  123105  123107  123106  123108
  123110  123109  123111  123113  123112  123114  123116  123115  123117
  123119  123118  123120  123122  123121  123123  123125  123124  123126
  123128  123127  123129  123131  123130  123132  123134  123133  123135
  123137  123136  123138  123140  123139  123141  123143  123142  123144
  123146  123145  123147  123149  123148  123150  123152  123151  123153
  123155  123154  123156  123158  123157  123159  123161  123160  123162
  123164  123163  123165  123167  123166  123168  123170  123169  123171
  123173  123172  123174  123176  123175  123177  123179  123178  123180
  123182  123181  123183  123185  123184  123186  123188  123187  123189
  123191  123190  123192  123194  123193  123195  123197  123196  123198
  123200  123199  123201  123203  123202  123204  123206  123205  123207
  123209  123208  123210  123212  123211  123213  123215  123214  123216
  123218  123217  123219  123221  123220  123222  123224  123223  123225
  123227  123226  123228  123230  123229  123231  123233  123232  123234
  123236  123235  123237  123239  123238  123240  123242  123241  123243
  123245  123244  123246  123248  123247  123249  123251  123250  123252
  123254  123253  123255  123257  123256  123258  123260  123259  123261
  123263  123262  123264  123266  123265  123267  123269  123268  123270
  123272  123271  123273  123275  123274  123276  123278  123277  123279
  123281  123280  123282  123284  123283  123285  123287  123286  123288
  123290  123289  123291  123293  123292  123294  123296  123295  123297
  123299  123298  123300  123302  123301  123303  123305  123304  123306
  123308  123307  123309  123311  123310  123312  123314  123313  123315
  123317  123316  123318  123320  123319  123321  123323  123322  123324
  123326  123325  123327  123329  123328  123330  123332  123331  123333
  123335  123334  123336  123338  123337  123339  123341  123340  123342
  123344  123343  123345  123347  123346  123348  123350  123349  123351
  123353  123352  123354  123356  123355  123357  123359  123358  123360
  123362  123361  123363  123365  123364  123366  123368  123367  123369
  123371  123370  123372  123374  123373  123375  123377  123376  123378
  123380  123379  123381  123383  123382  123384  123386  123385  123387
  123389  123388  123390  123392  123391  123393  123395  123394  123396
  123398  123397  123399  123401  123400  123402  123404  123403  123405
  123407  123406  123408  123410  123409  123411  123413  123412  123414
  123416  123415  123417  123419  123418  123420  123422  123421  123423
  123425  123424  123426  123428  123427  123429  123431  123430  123432
  123434  123433  123435  123437  123436  123438  123440  123439  123441
  123443  123442  123444  123446  123445  123447  123449  123448  123450
  123452  123451  123453  123455  123454  123456  123458  123457  123459
  123461  123460  123462  123464  123463  123465  123467  123466  123468
  123470  123469  123471  123473  123472  123474  123476  123475  123477
  123479  123478  123480  123482  123481  123483  123485  123484  123486
  123488  123487  123489  123491  123490  123492  123494  123493  123495
  123497  123496  123498  123500  123499  123501  123503  123502  123504
  123506  123505  123507  123509  123508  123510  123512  123511  123513
  123515  123514  123516  123518  123517  123519  123521  123520  123522
  123524  123523  123525  123527  123526  123528  123530  123529  123531
  123533  123532  123534  123536  123535  123537  123539  123538  123540
  123542  123541  123543  123545  123544  123546  123548  123547  123549
  123551  123550  123552  123554  123553  123555  123557  123556  123558
  123560  123559  123561  123563  123562  123564  123566  123565  123567
  123569  123568  123570  123572  123571  123573  123575  123574  123576
  123578  123577  123579  123581  123580  123582  123584  123583  123585
  123587  123586  123588  123590  123589  123591  123593  123592  123594
  123596  123595  123597  123599  123598  123600  123602  123601  123603
  123605  123604  123606  123608  123607  123609  123611  123610  123612
  123614  123613  123615  123617  123616  123618  123620  123619  123621
  123623  123622  123624  123626  123625  123627  123629  123628  123630
  123632  123631  123633  123635  123634  123636  123638  123637  123639
  123641  123640  123642  123644  123643  123645  123647  123646  123648
  123650  123649  123651  123653  123652  123654  123656  123655  123657
  123659  123658  123660  123662  123661  123663  123665  123664  123666
  123668  123667  123669  123671  123670  123672  123674  123673  123675
  123677  123676  123678  123680  123679  123681  123683  123682  123684
  123686  123685  123687  123689  123688  123690  123692  123691  123693
  123695  123694  123696  123698  123697  123699  123701  123700  123702
  123704  123703  123705  123707  123706  123708  123710  123709  123711
  123713  123712  123714  123716  123715  123717  123719  123718  123720
  123722  123721  123723  123725  123724  123726  123728  123727  123729
  123731  123730  123732  123734  123733  123735  123737  123736  123738
  123740  123739  123741  123743  123742  123744  123746  123745  123747
  123749  123748  123750  123752  123751  123753  123755  123754  123756
  123758  123757  123759  123761  123760  123762  123764  123763  123765
  123767  123766  123768  123770  123769  123771  123773  123772  123774
  123776  123775  123777  123779  123778  123780  123782  123781  123783
  123785  123784  123786  123788  123787  123789  123791  123790  123792
  123794  123793  123795  123797  123796  123798  123800  123799  123801
  123803  123802  123804  123806  123805  123807  123809  123808  123810
  123812  123811  123813  123815  123814  123816  123818  123817  123819
  123821  123820  123822  123824  123823  123825  123827  123826  123828
  123830  123829  123831  123833  123832  123834  123836  123835  123837
  123839  123838  123840  123842  123841  123843  123845  123844  123846
  123848  123847  123849  123851  123850  123852  123854  123853  123855
  123857  123856  123858  123860  123859  123861  123863  123862  123864
  123866  123865  123867  123869  123868  123870  123872  123871  123873
  123875  123874  123876  123878  123877  123879  123881  123880  123882
  123884  123883  123885  123887  123886  123888  123890  123889  123891
  123893  123892  123894  123896  123895  123897  123899  123898  123900
  123902  123901  123903  123905  123904  123906  123908  123907  123909
  123911  123910  123912  123914  123913  123915  123917  123916  123918
  123920  123919  123921  123923  123922  123924  123926  123925  123927
  123929  123928  123930  123932  123931  123933  123935  123934  123936
  123938  123937  123939  123941  123940  123942  123944  123943  123945
  123947  123946  123948  123950  123949  123951  123953  123952  123954
  123956  123955  123957  123959  123958  123960  123962  123961  123963
  123965  123964  123966  123968  123967  123969  123971  123970  123972
  123974  123973  123975  123977  123976  123978  123980  123979  123981
  123983  123982  123984  123986  123985  123987  123989  123988  123990
  123992  123991  123993  123995  123994  123996  123998  123997  123999
  124001  124000  124002  124004  124003  124005  124007  124006  124008
  124010  124009  124011  124013  124012  124014  124016  124015  124017
  124019  124018  124020  124022  124021  124023  124025  124024  124026
  124028  124027  124029  124031  124030  124032  124034  124033  124035
  124037  124036  124038  124040  124039  124041  124043  124042  124044
  124046  124045  124047  124049  124048  124050  124052  124051  124053
  124055  124054  124056  124058  124057  124059  124061  124060  124062
  124064  124063  124065  124067  124066  124068  124070  124069  124071
  124073  124072  124074  124076  124075  124077  124079  124078  124080
  124082  124081  124083  124085  124084  124086  124088  124087  124089
  124091  124090  124092  124094  124093  124095  124097  124096  124098
  124100  124099  124101  124103  124102  124104  124106  124105  124107
  124109  124108  124110  124112  124111  124113  124115  124114  124116
  124118  124117  124119  124121  124120  124122  124124  124123  124125
  124127  124126  124128  124130  124129  124131  124133  124132  124134
  124136  124135  124137  124139  124138  124140  124142  124141  124143
  124145  124144  124146  124148  124147  124149  124151  124150  124152
  124154  124153  124155  124157  124156  124158  124160  124159  124161
  124163  124162  124164  124166  124165  124167  124169  124168  124170
  124172  124171  124173  124175  124174  124176  124178  124177  124179
  124181  124180  124182  124184  124183  124185  124187  124186  124188
  124190  124189  124191  124193  124192  124194  124196  124195  124197
  124199  124198  124200  124202  124201  124203  124205  124204  124206
  124208  124207  124209  124211  124210  124212  124214  124213  124215
  124217  124216  124218  124220  124219  124221  124223  124222  124224
  124226  124225  124227  124229  124228  124230  124232  124231  124233
  124235  124234  124236  124238  124237  124239  124241  124240  124242
  124244  124243  124245  124247  124246  124248  124250  124249  124251
  124253  124252  124254  124256  124255  124257  124259  124258  124260
  124262  124261  124263  124265  124264  124266  124268  124267  124269
  124271  124270  124272  124274  124273  124275  124277  124276  124278
  124280  124279  124281  124283  124282  124284  124286  124285  124287
  124289  124288  124290  124292  124291  124293  124295  124294  124296
  124298  124297  124299  124301  124300  124302  124304  124303  124305
  124307  124306  124308  124310  124309  124311  124313  124312  124314
  124316  124315  124317  124319  124318  124320  124322  124321  124323
  124325  124324  124326  124328  124327  124329  124331  124330  124332
  124334  124333  124335  124337  124336  124338  124340  124339  124341
  124343  124342  124344  124346  124345  124347  124349  124348  124350
  124352  124351  124353  124355  124354  124356  124358  124357  124359
  124361  124360  124362  124364  124363  124365  124367  124366  124368
  124370  124369  124371  124373  124372  124374  124376  124375  124377
  124379  124378  124380  124382  124381  124383  124385  124384  124386
  124388  124387  124389  124391  124390  124392  124394  124393  124395
  124397  124396  124398  124400  124399  124401  124403  124402  124404
  124406  124405  124407  124409  124408  124410  124412  124411  124413

   26977 !NPHI: dihedrals
       1       2       3       4       1       6       7       4
       1       6       7       8       2       1       6       5
       2       1       6       7       2       3       4       7
       2       3       4     181       3       4       7       6
       3       4       7       8       3       4     181     182
       3       4     181     186       4       7       8      11
       4       7       8     185       4     181     182     183
       4     181     186     185       4     181     186     187
       5       6       7       4       5       6       7       8
       5      10      11       8       5      10      11      12
       6       1       2       3       6       5      10       9
       6       5      10      11       6       7       8      11
       6       7       8     185       7       4     181     182
       7       4     181     186       7       8      11      10
       7       8      11      12       7       8     185     186
       7       8     185     190       8      11      12      15
       8      11      12     189       8     185     186     181
       8     185     186     187       8     185     190     189
       8     185     190     191       9      10      11       8
       9      10      11      12       9      14      15      12
       9      14      15      16      10       5       6       1
      10       5       6       7      10       9      14      13
      10       9      14      15      10      11      12      15
      10      11      12     189      11       8     185     186
      11       8     185     190      11      12      15      14
      11      12      15      16      11      12     189     194
      11      12     189     190      12      15      16      19
      12      15      16     193      12     189     194     193
      12     189     194     195      12     189     190     185
      12     189     190     191      13      14      15      12
      13      14      15      16      13      18      19      16
      13      18      19      20      14       9      10       5
      14       9      10      11      14      13      18      17
      14      13      18      19      14      15      16      19
      14      15      16     193      15      12     189     194
      15      12     189     190      15      16      19      18
      15      16      19      20      15      16     193     198
      15      16     193     194      16      19      20      23
      16      19      20     197      16     193     198     197
      16     193     198     199      16     193     194     189
      16     193     194     195      17      18      19      16
      17      18      19      20      17      22      23      20
      17      22      23      24      18      13      14       9
      18      13      14      15      18      17      22      21
      18      17      22      23      18      19      20      23
      18      19      20     197      19      16     193     198
      19      16     193     194      19      20      23      22
      19      20      23      24      19      20     197     202
      19      20     197     198      20      23      24      27
      20      23      24     201      20     197     202     201
      20     197     202     203      20     197     198     193
      20     197     198     199      21      22      23      20
      21      22      23      24      21      26      27      24
      21      26      27      28      22      17      18      13
      22      17      18      19      22      21      26      25
      22      21      26      27      22      23      24      27
      22      23      24     201      23      20     197     202
      23      20     197     198      23      24      27      26
      23      24      27      28      23      24     201     202
      23      24     201     206      24      27      28      31
      24      27      28     205      24     201     202     197
      24     201     202     203      24     201     206     205
      24     201     206     207      25      26      27      24
      25      26      27      28      25      30      31      28
      25      30      31      32      26      21      22      17
      26      21      22      23      26      25      30      29
      26      25      30      31      26      27      28      31
      26      27      28     205      27      24     201     202
      27      24     201     206      27      28      31      30
      27      28      31      32      27      28     205     206
      27      28     205     210      28      31      32      35
      28      31      32     209      28     205     206     201
      28     205     206     207      28     205     210     209
      28     205     210     211      29      30      31      28
      29      30      31      32      29      34      35      32
      29      34      35      36      30      25      26      21
      30      25      26      27      30      29      34      33
      30      29      34      35      30      31      32      35
      30      31      32     209      31      28     205     206
      31      28     205     210      31      32      35      34
      31      32      35      36      31      32     209     214
      31      32     209     210      32      35      36      39
      32      35      36     213      32     209     214     213
      32     209     214     215      32     209     210     205
      32     209     210     211      33      34      35      32
      33      34      35      36      33      38      39      36
      33      38      39      40      34      29      30      25
      34      29      30      31      34      33      38      37
      34      33      38      39      34      35      36      39
      34      35      36     213      35      32     209     214
      35      32     209     210      35      36      39      38
      35      36      39      40      35      36     213     218
      35      36     213     214      36      39      40      43
      36      39      40     217      36     213     218     217
      36     213     218     219      36     213     214     209
      36     213     214     215      37      38      39      36
      37      38      39      40      37      42      43      40
      37      42      43      44      38      33      34      29
      38      33      34      35      38      37      42      41
      38      37      42      43      38      39      40      43
      38      39      40     217      39      36     213     218
      39      36     213     214      39      40      43      42
      39      40      43      44      39      40     217     222
      39      40     217     218      40      43      44      47
      40      43      44     221      40     217     222     221
      40     217     222     223      40     217     218     213
      40     217     218     219      41      42      43      40
      41      42      43      44      41      46      47      44
      41      46      47      48      42      37      38      33
      42      37      38      39      42      41      46      45
      42      41      46      47      42      43      44      47
      42      43      44     221      43      40     217     222
      43      40     217     218      43      44      47      46
      43      44      47      48      43      44     221     222
      43      44     221     226      44      47      48      51
      44      47      48     225      44     221     222     217
      44     221     222     223      44     221     226     225
      44     221     226     227      45      46      47      44
      45      46      47      48      45      50      51      48
      45      50      51      52      46      41      42      37
      46      41      42      43      46      45      50      49
      46      45      50      51      46      47      48      51
      46      47      48     225      47      44     221     222
      47      44     221     226      47      48      51      50
      47      48      51      52      47      48     225     226
      47      48     225     230      48      51      52      55
      48      51      52     229      48     225     226     221
      48     225     226     227      48     225     230     229
      48     225     230     231      49      50      51      48
      49      50      51      52      49      54      55      52
      49      54      55      56      50      45      46      41
      50      45      46      47      50      49      54      53
      50      49      54      55      50      51      52      55
      50      51      52     229      51      48     225     226
      51      48     225     230      51      52      55      54
      51      52      55      56      51      52     229     234
      51      52     229     230      52      55      56      59
      52      55      56     233      52     229     234     233
      52     229     234     235      52     229     230     225
      52     229     230     231      53      54      55      52
      53      54      55      56      53      58      59      56
      53      58      59      60      54      49      50      45
      54      49      50      51      54      53      58      57
      54      53      58      59      54      55      56      59
      54      55      56     233      55      52     229     234
      55      52     229     230      55      56      59      58
      55      56      59      60      55      56     233     238
      55      56     233     234      56      59      60      63
      56      59      60     237      56     233     238     237
      56     233     238     239      56     233     234     229
      56     233     234     235      57      58      59      56
      57      58      59      60      57      62      63      60
      57      62      63      64      58      53      54      49
      58      53      54      55      58      57      62      61
      58      57      62      63      58      59      60      63
      58      59      60     237      59      56     233     238
      59      56     233     234      59      60      63      62
      59      60      63      64      59      60     237     242
      59      60     237     238      60      63      64      67
      60      63      64     241      60     237     242     241
      60     237     242     243      60     237     238     233
      60     237     238     239      61      62      63      60
      61      62      63      64      61      66      67      64
      61      66      67      68      62      57      58      53
      62      57      58      59      62      61      66      65
      62      61      66      67      62      63      64      67
      62      63      64     241      63      60     237     242
      63      60     237     238      63      64      67      66
      63      64      67      68      63      64     241     242
      63      64     241     246      64      67      68      71
      64      67      68     245      64     241     242     237
      64     241     242     243      64     241     246     245
      64     241     246     247      65      66      67      64
      65      66      67      68      65      70      71      68
      65      70      71      72      66      61      62      57
      66      61      62      63      66      65      70      69
      66      65      70      71      66      67      68      71
      66      67      68     245      67      64     241     242
      67      64     241     246      67      68      71      70
      67      68      71      72      67      68     245     246
      67      68     245     250      68      71      72      75
      68      71      72     249      68     245     246     241
      68     245     246     247      68     245     250     249
      68     245     250     251      69      70      71      68
      69      70      71      72      69      74      75      72
      69      74      75      76      70      65      66      61
      70      65      66      67      70      69      74      73
      70      69      74      75      70      71      72      75
      70      71      72     249      71      68     245     246
      71      68     245     250      71      72      75      74
      71      72      75      76      71      72     249     254
      71      72     249     250      72      75      76      79
      72      75      76     253      72     249     254     253
      72     249     254     255      72     249     250     245
      72     249     250     251      73      74      75      72
      73      74      75      76      73      78      79      76
      73      78      79      80      74      69      70      65
      74      69      70      71      74      73      78      77
      74      73      78      79      74      75      76      79
      74      75      76     253      75      72     249     254
      75      72     249     250      75      76      79      78
      75      76      79      80      75      76     253     258
      75      76     253     254      76      79      80      83
      76      79      80     257      76     253     258     257
      76     253     258     259      76     253     254     249
      76     253     254     255      77      78      79      76
      77      78      79      80      77      82      83      80
      77      82      83      84      78      73      74      69
      78      73      74      75      78      77      82      81
      78      77      82      83      78      79      80      83
      78      79      80     257      79      76     253     258
      79      76     253     254      79      80      83      82
      79      80      83      84      79      80     257     262
      79      80     257     258      80      83      84      87
      80      83      84     261      80     257     262     261
      80     257     262     263      80     257     258     253
      80     257     258     259      81      82      83      80
      81      82      83      84      81      86      87      84
      81      86      87      88      82      77      78      73
      82      77      78      79      82      81      86      85
      82      81      86      87      82      83      84      87
      82      83      84     261      83      80     257     262
      83      80     257     258      83      84      87      86
      83      84      87      88      83      84     261     262
      83      84     261     266      84      87      88      91
      84      87      88     265      84     261     262     257
      84     261     262     263      84     261     266     265
      84     261     266     267      85      86      87      84
      85      86      87      88      85      90      91      88
      85      90      91      92      86      81      82      77
      86      81      82      83      86      85      90      89
      86      85      90      91      86      87      88      91
      86      87      88     265      87      84     261     262
      87      84     261     266      87      88      91      90
      87      88      91      92      87      88     265     266
      87      88     265     270      88      91      92      95
      88      91      92     269      88     265     266     261
      88     265     266     267      88     265     270     269
      88     265     270     271      89      90      91      88
      89      90      91      92      89      94      95      92
      89      94      95      96      90      85      86      81
      90      85      86      87      90      89      94      93
      90      89      94      95      90      91      92      95
      90      91      92     269      91      88     265     266
      91      88     265     270      91      92      95      94
      91      92      95      96      91      92     269     274
      91      92     269     270      92      95      96      99
      92      95      96     273      92     269     274     273
      92     269     274     275      92     269     270     265
      92     269     270     271      93      94      95      92
      93      94      95      96      93      98      99      96
      93      98      99     100      94      89      90      85
      94      89      90      91      94      93      98      97
      94      93      98      99      94      95      96      99
      94      95      96     273      95      92     269     274
      95      92     269     270      95      96      99      98
      95      96      99     100      95      96     273     278
      95      96     273     274      96      99     100     103
      96      99     100     277      96     273     278     277
      96     273     278     279      96     273     274     269
      96     273     274     275      97      98      99      96
      97      98      99     100      97     102     103     100
      97     102     103     104      98      93      94      89
      98      93      94      95      98      97     102     101
      98      97     102     103      98      99     100     103
      98      99     100     277      99      96     273     278
      99      96     273     274      99     100     103     102
      99     100     103     104      99     100     277     282
      99     100     277     278     100     103     104     107
     100     103     104     281     100     277     282     281
     100     277     282     283     100     277     278     273
     100     277     278     279     101     102     103     100
     101     102     103     104     101     106     107     104
     101     106     107     108     102      97      98      93
     102      97      98      99     102     101     106     105
     102     101     106     107     102     103     104     107
     102     103     104     281     103     100     277     282
     103     100     277     278     103     104     107     106
     103     104     107     108     103     104     281     282
     103     104     281     286     104     107     108     111
     104     107     108     285     104     281     282     277
     104     281     282     283     104     281     286     285
     104     281     286     287     105     106     107     104
     105     106     107     108     105     110     111     108
     105     110     111     112     106     101     102      97
     106     101     102     103     106     105     110     109
     106     105     110     111     106     107     108     111
     106     107     108     285     107     104     281     282
     107     104     281     286     107     108     111     110
     107     108     111     112     107     108     285     286
     107     108     285     290     108     111     112     115
     108     111     112     289     108     285     286     281
     108     285     286     287     108     285     290     289
     108     285     290     291     109     110     111     108
     109     110     111     112     109     114     115     112
     109     114     115     116     110     105     106     101
     110     105     106     107     110     109     114     113
     110     109     114     115     110     111     112     115
     110     111     112     289     111     108     285     286
     111     108     285     290     111     112     115     114
     111     112     115     116     111     112     289     294
     111     112     289     290     112     115     116     119
     112     115     116     293     112     289     294     293
     112     289     294     295     112     289     290     285
     112     289     290     291     113     114     115     112
     113     114     115     116     113     118     119     116
     113     118     119     120     114     109     110     105
     114     109     110     111     114     113     118     117
     114     113     118     119     114     115     116     119
     114     115     116     293     115     112     289     294
     115     112     289     290     115     116     119     118
     115     116     119     120     115     116     293     298
     115     116     293     294     116     119     120     123
     116     119     120     297     116     293     298     297
     116     293     298     299     116     293     294     289
     116     293     294     295     117     118     119     116
     117     118     119     120     117     122     123     120
     117     122     123     124     118     113     114     109
     118     113     114     115     118     117     122     121
     118     117     122     123     118     119     120     123
     118     119     120     297     119     116     293     298
     119     116     293     294     119     120     123     122
     119     120     123     124     119     120     297     302
     119     120     297     298     120     123     124     127
     120     123     124     301     120     297     302     301
     120     297     302     303     120     297     298     293
     120     297     298     299     121     122     123     120
     121     122     123     124     121     126     127     124
     121     126     127     128     122     117     118     113
     122     117     118     119     122     121     126     125
     122     121     126     127     122     123     124     127
     122     123     124     301     123     120     297     302
     123     120     297     298     123     124     127     126
     123     124     127     128     123     124     301     302
     123     124     301     306     124     127     128     131
     124     127     128     305     124     301     302     297
     124     301     302     303     124     301     306     305
     124     301     306     307     125     126     127     124
     125     126     127     128     125     130     131     128
     125     130     131     132     126     121     122     117
     126     121     122     123     126     125     130     129
     126     125     130     131     126     127     128     131
     126     127     128     305     127     124     301     302
     127     124     301     306     127     128     131     130
     127     128     131     132     127     128     305     306
     127     128     305     310     128     131     132     135
     128     131     132     309     128     305     306     301
     128     305     306     307     128     305     310     309
     128     305     310     311     129     130     131     128
     129     130     131     132     129     134     135     132
     129     134     135     136     130     125     126     121
     130     125     126     127     130     129     134     133
     130     129     134     135     130     131     132     135
     130     131     132     309     131     128     305     306
     131     128     305     310     131     132     135     134
     131     132     135     136     131     132     309     314
     131     132     309     310     132     135     136     139
     132     135     136     313     132     309     314     313
     132     309     314     315     132     309     310     305
     132     309     310     311     133     134     135     132
     133     134     135     136     133     138     139     136
     133     138     139     140     134     129     130     125
     134     129     130     131     134     133     138     137
     134     133     138     139     134     135     136     139
     134     135     136     313     135     132     309     314
     135     132     309     310     135     136     139     138
     135     136     139     140     135     136     313     318
     135     136     313     314     136     139     140     143
     136     139     140     317     136     313     318     317
     136     313     318     319     136     313     314     309
     136     313     314     315     137     138     139     136
     137     138     139     140     137     142     143     140
     137     142     143     144     138     133     134     129
     138     133     134     135     138     137     142     141
     138     137     142     143     138     139     140     143
     138     139     140     317     139     136     313     318
     139     136     313     314     139     140     143     142
     139     140     143     144     139     140     317     322
     139     140     317     318     140     143     144     147
     140     143     144     321     140     317     322     321
     140     317     322     323     140     317     318     313
     140     317     318     319     141     142     143     140
     141     142     143     144     141     146     147     144
     141     146     147     148     142     137     138     133
     142     137     138     139     142     141     146     145
     142     141     146     147     142     143     144     147
     142     143     144     321     143     140     317     322
     143     140     317     318     143     144     147     146
     143     144     147     148     143     144     321     322
     143     144     321     326     144     147     148     151
     144     147     148     325     144     321     322     317
     144     321     322     323     144     321     326     325
     144     321     326     327     145     146     147     144
     145     146     147     148     145     150     151     148
     145     150     151     152     146     141     142     137
     146     141     142     143     146     145     150     149
     146     145     150     151     146     147     148     151
     146     147     148     325     147     144     321     322
     147     144     321     326     147     148     151     150
     147     148     151     152     147     148     325     326
     147     148     325     330     148     151     152     155
     148     151     152     329     148     325     326     321
     148     325     326     327     148     325     330     329
     148     325     330     331     149     150     151     148
     149     150     151     152     149     154     155     152
     149     154     155     156     150     145     146     141
     150     145     146     147     150     149     154     153
     150     149     154     155     150     151     152     155
     150     151     152     329     151     148     325     326
     151     148     325     330     151     152     155     154
     151     152     155     156     151     152     329     334
     151     152     329     330     152     155     156     159
     152     155     156     333     152     329     334     333
     152     329     334     335     152     329     330     325
     152     329     330     331     153     154     155     152
     153     154     155     156     153     158     159     156
     153     158     159     160     154     149     150     145
     154     149     150     151     154     153     158     157
     154     153     158     159     154     155     156     159
     154     155     156     333     155     152     329     334
     155     152     329     330     155     156     159     158
     155     156     159     160     155     156     333     338
     155     156     333     334     156     159     160     163
     156     159     160     337     156     333     338     337
     156     333     338     339     156     333     334     329
     156     333     334     335     157     158     159     156
     157     158     159     160     157     162     163     160
     157     162     163     164     158     153     154     149
     158     153     154     155     158     157     162     161
     158     157     162     163     158     159     160     163
     158     159     160     337     159     156     333     338
     159     156     333     334     159     160     163     162
     159     160     163     164     159     160     337     342
     159     160     337     338     160     163     164     167
     160     163     164     341     160     337     342     341
     160     337     342     343     160     337     338     333
     160     337     338     339     161     162     163     160
     161     162     163     164     161     166     167     164
     161     166     167     168     162     157     158     153
     162     157     158     159     162     161     166     165
     162     161     166     167     162     163     164     167
     162     163     164     341     163     160     337     342
     163     160     337     338     163     164     167     166
     163     164     167     168     163     164     341     342
     163     164     341     346     164     167     168     171
     164     167     168     345     164     341     342     337
     164     341     342     343     164     341     346     345
     164     341     346     347     165     166     167     164
     165     166     167     168     165     170     171     168
     165     170     171     172     166     161     162     157
     166     161     162     163     166     165     170     169
     166     165     170     171     166     167     168     171
     166     167     168     345     167     164     341     342
     167     164     341     346     167     168     171     170
     167     168     171     172     167     168     345     346
     167     168     345     350     168     171     172     175
     168     171     172     349     168     345     346     341
     168     345     346     347     168     345     350     349
     168     345     350     351     169     170     171     168
     169     170     171     172     169     174     175     172
     169     174     175     176     170     165     166     161
     170     165     166     167     170     169     174     173
     170     169     174     175     170     171     172     175
     170     171     172     349     171     168     345     346
     171     168     345     350     171     172     175     174
     171     172     175     176     171     172     349     354
     171     172     349     350     172     175     176     179
     172     175     176     353     172     349     354     353
     172     349     354     355     172     349     350     345
     172     349     350     351     173     174     175     172
     173     174     175     176     173     178     179     176
     173     178     179     180     174     169     170     165
     174     169     170     171     174     173     178     177
     174     173     178     179     174     175     176     179
     174     175     176     353     175     172     349     354
     175     172     349     350     175     176     179     178
     175     176     179     180     175     176     353     354
     175     176     353     358     176     179     180     357
     176     353     354     349     176     353     354     355
     176     353     358     357     176     353     358     359
     177     178     179     176     177     178     179     180
     178     173     174     169     178     173     174     175
     178     179     180     357     179     176     353     354
     179     176     353     358     179     180     357     358
     180     357     358     353     180     357     358     359
     181       4       7       6     181       4       7       8
     181     182     183     184     181     186     187     184
     181     186     187     188     182     181     186     185
     182     181     186     187     182     183     184     187
     182     183     184     361     183     184     187     186
     183     184     187     188     183     184     361     362
     183     184     361     366     184     187     188     191
     184     187     188     365     184     361     362     363
     184     361     366     365     184     361     366     367
     185       8      11      10     185       8      11      12
     185     186     187     184     185     186     187     188
     185     190     191     188     185     190     191     192
     186     181     182     183     186     185     190     189
     186     185     190     191     186     187     188     191
     186     187     188     365     187     184     361     362
     187     184     361     366     187     188     191     190
     187     188     191     192     187     188     365     366
     187     188     365     370     188     191     192     195
     188     191     192     369     188     365     366     361
     188     365     366     367     188     365     370     369
     188     365     370     371     189      12      15      14
     189      12      15      16     189     190     191     188
     189     190     191     192     189     194     195     192
     189     194     195     196     190     185     186     181
     190     185     186     187     190     189     194     193
     190     189     194     195     190     191     192     195
     190     191     192     369     191     188     365     366
     191     188     365     370     191     192     195     194
     191     192     195     196     191     192     369     374
     191     192     369     370     192     195     196     199
     192     195     196     373     192     369     374     373
     192     369     374     375     192     369     370     365
     192     369     370     371     193      16      19      18
     193      16      19      20     193     194     195     192
     193     194     195     196     193     198     199     196
     193     198     199     200     194     189     190     185
     194     189     190     191     194     193     198     197
     194     193     198     199     194     195     196     199
     194     195     196     373     195     192     369     374
     195     192     369     370     195     196     199     198
     195     196     199     200     195     196     373     374
     195     196     373     378     196     199     200     203
     196     199     200     377     196     373     374     369
     196     373     374     375     196     373     378     377
     196     373     378     379     197      20      23      22
     197      20      23      24     197     198     199     196
     197     198     199     200     197     202     203     200
     197     202     203     204     198     193     194     189
     198     193     194     195     198     197     202     201
     198     197     202     203     198     199     200     203
     198     199     200     377     199     196     373     374
     199     196     373     378     199     200     203     202
     199     200     203     204     199     200     377     382
     199     200     377     378     200     203     204     207
     200     203     204     381     200     377     382     381
     200     377     382     383     200     377     378     373
     200     377     378     379     201      24      27      26
     201      24      27      28     201     202     203     200
     201     202     203     204     201     206     207     204
     201     206     207     208     202     197     198     193
     202     197     198     199     202     201     206     205
     202     201     206     207     202     203     204     207
     202     203     204     381     203     200     377     382
     203     200     377     378     203     204     207     206
     203     204     207     208     203     204     381     382
     203     204     381     386     204     207     208     211
     204     207     208     385     204     381     382     377
     204     381     382     383     204     381     386     385
     204     381     386     387     205      28      31      30
     205      28      31      32     205     206     207     204
     205     206     207     208     205     210     211     208
     205     210     211     212     206     201     202     197
     206     201     202     203     206     205     210     209
     206     205     210     211     206     207     208     211
     206     207     208     385     207     204     381     382
     207     204     381     386     207     208     211     210
     207     208     211     212     207     208     385     386
     207     208     385     390     208     211     212     215
     208     211     212     389     208     385     386     381
     208     385     386     387     208     385     390     389
     208     385     390     391     209      32      35      34
     209      32      35      36     209     210     211     208
     209     210     211     212     209     214     215     212
     209     214     215     216     210     205     206     201
     210     205     206     207     210     209     214     213
     210     209     214     215     210     211     212     215
     210     211     212     389     211     208     385     386
     211     208     385     390     211     212     215     214
     211     212     215     216     211     212     389     394
     211     212     389     390     212     215     216     219
     212     215     216     393     212     389     394     393
     212     389     394     395     212     389     390     385
     212     389     390     391     213      36      39      38
     213      36      39      40     213     214     215     212
     213     214     215     216     213     218     219     216
     213     218     219     220     214     209     210     205
     214     209     210     211     214     213     218     217
     214     213     218     219     214     215     216     219
     214     215     216     393     215     212     389     394
     215     212     389     390     215     216     219     218
     215     216     219     220     215     216     393     398
     215     216     393     394     216     219     220     223
     216     219     220     397     216     393     398     397
     216     393     398     399     216     393     394     389
     216     393     394     395     217      40      43      42
     217      40      43      44     217     218     219     216
     217     218     219     220     217     222     223     220
     217     222     223     224     218     213     214     209
     218     213     214     215     218     217     222     221
     218     217     222     223     218     219     220     223
     218     219     220     397     219     216     393     398
     219     216     393     394     219     220     223     222
     219     220     223     224     219     220     397     402
     219     220     397     398     220     223     224     227
     220     223     224     401     220     397     402     401
     220     397     402     403     220     397     398     393
     220     397     398     399     221      44      47      46
     221      44      47      48     221     222     223     220
     221     222     223     224     221     226     227     224
     221     226     227     228     222     217     218     213
     222     217     218     219     222     221     226     225
     222     221     226     227     222     223     224     227
     222     223     224     401     223     220     397     402
     223     220     397     398     223     224     227     226
     223     224     227     228     223     224     401     402
     223     224     401     406     224     227     228     231
     224     227     228     405     224     401     402     397
     224     401     402     403     224     401     406     405
     224     401     406     407     225      48      51      50
     225      48      51      52     225     226     227     224
     225     226     227     228     225     230     231     228
     225     230     231     232     226     221     222     217
     226     221     222     223     226     225     230     229
     226     225     230     231     226     227     228     231
     226     227     228     405     227     224     401     402
     227     224     401     406     227     228     231     230
     227     228     231     232     227     228     405     406
     227     228     405     410     228     231     232     235
     228     231     232     409     228     405     406     401
     228     405     406     407     228     405     410     409
     228     405     410     411     229      52      55      54
     229      52      55      56     229     230     231     228
     229     230     231     232     229     234     235     232
     229     234     235     236     230     225     226     221
     230     225     226     227     230     229     234     233
     230     229     234     235     230     231     232     235
     230     231     232     409     231     228     405     406
     231     228     405     410     231     232     235     234
     231     232     235     236     231     232     409     414
     231     232     409     410     232     235     236     239
     232     235     236     413     232     409     414     413
     232     409     414     415     232     409     410     405
     232     409     410     411     233      56      59      58
     233      56      59      60     233     234     235     232
     233     234     235     236     233     238     239     236
     233     238     239     240     234     229     230     225
     234     229     230     231     234     233     238     237
     234     233     238     239     234     235     236     239
     234     235     236     413     235     232     409     414
     235     232     409     410     235     236     239     238
     235     236     239     240     235     236     413     418
     235     236     413     414     236     239     240     243
     236     239     240     417     236     413     418     417
     236     413     418     419     236     413     414     409
     236     413     414     415     237      60      63      62
     237      60      63      64     237     238     239     236
     237     238     239     240     237     242     243     240
     237     242     243     244     238     233     234     229
     238     233     234     235     238     237     242     241
     238     237     242     243     238     239     240     243
     238     239     240     417     239     236     413     418
     239     236     413     414     239     240     243     242
     239     240     243     244     239     240     417     422
     239     240     417     418     240     243     244     247
     240     243     244     421     240     417     422     421
     240     417     422     423     240     417     418     413
     240     417     418     419     241      64      67      66
     241      64      67      68     241     242     243     240
     241     242     243     244     241     246     247     244
     241     246     247     248     242     237     238     233
     242     237     238     239     242     241     246     245
     242     241     246     247     242     243     244     247
     242     243     244     421     243     240     417     422
     243     240     417     418     243     244     247     246
     243     244     247     248     243     244     421     422
     243     244     421     426     244     247     248     251
     244     247     248     425     244     421     422     417
     244     421     422     423     244     421     426     425
     244     421     426     427     245      68      71      70
     245      68      71      72     245     246     247     244
     245     246     247     248     245     250     251     248
     245     250     251     252     246     241     242     237
     246     241     242     243     246     245     250     249
     246     245     250     251     246     247     248     251
     246     247     248     425     247     244     421     422
     247     244     421     426     247     248     251     250
     247     248     251     252     247     248     425     426
     247     248     425     430     248     251     252     255
     248     251     252     429     248     425     426     421
     248     425     426     427     248     425     430     429
     248     425     430     431     249      72      75      74
     249      72      75      76     249     250     251     248
     249     250     251     252     249     254     255     252
     249     254     255     256     250     245     246     241
     250     245     246     247     250     249     254     253
     250     249     254     255     250     251     252     255
     250     251     252     429     251     248     425     426
     251     248     425     430     251     252     255     254
     251     252     255     256     251     252     429     434
     251     252     429     430     252     255     256     259
     252     255     256     433     252     429     434     433
     252     429     434     435     252     429     430     425
     252     429     430     431     253      76      79      78
     253      76      79      80     253     254     255     252
     253     254     255     256     253     258     259     256
     253     258     259     260     254     249     250     245
     254     249     250     251     254     253     258     257
     254     253     258     259     254     255     256     259
     254     255     256     433     255     252     429     434
     255     252     429     430     255     256     259     258
     255     256     259     260     255     256     433     438
     255     256     433     434     256     259     260     263
     256     259     260     437     256     433     438     437
     256     433     438     439     256     433     434     429
     256     433     434     435     257      80      83      82
     257      80      83      84     257     258     259     256
     257     258     259     260     257     262     263     260
     257     262     263     264     258     253     254     249
     258     253     254     255     258     257     262     261
     258     257     262     263     258     259     260     263
     258     259     260     437     259     256     433     438
     259     256     433     434     259     260     263     262
     259     260     263     264     259     260     437     442
     259     260     437     438     260     263     264     267
     260     263     264     441     260     437     442     441
     260     437     442     443     260     437     438     433
     260     437     438     439     261      84      87      86
     261      84      87      88     261     262     263     260
     261     262     263     264     261     266     267     264
     261     266     267     268     262     257     258     253
     262     257     258     259     262     261     266     265
     262     261     266     267     262     263     264     267
     262     263     264     441     263     260     437     442
     263     260     437     438     263     264     267     266
     263     264     267     268     263     264     441     442
     263     264     441     446     264     267     268     271
     264     267     268     445     264     441     442     437
     264     441     442     443     264     441     446     445
     264     441     446     447     265      88      91      90
     265      88      91      92     265     266     267     264
     265     266     267     268     265     270     271     268
     265     270     271     272     266     261     262     257
     266     261     262     263     266     265     270     269
     266     265     270     271     266     267     268     271
     266     267     268     445     267     264     441     442
     267     264     441     446     267     268     271     270
     267     268     271     272     267     268     445     446
     267     268     445     450     268     271     272     275
     268     271     272     449     268     445     446     441
     268     445     446     447     268     445     450     449
     268     445     450     451     269      92      95      94
     269      92      95      96     269     270     271     268
     269     270     271     272     269     274     275     272
     269     274     275     276     270     265     266     261
     270     265     266     267     270     269     274     273
     270     269     274     275     270     271     272     275
     270     271     272     449     271     268     445     446
     271     268     445     450     271     272     275     274
     271     272     275     276     271     272     449     454
     271     272     449     450     272     275     276     279
     272     275     276     453     272     449     454     453
     272     449     454     455     272     449     450     445
     272     449     450     451     273      96      99      98
     273      96      99     100     273     274     275     272
     273     274     275     276     273     278     279     276
     273     278     279     280     274     269     270     265
     274     269     270     271     274     273     278     277
     274     273     278     279     274     275     276     279
     274     275     276     453     275     272     449     454
     275     272     449     450     275     276     279     278
     275     276     279     280     275     276     453     458
     275     276     453     454     276     279     280     283
     276     279     280     457     276     453     458     457
     276     453     458     459     276     453     454     449
     276     453     454     455     277     100     103     102
     277     100     103     104     277     278     279     276
     277     278     279     280     277     282     283     280
     277     282     283     284     278     273     274     269
     278     273     274     275     278     277     282     281
     278     277     282     283     278     279     280     283
     278     279     280     457     279     276     453     458
     279     276     453     454     279     280     283     282
     279     280     283     284     279     280     457     462
     279     280     457     458     280     283     284     287
     280     283     284     461     280     457     462     461
     280     457     462     463     280     457     458     453
     280     457     458     459     281     104     107     106
     281     104     107     108     281     282     283     280
     281     282     283     284     281     286     287     284
     281     286     287     288     282     277     278     273
     282     277     278     279     282     281     286     285
     282     281     286     287     282     283     284     287
     282     283     284     461     283     280     457     462
     283     280     457     458     283     284     287     286
     283     284     287     288     283     284     461     462
     283     284     461     466     284     287     288     291
     284     287     288     465     284     461     462     457
     284     461     462     463     284     461     466     465
     284     461     466     467     285     108     111     110
     285     108     111     112     285     286     287     284
     285     286     287     288     285     290     291     288
     285     290     291     292     286     281     282     277
     286     281     282     283     286     285     290     289
     286     285     290     291     286     287     288     291
     286     287     288     465     287     284     461     462
     287     284     461     466     287     288     291     290
     287     288     291     292     287     288     465     466
     287     288     465     470     288     291     292     295
     288     291     292     469     288     465     466     461
     288     465     466     467     288     465     470     469
     288     465     470     471     289     112     115     114
     289     112     115     116     289     290     291     288
     289     290     291     292     289     294     295     292
     289     294     295     296     290     285     286     281
     290     285     286     287     290     289     294     293
     290     289     294     295     290     291     292     295
     290     291     292     469     291     288     465     466
     291     288     465     470     291     292     295     294
     291     292     295     296     291     292     469     474
     291     292     469     470     292     295     296     299
     292     295     296     473     292     469     474     473
     292     469     474     475     292     469     470     465
     292     469     470     471     293     116     119     118
     293     116     119     120     293     294     295     292
     293     294     295     296     293     298     299     296
     293     298     299     300     294     289     290     285
     294     289     290     291     294     293     298     297
     294     293     298     299     294     295     296     299
     294     295     296     473     295     292     469     474
     295     292     469     470     295     296     299     298
     295     296     299     300     295     296     473     478
     295     296     473     474     296     299     300     303
     296     299     300     477     296     473     478     477
     296     473     478     479     296     473     474     469
     296     473     474     475     297     120     123     122
     297     120     123     124     297     298     299     296
     297     298     299     300     297     302     303     300
     297     302     303     304     298     293     294     289
     298     293     294     295     298     297     302     301
     298     297     302     303     298     299     300     303
     298     299     300     477     299     296     473     478
     299     296     473     474     299     300     303     302
     299     300     303     304     299     300     477     482
     299     300     477     478     300     303     304     307
     300     303     304     481     300     477     482     481
     300     477     482     483     300     477     478     473
     300     477     478     479     301     124     127     126
     301     124     127     128     301     302     303     300
     301     302     303     304     301     306     307     304
     301     306     307     308     302     297     298     293
     302     297     298     299     302     301     306     305
     302     301     306     307     302     303     304     307
     302     303     304     481     303     300     477     482
     303     300     477     478     303     304     307     306
     303     304     307     308     303     304     481     482
     303     304     481     486     304     307     308     311
     304     307     308     485     304     481     482     477
     304     481     482     483     304     481     486     485
     304     481     486     487     305     128     131     130
     305     128     131     132     305     306     307     304
     305     306     307     308     305     310     311     308
     305     310     311     312     306     301     302     297
     306     301     302     303     306     305     310     309
     306     305     310     311     306     307     308     311
     306     307     308     485     307     304     481     482
     307     304     481     486     307     308     311     310
     307     308     311     312     307     308     485     486
     307     308     485     490     308     311     312     315
     308     311     312     489     308     485     486     481
     308     485     486     487     308     485     490     489
     308     485     490     491     309     132     135     134
     309     132     135     136     309     310     311     308
     309     310     311     312     309     314     315     312
     309     314     315     316     310     305     306     301
     310     305     306     307     310     309     314     313
     310     309     314     315     310     311     312     315
     310     311     312     489     311     308     485     486
     311     308     485     490     311     312     315     314
     311     312     315     316     311     312     489     494
     311     312     489     490     312     315     316     319
     312     315     316     493     312     489     494     493
     312     489     494     495     312     489     490     485
     312     489     490     491     313     136     139     138
     313     136     139     140     313     314     315     312
     313     314     315     316     313     318     319     316
     313     318     319     320     314     309     310     305
     314     309     310     311     314     313     318     317
     314     313     318     319     314     315     316     319
     314     315     316     493     315     312     489     494
     315     312     489     490     315     316     319     318
     315     316     319     320     315     316     493     498
     315     316     493     494     316     319     320     323
     316     319     320     497     316     493     498     497
     316     493     498     499     316     493     494     489
     316     493     494     495     317     140     143     142
     317     140     143     144     317     318     319     316
     317     318     319     320     317     322     323     320
     317     322     323     324     318     313     314     309
     318     313     314     315     318     317     322     321
     318     317     322     323     318     319     320     323
     318     319     320     497     319     316     493     498
     319     316     493     494     319     320     323     322
     319     320     323     324     319     320     497     502
     319     320     497     498     320     323     324     327
     320     323     324     501     320     497     502     501
     320     497     502     503     320     497     498     493
     320     497     498     499     321     144     147     146
     321     144     147     148     321     322     323     320
     321     322     323     324     321     326     327     324
     321     326     327     328     322     317     318     313
     322     317     318     319     322     321     326     325
     322     321     326     327     322     323     324     327
     322     323     324     501     323     320     497     502
     323     320     497     498     323     324     327     326
     323     324     327     328     323     324     501     502
     323     324     501     506     324     327     328     331
     324     327     328     505     324     501     502     497
     324     501     502     503     324     501     506     505
     324     501     506     507     325     148     151     150
     325     148     151     152     325     326     327     324
     325     326     327     328     325     330     331     328
     325     330     331     332     326     321     322     317
     326     321     322     323     326     325     330     329
     326     325     330     331     326     327     328     331
     326     327     328     505     327     324     501     502
     327     324     501     506     327     328     331     330
     327     328     331     332     327     328     505     506
     327     328     505     510     328     331     332     335
     328     331     332     509     328     505     506     501
     328     505     506     507     328     505     510     509
     328     505     510     511     329     152     155     154
     329     152     155     156     329     330     331     328
     329     330     331     332     329     334     335     332
     329     334     335     336     330     325     326     321
     330     325     326     327     330     329     334     333
     330     329     334     335     330     331     332     335
     330     331     332     509     331     328     505     506
     331     328     505     510     331     332     335     334
     331     332     335     336     331     332     509     514
     331     332     509     510     332     335     336     339
     332     335     336     513     332     509     514     513
     332     509     514     515     332     509     510     505
     332     509     510     511     333     156     159     158
     333     156     159     160     333     334     335     332
     333     334     335     336     333     338     339     336
     333     338     339     340     334     329     330     325
     334     329     330     331     334     333     338     337
     334     333     338     339     334     335     336     339
     334     335     336     513     335     332     509     514
     335     332     509     510     335     336     339     338
     335     336     339     340     335     336     513     518
     335     336     513     514     336     339     340     343
     336     339     340     517     336     513     518     517
     336     513     518     519     336     513     514     509
     336     513     514     515     337     160     163     162
     337     160     163     164     337     338     339     336
     337     338     339     340     337     342     343     340
     337     342     343     344     338     333     334     329
     338     333     334     335     338     337     342     341
     338     337     342     343     338     339     340     343
     338     339     340     517     339     336     513     518
     339     336     513     514     339     340     343     342
     339     340     343     344     339     340     517     522
     339     340     517     518     340     343     344     347
     340     343     344     521     340     517     522     521
     340     517     522     523     340     517     518     513
     340     517     518     519     341     164     167     166
     341     164     167     168     341     342     343     340
     341     342     343     344     341     346     347     344
     341     346     347     348     342     337     338     333
     342     337     338     339     342     341     346     345
     342     341     346     347     342     343     344     347
     342     343     344     521     343     340     517     522
     343     340     517     518     343     344     347     346
     343     344     347     348     343     344     521     522
     343     344     521     526     344     347     348     351
     344     347     348     525     344     521     522     517
     344     521     522     523     344     521     526     525
     344     521     526     527     345     168     171     170
     345     168     171     172     345     346     347     344
     345     346     347     348     345     350     351     348
     345     350     351     352     346     341     342     337
     346     341     342     343     346     345     350     349
     346     345     350     351     346     347     348     351
     346     347     348     525     347     344     521     522
     347     344     521     526     347     348     351     350
     347     348     351     352     347     348     525     526
     347     348     525     530     348     351     352     355
     348     351     352     529     348     525     526     521
     348     525     526     527     348     525     530     529
     348     525     530     531     349     172     175     174
     349     172     175     176     349     350     351     348
     349     350     351     352     349     354     355     352
     349     354     355     356     350     345     346     341
     350     345     346     347     350     349     354     353
     350     349     354     355     350     351     352     355
     350     351     352     529     351     348     525     526
     351     348     525     530     351     352     355     354
     351     352     355     356     351     352     529     534
     351     352     529     530     352     355     356     359
     352     355     356     533     352     529     534     533
     352     529     534     535     352     529     530     525
     352     529     530     531     353     176     179     178
     353     176     179     180     353     354     355     352
     353     354     355     356     353     358     359     356
     353     358     359     360     354     349     350     345
     354     349     350     351     354     353     358     357
     354     353     358     359     354     355     356     359
     354     355     356     533     355     352     529     534
     355     352     529     530     355     356     359     358
     355     356     359     360     355     356     533     538
     355     356     533     534     356     359     360     537
     356     533     538     537     356     533     538     539
     356     533     534     529     356     533     534     535
     357     358     359     356     357     358     359     360
     358     353     354     349     358     353     354     355
     358     359     360     537     359     356     533     538
     359     356     533     534     359     360     537     538
     360     537     538     533     360     537     538     539
     361     184     187     186     361     184     187     188
     361     362     363     364     361     366     367     364
     361     366     367     368     362     361     366     365
     362     361     366     367     362     363     364     367
     362     363     364     541     363     364     367     366
     363     364     367     368     363     364     541     542
     363     364     541     546     364     367     368     371
     364     367     368     545     364     541     542     543
     364     541     546     545     364     541     546     547
     365     188     191     190     365     188     191     192
     365     366     367     364     365     366     367     368
     365     370     371     368     365     370     371     372
     366     361     362     363     366     365     370     369
     366     365     370     371     366     367     368     371
     366     367     368     545     367     364     541     542
     367     364     541     546     367     368     371     370
     367     368     371     372     367     368     545     546
     367     368     545     550     368     371     372     375
     368     371     372     549     368     545     546     541
     368     545     546     547     368     545     550     549
     368     545     550     551     369     192     195     194
     369     192     195     196     369     370     371     368
     369     370     371     372     369     374     375     372
     369     374     375     376     370     365     366     361
     370     365     366     367     370     369     374     373
     370     369     374     375     370     371     372     375
     370     371     372     549     371     368     545     546
     371     368     545     550     371     372     375     374
     371     372     375     376     371     372     549     554
     371     372     549     550     372     375     376     379
     372     375     376     553     372     549     554     553
     372     549     554     555     372     549     550     545
     372     549     550     551     373     196     199     198
     373     196     199     200     373     374     375     372
     373     374     375     376     373     378     379     376
     373     378     379     380     374     369     370     365
     374     369     370     371     374     373     378     377
     374     373     378     379     374     375     376     379
     374     375     376     553     375     372     549     554
     375     372     549     550     375     376     379     378
     375     376     379     380     375     376     553     558
     375     376     553     554     376     379     380     383
     376     379     380     557     376     553     558     557
     376     553     558     559     376     553     554     549
     376     553     554     555     377     200     203     202
     377     200     203     204     377     378     379     376
     377     378     379     380     377     382     383     380
     377     382     383     384     378     373     374     369
     378     373     374     375     378     377     382     381
     378     377     382     383     378     379     380     383
     378     379     380     557     379     376     553     558
     379     376     553     554     379     380     383     382
     379     380     383     384     379     380     557     562
     379     380     557     558     380     383     384     387
     380     383     384     561     380     557     562     561
     380     557     562     563     380     557     558     553
     380     557     558     559     381     204     207     206
     381     204     207     208     381     382     383     380
     381     382     383     384     381     386     387     384
     381     386     387     388     382     377     378     373
     382     377     378     379     382     381     386     385
     382     381     386     387     382     383     384     387
     382     383     384     561     383     380     557     562
     383     380     557     558     383     384     387     386
     383     384     387     388     383     384     561     562
     383     384     561     566     384     387     388     391
     384     387     388     565     384     561     562     557
     384     561     562     563     384     561     566     565
     384     561     566     567     385     208     211     210
     385     208     211     212     385     386     387     384
     385     386     387     388     385     390     391     388
     385     390     391     392     386     381     382     377
     386     381     382     383     386     385     390     389
     386     385     390     391     386     387     388     391
     386     387     388     565     387     384     561     562
     387     384     561     566     387     388     391     390
     387     388     391     392     387     388     565     566
     387     388     565     570     388     391     392     395
     388     391     392     569     388     565     566     561
     388     565     566     567     388     565     570     569
     388     565     570     571     389     212     215     214
     389     212     215     216     389     390     391     388
     389     390     391     392     389     394     395     392
     389     394     395     396     390     385     386     381
     390     385     386     387     390     389     394     393
     390     389     394     395     390     391     392     395
     390     391     392     569     391     388     565     566
     391     388     565     570     391     392     395     394
     391     392     395     396     391     392     569     574
     391     392     569     570     392     395     396     399
     392     395     396     573     392     569     574     573
     392     569     574     575     392     569     570     565
     392     569     570     571     393     216     219     218
     393     216     219     220     393     394     395     392
     393     394     395     396     393     398     399     396
     393     398     399     400     394     389     390     385
     394     389     390     391     394     393     398     397
     394     393     398     399     394     395     396     399
     394     395     396     573     395     392     569     574
     395     392     569     570     395     396     399     398
     395     396     399     400     395     396     573     578
     395     396     573     574     396     399     400     403
     396     399     400     577     396     573     578     577
     396     573     578     579     396     573     574     569
     396     573     574     575     397     220     223     222
     397     220     223     224     397     398     399     396
     397     398     399     400     397     402     403     400
     397     402     403     404     398     393     394     389
     398     393     394     395     398     397     402     401
     398     397     402     403     398     399     400     403
     398     399     400     577     399     396     573     578
     399     396     573     574     399     400     403     402
     399     400     403     404     399     400     577     582
     399     400     577     578     400     403     404     407
     400     403     404     581     400     577     582     581
     400     577     582     583     400     577     578     573
     400     577     578     579     401     224     227     226
     401     224     227     228     401     402     403     400
     401     402     403     404     401     406     407     404
     401     406     407     408     402     397     398     393
     402     397     398     399     402     401     406     405
     402     401     406     407     402     403     404     407
     402     403     404     581     403     400     577     582
     403     400     577     578     403     404     407     406
     403     404     407     408     403     404     581     582
     403     404     581     586     404     407     408     411
     404     407     408     585     404     581     582     577
     404     581     582     583     404     581     586     585
     404     581     586     587     405     228     231     230
     405     228     231     232     405     406     407     404
     405     406     407     408     405     410     411     408
     405     410     411     412     406     401     402     397
     406     401     402     403     406     405     410     409
     406     405     410     411     406     407     408     411
     406     407     408     585     407     404     581     582
     407     404     581     586     407     408     411     410
     407     408     411     412     407     408     585     586
     407     408     585     590     408     411     412     415
     408     411     412     589     408     585     586     581
     408     585     586     587     408     585     590     589
     408     585     590     591     409     232     235     234
     409     232     235     236     409     410     411     408
     409     410     411     412     409     414     415     412
     409     414     415     416     410     405     406     401
     410     405     406     407     410     409     414     413
     410     409     414     415     410     411     412     415
     410     411     412     589     411     408     585     586
     411     408     585     590     411     412     415     414
     411     412     415     416     411     412     589     594
     411     412     589     590     412     415     416     419
     412     415     416     593     412     589     594     593
     412     589     594     595     412     589     590     585
     412     589     590     591     413     236     239     238
     413     236     239     240     413     414     415     412
     413     414     415     416     413     418     419     416
     413     418     419     420     414     409     410     405
     414     409     410     411     414     413     418     417
     414     413     418     419     414     415     416     419
     414     415     416     593     415     412     589     594
     415     412     589     590     415     416     419     418
     415     416     419     420     415     416     593     594
     415     416     593     598     416     419     420     423
     416     419     420     597     416     593     594     589
     416     593     594     595     416     593     598     597
     416     593     598     599     417     240     243     242
     417     240     243     244     417     418     419     416
     417     418     419     420     417     422     423     420
     417     422     423     424     418     413     414     409
     418     413     414     415     418     417     422     421
     418     417     422     423     418     419     420     423
     418     419     420     597     419     416     593     594
     419     416     593     598     419     420     423     422
     419     420     423     424     419     420     597     602
     419     420     597     598     420     423     424     427
     420     423     424     601     420     597     602     601
     420     597     602     603     420     597     598     593
     420     597     598     599     421     244     247     246
     421     244     247     248     421     422     423     420
     421     422     423     424     421     426     427     424
     421     426     427     428     422     417     418     413
     422     417     418     419     422     421     426     425
     422     421     426     427     422     423     424     427
     422     423     424     601     423     420     597     602
     423     420     597     598     423     424     427     426
     423     424     427     428     423     424     601     602
     423     424     601     606     424     427     428     431
     424     427     428     605     424     601     602     597
     424     601     602     603     424     601     606     605
     424     601     606     607     425     248     251     250
     425     248     251     252     425     426     427     424
     425     426     427     428     425     430     431     428
     425     430     431     432     426     421     422     417
     426     421     422     423     426     425     430     429
     426     425     430     431     426     427     428     431
     426     427     428     605     427     424     601     602
     427     424     601     606     427     428     431     430
     427     428     431     432     427     428     605     606
     427     428     605     610     428     431     432     435
     428     431     432     609     428     605     606     601
     428     605     606     607     428     605     610     609
     428     605     610     611     429     252     255     254
     429     252     255     256     429     430     431     428
     429     430     431     432     429     434     435     432
     429     434     435     436     430     425     426     421
     430     425     426     427     430     429     434     433
     430     429     434     435     430     431     432     435
     430     431     432     609     431     428     605     606
     431     428     605     610     431     432     435     434
     431     432     435     436     431     432     609     614
     431     432     609     610     432     435     436     439
     432     435     436     613     432     609     614     613
     432     609     614     615     432     609     610     605
     432     609     610     611     433     256     259     258
     433     256     259     260     433     434     435     432
     433     434     435     436     433     438     439     436
     433     438     439     440     434     429     430     425
     434     429     430     431     434     433     438     437
     434     433     438     439     434     435     436     439
     434     435     436     613     435     432     609     614
     435     432     609     610     435     436     439     438
     435     436     439     440     435     436     613     618
     435     436     613     614     436     439     440     443
     436     439     440     617     436     613     618     617
     436     613     618     619     436     613     614     609
     436     613     614     615     437     260     263     262
     437     260     263     264     437     438     439     436
     437     438     439     440     437     442     443     440
     437     442     443     444     438     433     434     429
     438     433     434     435     438     437     442     441
     438     437     442     443     438     439     440     443
     438     439     440     617     439     436     613     618
     439     436     613     614     439     440     443     442
     439     440     443     444     439     440     617     622
     439     440     617     618     440     443     444     447
     440     443     444     621     440     617     622     621
     440     617     622     623     440     617     618     613
     440     617     618     619     441     264     267     266
     441     264     267     268     441     442     443     440
     441     442     443     444     441     446     447     444
     441     446     447     448     442     437     438     433
     442     437     438     439     442     441     446     445
     442     441     446     447     442     443     444     447
     442     443     444     621     443     440     617     622
     443     440     617     618     443     444     447     446
     443     444     447     448     443     444     621     622
     443     444     621     626     444     447     448     451
     444     447     448     625     444     621     622     617
     444     621     622     623     444     621     626     625
     444     621     626     627     445     268     271     270
     445     268     271     272     445     446     447     444
     445     446     447     448     445     450     451     448
     445     450     451     452     446     441     442     437
     446     441     442     443     446     445     450     449
     446     445     450     451     446     447     448     451
     446     447     448     625     447     444     621     622
     447     444     621     626     447     448     451     450
     447     448     451     452     447     448     625     626
     447     448     625     630     448     451     452     455
     448     451     452     629     448     625     626     621
     448     625     626     627     448     625     630     629
     448     625     630     631     449     272     275     274
     449     272     275     276     449     450     451     448
     449     450     451     452     449     454     455     452
     449     454     455     456     450     445     446     441
     450     445     446     447     450     449     454     453
     450     449     454     455     450     451     452     455
     450     451     452     629     451     448     625     626
     451     448     625     630     451     452     455     454
     451     452     455     456     451     452     629     634
     451     452     629     630     452     455     456     459
     452     455     456     633     452     629     634     633
     452     629     634     635     452     629     630     625
     452     629     630     631     453     276     279     278
     453     276     279     280     453     454     455     452
     453     454     455     456     453     458     459     456
     453     458     459     460     454     449     450     445
     454     449     450     451     454     453     458     457
     454     453     458     459     454     455     456     459
     454     455     456     633     455     452     629     634
     455     452     629     630     455     456     459     458
     455     456     459     460     455     456     633     638
     455     456     633     634     456     459     460     463
     456     459     460     637     456     633     638     637
     456     633     638     639     456     633     634     629
     456     633     634     635     457     280     283     282
     457     280     283     284     457     458     459     456
     457     458     459     460     457     462     463     460
     457     462     463     464     458     453     454     449
     458     453     454     455     458     457     462     461
     458     457     462     463     458     459     460     463
     458     459     460     637     459     456     633     638
     459     456     633     634     459     460     463     462
     459     460     463     464     459     460     637     642
     459     460     637     638     460     463     464     467
     460     463     464     641     460     637     642     641
     460     637     642     643     460     637     638     633
     460     637     638     639     461     284     287     286
     461     284     287     288     461     462     463     460
     461     462     463     464     461     466     467     464
     461     466     467     468     462     457     458     453
     462     457     458     459     462     461     466     465
     462     461     466     467     462     463     464     467
     462     463     464     641     463     460     637     642
     463     460     637     638     463     464     467     466
     463     464     467     468     463     464     641     642
     463     464     641     646     464     467     468     471
     464     467     468     645     464     641     642     637
     464     641     642     643     464     641     646     645
     464     641     646     647     465     288     291     290
     465     288     291     292     465     466     467     464
     465     466     467     468     465     470     471     468
     465     470     471     472     466     461     462     457
     466     461     462     463     466     465     470     469
     466     465     470     471     466     467     468     471
     466     467     468     645     467     464     641     642
     467     464     641     646     467     468     471     470
     467     468     471     472     467     468     645     646
     467     468     645     650     468     471     472     475
     468     471     472     649     468     645     646     641
     468     645     646     647     468     645     650     649
     468     645     650     651     469     292     295     294
     469     292     295     296     469     470     471     468
     469     470     471     472     469     474     475     472
     469     474     475     476     470     465     466     461
     470     465     466     467     470     469     474     473
     470     469     474     475     470     471     472     475
     470     471     472     649     471     468     645     646
     471     468     645     650     471     472     475     474
     471     472     475     476     471     472     649     654
     471     472     649     650     472     475     476     479
     472     475     476     653     472     649     654     653
     472     649     654     655     472     649     650     645
     472     649     650     651     473     296     299     298
     473     296     299     300     473     474     475     472
     473     474     475     476     473     478     479     476
     473     478     479     480     474     469     470     465
     474     469     470     471     474     473     478     477
     474     473     478     479     474     475     476     479
     474     475     476     653     475     472     649     654
     475     472     649     650     475     476     479     478
     475     476     479     480     475     476     653     658
     475     476     653     654     476     479     480     483
     476     479     480     657     476     653     658     657
     476     653     658     659     476     653     654     649
     476     653     654     655     477     300     303     302
     477     300     303     304     477     478     479     476
     477     478     479     480     477     482     483     480
     477     482     483     484     478     473     474     469
     478     473     474     475     478     477     482     481
     478     477     482     483     478     479     480     483
     478     479     480     657     479     476     653     658
     479     476     653     654     479     480     483     482
     479     480     483     484     479     480     657     662
     479     480     657     658     480     483     484     487
     480     483     484     661     480     657     662     661
     480     657     662     663     480     657     658     653
     480     657     658     659     481     304     307     306
     481     304     307     308     481     482     483     480
     481     482     483     484     481     486     487     484
     481     486     487     488     482     477     478     473
     482     477     478     479     482     481     486     485
     482     481     486     487     482     483     484     487
     482     483     484     661     483     480     657     662
     483     480     657     658     483     484     487     486
     483     484     487     488     483     484     661     662
     483     484     661     666     484     487     488     491
     484     487     488     665     484     661     662     657
     484     661     662     663     484     661     666     665
     484     661     666     667     485     308     311     310
     485     308     311     312     485     486     487     484
     485     486     487     488     485     490     491     488
     485     490     491     492     486     481     482     477
     486     481     482     483     486     485     490     489
     486     485     490     491     486     487     488     491
     486     487     488     665     487     484     661     662
     487     484     661     666     487     488     491     490
     487     488     491     492     487     488     665     666
     487     488     665     670     488     491     492     495
     488     491     492     669     488     665     666     661
     488     665     666     667     488     665     670     669
     488     665     670     671     489     312     315     314
     489     312     315     316     489     490     491     488
     489     490     491     492     489     494     495     492
     489     494     495     496     490     485     486     481
     490     485     486     487     490     489     494     493
     490     489     494     495     490     491     492     495
     490     491     492     669     491     488     665     666
     491     488     665     670     491     492     495     494
     491     492     495     496     491     492     669     674
     491     492     669     670     492     495     496     499
     492     495     496     673     492     669     674     673
     492     669     674     675     492     669     670     665
     492     669     670     671     493     316     319     318
     493     316     319     320     493     494     495     492
     493     494     495     496     493     498     499     496
     493     498     499     500     494     489     490     485
     494     489     490     491     494     493     498     497
     494     493     498     499     494     495     496     499
     494     495     496     673     495     492     669     674
     495     492     669     670     495     496     499     498
     495     496     499     500     495     496     673     678
     495     496     673     674     496     499     500     503
     496     499     500     677     496     673     678     677
     496     673     678     679     496     673     674     669
     496     673     674     675     497     320     323     322
     497     320     323     324     497     498     499     496
     497     498     499     500     497     502     503     500
     497     502     503     504     498     493     494     489
     498     493     494     495     498     497     502     501
     498     497     502     503     498     499     500     503
     498     499     500     677     499     496     673     678
     499     496     673     674     499     500     503     502
     499     500     503     504     499     500     677     682
     499     500     677     678     500     503     504     507
     500     503     504     681     500     677     682     681
     500     677     682     683     500     677     678     673
     500     677     678     679     501     324     327     326
     501     324     327     328     501     502     503     500
     501     502     503     504     501     506     507     504
     501     506     507     508     502     497     498     493
     502     497     498     499     502     501     506     505
     502     501     506     507     502     503     504     507
     502     503     504     681     503     500     677     682
     503     500     677     678     503     504     507     506
     503     504     507     508     503     504     681     682
     503     504     681     686     504     507     508     511
     504     507     508     685     504     681     682     677
     504     681     682     683     504     681     686     685
     504     681     686     687     505     328     331     330
     505     328     331     332     505     506     507     504
     505     506     507     508     505     510     511     508
     505     510     511     512     506     501     502     497
     506     501     502     503     506     505     510     509
     506     505     510     511     506     507     508     511
     506     507     508     685     507     504     681     682
     507     504     681     686     507     508     511     510
     507     508     511     512     507     508     685     686
     507     508     685     690     508     511     512     515
     508     511     512     689     508     685     686     681
     508     685     686     687     508     685     690     689
     508     685     690     691     509     332     335     334
     509     332     335     336     509     510     511     508
     509     510     511     512     509     514     515     512
     509     514     515     516     510     505     506     501
     510     505     506     507     510     509     514     513
     510     509     514     515     510     511     512     515
     510     511     512     689     511     508     685     686
     511     508     685     690     511     512     515     514
     511     512     515     516     511     512     689     694
     511     512     689     690     512     515     516     519
     512     515     516     693     512     689     694     693
     512     689     694     695     512     689     690     685
     512     689     690     691     513     336     339     338
     513     336     339     340     513     514     515     512
     513     514     515     516     513     518     519     516
     513     518     519     520     514     509     510     505
     514     509     510     511     514     513     518     517
     514     513     518     519     514     515     516     519
     514     515     516     693     515     512     689     694
     515     512     689     690     515     516     519     518
     515     516     519     520     515     516     693     698
     515     516     693     694     516     519     520     523
     516     519     520     697     516     693     698     697
     516     693     698     699     516     693     694     689
     516     693     694     695     517     340     343     342
     517     340     343     344     517     518     519     516
     517     518     519     520     517     522     523     520
     517     522     523     524     518     513     514     509
     518     513     514     515     518     517     522     521
     518     517     522     523     518     519     520     523
     518     519     520     697     519     516     693     698
     519     516     693     694     519     520     523     522
     519     520     523     524     519     520     697     702
     519     520     697     698     520     523     524     527
     520     523     524     701     520     697     702     701
     520     697     702     703     520     697     698     693
     520     697     698     699     521     344     347     346
     521     344     347     348     521     522     523     520
     521     522     523     524     521     526     527     524
     521     526     527     528     522     517     518     513
     522     517     518     519     522     521     526     525
     522     521     526     527     522     523     524     527
     522     523     524     701     523     520     697     702
     523     520     697     698     523     524     527     526
     523     524     527     528     523     524     701     702
     523     524     701     706     524     527     528     531
     524     527     528     705     524     701     702     697
     524     701     702     703     524     701     706     705
     524     701     706     707     525     348     351     350
     525     348     351     352     525     526     527     524
     525     526     527     528     525     530     531     528
     525     530     531     532     526     521     522     517
     526     521     522     523     526     525     530     529
     526     525     530     531     526     527     528     531
     526     527     528     705     527     524     701     702
     527     524     701     706     527     528     531     530
     527     528     531     532     527     528     705     706
     527     528     705     710     528     531     532     535
     528     531     532     709     528     705     706     701
     528     705     706     707     528     705     710     709
     528     705     710     711     529     352     355     354
     529     352     355     356     529     530     531     528
     529     530     531     532     529     534     535     532
     529     534     535     536     530     525     526     521
     530     525     526     527     530     529     534     533
     530     529     534     535     530     531     532     535
     530     531     532     709     531     528     705     706
     531     528     705     710     531     532     535     534
     531     532     535     536     531     532     709     714
     531     532     709     710     532     535     536     539
     532     535     536     713     532     709     714     713
     532     709     714     715     532     709     710     705
     532     709     710     711     533     356     359     358
     533     356     359     360     533     534     535     532
     533     534     535     536     533     538     539     536
     533     538     539     540     534     529     530     525
     534     529     530     531     534     533     538     537
     534     533     538     539     534     535     536     539
     534     535     536     713     535     532     709     714
     535     532     709     710     535     536     539     538
     535     536     539     540     535     536     713     718
     535     536     713     714     536     539     540     717
     536     713     718     717     536     713     718     719
     536     713     714     709     536     713     714     715
     537     538     539     536     537     538     539     540
     538     533     534     529     538     533     534     535
     538     539     540     717     539     536     713     718
     539     536     713     714     539     540     717     718
     540     717     718     713     540     717     718     719
     541     364     367     366     541     364     367     368
     541     542     543     544     541     546     547     544
     541     546     547     548     542     541     546     545
     542     541     546     547     542     543     544     547
     542     543     544     721     543     544     547     546
     543     544     547     548     543     544     721     722
     543     544     721     726     544     547     548     551
     544     547     548     725     544     721     722     723
     544     721     726     725     544     721     726     727
     545     368     371     370     545     368     371     372
     545     546     547     544     545     546     547     548
     545     550     551     548     545     550     551     552
     546     541     542     543     546     545     550     549
     546     545     550     551     546     547     548     551
     546     547     548     725     547     544     721     722
     547     544     721     726     547     548     551     550
     547     548     551     552     547     548     725     726
     547     548     725     730     548     551     552     555
     548     551     552     729     548     725     726     721
     548     725     726     727     548     725     730     729
     548     725     730     731     549     372     375     374
     549     372     375     376     549     550     551     548
     549     550     551     552     549     554     555     552
     549     554     555     556     550     545     546     541
     550     545     546     547     550     549     554     553
     550     549     554     555     550     551     552     555
     550     551     552     729     551     548     725     726
     551     548     725     730     551     552     555     554
     551     552     555     556     551     552     729     734
     551     552     729     730     552     555     556     559
     552     555     556     733     552     729     734     733
     552     729     734     735     552     729     730     725
     552     729     730     731     553     376     379     378
     553     376     379     380     553     554     555     552
     553     554     555     556     553     558     559     556
     553     558     559     560     554     549     550     545
     554     549     550     551     554     553     558     557
     554     553     558     559     554     555     556     559
     554     555     556     733     555     552     729     734
     555     552     729     730     555     556     559     558
     555     556     559     560     555     556     733     738
     555     556     733     734     556     559     560     563
     556     559     560     737     556     733     738     737
     556     733     738     739     556     733     734     729
     556     733     734     735     557     380     383     382
     557     380     383     384     557     558     559     556
     557     558     559     560     557     562     563     560
     557     562     563     564     558     553     554     549
     558     553     554     555     558     557     562     561
     558     557     562     563     558     559     560     563
     558     559     560     737     559     556     733     738
     559     556     733     734     559     560     563     562
     559     560     563     564     559     560     737     742
     559     560     737     738     560     563     564     567
     560     563     564     741     560     737     742     741
     560     737     742     743     560     737     738     733
     560     737     738     739     561     384     387     386
     561     384     387     388     561     562     563     560
     561     562     563     564     561     566     567     564
     561     566     567     568     562     557     558     553
     562     557     558     559     562     561     566     565
     562     561     566     567     562     563     564     567
     562     563     564     741     563     560     737     742
     563     560     737     738     563     564     567     566
     563     564     567     568     563     564     741     742
     563     564     741     746     564     567     568     571
     564     567     568     745     564     741     742     737
     564     741     742     743     564     741     746     745
     564     741     746     747     565     388     391     390
     565     388     391     392     565     566     567     564
     565     566     567     568     565     570     571     568
     565     570     571     572     566     561     562     557
     566     561     562     563     566     565     570     569
     566     565     570     571     566     567     568     571
     566     567     568     745     567     564     741     742
     567     564     741     746     567     568     571     570
     567     568     571     572     567     568     745     746
     567     568     745     750     568     571     572     575
     568     571     572     749     568     745     746     741
     568     745     746     747     568     745     750     749
     568     745     750     751     569     392     395     394
     569     392     395     396     569     570     571     568
     569     570     571     572     569     574     575     572
     569     574     575     576     570     565     566     561
     570     565     566     567     570     569     574     573
     570     569     574     575     570     571     572     575
     570     571     572     749     571     568     745     746
     571     568     745     750     571     572     575     574
     571     572     575     576     571     572     749     754
     571     572     749     750     572     575     576     579
     572     575     576     753     572     749     754     753
     572     749     754     755     572     749     750     745
     572     749     750     751     573     396     399     398
     573     396     399     400     573     574     575     572
     573     574     575     576     573     578     579     576
     573     578     579     580     574     569     570     565
     574     569     570     571     574     573     578     577
     574     573     578     579     574     575     576     579
     574     575     576     753     575     572     749     754
     575     572     749     750     575     576     579     578
     575     576     579     580     575     576     753     758
     575     576     753     754     576     579     580     583
     576     579     580     757     576     753     758     757
     576     753     758     759     576     753     754     749
     576     753     754     755     577     400     403     402
     577     400     403     404     577     578     579     576
     577     578     579     580     577     582     583     580
     577     582     583     584     578     573     574     569
     578     573     574     575     578     577     582     581
     578     577     582     583     578     579     580     583
     578     579     580     757     579     576     753     758
     579     576     753     754     579     580     583     582
     579     580     583     584     579     580     757     762
     579     580     757     758     580     583     584     587
     580     583     584     761     580     757     762     761
     580     757     762     763     580     757     758     753
     580     757     758     759     581     404     407     406
     581     404     407     408     581     582     583     580
     581     582     583     584     581     586     587     584
     581     586     587     588     582     577     578     573
     582     577     578     579     582     581     586     585
     582     581     586     587     582     583     584     587
     582     583     584     761     583     580     757     762
     583     580     757     758     583     584     587     586
     583     584     587     588     583     584     761     762
     583     584     761     766     584     587     588     591
     584     587     588     765     584     761     762     757
     584     761     762     763     584     761     766     765
     584     761     766     767     585     408     411     410
     585     408     411     412     585     586     587     584
     585     586     587     588     585     590     591     588
     585     590     591     592     586     581     582     577
     586     581     582     583     586     585     590     589
     586     585     590     591     586     587     588     591
     586     587     588     765     587     584     761     762
     587     584     761     766     587     588     591     590
     587     588     591     592     587     588     765     766
     587     588     765     770     588     591     592     595
     588     591     592     769     588     765     766     761
     588     765     766     767     588     765     770     769
     588     765     770     771     589     412     415     414
     589     412     415     416     589     590     591     588
     589     590     591     592     589     594     595     592
     589     594     595     596     590     585     586     581
     590     585     586     587     590     589     594     593
     590     589     594     595     590     591     592     595
     590     591     592     769     591     588     765     766
     591     588     765     770     591     592     595     594
     591     592     595     596     591     592     769     774
     591     592     769     770     592     595     596     599
     592     595     596     773     592     769     774     773
     592     769     774     775     592     769     770     765
     592     769     770     771     593     416     419     418
     593     416     419     420     593     594     595     592
     593     594     595     596     593     598     599     596
     593     598     599     600     594     589     590     585
     594     589     590     591     594     593     598     597
     594     593     598     599     594     595     596     599
     594     595     596     773     595     592     769     774
     595     592     769     770     595     596     599     598
     595     596     599     600     595     596     773     778
     595     596     773     774     596     599     600     603
     596     599     600     777     596     773     778     777
     596     773     778     779     596     773     774     769
     596     773     774     775     597     420     423     422
     597     420     423     424     597     598     599     596
     597     598     599     600     597     602     603     600
     597     602     603     604     598     593     594     589
     598     593     594     595     598     597     602     601
     598     597     602     603     598     599     600     603
     598     599     600     777     599     596     773     778
     599     596     773     774     599     600     603     602
     599     600     603     604     599     600     777     782
     599     600     777     778     600     603     604     607
     600     603     604     781     600     777     782     781
     600     777     782     783     600     777     778     773
     600     777     778     779     601     424     427     426
     601     424     427     428     601     602     603     600
     601     602     603     604     601     606     607     604
     601     606     607     608     602     597     598     593
     602     597     598     599     602     601     606     605
     602     601     606     607     602     603     604     607
     602     603     604     781     603     600     777     782
     603     600     777     778     603     604     607     606
     603     604     607     608     603     604     781     782
     603     604     781     786     604     607     608     611
     604     607     608     785     604     781     782     777
     604     781     782     783     604     781     786     785
     604     781     786     787     605     428     431     430
     605     428     431     432     605     606     607     604
     605     606     607     608     605     610     611     608
     605     610     611     612     606     601     602     597
     606     601     602     603     606     605     610     609
     606     605     610     611     606     607     608     611
     606     607     608     785     607     604     781     782
     607     604     781     786     607     608     611     610
     607     608     611     612     607     608     785     786
     607     608     785     790     608     611     612     615
     608     611     612     789     608     785     786     781
     608     785     786     787     608     785     790     789
     608     785     790     791     609     432     435     434
     609     432     435     436     609     610     611     608
     609     610     611     612     609     614     615     612
     609     614     615     616     610     605     606     601
     610     605     606     607     610     609     614     613
     610     609     614     615     610     611     612     615
     610     611     612     789     611     608     785     786
     611     608     785     790     611     612     615     614
     611     612     615     616     611     612     789     794
     611     612     789     790     612     615     616     619
     612     615     616     793     612     789     794     793
     612     789     794     795     612     789     790     785
     612     789     790     791     613     436     439     438
     613     436     439     440     613     614     615     612
     613     614     615     616     613     618     619     616
     613     618     619     620     614     609     610     605
     614     609     610     611     614     613     618     617
     614     613     618     619     614     615     616     619
     614     615     616     793     615     612     789     794
     615     612     789     790     615     616     619     618
     615     616     619     620     615     616     793     798
     615     616     793     794     616     619     620     623
     616     619     620     797     616     793     798     797
     616     793     798     799     616     793     794     789
     616     793     794     795     617     440     443     442
     617     440     443     444     617     618     619     616
     617     618     619     620     617     622     623     620
     617     622     623     624     618     613     614     609
     618     613     614     615     618     617     622     621
     618     617     622     623     618     619     620     623
     618     619     620     797     619     616     793     798
     619     616     793     794     619     620     623     622
     619     620     623     624     619     620     797     802
     619     620     797     798     620     623     624     627
     620     623     624     801     620     797     802     801
     620     797     802     803     620     797     798     793
     620     797     798     799     621     444     447     446
     621     444     447     448     621     622     623     620
     621     622     623     624     621     626     627     624
     621     626     627     628     622     617     618     613
     622     617     618     619     622     621     626     625
     622     621     626     627     622     623     624     627
     622     623     624     801     623     620     797     802
     623     620     797     798     623     624     627     626
     623     624     627     628     623     624     801     802
     623     624     801     806     624     627     628     631
     624     627     628     805     624     801     802     797
     624     801     802     803     624     801     806     805
     624     801     806     807     625     448     451     450
     625     448     451     452     625     626     627     624
     625     626     627     628     625     630     631     628
     625     630     631     632     626     621     622     617
     626     621     622     623     626     625     630     629
     626     625     630     631     626     627     628     631
     626     627     628     805     627     624     801     802
     627     624     801     806     627     628     631     630
     627     628     631     632     627     628     805     806
     627     628     805     810     628     631     632     635
     628     631     632     809     628     805     806     801
     628     805     806     807     628     805     810     809
     628     805     810     811     629     452     455     454
     629     452     455     456     629     630     631     628
     629     630     631     632     629     634     635     632
     629     634     635     636     630     625     626     621
     630     625     626     627     630     629     634     633
     630     629     634     635     630     631     632     635
     630     631     632     809     631     628     805     806
     631     628     805     810     631     632     635     634
     631     632     635     636     631     632     809     814
     631     632     809     810     632     635     636     639
     632     635     636     813     632     809     814     813
     632     809     814     815     632     809     810     805
     632     809     810     811     633     456     459     458
     633     456     459     460     633     634     635     632
     633     634     635     636     633     638     639     636
     633     638     639     640     634     629     630     625
     634     629     630     631     634     633     638     637
     634     633     638     639     634     635     636     639
     634     635     636     813     635     632     809     814
     635     632     809     810     635     636     639     638
     635     636     639     640     635     636     813     814
     635     636     813     818     636     639     640     643
     636     639     640     817     636     813     814     809
     636     813     814     815     636     813     818     817
     636     813     818     819     637     460     463     462
     637     460     463     464     637     638     639     636
     637     638     639     640     637     642     643     640
     637     642     643     644     638     633     634     629
     638     633     634     635     638     637     642     641
     638     637     642     643     638     639     640     643
     638     639     640     817     639     636     813     814
     639     636     813     818     639     640     643     642
     639     640     643     644     639     640     817     822
     639     640     817     818     640     643     644     647
     640     643     644     821     640     817     822     821
     640     817     822     823     640     817     818     813
     640     817     818     819     641     464     467     466
     641     464     467     468     641     642     643     640
     641     642     643     644     641     646     647     644
     641     646     647     648     642     637     638     633
     642     637     638     639     642     641     646     645
     642     641     646     647     642     643     644     647
     642     643     644     821     643     640     817     822
     643     640     817     818     643     644     647     646
     643     644     647     648     643     644     821     822
     643     644     821     826     644     647     648     651
     644     647     648     825     644     821     822     817
     644     821     822     823     644     821     826     825
     644     821     826     827     645     468     471     470
     645     468     471     472     645     646     647     644
     645     646     647     648     645     650     651     648
     645     650     651     652     646     641     642     637
     646     641     642     643     646     645     650     649
     646     645     650     651     646     647     648     651
     646     647     648     825     647     644     821     822
     647     644     821     826     647     648     651     650
     647     648     651     652     647     648     825     826
     647     648     825     830     648     651     652     655
     648     651     652     829     648     825     826     821
     648     825     826     827     648     825     830     829
     648     825     830     831     649     472     475     474
     649     472     475     476     649     650     651     648
     649     650     651     652     649     654     655     652
     649     654     655     656     650     645     646     641
     650     645     646     647     650     649     654     653
     650     649     654     655     650     651     652     655
     650     651     652     829     651     648     825     826
     651     648     825     830     651     652     655     654
     651     652     655     656     651     652     829     834
     651     652     829     830     652     655     656     659
     652     655     656     833     652     829     834     833
     652     829     834     835     652     829     830     825
     652     829     830     831     653     476     479     478
     653     476     479     480     653     654     655     652
     653     654     655     656     653     658     659     656
     653     658     659     660     654     649     650     645
     654     649     650     651     654     653     658     657
     654     653     658     659     654     655     656     659
     654     655     656     833     655     652     829     834
     655     652     829     830     655     656     659     658
     655     656     659     660     655     656     833     838
     655     656     833     834     656     659     660     663
     656     659     660     837     656     833     838     837
     656     833     838     839     656     833     834     829
     656     833     834     835     657     480     483     482
     657     480     483     484     657     658     659     656
     657     658     659     660     657     662     663     660
     657     662     663     664     658     653     654     649
     658     653     654     655     658     657     662     661
     658     657     662     663     658     659     660     663
     658     659     660     837     659     656     833     838
     659     656     833     834     659     660     663     662
     659     660     663     664     659     660     837     842
     659     660     837     838     660     663     664     667
     660     663     664     841     660     837     842     841
     660     837     842     843     660     837     838     833
     660     837     838     839     661     484     487     486
     661     484     487     488     661     662     663     660
     661     662     663     664     661     666     667     664
     661     666     667     668     662     657     658     653
     662     657     658     659     662     661     666     665
     662     661     666     667     662     663     664     667
     662     663     664     841     663     660     837     842
     663     660     837     838     663     664     667     666
     663     664     667     668     663     664     841     842
     663     664     841     846     664     667     668     671
     664     667     668     845     664     841     842     837
     664     841     842     843     664     841     846     845
     664     841     846     847     665     488     491     490
     665     488     491     492     665     666     667     664
     665     666     667     668     665     670     671     668
     665     670     671     672     666     661     662     657
     666     661     662     663     666     665     670     669
     666     665     670     671     666     667     668     671
     666     667     668     845     667     664     841     842
     667     664     841     846     667     668     671     670
     667     668     671     672     667     668     845     846
     667     668     845     850     668     671     672     675
     668     671     672     849     668     845     846     841
     668     845     846     847     668     845     850     849
     668     845     850     851     669     492     495     494
     669     492     495     496     669     670     671     668
     669     670     671     672     669     674     675     672
     669     674     675     676     670     665     666     661
     670     665     666     667     670     669     674     673
     670     669     674     675     670     671     672     675
     670     671     672     849     671     668     845     846
     671     668     845     850     671     672     675     674
     671     672     675     676     671     672     849     854
     671     672     849     850     672     675     676     679
     672     675     676     853     672     849     854     853
     672     849     854     855     672     849     850     845
     672     849     850     851     673     496     499     498
     673     496     499     500     673     674     675     672
     673     674     675     676     673     678     679     676
     673     678     679     680     674     669     670     665
     674     669     670     671     674     673     678     677
     674     673     678     679     674     675     676     679
     674     675     676     853     675     672     849     854
     675     672     849     850     675     676     679     678
     675     676     679     680     675     676     853     858
     675     676     853     854     676     679     680     683
     676     679     680     857     676     853     858     857
     676     853     858     859     676     853     854     849
     676     853     854     855     677     500     503     502
     677     500     503     504     677     678     679     676
     677     678     679     680     677     682     683     680
     677     682     683     684     678     673     674     669
     678     673     674     675     678     677     682     681
     678     677     682     683     678     679     680     683
     678     679     680     857     679     676     853     858
     679     676     853     854     679     680     683     682
     679     680     683     684     679     680     857     862
     679     680     857     858     680     683     684     687
     680     683     684     861     680     857     862     861
     680     857     862     863     680     857     858     853
     680     857     858     859     681     504     507     506
     681     504     507     508     681     682     683     680
     681     682     683     684     681     686     687     684
     681     686     687     688     682     677     678     673
     682     677     678     679     682     681     686     685
     682     681     686     687     682     683     684     687
     682     683     684     861     683     680     857     862
     683     680     857     858     683     684     687     686
     683     684     687     688     683     684     861     862
     683     684     861     866     684     687     688     691
     684     687     688     865     684     861     862     857
     684     861     862     863     684     861     866     865
     684     861     866     867     685     508     511     510
     685     508     511     512     685     686     687     684
     685     686     687     688     685     690     691     688
     685     690     691     692     686     681     682     677
     686     681     682     683     686     685     690     689
     686     685     690     691     686     687     688     691
     686     687     688     865     687     684     861     862
     687     684     861     866     687     688     691     690
     687     688     691     692     687     688     865     866
     687     688     865     870     688     691     692     695
     688     691     692     869     688     865     866     861
     688     865     866     867     688     865     870     869
     688     865     870     871     689     512     515     514
     689     512     515     516     689     690     691     688
     689     690     691     692     689     694     695     692
     689     694     695     696     690     685     686     681
     690     685     686     687     690     689     694     693
     690     689     694     695     690     691     692     695
     690     691     692     869     691     688     865     866
     691     688     865     870     691     692     695     694
     691     692     695     696     691     692     869     874
     691     692     869     870     692     695     696     699
     692     695     696     873     692     869     874     873
     692     869     874     875     692     869     870     865
     692     869     870     871     693     516     519     518
     693     516     519     520     693     694     695     692
     693     694     695     696     693     698     699     696
     693     698     699     700     694     689     690     685
     694     689     690     691     694     693     698     697
     694     693     698     699     694     695     696     699
     694     695     696     873     695     692     869     874
     695     692     869     870     695     696     699     698
     695     696     699     700     695     696     873     878
     695     696     873     874     696     699     700     703
     696     699     700     877     696     873     878     877
     696     873     878     879     696     873     874     869
     696     873     874     875     697     520     523     522
     697     520     523     524     697     698     699     696
     697     698     699     700     697     702     703     700
     697     702     703     704     698     693     694     689
     698     693     694     695     698     697     702     701
     698     697     702     703     698     699     700     703
     698     699     700     877     699     696     873     878
     699     696     873     874     699     700     703     702
     699     700     703     704     699     700     877     882
     699     700     877     878     700     703     704     707
     700     703     704     881     700     877     882     881
     700     877     882     883     700     877     878     873
     700     877     878     879     701     524     527     526
     701     524     527     528     701     702     703     700
     701     702     703     704     701     706     707     704
     701     706     707     708     702     697     698     693
     702     697     698     699     702     701     706     705
     702     701     706     707     702     703     704     707
     702     703     704     881     703     700     877     882
     703     700     877     878     703     704     707     706
     703     704     707     708     703     704     881     882
     703     704     881     886     704     707     708     711
     704     707     708     885     704     881     882     877
     704     881     882     883     704     881     886     885
     704     881     886     887     705     528     531     530
     705     528     531     532     705     706     707     704
     705     706     707     708     705     710     711     708
     705     710     711     712     706     701     702     697
     706     701     702     703     706     705     710     709
     706     705     710     711     706     707     708     711
     706     707     708     885     707     704     881     882
     707     704     881     886     707     708     711     710
     707     708     711     712     707     708     885     886
     707     708     885     890     708     711     712     715
     708     711     712     889     708     885     886     881
     708     885     886     887     708     885     890     889
     708     885     890     891     709     532     535     534
     709     532     535     536     709     710     711     708
     709     710     711     712     709     714     715     712
     709     714     715     716     710     705     706     701
     710     705     706     707     710     709     714     713
     710     709     714     715     710     711     712     715
     710     711     712     889     711     708     885     886
     711     708     885     890     711     712     715     714
     711     712     715     716     711     712     889     894
     711     712     889     890     712     715     716     719
     712     715     716     893     712     889     894     893
     712     889     894     895     712     889     890     885
     712     889     890     891     713     536     539     538
     713     536     539     540     713     714     715     712
     713     714     715     716     713     718     719     716
     713     718     719     720     714     709     710     705
     714     709     710     711     714     713     718     717
     714     713     718     719     714     715     716     719
     714     715     716     893     715     712     889     894
     715     712     889     890     715     716     719     718
     715     716     719     720     715     716     893     898
     715     716     893     894     716     719     720     897
     716     893     898     897     716     893     898     899
     716     893     894     889     716     893     894     895
     717     718     719     716     717     718     719     720
     718     713     714     709     718     713     714     715
     718     719     720     897     719     716     893     898
     719     716     893     894     719     720     897     898
     720     897     898     893     720     897     898     899
     721     544     547     546     721     544     547     548
     721     722     723     724     721     726     727     724
     721     726     727     728     722     721     726     725
     722     721     726     727     722     723     724     727
     722     723     724     901     723     724     727     726
     723     724     727     728     723     724     901     902
     723     724     901     906     724     727     728     731
     724     727     728     905     724     901     902     903
     724     901     906     905     724     901     906     907
     725     548     551     550     725     548     551     552
     725     726     727     724     725     726     727     728
     725     730     731     728     725     730     731     732
     726     721     722     723     726     725     730     729
     726     725     730     731     726     727     728     731
     726     727     728     905     727     724     901     902
     727     724     901     906     727     728     731     730
     727     728     731     732     727     728     905     906
     727     728     905     910     728     731     732     735
     728     731     732     909     728     905     906     901
     728     905     906     907     728     905     910     909
     728     905     910     911     729     552     555     554
     729     552     555     556     729     730     731     728
     729     730     731     732     729     734     735     732
     729     734     735     736     730     725     726     721
     730     725     726     727     730     729     734     733
     730     729     734     735     730     731     732     735
     730     731     732     909     731     728     905     906
     731     728     905     910     731     732     735     734
     731     732     735     736     731     732     909     914
     731     732     909     910     732     735     736     739
     732     735     736     913     732     909     914     913
     732     909     914     915     732     909     910     905
     732     909     910     911     733     556     559     558
     733     556     559     560     733     734     735     732
     733     734     735     736     733     738     739     736
     733     738     739     740     734     729     730     725
     734     729     730     731     734     733     738     737
     734     733     738     739     734     735     736     739
     734     735     736     913     735     732     909     914
     735     732     909     910     735     736     739     738
     735     736     739     740     735     736     913     918
     735     736     913     914     736     739     740     743
     736     739     740     917     736     913     918     917
     736     913     918     919     736     913     914     909
     736     913     914     915     737     560     563     562
     737     560     563     564     737     738     739     736
     737     738     739     740     737     742     743     740
     737     742     743     744     738     733     734     729
     738     733     734     735     738     737     742     741
     738     737     742     743     738     739     740     743
     738     739     740     917     739     736     913     918
     739     736     913     914     739     740     743     742
     739     740     743     744     739     740     917     922
     739     740     917     918     740     743     744     747
     740     743     744     921     740     917     922     921
     740     917     922     923     740     917     918     913
     740     917     918     919     741     564     567     566
     741     564     567     568     741     742     743     740
     741     742     743     744     741     746     747     744
     741     746     747     748     742     737     738     733
     742     737     738     739     742     741     746     745
     742     741     746     747     742     743     744     747
     742     743     744     921     743     740     917     922
     743     740     917     918     743     744     747     746
     743     744     747     748     743     744     921     922
     743     744     921     926     744     747     748     751
     744     747     748     925     744     921     922     917
     744     921     922     923     744     921     926     925
     744     921     926     927     745     568     571     570
     745     568     571     572     745     746     747     744
     745     746     747     748     745     750     751     748
     745     750     751     752     746     741     742     737
     746     741     742     743     746     745     750     749
     746     745     750     751     746     747     748     751
     746     747     748     925     747     744     921     922
     747     744     921     926     747     748     751     750
     747     748     751     752     747     748     925     926
     747     748     925     930     748     751     752     755
     748     751     752     929     748     925     926     921
     748     925     926     927     748     925     930     929
     748     925     930     931     749     572     575     574
     749     572     575     576     749     750     751     748
     749     750     751     752     749     754     755     752
     749     754     755     756     750     745     746     741
     750     745     746     747     750     749     754     753
     750     749     754     755     750     751     752     755
     750     751     752     929     751     748     925     926
     751     748     925     930     751     752     755     754
     751     752     755     756     751     752     929     934
     751     752     929     930     752     755     756     759
     752     755     756     933     752     929     934     933
     752     929     934     935     752     929     930     925
     752     929     930     931     753     576     579     578
     753     576     579     580     753     754     755     752
     753     754     755     756     753     758     759     756
     753     758     759     760     754     749     750     745
     754     749     750     751     754     753     758     757
     754     753     758     759     754     755     756     759
     754     755     756     933     755     752     929     934
     755     752     929     930     755     756     759     758
     755     756     759     760     755     756     933     938
     755     756     933     934     756     759     760     763
     756     759     760     937     756     933     938     937
     756     933     938     939     756     933     934     929
     756     933     934     935     757     580     583     582
     757     580     583     584     757     758     759     756
     757     758     759     760     757     762     763     760
     757     762     763     764     758     753     754     749
     758     753     754     755     758     757     762     761
     758     757     762     763     758     759     760     763
     758     759     760     937     759     756     933     938
     759     756     933     934     759     760     763     762
     759     760     763     764     759     760     937     942
     759     760     937     938     760     763     764     767
     760     763     764     941     760     937     942     941
     760     937     942     943     760     937     938     933
     760     937     938     939     761     584     587     586
     761     584     587     588     761     762     763     760
     761     762     763     764     761     766     767     764
     761     766     767     768     762     757     758     753
     762     757     758     759     762     761     766     765
     762     761     766     767     762     763     764     767
     762     763     764     941     763     760     937     942
     763     760     937     938     763     764     767     766
     763     764     767     768     763     764     941     942
     763     764     941     946     764     767     768     771
     764     767     768     945     764     941     942     937
     764     941     942     943     764     941     946     945
     764     941     946     947     765     588     591     590
     765     588     591     592     765     766     767     764
     765     766     767     768     765     770     771     768
     765     770     771     772     766     761     762     757
     766     761     762     763     766     765     770     769
     766     765     770     771     766     767     768     771
     766     767     768     945     767     764     941     942
     767     764     941     946     767     768     771     770
     767     768     771     772     767     768     945     946
     767     768     945     950     768     771     772     775
     768     771     772     949     768     945     946     941
     768     945     946     947     768     945     950     949
     768     945     950     951     769     592     595     594
     769     592     595     596     769     770     771     768
     769     770     771     772     769     774     775     772
     769     774     775     776     770     765     766     761
     770     765     766     767     770     769     774     773
     770     769     774     775     770     771     772     775
     770     771     772     949     771     768     945     946
     771     768     945     950     771     772     775     774
     771     772     775     776     771     772     949     954
     771     772     949     950     772     775     776     779
     772     775     776     953     772     949     954     953
     772     949     954     955     772     949     950     945
     772     949     950     951     773     596     599     598
     773     596     599     600     773     774     775     772
     773     774     775     776     773     778     779     776
     773     778     779     780     774     769     770     765
     774     769     770     771     774     773     778     777
     774     773     778     779     774     775     776     779
     774     775     776     953     775     772     949     954
     775     772     949     950     775     776     779     778
     775     776     779     780     775     776     953     958
     775     776     953     954     776     779     780     783
     776     779     780     957     776     953     958     957
     776     953     958     959     776     953     954     949
     776     953     954     955     777     600     603     602
     777     600     603     604     777     778     779     776
     777     778     779     780     777     782     783     780
     777     782     783     784     778     773     774     769
     778     773     774     775     778     777     782     781
     778     777     782     783     778     779     780     783
     778     779     780     957     779     776     953     958
     779     776     953     954     779     780     783     782
     779     780     783     784     779     780     957     962
     779     780     957     958     780     783     784     787
     780     783     784     961     780     957     962     961
     780     957     962     963     780     957     958     953
     780     957     958     959     781     604     607     606
     781     604     607     608     781     782     783     780
     781     782     783     784     781     786     787     784
     781     786     787     788     782     777     778     773
     782     777     778     779     782     781     786     785
     782     781     786     787     782     783     784     787
     782     783     784     961     783     780     957     962
     783     780     957     958     783     784     787     786
     783     784     787     788     783     784     961     962
     783     784     961     966     784     787     788     791
     784     787     788     965     784     961     962     957
     784     961     962     963     784     961     966     965
     784     961     966     967     785     608     611     610
     785     608     611     612     785     786     787     784
     785     786     787     788     785     790     791     788
     785     790     791     792     786     781     782     777
     786     781     782     783     786     785     790     789
     786     785     790     791     786     787     788     791
     786     787     788     965     787     784     961     962
     787     784     961     966     787     788     791     790
     787     788     791     792     787     788     965     966
     787     788     965     970     788     791     792     795
     788     791     792     969     788     965     966     961
     788     965     966     967     788     965     970     969
     788     965     970     971     789     612     615     614
     789     612     615     616     789     790     791     788
     789     790     791     792     789     794     795     792
     789     794     795     796     790     785     786     781
     790     785     786     787     790     789     794     793
     790     789     794     795     790     791     792     795
     790     791     792     969     791     788     965     966
     791     788     965     970     791     792     795     794
     791     792     795     796     791     792     969     974
     791     792     969     970     792     795     796     799
     792     795     796     973     792     969     974     973
     792     969     974     975     792     969     970     965
     792     969     970     971     793     616     619     618
     793     616     619     620     793     794     795     792
     793     794     795     796     793     798     799     796
     793     798     799     800     794     789     790     785
     794     789     790     791     794     793     798     797
     794     793     798     799     794     795     796     799
     794     795     796     973     795     792     969     974
     795     792     969     970     795     796     799     798
     795     796     799     800     795     796     973     978
     795     796     973     974     796     799     800     803
     796     799     800     977     796     973     978     977
     796     973     978     979     796     973     974     969
     796     973     974     975     797     620     623     622
     797     620     623     624     797     798     799     796
     797     798     799     800     797     802     803     800
     797     802     803     804     798     793     794     789
     798     793     794     795     798     797     802     801
     798     797     802     803     798     799     800     803
     798     799     800     977     799     796     973     978
     799     796     973     974     799     800     803     802
     799     800     803     804     799     800     977     982
     799     800     977     978     800     803     804     807
     800     803     804     981     800     977     982     981
     800     977     982     983     800     977     978     973
     800     977     978     979     801     624     627     626
     801     624     627     628     801     802     803     800
     801     802     803     804     801     806     807     804
     801     806     807     808     802     797     798     793
     802     797     798     799     802     801     806     805
     802     801     806     807     802     803     804     807
     802     803     804     981     803     800     977     982
     803     800     977     978     803     804     807     806
     803     804     807     808     803     804     981     982
     803     804     981     986     804     807     808     811
     804     807     808     985     804     981     982     977
     804     981     982     983     804     981     986     985
     804     981     986     987     805     628     631     630
     805     628     631     632     805     806     807     804
     805     806     807     808     805     810     811     808
     805     810     811     812     806     801     802     797
     806     801     802     803     806     805     810     809
     806     805     810     811     806     807     808     811
     806     807     808     985     807     804     981     982
     807     804     981     986     807     808     811     810
     807     808     811     812     807     808     985     986
     807     808     985     990     808     811     812     815
     808     811     812     989     808     985     986     981
     808     985     986     987     808     985     990     989
     808     985     990     991     809     632     635     634
     809     632     635     636     809     810     811     808
     809     810     811     812     809     814     815     812
     809     814     815     816     810     805     806     801
     810     805     806     807     810     809     814     813
     810     809     814     815     810     811     812     815
     810     811     812     989     811     808     985     986
     811     808     985     990     811     812     815     814
     811     812     815     816     811     812     989     994
     811     812     989     990     812     815     816     819
     812     815     816     993     812     989     994     993
     812     989     994     995     812     989     990     985
     812     989     990     991     813     636     639     638
     813     636     639     640     813     814     815     812
     813     814     815     816     813     818     819     816
     813     818     819     820     814     809     810     805
     814     809     810     811     814     813     818     817
     814     813     818     819     814     815     816     819
     814     815     816     993     815     812     989     994
     815     812     989     990     815     816     819     818
     815     816     819     820     815     816     993     998
     815     816     993     994     816     819     820     823
     816     819     820     997     816     993     998     997
     816     993     998     999     816     993     994     989
     816     993     994     995     817     640     643     642
     817     640     643     644     817     818     819     816
     817     818     819     820     817     822     823     820
     817     822     823     824     818     813     814     809
     818     813     814     815     818     817     822     821
     818     817     822     823     818     819     820     823
     818     819     820     997     819     816     993     998
     819     816     993     994     819     820     823     822
     819     820     823     824     819     820     997    1002
     819     820     997     998     820     823     824     827
     820     823     824    1001     820     997    1002    1001
     820     997    1002    1003     820     997     998     993
     820     997     998     999     821     644     647     646
     821     644     647     648     821     822     823     820
     821     822     823     824     821     826     827     824
     821     826     827     828     822     817     818     813
     822     817     818     819     822     821     826     825
     822     821     826     827     822     823     824     827
     822     823     824    1001     823     820     997    1002
     823     820     997     998     823     824     827     826
     823     824     827     828     823     824    1001    1002
     823     824    1001    1006     824     827     828     831
     824     827     828    1005     824    1001    1002     997
     824    1001    1002    1003     824    1001    1006    1005
     824    1001    1006    1007     825     648     651     650
     825     648     651     652     825     826     827     824
     825     826     827     828     825     830     831     828
     825     830     831     832     826     821     822     817
     826     821     822     823     826     825     830     829
     826     825     830     831     826     827     828     831
     826     827     828    1005     827     824    1001    1002
     827     824    1001    1006     827     828     831     830
     827     828     831     832     827     828    1005    1006
     827     828    1005    1010     828     831     832     835
     828     831     832    1009     828    1005    1006    1001
     828    1005    1006    1007     828    1005    1010    1009
     828    1005    1010    1011     829     652     655     654
     829     652     655     656     829     830     831     828
     829     830     831     832     829     834     835     832
     829     834     835     836     830     825     826     821
     830     825     826     827     830     829     834     833
     830     829     834     835     830     831     832     835
     830     831     832    1009     831     828    1005    1006
     831     828    1005    1010     831     832     835     834
     831     832     835     836     831     832    1009    1014
     831     832    1009    1010     832     835     836     839
     832     835     836    1013     832    1009    1014    1013
     832    1009    1014    1015     832    1009    1010    1005
     832    1009    1010    1011     833     656     659     658
     833     656     659     660     833     834     835     832
     833     834     835     836     833     838     839     836
     833     838     839     840     834     829     830     825
     834     829     830     831     834     833     838     837
     834     833     838     839     834     835     836     839
     834     835     836    1013     835     832    1009    1014
     835     832    1009    1010     835     836     839     838
     835     836     839     840     835     836    1013    1018
     835     836    1013    1014     836     839     840     843
     836     839     840    1017     836    1013    1018    1017
     836    1013    1018    1019     836    1013    1014    1009
     836    1013    1014    1015     837     660     663     662
     837     660     663     664     837     838     839     836
     837     838     839     840     837     842     843     840
     837     842     843     844     838     833     834     829
     838     833     834     835     838     837     842     841
     838     837     842     843     838     839     840     843
     838     839     840    1017     839     836    1013    1018
     839     836    1013    1014     839     840     843     842
     839     840     843     844     839     840    1017    1022
     839     840    1017    1018     840     843     844     847
     840     843     844    1021     840    1017    1022    1021
     840    1017    1022    1023     840    1017    1018    1013
     840    1017    1018    1019     841     664     667     666
     841     664     667     668     841     842     843     840
     841     842     843     844     841     846     847     844
     841     846     847     848     842     837     838     833
     842     837     838     839     842     841     846     845
     842     841     846     847     842     843     844     847
     842     843     844    1021     843     840    1017    1022
     843     840    1017    1018     843     844     847     846
     843     844     847     848     843     844    1021    1022
     843     844    1021    1026     844     847     848     851
     844     847     848    1025     844    1021    1022    1017
     844    1021    1022    1023     844    1021    1026    1025
     844    1021    1026    1027     845     668     671     670
     845     668     671     672     845     846     847     844
     845     846     847     848     845     850     851     848
     845     850     851     852     846     841     842     837
     846     841     842     843     846     845     850     849
     846     845     850     851     846     847     848     851
     846     847     848    1025     847     844    1021    1022
     847     844    1021    1026     847     848     851     850
     847     848     851     852     847     848    1025    1026
     847     848    1025    1030     848     851     852     855
     848     851     852    1029     848    1025    1026    1021
     848    1025    1026    1027     848    1025    1030    1029
     848    1025    1030    1031     849     672     675     674
     849     672     675     676     849     850     851     848
     849     850     851     852     849     854     855     852
     849     854     855     856     850     845     846     841
     850     845     846     847     850     849     854     853
     850     849     854     855     850     851     852     855
     850     851     852    1029     851     848    1025    1026
     851     848    1025    1030     851     852     855     854
     851     852     855     856     851     852    1029    1034
     851     852    1029    1030     852     855     856     859
     852     855     856    1033     852    1029    1034    1033
     852    1029    1034    1035     852    1029    1030    1025
     852    1029    1030    1031     853     676     679     678
     853     676     679     680     853     854     855     852
     853     854     855     856     853     858     859     856
     853     858     859     860     854     849     850     845
     854     849     850     851     854     853     858     857
     854     853     858     859     854     855     856     859
     854     855     856    1033     855     852    1029    1034
     855     852    1029    1030     855     856     859     858
     855     856     859     860     855     856    1033    1034
     855     856    1033    1038     856     859     860     863
     856     859     860    1037     856    1033    1034    1029
     856    1033    1034    1035     856    1033    1038    1037
     856    1033    1038    1039     857     680     683     682
     857     680     683     684     857     858     859     856
     857     858     859     860     857     862     863     860
     857     862     863     864     858     853     854     849
     858     853     854     855     858     857     862     861
     858     857     862     863     858     859     860     863
     858     859     860    1037     859     856    1033    1034
     859     856    1033    1038     859     860     863     862
     859     860     863     864     859     860    1037    1042
     859     860    1037    1038     860     863     864     867
     860     863     864    1041     860    1037    1042    1041
     860    1037    1042    1043     860    1037    1038    1033
     860    1037    1038    1039     861     684     687     686
     861     684     687     688     861     862     863     860
     861     862     863     864     861     866     867     864
     861     866     867     868     862     857     858     853
     862     857     858     859     862     861     866     865
     862     861     866     867     862     863     864     867
     862     863     864    1041     863     860    1037    1042
     863     860    1037    1038     863     864     867     866
     863     864     867     868     863     864    1041    1042
     863     864    1041    1046     864     867     868     871
     864     867     868    1045     864    1041    1042    1037
     864    1041    1042    1043     864    1041    1046    1045
     864    1041    1046    1047     865     688     691     690
     865     688     691     692     865     866     867     864
     865     866     867     868     865     870     871     868
     865     870     871     872     866     861     862     857
     866     861     862     863     866     865     870     869
     866     865     870     871     866     867     868     871
     866     867     868    1045     867     864    1041    1042
     867     864    1041    1046     867     868     871     870
     867     868     871     872     867     868    1045    1046
     867     868    1045    1050     868     871     872     875
     868     871     872    1049     868    1045    1046    1041
     868    1045    1046    1047     868    1045    1050    1049
     868    1045    1050    1051     869     692     695     694
     869     692     695     696     869     870     871     868
     869     870     871     872     869     874     875     872
     869     874     875     876     870     865     866     861
     870     865     866     867     870     869     874     873
     870     869     874     875     870     871     872     875
     870     871     872    1049     871     868    1045    1046
     871     868    1045    1050     871     872     875     874
     871     872     875     876     871     872    1049    1054
     871     872    1049    1050     872     875     876     879
     872     875     876    1053     872    1049    1054    1053
     872    1049    1054    1055     872    1049    1050    1045
     872    1049    1050    1051     873     696     699     698
     873     696     699     700     873     874     875     872
     873     874     875     876     873     878     879     876
     873     878     879     880     874     869     870     865
     874     869     870     871     874     873     878     877
     874     873     878     879     874     875     876     879
     874     875     876    1053     875     872    1049    1054
     875     872    1049    1050     875     876     879     878
     875     876     879     880     875     876    1053    1058
     875     876    1053    1054     876     879     880     883
     876     879     880    1057     876    1053    1058    1057
     876    1053    1058    1059     876    1053    1054    1049
     876    1053    1054    1055     877     700     703     702
     877     700     703     704     877     878     879     876
     877     878     879     880     877     882     883     880
     877     882     883     884     878     873     874     869
     878     873     874     875     878     877     882     881
     878     877     882     883     878     879     880     883
     878     879     880    1057     879     876    1053    1058
     879     876    1053    1054     879     880     883     882
     879     880     883     884     879     880    1057    1062
     879     880    1057    1058     880     883     884     887
     880     883     884    1061     880    1057    1062    1061
     880    1057    1062    1063     880    1057    1058    1053
     880    1057    1058    1059     881     704     707     706
     881     704     707     708     881     882     883     880
     881     882     883     884     881     886     887     884
     881     886     887     888     882     877     878     873
     882     877     878     879     882     881     886     885
     882     881     886     887     882     883     884     887
     882     883     884    1061     883     880    1057    1062
     883     880    1057    1058     883     884     887     886
     883     884     887     888     883     884    1061    1062
     883     884    1061    1066     884     887     888     891
     884     887     888    1065     884    1061    1062    1057
     884    1061    1062    1063     884    1061    1066    1065
     884    1061    1066    1067     885     708     711     710
     885     708     711     712     885     886     887     884
     885     886     887     888     885     890     891     888
     885     890     891     892     886     881     882     877
     886     881     882     883     886     885     890     889
     886     885     890     891     886     887     888     891
     886     887     888    1065     887     884    1061    1062
     887     884    1061    1066     887     888     891     890
     887     888     891     892     887     888    1065    1066
     887     888    1065    1070     888     891     892     895
     888     891     892    1069     888    1065    1066    1061
     888    1065    1066    1067     888    1065    1070    1069
     888    1065    1070    1071     889     712     715     714
     889     712     715     716     889     890     891     888
     889     890     891     892     889     894     895     892
     889     894     895     896     890     885     886     881
     890     885     886     887     890     889     894     893
     890     889     894     895     890     891     892     895
     890     891     892    1069     891     888    1065    1066
     891     888    1065    1070     891     892     895     894
     891     892     895     896     891     892    1069    1074
     891     892    1069    1070     892     895     896     899
     892     895     896    1073     892    1069    1074    1073
     892    1069    1074    1075     892    1069    1070    1065
     892    1069    1070    1071     893     716     719     718
     893     716     719     720     893     894     895     892
     893     894     895     896     893     898     899     896
     893     898     899     900     894     889     890     885
     894     889     890     891     894     893     898     897
     894     893     898     899     894     895     896     899
     894     895     896    1073     895     892    1069    1074
     895     892    1069    1070     895     896     899     898
     895     896     899     900     895     896    1073    1078
     895     896    1073    1074     896     899     900    1077
     896    1073    1078    1077     896    1073    1078    1079
     896    1073    1074    1069     896    1073    1074    1075
     897     898     899     896     897     898     899     900
     898     893     894     889     898     893     894     895
     898     899     900    1077     899     896    1073    1078
     899     896    1073    1074     899     900    1077    1078
     900    1077    1078    1073     900    1077    1078    1079
     901     724     727     726     901     724     727     728
     901     902     903     904     901     906     907     904
     901     906     907     908     902     901     906     905
     902     901     906     907     902     903     904     907
     902     903     904    1081     903     904     907     906
     903     904     907     908     903     904    1081    1082
     903     904    1081    1086     904     907     908     911
     904     907     908    1085     904    1081    1082    1083
     904    1081    1086    1085     904    1081    1086    1087
     905     728     731     730     905     728     731     732
     905     906     907     904     905     906     907     908
     905     910     911     908     905     910     911     912
     906     901     902     903     906     905     910     909
     906     905     910     911     906     907     908     911
     906     907     908    1085     907     904    1081    1082
     907     904    1081    1086     907     908     911     910
     907     908     911     912     907     908    1085    1086
     907     908    1085    1090     908     911     912     915
     908     911     912    1089     908    1085    1086    1081
     908    1085    1086    1087     908    1085    1090    1089
     908    1085    1090    1091     909     732     735     734
     909     732     735     736     909     910     911     908
     909     910     911     912     909     914     915     912
     909     914     915     916     910     905     906     901
     910     905     906     907     910     909     914     913
     910     909     914     915     910     911     912     915
     910     911     912    1089     911     908    1085    1086
     911     908    1085    1090     911     912     915     914
     911     912     915     916     911     912    1089    1094
     911     912    1089    1090     912     915     916     919
     912     915     916    1093     912    1089    1094    1093
     912    1089    1094    1095     912    1089    1090    1085
     912    1089    1090    1091     913     736     739     738
     913     736     739     740     913     914     915     912
     913     914     915     916     913     918     919     916
     913     918     919     920     914     909     910     905
     914     909     910     911     914     913     918     917
     914     913     918     919     914     915     916     919
     914     915     916    1093     915     912    1089    1094
     915     912    1089    1090     915     916     919     918
     915     916     919     920     915     916    1093    1098
     915     916    1093    1094     916     919     920     923
     916     919     920    1097     916    1093    1098    1097
     916    1093    1098    1099     916    1093    1094    1089
     916    1093    1094    1095     917     740     743     742
     917     740     743     744     917     918     919     916
     917     918     919     920     917     922     923     920
     917     922     923     924     918     913     914     909
     918     913     914     915     918     917     922     921
     918     917     922     923     918     919     920     923
     918     919     920    1097     919     916    1093    1098
     919     916    1093    1094     919     920     923     922
     919     920     923     924     919     920    1097    1102
     919     920    1097    1098     920     923     924     927
     920     923     924    1101     920    1097    1102    1101
     920    1097    1102    1103     920    1097    1098    1093
     920    1097    1098    1099     921     744     747     746
     921     744     747     748     921     922     923     920
     921     922     923     924     921     926     927     924
     921     926     927     928     922     917     918     913
     922     917     918     919     922     921     926     925
     922     921     926     927     922     923     924     927
     922     923     924    1101     923     920    1097    1102
     923     920    1097    1098     923     924     927     926
     923     924     927     928     923     924    1101    1102
     923     924    1101    1106     924     927     928     931
     924     927     928    1105     924    1101    1102    1097
     924    1101    1102    1103     924    1101    1106    1105
     924    1101    1106    1107     925     748     751     750
     925     748     751     752     925     926     927     924
     925     926     927     928     925     930     931     928
     925     930     931     932     926     921     922     917
     926     921     922     923     926     925     930     929
     926     925     930     931     926     927     928     931
     926     927     928    1105     927     924    1101    1102
     927     924    1101    1106     927     928     931     930
     927     928     931     932     927     928    1105    1106
     927     928    1105    1110     928     931     932     935
     928     931     932    1109     928    1105    1106    1101
     928    1105    1106    1107     928    1105    1110    1109
     928    1105    1110    1111     929     752     755     754
     929     752     755     756     929     930     931     928
     929     930     931     932     929     934     935     932
     929     934     935     936     930     925     926     921
     930     925     926     927     930     929     934     933
     930     929     934     935     930     931     932     935
     930     931     932    1109     931     928    1105    1106
     931     928    1105    1110     931     932     935     934
     931     932     935     936     931     932    1109    1114
     931     932    1109    1110     932     935     936     939
     932     935     936    1113     932    1109    1114    1113
     932    1109    1114    1115     932    1109    1110    1105
     932    1109    1110    1111     933     756     759     758
     933     756     759     760     933     934     935     932
     933     934     935     936     933     938     939     936
     933     938     939     940     934     929     930     925
     934     929     930     931     934     933     938     937
     934     933     938     939     934     935     936     939
     934     935     936    1113     935     932    1109    1114
     935     932    1109    1110     935     936     939     938
     935     936     939     940     935     936    1113    1118
     935     936    1113    1114     936     939     940     943
     936     939     940    1117     936    1113    1118    1117
     936    1113    1118    1119     936    1113    1114    1109
     936    1113    1114    1115     937     760     763     762
     937     760     763     764     937     938     939     936
     937     938     939     940     937     942     943     940
     937     942     943     944     938     933     934     929
     938     933     934     935     938     937     942     941
     938     937     942     943     938     939     940     943
     938     939     940    1117     939     936    1113    1118
     939     936    1113    1114     939     940     943     942
     939     940     943     944     939     940    1117    1122
     939     940    1117    1118     940     943     944     947
     940     943     944    1121     940    1117    1122    1121
     940    1117    1122    1123     940    1117    1118    1113
     940    1117    1118    1119     941     764     767     766
     941     764     767     768     941     942     943     940
     941     942     943     944     941     946     947     944
     941     946     947     948     942     937     938     933
     942     937     938     939     942     941     946     945
     942     941     946     947     942     943     944     947
     942     943     944    1121     943     940    1117    1122
     943     940    1117    1118     943     944     947     946
     943     944     947     948     943     944    1121    1122
     943     944    1121    1126     944     947     948     951
     944     947     948    1125     944    1121    1122    1117
     944    1121    1122    1123     944    1121    1126    1125
     944    1121    1126    1127     945     768     771     770
     945     768     771     772     945     946     947     944
     945     946     947     948     945     950     951     948
     945     950     951     952     946     941     942     937
     946     941     942     943     946     945     950     949
     946     945     950     951     946     947     948     951
     946     947     948    1125     947     944    1121    1122
     947     944    1121    1126     947     948     951     950
     947     948     951     952     947     948    1125    1126
     947     948    1125    1130     948     951     952     955
     948     951     952    1129     948    1125    1126    1121
     948    1125    1126    1127     948    1125    1130    1129
     948    1125    1130    1131     949     772     775     774
     949     772     775     776     949     950     951     948
     949     950     951     952     949     954     955     952
     949     954     955     956     950     945     946     941
     950     945     946     947     950     949     954     953
     950     949     954     955     950     951     952     955
     950     951     952    1129     951     948    1125    1126
     951     948    1125    1130     951     952     955     954
     951     952     955     956     951     952    1129    1134
     951     952    1129    1130     952     955     956     959
     952     955     956    1133     952    1129    1134    1133
     952    1129    1134    1135     952    1129    1130    1125
     952    1129    1130    1131     953     776     779     778
     953     776     779     780     953     954     955     952
     953     954     955     956     953     958     959     956
     953     958     959     960     954     949     950     945
     954     949     950     951     954     953     958     957
     954     953     958     959     954     955     956     959
     954     955     956    1133     955     952    1129    1134
     955     952    1129    1130     955     956     959     958
     955     956     959     960     955     956    1133    1138
     955     956    1133    1134     956     959     960     963
     956     959     960    1137     956    1133    1138    1137
     956    1133    1138    1139     956    1133    1134    1129
     956    1133    1134    1135     957     780     783     782
     957     780     783     784     957     958     959     956
     957     958     959     960     957     962     963     960
     957     962     963     964     958     953     954     949
     958     953     954     955     958     957     962     961
     958     957     962     963     958     959     960     963
     958     959     960    1137     959     956    1133    1138
     959     956    1133    1134     959     960     963     962
     959     960     963     964     959     960    1137    1142
     959     960    1137    1138     960     963     964     967
     960     963     964    1141     960    1137    1142    1141
     960    1137    1142    1143     960    1137    1138    1133
     960    1137    1138    1139     961     784     787     786
     961     784     787     788     961     962     963     960
     961     962     963     964     961     966     967     964
     961     966     967     968     962     957     958     953
     962     957     958     959     962     961     966     965
     962     961     966     967     962     963     964     967
     962     963     964    1141     963     960    1137    1142
     963     960    1137    1138     963     964     967     966
     963     964     967     968     963     964    1141    1142
     963     964    1141    1146     964     967     968     971
     964     967     968    1145     964    1141    1142    1137
     964    1141    1142    1143     964    1141    1146    1145
     964    1141    1146    1147     965     788     791     790
     965     788     791     792     965     966     967     964
     965     966     967     968     965     970     971     968
     965     970     971     972     966     961     962     957
     966     961     962     963     966     965     970     969
     966     965     970     971     966     967     968     971
     966     967     968    1145     967     964    1141    1142
     967     964    1141    1146     967     968     971     970
     967     968     971     972     967     968    1145    1146
     967     968    1145    1150     968     971     972     975
     968     971     972    1149     968    1145    1146    1141
     968    1145    1146    1147     968    1145    1150    1149
     968    1145    1150    1151     969     792     795     794
     969     792     795     796     969     970     971     968
     969     970     971     972     969     974     975     972
     969     974     975     976     970     965     966     961
     970     965     966     967     970     969     974     973
     970     969     974     975     970     971     972     975
     970     971     972    1149     971     968    1145    1146
     971     968    1145    1150     971     972     975     974
     971     972     975     976     971     972    1149    1154
     971     972    1149    1150     972     975     976     979
     972     975     976    1153     972    1149    1154    1153
     972    1149    1154    1155     972    1149    1150    1145
     972    1149    1150    1151     973     796     799     798
     973     796     799     800     973     974     975     972
     973     974     975     976     973     978     979     976
     973     978     979     980     974     969     970     965
     974     969     970     971     974     973     978     977
     974     973     978     979     974     975     976     979
     974     975     976    1153     975     972    1149    1154
     975     972    1149    1150     975     976     979     978
     975     976     979     980     975     976    1153    1158
     975     976    1153    1154     976     979     980     983
     976     979     980    1157     976    1153    1158    1157
     976    1153    1158    1159     976    1153    1154    1149
     976    1153    1154    1155     977     800     803     802
     977     800     803     804     977     978     979     976
     977     978     979     980     977     982     983     980
     977     982     983     984     978     973     974     969
     978     973     974     975     978     977     982     981
     978     977     982     983     978     979     980     983
     978     979     980    1157     979     976    1153    1158
     979     976    1153    1154     979     980     983     982
     979     980     983     984     979     980    1157    1162
     979     980    1157    1158     980     983     984     987
     980     983     984    1161     980    1157    1162    1161
     980    1157    1162    1163     980    1157    1158    1153
     980    1157    1158    1159     981     804     807     806
     981     804     807     808     981     982     983     980
     981     982     983     984     981     986     987     984
     981     986     987     988     982     977     978     973
     982     977     978     979     982     981     986     985
     982     981     986     987     982     983     984     987
     982     983     984    1161     983     980    1157    1162
     983     980    1157    1158     983     984     987     986
     983     984     987     988     983     984    1161    1162
     983     984    1161    1166     984     987     988     991
     984     987     988    1165     984    1161    1162    1157
     984    1161    1162    1163     984    1161    1166    1165
     984    1161    1166    1167     985     808     811     810
     985     808     811     812     985     986     987     984
     985     986     987     988     985     990     991     988
     985     990     991     992     986     981     982     977
     986     981     982     983     986     985     990     989
     986     985     990     991     986     987     988     991
     986     987     988    1165     987     984    1161    1162
     987     984    1161    1166     987     988     991     990
     987     988     991     992     987     988    1165    1166
     987     988    1165    1170     988     991     992     995
     988     991     992    1169     988    1165    1166    1161
     988    1165    1166    1167     988    1165    1170    1169
     988    1165    1170    1171     989     812     815     814
     989     812     815     816     989     990     991     988
     989     990     991     992     989     994     995     992
     989     994     995     996     990     985     986     981
     990     985     986     987     990     989     994     993
     990     989     994     995     990     991     992     995
     990     991     992    1169     991     988    1165    1166
     991     988    1165    1170     991     992     995     994
     991     992     995     996     991     992    1169    1174
     991     992    1169    1170     992     995     996     999
     992     995     996    1173     992    1169    1174    1173
     992    1169    1174    1175     992    1169    1170    1165
     992    1169    1170    1171     993     816     819     818
     993     816     819     820     993     994     995     992
     993     994     995     996     993     998     999     996
     993     998     999    1000     994     989     990     985
     994     989     990     991     994     993     998     997
     994     993     998     999     994     995     996     999
     994     995     996    1173     995     992    1169    1174
     995     992    1169    1170     995     996     999     998
     995     996     999    1000     995     996    1173    1178
     995     996    1173    1174     996     999    1000    1003
     996     999    1000    1177     996    1173    1178    1177
     996    1173    1178    1179     996    1173    1174    1169
     996    1173    1174    1175     997     820     823     822
     997     820     823     824     997     998     999     996
     997     998     999    1000     997    1002    1003    1000
     997    1002    1003    1004     998     993     994     989
     998     993     994     995     998     997    1002    1001
     998     997    1002    1003     998     999    1000    1003
     998     999    1000    1177     999     996    1173    1178
     999     996    1173    1174     999    1000    1003    1002
     999    1000    1003    1004     999    1000    1177    1182
     999    1000    1177    1178    1000    1003    1004    1007
    1000    1003    1004    1181    1000    1177    1182    1181
    1000    1177    1182    1183    1000    1177    1178    1173
    1000    1177    1178    1179    1001     824     827     826
    1001     824     827     828    1001    1002    1003    1000
    1001    1002    1003    1004    1001    1006    1007    1004
    1001    1006    1007    1008    1002     997     998     993
    1002     997     998     999    1002    1001    1006    1005
    1002    1001    1006    1007    1002    1003    1004    1007
    1002    1003    1004    1181    1003    1000    1177    1182
    1003    1000    1177    1178    1003    1004    1007    1006
    1003    1004    1007    1008    1003    1004    1181    1182
    1003    1004    1181    1186    1004    1007    1008    1011
    1004    1007    1008    1185    1004    1181    1182    1177
    1004    1181    1182    1183    1004    1181    1186    1185
    1004    1181    1186    1187    1005     828     831     830
    1005     828     831     832    1005    1006    1007    1004
    1005    1006    1007    1008    1005    1010    1011    1008
    1005    1010    1011    1012    1006    1001    1002     997
    1006    1001    1002    1003    1006    1005    1010    1009
    1006    1005    1010    1011    1006    1007    1008    1011
    1006    1007    1008    1185    1007    1004    1181    1182
    1007    1004    1181    1186    1007    1008    1011    1010
    1007    1008    1011    1012    1007    1008    1185    1186
    1007    1008    1185    1190    1008    1011    1012    1015
    1008    1011    1012    1189    1008    1185    1186    1181
    1008    1185    1186    1187    1008    1185    1190    1189
    1008    1185    1190    1191    1009     832     835     834
    1009     832     835     836    1009    1010    1011    1008
    1009    1010    1011    1012    1009    1014    1015    1012
    1009    1014    1015    1016    1010    1005    1006    1001
    1010    1005    1006    1007    1010    1009    1014    1013
    1010    1009    1014    1015    1010    1011    1012    1015
    1010    1011    1012    1189    1011    1008    1185    1186
    1011    1008    1185    1190    1011    1012    1015    1014
    1011    1012    1015    1016    1011    1012    1189    1194
    1011    1012    1189    1190    1012    1015    1016    1019
    1012    1015    1016    1193    1012    1189    1194    1193
    1012    1189    1194    1195    1012    1189    1190    1185
    1012    1189    1190    1191    1013     836     839     838
    1013     836     839     840    1013    1014    1015    1012
    1013    1014    1015    1016    1013    1018    1019    1016
    1013    1018    1019    1020    1014    1009    1010    1005
    1014    1009    1010    1011    1014    1013    1018    1017
    1014    1013    1018    1019    1014    1015    1016    1019
    1014    1015    1016    1193    1015    1012    1189    1194
    1015    1012    1189    1190    1015    1016    1019    1018
    1015    1016    1019    1020    1015    1016    1193    1198
    1015    1016    1193    1194    1016    1019    1020    1023
    1016    1019    1020    1197    1016    1193    1198    1197
    1016    1193    1198    1199    1016    1193    1194    1189
    1016    1193    1194    1195    1017     840     843     842
    1017     840     843     844    1017    1018    1019    1016
    1017    1018    1019    1020    1017    1022    1023    1020
    1017    1022    1023    1024    1018    1013    1014    1009
    1018    1013    1014    1015    1018    1017    1022    1021
    1018    1017    1022    1023    1018    1019    1020    1023
    1018    1019    1020    1197    1019    1016    1193    1198
    1019    1016    1193    1194    1019    1020    1023    1022
    1019    1020    1023    1024    1019    1020    1197    1202
    1019    1020    1197    1198    1020    1023    1024    1027
    1020    1023    1024    1201    1020    1197    1202    1201
    1020    1197    1202    1203    1020    1197    1198    1193
    1020    1197    1198    1199    1021     844     847     846
    1021     844     847     848    1021    1022    1023    1020
    1021    1022    1023    1024    1021    1026    1027    1024
    1021    1026    1027    1028    1022    1017    1018    1013
    1022    1017    1018    1019    1022    1021    1026    1025
    1022    1021    1026    1027    1022    1023    1024    1027
    1022    1023    1024    1201    1023    1020    1197    1202
    1023    1020    1197    1198    1023    1024    1027    1026
    1023    1024    1027    1028    1023    1024    1201    1202
    1023    1024    1201    1206    1024    1027    1028    1031
    1024    1027    1028    1205    1024    1201    1202    1197
    1024    1201    1202    1203    1024    1201    1206    1205
    1024    1201    1206    1207    1025     848     851     850
    1025     848     851     852    1025    1026    1027    1024
    1025    1026    1027    1028    1025    1030    1031    1028
    1025    1030    1031    1032    1026    1021    1022    1017
    1026    1021    1022    1023    1026    1025    1030    1029
    1026    1025    1030    1031    1026    1027    1028    1031
    1026    1027    1028    1205    1027    1024    1201    1202
    1027    1024    1201    1206    1027    1028    1031    1030
    1027    1028    1031    1032    1027    1028    1205    1206
    1027    1028    1205    1210    1028    1031    1032    1035
    1028    1031    1032    1209    1028    1205    1206    1201
    1028    1205    1206    1207    1028    1205    1210    1209
    1028    1205    1210    1211    1029     852     855     854
    1029     852     855     856    1029    1030    1031    1028
    1029    1030    1031    1032    1029    1034    1035    1032
    1029    1034    1035    1036    1030    1025    1026    1021
    1030    1025    1026    1027    1030    1029    1034    1033
    1030    1029    1034    1035    1030    1031    1032    1035
    1030    1031    1032    1209    1031    1028    1205    1206
    1031    1028    1205    1210    1031    1032    1035    1034
    1031    1032    1035    1036    1031    1032    1209    1214
    1031    1032    1209    1210    1032    1035    1036    1039
    1032    1035    1036    1213    1032    1209    1214    1213
    1032    1209    1214    1215    1032    1209    1210    1205
    1032    1209    1210    1211    1033     856     859     858
    1033     856     859     860    1033    1034    1035    1032
    1033    1034    1035    1036    1033    1038    1039    1036
    1033    1038    1039    1040    1034    1029    1030    1025
    1034    1029    1030    1031    1034    1033    1038    1037
    1034    1033    1038    1039    1034    1035    1036    1039
    1034    1035    1036    1213    1035    1032    1209    1214
    1035    1032    1209    1210    1035    1036    1039    1038
    1035    1036    1039    1040    1035    1036    1213    1218
    1035    1036    1213    1214    1036    1039    1040    1043
    1036    1039    1040    1217    1036    1213    1218    1217
    1036    1213    1218    1219    1036    1213    1214    1209
    1036    1213    1214    1215    1037     860     863     862
    1037     860     863     864    1037    1038    1039    1036
    1037    1038    1039    1040    1037    1042    1043    1040
    1037    1042    1043    1044    1038    1033    1034    1029
    1038    1033    1034    1035    1038    1037    1042    1041
    1038    1037    1042    1043    1038    1039    1040    1043
    1038    1039    1040    1217    1039    1036    1213    1218
    1039    1036    1213    1214    1039    1040    1043    1042
    1039    1040    1043    1044    1039    1040    1217    1222
    1039    1040    1217    1218    1040    1043    1044    1047
    1040    1043    1044    1221    1040    1217    1222    1221
    1040    1217    1222    1223    1040    1217    1218    1213
    1040    1217    1218    1219    1041     864     867     866
    1041     864     867     868    1041    1042    1043    1040
    1041    1042    1043    1044    1041    1046    1047    1044
    1041    1046    1047    1048    1042    1037    1038    1033
    1042    1037    1038    1039    1042    1041    1046    1045
    1042    1041    1046    1047    1042    1043    1044    1047
    1042    1043    1044    1221    1043    1040    1217    1222
    1043    1040    1217    1218    1043    1044    1047    1046
    1043    1044    1047    1048    1043    1044    1221    1222
    1043    1044    1221    1226    1044    1047    1048    1051
    1044    1047    1048    1225    1044    1221    1222    1217
    1044    1221    1222    1223    1044    1221    1226    1225
    1044    1221    1226    1227    1045     868     871     870
    1045     868     871     872    1045    1046    1047    1044
    1045    1046    1047    1048    1045    1050    1051    1048
    1045    1050    1051    1052    1046    1041    1042    1037
    1046    1041    1042    1043    1046    1045    1050    1049
    1046    1045    1050    1051    1046    1047    1048    1051
    1046    1047    1048    1225    1047    1044    1221    1222
    1047    1044    1221    1226    1047    1048    1051    1050
    1047    1048    1051    1052    1047    1048    1225    1226
    1047    1048    1225    1230    1048    1051    1052    1055
    1048    1051    1052    1229    1048    1225    1226    1221
    1048    1225    1226    1227    1048    1225    1230    1229
    1048    1225    1230    1231    1049     872     875     874
    1049     872     875     876    1049    1050    1051    1048
    1049    1050    1051    1052    1049    1054    1055    1052
    1049    1054    1055    1056    1050    1045    1046    1041
    1050    1045    1046    1047    1050    1049    1054    1053
    1050    1049    1054    1055    1050    1051    1052    1055
    1050    1051    1052    1229    1051    1048    1225    1226
    1051    1048    1225    1230    1051    1052    1055    1054
    1051    1052    1055    1056    1051    1052    1229    1234
    1051    1052    1229    1230    1052    1055    1056    1059
    1052    1055    1056    1233    1052    1229    1234    1233
    1052    1229    1234    1235    1052    1229    1230    1225
    1052    1229    1230    1231    1053     876     879     878
    1053     876     879     880    1053    1054    1055    1052
    1053    1054    1055    1056    1053    1058    1059    1056
    1053    1058    1059    1060    1054    1049    1050    1045
    1054    1049    1050    1051    1054    1053    1058    1057
    1054    1053    1058    1059    1054    1055    1056    1059
    1054    1055    1056    1233    1055    1052    1229    1234
    1055    1052    1229    1230    1055    1056    1059    1058
    1055    1056    1059    1060    1055    1056    1233    1238
    1055    1056    1233    1234    1056    1059    1060    1063
    1056    1059    1060    1237    1056    1233    1238    1237
    1056    1233    1238    1239    1056    1233    1234    1229
    1056    1233    1234    1235    1057     880     883     882
    1057     880     883     884    1057    1058    1059    1056
    1057    1058    1059    1060    1057    1062    1063    1060
    1057    1062    1063    1064    1058    1053    1054    1049
    1058    1053    1054    1055    1058    1057    1062    1061
    1058    1057    1062    1063    1058    1059    1060    1063
    1058    1059    1060    1237    1059    1056    1233    1238
    1059    1056    1233    1234    1059    1060    1063    1062
    1059    1060    1063    1064    1059    1060    1237    1242
    1059    1060    1237    1238    1060    1063    1064    1067
    1060    1063    1064    1241    1060    1237    1242    1241
    1060    1237    1242    1243    1060    1237    1238    1233
    1060    1237    1238    1239    1061     884     887     886
    1061     884     887     888    1061    1062    1063    1060
    1061    1062    1063    1064    1061    1066    1067    1064
    1061    1066    1067    1068    1062    1057    1058    1053
    1062    1057    1058    1059    1062    1061    1066    1065
    1062    1061    1066    1067    1062    1063    1064    1067
    1062    1063    1064    1241    1063    1060    1237    1242
    1063    1060    1237    1238    1063    1064    1067    1066
    1063    1064    1067    1068    1063    1064    1241    1242
    1063    1064    1241    1246    1064    1067    1068    1071
    1064    1067    1068    1245    1064    1241    1242    1237
    1064    1241    1242    1243    1064    1241    1246    1245
    1064    1241    1246    1247    1065     888     891     890
    1065     888     891     892    1065    1066    1067    1064
    1065    1066    1067    1068    1065    1070    1071    1068
    1065    1070    1071    1072    1066    1061    1062    1057
    1066    1061    1062    1063    1066    1065    1070    1069
    1066    1065    1070    1071    1066    1067    1068    1071
    1066    1067    1068    1245    1067    1064    1241    1242
    1067    1064    1241    1246    1067    1068    1071    1070
    1067    1068    1071    1072    1067    1068    1245    1246
    1067    1068    1245    1250    1068    1071    1072    1075
    1068    1071    1072    1249    1068    1245    1246    1241
    1068    1245    1246    1247    1068    1245    1250    1249
    1068    1245    1250    1251    1069     892     895     894
    1069     892     895     896    1069    1070    1071    1068
    1069    1070    1071    1072    1069    1074    1075    1072
    1069    1074    1075    1076    1070    1065    1066    1061
    1070    1065    1066    1067    1070    1069    1074    1073
    1070    1069    1074    1075    1070    1071    1072    1075
    1070    1071    1072    1249    1071    1068    1245    1246
    1071    1068    1245    1250    1071    1072    1075    1074
    1071    1072    1075    1076    1071    1072    1249    1254
    1071    1072    1249    1250    1072    1075    1076    1079
    1072    1075    1076    1253    1072    1249    1254    1253
    1072    1249    1254    1255    1072    1249    1250    1245
    1072    1249    1250    1251    1073     896     899     898
    1073     896     899     900    1073    1074    1075    1072
    1073    1074    1075    1076    1073    1078    1079    1076
    1073    1078    1079    1080    1074    1069    1070    1065
    1074    1069    1070    1071    1074    1073    1078    1077
    1074    1073    1078    1079    1074    1075    1076    1079
    1074    1075    1076    1253    1075    1072    1249    1254
    1075    1072    1249    1250    1075    1076    1079    1078
    1075    1076    1079    1080    1075    1076    1253    1254
    1075    1076    1253    1258    1076    1079    1080    1257
    1076    1253    1254    1249    1076    1253    1254    1255
    1076    1253    1258    1257    1076    1253    1258    1259
    1077    1078    1079    1076    1077    1078    1079    1080
    1078    1073    1074    1069    1078    1073    1074    1075
    1078    1079    1080    1257    1079    1076    1253    1254
    1079    1076    1253    1258    1079    1080    1257    1258
    1080    1257    1258    1253    1080    1257    1258    1259
    1081     904     907     906    1081     904     907     908
    1081    1082    1083    1084    1081    1086    1087    1084
    1081    1086    1087    1088    1082    1081    1086    1085
    1082    1081    1086    1087    1082    1083    1084    1087
    1082    1083    1084    1261    1083    1084    1087    1086
    1083    1084    1087    1088    1083    1084    1261    1262
    1083    1084    1261    1266    1084    1087    1088    1091
    1084    1087    1088    1265    1084    1261    1262    1263
    1084    1261    1266    1265    1084    1261    1266    1267
    1085     908     911     910    1085     908     911     912
    1085    1086    1087    1084    1085    1086    1087    1088
    1085    1090    1091    1088    1085    1090    1091    1092
    1086    1081    1082    1083    1086    1085    1090    1089
    1086    1085    1090    1091    1086    1087    1088    1091
    1086    1087    1088    1265    1087    1084    1261    1262
    1087    1084    1261    1266    1087    1088    1091    1090
    1087    1088    1091    1092    1087    1088    1265    1266
    1087    1088    1265    1270    1088    1091    1092    1095
    1088    1091    1092    1269    1088    1265    1266    1261
    1088    1265    1266    1267    1088    1265    1270    1269
    1088    1265    1270    1271    1089     912     915     914
    1089     912     915     916    1089    1090    1091    1088
    1089    1090    1091    1092    1089    1094    1095    1092
    1089    1094    1095    1096    1090    1085    1086    1081
    1090    1085    1086    1087    1090    1089    1094    1093
    1090    1089    1094    1095    1090    1091    1092    1095
    1090    1091    1092    1269    1091    1088    1265    1266
    1091    1088    1265    1270    1091    1092    1095    1094
    1091    1092    1095    1096    1091    1092    1269    1274
    1091    1092    1269    1270    1092    1095    1096    1099
    1092    1095    1096    1273    1092    1269    1274    1273
    1092    1269    1274    1275    1092    1269    1270    1265
    1092    1269    1270    1271    1093     916     919     918
    1093     916     919     920    1093    1094    1095    1092
    1093    1094    1095    1096    1093    1098    1099    1096
    1093    1098    1099    1100    1094    1089    1090    1085
    1094    1089    1090    1091    1094    1093    1098    1097
    1094    1093    1098    1099    1094    1095    1096    1099
    1094    1095    1096    1273    1095    1092    1269    1274
    1095    1092    1269    1270    1095    1096    1099    1098
    1095    1096    1099    1100    1095    1096    1273    1274
    1095    1096    1273    1278    1096    1099    1100    1103
    1096    1099    1100    1277    1096    1273    1274    1269
    1096    1273    1274    1275    1096    1273    1278    1277
    1096    1273    1278    1279    1097     920     923     922
    1097     920     923     924    1097    1098    1099    1096
    1097    1098    1099    1100    1097    1102    1103    1100
    1097    1102    1103    1104    1098    1093    1094    1089
    1098    1093    1094    1095    1098    1097    1102    1101
    1098    1097    1102    1103    1098    1099    1100    1103
    1098    1099    1100    1277    1099    1096    1273    1274
    1099    1096    1273    1278    1099    1100    1103    1102
    1099    1100    1103    1104    1099    1100    1277    1282
    1099    1100    1277    1278    1100    1103    1104    1107
    1100    1103    1104    1281    1100    1277    1282    1281
    1100    1277    1282    1283    1100    1277    1278    1273
    1100    1277    1278    1279    1101     924     927     926
    1101     924     927     928    1101    1102    1103    1100
    1101    1102    1103    1104    1101    1106    1107    1104
    1101    1106    1107    1108    1102    1097    1098    1093
    1102    1097    1098    1099    1102    1101    1106    1105
    1102    1101    1106    1107    1102    1103    1104    1107
    1102    1103    1104    1281    1103    1100    1277    1282
    1103    1100    1277    1278    1103    1104    1107    1106
    1103    1104    1107    1108    1103    1104    1281    1282
    1103    1104    1281    1286    1104    1107    1108    1111
    1104    1107    1108    1285    1104    1281    1282    1277
    1104    1281    1282    1283    1104    1281    1286    1285
    1104    1281    1286    1287    1105     928     931     930
    1105     928     931     932    1105    1106    1107    1104
    1105    1106    1107    1108    1105    1110    1111    1108
    1105    1110    1111    1112    1106    1101    1102    1097
    1106    1101    1102    1103    1106    1105    1110    1109
    1106    1105    1110    1111    1106    1107    1108    1111
    1106    1107    1108    1285    1107    1104    1281    1282
    1107    1104    1281    1286    1107    1108    1111    1110
    1107    1108    1111    1112    1107    1108    1285    1286
    1107    1108    1285    1290    1108    1111    1112    1115
    1108    1111    1112    1289    1108    1285    1286    1281
    1108    1285    1286    1287    1108    1285    1290    1289
    1108    1285    1290    1291    1109     932     935     934
    1109     932     935     936    1109    1110    1111    1108
    1109    1110    1111    1112    1109    1114    1115    1112
    1109    1114    1115    1116    1110    1105    1106    1101
    1110    1105    1106    1107    1110    1109    1114    1113
    1110    1109    1114    1115    1110    1111    1112    1115
    1110    1111    1112    1289    1111    1108    1285    1286
    1111    1108    1285    1290    1111    1112    1115    1114
    1111    1112    1115    1116    1111    1112    1289    1294
    1111    1112    1289    1290    1112    1115    1116    1119
    1112    1115    1116    1293    1112    1289    1294    1293
    1112    1289    1294    1295    1112    1289    1290    1285
    1112    1289    1290    1291    1113     936     939     938
    1113     936     939     940    1113    1114    1115    1112
    1113    1114    1115    1116    1113    1118    1119    1116
    1113    1118    1119    1120    1114    1109    1110    1105
    1114    1109    1110    1111    1114    1113    1118    1117
    1114    1113    1118    1119    1114    1115    1116    1119
    1114    1115    1116    1293    1115    1112    1289    1294
    1115    1112    1289    1290    1115    1116    1119    1118
    1115    1116    1119    1120    1115    1116    1293    1298
    1115    1116    1293    1294    1116    1119    1120    1123
    1116    1119    1120    1297    1116    1293    1298    1297
    1116    1293    1298    1299    1116    1293    1294    1289
    1116    1293    1294    1295    1117     940     943     942
    1117     940     943     944    1117    1118    1119    1116
    1117    1118    1119    1120    1117    1122    1123    1120
    1117    1122    1123    1124    1118    1113    1114    1109
    1118    1113    1114    1115    1118    1117    1122    1121
    1118    1117    1122    1123    1118    1119    1120    1123
    1118    1119    1120    1297    1119    1116    1293    1298
    1119    1116    1293    1294    1119    1120    1123    1122
    1119    1120    1123    1124    1119    1120    1297    1302
    1119    1120    1297    1298    1120    1123    1124    1127
    1120    1123    1124    1301    1120    1297    1302    1301
    1120    1297    1302    1303    1120    1297    1298    1293
    1120    1297    1298    1299    1121     944     947     946
    1121     944     947     948    1121    1122    1123    1120
    1121    1122    1123    1124    1121    1126    1127    1124
    1121    1126    1127    1128    1122    1117    1118    1113
    1122    1117    1118    1119    1122    1121    1126    1125
    1122    1121    1126    1127    1122    1123    1124    1127
    1122    1123    1124    1301    1123    1120    1297    1302
    1123    1120    1297    1298    1123    1124    1127    1126
    1123    1124    1127    1128    1123    1124    1301    1302
    1123    1124    1301    1306    1124    1127    1128    1131
    1124    1127    1128    1305    1124    1301    1302    1297
    1124    1301    1302    1303    1124    1301    1306    1305
    1124    1301    1306    1307    1125     948     951     950
    1125     948     951     952    1125    1126    1127    1124
    1125    1126    1127    1128    1125    1130    1131    1128
    1125    1130    1131    1132    1126    1121    1122    1117
    1126    1121    1122    1123    1126    1125    1130    1129
    1126    1125    1130    1131    1126    1127    1128    1131
    1126    1127    1128    1305    1127    1124    1301    1302
    1127    1124    1301    1306    1127    1128    1131    1130
    1127    1128    1131    1132    1127    1128    1305    1306
    1127    1128    1305    1310    1128    1131    1132    1135
    1128    1131    1132    1309    1128    1305    1306    1301
    1128    1305    1306    1307    1128    1305    1310    1309
    1128    1305    1310    1311    1129     952     955     954
    1129     952     955     956    1129    1130    1131    1128
    1129    1130    1131    1132    1129    1134    1135    1132
    1129    1134    1135    1136    1130    1125    1126    1121
    1130    1125    1126    1127    1130    1129    1134    1133
    1130    1129    1134    1135    1130    1131    1132    1135
    1130    1131    1132    1309    1131    1128    1305    1306
    1131    1128    1305    1310    1131    1132    1135    1134
    1131    1132    1135    1136    1131    1132    1309    1314
    1131    1132    1309    1310    1132    1135    1136    1139
    1132    1135    1136    1313    1132    1309    1314    1313
    1132    1309    1314    1315    1132    1309    1310    1305
    1132    1309    1310    1311    1133     956     959     958
    1133     956     959     960    1133    1134    1135    1132
    1133    1134    1135    1136    1133    1138    1139    1136
    1133    1138    1139    1140    1134    1129    1130    1125
    1134    1129    1130    1131    1134    1133    1138    1137
    1134    1133    1138    1139    1134    1135    1136    1139
    1134    1135    1136    1313    1135    1132    1309    1314
    1135    1132    1309    1310    1135    1136    1139    1138
    1135    1136    1139    1140    1135    1136    1313    1318
    1135    1136    1313    1314    1136    1139    1140    1143
    1136    1139    1140    1317    1136    1313    1318    1317
    1136    1313    1318    1319    1136    1313    1314    1309
    1136    1313    1314    1315    1137     960     963     962
    1137     960     963     964    1137    1138    1139    1136
    1137    1138    1139    1140    1137    1142    1143    1140
    1137    1142    1143    1144    1138    1133    1134    1129
    1138    1133    1134    1135    1138    1137    1142    1141
    1138    1137    1142    1143    1138    1139    1140    1143
    1138    1139    1140    1317    1139    1136    1313    1318
    1139    1136    1313    1314    1139    1140    1143    1142
    1139    1140    1143    1144    1139    1140    1317    1322
    1139    1140    1317    1318    1140    1143    1144    1147
    1140    1143    1144    1321    1140    1317    1322    1321
    1140    1317    1322    1323    1140    1317    1318    1313
    1140    1317    1318    1319    1141     964     967     966
    1141     964     967     968    1141    1142    1143    1140
    1141    1142    1143    1144    1141    1146    1147    1144
    1141    1146    1147    1148    1142    1137    1138    1133
    1142    1137    1138    1139    1142    1141    1146    1145
    1142    1141    1146    1147    1142    1143    1144    1147
    1142    1143    1144    1321    1143    1140    1317    1322
    1143    1140    1317    1318    1143    1144    1147    1146
    1143    1144    1147    1148    1143    1144    1321    1322
    1143    1144    1321    1326    1144    1147    1148    1151
    1144    1147    1148    1325    1144    1321    1322    1317
    1144    1321    1322    1323    1144    1321    1326    1325
    1144    1321    1326    1327    1145     968     971     970
    1145     968     971     972    1145    1146    1147    1144
    1145    1146    1147    1148    1145    1150    1151    1148
    1145    1150    1151    1152    1146    1141    1142    1137
    1146    1141    1142    1143    1146    1145    1150    1149
    1146    1145    1150    1151    1146    1147    1148    1151
    1146    1147    1148    1325    1147    1144    1321    1322
    1147    1144    1321    1326    1147    1148    1151    1150
    1147    1148    1151    1152    1147    1148    1325    1326
    1147    1148    1325    1330    1148    1151    1152    1155
    1148    1151    1152    1329    1148    1325    1326    1321
    1148    1325    1326    1327    1148    1325    1330    1329
    1148    1325    1330    1331    1149     972     975     974
    1149     972     975     976    1149    1150    1151    1148
    1149    1150    1151    1152    1149    1154    1155    1152
    1149    1154    1155    1156    1150    1145    1146    1141
    1150    1145    1146    1147    1150    1149    1154    1153
    1150    1149    1154    1155    1150    1151    1152    1155
    1150    1151    1152    1329    1151    1148    1325    1326
    1151    1148    1325    1330    1151    1152    1155    1154
    1151    1152    1155    1156    1151    1152    1329    1334
    1151    1152    1329    1330    1152    1155    1156    1159
    1152    1155    1156    1333    1152    1329    1334    1333
    1152    1329    1334    1335    1152    1329    1330    1325
    1152    1329    1330    1331    1153     976     979     978
    1153     976     979     980    1153    1154    1155    1152
    1153    1154    1155    1156    1153    1158    1159    1156
    1153    1158    1159    1160    1154    1149    1150    1145
    1154    1149    1150    1151    1154    1153    1158    1157
    1154    1153    1158    1159    1154    1155    1156    1159
    1154    1155    1156    1333    1155    1152    1329    1334
    1155    1152    1329    1330    1155    1156    1159    1158
    1155    1156    1159    1160    1155    1156    1333    1338
    1155    1156    1333    1334    1156    1159    1160    1163
    1156    1159    1160    1337    1156    1333    1338    1337
    1156    1333    1338    1339    1156    1333    1334    1329
    1156    1333    1334    1335    1157     980     983     982
    1157     980     983     984    1157    1158    1159    1156
    1157    1158    1159    1160    1157    1162    1163    1160
    1157    1162    1163    1164    1158    1153    1154    1149
    1158    1153    1154    1155    1158    1157    1162    1161
    1158    1157    1162    1163    1158    1159    1160    1163
    1158    1159    1160    1337    1159    1156    1333    1338
    1159    1156    1333    1334    1159    1160    1163    1162
    1159    1160    1163    1164    1159    1160    1337    1342
    1159    1160    1337    1338    1160    1163    1164    1167
    1160    1163    1164    1341    1160    1337    1342    1341
    1160    1337    1342    1343    1160    1337    1338    1333
    1160    1337    1338    1339    1161     984     987     986
    1161     984     987     988    1161    1162    1163    1160
    1161    1162    1163    1164    1161    1166    1167    1164
    1161    1166    1167    1168    1162    1157    1158    1153
    1162    1157    1158    1159    1162    1161    1166    1165
    1162    1161    1166    1167    1162    1163    1164    1167
    1162    1163    1164    1341    1163    1160    1337    1342
    1163    1160    1337    1338    1163    1164    1167    1166
    1163    1164    1167    1168    1163    1164    1341    1342
    1163    1164    1341    1346    1164    1167    1168    1171
    1164    1167    1168    1345    1164    1341    1342    1337
    1164    1341    1342    1343    1164    1341    1346    1345
    1164    1341    1346    1347    1165     988     991     990
    1165     988     991     992    1165    1166    1167    1164
    1165    1166    1167    1168    1165    1170    1171    1168
    1165    1170    1171    1172    1166    1161    1162    1157
    1166    1161    1162    1163    1166    1165    1170    1169
    1166    1165    1170    1171    1166    1167    1168    1171
    1166    1167    1168    1345    1167    1164    1341    1342
    1167    1164    1341    1346    1167    1168    1171    1170
    1167    1168    1171    1172    1167    1168    1345    1346
    1167    1168    1345    1350    1168    1171    1172    1175
    1168    1171    1172    1349    1168    1345    1346    1341
    1168    1345    1346    1347    1168    1345    1350    1349
    1168    1345    1350    1351    1169     992     995     994
    1169     992     995     996    1169    1170    1171    1168
    1169    1170    1171    1172    1169    1174    1175    1172
    1169    1174    1175    1176    1170    1165    1166    1161
    1170    1165    1166    1167    1170    1169    1174    1173
    1170    1169    1174    1175    1170    1171    1172    1175
    1170    1171    1172    1349    1171    1168    1345    1346
    1171    1168    1345    1350    1171    1172    1175    1174
    1171    1172    1175    1176    1171    1172    1349    1354
    1171    1172    1349    1350    1172    1175    1176    1179
    1172    1175    1176    1353    1172    1349    1354    1353
    1172    1349    1354    1355    1172    1349    1350    1345
    1172    1349    1350    1351    1173     996     999     998
    1173     996     999    1000    1173    1174    1175    1172
    1173    1174    1175    1176    1173    1178    1179    1176
    1173    1178    1179    1180    1174    1169    1170    1165
    1174    1169    1170    1171    1174    1173    1178    1177
    1174    1173    1178    1179    1174    1175    1176    1179
    1174    1175    1176    1353    1175    1172    1349    1354
    1175    1172    1349    1350    1175    1176    1179    1178
    1175    1176    1179    1180    1175    1176    1353    1358
    1175    1176    1353    1354    1176    1179    1180    1183
    1176    1179    1180    1357    1176    1353    1358    1357
    1176    1353    1358    1359    1176    1353    1354    1349
    1176    1353    1354    1355    1177    1000    1003    1002
    1177    1000    1003    1004    1177    1178    1179    1176
    1177    1178    1179    1180    1177    1182    1183    1180
    1177    1182    1183    1184    1178    1173    1174    1169
    1178    1173    1174    1175    1178    1177    1182    1181
    1178    1177    1182    1183    1178    1179    1180    1183
    1178    1179    1180    1357    1179    1176    1353    1358
    1179    1176    1353    1354    1179    1180    1183    1182
    1179    1180    1183    1184    1179    1180    1357    1362
    1179    1180    1357    1358    1180    1183    1184    1187
    1180    1183    1184    1361    1180    1357    1362    1361
    1180    1357    1362    1363    1180    1357    1358    1353
    1180    1357    1358    1359    1181    1004    1007    1006
    1181    1004    1007    1008    1181    1182    1183    1180
    1181    1182    1183    1184    1181    1186    1187    1184
    1181    1186    1187    1188    1182    1177    1178    1173
    1182    1177    1178    1179    1182    1181    1186    1185
    1182    1181    1186    1187    1182    1183    1184    1187
    1182    1183    1184    1361    1183    1180    1357    1362
    1183    1180    1357    1358    1183    1184    1187    1186
    1183    1184    1187    1188    1183    1184    1361    1362
    1183    1184    1361    1366    1184    1187    1188    1191
    1184    1187    1188    1365    1184    1361    1362    1357
    1184    1361    1362    1363    1184    1361    1366    1365
    1184    1361    1366    1367    1185    1008    1011    1010
    1185    1008    1011    1012    1185    1186    1187    1184
    1185    1186    1187    1188    1185    1190    1191    1188
    1185    1190    1191    1192    1186    1181    1182    1177
    1186    1181    1182    1183    1186    1185    1190    1189
    1186    1185    1190    1191    1186    1187    1188    1191
    1186    1187    1188    1365    1187    1184    1361    1362
    1187    1184    1361    1366    1187    1188    1191    1190
    1187    1188    1191    1192    1187    1188    1365    1366
    1187    1188    1365    1370    1188    1191    1192    1195
    1188    1191    1192    1369    1188    1365    1366    1361
    1188    1365    1366    1367    1188    1365    1370    1369
    1188    1365    1370    1371    1189    1012    1015    1014
    1189    1012    1015    1016    1189    1190    1191    1188
    1189    1190    1191    1192    1189    1194    1195    1192
    1189    1194    1195    1196    1190    1185    1186    1181
    1190    1185    1186    1187    1190    1189    1194    1193
    1190    1189    1194    1195    1190    1191    1192    1195
    1190    1191    1192    1369    1191    1188    1365    1366
    1191    1188    1365    1370    1191    1192    1195    1194
    1191    1192    1195    1196    1191    1192    1369    1374
    1191    1192    1369    1370    1192    1195    1196    1199
    1192    1195    1196    1373    1192    1369    1374    1373
    1192    1369    1374    1375    1192    1369    1370    1365
    1192    1369    1370    1371    1193    1016    1019    1018
    1193    1016    1019    1020    1193    1194    1195    1192
    1193    1194    1195    1196    1193    1198    1199    1196
    1193    1198    1199    1200    1194    1189    1190    1185
    1194    1189    1190    1191    1194    1193    1198    1197
    1194    1193    1198    1199    1194    1195    1196    1199
    1194    1195    1196    1373    1195    1192    1369    1374
    1195    1192    1369    1370    1195    1196    1199    1198
    1195    1196    1199    1200    1195    1196    1373    1378
    1195    1196    1373    1374    1196    1199    1200    1203
    1196    1199    1200    1377    1196    1373    1378    1377
    1196    1373    1378    1379    1196    1373    1374    1369
    1196    1373    1374    1375    1197    1020    1023    1022
    1197    1020    1023    1024    1197    1198    1199    1196
    1197    1198    1199    1200    1197    1202    1203    1200
    1197    1202    1203    1204    1198    1193    1194    1189
    1198    1193    1194    1195    1198    1197    1202    1201
    1198    1197    1202    1203    1198    1199    1200    1203
    1198    1199    1200    1377    1199    1196    1373    1378
    1199    1196    1373    1374    1199    1200    1203    1202
    1199    1200    1203    1204    1199    1200    1377    1382
    1199    1200    1377    1378    1200    1203    1204    1207
    1200    1203    1204    1381    1200    1377    1382    1381
    1200    1377    1382    1383    1200    1377    1378    1373
    1200    1377    1378    1379    1201    1024    1027    1026
    1201    1024    1027    1028    1201    1202    1203    1200
    1201    1202    1203    1204    1201    1206    1207    1204
    1201    1206    1207    1208    1202    1197    1198    1193
    1202    1197    1198    1199    1202    1201    1206    1205
    1202    1201    1206    1207    1202    1203    1204    1207
    1202    1203    1204    1381    1203    1200    1377    1382
    1203    1200    1377    1378    1203    1204    1207    1206
    1203    1204    1207    1208    1203    1204    1381    1382
    1203    1204    1381    1386    1204    1207    1208    1211
    1204    1207    1208    1385    1204    1381    1382    1377
    1204    1381    1382    1383    1204    1381    1386    1385
    1204    1381    1386    1387    1205    1028    1031    1030
    1205    1028    1031    1032    1205    1206    1207    1204
    1205    1206    1207    1208    1205    1210    1211    1208
    1205    1210    1211    1212    1206    1201    1202    1197
    1206    1201    1202    1203    1206    1205    1210    1209
    1206    1205    1210    1211    1206    1207    1208    1211
    1206    1207    1208    1385    1207    1204    1381    1382
    1207    1204    1381    1386    1207    1208    1211    1210
    1207    1208    1211    1212    1207    1208    1385    1386
    1207    1208    1385    1390    1208    1211    1212    1215
    1208    1211    1212    1389    1208    1385    1386    1381
    1208    1385    1386    1387    1208    1385    1390    1389
    1208    1385    1390    1391    1209    1032    1035    1034
    1209    1032    1035    1036    1209    1210    1211    1208
    1209    1210    1211    1212    1209    1214    1215    1212
    1209    1214    1215    1216    1210    1205    1206    1201
    1210    1205    1206    1207    1210    1209    1214    1213
    1210    1209    1214    1215    1210    1211    1212    1215
    1210    1211    1212    1389    1211    1208    1385    1386
    1211    1208    1385    1390    1211    1212    1215    1214
    1211    1212    1215    1216    1211    1212    1389    1394
    1211    1212    1389    1390    1212    1215    1216    1219
    1212    1215    1216    1393    1212    1389    1394    1393
    1212    1389    1394    1395    1212    1389    1390    1385
    1212    1389    1390    1391    1213    1036    1039    1038
    1213    1036    1039    1040    1213    1214    1215    1212
    1213    1214    1215    1216    1213    1218    1219    1216
    1213    1218    1219    1220    1214    1209    1210    1205
    1214    1209    1210    1211    1214    1213    1218    1217
    1214    1213    1218    1219    1214    1215    1216    1219
    1214    1215    1216    1393    1215    1212    1389    1394
    1215    1212    1389    1390    1215    1216    1219    1218
    1215    1216    1219    1220    1215    1216    1393    1398
    1215    1216    1393    1394    1216    1219    1220    1223
    1216    1219    1220    1397    1216    1393    1398    1397
    1216    1393    1398    1399    1216    1393    1394    1389
    1216    1393    1394    1395    1217    1040    1043    1042
    1217    1040    1043    1044    1217    1218    1219    1216
    1217    1218    1219    1220    1217    1222    1223    1220
    1217    1222    1223    1224    1218    1213    1214    1209
    1218    1213    1214    1215    1218    1217    1222    1221
    1218    1217    1222    1223    1218    1219    1220    1223
    1218    1219    1220    1397    1219    1216    1393    1398
    1219    1216    1393    1394    1219    1220    1223    1222
    1219    1220    1223    1224    1219    1220    1397    1402
    1219    1220    1397    1398    1220    1223    1224    1227
    1220    1223    1224    1401    1220    1397    1402    1401
    1220    1397    1402    1403    1220    1397    1398    1393
    1220    1397    1398    1399    1221    1044    1047    1046
    1221    1044    1047    1048    1221    1222    1223    1220
    1221    1222    1223    1224    1221    1226    1227    1224
    1221    1226    1227    1228    1222    1217    1218    1213
    1222    1217    1218    1219    1222    1221    1226    1225
    1222    1221    1226    1227    1222    1223    1224    1227
    1222    1223    1224    1401    1223    1220    1397    1402
    1223    1220    1397    1398    1223    1224    1227    1226
    1223    1224    1227    1228    1223    1224    1401    1402
    1223    1224    1401    1406    1224    1227    1228    1231
    1224    1227    1228    1405    1224    1401    1402    1397
    1224    1401    1402    1403    1224    1401    1406    1405
    1224    1401    1406    1407    1225    1048    1051    1050
    1225    1048    1051    1052    1225    1226    1227    1224
    1225    1226    1227    1228    1225    1230    1231    1228
    1225    1230    1231    1232    1226    1221    1222    1217
    1226    1221    1222    1223    1226    1225    1230    1229
    1226    1225    1230    1231    1226    1227    1228    1231
    1226    1227    1228    1405    1227    1224    1401    1402
    1227    1224    1401    1406    1227    1228    1231    1230
    1227    1228    1231    1232    1227    1228    1405    1406
    1227    1228    1405    1410    1228    1231    1232    1235
    1228    1231    1232    1409    1228    1405    1406    1401
    1228    1405    1406    1407    1228    1405    1410    1409
    1228    1405    1410    1411    1229    1052    1055    1054
    1229    1052    1055    1056    1229    1230    1231    1228
    1229    1230    1231    1232    1229    1234    1235    1232
    1229    1234    1235    1236    1230    1225    1226    1221
    1230    1225    1226    1227    1230    1229    1234    1233
    1230    1229    1234    1235    1230    1231    1232    1235
    1230    1231    1232    1409    1231    1228    1405    1406
    1231    1228    1405    1410    1231    1232    1235    1234
    1231    1232    1235    1236    1231    1232    1409    1414
    1231    1232    1409    1410    1232    1235    1236    1239
    1232    1235    1236    1413    1232    1409    1414    1413
    1232    1409    1414    1415    1232    1409    1410    1405
    1232    1409    1410    1411    1233    1056    1059    1058
    1233    1056    1059    1060    1233    1234    1235    1232
    1233    1234    1235    1236    1233    1238    1239    1236
    1233    1238    1239    1240    1234    1229    1230    1225
    1234    1229    1230    1231    1234    1233    1238    1237
    1234    1233    1238    1239    1234    1235    1236    1239
    1234    1235    1236    1413    1235    1232    1409    1414
    1235    1232    1409    1410    1235    1236    1239    1238
    1235    1236    1239    1240    1235    1236    1413    1418
    1235    1236    1413    1414    1236    1239    1240    1243
    1236    1239    1240    1417    1236    1413    1418    1417
    1236    1413    1418    1419    1236    1413    1414    1409
    1236    1413    1414    1415    1237    1060    1063    1062
    1237    1060    1063    1064    1237    1238    1239    1236
    1237    1238    1239    1240    1237    1242    1243    1240
    1237    1242    1243    1244    1238    1233    1234    1229
    1238    1233    1234    1235    1238    1237    1242    1241
    1238    1237    1242    1243    1238    1239    1240    1243
    1238    1239    1240    1417    1239    1236    1413    1418
    1239    1236    1413    1414    1239    1240    1243    1242
    1239    1240    1243    1244    1239    1240    1417    1422
    1239    1240    1417    1418    1240    1243    1244    1247
    1240    1243    1244    1421    1240    1417    1422    1421
    1240    1417    1422    1423    1240    1417    1418    1413
    1240    1417    1418    1419    1241    1064    1067    1066
    1241    1064    1067    1068    1241    1242    1243    1240
    1241    1242    1243    1244    1241    1246    1247    1244
    1241    1246    1247    1248    1242    1237    1238    1233
    1242    1237    1238    1239    1242    1241    1246    1245
    1242    1241    1246    1247    1242    1243    1244    1247
    1242    1243    1244    1421    1243    1240    1417    1422
    1243    1240    1417    1418    1243    1244    1247    1246
    1243    1244    1247    1248    1243    1244    1421    1422
    1243    1244    1421    1426    1244    1247    1248    1251
    1244    1247    1248    1425    1244    1421    1422    1417
    1244    1421    1422    1423    1244    1421    1426    1425
    1244    1421    1426    1427    1245    1068    1071    1070
    1245    1068    1071    1072    1245    1246    1247    1244
    1245    1246    1247    1248    1245    1250    1251    1248
    1245    1250    1251    1252    1246    1241    1242    1237
    1246    1241    1242    1243    1246    1245    1250    1249
    1246    1245    1250    1251    1246    1247    1248    1251
    1246    1247    1248    1425    1247    1244    1421    1422
    1247    1244    1421    1426    1247    1248    1251    1250
    1247    1248    1251    1252    1247    1248    1425    1426
    1247    1248    1425    1430    1248    1251    1252    1255
    1248    1251    1252    1429    1248    1425    1426    1421
    1248    1425    1426    1427    1248    1425    1430    1429
    1248    1425    1430    1431    1249    1072    1075    1074
    1249    1072    1075    1076    1249    1250    1251    1248
    1249    1250    1251    1252    1249    1254    1255    1252
    1249    1254    1255    1256    1250    1245    1246    1241
    1250    1245    1246    1247    1250    1249    1254    1253
    1250    1249    1254    1255    1250    1251    1252    1255
    1250    1251    1252    1429    1251    1248    1425    1426
    1251    1248    1425    1430    1251    1252    1255    1254
    1251    1252    1255    1256    1251    1252    1429    1434
    1251    1252    1429    1430    1252    1255    1256    1259
    1252    1255    1256    1433    1252    1429    1434    1433
    1252    1429    1434    1435    1252    1429    1430    1425
    1252    1429    1430    1431    1253    1076    1079    1078
    1253    1076    1079    1080    1253    1254    1255    1252
    1253    1254    1255    1256    1253    1258    1259    1256
    1253    1258    1259    1260    1254    1249    1250    1245
    1254    1249    1250    1251    1254    1253    1258    1257
    1254    1253    1258    1259    1254    1255    1256    1259
    1254    1255    1256    1433    1255    1252    1429    1434
    1255    1252    1429    1430    1255    1256    1259    1258
    1255    1256    1259    1260    1255    1256    1433    1438
    1255    1256    1433    1434    1256    1259    1260    1437
    1256    1433    1438    1437    1256    1433    1438    1439
    1256    1433    1434    1429    1256    1433    1434    1435
    1257    1258    1259    1256    1257    1258    1259    1260
    1258    1253    1254    1249    1258    1253    1254    1255
    1258    1259    1260    1437    1259    1256    1433    1438
    1259    1256    1433    1434    1259    1260    1437    1438
    1260    1437    1438    1433    1260    1437    1438    1439
    1261    1084    1087    1086    1261    1084    1087    1088
    1261    1262    1263    1264    1261    1266    1267    1264
    1261    1266    1267    1268    1262    1261    1266    1265
    1262    1261    1266    1267    1262    1263    1264    1267
    1262    1263    1264    1441    1263    1264    1267    1266
    1263    1264    1267    1268    1263    1264    1441    1442
    1263    1264    1441    1446    1264    1267    1268    1271
    1264    1267    1268    1445    1264    1441    1442    1443
    1264    1441    1446    1445    1264    1441    1446    1447
    1265    1088    1091    1090    1265    1088    1091    1092
    1265    1266    1267    1264    1265    1266    1267    1268
    1265    1270    1271    1268    1265    1270    1271    1272
    1266    1261    1262    1263    1266    1265    1270    1269
    1266    1265    1270    1271    1266    1267    1268    1271
    1266    1267    1268    1445    1267    1264    1441    1442
    1267    1264    1441    1446    1267    1268    1271    1270
    1267    1268    1271    1272    1267    1268    1445    1446
    1267    1268    1445    1450    1268    1271    1272    1275
    1268    1271    1272    1449    1268    1445    1446    1441
    1268    1445    1446    1447    1268    1445    1450    1449
    1268    1445    1450    1451    1269    1092    1095    1094
    1269    1092    1095    1096    1269    1270    1271    1268
    1269    1270    1271    1272    1269    1274    1275    1272
    1269    1274    1275    1276    1270    1265    1266    1261
    1270    1265    1266    1267    1270    1269    1274    1273
    1270    1269    1274    1275    1270    1271    1272    1275
    1270    1271    1272    1449    1271    1268    1445    1446
    1271    1268    1445    1450    1271    1272    1275    1274
    1271    1272    1275    1276    1271    1272    1449    1454
    1271    1272    1449    1450    1272    1275    1276    1279
    1272    1275    1276    1453    1272    1449    1454    1453
    1272    1449    1454    1455    1272    1449    1450    1445
    1272    1449    1450    1451    1273    1096    1099    1098
    1273    1096    1099    1100    1273    1274    1275    1272
    1273    1274    1275    1276    1273    1278    1279    1276
    1273    1278    1279    1280    1274    1269    1270    1265
    1274    1269    1270    1271    1274    1273    1278    1277
    1274    1273    1278    1279    1274    1275    1276    1279
    1274    1275    1276    1453    1275    1272    1449    1454
    1275    1272    1449    1450    1275    1276    1279    1278
    1275    1276    1279    1280    1275    1276    1453    1458
    1275    1276    1453    1454    1276    1279    1280    1283
    1276    1279    1280    1457    1276    1453    1458    1457
    1276    1453    1458    1459    1276    1453    1454    1449
    1276    1453    1454    1455    1277    1100    1103    1102
    1277    1100    1103    1104    1277    1278    1279    1276
    1277    1278    1279    1280    1277    1282    1283    1280
    1277    1282    1283    1284    1278    1273    1274    1269
    1278    1273    1274    1275    1278    1277    1282    1281
    1278    1277    1282    1283    1278    1279    1280    1283
    1278    1279    1280    1457    1279    1276    1453    1458
    1279    1276    1453    1454    1279    1280    1283    1282
    1279    1280    1283    1284    1279    1280    1457    1462
    1279    1280    1457    1458    1280    1283    1284    1287
    1280    1283    1284    1461    1280    1457    1462    1461
    1280    1457    1462    1463    1280    1457    1458    1453
    1280    1457    1458    1459    1281    1104    1107    1106
    1281    1104    1107    1108    1281    1282    1283    1280
    1281    1282    1283    1284    1281    1286    1287    1284
    1281    1286    1287    1288    1282    1277    1278    1273
    1282    1277    1278    1279    1282    1281    1286    1285
    1282    1281    1286    1287    1282    1283    1284    1287
    1282    1283    1284    1461    1283    1280    1457    1462
    1283    1280    1457    1458    1283    1284    1287    1286
    1283    1284    1287    1288    1283    1284    1461    1462
    1283    1284    1461    1466    1284    1287    1288    1291
    1284    1287    1288    1465    1284    1461    1462    1457
    1284    1461    1462    1463    1284    1461    1466    1465
    1284    1461    1466    1467    1285    1108    1111    1110
    1285    1108    1111    1112    1285    1286    1287    1284
    1285    1286    1287    1288    1285    1290    1291    1288
    1285    1290    1291    1292    1286    1281    1282    1277
    1286    1281    1282    1283    1286    1285    1290    1289
    1286    1285    1290    1291    1286    1287    1288    1291
    1286    1287    1288    1465    1287    1284    1461    1462
    1287    1284    1461    1466    1287    1288    1291    1290
    1287    1288    1291    1292    1287    1288    1465    1466
    1287    1288    1465    1470    1288    1291    1292    1295
    1288    1291    1292    1469    1288    1465    1466    1461
    1288    1465    1466    1467    1288    1465    1470    1469
    1288    1465    1470    1471    1289    1112    1115    1114
    1289    1112    1115    1116    1289    1290    1291    1288
    1289    1290    1291    1292    1289    1294    1295    1292
    1289    1294    1295    1296    1290    1285    1286    1281
    1290    1285    1286    1287    1290    1289    1294    1293
    1290    1289    1294    1295    1290    1291    1292    1295
    1290    1291    1292    1469    1291    1288    1465    1466
    1291    1288    1465    1470    1291    1292    1295    1294
    1291    1292    1295    1296    1291    1292    1469    1474
    1291    1292    1469    1470    1292    1295    1296    1299
    1292    1295    1296    1473    1292    1469    1474    1473
    1292    1469    1474    1475    1292    1469    1470    1465
    1292    1469    1470    1471    1293    1116    1119    1118
    1293    1116    1119    1120    1293    1294    1295    1292
    1293    1294    1295    1296    1293    1298    1299    1296
    1293    1298    1299    1300    1294    1289    1290    1285
    1294    1289    1290    1291    1294    1293    1298    1297
    1294    1293    1298    1299    1294    1295    1296    1299
    1294    1295    1296    1473    1295    1292    1469    1474
    1295    1292    1469    1470    1295    1296    1299    1298
    1295    1296    1299    1300    1295    1296    1473    1478
    1295    1296    1473    1474    1296    1299    1300    1303
    1296    1299    1300    1477    1296    1473    1478    1477
    1296    1473    1478    1479    1296    1473    1474    1469
    1296    1473    1474    1475    1297    1120    1123    1122
    1297    1120    1123    1124    1297    1298    1299    1296
    1297    1298    1299    1300    1297    1302    1303    1300
    1297    1302    1303    1304    1298    1293    1294    1289
    1298    1293    1294    1295    1298    1297    1302    1301
    1298    1297    1302    1303    1298    1299    1300    1303
    1298    1299    1300    1477    1299    1296    1473    1478
    1299    1296    1473    1474    1299    1300    1303    1302
    1299    1300    1303    1304    1299    1300    1477    1482
    1299    1300    1477    1478    1300    1303    1304    1307
    1300    1303    1304    1481    1300    1477    1482    1481
    1300    1477    1482    1483    1300    1477    1478    1473
    1300    1477    1478    1479    1301    1124    1127    1126
    1301    1124    1127    1128    1301    1302    1303    1300
    1301    1302    1303    1304    1301    1306    1307    1304
    1301    1306    1307    1308    1302    1297    1298    1293
    1302    1297    1298    1299    1302    1301    1306    1305
    1302    1301    1306    1307    1302    1303    1304    1307
    1302    1303    1304    1481    1303    1300    1477    1482
    1303    1300    1477    1478    1303    1304    1307    1306
    1303    1304    1307    1308    1303    1304    1481    1482
    1303    1304    1481    1486    1304    1307    1308    1311
    1304    1307    1308    1485    1304    1481    1482    1477
    1304    1481    1482    1483    1304    1481    1486    1485
    1304    1481    1486    1487    1305    1128    1131    1130
    1305    1128    1131    1132    1305    1306    1307    1304
    1305    1306    1307    1308    1305    1310    1311    1308
    1305    1310    1311    1312    1306    1301    1302    1297
    1306    1301    1302    1303    1306    1305    1310    1309
    1306    1305    1310    1311    1306    1307    1308    1311
    1306    1307    1308    1485    1307    1304    1481    1482
    1307    1304    1481    1486    1307    1308    1311    1310
    1307    1308    1311    1312    1307    1308    1485    1486
    1307    1308    1485    1490    1308    1311    1312    1315
    1308    1311    1312    1489    1308    1485    1486    1481
    1308    1485    1486    1487    1308    1485    1490    1489
    1308    1485    1490    1491    1309    1132    1135    1134
    1309    1132    1135    1136    1309    1310    1311    1308
    1309    1310    1311    1312    1309    1314    1315    1312
    1309    1314    1315    1316    1310    1305    1306    1301
    1310    1305    1306    1307    1310    1309    1314    1313
    1310    1309    1314    1315    1310    1311    1312    1315
    1310    1311    1312    1489    1311    1308    1485    1486
    1311    1308    1485    1490    1311    1312    1315    1314
    1311    1312    1315    1316    1311    1312    1489    1494
    1311    1312    1489    1490    1312    1315    1316    1319
    1312    1315    1316    1493    1312    1489    1494    1493
    1312    1489    1494    1495    1312    1489    1490    1485
    1312    1489    1490    1491    1313    1136    1139    1138
    1313    1136    1139    1140    1313    1314    1315    1312
    1313    1314    1315    1316    1313    1318    1319    1316
    1313    1318    1319    1320    1314    1309    1310    1305
    1314    1309    1310    1311    1314    1313    1318    1317
    1314    1313    1318    1319    1314    1315    1316    1319
    1314    1315    1316    1493    1315    1312    1489    1494
    1315    1312    1489    1490    1315    1316    1319    1318
    1315    1316    1319    1320    1315    1316    1493    1494
    1315    1316    1493    1498    1316    1319    1320    1323
    1316    1319    1320    1497    1316    1493    1494    1489
    1316    1493    1494    1495    1316    1493    1498    1497
    1316    1493    1498    1499    1317    1140    1143    1142
    1317    1140    1143    1144    1317    1318    1319    1316
    1317    1318    1319    1320    1317    1322    1323    1320
    1317    1322    1323    1324    1318    1313    1314    1309
    1318    1313    1314    1315    1318    1317    1322    1321
    1318    1317    1322    1323    1318    1319    1320    1323
    1318    1319    1320    1497    1319    1316    1493    1494
    1319    1316    1493    1498    1319    1320    1323    1322
    1319    1320    1323    1324    1319    1320    1497    1498
    1319    1320    1497    1502    1320    1323    1324    1327
    1320    1323    1324    1501    1320    1497    1498    1493
    1320    1497    1498    1499    1320    1497    1502    1501
    1320    1497    1502    1503    1321    1144    1147    1146
    1321    1144    1147    1148    1321    1322    1323    1320
    1321    1322    1323    1324    1321    1326    1327    1324
    1321    1326    1327    1328    1322    1317    1318    1313
    1322    1317    1318    1319    1322    1321    1326    1325
    1322    1321    1326    1327    1322    1323    1324    1327
    1322    1323    1324    1501    1323    1320    1497    1498
    1323    1320    1497    1502    1323    1324    1327    1326
    1323    1324    1327    1328    1323    1324    1501    1502
    1323    1324    1501    1506    1324    1327    1328    1331
    1324    1327    1328    1505    1324    1501    1502    1497
    1324    1501    1502    1503    1324    1501    1506    1505
    1324    1501    1506    1507    1325    1148    1151    1150
    1325    1148    1151    1152    1325    1326    1327    1324
    1325    1326    1327    1328    1325    1330    1331    1328
    1325    1330    1331    1332    1326    1321    1322    1317
    1326    1321    1322    1323    1326    1325    1330    1329
    1326    1325    1330    1331    1326    1327    1328    1331
    1326    1327    1328    1505    1327    1324    1501    1502
    1327    1324    1501    1506    1327    1328    1331    1330
    1327    1328    1331    1332    1327    1328    1505    1506
    1327    1328    1505    1510    1328    1331    1332    1335
    1328    1331    1332    1509    1328    1505    1506    1501
    1328    1505    1506    1507    1328    1505    1510    1509
    1328    1505    1510    1511    1329    1152    1155    1154
    1329    1152    1155    1156    1329    1330    1331    1328
    1329    1330    1331    1332    1329    1334    1335    1332
    1329    1334    1335    1336    1330    1325    1326    1321
    1330    1325    1326    1327    1330    1329    1334    1333
    1330    1329    1334    1335    1330    1331    1332    1335
    1330    1331    1332    1509    1331    1328    1505    1506
    1331    1328    1505    1510    1331    1332    1335    1334
    1331    1332    1335    1336    1331    1332    1509    1510
    1331    1332    1509    1514    1332    1335    1336    1339
    1332    1335    1336    1513    1332    1509    1510    1505
    1332    1509    1510    1511    1332    1509    1514    1513
    1332    1509    1514    1515    1333    1156    1159    1158
    1333    1156    1159    1160    1333    1334    1335    1332
    1333    1334    1335    1336    1333    1338    1339    1336
    1333    1338    1339    1340    1334    1329    1330    1325
    1334    1329    1330    1331    1334    1333    1338    1337
    1334    1333    1338    1339    1334    1335    1336    1339
    1334    1335    1336    1513    1335    1332    1509    1510
    1335    1332    1509    1514    1335    1336    1339    1338
    1335    1336    1339    1340    1335    1336    1513    1514
    1335    1336    1513    1518    1336    1339    1340    1343
    1336    1339    1340    1517    1336    1513    1514    1509
    1336    1513    1514    1515    1336    1513    1518    1517
    1336    1513    1518    1519    1337    1160    1163    1162
    1337    1160    1163    1164    1337    1338    1339    1336
    1337    1338    1339    1340    1337    1342    1343    1340
    1337    1342    1343    1344    1338    1333    1334    1329
    1338    1333    1334    1335    1338    1337    1342    1341
    1338    1337    1342    1343    1338    1339    1340    1343
    1338    1339    1340    1517    1339    1336    1513    1514
    1339    1336    1513    1518    1339    1340    1343    1342
    1339    1340    1343    1344    1339    1340    1517    1522
    1339    1340    1517    1518    1340    1343    1344    1347
    1340    1343    1344    1521    1340    1517    1522    1521
    1340    1517    1522    1523    1340    1517    1518    1513
    1340    1517    1518    1519    1341    1164    1167    1166
    1341    1164    1167    1168    1341    1342    1343    1340
    1341    1342    1343    1344    1341    1346    1347    1344
    1341    1346    1347    1348    1342    1337    1338    1333
    1342    1337    1338    1339    1342    1341    1346    1345
    1342    1341    1346    1347    1342    1343    1344    1347
    1342    1343    1344    1521    1343    1340    1517    1522
    1343    1340    1517    1518    1343    1344    1347    1346
    1343    1344    1347    1348    1343    1344    1521    1522
    1343    1344    1521    1526    1344    1347    1348    1351
    1344    1347    1348    1525    1344    1521    1522    1517
    1344    1521    1522    1523    1344    1521    1526    1525
    1344    1521    1526    1527    1345    1168    1171    1170
    1345    1168    1171    1172    1345    1346    1347    1344
    1345    1346    1347    1348    1345    1350    1351    1348
    1345    1350    1351    1352    1346    1341    1342    1337
    1346    1341    1342    1343    1346    1345    1350    1349
    1346    1345    1350    1351    1346    1347    1348    1351
    1346    1347    1348    1525    1347    1344    1521    1522
    1347    1344    1521    1526    1347    1348    1351    1350
    1347    1348    1351    1352    1347    1348    1525    1526
    1347    1348    1525    1530    1348    1351    1352    1355
    1348    1351    1352    1529    1348    1525    1526    1521
    1348    1525    1526    1527    1348    1525    1530    1529
    1348    1525    1530    1531    1349    1172    1175    1174
    1349    1172    1175    1176    1349    1350    1351    1348
    1349    1350    1351    1352    1349    1354    1355    1352
    1349    1354    1355    1356    1350    1345    1346    1341
    1350    1345    1346    1347    1350    1349    1354    1353
    1350    1349    1354    1355    1350    1351    1352    1355
    1350    1351    1352    1529    1351    1348    1525    1526
    1351    1348    1525    1530    1351    1352    1355    1354
    1351    1352    1355    1356    1351    1352    1529    1534
    1351    1352    1529    1530    1352    1355    1356    1359
    1352    1355    1356    1533    1352    1529    1534    1533
    1352    1529    1534    1535    1352    1529    1530    1525
    1352    1529    1530    1531    1353    1176    1179    1178
    1353    1176    1179    1180    1353    1354    1355    1352
    1353    1354    1355    1356    1353    1358    1359    1356
    1353    1358    1359    1360    1354    1349    1350    1345
    1354    1349    1350    1351    1354    1353    1358    1357
    1354    1353    1358    1359    1354    1355    1356    1359
    1354    1355    1356    1533    1355    1352    1529    1534
    1355    1352    1529    1530    1355    1356    1359    1358
    1355    1356    1359    1360    1355    1356    1533    1538
    1355    1356    1533    1534    1356    1359    1360    1363
    1356    1359    1360    1537    1356    1533    1538    1537
    1356    1533    1538    1539    1356    1533    1534    1529
    1356    1533    1534    1535    1357    1180    1183    1182
    1357    1180    1183    1184    1357    1358    1359    1356
    1357    1358    1359    1360    1357    1362    1363    1360
    1357    1362    1363    1364    1358    1353    1354    1349
    1358    1353    1354    1355    1358    1357    1362    1361
    1358    1357    1362    1363    1358    1359    1360    1363
    1358    1359    1360    1537    1359    1356    1533    1538
    1359    1356    1533    1534    1359    1360    1363    1362
    1359    1360    1363    1364    1359    1360    1537    1542
    1359    1360    1537    1538    1360    1363    1364    1367
    1360    1363    1364    1541    1360    1537    1542    1541
    1360    1537    1542    1543    1360    1537    1538    1533
    1360    1537    1538    1539    1361    1184    1187    1186
    1361    1184    1187    1188    1361    1362    1363    1360
    1361    1362    1363    1364    1361    1366    1367    1364
    1361    1366    1367    1368    1362    1357    1358    1353
    1362    1357    1358    1359    1362    1361    1366    1365
    1362    1361    1366    1367    1362    1363    1364    1367
    1362    1363    1364    1541    1363    1360    1537    1542
    1363    1360    1537    1538    1363    1364    1367    1366
    1363    1364    1367    1368    1363    1364    1541    1542
    1363    1364    1541    1546    1364    1367    1368    1371
    1364    1367    1368    1545    1364    1541    1542    1537
    1364    1541    1542    1543    1364    1541    1546    1545
    1364    1541    1546    1547    1365    1188    1191    1190
    1365    1188    1191    1192    1365    1366    1367    1364
    1365    1366    1367    1368    1365    1370    1371    1368
    1365    1370    1371    1372    1366    1361    1362    1357
    1366    1361    1362    1363    1366    1365    1370    1369
    1366    1365    1370    1371    1366    1367    1368    1371
    1366    1367    1368    1545    1367    1364    1541    1542
    1367    1364    1541    1546    1367    1368    1371    1370
    1367    1368    1371    1372    1367    1368    1545    1546
    1367    1368    1545    1550    1368    1371    1372    1375
    1368    1371    1372    1549    1368    1545    1546    1541
    1368    1545    1546    1547    1368    1545    1550    1549
    1368    1545    1550    1551    1369    1192    1195    1194
    1369    1192    1195    1196    1369    1370    1371    1368
    1369    1370    1371    1372    1369    1374    1375    1372
    1369    1374    1375    1376    1370    1365    1366    1361
    1370    1365    1366    1367    1370    1369    1374    1373
    1370    1369    1374    1375    1370    1371    1372    1375
    1370    1371    1372    1549    1371    1368    1545    1546
    1371    1368    1545    1550    1371    1372    1375    1374
    1371    1372    1375    1376    1371    1372    1549    1554
    1371    1372    1549    1550    1372    1375    1376    1379
    1372    1375    1376    1553    1372    1549    1554    1553
    1372    1549    1554    1555    1372    1549    1550    1545
    1372    1549    1550    1551    1373    1196    1199    1198
    1373    1196    1199    1200    1373    1374    1375    1372
    1373    1374    1375    1376    1373    1378    1379    1376
    1373    1378    1379    1380    1374    1369    1370    1365
    1374    1369    1370    1371    1374    1373    1378    1377
    1374    1373    1378    1379    1374    1375    1376    1379
    1374    1375    1376    1553    1375    1372    1549    1554
    1375    1372    1549    1550    1375    1376    1379    1378
    1375    1376    1379    1380    1375    1376    1553    1558
    1375    1376    1553    1554    1376    1379    1380    1383
    1376    1379    1380    1557    1376    1553    1558    1557
    1376    1553    1558    1559    1376    1553    1554    1549
    1376    1553    1554    1555    1377    1200    1203    1202
    1377    1200    1203    1204    1377    1378    1379    1376
    1377    1378    1379    1380    1377    1382    1383    1380
    1377    1382    1383    1384    1378    1373    1374    1369
    1378    1373    1374    1375    1378    1377    1382    1381
    1378    1377    1382    1383    1378    1379    1380    1383
    1378    1379    1380    1557    1379    1376    1553    1558
    1379    1376    1553    1554    1379    1380    1383    1382
    1379    1380    1383    1384    1379    1380    1557    1562
    1379    1380    1557    1558    1380    1383    1384    1387
    1380    1383    1384    1561    1380    1557    1562    1561
    1380    1557    1562    1563    1380    1557    1558    1553
    1380    1557    1558    1559    1381    1204    1207    1206
    1381    1204    1207    1208    1381    1382    1383    1380
    1381    1382    1383    1384    1381    1386    1387    1384
    1381    1386    1387    1388    1382    1377    1378    1373
    1382    1377    1378    1379    1382    1381    1386    1385
    1382    1381    1386    1387    1382    1383    1384    1387
    1382    1383    1384    1561    1383    1380    1557    1562
    1383    1380    1557    1558    1383    1384    1387    1386
    1383    1384    1387    1388    1383    1384    1561    1562
    1383    1384    1561    1566    1384    1387    1388    1391
    1384    1387    1388    1565    1384    1561    1562    1557
    1384    1561    1562    1563    1384    1561    1566    1565
    1384    1561    1566    1567    1385    1208    1211    1210
    1385    1208    1211    1212    1385    1386    1387    1384
    1385    1386    1387    1388    1385    1390    1391    1388
    1385    1390    1391    1392    1386    1381    1382    1377
    1386    1381    1382    1383    1386    1385    1390    1389
    1386    1385    1390    1391    1386    1387    1388    1391
    1386    1387    1388    1565    1387    1384    1561    1562
    1387    1384    1561    1566    1387    1388    1391    1390
    1387    1388    1391    1392    1387    1388    1565    1566
    1387    1388    1565    1570    1388    1391    1392    1395
    1388    1391    1392    1569    1388    1565    1566    1561
    1388    1565    1566    1567    1388    1565    1570    1569
    1388    1565    1570    1571    1389    1212    1215    1214
    1389    1212    1215    1216    1389    1390    1391    1388
    1389    1390    1391    1392    1389    1394    1395    1392
    1389    1394    1395    1396    1390    1385    1386    1381
    1390    1385    1386    1387    1390    1389    1394    1393
    1390    1389    1394    1395    1390    1391    1392    1395
    1390    1391    1392    1569    1391    1388    1565    1566
    1391    1388    1565    1570    1391    1392    1395    1394
    1391    1392    1395    1396    1391    1392    1569    1570
    1391    1392    1569    1574    1392    1395    1396    1399
    1392    1395    1396    1573    1392    1569    1570    1565
    1392    1569    1570    1571    1392    1569    1574    1573
    1392    1569    1574    1575    1393    1216    1219    1218
    1393    1216    1219    1220    1393    1394    1395    1392
    1393    1394    1395    1396    1393    1398    1399    1396
    1393    1398    1399    1400    1394    1389    1390    1385
    1394    1389    1390    1391    1394    1393    1398    1397
    1394    1393    1398    1399    1394    1395    1396    1399
    1394    1395    1396    1573    1395    1392    1569    1570
    1395    1392    1569    1574    1395    1396    1399    1398
    1395    1396    1399    1400    1395    1396    1573    1574
    1395    1396    1573    1578    1396    1399    1400    1403
    1396    1399    1400    1577    1396    1573    1574    1569
    1396    1573    1574    1575    1396    1573    1578    1577
    1396    1573    1578    1579    1397    1220    1223    1222
    1397    1220    1223    1224    1397    1398    1399    1396
    1397    1398    1399    1400    1397    1402    1403    1400
    1397    1402    1403    1404    1398    1393    1394    1389
    1398    1393    1394    1395    1398    1397    1402    1401
    1398    1397    1402    1403    1398    1399    1400    1403
    1398    1399    1400    1577    1399    1396    1573    1574
    1399    1396    1573    1578    1399    1400    1403    1402
    1399    1400    1403    1404    1399    1400    1577    1578
    1399    1400    1577    1582    1400    1403    1404    1407
    1400    1403    1404    1581    1400    1577    1578    1573
    1400    1577    1578    1579    1400    1577    1582    1581
    1400    1577    1582    1583    1401    1224    1227    1226
    1401    1224    1227    1228    1401    1402    1403    1400
    1401    1402    1403    1404    1401    1406    1407    1404
    1401    1406    1407    1408    1402    1397    1398    1393
    1402    1397    1398    1399    1402    1401    1406    1405
    1402    1401    1406    1407    1402    1403    1404    1407
    1402    1403    1404    1581    1403    1400    1577    1578
    1403    1400    1577    1582    1403    1404    1407    1406
    1403    1404    1407    1408    1403    1404    1581    1582
    1403    1404    1581    1586    1404    1407    1408    1411
    1404    1407    1408    1585    1404    1581    1582    1577
    1404    1581    1582    1583    1404    1581    1586    1585
    1404    1581    1586    1587    1405    1228    1231    1230
    1405    1228    1231    1232    1405    1406    1407    1404
    1405    1406    1407    1408    1405    1410    1411    1408
    1405    1410    1411    1412    1406    1401    1402    1397
    1406    1401    1402    1403    1406    1405    1410    1409
    1406    1405    1410    1411    1406    1407    1408    1411
    1406    1407    1408    1585    1407    1404    1581    1582
    1407    1404    1581    1586    1407    1408    1411    1410
    1407    1408    1411    1412    1407    1408    1585    1586
    1407    1408    1585    1590    1408    1411    1412    1415
    1408    1411    1412    1589    1408    1585    1586    1581
    1408    1585    1586    1587    1408    1585    1590    1589
    1408    1585    1590    1591    1409    1232    1235    1234
    1409    1232    1235    1236    1409    1410    1411    1408
    1409    1410    1411    1412    1409    1414    1415    1412
    1409    1414    1415    1416    1410    1405    1406    1401
    1410    1405    1406    1407    1410    1409    1414    1413
    1410    1409    1414    1415    1410    1411    1412    1415
    1410    1411    1412    1589    1411    1408    1585    1586
    1411    1408    1585    1590    1411    1412    1415    1414
    1411    1412    1415    1416    1411    1412    1589    1594
    1411    1412    1589    1590    1412    1415    1416    1419
    1412    1415    1416    1593    1412    1589    1594    1593
    1412    1589    1594    1595    1412    1589    1590    1585
    1412    1589    1590    1591    1413    1236    1239    1238
    1413    1236    1239    1240    1413    1414    1415    1412
    1413    1414    1415    1416    1413    1418    1419    1416
    1413    1418    1419    1420    1414    1409    1410    1405
    1414    1409    1410    1411    1414    1413    1418    1417
    1414    1413    1418    1419    1414    1415    1416    1419
    1414    1415    1416    1593    1415    1412    1589    1594
    1415    1412    1589    1590    1415    1416    1419    1418
    1415    1416    1419    1420    1415    1416    1593    1598
    1415    1416    1593    1594    1416    1419    1420    1423
    1416    1419    1420    1597    1416    1593    1598    1597
    1416    1593    1598    1599    1416    1593    1594    1589
    1416    1593    1594    1595    1417    1240    1243    1242
    1417    1240    1243    1244    1417    1418    1419    1416
    1417    1418    1419    1420    1417    1422    1423    1420
    1417    1422    1423    1424    1418    1413    1414    1409
    1418    1413    1414    1415    1418    1417    1422    1421
    1418    1417    1422    1423    1418    1419    1420    1423
    1418    1419    1420    1597    1419    1416    1593    1598
    1419    1416    1593    1594    1419    1420    1423    1422
    1419    1420    1423    1424    1419    1420    1597    1602
    1419    1420    1597    1598    1420    1423    1424    1427
    1420    1423    1424    1601    1420    1597    1602    1601
    1420    1597    1602    1603    1420    1597    1598    1593
    1420    1597    1598    1599    1421    1244    1247    1246
    1421    1244    1247    1248    1421    1422    1423    1420
    1421    1422    1423    1424    1421    1426    1427    1424
    1421    1426    1427    1428    1422    1417    1418    1413
    1422    1417    1418    1419    1422    1421    1426    1425
    1422    1421    1426    1427    1422    1423    1424    1427
    1422    1423    1424    1601    1423    1420    1597    1602
    1423    1420    1597    1598    1423    1424    1427    1426
    1423    1424    1427    1428    1423    1424    1601    1602
    1423    1424    1601    1606    1424    1427    1428    1431
    1424    1427    1428    1605    1424    1601    1602    1597
    1424    1601    1602    1603    1424    1601    1606    1605
    1424    1601    1606    1607    1425    1248    1251    1250
    1425    1248    1251    1252    1425    1426    1427    1424
    1425    1426    1427    1428    1425    1430    1431    1428
    1425    1430    1431    1432    1426    1421    1422    1417
    1426    1421    1422    1423    1426    1425    1430    1429
    1426    1425    1430    1431    1426    1427    1428    1431
    1426    1427    1428    1605    1427    1424    1601    1602
    1427    1424    1601    1606    1427    1428    1431    1430
    1427    1428    1431    1432    1427    1428    1605    1606
    1427    1428    1605    1610    1428    1431    1432    1435
    1428    1431    1432    1609    1428    1605    1606    1601
    1428    1605    1606    1607    1428    1605    1610    1609
    1428    1605    1610    1611    1429    1252    1255    1254
    1429    1252    1255    1256    1429    1430    1431    1428
    1429    1430    1431    1432    1429    1434    1435    1432
    1429    1434    1435    1436    1430    1425    1426    1421
    1430    1425    1426    1427    1430    1429    1434    1433
    1430    1429    1434    1435    1430    1431    1432    1435
    1430    1431    1432    1609    1431    1428    1605    1606
    1431    1428    1605    1610    1431    1432    1435    1434
    1431    1432    1435    1436    1431    1432    1609    1614
    1431    1432    1609    1610    1432    1435    1436    1439
    1432    1435    1436    1613    1432    1609    1614    1613
    1432    1609    1614    1615    1432    1609    1610    1605
    1432    1609    1610    1611    1433    1256    1259    1258
    1433    1256    1259    1260    1433    1434    1435    1432
    1433    1434    1435    1436    1433    1438    1439    1436
    1433    1438    1439    1440    1434    1429    1430    1425
    1434    1429    1430    1431    1434    1433    1438    1437
    1434    1433    1438    1439    1434    1435    1436    1439
    1434    1435    1436    1613    1435    1432    1609    1614
    1435    1432    1609    1610    1435    1436    1439    1438
    1435    1436    1439    1440    1435    1436    1613    1618
    1435    1436    1613    1614    1436    1439    1440    1617
    1436    1613    1618    1617    1436    1613    1618    1619
    1436    1613    1614    1609    1436    1613    1614    1615
    1437    1438    1439    1436    1437    1438    1439    1440
    1438    1433    1434    1429    1438    1433    1434    1435
    1438    1439    1440    1617    1439    1436    1613    1618
    1439    1436    1613    1614    1439    1440    1617    1618
    1440    1617    1618    1613    1440    1617    1618    1619
    1441    1264    1267    1266    1441    1264    1267    1268
    1441    1442    1443    1444    1441    1446    1447    1444
    1441    1446    1447    1448    1442    1441    1446    1445
    1442    1441    1446    1447    1442    1443    1444    1621
    1442    1443    1444    1447    1443    1444    1621    1622
    1443    1444    1621    1626    1443    1444    1447    1446
    1443    1444    1447    1448    1444    1447    1448    1625
    1444    1447    1448    1451    1444    1621    1622    1623
    1444    1621    1626    1625    1444    1621    1626    1627
    1445    1268    1271    1270    1445    1268    1271    1272
    1445    1446    1447    1444    1445    1446    1447    1448
    1445    1450    1451    1448    1445    1450    1451    1452
    1446    1441    1442    1443    1446    1445    1450    1449
    1446    1445    1450    1451    1446    1447    1448    1625
    1446    1447    1448    1451    1447    1444    1621    1622
    1447    1444    1621    1626    1447    1448    1625    1626
    1447    1448    1625    1630    1447    1448    1451    1450
    1447    1448    1451    1452    1448    1451    1452    1629
    1448    1451    1452    1455    1448    1625    1626    1621
    1448    1625    1626    1627    1448    1625    1630    1629
    1448    1625    1630    1631    1449    1272    1275    1274
    1449    1272    1275    1276    1449    1450    1451    1448
    1449    1450    1451    1452    1449    1454    1455    1452
    1449    1454    1455    1456    1450    1445    1446    1441
    1450    1445    1446    1447    1450    1449    1454    1453
    1450    1449    1454    1455    1450    1451    1452    1629
    1450    1451    1452    1455    1451    1448    1625    1626
    1451    1448    1625    1630    1451    1452    1629    1634
    1451    1452    1629    1630    1451    1452    1455    1454
    1451    1452    1455    1456    1452    1455    1456    1633
    1452    1455    1456    1459    1452    1629    1634    1633
    1452    1629    1634    1635    1452    1629    1630    1625
    1452    1629    1630    1631    1453    1276    1279    1278
    1453    1276    1279    1280    1453    1454    1455    1452
    1453    1454    1455    1456    1453    1458    1459    1456
    1453    1458    1459    1460    1454    1449    1450    1445
    1454    1449    1450    1451    1454    1453    1458    1457
    1454    1453    1458    1459    1454    1455    1456    1633
    1454    1455    1456    1459    1455    1452    1629    1634
    1455    1452    1629    1630    1455    1456    1633    1638
    1455    1456    1633    1634    1455    1456    1459    1458
    1455    1456    1459    1460    1456    1459    1460    1637
    1456    1459    1460    1463    1456    1633    1638    1637
    1456    1633    1638    1639    1456    1633    1634    1629
    1456    1633    1634    1635    1457    1280    1283    1282
    1457    1280    1283    1284    1457    1458    1459    1456
    1457    1458    1459    1460    1457    1462    1463    1460
    1457    1462    1463    1464    1458    1453    1454    1449
    1458    1453    1454    1455    1458    1457    1462    1461
    1458    1457    1462    1463    1458    1459    1460    1637
    1458    1459    1460    1463    1459    1456    1633    1638
    1459    1456    1633    1634    1459    1460    1637    1642
    1459    1460    1637    1638    1459    1460    1463    1462
    1459    1460    1463    1464    1460    1463    1464    1641
    1460    1463    1464    1467    1460    1637    1642    1641
    1460    1637    1642    1643    1460    1637    1638    1633
    1460    1637    1638    1639    1461    1284    1287    1286
    1461    1284    1287    1288    1461    1462    1463    1460
    1461    1462    1463    1464    1461    1466    1467    1464
    1461    1466    1467    1468    1462    1457    1458    1453
    1462    1457    1458    1459    1462    1461    1466    1465
    1462    1461    1466    1467    1462    1463    1464    1641
    1462    1463    1464    1467    1463    1460    1637    1642
    1463    1460    1637    1638    1463    1464    1641    1642
    1463    1464    1641    1646    1463    1464    1467    1466
    1463    1464    1467    1468    1464    1467    1468    1645
    1464    1467    1468    1471    1464    1641    1642    1637
    1464    1641    1642    1643    1464    1641    1646    1645
    1464    1641    1646    1647    1465    1288    1291    1290
    1465    1288    1291    1292    1465    1466    1467    1464
    1465    1466    1467    1468    1465    1470    1471    1468
    1465    1470    1471    1472    1466    1461    1462    1457
    1466    1461    1462    1463    1466    1465    1470    1469
    1466    1465    1470    1471    1466    1467    1468    1645
    1466    1467    1468    1471    1467    1464    1641    1642
    1467    1464    1641    1646    1467    1468    1645    1646
    1467    1468    1645    1650    1467    1468    1471    1470
    1467    1468    1471    1472    1468    1471    1472    1475
    1468    1471    1472    1649    1468    1645    1646    1641
    1468    1645    1646    1647    1468    1645    1650    1649
    1468    1645    1650    1651    1469    1292    1295    1294
    1469    1292    1295    1296    1469    1470    1471    1468
    1469    1470    1471    1472    1469    1474    1475    1472
    1469    1474    1475    1476    1470    1465    1466    1461
    1470    1465    1466    1467    1470    1469    1474    1473
    1470    1469    1474    1475    1470    1471    1472    1475
    1470    1471    1472    1649    1471    1468    1645    1646
    1471    1468    1645    1650    1471    1472    1475    1474
    1471    1472    1475    1476    1471    1472    1649    1650
    1471    1472    1649    1654    1472    1475    1476    1479
    1472    1475    1476    1653    1472    1649    1650    1645
    1472    1649    1650    1651    1472    1649    1654    1653
    1472    1649    1654    1655    1473    1296    1299    1298
    1473    1296    1299    1300    1473    1474    1475    1472
    1473    1474    1475    1476    1473    1478    1479    1476
    1473    1478    1479    1480    1474    1469    1470    1465
    1474    1469    1470    1471    1474    1473    1478    1477
    1474    1473    1478    1479    1474    1475    1476    1479
    1474    1475    1476    1653    1475    1472    1649    1650
    1475    1472    1649    1654    1475    1476    1479    1478
    1475    1476    1479    1480    1475    1476    1653    1654
    1475    1476    1653    1658    1476    1479    1480    1657
    1476    1479    1480    1483    1476    1653    1654    1649
    1476    1653    1654    1655    1476    1653    1658    1657
    1476    1653    1658    1659    1477    1300    1303    1302
    1477    1300    1303    1304    1477    1478    1479    1476
    1477    1478    1479    1480    1477    1482    1483    1480
    1477    1482    1483    1484    1478    1473    1474    1469
    1478    1473    1474    1475    1478    1477    1482    1481
    1478    1477    1482    1483    1478    1479    1480    1657
    1478    1479    1480    1483    1479    1476    1653    1654
    1479    1476    1653    1658    1479    1480    1657    1658
    1479    1480    1657    1662    1479    1480    1483    1482
    1479    1480    1483    1484    1480    1483    1484    1661
    1480    1483    1484    1487    1480    1657    1658    1653
    1480    1657    1658    1659    1480    1657    1662    1661
    1480    1657    1662    1663    1481    1304    1307    1306
    1481    1304    1307    1308    1481    1482    1483    1480
    1481    1482    1483    1484    1481    1486    1487    1484
    1481    1486    1487    1488    1482    1477    1478    1473
    1482    1477    1478    1479    1482    1481    1486    1485
    1482    1481    1486    1487    1482    1483    1484    1661
    1482    1483    1484    1487    1483    1480    1657    1658
    1483    1480    1657    1662    1483    1484    1661    1662
    1483    1484    1661    1666    1483    1484    1487    1486
    1483    1484    1487    1488    1484    1487    1488    1665
    1484    1487    1488    1491    1484    1661    1662    1657
    1484    1661    1662    1663    1484    1661    1666    1665
    1484    1661    1666    1667    1485    1308    1311    1310
    1485    1308    1311    1312    1485    1486    1487    1484
    1485    1486    1487    1488    1485    1490    1491    1488
    1485    1490    1491    1492    1486    1481    1482    1477
    1486    1481    1482    1483    1486    1485    1490    1489
    1486    1485    1490    1491    1486    1487    1488    1665
    1486    1487    1488    1491    1487    1484    1661    1662
    1487    1484    1661    1666    1487    1488    1665    1666
    1487    1488    1665    1670    1487    1488    1491    1490
    1487    1488    1491    1492    1488    1491    1492    1495
    1488    1491    1492    1669    1488    1665    1666    1661
    1488    1665    1666    1667    1488    1665    1670    1669
    1488    1665    1670    1671    1489    1312    1315    1314
    1489    1312    1315    1316    1489    1490    1491    1488
    1489    1490    1491    1492    1489    1494    1495    1492
    1489    1494    1495    1496    1490    1485    1486    1481
    1490    1485    1486    1487    1490    1489    1494    1493
    1490    1489    1494    1495    1490    1491    1492    1495
    1490    1491    1492    1669    1491    1488    1665    1666
    1491    1488    1665    1670    1491    1492    1495    1494
    1491    1492    1495    1496    1491    1492    1669    1674
    1491    1492    1669    1670    1492    1495    1496    1499
    1492    1495    1496    1673    1492    1669    1674    1673
    1492    1669    1674    1675    1492    1669    1670    1665
    1492    1669    1670    1671    1493    1316    1319    1318
    1493    1316    1319    1320    1493    1494    1495    1492
    1493    1494    1495    1496    1493    1498    1499    1496
    1493    1498    1499    1500    1494    1489    1490    1485
    1494    1489    1490    1491    1494    1493    1498    1497
    1494    1493    1498    1499    1494    1495    1496    1499
    1494    1495    1496    1673    1495    1492    1669    1674
    1495    1492    1669    1670    1495    1496    1499    1498
    1495    1496    1499    1500    1495    1496    1673    1678
    1495    1496    1673    1674    1496    1499    1500    1677
    1496    1499    1500    1503    1496    1673    1678    1677
    1496    1673    1678    1679    1496    1673    1674    1669
    1496    1673    1674    1675    1497    1320    1323    1322
    1497    1320    1323    1324    1497    1498    1499    1496
    1497    1498    1499    1500    1497    1502    1503    1500
    1497    1502    1503    1504    1498    1493    1494    1489
    1498    1493    1494    1495    1498    1497    1502    1501
    1498    1497    1502    1503    1498    1499    1500    1677
    1498    1499    1500    1503    1499    1496    1673    1678
    1499    1496    1673    1674    1499    1500    1677    1682
    1499    1500    1677    1678    1499    1500    1503    1502
    1499    1500    1503    1504    1500    1503    1504    1681
    1500    1503    1504    1507    1500    1677    1682    1681
    1500    1677    1682    1683    1500    1677    1678    1673
    1500    1677    1678    1679    1501    1324    1327    1326
    1501    1324    1327    1328    1501    1502    1503    1500
    1501    1502    1503    1504    1501    1506    1507    1504
    1501    1506    1507    1508    1502    1497    1498    1493
    1502    1497    1498    1499    1502    1501    1506    1505
    1502    1501    1506    1507    1502    1503    1504    1681
    1502    1503    1504    1507    1503    1500    1677    1682
    1503    1500    1677    1678    1503    1504    1681    1682
    1503    1504    1681    1686    1503    1504    1507    1506
    1503    1504    1507    1508    1504    1507    1508    1685
    1504    1507    1508    1511    1504    1681    1682    1677
    1504    1681    1682    1683    1504    1681    1686    1685
    1504    1681    1686    1687    1505    1328    1331    1330
    1505    1328    1331    1332    1505    1506    1507    1504
    1505    1506    1507    1508    1505    1510    1511    1508
    1505    1510    1511    1512    1506    1501    1502    1497
    1506    1501    1502    1503    1506    1505    1510    1509
    1506    1505    1510    1511    1506    1507    1508    1685
    1506    1507    1508    1511    1507    1504    1681    1682
    1507    1504    1681    1686    1507    1508    1685    1686
    1507    1508    1685    1690    1507    1508    1511    1510
    1507    1508    1511    1512    1508    1511    1512    1515
    1508    1511    1512    1689    1508    1685    1686    1681
    1508    1685    1686    1687    1508    1685    1690    1689
    1508    1685    1690    1691    1509    1332    1335    1334
    1509    1332    1335    1336    1509    1510    1511    1508
    1509    1510    1511    1512    1509    1514    1515    1512
    1509    1514    1515    1516    1510    1505    1506    1501
    1510    1505    1506    1507    1510    1509    1514    1513
    1510    1509    1514    1515    1510    1511    1512    1515
    1510    1511    1512    1689    1511    1508    1685    1686
    1511    1508    1685    1690    1511    1512    1515    1514
    1511    1512    1515    1516    1511    1512    1689    1694
    1511    1512    1689    1690    1512    1515    1516    1693
    1512    1515    1516    1519    1512    1689    1694    1693
    1512    1689    1694    1695    1512    1689    1690    1685
    1512    1689    1690    1691    1513    1336    1339    1338
    1513    1336    1339    1340    1513    1514    1515    1512
    1513    1514    1515    1516    1513    1518    1519    1516
    1513    1518    1519    1520    1514    1509    1510    1505
    1514    1509    1510    1511    1514    1513    1518    1517
    1514    1513    1518    1519    1514    1515    1516    1693
    1514    1515    1516    1519    1515    1512    1689    1694
    1515    1512    1689    1690    1515    1516    1693    1698
    1515    1516    1693    1694    1515    1516    1519    1518
    1515    1516    1519    1520    1516    1519    1520    1697
    1516    1519    1520    1523    1516    1693    1698    1697
    1516    1693    1698    1699    1516    1693    1694    1689
    1516    1693    1694    1695    1517    1340    1343    1342
    1517    1340    1343    1344    1517    1518    1519    1516
    1517    1518    1519    1520    1517    1522    1523    1520
    1517    1522    1523    1524    1518    1513    1514    1509
    1518    1513    1514    1515    1518    1517    1522    1521
    1518    1517    1522    1523    1518    1519    1520    1697
    1518    1519    1520    1523    1519    1516    1693    1698
    1519    1516    1693    1694    1519    1520    1697    1702
    1519    1520    1697    1698    1519    1520    1523    1522
    1519    1520    1523    1524    1520    1523    1524    1701
    1520    1523    1524    1527    1520    1697    1702    1701
    1520    1697    1702    1703    1520    1697    1698    1693
    1520    1697    1698    1699    1521    1344    1347    1346
    1521    1344    1347    1348    1521    1522    1523    1520
    1521    1522    1523    1524    1521    1526    1527    1524
    1521    1526    1527    1528    1522    1517    1518    1513
    1522    1517    1518    1519    1522    1521    1526    1525
    1522    1521    1526    1527    1522    1523    1524    1701
    1522    1523    1524    1527    1523    1520    1697    1702
    1523    1520    1697    1698    1523    1524    1701    1702
    1523    1524    1701    1706    1523    1524    1527    1526
    1523    1524    1527    1528    1524    1527    1528    1705
    1524    1527    1528    1531    1524    1701    1702    1697
    1524    1701    1702    1703    1524    1701    1706    1705
    1524    1701    1706    1707    1525    1348    1351    1350
    1525    1348    1351    1352    1525    1526    1527    1524
    1525    1526    1527    1528    1525    1530    1531    1528
    1525    1530    1531    1532    1526    1521    1522    1517
    1526    1521    1522    1523    1526    1525    1530    1529
    1526    1525    1530    1531    1526    1527    1528    1705
    1526    1527    1528    1531    1527    1524    1701    1702
    1527    1524    1701    1706    1527    1528    1705    1706
    1527    1528    1705    1710    1527    1528    1531    1530
    1527    1528    1531    1532    1528    1531    1532    1709
    1528    1531    1532    1535    1528    1705    1706    1701
    1528    1705    1706    1707    1528    1705    1710    1709
    1528    1705    1710    1711    1529    1352    1355    1354
    1529    1352    1355    1356    1529    1530    1531    1528
    1529    1530    1531    1532    1529    1534    1535    1532
    1529    1534    1535    1536    1530    1525    1526    1521
    1530    1525    1526    1527    1530    1529    1534    1533
    1530    1529    1534    1535    1530    1531    1532    1709
    1530    1531    1532    1535    1531    1528    1705    1706
    1531    1528    1705    1710    1531    1532    1709    1714
    1531    1532    1709    1710    1531    1532    1535    1534
    1531    1532    1535    1536    1532    1535    1536    1539
    1532    1535    1536    1713    1532    1709    1714    1713
    1532    1709    1714    1715    1532    1709    1710    1705
    1532    1709    1710    1711    1533    1356    1359    1358
    1533    1356    1359    1360    1533    1534    1535    1532
    1533    1534    1535    1536    1533    1538    1539    1536
    1533    1538    1539    1540    1534    1529    1530    1525
    1534    1529    1530    1531    1534    1533    1538    1537
    1534    1533    1538    1539    1534    1535    1536    1539
    1534    1535    1536    1713    1535    1532    1709    1714
    1535    1532    1709    1710    1535    1536    1539    1538
    1535    1536    1539    1540    1535    1536    1713    1714
    1535    1536    1713    1718    1536    1539    1540    1717
    1536    1539    1540    1543    1536    1713    1714    1709
    1536    1713    1714    1715    1536    1713    1718    1717
    1536    1713    1718    1719    1537    1360    1363    1362
    1537    1360    1363    1364    1537    1538    1539    1536
    1537    1538    1539    1540    1537    1542    1543    1540
    1537    1542    1543    1544    1538    1533    1534    1529
    1538    1533    1534    1535    1538    1537    1542    1541
    1538    1537    1542    1543    1538    1539    1540    1717
    1538    1539    1540    1543    1539    1536    1713    1714
    1539    1536    1713    1718    1539    1540    1717    1718
    1539    1540    1717    1722    1539    1540    1543    1542
    1539    1540    1543    1544    1540    1543    1544    1721
    1540    1543    1544    1547    1540    1717    1718    1713
    1540    1717    1718    1719    1540    1717    1722    1721
    1540    1717    1722    1723    1541    1364    1367    1366
    1541    1364    1367    1368    1541    1542    1543    1540
    1541    1542    1543    1544    1541    1546    1547    1544
    1541    1546    1547    1548    1542    1537    1538    1533
    1542    1537    1538    1539    1542    1541    1546    1545
    1542    1541    1546    1547    1542    1543    1544    1721
    1542    1543    1544    1547    1543    1540    1717    1718
    1543    1540    1717    1722    1543    1544    1721    1722
    1543    1544    1721    1726    1543    1544    1547    1546
    1543    1544    1547    1548    1544    1547    1548    1725
    1544    1547    1548    1551    1544    1721    1722    1717
    1544    1721    1722    1723    1544    1721    1726    1725
    1544    1721    1726    1727    1545    1368    1371    1370
    1545    1368    1371    1372    1545    1546    1547    1544
    1545    1546    1547    1548    1545    1550    1551    1548
    1545    1550    1551    1552    1546    1541    1542    1537
    1546    1541    1542    1543    1546    1545    1550    1549
    1546    1545    1550    1551    1546    1547    1548    1725
    1546    1547    1548    1551    1547    1544    1721    1722
    1547    1544    1721    1726    1547    1548    1725    1726
    1547    1548    1725    1730    1547    1548    1551    1550
    1547    1548    1551    1552    1548    1551    1552    1555
    1548    1551    1552    1729    1548    1725    1726    1721
    1548    1725    1726    1727    1548    1725    1730    1729
    1548    1725    1730    1731    1549    1372    1375    1374
    1549    1372    1375    1376    1549    1550    1551    1548
    1549    1550    1551    1552    1549    1554    1555    1552
    1549    1554    1555    1556    1550    1545    1546    1541
    1550    1545    1546    1547    1550    1549    1554    1553
    1550    1549    1554    1555    1550    1551    1552    1555
    1550    1551    1552    1729    1551    1548    1725    1726
    1551    1548    1725    1730    1551    1552    1555    1554
    1551    1552    1555    1556    1551    1552    1729    1730
    1551    1552    1729    1734    1552    1555    1556    1559
    1552    1555    1556    1733    1552    1729    1730    1725
    1552    1729    1730    1731    1552    1729    1734    1733
    1552    1729    1734    1735    1553    1376    1379    1378
    1553    1376    1379    1380    1553    1554    1555    1552
    1553    1554    1555    1556    1553    1558    1559    1556
    1553    1558    1559    1560    1554    1549    1550    1545
    1554    1549    1550    1551    1554    1553    1558    1557
    1554    1553    1558    1559    1554    1555    1556    1559
    1554    1555    1556    1733    1555    1552    1729    1730
    1555    1552    1729    1734    1555    1556    1559    1558
    1555    1556    1559    1560    1555    1556    1733    1734
    1555    1556    1733    1738    1556    1559    1560    1737
    1556    1559    1560    1563    1556    1733    1734    1729
    1556    1733    1734    1735    1556    1733    1738    1737
    1556    1733    1738    1739    1557    1380    1383    1382
    1557    1380    1383    1384    1557    1558    1559    1556
    1557    1558    1559    1560    1557    1562    1563    1560
    1557    1562    1563    1564    1558    1553    1554    1549
    1558    1553    1554    1555    1558    1557    1562    1561
    1558    1557    1562    1563    1558    1559    1560    1737
    1558    1559    1560    1563    1559    1556    1733    1734
    1559    1556    1733    1738    1559    1560    1737    1742
    1559    1560    1737    1738    1559    1560    1563    1562
    1559    1560    1563    1564    1560    1563    1564    1741
    1560    1563    1564    1567    1560    1737    1742    1741
    1560    1737    1742    1743    1560    1737    1738    1733
    1560    1737    1738    1739    1561    1384    1387    1386
    1561    1384    1387    1388    1561    1562    1563    1560
    1561    1562    1563    1564    1561    1566    1567    1564
    1561    1566    1567    1568    1562    1557    1558    1553
    1562    1557    1558    1559    1562    1561    1566    1565
    1562    1561    1566    1567    1562    1563    1564    1741
    1562    1563    1564    1567    1563    1560    1737    1742
    1563    1560    1737    1738    1563    1564    1741    1742
    1563    1564    1741    1746    1563    1564    1567    1566
    1563    1564    1567    1568    1564    1567    1568    1745
    1564    1567    1568    1571    1564    1741    1742    1737
    1564    1741    1742    1743    1564    1741    1746    1745
    1564    1741    1746    1747    1565    1388    1391    1390
    1565    1388    1391    1392    1565    1566    1567    1564
    1565    1566    1567    1568    1565    1570    1571    1568
    1565    1570    1571    1572    1566    1561    1562    1557
    1566    1561    1562    1563    1566    1565    1570    1569
    1566    1565    1570    1571    1566    1567    1568    1745
    1566    1567    1568    1571    1567    1564    1741    1742
    1567    1564    1741    1746    1567    1568    1745    1746
    1567    1568    1745    1750    1567    1568    1571    1570
    1567    1568    1571    1572    1568    1571    1572    1575
    1568    1571    1572    1749    1568    1745    1746    1741
    1568    1745    1746    1747    1568    1745    1750    1749
    1568    1745    1750    1751    1569    1392    1395    1394
    1569    1392    1395    1396    1569    1570    1571    1568
    1569    1570    1571    1572    1569    1574    1575    1572
    1569    1574    1575    1576    1570    1565    1566    1561
    1570    1565    1566    1567    1570    1569    1574    1573
    1570    1569    1574    1575    1570    1571    1572    1575
    1570    1571    1572    1749    1571    1568    1745    1746
    1571    1568    1745    1750    1571    1572    1575    1574
    1571    1572    1575    1576    1571    1572    1749    1754
    1571    1572    1749    1750    1572    1575    1576    1579
    1572    1575    1576    1753    1572    1749    1754    1753
    1572    1749    1754    1755    1572    1749    1750    1745
    1572    1749    1750    1751    1573    1396    1399    1398
    1573    1396    1399    1400    1573    1574    1575    1572
    1573    1574    1575    1576    1573    1578    1579    1576
    1573    1578    1579    1580    1574    1569    1570    1565
    1574    1569    1570    1571    1574    1573    1578    1577
    1574    1573    1578    1579    1574    1575    1576    1579
    1574    1575    1576    1753    1575    1572    1749    1754
    1575    1572    1749    1750    1575    1576    1579    1578
    1575    1576    1579    1580    1575    1576    1753    1758
    1575    1576    1753    1754    1576    1579    1580    1757
    1576    1579    1580    1583    1576    1753    1758    1757
    1576    1753    1758    1759    1576    1753    1754    1749
    1576    1753    1754    1755    1577    1400    1403    1402
    1577    1400    1403    1404    1577    1578    1579    1576
    1577    1578    1579    1580    1577    1582    1583    1580
    1577    1582    1583    1584    1578    1573    1574    1569
    1578    1573    1574    1575    1578    1577    1582    1581
    1578    1577    1582    1583    1578    1579    1580    1757
    1578    1579    1580    1583    1579    1576    1753    1758
    1579    1576    1753    1754    1579    1580    1757    1762
    1579    1580    1757    1758    1579    1580    1583    1582
    1579    1580    1583    1584    1580    1583    1584    1761
    1580    1583    1584    1587    1580    1757    1762    1761
    1580    1757    1762    1763    1580    1757    1758    1753
    1580    1757    1758    1759    1581    1404    1407    1406
    1581    1404    1407    1408    1581    1582    1583    1580
    1581    1582    1583    1584    1581    1586    1587    1584
    1581    1586    1587    1588    1582    1577    1578    1573
    1582    1577    1578    1579    1582    1581    1586    1585
    1582    1581    1586    1587    1582    1583    1584    1761
    1582    1583    1584    1587    1583    1580    1757    1762
    1583    1580    1757    1758    1583    1584    1761    1762
    1583    1584    1761    1766    1583    1584    1587    1586
    1583    1584    1587    1588    1584    1587    1588    1765
    1584    1587    1588    1591    1584    1761    1762    1757
    1584    1761    1762    1763    1584    1761    1766    1765
    1584    1761    1766    1767    1585    1408    1411    1410
    1585    1408    1411    1412    1585    1586    1587    1584
    1585    1586    1587    1588    1585    1590    1591    1588
    1585    1590    1591    1592    1586    1581    1582    1577
    1586    1581    1582    1583    1586    1585    1590    1589
    1586    1585    1590    1591    1586    1587    1588    1765
    1586    1587    1588    1591    1587    1584    1761    1762
    1587    1584    1761    1766    1587    1588    1765    1766
    1587    1588    1765    1770    1587    1588    1591    1590
    1587    1588    1591    1592    1588    1591    1592    1769
    1588    1591    1592    1595    1588    1765    1766    1761
    1588    1765    1766    1767    1588    1765    1770    1769
    1588    1765    1770    1771    1589    1412    1415    1414
    1589    1412    1415    1416    1589    1590    1591    1588
    1589    1590    1591    1592    1589    1594    1595    1592
    1589    1594    1595    1596    1590    1585    1586    1581
    1590    1585    1586    1587    1590    1589    1594    1593
    1590    1589    1594    1595    1590    1591    1592    1769
    1590    1591    1592    1595    1591    1588    1765    1766
    1591    1588    1765    1770    1591    1592    1769    1774
    1591    1592    1769    1770    1591    1592    1595    1594
    1591    1592    1595    1596    1592    1595    1596    1773
    1592    1595    1596    1599    1592    1769    1774    1773
    1592    1769    1774    1775    1592    1769    1770    1765
    1592    1769    1770    1771    1593    1416    1419    1418
    1593    1416    1419    1420    1593    1594    1595    1592
    1593    1594    1595    1596    1593    1598    1599    1596
    1593    1598    1599    1600    1594    1589    1590    1585
    1594    1589    1590    1591    1594    1593    1598    1597
    1594    1593    1598    1599    1594    1595    1596    1773
    1594    1595    1596    1599    1595    1592    1769    1774
    1595    1592    1769    1770    1595    1596    1773    1778
    1595    1596    1773    1774    1595    1596    1599    1598
    1595    1596    1599    1600    1596    1599    1600    1777
    1596    1599    1600    1603    1596    1773    1778    1777
    1596    1773    1778    1779    1596    1773    1774    1769
    1596    1773    1774    1775    1597    1420    1423    1422
    1597    1420    1423    1424    1597    1598    1599    1596
    1597    1598    1599    1600    1597    1602    1603    1600
    1597    1602    1603    1604    1598    1593    1594    1589
    1598    1593    1594    1595    1598    1597    1602    1601
    1598    1597    1602    1603    1598    1599    1600    1777
    1598    1599    1600    1603    1599    1596    1773    1778
    1599    1596    1773    1774    1599    1600    1777    1782
    1599    1600    1777    1778    1599    1600    1603    1602
    1599    1600    1603    1604    1600    1603    1604    1781
    1600    1603    1604    1607    1600    1777    1782    1781
    1600    1777    1782    1783    1600    1777    1778    1773
    1600    1777    1778    1779    1601    1424    1427    1426
    1601    1424    1427    1428    1601    1602    1603    1600
    1601    1602    1603    1604    1601    1606    1607    1604
    1601    1606    1607    1608    1602    1597    1598    1593
    1602    1597    1598    1599    1602    1601    1606    1605
    1602    1601    1606    1607    1602    1603    1604    1781
    1602    1603    1604    1607    1603    1600    1777    1782
    1603    1600    1777    1778    1603    1604    1781    1782
    1603    1604    1781    1786    1603    1604    1607    1606
    1603    1604    1607    1608    1604    1607    1608    1785
    1604    1607    1608    1611    1604    1781    1782    1777
    1604    1781    1782    1783    1604    1781    1786    1785
    1604    1781    1786    1787    1605    1428    1431    1430
    1605    1428    1431    1432    1605    1606    1607    1604
    1605    1606    1607    1608    1605    1610    1611    1608
    1605    1610    1611    1612    1606    1601    1602    1597
    1606    1601    1602    1603    1606    1605    1610    1609
    1606    1605    1610    1611    1606    1607    1608    1785
    1606    1607    1608    1611    1607    1604    1781    1782
    1607    1604    1781    1786    1607    1608    1785    1786
    1607    1608    1785    1790    1607    1608    1611    1610
    1607    1608    1611    1612    1608    1611    1612    1615
    1608    1611    1612    1789    1608    1785    1786    1781
    1608    1785    1786    1787    1608    1785    1790    1789
    1608    1785    1790    1791    1609    1432    1435    1434
    1609    1432    1435    1436    1609    1610    1611    1608
    1609    1610    1611    1612    1609    1614    1615    1612
    1609    1614    1615    1616    1610    1605    1606    1601
    1610    1605    1606    1607    1610    1609    1614    1613
    1610    1609    1614    1615    1610    1611    1612    1615
    1610    1611    1612    1789    1611    1608    1785    1786
    1611    1608    1785    1790    1611    1612    1615    1614
    1611    1612    1615    1616    1611    1612    1789    1790
    1611    1612    1789    1794    1612    1615    1616    1619
    1612    1615    1616    1793    1612    1789    1790    1785
    1612    1789    1790    1791    1612    1789    1794    1793
    1612    1789    1794    1795    1613    1436    1439    1438
    1613    1436    1439    1440    1613    1614    1615    1612
    1613    1614    1615    1616    1613    1618    1619    1616
    1613    1618    1619    1620    1614    1609    1610    1605
    1614    1609    1610    1611    1614    1613    1618    1617
    1614    1613    1618    1619    1614    1615    1616    1619
    1614    1615    1616    1793    1615    1612    1789    1790
    1615    1612    1789    1794    1615    1616    1619    1618
    1615    1616    1619    1620    1615    1616    1793    1794
    1615    1616    1793    1798    1616    1619    1620    1797
    1616    1793    1794    1789    1616    1793    1794    1795
    1616    1793    1798    1797    1616    1793    1798    1799
    1617    1618    1619    1616    1617    1618    1619    1620
    1618    1613    1614    1609    1618    1613    1614    1615
    1618    1619    1620    1797    1619    1616    1793    1794
    1619    1616    1793    1798    1619    1620    1797    1798
    1620    1797    1798    1793    1620    1797    1798    1799
    1621    1444    1447    1446    1621    1444    1447    1448
    1621    1622    1623    1624    1621    1626    1627    1624
    1621    1626    1627    1628    1622    1621    1626    1625
    1622    1621    1626    1627    1622    1623    1624    1801
    1622    1623    1624    1627    1623    1624    1801    1802
    1623    1624    1801    1806    1623    1624    1627    1626
    1623    1624    1627    1628    1624    1627    1628    1805
    1624    1627    1628    1631    1624    1801    1802    1803
    1624    1801    1806    1805    1624    1801    1806    1807
    1625    1448    1451    1450    1625    1448    1451    1452
    1625    1626    1627    1624    1625    1626    1627    1628
    1625    1630    1631    1628    1625    1630    1631    1632
    1626    1621    1622    1623    1626    1625    1630    1629
    1626    1625    1630    1631    1626    1627    1628    1805
    1626    1627    1628    1631    1627    1624    1801    1802
    1627    1624    1801    1806    1627    1628    1805    1806
    1627    1628    1805    1810    1627    1628    1631    1630
    1627    1628    1631    1632    1628    1631    1632    1635
    1628    1631    1632    1809    1628    1805    1806    1801
    1628    1805    1806    1807    1628    1805    1810    1809
    1628    1805    1810    1811    1629    1452    1455    1454
    1629    1452    1455    1456    1629    1630    1631    1628
    1629    1630    1631    1632    1629    1634    1635    1632
    1629    1634    1635    1636    1630    1625    1626    1621
    1630    1625    1626    1627    1630    1629    1634    1633
    1630    1629    1634    1635    1630    1631    1632    1635
    1630    1631    1632    1809    1631    1628    1805    1806
    1631    1628    1805    1810    1631    1632    1635    1634
    1631    1632    1635    1636    1631    1632    1809    1810
    1631    1632    1809    1814    1632    1635    1636    1639
    1632    1635    1636    1813    1632    1809    1810    1805
    1632    1809    1810    1811    1632    1809    1814    1813
    1632    1809    1814    1815    1633    1456    1459    1458
    1633    1456    1459    1460    1633    1634    1635    1632
    1633    1634    1635    1636    1633    1638    1639    1636
    1633    1638    1639    1640    1634    1629    1630    1625
    1634    1629    1630    1631    1634    1633    1638    1637
    1634    1633    1638    1639    1634    1635    1636    1639
    1634    1635    1636    1813    1635    1632    1809    1810
    1635    1632    1809    1814    1635    1636    1639    1638
    1635    1636    1639    1640    1635    1636    1813    1814
    1635    1636    1813    1818    1636    1639    1640    1817
    1636    1639    1640    1643    1636    1813    1814    1809
    1636    1813    1814    1815    1636    1813    1818    1817
    1636    1813    1818    1819    1637    1460    1463    1462
    1637    1460    1463    1464    1637    1638    1639    1636
    1637    1638    1639    1640    1637    1642    1643    1640
    1637    1642    1643    1644    1638    1633    1634    1629
    1638    1633    1634    1635    1638    1637    1642    1641
    1638    1637    1642    1643    1638    1639    1640    1817
    1638    1639    1640    1643    1639    1636    1813    1814
    1639    1636    1813    1818    1639    1640    1817    1818
    1639    1640    1817    1822    1639    1640    1643    1642
    1639    1640    1643    1644    1640    1643    1644    1821
    1640    1643    1644    1647    1640    1817    1818    1813
    1640    1817    1818    1819    1640    1817    1822    1821
    1640    1817    1822    1823    1641    1464    1467    1466
    1641    1464    1467    1468    1641    1642    1643    1640
    1641    1642    1643    1644    1641    1646    1647    1644
    1641    1646    1647    1648    1642    1637    1638    1633
    1642    1637    1638    1639    1642    1641    1646    1645
    1642    1641    1646    1647    1642    1643    1644    1821
    1642    1643    1644    1647    1643    1640    1817    1818
    1643    1640    1817    1822    1643    1644    1821    1822
    1643    1644    1821    1826    1643    1644    1647    1646
    1643    1644    1647    1648    1644    1647    1648    1825
    1644    1647    1648    1651    1644    1821    1822    1817
    1644    1821    1822    1823    1644    1821    1826    1825
    1644    1821    1826    1827    1645    1468    1471    1470
    1645    1468    1471    1472    1645    1646    1647    1644
    1645    1646    1647    1648    1645    1650    1651    1648
    1645    1650    1651    1652    1646    1641    1642    1637
    1646    1641    1642    1643    1646    1645    1650    1649
    1646    1645    1650    1651    1646    1647    1648    1825
    1646    1647    1648    1651    1647    1644    1821    1822
    1647    1644    1821    1826    1647    1648    1825    1826
    1647    1648    1825    1830    1647    1648    1651    1650
    1647    1648    1651    1652    1648    1651    1652    1655
    1648    1651    1652    1829    1648    1825    1826    1821
    1648    1825    1826    1827    1648    1825    1830    1829
    1648    1825    1830    1831    1649    1472    1475    1474
    1649    1472    1475    1476    1649    1650    1651    1648
    1649    1650    1651    1652    1649    1654    1655    1652
    1649    1654    1655    1656    1650    1645    1646    1641
    1650    1645    1646    1647    1650    1649    1654    1653
    1650    1649    1654    1655    1650    1651    1652    1655
    1650    1651    1652    1829    1651    1648    1825    1826
    1651    1648    1825    1830    1651    1652    1655    1654
    1651    1652    1655    1656    1651    1652    1829    1834
    1651    1652    1829    1830    1652    1655    1656    1659
    1652    1655    1656    1833    1652    1829    1834    1833
    1652    1829    1834    1835    1652    1829    1830    1825
    1652    1829    1830    1831    1653    1476    1479    1478
    1653    1476    1479    1480    1653    1654    1655    1652
    1653    1654    1655    1656    1653    1658    1659    1656
    1653    1658    1659    1660    1654    1649    1650    1645
    1654    1649    1650    1651    1654    1653    1658    1657
    1654    1653    1658    1659    1654    1655    1656    1659
    1654    1655    1656    1833    1655    1652    1829    1834
    1655    1652    1829    1830    1655    1656    1659    1658
    1655    1656    1659    1660    1655    1656    1833    1838
    1655    1656    1833    1834    1656    1659    1660    1837
    1656    1659    1660    1663    1656    1833    1838    1837
    1656    1833    1838    1839    1656    1833    1834    1829
    1656    1833    1834    1835    1657    1480    1483    1482
    1657    1480    1483    1484    1657    1658    1659    1656
    1657    1658    1659    1660    1657    1662    1663    1660
    1657    1662    1663    1664    1658    1653    1654    1649
    1658    1653    1654    1655    1658    1657    1662    1661
    1658    1657    1662    1663    1658    1659    1660    1837
    1658    1659    1660    1663    1659    1656    1833    1838
    1659    1656    1833    1834    1659    1660    1837    1842
    1659    1660    1837    1838    1659    1660    1663    1662
    1659    1660    1663    1664    1660    1663    1664    1841
    1660    1663    1664    1667    1660    1837    1842    1841
    1660    1837    1842    1843    1660    1837    1838    1833
    1660    1837    1838    1839    1661    1484    1487    1486
    1661    1484    1487    1488    1661    1662    1663    1660
    1661    1662    1663    1664    1661    1666    1667    1664
    1661    1666    1667    1668    1662    1657    1658    1653
    1662    1657    1658    1659    1662    1661    1666    1665
    1662    1661    1666    1667    1662    1663    1664    1841
    1662    1663    1664    1667    1663    1660    1837    1842
    1663    1660    1837    1838    1663    1664    1841    1842
    1663    1664    1841    1846    1663    1664    1667    1666
    1663    1664    1667    1668    1664    1667    1668    1845
    1664    1667    1668    1671    1664    1841    1842    1837
    1664    1841    1842    1843    1664    1841    1846    1845
    1664    1841    1846    1847    1665    1488    1491    1490
    1665    1488    1491    1492    1665    1666    1667    1664
    1665    1666    1667    1668    1665    1670    1671    1668
    1665    1670    1671    1672    1666    1661    1662    1657
    1666    1661    1662    1663    1666    1665    1670    1669
    1666    1665    1670    1671    1666    1667    1668    1845
    1666    1667    1668    1671    1667    1664    1841    1842
    1667    1664    1841    1846    1667    1668    1845    1846
    1667    1668    1845    1850    1667    1668    1671    1670
    1667    1668    1671    1672    1668    1671    1672    1849
    1668    1671    1672    1675    1668    1845    1846    1841
    1668    1845    1846    1847    1668    1845    1850    1849
    1668    1845    1850    1851    1669    1492    1495    1494
    1669    1492    1495    1496    1669    1670    1671    1668
    1669    1670    1671    1672    1669    1674    1675    1672
    1669    1674    1675    1676    1670    1665    1666    1661
    1670    1665    1666    1667    1670    1669    1674    1673
    1670    1669    1674    1675    1670    1671    1672    1849
    1670    1671    1672    1675    1671    1668    1845    1846
    1671    1668    1845    1850    1671    1672    1849    1854
    1671    1672    1849    1850    1671    1672    1675    1674
    1671    1672    1675    1676    1672    1675    1676    1853
    1672    1675    1676    1679    1672    1849    1854    1853
    1672    1849    1854    1855    1672    1849    1850    1845
    1672    1849    1850    1851    1673    1496    1499    1498
    1673    1496    1499    1500    1673    1674    1675    1672
    1673    1674    1675    1676    1673    1678    1679    1676
    1673    1678    1679    1680    1674    1669    1670    1665
    1674    1669    1670    1671    1674    1673    1678    1677
    1674    1673    1678    1679    1674    1675    1676    1853
    1674    1675    1676    1679    1675    1672    1849    1854
    1675    1672    1849    1850    1675    1676    1853    1858
    1675    1676    1853    1854    1675    1676    1679    1678
    1675    1676    1679    1680    1676    1679    1680    1857
    1676    1679    1680    1683    1676    1853    1858    1857
    1676    1853    1858    1859    1676    1853    1854    1849
    1676    1853    1854    1855    1677    1500    1503    1502
    1677    1500    1503    1504    1677    1678    1679    1676
    1677    1678    1679    1680    1677    1682    1683    1680
    1677    1682    1683    1684    1678    1673    1674    1669
    1678    1673    1674    1675    1678    1677    1682    1681
    1678    1677    1682    1683    1678    1679    1680    1857
    1678    1679    1680    1683    1679    1676    1853    1858
    1679    1676    1853    1854    1679    1680    1857    1862
    1679    1680    1857    1858    1679    1680    1683    1682
    1679    1680    1683    1684    1680    1683    1684    1861
    1680    1683    1684    1687    1680    1857    1862    1861
    1680    1857    1862    1863    1680    1857    1858    1853
    1680    1857    1858    1859    1681    1504    1507    1506
    1681    1504    1507    1508    1681    1682    1683    1680
    1681    1682    1683    1684    1681    1686    1687    1684
    1681    1686    1687    1688    1682    1677    1678    1673
    1682    1677    1678    1679    1682    1681    1686    1685
    1682    1681    1686    1687    1682    1683    1684    1861
    1682    1683    1684    1687    1683    1680    1857    1862
    1683    1680    1857    1858    1683    1684    1861    1862
    1683    1684    1861    1866    1683    1684    1687    1686
    1683    1684    1687    1688    1684    1687    1688    1865
    1684    1687    1688    1691    1684    1861    1862    1857
    1684    1861    1862    1863    1684    1861    1866    1865
    1684    1861    1866    1867    1685    1508    1511    1510
    1685    1508    1511    1512    1685    1686    1687    1684
    1685    1686    1687    1688    1685    1690    1691    1688
    1685    1690    1691    1692    1686    1681    1682    1677
    1686    1681    1682    1683    1686    1685    1690    1689
    1686    1685    1690    1691    1686    1687    1688    1865
    1686    1687    1688    1691    1687    1684    1861    1862
    1687    1684    1861    1866    1687    1688    1865    1866
    1687    1688    1865    1870    1687    1688    1691    1690
    1687    1688    1691    1692    1688    1691    1692    1695
    1688    1691    1692    1869    1688    1865    1866    1861
    1688    1865    1866    1867    1688    1865    1870    1869
    1688    1865    1870    1871    1689    1512    1515    1514
    1689    1512    1515    1516    1689    1690    1691    1688
    1689    1690    1691    1692    1689    1694    1695    1692
    1689    1694    1695    1696    1690    1685    1686    1681
    1690    1685    1686    1687    1690    1689    1694    1693
    1690    1689    1694    1695    1690    1691    1692    1695
    1690    1691    1692    1869    1691    1688    1865    1866
    1691    1688    1865    1870    1691    1692    1695    1694
    1691    1692    1695    1696    1691    1692    1869    1870
    1691    1692    1869    1874    1692    1695    1696    1699
    1692    1695    1696    1873    1692    1869    1870    1865
    1692    1869    1870    1871    1692    1869    1874    1873
    1692    1869    1874    1875    1693    1516    1519    1518
    1693    1516    1519    1520    1693    1694    1695    1692
    1693    1694    1695    1696    1693    1698    1699    1696
    1693    1698    1699    1700    1694    1689    1690    1685
    1694    1689    1690    1691    1694    1693    1698    1697
    1694    1693    1698    1699    1694    1695    1696    1699
    1694    1695    1696    1873    1695    1692    1869    1870
    1695    1692    1869    1874    1695    1696    1699    1698
    1695    1696    1699    1700    1695    1696    1873    1874
    1695    1696    1873    1878    1696    1699    1700    1877
    1696    1699    1700    1703    1696    1873    1874    1869
    1696    1873    1874    1875    1696    1873    1878    1877
    1696    1873    1878    1879    1697    1520    1523    1522
    1697    1520    1523    1524    1697    1698    1699    1696
    1697    1698    1699    1700    1697    1702    1703    1700
    1697    1702    1703    1704    1698    1693    1694    1689
    1698    1693    1694    1695    1698    1697    1702    1701
    1698    1697    1702    1703    1698    1699    1700    1877
    1698    1699    1700    1703    1699    1696    1873    1874
    1699    1696    1873    1878    1699    1700    1877    1878
    1699    1700    1877    1882    1699    1700    1703    1702
    1699    1700    1703    1704    1700    1703    1704    1881
    1700    1703    1704    1707    1700    1877    1878    1873
    1700    1877    1878    1879    1700    1877    1882    1881
    1700    1877    1882    1883    1701    1524    1527    1526
    1701    1524    1527    1528    1701    1702    1703    1700
    1701    1702    1703    1704    1701    1706    1707    1704
    1701    1706    1707    1708    1702    1697    1698    1693
    1702    1697    1698    1699    1702    1701    1706    1705
    1702    1701    1706    1707    1702    1703    1704    1881
    1702    1703    1704    1707    1703    1700    1877    1878
    1703    1700    1877    1882    1703    1704    1881    1882
    1703    1704    1881    1886    1703    1704    1707    1706
    1703    1704    1707    1708    1704    1707    1708    1885
    1704    1707    1708    1711    1704    1881    1882    1877
    1704    1881    1882    1883    1704    1881    1886    1885
    1704    1881    1886    1887    1705    1528    1531    1530
    1705    1528    1531    1532    1705    1706    1707    1704
    1705    1706    1707    1708    1705    1710    1711    1708
    1705    1710    1711    1712    1706    1701    1702    1697
    1706    1701    1702    1703    1706    1705    1710    1709
    1706    1705    1710    1711    1706    1707    1708    1885
    1706    1707    1708    1711    1707    1704    1881    1882
    1707    1704    1881    1886    1707    1708    1885    1886
    1707    1708    1885    1890    1707    1708    1711    1710
    1707    1708    1711    1712    1708    1711    1712    1715
    1708    1711    1712    1889    1708    1885    1886    1881
    1708    1885    1886    1887    1708    1885    1890    1889
    1708    1885    1890    1891    1709    1532    1535    1534
    1709    1532    1535    1536    1709    1710    1711    1708
    1709    1710    1711    1712    1709    1714    1715    1712
    1709    1714    1715    1716    1710    1705    1706    1701
    1710    1705    1706    1707    1710    1709    1714    1713
    1710    1709    1714    1715    1710    1711    1712    1715
    1710    1711    1712    1889    1711    1708    1885    1886
    1711    1708    1885    1890    1711    1712    1715    1714
    1711    1712    1715    1716    1711    1712    1889    1894
    1711    1712    1889    1890    1712    1715    1716    1719
    1712    1715    1716    1893    1712    1889    1894    1893
    1712    1889    1894    1895    1712    1889    1890    1885
    1712    1889    1890    1891    1713    1536    1539    1538
    1713    1536    1539    1540    1713    1714    1715    1712
    1713    1714    1715    1716    1713    1718    1719    1716
    1713    1718    1719    1720    1714    1709    1710    1705
    1714    1709    1710    1711    1714    1713    1718    1717
    1714    1713    1718    1719    1714    1715    1716    1719
    1714    1715    1716    1893    1715    1712    1889    1894
    1715    1712    1889    1890    1715    1716    1719    1718
    1715    1716    1719    1720    1715    1716    1893    1898
    1715    1716    1893    1894    1716    1719    1720    1897
    1716    1719    1720    1723    1716    1893    1898    1897
    1716    1893    1898    1899    1716    1893    1894    1889
    1716    1893    1894    1895    1717    1540    1543    1542
    1717    1540    1543    1544    1717    1718    1719    1716
    1717    1718    1719    1720    1717    1722    1723    1720
    1717    1722    1723    1724    1718    1713    1714    1709
    1718    1713    1714    1715    1718    1717    1722    1721
    1718    1717    1722    1723    1718    1719    1720    1897
    1718    1719    1720    1723    1719    1716    1893    1898
    1719    1716    1893    1894    1719    1720    1897    1902
    1719    1720    1897    1898    1719    1720    1723    1722
    1719    1720    1723    1724    1720    1723    1724    1901
    1720    1723    1724    1727    1720    1897    1902    1901
    1720    1897    1902    1903    1720    1897    1898    1893
    1720    1897    1898    1899    1721    1544    1547    1546
    1721    1544    1547    1548    1721    1722    1723    1720
    1721    1722    1723    1724    1721    1726    1727    1724
    1721    1726    1727    1728    1722    1717    1718    1713
    1722    1717    1718    1719    1722    1721    1726    1725
    1722    1721    1726    1727    1722    1723    1724    1901
    1722    1723    1724    1727    1723    1720    1897    1902
    1723    1720    1897    1898    1723    1724    1901    1902
    1723    1724    1901    1906    1723    1724    1727    1726
    1723    1724    1727    1728    1724    1727    1728    1905
    1724    1727    1728    1731    1724    1901    1902    1897
    1724    1901    1902    1903    1724    1901    1906    1905
    1724    1901    1906    1907    1725    1548    1551    1550
    1725    1548    1551    1552    1725    1726    1727    1724
    1725    1726    1727    1728    1725    1730    1731    1728
    1725    1730    1731    1732    1726    1721    1722    1717
    1726    1721    1722    1723    1726    1725    1730    1729
    1726    1725    1730    1731    1726    1727    1728    1905
    1726    1727    1728    1731    1727    1724    1901    1902
    1727    1724    1901    1906    1727    1728    1905    1906
    1727    1728    1905    1910    1727    1728    1731    1730
    1727    1728    1731    1732    1728    1731    1732    1735
    1728    1731    1732    1909    1728    1905    1906    1901
    1728    1905    1906    1907    1728    1905    1910    1909
    1728    1905    1910    1911    1729    1552    1555    1554
    1729    1552    1555    1556    1729    1730    1731    1728
    1729    1730    1731    1732    1729    1734    1735    1732
    1729    1734    1735    1736    1730    1725    1726    1721
    1730    1725    1726    1727    1730    1729    1734    1733
    1730    1729    1734    1735    1730    1731    1732    1735
    1730    1731    1732    1909    1731    1728    1905    1906
    1731    1728    1905    1910    1731    1732    1735    1734
    1731    1732    1735    1736    1731    1732    1909    1914
    1731    1732    1909    1910    1732    1735    1736    1913
    1732    1735    1736    1739    1732    1909    1914    1913
    1732    1909    1914    1915    1732    1909    1910    1905
    1732    1909    1910    1911    1733    1556    1559    1558
    1733    1556    1559    1560    1733    1734    1735    1732
    1733    1734    1735    1736    1733    1738    1739    1736
    1733    1738    1739    1740    1734    1729    1730    1725
    1734    1729    1730    1731    1734    1733    1738    1737
    1734    1733    1738    1739    1734    1735    1736    1913
    1734    1735    1736    1739    1735    1732    1909    1914
    1735    1732    1909    1910    1735    1736    1913    1918
    1735    1736    1913    1914    1735    1736    1739    1738
    1735    1736    1739    1740    1736    1739    1740    1917
    1736    1739    1740    1743    1736    1913    1918    1917
    1736    1913    1918    1919    1736    1913    1914    1909
    1736    1913    1914    1915    1737    1560    1563    1562
    1737    1560    1563    1564    1737    1738    1739    1736
    1737    1738    1739    1740    1737    1742    1743    1740
    1737    1742    1743    1744    1738    1733    1734    1729
    1738    1733    1734    1735    1738    1737    1742    1741
    1738    1737    1742    1743    1738    1739    1740    1917
    1738    1739    1740    1743    1739    1736    1913    1918
    1739    1736    1913    1914    1739    1740    1917    1922
    1739    1740    1917    1918    1739    1740    1743    1742
    1739    1740    1743    1744    1740    1743    1744    1921
    1740    1743    1744    1747    1740    1917    1922    1921
    1740    1917    1922    1923    1740    1917    1918    1913
    1740    1917    1918    1919    1741    1564    1567    1566
    1741    1564    1567    1568    1741    1742    1743    1740
    1741    1742    1743    1744    1741    1746    1747    1744
    1741    1746    1747    1748    1742    1737    1738    1733
    1742    1737    1738    1739    1742    1741    1746    1745
    1742    1741    1746    1747    1742    1743    1744    1921
    1742    1743    1744    1747    1743    1740    1917    1922
    1743    1740    1917    1918    1743    1744    1921    1922
    1743    1744    1921    1926    1743    1744    1747    1746
    1743    1744    1747    1748    1744    1747    1748    1925
    1744    1747    1748    1751    1744    1921    1922    1917
    1744    1921    1922    1923    1744    1921    1926    1925
    1744    1921    1926    1927    1745    1568    1571    1570
    1745    1568    1571    1572    1745    1746    1747    1744
    1745    1746    1747    1748    1745    1750    1751    1748
    1745    1750    1751    1752    1746    1741    1742    1737
    1746    1741    1742    1743    1746    1745    1750    1749
    1746    1745    1750    1751    1746    1747    1748    1925
    1746    1747    1748    1751    1747    1744    1921    1922
    1747    1744    1921    1926    1747    1748    1925    1926
    1747    1748    1925    1930    1747    1748    1751    1750
    1747    1748    1751    1752    1748    1751    1752    1929
    1748    1751    1752    1755    1748    1925    1926    1921
    1748    1925    1926    1927    1748    1925    1930    1929
    1748    1925    1930    1931    1749    1572    1575    1574
    1749    1572    1575    1576    1749    1750    1751    1748
    1749    1750    1751    1752    1749    1754    1755    1752
    1749    1754    1755    1756    1750    1745    1746    1741
    1750    1745    1746    1747    1750    1749    1754    1753
    1750    1749    1754    1755    1750    1751    1752    1929
    1750    1751    1752    1755    1751    1748    1925    1926
    1751    1748    1925    1930    1751    1752    1929    1934
    1751    1752    1929    1930    1751    1752    1755    1754
    1751    1752    1755    1756    1752    1755    1756    1759
    1752    1755    1756    1933    1752    1929    1934    1933
    1752    1929    1934    1935    1752    1929    1930    1925
    1752    1929    1930    1931    1753    1576    1579    1578
    1753    1576    1579    1580    1753    1754    1755    1752
    1753    1754    1755    1756    1753    1758    1759    1756
    1753    1758    1759    1760    1754    1749    1750    1745
    1754    1749    1750    1751    1754    1753    1758    1757
    1754    1753    1758    1759    1754    1755    1756    1759
    1754    1755    1756    1933    1755    1752    1929    1934
    1755    1752    1929    1930    1755    1756    1759    1758
    1755    1756    1759    1760    1755    1756    1933    1934
    1755    1756    1933    1938    1756    1759    1760    1937
    1756    1759    1760    1763    1756    1933    1934    1929
    1756    1933    1934    1935    1756    1933    1938    1937
    1756    1933    1938    1939    1757    1580    1583    1582
    1757    1580    1583    1584    1757    1758    1759    1756
    1757    1758    1759    1760    1757    1762    1763    1760
    1757    1762    1763    1764    1758    1753    1754    1749
    1758    1753    1754    1755    1758    1757    1762    1761
    1758    1757    1762    1763    1758    1759    1760    1937
    1758    1759    1760    1763    1759    1756    1933    1934
    1759    1756    1933    1938    1759    1760    1937    1938
    1759    1760    1937    1942    1759    1760    1763    1762
    1759    1760    1763    1764    1760    1763    1764    1941
    1760    1763    1764    1767    1760    1937    1938    1933
    1760    1937    1938    1939    1760    1937    1942    1941
    1760    1937    1942    1943    1761    1584    1587    1586
    1761    1584    1587    1588    1761    1762    1763    1760
    1761    1762    1763    1764    1761    1766    1767    1764
    1761    1766    1767    1768    1762    1757    1758    1753
    1762    1757    1758    1759    1762    1761    1766    1765
    1762    1761    1766    1767    1762    1763    1764    1941
    1762    1763    1764    1767    1763    1760    1937    1938
    1763    1760    1937    1942    1763    1764    1941    1942
    1763    1764    1941    1946    1763    1764    1767    1766
    1763    1764    1767    1768    1764    1767    1768    1945
    1764    1767    1768    1771    1764    1941    1942    1937
    1764    1941    1942    1943    1764    1941    1946    1945
    1764    1941    1946    1947    1765    1588    1591    1590
    1765    1588    1591    1592    1765    1766    1767    1764
    1765    1766    1767    1768    1765    1770    1771    1768
    1765    1770    1771    1772    1766    1761    1762    1757
    1766    1761    1762    1763    1766    1765    1770    1769
    1766    1765    1770    1771    1766    1767    1768    1945
    1766    1767    1768    1771    1767    1764    1941    1942
    1767    1764    1941    1946    1767    1768    1945    1946
    1767    1768    1945    1950    1767    1768    1771    1770
    1767    1768    1771    1772    1768    1771    1772    1775
    1768    1771    1772    1949    1768    1945    1946    1941
    1768    1945    1946    1947    1768    1945    1950    1949
    1768    1945    1950    1951    1769    1592    1595    1594
    1769    1592    1595    1596    1769    1770    1771    1768
    1769    1770    1771    1772    1769    1774    1775    1772
    1769    1774    1775    1776    1770    1765    1766    1761
    1770    1765    1766    1767    1770    1769    1774    1773
    1770    1769    1774    1775    1770    1771    1772    1775
    1770    1771    1772    1949    1771    1768    1945    1946
    1771    1768    1945    1950    1771    1772    1775    1774
    1771    1772    1775    1776    1771    1772    1949    1950
    1771    1772    1949    1954    1772    1775    1776    1779
    1772    1775    1776    1953    1772    1949    1950    1945
    1772    1949    1950    1951    1772    1949    1954    1953
    1772    1949    1954    1955    1773    1596    1599    1598
    1773    1596    1599    1600    1773    1774    1775    1772
    1773    1774    1775    1776    1773    1778    1779    1776
    1773    1778    1779    1780    1774    1769    1770    1765
    1774    1769    1770    1771    1774    1773    1778    1777
    1774    1773    1778    1779    1774    1775    1776    1779
    1774    1775    1776    1953    1775    1772    1949    1950
    1775    1772    1949    1954    1775    1776    1779    1778
    1775    1776    1779    1780    1775    1776    1953    1954
    1775    1776    1953    1958    1776    1779    1780    1957
    1776    1779    1780    1783    1776    1953    1954    1949
    1776    1953    1954    1955    1776    1953    1958    1957
    1776    1953    1958    1959    1777    1600    1603    1602
    1777    1600    1603    1604    1777    1778    1779    1776
    1777    1778    1779    1780    1777    1782    1783    1780
    1777    1782    1783    1784    1778    1773    1774    1769
    1778    1773    1774    1775    1778    1777    1782    1781
    1778    1777    1782    1783    1778    1779    1780    1957
    1778    1779    1780    1783    1779    1776    1953    1954
    1779    1776    1953    1958    1779    1780    1957    1962
    1779    1780    1957    1958    1779    1780    1783    1782
    1779    1780    1783    1784    1780    1783    1784    1961
    1780    1783    1784    1787    1780    1957    1962    1961
    1780    1957    1962    1963    1780    1957    1958    1953
    1780    1957    1958    1959    1781    1604    1607    1606
    1781    1604    1607    1608    1781    1782    1783    1780
    1781    1782    1783    1784    1781    1786    1787    1784
    1781    1786    1787    1788    1782    1777    1778    1773
    1782    1777    1778    1779    1782    1781    1786    1785
    1782    1781    1786    1787    1782    1783    1784    1961
    1782    1783    1784    1787    1783    1780    1957    1962
    1783    1780    1957    1958    1783    1784    1961    1962
    1783    1784    1961    1966    1783    1784    1787    1786
    1783    1784    1787    1788    1784    1787    1788    1965
    1784    1787    1788    1791    1784    1961    1962    1957
    1784    1961    1962    1963    1784    1961    1966    1965
    1784    1961    1966    1967    1785    1608    1611    1610
    1785    1608    1611    1612    1785    1786    1787    1784
    1785    1786    1787    1788    1785    1790    1791    1788
    1785    1790    1791    1792    1786    1781    1782    1777
    1786    1781    1782    1783    1786    1785    1790    1789
    1786    1785    1790    1791    1786    1787    1788    1965
    1786    1787    1788    1791    1787    1784    1961    1962
    1787    1784    1961    1966    1787    1788    1965    1966
    1787    1788    1965    1970    1787    1788    1791    1790
    1787    1788    1791    1792    1788    1791    1792    1795
    1788    1791    1792    1969    1788    1965    1966    1961
    1788    1965    1966    1967    1788    1965    1970    1969
    1788    1965    1970    1971    1789    1612    1615    1614
    1789    1612    1615    1616    1789    1790    1791    1788
    1789    1790    1791    1792    1789    1794    1795    1792
    1789    1794    1795    1796    1790    1785    1786    1781
    1790    1785    1786    1787    1790    1789    1794    1793
    1790    1789    1794    1795    1790    1791    1792    1795
    1790    1791    1792    1969    1791    1788    1965    1966
    1791    1788    1965    1970    1791    1792    1795    1794
    1791    1792    1795    1796    1791    1792    1969    1974
    1791    1792    1969    1970    1792    1795    1796    1799
    1792    1795    1796    1973    1792    1969    1974    1973
    1792    1969    1974    1975    1792    1969    1970    1965
    1792    1969    1970    1971    1793    1616    1619    1618
    1793    1616    1619    1620    1793    1794    1795    1792
    1793    1794    1795    1796    1793    1798    1799    1796
    1793    1798    1799    1800    1794    1789    1790    1785
    1794    1789    1790    1791    1794    1793    1798    1797
    1794    1793    1798    1799    1794    1795    1796    1799
    1794    1795    1796    1973    1795    1792    1969    1974
    1795    1792    1969    1970    1795    1796    1799    1798
    1795    1796    1799    1800    1795    1796    1973    1978
    1795    1796    1973    1974    1796    1799    1800    1977
    1796    1973    1978    1977    1796    1973    1978    1979
    1796    1973    1974    1969    1796    1973    1974    1975
    1797    1798    1799    1796    1797    1798    1799    1800
    1798    1793    1794    1789    1798    1793    1794    1795
    1798    1799    1800    1977    1799    1796    1973    1978
    1799    1796    1973    1974    1799    1800    1977    1978
    1800    1977    1978    1973    1800    1977    1978    1979
    1801    1624    1627    1626    1801    1624    1627    1628
    1801    1802    1803    1804    1801    1806    1807    1804
    1801    1806    1807    1808    1802    1801    1806    1805
    1802    1801    1806    1807    1802    1803    1804    1981
    1802    1803    1804    1807    1803    1804    1981    1982
    1803    1804    1981    1986    1803    1804    1807    1806
    1803    1804    1807    1808    1804    1807    1808    1985
    1804    1807    1808    1811    1804    1981    1982    1983
    1804    1981    1986    1985    1804    1981    1986    1987
    1805    1628    1631    1630    1805    1628    1631    1632
    1805    1806    1807    1804    1805    1806    1807    1808
    1805    1810    1811    1808    1805    1810    1811    1812
    1806    1801    1802    1803    1806    1805    1810    1809
    1806    1805    1810    1811    1806    1807    1808    1985
    1806    1807    1808    1811    1807    1804    1981    1982
    1807    1804    1981    1986    1807    1808    1985    1986
    1807    1808    1985    1990    1807    1808    1811    1810
    1807    1808    1811    1812    1808    1811    1812    1815
    1808    1811    1812    1989    1808    1985    1986    1981
    1808    1985    1986    1987    1808    1985    1990    1989
    1808    1985    1990    1991    1809    1632    1635    1634
    1809    1632    1635    1636    1809    1810    1811    1808
    1809    1810    1811    1812    1809    1814    1815    1812
    1809    1814    1815    1816    1810    1805    1806    1801
    1810    1805    1806    1807    1810    1809    1814    1813
    1810    1809    1814    1815    1810    1811    1812    1815
    1810    1811    1812    1989    1811    1808    1985    1986
    1811    1808    1985    1990    1811    1812    1815    1814
    1811    1812    1815    1816    1811    1812    1989    1994
    1811    1812    1989    1990    1812    1815    1816    1819
    1812    1815    1816    1993    1812    1989    1994    1993
    1812    1989    1994    1995    1812    1989    1990    1985
    1812    1989    1990    1991    1813    1636    1639    1638
    1813    1636    1639    1640    1813    1814    1815    1812
    1813    1814    1815    1816    1813    1818    1819    1816
    1813    1818    1819    1820    1814    1809    1810    1805
    1814    1809    1810    1811    1814    1813    1818    1817
    1814    1813    1818    1819    1814    1815    1816    1819
    1814    1815    1816    1993    1815    1812    1989    1994
    1815    1812    1989    1990    1815    1816    1819    1818
    1815    1816    1819    1820    1815    1816    1993    1998
    1815    1816    1993    1994    1816    1819    1820    1997
    1816    1819    1820    1823    1816    1993    1998    1997
    1816    1993    1998    1999    1816    1993    1994    1989
    1816    1993    1994    1995    1817    1640    1643    1642
    1817    1640    1643    1644    1817    1818    1819    1816
    1817    1818    1819    1820    1817    1822    1823    1820
    1817    1822    1823    1824    1818    1813    1814    1809
    1818    1813    1814    1815    1818    1817    1822    1821
    1818    1817    1822    1823    1818    1819    1820    1997
    1818    1819    1820    1823    1819    1816    1993    1998
    1819    1816    1993    1994    1819    1820    1997    2002
    1819    1820    1997    1998    1819    1820    1823    1822
    1819    1820    1823    1824    1820    1823    1824    2001
    1820    1823    1824    1827    1820    1997    2002    2001
    1820    1997    2002    2003    1820    1997    1998    1993
    1820    1997    1998    1999    1821    1644    1647    1646
    1821    1644    1647    1648    1821    1822    1823    1820
    1821    1822    1823    1824    1821    1826    1827    1824
    1821    1826    1827    1828    1822    1817    1818    1813
    1822    1817    1818    1819    1822    1821    1826    1825
    1822    1821    1826    1827    1822    1823    1824    2001
    1822    1823    1824    1827    1823    1820    1997    2002
    1823    1820    1997    1998    1823    1824    2001    2002
    1823    1824    2001    2006    1823    1824    1827    1826
    1823    1824    1827    1828    1824    1827    1828    2005
    1824    1827    1828    1831    1824    2001    2002    1997
    1824    2001    2002    2003    1824    2001    2006    2005
    1824    2001    2006    2007    1825    1648    1651    1650
    1825    1648    1651    1652    1825    1826    1827    1824
    1825    1826    1827    1828    1825    1830    1831    1828
    1825    1830    1831    1832    1826    1821    1822    1817
    1826    1821    1822    1823    1826    1825    1830    1829
    1826    1825    1830    1831    1826    1827    1828    2005
    1826    1827    1828    1831    1827    1824    2001    2002
    1827    1824    2001    2006    1827    1828    2005    2006
    1827    1828    2005    2010    1827    1828    1831    1830
    1827    1828    1831    1832    1828    1831    1832    2009
    1828    1831    1832    1835    1828    2005    2006    2001
    1828    2005    2006    2007    1828    2005    2010    2009
    1828    2005    2010    2011    1829    1652    1655    1654
    1829    1652    1655    1656    1829    1830    1831    1828
    1829    1830    1831    1832    1829    1834    1835    1832
    1829    1834    1835    1836    1830    1825    1826    1821
    1830    1825    1826    1827    1830    1829    1834    1833
    1830    1829    1834    1835    1830    1831    1832    2009
    1830    1831    1832    1835    1831    1828    2005    2006
    1831    1828    2005    2010    1831    1832    2009    2014
    1831    1832    2009    2010    1831    1832    1835    1834
    1831    1832    1835    1836    1832    1835    1836    2013
    1832    1835    1836    1839    1832    2009    2014    2013
    1832    2009    2014    2015    1832    2009    2010    2005
    1832    2009    2010    2011    1833    1656    1659    1658
    1833    1656    1659    1660    1833    1834    1835    1832
    1833    1834    1835    1836    1833    1838    1839    1836
    1833    1838    1839    1840    1834    1829    1830    1825
    1834    1829    1830    1831    1834    1833    1838    1837
    1834    1833    1838    1839    1834    1835    1836    2013
    1834    1835    1836    1839    1835    1832    2009    2014
    1835    1832    2009    2010    1835    1836    2013    2018
    1835    1836    2013    2014    1835    1836    1839    1838
    1835    1836    1839    1840    1836    1839    1840    2017
    1836    1839    1840    1843    1836    2013    2018    2017
    1836    2013    2018    2019    1836    2013    2014    2009
    1836    2013    2014    2015    1837    1660    1663    1662
    1837    1660    1663    1664    1837    1838    1839    1836
    1837    1838    1839    1840    1837    1842    1843    1840
    1837    1842    1843    1844    1838    1833    1834    1829
    1838    1833    1834    1835    1838    1837    1842    1841
    1838    1837    1842    1843    1838    1839    1840    2017
    1838    1839    1840    1843    1839    1836    2013    2018
    1839    1836    2013    2014    1839    1840    2017    2022
    1839    1840    2017    2018    1839    1840    1843    1842
    1839    1840    1843    1844    1840    1843    1844    2021
    1840    1843    1844    1847    1840    2017    2022    2021
    1840    2017    2022    2023    1840    2017    2018    2013
    1840    2017    2018    2019    1841    1664    1667    1666
    1841    1664    1667    1668    1841    1842    1843    1840
    1841    1842    1843    1844    1841    1846    1847    1844
    1841    1846    1847    1848    1842    1837    1838    1833
    1842    1837    1838    1839    1842    1841    1846    1845
    1842    1841    1846    1847    1842    1843    1844    2021
    1842    1843    1844    1847    1843    1840    2017    2022
    1843    1840    2017    2018    1843    1844    2021    2022
    1843    1844    2021    2026    1843    1844    1847    1846
    1843    1844    1847    1848    1844    1847    1848    2025
    1844    1847    1848    1851    1844    2021    2022    2017
    1844    2021    2022    2023    1844    2021    2026    2025
    1844    2021    2026    2027    1845    1668    1671    1670
    1845    1668    1671    1672    1845    1846    1847    1844
    1845    1846    1847    1848    1845    1850    1851    1848
    1845    1850    1851    1852    1846    1841    1842    1837
    1846    1841    1842    1843    1846    1845    1850    1849
    1846    1845    1850    1851    1846    1847    1848    2025
    1846    1847    1848    1851    1847    1844    2021    2022
    1847    1844    2021    2026    1847    1848    2025    2026
    1847    1848    2025    2030    1847    1848    1851    1850
    1847    1848    1851    1852    1848    1851    1852    1855
    1848    1851    1852    2029    1848    2025    2026    2021
    1848    2025    2026    2027    1848    2025    2030    2029
    1848    2025    2030    2031    1849    1672    1675    1674
    1849    1672    1675    1676    1849    1850    1851    1848
    1849    1850    1851    1852    1849    1854    1855    1852
    1849    1854    1855    1856    1850    1845    1846    1841
    1850    1845    1846    1847    1850    1849    1854    1853
    1850    1849    1854    1855    1850    1851    1852    1855
    1850    1851    1852    2029    1851    1848    2025    2026
    1851    1848    2025    2030    1851    1852    1855    1854
    1851    1852    1855    1856    1851    1852    2029    2030
    1851    1852    2029    2034    1852    1855    1856    1859
    1852    1855    1856    2033    1852    2029    2030    2025
    1852    2029    2030    2031    1852    2029    2034    2033
    1852    2029    2034    2035    1853    1676    1679    1678
    1853    1676    1679    1680    1853    1854    1855    1852
    1853    1854    1855    1856    1853    1858    1859    1856
    1853    1858    1859    1860    1854    1849    1850    1845
    1854    1849    1850    1851    1854    1853    1858    1857
    1854    1853    1858    1859    1854    1855    1856    1859
    1854    1855    1856    2033    1855    1852    2029    2030
    1855    1852    2029    2034    1855    1856    1859    1858
    1855    1856    1859    1860    1855    1856    2033    2034
    1855    1856    2033    2038    1856    1859    1860    2037
    1856    1859    1860    1863    1856    2033    2034    2029
    1856    2033    2034    2035    1856    2033    2038    2037
    1856    2033    2038    2039    1857    1680    1683    1682
    1857    1680    1683    1684    1857    1858    1859    1856
    1857    1858    1859    1860    1857    1862    1863    1860
    1857    1862    1863    1864    1858    1853    1854    1849
    1858    1853    1854    1855    1858    1857    1862    1861
    1858    1857    1862    1863    1858    1859    1860    2037
    1858    1859    1860    1863    1859    1856    2033    2034
    1859    1856    2033    2038    1859    1860    2037    2038
    1859    1860    2037    2042    1859    1860    1863    1862
    1859    1860    1863    1864    1860    1863    1864    2041
    1860    1863    1864    1867    1860    2037    2038    2033
    1860    2037    2038    2039    1860    2037    2042    2041
    1860    2037    2042    2043    1861    1684    1687    1686
    1861    1684    1687    1688    1861    1862    1863    1860
    1861    1862    1863    1864    1861    1866    1867    1864
    1861    1866    1867    1868    1862    1857    1858    1853
    1862    1857    1858    1859    1862    1861    1866    1865
    1862    1861    1866    1867    1862    1863    1864    2041
    1862    1863    1864    1867    1863    1860    2037    2038
    1863    1860    2037    2042    1863    1864    2041    2042
    1863    1864    2041    2046    1863    1864    1867    1866
    1863    1864    1867    1868    1864    1867    1868    2045
    1864    1867    1868    1871    1864    2041    2042    2037
    1864    2041    2042    2043    1864    2041    2046    2045
    1864    2041    2046    2047    1865    1688    1691    1690
    1865    1688    1691    1692    1865    1866    1867    1864
    1865    1866    1867    1868    1865    1870    1871    1868
    1865    1870    1871    1872    1866    1861    1862    1857
    1866    1861    1862    1863    1866    1865    1870    1869
    1866    1865    1870    1871    1866    1867    1868    2045
    1866    1867    1868    1871    1867    1864    2041    2042
    1867    1864    2041    2046    1867    1868    2045    2046
    1867    1868    2045    2050    1867    1868    1871    1870
    1867    1868    1871    1872    1868    1871    1872    1875
    1868    1871    1872    2049    1868    2045    2046    2041
    1868    2045    2046    2047    1868    2045    2050    2049
    1868    2045    2050    2051    1869    1692    1695    1694
    1869    1692    1695    1696    1869    1870    1871    1868
    1869    1870    1871    1872    1869    1874    1875    1872
    1869    1874    1875    1876    1870    1865    1866    1861
    1870    1865    1866    1867    1870    1869    1874    1873
    1870    1869    1874    1875    1870    1871    1872    1875
    1870    1871    1872    2049    1871    1868    2045    2046
    1871    1868    2045    2050    1871    1872    1875    1874
    1871    1872    1875    1876    1871    1872    2049    2054
    1871    1872    2049    2050    1872    1875    1876    1879
    1872    1875    1876    2053    1872    2049    2054    2053
    1872    2049    2054    2055    1872    2049    2050    2045
    1872    2049    2050    2051    1873    1696    1699    1698
    1873    1696    1699    1700    1873    1874    1875    1872
    1873    1874    1875    1876    1873    1878    1879    1876
    1873    1878    1879    1880    1874    1869    1870    1865
    1874    1869    1870    1871    1874    1873    1878    1877
    1874    1873    1878    1879    1874    1875    1876    1879
    1874    1875    1876    2053    1875    1872    2049    2054
    1875    1872    2049    2050    1875    1876    1879    1878
    1875    1876    1879    1880    1875    1876    2053    2058
    1875    1876    2053    2054    1876    1879    1880    2057
    1876    1879    1880    1883    1876    2053    2058    2057
    1876    2053    2058    2059    1876    2053    2054    2049
    1876    2053    2054    2055    1877    1700    1703    1702
    1877    1700    1703    1704    1877    1878    1879    1876
    1877    1878    1879    1880    1877    1882    1883    1880
    1877    1882    1883    1884    1878    1873    1874    1869
    1878    1873    1874    1875    1878    1877    1882    1881
    1878    1877    1882    1883    1878    1879    1880    2057
    1878    1879    1880    1883    1879    1876    2053    2058
    1879    1876    2053    2054    1879    1880    2057    2062
    1879    1880    2057    2058    1879    1880    1883    1882
    1879    1880    1883    1884    1880    1883    1884    2061
    1880    1883    1884    1887    1880    2057    2062    2061
    1880    2057    2062    2063    1880    2057    2058    2053
    1880    2057    2058    2059    1881    1704    1707    1706
    1881    1704    1707    1708    1881    1882    1883    1880
    1881    1882    1883    1884    1881    1886    1887    1884
    1881    1886    1887    1888    1882    1877    1878    1873
    1882    1877    1878    1879    1882    1881    1886    1885
    1882    1881    1886    1887    1882    1883    1884    2061
    1882    1883    1884    1887    1883    1880    2057    2062
    1883    1880    2057    2058    1883    1884    2061    2062
    1883    1884    2061    2066    1883    1884    1887    1886
    1883    1884    1887    1888    1884    1887    1888    2065
    1884    1887    1888    1891    1884    2061    2062    2057
    1884    2061    2062    2063    1884    2061    2066    2065
    1884    2061    2066    2067    1885    1708    1711    1710
    1885    1708    1711    1712    1885    1886    1887    1884
    1885    1886    1887    1888    1885    1890    1891    1888
    1885    1890    1891    1892    1886    1881    1882    1877
    1886    1881    1882    1883    1886    1885    1890    1889
    1886    1885    1890    1891    1886    1887    1888    2065
    1886    1887    1888    1891    1887    1884    2061    2062
    1887    1884    2061    2066    1887    1888    2065    2066
    1887    1888    2065    2070    1887    1888    1891    1890
    1887    1888    1891    1892    1888    1891    1892    2069
    1888    1891    1892    1895    1888    2065    2066    2061
    1888    2065    2066    2067    1888    2065    2070    2069
    1888    2065    2070    2071    1889    1712    1715    1714
    1889    1712    1715    1716    1889    1890    1891    1888
    1889    1890    1891    1892    1889    1894    1895    1892
    1889    1894    1895    1896    1890    1885    1886    1881
    1890    1885    1886    1887    1890    1889    1894    1893
    1890    1889    1894    1895    1890    1891    1892    2069
    1890    1891    1892    1895    1891    1888    2065    2066
    1891    1888    2065    2070    1891    1892    2069    2074
    1891    1892    2069    2070    1891    1892    1895    1894
    1891    1892    1895    1896    1892    1895    1896    2073
    1892    1895    1896    1899    1892    2069    2074    2073
    1892    2069    2074    2075    1892    2069    2070    2065
    1892    2069    2070    2071    1893    1716    1719    1718
    1893    1716    1719    1720    1893    1894    1895    1892
    1893    1894    1895    1896    1893    1898    1899    1896
    1893    1898    1899    1900    1894    1889    1890    1885
    1894    1889    1890    1891    1894    1893    1898    1897
    1894    1893    1898    1899    1894    1895    1896    2073
    1894    1895    1896    1899    1895    1892    2069    2074
    1895    1892    2069    2070    1895    1896    2073    2078
    1895    1896    2073    2074    1895    1896    1899    1898
    1895    1896    1899    1900    1896    1899    1900    2077
    1896    1899    1900    1903    1896    2073    2078    2077
    1896    2073    2078    2079    1896    2073    2074    2069
    1896    2073    2074    2075    1897    1720    1723    1722
    1897    1720    1723    1724    1897    1898    1899    1896
    1897    1898    1899    1900    1897    1902    1903    1900
    1897    1902    1903    1904    1898    1893    1894    1889
    1898    1893    1894    1895    1898    1897    1902    1901
    1898    1897    1902    1903    1898    1899    1900    2077
    1898    1899    1900    1903    1899    1896    2073    2078
    1899    1896    2073    2074    1899    1900    2077    2082
    1899    1900    2077    2078    1899    1900    1903    1902
    1899    1900    1903    1904    1900    1903    1904    2081
    1900    1903    1904    1907    1900    2077    2082    2081
    1900    2077    2082    2083    1900    2077    2078    2073
    1900    2077    2078    2079    1901    1724    1727    1726
    1901    1724    1727    1728    1901    1902    1903    1900
    1901    1902    1903    1904    1901    1906    1907    1904
    1901    1906    1907    1908    1902    1897    1898    1893
    1902    1897    1898    1899    1902    1901    1906    1905
    1902    1901    1906    1907    1902    1903    1904    2081
    1902    1903    1904    1907    1903    1900    2077    2082
    1903    1900    2077    2078    1903    1904    2081    2082
    1903    1904    2081    2086    1903    1904    1907    1906
    1903    1904    1907    1908    1904    1907    1908    2085
    1904    1907    1908    1911    1904    2081    2082    2077
    1904    2081    2082    2083    1904    2081    2086    2085
    1904    2081    2086    2087    1905    1728    1731    1730
    1905    1728    1731    1732    1905    1906    1907    1904
    1905    1906    1907    1908    1905    1910    1911    1908
    1905    1910    1911    1912    1906    1901    1902    1897
    1906    1901    1902    1903    1906    1905    1910    1909
    1906    1905    1910    1911    1906    1907    1908    2085
    1906    1907    1908    1911    1907    1904    2081    2082
    1907    1904    2081    2086    1907    1908    2085    2086
    1907    1908    2085    2090    1907    1908    1911    1910
    1907    1908    1911    1912    1908    1911    1912    1915
    1908    1911    1912    2089    1908    2085    2086    2081
    1908    2085    2086    2087    1908    2085    2090    2089
    1908    2085    2090    2091    1909    1732    1735    1734
    1909    1732    1735    1736    1909    1910    1911    1908
    1909    1910    1911    1912    1909    1914    1915    1912
    1909    1914    1915    1916    1910    1905    1906    1901
    1910    1905    1906    1907    1910    1909    1914    1913
    1910    1909    1914    1915    1910    1911    1912    1915
    1910    1911    1912    2089    1911    1908    2085    2086
    1911    1908    2085    2090    1911    1912    1915    1914
    1911    1912    1915    1916    1911    1912    2089    2090
    1911    1912    2089    2094    1912    1915    1916    1919
    1912    1915    1916    2093    1912    2089    2090    2085
    1912    2089    2090    2091    1912    2089    2094    2093
    1912    2089    2094    2095    1913    1736    1739    1738
    1913    1736    1739    1740    1913    1914    1915    1912
    1913    1914    1915    1916    1913    1918    1919    1916
    1913    1918    1919    1920    1914    1909    1910    1905
    1914    1909    1910    1911    1914    1913    1918    1917
    1914    1913    1918    1919    1914    1915    1916    1919
    1914    1915    1916    2093    1915    1912    2089    2090
    1915    1912    2089    2094    1915    1916    1919    1918
    1915    1916    1919    1920    1915    1916    2093    2094
    1915    1916    2093    2098    1916    1919    1920    2097
    1916    1919    1920    1923    1916    2093    2094    2089
    1916    2093    2094    2095    1916    2093    2098    2097
    1916    2093    2098    2099    1917    1740    1743    1742
    1917    1740    1743    1744    1917    1918    1919    1916
    1917    1918    1919    1920    1917    1922    1923    1920
    1917    1922    1923    1924    1918    1913    1914    1909
    1918    1913    1914    1915    1918    1917    1922    1921
    1918    1917    1922    1923    1918    1919    1920    2097
    1918    1919    1920    1923    1919    1916    2093    2094
    1919    1916    2093    2098    1919    1920    2097    2098
    1919    1920    2097    2102    1919    1920    1923    1922
    1919    1920    1923    1924    1920    1923    1924    2101
    1920    1923    1924    1927    1920    2097    2098    2093
    1920    2097    2098    2099    1920    2097    2102    2101
    1920    2097    2102    2103    1921    1744    1747    1746
    1921    1744    1747    1748    1921    1922    1923    1920
    1921    1922    1923    1924    1921    1926    1927    1924
    1921    1926    1927    1928    1922    1917    1918    1913
    1922    1917    1918    1919    1922    1921    1926    1925
    1922    1921    1926    1927    1922    1923    1924    2101
    1922    1923    1924    1927    1923    1920    2097    2098
    1923    1920    2097    2102    1923    1924    2101    2102
    1923    1924    2101    2106    1923    1924    1927    1926
    1923    1924    1927    1928    1924    1927    1928    2105
    1924    1927    1928    1931    1924    2101    2102    2097
    1924    2101    2102    2103    1924    2101    2106    2105
    1924    2101    2106    2107    1925    1748    1751    1750
    1925    1748    1751    1752    1925    1926    1927    1924
    1925    1926    1927    1928    1925    1930    1931    1928
    1925    1930    1931    1932    1926    1921    1922    1917
    1926    1921    1922    1923    1926    1925    1930    1929
    1926    1925    1930    1931    1926    1927    1928    2105
    1926    1927    1928    1931    1927    1924    2101    2102
    1927    1924    2101    2106    1927    1928    2105    2106
    1927    1928    2105    2110    1927    1928    1931    1930
    1927    1928    1931    1932    1928    1931    1932    1935
    1928    1931    1932    2109    1928    2105    2106    2101
    1928    2105    2106    2107    1928    2105    2110    2109
    1928    2105    2110    2111    1929    1752    1755    1754
    1929    1752    1755    1756    1929    1930    1931    1928
    1929    1930    1931    1932    1929    1934    1935    1932
    1929    1934    1935    1936    1930    1925    1926    1921
    1930    1925    1926    1927    1930    1929    1934    1933
    1930    1929    1934    1935    1930    1931    1932    1935
    1930    1931    1932    2109    1931    1928    2105    2106
    1931    1928    2105    2110    1931    1932    1935    1934
    1931    1932    1935    1936    1931    1932    2109    2114
    1931    1932    2109    2110    1932    1935    1936    1939
    1932    1935    1936    2113    1932    2109    2114    2113
    1932    2109    2114    2115    1932    2109    2110    2105
    1932    2109    2110    2111    1933    1756    1759    1758
    1933    1756    1759    1760    1933    1934    1935    1932
    1933    1934    1935    1936    1933    1938    1939    1936
    1933    1938    1939    1940    1934    1929    1930    1925
    1934    1929    1930    1931    1934    1933    1938    1937
    1934    1933    1938    1939    1934    1935    1936    1939
    1934    1935    1936    2113    1935    1932    2109    2114
    1935    1932    2109    2110    1935    1936    1939    1938
    1935    1936    1939    1940    1935    1936    2113    2118
    1935    1936    2113    2114    1936    1939    1940    2117
    1936    1939    1940    1943    1936    2113    2118    2117
    1936    2113    2118    2119    1936    2113    2114    2109
    1936    2113    2114    2115    1937    1760    1763    1762
    1937    1760    1763    1764    1937    1938    1939    1936
    1937    1938    1939    1940    1937    1942    1943    1940
    1937    1942    1943    1944    1938    1933    1934    1929
    1938    1933    1934    1935    1938    1937    1942    1941
    1938    1937    1942    1943    1938    1939    1940    2117
    1938    1939    1940    1943    1939    1936    2113    2118
    1939    1936    2113    2114    1939    1940    2117    2122
    1939    1940    2117    2118    1939    1940    1943    1942
    1939    1940    1943    1944    1940    1943    1944    2121
    1940    1943    1944    1947    1940    2117    2122    2121
    1940    2117    2122    2123    1940    2117    2118    2113
    1940    2117    2118    2119    1941    1764    1767    1766
    1941    1764    1767    1768    1941    1942    1943    1940
    1941    1942    1943    1944    1941    1946    1947    1944
    1941    1946    1947    1948    1942    1937    1938    1933
    1942    1937    1938    1939    1942    1941    1946    1945
    1942    1941    1946    1947    1942    1943    1944    2121
    1942    1943    1944    1947    1943    1940    2117    2122
    1943    1940    2117    2118    1943    1944    2121    2122
    1943    1944    2121    2126    1943    1944    1947    1946
    1943    1944    1947    1948    1944    1947    1948    2125
    1944    1947    1948    1951    1944    2121    2122    2117
    1944    2121    2122    2123    1944    2121    2126    2125
    1944    2121    2126    2127    1945    1768    1771    1770
    1945    1768    1771    1772    1945    1946    1947    1944
    1945    1946    1947    1948    1945    1950    1951    1948
    1945    1950    1951    1952    1946    1941    1942    1937
    1946    1941    1942    1943    1946    1945    1950    1949
    1946    1945    1950    1951    1946    1947    1948    2125
    1946    1947    1948    1951    1947    1944    2121    2122
    1947    1944    2121    2126    1947    1948    2125    2126
    1947    1948    2125    2130    1947    1948    1951    1950
    1947    1948    1951    1952    1948    1951    1952    1955
    1948    1951    1952    2129    1948    2125    2126    2121
    1948    2125    2126    2127    1948    2125    2130    2129
    1948    2125    2130    2131    1949    1772    1775    1774
    1949    1772    1775    1776    1949    1950    1951    1948
    1949    1950    1951    1952    1949    1954    1955    1952
    1949    1954    1955    1956    1950    1945    1946    1941
    1950    1945    1946    1947    1950    1949    1954    1953
    1950    1949    1954    1955    1950    1951    1952    1955
    1950    1951    1952    2129    1951    1948    2125    2126
    1951    1948    2125    2130    1951    1952    1955    1954
    1951    1952    1955    1956    1951    1952    2129    2134
    1951    1952    2129    2130    1952    1955    1956    2133
    1952    1955    1956    1959    1952    2129    2134    2133
    1952    2129    2134    2135    1952    2129    2130    2125
    1952    2129    2130    2131    1953    1776    1779    1778
    1953    1776    1779    1780    1953    1954    1955    1952
    1953    1954    1955    1956    1953    1958    1959    1956
    1953    1958    1959    1960    1954    1949    1950    1945
    1954    1949    1950    1951    1954    1953    1958    1957
    1954    1953    1958    1959    1954    1955    1956    2133
    1954    1955    1956    1959    1955    1952    2129    2134
    1955    1952    2129    2130    1955    1956    2133    2138
    1955    1956    2133    2134    1955    1956    1959    1958
    1955    1956    1959    1960    1956    1959    1960    2137
    1956    1959    1960    1963    1956    2133    2138    2137
    1956    2133    2138    2139    1956    2133    2134    2129
    1956    2133    2134    2135    1957    1780    1783    1782
    1957    1780    1783    1784    1957    1958    1959    1956
    1957    1958    1959    1960    1957    1962    1963    1960
    1957    1962    1963    1964    1958    1953    1954    1949
    1958    1953    1954    1955    1958    1957    1962    1961
    1958    1957    1962    1963    1958    1959    1960    2137
    1958    1959    1960    1963    1959    1956    2133    2138
    1959    1956    2133    2134    1959    1960    2137    2142
    1959    1960    2137    2138    1959    1960    1963    1962
    1959    1960    1963    1964    1960    1963    1964    2141
    1960    1963    1964    1967    1960    2137    2142    2141
    1960    2137    2142    2143    1960    2137    2138    2133
    1960    2137    2138    2139    1961    1784    1787    1786
    1961    1784    1787    1788    1961    1962    1963    1960
    1961    1962    1963    1964    1961    1966    1967    1964
    1961    1966    1967    1968    1962    1957    1958    1953
    1962    1957    1958    1959    1962    1961    1966    1965
    1962    1961    1966    1967    1962    1963    1964    2141
    1962    1963    1964    1967    1963    1960    2137    2142
    1963    1960    2137    2138    1963    1964    2141    2142
    1963    1964    2141    2146    1963    1964    1967    1966
    1963    1964    1967    1968    1964    1967    1968    2145
    1964    1967    1968    1971    1964    2141    2142    2137
    1964    2141    2142    2143    1964    2141    2146    2145
    1964    2141    2146    2147    1965    1788    1791    1790
    1965    1788    1791    1792    1965    1966    1967    1964
    1965    1966    1967    1968    1965    1970    1971    1968
    1965    1970    1971    1972    1966    1961    1962    1957
    1966    1961    1962    1963    1966    1965    1970    1969
    1966    1965    1970    1971    1966    1967    1968    2145
    1966    1967    1968    1971    1967    1964    2141    2142
    1967    1964    2141    2146    1967    1968    2145    2146
    1967    1968    2145    2150    1967    1968    1971    1970
    1967    1968    1971    1972    1968    1971    1972    2149
    1968    1971    1972    1975    1968    2145    2146    2141
    1968    2145    2146    2147    1968    2145    2150    2149
    1968    2145    2150    2151    1969    1792    1795    1794
    1969    1792    1795    1796    1969    1970    1971    1968
    1969    1970    1971    1972    1969    1974    1975    1972
    1969    1974    1975    1976    1970    1965    1966    1961
    1970    1965    1966    1967    1970    1969    1974    1973
    1970    1969    1974    1975    1970    1971    1972    2149
    1970    1971    1972    1975    1971    1968    2145    2146
    1971    1968    2145    2150    1971    1972    2149    2154
    1971    1972    2149    2150    1971    1972    1975    1974
    1971    1972    1975    1976    1972    1975    1976    1979
    1972    1975    1976    2153    1972    2149    2154    2153
    1972    2149    2154    2155    1972    2149    2150    2145
    1972    2149    2150    2151    1973    1796    1799    1798
    1973    1796    1799    1800    1973    1974    1975    1972
    1973    1974    1975    1976    1973    1978    1979    1976
    1973    1978    1979    1980    1974    1969    1970    1965
    1974    1969    1970    1971    1974    1973    1978    1977
    1974    1973    1978    1979    1974    1975    1976    1979
    1974    1975    1976    2153    1975    1972    2149    2154
    1975    1972    2149    2150    1975    1976    1979    1978
    1975    1976    1979    1980    1975    1976    2153    2154
    1975    1976    2153    2158    1976    1979    1980    2157
    1976    2153    2154    2149    1976    2153    2154    2155
    1976    2153    2158    2157    1976    2153    2158    2159
    1977    1978    1979    1976    1977    1978    1979    1980
    1978    1973    1974    1969    1978    1973    1974    1975
    1978    1979    1980    2157    1979    1976    2153    2154
    1979    1976    2153    2158    1979    1980    2157    2158
    1980    2157    2158    2153    1980    2157    2158    2159
    1981    1804    1807    1806    1981    1804    1807    1808
    1981    1982    1983    1984    1981    1986    1987    1984
    1981    1986    1987    1988    1982    1981    1986    1985
    1982    1981    1986    1987    1982    1983    1984    2161
    1982    1983    1984    1987    1983    1984    2161    2162
    1983    1984    2161    2166    1983    1984    1987    1986
    1983    1984    1987    1988    1984    1987    1988    2165
    1984    1987    1988    1991    1984    2161    2162    2163
    1984    2161    2166    2165    1984    2161    2166    2167
    1985    1808    1811    1810    1985    1808    1811    1812
    1985    1986    1987    1984    1985    1986    1987    1988
    1985    1990    1991    1988    1985    1990    1991    1992
    1986    1981    1982    1983    1986    1985    1990    1989
    1986    1985    1990    1991    1986    1987    1988    2165
    1986    1987    1988    1991    1987    1984    2161    2162
    1987    1984    2161    2166    1987    1988    2165    2166
    1987    1988    2165    2170    1987    1988    1991    1990
    1987    1988    1991    1992    1988    1991    1992    2169
    1988    1991    1992    1995    1988    2165    2166    2161
    1988    2165    2166    2167    1988    2165    2170    2169
    1988    2165    2170    2171    1989    1812    1815    1814
    1989    1812    1815    1816    1989    1990    1991    1988
    1989    1990    1991    1992    1989    1994    1995    1992
    1989    1994    1995    1996    1990    1985    1986    1981
    1990    1985    1986    1987    1990    1989    1994    1993
    1990    1989    1994    1995    1990    1991    1992    2169
    1990    1991    1992    1995    1991    1988    2165    2166
    1991    1988    2165    2170    1991    1992    2169    2174
    1991    1992    2169    2170    1991    1992    1995    1994
    1991    1992    1995    1996    1992    1995    1996    1999
    1992    1995    1996    2173    1992    2169    2174    2173
    1992    2169    2174    2175    1992    2169    2170    2165
    1992    2169    2170    2171    1993    1816    1819    1818
    1993    1816    1819    1820    1993    1994    1995    1992
    1993    1994    1995    1996    1993    1998    1999    1996
    1993    1998    1999    2000    1994    1989    1990    1985
    1994    1989    1990    1991    1994    1993    1998    1997
    1994    1993    1998    1999    1994    1995    1996    1999
    1994    1995    1996    2173    1995    1992    2169    2174
    1995    1992    2169    2170    1995    1996    1999    1998
    1995    1996    1999    2000    1995    1996    2173    2178
    1995    1996    2173    2174    1996    1999    2000    2177
    1996    1999    2000    2003    1996    2173    2178    2177
    1996    2173    2178    2179    1996    2173    2174    2169
    1996    2173    2174    2175    1997    1820    1823    1822
    1997    1820    1823    1824    1997    1998    1999    1996
    1997    1998    1999    2000    1997    2002    2003    2000
    1997    2002    2003    2004    1998    1993    1994    1989
    1998    1993    1994    1995    1998    1997    2002    2001
    1998    1997    2002    2003    1998    1999    2000    2177
    1998    1999    2000    2003    1999    1996    2173    2178
    1999    1996    2173    2174    1999    2000    2177    2182
    1999    2000    2177    2178    1999    2000    2003    2002
    1999    2000    2003    2004    2000    2003    2004    2181
    2000    2003    2004    2007    2000    2177    2182    2181
    2000    2177    2182    2183    2000    2177    2178    2173
    2000    2177    2178    2179    2001    1824    1827    1826
    2001    1824    1827    1828    2001    2002    2003    2000
    2001    2002    2003    2004    2001    2006    2007    2004
    2001    2006    2007    2008    2002    1997    1998    1993
    2002    1997    1998    1999    2002    2001    2006    2005
    2002    2001    2006    2007    2002    2003    2004    2181
    2002    2003    2004    2007    2003    2000    2177    2182
    2003    2000    2177    2178    2003    2004    2181    2182
    2003    2004    2181    2186    2003    2004    2007    2006
    2003    2004    2007    2008    2004    2007    2008    2185
    2004    2007    2008    2011    2004    2181    2182    2177
    2004    2181    2182    2183    2004    2181    2186    2185
    2004    2181    2186    2187    2005    1828    1831    1830
    2005    1828    1831    1832    2005    2006    2007    2004
    2005    2006    2007    2008    2005    2010    2011    2008
    2005    2010    2011    2012    2006    2001    2002    1997
    2006    2001    2002    2003    2006    2005    2010    2009
    2006    2005    2010    2011    2006    2007    2008    2185
    2006    2007    2008    2011    2007    2004    2181    2182
    2007    2004    2181    2186    2007    2008    2185    2186
    2007    2008    2185    2190    2007    2008    2011    2010
    2007    2008    2011    2012    2008    2011    2012    2015
    2008    2011    2012    2189    2008    2185    2186    2181
    2008    2185    2186    2187    2008    2185    2190    2189
    2008    2185    2190    2191    2009    1832    1835    1834
    2009    1832    1835    1836    2009    2010    2011    2008
    2009    2010    2011    2012    2009    2014    2015    2012
    2009    2014    2015    2016    2010    2005    2006    2001
    2010    2005    2006    2007    2010    2009    2014    2013
    2010    2009    2014    2015    2010    2011    2012    2015
    2010    2011    2012    2189    2011    2008    2185    2186
    2011    2008    2185    2190    2011    2012    2015    2014
    2011    2012    2015    2016    2011    2012    2189    2194
    2011    2012    2189    2190    2012    2015    2016    2019
    2012    2015    2016    2193    2012    2189    2194    2193
    2012    2189    2194    2195    2012    2189    2190    2185
    2012    2189    2190    2191    2013    1836    1839    1838
    2013    1836    1839    1840    2013    2014    2015    2012
    2013    2014    2015    2016    2013    2018    2019    2016
    2013    2018    2019    2020    2014    2009    2010    2005
    2014    2009    2010    2011    2014    2013    2018    2017
    2014    2013    2018    2019    2014    2015    2016    2019
    2014    2015    2016    2193    2015    2012    2189    2194
    2015    2012    2189    2190    2015    2016    2019    2018
    2015    2016    2019    2020    2015    2016    2193    2194
    2015    2016    2193    2198    2016    2019    2020    2197
    2016    2019    2020    2023    2016    2193    2194    2189
    2016    2193    2194    2195    2016    2193    2198    2197
    2016    2193    2198    2199    2017    1840    1843    1842
    2017    1840    1843    1844    2017    2018    2019    2016
    2017    2018    2019    2020    2017    2022    2023    2020
    2017    2022    2023    2024    2018    2013    2014    2009
    2018    2013    2014    2015    2018    2017    2022    2021
    2018    2017    2022    2023    2018    2019    2020    2197
    2018    2019    2020    2023    2019    2016    2193    2194
    2019    2016    2193    2198    2019    2020    2197    2202
    2019    2020    2197    2198    2019    2020    2023    2022
    2019    2020    2023    2024    2020    2023    2024    2201
    2020    2023    2024    2027    2020    2197    2202    2201
    2020    2197    2202    2203    2020    2197    2198    2193
    2020    2197    2198    2199    2021    1844    1847    1846
    2021    1844    1847    1848    2021    2022    2023    2020
    2021    2022    2023    2024    2021    2026    2027    2024
    2021    2026    2027    2028    2022    2017    2018    2013
    2022    2017    2018    2019    2022    2021    2026    2025
    2022    2021    2026    2027    2022    2023    2024    2201
    2022    2023    2024    2027    2023    2020    2197    2202
    2023    2020    2197    2198    2023    2024    2201    2202
    2023    2024    2201    2206    2023    2024    2027    2026
    2023    2024    2027    2028    2024    2027    2028    2205
    2024    2027    2028    2031    2024    2201    2202    2197
    2024    2201    2202    2203    2024    2201    2206    2205
    2024    2201    2206    2207    2025    1848    1851    1850
    2025    1848    1851    1852    2025    2026    2027    2024
    2025    2026    2027    2028    2025    2030    2031    2028
    2025    2030    2031    2032    2026    2021    2022    2017
    2026    2021    2022    2023    2026    2025    2030    2029
    2026    2025    2030    2031    2026    2027    2028    2205
    2026    2027    2028    2031    2027    2024    2201    2202
    2027    2024    2201    2206    2027    2028    2205    2206
    2027    2028    2205    2210    2027    2028    2031    2030
    2027    2028    2031    2032    2028    2031    2032    2035
    2028    2031    2032    2209    2028    2205    2206    2201
    2028    2205    2206    2207    2028    2205    2210    2209
    2028    2205    2210    2211    2029    1852    1855    1854
    2029    1852    1855    1856    2029    2030    2031    2028
    2029    2030    2031    2032    2029    2034    2035    2032
    2029    2034    2035    2036    2030    2025    2026    2021
    2030    2025    2026    2027    2030    2029    2034    2033
    2030    2029    2034    2035    2030    2031    2032    2035
    2030    2031    2032    2209    2031    2028    2205    2206
    2031    2028    2205    2210    2031    2032    2035    2034
    2031    2032    2035    2036    2031    2032    2209    2214
    2031    2032    2209    2210    2032    2035    2036    2039
    2032    2035    2036    2213    2032    2209    2214    2213
    2032    2209    2214    2215    2032    2209    2210    2205
    2032    2209    2210    2211    2033    1856    1859    1858
    2033    1856    1859    1860    2033    2034    2035    2032
    2033    2034    2035    2036    2033    2038    2039    2036
    2033    2038    2039    2040    2034    2029    2030    2025
    2034    2029    2030    2031    2034    2033    2038    2037
    2034    2033    2038    2039    2034    2035    2036    2039
    2034    2035    2036    2213    2035    2032    2209    2214
    2035    2032    2209    2210    2035    2036    2039    2038
    2035    2036    2039    2040    2035    2036    2213    2218
    2035    2036    2213    2214    2036    2039    2040    2217
    2036    2039    2040    2043    2036    2213    2218    2217
    2036    2213    2218    2219    2036    2213    2214    2209
    2036    2213    2214    2215    2037    1860    1863    1862
    2037    1860    1863    1864    2037    2038    2039    2036
    2037    2038    2039    2040    2037    2042    2043    2040
    2037    2042    2043    2044    2038    2033    2034    2029
    2038    2033    2034    2035    2038    2037    2042    2041
    2038    2037    2042    2043    2038    2039    2040    2217
    2038    2039    2040    2043    2039    2036    2213    2218
    2039    2036    2213    2214    2039    2040    2217    2222
    2039    2040    2217    2218    2039    2040    2043    2042
    2039    2040    2043    2044    2040    2043    2044    2221
    2040    2043    2044    2047    2040    2217    2222    2221
    2040    2217    2222    2223    2040    2217    2218    2213
    2040    2217    2218    2219    2041    1864    1867    1866
    2041    1864    1867    1868    2041    2042    2043    2040
    2041    2042    2043    2044    2041    2046    2047    2044
    2041    2046    2047    2048    2042    2037    2038    2033
    2042    2037    2038    2039    2042    2041    2046    2045
    2042    2041    2046    2047    2042    2043    2044    2221
    2042    2043    2044    2047    2043    2040    2217    2222
    2043    2040    2217    2218    2043    2044    2221    2222
    2043    2044    2221    2226    2043    2044    2047    2046
    2043    2044    2047    2048    2044    2047    2048    2225
    2044    2047    2048    2051    2044    2221    2222    2217
    2044    2221    2222    2223    2044    2221    2226    2225
    2044    2221    2226    2227    2045    1868    1871    1870
    2045    1868    1871    1872    2045    2046    2047    2044
    2045    2046    2047    2048    2045    2050    2051    2048
    2045    2050    2051    2052    2046    2041    2042    2037
    2046    2041    2042    2043    2046    2045    2050    2049
    2046    2045    2050    2051    2046    2047    2048    2225
    2046    2047    2048    2051    2047    2044    2221    2222
    2047    2044    2221    2226    2047    2048    2225    2226
    2047    2048    2225    2230    2047    2048    2051    2050
    2047    2048    2051    2052    2048    2051    2052    2229
    2048    2051    2052    2055    2048    2225    2226    2221
    2048    2225    2226    2227    2048    2225    2230    2229
    2048    2225    2230    2231    2049    1872    1875    1874
    2049    1872    1875    1876    2049    2050    2051    2048
    2049    2050    2051    2052    2049    2054    2055    2052
    2049    2054    2055    2056    2050    2045    2046    2041
    2050    2045    2046    2047    2050    2049    2054    2053
    2050    2049    2054    2055    2050    2051    2052    2229
    2050    2051    2052    2055    2051    2048    2225    2226
    2051    2048    2225    2230    2051    2052    2229    2234
    2051    2052    2229    2230    2051    2052    2055    2054
    2051    2052    2055    2056    2052    2055    2056    2233
    2052    2055    2056    2059    2052    2229    2234    2233
    2052    2229    2234    2235    2052    2229    2230    2225
    2052    2229    2230    2231    2053    1876    1879    1878
    2053    1876    1879    1880    2053    2054    2055    2052
    2053    2054    2055    2056    2053    2058    2059    2056
    2053    2058    2059    2060    2054    2049    2050    2045
    2054    2049    2050    2051    2054    2053    2058    2057
    2054    2053    2058    2059    2054    2055    2056    2233
    2054    2055    2056    2059    2055    2052    2229    2234
    2055    2052    2229    2230    2055    2056    2233    2238
    2055    2056    2233    2234    2055    2056    2059    2058
    2055    2056    2059    2060    2056    2059    2060    2237
    2056    2059    2060    2063    2056    2233    2238    2237
    2056    2233    2238    2239    2056    2233    2234    2229
    2056    2233    2234    2235    2057    1880    1883    1882
    2057    1880    1883    1884    2057    2058    2059    2056
    2057    2058    2059    2060    2057    2062    2063    2060
    2057    2062    2063    2064    2058    2053    2054    2049
    2058    2053    2054    2055    2058    2057    2062    2061
    2058    2057    2062    2063    2058    2059    2060    2237
    2058    2059    2060    2063    2059    2056    2233    2238
    2059    2056    2233    2234    2059    2060    2237    2242
    2059    2060    2237    2238    2059    2060    2063    2062
    2059    2060    2063    2064    2060    2063    2064    2241
    2060    2063    2064    2067    2060    2237    2242    2241
    2060    2237    2242    2243    2060    2237    2238    2233
    2060    2237    2238    2239    2061    1884    1887    1886
    2061    1884    1887    1888    2061    2062    2063    2060
    2061    2062    2063    2064    2061    2066    2067    2064
    2061    2066    2067    2068    2062    2057    2058    2053
    2062    2057    2058    2059    2062    2061    2066    2065
    2062    2061    2066    2067    2062    2063    2064    2241
    2062    2063    2064    2067    2063    2060    2237    2242
    2063    2060    2237    2238    2063    2064    2241    2242
    2063    2064    2241    2246    2063    2064    2067    2066
    2063    2064    2067    2068    2064    2067    2068    2245
    2064    2067    2068    2071    2064    2241    2242    2237
    2064    2241    2242    2243    2064    2241    2246    2245
    2064    2241    2246    2247    2065    1888    1891    1890
    2065    1888    1891    1892    2065    2066    2067    2064
    2065    2066    2067    2068    2065    2070    2071    2068
    2065    2070    2071    2072    2066    2061    2062    2057
    2066    2061    2062    2063    2066    2065    2070    2069
    2066    2065    2070    2071    2066    2067    2068    2245
    2066    2067    2068    2071    2067    2064    2241    2242
    2067    2064    2241    2246    2067    2068    2245    2246
    2067    2068    2245    2250    2067    2068    2071    2070
    2067    2068    2071    2072    2068    2071    2072    2075
    2068    2071    2072    2249    2068    2245    2246    2241
    2068    2245    2246    2247    2068    2245    2250    2249
    2068    2245    2250    2251    2069    1892    1895    1894
    2069    1892    1895    1896    2069    2070    2071    2068
    2069    2070    2071    2072    2069    2074    2075    2072
    2069    2074    2075    2076    2070    2065    2066    2061
    2070    2065    2066    2067    2070    2069    2074    2073
    2070    2069    2074    2075    2070    2071    2072    2075
    2070    2071    2072    2249    2071    2068    2245    2246
    2071    2068    2245    2250    2071    2072    2075    2074
    2071    2072    2075    2076    2071    2072    2249    2254
    2071    2072    2249    2250    2072    2075    2076    2079
    2072    2075    2076    2253    2072    2249    2254    2253
    2072    2249    2254    2255    2072    2249    2250    2245
    2072    2249    2250    2251    2073    1896    1899    1898
    2073    1896    1899    1900    2073    2074    2075    2072
    2073    2074    2075    2076    2073    2078    2079    2076
    2073    2078    2079    2080    2074    2069    2070    2065
    2074    2069    2070    2071    2074    2073    2078    2077
    2074    2073    2078    2079    2074    2075    2076    2079
    2074    2075    2076    2253    2075    2072    2249    2254
    2075    2072    2249    2250    2075    2076    2079    2078
    2075    2076    2079    2080    2075    2076    2253    2258
    2075    2076    2253    2254    2076    2079    2080    2257
    2076    2079    2080    2083    2076    2253    2258    2257
    2076    2253    2258    2259    2076    2253    2254    2249
    2076    2253    2254    2255    2077    1900    1903    1902
    2077    1900    1903    1904    2077    2078    2079    2076
    2077    2078    2079    2080    2077    2082    2083    2080
    2077    2082    2083    2084    2078    2073    2074    2069
    2078    2073    2074    2075    2078    2077    2082    2081
    2078    2077    2082    2083    2078    2079    2080    2257
    2078    2079    2080    2083    2079    2076    2253    2258
    2079    2076    2253    2254    2079    2080    2257    2262
    2079    2080    2257    2258    2079    2080    2083    2082
    2079    2080    2083    2084    2080    2083    2084    2261
    2080    2083    2084    2087    2080    2257    2262    2261
    2080    2257    2262    2263    2080    2257    2258    2253
    2080    2257    2258    2259    2081    1904    1907    1906
    2081    1904    1907    1908    2081    2082    2083    2080
    2081    2082    2083    2084    2081    2086    2087    2084
    2081    2086    2087    2088    2082    2077    2078    2073
    2082    2077    2078    2079    2082    2081    2086    2085
    2082    2081    2086    2087    2082    2083    2084    2261
    2082    2083    2084    2087    2083    2080    2257    2262
    2083    2080    2257    2258    2083    2084    2261    2262
    2083    2084    2261    2266    2083    2084    2087    2086
    2083    2084    2087    2088    2084    2087    2088    2265
    2084    2087    2088    2091    2084    2261    2262    2257
    2084    2261    2262    2263    2084    2261    2266    2265
    2084    2261    2266    2267    2085    1908    1911    1910
    2085    1908    1911    1912    2085    2086    2087    2084
    2085    2086    2087    2088    2085    2090    2091    2088
    2085    2090    2091    2092    2086    2081    2082    2077
    2086    2081    2082    2083    2086    2085    2090    2089
    2086    2085    2090    2091    2086    2087    2088    2265
    2086    2087    2088    2091    2087    2084    2261    2262
    2087    2084    2261    2266    2087    2088    2265    2266
    2087    2088    2265    2270    2087    2088    2091    2090
    2087    2088    2091    2092    2088    2091    2092    2095
    2088    2091    2092    2269    2088    2265    2266    2261
    2088    2265    2266    2267    2088    2265    2270    2269
    2088    2265    2270    2271    2089    1912    1915    1914
    2089    1912    1915    1916    2089    2090    2091    2088
    2089    2090    2091    2092    2089    2094    2095    2092
    2089    2094    2095    2096    2090    2085    2086    2081
    2090    2085    2086    2087    2090    2089    2094    2093
    2090    2089    2094    2095    2090    2091    2092    2095
    2090    2091    2092    2269    2091    2088    2265    2266
    2091    2088    2265    2270    2091    2092    2095    2094
    2091    2092    2095    2096    2091    2092    2269    2274
    2091    2092    2269    2270    2092    2095    2096    2099
    2092    2095    2096    2273    2092    2269    2274    2273
    2092    2269    2274    2275    2092    2269    2270    2265
    2092    2269    2270    2271    2093    1916    1919    1918
    2093    1916    1919    1920    2093    2094    2095    2092
    2093    2094    2095    2096    2093    2098    2099    2096
    2093    2098    2099    2100    2094    2089    2090    2085
    2094    2089    2090    2091    2094    2093    2098    2097
    2094    2093    2098    2099    2094    2095    2096    2099
    2094    2095    2096    2273    2095    2092    2269    2274
    2095    2092    2269    2270    2095    2096    2099    2098
    2095    2096    2099    2100    2095    2096    2273    2278
    2095    2096    2273    2274    2096    2099    2100    2277
    2096    2099    2100    2103    2096    2273    2278    2277
    2096    2273    2278    2279    2096    2273    2274    2269
    2096    2273    2274    2275    2097    1920    1923    1922
    2097    1920    1923    1924    2097    2098    2099    2096
    2097    2098    2099    2100    2097    2102    2103    2100
    2097    2102    2103    2104    2098    2093    2094    2089
    2098    2093    2094    2095    2098    2097    2102    2101
    2098    2097    2102    2103    2098    2099    2100    2277
    2098    2099    2100    2103    2099    2096    2273    2278
    2099    2096    2273    2274    2099    2100    2277    2282
    2099    2100    2277    2278    2099    2100    2103    2102
    2099    2100    2103    2104    2100    2103    2104    2281
    2100    2103    2104    2107    2100    2277    2282    2281
    2100    2277    2282    2283    2100    2277    2278    2273
    2100    2277    2278    2279    2101    1924    1927    1926
    2101    1924    1927    1928    2101    2102    2103    2100
    2101    2102    2103    2104    2101    2106    2107    2104
    2101    2106    2107    2108    2102    2097    2098    2093
    2102    2097    2098    2099    2102    2101    2106    2105
    2102    2101    2106    2107    2102    2103    2104    2281
    2102    2103    2104    2107    2103    2100    2277    2282
    2103    2100    2277    2278    2103    2104    2281    2282
    2103    2104    2281    2286    2103    2104    2107    2106
    2103    2104    2107    2108    2104    2107    2108    2285
    2104    2107    2108    2111    2104    2281    2282    2277
    2104    2281    2282    2283    2104    2281    2286    2285
    2104    2281    2286    2287    2105    1928    1931    1930
    2105    1928    1931    1932    2105    2106    2107    2104
    2105    2106    2107    2108    2105    2110    2111    2108
    2105    2110    2111    2112    2106    2101    2102    2097
    2106    2101    2102    2103    2106    2105    2110    2109
    2106    2105    2110    2111    2106    2107    2108    2285
    2106    2107    2108    2111    2107    2104    2281    2282
    2107    2104    2281    2286    2107    2108    2285    2286
    2107    2108    2285    2290    2107    2108    2111    2110
    2107    2108    2111    2112    2108    2111    2112    2289
    2108    2111    2112    2115    2108    2285    2286    2281
    2108    2285    2286    2287    2108    2285    2290    2289
    2108    2285    2290    2291    2109    1932    1935    1934
    2109    1932    1935    1936    2109    2110    2111    2108
    2109    2110    2111    2112    2109    2114    2115    2112
    2109    2114    2115    2116    2110    2105    2106    2101
    2110    2105    2106    2107    2110    2109    2114    2113
    2110    2109    2114    2115    2110    2111    2112    2289
    2110    2111    2112    2115    2111    2108    2285    2286
    2111    2108    2285    2290    2111    2112    2289    2294
    2111    2112    2289    2290    2111    2112    2115    2114
    2111    2112    2115    2116    2112    2115    2116    2293
    2112    2115    2116    2119    2112    2289    2294    2293
    2112    2289    2294    2295    2112    2289    2290    2285
    2112    2289    2290    2291    2113    1936    1939    1938
    2113    1936    1939    1940    2113    2114    2115    2112
    2113    2114    2115    2116    2113    2118    2119    2116
    2113    2118    2119    2120    2114    2109    2110    2105
    2114    2109    2110    2111    2114    2113    2118    2117
    2114    2113    2118    2119    2114    2115    2116    2293
    2114    2115    2116    2119    2115    2112    2289    2294
    2115    2112    2289    2290    2115    2116    2293    2298
    2115    2116    2293    2294    2115    2116    2119    2118
    2115    2116    2119    2120    2116    2119    2120    2297
    2116    2119    2120    2123    2116    2293    2298    2297
    2116    2293    2298    2299    2116    2293    2294    2289
    2116    2293    2294    2295    2117    1940    1943    1942
    2117    1940    1943    1944    2117    2118    2119    2116
    2117    2118    2119    2120    2117    2122    2123    2120
    2117    2122    2123    2124    2118    2113    2114    2109
    2118    2113    2114    2115    2118    2117    2122    2121
    2118    2117    2122    2123    2118    2119    2120    2297
    2118    2119    2120    2123    2119    2116    2293    2298
    2119    2116    2293    2294    2119    2120    2297    2302
    2119    2120    2297    2298    2119    2120    2123    2122
    2119    2120    2123    2124    2120    2123    2124    2301
    2120    2123    2124    2127    2120    2297    2302    2301
    2120    2297    2302    2303    2120    2297    2298    2293
    2120    2297    2298    2299    2121    1944    1947    1946
    2121    1944    1947    1948    2121    2122    2123    2120
    2121    2122    2123    2124    2121    2126    2127    2124
    2121    2126    2127    2128    2122    2117    2118    2113
    2122    2117    2118    2119    2122    2121    2126    2125
    2122    2121    2126    2127    2122    2123    2124    2301
    2122    2123    2124    2127    2123    2120    2297    2302
    2123    2120    2297    2298    2123    2124    2301    2302
    2123    2124    2301    2306    2123    2124    2127    2126
    2123    2124    2127    2128    2124    2127    2128    2305
    2124    2127    2128    2131    2124    2301    2302    2297
    2124    2301    2302    2303    2124    2301    2306    2305
    2124    2301    2306    2307    2125    1948    1951    1950
    2125    1948    1951    1952    2125    2126    2127    2124
    2125    2126    2127    2128    2125    2130    2131    2128
    2125    2130    2131    2132    2126    2121    2122    2117
    2126    2121    2122    2123    2126    2125    2130    2129
    2126    2125    2130    2131    2126    2127    2128    2305
    2126    2127    2128    2131    2127    2124    2301    2302
    2127    2124    2301    2306    2127    2128    2305    2306
    2127    2128    2305    2310    2127    2128    2131    2130
    2127    2128    2131    2132    2128    2131    2132    2135
    2128    2131    2132    2309    2128    2305    2306    2301
    2128    2305    2306    2307    2128    2305    2310    2309
    2128    2305    2310    2311    2129    1952    1955    1954
    2129    1952    1955    1956    2129    2130    2131    2128
    2129    2130    2131    2132    2129    2134    2135    2132
    2129    2134    2135    2136    2130    2125    2126    2121
    2130    2125    2126    2127    2130    2129    2134    2133
    2130    2129    2134    2135    2130    2131    2132    2135
    2130    2131    2132    2309    2131    2128    2305    2306
    2131    2128    2305    2310    2131    2132    2135    2134
    2131    2132    2135    2136    2131    2132    2309    2314
    2131    2132    2309    2310    2132    2135    2136    2139
    2132    2135    2136    2313    2132    2309    2314    2313
    2132    2309    2314    2315    2132    2309    2310    2305
    2132    2309    2310    2311    2133    1956    1959    1958
    2133    1956    1959    1960    2133    2134    2135    2132
    2133    2134    2135    2136    2133    2138    2139    2136
    2133    2138    2139    2140    2134    2129    2130    2125
    2134    2129    2130    2131    2134    2133    2138    2137
    2134    2133    2138    2139    2134    2135    2136    2139
    2134    2135    2136    2313    2135    2132    2309    2314
    2135    2132    2309    2310    2135    2136    2139    2138
    2135    2136    2139    2140    2135    2136    2313    2318
    2135    2136    2313    2314    2136    2139    2140    2317
    2136    2139    2140    2143    2136    2313    2318    2317
    2136    2313    2318    2319    2136    2313    2314    2309
    2136    2313    2314    2315    2137    1960    1963    1962
    2137    1960    1963    1964    2137    2138    2139    2136
    2137    2138    2139    2140    2137    2142    2143    2140
    2137    2142    2143    2144    2138    2133    2134    2129
    2138    2133    2134    2135    2138    2137    2142    2141
    2138    2137    2142    2143    2138    2139    2140    2317
    2138    2139    2140    2143    2139    2136    2313    2318
    2139    2136    2313    2314    2139    2140    2317    2322
    2139    2140    2317    2318    2139    2140    2143    2142
    2139    2140    2143    2144    2140    2143    2144    2321
    2140    2143    2144    2147    2140    2317    2322    2321
    2140    2317    2322    2323    2140    2317    2318    2313
    2140    2317    2318    2319    2141    1964    1967    1966
    2141    1964    1967    1968    2141    2142    2143    2140
    2141    2142    2143    2144    2141    2146    2147    2144
    2141    2146    2147    2148    2142    2137    2138    2133
    2142    2137    2138    2139    2142    2141    2146    2145
    2142    2141    2146    2147    2142    2143    2144    2321
    2142    2143    2144    2147    2143    2140    2317    2322
    2143    2140    2317    2318    2143    2144    2321    2322
    2143    2144    2321    2326    2143    2144    2147    2146
    2143    2144    2147    2148    2144    2147    2148    2325
    2144    2147    2148    2151    2144    2321    2322    2317
    2144    2321    2322    2323    2144    2321    2326    2325
    2144    2321    2326    2327    2145    1968    1971    1970
    2145    1968    1971    1972    2145    2146    2147    2144
    2145    2146    2147    2148    2145    2150    2151    2148
    2145    2150    2151    2152    2146    2141    2142    2137
    2146    2141    2142    2143    2146    2145    2150    2149
    2146    2145    2150    2151    2146    2147    2148    2325
    2146    2147    2148    2151    2147    2144    2321    2322
    2147    2144    2321    2326    2147    2148    2325    2326
    2147    2148    2325    2330    2147    2148    2151    2150
    2147    2148    2151    2152    2148    2151    2152    2155
    2148    2151    2152    2329    2148    2325    2326    2321
    2148    2325    2326    2327    2148    2325    2330    2329
    2148    2325    2330    2331    2149    1972    1975    1974
    2149    1972    1975    1976    2149    2150    2151    2148
    2149    2150    2151    2152    2149    2154    2155    2152
    2149    2154    2155    2156    2150    2145    2146    2141
    2150    2145    2146    2147    2150    2149    2154    2153
    2150    2149    2154    2155    2150    2151    2152    2155
    2150    2151    2152    2329    2151    2148    2325    2326
    2151    2148    2325    2330    2151    2152    2155    2154
    2151    2152    2155    2156    2151    2152    2329    2334
    2151    2152    2329    2330    2152    2155    2156    2159
    2152    2155    2156    2333    2152    2329    2334    2333
    2152    2329    2334    2335    2152    2329    2330    2325
    2152    2329    2330    2331    2153    1976    1979    1978
    2153    1976    1979    1980    2153    2154    2155    2152
    2153    2154    2155    2156    2153    2158    2159    2156
    2153    2158    2159    2160    2154    2149    2150    2145
    2154    2149    2150    2151    2154    2153    2158    2157
    2154    2153    2158    2159    2154    2155    2156    2159
    2154    2155    2156    2333    2155    2152    2329    2334
    2155    2152    2329    2330    2155    2156    2159    2158
    2155    2156    2159    2160    2155    2156    2333    2338
    2155    2156    2333    2334    2156    2159    2160    2337
    2156    2333    2338    2337    2156    2333    2338    2339
    2156    2333    2334    2329    2156    2333    2334    2335
    2157    2158    2159    2156    2157    2158    2159    2160
    2158    2153    2154    2149    2158    2153    2154    2155
    2158    2159    2160    2337    2159    2156    2333    2338
    2159    2156    2333    2334    2159    2160    2337    2338
    2160    2337    2338    2333    2160    2337    2338    2339
    2161    1984    1987    1986    2161    1984    1987    1988
    2161    2162    2163    2164    2161    2166    2167    2164
    2161    2166    2167    2168    2162    2161    2166    2165
    2162    2161    2166    2167    2162    2163    2164    2167
    2162    2163    2164    2341    2163    2164    2167    2166
    2163    2164    2167    2168    2163    2164    2341    2342
    2163    2164    2341    2346    2164    2167    2168    2171
    2164    2167    2168    2345    2164    2341    2342    2343
    2164    2341    2346    2345    2164    2341    2346    2347
    2165    1988    1991    1990    2165    1988    1991    1992
    2165    2166    2167    2164    2165    2166    2167    2168
    2165    2170    2171    2168    2165    2170    2171    2172
    2166    2161    2162    2163    2166    2165    2170    2169
    2166    2165    2170    2171    2166    2167    2168    2171
    2166    2167    2168    2345    2167    2164    2341    2342
    2167    2164    2341    2346    2167    2168    2171    2170
    2167    2168    2171    2172    2167    2168    2345    2346
    2167    2168    2345    2350    2168    2171    2172    2175
    2168    2171    2172    2349    2168    2345    2346    2341
    2168    2345    2346    2347    2168    2345    2350    2349
    2168    2345    2350    2351    2169    1992    1995    1994
    2169    1992    1995    1996    2169    2170    2171    2168
    2169    2170    2171    2172    2169    2174    2175    2172
    2169    2174    2175    2176    2170    2165    2166    2161
    2170    2165    2166    2167    2170    2169    2174    2173
    2170    2169    2174    2175    2170    2171    2172    2175
    2170    2171    2172    2349    2171    2168    2345    2346
    2171    2168    2345    2350    2171    2172    2175    2174
    2171    2172    2175    2176    2171    2172    2349    2354
    2171    2172    2349    2350    2172    2175    2176    2179
    2172    2175    2176    2353    2172    2349    2354    2353
    2172    2349    2354    2355    2172    2349    2350    2345
    2172    2349    2350    2351    2173    1996    1999    1998
    2173    1996    1999    2000    2173    2174    2175    2172
    2173    2174    2175    2176    2173    2178    2179    2176
    2173    2178    2179    2180    2174    2169    2170    2165
    2174    2169    2170    2171    2174    2173    2178    2177
    2174    2173    2178    2179    2174    2175    2176    2179
    2174    2175    2176    2353    2175    2172    2349    2354
    2175    2172    2349    2350    2175    2176    2179    2178
    2175    2176    2179    2180    2175    2176    2353    2358
    2175    2176    2353    2354    2176    2179    2180    2183
    2176    2179    2180    2357    2176    2353    2358    2357
    2176    2353    2358    2359    2176    2353    2354    2349
    2176    2353    2354    2355    2177    2000    2003    2002
    2177    2000    2003    2004    2177    2178    2179    2176
    2177    2178    2179    2180    2177    2182    2183    2180
    2177    2182    2183    2184    2178    2173    2174    2169
    2178    2173    2174    2175    2178    2177    2182    2181
    2178    2177    2182    2183    2178    2179    2180    2183
    2178    2179    2180    2357    2179    2176    2353    2358
    2179    2176    2353    2354    2179    2180    2183    2182
    2179    2180    2183    2184    2179    2180    2357    2362
    2179    2180    2357    2358    2180    2183    2184    2187
    2180    2183    2184    2361    2180    2357    2362    2361
    2180    2357    2362    2363    2180    2357    2358    2353
    2180    2357    2358    2359    2181    2004    2007    2006
    2181    2004    2007    2008    2181    2182    2183    2180
    2181    2182    2183    2184    2181    2186    2187    2184
    2181    2186    2187    2188    2182    2177    2178    2173
    2182    2177    2178    2179    2182    2181    2186    2185
    2182    2181    2186    2187    2182    2183    2184    2187
    2182    2183    2184    2361    2183    2180    2357    2362
    2183    2180    2357    2358    2183    2184    2187    2186
    2183    2184    2187    2188    2183    2184    2361    2362
    2183    2184    2361    2366    2184    2187    2188    2191
    2184    2187    2188    2365    2184    2361    2362    2357
    2184    2361    2362    2363    2184    2361    2366    2365
    2184    2361    2366    2367    2185    2008    2011    2010
    2185    2008    2011    2012    2185    2186    2187    2184
    2185    2186    2187    2188    2185    2190    2191    2188
    2185    2190    2191    2192    2186    2181    2182    2177
    2186    2181    2182    2183    2186    2185    2190    2189
    2186    2185    2190    2191    2186    2187    2188    2191
    2186    2187    2188    2365    2187    2184    2361    2362
    2187    2184    2361    2366    2187    2188    2191    2190
    2187    2188    2191    2192    2187    2188    2365    2366
    2187    2188    2365    2370    2188    2191    2192    2195
    2188    2191    2192    2369    2188    2365    2366    2361
    2188    2365    2366    2367    2188    2365    2370    2369
    2188    2365    2370    2371    2189    2012    2015    2014
    2189    2012    2015    2016    2189    2190    2191    2188
    2189    2190    2191    2192    2189    2194    2195    2192
    2189    2194    2195    2196    2190    2185    2186    2181
    2190    2185    2186    2187    2190    2189    2194    2193
    2190    2189    2194    2195    2190    2191    2192    2195
    2190    2191    2192    2369    2191    2188    2365    2366
    2191    2188    2365    2370    2191    2192    2195    2194
    2191    2192    2195    2196    2191    2192    2369    2374
    2191    2192    2369    2370    2192    2195    2196    2199
    2192    2195    2196    2373    2192    2369    2374    2373
    2192    2369    2374    2375    2192    2369    2370    2365
    2192    2369    2370    2371    2193    2016    2019    2018
    2193    2016    2019    2020    2193    2194    2195    2192
    2193    2194    2195    2196    2193    2198    2199    2196
    2193    2198    2199    2200    2194    2189    2190    2185
    2194    2189    2190    2191    2194    2193    2198    2197
    2194    2193    2198    2199    2194    2195    2196    2199
    2194    2195    2196    2373    2195    2192    2369    2374
    2195    2192    2369    2370    2195    2196    2199    2198
    2195    2196    2199    2200    2195    2196    2373    2378
    2195    2196    2373    2374    2196    2199    2200    2203
    2196    2199    2200    2377    2196    2373    2378    2377
    2196    2373    2378    2379    2196    2373    2374    2369
    2196    2373    2374    2375    2197    2020    2023    2022
    2197    2020    2023    2024    2197    2198    2199    2196
    2197    2198    2199    2200    2197    2202    2203    2200
    2197    2202    2203    2204    2198    2193    2194    2189
    2198    2193    2194    2195    2198    2197    2202    2201
    2198    2197    2202    2203    2198    2199    2200    2203
    2198    2199    2200    2377    2199    2196    2373    2378
    2199    2196    2373    2374    2199    2200    2203    2202
    2199    2200    2203    2204    2199    2200    2377    2382
    2199    2200    2377    2378    2200    2203    2204    2207
    2200    2203    2204    2381    2200    2377    2382    2381
    2200    2377    2382    2383    2200    2377    2378    2373
    2200    2377    2378    2379    2201    2024    2027    2026
    2201    2024    2027    2028    2201    2202    2203    2200
    2201    2202    2203    2204    2201    2206    2207    2204
    2201    2206    2207    2208    2202    2197    2198    2193
    2202    2197    2198    2199    2202    2201    2206    2205
    2202    2201    2206    2207    2202    2203    2204    2207
    2202    2203    2204    2381    2203    2200    2377    2382
    2203    2200    2377    2378    2203    2204    2207    2206
    2203    2204    2207    2208    2203    2204    2381    2382
    2203    2204    2381    2386    2204    2207    2208    2211
    2204    2207    2208    2385    2204    2381    2382    2377
    2204    2381    2382    2383    2204    2381    2386    2385
    2204    2381    2386    2387    2205    2028    2031    2030
    2205    2028    2031    2032    2205    2206    2207    2204
    2205    2206    2207    2208    2205    2210    2211    2208
    2205    2210    2211    2212    2206    2201    2202    2197
    2206    2201    2202    2203    2206    2205    2210    2209
    2206    2205    2210    2211    2206    2207    2208    2211
    2206    2207    2208    2385    2207    2204    2381    2382
    2207    2204    2381    2386    2207    2208    2211    2210
    2207    2208    2211    2212    2207    2208    2385    2386
    2207    2208    2385    2390    2208    2211    2212    2215
    2208    2211    2212    2389    2208    2385    2386    2381
    2208    2385    2386    2387    2208    2385    2390    2389
    2208    2385    2390    2391    2209    2032    2035    2034
    2209    2032    2035    2036    2209    2210    2211    2208
    2209    2210    2211    2212    2209    2214    2215    2212
    2209    2214    2215    2216    2210    2205    2206    2201
    2210    2205    2206    2207    2210    2209    2214    2213
    2210    2209    2214    2215    2210    2211    2212    2215
    2210    2211    2212    2389    2211    2208    2385    2386
    2211    2208    2385    2390    2211    2212    2215    2214
    2211    2212    2215    2216    2211    2212    2389    2394
    2211    2212    2389    2390    2212    2215    2216    2219
    2212    2215    2216    2393    2212    2389    2394    2393
    2212    2389    2394    2395    2212    2389    2390    2385
    2212    2389    2390    2391    2213    2036    2039    2038
    2213    2036    2039    2040    2213    2214    2215    2212
    2213    2214    2215    2216    2213    2218    2219    2216
    2213    2218    2219    2220    2214    2209    2210    2205
    2214    2209    2210    2211    2214    2213    2218    2217
    2214    2213    2218    2219    2214    2215    2216    2219
    2214    2215    2216    2393    2215    2212    2389    2394
    2215    2212    2389    2390    2215    2216    2219    2218
    2215    2216    2219    2220    2215    2216    2393    2398
    2215    2216    2393    2394    2216    2219    2220    2223
    2216    2219    2220    2397    2216    2393    2398    2397
    2216    2393    2398    2399    2216    2393    2394    2389
    2216    2393    2394    2395    2217    2040    2043    2042
    2217    2040    2043    2044    2217    2218    2219    2216
    2217    2218    2219    2220    2217    2222    2223    2220
    2217    2222    2223    2224    2218    2213    2214    2209
    2218    2213    2214    2215    2218    2217    2222    2221
    2218    2217    2222    2223    2218    2219    2220    2223
    2218    2219    2220    2397    2219    2216    2393    2398
    2219    2216    2393    2394    2219    2220    2223    2222
    2219    2220    2223    2224    2219    2220    2397    2402
    2219    2220    2397    2398    2220    2223    2224    2227
    2220    2223    2224    2401    2220    2397    2402    2401
    2220    2397    2402    2403    2220    2397    2398    2393
    2220    2397    2398    2399    2221    2044    2047    2046
    2221    2044    2047    2048    2221    2222    2223    2220
    2221    2222    2223    2224    2221    2226    2227    2224
    2221    2226    2227    2228    2222    2217    2218    2213
    2222    2217    2218    2219    2222    2221    2226    2225
    2222    2221    2226    2227    2222    2223    2224    2227
    2222    2223    2224    2401    2223    2220    2397    2402
    2223    2220    2397    2398    2223    2224    2227    2226
    2223    2224    2227    2228    2223    2224    2401    2402
    2223    2224    2401    2406    2224    2227    2228    2231
    2224    2227    2228    2405    2224    2401    2402    2397
    2224    2401    2402    2403    2224    2401    2406    2405
    2224    2401    2406    2407    2225    2048    2051    2050
    2225    2048    2051    2052    2225    2226    2227    2224
    2225    2226    2227    2228    2225    2230    2231    2228
    2225    2230    2231    2232    2226    2221    2222    2217
    2226    2221    2222    2223    2226    2225    2230    2229
    2226    2225    2230    2231    2226    2227    2228    2231
    2226    2227    2228    2405    2227    2224    2401    2402
    2227    2224    2401    2406    2227    2228    2231    2230
    2227    2228    2231    2232    2227    2228    2405    2406
    2227    2228    2405    2410    2228    2231    2232    2235
    2228    2231    2232    2409    2228    2405    2406    2401
    2228    2405    2406    2407    2228    2405    2410    2409
    2228    2405    2410    2411    2229    2052    2055    2054
    2229    2052    2055    2056    2229    2230    2231    2228
    2229    2230    2231    2232    2229    2234    2235    2232
    2229    2234    2235    2236    2230    2225    2226    2221
    2230    2225    2226    2227    2230    2229    2234    2233
    2230    2229    2234    2235    2230    2231    2232    2235
    2230    2231    2232    2409    2231    2228    2405    2406
    2231    2228    2405    2410    2231    2232    2235    2234
    2231    2232    2235    2236    2231    2232    2409    2414
    2231    2232    2409    2410    2232    2235    2236    2239
    2232    2235    2236    2413    2232    2409    2414    2413
    2232    2409    2414    2415    2232    2409    2410    2405
    2232    2409    2410    2411    2233    2056    2059    2058
    2233    2056    2059    2060    2233    2234    2235    2232
    2233    2234    2235    2236    2233    2238    2239    2236
    2233    2238    2239    2240    2234    2229    2230    2225
    2234    2229    2230    2231    2234    2233    2238    2237
    2234    2233    2238    2239    2234    2235    2236    2239
    2234    2235    2236    2413    2235    2232    2409    2414
    2235    2232    2409    2410    2235    2236    2239    2238
    2235    2236    2239    2240    2235    2236    2413    2414
    2235    2236    2413    2418    2236    2239    2240    2243
    2236    2239    2240    2417    2236    2413    2414    2409
    2236    2413    2414    2415    2236    2413    2418    2417
    2236    2413    2418    2419    2237    2060    2063    2062
    2237    2060    2063    2064    2237    2238    2239    2236
    2237    2238    2239    2240    2237    2242    2243    2240
    2237    2242    2243    2244    2238    2233    2234    2229
    2238    2233    2234    2235    2238    2237    2242    2241
    2238    2237    2242    2243    2238    2239    2240    2243
    2238    2239    2240    2417    2239    2236    2413    2414
    2239    2236    2413    2418    2239    2240    2243    2242
    2239    2240    2243    2244    2239    2240    2417    2422
    2239    2240    2417    2418    2240    2243    2244    2247
    2240    2243    2244    2421    2240    2417    2422    2421
    2240    2417    2422    2423    2240    2417    2418    2413
    2240    2417    2418    2419    2241    2064    2067    2066
    2241    2064    2067    2068    2241    2242    2243    2240
    2241    2242    2243    2244    2241    2246    2247    2244
    2241    2246    2247    2248    2242    2237    2238    2233
    2242    2237    2238    2239    2242    2241    2246    2245
    2242    2241    2246    2247    2242    2243    2244    2247
    2242    2243    2244    2421    2243    2240    2417    2422
    2243    2240    2417    2418    2243    2244    2247    2246
    2243    2244    2247    2248    2243    2244    2421    2422
    2243    2244    2421    2426    2244    2247    2248    2251
    2244    2247    2248    2425    2244    2421    2422    2417
    2244    2421    2422    2423    2244    2421    2426    2425
    2244    2421    2426    2427    2245    2068    2071    2070
    2245    2068    2071    2072    2245    2246    2247    2244
    2245    2246    2247    2248    2245    2250    2251    2248
    2245    2250    2251    2252    2246    2241    2242    2237
    2246    2241    2242    2243    2246    2245    2250    2249
    2246    2245    2250    2251    2246    2247    2248    2251
    2246    2247    2248    2425    2247    2244    2421    2422
    2247    2244    2421    2426    2247    2248    2251    2250
    2247    2248    2251    2252    2247    2248    2425    2426
    2247    2248    2425    2430    2248    2251    2252    2255
    2248    2251    2252    2429    2248    2425    2426    2421
    2248    2425    2426    2427    2248    2425    2430    2429
    2248    2425    2430    2431    2249    2072    2075    2074
    2249    2072    2075    2076    2249    2250    2251    2248
    2249    2250    2251    2252    2249    2254    2255    2252
    2249    2254    2255    2256    2250    2245    2246    2241
    2250    2245    2246    2247    2250    2249    2254    2253
    2250    2249    2254    2255    2250    2251    2252    2255
    2250    2251    2252    2429    2251    2248    2425    2426
    2251    2248    2425    2430    2251    2252    2255    2254
    2251    2252    2255    2256    2251    2252    2429    2434
    2251    2252    2429    2430    2252    2255    2256    2259
    2252    2255    2256    2433    2252    2429    2434    2433
    2252    2429    2434    2435    2252    2429    2430    2425
    2252    2429    2430    2431    2253    2076    2079    2078
    2253    2076    2079    2080    2253    2254    2255    2252
    2253    2254    2255    2256    2253    2258    2259    2256
    2253    2258    2259    2260    2254    2249    2250    2245
    2254    2249    2250    2251    2254    2253    2258    2257
    2254    2253    2258    2259    2254    2255    2256    2259
    2254    2255    2256    2433    2255    2252    2429    2434
    2255    2252    2429    2430    2255    2256    2259    2258
    2255    2256    2259    2260    2255    2256    2433    2438
    2255    2256    2433    2434    2256    2259    2260    2263
    2256    2259    2260    2437    2256    2433    2438    2437
    2256    2433    2438    2439    2256    2433    2434    2429
    2256    2433    2434    2435    2257    2080    2083    2082
    2257    2080    2083    2084    2257    2258    2259    2256
    2257    2258    2259    2260    2257    2262    2263    2260
    2257    2262    2263    2264    2258    2253    2254    2249
    2258    2253    2254    2255    2258    2257    2262    2261
    2258    2257    2262    2263    2258    2259    2260    2263
    2258    2259    2260    2437    2259    2256    2433    2438
    2259    2256    2433    2434    2259    2260    2263    2262
    2259    2260    2263    2264    2259    2260    2437    2442
    2259    2260    2437    2438    2260    2263    2264    2267
    2260    2263    2264    2441    2260    2437    2442    2441
    2260    2437    2442    2443    2260    2437    2438    2433
    2260    2437    2438    2439    2261    2084    2087    2086
    2261    2084    2087    2088    2261    2262    2263    2260
    2261    2262    2263    2264    2261    2266    2267    2264
    2261    2266    2267    2268    2262    2257    2258    2253
    2262    2257    2258    2259    2262    2261    2266    2265
    2262    2261    2266    2267    2262    2263    2264    2267
    2262    2263    2264    2441    2263    2260    2437    2442
    2263    2260    2437    2438    2263    2264    2267    2266
    2263    2264    2267    2268    2263    2264    2441    2442
    2263    2264    2441    2446    2264    2267    2268    2271
    2264    2267    2268    2445    2264    2441    2442    2437
    2264    2441    2442    2443    2264    2441    2446    2445
    2264    2441    2446    2447    2265    2088    2091    2090
    2265    2088    2091    2092    2265    2266    2267    2264
    2265    2266    2267    2268    2265    2270    2271    2268
    2265    2270    2271    2272    2266    2261    2262    2257
    2266    2261    2262    2263    2266    2265    2270    2269
    2266    2265    2270    2271    2266    2267    2268    2271
    2266    2267    2268    2445    2267    2264    2441    2442
    2267    2264    2441    2446    2267    2268    2271    2270
    2267    2268    2271    2272    2267    2268    2445    2446
    2267    2268    2445    2450    2268    2271    2272    2275
    2268    2271    2272    2449    2268    2445    2446    2441
    2268    2445    2446    2447    2268    2445    2450    2449
    2268    2445    2450    2451    2269    2092    2095    2094
    2269    2092    2095    2096    2269    2270    2271    2268
    2269    2270    2271    2272    2269    2274    2275    2272
    2269    2274    2275    2276    2270    2265    2266    2261
    2270    2265    2266    2267    2270    2269    2274    2273
    2270    2269    2274    2275    2270    2271    2272    2275
    2270    2271    2272    2449    2271    2268    2445    2446
    2271    2268    2445    2450    2271    2272    2275    2274
    2271    2272    2275    2276    2271    2272    2449    2454
    2271    2272    2449    2450    2272    2275    2276    2279
    2272    2275    2276    2453    2272    2449    2454    2453
    2272    2449    2454    2455    2272    2449    2450    2445
    2272    2449    2450    2451    2273    2096    2099    2098
    2273    2096    2099    2100    2273    2274    2275    2272
    2273    2274    2275    2276    2273    2278    2279    2276
    2273    2278    2279    2280    2274    2269    2270    2265
    2274    2269    2270    2271    2274    2273    2278    2277
    2274    2273    2278    2279    2274    2275    2276    2279
    2274    2275    2276    2453    2275    2272    2449    2454
    2275    2272    2449    2450    2275    2276    2279    2278
    2275    2276    2279    2280    2275    2276    2453    2458
    2275    2276    2453    2454    2276    2279    2280    2283
    2276    2279    2280    2457    2276    2453    2458    2457
    2276    2453    2458    2459    2276    2453    2454    2449
    2276    2453    2454    2455    2277    2100    2103    2102
    2277    2100    2103    2104    2277    2278    2279    2276
    2277    2278    2279    2280    2277    2282    2283    2280
    2277    2282    2283    2284    2278    2273    2274    2269
    2278    2273    2274    2275    2278    2277    2282    2281
    2278    2277    2282    2283    2278    2279    2280    2283
    2278    2279    2280    2457    2279    2276    2453    2458
    2279    2276    2453    2454    2279    2280    2283    2282
    2279    2280    2283    2284    2279    2280    2457    2462
    2279    2280    2457    2458    2280    2283    2284    2287
    2280    2283    2284    2461    2280    2457    2462    2461
    2280    2457    2462    2463    2280    2457    2458    2453
    2280    2457    2458    2459    2281    2104    2107    2106
    2281    2104    2107    2108    2281    2282    2283    2280
    2281    2282    2283    2284    2281    2286    2287    2284
    2281    2286    2287    2288    2282    2277    2278    2273
    2282    2277    2278    2279    2282    2281    2286    2285
    2282    2281    2286    2287    2282    2283    2284    2287
    2282    2283    2284    2461    2283    2280    2457    2462
    2283    2280    2457    2458    2283    2284    2287    2286
    2283    2284    2287    2288    2283    2284    2461    2462
    2283    2284    2461    2466    2284    2287    2288    2291
    2284    2287    2288    2465    2284    2461    2462    2457
    2284    2461    2462    2463    2284    2461    2466    2465
    2284    2461    2466    2467    2285    2108    2111    2110
    2285    2108    2111    2112    2285    2286    2287    2284
    2285    2286    2287    2288    2285    2290    2291    2288
    2285    2290    2291    2292    2286    2281    2282    2277
    2286    2281    2282    2283    2286    2285    2290    2289
    2286    2285    2290    2291    2286    2287    2288    2291
    2286    2287    2288    2465    2287    2284    2461    2462
    2287    2284    2461    2466    2287    2288    2291    2290
    2287    2288    2291    2292    2287    2288    2465    2466
    2287    2288    2465    2470    2288    2291    2292    2295
    2288    2291    2292    2469    2288    2465    2466    2461
    2288    2465    2466    2467    2288    2465    2470    2469
    2288    2465    2470    2471    2289    2112    2115    2114
    2289    2112    2115    2116    2289    2290    2291    2288
    2289    2290    2291    2292    2289    2294    2295    2292
    2289    2294    2295    2296    2290    2285    2286    2281
    2290    2285    2286    2287    2290    2289    2294    2293
    2290    2289    2294    2295    2290    2291    2292    2295
    2290    2291    2292    2469    2291    2288    2465    2466
    2291    2288    2465    2470    2291    2292    2295    2294
    2291    2292    2295    2296    2291    2292    2469    2474
    2291    2292    2469    2470    2292    2295    2296    2299
    2292    2295    2296    2473    2292    2469    2474    2473
    2292    2469    2474    2475    2292    2469    2470    2465
    2292    2469    2470    2471    2293    2116    2119    2118
    2293    2116    2119    2120    2293    2294    2295    2292
    2293    2294    2295    2296    2293    2298    2299    2296
    2293    2298    2299    2300    2294    2289    2290    2285
    2294    2289    2290    2291    2294    2293    2298    2297
    2294    2293    2298    2299    2294    2295    2296    2299
    2294    2295    2296    2473    2295    2292    2469    2474
    2295    2292    2469    2470    2295    2296    2299    2298
    2295    2296    2299    2300    2295    2296    2473    2478
    2295    2296    2473    2474    2296    2299    2300    2303
    2296    2299    2300    2477    2296    2473    2478    2477
    2296    2473    2478    2479    2296    2473    2474    2469
    2296    2473    2474    2475    2297    2120    2123    2122
    2297    2120    2123    2124    2297    2298    2299    2296
    2297    2298    2299    2300    2297    2302    2303    2300
    2297    2302    2303    2304    2298    2293    2294    2289
    2298    2293    2294    2295    2298    2297    2302    2301
    2298    2297    2302    2303    2298    2299    2300    2303
    2298    2299    2300    2477    2299    2296    2473    2478
    2299    2296    2473    2474    2299    2300    2303    2302
    2299    2300    2303    2304    2299    2300    2477    2482
    2299    2300    2477    2478    2300    2303    2304    2307
    2300    2303    2304    2481    2300    2477    2482    2481
    2300    2477    2482    2483    2300    2477    2478    2473
    2300    2477    2478    2479    2301    2124    2127    2126
    2301    2124    2127    2128    2301    2302    2303    2300
    2301    2302    2303    2304    2301    2306    2307    2304
    2301    2306    2307    2308    2302    2297    2298    2293
    2302    2297    2298    2299    2302    2301    2306    2305
    2302    2301    2306    2307    2302    2303    2304    2307
    2302    2303    2304    2481    2303    2300    2477    2482
    2303    2300    2477    2478    2303    2304    2307    2306
    2303    2304    2307    2308    2303    2304    2481    2482
    2303    2304    2481    2486    2304    2307    2308    2311
    2304    2307    2308    2485    2304    2481    2482    2477
    2304    2481    2482    2483    2304    2481    2486    2485
    2304    2481    2486    2487    2305    2128    2131    2130
    2305    2128    2131    2132    2305    2306    2307    2304
    2305    2306    2307    2308    2305    2310    2311    2308
    2305    2310    2311    2312    2306    2301    2302    2297
    2306    2301    2302    2303    2306    2305    2310    2309
    2306    2305    2310    2311    2306    2307    2308    2311
    2306    2307    2308    2485    2307    2304    2481    2482
    2307    2304    2481    2486    2307    2308    2311    2310
    2307    2308    2311    2312    2307    2308    2485    2486
    2307    2308    2485    2490    2308    2311    2312    2315
    2308    2311    2312    2489    2308    2485    2486    2481
    2308    2485    2486    2487    2308    2485    2490    2489
    2308    2485    2490    2491    2309    2132    2135    2134
    2309    2132    2135    2136    2309    2310    2311    2308
    2309    2310    2311    2312    2309    2314    2315    2312
    2309    2314    2315    2316    2310    2305    2306    2301
    2310    2305    2306    2307    2310    2309    2314    2313
    2310    2309    2314    2315    2310    2311    2312    2315
    2310    2311    2312    2489    2311    2308    2485    2486
    2311    2308    2485    2490    2311    2312    2315    2314
    2311    2312    2315    2316    2311    2312    2489    2494
    2311    2312    2489    2490    2312    2315    2316    2319
    2312    2315    2316    2493    2312    2489    2494    2493
    2312    2489    2494    2495    2312    2489    2490    2485
    2312    2489    2490    2491    2313    2136    2139    2138
    2313    2136    2139    2140    2313    2314    2315    2312
    2313    2314    2315    2316    2313    2318    2319    2316
    2313    2318    2319    2320    2314    2309    2310    2305
    2314    2309    2310    2311    2314    2313    2318    2317
    2314    2313    2318    2319    2314    2315    2316    2319
    2314    2315    2316    2493    2315    2312    2489    2494
    2315    2312    2489    2490    2315    2316    2319    2318
    2315    2316    2319    2320    2315    2316    2493    2498
    2315    2316    2493    2494    2316    2319    2320    2323
    2316    2319    2320    2497    2316    2493    2498    2497
    2316    2493    2498    2499    2316    2493    2494    2489
    2316    2493    2494    2495    2317    2140    2143    2142
    2317    2140    2143    2144    2317    2318    2319    2316
    2317    2318    2319    2320    2317    2322    2323    2320
    2317    2322    2323    2324    2318    2313    2314    2309
    2318    2313    2314    2315    2318    2317    2322    2321
    2318    2317    2322    2323    2318    2319    2320    2323
    2318    2319    2320    2497    2319    2316    2493    2498
    2319    2316    2493    2494    2319    2320    2323    2322
    2319    2320    2323    2324    2319    2320    2497    2502
    2319    2320    2497    2498    2320    2323    2324    2327
    2320    2323    2324    2501    2320    2497    2502    2501
    2320    2497    2502    2503    2320    2497    2498    2493
    2320    2497    2498    2499    2321    2144    2147    2146
    2321    2144    2147    2148    2321    2322    2323    2320
    2321    2322    2323    2324    2321    2326    2327    2324
    2321    2326    2327    2328    2322    2317    2318    2313
    2322    2317    2318    2319    2322    2321    2326    2325
    2322    2321    2326    2327    2322    2323    2324    2327
    2322    2323    2324    2501    2323    2320    2497    2502
    2323    2320    2497    2498    2323    2324    2327    2326
    2323    2324    2327    2328    2323    2324    2501    2502
    2323    2324    2501    2506    2324    2327    2328    2331
    2324    2327    2328    2505    2324    2501    2502    2497
    2324    2501    2502    2503    2324    2501    2506    2505
    2324    2501    2506    2507    2325    2148    2151    2150
    2325    2148    2151    2152    2325    2326    2327    2324
    2325    2326    2327    2328    2325    2330    2331    2328
    2325    2330    2331    2332    2326    2321    2322    2317
    2326    2321    2322    2323    2326    2325    2330    2329
    2326    2325    2330    2331    2326    2327    2328    2331
    2326    2327    2328    2505    2327    2324    2501    2502
    2327    2324    2501    2506    2327    2328    2331    2330
    2327    2328    2331    2332    2327    2328    2505    2506
    2327    2328    2505    2510    2328    2331    2332    2335
    2328    2331    2332    2509    2328    2505    2506    2501
    2328    2505    2506    2507    2328    2505    2510    2509
    2328    2505    2510    2511    2329    2152    2155    2154
    2329    2152    2155    2156    2329    2330    2331    2328
    2329    2330    2331    2332    2329    2334    2335    2332
    2329    2334    2335    2336    2330    2325    2326    2321
    2330    2325    2326    2327    2330    2329    2334    2333
    2330    2329    2334    2335    2330    2331    2332    2335
    2330    2331    2332    2509    2331    2328    2505    2506
    2331    2328    2505    2510    2331    2332    2335    2334
    2331    2332    2335    2336    2331    2332    2509    2514
    2331    2332    2509    2510    2332    2335    2336    2339
    2332    2335    2336    2513    2332    2509    2514    2513
    2332    2509    2514    2515    2332    2509    2510    2505
    2332    2509    2510    2511    2333    2156    2159    2158
    2333    2156    2159    2160    2333    2334    2335    2332
    2333    2334    2335    2336    2333    2338    2339    2336
    2333    2338    2339    2340    2334    2329    2330    2325
    2334    2329    2330    2331    2334    2333    2338    2337
    2334    2333    2338    2339    2334    2335    2336    2339
    2334    2335    2336    2513    2335    2332    2509    2514
    2335    2332    2509    2510    2335    2336    2339    2338
    2335    2336    2339    2340    2335    2336    2513    2518
    2335    2336    2513    2514    2336    2339    2340    2517
    2336    2513    2518    2517    2336    2513    2518    2519
    2336    2513    2514    2509    2336    2513    2514    2515
    2337    2338    2339    2336    2337    2338    2339    2340
    2338    2333    2334    2329    2338    2333    2334    2335
    2338    2339    2340    2517    2339    2336    2513    2518
    2339    2336    2513    2514    2339    2340    2517    2518
    2340    2517    2518    2513    2340    2517    2518    2519
    2341    2164    2167    2166    2341    2164    2167    2168
    2341    2342    2343    2344    2341    2346    2347    2344
    2341    2346    2347    2348    2342    2341    2346    2345
    2342    2341    2346    2347    2342    2343    2344    2347
    2342    2343    2344    2521    2343    2344    2347    2346
    2343    2344    2347    2348    2343    2344    2521    2522
    2343    2344    2521    2526    2344    2347    2348    2351
    2344    2347    2348    2525    2344    2521    2522    2523
    2344    2521    2526    2525    2344    2521    2526    2527
    2345    2168    2171    2170    2345    2168    2171    2172
    2345    2346    2347    2344    2345    2346    2347    2348
    2345    2350    2351    2348    2345    2350    2351    2352
    2346    2341    2342    2343    2346    2345    2350    2349
    2346    2345    2350    2351    2346    2347    2348    2351
    2346    2347    2348    2525    2347    2344    2521    2522
    2347    2344    2521    2526    2347    2348    2351    2350
    2347    2348    2351    2352    2347    2348    2525    2526
    2347    2348    2525    2530    2348    2351    2352    2355
    2348    2351    2352    2529    2348    2525    2526    2521
    2348    2525    2526    2527    2348    2525    2530    2529
    2348    2525    2530    2531    2349    2172    2175    2174
    2349    2172    2175    2176    2349    2350    2351    2348
    2349    2350    2351    2352    2349    2354    2355    2352
    2349    2354    2355    2356    2350    2345    2346    2341
    2350    2345    2346    2347    2350    2349    2354    2353
    2350    2349    2354    2355    2350    2351    2352    2355
    2350    2351    2352    2529    2351    2348    2525    2526
    2351    2348    2525    2530    2351    2352    2355    2354
    2351    2352    2355    2356    2351    2352    2529    2534
    2351    2352    2529    2530    2352    2355    2356    2359
    2352    2355    2356    2533    2352    2529    2534    2533
    2352    2529    2534    2535    2352    2529    2530    2525
    2352    2529    2530    2531    2353    2176    2179    2178
    2353    2176    2179    2180    2353    2354    2355    2352
    2353    2354    2355    2356    2353    2358    2359    2356
    2353    2358    2359    2360    2354    2349    2350    2345
    2354    2349    2350    2351    2354    2353    2358    2357
    2354    2353    2358    2359    2354    2355    2356    2359
    2354    2355    2356    2533    2355    2352    2529    2534
    2355    2352    2529    2530    2355    2356    2359    2358
    2355    2356    2359    2360    2355    2356    2533    2538
    2355    2356    2533    2534    2356    2359    2360    2363
    2356    2359    2360    2537    2356    2533    2538    2537
    2356    2533    2538    2539    2356    2533    2534    2529
    2356    2533    2534    2535    2357    2180    2183    2182
    2357    2180    2183    2184    2357    2358    2359    2356
    2357    2358    2359    2360    2357    2362    2363    2360
    2357    2362    2363    2364    2358    2353    2354    2349
    2358    2353    2354    2355    2358    2357    2362    2361
    2358    2357    2362    2363    2358    2359    2360    2363
    2358    2359    2360    2537    2359    2356    2533    2538
    2359    2356    2533    2534    2359    2360    2363    2362
    2359    2360    2363    2364    2359    2360    2537    2542
    2359    2360    2537    2538    2360    2363    2364    2367
    2360    2363    2364    2541    2360    2537    2542    2541
    2360    2537    2542    2543    2360    2537    2538    2533
    2360    2537    2538    2539    2361    2184    2187    2186
    2361    2184    2187    2188    2361    2362    2363    2360
    2361    2362    2363    2364    2361    2366    2367    2364
    2361    2366    2367    2368    2362    2357    2358    2353
    2362    2357    2358    2359    2362    2361    2366    2365
    2362    2361    2366    2367    2362    2363    2364    2367
    2362    2363    2364    2541    2363    2360    2537    2542
    2363    2360    2537    2538    2363    2364    2367    2366
    2363    2364    2367    2368    2363    2364    2541    2542
    2363    2364    2541    2546    2364    2367    2368    2371
    2364    2367    2368    2545    2364    2541    2542    2537
    2364    2541    2542    2543    2364    2541    2546    2545
    2364    2541    2546    2547    2365    2188    2191    2190
    2365    2188    2191    2192    2365    2366    2367    2364
    2365    2366    2367    2368    2365    2370    2371    2368
    2365    2370    2371    2372    2366    2361    2362    2357
    2366    2361    2362    2363    2366    2365    2370    2369
    2366    2365    2370    2371    2366    2367    2368    2371
    2366    2367    2368    2545    2367    2364    2541    2542
    2367    2364    2541    2546    2367    2368    2371    2370
    2367    2368    2371    2372    2367    2368    2545    2546
    2367    2368    2545    2550    2368    2371    2372    2375
    2368    2371    2372    2549    2368    2545    2546    2541
    2368    2545    2546    2547    2368    2545    2550    2549
    2368    2545    2550    2551    2369    2192    2195    2194
    2369    2192    2195    2196    2369    2370    2371    2368
    2369    2370    2371    2372    2369    2374    2375    2372
    2369    2374    2375    2376    2370    2365    2366    2361
    2370    2365    2366    2367    2370    2369    2374    2373
    2370    2369    2374    2375    2370    2371    2372    2375
    2370    2371    2372    2549    2371    2368    2545    2546
    2371    2368    2545    2550    2371    2372    2375    2374
    2371    2372    2375    2376    2371    2372    2549    2554
    2371    2372    2549    2550    2372    2375    2376    2379
    2372    2375    2376    2553    2372    2549    2554    2553
    2372    2549    2554    2555    2372    2549    2550    2545
    2372    2549    2550    2551    2373    2196    2199    2198
    2373    2196    2199    2200    2373    2374    2375    2372
    2373    2374    2375    2376    2373    2378    2379    2376
    2373    2378    2379    2380    2374    2369    2370    2365
    2374    2369    2370    2371    2374    2373    2378    2377
    2374    2373    2378    2379    2374    2375    2376    2379
    2374    2375    2376    2553    2375    2372    2549    2554
    2375    2372    2549    2550    2375    2376    2379    2378
    2375    2376    2379    2380    2375    2376    2553    2558
    2375    2376    2553    2554    2376    2379    2380    2383
    2376    2379    2380    2557    2376    2553    2558    2557
    2376    2553    2558    2559    2376    2553    2554    2549
    2376    2553    2554    2555    2377    2200    2203    2202
    2377    2200    2203    2204    2377    2378    2379    2376
    2377    2378    2379    2380    2377    2382    2383    2380
    2377    2382    2383    2384    2378    2373    2374    2369
    2378    2373    2374    2375    2378    2377    2382    2381
    2378    2377    2382    2383    2378    2379    2380    2383
    2378    2379    2380    2557    2379    2376    2553    2558
    2379    2376    2553    2554    2379    2380    2383    2382
    2379    2380    2383    2384    2379    2380    2557    2562
    2379    2380    2557    2558    2380    2383    2384    2387
    2380    2383    2384    2561    2380    2557    2562    2561
    2380    2557    2562    2563    2380    2557    2558    2553
    2380    2557    2558    2559    2381    2204    2207    2206
    2381    2204    2207    2208    2381    2382    2383    2380
    2381    2382    2383    2384    2381    2386    2387    2384
    2381    2386    2387    2388    2382    2377    2378    2373
    2382    2377    2378    2379    2382    2381    2386    2385
    2382    2381    2386    2387    2382    2383    2384    2387
    2382    2383    2384    2561    2383    2380    2557    2562
    2383    2380    2557    2558    2383    2384    2387    2386
    2383    2384    2387    2388    2383    2384    2561    2562
    2383    2384    2561    2566    2384    2387    2388    2391
    2384    2387    2388    2565    2384    2561    2562    2557
    2384    2561    2562    2563    2384    2561    2566    2565
    2384    2561    2566    2567    2385    2208    2211    2210
    2385    2208    2211    2212    2385    2386    2387    2384
    2385    2386    2387    2388    2385    2390    2391    2388
    2385    2390    2391    2392    2386    2381    2382    2377
    2386    2381    2382    2383    2386    2385    2390    2389
    2386    2385    2390    2391    2386    2387    2388    2391
    2386    2387    2388    2565    2387    2384    2561    2562
    2387    2384    2561    2566    2387    2388    2391    2390
    2387    2388    2391    2392    2387    2388    2565    2566
    2387    2388    2565    2570    2388    2391    2392    2395
    2388    2391    2392    2569    2388    2565    2566    2561
    2388    2565    2566    2567    2388    2565    2570    2569
    2388    2565    2570    2571    2389    2212    2215    2214
    2389    2212    2215    2216    2389    2390    2391    2388
    2389    2390    2391    2392    2389    2394    2395    2392
    2389    2394    2395    2396    2390    2385    2386    2381
    2390    2385    2386    2387    2390    2389    2394    2393
    2390    2389    2394    2395    2390    2391    2392    2395
    2390    2391    2392    2569    2391    2388    2565    2566
    2391    2388    2565    2570    2391    2392    2395    2394
    2391    2392    2395    2396    2391    2392    2569    2574
    2391    2392    2569    2570    2392    2395    2396    2399
    2392    2395    2396    2573    2392    2569    2574    2573
    2392    2569    2574    2575    2392    2569    2570    2565
    2392    2569    2570    2571    2393    2216    2219    2218
    2393    2216    2219    2220    2393    2394    2395    2392
    2393    2394    2395    2396    2393    2398    2399    2396
    2393    2398    2399    2400    2394    2389    2390    2385
    2394    2389    2390    2391    2394    2393    2398    2397
    2394    2393    2398    2399    2394    2395    2396    2399
    2394    2395    2396    2573    2395    2392    2569    2574
    2395    2392    2569    2570    2395    2396    2399    2398
    2395    2396    2399    2400    2395    2396    2573    2578
    2395    2396    2573    2574    2396    2399    2400    2403
    2396    2399    2400    2577    2396    2573    2578    2577
    2396    2573    2578    2579    2396    2573    2574    2569
    2396    2573    2574    2575    2397    2220    2223    2222
    2397    2220    2223    2224    2397    2398    2399    2396
    2397    2398    2399    2400    2397    2402    2403    2400
    2397    2402    2403    2404    2398    2393    2394    2389
    2398    2393    2394    2395    2398    2397    2402    2401
    2398    2397    2402    2403    2398    2399    2400    2403
    2398    2399    2400    2577    2399    2396    2573    2578
    2399    2396    2573    2574    2399    2400    2403    2402
    2399    2400    2403    2404    2399    2400    2577    2582
    2399    2400    2577    2578    2400    2403    2404    2407
    2400    2403    2404    2581    2400    2577    2582    2581
    2400    2577    2582    2583    2400    2577    2578    2573
    2400    2577    2578    2579    2401    2224    2227    2226
    2401    2224    2227    2228    2401    2402    2403    2400
    2401    2402    2403    2404    2401    2406    2407    2404
    2401    2406    2407    2408    2402    2397    2398    2393
    2402    2397    2398    2399    2402    2401    2406    2405
    2402    2401    2406    2407    2402    2403    2404    2407
    2402    2403    2404    2581    2403    2400    2577    2582
    2403    2400    2577    2578    2403    2404    2407    2406
    2403    2404    2407    2408    2403    2404    2581    2582
    2403    2404    2581    2586    2404    2407    2408    2411
    2404    2407    2408    2585    2404    2581    2582    2577
    2404    2581    2582    2583    2404    2581    2586    2585
    2404    2581    2586    2587    2405    2228    2231    2230
    2405    2228    2231    2232    2405    2406    2407    2404
    2405    2406    2407    2408    2405    2410    2411    2408
    2405    2410    2411    2412    2406    2401    2402    2397
    2406    2401    2402    2403    2406    2405    2410    2409
    2406    2405    2410    2411    2406    2407    2408    2411
    2406    2407    2408    2585    2407    2404    2581    2582
    2407    2404    2581    2586    2407    2408    2411    2410
    2407    2408    2411    2412    2407    2408    2585    2586
    2407    2408    2585    2590    2408    2411    2412    2415
    2408    2411    2412    2589    2408    2585    2586    2581
    2408    2585    2586    2587    2408    2585    2590    2589
    2408    2585    2590    2591    2409    2232    2235    2234
    2409    2232    2235    2236    2409    2410    2411    2408
    2409    2410    2411    2412    2409    2414    2415    2412
    2409    2414    2415    2416    2410    2405    2406    2401
    2410    2405    2406    2407    2410    2409    2414    2413
    2410    2409    2414    2415    2410    2411    2412    2415
    2410    2411    2412    2589    2411    2408    2585    2586
    2411    2408    2585    2590    2411    2412    2415    2414
    2411    2412    2415    2416    2411    2412    2589    2594
    2411    2412    2589    2590    2412    2415    2416    2419
    2412    2415    2416    2593    2412    2589    2594    2593
    2412    2589    2594    2595    2412    2589    2590    2585
    2412    2589    2590    2591    2413    2236    2239    2238
    2413    2236    2239    2240    2413    2414    2415    2412
    2413    2414    2415    2416    2413    2418    2419    2416
    2413    2418    2419    2420    2414    2409    2410    2405
    2414    2409    2410    2411    2414    2413    2418    2417
    2414    2413    2418    2419    2414    2415    2416    2419
    2414    2415    2416    2593    2415    2412    2589    2594
    2415    2412    2589    2590    2415    2416    2419    2418
    2415    2416    2419    2420    2415    2416    2593    2598
    2415    2416    2593    2594    2416    2419    2420    2423
    2416    2419    2420    2597    2416    2593    2598    2597
    2416    2593    2598    2599    2416    2593    2594    2589
    2416    2593    2594    2595    2417    2240    2243    2242
    2417    2240    2243    2244    2417    2418    2419    2416
    2417    2418    2419    2420    2417    2422    2423    2420
    2417    2422    2423    2424    2418    2413    2414    2409
    2418    2413    2414    2415    2418    2417    2422    2421
    2418    2417    2422    2423    2418    2419    2420    2423
    2418    2419    2420    2597    2419    2416    2593    2598
    2419    2416    2593    2594    2419    2420    2423    2422
    2419    2420    2423    2424    2419    2420    2597    2602
    2419    2420    2597    2598    2420    2423    2424    2427
    2420    2423    2424    2601    2420    2597    2602    2601
    2420    2597    2602    2603    2420    2597    2598    2593
    2420    2597    2598    2599    2421    2244    2247    2246
    2421    2244    2247    2248    2421    2422    2423    2420
    2421    2422    2423    2424    2421    2426    2427    2424
    2421    2426    2427    2428    2422    2417    2418    2413
    2422    2417    2418    2419    2422    2421    2426    2425
    2422    2421    2426    2427    2422    2423    2424    2427
    2422    2423    2424    2601    2423    2420    2597    2602
    2423    2420    2597    2598    2423    2424    2427    2426
    2423    2424    2427    2428    2423    2424    2601    2602
    2423    2424    2601    2606    2424    2427    2428    2431
    2424    2427    2428    2605    2424    2601    2602    2597
    2424    2601    2602    2603    2424    2601    2606    2605
    2424    2601    2606    2607    2425    2248    2251    2250
    2425    2248    2251    2252    2425    2426    2427    2424
    2425    2426    2427    2428    2425    2430    2431    2428
    2425    2430    2431    2432    2426    2421    2422    2417
    2426    2421    2422    2423    2426    2425    2430    2429
    2426    2425    2430    2431    2426    2427    2428    2431
    2426    2427    2428    2605    2427    2424    2601    2602
    2427    2424    2601    2606    2427    2428    2431    2430
    2427    2428    2431    2432    2427    2428    2605    2606
    2427    2428    2605    2610    2428    2431    2432    2435
    2428    2431    2432    2609    2428    2605    2606    2601
    2428    2605    2606    2607    2428    2605    2610    2609
    2428    2605    2610    2611    2429    2252    2255    2254
    2429    2252    2255    2256    2429    2430    2431    2428
    2429    2430    2431    2432    2429    2434    2435    2432
    2429    2434    2435    2436    2430    2425    2426    2421
    2430    2425    2426    2427    2430    2429    2434    2433
    2430    2429    2434    2435    2430    2431    2432    2435
    2430    2431    2432    2609    2431    2428    2605    2606
    2431    2428    2605    2610    2431    2432    2435    2434
    2431    2432    2435    2436    2431    2432    2609    2614
    2431    2432    2609    2610    2432    2435    2436    2439
    2432    2435    2436    2613    2432    2609    2614    2613
    2432    2609    2614    2615    2432    2609    2610    2605
    2432    2609    2610    2611    2433    2256    2259    2258
    2433    2256    2259    2260    2433    2434    2435    2432
    2433    2434    2435    2436    2433    2438    2439    2436
    2433    2438    2439    2440    2434    2429    2430    2425
    2434    2429    2430    2431    2434    2433    2438    2437
    2434    2433    2438    2439    2434    2435    2436    2439
    2434    2435    2436    2613    2435    2432    2609    2614
    2435    2432    2609    2610    2435    2436    2439    2438
    2435    2436    2439    2440    2435    2436    2613    2618
    2435    2436    2613    2614    2436    2439    2440    2443
    2436    2439    2440    2617    2436    2613    2618    2617
    2436    2613    2618    2619    2436    2613    2614    2609
    2436    2613    2614    2615    2437    2260    2263    2262
    2437    2260    2263    2264    2437    2438    2439    2436
    2437    2438    2439    2440    2437    2442    2443    2440
    2437    2442    2443    2444    2438    2433    2434    2429
    2438    2433    2434    2435    2438    2437    2442    2441
    2438    2437    2442    2443    2438    2439    2440    2443
    2438    2439    2440    2617    2439    2436    2613    2618
    2439    2436    2613    2614    2439    2440    2443    2442
    2439    2440    2443    2444    2439    2440    2617    2622
    2439    2440    2617    2618    2440    2443    2444    2447
    2440    2443    2444    2621    2440    2617    2622    2621
    2440    2617    2622    2623    2440    2617    2618    2613
    2440    2617    2618    2619    2441    2264    2267    2266
    2441    2264    2267    2268    2441    2442    2443    2440
    2441    2442    2443    2444    2441    2446    2447    2444
    2441    2446    2447    2448    2442    2437    2438    2433
    2442    2437    2438    2439    2442    2441    2446    2445
    2442    2441    2446    2447    2442    2443    2444    2447
    2442    2443    2444    2621    2443    2440    2617    2622
    2443    2440    2617    2618    2443    2444    2447    2446
    2443    2444    2447    2448    2443    2444    2621    2622
    2443    2444    2621    2626    2444    2447    2448    2451
    2444    2447    2448    2625    2444    2621    2622    2617
    2444    2621    2622    2623    2444    2621    2626    2625
    2444    2621    2626    2627    2445    2268    2271    2270
    2445    2268    2271    2272    2445    2446    2447    2444
    2445    2446    2447    2448    2445    2450    2451    2448
    2445    2450    2451    2452    2446    2441    2442    2437
    2446    2441    2442    2443    2446    2445    2450    2449
    2446    2445    2450    2451    2446    2447    2448    2451
    2446    2447    2448    2625    2447    2444    2621    2622
    2447    2444    2621    2626    2447    2448    2451    2450
    2447    2448    2451    2452    2447    2448    2625    2626
    2447    2448    2625    2630    2448    2451    2452    2455
    2448    2451    2452    2629    2448    2625    2626    2621
    2448    2625    2626    2627    2448    2625    2630    2629
    2448    2625    2630    2631    2449    2272    2275    2274
    2449    2272    2275    2276    2449    2450    2451    2448
    2449    2450    2451    2452    2449    2454    2455    2452
    2449    2454    2455    2456    2450    2445    2446    2441
    2450    2445    2446    2447    2450    2449    2454    2453
    2450    2449    2454    2455    2450    2451    2452    2455
    2450    2451    2452    2629    2451    2448    2625    2626
    2451    2448    2625    2630    2451    2452    2455    2454
    2451    2452    2455    2456    2451    2452    2629    2634
    2451    2452    2629    2630    2452    2455    2456    2459
    2452    2455    2456    2633    2452    2629    2634    2633
    2452    2629    2634    2635    2452    2629    2630    2625
    2452    2629    2630    2631    2453    2276    2279    2278
    2453    2276    2279    2280    2453    2454    2455    2452
    2453    2454    2455    2456    2453    2458    2459    2456
    2453    2458    2459    2460    2454    2449    2450    2445
    2454    2449    2450    2451    2454    2453    2458    2457
    2454    2453    2458    2459    2454    2455    2456    2459
    2454    2455    2456    2633    2455    2452    2629    2634
    2455    2452    2629    2630    2455    2456    2459    2458
    2455    2456    2459    2460    2455    2456    2633    2634
    2455    2456    2633    2638    2456    2459    2460    2463
    2456    2459    2460    2637    2456    2633    2634    2629
    2456    2633    2634    2635    2456    2633    2638    2637
    2456    2633    2638    2639    2457    2280    2283    2282
    2457    2280    2283    2284    2457    2458    2459    2456
    2457    2458    2459    2460    2457    2462    2463    2460
    2457    2462    2463    2464    2458    2453    2454    2449
    2458    2453    2454    2455    2458    2457    2462    2461
    2458    2457    2462    2463    2458    2459    2460    2463
    2458    2459    2460    2637    2459    2456    2633    2634
    2459    2456    2633    2638    2459    2460    2463    2462
    2459    2460    2463    2464    2459    2460    2637    2642
    2459    2460    2637    2638    2460    2463    2464    2467
    2460    2463    2464    2641    2460    2637    2642    2641
    2460    2637    2642    2643    2460    2637    2638    2633
    2460    2637    2638    2639    2461    2284    2287    2286
    2461    2284    2287    2288    2461    2462    2463    2460
    2461    2462    2463    2464    2461    2466    2467    2464
    2461    2466    2467    2468    2462    2457    2458    2453
    2462    2457    2458    2459    2462    2461    2466    2465
    2462    2461    2466    2467    2462    2463    2464    2467
    2462    2463    2464    2641    2463    2460    2637    2642
    2463    2460    2637    2638    2463    2464    2467    2466
    2463    2464    2467    2468    2463    2464    2641    2642
    2463    2464    2641    2646    2464    2467    2468    2471
    2464    2467    2468    2645    2464    2641    2642    2637
    2464    2641    2642    2643    2464    2641    2646    2645
    2464    2641    2646    2647    2465    2288    2291    2290
    2465    2288    2291    2292    2465    2466    2467    2464
    2465    2466    2467    2468    2465    2470    2471    2468
    2465    2470    2471    2472    2466    2461    2462    2457
    2466    2461    2462    2463    2466    2465    2470    2469
    2466    2465    2470    2471    2466    2467    2468    2471
    2466    2467    2468    2645    2467    2464    2641    2642
    2467    2464    2641    2646    2467    2468    2471    2470
    2467    2468    2471    2472    2467    2468    2645    2646
    2467    2468    2645    2650    2468    2471    2472    2475
    2468    2471    2472    2649    2468    2645    2646    2641
    2468    2645    2646    2647    2468    2645    2650    2649
    2468    2645    2650    2651    2469    2292    2295    2294
    2469    2292    2295    2296    2469    2470    2471    2468
    2469    2470    2471    2472    2469    2474    2475    2472
    2469    2474    2475    2476    2470    2465    2466    2461
    2470    2465    2466    2467    2470    2469    2474    2473
    2470    2469    2474    2475    2470    2471    2472    2475
    2470    2471    2472    2649    2471    2468    2645    2646
    2471    2468    2645    2650    2471    2472    2475    2474
    2471    2472    2475    2476    2471    2472    2649    2654
    2471    2472    2649    2650    2472    2475    2476    2479
    2472    2475    2476    2653    2472    2649    2654    2653
    2472    2649    2654    2655    2472    2649    2650    2645
    2472    2649    2650    2651    2473    2296    2299    2298
    2473    2296    2299    2300    2473    2474    2475    2472
    2473    2474    2475    2476    2473    2478    2479    2476
    2473    2478    2479    2480    2474    2469    2470    2465
    2474    2469    2470    2471    2474    2473    2478    2477
    2474    2473    2478    2479    2474    2475    2476    2479
    2474    2475    2476    2653    2475    2472    2649    2654
    2475    2472    2649    2650    2475    2476    2479    2478
    2475    2476    2479    2480    2475    2476    2653    2658
    2475    2476    2653    2654    2476    2479    2480    2483
    2476    2479    2480    2657    2476    2653    2658    2657
    2476    2653    2658    2659    2476    2653    2654    2649
    2476    2653    2654    2655    2477    2300    2303    2302
    2477    2300    2303    2304    2477    2478    2479    2476
    2477    2478    2479    2480    2477    2482    2483    2480
    2477    2482    2483    2484    2478    2473    2474    2469
    2478    2473    2474    2475    2478    2477    2482    2481
    2478    2477    2482    2483    2478    2479    2480    2483
    2478    2479    2480    2657    2479    2476    2653    2658
    2479    2476    2653    2654    2479    2480    2483    2482
    2479    2480    2483    2484    2479    2480    2657    2662
    2479    2480    2657    2658    2480    2483    2484    2487
    2480    2483    2484    2661    2480    2657    2662    2661
    2480    2657    2662    2663    2480    2657    2658    2653
    2480    2657    2658    2659    2481    2304    2307    2306
    2481    2304    2307    2308    2481    2482    2483    2480
    2481    2482    2483    2484    2481    2486    2487    2484
    2481    2486    2487    2488    2482    2477    2478    2473
    2482    2477    2478    2479    2482    2481    2486    2485
    2482    2481    2486    2487    2482    2483    2484    2487
    2482    2483    2484    2661    2483    2480    2657    2662
    2483    2480    2657    2658    2483    2484    2487    2486
    2483    2484    2487    2488    2483    2484    2661    2662
    2483    2484    2661    2666    2484    2487    2488    2491
    2484    2487    2488    2665    2484    2661    2662    2657
    2484    2661    2662    2663    2484    2661    2666    2665
    2484    2661    2666    2667    2485    2308    2311    2310
    2485    2308    2311    2312    2485    2486    2487    2484
    2485    2486    2487    2488    2485    2490    2491    2488
    2485    2490    2491    2492    2486    2481    2482    2477
    2486    2481    2482    2483    2486    2485    2490    2489
    2486    2485    2490    2491    2486    2487    2488    2491
    2486    2487    2488    2665    2487    2484    2661    2662
    2487    2484    2661    2666    2487    2488    2491    2490
    2487    2488    2491    2492    2487    2488    2665    2666
    2487    2488    2665    2670    2488    2491    2492    2495
    2488    2491    2492    2669    2488    2665    2666    2661
    2488    2665    2666    2667    2488    2665    2670    2669
    2488    2665    2670    2671    2489    2312    2315    2314
    2489    2312    2315    2316    2489    2490    2491    2488
    2489    2490    2491    2492    2489    2494    2495    2492
    2489    2494    2495    2496    2490    2485    2486    2481
    2490    2485    2486    2487    2490    2489    2494    2493
    2490    2489    2494    2495    2490    2491    2492    2495
    2490    2491    2492    2669    2491    2488    2665    2666
    2491    2488    2665    2670    2491    2492    2495    2494
    2491    2492    2495    2496    2491    2492    2669    2674
    2491    2492    2669    2670    2492    2495    2496    2499
    2492    2495    2496    2673    2492    2669    2674    2673
    2492    2669    2674    2675    2492    2669    2670    2665
    2492    2669    2670    2671    2493    2316    2319    2318
    2493    2316    2319    2320    2493    2494    2495    2492
    2493    2494    2495    2496    2493    2498    2499    2496
    2493    2498    2499    2500    2494    2489    2490    2485
    2494    2489    2490    2491    2494    2493    2498    2497
    2494    2493    2498    2499    2494    2495    2496    2499
    2494    2495    2496    2673    2495    2492    2669    2674
    2495    2492    2669    2670    2495    2496    2499    2498
    2495    2496    2499    2500    2495    2496    2673    2678
    2495    2496    2673    2674    2496    2499    2500    2503
    2496    2499    2500    2677    2496    2673    2678    2677
    2496    2673    2678    2679    2496    2673    2674    2669
    2496    2673    2674    2675    2497    2320    2323    2322
    2497    2320    2323    2324    2497    2498    2499    2496
    2497    2498    2499    2500    2497    2502    2503    2500
    2497    2502    2503    2504    2498    2493    2494    2489
    2498    2493    2494    2495    2498    2497    2502    2501
    2498    2497    2502    2503    2498    2499    2500    2503
    2498    2499    2500    2677    2499    2496    2673    2678
    2499    2496    2673    2674    2499    2500    2503    2502
    2499    2500    2503    2504    2499    2500    2677    2682
    2499    2500    2677    2678    2500    2503    2504    2507
    2500    2503    2504    2681    2500    2677    2682    2681
    2500    2677    2682    2683    2500    2677    2678    2673
    2500    2677    2678    2679    2501    2324    2327    2326
    2501    2324    2327    2328    2501    2502    2503    2500
    2501    2502    2503    2504    2501    2506    2507    2504
    2501    2506    2507    2508    2502    2497    2498    2493
    2502    2497    2498    2499    2502    2501    2506    2505
    2502    2501    2506    2507    2502    2503    2504    2507
    2502    2503    2504    2681    2503    2500    2677    2682
    2503    2500    2677    2678    2503    2504    2507    2506
    2503    2504    2507    2508    2503    2504    2681    2682
    2503    2504    2681    2686    2504    2507    2508    2511
    2504    2507    2508    2685    2504    2681    2682    2677
    2504    2681    2682    2683    2504    2681    2686    2685
    2504    2681    2686    2687    2505    2328    2331    2330
    2505    2328    2331    2332    2505    2506    2507    2504
    2505    2506    2507    2508    2505    2510    2511    2508
    2505    2510    2511    2512    2506    2501    2502    2497
    2506    2501    2502    2503    2506    2505    2510    2509
    2506    2505    2510    2511    2506    2507    2508    2511
    2506    2507    2508    2685    2507    2504    2681    2682
    2507    2504    2681    2686    2507    2508    2511    2510
    2507    2508    2511    2512    2507    2508    2685    2686
    2507    2508    2685    2690    2508    2511    2512    2515
    2508    2511    2512    2689    2508    2685    2686    2681
    2508    2685    2686    2687    2508    2685    2690    2689
    2508    2685    2690    2691    2509    2332    2335    2334
    2509    2332    2335    2336    2509    2510    2511    2508
    2509    2510    2511    2512    2509    2514    2515    2512
    2509    2514    2515    2516    2510    2505    2506    2501
    2510    2505    2506    2507    2510    2509    2514    2513
    2510    2509    2514    2515    2510    2511    2512    2515
    2510    2511    2512    2689    2511    2508    2685    2686
    2511    2508    2685    2690    2511    2512    2515    2514
    2511    2512    2515    2516    2511    2512    2689    2694
    2511    2512    2689    2690    2512    2515    2516    2519
    2512    2515    2516    2693    2512    2689    2694    2693
    2512    2689    2694    2695    2512    2689    2690    2685
    2512    2689    2690    2691    2513    2336    2339    2338
    2513    2336    2339    2340    2513    2514    2515    2512
    2513    2514    2515    2516    2513    2518    2519    2516
    2513    2518    2519    2520    2514    2509    2510    2505
    2514    2509    2510    2511    2514    2513    2518    2517
    2514    2513    2518    2519    2514    2515    2516    2519
    2514    2515    2516    2693    2515    2512    2689    2694
    2515    2512    2689    2690    2515    2516    2519    2518
    2515    2516    2519    2520    2515    2516    2693    2698
    2515    2516    2693    2694    2516    2519    2520    2697
    2516    2693    2698    2697    2516    2693    2698    2699
    2516    2693    2694    2689    2516    2693    2694    2695
    2517    2518    2519    2516    2517    2518    2519    2520
    2518    2513    2514    2509    2518    2513    2514    2515
    2518    2519    2520    2697    2519    2516    2693    2698
    2519    2516    2693    2694    2519    2520    2697    2698
    2520    2697    2698    2693    2520    2697    2698    2699
    2521    2344    2347    2346    2521    2344    2347    2348
    2521    2522    2523    2524    2521    2526    2527    2524
    2521    2526    2527    2528    2522    2521    2526    2525
    2522    2521    2526    2527    2522    2523    2524    2527
    2522    2523    2524    2701    2523    2524    2527    2526
    2523    2524    2527    2528    2523    2524    2701    2702
    2523    2524    2701    2706    2524    2527    2528    2531
    2524    2527    2528    2705    2524    2701    2702    2703
    2524    2701    2706    2705    2524    2701    2706    2707
    2525    2348    2351    2350    2525    2348    2351    2352
    2525    2526    2527    2524    2525    2526    2527    2528
    2525    2530    2531    2528    2525    2530    2531    2532
    2526    2521    2522    2523    2526    2525    2530    2529
    2526    2525    2530    2531    2526    2527    2528    2531
    2526    2527    2528    2705    2527    2524    2701    2702
    2527    2524    2701    2706    2527    2528    2531    2530
    2527    2528    2531    2532    2527    2528    2705    2706
    2527    2528    2705    2710    2528    2531    2532    2535
    2528    2531    2532    2709    2528    2705    2706    2701
    2528    2705    2706    2707    2528    2705    2710    2709
    2528    2705    2710    2711    2529    2352    2355    2354
    2529    2352    2355    2356    2529    2530    2531    2528
    2529    2530    2531    2532    2529    2534    2535    2532
    2529    2534    2535    2536    2530    2525    2526    2521
    2530    2525    2526    2527    2530    2529    2534    2533
    2530    2529    2534    2535    2530    2531    2532    2535
    2530    2531    2532    2709    2531    2528    2705    2706
    2531    2528    2705    2710    2531    2532    2535    2534
    2531    2532    2535    2536    2531    2532    2709    2714
    2531    2532    2709    2710    2532    2535    2536    2539
    2532    2535    2536    2713    2532    2709    2714    2713
    2532    2709    2714    2715    2532    2709    2710    2705
    2532    2709    2710    2711    2533    2356    2359    2358
    2533    2356    2359    2360    2533    2534    2535    2532
    2533    2534    2535    2536    2533    2538    2539    2536
    2533    2538    2539    2540    2534    2529    2530    2525
    2534    2529    2530    2531    2534    2533    2538    2537
    2534    2533    2538    2539    2534    2535    2536    2539
    2534    2535    2536    2713    2535    2532    2709    2714
    2535    2532    2709    2710    2535    2536    2539    2538
    2535    2536    2539    2540    2535    2536    2713    2718
    2535    2536    2713    2714    2536    2539    2540    2543
    2536    2539    2540    2717    2536    2713    2718    2717
    2536    2713    2718    2719    2536    2713    2714    2709
    2536    2713    2714    2715    2537    2360    2363    2362
    2537    2360    2363    2364    2537    2538    2539    2536
    2537    2538    2539    2540    2537    2542    2543    2540
    2537    2542    2543    2544    2538    2533    2534    2529
    2538    2533    2534    2535    2538    2537    2542    2541
    2538    2537    2542    2543    2538    2539    2540    2543
    2538    2539    2540    2717    2539    2536    2713    2718
    2539    2536    2713    2714    2539    2540    2543    2542
    2539    2540    2543    2544    2539    2540    2717    2722
    2539    2540    2717    2718    2540    2543    2544    2547
    2540    2543    2544    2721    2540    2717    2722    2721
    2540    2717    2722    2723    2540    2717    2718    2713
    2540    2717    2718    2719    2541    2364    2367    2366
    2541    2364    2367    2368    2541    2542    2543    2540
    2541    2542    2543    2544    2541    2546    2547    2544
    2541    2546    2547    2548    2542    2537    2538    2533
    2542    2537    2538    2539    2542    2541    2546    2545
    2542    2541    2546    2547    2542    2543    2544    2547
    2542    2543    2544    2721    2543    2540    2717    2722
    2543    2540    2717    2718    2543    2544    2547    2546
    2543    2544    2547    2548    2543    2544    2721    2722
    2543    2544    2721    2726    2544    2547    2548    2551
    2544    2547    2548    2725    2544    2721    2722    2717
    2544    2721    2722    2723    2544    2721    2726    2725
    2544    2721    2726    2727    2545    2368    2371    2370
    2545    2368    2371    2372    2545    2546    2547    2544
    2545    2546    2547    2548    2545    2550    2551    2548
    2545    2550    2551    2552    2546    2541    2542    2537
    2546    2541    2542    2543    2546    2545    2550    2549
    2546    2545    2550    2551    2546    2547    2548    2551
    2546    2547    2548    2725    2547    2544    2721    2722
    2547    2544    2721    2726    2547    2548    2551    2550
    2547    2548    2551    2552    2547    2548    2725    2726
    2547    2548    2725    2730    2548    2551    2552    2555
    2548    2551    2552    2729    2548    2725    2726    2721
    2548    2725    2726    2727    2548    2725    2730    2729
    2548    2725    2730    2731    2549    2372    2375    2374
    2549    2372    2375    2376    2549    2550    2551    2548
    2549    2550    2551    2552    2549    2554    2555    2552
    2549    2554    2555    2556    2550    2545    2546    2541
    2550    2545    2546    2547    2550    2549    2554    2553
    2550    2549    2554    2555    2550    2551    2552    2555
    2550    2551    2552    2729    2551    2548    2725    2726
    2551    2548    2725    2730    2551    2552    2555    2554
    2551    2552    2555    2556    2551    2552    2729    2734
    2551    2552    2729    2730    2552    2555    2556    2559
    2552    2555    2556    2733    2552    2729    2734    2733
    2552    2729    2734    2735    2552    2729    2730    2725
    2552    2729    2730    2731    2553    2376    2379    2378
    2553    2376    2379    2380    2553    2554    2555    2552
    2553    2554    2555    2556    2553    2558    2559    2556
    2553    2558    2559    2560    2554    2549    2550    2545
    2554    2549    2550    2551    2554    2553    2558    2557
    2554    2553    2558    2559    2554    2555    2556    2559
    2554    2555    2556    2733    2555    2552    2729    2734
    2555    2552    2729    2730    2555    2556    2559    2558
    2555    2556    2559    2560    2555    2556    2733    2738
    2555    2556    2733    2734    2556    2559    2560    2563
    2556    2559    2560    2737    2556    2733    2738    2737
    2556    2733    2738    2739    2556    2733    2734    2729
    2556    2733    2734    2735    2557    2380    2383    2382
    2557    2380    2383    2384    2557    2558    2559    2556
    2557    2558    2559    2560    2557    2562    2563    2560
    2557    2562    2563    2564    2558    2553    2554    2549
    2558    2553    2554    2555    2558    2557    2562    2561
    2558    2557    2562    2563    2558    2559    2560    2563
    2558    2559    2560    2737    2559    2556    2733    2738
    2559    2556    2733    2734    2559    2560    2563    2562
    2559    2560    2563    2564    2559    2560    2737    2742
    2559    2560    2737    2738    2560    2563    2564    2567
    2560    2563    2564    2741    2560    2737    2742    2741
    2560    2737    2742    2743    2560    2737    2738    2733
    2560    2737    2738    2739    2561    2384    2387    2386
    2561    2384    2387    2388    2561    2562    2563    2560
    2561    2562    2563    2564    2561    2566    2567    2564
    2561    2566    2567    2568    2562    2557    2558    2553
    2562    2557    2558    2559    2562    2561    2566    2565
    2562    2561    2566    2567    2562    2563    2564    2567
    2562    2563    2564    2741    2563    2560    2737    2742
    2563    2560    2737    2738    2563    2564    2567    2566
    2563    2564    2567    2568    2563    2564    2741    2742
    2563    2564    2741    2746    2564    2567    2568    2571
    2564    2567    2568    2745    2564    2741    2742    2737
    2564    2741    2742    2743    2564    2741    2746    2745
    2564    2741    2746    2747    2565    2388    2391    2390
    2565    2388    2391    2392    2565    2566    2567    2564
    2565    2566    2567    2568    2565    2570    2571    2568
    2565    2570    2571    2572    2566    2561    2562    2557
    2566    2561    2562    2563    2566    2565    2570    2569
    2566    2565    2570    2571    2566    2567    2568    2571
    2566    2567    2568    2745    2567    2564    2741    2742
    2567    2564    2741    2746    2567    2568    2571    2570
    2567    2568    2571    2572    2567    2568    2745    2746
    2567    2568    2745    2750    2568    2571    2572    2575
    2568    2571    2572    2749    2568    2745    2746    2741
    2568    2745    2746    2747    2568    2745    2750    2749
    2568    2745    2750    2751    2569    2392    2395    2394
    2569    2392    2395    2396    2569    2570    2571    2568
    2569    2570    2571    2572    2569    2574    2575    2572
    2569    2574    2575    2576    2570    2565    2566    2561
    2570    2565    2566    2567    2570    2569    2574    2573
    2570    2569    2574    2575    2570    2571    2572    2575
    2570    2571    2572    2749    2571    2568    2745    2746
    2571    2568    2745    2750    2571    2572    2575    2574
    2571    2572    2575    2576    2571    2572    2749    2754
    2571    2572    2749    2750    2572    2575    2576    2579
    2572    2575    2576    2753    2572    2749    2754    2753
    2572    2749    2754    2755    2572    2749    2750    2745
    2572    2749    2750    2751    2573    2396    2399    2398
    2573    2396    2399    2400    2573    2574    2575    2572
    2573    2574    2575    2576    2573    2578    2579    2576
    2573    2578    2579    2580    2574    2569    2570    2565
    2574    2569    2570    2571    2574    2573    2578    2577
    2574    2573    2578    2579    2574    2575    2576    2579
    2574    2575    2576    2753    2575    2572    2749    2754
    2575    2572    2749    2750    2575    2576    2579    2578
    2575    2576    2579    2580    2575    2576    2753    2758
    2575    2576    2753    2754    2576    2579    2580    2583
    2576    2579    2580    2757    2576    2753    2758    2757
    2576    2753    2758    2759    2576    2753    2754    2749
    2576    2753    2754    2755    2577    2400    2403    2402
    2577    2400    2403    2404    2577    2578    2579    2576
    2577    2578    2579    2580    2577    2582    2583    2580
    2577    2582    2583    2584    2578    2573    2574    2569
    2578    2573    2574    2575    2578    2577    2582    2581
    2578    2577    2582    2583    2578    2579    2580    2583
    2578    2579    2580    2757    2579    2576    2753    2758
    2579    2576    2753    2754    2579    2580    2583    2582
    2579    2580    2583    2584    2579    2580    2757    2762
    2579    2580    2757    2758    2580    2583    2584    2587
    2580    2583    2584    2761    2580    2757    2762    2761
    2580    2757    2762    2763    2580    2757    2758    2753
    2580    2757    2758    2759    2581    2404    2407    2406
    2581    2404    2407    2408    2581    2582    2583    2580
    2581    2582    2583    2584    2581    2586    2587    2584
    2581    2586    2587    2588    2582    2577    2578    2573
    2582    2577    2578    2579    2582    2581    2586    2585
    2582    2581    2586    2587    2582    2583    2584    2587
    2582    2583    2584    2761    2583    2580    2757    2762
    2583    2580    2757    2758    2583    2584    2587    2586
    2583    2584    2587    2588    2583    2584    2761    2762
    2583    2584    2761    2766    2584    2587    2588    2591
    2584    2587    2588    2765    2584    2761    2762    2757
    2584    2761    2762    2763    2584    2761    2766    2765
    2584    2761    2766    2767    2585    2408    2411    2410
    2585    2408    2411    2412    2585    2586    2587    2584
    2585    2586    2587    2588    2585    2590    2591    2588
    2585    2590    2591    2592    2586    2581    2582    2577
    2586    2581    2582    2583    2586    2585    2590    2589
    2586    2585    2590    2591    2586    2587    2588    2591
    2586    2587    2588    2765    2587    2584    2761    2762
    2587    2584    2761    2766    2587    2588    2591    2590
    2587    2588    2591    2592    2587    2588    2765    2766
    2587    2588    2765    2770    2588    2591    2592    2595
    2588    2591    2592    2769    2588    2765    2766    2761
    2588    2765    2766    2767    2588    2765    2770    2769
    2588    2765    2770    2771    2589    2412    2415    2414
    2589    2412    2415    2416    2589    2590    2591    2588
    2589    2590    2591    2592    2589    2594    2595    2592
    2589    2594    2595    2596    2590    2585    2586    2581
    2590    2585    2586    2587    2590    2589    2594    2593
    2590    2589    2594    2595    2590    2591    2592    2595
    2590    2591    2592    2769    2591    2588    2765    2766
    2591    2588    2765    2770    2591    2592    2595    2594
    2591    2592    2595    2596    2591    2592    2769    2774
    2591    2592    2769    2770    2592    2595    2596    2599
    2592    2595    2596    2773    2592    2769    2774    2773
    2592    2769    2774    2775    2592    2769    2770    2765
    2592    2769    2770    2771    2593    2416    2419    2418
    2593    2416    2419    2420    2593    2594    2595    2592
    2593    2594    2595    2596    2593    2598    2599    2596
    2593    2598    2599    2600    2594    2589    2590    2585
    2594    2589    2590    2591    2594    2593    2598    2597
    2594    2593    2598    2599    2594    2595    2596    2599
    2594    2595    2596    2773    2595    2592    2769    2774
    2595    2592    2769    2770    2595    2596    2599    2598
    2595    2596    2599    2600    2595    2596    2773    2778
    2595    2596    2773    2774    2596    2599    2600    2603
    2596    2599    2600    2777    2596    2773    2778    2777
    2596    2773    2778    2779    2596    2773    2774    2769
    2596    2773    2774    2775    2597    2420    2423    2422
    2597    2420    2423    2424    2597    2598    2599    2596
    2597    2598    2599    2600    2597    2602    2603    2600
    2597    2602    2603    2604    2598    2593    2594    2589
    2598    2593    2594    2595    2598    2597    2602    2601
    2598    2597    2602    2603    2598    2599    2600    2603
    2598    2599    2600    2777    2599    2596    2773    2778
    2599    2596    2773    2774    2599    2600    2603    2602
    2599    2600    2603    2604    2599    2600    2777    2782
    2599    2600    2777    2778    2600    2603    2604    2607
    2600    2603    2604    2781    2600    2777    2782    2781
    2600    2777    2782    2783    2600    2777    2778    2773
    2600    2777    2778    2779    2601    2424    2427    2426
    2601    2424    2427    2428    2601    2602    2603    2600
    2601    2602    2603    2604    2601    2606    2607    2604
    2601    2606    2607    2608    2602    2597    2598    2593
    2602    2597    2598    2599    2602    2601    2606    2605
    2602    2601    2606    2607    2602    2603    2604    2607
    2602    2603    2604    2781    2603    2600    2777    2782
    2603    2600    2777    2778    2603    2604    2607    2606
    2603    2604    2607    2608    2603    2604    2781    2782
    2603    2604    2781    2786    2604    2607    2608    2611
    2604    2607    2608    2785    2604    2781    2782    2777
    2604    2781    2782    2783    2604    2781    2786    2785
    2604    2781    2786    2787    2605    2428    2431    2430
    2605    2428    2431    2432    2605    2606    2607    2604
    2605    2606    2607    2608    2605    2610    2611    2608
    2605    2610    2611    2612    2606    2601    2602    2597
    2606    2601    2602    2603    2606    2605    2610    2609
    2606    2605    2610    2611    2606    2607    2608    2611
    2606    2607    2608    2785    2607    2604    2781    2782
    2607    2604    2781    2786    2607    2608    2611    2610
    2607    2608    2611    2612    2607    2608    2785    2786
    2607    2608    2785    2790    2608    2611    2612    2615
    2608    2611    2612    2789    2608    2785    2786    2781
    2608    2785    2786    2787    2608    2785    2790    2789
    2608    2785    2790    2791    2609    2432    2435    2434
    2609    2432    2435    2436    2609    2610    2611    2608
    2609    2610    2611    2612    2609    2614    2615    2612
    2609    2614    2615    2616    2610    2605    2606    2601
    2610    2605    2606    2607    2610    2609    2614    2613
    2610    2609    2614    2615    2610    2611    2612    2615
    2610    2611    2612    2789    2611    2608    2785    2786
    2611    2608    2785    2790    2611    2612    2615    2614
    2611    2612    2615    2616    2611    2612    2789    2794
    2611    2612    2789    2790    2612    2615    2616    2619
    2612    2615    2616    2793    2612    2789    2794    2793
    2612    2789    2794    2795    2612    2789    2790    2785
    2612    2789    2790    2791    2613    2436    2439    2438
    2613    2436    2439    2440    2613    2614    2615    2612
    2613    2614    2615    2616    2613    2618    2619    2616
    2613    2618    2619    2620    2614    2609    2610    2605
    2614    2609    2610    2611    2614    2613    2618    2617
    2614    2613    2618    2619    2614    2615    2616    2619
    2614    2615    2616    2793    2615    2612    2789    2794
    2615    2612    2789    2790    2615    2616    2619    2618
    2615    2616    2619    2620    2615    2616    2793    2798
    2615    2616    2793    2794    2616    2619    2620    2623
    2616    2619    2620    2797    2616    2793    2798    2797
    2616    2793    2798    2799    2616    2793    2794    2789
    2616    2793    2794    2795    2617    2440    2443    2442
    2617    2440    2443    2444    2617    2618    2619    2616
    2617    2618    2619    2620    2617    2622    2623    2620
    2617    2622    2623    2624    2618    2613    2614    2609
    2618    2613    2614    2615    2618    2617    2622    2621
    2618    2617    2622    2623    2618    2619    2620    2623
    2618    2619    2620    2797    2619    2616    2793    2798
    2619    2616    2793    2794    2619    2620    2623    2622
    2619    2620    2623    2624    2619    2620    2797    2802
    2619    2620    2797    2798    2620    2623    2624    2627
    2620    2623    2624    2801    2620    2797    2802    2801
    2620    2797    2802    2803    2620    2797    2798    2793
    2620    2797    2798    2799    2621    2444    2447    2446
    2621    2444    2447    2448    2621    2622    2623    2620
    2621    2622    2623    2624    2621    2626    2627    2624
    2621    2626    2627    2628    2622    2617    2618    2613
    2622    2617    2618    2619    2622    2621    2626    2625
    2622    2621    2626    2627    2622    2623    2624    2627
    2622    2623    2624    2801    2623    2620    2797    2802
    2623    2620    2797    2798    2623    2624    2627    2626
    2623    2624    2627    2628    2623    2624    2801    2802
    2623    2624    2801    2806    2624    2627    2628    2631
    2624    2627    2628    2805    2624    2801    2802    2797
    2624    2801    2802    2803    2624    2801    2806    2805
    2624    2801    2806    2807    2625    2448    2451    2450
    2625    2448    2451    2452    2625    2626    2627    2624
    2625    2626    2627    2628    2625    2630    2631    2628
    2625    2630    2631    2632    2626    2621    2622    2617
    2626    2621    2622    2623    2626    2625    2630    2629
    2626    2625    2630    2631    2626    2627    2628    2631
    2626    2627    2628    2805    2627    2624    2801    2802
    2627    2624    2801    2806    2627    2628    2631    2630
    2627    2628    2631    2632    2627    2628    2805    2806
    2627    2628    2805    2810    2628    2631    2632    2635
    2628    2631    2632    2809    2628    2805    2806    2801
    2628    2805    2806    2807    2628    2805    2810    2809
    2628    2805    2810    2811    2629    2452    2455    2454
    2629    2452    2455    2456    2629    2630    2631    2628
    2629    2630    2631    2632    2629    2634    2635    2632
    2629    2634    2635    2636    2630    2625    2626    2621
    2630    2625    2626    2627    2630    2629    2634    2633
    2630    2629    2634    2635    2630    2631    2632    2635
    2630    2631    2632    2809    2631    2628    2805    2806
    2631    2628    2805    2810    2631    2632    2635    2634
    2631    2632    2635    2636    2631    2632    2809    2814
    2631    2632    2809    2810    2632    2635    2636    2639
    2632    2635    2636    2813    2632    2809    2814    2813
    2632    2809    2814    2815    2632    2809    2810    2805
    2632    2809    2810    2811    2633    2456    2459    2458
    2633    2456    2459    2460    2633    2634    2635    2632
    2633    2634    2635    2636    2633    2638    2639    2636
    2633    2638    2639    2640    2634    2629    2630    2625
    2634    2629    2630    2631    2634    2633    2638    2637
    2634    2633    2638    2639    2634    2635    2636    2639
    2634    2635    2636    2813    2635    2632    2809    2814
    2635    2632    2809    2810    2635    2636    2639    2638
    2635    2636    2639    2640    2635    2636    2813    2818
    2635    2636    2813    2814    2636    2639    2640    2643
    2636    2639    2640    2817    2636    2813    2818    2817
    2636    2813    2818    2819    2636    2813    2814    2809
    2636    2813    2814    2815    2637    2460    2463    2462
    2637    2460    2463    2464    2637    2638    2639    2636
    2637    2638    2639    2640    2637    2642    2643    2640
    2637    2642    2643    2644    2638    2633    2634    2629
    2638    2633    2634    2635    2638    2637    2642    2641
    2638    2637    2642    2643    2638    2639    2640    2643
    2638    2639    2640    2817    2639    2636    2813    2818
    2639    2636    2813    2814    2639    2640    2643    2642
    2639    2640    2643    2644    2639    2640    2817    2822
    2639    2640    2817    2818    2640    2643    2644    2647
    2640    2643    2644    2821    2640    2817    2822    2821
    2640    2817    2822    2823    2640    2817    2818    2813
    2640    2817    2818    2819    2641    2464    2467    2466
    2641    2464    2467    2468    2641    2642    2643    2640
    2641    2642    2643    2644    2641    2646    2647    2644
    2641    2646    2647    2648    2642    2637    2638    2633
    2642    2637    2638    2639    2642    2641    2646    2645
    2642    2641    2646    2647    2642    2643    2644    2647
    2642    2643    2644    2821    2643    2640    2817    2822
    2643    2640    2817    2818    2643    2644    2647    2646
    2643    2644    2647    2648    2643    2644    2821    2822
    2643    2644    2821    2826    2644    2647    2648    2651
    2644    2647    2648    2825    2644    2821    2822    2817
    2644    2821    2822    2823    2644    2821    2826    2825
    2644    2821    2826    2827    2645    2468    2471    2470
    2645    2468    2471    2472    2645    2646    2647    2644
    2645    2646    2647    2648    2645    2650    2651    2648
    2645    2650    2651    2652    2646    2641    2642    2637
    2646    2641    2642    2643    2646    2645    2650    2649
    2646    2645    2650    2651    2646    2647    2648    2651
    2646    2647    2648    2825    2647    2644    2821    2822
    2647    2644    2821    2826    2647    2648    2651    2650
    2647    2648    2651    2652    2647    2648    2825    2826
    2647    2648    2825    2830    2648    2651    2652    2655
    2648    2651    2652    2829    2648    2825    2826    2821
    2648    2825    2826    2827    2648    2825    2830    2829
    2648    2825    2830    2831    2649    2472    2475    2474
    2649    2472    2475    2476    2649    2650    2651    2648
    2649    2650    2651    2652    2649    2654    2655    2652
    2649    2654    2655    2656    2650    2645    2646    2641
    2650    2645    2646    2647    2650    2649    2654    2653
    2650    2649    2654    2655    2650    2651    2652    2655
    2650    2651    2652    2829    2651    2648    2825    2826
    2651    2648    2825    2830    2651    2652    2655    2654
    2651    2652    2655    2656    2651    2652    2829    2834
    2651    2652    2829    2830    2652    2655    2656    2659
    2652    2655    2656    2833    2652    2829    2834    2833
    2652    2829    2834    2835    2652    2829    2830    2825
    2652    2829    2830    2831    2653    2476    2479    2478
    2653    2476    2479    2480    2653    2654    2655    2652
    2653    2654    2655    2656    2653    2658    2659    2656
    2653    2658    2659    2660    2654    2649    2650    2645
    2654    2649    2650    2651    2654    2653    2658    2657
    2654    2653    2658    2659    2654    2655    2656    2659
    2654    2655    2656    2833    2655    2652    2829    2834
    2655    2652    2829    2830    2655    2656    2659    2658
    2655    2656    2659    2660    2655    2656    2833    2838
    2655    2656    2833    2834    2656    2659    2660    2663
    2656    2659    2660    2837    2656    2833    2838    2837
    2656    2833    2838    2839    2656    2833    2834    2829
    2656    2833    2834    2835    2657    2480    2483    2482
    2657    2480    2483    2484    2657    2658    2659    2656
    2657    2658    2659    2660    2657    2662    2663    2660
    2657    2662    2663    2664    2658    2653    2654    2649
    2658    2653    2654    2655    2658    2657    2662    2661
    2658    2657    2662    2663    2658    2659    2660    2663
    2658    2659    2660    2837    2659    2656    2833    2838
    2659    2656    2833    2834    2659    2660    2663    2662
    2659    2660    2663    2664    2659    2660    2837    2842
    2659    2660    2837    2838    2660    2663    2664    2667
    2660    2663    2664    2841    2660    2837    2842    2841
    2660    2837    2842    2843    2660    2837    2838    2833
    2660    2837    2838    2839    2661    2484    2487    2486
    2661    2484    2487    2488    2661    2662    2663    2660
    2661    2662    2663    2664    2661    2666    2667    2664
    2661    2666    2667    2668    2662    2657    2658    2653
    2662    2657    2658    2659    2662    2661    2666    2665
    2662    2661    2666    2667    2662    2663    2664    2667
    2662    2663    2664    2841    2663    2660    2837    2842
    2663    2660    2837    2838    2663    2664    2667    2666
    2663    2664    2667    2668    2663    2664    2841    2842
    2663    2664    2841    2846    2664    2667    2668    2671
    2664    2667    2668    2845    2664    2841    2842    2837
    2664    2841    2842    2843    2664    2841    2846    2845
    2664    2841    2846    2847    2665    2488    2491    2490
    2665    2488    2491    2492    2665    2666    2667    2664
    2665    2666    2667    2668    2665    2670    2671    2668
    2665    2670    2671    2672    2666    2661    2662    2657
    2666    2661    2662    2663    2666    2665    2670    2669
    2666    2665    2670    2671    2666    2667    2668    2671
    2666    2667    2668    2845    2667    2664    2841    2842
    2667    2664    2841    2846    2667    2668    2671    2670
    2667    2668    2671    2672    2667    2668    2845    2846
    2667    2668    2845    2850    2668    2671    2672    2675
    2668    2671    2672    2849    2668    2845    2846    2841
    2668    2845    2846    2847    2668    2845    2850    2849
    2668    2845    2850    2851    2669    2492    2495    2494
    2669    2492    2495    2496    2669    2670    2671    2668
    2669    2670    2671    2672    2669    2674    2675    2672
    2669    2674    2675    2676    2670    2665    2666    2661
    2670    2665    2666    2667    2670    2669    2674    2673
    2670    2669    2674    2675    2670    2671    2672    2675
    2670    2671    2672    2849    2671    2668    2845    2846
    2671    2668    2845    2850    2671    2672    2675    2674
    2671    2672    2675    2676    2671    2672    2849    2854
    2671    2672    2849    2850    2672    2675    2676    2679
    2672    2675    2676    2853    2672    2849    2854    2853
    2672    2849    2854    2855    2672    2849    2850    2845
    2672    2849    2850    2851    2673    2496    2499    2498
    2673    2496    2499    2500    2673    2674    2675    2672
    2673    2674    2675    2676    2673    2678    2679    2676
    2673    2678    2679    2680    2674    2669    2670    2665
    2674    2669    2670    2671    2674    2673    2678    2677
    2674    2673    2678    2679    2674    2675    2676    2679
    2674    2675    2676    2853    2675    2672    2849    2854
    2675    2672    2849    2850    2675    2676    2679    2678
    2675    2676    2679    2680    2675    2676    2853    2854
    2675    2676    2853    2858    2676    2679    2680    2683
    2676    2679    2680    2857    2676    2853    2854    2849
    2676    2853    2854    2855    2676    2853    2858    2857
    2676    2853    2858    2859    2677    2500    2503    2502
    2677    2500    2503    2504    2677    2678    2679    2676
    2677    2678    2679    2680    2677    2682    2683    2680
    2677    2682    2683    2684    2678    2673    2674    2669
    2678    2673    2674    2675    2678    2677    2682    2681
    2678    2677    2682    2683    2678    2679    2680    2683
    2678    2679    2680    2857    2679    2676    2853    2854
    2679    2676    2853    2858    2679    2680    2683    2682
    2679    2680    2683    2684    2679    2680    2857    2862
    2679    2680    2857    2858    2680    2683    2684    2687
    2680    2683    2684    2861    2680    2857    2862    2861
    2680    2857    2862    2863    2680    2857    2858    2853
    2680    2857    2858    2859    2681    2504    2507    2506
    2681    2504    2507    2508    2681    2682    2683    2680
    2681    2682    2683    2684    2681    2686    2687    2684
    2681    2686    2687    2688    2682    2677    2678    2673
    2682    2677    2678    2679    2682    2681    2686    2685
    2682    2681    2686    2687    2682    2683    2684    2687
    2682    2683    2684    2861    2683    2680    2857    2862
    2683    2680    2857    2858    2683    2684    2687    2686
    2683    2684    2687    2688    2683    2684    2861    2862
    2683    2684    2861    2866    2684    2687    2688    2691
    2684    2687    2688    2865    2684    2861    2862    2857
    2684    2861    2862    2863    2684    2861    2866    2865
    2684    2861    2866    2867    2685    2508    2511    2510
    2685    2508    2511    2512    2685    2686    2687    2684
    2685    2686    2687    2688    2685    2690    2691    2688
    2685    2690    2691    2692    2686    2681    2682    2677
    2686    2681    2682    2683    2686    2685    2690    2689
    2686    2685    2690    2691    2686    2687    2688    2691
    2686    2687    2688    2865    2687    2684    2861    2862
    2687    2684    2861    2866    2687    2688    2691    2690
    2687    2688    2691    2692    2687    2688    2865    2866
    2687    2688    2865    2870    2688    2691    2692    2695
    2688    2691    2692    2869    2688    2865    2866    2861
    2688    2865    2866    2867    2688    2865    2870    2869
    2688    2865    2870    2871    2689    2512    2515    2514
    2689    2512    2515    2516    2689    2690    2691    2688
    2689    2690    2691    2692    2689    2694    2695    2692
    2689    2694    2695    2696    2690    2685    2686    2681
    2690    2685    2686    2687    2690    2689    2694    2693
    2690    2689    2694    2695    2690    2691    2692    2695
    2690    2691    2692    2869    2691    2688    2865    2866
    2691    2688    2865    2870    2691    2692    2695    2694
    2691    2692    2695    2696    2691    2692    2869    2874
    2691    2692    2869    2870    2692    2695    2696    2699
    2692    2695    2696    2873    2692    2869    2874    2873
    2692    2869    2874    2875    2692    2869    2870    2865
    2692    2869    2870    2871    2693    2516    2519    2518
    2693    2516    2519    2520    2693    2694    2695    2692
    2693    2694    2695    2696    2693    2698    2699    2696
    2693    2698    2699    2700    2694    2689    2690    2685
    2694    2689    2690    2691    2694    2693    2698    2697
    2694    2693    2698    2699    2694    2695    2696    2699
    2694    2695    2696    2873    2695    2692    2869    2874
    2695    2692    2869    2870    2695    2696    2699    2698
    2695    2696    2699    2700    2695    2696    2873    2878
    2695    2696    2873    2874    2696    2699    2700    2877
    2696    2873    2878    2877    2696    2873    2878    2879
    2696    2873    2874    2869    2696    2873    2874    2875
    2697    2698    2699    2696    2697    2698    2699    2700
    2698    2693    2694    2689    2698    2693    2694    2695
    2698    2699    2700    2877    2699    2696    2873    2878
    2699    2696    2873    2874    2699    2700    2877    2878
    2700    2877    2878    2873    2700    2877    2878    2879
    2701    2524    2527    2526    2701    2524    2527    2528
    2701    2702    2703    2704    2701    2706    2707    2704
    2701    2706    2707    2708    2702    2701    2706    2705
    2702    2701    2706    2707    2702    2703    2704    2707
    2702    2703    2704    2881    2703    2704    2707    2706
    2703    2704    2707    2708    2703    2704    2881    2882
    2703    2704    2881    2886    2704    2707    2708    2711
    2704    2707    2708    2885    2704    2881    2882    2883
    2704    2881    2886    2885    2704    2881    2886    2887
    2705    2528    2531    2530    2705    2528    2531    2532
    2705    2706    2707    2704    2705    2706    2707    2708
    2705    2710    2711    2708    2705    2710    2711    2712
    2706    2701    2702    2703    2706    2705    2710    2709
    2706    2705    2710    2711    2706    2707    2708    2711
    2706    2707    2708    2885    2707    2704    2881    2882
    2707    2704    2881    2886    2707    2708    2711    2710
    2707    2708    2711    2712    2707    2708    2885    2886
    2707    2708    2885    2890    2708    2711    2712    2715
    2708    2711    2712    2889    2708    2885    2886    2881
    2708    2885    2886    2887    2708    2885    2890    2889
    2708    2885    2890    2891    2709    2532    2535    2534
    2709    2532    2535    2536    2709    2710    2711    2708
    2709    2710    2711    2712    2709    2714    2715    2712
    2709    2714    2715    2716    2710    2705    2706    2701
    2710    2705    2706    2707    2710    2709    2714    2713
    2710    2709    2714    2715    2710    2711    2712    2715
    2710    2711    2712    2889    2711    2708    2885    2886
    2711    2708    2885    2890    2711    2712    2715    2714
    2711    2712    2715    2716    2711    2712    2889    2894
    2711    2712    2889    2890    2712    2715    2716    2719
    2712    2715    2716    2893    2712    2889    2894    2893
    2712    2889    2894    2895    2712    2889    2890    2885
    2712    2889    2890    2891    2713    2536    2539    2538
    2713    2536    2539    2540    2713    2714    2715    2712
    2713    2714    2715    2716    2713    2718    2719    2716
    2713    2718    2719    2720    2714    2709    2710    2705
    2714    2709    2710    2711    2714    2713    2718    2717
    2714    2713    2718    2719    2714    2715    2716    2719
    2714    2715    2716    2893    2715    2712    2889    2894
    2715    2712    2889    2890    2715    2716    2719    2718
    2715    2716    2719    2720    2715    2716    2893    2898
    2715    2716    2893    2894    2716    2719    2720    2723
    2716    2719    2720    2897    2716    2893    2898    2897
    2716    2893    2898    2899    2716    2893    2894    2889
    2716    2893    2894    2895    2717    2540    2543    2542
    2717    2540    2543    2544    2717    2718    2719    2716
    2717    2718    2719    2720    2717    2722    2723    2720
    2717    2722    2723    2724    2718    2713    2714    2709
    2718    2713    2714    2715    2718    2717    2722    2721
    2718    2717    2722    2723    2718    2719    2720    2723
    2718    2719    2720    2897    2719    2716    2893    2898
    2719    2716    2893    2894    2719    2720    2723    2722
    2719    2720    2723    2724    2719    2720    2897    2902
    2719    2720    2897    2898    2720    2723    2724    2727
    2720    2723    2724    2901    2720    2897    2902    2901
    2720    2897    2902    2903    2720    2897    2898    2893
    2720    2897    2898    2899    2721    2544    2547    2546
    2721    2544    2547    2548    2721    2722    2723    2720
    2721    2722    2723    2724    2721    2726    2727    2724
    2721    2726    2727    2728    2722    2717    2718    2713
    2722    2717    2718    2719    2722    2721    2726    2725
    2722    2721    2726    2727    2722    2723    2724    2727
    2722    2723    2724    2901    2723    2720    2897    2902
    2723    2720    2897    2898    2723    2724    2727    2726
    2723    2724    2727    2728    2723    2724    2901    2902
    2723    2724    2901    2906    2724    2727    2728    2731
    2724    2727    2728    2905    2724    2901    2902    2897
    2724    2901    2902    2903    2724    2901    2906    2905
    2724    2901    2906    2907    2725    2548    2551    2550
    2725    2548    2551    2552    2725    2726    2727    2724
    2725    2726    2727    2728    2725    2730    2731    2728
    2725    2730    2731    2732    2726    2721    2722    2717
    2726    2721    2722    2723    2726    2725    2730    2729
    2726    2725    2730    2731    2726    2727    2728    2731
    2726    2727    2728    2905    2727    2724    2901    2902
    2727    2724    2901    2906    2727    2728    2731    2730
    2727    2728    2731    2732    2727    2728    2905    2906
    2727    2728    2905    2910    2728    2731    2732    2735
    2728    2731    2732    2909    2728    2905    2906    2901
    2728    2905    2906    2907    2728    2905    2910    2909
    2728    2905    2910    2911    2729    2552    2555    2554
    2729    2552    2555    2556    2729    2730    2731    2728
    2729    2730    2731    2732    2729    2734    2735    2732
    2729    2734    2735    2736    2730    2725    2726    2721
    2730    2725    2726    2727    2730    2729    2734    2733
    2730    2729    2734    2735    2730    2731    2732    2735
    2730    2731    2732    2909    2731    2728    2905    2906
    2731    2728    2905    2910    2731    2732    2735    2734
    2731    2732    2735    2736    2731    2732    2909    2914
    2731    2732    2909    2910    2732    2735    2736    2739
    2732    2735    2736    2913    2732    2909    2914    2913
    2732    2909    2914    2915    2732    2909    2910    2905
    2732    2909    2910    2911    2733    2556    2559    2558
    2733    2556    2559    2560    2733    2734    2735    2732
    2733    2734    2735    2736    2733    2738    2739    2736
    2733    2738    2739    2740    2734    2729    2730    2725
    2734    2729    2730    2731    2734    2733    2738    2737
    2734    2733    2738    2739    2734    2735    2736    2739
    2734    2735    2736    2913    2735    2732    2909    2914
    2735    2732    2909    2910    2735    2736    2739    2738
    2735    2736    2739    2740    2735    2736    2913    2918
    2735    2736    2913    2914    2736    2739    2740    2743
    2736    2739    2740    2917    2736    2913    2918    2917
    2736    2913    2918    2919    2736    2913    2914    2909
    2736    2913    2914    2915    2737    2560    2563    2562
    2737    2560    2563    2564    2737    2738    2739    2736
    2737    2738    2739    2740    2737    2742    2743    2740
    2737    2742    2743    2744    2738    2733    2734    2729
    2738    2733    2734    2735    2738    2737    2742    2741
    2738    2737    2742    2743    2738    2739    2740    2743
    2738    2739    2740    2917    2739    2736    2913    2918
    2739    2736    2913    2914    2739    2740    2743    2742
    2739    2740    2743    2744    2739    2740    2917    2922
    2739    2740    2917    2918    2740    2743    2744    2747
    2740    2743    2744    2921    2740    2917    2922    2921
    2740    2917    2922    2923    2740    2917    2918    2913
    2740    2917    2918    2919    2741    2564    2567    2566
    2741    2564    2567    2568    2741    2742    2743    2740
    2741    2742    2743    2744    2741    2746    2747    2744
    2741    2746    2747    2748    2742    2737    2738    2733
    2742    2737    2738    2739    2742    2741    2746    2745
    2742    2741    2746    2747    2742    2743    2744    2747
    2742    2743    2744    2921    2743    2740    2917    2922
    2743    2740    2917    2918    2743    2744    2747    2746
    2743    2744    2747    2748    2743    2744    2921    2922
    2743    2744    2921    2926    2744    2747    2748    2751
    2744    2747    2748    2925    2744    2921    2922    2917
    2744    2921    2922    2923    2744    2921    2926    2925
    2744    2921    2926    2927    2745    2568    2571    2570
    2745    2568    2571    2572    2745    2746    2747    2744
    2745    2746    2747    2748    2745    2750    2751    2748
    2745    2750    2751    2752    2746    2741    2742    2737
    2746    2741    2742    2743    2746    2745    2750    2749
    2746    2745    2750    2751    2746    2747    2748    2751
    2746    2747    2748    2925    2747    2744    2921    2922
    2747    2744    2921    2926    2747    2748    2751    2750
    2747    2748    2751    2752    2747    2748    2925    2926
    2747    2748    2925    2930    2748    2751    2752    2755
    2748    2751    2752    2929    2748    2925    2926    2921
    2748    2925    2926    2927    2748    2925    2930    2929
    2748    2925    2930    2931    2749    2572    2575    2574
    2749    2572    2575    2576    2749    2750    2751    2748
    2749    2750    2751    2752    2749    2754    2755    2752
    2749    2754    2755    2756    2750    2745    2746    2741
    2750    2745    2746    2747    2750    2749    2754    2753
    2750    2749    2754    2755    2750    2751    2752    2755
    2750    2751    2752    2929    2751    2748    2925    2926
    2751    2748    2925    2930    2751    2752    2755    2754
    2751    2752    2755    2756    2751    2752    2929    2934
    2751    2752    2929    2930    2752    2755    2756    2759
    2752    2755    2756    2933    2752    2929    2934    2933
    2752    2929    2934    2935    2752    2929    2930    2925
    2752    2929    2930    2931    2753    2576    2579    2578
    2753    2576    2579    2580    2753    2754    2755    2752
    2753    2754    2755    2756    2753    2758    2759    2756
    2753    2758    2759    2760    2754    2749    2750    2745
    2754    2749    2750    2751    2754    2753    2758    2757
    2754    2753    2758    2759    2754    2755    2756    2759
    2754    2755    2756    2933    2755    2752    2929    2934
    2755    2752    2929    2930    2755    2756    2759    2758
    2755    2756    2759    2760    2755    2756    2933    2938
    2755    2756    2933    2934    2756    2759    2760    2763
    2756    2759    2760    2937    2756    2933    2938    2937
    2756    2933    2938    2939    2756    2933    2934    2929
    2756    2933    2934    2935    2757    2580    2583    2582
    2757    2580    2583    2584    2757    2758    2759    2756
    2757    2758    2759    2760    2757    2762    2763    2760
    2757    2762    2763    2764    2758    2753    2754    2749
    2758    2753    2754    2755    2758    2757    2762    2761
    2758    2757    2762    2763    2758    2759    2760    2763
    2758    2759    2760    2937    2759    2756    2933    2938
    2759    2756    2933    2934    2759    2760    2763    2762
    2759    2760    2763    2764    2759    2760    2937    2942
    2759    2760    2937    2938    2760    2763    2764    2767
    2760    2763    2764    2941    2760    2937    2942    2941
    2760    2937    2942    2943    2760    2937    2938    2933
    2760    2937    2938    2939    2761    2584    2587    2586
    2761    2584    2587    2588    2761    2762    2763    2760
    2761    2762    2763    2764    2761    2766    2767    2764
    2761    2766    2767    2768    2762    2757    2758    2753
    2762    2757    2758    2759    2762    2761    2766    2765
    2762    2761    2766    2767    2762    2763    2764    2767
    2762    2763    2764    2941    2763    2760    2937    2942
    2763    2760    2937    2938    2763    2764    2767    2766
    2763    2764    2767    2768    2763    2764    2941    2942
    2763    2764    2941    2946    2764    2767    2768    2771
    2764    2767    2768    2945    2764    2941    2942    2937
    2764    2941    2942    2943    2764    2941    2946    2945
    2764    2941    2946    2947    2765    2588    2591    2590
    2765    2588    2591    2592    2765    2766    2767    2764
    2765    2766    2767    2768    2765    2770    2771    2768
    2765    2770    2771    2772    2766    2761    2762    2757
    2766    2761    2762    2763    2766    2765    2770    2769
    2766    2765    2770    2771    2766    2767    2768    2771
    2766    2767    2768    2945    2767    2764    2941    2942
    2767    2764    2941    2946    2767    2768    2771    2770
    2767    2768    2771    2772    2767    2768    2945    2946
    2767    2768    2945    2950    2768    2771    2772    2775
    2768    2771    2772    2949    2768    2945    2946    2941
    2768    2945    2946    2947    2768    2945    2950    2949
    2768    2945    2950    2951    2769    2592    2595    2594
    2769    2592    2595    2596    2769    2770    2771    2768
    2769    2770    2771    2772    2769    2774    2775    2772
    2769    2774    2775    2776    2770    2765    2766    2761
    2770    2765    2766    2767    2770    2769    2774    2773
    2770    2769    2774    2775    2770    2771    2772    2775
    2770    2771    2772    2949    2771    2768    2945    2946
    2771    2768    2945    2950    2771    2772    2775    2774
    2771    2772    2775    2776    2771    2772    2949    2954
    2771    2772    2949    2950    2772    2775    2776    2779
    2772    2775    2776    2953    2772    2949    2954    2953
    2772    2949    2954    2955    2772    2949    2950    2945
    2772    2949    2950    2951    2773    2596    2599    2598
    2773    2596    2599    2600    2773    2774    2775    2772
    2773    2774    2775    2776    2773    2778    2779    2776
    2773    2778    2779    2780    2774    2769    2770    2765
    2774    2769    2770    2771    2774    2773    2778    2777
    2774    2773    2778    2779    2774    2775    2776    2779
    2774    2775    2776    2953    2775    2772    2949    2954
    2775    2772    2949    2950    2775    2776    2779    2778
    2775    2776    2779    2780    2775    2776    2953    2958
    2775    2776    2953    2954    2776    2779    2780    2783
    2776    2779    2780    2957    2776    2953    2958    2957
    2776    2953    2958    2959    2776    2953    2954    2949
    2776    2953    2954    2955    2777    2600    2603    2602
    2777    2600    2603    2604    2777    2778    2779    2776
    2777    2778    2779    2780    2777    2782    2783    2780
    2777    2782    2783    2784    2778    2773    2774    2769
    2778    2773    2774    2775    2778    2777    2782    2781
    2778    2777    2782    2783    2778    2779    2780    2783
    2778    2779    2780    2957    2779    2776    2953    2958
    2779    2776    2953    2954    2779    2780    2783    2782
    2779    2780    2783    2784    2779    2780    2957    2962
    2779    2780    2957    2958    2780    2783    2784    2787
    2780    2783    2784    2961    2780    2957    2962    2961
    2780    2957    2962    2963    2780    2957    2958    2953
    2780    2957    2958    2959    2781    2604    2607    2606
    2781    2604    2607    2608    2781    2782    2783    2780
    2781    2782    2783    2784    2781    2786    2787    2784
    2781    2786    2787    2788    2782    2777    2778    2773
    2782    2777    2778    2779    2782    2781    2786    2785
    2782    2781    2786    2787    2782    2783    2784    2787
    2782    2783    2784    2961    2783    2780    2957    2962
    2783    2780    2957    2958    2783    2784    2787    2786
    2783    2784    2787    2788    2783    2784    2961    2962
    2783    2784    2961    2966    2784    2787    2788    2791
    2784    2787    2788    2965    2784    2961    2962    2957
    2784    2961    2962    2963    2784    2961    2966    2965
    2784    2961    2966    2967    2785    2608    2611    2610
    2785    2608    2611    2612    2785    2786    2787    2784
    2785    2786    2787    2788    2785    2790    2791    2788
    2785    2790    2791    2792    2786    2781    2782    2777
    2786    2781    2782    2783    2786    2785    2790    2789
    2786    2785    2790    2791    2786    2787    2788    2791
    2786    2787    2788    2965    2787    2784    2961    2962
    2787    2784    2961    2966    2787    2788    2791    2790
    2787    2788    2791    2792    2787    2788    2965    2966
    2787    2788    2965    2970    2788    2791    2792    2795
    2788    2791    2792    2969    2788    2965    2966    2961
    2788    2965    2966    2967    2788    2965    2970    2969
    2788    2965    2970    2971    2789    2612    2615    2614
    2789    2612    2615    2616    2789    2790    2791    2788
    2789    2790    2791    2792    2789    2794    2795    2792
    2789    2794    2795    2796    2790    2785    2786    2781
    2790    2785    2786    2787    2790    2789    2794    2793
    2790    2789    2794    2795    2790    2791    2792    2795
    2790    2791    2792    2969    2791    2788    2965    2966
    2791    2788    2965    2970    2791    2792    2795    2794
    2791    2792    2795    2796    2791    2792    2969    2974
    2791    2792    2969    2970    2792    2795    2796    2799
    2792    2795    2796    2973    2792    2969    2974    2973
    2792    2969    2974    2975    2792    2969    2970    2965
    2792    2969    2970    2971    2793    2616    2619    2618
    2793    2616    2619    2620    2793    2794    2795    2792
    2793    2794    2795    2796    2793    2798    2799    2796
    2793    2798    2799    2800    2794    2789    2790    2785
    2794    2789    2790    2791    2794    2793    2798    2797
    2794    2793    2798    2799    2794    2795    2796    2799
    2794    2795    2796    2973    2795    2792    2969    2974
    2795    2792    2969    2970    2795    2796    2799    2798
    2795    2796    2799    2800    2795    2796    2973    2978
    2795    2796    2973    2974    2796    2799    2800    2803
    2796    2799    2800    2977    2796    2973    2978    2977
    2796    2973    2978    2979    2796    2973    2974    2969
    2796    2973    2974    2975    2797    2620    2623    2622
    2797    2620    2623    2624    2797    2798    2799    2796
    2797    2798    2799    2800    2797    2802    2803    2800
    2797    2802    2803    2804    2798    2793    2794    2789
    2798    2793    2794    2795    2798    2797    2802    2801
    2798    2797    2802    2803    2798    2799    2800    2803
    2798    2799    2800    2977    2799    2796    2973    2978
    2799    2796    2973    2974    2799    2800    2803    2802
    2799    2800    2803    2804    2799    2800    2977    2982
    2799    2800    2977    2978    2800    2803    2804    2807
    2800    2803    2804    2981    2800    2977    2982    2981
    2800    2977    2982    2983    2800    2977    2978    2973
    2800    2977    2978    2979    2801    2624    2627    2626
    2801    2624    2627    2628    2801    2802    2803    2800
    2801    2802    2803    2804    2801    2806    2807    2804
    2801    2806    2807    2808    2802    2797    2798    2793
    2802    2797    2798    2799    2802    2801    2806    2805
    2802    2801    2806    2807    2802    2803    2804    2807
    2802    2803    2804    2981    2803    2800    2977    2982
    2803    2800    2977    2978    2803    2804    2807    2806
    2803    2804    2807    2808    2803    2804    2981    2982
    2803    2804    2981    2986    2804    2807    2808    2811
    2804    2807    2808    2985    2804    2981    2982    2977
    2804    2981    2982    2983    2804    2981    2986    2985
    2804    2981    2986    2987    2805    2628    2631    2630
    2805    2628    2631    2632    2805    2806    2807    2804
    2805    2806    2807    2808    2805    2810    2811    2808
    2805    2810    2811    2812    2806    2801    2802    2797
    2806    2801    2802    2803    2806    2805    2810    2809
    2806    2805    2810    2811    2806    2807    2808    2811
    2806    2807    2808    2985    2807    2804    2981    2982
    2807    2804    2981    2986    2807    2808    2811    2810
    2807    2808    2811    2812    2807    2808    2985    2986
    2807    2808    2985    2990    2808    2811    2812    2815
    2808    2811    2812    2989    2808    2985    2986    2981
    2808    2985    2986    2987    2808    2985    2990    2989
    2808    2985    2990    2991    2809    2632    2635    2634
    2809    2632    2635    2636    2809    2810    2811    2808
    2809    2810    2811    2812    2809    2814    2815    2812
    2809    2814    2815    2816    2810    2805    2806    2801
    2810    2805    2806    2807    2810    2809    2814    2813
    2810    2809    2814    2815    2810    2811    2812    2815
    2810    2811    2812    2989    2811    2808    2985    2986
    2811    2808    2985    2990    2811    2812    2815    2814
    2811    2812    2815    2816    2811    2812    2989    2994
    2811    2812    2989    2990    2812    2815    2816    2819
    2812    2815    2816    2993    2812    2989    2994    2993
    2812    2989    2994    2995    2812    2989    2990    2985
    2812    2989    2990    2991    2813    2636    2639    2638
    2813    2636    2639    2640    2813    2814    2815    2812
    2813    2814    2815    2816    2813    2818    2819    2816
    2813    2818    2819    2820    2814    2809    2810    2805
    2814    2809    2810    2811    2814    2813    2818    2817
    2814    2813    2818    2819    2814    2815    2816    2819
    2814    2815    2816    2993    2815    2812    2989    2994
    2815    2812    2989    2990    2815    2816    2819    2818
    2815    2816    2819    2820    2815    2816    2993    2998
    2815    2816    2993    2994    2816    2819    2820    2823
    2816    2819    2820    2997    2816    2993    2998    2997
    2816    2993    2998    2999    2816    2993    2994    2989
    2816    2993    2994    2995    2817    2640    2643    2642
    2817    2640    2643    2644    2817    2818    2819    2816
    2817    2818    2819    2820    2817    2822    2823    2820
    2817    2822    2823    2824    2818    2813    2814    2809
    2818    2813    2814    2815    2818    2817    2822    2821
    2818    2817    2822    2823    2818    2819    2820    2823
    2818    2819    2820    2997    2819    2816    2993    2998
    2819    2816    2993    2994    2819    2820    2823    2822
    2819    2820    2823    2824    2819    2820    2997    3002
    2819    2820    2997    2998    2820    2823    2824    2827
    2820    2823    2824    3001    2820    2997    3002    3001
    2820    2997    3002    3003    2820    2997    2998    2993
    2820    2997    2998    2999    2821    2644    2647    2646
    2821    2644    2647    2648    2821    2822    2823    2820
    2821    2822    2823    2824    2821    2826    2827    2824
    2821    2826    2827    2828    2822    2817    2818    2813
    2822    2817    2818    2819    2822    2821    2826    2825
    2822    2821    2826    2827    2822    2823    2824    2827
    2822    2823    2824    3001    2823    2820    2997    3002
    2823    2820    2997    2998    2823    2824    2827    2826
    2823    2824    2827    2828    2823    2824    3001    3002
    2823    2824    3001    3006    2824    2827    2828    2831
    2824    2827    2828    3005    2824    3001    3002    2997
    2824    3001    3002    3003    2824    3001    3006    3005
    2824    3001    3006    3007    2825    2648    2651    2650
    2825    2648    2651    2652    2825    2826    2827    2824
    2825    2826    2827    2828    2825    2830    2831    2828
    2825    2830    2831    2832    2826    2821    2822    2817
    2826    2821    2822    2823    2826    2825    2830    2829
    2826    2825    2830    2831    2826    2827    2828    2831
    2826    2827    2828    3005    2827    2824    3001    3002
    2827    2824    3001    3006    2827    2828    2831    2830
    2827    2828    2831    2832    2827    2828    3005    3006
    2827    2828    3005    3010    2828    2831    2832    2835
    2828    2831    2832    3009    2828    3005    3006    3001
    2828    3005    3006    3007    2828    3005    3010    3009
    2828    3005    3010    3011    2829    2652    2655    2654
    2829    2652    2655    2656    2829    2830    2831    2828
    2829    2830    2831    2832    2829    2834    2835    2832
    2829    2834    2835    2836    2830    2825    2826    2821
    2830    2825    2826    2827    2830    2829    2834    2833
    2830    2829    2834    2835    2830    2831    2832    2835
    2830    2831    2832    3009    2831    2828    3005    3006
    2831    2828    3005    3010    2831    2832    2835    2834
    2831    2832    2835    2836    2831    2832    3009    3014
    2831    2832    3009    3010    2832    2835    2836    2839
    2832    2835    2836    3013    2832    3009    3014    3013
    2832    3009    3014    3015    2832    3009    3010    3005
    2832    3009    3010    3011    2833    2656    2659    2658
    2833    2656    2659    2660    2833    2834    2835    2832
    2833    2834    2835    2836    2833    2838    2839    2836
    2833    2838    2839    2840    2834    2829    2830    2825
    2834    2829    2830    2831    2834    2833    2838    2837
    2834    2833    2838    2839    2834    2835    2836    2839
    2834    2835    2836    3013    2835    2832    3009    3014
    2835    2832    3009    3010    2835    2836    2839    2838
    2835    2836    2839    2840    2835    2836    3013    3018
    2835    2836    3013    3014    2836    2839    2840    2843
    2836    2839    2840    3017    2836    3013    3018    3017
    2836    3013    3018    3019    2836    3013    3014    3009
    2836    3013    3014    3015    2837    2660    2663    2662
    2837    2660    2663    2664    2837    2838    2839    2836
    2837    2838    2839    2840    2837    2842    2843    2840
    2837    2842    2843    2844    2838    2833    2834    2829
    2838    2833    2834    2835    2838    2837    2842    2841
    2838    2837    2842    2843    2838    2839    2840    2843
    2838    2839    2840    3017    2839    2836    3013    3018
    2839    2836    3013    3014    2839    2840    2843    2842
    2839    2840    2843    2844    2839    2840    3017    3022
    2839    2840    3017    3018    2840    2843    2844    2847
    2840    2843    2844    3021    2840    3017    3022    3021
    2840    3017    3022    3023    2840    3017    3018    3013
    2840    3017    3018    3019    2841    2664    2667    2666
    2841    2664    2667    2668    2841    2842    2843    2840
    2841    2842    2843    2844    2841    2846    2847    2844
    2841    2846    2847    2848    2842    2837    2838    2833
    2842    2837    2838    2839    2842    2841    2846    2845
    2842    2841    2846    2847    2842    2843    2844    2847
    2842    2843    2844    3021    2843    2840    3017    3022
    2843    2840    3017    3018    2843    2844    2847    2846
    2843    2844    2847    2848    2843    2844    3021    3022
    2843    2844    3021    3026    2844    2847    2848    2851
    2844    2847    2848    3025    2844    3021    3022    3017
    2844    3021    3022    3023    2844    3021    3026    3025
    2844    3021    3026    3027    2845    2668    2671    2670
    2845    2668    2671    2672    2845    2846    2847    2844
    2845    2846    2847    2848    2845    2850    2851    2848
    2845    2850    2851    2852    2846    2841    2842    2837
    2846    2841    2842    2843    2846    2845    2850    2849
    2846    2845    2850    2851    2846    2847    2848    2851
    2846    2847    2848    3025    2847    2844    3021    3022
    2847    2844    3021    3026    2847    2848    2851    2850
    2847    2848    2851    2852    2847    2848    3025    3026
    2847    2848    3025    3030    2848    2851    2852    2855
    2848    2851    2852    3029    2848    3025    3026    3021
    2848    3025    3026    3027    2848    3025    3030    3029
    2848    3025    3030    3031    2849    2672    2675    2674
    2849    2672    2675    2676    2849    2850    2851    2848
    2849    2850    2851    2852    2849    2854    2855    2852
    2849    2854    2855    2856    2850    2845    2846    2841
    2850    2845    2846    2847    2850    2849    2854    2853
    2850    2849    2854    2855    2850    2851    2852    2855
    2850    2851    2852    3029    2851    2848    3025    3026
    2851    2848    3025    3030    2851    2852    2855    2854
    2851    2852    2855    2856    2851    2852    3029    3034
    2851    2852    3029    3030    2852    2855    2856    2859
    2852    2855    2856    3033    2852    3029    3034    3033
    2852    3029    3034    3035    2852    3029    3030    3025
    2852    3029    3030    3031    2853    2676    2679    2678
    2853    2676    2679    2680    2853    2854    2855    2852
    2853    2854    2855    2856    2853    2858    2859    2856
    2853    2858    2859    2860    2854    2849    2850    2845
    2854    2849    2850    2851    2854    2853    2858    2857
    2854    2853    2858    2859    2854    2855    2856    2859
    2854    2855    2856    3033    2855    2852    3029    3034
    2855    2852    3029    3030    2855    2856    2859    2858
    2855    2856    2859    2860    2855    2856    3033    3038
    2855    2856    3033    3034    2856    2859    2860    2863
    2856    2859    2860    3037    2856    3033    3038    3037
    2856    3033    3038    3039    2856    3033    3034    3029
    2856    3033    3034    3035    2857    2680    2683    2682
    2857    2680    2683    2684    2857    2858    2859    2856
    2857    2858    2859    2860    2857    2862    2863    2860
    2857    2862    2863    2864    2858    2853    2854    2849
    2858    2853    2854    2855    2858    2857    2862    2861
    2858    2857    2862    2863    2858    2859    2860    2863
    2858    2859    2860    3037    2859    2856    3033    3038
    2859    2856    3033    3034    2859    2860    2863    2862
    2859    2860    2863    2864    2859    2860    3037    3042
    2859    2860    3037    3038    2860    2863    2864    2867
    2860    2863    2864    3041    2860    3037    3042    3041
    2860    3037    3042    3043    2860    3037    3038    3033
    2860    3037    3038    3039    2861    2684    2687    2686
    2861    2684    2687    2688    2861    2862    2863    2860
    2861    2862    2863    2864    2861    2866    2867    2864
    2861    2866    2867    2868    2862    2857    2858    2853
    2862    2857    2858    2859    2862    2861    2866    2865
    2862    2861    2866    2867    2862    2863    2864    2867
    2862    2863    2864    3041    2863    2860    3037    3042
    2863    2860    3037    3038    2863    2864    2867    2866
    2863    2864    2867    2868    2863    2864    3041    3042
    2863    2864    3041    3046    2864    2867    2868    2871
    2864    2867    2868    3045    2864    3041    3042    3037
    2864    3041    3042    3043    2864    3041    3046    3045
    2864    3041    3046    3047    2865    2688    2691    2690
    2865    2688    2691    2692    2865    2866    2867    2864
    2865    2866    2867    2868    2865    2870    2871    2868
    2865    2870    2871    2872    2866    2861    2862    2857
    2866    2861    2862    2863    2866    2865    2870    2869
    2866    2865    2870    2871    2866    2867    2868    2871
    2866    2867    2868    3045    2867    2864    3041    3042
    2867    2864    3041    3046    2867    2868    2871    2870
    2867    2868    2871    2872    2867    2868    3045    3046
    2867    2868    3045    3050    2868    2871    2872    2875
    2868    2871    2872    3049    2868    3045    3046    3041
    2868    3045    3046    3047    2868    3045    3050    3049
    2868    3045    3050    3051    2869    2692    2695    2694
    2869    2692    2695    2696    2869    2870    2871    2868
    2869    2870    2871    2872    2869    2874    2875    2872
    2869    2874    2875    2876    2870    2865    2866    2861
    2870    2865    2866    2867    2870    2869    2874    2873
    2870    2869    2874    2875    2870    2871    2872    2875
    2870    2871    2872    3049    2871    2868    3045    3046
    2871    2868    3045    3050    2871    2872    2875    2874
    2871    2872    2875    2876    2871    2872    3049    3054
    2871    2872    3049    3050    2872    2875    2876    2879
    2872    2875    2876    3053    2872    3049    3054    3053
    2872    3049    3054    3055    2872    3049    3050    3045
    2872    3049    3050    3051    2873    2696    2699    2698
    2873    2696    2699    2700    2873    2874    2875    2872
    2873    2874    2875    2876    2873    2878    2879    2876
    2873    2878    2879    2880    2874    2869    2870    2865
    2874    2869    2870    2871    2874    2873    2878    2877
    2874    2873    2878    2879    2874    2875    2876    2879
    2874    2875    2876    3053    2875    2872    3049    3054
    2875    2872    3049    3050    2875    2876    2879    2878
    2875    2876    2879    2880    2875    2876    3053    3058
    2875    2876    3053    3054    2876    2879    2880    3057
    2876    3053    3058    3057    2876    3053    3058    3059
    2876    3053    3054    3049    2876    3053    3054    3055
    2877    2878    2879    2876    2877    2878    2879    2880
    2878    2873    2874    2869    2878    2873    2874    2875
    2878    2879    2880    3057    2879    2876    3053    3058
    2879    2876    3053    3054    2879    2880    3057    3058
    2880    3057    3058    3053    2880    3057    3058    3059
    2881    2704    2707    2706    2881    2704    2707    2708
    2881    2882    2883    2884    2881    2886    2887    2884
    2881    2886    2887    2888    2882    2881    2886    2885
    2882    2881    2886    2887    2882    2883    2884    2887
    2882    2883    2884    3061    2883    2884    2887    2886
    2883    2884    2887    2888    2883    2884    3061    3062
    2883    2884    3061    3066    2884    2887    2888    2891
    2884    2887    2888    3065    2884    3061    3062    3063
    2884    3061    3066    3065    2884    3061    3066    3067
    2885    2708    2711    2710    2885    2708    2711    2712
    2885    2886    2887    2884    2885    2886    2887    2888
    2885    2890    2891    2888    2885    2890    2891    2892
    2886    2881    2882    2883    2886    2885    2890    2889
    2886    2885    2890    2891    2886    2887    2888    2891
    2886    2887    2888    3065    2887    2884    3061    3062
    2887    2884    3061    3066    2887    2888    2891    2890
    2887    2888    2891    2892    2887    2888    3065    3066
    2887    2888    3065    3070    2888    2891    2892    2895
    2888    2891    2892    3069    2888    3065    3066    3061
    2888    3065    3066    3067    2888    3065    3070    3069
    2888    3065    3070    3071    2889    2712    2715    2714
    2889    2712    2715    2716    2889    2890    2891    2888
    2889    2890    2891    2892    2889    2894    2895    2892
    2889    2894    2895    2896    2890    2885    2886    2881
    2890    2885    2886    2887    2890    2889    2894    2893
    2890    2889    2894    2895    2890    2891    2892    2895
    2890    2891    2892    3069    2891    2888    3065    3066
    2891    2888    3065    3070    2891    2892    2895    2894
    2891    2892    2895    2896    2891    2892    3069    3074
    2891    2892    3069    3070    2892    2895    2896    2899
    2892    2895    2896    3073    2892    3069    3074    3073
    2892    3069    3074    3075    2892    3069    3070    3065
    2892    3069    3070    3071    2893    2716    2719    2718
    2893    2716    2719    2720    2893    2894    2895    2892
    2893    2894    2895    2896    2893    2898    2899    2896
    2893    2898    2899    2900    2894    2889    2890    2885
    2894    2889    2890    2891    2894    2893    2898    2897
    2894    2893    2898    2899    2894    2895    2896    2899
    2894    2895    2896    3073    2895    2892    3069    3074
    2895    2892    3069    3070    2895    2896    2899    2898
    2895    2896    2899    2900    2895    2896    3073    3078
    2895    2896    3073    3074    2896    2899    2900    2903
    2896    2899    2900    3077    2896    3073    3078    3077
    2896    3073    3078    3079    2896    3073    3074    3069
    2896    3073    3074    3075    2897    2720    2723    2722
    2897    2720    2723    2724    2897    2898    2899    2896
    2897    2898    2899    2900    2897    2902    2903    2900
    2897    2902    2903    2904    2898    2893    2894    2889
    2898    2893    2894    2895    2898    2897    2902    2901
    2898    2897    2902    2903    2898    2899    2900    2903
    2898    2899    2900    3077    2899    2896    3073    3078
    2899    2896    3073    3074    2899    2900    2903    2902
    2899    2900    2903    2904    2899    2900    3077    3082
    2899    2900    3077    3078    2900    2903    2904    2907
    2900    2903    2904    3081    2900    3077    3082    3081
    2900    3077    3082    3083    2900    3077    3078    3073
    2900    3077    3078    3079    2901    2724    2727    2726
    2901    2724    2727    2728    2901    2902    2903    2900
    2901    2902    2903    2904    2901    2906    2907    2904
    2901    2906    2907    2908    2902    2897    2898    2893
    2902    2897    2898    2899    2902    2901    2906    2905
    2902    2901    2906    2907    2902    2903    2904    2907
    2902    2903    2904    3081    2903    2900    3077    3082
    2903    2900    3077    3078    2903    2904    2907    2906
    2903    2904    2907    2908    2903    2904    3081    3082
    2903    2904    3081    3086    2904    2907    2908    2911
    2904    2907    2908    3085    2904    3081    3082    3077
    2904    3081    3082    3083    2904    3081    3086    3085
    2904    3081    3086    3087    2905    2728    2731    2730
    2905    2728    2731    2732    2905    2906    2907    2904
    2905    2906    2907    2908    2905    2910    2911    2908
    2905    2910    2911    2912    2906    2901    2902    2897
    2906    2901    2902    2903    2906    2905    2910    2909
    2906    2905    2910    2911    2906    2907    2908    2911
    2906    2907    2908    3085    2907    2904    3081    3082
    2907    2904    3081    3086    2907    2908    2911    2910
    2907    2908    2911    2912    2907    2908    3085    3086
    2907    2908    3085    3090    2908    2911    2912    2915
    2908    2911    2912    3089    2908    3085    3086    3081
    2908    3085    3086    3087    2908    3085    3090    3089
    2908    3085    3090    3091    2909    2732    2735    2734
    2909    2732    2735    2736    2909    2910    2911    2908
    2909    2910    2911    2912    2909    2914    2915    2912
    2909    2914    2915    2916    2910    2905    2906    2901
    2910    2905    2906    2907    2910    2909    2914    2913
    2910    2909    2914    2915    2910    2911    2912    2915
    2910    2911    2912    3089    2911    2908    3085    3086
    2911    2908    3085    3090    2911    2912    2915    2914
    2911    2912    2915    2916    2911    2912    3089    3094
    2911    2912    3089    3090    2912    2915    2916    2919
    2912    2915    2916    3093    2912    3089    3094    3093
    2912    3089    3094    3095    2912    3089    3090    3085
    2912    3089    3090    3091    2913    2736    2739    2738
    2913    2736    2739    2740    2913    2914    2915    2912
    2913    2914    2915    2916    2913    2918    2919    2916
    2913    2918    2919    2920    2914    2909    2910    2905
    2914    2909    2910    2911    2914    2913    2918    2917
    2914    2913    2918    2919    2914    2915    2916    2919
    2914    2915    2916    3093    2915    2912    3089    3094
    2915    2912    3089    3090    2915    2916    2919    2918
    2915    2916    2919    2920    2915    2916    3093    3094
    2915    2916    3093    3098    2916    2919    2920    2923
    2916    2919    2920    3097    2916    3093    3094    3089
    2916    3093    3094    3095    2916    3093    3098    3097
    2916    3093    3098    3099    2917    2740    2743    2742
    2917    2740    2743    2744    2917    2918    2919    2916
    2917    2918    2919    2920    2917    2922    2923    2920
    2917    2922    2923    2924    2918    2913    2914    2909
    2918    2913    2914    2915    2918    2917    2922    2921
    2918    2917    2922    2923    2918    2919    2920    2923
    2918    2919    2920    3097    2919    2916    3093    3094
    2919    2916    3093    3098    2919    2920    2923    2922
    2919    2920    2923    2924    2919    2920    3097    3102
    2919    2920    3097    3098    2920    2923    2924    2927
    2920    2923    2924    3101    2920    3097    3102    3101
    2920    3097    3102    3103    2920    3097    3098    3093
    2920    3097    3098    3099    2921    2744    2747    2746
    2921    2744    2747    2748    2921    2922    2923    2920
    2921    2922    2923    2924    2921    2926    2927    2924
    2921    2926    2927    2928    2922    2917    2918    2913
    2922    2917    2918    2919    2922    2921    2926    2925
    2922    2921    2926    2927    2922    2923    2924    2927
    2922    2923    2924    3101    2923    2920    3097    3102
    2923    2920    3097    3098    2923    2924    2927    2926
    2923    2924    2927    2928    2923    2924    3101    3102
    2923    2924    3101    3106    2924    2927    2928    2931
    2924    2927    2928    3105    2924    3101    3102    3097
    2924    3101    3102    3103    2924    3101    3106    3105
    2924    3101    3106    3107    2925    2748    2751    2750
    2925    2748    2751    2752    2925    2926    2927    2924
    2925    2926    2927    2928    2925    2930    2931    2928
    2925    2930    2931    2932    2926    2921    2922    2917
    2926    2921    2922    2923    2926    2925    2930    2929
    2926    2925    2930    2931    2926    2927    2928    2931
    2926    2927    2928    3105    2927    2924    3101    3102
    2927    2924    3101    3106    2927    2928    2931    2930
    2927    2928    2931    2932    2927    2928    3105    3106
    2927    2928    3105    3110    2928    2931    2932    2935
    2928    2931    2932    3109    2928    3105    3106    3101
    2928    3105    3106    3107    2928    3105    3110    3109
    2928    3105    3110    3111    2929    2752    2755    2754
    2929    2752    2755    2756    2929    2930    2931    2928
    2929    2930    2931    2932    2929    2934    2935    2932
    2929    2934    2935    2936    2930    2925    2926    2921
    2930    2925    2926    2927    2930    2929    2934    2933
    2930    2929    2934    2935    2930    2931    2932    2935
    2930    2931    2932    3109    2931    2928    3105    3106
    2931    2928    3105    3110    2931    2932    2935    2934
    2931    2932    2935    2936    2931    2932    3109    3114
    2931    2932    3109    3110    2932    2935    2936    2939
    2932    2935    2936    3113    2932    3109    3114    3113
    2932    3109    3114    3115    2932    3109    3110    3105
    2932    3109    3110    3111    2933    2756    2759    2758
    2933    2756    2759    2760    2933    2934    2935    2932
    2933    2934    2935    2936    2933    2938    2939    2936
    2933    2938    2939    2940    2934    2929    2930    2925
    2934    2929    2930    2931    2934    2933    2938    2937
    2934    2933    2938    2939    2934    2935    2936    2939
    2934    2935    2936    3113    2935    2932    3109    3114
    2935    2932    3109    3110    2935    2936    2939    2938
    2935    2936    2939    2940    2935    2936    3113    3118
    2935    2936    3113    3114    2936    2939    2940    2943
    2936    2939    2940    3117    2936    3113    3118    3117
    2936    3113    3118    3119    2936    3113    3114    3109
    2936    3113    3114    3115    2937    2760    2763    2762
    2937    2760    2763    2764    2937    2938    2939    2936
    2937    2938    2939    2940    2937    2942    2943    2940
    2937    2942    2943    2944    2938    2933    2934    2929
    2938    2933    2934    2935    2938    2937    2942    2941
    2938    2937    2942    2943    2938    2939    2940    2943
    2938    2939    2940    3117    2939    2936    3113    3118
    2939    2936    3113    3114    2939    2940    2943    2942
    2939    2940    2943    2944    2939    2940    3117    3122
    2939    2940    3117    3118    2940    2943    2944    2947
    2940    2943    2944    3121    2940    3117    3122    3121
    2940    3117    3122    3123    2940    3117    3118    3113
    2940    3117    3118    3119    2941    2764    2767    2766
    2941    2764    2767    2768    2941    2942    2943    2940
    2941    2942    2943    2944    2941    2946    2947    2944
    2941    2946    2947    2948    2942    2937    2938    2933
    2942    2937    2938    2939    2942    2941    2946    2945
    2942    2941    2946    2947    2942    2943    2944    2947
    2942    2943    2944    3121    2943    2940    3117    3122
    2943    2940    3117    3118    2943    2944    2947    2946
    2943    2944    2947    2948    2943    2944    3121    3122
    2943    2944    3121    3126    2944    2947    2948    2951
    2944    2947    2948    3125    2944    3121    3122    3117
    2944    3121    3122    3123    2944    3121    3126    3125
    2944    3121    3126    3127    2945    2768    2771    2770
    2945    2768    2771    2772    2945    2946    2947    2944
    2945    2946    2947    2948    2945    2950    2951    2948
    2945    2950    2951    2952    2946    2941    2942    2937
    2946    2941    2942    2943    2946    2945    2950    2949
    2946    2945    2950    2951    2946    2947    2948    2951
    2946    2947    2948    3125    2947    2944    3121    3122
    2947    2944    3121    3126    2947    2948    2951    2950
    2947    2948    2951    2952    2947    2948    3125    3126
    2947    2948    3125    3130    2948    2951    2952    2955
    2948    2951    2952    3129    2948    3125    3126    3121
    2948    3125    3126    3127    2948    3125    3130    3129
    2948    3125    3130    3131    2949    2772    2775    2774
    2949    2772    2775    2776    2949    2950    2951    2948
    2949    2950    2951    2952    2949    2954    2955    2952
    2949    2954    2955    2956    2950    2945    2946    2941
    2950    2945    2946    2947    2950    2949    2954    2953
    2950    2949    2954    2955    2950    2951    2952    2955
    2950    2951    2952    3129    2951    2948    3125    3126
    2951    2948    3125    3130    2951    2952    2955    2954
    2951    2952    2955    2956    2951    2952    3129    3134
    2951    2952    3129    3130    2952    2955    2956    2959
    2952    2955    2956    3133    2952    3129    3134    3133
    2952    3129    3134    3135    2952    3129    3130    3125
    2952    3129    3130    3131    2953    2776    2779    2778
    2953    2776    2779    2780    2953    2954    2955    2952
    2953    2954    2955    2956    2953    2958    2959    2956
    2953    2958    2959    2960    2954    2949    2950    2945
    2954    2949    2950    2951    2954    2953    2958    2957
    2954    2953    2958    2959    2954    2955    2956    2959
    2954    2955    2956    3133    2955    2952    3129    3134
    2955    2952    3129    3130    2955    2956    2959    2958
    2955    2956    2959    2960    2955    2956    3133    3138
    2955    2956    3133    3134    2956    2959    2960    2963
    2956    2959    2960    3137    2956    3133    3138    3137
    2956    3133    3138    3139    2956    3133    3134    3129
    2956    3133    3134    3135    2957    2780    2783    2782
    2957    2780    2783    2784    2957    2958    2959    2956
    2957    2958    2959    2960    2957    2962    2963    2960
    2957    2962    2963    2964    2958    2953    2954    2949
    2958    2953    2954    2955    2958    2957    2962    2961
    2958    2957    2962    2963    2958    2959    2960    2963
    2958    2959    2960    3137    2959    2956    3133    3138
    2959    2956    3133    3134    2959    2960    2963    2962
    2959    2960    2963    2964    2959    2960    3137    3142
    2959    2960    3137    3138    2960    2963    2964    2967
    2960    2963    2964    3141    2960    3137    3142    3141
    2960    3137    3142    3143    2960    3137    3138    3133
    2960    3137    3138    3139    2961    2784    2787    2786
    2961    2784    2787    2788    2961    2962    2963    2960
    2961    2962    2963    2964    2961    2966    2967    2964
    2961    2966    2967    2968    2962    2957    2958    2953
    2962    2957    2958    2959    2962    2961    2966    2965
    2962    2961    2966    2967    2962    2963    2964    2967
    2962    2963    2964    3141    2963    2960    3137    3142
    2963    2960    3137    3138    2963    2964    2967    2966
    2963    2964    2967    2968    2963    2964    3141    3142
    2963    2964    3141    3146    2964    2967    2968    2971
    2964    2967    2968    3145    2964    3141    3142    3137
    2964    3141    3142    3143    2964    3141    3146    3145
    2964    3141    3146    3147    2965    2788    2791    2790
    2965    2788    2791    2792    2965    2966    2967    2964
    2965    2966    2967    2968    2965    2970    2971    2968
    2965    2970    2971    2972    2966    2961    2962    2957
    2966    2961    2962    2963    2966    2965    2970    2969
    2966    2965    2970    2971    2966    2967    2968    2971
    2966    2967    2968    3145    2967    2964    3141    3142
    2967    2964    3141    3146    2967    2968    2971    2970
    2967    2968    2971    2972    2967    2968    3145    3146
    2967    2968    3145    3150    2968    2971    2972    2975
    2968    2971    2972    3149    2968    3145    3146    3141
    2968    3145    3146    3147    2968    3145    3150    3149
    2968    3145    3150    3151    2969    2792    2795    2794
    2969    2792    2795    2796    2969    2970    2971    2968
    2969    2970    2971    2972    2969    2974    2975    2972
    2969    2974    2975    2976    2970    2965    2966    2961
    2970    2965    2966    2967    2970    2969    2974    2973
    2970    2969    2974    2975    2970    2971    2972    2975
    2970    2971    2972    3149    2971    2968    3145    3146
    2971    2968    3145    3150    2971    2972    2975    2974
    2971    2972    2975    2976    2971    2972    3149    3154
    2971    2972    3149    3150    2972    2975    2976    2979
    2972    2975    2976    3153    2972    3149    3154    3153
    2972    3149    3154    3155    2972    3149    3150    3145
    2972    3149    3150    3151    2973    2796    2799    2798
    2973    2796    2799    2800    2973    2974    2975    2972
    2973    2974    2975    2976    2973    2978    2979    2976
    2973    2978    2979    2980    2974    2969    2970    2965
    2974    2969    2970    2971    2974    2973    2978    2977
    2974    2973    2978    2979    2974    2975    2976    2979
    2974    2975    2976    3153    2975    2972    3149    3154
    2975    2972    3149    3150    2975    2976    2979    2978
    2975    2976    2979    2980    2975    2976    3153    3158
    2975    2976    3153    3154    2976    2979    2980    2983
    2976    2979    2980    3157    2976    3153    3158    3157
    2976    3153    3158    3159    2976    3153    3154    3149
    2976    3153    3154    3155    2977    2800    2803    2802
    2977    2800    2803    2804    2977    2978    2979    2976
    2977    2978    2979    2980    2977    2982    2983    2980
    2977    2982    2983    2984    2978    2973    2974    2969
    2978    2973    2974    2975    2978    2977    2982    2981
    2978    2977    2982    2983    2978    2979    2980    2983
    2978    2979    2980    3157    2979    2976    3153    3158
    2979    2976    3153    3154    2979    2980    2983    2982
    2979    2980    2983    2984    2979    2980    3157    3162
    2979    2980    3157    3158    2980    2983    2984    2987
    2980    2983    2984    3161    2980    3157    3162    3161
    2980    3157    3162    3163    2980    3157    3158    3153
    2980    3157    3158    3159    2981    2804    2807    2806
    2981    2804    2807    2808    2981    2982    2983    2980
    2981    2982    2983    2984    2981    2986    2987    2984
    2981    2986    2987    2988    2982    2977    2978    2973
    2982    2977    2978    2979    2982    2981    2986    2985
    2982    2981    2986    2987    2982    2983    2984    2987
    2982    2983    2984    3161    2983    2980    3157    3162
    2983    2980    3157    3158    2983    2984    2987    2986
    2983    2984    2987    2988    2983    2984    3161    3162
    2983    2984    3161    3166    2984    2987    2988    2991
    2984    2987    2988    3165    2984    3161    3162    3157
    2984    3161    3162    3163    2984    3161    3166    3165
    2984    3161    3166    3167    2985    2808    2811    2810
    2985    2808    2811    2812    2985    2986    2987    2984
    2985    2986    2987    2988    2985    2990    2991    2988
    2985    2990    2991    2992    2986    2981    2982    2977
    2986    2981    2982    2983    2986    2985    2990    2989
    2986    2985    2990    2991    2986    2987    2988    2991
    2986    2987    2988    3165    2987    2984    3161    3162
    2987    2984    3161    3166    2987    2988    2991    2990
    2987    2988    2991    2992    2987    2988    3165    3166
    2987    2988    3165    3170    2988    2991    2992    2995
    2988    2991    2992    3169    2988    3165    3166    3161
    2988    3165    3166    3167    2988    3165    3170    3169
    2988    3165    3170    3171    2989    2812    2815    2814
    2989    2812    2815    2816    2989    2990    2991    2988
    2989    2990    2991    2992    2989    2994    2995    2992
    2989    2994    2995    2996    2990    2985    2986    2981
    2990    2985    2986    2987    2990    2989    2994    2993
    2990    2989    2994    2995    2990    2991    2992    2995
    2990    2991    2992    3169    2991    2988    3165    3166
    2991    2988    3165    3170    2991    2992    2995    2994
    2991    2992    2995    2996    2991    2992    3169    3174
    2991    2992    3169    3170    2992    2995    2996    2999
    2992    2995    2996    3173    2992    3169    3174    3173
    2992    3169    3174    3175    2992    3169    3170    3165
    2992    3169    3170    3171    2993    2816    2819    2818
    2993    2816    2819    2820    2993    2994    2995    2992
    2993    2994    2995    2996    2993    2998    2999    2996
    2993    2998    2999    3000    2994    2989    2990    2985
    2994    2989    2990    2991    2994    2993    2998    2997
    2994    2993    2998    2999    2994    2995    2996    2999
    2994    2995    2996    3173    2995    2992    3169    3174
    2995    2992    3169    3170    2995    2996    2999    2998
    2995    2996    2999    3000    2995    2996    3173    3178
    2995    2996    3173    3174    2996    2999    3000    3003
    2996    2999    3000    3177    2996    3173    3178    3177
    2996    3173    3178    3179    2996    3173    3174    3169
    2996    3173    3174    3175    2997    2820    2823    2822
    2997    2820    2823    2824    2997    2998    2999    2996
    2997    2998    2999    3000    2997    3002    3003    3000
    2997    3002    3003    3004    2998    2993    2994    2989
    2998    2993    2994    2995    2998    2997    3002    3001
    2998    2997    3002    3003    2998    2999    3000    3003
    2998    2999    3000    3177    2999    2996    3173    3178
    2999    2996    3173    3174    2999    3000    3003    3002
    2999    3000    3003    3004    2999    3000    3177    3182
    2999    3000    3177    3178    3000    3003    3004    3007
    3000    3003    3004    3181    3000    3177    3182    3181
    3000    3177    3182    3183    3000    3177    3178    3173
    3000    3177    3178    3179    3001    2824    2827    2826
    3001    2824    2827    2828    3001    3002    3003    3000
    3001    3002    3003    3004    3001    3006    3007    3004
    3001    3006    3007    3008    3002    2997    2998    2993
    3002    2997    2998    2999    3002    3001    3006    3005
    3002    3001    3006    3007    3002    3003    3004    3007
    3002    3003    3004    3181    3003    3000    3177    3182
    3003    3000    3177    3178    3003    3004    3007    3006
    3003    3004    3007    3008    3003    3004    3181    3182
    3003    3004    3181    3186    3004    3007    3008    3011
    3004    3007    3008    3185    3004    3181    3182    3177
    3004    3181    3182    3183    3004    3181    3186    3185
    3004    3181    3186    3187    3005    2828    2831    2830
    3005    2828    2831    2832    3005    3006    3007    3004
    3005    3006    3007    3008    3005    3010    3011    3008
    3005    3010    3011    3012    3006    3001    3002    2997
    3006    3001    3002    3003    3006    3005    3010    3009
    3006    3005    3010    3011    3006    3007    3008    3011
    3006    3007    3008    3185    3007    3004    3181    3182
    3007    3004    3181    3186    3007    3008    3011    3010
    3007    3008    3011    3012    3007    3008    3185    3186
    3007    3008    3185    3190    3008    3011    3012    3015
    3008    3011    3012    3189    3008    3185    3186    3181
    3008    3185    3186    3187    3008    3185    3190    3189
    3008    3185    3190    3191    3009    2832    2835    2834
    3009    2832    2835    2836    3009    3010    3011    3008
    3009    3010    3011    3012    3009    3014    3015    3012
    3009    3014    3015    3016    3010    3005    3006    3001
    3010    3005    3006    3007    3010    3009    3014    3013
    3010    3009    3014    3015    3010    3011    3012    3015
    3010    3011    3012    3189    3011    3008    3185    3186
    3011    3008    3185    3190    3011    3012    3015    3014
    3011    3012    3015    3016    3011    3012    3189    3194
    3011    3012    3189    3190    3012    3015    3016    3019
    3012    3015    3016    3193    3012    3189    3194    3193
    3012    3189    3194    3195    3012    3189    3190    3185
    3012    3189    3190    3191    3013    2836    2839    2838
    3013    2836    2839    2840    3013    3014    3015    3012
    3013    3014    3015    3016    3013    3018    3019    3016
    3013    3018    3019    3020    3014    3009    3010    3005
    3014    3009    3010    3011    3014    3013    3018    3017
    3014    3013    3018    3019    3014    3015    3016    3019
    3014    3015    3016    3193    3015    3012    3189    3194
    3015    3012    3189    3190    3015    3016    3019    3018
    3015    3016    3019    3020    3015    3016    3193    3198
    3015    3016    3193    3194    3016    3019    3020    3023
    3016    3019    3020    3197    3016    3193    3198    3197
    3016    3193    3198    3199    3016    3193    3194    3189
    3016    3193    3194    3195    3017    2840    2843    2842
    3017    2840    2843    2844    3017    3018    3019    3016
    3017    3018    3019    3020    3017    3022    3023    3020
    3017    3022    3023    3024    3018    3013    3014    3009
    3018    3013    3014    3015    3018    3017    3022    3021
    3018    3017    3022    3023    3018    3019    3020    3023
    3018    3019    3020    3197    3019    3016    3193    3198
    3019    3016    3193    3194    3019    3020    3023    3022
    3019    3020    3023    3024    3019    3020    3197    3202
    3019    3020    3197    3198    3020    3023    3024    3027
    3020    3023    3024    3201    3020    3197    3202    3201
    3020    3197    3202    3203    3020    3197    3198    3193
    3020    3197    3198    3199    3021    2844    2847    2846
    3021    2844    2847    2848    3021    3022    3023    3020
    3021    3022    3023    3024    3021    3026    3027    3024
    3021    3026    3027    3028    3022    3017    3018    3013
    3022    3017    3018    3019    3022    3021    3026    3025
    3022    3021    3026    3027    3022    3023    3024    3027
    3022    3023    3024    3201    3023    3020    3197    3202
    3023    3020    3197    3198    3023    3024    3027    3026
    3023    3024    3027    3028    3023    3024    3201    3202
    3023    3024    3201    3206    3024    3027    3028    3031
    3024    3027    3028    3205    3024    3201    3202    3197
    3024    3201    3202    3203    3024    3201    3206    3205
    3024    3201    3206    3207    3025    2848    2851    2850
    3025    2848    2851    2852    3025    3026    3027    3024
    3025    3026    3027    3028    3025    3030    3031    3028
    3025    3030    3031    3032    3026    3021    3022    3017
    3026    3021    3022    3023    3026    3025    3030    3029
    3026    3025    3030    3031    3026    3027    3028    3031
    3026    3027    3028    3205    3027    3024    3201    3202
    3027    3024    3201    3206    3027    3028    3031    3030
    3027    3028    3031    3032    3027    3028    3205    3206
    3027    3028    3205    3210    3028    3031    3032    3035
    3028    3031    3032    3209    3028    3205    3206    3201
    3028    3205    3206    3207    3028    3205    3210    3209
    3028    3205    3210    3211    3029    2852    2855    2854
    3029    2852    2855    2856    3029    3030    3031    3028
    3029    3030    3031    3032    3029    3034    3035    3032
    3029    3034    3035    3036    3030    3025    3026    3021
    3030    3025    3026    3027    3030    3029    3034    3033
    3030    3029    3034    3035    3030    3031    3032    3035
    3030    3031    3032    3209    3031    3028    3205    3206
    3031    3028    3205    3210    3031    3032    3035    3034
    3031    3032    3035    3036    3031    3032    3209    3214
    3031    3032    3209    3210    3032    3035    3036    3039
    3032    3035    3036    3213    3032    3209    3214    3213
    3032    3209    3214    3215    3032    3209    3210    3205
    3032    3209    3210    3211    3033    2856    2859    2858
    3033    2856    2859    2860    3033    3034    3035    3032
    3033    3034    3035    3036    3033    3038    3039    3036
    3033    3038    3039    3040    3034    3029    3030    3025
    3034    3029    3030    3031    3034    3033    3038    3037
    3034    3033    3038    3039    3034    3035    3036    3039
    3034    3035    3036    3213    3035    3032    3209    3214
    3035    3032    3209    3210    3035    3036    3039    3038
    3035    3036    3039    3040    3035    3036    3213    3218
    3035    3036    3213    3214    3036    3039    3040    3043
    3036    3039    3040    3217    3036    3213    3218    3217
    3036    3213    3218    3219    3036    3213    3214    3209
    3036    3213    3214    3215    3037    2860    2863    2862
    3037    2860    2863    2864    3037    3038    3039    3036
    3037    3038    3039    3040    3037    3042    3043    3040
    3037    3042    3043    3044    3038    3033    3034    3029
    3038    3033    3034    3035    3038    3037    3042    3041
    3038    3037    3042    3043    3038    3039    3040    3043
    3038    3039    3040    3217    3039    3036    3213    3218
    3039    3036    3213    3214    3039    3040    3043    3042
    3039    3040    3043    3044    3039    3040    3217    3222
    3039    3040    3217    3218    3040    3043    3044    3047
    3040    3043    3044    3221    3040    3217    3222    3221
    3040    3217    3222    3223    3040    3217    3218    3213
    3040    3217    3218    3219    3041    2864    2867    2866
    3041    2864    2867    2868    3041    3042    3043    3040
    3041    3042    3043    3044    3041    3046    3047    3044
    3041    3046    3047    3048    3042    3037    3038    3033
    3042    3037    3038    3039    3042    3041    3046    3045
    3042    3041    3046    3047    3042    3043    3044    3047
    3042    3043    3044    3221    3043    3040    3217    3222
    3043    3040    3217    3218    3043    3044    3047    3046
    3043    3044    3047    3048    3043    3044    3221    3222
    3043    3044    3221    3226    3044    3047    3048    3051
    3044    3047    3048    3225    3044    3221    3222    3217
    3044    3221    3222    3223    3044    3221    3226    3225
    3044    3221    3226    3227    3045    2868    2871    2870
    3045    2868    2871    2872    3045    3046    3047    3044
    3045    3046    3047    3048    3045    3050    3051    3048
    3045    3050    3051    3052    3046    3041    3042    3037
    3046    3041    3042    3043    3046    3045    3050    3049
    3046    3045    3050    3051    3046    3047    3048    3051
    3046    3047    3048    3225    3047    3044    3221    3222
    3047    3044    3221    3226    3047    3048    3051    3050
    3047    3048    3051    3052    3047    3048    3225    3226
    3047    3048    3225    3230    3048    3051    3052    3055
    3048    3051    3052    3229    3048    3225    3226    3221
    3048    3225    3226    3227    3048    3225    3230    3229
    3048    3225    3230    3231    3049    2872    2875    2874
    3049    2872    2875    2876    3049    3050    3051    3048
    3049    3050    3051    3052    3049    3054    3055    3052
    3049    3054    3055    3056    3050    3045    3046    3041
    3050    3045    3046    3047    3050    3049    3054    3053
    3050    3049    3054    3055    3050    3051    3052    3055
    3050    3051    3052    3229    3051    3048    3225    3226
    3051    3048    3225    3230    3051    3052    3055    3054
    3051    3052    3055    3056    3051    3052    3229    3234
    3051    3052    3229    3230    3052    3055    3056    3059
    3052    3055    3056    3233    3052    3229    3234    3233
    3052    3229    3234    3235    3052    3229    3230    3225
    3052    3229    3230    3231    3053    2876    2879    2878
    3053    2876    2879    2880    3053    3054    3055    3052
    3053    3054    3055    3056    3053    3058    3059    3056
    3053    3058    3059    3060    3054    3049    3050    3045
    3054    3049    3050    3051    3054    3053    3058    3057
    3054    3053    3058    3059    3054    3055    3056    3059
    3054    3055    3056    3233    3055    3052    3229    3234
    3055    3052    3229    3230    3055    3056    3059    3058
    3055    3056    3059    3060    3055    3056    3233    3238
    3055    3056    3233    3234    3056    3059    3060    3237
    3056    3233    3238    3237    3056    3233    3238    3239
    3056    3233    3234    3229    3056    3233    3234    3235
    3057    3058    3059    3056    3057    3058    3059    3060
    3058    3053    3054    3049    3058    3053    3054    3055
    3058    3059    3060    3237    3059    3056    3233    3238
    3059    3056    3233    3234    3059    3060    3237    3238
    3060    3237    3238    3233    3060    3237    3238    3239
    3061    2884    2887    2886    3061    2884    2887    2888
    3061    3062    3063    3064    3061    3066    3067    3064
    3061    3066    3067    3068    3062    3061    3066    3065
    3062    3061    3066    3067    3062    3063    3064    3067
    3062    3063    3064    3241    3063    3064    3067    3066
    3063    3064    3067    3068    3063    3064    3241    3242
    3063    3064    3241    3246    3064    3067    3068    3071
    3064    3067    3068    3245    3064    3241    3242    3243
    3064    3241    3246    3245    3064    3241    3246    3247
    3065    2888    2891    2890    3065    2888    2891    2892
    3065    3066    3067    3064    3065    3066    3067    3068
    3065    3070    3071    3068    3065    3070    3071    3072
    3066    3061    3062    3063    3066    3065    3070    3069
    3066    3065    3070    3071    3066    3067    3068    3071
    3066    3067    3068    3245    3067    3064    3241    3242
    3067    3064    3241    3246    3067    3068    3071    3070
    3067    3068    3071    3072    3067    3068    3245    3246
    3067    3068    3245    3250    3068    3071    3072    3075
    3068    3071    3072    3249    3068    3245    3246    3241
    3068    3245    3246    3247    3068    3245    3250    3249
    3068    3245    3250    3251    3069    2892    2895    2894
    3069    2892    2895    2896    3069    3070    3071    3068
    3069    3070    3071    3072    3069    3074    3075    3072
    3069    3074    3075    3076    3070    3065    3066    3061
    3070    3065    3066    3067    3070    3069    3074    3073
    3070    3069    3074    3075    3070    3071    3072    3075
    3070    3071    3072    3249    3071    3068    3245    3246
    3071    3068    3245    3250    3071    3072    3075    3074
    3071    3072    3075    3076    3071    3072    3249    3254
    3071    3072    3249    3250    3072    3075    3076    3079
    3072    3075    3076    3253    3072    3249    3254    3253
    3072    3249    3254    3255    3072    3249    3250    3245
    3072    3249    3250    3251    3073    2896    2899    2898
    3073    2896    2899    2900    3073    3074    3075    3072
    3073    3074    3075    3076    3073    3078    3079    3076
    3073    3078    3079    3080    3074    3069    3070    3065
    3074    3069    3070    3071    3074    3073    3078    3077
    3074    3073    3078    3079    3074    3075    3076    3079
    3074    3075    3076    3253    3075    3072    3249    3254
    3075    3072    3249    3250    3075    3076    3079    3078
    3075    3076    3079    3080    3075    3076    3253    3258
    3075    3076    3253    3254    3076    3079    3080    3083
    3076    3079    3080    3257    3076    3253    3258    3257
    3076    3253    3258    3259    3076    3253    3254    3249
    3076    3253    3254    3255    3077    2900    2903    2902
    3077    2900    2903    2904    3077    3078    3079    3076
    3077    3078    3079    3080    3077    3082    3083    3080
    3077    3082    3083    3084    3078    3073    3074    3069
    3078    3073    3074    3075    3078    3077    3082    3081
    3078    3077    3082    3083    3078    3079    3080    3083
    3078    3079    3080    3257    3079    3076    3253    3258
    3079    3076    3253    3254    3079    3080    3083    3082
    3079    3080    3083    3084    3079    3080    3257    3262
    3079    3080    3257    3258    3080    3083    3084    3087
    3080    3083    3084    3261    3080    3257    3262    3261
    3080    3257    3262    3263    3080    3257    3258    3253
    3080    3257    3258    3259    3081    2904    2907    2906
    3081    2904    2907    2908    3081    3082    3083    3080
    3081    3082    3083    3084    3081    3086    3087    3084
    3081    3086    3087    3088    3082    3077    3078    3073
    3082    3077    3078    3079    3082    3081    3086    3085
    3082    3081    3086    3087    3082    3083    3084    3087
    3082    3083    3084    3261    3083    3080    3257    3262
    3083    3080    3257    3258    3083    3084    3087    3086
    3083    3084    3087    3088    3083    3084    3261    3262
    3083    3084    3261    3266    3084    3087    3088    3091
    3084    3087    3088    3265    3084    3261    3262    3257
    3084    3261    3262    3263    3084    3261    3266    3265
    3084    3261    3266    3267    3085    2908    2911    2910
    3085    2908    2911    2912    3085    3086    3087    3084
    3085    3086    3087    3088    3085    3090    3091    3088
    3085    3090    3091    3092    3086    3081    3082    3077
    3086    3081    3082    3083    3086    3085    3090    3089
    3086    3085    3090    3091    3086    3087    3088    3091
    3086    3087    3088    3265    3087    3084    3261    3262
    3087    3084    3261    3266    3087    3088    3091    3090
    3087    3088    3091    3092    3087    3088    3265    3266
    3087    3088    3265    3270    3088    3091    3092    3095
    3088    3091    3092    3269    3088    3265    3266    3261
    3088    3265    3266    3267    3088    3265    3270    3269
    3088    3265    3270    3271    3089    2912    2915    2914
    3089    2912    2915    2916    3089    3090    3091    3088
    3089    3090    3091    3092    3089    3094    3095    3092
    3089    3094    3095    3096    3090    3085    3086    3081
    3090    3085    3086    3087    3090    3089    3094    3093
    3090    3089    3094    3095    3090    3091    3092    3095
    3090    3091    3092    3269    3091    3088    3265    3266
    3091    3088    3265    3270    3091    3092    3095    3094
    3091    3092    3095    3096    3091    3092    3269    3274
    3091    3092    3269    3270    3092    3095    3096    3099
    3092    3095    3096    3273    3092    3269    3274    3273
    3092    3269    3274    3275    3092    3269    3270    3265
    3092    3269    3270    3271    3093    2916    2919    2918
    3093    2916    2919    2920    3093    3094    3095    3092
    3093    3094    3095    3096    3093    3098    3099    3096
    3093    3098    3099    3100    3094    3089    3090    3085
    3094    3089    3090    3091    3094    3093    3098    3097
    3094    3093    3098    3099    3094    3095    3096    3099
    3094    3095    3096    3273    3095    3092    3269    3274
    3095    3092    3269    3270    3095    3096    3099    3098
    3095    3096    3099    3100    3095    3096    3273    3278
    3095    3096    3273    3274    3096    3099    3100    3103
    3096    3099    3100    3277    3096    3273    3278    3277
    3096    3273    3278    3279    3096    3273    3274    3269
    3096    3273    3274    3275    3097    2920    2923    2922
    3097    2920    2923    2924    3097    3098    3099    3096
    3097    3098    3099    3100    3097    3102    3103    3100
    3097    3102    3103    3104    3098    3093    3094    3089
    3098    3093    3094    3095    3098    3097    3102    3101
    3098    3097    3102    3103    3098    3099    3100    3103
    3098    3099    3100    3277    3099    3096    3273    3278
    3099    3096    3273    3274    3099    3100    3103    3102
    3099    3100    3103    3104    3099    3100    3277    3282
    3099    3100    3277    3278    3100    3103    3104    3107
    3100    3103    3104    3281    3100    3277    3282    3281
    3100    3277    3282    3283    3100    3277    3278    3273
    3100    3277    3278    3279    3101    2924    2927    2926
    3101    2924    2927    2928    3101    3102    3103    3100
    3101    3102    3103    3104    3101    3106    3107    3104
    3101    3106    3107    3108    3102    3097    3098    3093
    3102    3097    3098    3099    3102    3101    3106    3105
    3102    3101    3106    3107    3102    3103    3104    3107
    3102    3103    3104    3281    3103    3100    3277    3282
    3103    3100    3277    3278    3103    3104    3107    3106
    3103    3104    3107    3108    3103    3104    3281    3282
    3103    3104    3281    3286    3104    3107    3108    3111
    3104    3107    3108    3285    3104    3281    3282    3277
    3104    3281    3282    3283    3104    3281    3286    3285
    3104    3281    3286    3287    3105    2928    2931    2930
    3105    2928    2931    2932    3105    3106    3107    3104
    3105    3106    3107    3108    3105    3110    3111    3108
    3105    3110    3111    3112    3106    3101    3102    3097
    3106    3101    3102    3103    3106    3105    3110    3109
    3106    3105    3110    3111    3106    3107    3108    3111
    3106    3107    3108    3285    3107    3104    3281    3282
    3107    3104    3281    3286    3107    3108    3111    3110
    3107    3108    3111    3112    3107    3108    3285    3286
    3107    3108    3285    3290    3108    3111    3112    3115
    3108    3111    3112    3289    3108    3285    3286    3281
    3108    3285    3286    3287    3108    3285    3290    3289
    3108    3285    3290    3291    3109    2932    2935    2934
    3109    2932    2935    2936    3109    3110    3111    3108
    3109    3110    3111    3112    3109    3114    3115    3112
    3109    3114    3115    3116    3110    3105    3106    3101
    3110    3105    3106    3107    3110    3109    3114    3113
    3110    3109    3114    3115    3110    3111    3112    3115
    3110    3111    3112    3289    3111    3108    3285    3286
    3111    3108    3285    3290    3111    3112    3115    3114
    3111    3112    3115    3116    3111    3112    3289    3294
    3111    3112    3289    3290    3112    3115    3116    3119
    3112    3115    3116    3293    3112    3289    3294    3293
    3112    3289    3294    3295    3112    3289    3290    3285
    3112    3289    3290    3291    3113    2936    2939    2938
    3113    2936    2939    2940    3113    3114    3115    3112
    3113    3114    3115    3116    3113    3118    3119    3116
    3113    3118    3119    3120    3114    3109    3110    3105
    3114    3109    3110    3111    3114    3113    3118    3117
    3114    3113    3118    3119    3114    3115    3116    3119
    3114    3115    3116    3293    3115    3112    3289    3294
    3115    3112    3289    3290    3115    3116    3119    3118
    3115    3116    3119    3120    3115    3116    3293    3298
    3115    3116    3293    3294    3116    3119    3120    3123
    3116    3119    3120    3297    3116    3293    3298    3297
    3116    3293    3298    3299    3116    3293    3294    3289
    3116    3293    3294    3295    3117    2940    2943    2942
    3117    2940    2943    2944    3117    3118    3119    3116
    3117    3118    3119    3120    3117    3122    3123    3120
    3117    3122    3123    3124    3118    3113    3114    3109
    3118    3113    3114    3115    3118    3117    3122    3121
    3118    3117    3122    3123    3118    3119    3120    3123
    3118    3119    3120    3297    3119    3116    3293    3298
    3119    3116    3293    3294    3119    3120    3123    3122
    3119    3120    3123    3124    3119    3120    3297    3302
    3119    3120    3297    3298    3120    3123    3124    3127
    3120    3123    3124    3301    3120    3297    3302    3301
    3120    3297    3302    3303    3120    3297    3298    3293
    3120    3297    3298    3299    3121    2944    2947    2946
    3121    2944    2947    2948    3121    3122    3123    3120
    3121    3122    3123    3124    3121    3126    3127    3124
    3121    3126    3127    3128    3122    3117    3118    3113
    3122    3117    3118    3119    3122    3121    3126    3125
    3122    3121    3126    3127    3122    3123    3124    3127
    3122    3123    3124    3301    3123    3120    3297    3302
    3123    3120    3297    3298    3123    3124    3127    3126
    3123    3124    3127    3128    3123    3124    3301    3302
    3123    3124    3301    3306    3124    3127    3128    3131
    3124    3127    3128    3305    3124    3301    3302    3297
    3124    3301    3302    3303    3124    3301    3306    3305
    3124    3301    3306    3307    3125    2948    2951    2950
    3125    2948    2951    2952    3125    3126    3127    3124
    3125    3126    3127    3128    3125    3130    3131    3128
    3125    3130    3131    3132    3126    3121    3122    3117
    3126    3121    3122    3123    3126    3125    3130    3129
    3126    3125    3130    3131    3126    3127    3128    3131
    3126    3127    3128    3305    3127    3124    3301    3302
    3127    3124    3301    3306    3127    3128    3131    3130
    3127    3128    3131    3132    3127    3128    3305    3306
    3127    3128    3305    3310    3128    3131    3132    3135
    3128    3131    3132    3309    3128    3305    3306    3301
    3128    3305    3306    3307    3128    3305    3310    3309
    3128    3305    3310    3311    3129    2952    2955    2954
    3129    2952    2955    2956    3129    3130    3131    3128
    3129    3130    3131    3132    3129    3134    3135    3132
    3129    3134    3135    3136    3130    3125    3126    3121
    3130    3125    3126    3127    3130    3129    3134    3133
    3130    3129    3134    3135    3130    3131    3132    3135
    3130    3131    3132    3309    3131    3128    3305    3306
    3131    3128    3305    3310    3131    3132    3135    3134
    3131    3132    3135    3136    3131    3132    3309    3314
    3131    3132    3309    3310    3132    3135    3136    3139
    3132    3135    3136    3313    3132    3309    3314    3313
    3132    3309    3314    3315    3132    3309    3310    3305
    3132    3309    3310    3311    3133    2956    2959    2958
    3133    2956    2959    2960    3133    3134    3135    3132
    3133    3134    3135    3136    3133    3138    3139    3136
    3133    3138    3139    3140    3134    3129    3130    3125
    3134    3129    3130    3131    3134    3133    3138    3137
    3134    3133    3138    3139    3134    3135    3136    3139
    3134    3135    3136    3313    3135    3132    3309    3314
    3135    3132    3309    3310    3135    3136    3139    3138
    3135    3136    3139    3140    3135    3136    3313    3314
    3135    3136    3313    3318    3136    3139    3140    3143
    3136    3139    3140    3317    3136    3313    3314    3309
    3136    3313    3314    3315    3136    3313    3318    3317
    3136    3313    3318    3319    3137    2960    2963    2962
    3137    2960    2963    2964    3137    3138    3139    3136
    3137    3138    3139    3140    3137    3142    3143    3140
    3137    3142    3143    3144    3138    3133    3134    3129
    3138    3133    3134    3135    3138    3137    3142    3141
    3138    3137    3142    3143    3138    3139    3140    3143
    3138    3139    3140    3317    3139    3136    3313    3314
    3139    3136    3313    3318    3139    3140    3143    3142
    3139    3140    3143    3144    3139    3140    3317    3322
    3139    3140    3317    3318    3140    3143    3144    3147
    3140    3143    3144    3321    3140    3317    3322    3321
    3140    3317    3322    3323    3140    3317    3318    3313
    3140    3317    3318    3319    3141    2964    2967    2966
    3141    2964    2967    2968    3141    3142    3143    3140
    3141    3142    3143    3144    3141    3146    3147    3144
    3141    3146    3147    3148    3142    3137    3138    3133
    3142    3137    3138    3139    3142    3141    3146    3145
    3142    3141    3146    3147    3142    3143    3144    3147
    3142    3143    3144    3321    3143    3140    3317    3322
    3143    3140    3317    3318    3143    3144    3147    3146
    3143    3144    3147    3148    3143    3144    3321    3322
    3143    3144    3321    3326    3144    3147    3148    3151
    3144    3147    3148    3325    3144    3321    3322    3317
    3144    3321    3322    3323    3144    3321    3326    3325
    3144    3321    3326    3327    3145    2968    2971    2970
    3145    2968    2971    2972    3145    3146    3147    3144
    3145    3146    3147    3148    3145    3150    3151    3148
    3145    3150    3151    3152    3146    3141    3142    3137
    3146    3141    3142    3143    3146    3145    3150    3149
    3146    3145    3150    3151    3146    3147    3148    3151
    3146    3147    3148    3325    3147    3144    3321    3322
    3147    3144    3321    3326    3147    3148    3151    3150
    3147    3148    3151    3152    3147    3148    3325    3326
    3147    3148    3325    3330    3148    3151    3152    3155
    3148    3151    3152    3329    3148    3325    3326    3321
    3148    3325    3326    3327    3148    3325    3330    3329
    3148    3325    3330    3331    3149    2972    2975    2974
    3149    2972    2975    2976    3149    3150    3151    3148
    3149    3150    3151    3152    3149    3154    3155    3152
    3149    3154    3155    3156    3150    3145    3146    3141
    3150    3145    3146    3147    3150    3149    3154    3153
    3150    3149    3154    3155    3150    3151    3152    3155
    3150    3151    3152    3329    3151    3148    3325    3326
    3151    3148    3325    3330    3151    3152    3155    3154
    3151    3152    3155    3156    3151    3152    3329    3334
    3151    3152    3329    3330    3152    3155    3156    3159
    3152    3155    3156    3333    3152    3329    3334    3333
    3152    3329    3334    3335    3152    3329    3330    3325
    3152    3329    3330    3331    3153    2976    2979    2978
    3153    2976    2979    2980    3153    3154    3155    3152
    3153    3154    3155    3156    3153    3158    3159    3156
    3153    3158    3159    3160    3154    3149    3150    3145
    3154    3149    3150    3151    3154    3153    3158    3157
    3154    3153    3158    3159    3154    3155    3156    3159
    3154    3155    3156    3333    3155    3152    3329    3334
    3155    3152    3329    3330    3155    3156    3159    3158
    3155    3156    3159    3160    3155    3156    3333    3338
    3155    3156    3333    3334    3156    3159    3160    3163
    3156    3159    3160    3337    3156    3333    3338    3337
    3156    3333    3338    3339    3156    3333    3334    3329
    3156    3333    3334    3335    3157    2980    2983    2982
    3157    2980    2983    2984    3157    3158    3159    3156
    3157    3158    3159    3160    3157    3162    3163    3160
    3157    3162    3163    3164    3158    3153    3154    3149
    3158    3153    3154    3155    3158    3157    3162    3161
    3158    3157    3162    3163    3158    3159    3160    3163
    3158    3159    3160    3337    3159    3156    3333    3338
    3159    3156    3333    3334    3159    3160    3163    3162
    3159    3160    3163    3164    3159    3160    3337    3342
    3159    3160    3337    3338    3160    3163    3164    3167
    3160    3163    3164    3341    3160    3337    3342    3341
    3160    3337    3342    3343    3160    3337    3338    3333
    3160    3337    3338    3339    3161    2984    2987    2986
    3161    2984    2987    2988    3161    3162    3163    3160
    3161    3162    3163    3164    3161    3166    3167    3164
    3161    3166    3167    3168    3162    3157    3158    3153
    3162    3157    3158    3159    3162    3161    3166    3165
    3162    3161    3166    3167    3162    3163    3164    3167
    3162    3163    3164    3341    3163    3160    3337    3342
    3163    3160    3337    3338    3163    3164    3167    3166
    3163    3164    3167    3168    3163    3164    3341    3342
    3163    3164    3341    3346    3164    3167    3168    3171
    3164    3167    3168    3345    3164    3341    3342    3337
    3164    3341    3342    3343    3164    3341    3346    3345
    3164    3341    3346    3347    3165    2988    2991    2990
    3165    2988    2991    2992    3165    3166    3167    3164
    3165    3166    3167    3168    3165    3170    3171    3168
    3165    3170    3171    3172    3166    3161    3162    3157
    3166    3161    3162    3163    3166    3165    3170    3169
    3166    3165    3170    3171    3166    3167    3168    3171
    3166    3167    3168    3345    3167    3164    3341    3342
    3167    3164    3341    3346    3167    3168    3171    3170
    3167    3168    3171    3172    3167    3168    3345    3346
    3167    3168    3345    3350    3168    3171    3172    3175
    3168    3171    3172    3349    3168    3345    3346    3341
    3168    3345    3346    3347    3168    3345    3350    3349
    3168    3345    3350    3351    3169    2992    2995    2994
    3169    2992    2995    2996    3169    3170    3171    3168
    3169    3170    3171    3172    3169    3174    3175    3172
    3169    3174    3175    3176    3170    3165    3166    3161
    3170    3165    3166    3167    3170    3169    3174    3173
    3170    3169    3174    3175    3170    3171    3172    3175
    3170    3171    3172    3349    3171    3168    3345    3346
    3171    3168    3345    3350    3171    3172    3175    3174
    3171    3172    3175    3176    3171    3172    3349    3354
    3171    3172    3349    3350    3172    3175    3176    3179
    3172    3175    3176    3353    3172    3349    3354    3353
    3172    3349    3354    3355    3172    3349    3350    3345
    3172    3349    3350    3351    3173    2996    2999    2998
    3173    2996    2999    3000    3173    3174    3175    3172
    3173    3174    3175    3176    3173    3178    3179    3176
    3173    3178    3179    3180    3174    3169    3170    3165
    3174    3169    3170    3171    3174    3173    3178    3177
    3174    3173    3178    3179    3174    3175    3176    3179
    3174    3175    3176    3353    3175    3172    3349    3354
    3175    3172    3349    3350    3175    3176    3179    3178
    3175    3176    3179    3180    3175    3176    3353    3358
    3175    3176    3353    3354    3176    3179    3180    3183
    3176    3179    3180    3357    3176    3353    3358    3357
    3176    3353    3358    3359    3176    3353    3354    3349
    3176    3353    3354    3355    3177    3000    3003    3002
    3177    3000    3003    3004    3177    3178    3179    3176
    3177    3178    3179    3180    3177    3182    3183    3180
    3177    3182    3183    3184    3178    3173    3174    3169
    3178    3173    3174    3175    3178    3177    3182    3181
    3178    3177    3182    3183    3178    3179    3180    3183
    3178    3179    3180    3357    3179    3176    3353    3358
    3179    3176    3353    3354    3179    3180    3183    3182
    3179    3180    3183    3184    3179    3180    3357    3362
    3179    3180    3357    3358    3180    3183    3184    3187
    3180    3183    3184    3361    3180    3357    3362    3361
    3180    3357    3362    3363    3180    3357    3358    3353
    3180    3357    3358    3359    3181    3004    3007    3006
    3181    3004    3007    3008    3181    3182    3183    3180
    3181    3182    3183    3184    3181    3186    3187    3184
    3181    3186    3187    3188    3182    3177    3178    3173
    3182    3177    3178    3179    3182    3181    3186    3185
    3182    3181    3186    3187    3182    3183    3184    3187
    3182    3183    3184    3361    3183    3180    3357    3362
    3183    3180    3357    3358    3183    3184    3187    3186
    3183    3184    3187    3188    3183    3184    3361    3362
    3183    3184    3361    3366    3184    3187    3188    3191
    3184    3187    3188    3365    3184    3361    3362    3357
    3184    3361    3362    3363    3184    3361    3366    3365
    3184    3361    3366    3367    3185    3008    3011    3010
    3185    3008    3011    3012    3185    3186    3187    3184
    3185    3186    3187    3188    3185    3190    3191    3188
    3185    3190    3191    3192    3186    3181    3182    3177
    3186    3181    3182    3183    3186    3185    3190    3189
    3186    3185    3190    3191    3186    3187    3188    3191
    3186    3187    3188    3365    3187    3184    3361    3362
    3187    3184    3361    3366    3187    3188    3191    3190
    3187    3188    3191    3192    3187    3188    3365    3366
    3187    3188    3365    3370    3188    3191    3192    3195
    3188    3191    3192    3369    3188    3365    3366    3361
    3188    3365    3366    3367    3188    3365    3370    3369
    3188    3365    3370    3371    3189    3012    3015    3014
    3189    3012    3015    3016    3189    3190    3191    3188
    3189    3190    3191    3192    3189    3194    3195    3192
    3189    3194    3195    3196    3190    3185    3186    3181
    3190    3185    3186    3187    3190    3189    3194    3193
    3190    3189    3194    3195    3190    3191    3192    3195
    3190    3191    3192    3369    3191    3188    3365    3366
    3191    3188    3365    3370    3191    3192    3195    3194
    3191    3192    3195    3196    3191    3192    3369    3374
    3191    3192    3369    3370    3192    3195    3196    3199
    3192    3195    3196    3373    3192    3369    3374    3373
    3192    3369    3374    3375    3192    3369    3370    3365
    3192    3369    3370    3371    3193    3016    3019    3018
    3193    3016    3019    3020    3193    3194    3195    3192
    3193    3194    3195    3196    3193    3198    3199    3196
    3193    3198    3199    3200    3194    3189    3190    3185
    3194    3189    3190    3191    3194    3193    3198    3197
    3194    3193    3198    3199    3194    3195    3196    3199
    3194    3195    3196    3373    3195    3192    3369    3374
    3195    3192    3369    3370    3195    3196    3199    3198
    3195    3196    3199    3200    3195    3196    3373    3378
    3195    3196    3373    3374    3196    3199    3200    3203
    3196    3199    3200    3377    3196    3373    3378    3377
    3196    3373    3378    3379    3196    3373    3374    3369
    3196    3373    3374    3375    3197    3020    3023    3022
    3197    3020    3023    3024    3197    3198    3199    3196
    3197    3198    3199    3200    3197    3202    3203    3200
    3197    3202    3203    3204    3198    3193    3194    3189
    3198    3193    3194    3195    3198    3197    3202    3201
    3198    3197    3202    3203    3198    3199    3200    3203
    3198    3199    3200    3377    3199    3196    3373    3378
    3199    3196    3373    3374    3199    3200    3203    3202
    3199    3200    3203    3204    3199    3200    3377    3382
    3199    3200    3377    3378    3200    3203    3204    3207
    3200    3203    3204    3381    3200    3377    3382    3381
    3200    3377    3382    3383    3200    3377    3378    3373
    3200    3377    3378    3379    3201    3024    3027    3026
    3201    3024    3027    3028    3201    3202    3203    3200
    3201    3202    3203    3204    3201    3206    3207    3204
    3201    3206    3207    3208    3202    3197    3198    3193
    3202    3197    3198    3199    3202    3201    3206    3205
    3202    3201    3206    3207    3202    3203    3204    3207
    3202    3203    3204    3381    3203    3200    3377    3382
    3203    3200    3377    3378    3203    3204    3207    3206
    3203    3204    3207    3208    3203    3204    3381    3382
    3203    3204    3381    3386    3204    3207    3208    3211
    3204    3207    3208    3385    3204    3381    3382    3377
    3204    3381    3382    3383    3204    3381    3386    3385
    3204    3381    3386    3387    3205    3028    3031    3030
    3205    3028    3031    3032    3205    3206    3207    3204
    3205    3206    3207    3208    3205    3210    3211    3208
    3205    3210    3211    3212    3206    3201    3202    3197
    3206    3201    3202    3203    3206    3205    3210    3209
    3206    3205    3210    3211    3206    3207    3208    3211
    3206    3207    3208    3385    3207    3204    3381    3382
    3207    3204    3381    3386    3207    3208    3211    3210
    3207    3208    3211    3212    3207    3208    3385    3386
    3207    3208    3385    3390    3208    3211    3212    3215
    3208    3211    3212    3389    3208    3385    3386    3381
    3208    3385    3386    3387    3208    3385    3390    3389
    3208    3385    3390    3391    3209    3032    3035    3034
    3209    3032    3035    3036    3209    3210    3211    3208
    3209    3210    3211    3212    3209    3214    3215    3212
    3209    3214    3215    3216    3210    3205    3206    3201
    3210    3205    3206    3207    3210    3209    3214    3213
    3210    3209    3214    3215    3210    3211    3212    3215
    3210    3211    3212    3389    3211    3208    3385    3386
    3211    3208    3385    3390    3211    3212    3215    3214
    3211    3212    3215    3216    3211    3212    3389    3394
    3211    3212    3389    3390    3212    3215    3216    3219
    3212    3215    3216    3393    3212    3389    3394    3393
    3212    3389    3394    3395    3212    3389    3390    3385
    3212    3389    3390    3391    3213    3036    3039    3038
    3213    3036    3039    3040    3213    3214    3215    3212
    3213    3214    3215    3216    3213    3218    3219    3216
    3213    3218    3219    3220    3214    3209    3210    3205
    3214    3209    3210    3211    3214    3213    3218    3217
    3214    3213    3218    3219    3214    3215    3216    3219
    3214    3215    3216    3393    3215    3212    3389    3394
    3215    3212    3389    3390    3215    3216    3219    3218
    3215    3216    3219    3220    3215    3216    3393    3398
    3215    3216    3393    3394    3216    3219    3220    3223
    3216    3219    3220    3397    3216    3393    3398    3397
    3216    3393    3398    3399    3216    3393    3394    3389
    3216    3393    3394    3395    3217    3040    3043    3042
    3217    3040    3043    3044    3217    3218    3219    3216
    3217    3218    3219    3220    3217    3222    3223    3220
    3217    3222    3223    3224    3218    3213    3214    3209
    3218    3213    3214    3215    3218    3217    3222    3221
    3218    3217    3222    3223    3218    3219    3220    3223
    3218    3219    3220    3397    3219    3216    3393    3398
    3219    3216    3393    3394    3219    3220    3223    3222
    3219    3220    3223    3224    3219    3220    3397    3402
    3219    3220    3397    3398    3220    3223    3224    3227
    3220    3223    3224    3401    3220    3397    3402    3401
    3220    3397    3402    3403    3220    3397    3398    3393
    3220    3397    3398    3399    3221    3044    3047    3046
    3221    3044    3047    3048    3221    3222    3223    3220
    3221    3222    3223    3224    3221    3226    3227    3224
    3221    3226    3227    3228    3222    3217    3218    3213
    3222    3217    3218    3219    3222    3221    3226    3225
    3222    3221    3226    3227    3222    3223    3224    3227
    3222    3223    3224    3401    3223    3220    3397    3402
    3223    3220    3397    3398    3223    3224    3227    3226
    3223    3224    3227    3228    3223    3224    3401    3402
    3223    3224    3401    3406    3224    3227    3228    3231
    3224    3227    3228    3405    3224    3401    3402    3397
    3224    3401    3402    3403    3224    3401    3406    3405
    3224    3401    3406    3407    3225    3048    3051    3050
    3225    3048    3051    3052    3225    3226    3227    3224
    3225    3226    3227    3228    3225    3230    3231    3228
    3225    3230    3231    3232    3226    3221    3222    3217
    3226    3221    3222    3223    3226    3225    3230    3229
    3226    3225    3230    3231    3226    3227    3228    3231
    3226    3227    3228    3405    3227    3224    3401    3402
    3227    3224    3401    3406    3227    3228    3231    3230
    3227    3228    3231    3232    3227    3228    3405    3406
    3227    3228    3405    3410    3228    3231    3232    3235
    3228    3231    3232    3409    3228    3405    3406    3401
    3228    3405    3406    3407    3228    3405    3410    3409
    3228    3405    3410    3411    3229    3052    3055    3054
    3229    3052    3055    3056    3229    3230    3231    3228
    3229    3230    3231    3232    3229    3234    3235    3232
    3229    3234    3235    3236    3230    3225    3226    3221
    3230    3225    3226    3227    3230    3229    3234    3233
    3230    3229    3234    3235    3230    3231    3232    3235
    3230    3231    3232    3409    3231    3228    3405    3406
    3231    3228    3405    3410    3231    3232    3235    3234
    3231    3232    3235    3236    3231    3232    3409    3414
    3231    3232    3409    3410    3232    3235    3236    3239
    3232    3235    3236    3413    3232    3409    3414    3413
    3232    3409    3414    3415    3232    3409    3410    3405
    3232    3409    3410    3411    3233    3056    3059    3058
    3233    3056    3059    3060    3233    3234    3235    3232
    3233    3234    3235    3236    3233    3238    3239    3236
    3233    3238    3239    3240    3234    3229    3230    3225
    3234    3229    3230    3231    3234    3233    3238    3237
    3234    3233    3238    3239    3234    3235    3236    3239
    3234    3235    3236    3413    3235    3232    3409    3414
    3235    3232    3409    3410    3235    3236    3239    3238
    3235    3236    3239    3240    3235    3236    3413    3418
    3235    3236    3413    3414    3236    3239    3240    3417
    3236    3413    3418    3417    3236    3413    3418    3419
    3236    3413    3414    3409    3236    3413    3414    3415
    3237    3238    3239    3236    3237    3238    3239    3240
    3238    3233    3234    3229    3238    3233    3234    3235
    3238    3239    3240    3417    3239    3236    3413    3418
    3239    3236    3413    3414    3239    3240    3417    3418
    3240    3417    3418    3413    3240    3417    3418    3419
    3241    3064    3067    3066    3241    3064    3067    3068
    3241    3242    3243    3244    3241    3246    3247    3244
    3241    3246    3247    3248    3242    3241    3246    3245
    3242    3241    3246    3247    3242    3243    3244    3247
    3242    3243    3244    3421    3243    3244    3247    3246
    3243    3244    3247    3248    3243    3244    3421    3422
    3243    3244    3421    3426    3244    3247    3248    3251
    3244    3247    3248    3425    3244    3421    3422    3423
    3244    3421    3426    3425    3244    3421    3426    3427
    3245    3068    3071    3070    3245    3068    3071    3072
    3245    3246    3247    3244    3245    3246    3247    3248
    3245    3250    3251    3248    3245    3250    3251    3252
    3246    3241    3242    3243    3246    3245    3250    3249
    3246    3245    3250    3251    3246    3247    3248    3251
    3246    3247    3248    3425    3247    3244    3421    3422
    3247    3244    3421    3426    3247    3248    3251    3250
    3247    3248    3251    3252    3247    3248    3425    3426
    3247    3248    3425    3430    3248    3251    3252    3255
    3248    3251    3252    3429    3248    3425    3426    3421
    3248    3425    3426    3427    3248    3425    3430    3429
    3248    3425    3430    3431    3249    3072    3075    3074
    3249    3072    3075    3076    3249    3250    3251    3248
    3249    3250    3251    3252    3249    3254    3255    3252
    3249    3254    3255    3256    3250    3245    3246    3241
    3250    3245    3246    3247    3250    3249    3254    3253
    3250    3249    3254    3255    3250    3251    3252    3255
    3250    3251    3252    3429    3251    3248    3425    3426
    3251    3248    3425    3430    3251    3252    3255    3254
    3251    3252    3255    3256    3251    3252    3429    3434
    3251    3252    3429    3430    3252    3255    3256    3259
    3252    3255    3256    3433    3252    3429    3434    3433
    3252    3429    3434    3435    3252    3429    3430    3425
    3252    3429    3430    3431    3253    3076    3079    3078
    3253    3076    3079    3080    3253    3254    3255    3252
    3253    3254    3255    3256    3253    3258    3259    3256
    3253    3258    3259    3260    3254    3249    3250    3245
    3254    3249    3250    3251    3254    3253    3258    3257
    3254    3253    3258    3259    3254    3255    3256    3259
    3254    3255    3256    3433    3255    3252    3429    3434
    3255    3252    3429    3430    3255    3256    3259    3258
    3255    3256    3259    3260    3255    3256    3433    3438
    3255    3256    3433    3434    3256    3259    3260    3263
    3256    3259    3260    3437    3256    3433    3438    3437
    3256    3433    3438    3439    3256    3433    3434    3429
    3256    3433    3434    3435    3257    3080    3083    3082
    3257    3080    3083    3084    3257    3258    3259    3256
    3257    3258    3259    3260    3257    3262    3263    3260
    3257    3262    3263    3264    3258    3253    3254    3249
    3258    3253    3254    3255    3258    3257    3262    3261
    3258    3257    3262    3263    3258    3259    3260    3263
    3258    3259    3260    3437    3259    3256    3433    3438
    3259    3256    3433    3434    3259    3260    3263    3262
    3259    3260    3263    3264    3259    3260    3437    3442
    3259    3260    3437    3438    3260    3263    3264    3267
    3260    3263    3264    3441    3260    3437    3442    3441
    3260    3437    3442    3443    3260    3437    3438    3433
    3260    3437    3438    3439    3261    3084    3087    3086
    3261    3084    3087    3088    3261    3262    3263    3260
    3261    3262    3263    3264    3261    3266    3267    3264
    3261    3266    3267    3268    3262    3257    3258    3253
    3262    3257    3258    3259    3262    3261    3266    3265
    3262    3261    3266    3267    3262    3263    3264    3267
    3262    3263    3264    3441    3263    3260    3437    3442
    3263    3260    3437    3438    3263    3264    3267    3266
    3263    3264    3267    3268    3263    3264    3441    3442
    3263    3264    3441    3446    3264    3267    3268    3271
    3264    3267    3268    3445    3264    3441    3442    3437
    3264    3441    3442    3443    3264    3441    3446    3445
    3264    3441    3446    3447    3265    3088    3091    3090
    3265    3088    3091    3092    3265    3266    3267    3264
    3265    3266    3267    3268    3265    3270    3271    3268
    3265    3270    3271    3272    3266    3261    3262    3257
    3266    3261    3262    3263    3266    3265    3270    3269
    3266    3265    3270    3271    3266    3267    3268    3271
    3266    3267    3268    3445    3267    3264    3441    3442
    3267    3264    3441    3446    3267    3268    3271    3270
    3267    3268    3271    3272    3267    3268    3445    3446
    3267    3268    3445    3450    3268    3271    3272    3275
    3268    3271    3272    3449    3268    3445    3446    3441
    3268    3445    3446    3447    3268    3445    3450    3449
    3268    3445    3450    3451    3269    3092    3095    3094
    3269    3092    3095    3096    3269    3270    3271    3268
    3269    3270    3271    3272    3269    3274    3275    3272
    3269    3274    3275    3276    3270    3265    3266    3261
    3270    3265    3266    3267    3270    3269    3274    3273
    3270    3269    3274    3275    3270    3271    3272    3275
    3270    3271    3272    3449    3271    3268    3445    3446
    3271    3268    3445    3450    3271    3272    3275    3274
    3271    3272    3275    3276    3271    3272    3449    3454
    3271    3272    3449    3450    3272    3275    3276    3279
    3272    3275    3276    3453    3272    3449    3454    3453
    3272    3449    3454    3455    3272    3449    3450    3445
    3272    3449    3450    3451    3273    3096    3099    3098
    3273    3096    3099    3100    3273    3274    3275    3272
    3273    3274    3275    3276    3273    3278    3279    3276
    3273    3278    3279    3280    3274    3269    3270    3265
    3274    3269    3270    3271    3274    3273    3278    3277
    3274    3273    3278    3279    3274    3275    3276    3279
    3274    3275    3276    3453    3275    3272    3449    3454
    3275    3272    3449    3450    3275    3276    3279    3278
    3275    3276    3279    3280    3275    3276    3453    3458
    3275    3276    3453    3454    3276    3279    3280    3283
    3276    3279    3280    3457    3276    3453    3458    3457
    3276    3453    3458    3459    3276    3453    3454    3449
    3276    3453    3454    3455    3277    3100    3103    3102
    3277    3100    3103    3104    3277    3278    3279    3276
    3277    3278    3279    3280    3277    3282    3283    3280
    3277    3282    3283    3284    3278    3273    3274    3269
    3278    3273    3274    3275    3278    3277    3282    3281
    3278    3277    3282    3283    3278    3279    3280    3283
    3278    3279    3280    3457    3279    3276    3453    3458
    3279    3276    3453    3454    3279    3280    3283    3282
    3279    3280    3283    3284    3279    3280    3457    3462
    3279    3280    3457    3458    3280    3283    3284    3287
    3280    3283    3284    3461    3280    3457    3462    3461
    3280    3457    3462    3463    3280    3457    3458    3453
    3280    3457    3458    3459    3281    3104    3107    3106
    3281    3104    3107    3108    3281    3282    3283    3280
    3281    3282    3283    3284    3281    3286    3287    3284
    3281    3286    3287    3288    3282    3277    3278    3273
    3282    3277    3278    3279    3282    3281    3286    3285
    3282    3281    3286    3287    3282    3283    3284    3287
    3282    3283    3284    3461    3283    3280    3457    3462
    3283    3280    3457    3458    3283    3284    3287    3286
    3283    3284    3287    3288    3283    3284    3461    3462
    3283    3284    3461    3466    3284    3287    3288    3291
    3284    3287    3288    3465    3284    3461    3462    3457
    3284    3461    3462    3463    3284    3461    3466    3465
    3284    3461    3466    3467    3285    3108    3111    3110
    3285    3108    3111    3112    3285    3286    3287    3284
    3285    3286    3287    3288    3285    3290    3291    3288
    3285    3290    3291    3292    3286    3281    3282    3277
    3286    3281    3282    3283    3286    3285    3290    3289
    3286    3285    3290    3291    3286    3287    3288    3291
    3286    3287    3288    3465    3287    3284    3461    3462
    3287    3284    3461    3466    3287    3288    3291    3290
    3287    3288    3291    3292    3287    3288    3465    3466
    3287    3288    3465    3470    3288    3291    3292    3295
    3288    3291    3292    3469    3288    3465    3466    3461
    3288    3465    3466    3467    3288    3465    3470    3469
    3288    3465    3470    3471    3289    3112    3115    3114
    3289    3112    3115    3116    3289    3290    3291    3288
    3289    3290    3291    3292    3289    3294    3295    3292
    3289    3294    3295    3296    3290    3285    3286    3281
    3290    3285    3286    3287    3290    3289    3294    3293
    3290    3289    3294    3295    3290    3291    3292    3295
    3290    3291    3292    3469    3291    3288    3465    3466
    3291    3288    3465    3470    3291    3292    3295    3294
    3291    3292    3295    3296    3291    3292    3469    3474
    3291    3292    3469    3470    3292    3295    3296    3299
    3292    3295    3296    3473    3292    3469    3474    3473
    3292    3469    3474    3475    3292    3469    3470    3465
    3292    3469    3470    3471    3293    3116    3119    3118
    3293    3116    3119    3120    3293    3294    3295    3292
    3293    3294    3295    3296    3293    3298    3299    3296
    3293    3298    3299    3300    3294    3289    3290    3285
    3294    3289    3290    3291    3294    3293    3298    3297
    3294    3293    3298    3299    3294    3295    3296    3299
    3294    3295    3296    3473    3295    3292    3469    3474
    3295    3292    3469    3470    3295    3296    3299    3298
    3295    3296    3299    3300    3295    3296    3473    3478
    3295    3296    3473    3474    3296    3299    3300    3303
    3296    3299    3300    3477    3296    3473    3478    3477
    3296    3473    3478    3479    3296    3473    3474    3469
    3296    3473    3474    3475    3297    3120    3123    3122
    3297    3120    3123    3124    3297    3298    3299    3296
    3297    3298    3299    3300    3297    3302    3303    3300
    3297    3302    3303    3304    3298    3293    3294    3289
    3298    3293    3294    3295    3298    3297    3302    3301
    3298    3297    3302    3303    3298    3299    3300    3303
    3298    3299    3300    3477    3299    3296    3473    3478
    3299    3296    3473    3474    3299    3300    3303    3302
    3299    3300    3303    3304    3299    3300    3477    3482
    3299    3300    3477    3478    3300    3303    3304    3307
    3300    3303    3304    3481    3300    3477    3482    3481
    3300    3477    3482    3483    3300    3477    3478    3473
    3300    3477    3478    3479    3301    3124    3127    3126
    3301    3124    3127    3128    3301    3302    3303    3300
    3301    3302    3303    3304    3301    3306    3307    3304
    3301    3306    3307    3308    3302    3297    3298    3293
    3302    3297    3298    3299    3302    3301    3306    3305
    3302    3301    3306    3307    3302    3303    3304    3307
    3302    3303    3304    3481    3303    3300    3477    3482
    3303    3300    3477    3478    3303    3304    3307    3306
    3303    3304    3307    3308    3303    3304    3481    3482
    3303    3304    3481    3486    3304    3307    3308    3311
    3304    3307    3308    3485    3304    3481    3482    3477
    3304    3481    3482    3483    3304    3481    3486    3485
    3304    3481    3486    3487    3305    3128    3131    3130
    3305    3128    3131    3132    3305    3306    3307    3304
    3305    3306    3307    3308    3305    3310    3311    3308
    3305    3310    3311    3312    3306    3301    3302    3297
    3306    3301    3302    3303    3306    3305    3310    3309
    3306    3305    3310    3311    3306    3307    3308    3311
    3306    3307    3308    3485    3307    3304    3481    3482
    3307    3304    3481    3486    3307    3308    3311    3310
    3307    3308    3311    3312    3307    3308    3485    3486
    3307    3308    3485    3490    3308    3311    3312    3315
    3308    3311    3312    3489    3308    3485    3486    3481
    3308    3485    3486    3487    3308    3485    3490    3489
    3308    3485    3490    3491    3309    3132    3135    3134
    3309    3132    3135    3136    3309    3310    3311    3308
    3309    3310    3311    3312    3309    3314    3315    3312
    3309    3314    3315    3316    3310    3305    3306    3301
    3310    3305    3306    3307    3310    3309    3314    3313
    3310    3309    3314    3315    3310    3311    3312    3315
    3310    3311    3312    3489    3311    3308    3485    3486
    3311    3308    3485    3490    3311    3312    3315    3314
    3311    3312    3315    3316    3311    3312    3489    3494
    3311    3312    3489    3490    3312    3315    3316    3319
    3312    3315    3316    3493    3312    3489    3494    3493
    3312    3489    3494    3495    3312    3489    3490    3485
    3312    3489    3490    3491    3313    3136    3139    3138
    3313    3136    3139    3140    3313    3314    3315    3312
    3313    3314    3315    3316    3313    3318    3319    3316
    3313    3318    3319    3320    3314    3309    3310    3305
    3314    3309    3310    3311    3314    3313    3318    3317
    3314    3313    3318    3319    3314    3315    3316    3319
    3314    3315    3316    3493    3315    3312    3489    3494
    3315    3312    3489    3490    3315    3316    3319    3318
    3315    3316    3319    3320    3315    3316    3493    3498
    3315    3316    3493    3494    3316    3319    3320    3323
    3316    3319    3320    3497    3316    3493    3498    3497
    3316    3493    3498    3499    3316    3493    3494    3489
    3316    3493    3494    3495    3317    3140    3143    3142
    3317    3140    3143    3144    3317    3318    3319    3316
    3317    3318    3319    3320    3317    3322    3323    3320
    3317    3322    3323    3324    3318    3313    3314    3309
    3318    3313    3314    3315    3318    3317    3322    3321
    3318    3317    3322    3323    3318    3319    3320    3323
    3318    3319    3320    3497    3319    3316    3493    3498
    3319    3316    3493    3494    3319    3320    3323    3322
    3319    3320    3323    3324    3319    3320    3497    3502
    3319    3320    3497    3498    3320    3323    3324    3327
    3320    3323    3324    3501    3320    3497    3502    3501
    3320    3497    3502    3503    3320    3497    3498    3493
    3320    3497    3498    3499    3321    3144    3147    3146
    3321    3144    3147    3148    3321    3322    3323    3320
    3321    3322    3323    3324    3321    3326    3327    3324
    3321    3326    3327    3328    3322    3317    3318    3313
    3322    3317    3318    3319    3322    3321    3326    3325
    3322    3321    3326    3327    3322    3323    3324    3327
    3322    3323    3324    3501    3323    3320    3497    3502
    3323    3320    3497    3498    3323    3324    3327    3326
    3323    3324    3327    3328    3323    3324    3501    3502
    3323    3324    3501    3506    3324    3327    3328    3331
    3324    3327    3328    3505    3324    3501    3502    3497
    3324    3501    3502    3503    3324    3501    3506    3505
    3324    3501    3506    3507    3325    3148    3151    3150
    3325    3148    3151    3152    3325    3326    3327    3324
    3325    3326    3327    3328    3325    3330    3331    3328
    3325    3330    3331    3332    3326    3321    3322    3317
    3326    3321    3322    3323    3326    3325    3330    3329
    3326    3325    3330    3331    3326    3327    3328    3331
    3326    3327    3328    3505    3327    3324    3501    3502
    3327    3324    3501    3506    3327    3328    3331    3330
    3327    3328    3331    3332    3327    3328    3505    3506
    3327    3328    3505    3510    3328    3331    3332    3335
    3328    3331    3332    3509    3328    3505    3506    3501
    3328    3505    3506    3507    3328    3505    3510    3509
    3328    3505    3510    3511    3329    3152    3155    3154
    3329    3152    3155    3156    3329    3330    3331    3328
    3329    3330    3331    3332    3329    3334    3335    3332
    3329    3334    3335    3336    3330    3325    3326    3321
    3330    3325    3326    3327    3330    3329    3334    3333
    3330    3329    3334    3335    3330    3331    3332    3335
    3330    3331    3332    3509    3331    3328    3505    3506
    3331    3328    3505    3510    3331    3332    3335    3334
    3331    3332    3335    3336    3331    3332    3509    3514
    3331    3332    3509    3510    3332    3335    3336    3339
    3332    3335    3336    3513    3332    3509    3514    3513
    3332    3509    3514    3515    3332    3509    3510    3505
    3332    3509    3510    3511    3333    3156    3159    3158
    3333    3156    3159    3160    3333    3334    3335    3332
    3333    3334    3335    3336    3333    3338    3339    3336
    3333    3338    3339    3340    3334    3329    3330    3325
    3334    3329    3330    3331    3334    3333    3338    3337
    3334    3333    3338    3339    3334    3335    3336    3339
    3334    3335    3336    3513    3335    3332    3509    3514
    3335    3332    3509    3510    3335    3336    3339    3338
    3335    3336    3339    3340    3335    3336    3513    3518
    3335    3336    3513    3514    3336    3339    3340    3343
    3336    3339    3340    3517    3336    3513    3518    3517
    3336    3513    3518    3519    3336    3513    3514    3509
    3336    3513    3514    3515    3337    3160    3163    3162
    3337    3160    3163    3164    3337    3338    3339    3336
    3337    3338    3339    3340    3337    3342    3343    3340
    3337    3342    3343    3344    3338    3333    3334    3329
    3338    3333    3334    3335    3338    3337    3342    3341
    3338    3337    3342    3343    3338    3339    3340    3343
    3338    3339    3340    3517    3339    3336    3513    3518
    3339    3336    3513    3514    3339    3340    3343    3342
    3339    3340    3343    3344    3339    3340    3517    3522
    3339    3340    3517    3518    3340    3343    3344    3347
    3340    3343    3344    3521    3340    3517    3522    3521
    3340    3517    3522    3523    3340    3517    3518    3513
    3340    3517    3518    3519    3341    3164    3167    3166
    3341    3164    3167    3168    3341    3342    3343    3340
    3341    3342    3343    3344    3341    3346    3347    3344
    3341    3346    3347    3348    3342    3337    3338    3333
    3342    3337    3338    3339    3342    3341    3346    3345
    3342    3341    3346    3347    3342    3343    3344    3347
    3342    3343    3344    3521    3343    3340    3517    3522
    3343    3340    3517    3518    3343    3344    3347    3346
    3343    3344    3347    3348    3343    3344    3521    3522
    3343    3344    3521    3526    3344    3347    3348    3351
    3344    3347    3348    3525    3344    3521    3522    3517
    3344    3521    3522    3523    3344    3521    3526    3525
    3344    3521    3526    3527    3345    3168    3171    3170
    3345    3168    3171    3172    3345    3346    3347    3344
    3345    3346    3347    3348    3345    3350    3351    3348
    3345    3350    3351    3352    3346    3341    3342    3337
    3346    3341    3342    3343    3346    3345    3350    3349
    3346    3345    3350    3351    3346    3347    3348    3351
    3346    3347    3348    3525    3347    3344    3521    3522
    3347    3344    3521    3526    3347    3348    3351    3350
    3347    3348    3351    3352    3347    3348    3525    3526
    3347    3348    3525    3530    3348    3351    3352    3355
    3348    3351    3352    3529    3348    3525    3526    3521
    3348    3525    3526    3527    3348    3525    3530    3529
    3348    3525    3530    3531    3349    3172    3175    3174
    3349    3172    3175    3176    3349    3350    3351    3348
    3349    3350    3351    3352    3349    3354    3355    3352
    3349    3354    3355    3356    3350    3345    3346    3341
    3350    3345    3346    3347    3350    3349    3354    3353
    3350    3349    3354    3355    3350    3351    3352    3355
    3350    3351    3352    3529    3351    3348    3525    3526
    3351    3348    3525    3530    3351    3352    3355    3354
    3351    3352    3355    3356    3351    3352    3529    3534
    3351    3352    3529    3530    3352    3355    3356    3359
    3352    3355    3356    3533    3352    3529    3534    3533
    3352    3529    3534    3535    3352    3529    3530    3525
    3352    3529    3530    3531    3353    3176    3179    3178
    3353    3176    3179    3180    3353    3354    3355    3352
    3353    3354    3355    3356    3353    3358    3359    3356
    3353    3358    3359    3360    3354    3349    3350    3345
    3354    3349    3350    3351    3354    3353    3358    3357
    3354    3353    3358    3359    3354    3355    3356    3359
    3354    3355    3356    3533    3355    3352    3529    3534
    3355    3352    3529    3530    3355    3356    3359    3358
    3355    3356    3359    3360    3355    3356    3533    3534
    3355    3356    3533    3538    3356    3359    3360    3363
    3356    3359    3360    3537    3356    3533    3534    3529
    3356    3533    3534    3535    3356    3533    3538    3537
    3356    3533    3538    3539    3357    3180    3183    3182
    3357    3180    3183    3184    3357    3358    3359    3356
    3357    3358    3359    3360    3357    3362    3363    3360
    3357    3362    3363    3364    3358    3353    3354    3349
    3358    3353    3354    3355    3358    3357    3362    3361
    3358    3357    3362    3363    3358    3359    3360    3363
    3358    3359    3360    3537    3359    3356    3533    3534
    3359    3356    3533    3538    3359    3360    3363    3362
    3359    3360    3363    3364    3359    3360    3537    3542
    3359    3360    3537    3538    3360    3363    3364    3367
    3360    3363    3364    3541    3360    3537    3542    3541
    3360    3537    3542    3543    3360    3537    3538    3533
    3360    3537    3538    3539    3361    3184    3187    3186
    3361    3184    3187    3188    3361    3362    3363    3360
    3361    3362    3363    3364    3361    3366    3367    3364
    3361    3366    3367    3368    3362    3357    3358    3353
    3362    3357    3358    3359    3362    3361    3366    3365
    3362    3361    3366    3367    3362    3363    3364    3367
    3362    3363    3364    3541    3363    3360    3537    3542
    3363    3360    3537    3538    3363    3364    3367    3366
    3363    3364    3367    3368    3363    3364    3541    3542
    3363    3364    3541    3546    3364    3367    3368    3371
    3364    3367    3368    3545    3364    3541    3542    3537
    3364    3541    3542    3543    3364    3541    3546    3545
    3364    3541    3546    3547    3365    3188    3191    3190
    3365    3188    3191    3192    3365    3366    3367    3364
    3365    3366    3367    3368    3365    3370    3371    3368
    3365    3370    3371    3372    3366    3361    3362    3357
    3366    3361    3362    3363    3366    3365    3370    3369
    3366    3365    3370    3371    3366    3367    3368    3371
    3366    3367    3368    3545    3367    3364    3541    3542
    3367    3364    3541    3546    3367    3368    3371    3370
    3367    3368    3371    3372    3367    3368    3545    3546
    3367    3368    3545    3550    3368    3371    3372    3375
    3368    3371    3372    3549    3368    3545    3546    3541
    3368    3545    3546    3547    3368    3545    3550    3549
    3368    3545    3550    3551    3369    3192    3195    3194
    3369    3192    3195    3196    3369    3370    3371    3368
    3369    3370    3371    3372    3369    3374    3375    3372
    3369    3374    3375    3376    3370    3365    3366    3361
    3370    3365    3366    3367    3370    3369    3374    3373
    3370    3369    3374    3375    3370    3371    3372    3375
    3370    3371    3372    3549    3371    3368    3545    3546
    3371    3368    3545    3550    3371    3372    3375    3374
    3371    3372    3375    3376    3371    3372    3549    3554
    3371    3372    3549    3550    3372    3375    3376    3379
    3372    3375    3376    3553    3372    3549    3554    3553
    3372    3549    3554    3555    3372    3549    3550    3545
    3372    3549    3550    3551    3373    3196    3199    3198
    3373    3196    3199    3200    3373    3374    3375    3372
    3373    3374    3375    3376    3373    3378    3379    3376
    3373    3378    3379    3380    3374    3369    3370    3365
    3374    3369    3370    3371    3374    3373    3378    3377
    3374    3373    3378    3379    3374    3375    3376    3379
    3374    3375    3376    3553    3375    3372    3549    3554
    3375    3372    3549    3550    3375    3376    3379    3378
    3375    3376    3379    3380    3375    3376    3553    3558
    3375    3376    3553    3554    3376    3379    3380    3383
    3376    3379    3380    3557    3376    3553    3558    3557
    3376    3553    3558    3559    3376    3553    3554    3549
    3376    3553    3554    3555    3377    3200    3203    3202
    3377    3200    3203    3204    3377    3378    3379    3376
    3377    3378    3379    3380    3377    3382    3383    3380
    3377    3382    3383    3384    3378    3373    3374    3369
    3378    3373    3374    3375    3378    3377    3382    3381
    3378    3377    3382    3383    3378    3379    3380    3383
    3378    3379    3380    3557    3379    3376    3553    3558
    3379    3376    3553    3554    3379    3380    3383    3382
    3379    3380    3383    3384    3379    3380    3557    3562
    3379    3380    3557    3558    3380    3383    3384    3387
    3380    3383    3384    3561    3380    3557    3562    3561
    3380    3557    3562    3563    3380    3557    3558    3553
    3380    3557    3558    3559    3381    3204    3207    3206
    3381    3204    3207    3208    3381    3382    3383    3380
    3381    3382    3383    3384    3381    3386    3387    3384
    3381    3386    3387    3388    3382    3377    3378    3373
    3382    3377    3378    3379    3382    3381    3386    3385
    3382    3381    3386    3387    3382    3383    3384    3387
    3382    3383    3384    3561    3383    3380    3557    3562
    3383    3380    3557    3558    3383    3384    3387    3386
    3383    3384    3387    3388    3383    3384    3561    3562
    3383    3384    3561    3566    3384    3387    3388    3391
    3384    3387    3388    3565    3384    3561    3562    3557
    3384    3561    3562    3563    3384    3561    3566    3565
    3384    3561    3566    3567    3385    3208    3211    3210
    3385    3208    3211    3212    3385    3386    3387    3384
    3385    3386    3387    3388    3385    3390    3391    3388
    3385    3390    3391    3392    3386    3381    3382    3377
    3386    3381    3382    3383    3386    3385    3390    3389
    3386    3385    3390    3391    3386    3387    3388    3391
    3386    3387    3388    3565    3387    3384    3561    3562
    3387    3384    3561    3566    3387    3388    3391    3390
    3387    3388    3391    3392    3387    3388    3565    3566
    3387    3388    3565    3570    3388    3391    3392    3395
    3388    3391    3392    3569    3388    3565    3566    3561
    3388    3565    3566    3567    3388    3565    3570    3569
    3388    3565    3570    3571    3389    3212    3215    3214
    3389    3212    3215    3216    3389    3390    3391    3388
    3389    3390    3391    3392    3389    3394    3395    3392
    3389    3394    3395    3396    3390    3385    3386    3381
    3390    3385    3386    3387    3390    3389    3394    3393
    3390    3389    3394    3395    3390    3391    3392    3395
    3390    3391    3392    3569    3391    3388    3565    3566
    3391    3388    3565    3570    3391    3392    3395    3394
    3391    3392    3395    3396    3391    3392    3569    3574
    3391    3392    3569    3570    3392    3395    3396    3399
    3392    3395    3396    3573    3392    3569    3574    3573
    3392    3569    3574    3575    3392    3569    3570    3565
    3392    3569    3570    3571    3393    3216    3219    3218
    3393    3216    3219    3220    3393    3394    3395    3392
    3393    3394    3395    3396    3393    3398    3399    3396
    3393    3398    3399    3400    3394    3389    3390    3385
    3394    3389    3390    3391    3394    3393    3398    3397
    3394    3393    3398    3399    3394    3395    3396    3399
    3394    3395    3396    3573    3395    3392    3569    3574
    3395    3392    3569    3570    3395    3396    3399    3398
    3395    3396    3399    3400    3395    3396    3573    3578
    3395    3396    3573    3574    3396    3399    3400    3403
    3396    3399    3400    3577    3396    3573    3578    3577
    3396    3573    3578    3579    3396    3573    3574    3569
    3396    3573    3574    3575    3397    3220    3223    3222
    3397    3220    3223    3224    3397    3398    3399    3396
    3397    3398    3399    3400    3397    3402    3403    3400
    3397    3402    3403    3404    3398    3393    3394    3389
    3398    3393    3394    3395    3398    3397    3402    3401
    3398    3397    3402    3403    3398    3399    3400    3403
    3398    3399    3400    3577    3399    3396    3573    3578
    3399    3396    3573    3574    3399    3400    3403    3402
    3399    3400    3403    3404    3399    3400    3577    3582
    3399    3400    3577    3578    3400    3403    3404    3407
    3400    3403    3404    3581    3400    3577    3582    3581
    3400    3577    3582    3583    3400    3577    3578    3573
    3400    3577    3578    3579    3401    3224    3227    3226
    3401    3224    3227    3228    3401    3402    3403    3400
    3401    3402    3403    3404    3401    3406    3407    3404
    3401    3406    3407    3408    3402    3397    3398    3393
    3402    3397    3398    3399    3402    3401    3406    3405
    3402    3401    3406    3407    3402    3403    3404    3407
    3402    3403    3404    3581    3403    3400    3577    3582
    3403    3400    3577    3578    3403    3404    3407    3406
    3403    3404    3407    3408    3403    3404    3581    3582
    3403    3404    3581    3586    3404    3407    3408    3411
    3404    3407    3408    3585    3404    3581    3582    3577
    3404    3581    3582    3583    3404    3581    3586    3585
    3404    3581    3586    3587    3405    3228    3231    3230
    3405    3228    3231    3232    3405    3406    3407    3404
    3405    3406    3407    3408    3405    3410    3411    3408
    3405    3410    3411    3412    3406    3401    3402    3397
    3406    3401    3402    3403    3406    3405    3410    3409
    3406    3405    3410    3411    3406    3407    3408    3411
    3406    3407    3408    3585    3407    3404    3581    3582
    3407    3404    3581    3586    3407    3408    3411    3410
    3407    3408    3411    3412    3407    3408    3585    3586
    3407    3408    3585    3590    3408    3411    3412    3415
    3408    3411    3412    3589    3408    3585    3586    3581
    3408    3585    3586    3587    3408    3585    3590    3589
    3408    3585    3590    3591    3409    3232    3235    3234
    3409    3232    3235    3236    3409    3410    3411    3408
    3409    3410    3411    3412    3409    3414    3415    3412
    3409    3414    3415    3416    3410    3405    3406    3401
    3410    3405    3406    3407    3410    3409    3414    3413
    3410    3409    3414    3415    3410    3411    3412    3415
    3410    3411    3412    3589    3411    3408    3585    3586
    3411    3408    3585    3590    3411    3412    3415    3414
    3411    3412    3415    3416    3411    3412    3589    3594
    3411    3412    3589    3590    3412    3415    3416    3419
    3412    3415    3416    3593    3412    3589    3594    3593
    3412    3589    3594    3595    3412    3589    3590    3585
    3412    3589    3590    3591    3413    3236    3239    3238
    3413    3236    3239    3240    3413    3414    3415    3412
    3413    3414    3415    3416    3413    3418    3419    3416
    3413    3418    3419    3420    3414    3409    3410    3405
    3414    3409    3410    3411    3414    3413    3418    3417
    3414    3413    3418    3419    3414    3415    3416    3419
    3414    3415    3416    3593    3415    3412    3589    3594
    3415    3412    3589    3590    3415    3416    3419    3418
    3415    3416    3419    3420    3415    3416    3593    3598
    3415    3416    3593    3594    3416    3419    3420    3597
    3416    3593    3598    3597    3416    3593    3598    3599
    3416    3593    3594    3589    3416    3593    3594    3595
    3417    3418    3419    3416    3417    3418    3419    3420
    3418    3413    3414    3409    3418    3413    3414    3415
    3418    3419    3420    3597    3419    3416    3593    3598
    3419    3416    3593    3594    3419    3420    3597    3598
    3420    3597    3598    3593    3420    3597    3598    3599
    3421    3244    3247    3246    3421    3244    3247    3248
    3421    3422    3423    3424    3421    3426    3427    3424
    3421    3426    3427    3428    3422    3421    3426    3425
    3422    3421    3426    3427    3422    3423    3424    3427
    3422    3423    3424    3601    3423    3424    3427    3426
    3423    3424    3427    3428    3423    3424    3601    3602
    3423    3424    3601    3606    3424    3427    3428    3431
    3424    3427    3428    3605    3424    3601    3602    3603
    3424    3601    3606    3605    3424    3601    3606    3607
    3425    3248    3251    3250    3425    3248    3251    3252
    3425    3426    3427    3424    3425    3426    3427    3428
    3425    3430    3431    3428    3425    3430    3431    3432
    3426    3421    3422    3423    3426    3425    3430    3429
    3426    3425    3430    3431    3426    3427    3428    3431
    3426    3427    3428    3605    3427    3424    3601    3602
    3427    3424    3601    3606    3427    3428    3431    3430
    3427    3428    3431    3432    3427    3428    3605    3606
    3427    3428    3605    3610    3428    3431    3432    3435
    3428    3431    3432    3609    3428    3605    3606    3601
    3428    3605    3606    3607    3428    3605    3610    3609
    3428    3605    3610    3611    3429    3252    3255    3254
    3429    3252    3255    3256    3429    3430    3431    3428
    3429    3430    3431    3432    3429    3434    3435    3432
    3429    3434    3435    3436    3430    3425    3426    3421
    3430    3425    3426    3427    3430    3429    3434    3433
    3430    3429    3434    3435    3430    3431    3432    3435
    3430    3431    3432    3609    3431    3428    3605    3606
    3431    3428    3605    3610    3431    3432    3435    3434
    3431    3432    3435    3436    3431    3432    3609    3614
    3431    3432    3609    3610    3432    3435    3436    3439
    3432    3435    3436    3613    3432    3609    3614    3613
    3432    3609    3614    3615    3432    3609    3610    3605
    3432    3609    3610    3611    3433    3256    3259    3258
    3433    3256    3259    3260    3433    3434    3435    3432
    3433    3434    3435    3436    3433    3438    3439    3436
    3433    3438    3439    3440    3434    3429    3430    3425
    3434    3429    3430    3431    3434    3433    3438    3437
    3434    3433    3438    3439    3434    3435    3436    3439
    3434    3435    3436    3613    3435    3432    3609    3614
    3435    3432    3609    3610    3435    3436    3439    3438
    3435    3436    3439    3440    3435    3436    3613    3618
    3435    3436    3613    3614    3436    3439    3440    3443
    3436    3439    3440    3617    3436    3613    3618    3617
    3436    3613    3618    3619    3436    3613    3614    3609
    3436    3613    3614    3615    3437    3260    3263    3262
    3437    3260    3263    3264    3437    3438    3439    3436
    3437    3438    3439    3440    3437    3442    3443    3440
    3437    3442    3443    3444    3438    3433    3434    3429
    3438    3433    3434    3435    3438    3437    3442    3441
    3438    3437    3442    3443    3438    3439    3440    3443
    3438    3439    3440    3617    3439    3436    3613    3618
    3439    3436    3613    3614    3439    3440    3443    3442
    3439    3440    3443    3444    3439    3440    3617    3622
    3439    3440    3617    3618    3440    3443    3444    3447
    3440    3443    3444    3621    3440    3617    3622    3621
    3440    3617    3622    3623    3440    3617    3618    3613
    3440    3617    3618    3619    3441    3264    3267    3266
    3441    3264    3267    3268    3441    3442    3443    3440
    3441    3442    3443    3444    3441    3446    3447    3444
    3441    3446    3447    3448    3442    3437    3438    3433
    3442    3437    3438    3439    3442    3441    3446    3445
    3442    3441    3446    3447    3442    3443    3444    3447
    3442    3443    3444    3621    3443    3440    3617    3622
    3443    3440    3617    3618    3443    3444    3447    3446
    3443    3444    3447    3448    3443    3444    3621    3622
    3443    3444    3621    3626    3444    3447    3448    3451
    3444    3447    3448    3625    3444    3621    3622    3617
    3444    3621    3622    3623    3444    3621    3626    3625
    3444    3621    3626    3627    3445    3268    3271    3270
    3445    3268    3271    3272    3445    3446    3447    3444
    3445    3446    3447    3448    3445    3450    3451    3448
    3445    3450    3451    3452    3446    3441    3442    3437
    3446    3441    3442    3443    3446    3445    3450    3449
    3446    3445    3450    3451    3446    3447    3448    3451
    3446    3447    3448    3625    3447    3444    3621    3622
    3447    3444    3621    3626    3447    3448    3451    3450
    3447    3448    3451    3452    3447    3448    3625    3626
    3447    3448    3625    3630    3448    3451    3452    3455
    3448    3451    3452    3629    3448    3625    3626    3621
    3448    3625    3626    3627    3448    3625    3630    3629
    3448    3625    3630    3631    3449    3272    3275    3274
    3449    3272    3275    3276    3449    3450    3451    3448
    3449    3450    3451    3452    3449    3454    3455    3452
    3449    3454    3455    3456    3450    3445    3446    3441
    3450    3445    3446    3447    3450    3449    3454    3453
    3450    3449    3454    3455    3450    3451    3452    3455
    3450    3451    3452    3629    3451    3448    3625    3626
    3451    3448    3625    3630    3451    3452    3455    3454
    3451    3452    3455    3456    3451    3452    3629    3630
    3451    3452    3629    3634    3452    3455    3456    3459
    3452    3455    3456    3633    3452    3629    3630    3625
    3452    3629    3630    3631    3452    3629    3634    3633
    3452    3629    3634    3635    3453    3276    3279    3278
    3453    3276    3279    3280    3453    3454    3455    3452
    3453    3454    3455    3456    3453    3458    3459    3456
    3453    3458    3459    3460    3454    3449    3450    3445
    3454    3449    3450    3451    3454    3453    3458    3457
    3454    3453    3458    3459    3454    3455    3456    3459
    3454    3455    3456    3633    3455    3452    3629    3630
    3455    3452    3629    3634    3455    3456    3459    3458
    3455    3456    3459    3460    3455    3456    3633    3634
    3455    3456    3633    3638    3456    3459    3460    3463
    3456    3459    3460    3637    3456    3633    3634    3629
    3456    3633    3634    3635    3456    3633    3638    3637
    3456    3633    3638    3639    3457    3280    3283    3282
    3457    3280    3283    3284    3457    3458    3459    3456
    3457    3458    3459    3460    3457    3462    3463    3460
    3457    3462    3463    3464    3458    3453    3454    3449
    3458    3453    3454    3455    3458    3457    3462    3461
    3458    3457    3462    3463    3458    3459    3460    3463
    3458    3459    3460    3637    3459    3456    3633    3634
    3459    3456    3633    3638    3459    3460    3463    3462
    3459    3460    3463    3464    3459    3460    3637    3638
    3459    3460    3637    3642    3460    3463    3464    3467
    3460    3463    3464    3641    3460    3637    3638    3633
    3460    3637    3638    3639    3460    3637    3642    3641
    3460    3637    3642    3643    3461    3284    3287    3286
    3461    3284    3287    3288    3461    3462    3463    3460
    3461    3462    3463    3464    3461    3466    3467    3464
    3461    3466    3467    3468    3462    3457    3458    3453
    3462    3457    3458    3459    3462    3461    3466    3465
    3462    3461    3466    3467    3462    3463    3464    3467
    3462    3463    3464    3641    3463    3460    3637    3638
    3463    3460    3637    3642    3463    3464    3467    3466
    3463    3464    3467    3468    3463    3464    3641    3642
    3463    3464    3641    3646    3464    3467    3468    3471
    3464    3467    3468    3645    3464    3641    3642    3637
    3464    3641    3642    3643    3464    3641    3646    3645
    3464    3641    3646    3647    3465    3288    3291    3290
    3465    3288    3291    3292    3465    3466    3467    3464
    3465    3466    3467    3468    3465    3470    3471    3468
    3465    3470    3471    3472    3466    3461    3462    3457
    3466    3461    3462    3463    3466    3465    3470    3469
    3466    3465    3470    3471    3466    3467    3468    3471
    3466    3467    3468    3645    3467    3464    3641    3642
    3467    3464    3641    3646    3467    3468    3471    3470
    3467    3468    3471    3472    3467    3468    3645    3646
    3467    3468    3645    3650    3468    3471    3472    3475
    3468    3471    3472    3649    3468    3645    3646    3641
    3468    3645    3646    3647    3468    3645    3650    3649
    3468    3645    3650    3651    3469    3292    3295    3294
    3469    3292    3295    3296    3469    3470    3471    3468
    3469    3470    3471    3472    3469    3474    3475    3472
    3469    3474    3475    3476    3470    3465    3466    3461
    3470    3465    3466    3467    3470    3469    3474    3473
    3470    3469    3474    3475    3470    3471    3472    3475
    3470    3471    3472    3649    3471    3468    3645    3646
    3471    3468    3645    3650    3471    3472    3475    3474
    3471    3472    3475    3476    3471    3472    3649    3654
    3471    3472    3649    3650    3472    3475    3476    3479
    3472    3475    3476    3653    3472    3649    3654    3653
    3472    3649    3654    3655    3472    3649    3650    3645
    3472    3649    3650    3651    3473    3296    3299    3298
    3473    3296    3299    3300    3473    3474    3475    3472
    3473    3474    3475    3476    3473    3478    3479    3476
    3473    3478    3479    3480    3474    3469    3470    3465
    3474    3469    3470    3471    3474    3473    3478    3477
    3474    3473    3478    3479    3474    3475    3476    3479
    3474    3475    3476    3653    3475    3472    3649    3654
    3475    3472    3649    3650    3475    3476    3479    3478
    3475    3476    3479    3480    3475    3476    3653    3658
    3475    3476    3653    3654    3476    3479    3480    3483
    3476    3479    3480    3657    3476    3653    3658    3657
    3476    3653    3658    3659    3476    3653    3654    3649
    3476    3653    3654    3655    3477    3300    3303    3302
    3477    3300    3303    3304    3477    3478    3479    3476
    3477    3478    3479    3480    3477    3482    3483    3480
    3477    3482    3483    3484    3478    3473    3474    3469
    3478    3473    3474    3475    3478    3477    3482    3481
    3478    3477    3482    3483    3478    3479    3480    3483
    3478    3479    3480    3657    3479    3476    3653    3658
    3479    3476    3653    3654    3479    3480    3483    3482
    3479    3480    3483    3484    3479    3480    3657    3662
    3479    3480    3657    3658    3480    3483    3484    3487
    3480    3483    3484    3661    3480    3657    3662    3661
    3480    3657    3662    3663    3480    3657    3658    3653
    3480    3657    3658    3659    3481    3304    3307    3306
    3481    3304    3307    3308    3481    3482    3483    3480
    3481    3482    3483    3484    3481    3486    3487    3484
    3481    3486    3487    3488    3482    3477    3478    3473
    3482    3477    3478    3479    3482    3481    3486    3485
    3482    3481    3486    3487    3482    3483    3484    3487
    3482    3483    3484    3661    3483    3480    3657    3662
    3483    3480    3657    3658    3483    3484    3487    3486
    3483    3484    3487    3488    3483    3484    3661    3662
    3483    3484    3661    3666    3484    3487    3488    3491
    3484    3487    3488    3665    3484    3661    3662    3657
    3484    3661    3662    3663    3484    3661    3666    3665
    3484    3661    3666    3667    3485    3308    3311    3310
    3485    3308    3311    3312    3485    3486    3487    3484
    3485    3486    3487    3488    3485    3490    3491    3488
    3485    3490    3491    3492    3486    3481    3482    3477
    3486    3481    3482    3483    3486    3485    3490    3489
    3486    3485    3490    3491    3486    3487    3488    3491
    3486    3487    3488    3665    3487    3484    3661    3662
    3487    3484    3661    3666    3487    3488    3491    3490
    3487    3488    3491    3492    3487    3488    3665    3666
    3487    3488    3665    3670    3488    3491    3492    3495
    3488    3491    3492    3669    3488    3665    3666    3661
    3488    3665    3666    3667    3488    3665    3670    3669
    3488    3665    3670    3671    3489    3312    3315    3314
    3489    3312    3315    3316    3489    3490    3491    3488
    3489    3490    3491    3492    3489    3494    3495    3492
    3489    3494    3495    3496    3490    3485    3486    3481
    3490    3485    3486    3487    3490    3489    3494    3493
    3490    3489    3494    3495    3490    3491    3492    3495
    3490    3491    3492    3669    3491    3488    3665    3666
    3491    3488    3665    3670    3491    3492    3495    3494
    3491    3492    3495    3496    3491    3492    3669    3674
    3491    3492    3669    3670    3492    3495    3496    3499
    3492    3495    3496    3673    3492    3669    3674    3673
    3492    3669    3674    3675    3492    3669    3670    3665
    3492    3669    3670    3671    3493    3316    3319    3318
    3493    3316    3319    3320    3493    3494    3495    3492
    3493    3494    3495    3496    3493    3498    3499    3496
    3493    3498    3499    3500    3494    3489    3490    3485
    3494    3489    3490    3491    3494    3493    3498    3497
    3494    3493    3498    3499    3494    3495    3496    3499
    3494    3495    3496    3673    3495    3492    3669    3674
    3495    3492    3669    3670    3495    3496    3499    3498
    3495    3496    3499    3500    3495    3496    3673    3678
    3495    3496    3673    3674    3496    3499    3500    3503
    3496    3499    3500    3677    3496    3673    3678    3677
    3496    3673    3678    3679    3496    3673    3674    3669
    3496    3673    3674    3675    3497    3320    3323    3322
    3497    3320    3323    3324    3497    3498    3499    3496
    3497    3498    3499    3500    3497    3502    3503    3500
    3497    3502    3503    3504    3498    3493    3494    3489
    3498    3493    3494    3495    3498    3497    3502    3501
    3498    3497    3502    3503    3498    3499    3500    3503
    3498    3499    3500    3677    3499    3496    3673    3678
    3499    3496    3673    3674    3499    3500    3503    3502
    3499    3500    3503    3504    3499    3500    3677    3682
    3499    3500    3677    3678    3500    3503    3504    3507
    3500    3503    3504    3681    3500    3677    3682    3681
    3500    3677    3682    3683    3500    3677    3678    3673
    3500    3677    3678    3679    3501    3324    3327    3326
    3501    3324    3327    3328    3501    3502    3503    3500
    3501    3502    3503    3504    3501    3506    3507    3504
    3501    3506    3507    3508    3502    3497    3498    3493
    3502    3497    3498    3499    3502    3501    3506    3505
    3502    3501    3506    3507    3502    3503    3504    3507
    3502    3503    3504    3681    3503    3500    3677    3682
    3503    3500    3677    3678    3503    3504    3507    3506
    3503    3504    3507    3508    3503    3504    3681    3682
    3503    3504    3681    3686    3504    3507    3508    3511
    3504    3507    3508    3685    3504    3681    3682    3677
    3504    3681    3682    3683    3504    3681    3686    3685
    3504    3681    3686    3687    3505    3328    3331    3330
    3505    3328    3331    3332    3505    3506    3507    3504
    3505    3506    3507    3508    3505    3510    3511    3508
    3505    3510    3511    3512    3506    3501    3502    3497
    3506    3501    3502    3503    3506    3505    3510    3509
    3506    3505    3510    3511    3506    3507    3508    3511
    3506    3507    3508    3685    3507    3504    3681    3682
    3507    3504    3681    3686    3507    3508    3511    3510
    3507    3508    3511    3512    3507    3508    3685    3686
    3507    3508    3685    3690    3508    3511    3512    3515
    3508    3511    3512    3689    3508    3685    3686    3681
    3508    3685    3686    3687    3508    3685    3690    3689
    3508    3685    3690    3691    3509    3332    3335    3334
    3509    3332    3335    3336    3509    3510    3511    3508
    3509    3510    3511    3512    3509    3514    3515    3512
    3509    3514    3515    3516    3510    3505    3506    3501
    3510    3505    3506    3507    3510    3509    3514    3513
    3510    3509    3514    3515    3510    3511    3512    3515
    3510    3511    3512    3689    3511    3508    3685    3686
    3511    3508    3685    3690    3511    3512    3515    3514
    3511    3512    3515    3516    3511    3512    3689    3690
    3511    3512    3689    3694    3512    3515    3516    3519
    3512    3515    3516    3693    3512    3689    3690    3685
    3512    3689    3690    3691    3512    3689    3694    3693
    3512    3689    3694    3695    3513    3336    3339    3338
    3513    3336    3339    3340    3513    3514    3515    3512
    3513    3514    3515    3516    3513    3518    3519    3516
    3513    3518    3519    3520    3514    3509    3510    3505
    3514    3509    3510    3511    3514    3513    3518    3517
    3514    3513    3518    3519    3514    3515    3516    3519
    3514    3515    3516    3693    3515    3512    3689    3690
    3515    3512    3689    3694    3515    3516    3519    3518
    3515    3516    3519    3520    3515    3516    3693    3694
    3515    3516    3693    3698    3516    3519    3520    3523
    3516    3519    3520    3697    3516    3693    3694    3689
    3516    3693    3694    3695    3516    3693    3698    3697
    3516    3693    3698    3699    3517    3340    3343    3342
    3517    3340    3343    3344    3517    3518    3519    3516
    3517    3518    3519    3520    3517    3522    3523    3520
    3517    3522    3523    3524    3518    3513    3514    3509
    3518    3513    3514    3515    3518    3517    3522    3521
    3518    3517    3522    3523    3518    3519    3520    3523
    3518    3519    3520    3697    3519    3516    3693    3694
    3519    3516    3693    3698    3519    3520    3523    3522
    3519    3520    3523    3524    3519    3520    3697    3698
    3519    3520    3697    3702    3520    3523    3524    3527
    3520    3523    3524    3701    3520    3697    3698    3693
    3520    3697    3698    3699    3520    3697    3702    3701
    3520    3697    3702    3703    3521    3344    3347    3346
    3521    3344    3347    3348    3521    3522    3523    3520
    3521    3522    3523    3524    3521    3526    3527    3524
    3521    3526    3527    3528    3522    3517    3518    3513
    3522    3517    3518    3519    3522    3521    3526    3525
    3522    3521    3526    3527    3522    3523    3524    3527
    3522    3523    3524    3701    3523    3520    3697    3698
    3523    3520    3697    3702    3523    3524    3527    3526
    3523    3524    3527    3528    3523    3524    3701    3702
    3523    3524    3701    3706    3524    3527    3528    3531
    3524    3527    3528    3705    3524    3701    3702    3697
    3524    3701    3702    3703    3524    3701    3706    3705
    3524    3701    3706    3707    3525    3348    3351    3350
    3525    3348    3351    3352    3525    3526    3527    3524
    3525    3526    3527    3528    3525    3530    3531    3528
    3525    3530    3531    3532    3526    3521    3522    3517
    3526    3521    3522    3523    3526    3525    3530    3529
    3526    3525    3530    3531    3526    3527    3528    3531
    3526    3527    3528    3705    3527    3524    3701    3702
    3527    3524    3701    3706    3527    3528    3531    3530
    3527    3528    3531    3532    3527    3528    3705    3706
    3527    3528    3705    3710    3528    3531    3532    3535
    3528    3531    3532    3709    3528    3705    3706    3701
    3528    3705    3706    3707    3528    3705    3710    3709
    3528    3705    3710    3711    3529    3352    3355    3354
    3529    3352    3355    3356    3529    3530    3531    3528
    3529    3530    3531    3532    3529    3534    3535    3532
    3529    3534    3535    3536    3530    3525    3526    3521
    3530    3525    3526    3527    3530    3529    3534    3533
    3530    3529    3534    3535    3530    3531    3532    3535
    3530    3531    3532    3709    3531    3528    3705    3706
    3531    3528    3705    3710    3531    3532    3535    3534
    3531    3532    3535    3536    3531    3532    3709    3714
    3531    3532    3709    3710    3532    3535    3536    3539
    3532    3535    3536    3713    3532    3709    3714    3713
    3532    3709    3714    3715    3532    3709    3710    3705
    3532    3709    3710    3711    3533    3356    3359    3358
    3533    3356    3359    3360    3533    3534    3535    3532
    3533    3534    3535    3536    3533    3538    3539    3536
    3533    3538    3539    3540    3534    3529    3530    3525
    3534    3529    3530    3531    3534    3533    3538    3537
    3534    3533    3538    3539    3534    3535    3536    3539
    3534    3535    3536    3713    3535    3532    3709    3714
    3535    3532    3709    3710    3535    3536    3539    3538
    3535    3536    3539    3540    3535    3536    3713    3718
    3535    3536    3713    3714    3536    3539    3540    3543
    3536    3539    3540    3717    3536    3713    3718    3717
    3536    3713    3718    3719    3536    3713    3714    3709
    3536    3713    3714    3715    3537    3360    3363    3362
    3537    3360    3363    3364    3537    3538    3539    3536
    3537    3538    3539    3540    3537    3542    3543    3540
    3537    3542    3543    3544    3538    3533    3534    3529
    3538    3533    3534    3535    3538    3537    3542    3541
    3538    3537    3542    3543    3538    3539    3540    3543
    3538    3539    3540    3717    3539    3536    3713    3718
    3539    3536    3713    3714    3539    3540    3543    3542
    3539    3540    3543    3544    3539    3540    3717    3722
    3539    3540    3717    3718    3540    3543    3544    3547
    3540    3543    3544    3721    3540    3717    3722    3721
    3540    3717    3722    3723    3540    3717    3718    3713
    3540    3717    3718    3719    3541    3364    3367    3366
    3541    3364    3367    3368    3541    3542    3543    3540
    3541    3542    3543    3544    3541    3546    3547    3544
    3541    3546    3547    3548    3542    3537    3538    3533
    3542    3537    3538    3539    3542    3541    3546    3545
    3542    3541    3546    3547    3542    3543    3544    3547
    3542    3543    3544    3721    3543    3540    3717    3722
    3543    3540    3717    3718    3543    3544    3547    3546
    3543    3544    3547    3548    3543    3544    3721    3722
    3543    3544    3721    3726    3544    3547    3548    3551
    3544    3547    3548    3725    3544    3721    3722    3717
    3544    3721    3722    3723    3544    3721    3726    3725
    3544    3721    3726    3727    3545    3368    3371    3370
    3545    3368    3371    3372    3545    3546    3547    3544
    3545    3546    3547    3548    3545    3550    3551    3548
    3545    3550    3551    3552    3546    3541    3542    3537
    3546    3541    3542    3543    3546    3545    3550    3549
    3546    3545    3550    3551    3546    3547    3548    3551
    3546    3547    3548    3725    3547    3544    3721    3722
    3547    3544    3721    3726    3547    3548    3551    3550
    3547    3548    3551    3552    3547    3548    3725    3726
    3547    3548    3725    3730    3548    3551    3552    3555
    3548    3551    3552    3729    3548    3725    3726    3721
    3548    3725    3726    3727    3548    3725    3730    3729
    3548    3725    3730    3731    3549    3372    3375    3374
    3549    3372    3375    3376    3549    3550    3551    3548
    3549    3550    3551    3552    3549    3554    3555    3552
    3549    3554    3555    3556    3550    3545    3546    3541
    3550    3545    3546    3547    3550    3549    3554    3553
    3550    3549    3554    3555    3550    3551    3552    3555
    3550    3551    3552    3729    3551    3548    3725    3726
    3551    3548    3725    3730    3551    3552    3555    3554
    3551    3552    3555    3556    3551    3552    3729    3734
    3551    3552    3729    3730    3552    3555    3556    3559
    3552    3555    3556    3733    3552    3729    3734    3733
    3552    3729    3734    3735    3552    3729    3730    3725
    3552    3729    3730    3731    3553    3376    3379    3378
    3553    3376    3379    3380    3553    3554    3555    3552
    3553    3554    3555    3556    3553    3558    3559    3556
    3553    3558    3559    3560    3554    3549    3550    3545
    3554    3549    3550    3551    3554    3553    3558    3557
    3554    3553    3558    3559    3554    3555    3556    3559
    3554    3555    3556    3733    3555    3552    3729    3734
    3555    3552    3729    3730    3555    3556    3559    3558
    3555    3556    3559    3560    3555    3556    3733    3738
    3555    3556    3733    3734    3556    3559    3560    3563
    3556    3559    3560    3737    3556    3733    3738    3737
    3556    3733    3738    3739    3556    3733    3734    3729
    3556    3733    3734    3735    3557    3380    3383    3382
    3557    3380    3383    3384    3557    3558    3559    3556
    3557    3558    3559    3560    3557    3562    3563    3560
    3557    3562    3563    3564    3558    3553    3554    3549
    3558    3553    3554    3555    3558    3557    3562    3561
    3558    3557    3562    3563    3558    3559    3560    3563
    3558    3559    3560    3737    3559    3556    3733    3738
    3559    3556    3733    3734    3559    3560    3563    3562
    3559    3560    3563    3564    3559    3560    3737    3742
    3559    3560    3737    3738    3560    3563    3564    3567
    3560    3563    3564    3741    3560    3737    3742    3741
    3560    3737    3742    3743    3560    3737    3738    3733
    3560    3737    3738    3739    3561    3384    3387    3386
    3561    3384    3387    3388    3561    3562    3563    3560
    3561    3562    3563    3564    3561    3566    3567    3564
    3561    3566    3567    3568    3562    3557    3558    3553
    3562    3557    3558    3559    3562    3561    3566    3565
    3562    3561    3566    3567    3562    3563    3564    3567
    3562    3563    3564    3741    3563    3560    3737    3742
    3563    3560    3737    3738    3563    3564    3567    3566
    3563    3564    3567    3568    3563    3564    3741    3742
    3563    3564    3741    3746    3564    3567    3568    3571
    3564    3567    3568    3745    3564    3741    3742    3737
    3564    3741    3742    3743    3564    3741    3746    3745
    3564    3741    3746    3747    3565    3388    3391    3390
    3565    3388    3391    3392    3565    3566    3567    3564
    3565    3566    3567    3568    3565    3570    3571    3568
    3565    3570    3571    3572    3566    3561    3562    3557
    3566    3561    3562    3563    3566    3565    3570    3569
    3566    3565    3570    3571    3566    3567    3568    3571
    3566    3567    3568    3745    3567    3564    3741    3742
    3567    3564    3741    3746    3567    3568    3571    3570
    3567    3568    3571    3572    3567    3568    3745    3746
    3567    3568    3745    3750    3568    3571    3572    3575
    3568    3571    3572    3749    3568    3745    3746    3741
    3568    3745    3746    3747    3568    3745    3750    3749
    3568    3745    3750    3751    3569    3392    3395    3394
    3569    3392    3395    3396    3569    3570    3571    3568
    3569    3570    3571    3572    3569    3574    3575    3572
    3569    3574    3575    3576    3570    3565    3566    3561
    3570    3565    3566    3567    3570    3569    3574    3573
    3570    3569    3574    3575    3570    3571    3572    3575
    3570    3571    3572    3749    3571    3568    3745    3746
    3571    3568    3745    3750    3571    3572    3575    3574
    3571    3572    3575    3576    3571    3572    3749    3754
    3571    3572    3749    3750    3572    3575    3576    3579
    3572    3575    3576    3753    3572    3749    3754    3753
    3572    3749    3754    3755    3572    3749    3750    3745
    3572    3749    3750    3751    3573    3396    3399    3398
    3573    3396    3399    3400    3573    3574    3575    3572
    3573    3574    3575    3576    3573    3578    3579    3576
    3573    3578    3579    3580    3574    3569    3570    3565
    3574    3569    3570    3571    3574    3573    3578    3577
    3574    3573    3578    3579    3574    3575    3576    3579
    3574    3575    3576    3753    3575    3572    3749    3754
    3575    3572    3749    3750    3575    3576    3579    3578
    3575    3576    3579    3580    3575    3576    3753    3754
    3575    3576    3753    3758    3576    3579    3580    3583
    3576    3579    3580    3757    3576    3753    3754    3749
    3576    3753    3754    3755    3576    3753    3758    3757
    3576    3753    3758    3759    3577    3400    3403    3402
    3577    3400    3403    3404    3577    3578    3579    3576
    3577    3578    3579    3580    3577    3582    3583    3580
    3577    3582    3583    3584    3578    3573    3574    3569
    3578    3573    3574    3575    3578    3577    3582    3581
    3578    3577    3582    3583    3578    3579    3580    3583
    3578    3579    3580    3757    3579    3576    3753    3754
    3579    3576    3753    3758    3579    3580    3583    3582
    3579    3580    3583    3584    3579    3580    3757    3758
    3579    3580    3757    3762    3580    3583    3584    3587
    3580    3583    3584    3761    3580    3757    3758    3753
    3580    3757    3758    3759    3580    3757    3762    3761
    3580    3757    3762    3763    3581    3404    3407    3406
    3581    3404    3407    3408    3581    3582    3583    3580
    3581    3582    3583    3584    3581    3586    3587    3584
    3581    3586    3587    3588    3582    3577    3578    3573
    3582    3577    3578    3579    3582    3581    3586    3585
    3582    3581    3586    3587    3582    3583    3584    3587
    3582    3583    3584    3761    3583    3580    3757    3758
    3583    3580    3757    3762    3583    3584    3587    3586
    3583    3584    3587    3588    3583    3584    3761    3762
    3583    3584    3761    3766    3584    3587    3588    3591
    3584    3587    3588    3765    3584    3761    3762    3757
    3584    3761    3762    3763    3584    3761    3766    3765
    3584    3761    3766    3767    3585    3408    3411    3410
    3585    3408    3411    3412    3585    3586    3587    3584
    3585    3586    3587    3588    3585    3590    3591    3588
    3585    3590    3591    3592    3586    3581    3582    3577
    3586    3581    3582    3583    3586    3585    3590    3589
    3586    3585    3590    3591    3586    3587    3588    3591
    3586    3587    3588    3765    3587    3584    3761    3762
    3587    3584    3761    3766    3587    3588    3591    3590
    3587    3588    3591    3592    3587    3588    3765    3766
    3587    3588    3765    3770    3588    3591    3592    3595
    3588    3591    3592    3769    3588    3765    3766    3761
    3588    3765    3766    3767    3588    3765    3770    3769
    3588    3765    3770    3771    3589    3412    3415    3414
    3589    3412    3415    3416    3589    3590    3591    3588
    3589    3590    3591    3592    3589    3594    3595    3592
    3589    3594    3595    3596    3590    3585    3586    3581
    3590    3585    3586    3587    3590    3589    3594    3593
    3590    3589    3594    3595    3590    3591    3592    3595
    3590    3591    3592    3769    3591    3588    3765    3766
    3591    3588    3765    3770    3591    3592    3595    3594
    3591    3592    3595    3596    3591    3592    3769    3770
    3591    3592    3769    3774    3592    3595    3596    3599
    3592    3595    3596    3773    3592    3769    3770    3765
    3592    3769    3770    3771    3592    3769    3774    3773
    3592    3769    3774    3775    3593    3416    3419    3418
    3593    3416    3419    3420    3593    3594    3595    3592
    3593    3594    3595    3596    3593    3598    3599    3596
    3593    3598    3599    3600    3594    3589    3590    3585
    3594    3589    3590    3591    3594    3593    3598    3597
    3594    3593    3598    3599    3594    3595    3596    3599
    3594    3595    3596    3773    3595    3592    3769    3770
    3595    3592    3769    3774    3595    3596    3599    3598
    3595    3596    3599    3600    3595    3596    3773    3774
    3595    3596    3773    3778    3596    3599    3600    3777
    3596    3773    3774    3769    3596    3773    3774    3775
    3596    3773    3778    3777    3596    3773    3778    3779
    3597    3598    3599    3596    3597    3598    3599    3600
    3598    3593    3594    3589    3598    3593    3594    3595
    3598    3599    3600    3777    3599    3596    3773    3774
    3599    3596    3773    3778    3599    3600    3777    3778
    3600    3777    3778    3773    3600    3777    3778    3779
    3601    3424    3427    3426    3601    3424    3427    3428
    3601    3602    3603    3604    3601    3606    3607    3604
    3601    3606    3607    3608    3602    3601    3606    3605
    3602    3601    3606    3607    3602    3603    3604    3781
    3602    3603    3604    3607    3603    3604    3781    3782
    3603    3604    3781    3786    3603    3604    3607    3606
    3603    3604    3607    3608    3604    3607    3608    3785
    3604    3607    3608    3611    3604    3781    3782    3783
    3604    3781    3786    3785    3604    3781    3786    3787
    3605    3428    3431    3430    3605    3428    3431    3432
    3605    3606    3607    3604    3605    3606    3607    3608
    3605    3610    3611    3608    3605    3610    3611    3612
    3606    3601    3602    3603    3606    3605    3610    3609
    3606    3605    3610    3611    3606    3607    3608    3785
    3606    3607    3608    3611    3607    3604    3781    3782
    3607    3604    3781    3786    3607    3608    3785    3786
    3607    3608    3785    3790    3607    3608    3611    3610
    3607    3608    3611    3612    3608    3611    3612    3615
    3608    3611    3612    3789    3608    3785    3786    3781
    3608    3785    3786    3787    3608    3785    3790    3789
    3608    3785    3790    3791    3609    3432    3435    3434
    3609    3432    3435    3436    3609    3610    3611    3608
    3609    3610    3611    3612    3609    3614    3615    3612
    3609    3614    3615    3616    3610    3605    3606    3601
    3610    3605    3606    3607    3610    3609    3614    3613
    3610    3609    3614    3615    3610    3611    3612    3615
    3610    3611    3612    3789    3611    3608    3785    3786
    3611    3608    3785    3790    3611    3612    3615    3614
    3611    3612    3615    3616    3611    3612    3789    3790
    3611    3612    3789    3794    3612    3615    3616    3619
    3612    3615    3616    3793    3612    3789    3790    3785
    3612    3789    3790    3791    3612    3789    3794    3793
    3612    3789    3794    3795    3613    3436    3439    3438
    3613    3436    3439    3440    3613    3614    3615    3612
    3613    3614    3615    3616    3613    3618    3619    3616
    3613    3618    3619    3620    3614    3609    3610    3605
    3614    3609    3610    3611    3614    3613    3618    3617
    3614    3613    3618    3619    3614    3615    3616    3619
    3614    3615    3616    3793    3615    3612    3789    3790
    3615    3612    3789    3794    3615    3616    3619    3618
    3615    3616    3619    3620    3615    3616    3793    3794
    3615    3616    3793    3798    3616    3619    3620    3797
    3616    3619    3620    3623    3616    3793    3794    3789
    3616    3793    3794    3795    3616    3793    3798    3797
    3616    3793    3798    3799    3617    3440    3443    3442
    3617    3440    3443    3444    3617    3618    3619    3616
    3617    3618    3619    3620    3617    3622    3623    3620
    3617    3622    3623    3624    3618    3613    3614    3609
    3618    3613    3614    3615    3618    3617    3622    3621
    3618    3617    3622    3623    3618    3619    3620    3797
    3618    3619    3620    3623    3619    3616    3793    3794
    3619    3616    3793    3798    3619    3620    3797    3802
    3619    3620    3797    3798    3619    3620    3623    3622
    3619    3620    3623    3624    3620    3623    3624    3801
    3620    3623    3624    3627    3620    3797    3802    3801
    3620    3797    3802    3803    3620    3797    3798    3793
    3620    3797    3798    3799    3621    3444    3447    3446
    3621    3444    3447    3448    3621    3622    3623    3620
    3621    3622    3623    3624    3621    3626    3627    3624
    3621    3626    3627    3628    3622    3617    3618    3613
    3622    3617    3618    3619    3622    3621    3626    3625
    3622    3621    3626    3627    3622    3623    3624    3801
    3622    3623    3624    3627    3623    3620    3797    3802
    3623    3620    3797    3798    3623    3624    3801    3802
    3623    3624    3801    3806    3623    3624    3627    3626
    3623    3624    3627    3628    3624    3627    3628    3805
    3624    3627    3628    3631    3624    3801    3802    3797
    3624    3801    3802    3803    3624    3801    3806    3805
    3624    3801    3806    3807    3625    3448    3451    3450
    3625    3448    3451    3452    3625    3626    3627    3624
    3625    3626    3627    3628    3625    3630    3631    3628
    3625    3630    3631    3632    3626    3621    3622    3617
    3626    3621    3622    3623    3626    3625    3630    3629
    3626    3625    3630    3631    3626    3627    3628    3805
    3626    3627    3628    3631    3627    3624    3801    3802
    3627    3624    3801    3806    3627    3628    3805    3806
    3627    3628    3805    3810    3627    3628    3631    3630
    3627    3628    3631    3632    3628    3631    3632    3635
    3628    3631    3632    3809    3628    3805    3806    3801
    3628    3805    3806    3807    3628    3805    3810    3809
    3628    3805    3810    3811    3629    3452    3455    3454
    3629    3452    3455    3456    3629    3630    3631    3628
    3629    3630    3631    3632    3629    3634    3635    3632
    3629    3634    3635    3636    3630    3625    3626    3621
    3630    3625    3626    3627    3630    3629    3634    3633
    3630    3629    3634    3635    3630    3631    3632    3635
    3630    3631    3632    3809    3631    3628    3805    3806
    3631    3628    3805    3810    3631    3632    3635    3634
    3631    3632    3635    3636    3631    3632    3809    3814
    3631    3632    3809    3810    3632    3635    3636    3639
    3632    3635    3636    3813    3632    3809    3814    3813
    3632    3809    3814    3815    3632    3809    3810    3805
    3632    3809    3810    3811    3633    3456    3459    3458
    3633    3456    3459    3460    3633    3634    3635    3632
    3633    3634    3635    3636    3633    3638    3639    3636
    3633    3638    3639    3640    3634    3629    3630    3625
    3634    3629    3630    3631    3634    3633    3638    3637
    3634    3633    3638    3639    3634    3635    3636    3639
    3634    3635    3636    3813    3635    3632    3809    3814
    3635    3632    3809    3810    3635    3636    3639    3638
    3635    3636    3639    3640    3635    3636    3813    3818
    3635    3636    3813    3814    3636    3639    3640    3817
    3636    3639    3640    3643    3636    3813    3818    3817
    3636    3813    3818    3819    3636    3813    3814    3809
    3636    3813    3814    3815    3637    3460    3463    3462
    3637    3460    3463    3464    3637    3638    3639    3636
    3637    3638    3639    3640    3637    3642    3643    3640
    3637    3642    3643    3644    3638    3633    3634    3629
    3638    3633    3634    3635    3638    3637    3642    3641
    3638    3637    3642    3643    3638    3639    3640    3817
    3638    3639    3640    3643    3639    3636    3813    3818
    3639    3636    3813    3814    3639    3640    3817    3822
    3639    3640    3817    3818    3639    3640    3643    3642
    3639    3640    3643    3644    3640    3643    3644    3821
    3640    3643    3644    3647    3640    3817    3822    3821
    3640    3817    3822    3823    3640    3817    3818    3813
    3640    3817    3818    3819    3641    3464    3467    3466
    3641    3464    3467    3468    3641    3642    3643    3640
    3641    3642    3643    3644    3641    3646    3647    3644
    3641    3646    3647    3648    3642    3637    3638    3633
    3642    3637    3638    3639    3642    3641    3646    3645
    3642    3641    3646    3647    3642    3643    3644    3821
    3642    3643    3644    3647    3643    3640    3817    3822
    3643    3640    3817    3818    3643    3644    3821    3822
    3643    3644    3821    3826    3643    3644    3647    3646
    3643    3644    3647    3648    3644    3647    3648    3825
    3644    3647    3648    3651    3644    3821    3822    3817
    3644    3821    3822    3823    3644    3821    3826    3825
    3644    3821    3826    3827    3645    3468    3471    3470
    3645    3468    3471    3472    3645    3646    3647    3644
    3645    3646    3647    3648    3645    3650    3651    3648
    3645    3650    3651    3652    3646    3641    3642    3637
    3646    3641    3642    3643    3646    3645    3650    3649
    3646    3645    3650    3651    3646    3647    3648    3825
    3646    3647    3648    3651    3647    3644    3821    3822
    3647    3644    3821    3826    3647    3648    3825    3826
    3647    3648    3825    3830    3647    3648    3651    3650
    3647    3648    3651    3652    3648    3651    3652    3829
    3648    3651    3652    3655    3648    3825    3826    3821
    3648    3825    3826    3827    3648    3825    3830    3829
    3648    3825    3830    3831    3649    3472    3475    3474
    3649    3472    3475    3476    3649    3650    3651    3648
    3649    3650    3651    3652    3649    3654    3655    3652
    3649    3654    3655    3656    3650    3645    3646    3641
    3650    3645    3646    3647    3650    3649    3654    3653
    3650    3649    3654    3655    3650    3651    3652    3829
    3650    3651    3652    3655    3651    3648    3825    3826
    3651    3648    3825    3830    3651    3652    3829    3834
    3651    3652    3829    3830    3651    3652    3655    3654
    3651    3652    3655    3656    3652    3655    3656    3833
    3652    3655    3656    3659    3652    3829    3834    3833
    3652    3829    3834    3835    3652    3829    3830    3825
    3652    3829    3830    3831    3653    3476    3479    3478
    3653    3476    3479    3480    3653    3654    3655    3652
    3653    3654    3655    3656    3653    3658    3659    3656
    3653    3658    3659    3660    3654    3649    3650    3645
    3654    3649    3650    3651    3654    3653    3658    3657
    3654    3653    3658    3659    3654    3655    3656    3833
    3654    3655    3656    3659    3655    3652    3829    3834
    3655    3652    3829    3830    3655    3656    3833    3838
    3655    3656    3833    3834    3655    3656    3659    3658
    3655    3656    3659    3660    3656    3659    3660    3837
    3656    3659    3660    3663    3656    3833    3838    3837
    3656    3833    3838    3839    3656    3833    3834    3829
    3656    3833    3834    3835    3657    3480    3483    3482
    3657    3480    3483    3484    3657    3658    3659    3656
    3657    3658    3659    3660    3657    3662    3663    3660
    3657    3662    3663    3664    3658    3653    3654    3649
    3658    3653    3654    3655    3658    3657    3662    3661
    3658    3657    3662    3663    3658    3659    3660    3837
    3658    3659    3660    3663    3659    3656    3833    3838
    3659    3656    3833    3834    3659    3660    3837    3842
    3659    3660    3837    3838    3659    3660    3663    3662
    3659    3660    3663    3664    3660    3663    3664    3841
    3660    3663    3664    3667    3660    3837    3842    3841
    3660    3837    3842    3843    3660    3837    3838    3833
    3660    3837    3838    3839    3661    3484    3487    3486
    3661    3484    3487    3488    3661    3662    3663    3660
    3661    3662    3663    3664    3661    3666    3667    3664
    3661    3666    3667    3668    3662    3657    3658    3653
    3662    3657    3658    3659    3662    3661    3666    3665
    3662    3661    3666    3667    3662    3663    3664    3841
    3662    3663    3664    3667    3663    3660    3837    3842
    3663    3660    3837    3838    3663    3664    3841    3842
    3663    3664    3841    3846    3663    3664    3667    3666
    3663    3664    3667    3668    3664    3667    3668    3845
    3664    3667    3668    3671    3664    3841    3842    3837
    3664    3841    3842    3843    3664    3841    3846    3845
    3664    3841    3846    3847    3665    3488    3491    3490
    3665    3488    3491    3492    3665    3666    3667    3664
    3665    3666    3667    3668    3665    3670    3671    3668
    3665    3670    3671    3672    3666    3661    3662    3657
    3666    3661    3662    3663    3666    3665    3670    3669
    3666    3665    3670    3671    3666    3667    3668    3845
    3666    3667    3668    3671    3667    3664    3841    3842
    3667    3664    3841    3846    3667    3668    3845    3846
    3667    3668    3845    3850    3667    3668    3671    3670
    3667    3668    3671    3672    3668    3671    3672    3675
    3668    3671    3672    3849    3668    3845    3846    3841
    3668    3845    3846    3847    3668    3845    3850    3849
    3668    3845    3850    3851    3669    3492    3495    3494
    3669    3492    3495    3496    3669    3670    3671    3668
    3669    3670    3671    3672    3669    3674    3675    3672
    3669    3674    3675    3676    3670    3665    3666    3661
    3670    3665    3666    3667    3670    3669    3674    3673
    3670    3669    3674    3675    3670    3671    3672    3675
    3670    3671    3672    3849    3671    3668    3845    3846
    3671    3668    3845    3850    3671    3672    3675    3674
    3671    3672    3675    3676    3671    3672    3849    3850
    3671    3672    3849    3854    3672    3675    3676    3679
    3672    3675    3676    3853    3672    3849    3850    3845
    3672    3849    3850    3851    3672    3849    3854    3853
    3672    3849    3854    3855    3673    3496    3499    3498
    3673    3496    3499    3500    3673    3674    3675    3672
    3673    3674    3675    3676    3673    3678    3679    3676
    3673    3678    3679    3680    3674    3669    3670    3665
    3674    3669    3670    3671    3674    3673    3678    3677
    3674    3673    3678    3679    3674    3675    3676    3679
    3674    3675    3676    3853    3675    3672    3849    3850
    3675    3672    3849    3854    3675    3676    3679    3678
    3675    3676    3679    3680    3675    3676    3853    3854
    3675    3676    3853    3858    3676    3679    3680    3857
    3676    3679    3680    3683    3676    3853    3854    3849
    3676    3853    3854    3855    3676    3853    3858    3857
    3676    3853    3858    3859    3677    3500    3503    3502
    3677    3500    3503    3504    3677    3678    3679    3676
    3677    3678    3679    3680    3677    3682    3683    3680
    3677    3682    3683    3684    3678    3673    3674    3669
    3678    3673    3674    3675    3678    3677    3682    3681
    3678    3677    3682    3683    3678    3679    3680    3857
    3678    3679    3680    3683    3679    3676    3853    3854
    3679    3676    3853    3858    3679    3680    3857    3858
    3679    3680    3857    3862    3679    3680    3683    3682
    3679    3680    3683    3684    3680    3683    3684    3861
    3680    3683    3684    3687    3680    3857    3858    3853
    3680    3857    3858    3859    3680    3857    3862    3861
    3680    3857    3862    3863    3681    3504    3507    3506
    3681    3504    3507    3508    3681    3682    3683    3680
    3681    3682    3683    3684    3681    3686    3687    3684
    3681    3686    3687    3688    3682    3677    3678    3673
    3682    3677    3678    3679    3682    3681    3686    3685
    3682    3681    3686    3687    3682    3683    3684    3861
    3682    3683    3684    3687    3683    3680    3857    3858
    3683    3680    3857    3862    3683    3684    3861    3862
    3683    3684    3861    3866    3683    3684    3687    3686
    3683    3684    3687    3688    3684    3687    3688    3865
    3684    3687    3688    3691    3684    3861    3862    3857
    3684    3861    3862    3863    3684    3861    3866    3865
    3684    3861    3866    3867    3685    3508    3511    3510
    3685    3508    3511    3512    3685    3686    3687    3684
    3685    3686    3687    3688    3685    3690    3691    3688
    3685    3690    3691    3692    3686    3681    3682    3677
    3686    3681    3682    3683    3686    3685    3690    3689
    3686    3685    3690    3691    3686    3687    3688    3865
    3686    3687    3688    3691    3687    3684    3861    3862
    3687    3684    3861    3866    3687    3688    3865    3866
    3687    3688    3865    3870    3687    3688    3691    3690
    3687    3688    3691    3692    3688    3691    3692    3695
    3688    3691    3692    3869    3688    3865    3866    3861
    3688    3865    3866    3867    3688    3865    3870    3869
    3688    3865    3870    3871    3689    3512    3515    3514
    3689    3512    3515    3516    3689    3690    3691    3688
    3689    3690    3691    3692    3689    3694    3695    3692
    3689    3694    3695    3696    3690    3685    3686    3681
    3690    3685    3686    3687    3690    3689    3694    3693
    3690    3689    3694    3695    3690    3691    3692    3695
    3690    3691    3692    3869    3691    3688    3865    3866
    3691    3688    3865    3870    3691    3692    3695    3694
    3691    3692    3695    3696    3691    3692    3869    3874
    3691    3692    3869    3870    3692    3695    3696    3699
    3692    3695    3696    3873    3692    3869    3874    3873
    3692    3869    3874    3875    3692    3869    3870    3865
    3692    3869    3870    3871    3693    3516    3519    3518
    3693    3516    3519    3520    3693    3694    3695    3692
    3693    3694    3695    3696    3693    3698    3699    3696
    3693    3698    3699    3700    3694    3689    3690    3685
    3694    3689    3690    3691    3694    3693    3698    3697
    3694    3693    3698    3699    3694    3695    3696    3699
    3694    3695    3696    3873    3695    3692    3869    3874
    3695    3692    3869    3870    3695    3696    3699    3698
    3695    3696    3699    3700    3695    3696    3873    3878
    3695    3696    3873    3874    3696    3699    3700    3877
    3696    3699    3700    3703    3696    3873    3878    3877
    3696    3873    3878    3879    3696    3873    3874    3869
    3696    3873    3874    3875    3697    3520    3523    3522
    3697    3520    3523    3524    3697    3698    3699    3696
    3697    3698    3699    3700    3697    3702    3703    3700
    3697    3702    3703    3704    3698    3693    3694    3689
    3698    3693    3694    3695    3698    3697    3702    3701
    3698    3697    3702    3703    3698    3699    3700    3877
    3698    3699    3700    3703    3699    3696    3873    3878
    3699    3696    3873    3874    3699    3700    3877    3882
    3699    3700    3877    3878    3699    3700    3703    3702
    3699    3700    3703    3704    3700    3703    3704    3881
    3700    3703    3704    3707    3700    3877    3882    3881
    3700    3877    3882    3883    3700    3877    3878    3873
    3700    3877    3878    3879    3701    3524    3527    3526
    3701    3524    3527    3528    3701    3702    3703    3700
    3701    3702    3703    3704    3701    3706    3707    3704
    3701    3706    3707    3708    3702    3697    3698    3693
    3702    3697    3698    3699    3702    3701    3706    3705
    3702    3701    3706    3707    3702    3703    3704    3881
    3702    3703    3704    3707    3703    3700    3877    3882
    3703    3700    3877    3878    3703    3704    3881    3882
    3703    3704    3881    3886    3703    3704    3707    3706
    3703    3704    3707    3708    3704    3707    3708    3885
    3704    3707    3708    3711    3704    3881    3882    3877
    3704    3881    3882    3883    3704    3881    3886    3885
    3704    3881    3886    3887    3705    3528    3531    3530
    3705    3528    3531    3532    3705    3706    3707    3704
    3705    3706    3707    3708    3705    3710    3711    3708
    3705    3710    3711    3712    3706    3701    3702    3697
    3706    3701    3702    3703    3706    3705    3710    3709
    3706    3705    3710    3711    3706    3707    3708    3885
    3706    3707    3708    3711    3707    3704    3881    3882
    3707    3704    3881    3886    3707    3708    3885    3886
    3707    3708    3885    3890    3707    3708    3711    3710
    3707    3708    3711    3712    3708    3711    3712    3889
    3708    3711    3712    3715    3708    3885    3886    3881
    3708    3885    3886    3887    3708    3885    3890    3889
    3708    3885    3890    3891    3709    3532    3535    3534
    3709    3532    3535    3536    3709    3710    3711    3708
    3709    3710    3711    3712    3709    3714    3715    3712
    3709    3714    3715    3716    3710    3705    3706    3701
    3710    3705    3706    3707    3710    3709    3714    3713
    3710    3709    3714    3715    3710    3711    3712    3889
    3710    3711    3712    3715    3711    3708    3885    3886
    3711    3708    3885    3890    3711    3712    3889    3894
    3711    3712    3889    3890    3711    3712    3715    3714
    3711    3712    3715    3716    3712    3715    3716    3893
    3712    3715    3716    3719    3712    3889    3894    3893
    3712    3889    3894    3895    3712    3889    3890    3885
    3712    3889    3890    3891    3713    3536    3539    3538
    3713    3536    3539    3540    3713    3714    3715    3712
    3713    3714    3715    3716    3713    3718    3719    3716
    3713    3718    3719    3720    3714    3709    3710    3705
    3714    3709    3710    3711    3714    3713    3718    3717
    3714    3713    3718    3719    3714    3715    3716    3893
    3714    3715    3716    3719    3715    3712    3889    3894
    3715    3712    3889    3890    3715    3716    3893    3898
    3715    3716    3893    3894    3715    3716    3719    3718
    3715    3716    3719    3720    3716    3719    3720    3897
    3716    3719    3720    3723    3716    3893    3898    3897
    3716    3893    3898    3899    3716    3893    3894    3889
    3716    3893    3894    3895    3717    3540    3543    3542
    3717    3540    3543    3544    3717    3718    3719    3716
    3717    3718    3719    3720    3717    3722    3723    3720
    3717    3722    3723    3724    3718    3713    3714    3709
    3718    3713    3714    3715    3718    3717    3722    3721
    3718    3717    3722    3723    3718    3719    3720    3897
    3718    3719    3720    3723    3719    3716    3893    3898
    3719    3716    3893    3894    3719    3720    3897    3902
    3719    3720    3897    3898    3719    3720    3723    3722
    3719    3720    3723    3724    3720    3723    3724    3901
    3720    3723    3724    3727    3720    3897    3902    3901
    3720    3897    3902    3903    3720    3897    3898    3893
    3720    3897    3898    3899    3721    3544    3547    3546
    3721    3544    3547    3548    3721    3722    3723    3720
    3721    3722    3723    3724    3721    3726    3727    3724
    3721    3726    3727    3728    3722    3717    3718    3713
    3722    3717    3718    3719    3722    3721    3726    3725
    3722    3721    3726    3727    3722    3723    3724    3901
    3722    3723    3724    3727    3723    3720    3897    3902
    3723    3720    3897    3898    3723    3724    3901    3902
    3723    3724    3901    3906    3723    3724    3727    3726
    3723    3724    3727    3728    3724    3727    3728    3905
    3724    3727    3728    3731    3724    3901    3902    3897
    3724    3901    3902    3903    3724    3901    3906    3905
    3724    3901    3906    3907    3725    3548    3551    3550
    3725    3548    3551    3552    3725    3726    3727    3724
    3725    3726    3727    3728    3725    3730    3731    3728
    3725    3730    3731    3732    3726    3721    3722    3717
    3726    3721    3722    3723    3726    3725    3730    3729
    3726    3725    3730    3731    3726    3727    3728    3905
    3726    3727    3728    3731    3727    3724    3901    3902
    3727    3724    3901    3906    3727    3728    3905    3906
    3727    3728    3905    3910    3727    3728    3731    3730
    3727    3728    3731    3732    3728    3731    3732    3735
    3728    3731    3732    3909    3728    3905    3906    3901
    3728    3905    3906    3907    3728    3905    3910    3909
    3728    3905    3910    3911    3729    3552    3555    3554
    3729    3552    3555    3556    3729    3730    3731    3728
    3729    3730    3731    3732    3729    3734    3735    3732
    3729    3734    3735    3736    3730    3725    3726    3721
    3730    3725    3726    3727    3730    3729    3734    3733
    3730    3729    3734    3735    3730    3731    3732    3735
    3730    3731    3732    3909    3731    3728    3905    3906
    3731    3728    3905    3910    3731    3732    3735    3734
    3731    3732    3735    3736    3731    3732    3909    3910
    3731    3732    3909    3914    3732    3735    3736    3739
    3732    3735    3736    3913    3732    3909    3910    3905
    3732    3909    3910    3911    3732    3909    3914    3913
    3732    3909    3914    3915    3733    3556    3559    3558
    3733    3556    3559    3560    3733    3734    3735    3732
    3733    3734    3735    3736    3733    3738    3739    3736
    3733    3738    3739    3740    3734    3729    3730    3725
    3734    3729    3730    3731    3734    3733    3738    3737
    3734    3733    3738    3739    3734    3735    3736    3739
    3734    3735    3736    3913    3735    3732    3909    3910
    3735    3732    3909    3914    3735    3736    3739    3738
    3735    3736    3739    3740    3735    3736    3913    3914
    3735    3736    3913    3918    3736    3739    3740    3917
    3736    3739    3740    3743    3736    3913    3914    3909
    3736    3913    3914    3915    3736    3913    3918    3917
    3736    3913    3918    3919    3737    3560    3563    3562
    3737    3560    3563    3564    3737    3738    3739    3736
    3737    3738    3739    3740    3737    3742    3743    3740
    3737    3742    3743    3744    3738    3733    3734    3729
    3738    3733    3734    3735    3738    3737    3742    3741
    3738    3737    3742    3743    3738    3739    3740    3917
    3738    3739    3740    3743    3739    3736    3913    3914
    3739    3736    3913    3918    3739    3740    3917    3918
    3739    3740    3917    3922    3739    3740    3743    3742
    3739    3740    3743    3744    3740    3743    3744    3921
    3740    3743    3744    3747    3740    3917    3918    3913
    3740    3917    3918    3919    3740    3917    3922    3921
    3740    3917    3922    3923    3741    3564    3567    3566
    3741    3564    3567    3568    3741    3742    3743    3740
    3741    3742    3743    3744    3741    3746    3747    3744
    3741    3746    3747    3748    3742    3737    3738    3733
    3742    3737    3738    3739    3742    3741    3746    3745
    3742    3741    3746    3747    3742    3743    3744    3921
    3742    3743    3744    3747    3743    3740    3917    3918
    3743    3740    3917    3922    3743    3744    3921    3922
    3743    3744    3921    3926    3743    3744    3747    3746
    3743    3744    3747    3748    3744    3747    3748    3925
    3744    3747    3748    3751    3744    3921    3922    3917
    3744    3921    3922    3923    3744    3921    3926    3925
    3744    3921    3926    3927    3745    3568    3571    3570
    3745    3568    3571    3572    3745    3746    3747    3744
    3745    3746    3747    3748    3745    3750    3751    3748
    3745    3750    3751    3752    3746    3741    3742    3737
    3746    3741    3742    3743    3746    3745    3750    3749
    3746    3745    3750    3751    3746    3747    3748    3925
    3746    3747    3748    3751    3747    3744    3921    3922
    3747    3744    3921    3926    3747    3748    3925    3926
    3747    3748    3925    3930    3747    3748    3751    3750
    3747    3748    3751    3752    3748    3751    3752    3755
    3748    3751    3752    3929    3748    3925    3926    3921
    3748    3925    3926    3927    3748    3925    3930    3929
    3748    3925    3930    3931    3749    3572    3575    3574
    3749    3572    3575    3576    3749    3750    3751    3748
    3749    3750    3751    3752    3749    3754    3755    3752
    3749    3754    3755    3756    3750    3745    3746    3741
    3750    3745    3746    3747    3750    3749    3754    3753
    3750    3749    3754    3755    3750    3751    3752    3755
    3750    3751    3752    3929    3751    3748    3925    3926
    3751    3748    3925    3930    3751    3752    3755    3754
    3751    3752    3755    3756    3751    3752    3929    3934
    3751    3752    3929    3930    3752    3755    3756    3759
    3752    3755    3756    3933    3752    3929    3934    3933
    3752    3929    3934    3935    3752    3929    3930    3925
    3752    3929    3930    3931    3753    3576    3579    3578
    3753    3576    3579    3580    3753    3754    3755    3752
    3753    3754    3755    3756    3753    3758    3759    3756
    3753    3758    3759    3760    3754    3749    3750    3745
    3754    3749    3750    3751    3754    3753    3758    3757
    3754    3753    3758    3759    3754    3755    3756    3759
    3754    3755    3756    3933    3755    3752    3929    3934
    3755    3752    3929    3930    3755    3756    3759    3758
    3755    3756    3759    3760    3755    3756    3933    3938
    3755    3756    3933    3934    3756    3759    3760    3937
    3756    3759    3760    3763    3756    3933    3938    3937
    3756    3933    3938    3939    3756    3933    3934    3929
    3756    3933    3934    3935    3757    3580    3583    3582
    3757    3580    3583    3584    3757    3758    3759    3756
    3757    3758    3759    3760    3757    3762    3763    3760
    3757    3762    3763    3764    3758    3753    3754    3749
    3758    3753    3754    3755    3758    3757    3762    3761
    3758    3757    3762    3763    3758    3759    3760    3937
    3758    3759    3760    3763    3759    3756    3933    3938
    3759    3756    3933    3934    3759    3760    3937    3942
    3759    3760    3937    3938    3759    3760    3763    3762
    3759    3760    3763    3764    3760    3763    3764    3941
    3760    3763    3764    3767    3760    3937    3942    3941
    3760    3937    3942    3943    3760    3937    3938    3933
    3760    3937    3938    3939    3761    3584    3587    3586
    3761    3584    3587    3588    3761    3762    3763    3760
    3761    3762    3763    3764    3761    3766    3767    3764
    3761    3766    3767    3768    3762    3757    3758    3753
    3762    3757    3758    3759    3762    3761    3766    3765
    3762    3761    3766    3767    3762    3763    3764    3941
    3762    3763    3764    3767    3763    3760    3937    3942
    3763    3760    3937    3938    3763    3764    3941    3942
    3763    3764    3941    3946    3763    3764    3767    3766
    3763    3764    3767    3768    3764    3767    3768    3945
    3764    3767    3768    3771    3764    3941    3942    3937
    3764    3941    3942    3943    3764    3941    3946    3945
    3764    3941    3946    3947    3765    3588    3591    3590
    3765    3588    3591    3592    3765    3766    3767    3764
    3765    3766    3767    3768    3765    3770    3771    3768
    3765    3770    3771    3772    3766    3761    3762    3757
    3766    3761    3762    3763    3766    3765    3770    3769
    3766    3765    3770    3771    3766    3767    3768    3945
    3766    3767    3768    3771    3767    3764    3941    3942
    3767    3764    3941    3946    3767    3768    3945    3946
    3767    3768    3945    3950    3767    3768    3771    3770
    3767    3768    3771    3772    3768    3771    3772    3775
    3768    3771    3772    3949    3768    3945    3946    3941
    3768    3945    3946    3947    3768    3945    3950    3949
    3768    3945    3950    3951    3769    3592    3595    3594
    3769    3592    3595    3596    3769    3770    3771    3768
    3769    3770    3771    3772    3769    3774    3775    3772
    3769    3774    3775    3776    3770    3765    3766    3761
    3770    3765    3766    3767    3770    3769    3774    3773
    3770    3769    3774    3775    3770    3771    3772    3775
    3770    3771    3772    3949    3771    3768    3945    3946
    3771    3768    3945    3950    3771    3772    3775    3774
    3771    3772    3775    3776    3771    3772    3949    3954
    3771    3772    3949    3950    3772    3775    3776    3953
    3772    3775    3776    3779    3772    3949    3954    3953
    3772    3949    3954    3955    3772    3949    3950    3945
    3772    3949    3950    3951    3773    3596    3599    3598
    3773    3596    3599    3600    3773    3774    3775    3772
    3773    3774    3775    3776    3773    3778    3779    3776
    3773    3778    3779    3780    3774    3769    3770    3765
    3774    3769    3770    3771    3774    3773    3778    3777
    3774    3773    3778    3779    3774    3775    3776    3953
    3774    3775    3776    3779    3775    3772    3949    3954
    3775    3772    3949    3950    3775    3776    3953    3958
    3775    3776    3953    3954    3775    3776    3779    3778
    3775    3776    3779    3780    3776    3779    3780    3957
    3776    3953    3958    3957    3776    3953    3958    3959
    3776    3953    3954    3949    3776    3953    3954    3955
    3777    3778    3779    3776    3777    3778    3779    3780
    3778    3773    3774    3769    3778    3773    3774    3775
    3778    3779    3780    3957    3779    3776    3953    3958
    3779    3776    3953    3954    3779    3780    3957    3958
    3780    3957    3958    3953    3780    3957    3958    3959
    3781    3604    3607    3606    3781    3604    3607    3608
    3781    3782    3783    3784    3781    3786    3787    3784
    3781    3786    3787    3788    3782    3781    3786    3785
    3782    3781    3786    3787    3782    3783    3784    3961
    3782    3783    3784    3787    3783    3784    3961    3962
    3783    3784    3961    3966    3783    3784    3787    3786
    3783    3784    3787    3788    3784    3787    3788    3965
    3784    3787    3788    3791    3784    3961    3962    3963
    3784    3961    3966    3965    3784    3961    3966    3967
    3785    3608    3611    3610    3785    3608    3611    3612
    3785    3786    3787    3784    3785    3786    3787    3788
    3785    3790    3791    3788    3785    3790    3791    3792
    3786    3781    3782    3783    3786    3785    3790    3789
    3786    3785    3790    3791    3786    3787    3788    3965
    3786    3787    3788    3791    3787    3784    3961    3962
    3787    3784    3961    3966    3787    3788    3965    3966
    3787    3788    3965    3970    3787    3788    3791    3790
    3787    3788    3791    3792    3788    3791    3792    3795
    3788    3791    3792    3969    3788    3965    3966    3961
    3788    3965    3966    3967    3788    3965    3970    3969
    3788    3965    3970    3971    3789    3612    3615    3614
    3789    3612    3615    3616    3789    3790    3791    3788
    3789    3790    3791    3792    3789    3794    3795    3792
    3789    3794    3795    3796    3790    3785    3786    3781
    3790    3785    3786    3787    3790    3789    3794    3793
    3790    3789    3794    3795    3790    3791    3792    3795
    3790    3791    3792    3969    3791    3788    3965    3966
    3791    3788    3965    3970    3791    3792    3795    3794
    3791    3792    3795    3796    3791    3792    3969    3974
    3791    3792    3969    3970    3792    3795    3796    3973
    3792    3795    3796    3799    3792    3969    3974    3973
    3792    3969    3974    3975    3792    3969    3970    3965
    3792    3969    3970    3971    3793    3616    3619    3618
    3793    3616    3619    3620    3793    3794    3795    3792
    3793    3794    3795    3796    3793    3798    3799    3796
    3793    3798    3799    3800    3794    3789    3790    3785
    3794    3789    3790    3791    3794    3793    3798    3797
    3794    3793    3798    3799    3794    3795    3796    3973
    3794    3795    3796    3799    3795    3792    3969    3974
    3795    3792    3969    3970    3795    3796    3973    3978
    3795    3796    3973    3974    3795    3796    3799    3798
    3795    3796    3799    3800    3796    3799    3800    3977
    3796    3799    3800    3803    3796    3973    3978    3977
    3796    3973    3978    3979    3796    3973    3974    3969
    3796    3973    3974    3975    3797    3620    3623    3622
    3797    3620    3623    3624    3797    3798    3799    3796
    3797    3798    3799    3800    3797    3802    3803    3800
    3797    3802    3803    3804    3798    3793    3794    3789
    3798    3793    3794    3795    3798    3797    3802    3801
    3798    3797    3802    3803    3798    3799    3800    3977
    3798    3799    3800    3803    3799    3796    3973    3978
    3799    3796    3973    3974    3799    3800    3977    3982
    3799    3800    3977    3978    3799    3800    3803    3802
    3799    3800    3803    3804    3800    3803    3804    3981
    3800    3803    3804    3807    3800    3977    3982    3981
    3800    3977    3982    3983    3800    3977    3978    3973
    3800    3977    3978    3979    3801    3624    3627    3626
    3801    3624    3627    3628    3801    3802    3803    3800
    3801    3802    3803    3804    3801    3806    3807    3804
    3801    3806    3807    3808    3802    3797    3798    3793
    3802    3797    3798    3799    3802    3801    3806    3805
    3802    3801    3806    3807    3802    3803    3804    3981
    3802    3803    3804    3807    3803    3800    3977    3982
    3803    3800    3977    3978    3803    3804    3981    3982
    3803    3804    3981    3986    3803    3804    3807    3806
    3803    3804    3807    3808    3804    3807    3808    3985
    3804    3807    3808    3811    3804    3981    3982    3977
    3804    3981    3982    3983    3804    3981    3986    3985
    3804    3981    3986    3987    3805    3628    3631    3630
    3805    3628    3631    3632    3805    3806    3807    3804
    3805    3806    3807    3808    3805    3810    3811    3808
    3805    3810    3811    3812    3806    3801    3802    3797
    3806    3801    3802    3803    3806    3805    3810    3809
    3806    3805    3810    3811    3806    3807    3808    3985
    3806    3807    3808    3811    3807    3804    3981    3982
    3807    3804    3981    3986    3807    3808    3985    3986
    3807    3808    3985    3990    3807    3808    3811    3810
    3807    3808    3811    3812    3808    3811    3812    3989
    3808    3811    3812    3815    3808    3985    3986    3981
    3808    3985    3986    3987    3808    3985    3990    3989
    3808    3985    3990    3991    3809    3632    3635    3634
    3809    3632    3635    3636    3809    3810    3811    3808
    3809    3810    3811    3812    3809    3814    3815    3812
    3809    3814    3815    3816    3810    3805    3806    3801
    3810    3805    3806    3807    3810    3809    3814    3813
    3810    3809    3814    3815    3810    3811    3812    3989
    3810    3811    3812    3815    3811    3808    3985    3986
    3811    3808    3985    3990    3811    3812    3989    3994
    3811    3812    3989    3990    3811    3812    3815    3814
    3811    3812    3815    3816    3812    3815    3816    3819
    3812    3815    3816    3993    3812    3989    3994    3993
    3812    3989    3994    3995    3812    3989    3990    3985
    3812    3989    3990    3991    3813    3636    3639    3638
    3813    3636    3639    3640    3813    3814    3815    3812
    3813    3814    3815    3816    3813    3818    3819    3816
    3813    3818    3819    3820    3814    3809    3810    3805
    3814    3809    3810    3811    3814    3813    3818    3817
    3814    3813    3818    3819    3814    3815    3816    3819
    3814    3815    3816    3993    3815    3812    3989    3994
    3815    3812    3989    3990    3815    3816    3819    3818
    3815    3816    3819    3820    3815    3816    3993    3994
    3815    3816    3993    3998    3816    3819    3820    3997
    3816    3819    3820    3823    3816    3993    3994    3989
    3816    3993    3994    3995    3816    3993    3998    3997
    3816    3993    3998    3999    3817    3640    3643    3642
    3817    3640    3643    3644    3817    3818    3819    3816
    3817    3818    3819    3820    3817    3822    3823    3820
    3817    3822    3823    3824    3818    3813    3814    3809
    3818    3813    3814    3815    3818    3817    3822    3821
    3818    3817    3822    3823    3818    3819    3820    3997
    3818    3819    3820    3823    3819    3816    3993    3994
    3819    3816    3993    3998    3819    3820    3997    3998
    3819    3820    3997    4002    3819    3820    3823    3822
    3819    3820    3823    3824    3820    3823    3824    4001
    3820    3823    3824    3827    3820    3997    3998    3993
    3820    3997    3998    3999    3820    3997    4002    4001
    3820    3997    4002    4003    3821    3644    3647    3646
    3821    3644    3647    3648    3821    3822    3823    3820
    3821    3822    3823    3824    3821    3826    3827    3824
    3821    3826    3827    3828    3822    3817    3818    3813
    3822    3817    3818    3819    3822    3821    3826    3825
    3822    3821    3826    3827    3822    3823    3824    4001
    3822    3823    3824    3827    3823    3820    3997    3998
    3823    3820    3997    4002    3823    3824    4001    4002
    3823    3824    4001    4006    3823    3824    3827    3826
    3823    3824    3827    3828    3824    3827    3828    4005
    3824    3827    3828    3831    3824    4001    4002    3997
    3824    4001    4002    4003    3824    4001    4006    4005
    3824    4001    4006    4007    3825    3648    3651    3650
    3825    3648    3651    3652    3825    3826    3827    3824
    3825    3826    3827    3828    3825    3830    3831    3828
    3825    3830    3831    3832    3826    3821    3822    3817
    3826    3821    3822    3823    3826    3825    3830    3829
    3826    3825    3830    3831    3826    3827    3828    4005
    3826    3827    3828    3831    3827    3824    4001    4002
    3827    3824    4001    4006    3827    3828    4005    4006
    3827    3828    4005    4010    3827    3828    3831    3830
    3827    3828    3831    3832    3828    3831    3832    3835
    3828    3831    3832    4009    3828    4005    4006    4001
    3828    4005    4006    4007    3828    4005    4010    4009
    3828    4005    4010    4011    3829    3652    3655    3654
    3829    3652    3655    3656    3829    3830    3831    3828
    3829    3830    3831    3832    3829    3834    3835    3832
    3829    3834    3835    3836    3830    3825    3826    3821
    3830    3825    3826    3827    3830    3829    3834    3833
    3830    3829    3834    3835    3830    3831    3832    3835
    3830    3831    3832    4009    3831    3828    4005    4006
    3831    3828    4005    4010    3831    3832    3835    3834
    3831    3832    3835    3836    3831    3832    4009    4010
    3831    3832    4009    4014    3832    3835    3836    3839
    3832    3835    3836    4013    3832    4009    4010    4005
    3832    4009    4010    4011    3832    4009    4014    4013
    3832    4009    4014    4015    3833    3656    3659    3658
    3833    3656    3659    3660    3833    3834    3835    3832
    3833    3834    3835    3836    3833    3838    3839    3836
    3833    3838    3839    3840    3834    3829    3830    3825
    3834    3829    3830    3831    3834    3833    3838    3837
    3834    3833    3838    3839    3834    3835    3836    3839
    3834    3835    3836    4013    3835    3832    4009    4010
    3835    3832    4009    4014    3835    3836    3839    3838
    3835    3836    3839    3840    3835    3836    4013    4014
    3835    3836    4013    4018    3836    3839    3840    4017
    3836    3839    3840    3843    3836    4013    4014    4009
    3836    4013    4014    4015    3836    4013    4018    4017
    3836    4013    4018    4019    3837    3660    3663    3662
    3837    3660    3663    3664    3837    3838    3839    3836
    3837    3838    3839    3840    3837    3842    3843    3840
    3837    3842    3843    3844    3838    3833    3834    3829
    3838    3833    3834    3835    3838    3837    3842    3841
    3838    3837    3842    3843    3838    3839    3840    4017
    3838    3839    3840    3843    3839    3836    4013    4014
    3839    3836    4013    4018    3839    3840    4017    4022
    3839    3840    4017    4018    3839    3840    3843    3842
    3839    3840    3843    3844    3840    3843    3844    4021
    3840    3843    3844    3847    3840    4017    4022    4021
    3840    4017    4022    4023    3840    4017    4018    4013
    3840    4017    4018    4019    3841    3664    3667    3666
    3841    3664    3667    3668    3841    3842    3843    3840
    3841    3842    3843    3844    3841    3846    3847    3844
    3841    3846    3847    3848    3842    3837    3838    3833
    3842    3837    3838    3839    3842    3841    3846    3845
    3842    3841    3846    3847    3842    3843    3844    4021
    3842    3843    3844    3847    3843    3840    4017    4022
    3843    3840    4017    4018    3843    3844    4021    4022
    3843    3844    4021    4026    3843    3844    3847    3846
    3843    3844    3847    3848    3844    3847    3848    4025
    3844    3847    3848    3851    3844    4021    4022    4017
    3844    4021    4022    4023    3844    4021    4026    4025
    3844    4021    4026    4027    3845    3668    3671    3670
    3845    3668    3671    3672    3845    3846    3847    3844
    3845    3846    3847    3848    3845    3850    3851    3848
    3845    3850    3851    3852    3846    3841    3842    3837
    3846    3841    3842    3843    3846    3845    3850    3849
    3846    3845    3850    3851    3846    3847    3848    4025
    3846    3847    3848    3851    3847    3844    4021    4022
    3847    3844    4021    4026    3847    3848    4025    4026
    3847    3848    4025    4030    3847    3848    3851    3850
    3847    3848    3851    3852    3848    3851    3852    3855
    3848    3851    3852    4029    3848    4025    4026    4021
    3848    4025    4026    4027    3848    4025    4030    4029
    3848    4025    4030    4031    3849    3672    3675    3674
    3849    3672    3675    3676    3849    3850    3851    3848
    3849    3850    3851    3852    3849    3854    3855    3852
    3849    3854    3855    3856    3850    3845    3846    3841
    3850    3845    3846    3847    3850    3849    3854    3853
    3850    3849    3854    3855    3850    3851    3852    3855
    3850    3851    3852    4029    3851    3848    4025    4026
    3851    3848    4025    4030    3851    3852    3855    3854
    3851    3852    3855    3856    3851    3852    4029    4034
    3851    3852    4029    4030    3852    3855    3856    3859
    3852    3855    3856    4033    3852    4029    4034    4033
    3852    4029    4034    4035    3852    4029    4030    4025
    3852    4029    4030    4031    3853    3676    3679    3678
    3853    3676    3679    3680    3853    3854    3855    3852
    3853    3854    3855    3856    3853    3858    3859    3856
    3853    3858    3859    3860    3854    3849    3850    3845
    3854    3849    3850    3851    3854    3853    3858    3857
    3854    3853    3858    3859    3854    3855    3856    3859
    3854    3855    3856    4033    3855    3852    4029    4034
    3855    3852    4029    4030    3855    3856    3859    3858
    3855    3856    3859    3860    3855    3856    4033    4038
    3855    3856    4033    4034    3856    3859    3860    4037
    3856    3859    3860    3863    3856    4033    4038    4037
    3856    4033    4038    4039    3856    4033    4034    4029
    3856    4033    4034    4035    3857    3680    3683    3682
    3857    3680    3683    3684    3857    3858    3859    3856
    3857    3858    3859    3860    3857    3862    3863    3860
    3857    3862    3863    3864    3858    3853    3854    3849
    3858    3853    3854    3855    3858    3857    3862    3861
    3858    3857    3862    3863    3858    3859    3860    4037
    3858    3859    3860    3863    3859    3856    4033    4038
    3859    3856    4033    4034    3859    3860    4037    4042
    3859    3860    4037    4038    3859    3860    3863    3862
    3859    3860    3863    3864    3860    3863    3864    4041
    3860    3863    3864    3867    3860    4037    4042    4041
    3860    4037    4042    4043    3860    4037    4038    4033
    3860    4037    4038    4039    3861    3684    3687    3686
    3861    3684    3687    3688    3861    3862    3863    3860
    3861    3862    3863    3864    3861    3866    3867    3864
    3861    3866    3867    3868    3862    3857    3858    3853
    3862    3857    3858    3859    3862    3861    3866    3865
    3862    3861    3866    3867    3862    3863    3864    4041
    3862    3863    3864    3867    3863    3860    4037    4042
    3863    3860    4037    4038    3863    3864    4041    4042
    3863    3864    4041    4046    3863    3864    3867    3866
    3863    3864    3867    3868    3864    3867    3868    4045
    3864    3867    3868    3871    3864    4041    4042    4037
    3864    4041    4042    4043    3864    4041    4046    4045
    3864    4041    4046    4047    3865    3688    3691    3690
    3865    3688    3691    3692    3865    3866    3867    3864
    3865    3866    3867    3868    3865    3870    3871    3868
    3865    3870    3871    3872    3866    3861    3862    3857
    3866    3861    3862    3863    3866    3865    3870    3869
    3866    3865    3870    3871    3866    3867    3868    4045
    3866    3867    3868    3871    3867    3864    4041    4042
    3867    3864    4041    4046    3867    3868    4045    4046
    3867    3868    4045    4050    3867    3868    3871    3870
    3867    3868    3871    3872    3868    3871    3872    4049
    3868    3871    3872    3875    3868    4045    4046    4041
    3868    4045    4046    4047    3868    4045    4050    4049
    3868    4045    4050    4051    3869    3692    3695    3694
    3869    3692    3695    3696    3869    3870    3871    3868
    3869    3870    3871    3872    3869    3874    3875    3872
    3869    3874    3875    3876    3870    3865    3866    3861
    3870    3865    3866    3867    3870    3869    3874    3873
    3870    3869    3874    3875    3870    3871    3872    4049
    3870    3871    3872    3875    3871    3868    4045    4046
    3871    3868    4045    4050    3871    3872    4049    4054
    3871    3872    4049    4050    3871    3872    3875    3874
    3871    3872    3875    3876    3872    3875    3876    4053
    3872    3875    3876    3879    3872    4049    4054    4053
    3872    4049    4054    4055    3872    4049    4050    4045
    3872    4049    4050    4051    3873    3696    3699    3698
    3873    3696    3699    3700    3873    3874    3875    3872
    3873    3874    3875    3876    3873    3878    3879    3876
    3873    3878    3879    3880    3874    3869    3870    3865
    3874    3869    3870    3871    3874    3873    3878    3877
    3874    3873    3878    3879    3874    3875    3876    4053
    3874    3875    3876    3879    3875    3872    4049    4054
    3875    3872    4049    4050    3875    3876    4053    4058
    3875    3876    4053    4054    3875    3876    3879    3878
    3875    3876    3879    3880    3876    3879    3880    4057
    3876    3879    3880    3883    3876    4053    4058    4057
    3876    4053    4058    4059    3876    4053    4054    4049
    3876    4053    4054    4055    3877    3700    3703    3702
    3877    3700    3703    3704    3877    3878    3879    3876
    3877    3878    3879    3880    3877    3882    3883    3880
    3877    3882    3883    3884    3878    3873    3874    3869
    3878    3873    3874    3875    3878    3877    3882    3881
    3878    3877    3882    3883    3878    3879    3880    4057
    3878    3879    3880    3883    3879    3876    4053    4058
    3879    3876    4053    4054    3879    3880    4057    4062
    3879    3880    4057    4058    3879    3880    3883    3882
    3879    3880    3883    3884    3880    3883    3884    4061
    3880    3883    3884    3887    3880    4057    4062    4061
    3880    4057    4062    4063    3880    4057    4058    4053
    3880    4057    4058    4059    3881    3704    3707    3706
    3881    3704    3707    3708    3881    3882    3883    3880
    3881    3882    3883    3884    3881    3886    3887    3884
    3881    3886    3887    3888    3882    3877    3878    3873
    3882    3877    3878    3879    3882    3881    3886    3885
    3882    3881    3886    3887    3882    3883    3884    4061
    3882    3883    3884    3887    3883    3880    4057    4062
    3883    3880    4057    4058    3883    3884    4061    4062
    3883    3884    4061    4066    3883    3884    3887    3886
    3883    3884    3887    3888    3884    3887    3888    4065
    3884    3887    3888    3891    3884    4061    4062    4057
    3884    4061    4062    4063    3884    4061    4066    4065
    3884    4061    4066    4067    3885    3708    3711    3710
    3885    3708    3711    3712    3885    3886    3887    3884
    3885    3886    3887    3888    3885    3890    3891    3888
    3885    3890    3891    3892    3886    3881    3882    3877
    3886    3881    3882    3883    3886    3885    3890    3889
    3886    3885    3890    3891    3886    3887    3888    4065
    3886    3887    3888    3891    3887    3884    4061    4062
    3887    3884    4061    4066    3887    3888    4065    4066
    3887    3888    4065    4070    3887    3888    3891    3890
    3887    3888    3891    3892    3888    3891    3892    3895
    3888    3891    3892    4069    3888    4065    4066    4061
    3888    4065    4066    4067    3888    4065    4070    4069
    3888    4065    4070    4071    3889    3712    3715    3714
    3889    3712    3715    3716    3889    3890    3891    3888
    3889    3890    3891    3892    3889    3894    3895    3892
    3889    3894    3895    3896    3890    3885    3886    3881
    3890    3885    3886    3887    3890    3889    3894    3893
    3890    3889    3894    3895    3890    3891    3892    3895
    3890    3891    3892    4069    3891    3888    4065    4066
    3891    3888    4065    4070    3891    3892    3895    3894
    3891    3892    3895    3896    3891    3892    4069    4070
    3891    3892    4069    4074    3892    3895    3896    3899
    3892    3895    3896    4073    3892    4069    4070    4065
    3892    4069    4070    4071    3892    4069    4074    4073
    3892    4069    4074    4075    3893    3716    3719    3718
    3893    3716    3719    3720    3893    3894    3895    3892
    3893    3894    3895    3896    3893    3898    3899    3896
    3893    3898    3899    3900    3894    3889    3890    3885
    3894    3889    3890    3891    3894    3893    3898    3897
    3894    3893    3898    3899    3894    3895    3896    3899
    3894    3895    3896    4073    3895    3892    4069    4070
    3895    3892    4069    4074    3895    3896    3899    3898
    3895    3896    3899    3900    3895    3896    4073    4074
    3895    3896    4073    4078    3896    3899    3900    4077
    3896    3899    3900    3903    3896    4073    4074    4069
    3896    4073    4074    4075    3896    4073    4078    4077
    3896    4073    4078    4079    3897    3720    3723    3722
    3897    3720    3723    3724    3897    3898    3899    3896
    3897    3898    3899    3900    3897    3902    3903    3900
    3897    3902    3903    3904    3898    3893    3894    3889
    3898    3893    3894    3895    3898    3897    3902    3901
    3898    3897    3902    3903    3898    3899    3900    4077
    3898    3899    3900    3903    3899    3896    4073    4074
    3899    3896    4073    4078    3899    3900    4077    4078
    3899    3900    4077    4082    3899    3900    3903    3902
    3899    3900    3903    3904    3900    3903    3904    4081
    3900    3903    3904    3907    3900    4077    4078    4073
    3900    4077    4078    4079    3900    4077    4082    4081
    3900    4077    4082    4083    3901    3724    3727    3726
    3901    3724    3727    3728    3901    3902    3903    3900
    3901    3902    3903    3904    3901    3906    3907    3904
    3901    3906    3907    3908    3902    3897    3898    3893
    3902    3897    3898    3899    3902    3901    3906    3905
    3902    3901    3906    3907    3902    3903    3904    4081
    3902    3903    3904    3907    3903    3900    4077    4078
    3903    3900    4077    4082    3903    3904    4081    4082
    3903    3904    4081    4086    3903    3904    3907    3906
    3903    3904    3907    3908    3904    3907    3908    4085
    3904    3907    3908    3911    3904    4081    4082    4077
    3904    4081    4082    4083    3904    4081    4086    4085
    3904    4081    4086    4087    3905    3728    3731    3730
    3905    3728    3731    3732    3905    3906    3907    3904
    3905    3906    3907    3908    3905    3910    3911    3908
    3905    3910    3911    3912    3906    3901    3902    3897
    3906    3901    3902    3903    3906    3905    3910    3909
    3906    3905    3910    3911    3906    3907    3908    4085
    3906    3907    3908    3911    3907    3904    4081    4082
    3907    3904    4081    4086    3907    3908    4085    4086
    3907    3908    4085    4090    3907    3908    3911    3910
    3907    3908    3911    3912    3908    3911    3912    3915
    3908    3911    3912    4089    3908    4085    4086    4081
    3908    4085    4086    4087    3908    4085    4090    4089
    3908    4085    4090    4091    3909    3732    3735    3734
    3909    3732    3735    3736    3909    3910    3911    3908
    3909    3910    3911    3912    3909    3914    3915    3912
    3909    3914    3915    3916    3910    3905    3906    3901
    3910    3905    3906    3907    3910    3909    3914    3913
    3910    3909    3914    3915    3910    3911    3912    3915
    3910    3911    3912    4089    3911    3908    4085    4086
    3911    3908    4085    4090    3911    3912    3915    3914
    3911    3912    3915    3916    3911    3912    4089    4094
    3911    3912    4089    4090    3912    3915    3916    3919
    3912    3915    3916    4093    3912    4089    4094    4093
    3912    4089    4094    4095    3912    4089    4090    4085
    3912    4089    4090    4091    3913    3736    3739    3738
    3913    3736    3739    3740    3913    3914    3915    3912
    3913    3914    3915    3916    3913    3918    3919    3916
    3913    3918    3919    3920    3914    3909    3910    3905
    3914    3909    3910    3911    3914    3913    3918    3917
    3914    3913    3918    3919    3914    3915    3916    3919
    3914    3915    3916    4093    3915    3912    4089    4094
    3915    3912    4089    4090    3915    3916    3919    3918
    3915    3916    3919    3920    3915    3916    4093    4098
    3915    3916    4093    4094    3916    3919    3920    4097
    3916    3919    3920    3923    3916    4093    4098    4097
    3916    4093    4098    4099    3916    4093    4094    4089
    3916    4093    4094    4095    3917    3740    3743    3742
    3917    3740    3743    3744    3917    3918    3919    3916
    3917    3918    3919    3920    3917    3922    3923    3920
    3917    3922    3923    3924    3918    3913    3914    3909
    3918    3913    3914    3915    3918    3917    3922    3921
    3918    3917    3922    3923    3918    3919    3920    4097
    3918    3919    3920    3923    3919    3916    4093    4098
    3919    3916    4093    4094    3919    3920    4097    4102
    3919    3920    4097    4098    3919    3920    3923    3922
    3919    3920    3923    3924    3920    3923    3924    4101
    3920    3923    3924    3927    3920    4097    4102    4101
    3920    4097    4102    4103    3920    4097    4098    4093
    3920    4097    4098    4099    3921    3744    3747    3746
    3921    3744    3747    3748    3921    3922    3923    3920
    3921    3922    3923    3924    3921    3926    3927    3924
    3921    3926    3927    3928    3922    3917    3918    3913
    3922    3917    3918    3919    3922    3921    3926    3925
    3922    3921    3926    3927    3922    3923    3924    4101
    3922    3923    3924    3927    3923    3920    4097    4102
    3923    3920    4097    4098    3923    3924    4101    4102
    3923    3924    4101    4106    3923    3924    3927    3926
    3923    3924    3927    3928    3924    3927    3928    4105
    3924    3927    3928    3931    3924    4101    4102    4097
    3924    4101    4102    4103    3924    4101    4106    4105
    3924    4101    4106    4107    3925    3748    3751    3750
    3925    3748    3751    3752    3925    3926    3927    3924
    3925    3926    3927    3928    3925    3930    3931    3928
    3925    3930    3931    3932    3926    3921    3922    3917
    3926    3921    3922    3923    3926    3925    3930    3929
    3926    3925    3930    3931    3926    3927    3928    4105
    3926    3927    3928    3931    3927    3924    4101    4102
    3927    3924    4101    4106    3927    3928    4105    4106
    3927    3928    4105    4110    3927    3928    3931    3930
    3927    3928    3931    3932    3928    3931    3932    4109
    3928    3931    3932    3935    3928    4105    4106    4101
    3928    4105    4106    4107    3928    4105    4110    4109
    3928    4105    4110    4111    3929    3752    3755    3754
    3929    3752    3755    3756    3929    3930    3931    3928
    3929    3930    3931    3932    3929    3934    3935    3932
    3929    3934    3935    3936    3930    3925    3926    3921
    3930    3925    3926    3927    3930    3929    3934    3933
    3930    3929    3934    3935    3930    3931    3932    4109
    3930    3931    3932    3935    3931    3928    4105    4106
    3931    3928    4105    4110    3931    3932    4109    4114
    3931    3932    4109    4110    3931    3932    3935    3934
    3931    3932    3935    3936    3932    3935    3936    4113
    3932    3935    3936    3939    3932    4109    4114    4113
    3932    4109    4114    4115    3932    4109    4110    4105
    3932    4109    4110    4111    3933    3756    3759    3758
    3933    3756    3759    3760    3933    3934    3935    3932
    3933    3934    3935    3936    3933    3938    3939    3936
    3933    3938    3939    3940    3934    3929    3930    3925
    3934    3929    3930    3931    3934    3933    3938    3937
    3934    3933    3938    3939    3934    3935    3936    4113
    3934    3935    3936    3939    3935    3932    4109    4114
    3935    3932    4109    4110    3935    3936    4113    4118
    3935    3936    4113    4114    3935    3936    3939    3938
    3935    3936    3939    3940    3936    3939    3940    4117
    3936    3939    3940    3943    3936    4113    4118    4117
    3936    4113    4118    4119    3936    4113    4114    4109
    3936    4113    4114    4115    3937    3760    3763    3762
    3937    3760    3763    3764    3937    3938    3939    3936
    3937    3938    3939    3940    3937    3942    3943    3940
    3937    3942    3943    3944    3938    3933    3934    3929
    3938    3933    3934    3935    3938    3937    3942    3941
    3938    3937    3942    3943    3938    3939    3940    4117
    3938    3939    3940    3943    3939    3936    4113    4118
    3939    3936    4113    4114    3939    3940    4117    4122
    3939    3940    4117    4118    3939    3940    3943    3942
    3939    3940    3943    3944    3940    3943    3944    4121
    3940    3943    3944    3947    3940    4117    4122    4121
    3940    4117    4122    4123    3940    4117    4118    4113
    3940    4117    4118    4119    3941    3764    3767    3766
    3941    3764    3767    3768    3941    3942    3943    3940
    3941    3942    3943    3944    3941    3946    3947    3944
    3941    3946    3947    3948    3942    3937    3938    3933
    3942    3937    3938    3939    3942    3941    3946    3945
    3942    3941    3946    3947    3942    3943    3944    4121
    3942    3943    3944    3947    3943    3940    4117    4122
    3943    3940    4117    4118    3943    3944    4121    4122
    3943    3944    4121    4126    3943    3944    3947    3946
    3943    3944    3947    3948    3944    3947    3948    4125
    3944    3947    3948    3951    3944    4121    4122    4117
    3944    4121    4122    4123    3944    4121    4126    4125
    3944    4121    4126    4127    3945    3768    3771    3770
    3945    3768    3771    3772    3945    3946    3947    3944
    3945    3946    3947    3948    3945    3950    3951    3948
    3945    3950    3951    3952    3946    3941    3942    3937
    3946    3941    3942    3943    3946    3945    3950    3949
    3946    3945    3950    3951    3946    3947    3948    4125
    3946    3947    3948    3951    3947    3944    4121    4122
    3947    3944    4121    4126    3947    3948    4125    4126
    3947    3948    4125    4130    3947    3948    3951    3950
    3947    3948    3951    3952    3948    3951    3952    3955
    3948    3951    3952    4129    3948    4125    4126    4121
    3948    4125    4126    4127    3948    4125    4130    4129
    3948    4125    4130    4131    3949    3772    3775    3774
    3949    3772    3775    3776    3949    3950    3951    3948
    3949    3950    3951    3952    3949    3954    3955    3952
    3949    3954    3955    3956    3950    3945    3946    3941
    3950    3945    3946    3947    3950    3949    3954    3953
    3950    3949    3954    3955    3950    3951    3952    3955
    3950    3951    3952    4129    3951    3948    4125    4126
    3951    3948    4125    4130    3951    3952    3955    3954
    3951    3952    3955    3956    3951    3952    4129    4130
    3951    3952    4129    4134    3952    3955    3956    3959
    3952    3955    3956    4133    3952    4129    4130    4125
    3952    4129    4130    4131    3952    4129    4134    4133
    3952    4129    4134    4135    3953    3776    3779    3778
    3953    3776    3779    3780    3953    3954    3955    3952
    3953    3954    3955    3956    3953    3958    3959    3956
    3953    3958    3959    3960    3954    3949    3950    3945
    3954    3949    3950    3951    3954    3953    3958    3957
    3954    3953    3958    3959    3954    3955    3956    3959
    3954    3955    3956    4133    3955    3952    4129    4130
    3955    3952    4129    4134    3955    3956    3959    3958
    3955    3956    3959    3960    3955    3956    4133    4134
    3955    3956    4133    4138    3956    3959    3960    4137
    3956    4133    4134    4129    3956    4133    4134    4135
    3956    4133    4138    4137    3956    4133    4138    4139
    3957    3958    3959    3956    3957    3958    3959    3960
    3958    3953    3954    3949    3958    3953    3954    3955
    3958    3959    3960    4137    3959    3956    4133    4134
    3959    3956    4133    4138    3959    3960    4137    4138
    3960    4137    4138    4133    3960    4137    4138    4139
    3961    3784    3787    3786    3961    3784    3787    3788
    3961    3962    3963    3964    3961    3966    3967    3964
    3961    3966    3967    3968    3962    3961    3966    3965
    3962    3961    3966    3967    3962    3963    3964    4141
    3962    3963    3964    3967    3963    3964    4141    4142
    3963    3964    4141    4146    3963    3964    3967    3966
    3963    3964    3967    3968    3964    3967    3968    4145
    3964    3967    3968    3971    3964    4141    4142    4143
    3964    4141    4146    4145    3964    4141    4146    4147
    3965    3788    3791    3790    3965    3788    3791    3792
    3965    3966    3967    3964    3965    3966    3967    3968
    3965    3970    3971    3968    3965    3970    3971    3972
    3966    3961    3962    3963    3966    3965    3970    3969
    3966    3965    3970    3971    3966    3967    3968    4145
    3966    3967    3968    3971    3967    3964    4141    4142
    3967    3964    4141    4146    3967    3968    4145    4146
    3967    3968    4145    4150    3967    3968    3971    3970
    3967    3968    3971    3972    3968    3971    3972    3975
    3968    3971    3972    4149    3968    4145    4146    4141
    3968    4145    4146    4147    3968    4145    4150    4149
    3968    4145    4150    4151    3969    3792    3795    3794
    3969    3792    3795    3796    3969    3970    3971    3968
    3969    3970    3971    3972    3969    3974    3975    3972
    3969    3974    3975    3976    3970    3965    3966    3961
    3970    3965    3966    3967    3970    3969    3974    3973
    3970    3969    3974    3975    3970    3971    3972    3975
    3970    3971    3972    4149    3971    3968    4145    4146
    3971    3968    4145    4150    3971    3972    3975    3974
    3971    3972    3975    3976    3971    3972    4149    4150
    3971    3972    4149    4154    3972    3975    3976    3979
    3972    3975    3976    4153    3972    4149    4150    4145
    3972    4149    4150    4151    3972    4149    4154    4153
    3972    4149    4154    4155    3973    3796    3799    3798
    3973    3796    3799    3800    3973    3974    3975    3972
    3973    3974    3975    3976    3973    3978    3979    3976
    3973    3978    3979    3980    3974    3969    3970    3965
    3974    3969    3970    3971    3974    3973    3978    3977
    3974    3973    3978    3979    3974    3975    3976    3979
    3974    3975    3976    4153    3975    3972    4149    4150
    3975    3972    4149    4154    3975    3976    3979    3978
    3975    3976    3979    3980    3975    3976    4153    4154
    3975    3976    4153    4158    3976    3979    3980    4157
    3976    3979    3980    3983    3976    4153    4154    4149
    3976    4153    4154    4155    3976    4153    4158    4157
    3976    4153    4158    4159    3977    3800    3803    3802
    3977    3800    3803    3804    3977    3978    3979    3976
    3977    3978    3979    3980    3977    3982    3983    3980
    3977    3982    3983    3984    3978    3973    3974    3969
    3978    3973    3974    3975    3978    3977    3982    3981
    3978    3977    3982    3983    3978    3979    3980    4157
    3978    3979    3980    3983    3979    3976    4153    4154
    3979    3976    4153    4158    3979    3980    4157    4158
    3979    3980    4157    4162    3979    3980    3983    3982
    3979    3980    3983    3984    3980    3983    3984    4161
    3980    3983    3984    3987    3980    4157    4158    4153
    3980    4157    4158    4159    3980    4157    4162    4161
    3980    4157    4162    4163    3981    3804    3807    3806
    3981    3804    3807    3808    3981    3982    3983    3980
    3981    3982    3983    3984    3981    3986    3987    3984
    3981    3986    3987    3988    3982    3977    3978    3973
    3982    3977    3978    3979    3982    3981    3986    3985
    3982    3981    3986    3987    3982    3983    3984    4161
    3982    3983    3984    3987    3983    3980    4157    4158
    3983    3980    4157    4162    3983    3984    4161    4162
    3983    3984    4161    4166    3983    3984    3987    3986
    3983    3984    3987    3988    3984    3987    3988    4165
    3984    3987    3988    3991    3984    4161    4162    4157
    3984    4161    4162    4163    3984    4161    4166    4165
    3984    4161    4166    4167    3985    3808    3811    3810
    3985    3808    3811    3812    3985    3986    3987    3984
    3985    3986    3987    3988    3985    3990    3991    3988
    3985    3990    3991    3992    3986    3981    3982    3977
    3986    3981    3982    3983    3986    3985    3990    3989
    3986    3985    3990    3991    3986    3987    3988    4165
    3986    3987    3988    3991    3987    3984    4161    4162
    3987    3984    4161    4166    3987    3988    4165    4166
    3987    3988    4165    4170    3987    3988    3991    3990
    3987    3988    3991    3992    3988    3991    3992    3995
    3988    3991    3992    4169    3988    4165    4166    4161
    3988    4165    4166    4167    3988    4165    4170    4169
    3988    4165    4170    4171    3989    3812    3815    3814
    3989    3812    3815    3816    3989    3990    3991    3988
    3989    3990    3991    3992    3989    3994    3995    3992
    3989    3994    3995    3996    3990    3985    3986    3981
    3990    3985    3986    3987    3990    3989    3994    3993
    3990    3989    3994    3995    3990    3991    3992    3995
    3990    3991    3992    4169    3991    3988    4165    4166
    3991    3988    4165    4170    3991    3992    3995    3994
    3991    3992    3995    3996    3991    3992    4169    4174
    3991    3992    4169    4170    3992    3995    3996    3999
    3992    3995    3996    4173    3992    4169    4174    4173
    3992    4169    4174    4175    3992    4169    4170    4165
    3992    4169    4170    4171    3993    3816    3819    3818
    3993    3816    3819    3820    3993    3994    3995    3992
    3993    3994    3995    3996    3993    3998    3999    3996
    3993    3998    3999    4000    3994    3989    3990    3985
    3994    3989    3990    3991    3994    3993    3998    3997
    3994    3993    3998    3999    3994    3995    3996    3999
    3994    3995    3996    4173    3995    3992    4169    4174
    3995    3992    4169    4170    3995    3996    3999    3998
    3995    3996    3999    4000    3995    3996    4173    4178
    3995    3996    4173    4174    3996    3999    4000    4177
    3996    3999    4000    4003    3996    4173    4178    4177
    3996    4173    4178    4179    3996    4173    4174    4169
    3996    4173    4174    4175    3997    3820    3823    3822
    3997    3820    3823    3824    3997    3998    3999    3996
    3997    3998    3999    4000    3997    4002    4003    4000
    3997    4002    4003    4004    3998    3993    3994    3989
    3998    3993    3994    3995    3998    3997    4002    4001
    3998    3997    4002    4003    3998    3999    4000    4177
    3998    3999    4000    4003    3999    3996    4173    4178
    3999    3996    4173    4174    3999    4000    4177    4182
    3999    4000    4177    4178    3999    4000    4003    4002
    3999    4000    4003    4004    4000    4003    4004    4181
    4000    4003    4004    4007    4000    4177    4182    4181
    4000    4177    4182    4183    4000    4177    4178    4173
    4000    4177    4178    4179    4001    3824    3827    3826
    4001    3824    3827    3828    4001    4002    4003    4000
    4001    4002    4003    4004    4001    4006    4007    4004
    4001    4006    4007    4008    4002    3997    3998    3993
    4002    3997    3998    3999    4002    4001    4006    4005
    4002    4001    4006    4007    4002    4003    4004    4181
    4002    4003    4004    4007    4003    4000    4177    4182
    4003    4000    4177    4178    4003    4004    4181    4182
    4003    4004    4181    4186    4003    4004    4007    4006
    4003    4004    4007    4008    4004    4007    4008    4185
    4004    4007    4008    4011    4004    4181    4182    4177
    4004    4181    4182    4183    4004    4181    4186    4185
    4004    4181    4186    4187    4005    3828    3831    3830
    4005    3828    3831    3832    4005    4006    4007    4004
    4005    4006    4007    4008    4005    4010    4011    4008
    4005    4010    4011    4012    4006    4001    4002    3997
    4006    4001    4002    4003    4006    4005    4010    4009
    4006    4005    4010    4011    4006    4007    4008    4185
    4006    4007    4008    4011    4007    4004    4181    4182
    4007    4004    4181    4186    4007    4008    4185    4186
    4007    4008    4185    4190    4007    4008    4011    4010
    4007    4008    4011    4012    4008    4011    4012    4015
    4008    4011    4012    4189    4008    4185    4186    4181
    4008    4185    4186    4187    4008    4185    4190    4189
    4008    4185    4190    4191    4009    3832    3835    3834
    4009    3832    3835    3836    4009    4010    4011    4008
    4009    4010    4011    4012    4009    4014    4015    4012
    4009    4014    4015    4016    4010    4005    4006    4001
    4010    4005    4006    4007    4010    4009    4014    4013
    4010    4009    4014    4015    4010    4011    4012    4015
    4010    4011    4012    4189    4011    4008    4185    4186
    4011    4008    4185    4190    4011    4012    4015    4014
    4011    4012    4015    4016    4011    4012    4189    4194
    4011    4012    4189    4190    4012    4015    4016    4193
    4012    4015    4016    4019    4012    4189    4194    4193
    4012    4189    4194    4195    4012    4189    4190    4185
    4012    4189    4190    4191    4013    3836    3839    3838
    4013    3836    3839    3840    4013    4014    4015    4012
    4013    4014    4015    4016    4013    4018    4019    4016
    4013    4018    4019    4020    4014    4009    4010    4005
    4014    4009    4010    4011    4014    4013    4018    4017
    4014    4013    4018    4019    4014    4015    4016    4193
    4014    4015    4016    4019    4015    4012    4189    4194
    4015    4012    4189    4190    4015    4016    4193    4198
    4015    4016    4193    4194    4015    4016    4019    4018
    4015    4016    4019    4020    4016    4019    4020    4197
    4016    4019    4020    4023    4016    4193    4198    4197
    4016    4193    4198    4199    4016    4193    4194    4189
    4016    4193    4194    4195    4017    3840    3843    3842
    4017    3840    3843    3844    4017    4018    4019    4016
    4017    4018    4019    4020    4017    4022    4023    4020
    4017    4022    4023    4024    4018    4013    4014    4009
    4018    4013    4014    4015    4018    4017    4022    4021
    4018    4017    4022    4023    4018    4019    4020    4197
    4018    4019    4020    4023    4019    4016    4193    4198
    4019    4016    4193    4194    4019    4020    4197    4202
    4019    4020    4197    4198    4019    4020    4023    4022
    4019    4020    4023    4024    4020    4023    4024    4201
    4020    4023    4024    4027    4020    4197    4202    4201
    4020    4197    4202    4203    4020    4197    4198    4193
    4020    4197    4198    4199    4021    3844    3847    3846
    4021    3844    3847    3848    4021    4022    4023    4020
    4021    4022    4023    4024    4021    4026    4027    4024
    4021    4026    4027    4028    4022    4017    4018    4013
    4022    4017    4018    4019    4022    4021    4026    4025
    4022    4021    4026    4027    4022    4023    4024    4201
    4022    4023    4024    4027    4023    4020    4197    4202
    4023    4020    4197    4198    4023    4024    4201    4202
    4023    4024    4201    4206    4023    4024    4027    4026
    4023    4024    4027    4028    4024    4027    4028    4205
    4024    4027    4028    4031    4024    4201    4202    4197
    4024    4201    4202    4203    4024    4201    4206    4205
    4024    4201    4206    4207    4025    3848    3851    3850
    4025    3848    3851    3852    4025    4026    4027    4024
    4025    4026    4027    4028    4025    4030    4031    4028
    4025    4030    4031    4032    4026    4021    4022    4017
    4026    4021    4022    4023    4026    4025    4030    4029
    4026    4025    4030    4031    4026    4027    4028    4205
    4026    4027    4028    4031    4027    4024    4201    4202
    4027    4024    4201    4206    4027    4028    4205    4206
    4027    4028    4205    4210    4027    4028    4031    4030
    4027    4028    4031    4032    4028    4031    4032    4209
    4028    4031    4032    4035    4028    4205    4206    4201
    4028    4205    4206    4207    4028    4205    4210    4209
    4028    4205    4210    4211    4029    3852    3855    3854
    4029    3852    3855    3856    4029    4030    4031    4028
    4029    4030    4031    4032    4029    4034    4035    4032
    4029    4034    4035    4036    4030    4025    4026    4021
    4030    4025    4026    4027    4030    4029    4034    4033
    4030    4029    4034    4035    4030    4031    4032    4209
    4030    4031    4032    4035    4031    4028    4205    4206
    4031    4028    4205    4210    4031    4032    4209    4214
    4031    4032    4209    4210    4031    4032    4035    4034
    4031    4032    4035    4036    4032    4035    4036    4039
    4032    4035    4036    4213    4032    4209    4214    4213
    4032    4209    4214    4215    4032    4209    4210    4205
    4032    4209    4210    4211    4033    3856    3859    3858
    4033    3856    3859    3860    4033    4034    4035    4032
    4033    4034    4035    4036    4033    4038    4039    4036
    4033    4038    4039    4040    4034    4029    4030    4025
    4034    4029    4030    4031    4034    4033    4038    4037
    4034    4033    4038    4039    4034    4035    4036    4039
    4034    4035    4036    4213    4035    4032    4209    4214
    4035    4032    4209    4210    4035    4036    4039    4038
    4035    4036    4039    4040    4035    4036    4213    4214
    4035    4036    4213    4218    4036    4039    4040    4217
    4036    4039    4040    4043    4036    4213    4214    4209
    4036    4213    4214    4215    4036    4213    4218    4217
    4036    4213    4218    4219    4037    3860    3863    3862
    4037    3860    3863    3864    4037    4038    4039    4036
    4037    4038    4039    4040    4037    4042    4043    4040
    4037    4042    4043    4044    4038    4033    4034    4029
    4038    4033    4034    4035    4038    4037    4042    4041
    4038    4037    4042    4043    4038    4039    4040    4217
    4038    4039    4040    4043    4039    4036    4213    4214
    4039    4036    4213    4218    4039    4040    4217    4218
    4039    4040    4217    4222    4039    4040    4043    4042
    4039    4040    4043    4044    4040    4043    4044    4221
    4040    4043    4044    4047    4040    4217    4218    4213
    4040    4217    4218    4219    4040    4217    4222    4221
    4040    4217    4222    4223    4041    3864    3867    3866
    4041    3864    3867    3868    4041    4042    4043    4040
    4041    4042    4043    4044    4041    4046    4047    4044
    4041    4046    4047    4048    4042    4037    4038    4033
    4042    4037    4038    4039    4042    4041    4046    4045
    4042    4041    4046    4047    4042    4043    4044    4221
    4042    4043    4044    4047    4043    4040    4217    4218
    4043    4040    4217    4222    4043    4044    4221    4222
    4043    4044    4221    4226    4043    4044    4047    4046
    4043    4044    4047    4048    4044    4047    4048    4225
    4044    4047    4048    4051    4044    4221    4222    4217
    4044    4221    4222    4223    4044    4221    4226    4225
    4044    4221    4226    4227    4045    3868    3871    3870
    4045    3868    3871    3872    4045    4046    4047    4044
    4045    4046    4047    4048    4045    4050    4051    4048
    4045    4050    4051    4052    4046    4041    4042    4037
    4046    4041    4042    4043    4046    4045    4050    4049
    4046    4045    4050    4051    4046    4047    4048    4225
    4046    4047    4048    4051    4047    4044    4221    4222
    4047    4044    4221    4226    4047    4048    4225    4226
    4047    4048    4225    4230    4047    4048    4051    4050
    4047    4048    4051    4052    4048    4051    4052    4055
    4048    4051    4052    4229    4048    4225    4226    4221
    4048    4225    4226    4227    4048    4225    4230    4229
    4048    4225    4230    4231    4049    3872    3875    3874
    4049    3872    3875    3876    4049    4050    4051    4048
    4049    4050    4051    4052    4049    4054    4055    4052
    4049    4054    4055    4056    4050    4045    4046    4041
    4050    4045    4046    4047    4050    4049    4054    4053
    4050    4049    4054    4055    4050    4051    4052    4055
    4050    4051    4052    4229    4051    4048    4225    4226
    4051    4048    4225    4230    4051    4052    4055    4054
    4051    4052    4055    4056    4051    4052    4229    4230
    4051    4052    4229    4234    4052    4055    4056    4059
    4052    4055    4056    4233    4052    4229    4230    4225
    4052    4229    4230    4231    4052    4229    4234    4233
    4052    4229    4234    4235    4053    3876    3879    3878
    4053    3876    3879    3880    4053    4054    4055    4052
    4053    4054    4055    4056    4053    4058    4059    4056
    4053    4058    4059    4060    4054    4049    4050    4045
    4054    4049    4050    4051    4054    4053    4058    4057
    4054    4053    4058    4059    4054    4055    4056    4059
    4054    4055    4056    4233    4055    4052    4229    4230
    4055    4052    4229    4234    4055    4056    4059    4058
    4055    4056    4059    4060    4055    4056    4233    4234
    4055    4056    4233    4238    4056    4059    4060    4237
    4056    4059    4060    4063    4056    4233    4234    4229
    4056    4233    4234    4235    4056    4233    4238    4237
    4056    4233    4238    4239    4057    3880    3883    3882
    4057    3880    3883    3884    4057    4058    4059    4056
    4057    4058    4059    4060    4057    4062    4063    4060
    4057    4062    4063    4064    4058    4053    4054    4049
    4058    4053    4054    4055    4058    4057    4062    4061
    4058    4057    4062    4063    4058    4059    4060    4237
    4058    4059    4060    4063    4059    4056    4233    4234
    4059    4056    4233    4238    4059    4060    4237    4242
    4059    4060    4237    4238    4059    4060    4063    4062
    4059    4060    4063    4064    4060    4063    4064    4241
    4060    4063    4064    4067    4060    4237    4242    4241
    4060    4237    4242    4243    4060    4237    4238    4233
    4060    4237    4238    4239    4061    3884    3887    3886
    4061    3884    3887    3888    4061    4062    4063    4060
    4061    4062    4063    4064    4061    4066    4067    4064
    4061    4066    4067    4068    4062    4057    4058    4053
    4062    4057    4058    4059    4062    4061    4066    4065
    4062    4061    4066    4067    4062    4063    4064    4241
    4062    4063    4064    4067    4063    4060    4237    4242
    4063    4060    4237    4238    4063    4064    4241    4242
    4063    4064    4241    4246    4063    4064    4067    4066
    4063    4064    4067    4068    4064    4067    4068    4245
    4064    4067    4068    4071    4064    4241    4242    4237
    4064    4241    4242    4243    4064    4241    4246    4245
    4064    4241    4246    4247    4065    3888    3891    3890
    4065    3888    3891    3892    4065    4066    4067    4064
    4065    4066    4067    4068    4065    4070    4071    4068
    4065    4070    4071    4072    4066    4061    4062    4057
    4066    4061    4062    4063    4066    4065    4070    4069
    4066    4065    4070    4071    4066    4067    4068    4245
    4066    4067    4068    4071    4067    4064    4241    4242
    4067    4064    4241    4246    4067    4068    4245    4246
    4067    4068    4245    4250    4067    4068    4071    4070
    4067    4068    4071    4072    4068    4071    4072    4075
    4068    4071    4072    4249    4068    4245    4246    4241
    4068    4245    4246    4247    4068    4245    4250    4249
    4068    4245    4250    4251    4069    3892    3895    3894
    4069    3892    3895    3896    4069    4070    4071    4068
    4069    4070    4071    4072    4069    4074    4075    4072
    4069    4074    4075    4076    4070    4065    4066    4061
    4070    4065    4066    4067    4070    4069    4074    4073
    4070    4069    4074    4075    4070    4071    4072    4075
    4070    4071    4072    4249    4071    4068    4245    4246
    4071    4068    4245    4250    4071    4072    4075    4074
    4071    4072    4075    4076    4071    4072    4249    4254
    4071    4072    4249    4250    4072    4075    4076    4079
    4072    4075    4076    4253    4072    4249    4254    4253
    4072    4249    4254    4255    4072    4249    4250    4245
    4072    4249    4250    4251    4073    3896    3899    3898
    4073    3896    3899    3900    4073    4074    4075    4072
    4073    4074    4075    4076    4073    4078    4079    4076
    4073    4078    4079    4080    4074    4069    4070    4065
    4074    4069    4070    4071    4074    4073    4078    4077
    4074    4073    4078    4079    4074    4075    4076    4079
    4074    4075    4076    4253    4075    4072    4249    4254
    4075    4072    4249    4250    4075    4076    4079    4078
    4075    4076    4079    4080    4075    4076    4253    4258
    4075    4076    4253    4254    4076    4079    4080    4257
    4076    4079    4080    4083    4076    4253    4258    4257
    4076    4253    4258    4259    4076    4253    4254    4249
    4076    4253    4254    4255    4077    3900    3903    3902
    4077    3900    3903    3904    4077    4078    4079    4076
    4077    4078    4079    4080    4077    4082    4083    4080
    4077    4082    4083    4084    4078    4073    4074    4069
    4078    4073    4074    4075    4078    4077    4082    4081
    4078    4077    4082    4083    4078    4079    4080    4257
    4078    4079    4080    4083    4079    4076    4253    4258
    4079    4076    4253    4254    4079    4080    4257    4262
    4079    4080    4257    4258    4079    4080    4083    4082
    4079    4080    4083    4084    4080    4083    4084    4261
    4080    4083    4084    4087    4080    4257    4262    4261
    4080    4257    4262    4263    4080    4257    4258    4253
    4080    4257    4258    4259    4081    3904    3907    3906
    4081    3904    3907    3908    4081    4082    4083    4080
    4081    4082    4083    4084    4081    4086    4087    4084
    4081    4086    4087    4088    4082    4077    4078    4073
    4082    4077    4078    4079    4082    4081    4086    4085
    4082    4081    4086    4087    4082    4083    4084    4261
    4082    4083    4084    4087    4083    4080    4257    4262
    4083    4080    4257    4258    4083    4084    4261    4262
    4083    4084    4261    4266    4083    4084    4087    4086
    4083    4084    4087    4088    4084    4087    4088    4265
    4084    4087    4088    4091    4084    4261    4262    4257
    4084    4261    4262    4263    4084    4261    4266    4265
    4084    4261    4266    4267    4085    3908    3911    3910
    4085    3908    3911    3912    4085    4086    4087    4084
    4085    4086    4087    4088    4085    4090    4091    4088
    4085    4090    4091    4092    4086    4081    4082    4077
    4086    4081    4082    4083    4086    4085    4090    4089
    4086    4085    4090    4091    4086    4087    4088    4265
    4086    4087    4088    4091    4087    4084    4261    4262
    4087    4084    4261    4266    4087    4088    4265    4266
    4087    4088    4265    4270    4087    4088    4091    4090
    4087    4088    4091    4092    4088    4091    4092    4269
    4088    4091    4092    4095    4088    4265    4266    4261
    4088    4265    4266    4267    4088    4265    4270    4269
    4088    4265    4270    4271    4089    3912    3915    3914
    4089    3912    3915    3916    4089    4090    4091    4088
    4089    4090    4091    4092    4089    4094    4095    4092
    4089    4094    4095    4096    4090    4085    4086    4081
    4090    4085    4086    4087    4090    4089    4094    4093
    4090    4089    4094    4095    4090    4091    4092    4269
    4090    4091    4092    4095    4091    4088    4265    4266
    4091    4088    4265    4270    4091    4092    4269    4274
    4091    4092    4269    4270    4091    4092    4095    4094
    4091    4092    4095    4096    4092    4095    4096    4273
    4092    4095    4096    4099    4092    4269    4274    4273
    4092    4269    4274    4275    4092    4269    4270    4265
    4092    4269    4270    4271    4093    3916    3919    3918
    4093    3916    3919    3920    4093    4094    4095    4092
    4093    4094    4095    4096    4093    4098    4099    4096
    4093    4098    4099    4100    4094    4089    4090    4085
    4094    4089    4090    4091    4094    4093    4098    4097
    4094    4093    4098    4099    4094    4095    4096    4273
    4094    4095    4096    4099    4095    4092    4269    4274
    4095    4092    4269    4270    4095    4096    4273    4278
    4095    4096    4273    4274    4095    4096    4099    4098
    4095    4096    4099    4100    4096    4099    4100    4277
    4096    4099    4100    4103    4096    4273    4278    4277
    4096    4273    4278    4279    4096    4273    4274    4269
    4096    4273    4274    4275    4097    3920    3923    3922
    4097    3920    3923    3924    4097    4098    4099    4096
    4097    4098    4099    4100    4097    4102    4103    4100
    4097    4102    4103    4104    4098    4093    4094    4089
    4098    4093    4094    4095    4098    4097    4102    4101
    4098    4097    4102    4103    4098    4099    4100    4277
    4098    4099    4100    4103    4099    4096    4273    4278
    4099    4096    4273    4274    4099    4100    4277    4282
    4099    4100    4277    4278    4099    4100    4103    4102
    4099    4100    4103    4104    4100    4103    4104    4281
    4100    4103    4104    4107    4100    4277    4282    4281
    4100    4277    4282    4283    4100    4277    4278    4273
    4100    4277    4278    4279    4101    3924    3927    3926
    4101    3924    3927    3928    4101    4102    4103    4100
    4101    4102    4103    4104    4101    4106    4107    4104
    4101    4106    4107    4108    4102    4097    4098    4093
    4102    4097    4098    4099    4102    4101    4106    4105
    4102    4101    4106    4107    4102    4103    4104    4281
    4102    4103    4104    4107    4103    4100    4277    4282
    4103    4100    4277    4278    4103    4104    4281    4282
    4103    4104    4281    4286    4103    4104    4107    4106
    4103    4104    4107    4108    4104    4107    4108    4285
    4104    4107    4108    4111    4104    4281    4282    4277
    4104    4281    4282    4283    4104    4281    4286    4285
    4104    4281    4286    4287    4105    3928    3931    3930
    4105    3928    3931    3932    4105    4106    4107    4104
    4105    4106    4107    4108    4105    4110    4111    4108
    4105    4110    4111    4112    4106    4101    4102    4097
    4106    4101    4102    4103    4106    4105    4110    4109
    4106    4105    4110    4111    4106    4107    4108    4285
    4106    4107    4108    4111    4107    4104    4281    4282
    4107    4104    4281    4286    4107    4108    4285    4286
    4107    4108    4285    4290    4107    4108    4111    4110
    4107    4108    4111    4112    4108    4111    4112    4115
    4108    4111    4112    4289    4108    4285    4286    4281
    4108    4285    4286    4287    4108    4285    4290    4289
    4108    4285    4290    4291    4109    3932    3935    3934
    4109    3932    3935    3936    4109    4110    4111    4108
    4109    4110    4111    4112    4109    4114    4115    4112
    4109    4114    4115    4116    4110    4105    4106    4101
    4110    4105    4106    4107    4110    4109    4114    4113
    4110    4109    4114    4115    4110    4111    4112    4115
    4110    4111    4112    4289    4111    4108    4285    4286
    4111    4108    4285    4290    4111    4112    4115    4114
    4111    4112    4115    4116    4111    4112    4289    4290
    4111    4112    4289    4294    4112    4115    4116    4119
    4112    4115    4116    4293    4112    4289    4290    4285
    4112    4289    4290    4291    4112    4289    4294    4293
    4112    4289    4294    4295    4113    3936    3939    3938
    4113    3936    3939    3940    4113    4114    4115    4112
    4113    4114    4115    4116    4113    4118    4119    4116
    4113    4118    4119    4120    4114    4109    4110    4105
    4114    4109    4110    4111    4114    4113    4118    4117
    4114    4113    4118    4119    4114    4115    4116    4119
    4114    4115    4116    4293    4115    4112    4289    4290
    4115    4112    4289    4294    4115    4116    4119    4118
    4115    4116    4119    4120    4115    4116    4293    4294
    4115    4116    4293    4298    4116    4119    4120    4297
    4116    4119    4120    4123    4116    4293    4294    4289
    4116    4293    4294    4295    4116    4293    4298    4297
    4116    4293    4298    4299    4117    3940    3943    3942
    4117    3940    3943    3944    4117    4118    4119    4116
    4117    4118    4119    4120    4117    4122    4123    4120
    4117    4122    4123    4124    4118    4113    4114    4109
    4118    4113    4114    4115    4118    4117    4122    4121
    4118    4117    4122    4123    4118    4119    4120    4297
    4118    4119    4120    4123    4119    4116    4293    4294
    4119    4116    4293    4298    4119    4120    4297    4298
    4119    4120    4297    4302    4119    4120    4123    4122
    4119    4120    4123    4124    4120    4123    4124    4301
    4120    4123    4124    4127    4120    4297    4298    4293
    4120    4297    4298    4299    4120    4297    4302    4301
    4120    4297    4302    4303    4121    3944    3947    3946
    4121    3944    3947    3948    4121    4122    4123    4120
    4121    4122    4123    4124    4121    4126    4127    4124
    4121    4126    4127    4128    4122    4117    4118    4113
    4122    4117    4118    4119    4122    4121    4126    4125
    4122    4121    4126    4127    4122    4123    4124    4301
    4122    4123    4124    4127    4123    4120    4297    4298
    4123    4120    4297    4302    4123    4124    4301    4302
    4123    4124    4301    4306    4123    4124    4127    4126
    4123    4124    4127    4128    4124    4127    4128    4305
    4124    4127    4128    4131    4124    4301    4302    4297
    4124    4301    4302    4303    4124    4301    4306    4305
    4124    4301    4306    4307    4125    3948    3951    3950
    4125    3948    3951    3952    4125    4126    4127    4124
    4125    4126    4127    4128    4125    4130    4131    4128
    4125    4130    4131    4132    4126    4121    4122    4117
    4126    4121    4122    4123    4126    4125    4130    4129
    4126    4125    4130    4131    4126    4127    4128    4305
    4126    4127    4128    4131    4127    4124    4301    4302
    4127    4124    4301    4306    4127    4128    4305    4306
    4127    4128    4305    4310    4127    4128    4131    4130
    4127    4128    4131    4132    4128    4131    4132    4135
    4128    4131    4132    4309    4128    4305    4306    4301
    4128    4305    4306    4307    4128    4305    4310    4309
    4128    4305    4310    4311    4129    3952    3955    3954
    4129    3952    3955    3956    4129    4130    4131    4128
    4129    4130    4131    4132    4129    4134    4135    4132
    4129    4134    4135    4136    4130    4125    4126    4121
    4130    4125    4126    4127    4130    4129    4134    4133
    4130    4129    4134    4135    4130    4131    4132    4135
    4130    4131    4132    4309    4131    4128    4305    4306
    4131    4128    4305    4310    4131    4132    4135    4134
    4131    4132    4135    4136    4131    4132    4309    4314
    4131    4132    4309    4310    4132    4135    4136    4139
    4132    4135    4136    4313    4132    4309    4314    4313
    4132    4309    4314    4315    4132    4309    4310    4305
    4132    4309    4310    4311    4133    3956    3959    3958
    4133    3956    3959    3960    4133    4134    4135    4132
    4133    4134    4135    4136    4133    4138    4139    4136
    4133    4138    4139    4140    4134    4129    4130    4125
    4134    4129    4130    4131    4134    4133    4138    4137
    4134    4133    4138    4139    4134    4135    4136    4139
    4134    4135    4136    4313    4135    4132    4309    4314
    4135    4132    4309    4310    4135    4136    4139    4138
    4135    4136    4139    4140    4135    4136    4313    4318
    4135    4136    4313    4314    4136    4139    4140    4317
    4136    4313    4318    4317    4136    4313    4318    4319
    4136    4313    4314    4309    4136    4313    4314    4315
    4137    4138    4139    4136    4137    4138    4139    4140
    4138    4133    4134    4129    4138    4133    4134    4135
    4138    4139    4140    4317    4139    4136    4313    4318
    4139    4136    4313    4314    4139    4140    4317    4318
    4140    4317    4318    4313    4140    4317    4318    4319
    4141    3964    3967    3966    4141    3964    3967    3968
    4141    4142    4143    4144    4141    4146    4147    4144
    4141    4146    4147    4148    4142    4141    4146    4145
    4142    4141    4146    4147    4142    4143    4144    4321
    4142    4143    4144    4147    4143    4144    4321    4322
    4143    4144    4321    4326    4143    4144    4147    4146
    4143    4144    4147    4148    4144    4147    4148    4325
    4144    4147    4148    4151    4144    4321    4322    4323
    4144    4321    4326    4325    4144    4321    4326    4327
    4145    3968    3971    3970    4145    3968    3971    3972
    4145    4146    4147    4144    4145    4146    4147    4148
    4145    4150    4151    4148    4145    4150    4151    4152
    4146    4141    4142    4143    4146    4145    4150    4149
    4146    4145    4150    4151    4146    4147    4148    4325
    4146    4147    4148    4151    4147    4144    4321    4322
    4147    4144    4321    4326    4147    4148    4325    4326
    4147    4148    4325    4330    4147    4148    4151    4150
    4147    4148    4151    4152    4148    4151    4152    4155
    4148    4151    4152    4329    4148    4325    4326    4321
    4148    4325    4326    4327    4148    4325    4330    4329
    4148    4325    4330    4331    4149    3972    3975    3974
    4149    3972    3975    3976    4149    4150    4151    4148
    4149    4150    4151    4152    4149    4154    4155    4152
    4149    4154    4155    4156    4150    4145    4146    4141
    4150    4145    4146    4147    4150    4149    4154    4153
    4150    4149    4154    4155    4150    4151    4152    4155
    4150    4151    4152    4329    4151    4148    4325    4326
    4151    4148    4325    4330    4151    4152    4155    4154
    4151    4152    4155    4156    4151    4152    4329    4334
    4151    4152    4329    4330    4152    4155    4156    4159
    4152    4155    4156    4333    4152    4329    4334    4333
    4152    4329    4334    4335    4152    4329    4330    4325
    4152    4329    4330    4331    4153    3976    3979    3978
    4153    3976    3979    3980    4153    4154    4155    4152
    4153    4154    4155    4156    4153    4158    4159    4156
    4153    4158    4159    4160    4154    4149    4150    4145
    4154    4149    4150    4151    4154    4153    4158    4157
    4154    4153    4158    4159    4154    4155    4156    4159
    4154    4155    4156    4333    4155    4152    4329    4334
    4155    4152    4329    4330    4155    4156    4159    4158
    4155    4156    4159    4160    4155    4156    4333    4338
    4155    4156    4333    4334    4156    4159    4160    4337
    4156    4159    4160    4163    4156    4333    4338    4337
    4156    4333    4338    4339    4156    4333    4334    4329
    4156    4333    4334    4335    4157    3980    3983    3982
    4157    3980    3983    3984    4157    4158    4159    4156
    4157    4158    4159    4160    4157    4162    4163    4160
    4157    4162    4163    4164    4158    4153    4154    4149
    4158    4153    4154    4155    4158    4157    4162    4161
    4158    4157    4162    4163    4158    4159    4160    4337
    4158    4159    4160    4163    4159    4156    4333    4338
    4159    4156    4333    4334    4159    4160    4337    4342
    4159    4160    4337    4338    4159    4160    4163    4162
    4159    4160    4163    4164    4160    4163    4164    4341
    4160    4163    4164    4167    4160    4337    4342    4341
    4160    4337    4342    4343    4160    4337    4338    4333
    4160    4337    4338    4339    4161    3984    3987    3986
    4161    3984    3987    3988    4161    4162    4163    4160
    4161    4162    4163    4164    4161    4166    4167    4164
    4161    4166    4167    4168    4162    4157    4158    4153
    4162    4157    4158    4159    4162    4161    4166    4165
    4162    4161    4166    4167    4162    4163    4164    4341
    4162    4163    4164    4167    4163    4160    4337    4342
    4163    4160    4337    4338    4163    4164    4341    4342
    4163    4164    4341    4346    4163    4164    4167    4166
    4163    4164    4167    4168    4164    4167    4168    4345
    4164    4167    4168    4171    4164    4341    4342    4337
    4164    4341    4342    4343    4164    4341    4346    4345
    4164    4341    4346    4347    4165    3988    3991    3990
    4165    3988    3991    3992    4165    4166    4167    4164
    4165    4166    4167    4168    4165    4170    4171    4168
    4165    4170    4171    4172    4166    4161    4162    4157
    4166    4161    4162    4163    4166    4165    4170    4169
    4166    4165    4170    4171    4166    4167    4168    4345
    4166    4167    4168    4171    4167    4164    4341    4342
    4167    4164    4341    4346    4167    4168    4345    4346
    4167    4168    4345    4350    4167    4168    4171    4170
    4167    4168    4171    4172    4168    4171    4172    4349
    4168    4171    4172    4175    4168    4345    4346    4341
    4168    4345    4346    4347    4168    4345    4350    4349
    4168    4345    4350    4351    4169    3992    3995    3994
    4169    3992    3995    3996    4169    4170    4171    4168
    4169    4170    4171    4172    4169    4174    4175    4172
    4169    4174    4175    4176    4170    4165    4166    4161
    4170    4165    4166    4167    4170    4169    4174    4173
    4170    4169    4174    4175    4170    4171    4172    4349
    4170    4171    4172    4175    4171    4168    4345    4346
    4171    4168    4345    4350    4171    4172    4349    4354
    4171    4172    4349    4350    4171    4172    4175    4174
    4171    4172    4175    4176    4172    4175    4176    4353
    4172    4175    4176    4179    4172    4349    4354    4353
    4172    4349    4354    4355    4172    4349    4350    4345
    4172    4349    4350    4351    4173    3996    3999    3998
    4173    3996    3999    4000    4173    4174    4175    4172
    4173    4174    4175    4176    4173    4178    4179    4176
    4173    4178    4179    4180    4174    4169    4170    4165
    4174    4169    4170    4171    4174    4173    4178    4177
    4174    4173    4178    4179    4174    4175    4176    4353
    4174    4175    4176    4179    4175    4172    4349    4354
    4175    4172    4349    4350    4175    4176    4353    4358
    4175    4176    4353    4354    4175    4176    4179    4178
    4175    4176    4179    4180    4176    4179    4180    4357
    4176    4179    4180    4183    4176    4353    4358    4357
    4176    4353    4358    4359    4176    4353    4354    4349
    4176    4353    4354    4355    4177    4000    4003    4002
    4177    4000    4003    4004    4177    4178    4179    4176
    4177    4178    4179    4180    4177    4182    4183    4180
    4177    4182    4183    4184    4178    4173    4174    4169
    4178    4173    4174    4175    4178    4177    4182    4181
    4178    4177    4182    4183    4178    4179    4180    4357
    4178    4179    4180    4183    4179    4176    4353    4358
    4179    4176    4353    4354    4179    4180    4357    4362
    4179    4180    4357    4358    4179    4180    4183    4182
    4179    4180    4183    4184    4180    4183    4184    4361
    4180    4183    4184    4187    4180    4357    4362    4361
    4180    4357    4362    4363    4180    4357    4358    4353
    4180    4357    4358    4359    4181    4004    4007    4006
    4181    4004    4007    4008    4181    4182    4183    4180
    4181    4182    4183    4184    4181    4186    4187    4184
    4181    4186    4187    4188    4182    4177    4178    4173
    4182    4177    4178    4179    4182    4181    4186    4185
    4182    4181    4186    4187    4182    4183    4184    4361
    4182    4183    4184    4187    4183    4180    4357    4362
    4183    4180    4357    4358    4183    4184    4361    4362
    4183    4184    4361    4366    4183    4184    4187    4186
    4183    4184    4187    4188    4184    4187    4188    4365
    4184    4187    4188    4191    4184    4361    4362    4357
    4184    4361    4362    4363    4184    4361    4366    4365
    4184    4361    4366    4367    4185    4008    4011    4010
    4185    4008    4011    4012    4185    4186    4187    4184
    4185    4186    4187    4188    4185    4190    4191    4188
    4185    4190    4191    4192    4186    4181    4182    4177
    4186    4181    4182    4183    4186    4185    4190    4189
    4186    4185    4190    4191    4186    4187    4188    4365
    4186    4187    4188    4191    4187    4184    4361    4362
    4187    4184    4361    4366    4187    4188    4365    4366
    4187    4188    4365    4370    4187    4188    4191    4190
    4187    4188    4191    4192    4188    4191    4192    4195
    4188    4191    4192    4369    4188    4365    4366    4361
    4188    4365    4366    4367    4188    4365    4370    4369
    4188    4365    4370    4371    4189    4012    4015    4014
    4189    4012    4015    4016    4189    4190    4191    4188
    4189    4190    4191    4192    4189    4194    4195    4192
    4189    4194    4195    4196    4190    4185    4186    4181
    4190    4185    4186    4187    4190    4189    4194    4193
    4190    4189    4194    4195    4190    4191    4192    4195
    4190    4191    4192    4369    4191    4188    4365    4366
    4191    4188    4365    4370    4191    4192    4195    4194
    4191    4192    4195    4196    4191    4192    4369    4374
    4191    4192    4369    4370    4192    4195    4196    4199
    4192    4195    4196    4373    4192    4369    4374    4373
    4192    4369    4374    4375    4192    4369    4370    4365
    4192    4369    4370    4371    4193    4016    4019    4018
    4193    4016    4019    4020    4193    4194    4195    4192
    4193    4194    4195    4196    4193    4198    4199    4196
    4193    4198    4199    4200    4194    4189    4190    4185
    4194    4189    4190    4191    4194    4193    4198    4197
    4194    4193    4198    4199    4194    4195    4196    4199
    4194    4195    4196    4373    4195    4192    4369    4374
    4195    4192    4369    4370    4195    4196    4199    4198
    4195    4196    4199    4200    4195    4196    4373    4378
    4195    4196    4373    4374    4196    4199    4200    4377
    4196    4199    4200    4203    4196    4373    4378    4377
    4196    4373    4378    4379    4196    4373    4374    4369
    4196    4373    4374    4375    4197    4020    4023    4022
    4197    4020    4023    4024    4197    4198    4199    4196
    4197    4198    4199    4200    4197    4202    4203    4200
    4197    4202    4203    4204    4198    4193    4194    4189
    4198    4193    4194    4195    4198    4197    4202    4201
    4198    4197    4202    4203    4198    4199    4200    4377
    4198    4199    4200    4203    4199    4196    4373    4378
    4199    4196    4373    4374    4199    4200    4377    4382
    4199    4200    4377    4378    4199    4200    4203    4202
    4199    4200    4203    4204    4200    4203    4204    4381
    4200    4203    4204    4207    4200    4377    4382    4381
    4200    4377    4382    4383    4200    4377    4378    4373
    4200    4377    4378    4379    4201    4024    4027    4026
    4201    4024    4027    4028    4201    4202    4203    4200
    4201    4202    4203    4204    4201    4206    4207    4204
    4201    4206    4207    4208    4202    4197    4198    4193
    4202    4197    4198    4199    4202    4201    4206    4205
    4202    4201    4206    4207    4202    4203    4204    4381
    4202    4203    4204    4207    4203    4200    4377    4382
    4203    4200    4377    4378    4203    4204    4381    4382
    4203    4204    4381    4386    4203    4204    4207    4206
    4203    4204    4207    4208    4204    4207    4208    4385
    4204    4207    4208    4211    4204    4381    4382    4377
    4204    4381    4382    4383    4204    4381    4386    4385
    4204    4381    4386    4387    4205    4028    4031    4030
    4205    4028    4031    4032    4205    4206    4207    4204
    4205    4206    4207    4208    4205    4210    4211    4208
    4205    4210    4211    4212    4206    4201    4202    4197
    4206    4201    4202    4203    4206    4205    4210    4209
    4206    4205    4210    4211    4206    4207    4208    4385
    4206    4207    4208    4211    4207    4204    4381    4382
    4207    4204    4381    4386    4207    4208    4385    4386
    4207    4208    4385    4390    4207    4208    4211    4210
    4207    4208    4211    4212    4208    4211    4212    4215
    4208    4211    4212    4389    4208    4385    4386    4381
    4208    4385    4386    4387    4208    4385    4390    4389
    4208    4385    4390    4391    4209    4032    4035    4034
    4209    4032    4035    4036    4209    4210    4211    4208
    4209    4210    4211    4212    4209    4214    4215    4212
    4209    4214    4215    4216    4210    4205    4206    4201
    4210    4205    4206    4207    4210    4209    4214    4213
    4210    4209    4214    4215    4210    4211    4212    4215
    4210    4211    4212    4389    4211    4208    4385    4386
    4211    4208    4385    4390    4211    4212    4215    4214
    4211    4212    4215    4216    4211    4212    4389    4394
    4211    4212    4389    4390    4212    4215    4216    4219
    4212    4215    4216    4393    4212    4389    4394    4393
    4212    4389    4394    4395    4212    4389    4390    4385
    4212    4389    4390    4391    4213    4036    4039    4038
    4213    4036    4039    4040    4213    4214    4215    4212
    4213    4214    4215    4216    4213    4218    4219    4216
    4213    4218    4219    4220    4214    4209    4210    4205
    4214    4209    4210    4211    4214    4213    4218    4217
    4214    4213    4218    4219    4214    4215    4216    4219
    4214    4215    4216    4393    4215    4212    4389    4394
    4215    4212    4389    4390    4215    4216    4219    4218
    4215    4216    4219    4220    4215    4216    4393    4398
    4215    4216    4393    4394    4216    4219    4220    4397
    4216    4219    4220    4223    4216    4393    4398    4397
    4216    4393    4398    4399    4216    4393    4394    4389
    4216    4393    4394    4395    4217    4040    4043    4042
    4217    4040    4043    4044    4217    4218    4219    4216
    4217    4218    4219    4220    4217    4222    4223    4220
    4217    4222    4223    4224    4218    4213    4214    4209
    4218    4213    4214    4215    4218    4217    4222    4221
    4218    4217    4222    4223    4218    4219    4220    4397
    4218    4219    4220    4223    4219    4216    4393    4398
    4219    4216    4393    4394    4219    4220    4397    4402
    4219    4220    4397    4398    4219    4220    4223    4222
    4219    4220    4223    4224    4220    4223    4224    4401
    4220    4223    4224    4227    4220    4397    4402    4401
    4220    4397    4402    4403    4220    4397    4398    4393
    4220    4397    4398    4399    4221    4044    4047    4046
    4221    4044    4047    4048    4221    4222    4223    4220
    4221    4222    4223    4224    4221    4226    4227    4224
    4221    4226    4227    4228    4222    4217    4218    4213
    4222    4217    4218    4219    4222    4221    4226    4225
    4222    4221    4226    4227    4222    4223    4224    4401
    4222    4223    4224    4227    4223    4220    4397    4402
    4223    4220    4397    4398    4223    4224    4401    4402
    4223    4224    4401    4406    4223    4224    4227    4226
    4223    4224    4227    4228    4224    4227    4228    4405
    4224    4227    4228    4231    4224    4401    4402    4397
    4224    4401    4402    4403    4224    4401    4406    4405
    4224    4401    4406    4407    4225    4048    4051    4050
    4225    4048    4051    4052    4225    4226    4227    4224
    4225    4226    4227    4228    4225    4230    4231    4228
    4225    4230    4231    4232    4226    4221    4222    4217
    4226    4221    4222    4223    4226    4225    4230    4229
    4226    4225    4230    4231    4226    4227    4228    4405
    4226    4227    4228    4231    4227    4224    4401    4402
    4227    4224    4401    4406    4227    4228    4405    4406
    4227    4228    4405    4410    4227    4228    4231    4230
    4227    4228    4231    4232    4228    4231    4232    4235
    4228    4231    4232    4409    4228    4405    4406    4401
    4228    4405    4406    4407    4228    4405    4410    4409
    4228    4405    4410    4411    4229    4052    4055    4054
    4229    4052    4055    4056    4229    4230    4231    4228
    4229    4230    4231    4232    4229    4234    4235    4232
    4229    4234    4235    4236    4230    4225    4226    4221
    4230    4225    4226    4227    4230    4229    4234    4233
    4230    4229    4234    4235    4230    4231    4232    4235
    4230    4231    4232    4409    4231    4228    4405    4406
    4231    4228    4405    4410    4231    4232    4235    4234
    4231    4232    4235    4236    4231    4232    4409    4414
    4231    4232    4409    4410    4232    4235    4236    4413
    4232    4235    4236    4239    4232    4409    4414    4413
    4232    4409    4414    4415    4232    4409    4410    4405
    4232    4409    4410    4411    4233    4056    4059    4058
    4233    4056    4059    4060    4233    4234    4235    4232
    4233    4234    4235    4236    4233    4238    4239    4236
    4233    4238    4239    4240    4234    4229    4230    4225
    4234    4229    4230    4231    4234    4233    4238    4237
    4234    4233    4238    4239    4234    4235    4236    4413
    4234    4235    4236    4239    4235    4232    4409    4414
    4235    4232    4409    4410    4235    4236    4413    4418
    4235    4236    4413    4414    4235    4236    4239    4238
    4235    4236    4239    4240    4236    4239    4240    4417
    4236    4239    4240    4243    4236    4413    4418    4417
    4236    4413    4418    4419    4236    4413    4414    4409
    4236    4413    4414    4415    4237    4060    4063    4062
    4237    4060    4063    4064    4237    4238    4239    4236
    4237    4238    4239    4240    4237    4242    4243    4240
    4237    4242    4243    4244    4238    4233    4234    4229
    4238    4233    4234    4235    4238    4237    4242    4241
    4238    4237    4242    4243    4238    4239    4240    4417
    4238    4239    4240    4243    4239    4236    4413    4418
    4239    4236    4413    4414    4239    4240    4417    4422
    4239    4240    4417    4418    4239    4240    4243    4242
    4239    4240    4243    4244    4240    4243    4244    4421
    4240    4243    4244    4247    4240    4417    4422    4421
    4240    4417    4422    4423    4240    4417    4418    4413
    4240    4417    4418    4419    4241    4064    4067    4066
    4241    4064    4067    4068    4241    4242    4243    4240
    4241    4242    4243    4244    4241    4246    4247    4244
    4241    4246    4247    4248    4242    4237    4238    4233
    4242    4237    4238    4239    4242    4241    4246    4245
    4242    4241    4246    4247    4242    4243    4244    4421
    4242    4243    4244    4247    4243    4240    4417    4422
    4243    4240    4417    4418    4243    4244    4421    4422
    4243    4244    4421    4426    4243    4244    4247    4246
    4243    4244    4247    4248    4244    4247    4248    4425
    4244    4247    4248    4251    4244    4421    4422    4417
    4244    4421    4422    4423    4244    4421    4426    4425
    4244    4421    4426    4427    4245    4068    4071    4070
    4245    4068    4071    4072    4245    4246    4247    4244
    4245    4246    4247    4248    4245    4250    4251    4248
    4245    4250    4251    4252    4246    4241    4242    4237
    4246    4241    4242    4243    4246    4245    4250    4249
    4246    4245    4250    4251    4246    4247    4248    4425
    4246    4247    4248    4251    4247    4244    4421    4422
    4247    4244    4421    4426    4247    4248    4425    4426
    4247    4248    4425    4430    4247    4248    4251    4250
    4247    4248    4251    4252    4248    4251    4252    4429
    4248    4251    4252    4255    4248    4425    4426    4421
    4248    4425    4426    4427    4248    4425    4430    4429
    4248    4425    4430    4431    4249    4072    4075    4074
    4249    4072    4075    4076    4249    4250    4251    4248
    4249    4250    4251    4252    4249    4254    4255    4252
    4249    4254    4255    4256    4250    4245    4246    4241
    4250    4245    4246    4247    4250    4249    4254    4253
    4250    4249    4254    4255    4250    4251    4252    4429
    4250    4251    4252    4255    4251    4248    4425    4426
    4251    4248    4425    4430    4251    4252    4429    4434
    4251    4252    4429    4430    4251    4252    4255    4254
    4251    4252    4255    4256    4252    4255    4256    4259
    4252    4255    4256    4433    4252    4429    4434    4433
    4252    4429    4434    4435    4252    4429    4430    4425
    4252    4429    4430    4431    4253    4076    4079    4078
    4253    4076    4079    4080    4253    4254    4255    4252
    4253    4254    4255    4256    4253    4258    4259    4256
    4253    4258    4259    4260    4254    4249    4250    4245
    4254    4249    4250    4251    4254    4253    4258    4257
    4254    4253    4258    4259    4254    4255    4256    4259
    4254    4255    4256    4433    4255    4252    4429    4434
    4255    4252    4429    4430    4255    4256    4259    4258
    4255    4256    4259    4260    4255    4256    4433    4438
    4255    4256    4433    4434    4256    4259    4260    4437
    4256    4259    4260    4263    4256    4433    4438    4437
    4256    4433    4438    4439    4256    4433    4434    4429
    4256    4433    4434    4435    4257    4080    4083    4082
    4257    4080    4083    4084    4257    4258    4259    4256
    4257    4258    4259    4260    4257    4262    4263    4260
    4257    4262    4263    4264    4258    4253    4254    4249
    4258    4253    4254    4255    4258    4257    4262    4261
    4258    4257    4262    4263    4258    4259    4260    4437
    4258    4259    4260    4263    4259    4256    4433    4438
    4259    4256    4433    4434    4259    4260    4437    4442
    4259    4260    4437    4438    4259    4260    4263    4262
    4259    4260    4263    4264    4260    4263    4264    4441
    4260    4263    4264    4267    4260    4437    4442    4441
    4260    4437    4442    4443    4260    4437    4438    4433
    4260    4437    4438    4439    4261    4084    4087    4086
    4261    4084    4087    4088    4261    4262    4263    4260
    4261    4262    4263    4264    4261    4266    4267    4264
    4261    4266    4267    4268    4262    4257    4258    4253
    4262    4257    4258    4259    4262    4261    4266    4265
    4262    4261    4266    4267    4262    4263    4264    4441
    4262    4263    4264    4267    4263    4260    4437    4442
    4263    4260    4437    4438    4263    4264    4441    4442
    4263    4264    4441    4446    4263    4264    4267    4266
    4263    4264    4267    4268    4264    4267    4268    4445
    4264    4267    4268    4271    4264    4441    4442    4437
    4264    4441    4442    4443    4264    4441    4446    4445
    4264    4441    4446    4447    4265    4088    4091    4090
    4265    4088    4091    4092    4265    4266    4267    4264
    4265    4266    4267    4268    4265    4270    4271    4268
    4265    4270    4271    4272    4266    4261    4262    4257
    4266    4261    4262    4263    4266    4265    4270    4269
    4266    4265    4270    4271    4266    4267    4268    4445
    4266    4267    4268    4271    4267    4264    4441    4442
    4267    4264    4441    4446    4267    4268    4445    4446
    4267    4268    4445    4450    4267    4268    4271    4270
    4267    4268    4271    4272    4268    4271    4272    4275
    4268    4271    4272    4449    4268    4445    4446    4441
    4268    4445    4446    4447    4268    4445    4450    4449
    4268    4445    4450    4451    4269    4092    4095    4094
    4269    4092    4095    4096    4269    4270    4271    4268
    4269    4270    4271    4272    4269    4274    4275    4272
    4269    4274    4275    4276    4270    4265    4266    4261
    4270    4265    4266    4267    4270    4269    4274    4273
    4270    4269    4274    4275    4270    4271    4272    4275
    4270    4271    4272    4449    4271    4268    4445    4446
    4271    4268    4445    4450    4271    4272    4275    4274
    4271    4272    4275    4276    4271    4272    4449    4454
    4271    4272    4449    4450    4272    4275    4276    4279
    4272    4275    4276    4453    4272    4449    4454    4453
    4272    4449    4454    4455    4272    4449    4450    4445
    4272    4449    4450    4451    4273    4096    4099    4098
    4273    4096    4099    4100    4273    4274    4275    4272
    4273    4274    4275    4276    4273    4278    4279    4276
    4273    4278    4279    4280    4274    4269    4270    4265
    4274    4269    4270    4271    4274    4273    4278    4277
    4274    4273    4278    4279    4274    4275    4276    4279
    4274    4275    4276    4453    4275    4272    4449    4454
    4275    4272    4449    4450    4275    4276    4279    4278
    4275    4276    4279    4280    4275    4276    4453    4454
    4275    4276    4453    4458    4276    4279    4280    4457
    4276    4279    4280    4283    4276    4453    4454    4449
    4276    4453    4454    4455    4276    4453    4458    4457
    4276    4453    4458    4459    4277    4100    4103    4102
    4277    4100    4103    4104    4277    4278    4279    4276
    4277    4278    4279    4280    4277    4282    4283    4280
    4277    4282    4283    4284    4278    4273    4274    4269
    4278    4273    4274    4275    4278    4277    4282    4281
    4278    4277    4282    4283    4278    4279    4280    4457
    4278    4279    4280    4283    4279    4276    4453    4454
    4279    4276    4453    4458    4279    4280    4457    4462
    4279    4280    4457    4458    4279    4280    4283    4282
    4279    4280    4283    4284    4280    4283    4284    4461
    4280    4283    4284    4287    4280    4457    4462    4461
    4280    4457    4462    4463    4280    4457    4458    4453
    4280    4457    4458    4459    4281    4104    4107    4106
    4281    4104    4107    4108    4281    4282    4283    4280
    4281    4282    4283    4284    4281    4286    4287    4284
    4281    4286    4287    4288    4282    4277    4278    4273
    4282    4277    4278    4279    4282    4281    4286    4285
    4282    4281    4286    4287    4282    4283    4284    4461
    4282    4283    4284    4287    4283    4280    4457    4462
    4283    4280    4457    4458    4283    4284    4461    4462
    4283    4284    4461    4466    4283    4284    4287    4286
    4283    4284    4287    4288    4284    4287    4288    4465
    4284    4287    4288    4291    4284    4461    4462    4457
    4284    4461    4462    4463    4284    4461    4466    4465
    4284    4461    4466    4467    4285    4108    4111    4110
    4285    4108    4111    4112    4285    4286    4287    4284
    4285    4286    4287    4288    4285    4290    4291    4288
    4285    4290    4291    4292    4286    4281    4282    4277
    4286    4281    4282    4283    4286    4285    4290    4289
    4286    4285    4290    4291    4286    4287    4288    4465
    4286    4287    4288    4291    4287    4284    4461    4462
    4287    4284    4461    4466    4287    4288    4465    4466
    4287    4288    4465    4470    4287    4288    4291    4290
    4287    4288    4291    4292    4288    4291    4292    4295
    4288    4291    4292    4469    4288    4465    4466    4461
    4288    4465    4466    4467    4288    4465    4470    4469
    4288    4465    4470    4471    4289    4112    4115    4114
    4289    4112    4115    4116    4289    4290    4291    4288
    4289    4290    4291    4292    4289    4294    4295    4292
    4289    4294    4295    4296    4290    4285    4286    4281
    4290    4285    4286    4287    4290    4289    4294    4293
    4290    4289    4294    4295    4290    4291    4292    4295
    4290    4291    4292    4469    4291    4288    4465    4466
    4291    4288    4465    4470    4291    4292    4295    4294
    4291    4292    4295    4296    4291    4292    4469    4474
    4291    4292    4469    4470    4292    4295    4296    4299
    4292    4295    4296    4473    4292    4469    4474    4473
    4292    4469    4474    4475    4292    4469    4470    4465
    4292    4469    4470    4471    4293    4116    4119    4118
    4293    4116    4119    4120    4293    4294    4295    4292
    4293    4294    4295    4296    4293    4298    4299    4296
    4293    4298    4299    4300    4294    4289    4290    4285
    4294    4289    4290    4291    4294    4293    4298    4297
    4294    4293    4298    4299    4294    4295    4296    4299
    4294    4295    4296    4473    4295    4292    4469    4474
    4295    4292    4469    4470    4295    4296    4299    4298
    4295    4296    4299    4300    4295    4296    4473    4478
    4295    4296    4473    4474    4296    4299    4300    4477
    4296    4299    4300    4303    4296    4473    4478    4477
    4296    4473    4478    4479    4296    4473    4474    4469
    4296    4473    4474    4475    4297    4120    4123    4122
    4297    4120    4123    4124    4297    4298    4299    4296
    4297    4298    4299    4300    4297    4302    4303    4300
    4297    4302    4303    4304    4298    4293    4294    4289
    4298    4293    4294    4295    4298    4297    4302    4301
    4298    4297    4302    4303    4298    4299    4300    4477
    4298    4299    4300    4303    4299    4296    4473    4478
    4299    4296    4473    4474    4299    4300    4477    4482
    4299    4300    4477    4478    4299    4300    4303    4302
    4299    4300    4303    4304    4300    4303    4304    4481
    4300    4303    4304    4307    4300    4477    4482    4481
    4300    4477    4482    4483    4300    4477    4478    4473
    4300    4477    4478    4479    4301    4124    4127    4126
    4301    4124    4127    4128    4301    4302    4303    4300
    4301    4302    4303    4304    4301    4306    4307    4304
    4301    4306    4307    4308    4302    4297    4298    4293
    4302    4297    4298    4299    4302    4301    4306    4305
    4302    4301    4306    4307    4302    4303    4304    4481
    4302    4303    4304    4307    4303    4300    4477    4482
    4303    4300    4477    4478    4303    4304    4481    4482
    4303    4304    4481    4486    4303    4304    4307    4306
    4303    4304    4307    4308    4304    4307    4308    4485
    4304    4307    4308    4311    4304    4481    4482    4477
    4304    4481    4482    4483    4304    4481    4486    4485
    4304    4481    4486    4487    4305    4128    4131    4130
    4305    4128    4131    4132    4305    4306    4307    4304
    4305    4306    4307    4308    4305    4310    4311    4308
    4305    4310    4311    4312    4306    4301    4302    4297
    4306    4301    4302    4303    4306    4305    4310    4309
    4306    4305    4310    4311    4306    4307    4308    4485
    4306    4307    4308    4311    4307    4304    4481    4482
    4307    4304    4481    4486    4307    4308    4485    4486
    4307    4308    4485    4490    4307    4308    4311    4310
    4307    4308    4311    4312    4308    4311    4312    4489
    4308    4311    4312    4315    4308    4485    4486    4481
    4308    4485    4486    4487    4308    4485    4490    4489
    4308    4485    4490    4491    4309    4132    4135    4134
    4309    4132    4135    4136    4309    4310    4311    4308
    4309    4310    4311    4312    4309    4314    4315    4312
    4309    4314    4315    4316    4310    4305    4306    4301
    4310    4305    4306    4307    4310    4309    4314    4313
    4310    4309    4314    4315    4310    4311    4312    4489
    4310    4311    4312    4315    4311    4308    4485    4486
    4311    4308    4485    4490    4311    4312    4489    4494
    4311    4312    4489    4490    4311    4312    4315    4314
    4311    4312    4315    4316    4312    4315    4316    4493
    4312    4315    4316    4319    4312    4489    4494    4493
    4312    4489    4494    4495    4312    4489    4490    4485
    4312    4489    4490    4491    4313    4136    4139    4138
    4313    4136    4139    4140    4313    4314    4315    4312
    4313    4314    4315    4316    4313    4318    4319    4316
    4313    4318    4319    4320    4314    4309    4310    4305
    4314    4309    4310    4311    4314    4313    4318    4317
    4314    4313    4318    4319    4314    4315    4316    4493
    4314    4315    4316    4319    4315    4312    4489    4494
    4315    4312    4489    4490    4315    4316    4493    4498
    4315    4316    4493    4494    4315    4316    4319    4318
    4315    4316    4319    4320    4316    4319    4320    4497
    4316    4493    4498    4497    4316    4493    4498    4499
    4316    4493    4494    4489    4316    4493    4494    4495
    4317    4318    4319    4316    4317    4318    4319    4320
    4318    4313    4314    4309    4318    4313    4314    4315
    4318    4319    4320    4497    4319    4316    4493    4498
    4319    4316    4493    4494    4319    4320    4497    4498
    4320    4497    4498    4493    4320    4497    4498    4499
    4321    4144    4147    4146    4321    4144    4147    4148
    4321    4322    4323    4324    4321    4326    4327    4324
    4321    4326    4327    4328    4322    4321    4326    4325
    4322    4321    4326    4327    4322    4323    4324    4327
    4322    4323    4324    4501    4323    4324    4327    4326
    4323    4324    4327    4328    4323    4324    4501    4502
    4323    4324    4501    4506    4324    4327    4328    4331
    4324    4327    4328    4505    4324    4501    4502    4503
    4324    4501    4506    4505    4324    4501    4506    4507
    4325    4148    4151    4150    4325    4148    4151    4152
    4325    4326    4327    4324    4325    4326    4327    4328
    4325    4330    4331    4328    4325    4330    4331    4332
    4326    4321    4322    4323    4326    4325    4330    4329
    4326    4325    4330    4331    4326    4327    4328    4331
    4326    4327    4328    4505    4327    4324    4501    4502
    4327    4324    4501    4506    4327    4328    4331    4330
    4327    4328    4331    4332    4327    4328    4505    4506
    4327    4328    4505    4510    4328    4331    4332    4335
    4328    4331    4332    4509    4328    4505    4506    4501
    4328    4505    4506    4507    4328    4505    4510    4509
    4328    4505    4510    4511    4329    4152    4155    4154
    4329    4152    4155    4156    4329    4330    4331    4328
    4329    4330    4331    4332    4329    4334    4335    4332
    4329    4334    4335    4336    4330    4325    4326    4321
    4330    4325    4326    4327    4330    4329    4334    4333
    4330    4329    4334    4335    4330    4331    4332    4335
    4330    4331    4332    4509    4331    4328    4505    4506
    4331    4328    4505    4510    4331    4332    4335    4334
    4331    4332    4335    4336    4331    4332    4509    4514
    4331    4332    4509    4510    4332    4335    4336    4339
    4332    4335    4336    4513    4332    4509    4514    4513
    4332    4509    4514    4515    4332    4509    4510    4505
    4332    4509    4510    4511    4333    4156    4159    4158
    4333    4156    4159    4160    4333    4334    4335    4332
    4333    4334    4335    4336    4333    4338    4339    4336
    4333    4338    4339    4340    4334    4329    4330    4325
    4334    4329    4330    4331    4334    4333    4338    4337
    4334    4333    4338    4339    4334    4335    4336    4339
    4334    4335    4336    4513    4335    4332    4509    4514
    4335    4332    4509    4510    4335    4336    4339    4338
    4335    4336    4339    4340    4335    4336    4513    4518
    4335    4336    4513    4514    4336    4339    4340    4343
    4336    4339    4340    4517    4336    4513    4518    4517
    4336    4513    4518    4519    4336    4513    4514    4509
    4336    4513    4514    4515    4337    4160    4163    4162
    4337    4160    4163    4164    4337    4338    4339    4336
    4337    4338    4339    4340    4337    4342    4343    4340
    4337    4342    4343    4344    4338    4333    4334    4329
    4338    4333    4334    4335    4338    4337    4342    4341
    4338    4337    4342    4343    4338    4339    4340    4343
    4338    4339    4340    4517    4339    4336    4513    4518
    4339    4336    4513    4514    4339    4340    4343    4342
    4339    4340    4343    4344    4339    4340    4517    4522
    4339    4340    4517    4518    4340    4343    4344    4347
    4340    4343    4344    4521    4340    4517    4522    4521
    4340    4517    4522    4523    4340    4517    4518    4513
    4340    4517    4518    4519    4341    4164    4167    4166
    4341    4164    4167    4168    4341    4342    4343    4340
    4341    4342    4343    4344    4341    4346    4347    4344
    4341    4346    4347    4348    4342    4337    4338    4333
    4342    4337    4338    4339    4342    4341    4346    4345
    4342    4341    4346    4347    4342    4343    4344    4347
    4342    4343    4344    4521    4343    4340    4517    4522
    4343    4340    4517    4518    4343    4344    4347    4346
    4343    4344    4347    4348    4343    4344    4521    4522
    4343    4344    4521    4526    4344    4347    4348    4351
    4344    4347    4348    4525    4344    4521    4522    4517
    4344    4521    4522    4523    4344    4521    4526    4525
    4344    4521    4526    4527    4345    4168    4171    4170
    4345    4168    4171    4172    4345    4346    4347    4344
    4345    4346    4347    4348    4345    4350    4351    4348
    4345    4350    4351    4352    4346    4341    4342    4337
    4346    4341    4342    4343    4346    4345    4350    4349
    4346    4345    4350    4351    4346    4347    4348    4351
    4346    4347    4348    4525    4347    4344    4521    4522
    4347    4344    4521    4526    4347    4348    4351    4350
    4347    4348    4351    4352    4347    4348    4525    4526
    4347    4348    4525    4530    4348    4351    4352    4355
    4348    4351    4352    4529    4348    4525    4526    4521
    4348    4525    4526    4527    4348    4525    4530    4529
    4348    4525    4530    4531    4349    4172    4175    4174
    4349    4172    4175    4176    4349    4350    4351    4348
    4349    4350    4351    4352    4349    4354    4355    4352
    4349    4354    4355    4356    4350    4345    4346    4341
    4350    4345    4346    4347    4350    4349    4354    4353
    4350    4349    4354    4355    4350    4351    4352    4355
    4350    4351    4352    4529    4351    4348    4525    4526
    4351    4348    4525    4530    4351    4352    4355    4354
    4351    4352    4355    4356    4351    4352    4529    4534
    4351    4352    4529    4530    4352    4355    4356    4359
    4352    4355    4356    4533    4352    4529    4534    4533
    4352    4529    4534    4535    4352    4529    4530    4525
    4352    4529    4530    4531    4353    4176    4179    4178
    4353    4176    4179    4180    4353    4354    4355    4352
    4353    4354    4355    4356    4353    4358    4359    4356
    4353    4358    4359    4360    4354    4349    4350    4345
    4354    4349    4350    4351    4354    4353    4358    4357
    4354    4353    4358    4359    4354    4355    4356    4359
    4354    4355    4356    4533    4355    4352    4529    4534
    4355    4352    4529    4530    4355    4356    4359    4358
    4355    4356    4359    4360    4355    4356    4533    4538
    4355    4356    4533    4534    4356    4359    4360    4363
    4356    4359    4360    4537    4356    4533    4538    4537
    4356    4533    4538    4539    4356    4533    4534    4529
    4356    4533    4534    4535    4357    4180    4183    4182
    4357    4180    4183    4184    4357    4358    4359    4356
    4357    4358    4359    4360    4357    4362    4363    4360
    4357    4362    4363    4364    4358    4353    4354    4349
    4358    4353    4354    4355    4358    4357    4362    4361
    4358    4357    4362    4363    4358    4359    4360    4363
    4358    4359    4360    4537    4359    4356    4533    4538
    4359    4356    4533    4534    4359    4360    4363    4362
    4359    4360    4363    4364    4359    4360    4537    4542
    4359    4360    4537    4538    4360    4363    4364    4367
    4360    4363    4364    4541    4360    4537    4542    4541
    4360    4537    4542    4543    4360    4537    4538    4533
    4360    4537    4538    4539    4361    4184    4187    4186
    4361    4184    4187    4188    4361    4362    4363    4360
    4361    4362    4363    4364    4361    4366    4367    4364
    4361    4366    4367    4368    4362    4357    4358    4353
    4362    4357    4358    4359    4362    4361    4366    4365
    4362    4361    4366    4367    4362    4363    4364    4367
    4362    4363    4364    4541    4363    4360    4537    4542
    4363    4360    4537    4538    4363    4364    4367    4366
    4363    4364    4367    4368    4363    4364    4541    4542
    4363    4364    4541    4546    4364    4367    4368    4371
    4364    4367    4368    4545    4364    4541    4542    4537
    4364    4541    4542    4543    4364    4541    4546    4545
    4364    4541    4546    4547    4365    4188    4191    4190
    4365    4188    4191    4192    4365    4366    4367    4364
    4365    4366    4367    4368    4365    4370    4371    4368
    4365    4370    4371    4372    4366    4361    4362    4357
    4366    4361    4362    4363    4366    4365    4370    4369
    4366    4365    4370    4371    4366    4367    4368    4371
    4366    4367    4368    4545    4367    4364    4541    4542
    4367    4364    4541    4546    4367    4368    4371    4370
    4367    4368    4371    4372    4367    4368    4545    4546
    4367    4368    4545    4550    4368    4371    4372    4375
    4368    4371    4372    4549    4368    4545    4546    4541
    4368    4545    4546    4547    4368    4545    4550    4549
    4368    4545    4550    4551    4369    4192    4195    4194
    4369    4192    4195    4196    4369    4370    4371    4368
    4369    4370    4371    4372    4369    4374    4375    4372
    4369    4374    4375    4376    4370    4365    4366    4361
    4370    4365    4366    4367    4370    4369    4374    4373
    4370    4369    4374    4375    4370    4371    4372    4375
    4370    4371    4372    4549    4371    4368    4545    4546
    4371    4368    4545    4550    4371    4372    4375    4374
    4371    4372    4375    4376    4371    4372    4549    4554
    4371    4372    4549    4550    4372    4375    4376    4379
    4372    4375    4376    4553    4372    4549    4554    4553
    4372    4549    4554    4555    4372    4549    4550    4545
    4372    4549    4550    4551    4373    4196    4199    4198
    4373    4196    4199    4200    4373    4374    4375    4372
    4373    4374    4375    4376    4373    4378    4379    4376
    4373    4378    4379    4380    4374    4369    4370    4365
    4374    4369    4370    4371    4374    4373    4378    4377
    4374    4373    4378    4379    4374    4375    4376    4379
    4374    4375    4376    4553    4375    4372    4549    4554
    4375    4372    4549    4550    4375    4376    4379    4378
    4375    4376    4379    4380    4375    4376    4553    4558
    4375    4376    4553    4554    4376    4379    4380    4383
    4376    4379    4380    4557    4376    4553    4558    4557
    4376    4553    4558    4559    4376    4553    4554    4549
    4376    4553    4554    4555    4377    4200    4203    4202
    4377    4200    4203    4204    4377    4378    4379    4376
    4377    4378    4379    4380    4377    4382    4383    4380
    4377    4382    4383    4384    4378    4373    4374    4369
    4378    4373    4374    4375    4378    4377    4382    4381
    4378    4377    4382    4383    4378    4379    4380    4383
    4378    4379    4380    4557    4379    4376    4553    4558
    4379    4376    4553    4554    4379    4380    4383    4382
    4379    4380    4383    4384    4379    4380    4557    4562
    4379    4380    4557    4558    4380    4383    4384    4387
    4380    4383    4384    4561    4380    4557    4562    4561
    4380    4557    4562    4563    4380    4557    4558    4553
    4380    4557    4558    4559    4381    4204    4207    4206
    4381    4204    4207    4208    4381    4382    4383    4380
    4381    4382    4383    4384    4381    4386    4387    4384
    4381    4386    4387    4388    4382    4377    4378    4373
    4382    4377    4378    4379    4382    4381    4386    4385
    4382    4381    4386    4387    4382    4383    4384    4387
    4382    4383    4384    4561    4383    4380    4557    4562
    4383    4380    4557    4558    4383    4384    4387    4386
    4383    4384    4387    4388    4383    4384    4561    4562
    4383    4384    4561    4566    4384    4387    4388    4391
    4384    4387    4388    4565    4384    4561    4562    4557
    4384    4561    4562    4563    4384    4561    4566    4565
    4384    4561    4566    4567    4385    4208    4211    4210
    4385    4208    4211    4212    4385    4386    4387    4384
    4385    4386    4387    4388    4385    4390    4391    4388
    4385    4390    4391    4392    4386    4381    4382    4377
    4386    4381    4382    4383    4386    4385    4390    4389
    4386    4385    4390    4391    4386    4387    4388    4391
    4386    4387    4388    4565    4387    4384    4561    4562
    4387    4384    4561    4566    4387    4388    4391    4390
    4387    4388    4391    4392    4387    4388    4565    4566
    4387    4388    4565    4570    4388    4391    4392    4395
    4388    4391    4392    4569    4388    4565    4566    4561
    4388    4565    4566    4567    4388    4565    4570    4569
    4388    4565    4570    4571    4389    4212    4215    4214
    4389    4212    4215    4216    4389    4390    4391    4388
    4389    4390    4391    4392    4389    4394    4395    4392
    4389    4394    4395    4396    4390    4385    4386    4381
    4390    4385    4386    4387    4390    4389    4394    4393
    4390    4389    4394    4395    4390    4391    4392    4395
    4390    4391    4392    4569    4391    4388    4565    4566
    4391    4388    4565    4570    4391    4392    4395    4394
    4391    4392    4395    4396    4391    4392    4569    4574
    4391    4392    4569    4570    4392    4395    4396    4399
    4392    4395    4396    4573    4392    4569    4574    4573
    4392    4569    4574    4575    4392    4569    4570    4565
    4392    4569    4570    4571    4393    4216    4219    4218
    4393    4216    4219    4220    4393    4394    4395    4392
    4393    4394    4395    4396    4393    4398    4399    4396
    4393    4398    4399    4400    4394    4389    4390    4385
    4394    4389    4390    4391    4394    4393    4398    4397
    4394    4393    4398    4399    4394    4395    4396    4399
    4394    4395    4396    4573    4395    4392    4569    4574
    4395    4392    4569    4570    4395    4396    4399    4398
    4395    4396    4399    4400    4395    4396    4573    4578
    4395    4396    4573    4574    4396    4399    4400    4403
    4396    4399    4400    4577    4396    4573    4578    4577
    4396    4573    4578    4579    4396    4573    4574    4569
    4396    4573    4574    4575    4397    4220    4223    4222
    4397    4220    4223    4224    4397    4398    4399    4396
    4397    4398    4399    4400    4397    4402    4403    4400
    4397    4402    4403    4404    4398    4393    4394    4389
    4398    4393    4394    4395    4398    4397    4402    4401
    4398    4397    4402    4403    4398    4399    4400    4403
    4398    4399    4400    4577    4399    4396    4573    4578
    4399    4396    4573    4574    4399    4400    4403    4402
    4399    4400    4403    4404    4399    4400    4577    4582
    4399    4400    4577    4578    4400    4403    4404    4407
    4400    4403    4404    4581    4400    4577    4582    4581
    4400    4577    4582    4583    4400    4577    4578    4573
    4400    4577    4578    4579    4401    4224    4227    4226
    4401    4224    4227    4228    4401    4402    4403    4400
    4401    4402    4403    4404    4401    4406    4407    4404
    4401    4406    4407    4408    4402    4397    4398    4393
    4402    4397    4398    4399    4402    4401    4406    4405
    4402    4401    4406    4407    4402    4403    4404    4407
    4402    4403    4404    4581    4403    4400    4577    4582
    4403    4400    4577    4578    4403    4404    4407    4406
    4403    4404    4407    4408    4403    4404    4581    4582
    4403    4404    4581    4586    4404    4407    4408    4411
    4404    4407    4408    4585    4404    4581    4582    4577
    4404    4581    4582    4583    4404    4581    4586    4585
    4404    4581    4586    4587    4405    4228    4231    4230
    4405    4228    4231    4232    4405    4406    4407    4404
    4405    4406    4407    4408    4405    4410    4411    4408
    4405    4410    4411    4412    4406    4401    4402    4397
    4406    4401    4402    4403    4406    4405    4410    4409
    4406    4405    4410    4411    4406    4407    4408    4411
    4406    4407    4408    4585    4407    4404    4581    4582
    4407    4404    4581    4586    4407    4408    4411    4410
    4407    4408    4411    4412    4407    4408    4585    4586
    4407    4408    4585    4590    4408    4411    4412    4415
    4408    4411    4412    4589    4408    4585    4586    4581
    4408    4585    4586    4587    4408    4585    4590    4589
    4408    4585    4590    4591    4409    4232    4235    4234
    4409    4232    4235    4236    4409    4410    4411    4408
    4409    4410    4411    4412    4409    4414    4415    4412
    4409    4414    4415    4416    4410    4405    4406    4401
    4410    4405    4406    4407    4410    4409    4414    4413
    4410    4409    4414    4415    4410    4411    4412    4415
    4410    4411    4412    4589    4411    4408    4585    4586
    4411    4408    4585    4590    4411    4412    4415    4414
    4411    4412    4415    4416    4411    4412    4589    4594
    4411    4412    4589    4590    4412    4415    4416    4419
    4412    4415    4416    4593    4412    4589    4594    4593
    4412    4589    4594    4595    4412    4589    4590    4585
    4412    4589    4590    4591    4413    4236    4239    4238
    4413    4236    4239    4240    4413    4414    4415    4412
    4413    4414    4415    4416    4413    4418    4419    4416
    4413    4418    4419    4420    4414    4409    4410    4405
    4414    4409    4410    4411    4414    4413    4418    4417
    4414    4413    4418    4419    4414    4415    4416    4419
    4414    4415    4416    4593    4415    4412    4589    4594
    4415    4412    4589    4590    4415    4416    4419    4418
    4415    4416    4419    4420    4415    4416    4593    4598
    4415    4416    4593    4594    4416    4419    4420    4423
    4416    4419    4420    4597    4416    4593    4598    4597
    4416    4593    4598    4599    4416    4593    4594    4589
    4416    4593    4594    4595    4417    4240    4243    4242
    4417    4240    4243    4244    4417    4418    4419    4416
    4417    4418    4419    4420    4417    4422    4423    4420
    4417    4422    4423    4424    4418    4413    4414    4409
    4418    4413    4414    4415    4418    4417    4422    4421
    4418    4417    4422    4423    4418    4419    4420    4423
    4418    4419    4420    4597    4419    4416    4593    4598
    4419    4416    4593    4594    4419    4420    4423    4422
    4419    4420    4423    4424    4419    4420    4597    4602
    4419    4420    4597    4598    4420    4423    4424    4427
    4420    4423    4424    4601    4420    4597    4602    4601
    4420    4597    4602    4603    4420    4597    4598    4593
    4420    4597    4598    4599    4421    4244    4247    4246
    4421    4244    4247    4248    4421    4422    4423    4420
    4421    4422    4423    4424    4421    4426    4427    4424
    4421    4426    4427    4428    4422    4417    4418    4413
    4422    4417    4418    4419    4422    4421    4426    4425
    4422    4421    4426    4427    4422    4423    4424    4427
    4422    4423    4424    4601    4423    4420    4597    4602
    4423    4420    4597    4598    4423    4424    4427    4426
    4423    4424    4427    4428    4423    4424    4601    4602
    4423    4424    4601    4606    4424    4427    4428    4431
    4424    4427    4428    4605    4424    4601    4602    4597
    4424    4601    4602    4603    4424    4601    4606    4605
    4424    4601    4606    4607    4425    4248    4251    4250
    4425    4248    4251    4252    4425    4426    4427    4424
    4425    4426    4427    4428    4425    4430    4431    4428
    4425    4430    4431    4432    4426    4421    4422    4417
    4426    4421    4422    4423    4426    4425    4430    4429
    4426    4425    4430    4431    4426    4427    4428    4431
    4426    4427    4428    4605    4427    4424    4601    4602
    4427    4424    4601    4606    4427    4428    4431    4430
    4427    4428    4431    4432    4427    4428    4605    4606
    4427    4428    4605    4610    4428    4431    4432    4435
    4428    4431    4432    4609    4428    4605    4606    4601
    4428    4605    4606    4607    4428    4605    4610    4609
    4428    4605    4610    4611    4429    4252    4255    4254
    4429    4252    4255    4256    4429    4430    4431    4428
    4429    4430    4431    4432    4429    4434    4435    4432
    4429    4434    4435    4436    4430    4425    4426    4421
    4430    4425    4426    4427    4430    4429    4434    4433
    4430    4429    4434    4435    4430    4431    4432    4435
    4430    4431    4432    4609    4431    4428    4605    4606
    4431    4428    4605    4610    4431    4432    4435    4434
    4431    4432    4435    4436    4431    4432    4609    4614
    4431    4432    4609    4610    4432    4435    4436    4439
    4432    4435    4436    4613    4432    4609    4614    4613
    4432    4609    4614    4615    4432    4609    4610    4605
    4432    4609    4610    4611    4433    4256    4259    4258
    4433    4256    4259    4260    4433    4434    4435    4432
    4433    4434    4435    4436    4433    4438    4439    4436
    4433    4438    4439    4440    4434    4429    4430    4425
    4434    4429    4430    4431    4434    4433    4438    4437
    4434    4433    4438    4439    4434    4435    4436    4439
    4434    4435    4436    4613    4435    4432    4609    4614
    4435    4432    4609    4610    4435    4436    4439    4438
    4435    4436    4439    4440    4435    4436    4613    4618
    4435    4436    4613    4614    4436    4439    4440    4443
    4436    4439    4440    4617    4436    4613    4618    4617
    4436    4613    4618    4619    4436    4613    4614    4609
    4436    4613    4614    4615    4437    4260    4263    4262
    4437    4260    4263    4264    4437    4438    4439    4436
    4437    4438    4439    4440    4437    4442    4443    4440
    4437    4442    4443    4444    4438    4433    4434    4429
    4438    4433    4434    4435    4438    4437    4442    4441
    4438    4437    4442    4443    4438    4439    4440    4443
    4438    4439    4440    4617    4439    4436    4613    4618
    4439    4436    4613    4614    4439    4440    4443    4442
    4439    4440    4443    4444    4439    4440    4617    4622
    4439    4440    4617    4618    4440    4443    4444    4447
    4440    4443    4444    4621    4440    4617    4622    4621
    4440    4617    4622    4623    4440    4617    4618    4613
    4440    4617    4618    4619    4441    4264    4267    4266
    4441    4264    4267    4268    4441    4442    4443    4440
    4441    4442    4443    4444    4441    4446    4447    4444
    4441    4446    4447    4448    4442    4437    4438    4433
    4442    4437    4438    4439    4442    4441    4446    4445
    4442    4441    4446    4447    4442    4443    4444    4447
    4442    4443    4444    4621    4443    4440    4617    4622
    4443    4440    4617    4618    4443    4444    4447    4446
    4443    4444    4447    4448    4443    4444    4621    4622
    4443    4444    4621    4626    4444    4447    4448    4451
    4444    4447    4448    4625    4444    4621    4622    4617
    4444    4621    4622    4623    4444    4621    4626    4625
    4444    4621    4626    4627    4445    4268    4271    4270
    4445    4268    4271    4272    4445    4446    4447    4444
    4445    4446    4447    4448    4445    4450    4451    4448
    4445    4450    4451    4452    4446    4441    4442    4437
    4446    4441    4442    4443    4446    4445    4450    4449
    4446    4445    4450    4451    4446    4447    4448    4451
    4446    4447    4448    4625    4447    4444    4621    4622
    4447    4444    4621    4626    4447    4448    4451    4450
    4447    4448    4451    4452    4447    4448    4625    4626
    4447    4448    4625    4630    4448    4451    4452    4455
    4448    4451    4452    4629    4448    4625    4626    4621
    4448    4625    4626    4627    4448    4625    4630    4629
    4448    4625    4630    4631    4449    4272    4275    4274
    4449    4272    4275    4276    4449    4450    4451    4448
    4449    4450    4451    4452    4449    4454    4455    4452
    4449    4454    4455    4456    4450    4445    4446    4441
    4450    4445    4446    4447    4450    4449    4454    4453
    4450    4449    4454    4455    4450    4451    4452    4455
    4450    4451    4452    4629    4451    4448    4625    4626
    4451    4448    4625    4630    4451    4452    4455    4454
    4451    4452    4455    4456    4451    4452    4629    4634
    4451    4452    4629    4630    4452    4455    4456    4459
    4452    4455    4456    4633    4452    4629    4634    4633
    4452    4629    4634    4635    4452    4629    4630    4625
    4452    4629    4630    4631    4453    4276    4279    4278
    4453    4276    4279    4280    4453    4454    4455    4452
    4453    4454    4455    4456    4453    4458    4459    4456
    4453    4458    4459    4460    4454    4449    4450    4445
    4454    4449    4450    4451    4454    4453    4458    4457
    4454    4453    4458    4459    4454    4455    4456    4459
    4454    4455    4456    4633    4455    4452    4629    4634
    4455    4452    4629    4630    4455    4456    4459    4458
    4455    4456    4459    4460    4455    4456    4633    4638
    4455    4456    4633    4634    4456    4459    4460    4463
    4456    4459    4460    4637    4456    4633    4638    4637
    4456    4633    4638    4639    4456    4633    4634    4629
    4456    4633    4634    4635    4457    4280    4283    4282
    4457    4280    4283    4284    4457    4458    4459    4456
    4457    4458    4459    4460    4457    4462    4463    4460
    4457    4462    4463    4464    4458    4453    4454    4449
    4458    4453    4454    4455    4458    4457    4462    4461
    4458    4457    4462    4463    4458    4459    4460    4463
    4458    4459    4460    4637    4459    4456    4633    4638
    4459    4456    4633    4634    4459    4460    4463    4462
    4459    4460    4463    4464    4459    4460    4637    4642
    4459    4460    4637    4638    4460    4463    4464    4467
    4460    4463    4464    4641    4460    4637    4642    4641
    4460    4637    4642    4643    4460    4637    4638    4633
    4460    4637    4638    4639    4461    4284    4287    4286
    4461    4284    4287    4288    4461    4462    4463    4460
    4461    4462    4463    4464    4461    4466    4467    4464
    4461    4466    4467    4468    4462    4457    4458    4453
    4462    4457    4458    4459    4462    4461    4466    4465
    4462    4461    4466    4467    4462    4463    4464    4467
    4462    4463    4464    4641    4463    4460    4637    4642
    4463    4460    4637    4638    4463    4464    4467    4466
    4463    4464    4467    4468    4463    4464    4641    4642
    4463    4464    4641    4646    4464    4467    4468    4471
    4464    4467    4468    4645    4464    4641    4642    4637
    4464    4641    4642    4643    4464    4641    4646    4645
    4464    4641    4646    4647    4465    4288    4291    4290
    4465    4288    4291    4292    4465    4466    4467    4464
    4465    4466    4467    4468    4465    4470    4471    4468
    4465    4470    4471    4472    4466    4461    4462    4457
    4466    4461    4462    4463    4466    4465    4470    4469
    4466    4465    4470    4471    4466    4467    4468    4471
    4466    4467    4468    4645    4467    4464    4641    4642
    4467    4464    4641    4646    4467    4468    4471    4470
    4467    4468    4471    4472    4467    4468    4645    4646
    4467    4468    4645    4650    4468    4471    4472    4475
    4468    4471    4472    4649    4468    4645    4646    4641
    4468    4645    4646    4647    4468    4645    4650    4649
    4468    4645    4650    4651    4469    4292    4295    4294
    4469    4292    4295    4296    4469    4470    4471    4468
    4469    4470    4471    4472    4469    4474    4475    4472
    4469    4474    4475    4476    4470    4465    4466    4461
    4470    4465    4466    4467    4470    4469    4474    4473
    4470    4469    4474    4475    4470    4471    4472    4475
    4470    4471    4472    4649    4471    4468    4645    4646
    4471    4468    4645    4650    4471    4472    4475    4474
    4471    4472    4475    4476    4471    4472    4649    4654
    4471    4472    4649    4650    4472    4475    4476    4479
    4472    4475    4476    4653    4472    4649    4654    4653
    4472    4649    4654    4655    4472    4649    4650    4645
    4472    4649    4650    4651    4473    4296    4299    4298
    4473    4296    4299    4300    4473    4474    4475    4472
    4473    4474    4475    4476    4473    4478    4479    4476
    4473    4478    4479    4480    4474    4469    4470    4465
    4474    4469    4470    4471    4474    4473    4478    4477
    4474    4473    4478    4479    4474    4475    4476    4479
    4474    4475    4476    4653    4475    4472    4649    4654
    4475    4472    4649    4650    4475    4476    4479    4478
    4475    4476    4479    4480    4475    4476    4653    4658
    4475    4476    4653    4654    4476    4479    4480    4483
    4476    4479    4480    4657    4476    4653    4658    4657
    4476    4653    4658    4659    4476    4653    4654    4649
    4476    4653    4654    4655    4477    4300    4303    4302
    4477    4300    4303    4304    4477    4478    4479    4476
    4477    4478    4479    4480    4477    4482    4483    4480
    4477    4482    4483    4484    4478    4473    4474    4469
    4478    4473    4474    4475    4478    4477    4482    4481
    4478    4477    4482    4483    4478    4479    4480    4483
    4478    4479    4480    4657    4479    4476    4653    4658
    4479    4476    4653    4654    4479    4480    4483    4482
    4479    4480    4483    4484    4479    4480    4657    4662
    4479    4480    4657    4658    4480    4483    4484    4487
    4480    4483    4484    4661    4480    4657    4662    4661
    4480    4657    4662    4663    4480    4657    4658    4653
    4480    4657    4658    4659    4481    4304    4307    4306
    4481    4304    4307    4308    4481    4482    4483    4480
    4481    4482    4483    4484    4481    4486    4487    4484
    4481    4486    4487    4488    4482    4477    4478    4473
    4482    4477    4478    4479    4482    4481    4486    4485
    4482    4481    4486    4487    4482    4483    4484    4487
    4482    4483    4484    4661    4483    4480    4657    4662
    4483    4480    4657    4658    4483    4484    4487    4486
    4483    4484    4487    4488    4483    4484    4661    4662
    4483    4484    4661    4666    4484    4487    4488    4491
    4484    4487    4488    4665    4484    4661    4662    4657
    4484    4661    4662    4663    4484    4661    4666    4665
    4484    4661    4666    4667    4485    4308    4311    4310
    4485    4308    4311    4312    4485    4486    4487    4484
    4485    4486    4487    4488    4485    4490    4491    4488
    4485    4490    4491    4492    4486    4481    4482    4477
    4486    4481    4482    4483    4486    4485    4490    4489
    4486    4485    4490    4491    4486    4487    4488    4491
    4486    4487    4488    4665    4487    4484    4661    4662
    4487    4484    4661    4666    4487    4488    4491    4490
    4487    4488    4491    4492    4487    4488    4665    4666
    4487    4488    4665    4670    4488    4491    4492    4495
    4488    4491    4492    4669    4488    4665    4666    4661
    4488    4665    4666    4667    4488    4665    4670    4669
    4488    4665    4670    4671    4489    4312    4315    4314
    4489    4312    4315    4316    4489    4490    4491    4488
    4489    4490    4491    4492    4489    4494    4495    4492
    4489    4494    4495    4496    4490    4485    4486    4481
    4490    4485    4486    4487    4490    4489    4494    4493
    4490    4489    4494    4495    4490    4491    4492    4495
    4490    4491    4492    4669    4491    4488    4665    4666
    4491    4488    4665    4670    4491    4492    4495    4494
    4491    4492    4495    4496    4491    4492    4669    4674
    4491    4492    4669    4670    4492    4495    4496    4499
    4492    4495    4496    4673    4492    4669    4674    4673
    4492    4669    4674    4675    4492    4669    4670    4665
    4492    4669    4670    4671    4493    4316    4319    4318
    4493    4316    4319    4320    4493    4494    4495    4492
    4493    4494    4495    4496    4493    4498    4499    4496
    4493    4498    4499    4500    4494    4489    4490    4485
    4494    4489    4490    4491    4494    4493    4498    4497
    4494    4493    4498    4499    4494    4495    4496    4499
    4494    4495    4496    4673    4495    4492    4669    4674
    4495    4492    4669    4670    4495    4496    4499    4498
    4495    4496    4499    4500    4495    4496    4673    4674
    4495    4496    4673    4678    4496    4499    4500    4677
    4496    4673    4674    4669    4496    4673    4674    4675
    4496    4673    4678    4677    4496    4673    4678    4679
    4497    4498    4499    4496    4497    4498    4499    4500
    4498    4493    4494    4489    4498    4493    4494    4495
    4498    4499    4500    4677    4499    4496    4673    4674
    4499    4496    4673    4678    4499    4500    4677    4678
    4500    4677    4678    4673    4500    4677    4678    4679
    4501    4324    4327    4326    4501    4324    4327    4328
    4501    4502    4503    4504    4501    4506    4507    4504
    4501    4506    4507    4508    4502    4501    4506    4505
    4502    4501    4506    4507    4502    4503    4504    4507
    4503    4504    4507    4506    4503    4504    4507    4508
    4504    4507    4508    4511    4505    4328    4331    4330
    4505    4328    4331    4332    4505    4506    4507    4504
    4505    4506    4507    4508    4505    4510    4511    4508
    4505    4510    4511    4512    4506    4501    4502    4503
    4506    4505    4510    4509    4506    4505    4510    4511
    4506    4507    4508    4511    4507    4508    4511    4510
    4507    4508    4511    4512    4508    4511    4512    4515
    4509    4332    4335    4334    4509    4332    4335    4336
    4509    4510    4511    4508    4509    4510    4511    4512
    4509    4514    4515    4512    4509    4514    4515    4516
    4510    4505    4506    4501    4510    4505    4506    4507
    4510    4509    4514    4513    4510    4509    4514    4515
    4510    4511    4512    4515    4511    4512    4515    4514
    4511    4512    4515    4516    4512    4515    4516    4519
    4513    4336    4339    4338    4513    4336    4339    4340
    4513    4514    4515    4512    4513    4514    4515    4516
    4513    4518    4519    4516    4513    4518    4519    4520
    4514    4509    4510    4505    4514    4509    4510    4511
    4514    4513    4518    4517    4514    4513    4518    4519
    4514    4515    4516    4519    4515    4516    4519    4518
    4515    4516    4519    4520    4516    4519    4520    4523
    4517    4340    4343    4342    4517    4340    4343    4344
    4517    4518    4519    4516    4517    4518    4519    4520
    4517    4522    4523    4520    4517    4522    4523    4524
    4518    4513    4514    4509    4518    4513    4514    4515
    4518    4517    4522    4521    4518    4517    4522    4523
    4518    4519    4520    4523    4519    4520    4523    4522
    4519    4520    4523    4524    4520    4523    4524    4527
    4521    4344    4347    4346    4521    4344    4347    4348
    4521    4522    4523    4520    4521    4522    4523    4524
    4521    4526    4527    4524    4521    4526    4527    4528
    4522    4517    4518    4513    4522    4517    4518    4519
    4522    4521    4526    4525    4522    4521    4526    4527
    4522    4523    4524    4527    4523    4524    4527    4526
    4523    4524    4527    4528    4524    4527    4528    4531
    4525    4348    4351    4350    4525    4348    4351    4352
    4525    4526    4527    4524    4525    4526    4527    4528
    4525    4530    4531    4528    4525    4530    4531    4532
    4526    4521    4522    4517    4526    4521    4522    4523
    4526    4525    4530    4529    4526    4525    4530    4531
    4526    4527    4528    4531    4527    4528    4531    4530
    4527    4528    4531    4532    4528    4531    4532    4535
    4529    4352    4355    4354    4529    4352    4355    4356
    4529    4530    4531    4528    4529    4530    4531    4532
    4529    4534    4535    4532    4529    4534    4535    4536
    4530    4525    4526    4521    4530    4525    4526    4527
    4530    4529    4534    4533    4530    4529    4534    4535
    4530    4531    4532    4535    4531    4532    4535    4534
    4531    4532    4535    4536    4532    4535    4536    4539
    4533    4356    4359    4358    4533    4356    4359    4360
    4533    4534    4535    4532    4533    4534    4535    4536
    4533    4538    4539    4536    4533    4538    4539    4540
    4534    4529    4530    4525    4534    4529    4530    4531
    4534    4533    4538    4537    4534    4533    4538    4539
    4534    4535    4536    4539    4535    4536    4539    4538
    4535    4536    4539    4540    4536    4539    4540    4543
    4537    4360    4363    4362    4537    4360    4363    4364
    4537    4538    4539    4536    4537    4538    4539    4540
    4537    4542    4543    4540    4537    4542    4543    4544
    4538    4533    4534    4529    4538    4533    4534    4535
    4538    4537    4542    4541    4538    4537    4542    4543
    4538    4539    4540    4543    4539    4540    4543    4542
    4539    4540    4543    4544    4540    4543    4544    4547
    4541    4364    4367    4366    4541    4364    4367    4368
    4541    4542    4543    4540    4541    4542    4543    4544
    4541    4546    4547    4544    4541    4546    4547    4548
    4542    4537    4538    4533    4542    4537    4538    4539
    4542    4541    4546    4545    4542    4541    4546    4547
    4542    4543    4544    4547    4543    4544    4547    4546
    4543    4544    4547    4548    4544    4547    4548    4551
    4545    4368    4371    4370    4545    4368    4371    4372
    4545    4546    4547    4544    4545    4546    4547    4548
    4545    4550    4551    4548    4545    4550    4551    4552
    4546    4541    4542    4537    4546    4541    4542    4543
    4546    4545    4550    4549    4546    4545    4550    4551
    4546    4547    4548    4551    4547    4548    4551    4550
    4547    4548    4551    4552    4548    4551    4552    4555
    4549    4372    4375    4374    4549    4372    4375    4376
    4549    4550    4551    4548    4549    4550    4551    4552
    4549    4554    4555    4552    4549    4554    4555    4556
    4550    4545    4546    4541    4550    4545    4546    4547
    4550    4549    4554    4553    4550    4549    4554    4555
    4550    4551    4552    4555    4551    4552    4555    4554
    4551    4552    4555    4556    4552    4555    4556    4559
    4553    4376    4379    4378    4553    4376    4379    4380
    4553    4554    4555    4552    4553    4554    4555    4556
    4553    4558    4559    4556    4553    4558    4559    4560
    4554    4549    4550    4545    4554    4549    4550    4551
    4554    4553    4558    4557    4554    4553    4558    4559
    4554    4555    4556    4559    4555    4556    4559    4558
    4555    4556    4559    4560    4556    4559    4560    4563
    4557    4380    4383    4382    4557    4380    4383    4384
    4557    4558    4559    4556    4557    4558    4559    4560
    4557    4562    4563    4560    4557    4562    4563    4564
    4558    4553    4554    4549    4558    4553    4554    4555
    4558    4557    4562    4561    4558    4557    4562    4563
    4558    4559    4560    4563    4559    4560    4563    4562
    4559    4560    4563    4564    4560    4563    4564    4567
    4561    4384    4387    4386    4561    4384    4387    4388
    4561    4562    4563    4560    4561    4562    4563    4564
    4561    4566    4567    4564    4561    4566    4567    4568
    4562    4557    4558    4553    4562    4557    4558    4559
    4562    4561    4566    4565    4562    4561    4566    4567
    4562    4563    4564    4567    4563    4564    4567    4566
    4563    4564    4567    4568    4564    4567    4568    4571
    4565    4388    4391    4390    4565    4388    4391    4392
    4565    4566    4567    4564    4565    4566    4567    4568
    4565    4570    4571    4568    4565    4570    4571    4572
    4566    4561    4562    4557    4566    4561    4562    4563
    4566    4565    4570    4569    4566    4565    4570    4571
    4566    4567    4568    4571    4567    4568    4571    4570
    4567    4568    4571    4572    4568    4571    4572    4575
    4569    4392    4395    4394    4569    4392    4395    4396
    4569    4570    4571    4568    4569    4570    4571    4572
    4569    4574    4575    4572    4569    4574    4575    4576
    4570    4565    4566    4561    4570    4565    4566    4567
    4570    4569    4574    4573    4570    4569    4574    4575
    4570    4571    4572    4575    4571    4572    4575    4574
    4571    4572    4575    4576    4572    4575    4576    4579
    4573    4396    4399    4398    4573    4396    4399    4400
    4573    4574    4575    4572    4573    4574    4575    4576
    4573    4578    4579    4576    4573    4578    4579    4580
    4574    4569    4570    4565    4574    4569    4570    4571
    4574    4573    4578    4577    4574    4573    4578    4579
    4574    4575    4576    4579    4575    4576    4579    4578
    4575    4576    4579    4580    4576    4579    4580    4583
    4577    4400    4403    4402    4577    4400    4403    4404
    4577    4578    4579    4576    4577    4578    4579    4580
    4577    4582    4583    4580    4577    4582    4583    4584
    4578    4573    4574    4569    4578    4573    4574    4575
    4578    4577    4582    4581    4578    4577    4582    4583
    4578    4579    4580    4583    4579    4580    4583    4582
    4579    4580    4583    4584    4580    4583    4584    4587
    4581    4404    4407    4406    4581    4404    4407    4408
    4581    4582    4583    4580    4581    4582    4583    4584
    4581    4586    4587    4584    4581    4586    4587    4588
    4582    4577    4578    4573    4582    4577    4578    4579
    4582    4581    4586    4585    4582    4581    4586    4587
    4582    4583    4584    4587    4583    4584    4587    4586
    4583    4584    4587    4588    4584    4587    4588    4591
    4585    4408    4411    4410    4585    4408    4411    4412
    4585    4586    4587    4584    4585    4586    4587    4588
    4585    4590    4591    4588    4585    4590    4591    4592
    4586    4581    4582    4577    4586    4581    4582    4583
    4586    4585    4590    4589    4586    4585    4590    4591
    4586    4587    4588    4591    4587    4588    4591    4590
    4587    4588    4591    4592    4588    4591    4592    4595
    4589    4412    4415    4414    4589    4412    4415    4416
    4589    4590    4591    4588    4589    4590    4591    4592
    4589    4594    4595    4592    4589    4594    4595    4596
    4590    4585    4586    4581    4590    4585    4586    4587
    4590    4589    4594    4593    4590    4589    4594    4595
    4590    4591    4592    4595    4591    4592    4595    4594
    4591    4592    4595    4596    4592    4595    4596    4599
    4593    4416    4419    4418    4593    4416    4419    4420
    4593    4594    4595    4592    4593    4594    4595    4596
    4593    4598    4599    4596    4593    4598    4599    4600
    4594    4589    4590    4585    4594    4589    4590    4591
    4594    4593    4598    4597    4594    4593    4598    4599
    4594    4595    4596    4599    4595    4596    4599    4598
    4595    4596    4599    4600    4596    4599    4600    4603
    4597    4420    4423    4422    4597    4420    4423    4424
    4597    4598    4599    4596    4597    4598    4599    4600
    4597    4602    4603    4600    4597    4602    4603    4604
    4598    4593    4594    4589    4598    4593    4594    4595
    4598    4597    4602    4601    4598    4597    4602    4603
    4598    4599    4600    4603    4599    4600    4603    4602
    4599    4600    4603    4604    4600    4603    4604    4607
    4601    4424    4427    4426    4601    4424    4427    4428
    4601    4602    4603    4600    4601    4602    4603    4604
    4601    4606    4607    4604    4601    4606    4607    4608
    4602    4597    4598    4593    4602    4597    4598    4599
    4602    4601    4606    4605    4602    4601    4606    4607
    4602    4603    4604    4607    4603    4604    4607    4606
    4603    4604    4607    4608    4604    4607    4608    4611
    4605    4428    4431    4430    4605    4428    4431    4432
    4605    4606    4607    4604    4605    4606    4607    4608
    4605    4610    4611    4608    4605    4610    4611    4612
    4606    4601    4602    4597    4606    4601    4602    4603
    4606    4605    4610    4609    4606    4605    4610    4611
    4606    4607    4608    4611    4607    4608    4611    4610
    4607    4608    4611    4612    4608    4611    4612    4615
    4609    4432    4435    4434    4609    4432    4435    4436
    4609    4610    4611    4608    4609    4610    4611    4612
    4609    4614    4615    4612    4609    4614    4615    4616
    4610    4605    4606    4601    4610    4605    4606    4607
    4610    4609    4614    4613    4610    4609    4614    4615
    4610    4611    4612    4615    4611    4612    4615    4614
    4611    4612    4615    4616    4612    4615    4616    4619
    4613    4436    4439    4438    4613    4436    4439    4440
    4613    4614    4615    4612    4613    4614    4615    4616
    4613    4618    4619    4616    4613    4618    4619    4620
    4614    4609    4610    4605    4614    4609    4610    4611
    4614    4613    4618    4617    4614    4613    4618    4619
    4614    4615    4616    4619    4615    4616    4619    4618
    4615    4616    4619    4620    4616    4619    4620    4623
    4617    4440    4443    4442    4617    4440    4443    4444
    4617    4618    4619    4616    4617    4618    4619    4620
    4617    4622    4623    4620    4617    4622    4623    4624
    4618    4613    4614    4609    4618    4613    4614    4615
    4618    4617    4622    4621    4618    4617    4622    4623
    4618    4619    4620    4623    4619    4620    4623    4622
    4619    4620    4623    4624    4620    4623    4624    4627
    4621    4444    4447    4446    4621    4444    4447    4448
    4621    4622    4623    4620    4621    4622    4623    4624
    4621    4626    4627    4624    4621    4626    4627    4628
    4622    4617    4618    4613    4622    4617    4618    4619
    4622    4621    4626    4625    4622    4621    4626    4627
    4622    4623    4624    4627    4623    4624    4627    4626
    4623    4624    4627    4628    4624    4627    4628    4631
    4625    4448    4451    4450    4625    4448    4451    4452
    4625    4626    4627    4624    4625    4626    4627    4628
    4625    4630    4631    4628    4625    4630    4631    4632
    4626    4621    4622    4617    4626    4621    4622    4623
    4626    4625    4630    4629    4626    4625    4630    4631
    4626    4627    4628    4631    4627    4628    4631    4630
    4627    4628    4631    4632    4628    4631    4632    4635
    4629    4452    4455    4454    4629    4452    4455    4456
    4629    4630    4631    4628    4629    4630    4631    4632
    4629    4634    4635    4632    4629    4634    4635    4636
    4630    4625    4626    4621    4630    4625    4626    4627
    4630    4629    4634    4633    4630    4629    4634    4635
    4630    4631    4632    4635    4631    4632    4635    4634
    4631    4632    4635    4636    4632    4635    4636    4639
    4633    4456    4459    4458    4633    4456    4459    4460
    4633    4634    4635    4632    4633    4634    4635    4636
    4633    4638    4639    4636    4633    4638    4639    4640
    4634    4629    4630    4625    4634    4629    4630    4631
    4634    4633    4638    4637    4634    4633    4638    4639
    4634    4635    4636    4639    4635    4636    4639    4638
    4635    4636    4639    4640    4636    4639    4640    4643
    4637    4460    4463    4462    4637    4460    4463    4464
    4637    4638    4639    4636    4637    4638    4639    4640
    4637    4642    4643    4640    4637    4642    4643    4644
    4638    4633    4634    4629    4638    4633    4634    4635
    4638    4637    4642    4641    4638    4637    4642    4643
    4638    4639    4640    4643    4639    4640    4643    4642
    4639    4640    4643    4644    4640    4643    4644    4647
    4641    4464    4467    4466    4641    4464    4467    4468
    4641    4642    4643    4640    4641    4642    4643    4644
    4641    4646    4647    4644    4641    4646    4647    4648
    4642    4637    4638    4633    4642    4637    4638    4639
    4642    4641    4646    4645    4642    4641    4646    4647
    4642    4643    4644    4647    4643    4644    4647    4646
    4643    4644    4647    4648    4644    4647    4648    4651
    4645    4468    4471    4470    4645    4468    4471    4472
    4645    4646    4647    4644    4645    4646    4647    4648
    4645    4650    4651    4648    4645    4650    4651    4652
    4646    4641    4642    4637    4646    4641    4642    4643
    4646    4645    4650    4649    4646    4645    4650    4651
    4646    4647    4648    4651    4647    4648    4651    4650
    4647    4648    4651    4652    4648    4651    4652    4655
    4649    4472    4475    4474    4649    4472    4475    4476
    4649    4650    4651    4648    4649    4650    4651    4652
    4649    4654    4655    4652    4649    4654    4655    4656
    4650    4645    4646    4641    4650    4645    4646    4647
    4650    4649    4654    4653    4650    4649    4654    4655
    4650    4651    4652    4655    4651    4652    4655    4654
    4651    4652    4655    4656    4652    4655    4656    4659
    4653    4476    4479    4478    4653    4476    4479    4480
    4653    4654    4655    4652    4653    4654    4655    4656
    4653    4658    4659    4656    4653    4658    4659    4660
    4654    4649    4650    4645    4654    4649    4650    4651
    4654    4653    4658    4657    4654    4653    4658    4659
    4654    4655    4656    4659    4655    4656    4659    4658
    4655    4656    4659    4660    4656    4659    4660    4663
    4657    4480    4483    4482    4657    4480    4483    4484
    4657    4658    4659    4656    4657    4658    4659    4660
    4657    4662    4663    4660    4657    4662    4663    4664
    4658    4653    4654    4649    4658    4653    4654    4655
    4658    4657    4662    4661    4658    4657    4662    4663
    4658    4659    4660    4663    4659    4660    4663    4662
    4659    4660    4663    4664    4660    4663    4664    4667
    4661    4484    4487    4486    4661    4484    4487    4488
    4661    4662    4663    4660    4661    4662    4663    4664
    4661    4666    4667    4664    4661    4666    4667    4668
    4662    4657    4658    4653    4662    4657    4658    4659
    4662    4661    4666    4665    4662    4661    4666    4667
    4662    4663    4664    4667    4663    4664    4667    4666
    4663    4664    4667    4668    4664    4667    4668    4671
    4665    4488    4491    4490    4665    4488    4491    4492
    4665    4666    4667    4664    4665    4666    4667    4668
    4665    4670    4671    4668    4665    4670    4671    4672
    4666    4661    4662    4657    4666    4661    4662    4663
    4666    4665    4670    4669    4666    4665    4670    4671
    4666    4667    4668    4671    4667    4668    4671    4670
    4667    4668    4671    4672    4668    4671    4672    4675
    4669    4492    4495    4494    4669    4492    4495    4496
    4669    4670    4671    4668    4669    4670    4671    4672
    4669    4674    4675    4672    4669    4674    4675    4676
    4670    4665    4666    4661    4670    4665    4666    4667
    4670    4669    4674    4673    4670    4669    4674    4675
    4670    4671    4672    4675    4671    4672    4675    4674
    4671    4672    4675    4676    4672    4675    4676    4679
    4673    4496    4499    4498    4673    4496    4499    4500
    4673    4674    4675    4672    4673    4674    4675    4676
    4673    4678    4679    4676    4673    4678    4679    4680
    4674    4669    4670    4665    4674    4669    4670    4671
    4674    4673    4678    4677    4674    4673    4678    4679
    4674    4675    4676    4679    4675    4676    4679    4678
    4675    4676    4679    4680    4677    4678    4679    4676
    4677    4678    4679    4680    4678    4673    4674    4669
    4678    4673    4674    4675

       0 !NIMPHI: impropers


       0 !NDON: donors


       0 !NACC: acceptors


       0 !NNB

       0       0       0       0       0       0       0       0
       0       0       0       0       0       0       0       0
       0       0       0       0       0       0       0       0
       0       0       0       0       0       0       0       0
       0       0       0       0       0       0       0       0
       0       0       0       0       0       0       0       0
       0       0       0       0       0       0       0       0
       0       0       0       0       0       0       0       0
       0       0       0       0       0       0       0       0
       0       0       0       0       0       0       0       0
       0       0       0       0       0       0       0       0
       0       0       0       0       0       0       0       0
       0       0       0       0       0       0       0       0
       0       0       0       0       0       0       0       0
       0       0       0       0       0       0       0       0
       0       0       0       0       0       0       0       0
       0       0       0       0       0       0       0       0
       0       0       0       0       0       0       0       0
       0       0       0       0       0       0       0       0
       0       0       0       0       0       0       0       0
       0       0       0       0       0       0       0       0
       0       0       0       0       0       0       0       0
       0       0       0       0       0       0       0       0
       0       0       0       0       0       0       0       0
       0       0       0       0       0       0       0       0
       0       0       0       0       0       0       0       0
       0       0       0       0       0       0       0       0
       0       0       0       0       0       0       0       0
       0       0       0       0       0       0       0       0
       0       0       0       0       0       0       0       0
       0       0       0       0       0       0       0       0
       0       0       0       0       0       0       0       0
       0       0       0       0       0       0       0       0
       0       0       0       0       0       0       0       0
       0       0       0       0       0       0       0       0
       0       0       0       0       0       0       0       0
       0       0       0       0       0       0       0       0
       0       0       0       0       0       0       0       0
       0       0       0       0       0       0       0       0
       0       0       0       0       0       0       0       0
       0       0       0       0       0       0       0       0
       0       0       0       0       0       0       0       0
       0       0       0       0       0       0       0       0
       0       0       0       0       0       0       0       0
       0       0       0       0       0       0       0       0
       0       0       0       0       0       0       0       0
       0       0       0       0       0       0       0       0
       0       0       0       0       0       0       0       0
       0       0       0       0       0       0       0       0
       0       0       0       0       0       0       0       0
       0       0       0       0       0       0       0       0
       0       0       0       0       0       0       0       0
       0       0       0       0       0       0       0       0
       0       0       0       0       0       0       0       0
       0       0       0       0       0       0       0       0
       0       0       0       0       0       0       0       0
       0       0       0       0       0       0       0       0
       0       0       0       0       0       0       0       0
       0       0       0       0       0       0       0       0
       0       0       0       0       0       0       0       0
       0       0       0       0       0       0       0       0
       0       0       0       0       0       0       0       0
       0       0       0       0       0       0       0       0
       0       0       0       0       0       0       0       0
       0       0       0       0       0       0       0       0
       0       0       0       0       0       0       0       0
       0       0       0       0       0       0       0       0
       0       0       0       0       0       0       0       0
       0       0       0       0       0       0       0       0
       0       0       0       0       0       0       0       0
       0       0       0       0       0       0       0       0
       0       0       0       0       0       0       0       0
       0       0       0       0       0       0       0       0
       0       0       0       0       0       0       0       0
       0       0       0       0       0       0       0       0
       0       0       0       0       0       0       0       0
       0       0       0       0       0       0       0       0
       0       0       0       0       0       0       0       0
       0       0       0       0       0       0       0       0
       0       0       0       0       0       0       0       0
       0       0       0       0       0       0       0       0
       0       0       0       0       0       0       0       0
       0       0       0       0       0       0       0       0
       0       0       0       0       0       0       0       0
       0       0       0       0       0       0       0       0
       0       0       0       0       0       0       0       0
       0       0       0       0       0       0       0       0
       0       0       0       0       0       0       0       0
       0       0       0       0       0       0       0       0
       0       0       0       0       0       0       0       0
       0       0       0       0       0       0       0       0
       0       0       0       0       0       0       0       0
       0       0       0       0       0       0       0       0
       0       0       0       0       0       0       0       0
       0       0       0       0       0       0       0       0
       0       0       0       0       0       0       0       0
       0       0       0       0       0       0       0       0
       0       0       0       0       0       0       0       0
       0       0       0       0       0       0       0       0
       0       0       0       0       0       0       0       0
       0       0       0       0       0       0       0       0
       0       0       0       0       0       0       0       0
       0       0       0       0       0       0       0       0
       0       0       0       0       0       0       0       0
       0       0       0       0       0       0       0       0
       0       0       0       0       0       0       0       0
       0       0       0       0       0       0       0       0
       0       0       0       0       0       0       0       0
       0       0       0       0       0       0       0       0
       0       0       0       0       0       0       0       0
       0       0       0       0       0       0       0       0
       0       0       0       0       0       0       0       0
       0       0       0       0       0       0       0       0
       0       0       0       0       0       0       0       0
       0       0       0       0       0       0       0       0
       0       0       0       0       0       0       0       0
       0       0       0       0       0       0       0       0
       0       0       0       0       0       0       0       0
       0       0       0       0       0       0       0       0
       0       0       0       0       0       0       0       0
       0       0       0       0       0       0       0       0
       0       0       0       0       0       0       0       0
       0       0       0       0       0       0       0       0
       0       0       0       0       0       0       0       0
       0       0       0       0       0       0       0       0
       0       0       0       0       0       0       0       0
       0       0       0       0       0       0       0       0
       0       0       0       0       0       0       0       0
       0       0       0       0       0       0       0       0
       0       0       0       0       0       0       0       0
       0       0       0       0       0       0       0       0
       0       0       0       0       0       0       0       0
       0       0       0       0       0       0       0       0
       0       0       0       0       0       0       0       0
       0       0       0       0       0       0       0       0
       0       0       0       0       0       0       0       0
       0       0       0       0       0       0       0       0
       0       0       0       0       0       0       0       0
       0       0       0       0       0       0       0       0
       0       0       0       0       0       0       0       0
       0       0       0       0       0       0       0       0
       0       0       0       0       0       0       0       0
       0       0       0       0       0       0       0       0
       0       0       0       0       0       0       0       0
       0       0       0       0       0       0       0       0
       0       0       0       0       0       0       0       0
       0       0       0       0       0       0       0       0
       0       0       0       0       0       0       0       0
       0       0       0       0       0       0       0       0
       0       0       0       0       0       0       0       0
       0       0       0       0       0       0       0       0
       0       0       0       0       0       0       0       0
       0       0       0       0       0       0       0       0
       0       0       0       0       0       0       0       0
       0       0       0       0       0       0       0       0
       0       0       0       0       0       0       0       0
       0       0       0       0       0       0       0       0
       0       0       0       0       0       0       0       0
       0       0       0       0       0       0       0       0
       0       0       0       0       0       0       0       0
       0       0       0       0       0       0       0       0
       0       0       0       0       0       0       0       0
       0       0       0       0       0       0       0       0
       0       0       0       0       0       0       0       0
       0       0       0       0       0       0       0       0
       0       0       0       0       0       0       0       0
       0       0       0       0       0       0       0       0
       0       0       0       0       0       0       0       0
       0       0       0       0       0       0       0       0
       0       0       0       0       0       0       0       0
       0       0       0       0       0       0       0       0
       0       0       0       0       0       0       0       0
       0       0       0       0       0       0       0       0
       0       0       0       0       0       0       0       0
       0       0       0       0       0       0       0       0
       0       0       0       0       0       0       0       0
       0       0       0       0       0       0       0       0
       0       0       0       0       0       0       0       0
       0       0       0       0       0       0       0       0
       0       0       0       0       0       0       0       0
       0       0       0       0       0       0       0       0
       0       0       0       0       0       0       0       0
       0       0       0       0       0       0       0       0
       0       0       0       0       0       0       0       0
       0       0       0       0       0       0       0       0
       0       0       0       0       0       0       0       0
       0       0       0       0       0       0       0       0
       0       0       0       0       0       0       0       0
       0       0       0       0       0       0       0       0
       0       0       0       0       0       0       0       0
       0       0       0       0       0       0       0       0
       0       0       0       0       0       0       0       0
       0       0       0       0       0       0       0       0
       0       0       0       0       0       0       0       0
       0       0       0       0       0       0       0       0
       0       0       0       0       0       0       0       0
       0       0       0       0       0       0       0       0
       0       0       0       0       0       0       0       0
       0       0       0       0       0       0       0       0
       0       0       0       0       0       0       0       0
       0       0       0       0       0       0       0       0
       0       0       0       0       0       0       0       0
       0       0       0       0       0       0       0       0
       0       0       0       0       0       0       0       0
       0       0       0       0       0       0       0       0
       0       0       0       0       0       0       0       0
       0       0       0       0       0       0       0       0
       0       0       0       0       0       0       0       0
       0       0       0       0       0       0       0       0
       0       0       0       0       0       0       0       0
       0       0       0       0       0       0       0       0
       0       0       0       0       0       0       0       0
       0       0       0       0       0       0       0       0
       0       0       0       0       0       0       0       0
       0       0       0       0       0       0       0       0
       0       0       0       0       0       0       0       0
       0       0       0       0       0       0       0       0
       0       0       0       0       0       0       0       0
       0       0       0       0       0       0       0       0
       0       0       0       0       0       0       0       0
       0       0       0       0       0       0       0       0
       0       0       0       0       0       0       0       0
       0       0       0       0       0       0       0       0
       0       0       0       0       0       0       0       0
       0       0       0       0       0       0       0       0
       0       0       0       0       0       0       0       0
       0       0       0       0       0       0       0       0
       0       0       0       0       0       0       0       0
       0       0       0       0       0       0       0       0
       0       0       0       0       0       0       0       0
       0       0       0       0       0       0       0       0
       0       0       0       0       0       0       0       0
       0       0       0       0       0       0       0       0
       0       0       0       0       0       0       0       0
       0       0       0       0       0       0       0       0
       0       0       0       0       0       0       0       0
       0       0       0       0       0       0       0       0
       0       0       0       0       0       0       0       0
       0       0       0       0       0       0       0       0
       0       0       0       0       0       0       0       0
       0       0       0       0       0       0       0       0
       0       0       0       0       0       0       0       0
       0       0       0       0       0       0       0       0
       0       0       0       0       0       0       0       0
       0       0       0       0       0       0       0       0
       0       0       0       0       0       0       0       0
       0       0       0       0       0       0       0       0
       0       0       0       0       0       0       0       0
       0       0       0       0       0       0       0       0
       0       0       0       0       0       0       0       0
       0       0       0       0       0       0       0       0
       0       0       0       0       0       0       0       0
       0       0       0       0       0       0       0       0
       0       0       0       0       0       0       0       0
       0       0       0       0       0       0       0       0
       0       0       0       0       0       0       0       0
       0       0       0       0       0       0       0       0
       0       0       0       0       0       0       0       0
       0       0       0       0       0       0       0       0
       0       0       0       0       0       0       0       0
       0       0       0       0       0       0       0       0
       0       0       0       0       0       0       0       0
       0       0       0       0       0       0       0       0
       0       0       0       0       0       0       0       0
       0       0       0       0       0       0       0       0
       0       0       0       0       0       0       0       0
       0       0       0       0       0       0       0       0
       0       0       0       0       0       0       0       0
       0       0       0       0       0       0       0       0
       0       0       0       0       0       0       0       0
       0       0       0       0       0       0       0       0
       0       0       0       0       0       0       0       0
       0       0       0       0       0       0       0       0
       0       0       0       0       0       0       0       0
       0       0       0       0       0       0       0       0
       0       0       0       0       0       0       0       0
       0       0       0       0       0       0       0       0
       0       0       0       0       0       0       0       0
       0       0       0       0       0       0       0       0
       0       0       0       0       0       0       0       0
       0       0       0       0       0       0       0       0
       0       0       0       0       0       0       0       0
       0       0       0       0       0       0       0       0
       0       0       0       0       0       0       0       0
       0       0       0       0       0       0       0       0
       0       0       0       0       0       0       0       0
       0       0       0       0       0       0       0       0
       0       0       0       0       0       0       0       0
       0       0       0       0       0       0       0       0
       0       0       0       0       0       0       0       0
       0       0       0       0       0       0       0       0
       0       0       0       0       0       0       0       0
       0       0       0       0       0       0       0       0
       0       0       0       0       0       0       0       0
       0       0       0       0       0       0       0       0
       0       0       0       0       0       0       0       0
       0       0       0       0       0       0       0       0
       0       0       0       0       0       0       0       0
       0       0       0       0       0       0       0       0
       0       0       0       0       0       0       0       0
       0       0       0       0       0       0       0       0
       0       0       0       0       0       0       0       0
       0       0       0       0       0       0       0       0
       0       0       0       0       0       0       0       0
       0       0       0       0       0       0       0       0
       0       0       0       0       0       0       0       0
       0       0       0       0       0       0       0       0
       0       0       0       0       0       0       0       0
       0       0       0       0       0       0       0       0
       0       0       0       0       0       0       0       0
       0       0       0       0       0       0       0       0
       0       0       0       0       0       0       0       0
       0       0       0       0       0       0       0       0
       0       0       0       0       0       0       0       0
       0       0       0       0       0       0       0       0
       0       0       0       0       0       0       0       0
       0       0       0       0       0       0       0       0
       0       0       0       0       0       0       0       0
       0       0       0       0       0       0       0       0
       0       0       0       0       0       0       0       0
       0       0       0       0       0       0       0       0
       0       0       0       0       0       0       0       0
       0       0       0       0       0       0       0       0
       0       0       0       0       0       0       0       0
       0       0       0       0       0       0       0       0
       0       0       0       0       0       0       0       0
       0       0       0       0       0       0       0       0
       0       0       0       0       0       0       0       0
       0       0       0       0       0       0       0       0
       0       0       0       0       0       0       0       0
       0       0       0       0       0       0       0       0
       0       0       0       0       0       0       0       0
       0       0       0       0       0       0       0       0
       0       0       0       0       0       0       0       0
       0       0       0       0       0       0       0       0
       0       0       0       0       0       0       0       0
       0       0       0       0       0       0       0       0
       0       0       0       0       0       0       0       0
       0       0       0       0       0       0       0       0
       0       0       0       0       0       0       0       0
       0       0       0       0       0       0       0       0
       0       0       0       0       0       0       0       0
       0       0       0       0       0       0       0       0
       0       0       0       0       0       0       0       0
       0       0       0       0       0       0       0       0
       0       0       0       0       0       0       0       0
       0       0       0       0       0       0       0       0
       0       0       0       0       0       0       0       0
       0       0       0       0       0       0       0       0
       0       0       0       0       0       0       0       0
       0       0       0       0       0       0       0       0
       0       0       0       0       0       0       0       0
       0       0       0       0       0       0       0       0
       0       0       0       0       0       0       0       0
       0       0       0       0       0       0       0       0
       0       0       0       0       0       0       0       0
       0       0       0       0       0       0       0       0
       0       0       0       0       0       0       0       0
       0       0       0       0       0       0       0       0
       0       0       0       0       0       0       0       0
       0       0       0       0       0       0       0       0
       0       0       0       0       0       0       0       0
       0       0       0       0       0       0       0       0
       0       0       0       0       0       0       0       0
       0       0       0       0       0       0       0       0
       0       0       0       0       0       0       0       0
       0       0       0       0       0       0       0       0
       0       0       0       0       0       0       0       0
       0       0       0       0       0       0       0       0
       0       0       0       0       0       0       0       0
       0       0       0       0       0       0       0       0
       0       0       0       0       0       0       0       0
       0       0       0       0       0       0       0       0
       0       0       0       0       0       0       0       0
       0       0       0       0       0       0       0       0
       0       0       0       0       0       0       0       0
       0       0       0       0       0       0       0       0
       0       0       0       0       0       0       0       0
       0       0       0       0       0       0       0       0
       0       0       0       0       0       0       0       0
       0       0       0       0       0       0       0       0
       0       0       0       0       0       0       0       0
       0       0       0       0       0       0       0       0
       0       0       0       0       0       0       0       0
       0       0       0       0       0       0       0       0
       0       0       0       0       0       0       0       0
       0       0       0       0       0       0       0       0
       0       0       0       0       0       0       0       0
       0       0       0       0       0       0       0       0
       0       0       0       0       0       0       0       0
       0       0       0       0       0       0       0       0
       0       0       0       0       0       0       0       0
       0       0       0       0       0       0       0       0
       0       0       0       0       0       0       0       0
       0       0       0       0       0       0       0       0
       0       0       0       0       0       0       0       0
       0       0       0       0       0       0       0       0
       0       0       0       0       0       0       0       0
       0       0       0       0       0       0       0       0
       0       0       0       0       0       0       0       0
       0       0       0       0       0       0       0       0
       0       0       0       0       0       0       0       0
       0       0       0       0       0       0       0       0
       0       0       0       0       0       0       0       0
       0       0       0       0       0       0       0       0
       0       0       0       0       0       0       0       0
       0       0       0       0       0       0       0       0
       0       0       0       0       0       0       0       0
       0       0       0       0       0       0       0       0
       0       0       0       0       0       0       0       0
       0       0       0       0       0       0       0       0
       0       0       0       0       0       0       0       0
       0       0       0       0       0       0       0       0
       0       0       0       0       0       0       0       0
       0       0       0       0       0       0       0       0
       0       0       0       0       0       0       0       0
       0       0       0       0       0       0       0       0
       0       0       0       0       0       0       0       0
       0       0       0       0       0       0       0       0
       0       0       0       0       0       0       0       0
       0       0       0       0       0       0       0       0
       0       0       0       0       0       0       0       0
       0       0       0       0       0       0       0       0
       0       0       0       0       0       0       0       0
       0       0       0       0       0       0       0       0
       0       0       0       0       0       0       0       0
       0       0       0       0       0       0       0       0
       0       0       0       0       0       0       0       0
       0       0       0       0       0       0       0       0
       0       0       0       0       0       0       0       0
       0       0       0       0       0       0       0       0
       0       0       0       0       0       0       0       0
       0       0       0       0       0       0       0       0
       0       0       0       0       0       0       0       0
       0       0       0       0       0       0       0       0
       0       0       0       0       0       0       0       0
       0       0       0       0       0       0       0       0
       0       0       0       0       0       0       0       0
       0       0       0       0       0       0       0       0
       0       0       0       0       0       0       0       0
       0       0       0       0       0       0       0       0
       0       0       0       0       0       0       0       0
       0       0       0       0       0       0       0       0
       0       0       0       0       0       0       0       0
       0       0       0       0       0       0       0       0
       0       0       0       0       0       0       0       0
       0       0       0       0       0       0       0       0
       0       0       0       0       0       0       0       0
       0       0       0       0       0       0       0       0
       0       0       0       0       0       0       0       0
       0       0       0       0       0       0       0       0
       0       0       0       0       0       0       0       0
       0       0       0       0       0       0       0       0
       0       0       0       0       0       0       0       0
       0       0       0       0       0       0       0       0
       0       0       0       0       0       0       0       0
       0       0       0       0       0       0       0       0
       0       0       0       0       0       0       0       0
       0       0       0       0       0       0       0       0
       0       0       0       0       0       0       0       0
       0       0       0       0       0       0       0       0
       0       0       0       0       0       0       0       0
       0       0       0       0       0       0       0       0
       0       0       0       0       0       0       0       0
       0       0       0       0       0       0       0       0
       0       0       0       0       0       0       0       0
       0       0       0       0       0       0       0       0
       0       0       0       0       0       0       0       0
       0       0       0       0       0       0       0       0
       0       0       0       0       0       0       0       0
       0       0       0       0       0       0       0       0
       0       0       0       0       0       0       0       0
       0       0       0       0       0       0       0       0
       0       0       0       0       0       0       0       0
       0       0       0       0       0       0       0       0
       0       0       0       0       0       0       0       0
       0       0       0       0       0       0       0       0
       0       0       0       0       0       0       0       0
       0       0       0       0       0       0       0       0
       0       0       0       0       0       0       0       0
       0       0       0       0       0       0       0       0
       0       0       0       0       0       0       0       0
       0       0       0       0       0       0       0       0
       0       0       0       0       0       0       0       0
       0       0       0       0       0       0       0       0
       0       0       0       0       0       0       0       0
       0       0       0       0       0       0       0       0
       0       0       0       0       0       0       0       0
       0       0       0       0       0       0       0       0
       0       0       0       0       0       0       0       0
       0       0       0       0       0       0       0       0
       0       0       0       0       0       0       0       0
       0       0       0       0       0       0       0       0
       0       0       0       0       0       0       0       0
       0       0       0       0       0       0       0       0
       0       0       0       0       0       0       0       0
       0       0       0       0       0       0       0       0
       0       0       0       0       0       0       0       0
       0       0       0       0       0       0       0       0
       0       0       0       0       0       0       0       0
       0       0       0       0       0       0       0       0
       0       0       0       0       0       0       0       0
       0       0       0       0       0       0       0       0
       0       0       0       0       0       0       0       0
       0       0       0       0       0       0       0       0
       0       0       0       0       0       0       0       0
       0       0       0       0       0       0       0       0
       0       0       0       0       0       0       0       0
       0       0       0       0       0       0       0       0
       0       0       0       0       0       0       0       0
       0       0       0       0       0       0       0       0
       0       0       0       0       0       0       0       0
       0       0       0       0       0       0       0       0
       0       0       0       0       0       0       0       0
       0       0       0       0       0       0       0       0
       0       0       0       0       0       0       0       0
       0       0       0       0       0       0       0       0
       0       0       0       0       0       0       0       0
       0       0       0       0       0       0       0       0
       0       0       0       0       0       0       0       0
       0       0       0       0       0       0       0       0
       0       0       0       0       0       0       0       0
       0       0       0       0       0       0       0       0
       0       0       0       0       0       0       0       0
       0       0       0       0       0       0       0       0
       0       0       0       0       0       0       0       0
       0       0       0       0       0       0       0       0
       0       0       0       0       0       0       0       0
       0       0       0       0       0       0       0       0
       0       0       0       0       0       0       0       0
       0       0       0       0       0       0       0       0
       0       0       0       0       0       0       0       0
       0       0       0       0       0       0       0       0
       0       0       0       0       0       0       0       0
       0       0       0       0       0       0       0       0
       0       0       0       0       0       0       0       0
       0       0       0       0       0       0       0       0
       0       0       0       0       0       0       0       0
       0       0       0       0       0       0       0       0
       0       0       0       0       0       0       0       0
       0       0       0       0       0       0       0       0
       0       0       0       0       0       0       0       0
       0       0       0       0       0       0       0       0
       0       0       0       0       0       0       0       0
       0       0       0       0       0       0       0       0
       0       0       0       0       0       0       0       0
       0       0       0       0       0       0       0       0
       0       0       0       0       0       0       0       0
       0       0       0       0       0       0       0       0
       0       0       0       0       0       0       0       0
       0       0       0       0       0       0       0       0
       0       0       0       0       0       0       0       0
       0       0       0       0       0       0       0       0
       0       0       0       0       0       0       0       0
       0       0       0       0       0       0       0       0
       0       0       0       0       0       0       0       0
       0       0       0       0       0       0       0       0
       0       0       0       0       0       0       0       0
       0       0       0       0       0       0       0       0
       0       0       0       0       0       0       0       0
       0       0       0       0       0       0       0       0
       0       0       0       0       0       0       0       0
       0       0       0       0       0       0       0       0
       0       0       0       0       0       0       0       0
       0       0       0       0       0       0       0       0
       0       0       0       0       0       0       0       0
       0       0       0       0       0       0       0       0
       0       0       0       0       0       0       0       0
       0       0       0       0       0       0       0       0
       0       0       0       0       0       0       0       0
       0       0       0       0       0       0       0       0
       0       0       0       0       0       0       0       0
       0       0       0       0       0       0       0       0
       0       0       0       0       0       0       0       0
       0       0       0       0       0       0       0       0
       0       0       0       0       0       0       0       0
       0       0       0       0       0       0       0       0
       0       0       0       0       0       0       0       0
       0       0       0       0       0       0       0       0
       0       0       0       0       0       0       0       0
       0       0       0       0       0       0       0       0
       0       0       0       0       0       0       0       0
       0       0       0       0       0       0       0       0
       0       0       0       0       0       0       0       0
       0       0       0       0       0       0       0       0
       0       0       0       0       0       0       0       0
       0       0       0       0       0       0       0       0
       0       0       0       0       0       0       0       0
       0       0       0       0       0       0       0       0
       0       0       0       0       0       0       0       0
       0       0       0       0       0       0       0       0
       0       0       0       0       0       0       0       0
       0       0       0       0       0       0       0       0
       0       0       0       0       0       0       0       0
       0       0       0       0       0       0       0       0
       0       0       0       0       0       0       0       0
       0       0       0       0       0       0       0       0
       0       0       0       0       0       0       0       0
       0       0       0       0       0       0       0       0
       0       0       0       0       0       0       0       0
       0       0       0       0       0       0       0       0
       0       0       0       0       0       0       0       0
       0       0       0       0       0       0       0       0
       0       0       0       0       0       0       0       0
       0       0       0       0       0       0       0       0
       0       0       0       0       0       0       0       0
       0       0       0       0       0       0       0       0
       0       0       0       0       0       0       0       0
       0       0       0       0       0       0       0       0
       0       0       0       0       0       0       0       0
       0       0       0       0       0       0       0       0
       0       0       0       0       0       0       0       0
       0       0       0       0       0       0       0       0
       0       0       0       0       0       0       0       0
       0       0       0       0       0       0       0       0
       0       0       0       0       0       0       0       0
       0       0       0       0       0       0       0       0
       0       0       0       0       0       0       0       0
       0       0       0       0       0       0       0       0
       0       0       0       0       0       0       0       0
       0       0       0       0       0       0       0       0
       0       0       0       0       0       0       0       0
       0       0       0       0       0       0       0       0
       0       0       0       0       0       0       0       0
       0       0       0       0       0       0       0       0
       0       0       0       0       0       0       0       0
       0       0       0       0       0       0       0       0
       0       0       0       0       0       0       0       0
       0       0       0       0       0       0       0       0
       0       0       0       0       0       0       0       0
       0       0       0       0       0       0       0       0
       0       0       0       0       0       0       0       0
       0       0       0       0       0       0       0       0
       0       0       0       0       0       0       0       0
       0       0       0       0       0       0       0       0
       0       0       0       0       0       0       0       0
       0       0       0       0       0       0       0       0
       0       0       0       0       0       0       0       0
       0       0       0       0       0       0       0       0
       0       0       0       0       0       0       0       0
       0       0       0       0       0       0       0       0
       0       0       0       0       0       0       0       0
       0       0       0       0       0       0       0       0
       0       0       0       0       0       0       0       0
       0       0       0       0       0       0       0       0
       0       0       0       0       0       0       0       0
       0       0       0       0       0       0       0       0
       0       0       0       0       0       0       0       0
       0       0       0       0       0       0       0       0
       0       0       0       0       0       0       0       0
       0       0       0       0       0       0       0       0
       0       0       0       0       0       0       0       0
       0       0       0       0       0       0       0       0
       0       0       0       0       0       0       0       0
       0       0       0       0       0       0       0       0
       0       0       0       0       0       0       0       0
       0       0       0       0       0       0       0       0
       0       0       0       0       0       0       0       0
       0       0       0       0       0       0       0       0
       0       0       0       0       0       0       0       0
       0       0       0       0       0       0       0       0
       0       0       0       0       0       0       0       0
       0       0       0       0       0       0       0       0
       0       0       0       0       0       0       0       0
       0       0       0       0       0       0       0       0
       0       0       0       0       0       0       0       0
       0       0       0       0       0       0       0       0
       0       0       0       0       0       0       0       0
       0       0       0       0       0       0       0       0
       0       0       0       0       0       0       0       0
       0       0       0       0       0       0       0       0
       0       0       0       0       0       0       0       0
       0       0       0       0       0       0       0       0
       0       0       0       0       0       0       0       0
       0       0       0       0       0       0       0       0
       0       0       0       0       0       0       0       0
       0       0       0       0       0       0       0       0
       0       0       0       0       0       0       0       0
       0       0       0       0       0       0       0       0
       0       0       0       0       0       0       0       0
       0       0       0       0       0       0       0       0
       0       0       0       0       0       0       0       0
       0       0       0       0       0       0       0       0
       0       0       0       0       0       0       0       0
       0       0       0       0       0       0       0       0
       0       0       0       0       0       0       0       0
       0       0       0       0       0       0       0       0
       0       0       0       0       0       0       0       0
       0       0       0       0       0       0       0       0
       0       0       0       0       0       0       0       0
       0       0       0       0       0       0       0       0
       0       0       0       0       0       0       0       0
       0       0       0       0       0       0       0       0
       0       0       0       0       0       0       0       0
       0       0       0       0       0       0       0       0
       0       0       0       0       0       0       0       0
       0       0       0       0       0       0       0       0
       0       0       0       0       0       0       0       0
       0       0       0       0       0       0       0       0
       0       0       0       0       0       0       0       0
       0       0       0       0       0       0       0       0
       0       0       0       0       0       0       0       0
       0       0       0       0       0       0       0       0
       0       0       0       0       0       0       0       0
       0       0       0       0       0       0       0       0
       0       0       0       0       0       0       0       0
       0       0       0       0       0       0       0       0
       0       0       0       0       0       0       0       0
       0       0       0       0       0       0       0       0
       0       0       0       0       0       0       0       0
       0       0       0       0       0       0       0       0
       0       0       0       0       0       0       0       0
       0       0       0       0       0       0       0       0
       0       0       0       0       0       0       0       0
       0       0       0       0       0       0       0       0
       0       0       0       0       0       0       0       0
       0       0       0       0       0       0       0       0
       0       0       0       0       0       0       0       0
       0       0       0       0       0       0       0       0
       0       0       0       0       0       0       0       0
       0       0       0       0       0       0       0       0
       0       0       0       0       0       0       0       0
       0       0       0       0       0       0       0       0
       0       0       0       0       0       0       0       0
       0       0       0       0       0       0       0       0
       0       0       0       0       0       0       0       0
       0       0       0       0       0       0       0       0
       0       0       0       0       0       0       0       0
       0       0       0       0       0       0       0       0
       0       0       0       0       0       0       0       0
       0       0       0       0       0       0       0       0
       0       0       0       0       0       0       0       0
       0       0       0       0       0       0       0       0
       0       0       0       0       0       0       0       0
       0       0       0       0       0       0       0       0
       0       0       0       0       0       0       0       0
       0       0       0       0       0       0       0       0
       0       0       0       0       0       0       0       0
       0       0       0       0       0       0       0       0
       0       0       0       0       0       0       0       0
       0       0       0       0       0       0       0       0
       0       0       0       0       0       0       0       0
       0       0       0       0       0       0       0       0
       0       0       0       0       0       0       0       0
       0       0       0       0       0       0       0       0
       0       0       0       0       0       0       0       0
       0       0       0       0       0       0       0       0
       0       0       0       0       0       0       0       0
       0       0       0       0       0       0       0       0
       0       0       0       0       0       0       0       0
       0       0       0       0       0       0       0       0
       0       0       0       0       0       0       0       0
       0       0       0       0       0       0       0       0
       0       0       0       0       0       0       0       0
       0       0       0       0       0       0       0       0
       0       0       0       0       0       0       0       0
       0       0       0       0       0       0       0       0
       0       0       0       0       0       0       0       0
       0       0       0       0       0       0       0       0
       0       0       0       0       0       0       0       0
       0       0       0       0       0       0       0       0
       0       0       0       0       0       0       0       0
       0       0       0       0       0       0       0       0
       0       0       0       0       0       0       0       0
       0       0       0       0       0       0       0       0
       0       0       0       0       0       0       0       0
       0       0       0       0       0       0       0       0
       0       0       0       0       0       0       0       0
       0       0       0       0       0       0       0       0
       0       0       0       0       0       0       0       0
       0       0       0       0       0       0       0       0
       0       0       0       0       0       0       0       0
       0       0       0       0       0       0       0       0
       0       0       0       0       0       0       0       0
       0       0       0       0       0       0       0       0
       0       0       0       0       0       0       0       0
       0       0       0       0       0       0       0       0
       0       0       0       0       0       0       0       0
       0       0       0       0       0       0       0       0
       0       0       0       0       0       0       0       0
       0       0       0       0       0       0       0       0
       0       0       0       0       0       0       0       0
       0       0       0       0       0       0       0       0
       0       0       0       0       0       0       0       0
       0       0       0       0       0       0       0       0
       0       0       0       0       0       0       0       0
       0       0       0       0       0       0       0       0
       0       0       0       0       0       0       0       0
       0       0       0       0       0       0       0       0
       0       0       0       0       0       0       0       0
       0       0       0       0       0       0       0       0
       0       0       0       0       0       0       0       0
       0       0       0       0       0       0       0       0
       0       0       0       0       0       0       0       0
       0       0       0       0       0       0       0       0
       0       0       0       0       0       0       0       0
       0       0       0       0       0       0       0       0
       0       0       0       0       0       0       0       0
       0       0       0       0       0       0       0       0
       0       0       0       0       0       0       0       0
       0       0       0       0       0       0       0       0
       0       0       0       0       0       0       0       0
       0       0       0       0       0       0       0       0
       0       0       0       0       0       0       0       0
       0       0       0       0       0       0       0       0
       0       0       0       0       0       0       0       0
       0       0       0       0       0       0       0       0
       0       0       0       0       0       0       0       0
       0       0       0       0       0       0       0       0
       0       0       0       0       0       0       0       0
       0       0       0       0       0       0       0       0
       0       0       0       0       0       0       0       0
       0       0       0       0       0       0       0       0
       0       0       0       0       0       0       0       0
       0       0       0       0       0       0       0       0
       0       0       0       0       0       0       0       0
       0       0       0       0       0       0       0       0
       0       0       0       0       0       0       0       0
       0       0       0       0       0       0       0       0
       0       0       0       0       0       0       0       0
       0       0       0       0       0       0       0       0
       0       0       0       0       0       0       0       0
       0       0       0       0       0       0       0       0
       0       0       0       0       0       0       0       0
       0       0       0       0       0       0       0       0
       0       0       0       0       0       0       0       0
       0       0       0       0       0       0       0       0
       0       0       0       0       0       0       0       0
       0       0       0       0       0       0       0       0
       0       0       0       0       0       0       0       0
       0       0       0       0       0       0       0       0
       0       0       0       0       0       0       0       0
       0       0       0       0       0       0       0       0
       0       0       0       0       0       0       0       0
       0       0       0       0       0       0       0       0
       0       0       0       0       0       0       0       0
       0       0       0       0       0       0       0       0
       0       0       0       0       0       0       0       0
       0       0       0       0       0       0       0       0
       0       0       0       0       0       0       0       0
       0       0       0       0       0       0       0       0
       0       0       0       0       0       0       0       0
       0       0       0       0       0       0       0       0
       0       0       0       0       0       0       0       0
       0       0       0       0       0       0       0       0
       0       0       0       0       0       0       0       0
       0       0       0       0       0       0       0       0
       0       0       0       0       0       0       0       0
       0       0       0       0       0       0       0       0
       0       0       0       0       0       0       0       0
       0       0       0       0       0       0       0       0
       0       0       0       0       0       0       0       0
       0       0       0       0       0       0       0       0
       0       0       0       0       0       0       0       0
       0       0       0       0       0       0       0       0
       0       0       0       0       0       0       0       0
       0       0       0       0       0       0       0       0
       0       0       0       0       0       0       0       0
       0       0       0       0       0       0       0       0
       0       0       0       0       0       0       0       0
       0       0       0       0       0       0       0       0
       0       0       0       0       0       0       0       0
       0       0       0       0       0       0       0       0
       0       0       0       0       0       0       0       0
       0       0       0       0       0       0       0       0
       0       0       0       0       0       0       0       0
       0       0       0       0       0       0       0       0
       0       0       0       0       0       0       0       0
       0       0       0       0       0       0       0       0
       0       0       0       0       0       0       0       0
       0       0       0       0       0       0       0       0
       0       0       0       0       0       0       0       0
       0       0       0       0       0       0       0       0
       0       0       0       0       0       0       0       0
       0       0       0       0       0       0       0       0
       0       0       0       0       0       0       0       0
       0       0       0       0       0       0       0       0
       0       0       0       0       0       0       0       0
       0       0       0       0       0       0       0       0
       0       0       0       0       0       0       0       0
       0       0       0       0       0       0       0       0
       0       0       0       0       0       0       0       0
       0       0       0       0       0       0       0       0
       0       0       0       0       0       0       0       0
       0       0       0       0       0       0       0       0
       0       0       0       0       0       0       0       0
       0       0       0       0       0       0       0       0
       0       0       0       0       0       0       0       0
       0       0       0       0       0       0       0       0
       0       0       0       0       0       0       0       0
       0       0       0       0       0       0       0       0
       0       0       0       0       0       0       0       0
       0       0       0       0       0       0       0       0
       0       0       0       0       0       0       0       0
       0       0       0       0       0       0       0       0
       0       0       0       0       0       0       0       0
       0       0       0       0       0       0       0       0
       0       0       0       0       0       0       0       0
       0       0       0       0       0       0       0       0
       0       0       0       0       0       0       0       0
       0       0       0       0       0       0       0       0
       0       0       0       0       0       0       0       0
       0       0       0       0       0       0       0       0
       0       0       0       0       0       0       0       0
       0       0       0       0       0       0       0       0
       0       0       0       0       0       0       0       0
       0       0       0       0       0       0       0       0
       0       0       0       0       0       0       0       0
       0       0       0       0       0       0       0       0
       0       0       0       0       0       0       0       0
       0       0       0       0       0       0       0       0
       0       0       0       0       0       0       0       0
       0       0       0       0       0       0       0       0
       0       0       0       0       0       0       0       0
       0       0       0       0       0       0       0       0
       0       0       0       0       0       0       0       0
       0       0       0       0       0       0       0       0
       0       0       0       0       0       0       0       0
       0       0       0       0       0       0       0       0
       0       0       0       0       0       0       0       0
       0       0       0       0       0       0       0       0
       0       0       0       0       0       0       0       0
       0       0       0       0       0       0       0       0
       0       0       0       0       0       0       0       0
       0       0       0       0       0       0       0       0
       0       0       0       0       0       0       0       0
       0       0       0       0       0       0       0       0
       0       0       0       0       0       0       0       0
       0       0       0       0       0       0       0       0
       0       0       0       0       0       0       0       0
       0       0       0       0       0       0       0       0
       0       0       0       0       0       0       0       0
       0       0       0       0       0       0       0       0
       0       0       0       0       0       0       0       0
       0       0       0       0       0       0       0       0
       0       0       0       0       0       0       0       0
       0       0       0       0       0       0       0       0
       0       0       0       0       0       0       0       0
       0       0       0       0       0       0       0       0
       0       0       0       0       0       0       0       0
       0       0       0       0       0       0       0       0
       0       0       0       0       0       0       0       0
       0       0       0       0       0       0       0       0
       0       0       0       0       0       0       0       0
       0       0       0       0       0       0       0       0
       0       0       0       0       0       0       0       0
       0       0       0       0       0       0       0       0
       0       0       0       0       0       0       0       0
       0       0       0       0       0       0       0       0
       0       0       0       0       0       0       0       0
       0       0       0       0       0       0       0       0
       0       0       0       0       0       0       0       0
       0       0       0       0       0       0       0       0
       0       0       0       0       0       0       0       0
       0       0       0       0       0       0       0       0
       0       0       0       0       0       0       0       0
       0       0       0       0       0       0       0       0
       0       0       0       0       0       0       0       0
       0       0       0       0       0       0       0       0
       0       0       0       0       0       0       0       0
       0       0       0       0       0       0       0       0
       0       0       0       0       0       0       0       0
       0       0       0       0       0       0       0       0
       0       0       0       0       0       0       0       0
       0       0       0       0       0       0       0       0
       0       0       0       0       0       0       0       0
       0       0       0       0       0       0       0       0
       0       0       0       0       0       0       0       0
       0       0       0       0       0       0       0       0
       0       0       0       0       0       0       0       0
       0       0       0       0       0       0       0       0
       0       0       0       0       0       0       0       0
       0       0       0       0       0       0       0       0
       0       0       0       0       0       0       0       0
       0       0       0       0       0       0       0       0
       0       0       0       0       0       0       0       0
       0       0       0       0       0       0       0       0
       0       0       0       0       0       0       0       0
       0       0       0       0       0       0       0       0
       0       0       0       0       0       0       0       0
       0       0       0       0       0       0       0       0
       0       0       0       0       0       0       0       0
       0       0       0       0       0       0       0       0
       0       0       0       0       0       0       0       0
       0       0       0       0       0       0       0       0
       0       0       0       0       0       0       0       0
       0       0       0       0       0       0       0       0
       0       0       0       0       0       0       0       0
       0       0       0       0       0       0       0       0
       0       0       0       0       0       0       0       0
       0       0       0       0       0       0       0       0
       0       0       0       0       0       0       0       0
       0       0       0       0       0       0       0       0
       0       0       0       0       0       0       0       0
       0       0       0       0       0       0       0       0
       0       0       0       0       0       0       0       0
       0       0       0       0       0       0       0       0
       0       0       0       0       0       0       0       0
       0       0       0       0       0       0       0       0
       0       0       0       0       0       0       0       0
       0       0       0       0       0       0       0       0
       0       0       0       0       0       0       0       0
       0       0       0       0       0       0       0       0
       0       0       0       0       0       0       0       0
       0       0       0       0       0       0       0       0
       0       0       0       0       0       0       0       0
       0       0       0       0       0       0       0       0
       0       0       0       0       0       0       0       0
       0       0       0       0       0       0       0       0
       0       0       0       0       0       0       0       0
       0       0       0       0       0       0       0       0
       0       0       0       0       0       0       0       0
       0       0       0       0       0       0       0       0
       0       0       0       0       0       0       0       0
       0       0       0       0       0       0       0       0
       0       0       0       0       0       0       0       0
       0       0       0       0       0       0       0       0
       0       0       0       0       0       0       0       0
       0       0       0       0       0       0       0       0
       0       0       0       0       0       0       0       0
       0       0       0       0       0       0       0       0
       0       0       0       0       0       0       0       0
       0       0       0       0       0       0       0       0
       0       0       0       0       0       0       0       0
       0       0       0       0       0       0       0       0
       0       0       0       0       0       0       0       0
       0       0       0       0       0       0       0       0
       0       0       0       0       0       0       0       0
       0       0       0       0       0       0       0       0
       0       0       0       0       0       0       0       0
       0       0       0       0       0       0       0       0
       0       0       0       0       0       0       0       0
       0       0       0       0       0       0       0       0
       0       0       0       0       0       0       0       0
       0       0       0       0       0       0       0       0
       0       0       0       0       0       0       0       0
       0       0       0       0       0       0       0       0
       0       0       0       0       0       0       0       0
       0       0       0       0       0       0       0       0
       0       0       0       0       0       0       0       0
       0       0       0       0       0       0       0       0
       0       0       0       0       0       0       0       0
       0       0       0       0       0       0       0       0
       0       0       0       0       0       0       0       0
       0       0       0       0       0       0       0       0
       0       0       0       0       0       0       0       0
       0       0       0       0       0       0       0       0
       0       0       0       0       0       0       0       0
       0       0       0       0       0       0       0       0
       0       0       0       0       0       0       0       0
       0       0       0       0       0       0       0       0
       0       0       0       0       0       0       0       0
       0       0       0       0       0       0       0       0
       0       0       0       0       0       0       0       0
       0       0       0       0       0       0       0       0
       0       0       0       0       0       0       0       0
       0       0       0       0       0       0       0       0
       0       0       0       0       0       0       0       0
       0       0       0       0       0       0       0       0
       0       0       0       0       0       0       0       0
       0       0       0       0       0       0       0       0
       0       0       0       0       0       0       0       0
       0       0       0       0       0       0       0       0
       0       0       0       0       0       0       0       0
       0       0       0       0       0       0       0       0
       0       0       0       0       0       0       0       0
       0       0       0       0       0       0       0       0
       0       0       0       0       0       0       0       0
       0       0       0       0       0       0       0       0
       0       0       0       0       0       0       0       0
       0       0       0       0       0       0       0       0
       0       0       0       0       0       0       0       0
       0       0       0       0       0       0       0       0
       0       0       0       0       0       0       0       0
       0       0       0       0       0       0       0       0
       0       0       0       0       0       0       0       0
       0       0       0       0       0       0       0       0
       0       0       0       0       0       0       0       0
       0       0       0       0       0       0       0       0
       0       0       0       0       0       0       0       0
       0       0       0       0       0       0       0       0
       0       0       0       0       0       0       0       0
       0       0       0       0       0       0       0       0
       0       0       0       0       0       0       0       0
       0       0       0       0       0       0       0       0
       0       0       0       0       0       0       0       0
       0       0       0       0       0       0       0       0
       0       0       0       0       0       0       0       0
       0       0       0       0       0       0       0       0
       0       0       0       0       0       0       0       0
       0       0       0       0       0       0       0       0
       0       0       0       0       0       0       0       0
       0       0       0       0       0       0       0       0
       0       0       0       0       0       0       0       0
       0       0       0       0       0       0       0       0
       0       0       0       0       0       0       0       0
       0       0       0       0       0       0       0       0
       0       0       0       0       0       0       0       0
       0       0       0       0       0       0       0       0
       0       0       0       0       0       0       0       0
       0       0       0       0       0       0       0       0
       0       0       0       0       0       0       0       0
       0       0       0       0       0       0       0       0
       0       0       0       0       0       0       0       0
       0       0       0       0       0       0       0       0
       0       0       0       0       0       0       0       0
       0       0       0       0       0       0       0       0
       0       0       0       0       0       0       0       0
       0       0       0       0       0       0       0       0
       0       0       0       0       0       0       0       0
       0       0       0       0       0       0       0       0
       0       0       0       0       0       0       0       0
       0       0       0       0       0       0       0       0
       0       0       0       0       0       0       0       0
       0       0       0       0       0       0       0       0
       0       0       0       0       0       0       0       0
       0       0       0       0       0       0       0       0
       0       0       0       0       0       0       0       0
       0       0       0       0       0       0       0       0
       0       0       0       0       0       0       0       0
       0       0       0       0       0       0       0       0
       0       0       0       0       0       0       0       0
       0       0       0       0       0       0       0       0
       0       0       0       0       0       0       0       0
       0       0       0       0       0       0       0       0
       0       0       0       0       0       0       0       0
       0       0       0       0       0       0       0       0
       0       0       0       0       0       0       0       0
       0       0       0       0       0       0       0       0
       0       0       0       0       0       0       0       0
       0       0       0       0       0       0       0       0
       0       0       0       0       0       0       0       0
       0       0       0       0       0       0       0       0
       0       0       0       0       0       0       0       0
       0       0       0       0       0       0       0       0
       0       0       0       0       0       0       0       0
       0       0       0       0       0       0       0       0
       0       0       0       0       0       0       0       0
       0       0       0       0       0       0       0       0
       0       0       0       0       0       0       0       0
       0       0       0       0       0       0       0       0
       0       0       0       0       0       0       0       0
       0       0       0       0       0       0       0       0
       0       0       0       0       0       0       0       0
       0       0       0       0       0       0       0       0
       0       0       0       0       0       0       0       0
       0       0       0       0       0       0       0       0
       0       0       0       0       0       0       0       0
       0       0       0       0       0       0       0       0
       0       0       0       0       0       0       0       0
       0       0       0       0       0       0       0       0
       0       0       0       0       0       0       0       0
       0       0       0       0       0       0       0       0
       0       0       0       0       0       0       0       0
       0       0       0       0       0       0       0       0
       0       0       0       0       0       0       0       0
       0       0       0       0       0       0       0       0
       0       0       0       0       0       0       0       0
       0       0       0       0       0       0       0       0
       0       0       0       0       0       0       0       0
       0       0       0       0       0       0       0       0
       0       0       0       0       0       0       0       0
       0       0       0       0       0       0       0       0
       0       0       0       0       0       0       0       0
       0       0       0       0       0       0       0       0
       0       0       0       0       0       0       0       0
       0       0       0       0       0       0       0       0
       0       0       0       0       0       0       0       0
       0       0       0       0       0       0       0       0
       0       0       0       0       0       0       0       0
       0       0       0       0       0       0       0       0
       0       0       0       0       0       0       0       0
       0       0       0       0       0       0       0       0
       0       0       0       0       0       0       0       0
       0       0       0       0       0       0       0       0
       0       0       0       0       0       0       0       0
       0       0       0       0       0       0       0       0
       0       0       0       0       0       0       0       0
       0       0       0       0       0       0       0       0
       0       0       0       0       0       0       0       0
       0       0       0       0       0       0       0       0
       0       0       0       0       0       0       0       0
       0       0       0       0       0       0       0       0
       0       0       0       0       0       0       0       0
       0       0       0       0       0       0       0       0
       0       0       0       0       0       0       0       0
       0       0       0       0       0       0       0       0
       0       0       0       0       0       0       0       0
       0       0       0       0       0       0       0       0
       0       0       0       0       0       0       0       0
       0       0       0       0       0       0       0       0
       0       0       0       0       0       0       0       0
       0       0       0       0       0       0       0       0
       0       0       0       0       0       0       0       0
       0       0       0       0       0       0       0       0
       0       0       0       0       0       0       0       0
       0       0       0       0       0       0       0       0
       0       0       0       0       0       0       0       0
       0       0       0       0       0       0       0       0
       0       0       0       0       0       0       0       0
       0       0       0       0       0       0       0       0
       0       0       0       0       0       0       0       0
       0       0       0       0       0       0       0       0
       0       0       0       0       0       0       0       0
       0       0       0       0       0       0       0       0
       0       0       0       0       0       0       0       0
       0       0       0       0       0       0       0       0
       0       0       0       0       0       0       0       0
       0       0       0       0       0       0       0       0
       0       0       0       0       0       0       0       0
       0       0       0       0       0       0       0       0
       0       0       0       0       0       0       0       0
       0       0       0       0       0       0       0       0
       0       0       0       0       0       0       0       0
       0       0       0       0       0       0       0       0
       0       0       0       0       0       0       0       0
       0       0       0       0       0       0       0       0
       0       0       0       0       0       0       0       0
       0       0       0       0       0       0       0       0
       0       0       0       0       0       0       0       0
       0       0       0       0       0       0       0       0
       0       0       0       0       0       0       0       0
       0       0       0       0       0       0       0       0
       0       0       0       0       0       0       0       0
       0       0       0       0       0       0       0       0
       0       0       0       0       0       0       0       0
       0       0       0       0       0       0       0       0
       0       0       0       0       0       0       0       0
       0       0       0       0       0       0       0       0
       0       0       0       0       0       0       0       0
       0       0       0       0       0       0       0       0
       0       0       0       0       0       0       0       0
       0       0       0       0       0       0       0       0
       0       0       0       0       0       0       0       0
       0       0       0       0       0       0       0       0
       0       0       0       0       0       0       0       0
       0       0       0       0       0       0       0       0
       0       0       0       0       0       0       0       0
       0       0       0       0       0       0       0       0
       0       0       0       0       0       0       0       0
       0       0       0       0       0       0       0       0
       0       0       0       0       0       0       0       0
       0       0       0       0       0       0       0       0
       0       0       0       0       0       0       0       0
       0       0       0       0       0       0       0       0
       0       0       0       0       0       0       0       0
       0       0       0       0       0       0       0       0
       0       0       0       0       0       0       0       0
       0       0       0       0       0       0       0       0
       0       0       0       0       0       0       0       0
       0       0       0       0       0       0       0       0
       0       0       0       0       0       0       0       0
       0       0       0       0       0       0       0       0
       0       0       0       0       0       0       0       0
       0       0       0       0       0       0       0       0
       0       0       0       0       0       0       0       0
       0       0       0       0       0       0       0       0
       0       0       0       0       0       0       0       0
       0       0       0       0       0       0       0       0
       0       0       0       0       0       0       0       0
       0       0       0       0       0       0       0       0
       0       0       0       0       0       0       0       0
       0       0       0       0       0       0       0       0
       0       0       0       0       0       0       0       0
       0       0       0       0       0       0       0       0
       0       0       0       0       0       0       0       0
       0       0       0       0       0       0       0       0
       0       0       0       0       0       0       0       0
       0       0       0       0       0       0       0       0
       0       0       0       0       0       0       0       0
       0       0       0       0       0       0       0       0
       0       0       0       0       0       0       0       0
       0       0       0       0       0       0       0       0
       0       0       0       0       0       0       0       0
       0       0       0       0       0       0       0       0
       0       0       0       0       0       0       0       0
       0       0       0       0       0       0       0       0
       0       0       0       0       0       0       0       0
       0       0       0       0       0       0       0       0
       0       0       0       0       0       0       0       0
       0       0       0       0       0       0       0       0
       0       0       0       0       0       0       0       0
       0       0       0       0       0       0       0       0
       0       0       0       0       0       0       0       0
       0       0       0       0       0       0       0       0
       0       0       0       0       0       0       0       0
       0       0       0       0       0       0       0       0
       0       0       0       0       0       0       0       0
       0       0       0       0       0       0       0       0
       0       0       0       0       0       0       0       0
       0       0       0       0       0       0       0       0
       0       0       0       0       0       0       0       0
       0       0       0       0       0       0       0       0
       0       0       0       0       0       0       0       0
       0       0       0       0       0       0       0       0
       0       0       0       0       0       0       0       0
       0       0       0       0       0       0       0       0
       0       0       0       0       0       0       0       0
       0       0       0       0       0       0       0       0
       0       0       0       0       0       0       0       0
       0       0       0       0       0       0       0       0
       0       0       0       0       0       0       0       0
       0       0       0       0       0       0       0       0
       0       0       0       0       0       0       0       0
       0       0       0       0       0       0       0       0
       0       0       0       0       0       0       0       0
       0       0       0       0       0       0       0       0
       0       0       0       0       0       0       0       0
       0       0       0       0       0       0       0       0
       0       0       0       0       0       0       0       0
       0       0       0       0       0       0       0       0
       0       0       0       0       0       0       0       0
       0       0       0       0       0       0       0       0
       0       0       0       0       0       0       0       0
       0       0       0       0       0       0       0       0
       0       0       0       0       0       0       0       0
       0       0       0       0       0       0       0       0
       0       0       0       0       0       0       0       0
       0       0       0       0       0       0       0       0
       0       0       0       0       0       0       0       0
       0       0       0       0       0       0       0       0
       0       0       0       0       0       0       0       0
       0       0       0       0       0       0       0       0
       0       0       0       0       0       0       0       0
       0       0       0       0       0       0       0       0
       0       0       0       0       0       0       0       0
       0       0       0       0       0       0       0       0
       0       0       0       0       0       0       0       0
       0       0       0       0       0       0       0       0
       0       0       0       0       0       0       0       0
       0       0       0       0       0       0       0       0
       0       0       0       0       0       0       0       0
       0       0       0       0       0       0       0       0
       0       0       0       0       0       0       0       0
       0       0       0       0       0       0       0       0
       0       0       0       0       0       0       0       0
       0       0       0       0       0       0       0       0
       0       0       0       0       0       0       0       0
       0       0       0       0       0       0       0       0
       0       0       0       0       0       0       0       0
       0       0       0       0       0       0       0       0
       0       0       0       0       0       0       0       0
       0       0       0       0       0       0       0       0
       0       0       0       0       0       0       0       0
       0       0       0       0       0       0       0       0
       0       0       0       0       0       0       0       0
       0       0       0       0       0       0       0       0
       0       0       0       0       0       0       0       0
       0       0       0       0       0       0       0       0
       0       0       0       0       0       0       0       0
       0       0       0       0       0       0       0       0
       0       0       0       0       0       0       0       0
       0       0       0       0       0       0       0       0
       0       0       0       0       0       0       0       0
       0       0       0       0       0       0       0       0
       0       0       0       0       0       0       0       0
       0       0       0       0       0       0       0       0
       0       0       0       0       0       0       0       0
       0       0       0       0       0       0       0       0
       0       0       0       0       0       0       0       0
       0       0       0       0       0       0       0       0
       0       0       0       0       0       0       0       0
       0       0       0       0       0       0       0       0
       0       0       0       0       0       0       0       0
       0       0       0       0       0       0       0       0
       0       0       0       0       0       0       0       0
       0       0       0       0       0       0       0       0
       0       0       0       0       0       0       0       0
       0       0       0       0       0       0       0       0
       0       0       0       0       0       0       0       0
       0       0       0       0       0       0       0       0
       0       0       0       0       0       0       0       0
       0       0       0       0       0       0       0       0
       0       0       0       0       0       0       0       0
       0       0       0       0       0       0       0       0
       0       0       0       0       0       0       0       0
       0       0       0       0       0       0       0       0
       0       0       0       0       0       0       0       0
       0       0       0       0       0       0       0       0
       0       0       0       0       0       0       0       0
       0       0       0       0       0       0       0       0
       0       0       0       0       0       0       0       0
       0       0       0       0       0       0       0       0
       0       0       0       0       0       0       0       0
       0       0       0       0       0       0       0       0
       0       0       0       0       0       0       0       0
       0       0       0       0       0       0       0       0
       0       0       0       0       0       0       0       0
       0       0       0       0       0       0       0       0
       0       0       0       0       0       0       0       0
       0       0       0       0       0       0       0       0
       0       0       0       0       0       0       0       0
       0       0       0       0       0       0       0       0
       0       0       0       0       0       0       0       0
       0       0       0       0       0       0       0       0
       0       0       0       0       0       0       0       0
       0       0       0       0       0       0       0       0
       0       0       0       0       0       0       0       0
       0       0       0       0       0       0       0       0
       0       0       0       0       0       0       0       0
       0       0       0       0       0       0       0       0
       0       0       0       0       0       0       0       0
       0       0       0       0       0       0       0       0
       0       0       0       0       0       0       0       0
       0       0       0       0       0       0       0       0
       0       0       0       0       0       0       0       0
       0       0       0       0       0       0       0       0
       0       0       0       0       0       0       0       0
       0       0       0       0       0       0       0       0
       0       0       0       0       0       0       0       0
       0       0       0       0       0       0       0       0
       0       0       0       0       0       0       0       0
       0       0       0       0       0       0       0       0
       0       0       0       0       0       0       0       0
       0       0       0       0       0       0       0       0
       0       0       0       0       0       0       0       0
       0       0       0       0       0       0       0       0
       0       0       0       0       0       0       0       0
       0       0       0       0       0       0       0       0
       0       0       0       0       0       0       0       0
       0       0       0       0       0       0       0       0
       0       0       0       0       0       0       0       0
       0       0       0       0       0       0       0       0
       0       0       0       0       0       0       0       0
       0       0       0       0       0       0       0       0
       0       0       0       0       0       0       0       0
       0       0       0       0       0       0       0       0
       0       0       0       0       0       0       0       0
       0       0       0       0       0       0       0       0
       0       0       0       0       0       0       0       0
       0       0       0       0       0       0       0       0
       0       0       0       0       0       0       0       0
       0       0       0       0       0       0       0       0
       0       0       0       0       0       0       0       0
       0       0       0       0       0       0       0       0
       0       0       0       0       0       0       0       0
       0       0       0       0       0       0       0       0
       0       0       0       0       0       0       0       0
       0       0       0       0       0       0       0       0
       0       0       0       0       0       0       0       0
       0       0       0       0       0       0       0       0
       0       0       0       0       0       0       0       0
       0       0       0       0       0       0       0       0
       0       0       0       0       0       0       0       0
       0       0       0       0       0       0       0       0
       0       0       0       0       0       0       0       0
       0       0       0       0       0       0       0       0
       0       0       0       0       0       0       0       0
       0       0       0       0       0       0       0       0
       0       0       0       0       0       0       0       0
       0       0       0       0       0       0       0       0
       0       0       0       0       0       0       0       0
       0       0       0       0       0       0       0       0
       0       0       0       0       0       0       0       0
       0       0       0       0       0       0       0       0
       0       0       0       0       0       0       0       0
       0       0       0       0       0       0       0       0
       0       0       0       0       0       0       0       0
       0       0       0       0       0       0       0       0
       0       0       0       0       0       0       0       0
       0       0       0       0       0       0       0       0
       0       0       0       0       0       0       0       0
       0       0       0       0       0       0       0       0
       0       0       0       0       0       0       0       0
       0       0       0       0       0       0       0       0
       0       0       0       0       0       0       0       0
       0       0       0       0       0       0       0       0
       0       0       0       0       0       0       0       0
       0       0       0       0       0       0       0       0
       0       0       0       0       0       0       0       0
       0       0       0       0       0       0       0       0
       0       0       0       0       0       0       0       0
       0       0       0       0       0       0       0       0
       0       0       0       0       0       0       0       0
       0       0       0       0       0       0       0       0
       0       0       0       0       0       0       0       0
       0       0       0       0       0       0       0       0
       0       0       0       0       0       0       0       0
       0       0       0       0       0       0       0       0
       0       0       0       0       0       0       0       0
       0       0       0       0       0       0       0       0
       0       0       0       0       0       0       0       0
       0       0       0       0       0       0       0       0
       0       0       0       0       0       0       0       0
       0       0       0       0       0       0       0       0
       0       0       0       0       0       0       0       0
       0       0       0       0       0       0       0       0
       0       0       0       0       0       0       0       0
       0       0       0       0       0       0       0       0
       0       0       0       0       0       0       0       0
       0       0       0       0       0       0       0       0
       0       0       0       0       0       0       0       0
       0       0       0       0       0       0       0       0
       0       0       0       0       0       0       0       0
       0       0       0       0       0       0       0       0
       0       0       0       0       0       0       0       0
       0       0       0       0       0       0       0       0
       0       0       0       0       0       0       0       0
       0       0       0       0       0       0       0       0
       0       0       0       0       0       0       0       0
       0       0       0       0       0       0       0       0
       0       0       0       0       0       0       0       0
       0       0       0       0       0       0       0       0
       0       0       0       0       0       0       0       0
       0       0       0       0       0       0       0       0
       0       0       0       0       0       0       0       0
       0       0       0       0       0       0       0       0
       0       0       0       0       0       0       0       0
       0       0       0       0       0       0       0       0
       0       0       0       0       0       0       0       0
       0       0       0       0       0       0       0       0
       0       0       0       0       0       0       0       0
       0       0       0       0       0       0       0       0
       0       0       0       0       0       0       0       0
       0       0       0       0       0       0       0       0
       0       0       0       0       0       0       0       0
       0       0       0       0       0       0       0       0
       0       0       0       0       0       0       0       0
       0       0       0       0       0       0       0       0
       0       0       0       0       0       0       0       0
       0       0       0       0       0       0       0       0
       0       0       0       0       0       0       0       0
       0       0       0       0       0       0       0       0
       0       0       0       0       0       0       0       0
       0       0       0       0       0       0       0       0
       0       0       0       0       0       0       0       0
       0       0       0       0       0       0       0       0
       0       0       0       0       0       0       0       0
       0       0       0       0       0       0       0       0
       0       0       0       0       0       0       0       0
       0       0       0       0       0       0       0       0
       0       0       0       0       0       0       0       0
       0       0       0       0       0       0       0       0
       0       0       0       0       0       0       0       0
       0       0       0       0       0       0       0       0
       0       0       0       0       0       0       0       0
       0       0       0       0       0       0       0       0
       0       0       0       0       0       0       0       0
       0       0       0       0       0       0       0       0
       0       0       0       0       0       0       0       0
       0       0       0       0       0       0       0       0
       0       0       0       0       0       0       0       0
       0       0       0       0       0       0       0       0
       0       0       0       0       0       0       0       0
       0       0       0       0       0       0       0       0
       0       0       0       0       0       0       0       0
       0       0       0       0       0       0       0       0
       0       0       0       0       0       0       0       0
       0       0       0       0       0       0       0       0
       0       0       0       0       0       0       0       0
       0       0       0       0       0       0       0       0
       0       0       0       0       0       0       0       0
       0       0       0       0       0       0       0       0
       0       0       0       0       0       0       0       0
       0       0       0       0       0       0       0       0
       0       0       0       0       0       0       0       0
       0       0       0       0       0       0       0       0
       0       0       0       0       0       0       0       0
       0       0       0       0       0       0       0       0
       0       0       0       0       0       0       0       0
       0       0       0       0       0       0       0       0
       0       0       0       0       0       0       0       0
       0       0       0       0       0       0       0       0
       0       0       0       0       0       0       0       0
       0       0       0       0       0       0       0       0
       0       0       0       0       0       0       0       0
       0       0       0       0       0       0       0       0
       0       0       0       0       0       0       0       0
       0       0       0       0       0       0       0       0
       0       0       0       0       0       0       0       0
       0       0       0       0       0       0       0       0
       0       0       0       0       0       0       0       0
       0       0       0       0       0       0       0       0
       0       0       0       0       0       0       0       0
       0       0       0       0       0       0       0       0
       0       0       0       0       0       0       0       0
       0       0       0       0       0       0       0       0
       0       0       0       0       0       0       0       0
       0       0       0       0       0       0       0       0
       0       0       0       0       0       0       0       0
       0       0       0       0       0       0       0       0
       0       0       0       0       0       0       0       0
       0       0       0       0       0       0       0       0
       0       0       0       0       0       0       0       0
       0       0       0       0       0       0       0       0
       0       0       0       0       0       0       0       0
       0       0       0       0       0       0       0       0
       0       0       0       0       0       0       0       0
       0       0       0       0       0       0       0       0
       0       0       0       0       0       0       0       0
       0       0       0       0       0       0       0       0
       0       0       0       0       0       0       0       0
       0       0       0       0       0       0       0       0
       0       0       0       0       0       0       0       0
       0       0       0       0       0       0       0       0
       0       0       0       0       0       0       0       0
       0       0       0       0       0       0       0       0
       0       0       0       0       0       0       0       0
       0       0       0       0       0       0       0       0
       0       0       0       0       0       0       0       0
       0       0       0       0       0       0       0       0
       0       0       0       0       0       0       0       0
       0       0       0       0       0       0       0       0
       0       0       0       0       0       0       0       0
       0       0       0       0       0       0       0       0
       0       0       0       0       0       0       0       0
       0       0       0       0       0       0       0       0
       0       0       0       0       0       0       0       0
       0       0       0       0       0       0       0       0
       0       0       0       0       0       0       0       0
       0       0       0       0       0       0       0       0
       0       0       0       0       0       0       0       0
       0       0       0       0       0       0       0       0
       0       0       0       0       0       0       0       0
       0       0       0       0       0       0       0       0
       0       0       0       0       0       0       0       0
       0       0       0       0       0       0       0       0
       0       0       0       0       0       0       0       0
       0       0       0       0       0       0       0       0
       0       0       0       0       0       0       0       0
       0       0       0       0       0       0       0       0
       0       0       0       0       0       0       0       0
       0       0       0       0       0       0       0       0
       0       0       0       0       0       0       0       0
       0       0       0       0       0       0       0       0
       0       0       0       0       0       0       0       0
       0       0       0       0       0       0       0       0
       0       0       0       0       0       0       0       0
       0       0       0       0       0       0       0       0
       0       0       0       0       0       0       0       0
       0       0       0       0       0       0       0       0
       0       0       0       0       0       0       0       0
       0       0       0       0       0       0       0       0
       0       0       0       0       0       0       0       0
       0       0       0       0       0       0       0       0
       0       0       0       0       0       0       0       0
       0       0       0       0       0       0       0       0
       0       0       0       0       0       0       0       0
       0       0       0       0       0       0       0       0
       0       0       0       0       0       0       0       0
       0       0       0       0       0       0       0       0
       0       0       0       0       0       0       0       0
       0       0       0       0       0       0       0       0
       0       0       0       0       0       0       0       0
       0       0       0       0       0       0       0       0
       0       0       0       0       0       0       0       0
       0       0       0       0       0       0       0       0
       0       0       0       0       0       0       0       0
       0       0       0       0       0       0       0       0
       0       0       0       0       0       0       0       0
       0       0       0       0       0       0       0       0
       0       0       0       0       0       0       0       0
       0       0       0       0       0       0       0       0
       0       0       0       0       0       0       0       0
       0       0       0       0       0       0       0       0
       0       0       0       0       0       0       0       0
       0       0       0       0       0       0       0       0
       0       0       0       0       0       0       0       0
       0       0       0       0       0       0       0       0
       0       0       0       0       0       0       0       0
       0       0       0       0       0       0       0       0
       0       0       0       0       0       0       0       0
       0       0       0       0       0       0       0       0
       0       0       0       0       0       0       0       0
       0       0       0       0       0       0       0       0
       0       0       0       0       0       0       0       0
       0       0       0       0       0       0       0       0
       0       0       0       0       0       0       0       0
       0       0       0       0       0       0       0       0
       0       0       0       0       0       0       0       0
       0       0       0       0       0       0       0       0
       0       0       0       0       0       0       0       0
       0       0       0       0       0       0       0       0
       0       0       0       0       0       0       0       0
       0       0       0       0       0       0       0       0
       0       0       0       0       0       0       0       0
       0       0       0       0       0       0       0       0
       0       0       0       0       0       0       0       0
       0       0       0       0       0       0       0       0
       0       0       0       0       0       0       0       0
       0       0       0       0       0       0       0       0
       0       0       0       0       0       0       0       0
       0       0       0       0       0       0       0       0
       0       0       0       0       0       0       0       0
       0       0       0       0       0       0       0       0
       0       0       0       0       0       0       0       0
       0       0       0       0       0       0       0       0
       0       0       0       0       0       0       0       0
       0       0       0       0       0       0       0       0
       0       0       0       0       0       0       0       0
       0       0       0       0       0       0       0       0
       0       0       0       0       0       0       0       0
       0       0       0       0       0       0       0       0
       0       0       0       0       0       0       0       0
       0       0       0       0       0       0       0       0
       0       0       0       0       0       0       0       0
       0       0       0       0       0       0       0       0
       0       0       0       0       0       0       0       0
       0       0       0       0       0       0       0       0
       0       0       0       0       0       0       0       0
       0       0       0       0       0       0       0       0
       0       0       0       0       0       0       0       0
       0       0       0       0       0       0       0       0
       0       0       0       0       0       0       0       0
       0       0       0       0       0       0       0       0
       0       0       0       0       0       0       0       0
       0       0       0       0       0       0       0       0
       0       0       0       0       0       0       0       0
       0       0       0       0       0       0       0       0
       0       0       0       0       0       0       0       0
       0       0       0       0       0       0       0       0
       0       0       0       0       0       0       0       0
       0       0       0       0       0       0       0       0
       0       0       0       0       0       0       0       0
       0       0       0       0       0       0       0       0
       0       0       0       0       0       0       0       0
       0       0       0       0       0       0       0       0
       0       0       0       0       0       0       0       0
       0       0       0       0       0       0       0       0
       0       0       0       0       0       0       0       0
       0       0       0       0       0       0       0       0
       0       0       0       0       0       0       0       0
       0       0       0       0       0       0       0       0
       0       0       0       0       0       0       0       0
       0       0       0       0       0       0       0       0
       0       0       0       0       0       0       0       0
       0       0       0       0       0       0       0       0
       0       0       0       0       0       0       0       0
       0       0       0       0       0       0       0       0
       0       0       0       0       0       0       0       0
       0       0       0       0       0       0       0       0
       0       0       0       0       0       0       0       0
       0       0       0       0       0       0       0       0
       0       0       0       0       0       0       0       0
       0       0       0       0       0       0       0       0
       0       0       0       0       0       0       0       0
       0       0       0       0       0       0       0       0
       0       0       0       0       0       0       0       0
       0       0       0       0       0       0       0       0
       0       0       0       0       0       0       0       0
       0       0       0       0       0       0       0       0
       0       0       0       0       0       0       0       0
       0       0       0       0       0       0       0       0
       0       0       0       0       0       0       0       0
       0       0       0       0       0       0       0       0
       0       0       0       0       0       0       0       0
       0       0       0       0       0       0       0       0
       0       0       0       0       0       0       0       0
       0       0       0       0       0       0       0       0
       0       0       0       0       0       0       0       0
       0       0       0       0       0       0       0       0
       0       0       0       0       0       0       0       0
       0       0       0       0       0       0       0       0
       0       0       0       0       0       0       0       0
       0       0       0       0       0       0       0       0
       0       0       0       0       0       0       0       0
       0       0       0       0       0       0       0       0
       0       0       0       0       0       0       0       0
       0       0       0       0       0       0       0       0
       0       0       0       0       0       0       0       0
       0       0       0       0       0       0       0       0
       0       0       0       0       0       0       0       0
       0       0       0       0       0       0       0       0
       0       0       0       0       0       0       0       0
       0       0       0       0       0       0       0       0
       0       0       0       0       0       0       0       0
       0       0       0       0       0       0       0       0
       0       0       0       0       0       0       0       0
       0       0       0       0       0       0       0       0
       0       0       0       0       0       0       0       0
       0       0       0       0       0       0       0       0
       0       0       0       0       0       0       0       0
       0       0       0       0       0       0       0       0
       0       0       0       0       0       0       0       0
       0       0       0       0       0       0       0       0
       0       0       0       0       0       0       0       0
       0       0       0       0       0       0       0       0
       0       0       0       0       0       0       0       0
       0       0       0       0       0       0       0       0
       0       0       0       0       0       0       0       0
       0       0       0       0       0       0       0       0
       0       0       0       0       0       0       0       0
       0       0       0       0       0       0       0       0
       0       0       0       0       0       0       0       0
       0       0       0       0       0       0       0       0
       0       0       0       0       0       0       0       0
       0       0       0       0       0       0       0       0
       0       0       0       0       0       0       0       0
       0       0       0       0       0       0       0       0
       0       0       0       0       0       0       0       0
       0       0       0       0       0       0       0       0
       0       0       0       0       0       0       0       0
       0       0       0       0       0       0       0       0
       0       0       0       0       0       0       0       0
       0       0       0       0       0       0       0       0
       0       0       0       0       0       0       0       0
       0       0       0       0       0       0       0       0
       0       0       0       0       0       0       0       0
       0       0       0       0       0       0       0       0
       0       0       0       0       0       0       0       0
       0       0       0       0       0       0       0       0
       0       0       0       0       0       0       0       0
       0       0       0       0       0       0       0       0
       0       0       0       0       0       0       0       0
       0       0       0       0       0       0       0       0
       0       0       0       0       0       0       0       0
       0       0       0       0       0       0       0       0
       0       0       0       0       0       0       0       0
       0       0       0       0       0       0       0       0
       0       0       0       0       0       0       0       0
       0       0       0       0       0       0       0       0
       0       0       0       0       0       0       0       0
       0       0       0       0       0       0       0       0
       0       0       0       0       0       0       0       0
       0       0       0       0       0       0       0       0
       0       0       0       0       0       0       0       0
       0       0       0       0       0       0       0       0
       0       0       0       0       0       0       0       0
       0       0       0       0       0       0       0       0
       0       0       0       0       0       0       0       0
       0       0       0       0       0       0       0       0
       0       0       0       0       0       0       0       0
       0       0       0       0       0       0       0       0
       0       0       0       0       0       0       0       0
       0       0       0       0       0       0       0       0
       0       0       0       0       0       0       0       0
       0       0       0       0       0       0       0       0
       0       0       0       0       0       0       0       0
       0       0       0       0       0       0       0       0
       0       0       0       0       0       0       0       0
       0       0       0       0       0       0       0       0
       0       0       0       0       0       0       0       0
       0       0       0       0       0       0       0       0
       0       0       0       0       0       0       0       0
       0       0       0       0       0       0       0       0
       0       0       0       0       0       0       0       0
       0       0       0       0       0       0       0       0
       0       0       0       0       0       0       0       0
       0       0       0       0       0       0       0       0
       0       0       0       0       0       0       0       0
       0       0       0       0       0       0       0       0
       0       0       0       0       0       0       0       0
       0       0       0       0       0       0       0       0
       0       0       0       0       0       0       0       0
       0       0       0       0       0       0       0       0
       0       0       0       0       0       0       0       0
       0       0       0       0       0       0       0       0
       0       0       0       0       0       0       0       0
       0       0       0       0       0       0       0       0
       0       0       0       0       0       0       0       0
       0       0       0       0       0       0       0       0
       0       0       0       0       0       0       0       0
       0       0       0       0       0       0       0       0
       0       0       0       0       0       0       0       0
       0       0       0       0       0       0       0       0
       0       0       0       0       0       0       0       0
       0       0       0       0       0       0       0       0
       0       0       0       0       0       0       0       0
       0       0       0       0       0       0       0       0
       0       0       0       0       0       0       0       0
       0       0       0       0       0       0       0       0
       0       0       0       0       0       0       0       0
       0       0       0       0       0       0       0       0
       0       0       0       0       0       0       0       0
       0       0       0       0       0       0       0       0
       0       0       0       0       0       0       0       0
       0       0       0       0       0       0       0       0
       0       0       0       0       0       0       0       0
       0       0       0       0       0       0       0       0
       0       0       0       0       0       0       0       0
       0       0       0       0       0       0       0       0
       0       0       0       0       0       0       0       0
       0       0       0       0       0       0       0       0
       0       0       0       0       0       0       0       0
       0       0       0       0       0       0       0       0
       0       0       0       0       0       0       0       0
       0       0       0       0       0       0       0       0
       0       0       0       0       0       0       0       0
       0       0       0       0       0       0       0       0
       0       0       0       0       0       0       0       0
       0       0       0       0       0       0       0       0
       0       0       0       0       0       0       0       0
       0       0       0       0       0       0       0       0
       0       0       0       0       0       0       0       0
       0       0       0       0       0       0       0       0
       0       0       0       0       0       0       0       0
       0       0       0       0       0       0       0       0
       0       0       0       0       0       0       0       0
       0       0       0       0       0       0       0       0
       0       0       0       0       0       0       0       0
       0       0       0       0       0       0       0       0
       0       0       0       0       0       0       0       0
       0       0       0       0       0       0       0       0
       0       0       0       0       0       0       0       0
       0       0       0       0       0       0       0       0
       0       0       0       0       0       0       0       0
       0       0       0       0       0       0       0       0
       0       0       0       0       0       0       0       0
       0       0       0       0       0       0       0       0
       0       0       0       0       0       0       0       0
       0       0       0       0       0       0       0       0
       0       0       0       0       0       0       0       0
       0       0       0       0       0       0       0       0
       0       0       0       0       0       0       0       0
       0       0       0       0       0       0       0       0
       0       0       0       0       0       0       0       0
       0       0       0       0       0       0       0       0
       0       0       0       0       0       0       0       0
       0       0       0       0       0       0       0       0
       0       0       0       0       0       0       0       0
       0       0       0       0       0       0       0       0
       0       0       0       0       0       0       0       0
       0       0       0       0       0       0       0       0
       0       0       0       0       0       0       0       0
       0       0       0       0       0       0       0       0
       0       0       0       0       0       0       0       0
       0       0       0       0       0       0       0       0
       0       0       0       0       0       0       0       0
       0       0       0       0       0       0       0       0
       0       0       0       0       0       0       0       0
       0       0       0       0       0       0       0       0
       0       0       0       0       0       0       0       0
       0       0       0       0       0       0       0       0
       0       0       0       0       0       0       0       0
       0       0       0       0       0       0       0       0
       0       0       0       0       0       0       0       0
       0       0       0       0       0       0       0       0
       0       0       0       0       0       0       0       0
       0       0       0       0       0       0       0       0
       0       0       0       0       0       0       0       0
       0       0       0       0       0       0       0       0
       0       0       0       0       0       0       0       0
       0       0       0       0       0       0       0       0
       0       0       0       0       0       0       0       0
       0       0       0       0       0       0       0       0
       0       0       0       0       0       0       0       0
       0       0       0       0       0       0       0       0
       0       0       0       0       0       0       0       0
       0       0       0       0       0       0       0       0
       0       0       0       0       0       0       0       0
       0       0       0       0       0       0       0       0
       0       0       0       0       0       0       0       0
       0       0       0       0       0       0       0       0
       0       0       0       0       0       0       0       0
       0       0       0       0       0       0       0       0
       0       0       0       0       0       0       0       0
       0       0       0       0       0       0       0       0
       0       0       0       0       0       0       0       0
       0       0       0       0       0       0       0       0
       0       0       0       0       0       0       0       0
       0       0       0       0       0       0       0       0
       0       0       0       0       0       0       0       0
       0       0       0       0       0       0       0       0
       0       0       0       0       0       0       0       0
       0       0       0       0       0       0       0       0
       0       0       0       0       0       0       0       0
       0       0       0       0       0       0       0       0
       0       0       0       0       0       0       0       0
       0       0       0       0       0       0       0       0
       0       0       0       0       0       0       0       0
       0       0       0       0       0       0       0       0
       0       0       0       0       0       0       0       0
       0       0       0       0       0       0       0       0
       0       0       0       0       0       0       0       0
       0       0       0       0       0       0       0       0
       0       0       0       0       0       0       0       0
       0       0       0       0       0       0       0       0
       0       0       0       0       0       0       0       0
       0       0       0       0       0       0       0       0
       0       0       0       0       0       0       0       0
       0       0       0       0       0       0       0       0
       0       0       0       0       0       0       0       0
       0       0       0       0       0       0       0       0
       0       0       0       0       0       0       0       0
       0       0       0       0       0       0       0       0
       0       0       0       0       0       0       0       0
       0       0       0       0       0       0       0       0
       0       0       0       0       0       0       0       0
       0       0       0       0       0       0       0       0
       0       0       0       0       0       0       0       0
       0       0       0       0       0       0       0       0
       0       0       0       0       0       0       0       0
       0       0       0       0       0       0       0       0
       0       0       0       0       0       0       0       0
       0       0       0       0       0       0       0       0
       0       0       0       0       0       0       0       0
       0       0       0       0       0       0       0       0
       0       0       0       0       0       0       0       0
       0       0       0       0       0       0       0       0
       0       0       0       0       0       0       0       0
       0       0       0       0       0       0       0       0
       0       0       0       0       0       0       0       0
       0       0       0       0       0       0       0       0
       0       0       0       0       0       0       0       0
       0       0       0       0       0       0       0       0
       0       0       0       0       0       0       0       0
       0       0       0       0       0       0       0       0
       0       0       0       0       0       0       0       0
       0       0       0       0       0       0       0       0
       0       0       0       0       0       0       0       0
       0       0       0       0       0       0       0       0
       0       0       0       0       0       0       0       0
       0       0       0       0       0       0       0       0
       0       0       0       0       0       0       0       0
       0       0       0       0       0       0       0       0
       0       0       0       0       0       0       0       0
       0       0       0       0       0       0       0       0
       0       0       0       0       0       0       0       0
       0       0       0       0       0       0       0       0
       0       0       0       0       0       0       0       0
       0       0       0       0       0       0       0       0
       0       0       0       0       0       0       0       0
       0       0       0       0       0       0       0       0
       0       0       0       0       0       0       0       0
       0       0       0       0       0       0       0       0
       0       0       0       0       0       0       0       0
       0       0       0       0       0       0       0       0
       0       0       0       0       0       0       0       0
       0       0       0       0       0       0       0       0
       0       0       0       0       0       0       0       0
       0       0       0       0       0       0       0       0
       0       0       0       0       0       0       0       0
       0       0       0       0       0       0       0       0
       0       0       0       0       0       0       0       0
       0       0       0       0       0       0       0       0
       0       0       0       0       0       0       0       0
       0       0       0       0       0       0       0       0
       0       0       0       0       0       0       0       0
       0       0       0       0       0       0       0       0
       0       0       0       0       0       0       0       0
       0       0       0       0       0       0       0       0
       0       0       0       0       0       0       0       0
       0       0       0       0       0       0       0       0
       0       0       0       0       0       0       0       0
       0       0       0       0       0       0       0       0
       0       0       0       0       0       0       0       0
       0       0       0       0       0       0       0       0
       0       0       0       0       0       0       0       0
       0       0       0       0       0       0       0       0
       0       0       0       0       0       0       0       0
       0       0       0       0       0       0       0       0
       0       0       0       0       0       0       0       0
       0       0       0       0       0       0       0       0
       0       0       0       0       0       0       0       0
       0       0       0       0       0       0       0       0
       0       0       0       0       0       0       0       0
       0       0       0       0       0       0       0       0
       0       0       0       0       0       0       0       0
       0       0       0       0       0       0       0       0
       0       0       0       0       0       0       0       0
       0       0       0       0       0       0       0       0
       0       0       0       0       0       0       0       0
       0       0       0       0       0       0       0       0
       0       0       0       0       0       0       0       0
       0       0       0       0       0       0       0       0
       0       0       0       0       0       0       0       0
       0       0       0       0       0       0       0       0
       0       0       0       0       0       0       0       0
       0       0       0       0       0       0       0       0
       0       0       0       0       0       0       0       0
       0       0       0       0       0       0       0       0
       0       0       0       0       0       0       0       0
       0       0       0       0       0       0       0       0
       0       0       0       0       0       0       0       0
       0       0       0       0       0       0       0       0
       0       0       0       0       0       0       0       0
       0       0       0       0       0       0       0       0
       0       0       0       0       0       0       0       0
       0       0       0       0       0       0       0       0
       0       0       0       0       0       0       0       0
       0       0       0       0       0       0       0       0
       0       0       0       0       0       0       0       0
       0       0       0       0       0       0       0       0
       0       0       0       0       0       0       0       0
       0       0       0       0       0       0       0       0
       0       0       0       0       0       0       0       0
       0       0       0       0       0       0       0       0
       0       0       0       0       0       0       0       0
       0       0       0       0       0       0       0       0
       0       0       0       0       0       0       0       0
       0       0       0       0       0       0       0       0
       0       0       0       0       0       0       0       0
       0       0       0       0       0       0       0       0
       0       0       0       0       0       0       0       0
       0       0       0       0       0       0       0       0
       0       0       0       0       0       0       0       0
       0       0       0       0       0       0       0       0
       0       0       0       0       0       0       0       0
       0       0       0       0       0       0       0       0
       0       0       0       0       0       0       0       0
       0       0       0       0       0       0       0       0
       0       0       0       0       0       0       0       0
       0       0       0       0       0       0       0       0
       0       0       0       0       0       0       0       0
       0       0       0       0       0       0       0       0
       0       0       0       0       0       0       0       0
       0       0       0       0       0       0       0       0
       0       0       0       0       0       0       0       0
       0       0       0       0       0       0       0       0
       0       0       0       0       0       0       0       0
       0       0       0       0       0       0       0       0
       0       0       0       0       0       0       0       0
       0       0       0       0       0       0       0       0
       0       0       0       0       0       0       0       0
       0       0       0       0       0       0       0       0
       0       0       0       0       0       0       0       0
       0       0       0       0       0       0       0       0
       0       0       0       0       0       0       0       0
       0       0       0       0       0       0       0       0
       0       0       0       0       0       0       0       0
       0       0       0       0       0       0       0       0
       0       0       0       0       0       0       0       0
       0       0       0       0       0       0       0       0
       0       0       0       0       0       0       0       0
       0       0       0       0       0       0       0       0
       0       0       0       0       0       0       0       0
       0       0       0       0       0       0       0       0
       0       0       0       0       0       0       0       0
       0       0       0       0       0       0       0       0
       0       0       0       0       0       0       0       0
       0       0       0       0       0       0       0       0
       0       0       0       0       0       0       0       0
       0       0       0       0       0       0       0       0
       0       0       0       0       0       0       0       0
       0       0       0       0       0       0       0       0
       0       0       0       0       0       0       0       0
       0       0       0       0       0       0       0       0
       0       0       0       0       0       0       0       0
       0       0       0       0       0       0       0       0
       0       0       0       0       0       0       0       0
       0       0       0       0       0       0       0       0
       0       0       0       0       0       0       0       0
       0       0       0       0       0       0       0       0
       0       0       0       0       0       0       0       0
       0       0       0       0       0       0       0       0
       0       0       0       0       0       0       0       0
       0       0       0       0       0       0       0       0
       0       0       0       0       0       0       0       0
       0       0       0       0       0       0       0       0
       0       0       0       0       0       0       0       0
       0       0       0       0       0       0       0       0
       0       0       0       0       0       0       0       0
       0       0       0       0       0       0       0       0
       0       0       0       0       0       0       0       0
       0       0       0       0       0       0       0       0
       0       0       0       0       0       0       0       0
       0       0       0       0       0       0       0       0
       0       0       0       0       0       0       0       0
       0       0       0       0       0       0       0       0
       0       0       0       0       0       0       0       0
       0       0       0       0       0       0       0       0
       0       0       0       0       0       0       0       0
       0       0       0       0       0       0       0       0
       0       0       0       0       0       0       0       0
       0       0       0       0       0       0       0       0
       0       0       0       0       0       0       0       0
       0       0       0       0       0       0       0       0
       0       0       0       0       0       0       0       0
       0       0       0       0       0       0       0       0
       0       0       0       0       0       0       0       0
       0       0       0       0       0       0       0       0
       0       0       0       0       0       0       0       0
       0       0       0       0       0       0       0       0
       0       0       0       0       0       0       0       0
       0       0       0       0       0       0       0       0
       0       0       0       0       0       0       0       0
       0       0       0       0       0       0       0       0
       0       0       0       0       0       0       0       0
       0       0       0       0       0       0       0       0
       0       0       0       0       0       0       0       0
       0       0       0       0       0       0       0       0
       0       0       0       0       0       0       0       0
       0       0       0       0       0       0       0       0
       0       0       0       0       0       0       0       0
       0       0       0       0       0       0       0       0
       0       0       0       0       0       0       0       0
       0       0       0       0       0       0       0       0
       0       0       0       0       0       0       0       0
       0       0       0       0       0       0       0       0
       0       0       0       0       0       0       0       0
       0       0       0       0       0       0       0       0
       0       0       0       0       0       0       0       0
       0       0       0       0       0       0       0       0
       0       0       0       0       0       0       0       0
       0       0       0       0       0       0       0       0
       0       0       0       0       0       0       0       0
       0       0       0       0       0       0       0       0
       0       0       0       0       0       0       0       0
       0       0       0       0       0       0       0       0
       0       0       0       0       0       0       0       0
       0       0       0       0       0       0       0       0
       0       0       0       0       0       0       0       0
       0       0       0       0       0       0       0       0
       0       0       0       0       0       0       0       0
       0       0       0       0       0       0       0       0
       0       0       0       0       0       0       0       0
       0       0       0       0       0       0       0       0
       0       0       0       0       0       0       0       0
       0       0       0       0       0       0       0       0
       0       0       0       0       0       0       0       0
       0       0       0       0       0       0       0       0
       0       0       0       0       0       0       0       0
       0       0       0       0       0       0       0       0
       0       0       0       0       0       0       0       0
       0       0       0       0       0       0       0       0
       0       0       0       0       0       0       0       0
       0       0       0       0       0       0       0       0
       0       0       0       0       0       0       0       0
       0       0       0       0       0       0       0       0
       0       0       0       0       0       0       0       0
       0       0       0       0       0       0       0       0
       0       0       0       0       0       0       0       0
       0       0       0       0       0       0       0       0
       0       0       0       0       0       0       0       0
       0       0       0       0       0       0       0       0
       0       0       0       0       0       0       0       0
       0       0       0       0       0       0       0       0
       0       0       0       0       0       0       0       0
       0       0       0       0       0       0       0       0
       0       0       0       0       0       0       0       0
       0       0       0       0       0       0       0       0
       0       0       0       0       0       0       0       0
       0       0       0       0       0       0       0       0
       0       0       0       0       0       0       0       0
       0       0       0       0       0       0       0       0
       0       0       0       0       0       0       0       0
       0       0       0       0       0       0       0       0
       0       0       0       0       0       0       0       0
       0       0       0       0       0       0       0       0
       0       0       0       0       0       0       0       0
       0       0       0       0       0       0       0       0
       0       0       0       0       0       0       0       0
       0       0       0       0       0       0       0       0
       0       0       0       0       0       0       0       0
       0       0       0       0       0       0       0       0
       0       0       0       0       0       0       0       0
       0       0       0       0       0       0       0       0
       0       0       0       0       0       0       0       0
       0       0       0       0       0       0       0       0
       0       0       0       0       0       0       0       0
       0       0       0       0       0       0       0       0
       0       0       0       0       0       0       0       0
       0       0       0       0       0       0       0       0
       0       0       0       0       0       0       0       0
       0       0       0       0       0       0       0       0
       0       0       0       0       0       0       0       0
       0       0       0       0       0       0       0       0
       0       0       0       0       0       0       0       0
       0       0       0       0       0       0       0       0
       0       0       0       0       0       0       0       0
       0       0       0       0       0       0       0       0
       0       0       0       0       0       0       0       0
       0       0       0       0       0       0       0       0
       0       0       0       0       0       0       0       0
       0       0       0       0       0       0       0       0
       0       0       0       0       0       0       0       0
       0       0       0       0       0       0       0       0
       0       0       0       0       0       0       0       0
       0       0       0       0       0       0       0       0
       0       0       0       0       0       0       0       0
       0       0       0       0       0       0       0       0
       0       0       0       0       0       0       0       0
       0       0       0       0       0       0       0       0
       0       0       0       0       0       0       0       0
       0       0       0       0       0       0       0       0
       0       0       0       0       0       0       0       0
       0       0       0       0       0       0       0       0
       0       0       0       0       0       0       0       0
       0       0       0       0       0       0       0       0
       0       0       0       0       0       0       0       0
       0       0       0       0       0       0       0       0
       0       0       0       0       0       0       0       0
       0       0       0       0       0       0       0       0
       0       0       0       0       0       0       0       0
       0       0       0       0       0       0       0       0
       0       0       0       0       0       0       0       0
       0       0       0       0       0       0       0       0
       0       0       0       0       0       0       0       0
       0       0       0       0       0       0       0       0
       0       0       0       0       0       0       0       0
       0       0       0       0       0       0       0       0
       0       0       0       0       0       0       0       0
       0       0       0       0       0       0       0       0
       0       0       0       0       0       0       0       0
       0       0       0       0       0       0       0       0
       0       0       0       0       0       0       0       0
       0       0       0       0       0       0       0       0
       0       0       0       0       0       0       0       0
       0       0       0       0       0       0       0       0
       0       0       0       0       0       0       0       0
       0       0       0       0       0       0       0       0
       0       0       0       0       0       0       0       0
       0       0       0       0       0       0       0       0
       0       0       0       0       0       0       0       0
       0       0       0       0       0       0       0       0
       0       0       0       0       0       0       0       0
       0       0       0       0       0       0       0       0
       0       0       0       0       0       0       0       0
       0       0       0       0       0       0       0       0
       0       0       0       0       0       0       0       0
       0       0       0       0       0       0       0       0
       0       0       0       0       0       0       0       0
       0       0       0       0       0       0       0       0
       0       0       0       0       0       0       0       0
       0       0       0       0       0       0       0       0
       0       0       0       0       0       0       0       0
       0       0       0       0       0       0       0       0
       0       0       0       0       0       0       0       0
       0       0       0       0       0       0       0       0
       0       0       0       0       0       0       0       0
       0       0       0       0       0       0       0       0
       0       0       0       0       0       0       0       0
       0       0       0       0       0       0       0       0
       0       0       0       0       0       0       0       0
       0       0       0       0       0       0       0       0
       0       0       0       0       0       0       0       0
       0       0       0       0       0       0       0       0
       0       0       0       0       0       0       0       0
       0       0       0       0       0       0       0       0
       0       0       0       0       0       0       0       0
       0       0       0       0       0       0       0       0
       0       0       0       0       0       0       0       0
       0       0       0       0       0       0       0       0
       0       0       0       0       0       0       0       0
       0       0       0       0       0       0       0       0
       0       0       0       0       0       0       0       0
       0       0       0       0       0       0       0       0
       0       0       0       0       0       0       0       0
       0       0       0       0       0       0       0       0
       0       0       0       0       0       0       0       0
       0       0       0       0       0       0       0       0
       0       0       0       0       0       0       0       0
       0       0       0       0       0       0       0       0
       0       0       0       0       0       0       0       0
       0       0       0       0       0       0       0       0
       0       0       0       0       0       0       0       0
       0       0       0       0       0       0       0       0
       0       0       0       0       0       0       0       0
       0       0       0       0       0       0       0       0
       0       0       0       0       0       0       0       0
       0       0       0       0       0       0       0       0
       0       0       0       0       0       0       0       0
       0       0       0       0       0       0       0       0
       0       0       0       0       0       0       0       0
       0       0       0       0       0       0       0       0
       0       0       0       0       0       0       0       0
       0       0       0       0       0       0       0       0
       0       0       0       0       0       0       0       0
       0       0       0       0       0       0       0       0
       0       0       0       0       0       0       0       0
       0       0       0       0       0       0       0       0
       0       0       0       0       0       0       0       0
       0       0       0       0       0       0       0       0
       0       0       0       0       0       0       0       0
       0       0       0       0       0       0       0       0
       0       0       0       0       0       0       0       0
       0       0       0       0       0       0       0       0
       0       0       0       0       0       0       0       0
       0       0       0       0       0       0       0       0
       0       0       0       0       0       0       0       0
       0       0       0       0       0       0       0       0
       0       0       0       0       0       0       0       0
       0       0       0       0       0       0       0       0
       0       0       0       0       0       0       0       0
       0       0       0       0       0       0       0       0
       0       0       0       0       0       0       0       0
       0       0       0       0       0       0       0       0
       0       0       0       0       0       0       0       0
       0       0       0       0       0       0       0       0
       0       0       0       0       0       0       0       0
       0       0       0       0       0       0       0       0
       0       0       0       0       0       0       0       0
       0       0       0       0       0       0       0       0
       0       0       0       0       0       0       0       0
       0       0       0       0       0       0       0       0
       0       0       0       0       0       0       0       0
       0       0       0       0       0       0       0       0
       0       0       0       0       0       0       0       0
       0       0       0       0       0       0       0       0
       0       0       0       0       0       0       0       0
       0       0       0       0       0       0       0       0
       0       0       0       0       0       0       0       0
       0       0       0       0       0       0       0       0
       0       0       0       0       0       0       0       0
       0       0       0       0       0       0       0       0
       0       0       0       0       0       0       0       0
       0       0       0       0       0       0       0       0
       0       0       0       0       0       0       0       0
       0       0       0       0       0       0       0       0
       0       0       0       0       0       0       0       0
       0       0       0       0       0       0       0       0
       0       0       0       0       0       0       0       0
       0       0       0       0       0       0       0       0
       0       0       0       0       0       0       0       0
       0       0       0       0       0       0       0       0
       0       0       0       0       0       0       0       0
       0       0       0       0       0       0       0       0
       0       0       0       0       0       0       0       0
       0       0       0       0       0       0       0       0
       0       0       0       0       0       0       0       0
       0       0       0       0       0       0       0       0
       0       0       0       0       0       0       0       0
       0       0       0       0       0       0       0       0
       0       0       0       0       0       0       0       0
       0       0       0       0       0       0       0       0
       0       0       0       0       0       0       0       0
       0       0       0       0       0       0       0       0
       0       0       0       0       0       0       0       0
       0       0       0       0       0       0       0       0
       0       0       0       0       0       0       0       0
       0       0       0       0       0       0       0       0
       0       0       0       0       0       0       0       0
       0       0       0       0       0       0       0       0
       0       0       0       0       0       0       0       0
       0       0       0       0       0       0       0       0
       0       0       0       0       0       0       0       0
       0       0       0       0       0       0       0       0
       0       0       0       0       0       0       0       0
       0       0       0       0       0       0       0       0
       0       0       0       0       0       0       0       0
       0       0       0       0       0       0       0       0
       0       0       0       0       0       0       0       0
       0       0       0       0       0       0       0       0
       0       0       0       0       0       0       0       0
       0       0       0       0       0       0       0       0
       0       0       0       0       0       0       0       0
       0       0       0       0       0       0       0       0
       0       0       0       0       0       0       0       0
       0       0       0       0       0       0       0       0
       0       0       0       0       0       0       0       0
       0       0       0       0       0       0       0       0
       0       0       0       0       0       0       0       0
       0       0       0       0       0       0       0       0
       0       0       0       0       0       0       0       0
       0       0       0       0       0       0       0       0
       0       0       0       0       0       0       0       0
       0       0       0       0       0       0       0       0
       0       0       0       0       0       0       0       0
       0       0       0       0       0       0       0       0
       0       0       0       0       0       0       0       0
       0       0       0       0       0       0       0       0
       0       0       0       0       0       0       0       0
       0       0       0       0       0       0       0       0
       0       0       0       0       0       0       0       0
       0       0       0       0       0       0       0       0
       0       0       0       0       0       0       0       0
       0       0       0       0       0       0       0       0
       0       0       0       0       0       0       0       0
       0       0       0       0       0       0       0       0
       0       0       0       0       0       0       0       0
       0       0       0       0       0       0       0       0
       0       0       0       0       0       0       0       0
       0       0       0       0       0       0       0       0
       0       0       0       0       0       0       0       0
       0       0       0       0       0       0       0       0
       0       0       0       0       0       0       0       0
       0       0       0       0       0       0       0       0
       0       0       0       0       0       0       0       0
       0       0       0       0       0       0       0       0
       0       0       0       0       0       0       0       0
       0       0       0       0       0       0       0       0
       0       0       0       0       0       0       0       0
       0       0       0       0       0       0       0       0
       0       0       0       0       0       0       0       0
       0       0       0       0       0       0       0       0
       0       0       0       0       0       0       0       0
       0       0       0       0       0       0       0       0
       0       0       0       0       0       0       0       0
       0       0       0       0       0       0       0       0
       0       0       0       0       0       0       0       0
       0       0       0       0       0       0       0       0
       0       0       0       0       0       0       0       0
       0       0       0       0       0       0       0       0
       0       0       0       0       0       0       0       0
       0       0       0       0       0       0       0       0
       0       0       0       0       0       0       0       0
       0       0       0       0       0       0       0       0
       0       0       0       0       0       0       0       0
       0       0       0       0       0       0       0       0
       0       0       0       0       0       0       0       0
       0       0       0       0       0       0       0       0
       0       0       0       0       0       0       0       0
       0       0       0       0       0       0       0       0
       0       0       0       0       0       0       0       0
       0       0       0       0       0       0       0       0
       0       0       0       0       0       0       0       0
       0       0       0       0       0       0       0       0
       0       0       0       0       0       0       0       0
       0       0       0       0       0       0       0       0
       0       0       0       0       0       0       0       0
       0       0       0       0       0       0       0       0
       0       0       0       0       0       0       0       0
       0       0       0       0       0       0       0       0
       0       0       0       0       0       0       0       0
       0       0       0       0       0       0       0       0
       0       0       0       0       0       0       0       0
       0       0       0       0       0       0       0       0
       0       0       0       0       0       0       0       0
       0       0       0       0       0       0       0       0
       0       0       0       0       0       0       0       0
       0       0       0       0       0       0       0       0
       0       0       0       0       0       0       0       0
       0       0       0       0       0       0       0       0
       0       0       0       0       0       0       0       0
       0       0       0       0       0       0       0       0
       0       0       0       0       0       0       0       0
       0       0       0       0       0       0       0       0
       0       0       0       0       0       0       0       0
       0       0       0       0       0       0       0       0
       0       0       0       0       0       0       0       0
       0       0       0       0       0       0       0       0
       0       0       0       0       0       0       0       0
       0       0       0       0       0       0       0       0
       0       0       0       0       0       0       0       0
       0       0       0       0       0       0       0       0
       0       0       0       0       0       0       0       0
       0       0       0       0       0       0       0       0
       0       0       0       0       0       0       0       0
       0       0       0       0       0       0       0       0
       0       0       0       0       0       0       0       0
       0       0       0       0       0       0       0       0
       0       0       0       0       0       0       0       0
       0       0       0       0       0       0       0       0
       0       0       0       0       0       0       0       0
       0       0       0       0       0       0       0       0
       0       0       0       0       0       0       0       0
       0       0       0       0       0       0       0       0
       0       0       0       0       0       0       0       0
       0       0       0       0       0       0       0       0
       0       0       0       0       0       0       0       0
       0       0       0       0       0       0       0       0
       0       0       0       0       0       0       0       0
       0       0       0       0       0       0       0       0
       0       0       0       0       0       0       0       0
       0       0       0       0       0       0       0       0
       0       0       0       0       0       0       0       0
       0       0       0       0       0       0       0       0
       0       0       0       0       0       0       0       0
       0       0       0       0       0       0       0       0
       0       0       0       0       0       0       0       0
       0       0       0       0       0       0       0       0
       0       0       0       0       0       0       0       0
       0       0       0       0       0       0       0       0
       0       0       0       0       0       0       0       0
       0       0       0       0       0       0       0       0
       0       0       0       0       0       0       0       0
       0       0       0       0       0       0       0       0
       0       0       0       0       0       0       0       0
       0       0       0       0       0       0       0       0
       0       0       0       0       0       0       0       0
       0       0       0       0       0       0       0       0
       0       0       0       0       0       0       0       0
       0       0       0       0       0       0       0       0
       0       0       0       0       0       0       0       0
       0       0       0       0       0       0       0       0
       0       0       0       0       0       0       0       0
       0       0       0       0       0       0       0       0
       0       0       0       0       0       0       0       0
       0       0       0       0       0       0       0       0
       0       0       0       0       0       0       0       0
       0       0       0       0       0       0       0       0
       0       0       0       0       0       0       0       0
       0       0       0       0       0       0       0       0
       0       0       0       0       0       0       0       0
       0       0       0       0       0       0       0       0
       0       0       0       0       0       0       0       0
       0       0       0       0       0       0       0       0
       0       0       0       0       0       0       0       0
       0       0       0       0       0       0       0       0
       0       0       0       0       0       0       0       0
       0       0       0       0       0       0       0       0
       0       0       0       0       0       0       0       0
       0       0       0       0       0       0       0       0
       0       0       0       0       0       0       0       0
       0       0       0       0       0       0       0       0
       0       0       0       0       0       0       0       0
       0       0       0       0       0       0       0       0
       0       0       0       0       0       0       0       0
       0       0       0       0       0       0       0       0
       0       0       0       0       0       0       0       0
       0       0       0       0       0       0       0       0
       0       0       0       0       0       0       0       0
       0       0       0       0       0       0       0       0
       0       0       0       0       0       0       0       0
       0       0       0       0       0       0       0       0
       0       0       0       0       0       0       0       0
       0       0       0       0       0       0       0       0
       0       0       0       0       0       0       0       0
       0       0       0       0       0       0       0       0
       0       0       0       0       0       0       0       0
       0       0       0       0       0       0       0       0
       0       0       0       0       0       0       0       0
       0       0       0       0       0       0       0       0
       0       0       0       0       0       0       0       0
       0       0       0       0       0       0       0       0
       0       0       0       0       0       0       0       0
       0       0       0       0       0       0       0       0
       0       0       0       0       0       0       0       0
       0       0       0       0       0       0       0       0
       0       0       0       0       0       0       0       0
       0       0       0       0       0       0       0       0
       0       0       0       0       0       0       0       0
       0       0       0       0       0       0       0       0
       0       0       0       0       0       0       0       0
       0       0       0       0       0       0       0       0
       0       0       0       0       0       0       0       0
       0       0       0       0       0       0       0       0
       0       0       0       0       0       0       0       0
       0       0       0       0       0       0       0       0
       0       0       0       0       0       0       0       0
       0       0       0       0       0       0       0       0
       0       0       0       0       0       0       0       0
       0       0       0       0       0       0       0       0
       0       0       0       0       0       0       0       0
       0       0       0       0       0       0       0       0
       0       0       0       0       0       0       0       0
       0       0       0       0       0       0       0       0
       0       0       0       0       0       0       0       0
       0       0       0       0       0       0       0       0
       0       0       0       0       0       0       0       0
       0       0       0       0       0       0       0       0
       0       0       0       0       0       0       0       0
       0       0       0       0       0       0       0       0
       0       0       0       0       0       0       0       0
       0       0       0       0       0       0       0       0
       0       0       0       0       0       0       0       0
       0       0       0       0       0       0       0       0
       0       0       0       0       0       0       0       0
       0       0       0       0       0       0       0       0
       0       0       0       0       0       0       0       0
       0       0       0       0       0       0       0       0
       0       0       0       0       0       0       0       0
       0       0       0       0       0       0       0       0
       0       0       0       0       0       0       0       0
       0       0       0       0       0       0       0       0
       0       0       0       0       0       0       0       0
       0       0       0       0       0       0       0       0
       0       0       0       0       0       0       0       0
       0       0       0       0       0       0       0       0
       0       0       0       0       0       0       0       0
       0       0       0       0       0       0       0       0
       0       0       0       0       0       0       0       0
       0       0       0       0       0       0       0       0
       0       0       0       0       0       0       0       0
       0       0       0       0       0       0       0       0
       0       0       0       0       0       0       0       0
       0       0       0       0       0       0       0       0
       0       0       0       0       0       0       0       0
       0       0       0       0       0       0       0       0
       0       0       0       0       0       0       0       0
       0       0       0       0       0       0       0       0
       0       0       0       0       0       0       0       0
       0       0       0       0       0       0       0       0
       0       0       0       0       0       0       0       0
       0       0       0       0       0       0       0       0
       0       0       0       0       0       0       0       0
       0       0       0       0       0       0       0       0
       0       0       0       0       0       0       0       0
       0       0       0       0       0       0       0       0
       0       0       0       0       0       0       0       0
       0       0       0       0       0       0       0       0
       0       0       0       0       0       0       0       0
       0       0       0       0       0       0       0       0
       0       0       0       0       0       0       0       0
       0       0       0       0       0       0       0       0
       0       0       0       0       0       0       0       0
       0       0       0       0       0       0       0       0
       0       0       0       0       0       0       0       0
       0       0       0       0       0       0       0       0
       0       0       0       0       0       0       0       0
       0       0       0       0       0       0       0       0
       0       0       0       0       0       0       0       0
       0       0       0       0       0       0       0       0
       0       0       0       0       0       0       0       0
       0       0       0       0       0       0       0       0
       0       0       0       0       0       0       0       0
       0       0       0       0       0       0       0       0
       0       0       0       0       0       0       0       0
       0       0       0       0       0       0       0       0
       0       0       0       0       0       0       0       0
       0       0       0       0       0       0       0       0
       0       0       0       0       0       0       0       0
       0       0       0       0       0       0       0       0
       0       0       0       0       0       0       0       0
       0       0       0       0       0       0       0       0
       0       0       0       0       0       0       0       0
       0       0       0       0       0       0       0       0
       0       0       0       0       0       0       0       0
       0       0       0       0       0       0       0       0
       0       0       0       0       0       0       0       0
       0       0       0       0       0       0       0       0
       0       0       0       0       0       0       0       0
       0       0       0       0       0       0       0       0
       0       0       0       0       0       0       0       0
       0       0       0       0       0       0       0       0
       0       0       0       0       0       0       0       0
       0       0       0       0       0       0       0       0
       0       0       0       0       0       0       0       0
       0       0       0       0       0       0       0       0
       0       0       0       0       0       0       0       0
       0       0       0       0       0       0       0       0
       0       0       0       0       0       0       0       0
       0       0       0       0       0       0       0       0
       0       0       0       0       0       0       0       0
       0       0       0       0       0       0       0       0
       0       0       0       0       0       0       0       0
       0       0       0       0       0       0       0       0
       0       0       0       0       0       0       0       0
       0       0       0       0       0       0       0       0
       0       0       0       0       0       0       0       0
       0       0       0       0       0       0       0       0
       0       0       0       0       0       0       0       0
       0       0       0       0       0       0       0       0
       0       0       0       0       0       0       0       0
       0       0       0       0       0       0       0       0
       0       0       0       0       0       0       0       0
       0       0       0       0       0       0       0       0
       0       0       0       0       0       0       0       0
       0       0       0       0       0       0       0       0
       0       0       0       0       0       0       0       0
       0       0       0       0       0       0       0       0
       0       0       0       0       0       0       0       0
       0       0       0       0       0       0       0       0
       0       0       0       0       0       0       0       0
       0       0       0       0       0       0       0       0
       0       0       0       0       0       0       0       0
       0       0       0       0       0       0       0       0
       0       0       0       0       0       0       0       0
       0       0       0       0       0       0       0       0
       0       0       0       0       0       0       0       0
       0       0       0       0       0       0       0       0
       0       0       0       0       0       0       0       0
       0       0       0       0       0       0       0       0
       0       0       0       0       0       0       0       0
       0       0       0       0       0       0       0       0
       0       0       0       0       0       0       0       0
       0       0       0       0       0       0       0       0
       0       0       0       0       0       0       0       0
       0       0       0       0       0       0       0       0
       0       0       0       0       0       0       0       0
       0       0       0       0       0       0       0       0
       0       0       0       0       0       0       0       0
       0       0       0       0       0       0       0       0
       0       0       0       0       0       0       0       0
       0       0       0       0       0       0       0       0
       0       0       0       0       0       0       0       0
       0       0       0       0       0       0       0       0
       0       0       0       0       0       0       0       0
       0       0       0       0       0       0       0       0
       0       0       0       0       0       0       0       0
       0       0       0       0       0       0       0       0
       0       0       0       0       0       0       0       0
       0       0       0       0       0       0       0       0
       0       0       0       0       0       0       0       0
       0       0       0       0       0       0       0       0
       0       0       0       0       0       0       0       0
       0       0       0       0       0       0       0       0
       0       0       0       0       0       0       0       0
       0       0       0       0       0       0       0       0
       0       0       0       0       0       0       0       0
       0       0       0       0       0       0       0       0
       0       0       0       0       0       0       0       0
       0       0       0       0       0       0       0       0
       0       0       0       0       0       0       0       0
       0       0       0       0       0       0       0       0
       0       0       0       0       0       0       0       0
       0       0       0       0       0       0       0       0
       0       0       0       0       0       0       0       0
       0       0       0       0       0       0       0       0
       0       0       0       0       0       0       0       0
       0       0       0       0       0       0       0       0
       0       0       0       0       0       0       0       0
       0       0       0       0       0       0       0       0
       0       0       0       0       0       0       0       0
       0       0       0       0       0       0       0       0
       0       0       0       0       0       0       0       0
       0       0       0       0       0       0       0       0
       0       0       0       0       0       0       0       0
       0       0       0       0       0       0       0       0
       0       0       0       0       0       0       0       0
       0       0       0       0       0       0       0       0
       0       0       0       0       0       0       0       0
       0       0       0       0       0       0       0       0
       0       0       0       0       0       0       0       0
       0       0       0       0       0       0       0       0
       0       0       0       0       0       0       0       0
       0       0       0       0       0       0       0       0
       0       0       0       0       0       0       0       0
       0       0       0       0       0       0       0       0
       0       0       0       0       0       0       0       0
       0       0       0       0       0       0       0       0
       0       0       0       0       0       0       0       0
       0       0       0       0       0       0       0       0
       0       0       0       0       0       0       0       0
       0       0       0       0       0       0       0       0
       0       0       0       0       0       0       0       0
       0       0       0       0       0       0       0       0
       0       0       0       0       0       0       0       0
       0       0       0       0       0       0       0       0
       0       0       0       0       0       0       0       0
       0       0       0       0       0       0       0       0
       0       0       0       0       0       0       0       0
       0       0       0       0       0       0       0       0
       0       0       0       0       0       0       0       0
       0       0       0       0       0       0       0       0
       0       0       0       0       0       0       0       0
       0       0       0       0       0       0       0       0
       0       0       0       0       0       0       0       0
       0       0       0       0       0       0       0       0
       0       0       0       0       0       0       0       0
       0       0       0       0       0       0       0       0
       0       0       0       0       0       0       0       0
       0       0       0       0       0       0       0       0
       0       0       0       0       0       0       0       0
       0       0       0       0       0       0       0       0
       0       0       0       0       0       0       0       0
       0       0       0       0       0       0       0       0
       0       0       0       0       0       0       0       0
       0       0       0       0       0       0       0       0
       0       0       0       0       0       0       0       0
       0       0       0       0       0       0       0       0
       0       0       0       0       0       0       0       0
       0       0       0       0       0       0       0       0
       0       0       0       0       0       0       0       0
       0       0       0       0       0       0       0       0
       0       0       0       0       0       0       0       0
       0       0       0       0       0       0       0       0
       0       0       0       0       0       0       0       0
       0       0       0       0       0       0       0       0
       0       0       0       0       0       0       0       0
       0       0       0       0       0       0       0       0
       0       0       0       0       0       0       0       0
       0       0       0       0       0       0       0       0
       0       0       0       0       0       0       0       0
       0       0       0       0       0       0       0       0
       0       0       0       0       0       0       0       0
       0       0       0       0       0       0       0       0
       0       0       0       0       0       0       0       0
       0       0       0       0       0       0       0       0
       0       0       0       0       0       0       0       0
       0       0       0       0       0       0       0       0
       0       0       0       0       0       0       0       0
       0       0       0       0       0       0       0       0
       0       0       0       0       0       0       0       0
       0       0       0       0       0       0       0       0
       0       0       0       0       0       0       0       0
       0       0       0       0       0       0       0       0
       0       0       0       0       0       0       0       0
       0       0       0       0       0       0       0       0
       0       0       0       0       0       0       0       0
       0       0       0       0       0       0       0       0
       0       0       0       0       0       0       0       0
       0       0       0       0       0       0       0       0
       0       0       0       0       0       0       0       0
       0       0       0       0       0       0       0       0
       0       0       0       0       0       0       0       0
       0       0       0       0       0       0       0       0
       0       0       0       0       0       0       0       0
       0       0       0       0       0       0       0       0
       0       0       0       0       0       0       0       0
       0       0       0       0       0       0       0       0
       0       0       0       0       0       0       0       0
       0       0       0       0       0       0       0       0
       0       0       0       0       0       0       0       0
       0       0       0       0       0       0       0       0
       0       0       0       0       0       0       0       0
       0       0       0       0       0       0       0       0
       0       0       0       0       0       0       0       0
       0       0       0       0       0       0       0       0
       0       0       0       0       0       0       0       0
       0       0       0       0       0       0       0       0
       0       0       0       0       0       0       0       0
       0       0       0       0       0       0       0       0
       0       0       0       0       0       0       0       0
       0       0       0       0       0       0       0       0
       0       0       0       0       0       0       0       0
       0       0       0       0       0       0       0       0
       0       0       0       0       0       0       0       0
       0       0       0       0       0       0       0       0
       0       0       0       0       0       0       0       0
       0       0       0       0       0       0       0       0
       0       0       0       0       0       0       0       0
       0       0       0       0       0       0       0       0
       0       0       0       0       0       0       0       0
       0       0       0       0       0       0       0       0
       0       0       0       0       0       0       0       0
       0       0       0       0       0       0       0       0
       0       0       0       0       0       0       0       0
       0       0       0       0       0       0       0       0
       0       0       0       0       0       0       0       0
       0       0       0       0       0       0       0       0
       0       0       0       0       0       0       0       0
       0       0       0       0       0       0       0       0
       0       0       0       0       0       0       0       0
       0       0       0       0       0       0       0       0
       0       0       0       0       0       0       0       0
       0       0       0       0       0       0       0       0
       0       0       0       0       0       0       0       0
       0       0       0       0       0       0       0       0
       0       0       0       0       0       0       0       0
       0       0       0       0       0       0       0       0
       0       0       0       0       0       0       0       0
       0       0       0       0       0       0       0       0
       0       0       0       0       0       0       0       0
       0       0       0       0       0       0       0       0
       0       0       0       0       0       0       0       0
       0       0       0       0       0       0       0       0
       0       0       0       0       0       0       0       0
       0       0       0       0       0       0       0       0
       0       0       0       0       0       0       0       0
       0       0       0       0       0       0       0       0
       0       0       0       0       0       0       0       0
       0       0       0       0       0       0       0       0
       0       0       0       0       0       0       0       0
       0       0       0       0       0       0       0       0
       0       0       0       0       0       0       0       0
       0       0       0       0       0       0       0       0
       0       0       0       0       0       0       0       0
       0       0       0       0       0       0       0       0
       0       0       0       0       0       0       0       0
       0       0       0       0       0       0       0       0
       0       0       0       0       0       0       0       0
       0       0       0       0       0       0       0       0
       0       0       0       0       0       0       0       0
       0       0       0       0       0       0       0       0
       0       0       0       0       0       0       0       0
       0       0       0       0       0       0       0       0
       0       0       0       0       0       0       0       0
       0       0       0       0       0       0       0       0
       0       0       0       0       0       0       0       0
       0       0       0       0       0       0       0       0
       0       0       0       0       0       0       0       0
       0       0       0       0       0       0       0       0
       0       0       0       0       0       0       0       0
       0       0       0       0       0       0       0       0
       0       0       0       0       0       0       0       0
       0       0       0       0       0       0       0       0
       0       0       0       0       0       0       0       0
       0       0       0       0       0       0       0       0
       0       0       0       0       0       0       0       0
       0       0       0       0       0       0       0       0
       0       0       0       0       0       0       0       0
       0       0       0       0       0       0       0       0
       0       0       0       0       0       0       0       0
       0       0       0       0       0       0       0       0
       0       0       0       0       0       0       0       0
       0       0       0       0       0       0       0       0
       0       0       0       0       0       0       0       0
       0       0       0       0       0       0       0       0
       0       0       0       0       0       0       0       0
       0       0       0       0       0       0       0       0
       0       0       0       0       0       0       0       0
       0       0       0       0       0       0       0       0
       0       0       0       0       0       0       0       0
       0       0       0       0       0       0       0       0
       0       0       0       0       0       0       0       0
       0       0       0       0       0       0       0       0
       0       0       0       0       0       0       0       0
       0       0       0       0       0       0       0       0
       0       0       0       0       0       0       0       0
       0       0       0       0       0       0       0       0
       0       0       0       0       0       0       0       0
       0       0       0       0       0       0       0       0
       0       0       0       0       0       0       0       0
       0       0       0       0       0       0       0       0
       0       0       0       0       0       0       0       0
       0       0       0       0       0       0       0       0
       0       0       0       0       0       0       0       0
       0       0       0       0       0       0       0       0
       0       0       0       0       0       0       0       0
       0       0       0       0       0       0       0       0
       0       0       0       0       0       0       0       0
       0       0       0       0       0       0       0       0
       0       0       0       0       0       0       0       0
       0       0       0       0       0       0       0       0
       0       0       0       0       0       0       0       0
       0       0       0       0       0       0       0       0
       0       0       0       0       0       0       0       0
       0       0       0       0       0       0       0       0
       0       0       0       0       0       0       0       0
       0       0       0       0       0       0       0       0
       0       0       0       0       0       0       0       0
       0       0       0       0       0       0       0       0
       0       0       0       0       0       0       0       0
       0       0       0       0       0       0       0       0
       0       0       0       0       0       0       0       0
       0       0       0       0       0       0       0       0
       0       0       0       0       0       0       0       0
       0       0       0       0       0       0       0       0
       0       0       0       0       0       0       0       0
       0       0       0       0       0       0       0       0
       0       0       0       0       0       0       0       0
       0       0       0       0       0       0       0       0
       0       0       0       0       0       0       0       0
       0       0       0       0       0       0       0       0
       0       0       0       0       0       0       0       0
       0       0       0       0       0       0       0       0
       0       0       0       0       0       0       0       0
       0       0       0       0       0       0       0       0
       0       0       0       0       0       0       0       0
       0       0       0       0       0       0       0       0
       0       0       0       0       0       0       0       0
       0       0       0       0       0       0       0       0
       0       0       0       0       0       0       0       0
       0       0       0       0       0       0       0       0
       0       0       0       0       0       0       0       0
       0       0       0       0       0       0       0       0
       0       0       0       0       0       0       0       0
       0       0       0       0       0       0       0       0
       0       0       0       0       0       0       0       0
       0       0       0       0       0       0       0       0
       0       0       0       0       0       0       0       0
       0       0       0       0       0       0       0       0
       0       0       0       0       0       0       0       0
       0       0       0       0       0       0       0       0
       0       0       0       0       0       0       0       0
       0       0       0       0       0       0       0       0
       0       0       0       0       0       0       0       0
       0       0       0       0       0       0       0       0
       0       0       0       0       0       0       0       0
       0       0       0       0       0       0       0       0
       0       0       0       0       0       0       0       0
       0       0       0       0       0       0       0       0
       0       0       0       0       0       0       0       0
       0       0       0       0       0       0       0       0
       0       0       0       0       0       0       0       0
       0       0       0       0       0       0       0       0
       0       0       0       0       0       0       0       0
       0       0       0       0       0       0       0       0
       0       0       0       0       0       0       0       0
       0       0       0       0       0       0       0       0
       0       0       0       0       0       0       0       0
       0       0       0       0       0       0       0       0
       0       0       0       0       0       0       0       0
       0       0       0       0       0       0       0       0
       0       0       0       0       0       0       0       0
       0       0       0       0       0       0       0       0
       0       0       0       0       0       0       0       0
       0       0       0       0       0       0       0       0
       0       0       0       0       0       0       0       0
       0       0       0       0       0       0       0       0
       0       0       0       0       0       0       0       0
       0       0       0       0       0       0       0       0
       0       0       0       0       0       0       0       0
       0       0       0       0       0       0       0       0
       0       0       0       0       0       0       0       0
       0       0       0       0       0       0       0       0
       0       0       0       0       0       0       0       0
       0       0       0       0       0       0       0       0
       0       0       0       0       0       0       0       0
       0       0       0       0       0       0       0       0
       0       0       0       0       0       0       0       0
       0       0       0       0       0       0       0       0
       0       0       0       0       0       0       0       0
       0       0       0       0       0       0       0       0
       0       0       0       0       0       0       0       0
       0       0       0       0       0       0       0       0
       0       0       0       0       0       0       0       0
       0       0       0       0       0       0       0       0
       0       0       0       0       0       0       0       0
       0       0       0       0       0       0       0       0
       0       0       0       0       0       0       0       0
       0       0       0       0       0       0       0       0
       0       0       0       0       0       0       0       0
       0       0       0       0       0       0       0       0
       0       0       0       0       0       0       0       0
       0       0       0       0       0       0       0       0
       0       0       0       0       0       0       0       0
       0       0       0       0       0       0       0       0
       0       0       0       0       0       0       0       0
       0       0       0       0       0       0       0       0
       0       0       0       0       0       0       0       0
       0       0       0       0       0       0       0       0
       0       0       0       0       0       0       0       0
       0       0       0       0       0       0       0       0
       0       0       0       0       0       0       0       0
       0       0       0       0       0       0       0       0
       0       0       0       0       0       0       0       0
       0       0       0       0       0       0       0       0
       0       0       0       0       0       0       0       0
       0       0       0       0       0       0       0       0
       0       0       0       0       0       0       0       0
       0       0       0       0       0       0       0       0
       0       0       0       0       0       0       0       0
       0       0       0       0       0       0       0       0
       0       0       0       0       0       0       0       0
       0       0       0       0       0       0       0       0
       0       0       0       0       0       0       0       0
       0       0       0       0       0       0       0       0
       0       0       0       0       0       0       0       0
       0       0       0       0       0       0       0       0
       0       0       0       0       0       0       0       0
       0       0       0       0       0       0       0       0
       0       0       0       0       0       0       0       0
       0       0       0       0       0       0       0       0
       0       0       0       0       0       0       0       0
       0       0       0       0       0       0       0       0
       0       0       0       0       0       0       0       0
       0       0       0       0       0       0       0       0
       0       0       0       0       0       0       0       0
       0       0       0       0       0       0       0       0
       0       0       0       0       0       0       0       0
       0       0       0       0       0       0       0       0
       0       0       0       0       0       0       0       0
       0       0       0       0       0       0       0       0
       0       0       0       0       0       0       0       0
       0       0       0       0       0       0       0       0
       0       0       0       0       0       0       0       0
       0       0       0       0       0       0       0       0
       0       0       0       0       0       0       0       0
       0       0       0       0       0       0       0       0
       0       0       0       0       0       0       0       0
       0       0       0       0       0       0       0       0
       0       0       0       0       0       0       0       0
       0       0       0       0       0       0       0       0
       0       0       0       0       0       0       0       0
       0       0       0       0       0       0       0       0
       0       0       0       0       0       0       0       0
       0       0       0       0       0       0       0       0
       0       0       0       0       0       0       0       0
       0       0       0       0       0       0       0       0
       0       0       0       0       0       0       0       0
       0       0       0       0       0       0       0       0
       0       0       0       0       0       0       0       0
       0       0       0       0       0       0       0       0
       0       0       0       0       0       0       0       0
       0       0       0       0       0       0       0       0
       0       0       0       0       0       0       0       0
       0       0       0       0       0       0       0       0
       0       0       0       0       0       0       0       0
       0       0       0       0       0       0       0       0
       0       0       0       0       0       0       0       0
       0       0       0       0       0       0       0       0
       0       0       0       0       0       0       0       0
       0       0       0       0       0       0       0       0
       0       0       0       0       0       0       0       0
       0       0       0       0       0       0       0       0
       0       0       0       0       0       0       0       0
       0       0       0       0       0       0       0       0
       0       0       0       0       0       0       0       0
       0       0       0       0       0       0       0       0
       0       0       0       0       0       0       0       0
       0       0       0       0       0       0       0       0
       0       0       0       0       0       0       0       0
       0       0       0       0       0       0       0       0
       0       0       0       0       0       0       0       0
       0       0       0       0       0       0       0       0
       0       0       0       0       0       0       0       0
       0       0       0       0       0       0       0       0
       0       0       0       0       0       0       0       0
       0       0       0       0       0       0       0       0
       0       0       0       0       0       0       0       0
       0       0       0       0       0       0       0       0
       0       0       0       0       0       0       0       0
       0       0       0       0       0       0       0       0
       0       0       0       0       0       0       0       0
       0       0       0       0       0       0       0       0
       0       0       0       0       0       0       0       0
       0       0       0       0       0       0       0       0
       0       0       0       0       0       0       0       0
       0       0       0       0       0       0       0       0
       0       0       0       0       0       0       0       0
       0       0       0       0       0       0       0       0
       0       0       0       0       0       0       0       0
       0       0       0       0       0       0       0       0
       0       0       0       0       0       0       0       0
       0       0       0       0       0       0       0       0
       0       0       0       0       0       0       0       0
       0       0       0       0       0       0       0       0
       0       0       0       0       0       0       0       0
       0       0       0       0       0       0       0       0
       0       0       0       0       0       0       0       0
       0       0       0       0       0       0       0       0
       0       0       0       0       0       0       0       0
       0       0       0       0       0       0       0       0
       0       0       0       0       0       0       0       0
       0       0       0       0       0       0       0       0
       0       0       0       0       0       0       0       0
       0       0       0       0       0       0       0       0
       0       0       0       0       0       0       0       0
       0       0       0       0       0       0       0       0
       0       0       0       0       0       0       0       0
       0       0       0       0       0       0       0       0
       0       0       0       0       0       0       0       0
       0       0       0       0       0       0       0       0
       0       0       0       0       0       0       0       0
       0       0       0       0       0       0       0       0
       0       0       0       0       0       0       0       0
       0       0       0       0       0       0       0       0
       0       0       0       0       0       0       0       0
       0       0       0       0       0       0       0       0
       0       0       0       0       0       0       0       0
       0       0       0       0       0       0       0       0
       0       0       0       0       0       0       0       0
       0       0       0       0       0       0       0       0
       0       0       0       0       0       0       0       0
       0       0       0       0       0       0       0       0
       0       0       0       0       0       0       0       0
       0       0       0       0       0       0       0       0
       0       0       0       0       0       0       0       0
       0       0       0       0       0       0       0       0
       0       0       0       0       0       0       0       0
       0       0       0       0       0       0       0       0
       0       0       0       0       0       0       0       0
       0       0       0       0       0       0       0       0
       0       0       0       0       0       0       0       0
       0       0       0       0       0       0       0       0
       0       0       0       0       0       0       0       0
       0       0       0       0       0       0       0       0
       0       0       0       0       0       0       0       0
       0       0       0       0       0       0       0       0
       0       0       0       0       0       0       0       0
       0       0       0       0       0       0       0       0
       0       0       0       0       0       0       0       0
       0       0       0       0       0       0       0       0
       0       0       0       0       0       0       0       0
       0       0       0       0       0       0       0       0
       0       0       0       0       0       0       0       0
       0       0       0       0       0       0       0       0
       0       0       0       0       0       0       0       0
       0       0       0       0       0       0       0       0
       0       0       0       0       0       0       0       0
       0       0       0       0       0       0       0       0
       0       0       0       0       0       0       0       0
       0       0       0       0       0       0       0       0
       0       0       0       0       0       0       0       0
       0       0       0       0       0       0       0       0
       0       0       0       0       0       0       0       0
       0       0       0       0       0       0       0       0
       0       0       0       0       0       0       0       0
       0       0       0       0       0       0       0       0
       0       0       0       0       0       0       0       0
       0       0       0       0       0       0       0       0
       0       0       0       0       0       0       0       0
       0       0       0       0       0       0       0       0
       0       0       0       0       0       0       0       0
       0       0       0       0       0       0       0       0
       0       0       0       0       0       0       0       0
       0       0       0       0       0       0       0       0
       0       0       0       0       0       0       0       0
       0       0       0       0       0       0       0       0
       0       0       0       0       0       0       0       0
       0       0       0       0       0       0       0       0
       0       0       0       0       0       0       0       0
       0       0       0       0       0       0       0       0
       0       0       0       0       0       0       0       0
       0       0       0       0       0       0       0       0
       0       0       0       0       0       0       0       0
       0       0       0       0       0       0       0       0
       0       0       0       0       0       0       0       0
       0       0       0       0       0       0       0       0
       0       0       0       0       0       0       0       0
       0       0       0       0       0       0       0       0
       0       0       0       0       0       0       0       0
       0       0       0       0       0       0       0       0
       0       0       0       0       0       0       0       0
       0       0       0       0       0       0       0       0
       0       0       0       0       0       0       0       0
       0       0       0       0       0       0       0       0
       0       0       0       0       0       0       0       0
       0       0       0       0       0       0       0       0
       0       0       0       0       0       0       0       0
       0       0       0       0       0       0       0       0
       0       0       0       0       0       0       0       0
       0       0       0       0       0       0       0       0
       0       0       0       0       0       0       0       0
       0       0       0       0       0       0       0       0
       0       0       0       0       0       0       0       0
       0       0       0       0       0       0       0       0
       0       0       0       0       0       0       0       0
       0       0       0       0       0       0       0       0
       0       0       0       0       0       0       0       0
       0       0       0       0       0       0       0       0
       0       0       0       0       0       0       0       0
       0       0       0       0       0       0       0       0
       0       0       0       0       0       0       0       0
       0       0       0       0       0       0       0       0
       0       0       0       0       0       0       0       0
       0       0       0       0       0       0       0       0
       0       0       0       0       0       0       0       0
       0       0       0       0       0       0       0       0
       0       0       0       0       0       0       0       0
       0       0       0       0       0       0       0       0
       0       0       0       0       0       0       0       0
       0       0       0       0       0       0       0       0
       0       0       0       0       0       0       0       0
       0       0       0       0       0       0       0       0
       0       0       0       0       0       0       0       0
       0       0       0       0       0       0       0       0
       0       0       0       0       0       0       0       0
       0       0       0       0       0       0       0       0
       0       0       0       0       0       0       0       0
       0       0       0       0       0       0       0       0
       0       0       0       0       0       0       0       0
       0       0       0       0       0       0       0       0
       0       0       0       0       0       0       0       0
       0       0       0       0       0       0       0       0
       0       0       0       0       0       0       0       0
       0       0       0       0       0       0       0       0
       0       0       0       0       0       0       0       0
       0       0       0       0       0       0       0       0
       0       0       0       0       0       0       0       0
       0       0       0       0       0       0       0       0
       0       0       0       0       0       0       0       0
       0       0       0       0       0       0       0       0
       0       0       0       0       0       0       0       0
       0       0       0       0       0       0       0       0
       0       0       0       0       0       0       0       0
       0       0       0       0       0       0       0       0
       0       0       0       0       0       0       0       0
       0       0       0       0       0       0       0       0
       0       0       0       0       0       0       0       0
       0       0       0       0       0       0       0       0
       0       0       0       0       0       0       0       0
       0       0       0       0       0       0       0       0
       0       0       0       0       0       0       0       0
       0       0       0       0       0       0       0       0
       0       0       0       0       0       0       0       0
       0       0       0       0       0       0       0       0
       0       0       0       0       0       0       0       0
       0       0       0       0       0       0       0       0
       0       0       0       0       0       0       0       0
       0       0       0       0       0       0       0       0
       0       0       0       0       0       0       0       0
       0       0       0       0       0       0       0       0
       0       0       0       0       0       0       0       0
       0       0       0       0       0       0       0       0
       0       0       0       0       0       0       0       0
       0       0       0       0       0       0       0       0
       0       0       0       0       0       0       0       0
       0       0       0       0       0       0       0       0
       0       0       0       0       0       0       0       0
       0       0       0       0       0       0       0       0
       0       0       0       0       0       0       0       0
       0       0       0       0       0       0       0       0
       0       0       0       0       0       0       0       0
       0       0       0       0       0       0       0       0
       0       0       0       0       0       0       0       0
       0       0       0       0       0       0       0       0
       0       0       0       0       0       0       0       0
       0       0       0       0       0       0       0       0
       0       0       0       0       0       0       0       0
       0       0       0       0       0       0       0       0
       0       0       0       0       0       0       0       0
       0       0       0       0       0       0       0       0
       0       0       0       0       0       0       0       0
       0       0       0       0       0       0       0       0
       0       0       0       0       0       0       0       0
       0       0       0       0       0       0       0       0
       0       0       0       0       0       0       0       0
       0       0       0       0       0       0       0       0
       0       0       0       0       0       0       0       0
       0       0       0       0       0       0       0       0
       0       0       0       0       0       0       0       0
       0       0       0       0       0       0       0       0
       0       0       0       0       0       0       0       0
       0       0       0       0       0       0       0       0
       0       0       0       0       0       0       0       0
       0       0       0       0       0       0       0       0
       0       0       0       0       0       0       0       0
       0       0       0       0       0       0       0       0
       0       0       0       0       0       0       0       0
       0       0       0       0       0       0       0       0
       0       0       0       0       0       0       0       0
       0       0       0       0       0       0       0       0
       0       0       0       0       0       0       0       0
       0       0       0       0       0       0       0       0
       0       0       0       0       0       0       0       0
       0       0       0       0       0       0       0       0
       0       0       0       0       0       0       0       0
       0       0       0       0       0       0       0       0
       0       0       0       0       0       0       0       0
       0       0       0       0       0       0       0       0
       0       0       0       0       0       0       0       0
       0       0       0       0       0       0       0       0
       0       0       0       0       0       0       0       0
       0       0       0       0       0       0       0       0
       0       0       0       0       0       0       0       0
       0       0       0       0       0       0       0       0
       0       0       0       0       0       0       0       0
       0       0       0       0       0       0       0       0
       0       0       0       0       0       0       0       0
       0       0       0       0       0       0       0       0
       0       0       0       0       0       0       0       0
       0       0       0       0       0       0       0       0
       0       0       0       0       0       0       0       0
       0       0       0       0       0       0       0       0
       0       0       0       0       0       0       0       0
       0       0       0       0       0       0       0       0
       0       0       0       0       0       0       0       0
       0       0       0       0       0       0       0       0
       0       0       0       0       0       0       0       0
       0       0       0       0       0       0       0       0
       0       0       0       0       0       0       0       0
       0       0       0       0       0       0       0       0
       0       0       0       0       0       0       0       0
       0       0       0       0       0       0       0       0
       0       0       0       0       0       0       0       0
       0       0       0       0       0       0       0       0
       0       0       0       0       0       0       0       0
       0       0       0       0       0       0       0       0
       0       0       0       0       0       0       0       0
       0       0       0       0       0       0       0       0
       0       0       0       0       0       0       0       0
       0       0       0       0       0       0       0       0
       0       0       0       0       0       0       0       0
       0       0       0       0       0       0       0       0
       0       0       0       0       0       0       0       0
       0       0       0       0       0       0       0       0
       0       0       0       0       0       0       0       0
       0       0       0       0       0       0       0       0
       0       0       0       0       0       0       0       0
       0       0       0       0       0       0       0       0
       0       0       0       0       0       0       0       0
       0       0       0       0       0       0       0       0
       0       0       0       0       0       0       0       0
       0       0       0       0       0       0       0       0
       0       0       0       0       0       0       0       0
       0       0       0       0       0       0       0       0
       0       0       0       0       0       0       0       0
       0       0       0       0       0       0       0       0
       0       0       0       0       0       0       0       0
       0       0       0       0       0       0       0       0
       0       0       0       0       0       0       0       0
       0       0       0       0       0       0       0       0
       0       0       0       0       0       0       0       0
       0       0       0       0       0       0       0       0
       0       0       0       0       0       0       0       0
       0       0       0       0       0       0       0       0
       0       0       0       0       0       0       0       0
       0       0       0       0       0       0       0       0
       0       0       0       0       0       0       0       0
       0       0       0       0       0       0       0       0
       0       0       0       0       0       0       0       0
       0       0       0       0       0       0       0       0
       0       0       0       0       0       0       0       0
       0       0       0       0       0       0       0       0
       0       0       0       0       0       0       0       0
       0       0       0       0       0       0       0       0
       0       0       0       0       0       0       0       0
       0       0       0       0       0       0       0       0
       0       0       0       0       0       0       0       0
       0       0       0       0       0       0       0       0
       0       0       0       0       0       0       0       0
       0       0       0       0       0       0       0       0
       0       0       0       0       0       0       0       0
       0       0       0       0       0       0       0       0
       0       0       0       0       0       0       0       0
       0       0       0       0       0       0       0       0
       0       0       0       0       0       0       0       0
       0       0       0       0       0       0       0       0
       0       0       0       0       0       0       0       0
       0       0       0       0       0       0       0       0
       0       0       0       0       0       0       0       0
       0       0       0       0       0       0       0       0
       0       0       0       0       0       0       0       0
       0       0       0       0       0       0       0       0
       0       0       0       0       0       0       0       0
       0       0       0       0       0       0       0       0
       0       0       0       0       0       0       0       0
       0       0       0       0       0       0       0       0
       0       0       0       0       0       0       0       0
       0       0       0       0       0       0       0       0
       0       0       0       0       0       0       0       0
       0       0       0       0       0       0       0       0
       0       0       0       0       0       0       0       0
       0       0       0       0       0       0       0       0
       0       0       0       0       0       0       0       0
       0       0       0       0       0       0       0       0
       0       0       0       0       0       0       0       0
       0       0       0       0       0       0       0       0
       0       0       0       0       0       0       0       0
       0       0       0       0       0       0       0       0
       0       0       0       0       0       0       0       0
       0       0       0       0       0       0       0       0
       0       0       0       0       0       0       0       0
       0       0       0       0       0       0       0       0
       0       0       0       0       0       0       0       0
       0       0       0       0       0       0       0       0
       0       0       0       0       0       0       0       0
       0       0       0       0       0       0       0       0
       0       0       0       0       0       0       0       0
       0       0       0       0       0       0       0       0
       0       0       0       0       0       0       0       0
       0       0       0       0       0       0       0       0
       0       0       0       0       0       0       0       0
       0       0       0       0       0       0       0       0
       0       0       0       0       0       0       0       0
       0       0       0       0       0       0       0       0
       0       0       0       0       0       0       0       0
       0       0       0       0       0       0       0       0
       0       0       0       0       0       0       0       0
       0       0       0       0       0       0       0       0
       0       0       0       0       0       0       0       0
       0       0       0       0       0       0       0       0
       0       0       0       0       0       0       0       0
       0       0       0       0       0       0       0       0
       0       0       0       0       0       0       0       0
       0       0       0       0       0       0       0       0
       0       0       0       0       0       0       0       0
       0       0       0       0       0       0       0       0
       0       0       0       0       0       0       0       0
       0       0       0       0       0       0       0       0
       0       0       0       0       0       0       0       0
       0       0       0       0       0       0       0       0
       0       0       0       0       0       0       0       0
       0       0       0       0       0       0       0       0
       0       0       0       0       0       0       0       0
       0       0       0       0       0       0       0       0
       0       0       0       0       0       0       0       0
       0       0       0       0       0       0       0       0
       0       0       0       0       0       0       0       0
       0       0       0       0       0       0       0       0
       0       0       0       0       0       0       0       0
       0       0       0       0       0       0       0       0
       0       0       0       0       0       0       0       0
       0       0       0       0       0       0       0       0
       0       0       0       0       0       0       0       0
       0       0       0       0       0       0       0       0
       0       0       0       0       0       0       0       0
       0       0       0       0       0       0       0       0
       0       0       0       0       0       0       0       0
       0       0       0       0       0       0       0       0
       0       0       0       0       0       0       0       0
       0       0       0       0       0       0       0       0
       0       0       0       0       0       0       0       0
       0       0       0       0       0       0       0       0
       0       0       0       0       0       0       0       0
       0       0       0       0       0       0       0       0
       0       0       0       0       0       0       0       0
       0       0       0       0       0       0       0       0
       0       0       0       0       0       0       0       0
       0       0       0       0       0       0       0       0
       0       0       0       0       0       0       0       0
       0       0       0       0       0       0       0       0
       0       0       0       0       0       0       0       0
       0       0       0       0       0       0       0       0
       0       0       0       0       0       0       0       0
       0       0       0       0       0       0       0       0
       0       0       0       0       0       0       0       0
       0       0       0       0       0       0       0       0
       0       0       0       0       0       0       0       0
       0       0       0       0       0       0       0       0
       0       0       0       0       0       0       0       0
       0       0       0       0       0       0       0       0
       0       0       0       0       0       0       0       0
       0       0       0       0       0       0       0       0
       0       0       0       0       0       0       0       0
       0       0       0       0       0       0       0       0
       0       0       0       0       0       0       0       0
       0       0       0       0       0       0       0       0
       0       0       0       0       0       0       0       0
       0       0       0       0       0       0       0       0
       0       0       0       0       0       0       0       0
       0       0       0       0       0       0       0       0
       0       0       0       0       0       0       0       0
       0       0       0       0       0       0       0       0
       0       0       0       0       0       0       0       0
       0       0       0       0       0       0       0       0
       0       0       0       0       0       0       0       0
       0       0       0       0       0       0       0       0
       0       0       0       0       0       0       0       0
       0       0       0       0       0       0       0       0
       0       0       0       0       0       0       0       0
       0       0       0       0       0       0       0       0
       0       0       0       0       0       0       0       0
       0       0       0       0       0       0       0       0
       0       0       0       0       0       0       0       0
       0       0       0       0       0       0       0       0
       0       0       0       0       0       0       0       0
       0       0       0       0       0       0       0       0
       0       0       0       0       0       0       0       0
       0       0       0       0       0       0       0       0
       0       0       0       0       0       0       0       0
       0       0       0       0       0       0       0       0
       0       0       0       0       0       0       0       0
       0       0       0       0       0       0       0       0
       0       0       0       0       0       0       0       0
       0       0       0       0       0       0       0       0
       0       0       0       0       0       0       0       0
       0       0       0       0       0       0       0       0
       0       0       0       0       0       0       0       0
       0       0       0       0       0       0       0       0
       0       0       0       0       0       0       0       0
       0       0       0       0       0       0       0       0
       0       0       0       0       0       0       0       0
       0       0       0       0       0       0       0       0
       0       0       0       0       0       0       0       0
       0       0       0       0       0       0       0       0
       0       0       0       0       0       0       0       0
       0       0       0       0       0       0       0       0
       0       0       0       0       0       0       0       0
       0       0       0       0       0       0       0       0
       0       0       0       0       0       0       0       0
       0       0       0       0       0       0       0       0
       0       0       0       0       0       0       0       0
       0       0       0       0       0       0       0       0
       0       0       0       0       0       0       0       0
       0       0       0       0       0       0       0       0
       0       0       0       0       0       0       0       0
       0       0       0       0       0       0       0       0
       0       0       0       0       0       0       0       0
       0       0       0       0       0       0       0       0
       0       0       0       0       0       0       0       0
       0       0       0       0       0       0       0       0
       0       0       0       0       0       0       0       0
       0       0       0       0       0       0       0       0
       0       0       0       0       0       0       0       0
       0       0       0       0       0       0       0       0
       0       0       0       0       0       0       0       0
       0       0       0       0       0       0       0       0
       0       0       0       0       0       0       0       0
       0       0       0       0       0       0       0       0
       0       0       0       0       0       0       0       0
       0       0       0       0       0       0       0       0
       0       0       0       0       0       0       0       0
       0       0       0       0       0       0       0       0
       0       0       0       0       0       0       0       0
       0       0       0       0       0       0       0       0
       0       0       0       0       0       0       0       0
       0       0       0       0       0       0       0       0
       0       0       0       0       0       0       0       0
       0       0       0       0       0       0       0       0
       0       0       0       0       0       0       0       0
       0       0       0       0       0       0       0       0
       0       0       0       0       0       0       0       0
       0       0       0       0       0       0       0       0
       0       0       0       0       0       0       0       0
       0       0       0       0       0       0       0       0
       0       0       0       0       0       0       0       0
       0       0       0       0       0       0       0       0
       0       0       0       0       0       0       0       0
       0       0       0       0       0       0       0       0
       0       0       0       0       0       0       0       0
       0       0       0       0       0       0       0       0
       0       0       0       0       0       0       0       0
       0       0       0       0       0       0       0       0
       0       0       0       0       0       0       0       0
       0       0       0       0       0       0       0       0
       0       0       0       0       0       0       0       0
       0       0       0       0       0       0       0       0
       0       0       0       0       0       0       0       0
       0       0       0       0       0       0       0       0
       0       0       0       0       0       0       0       0
       0       0       0       0       0       0       0       0
       0       0       0       0       0       0       0       0
       0       0       0       0       0       0       0       0
       0       0       0       0       0       0       0       0
       0       0       0       0       0       0       0       0
       0       0       0       0       0       0       0       0
       0       0       0       0       0       0       0       0
       0       0       0       0       0       0       0       0
       0       0       0       0       0       0       0       0
       0       0       0       0       0       0       0       0
       0       0       0       0       0       0       0       0
       0       0       0       0       0       0       0       0
       0       0       0       0       0       0       0       0
       0       0       0       0       0       0       0       0
       0       0       0       0       0       0       0       0
       0       0       0       0       0       0       0       0
       0       0       0       0       0       0       0       0
       0       0       0       0       0       0       0       0
       0       0       0       0       0       0       0       0
       0       0       0       0       0       0       0       0
       0       0       0       0       0       0       0       0
       0       0       0       0       0       0       0       0
       0       0       0       0       0       0       0       0
       0       0       0       0       0       0       0       0
       0       0       0       0       0       0       0       0
       0       0       0       0       0       0       0       0
       0       0       0       0       0       0       0       0
       0       0       0       0       0       0       0       0
       0       0       0       0       0       0       0       0
       0       0       0       0       0       0       0       0
       0       0       0       0       0       0       0       0
       0       0       0       0       0       0       0       0
       0       0       0       0       0       0       0       0
       0       0       0       0       0       0       0       0
       0       0       0       0       0       0       0       0
       0       0       0       0       0       0       0       0
       0       0       0       0       0       0       0       0
       0       0       0       0       0       0       0       0
       0       0       0       0       0       0       0       0
       0       0       0       0       0       0       0       0
       0       0       0       0       0       0       0       0
       0       0       0       0       0       0       0       0
       0       0       0       0       0       0       0       0
       0       0       0       0       0       0       0       0
       0       0       0       0       0       0       0       0
       0       0       0       0       0       0       0       0
       0       0       0       0       0       0       0       0
       0       0       0       0       0       0       0       0
       0       0       0       0       0       0       0       0
       0       0       0       0       0       0       0       0
       0       0       0       0       0       0       0       0
       0       0       0       0       0       0       0       0
       0       0       0       0       0       0       0       0
       0       0       0       0       0       0       0       0
       0       0       0       0       0       0       0       0
       0       0       0       0       0       0       0       0
       0       0       0       0       0       0       0       0
       0       0       0       0       0       0       0       0
       0       0       0       0       0       0       0       0
       0       0       0       0       0       0       0       0
       0       0       0       0       0       0       0       0
       0       0       0       0       0       0       0       0
       0       0       0       0       0       0       0       0
       0       0       0       0       0       0       0       0
       0       0       0       0       0       0       0       0
       0       0       0       0       0       0       0       0
       0       0       0       0       0       0       0       0
       0       0       0       0       0       0       0       0
       0       0       0       0       0       0       0       0
       0       0       0       0       0       0       0       0
       0       0       0       0       0       0       0       0
       0       0       0       0       0       0       0       0
       0       0       0       0       0       0       0       0
       0       0       0       0       0       0       0       0
       0       0       0       0       0       0       0       0
       0       0       0       0       0       0       0       0
       0       0       0       0       0       0       0       0
       0       0       0       0       0       0       0       0
       0       0       0       0       0       0       0       0
       0       0       0       0       0       0       0       0
       0       0       0       0       0       0       0       0
       0       0       0       0       0       0       0       0
       0       0       0       0       0       0       0       0
       0       0       0       0       0       0       0       0
       0       0       0       0       0       0       0       0
       0       0       0       0       0       0       0       0
       0       0       0       0       0       0       0       0
       0       0       0       0       0       0       0       0
       0       0       0       0       0       0       0       0
       0       0       0       0       0       0       0       0
       0       0       0       0       0       0       0       0
       0       0       0       0       0       0       0       0
       0       0       0       0       0       0       0       0
       0       0       0       0       0       0       0       0
       0       0       0       0       0       0       0       0
       0       0       0       0       0       0       0       0
       0       0       0       0       0       0       0       0
       0       0       0       0       0       0       0       0
       0       0       0       0       0       0       0       0
       0       0       0       0       0       0       0       0
       0       0       0       0       0       0       0       0
       0       0       0       0       0       0       0       0
       0       0       0       0       0       0       0       0
       0       0       0       0       0       0       0       0
       0       0       0       0       0       0       0       0
       0       0       0       0       0       0       0       0
       0       0       0       0       0       0       0       0
       0       0       0       0       0       0       0       0
       0       0       0       0       0       0       0       0
       0       0       0       0       0       0       0       0
       0       0       0       0       0       0       0       0
       0       0       0       0       0       0       0       0
       0       0       0       0       0       0       0       0
       0       0       0       0       0       0       0       0
       0       0       0       0       0       0       0       0
       0       0       0       0       0       0       0       0
       0       0       0       0       0       0       0       0
       0       0       0       0       0       0       0       0
       0       0       0       0       0       0       0       0
       0       0       0       0       0       0       0       0
       0       0       0       0       0       0       0       0
       0       0       0       0       0       0       0       0
       0       0       0       0       0       0       0       0
       0       0       0       0       0       0       0       0
       0       0       0       0       0       0       0       0
       0       0       0       0       0       0       0       0
       0       0       0       0       0       0       0       0
       0       0       0       0       0       0       0       0
       0       0       0       0       0       0       0       0
       0       0       0       0       0       0       0       0
       0       0       0       0       0       0       0       0
       0       0       0       0       0       0       0       0
       0       0       0       0       0       0       0       0
       0       0       0       0       0       0       0       0
       0       0       0       0       0       0       0       0
       0       0       0       0       0       0       0       0
       0       0       0       0       0       0       0       0
       0       0       0       0       0       0       0       0
       0       0       0       0       0       0       0       0
       0       0       0       0       0       0       0       0
       0       0       0       0       0       0       0       0
       0       0       0       0       0       0       0       0
       0       0       0       0       0       0       0       0
       0       0       0       0       0       0       0       0
       0       0       0       0       0       0       0       0
       0       0       0       0       0       0       0       0
       0       0       0       0       0       0       0       0
       0       0       0       0       0       0       0       0
       0       0       0       0       0       0       0       0
       0       0       0       0       0       0       0       0
       0       0       0       0       0       0       0       0
       0       0       0       0       0       0       0       0
       0       0       0       0       0       0       0       0
       0       0       0       0       0       0       0       0
       0       0       0       0       0       0       0       0
       0       0       0       0       0       0       0       0
       0       0       0       0       0       0       0       0
       0       0       0       0       0       0       0       0
       0       0       0       0       0       0       0       0
       0       0       0       0       0       0       0       0
       0       0       0       0       0       0       0       0
       0       0       0       0       0       0       0       0
       0       0       0       0       0       0       0       0
       0       0       0       0       0       0       0       0
       0       0       0       0       0       0       0       0
       0       0       0       0       0       0       0       0
       0       0       0       0       0       0       0       0
       0       0       0       0       0       0       0       0
       0       0       0       0       0       0       0       0
       0       0       0       0       0       0       0       0
       0       0       0       0       0       0       0       0
       0       0       0       0       0       0       0       0
       0       0       0       0       0       0       0       0
       0       0       0       0       0       0       0       0
       0       0       0       0       0       0       0       0
       0       0       0       0       0       0       0       0
       0       0       0       0       0       0       0       0
       0       0       0       0       0       0       0       0
       0       0       0       0       0       0       0       0
       0       0       0       0       0       0       0       0
       0       0       0       0       0       0       0       0
       0       0       0       0       0       0       0       0
       0       0       0       0       0       0       0       0
       0       0       0       0       0       0       0       0
       0       0       0       0       0       0       0       0
       0       0       0       0       0       0       0       0
       0       0       0       0       0       0       0       0
       0       0       0       0       0       0       0       0
       0       0       0       0       0       0       0       0
       0       0       0       0       0       0       0       0
       0       0       0       0       0       0       0       0
       0       0       0       0       0       0       0       0
       0       0       0       0       0       0       0       0
       0       0       0       0       0       0       0       0
       0       0       0       0       0       0       0       0
       0       0       0       0       0       0       0       0
       0       0       0       0       0       0       0       0
       0       0       0       0       0       0       0       0
       0       0       0       0       0       0       0       0
       0       0       0       0       0       0       0       0
       0       0       0       0       0       0       0       0
       0       0       0       0       0       0       0       0
       0       0       0       0       0       0       0       0
       0       0       0       0       0       0       0       0
       0       0       0       0       0       0       0       0
       0       0       0       0       0       0       0       0
       0       0       0       0       0       0       0       0
       0       0       0       0       0       0       0       0
       0       0       0       0       0       0       0       0
       0       0       0       0       0       0       0       0
       0       0       0       0       0       0       0       0
       0       0       0       0       0       0       0       0
       0       0       0       0       0       0       0       0
       0       0       0       0       0       0       0       0
       0       0       0       0       0       0       0       0
       0       0       0       0       0       0       0       0
       0       0       0       0       0       0       0       0
       0       0       0       0       0       0       0       0
       0       0       0       0       0       0       0       0
       0       0       0       0       0       0       0       0
       0       0       0       0       0       0       0       0
       0       0       0       0       0       0       0       0
       0       0       0       0       0       0       0       0
       0       0       0       0       0       0       0       0
       0       0       0       0       0       0       0       0
       0       0       0       0       0       0       0       0
       0       0       0       0       0       0       0       0
       0       0       0       0       0       0       0       0
       0       0       0       0       0       0       0       0
       0       0       0       0       0       0       0       0
       0       0       0       0       0       0       0       0
       0       0       0       0       0       0       0       0
       0       0       0       0       0       0       0       0
       0       0       0       0       0       0       0       0
       0       0       0       0       0       0       0       0
       0       0       0       0       0       0       0       0
       0       0       0       0       0       0       0       0
       0       0       0       0       0       0       0       0
       0       0       0       0       0       0       0       0
       0       0       0       0       0       0       0       0
       0       0       0       0       0       0       0       0
       0       0       0       0       0       0       0       0
       0       0       0       0       0       0       0       0
       0       0       0       0       0       0       0       0
       0       0       0       0       0       0       0       0
       0       0       0       0       0       0       0       0
       0       0       0       0       0       0       0       0
       0       0       0       0       0       0       0       0
       0       0       0       0       0       0       0       0
       0       0       0       0       0       0       0       0
       0       0       0       0       0       0       0       0
       0       0       0       0       0       0       0       0
       0       0       0       0       0       0       0       0
       0       0       0       0       0       0       0       0
       0       0       0       0       0       0       0       0
       0       0       0       0       0       0       0       0
       0       0       0       0       0       0       0       0
       0       0       0       0       0       0       0       0
       0       0       0       0       0       0       0       0
       0       0       0       0       0       0       0       0
       0       0       0       0       0       0       0       0
       0       0       0       0       0       0       0       0
       0       0       0       0       0       0       0       0
       0       0       0       0       0       0       0       0
       0       0       0       0       0       0       0       0
       0       0       0       0       0       0       0       0
       0       0       0       0       0       0       0       0
       0       0       0       0       0       0       0       0
       0       0       0       0       0       0       0       0
       0       0       0       0       0       0       0       0
       0       0       0       0       0       0       0       0
       0       0       0       0       0       0       0       0
       0       0       0       0       0       0       0       0
       0       0       0       0       0       0       0       0
       0       0       0       0       0       0       0       0
       0       0       0       0       0       0       0       0
       0       0       0       0       0       0       0       0
       0       0       0       0       0       0       0       0
       0       0       0       0       0       0       0       0
       0       0       0       0       0       0       0       0
       0       0       0       0       0       0       0       0
       0       0       0       0       0       0       0       0
       0       0       0       0       0       0       0       0
       0       0       0       0       0       0       0       0
       0       0       0       0       0       0       0       0
       0       0       0       0       0       0       0       0
       0       0       0       0       0       0       0       0
       0       0       0       0       0       0       0       0
       0       0       0       0       0       0       0       0
       0       0       0       0       0       0       0       0
       0       0       0       0       0       0       0       0
       0       0       0       0       0       0       0       0
       0       0       0       0       0       0       0       0
       0       0       0       0       0       0       0       0
       0       0       0       0       0       0       0       0
       0       0       0       0       0       0       0       0
       0       0       0       0       0       0       0       0
       0       0       0       0       0       0       0       0
       0       0       0       0       0       0       0       0
       0       0       0       0       0       0       0       0
       0       0       0       0       0       0       0       0
       0       0       0       0       0       0       0       0
       0       0       0       0       0       0       0       0
       0       0       0       0       0       0       0       0
       0       0       0       0       0       0       0       0
       0       0       0       0       0       0       0       0
       0       0       0       0       0       0       0       0
       0       0       0       0       0       0       0       0
       0       0       0       0       0       0       0       0
       0       0       0       0       0       0       0       0
       0       0       0       0       0       0       0       0
       0       0       0       0       0       0       0       0
       0       0       0       0       0       0       0       0
       0       0       0       0       0       0       0       0
       0       0       0       0       0       0       0       0
       0       0       0       0       0       0       0       0
       0       0       0       0       0       0       0       0
       0       0       0       0       0       0       0       0
       0       0       0       0       0       0       0       0
       0       0       0       0       0       0       0       0
       0       0       0       0       0       0       0       0
       0       0       0       0       0       0       0       0
       0       0       0       0       0       0       0       0
       0       0       0       0       0       0       0       0
       0       0       0       0       0       0       0       0
       0       0       0       0       0       0       0       0
       0       0       0       0       0       0       0       0
       0       0       0       0       0       0       0       0
       0       0       0       0       0       0       0       0
       0       0       0       0       0       0       0       0
       0       0       0       0       0       0       0       0
       0       0       0       0       0       0       0       0
       0       0       0       0       0       0       0       0
       0       0       0       0       0       0       0       0
       0       0       0       0       0       0       0       0
       0       0       0       0       0       0       0       0
       0       0       0       0       0       0       0       0
       0       0       0       0       0       0       0       0
       0       0       0       0       0       0       0       0
       0       0       0       0       0       0       0       0
       0       0       0       0       0       0       0       0
       0       0       0       0       0       0       0       0
       0       0       0       0       0       0       0       0
       0       0       0       0       0       0       0       0
       0       0       0       0       0       0       0       0
       0       0       0       0       0       0       0       0
       0       0       0       0       0       0       0       0
       0       0       0       0       0       0       0       0
       0       0       0       0       0       0       0       0
       0       0       0       0       0       0       0       0
       0       0       0       0       0       0       0       0
       0       0       0       0       0       0       0       0
       0       0       0       0       0       0       0       0
       0       0       0       0       0       0       0       0
       0       0       0       0       0       0       0       0
       0       0       0       0       0       0       0       0
       0       0       0       0       0       0       0       0
       0       0       0       0       0       0       0       0
       0       0       0       0       0       0       0       0
       0       0       0       0       0       0       0       0
       0       0       0       0       0       0       0       0
       0       0       0       0       0       0       0       0
       0       0       0       0       0       0       0       0
       0       0       0       0       0       0       0       0
       0       0       0       0       0       0       0       0
       0       0       0       0       0       0       0       0
       0       0       0       0       0       0       0       0
       0       0       0       0       0       0       0       0
       0       0       0       0       0       0       0       0
       0       0       0       0       0       0       0       0
       0       0       0       0       0       0       0       0
       0       0       0       0       0       0       0       0
       0       0       0       0       0       0       0       0
       0       0       0       0       0       0       0       0
       0       0       0       0       0       0       0       0
       0       0       0       0       0       0       0       0
       0       0       0       0       0       0       0       0
       0       0       0       0       0       0       0       0
       0       0       0       0       0       0       0       0
       0       0       0       0       0       0       0       0
       0       0       0       0       0       0       0       0
       0       0       0       0       0       0       0       0
       0       0       0       0       0       0       0       0
       0       0       0       0       0       0       0       0
       0       0       0       0       0       0       0       0
       0       0       0       0       0       0       0       0
       0       0       0       0       0       0       0       0
       0       0       0       0       0       0       0       0
       0       0       0       0       0       0       0       0
       0       0       0       0       0       0       0       0
       0       0       0       0       0       0       0       0
       0       0       0       0       0       0       0       0
       0       0       0       0       0       0       0       0
       0       0       0       0       0       0       0       0
       0       0       0       0       0       0       0       0
       0       0       0       0       0       0       0       0
       0       0       0       0       0       0       0       0
       0       0       0       0       0       0       0       0
       0       0       0       0       0       0       0       0
       0       0       0       0       0       0       0       0
       0       0       0       0       0       0       0       0
       0       0       0       0       0       0       0       0
       0       0       0       0       0       0       0       0
       0       0       0       0       0       0       0       0
       0       0       0       0       0       0       0       0
       0       0       0       0       0       0       0       0
       0       0       0       0       0       0       0       0
       0       0       0       0       0       0       0       0
       0       0       0       0       0       0       0       0
       0       0       0       0       0       0       0       0
       0       0       0       0       0       0       0       0
       0       0       0       0       0       0       0       0
       0       0       0       0       0       0       0       0
       0       0       0       0       0       0       0       0
       0       0       0       0       0       0       0       0
       0       0       0       0       0       0       0       0
       0       0       0       0       0       0       0       0
       0       0       0       0       0       0       0       0
       0       0       0       0       0       0       0       0
       0       0       0       0       0       0       0       0
       0       0       0       0       0       0       0       0
       0       0       0       0       0       0       0       0
       0       0       0       0       0       0       0       0
       0       0       0       0       0       0       0       0
       0       0       0       0       0       0       0       0
       0       0       0       0       0       0       0       0
       0       0       0       0       0       0       0       0
       0       0       0       0       0       0       0       0
       0       0       0       0       0       0       0       0
       0       0       0       0       0       0       0       0
       0       0       0       0       0       0       0       0
       0       0       0       0       0       0       0       0
       0       0       0       0       0       0       0       0
       0       0       0       0       0       0       0       0
       0       0       0       0       0       0       0       0
       0       0       0       0       0       0       0       0
       0       0       0       0       0       0       0       0
       0       0       0       0       0       0       0       0
       0       0       0       0       0       0       0       0
       0       0       0       0       0       0       0       0
       0       0       0       0       0       0       0       0
       0       0       0       0       0       0       0       0
       0       0       0       0       0       0       0       0
       0       0       0       0       0       0       0       0
       0       0       0       0       0       0       0       0
       0       0       0       0       0       0       0       0
       0       0       0       0       0       0       0       0
       0       0       0       0       0       0       0       0
       0       0       0       0       0       0       0       0
       0       0       0       0       0       0       0       0
       0       0       0       0       0       0       0       0
       0       0       0       0       0       0       0       0
       0       0       0       0       0       0       0       0
       0       0       0       0       0       0       0       0
       0       0       0       0       0       0       0       0
       0       0       0       0       0       0       0       0
       0       0       0       0       0       0       0       0
       0       0       0       0       0       0       0       0
       0       0       0       0       0       0       0       0
       0       0       0       0       0       0       0       0
       0       0       0       0       0       0       0       0
       0       0       0       0       0       0       0       0
       0       0       0       0       0       0       0       0
       0       0       0       0       0       0       0       0
       0       0       0       0       0       0       0       0
       0       0       0       0       0       0       0       0
       0       0       0       0       0       0       0       0
       0       0       0       0       0       0       0       0
       0       0       0       0       0       0       0       0
       0       0       0       0       0       0       0       0
       0       0       0       0       0       0       0       0
       0       0       0       0       0       0       0       0
       0       0       0       0       0       0       0       0
       0       0       0       0       0       0       0       0
       0       0       0       0       0       0       0       0
       0       0       0       0       0       0       0       0
       0       0       0       0       0       0       0       0
       0       0       0       0       0       0       0       0
       0       0       0       0       0       0       0       0
       0       0       0       0       0       0       0       0
       0       0       0       0       0       0       0       0
       0       0       0       0       0       0       0       0
       0       0       0       0       0       0       0       0
       0       0       0       0       0       0       0       0
       0       0       0       0       0       0       0       0
       0       0       0       0       0       0       0       0
       0       0       0       0       0       0       0       0
       0       0       0       0       0       0       0       0
       0       0       0       0       0       0       0       0
       0       0       0       0       0       0       0       0
       0       0       0       0       0       0       0       0
       0       0       0       0       0       0       0       0
       0       0       0       0       0       0       0       0
       0       0       0       0       0       0       0       0
       0       0       0       0       0       0       0       0
       0       0       0       0       0       0       0       0
       0       0       0       0       0       0       0       0
       0       0       0       0       0       0       0       0
       0       0       0       0       0       0       0       0
       0       0       0       0       0       0       0       0
       0       0       0       0       0       0       0       0
       0       0       0       0       0       0       0       0
       0       0       0       0       0       0       0       0
       0       0       0       0       0       0       0       0
       0       0       0       0       0       0       0       0
       0       0       0       0       0       0       0       0
       0       0       0       0       0       0       0       0
       0       0       0       0       0       0       0       0
       0       0       0       0       0       0       0       0
       0       0       0       0       0       0       0       0
       0       0       0       0       0       0       0       0
       0       0       0       0       0       0       0       0
       0       0       0       0       0       0       0       0
       0       0       0       0       0       0       0       0
       0       0       0       0       0       0       0       0
       0       0       0       0       0       0       0       0
       0       0       0       0       0       0       0       0
       0       0       0       0       0       0       0       0
       0       0       0       0       0       0       0       0
       0       0       0       0       0       0       0       0
       0       0       0       0       0       0       0       0
       0       0       0       0       0       0       0       0
       0       0       0       0       0       0       0       0
       0       0       0       0       0       0       0       0
       0       0       0       0       0       0       0       0
       0       0       0       0       0       0       0       0
       0       0       0       0       0       0       0       0
       0       0       0       0       0       0       0       0
       0       0       0       0       0       0       0       0
       0       0       0       0       0       0       0       0
       0       0       0       0       0       0       0       0
       0       0       0       0       0       0       0       0
       0       0       0       0       0       0       0       0
       0       0       0       0       0       0       0       0
       0       0       0       0       0       0       0       0
       0       0       0       0       0       0       0       0
       0       0       0       0       0       0       0       0
       0       0       0       0       0       0       0       0
       0       0       0       0       0       0       0       0
       0       0       0       0       0       0       0       0
       0       0       0       0       0       0       0       0
       0       0       0       0       0       0       0       0
       0       0       0       0       0       0       0       0
       0       0       0       0       0       0       0       0
       0       0       0       0       0       0       0       0
       0       0       0       0       0       0       0       0
       0       0       0       0       0       0       0       0
       0       0       0       0       0       0       0       0
       0       0       0       0       0       0       0       0
       0       0       0       0       0       0       0       0
       0       0       0       0       0       0       0       0
       0       0       0       0       0       0       0       0
       0       0       0       0       0       0       0       0
       0       0       0       0       0       0       0       0
       0       0       0       0       0       0       0       0
       0       0       0       0       0       0       0       0
       0       0       0       0       0       0       0       0
       0       0       0       0       0       0       0       0
       0       0       0       0       0       0       0       0
       0       0       0       0       0       0       0       0
       0       0       0       0       0       0       0       0
       0       0       0       0       0       0       0       0
       0       0       0       0       0       0       0       0
       0       0       0       0       0       0       0       0
       0       0       0       0       0       0       0       0
       0       0       0       0       0       0       0       0
       0       0       0       0       0       0       0       0
       0       0       0       0       0       0       0       0
       0       0       0       0       0       0       0       0
       0       0       0       0       0       0       0       0
       0       0       0       0       0       0       0       0
       0       0       0       0       0       0       0       0
       0       0       0       0       0       0       0       0
       0       0       0       0       0       0       0       0
       0       0       0       0       0       0       0       0
       0       0       0       0       0       0       0       0
       0       0       0       0       0       0       0       0
       0       0       0       0       0       0       0       0
       0       0       0       0       0       0       0       0
       0       0       0       0       0       0       0       0
       0       0       0       0       0       0       0       0
       0       0       0       0       0       0       0       0
       0       0       0       0       0       0       0       0
       0       0       0       0       0       0       0       0
       0       0       0       0       0       0       0       0
       0       0       0       0       0       0       0       0
       0       0       0       0       0       0       0       0
       0       0       0       0       0       0       0       0
       0       0       0       0       0       0       0       0
       0       0       0       0       0       0       0       0
       0       0       0       0       0       0       0       0
       0       0       0       0       0       0       0       0
       0       0       0       0       0       0       0       0
       0       0       0       0       0       0       0       0
       0       0       0       0       0       0       0       0
       0       0       0       0       0       0       0       0
       0       0       0       0       0       0       0       0
       0       0       0       0       0       0       0       0
       0       0       0       0       0       0       0       0
       0       0       0       0       0       0       0       0
       0       0       0       0       0       0       0       0
       0       0       0       0       0       0       0       0
       0       0       0       0       0       0       0       0
       0       0       0       0       0       0       0       0
       0       0       0       0       0       0       0       0
       0       0       0       0       0       0       0       0
       0       0       0       0       0       0       0       0
       0       0       0       0       0       0       0       0
       0       0       0       0       0       0       0       0
       0       0       0       0       0       0       0       0
       0       0       0       0       0       0       0       0
       0       0       0       0       0       0       0       0
       0       0       0       0       0       0       0       0
       0       0       0       0       0       0       0       0
       0       0       0       0       0       0       0       0
       0       0       0       0       0       0       0       0
       0       0       0       0       0       0       0       0
       0       0       0       0       0       0       0       0
       0       0       0       0       0       0       0       0
       0       0       0       0       0       0       0       0
       0       0       0       0       0       0       0       0
       0       0       0       0       0       0       0       0
       0       0       0       0       0       0       0       0
       0       0       0       0       0       0       0       0
       0       0       0       0       0       0       0       0
       0       0       0       0       0       0       0       0
       0       0       0       0       0       0       0       0
       0       0       0       0       0       0       0       0
       0       0       0       0       0       0       0       0
       0       0       0       0       0       0       0       0
       0       0       0       0       0       0       0       0
       0       0       0       0       0       0       0       0
       0       0       0       0       0       0       0       0
       0       0       0       0       0       0       0       0
       0       0       0       0       0       0       0       0
       0       0       0       0       0       0       0       0
       0       0       0       0       0       0       0       0
       0       0       0       0       0       0       0       0
       0       0       0       0       0       0       0       0
       0       0       0       0       0       0       0       0
       0       0       0       0       0       0       0       0
       0       0       0       0       0       0       0       0
       0       0       0       0       0       0       0       0
       0       0       0       0       0       0       0       0
       0       0       0       0       0       0       0       0
       0       0       0       0       0       0       0       0
       0       0       0       0       0       0       0       0
       0       0       0       0       0       0       0       0
       0       0       0       0       0       0       0       0
       0       0       0       0       0       0       0       0
       0       0       0       0       0       0       0       0
       0       0       0       0       0       0       0       0
       0       0       0       0       0       0       0       0
       0       0       0       0       0       0       0       0
       0       0       0       0       0       0       0       0
       0       0       0       0       0       0       0       0
       0       0       0       0       0       0       0       0
       0       0       0       0       0       0       0       0
       0       0       0       0       0       0       0       0
       0       0       0       0       0       0       0       0
       0       0       0       0       0       0       0       0
       0       0       0       0       0       0       0       0
       0       0       0       0       0       0       0       0
       0       0       0       0       0       0       0       0
       0       0       0       0       0       0       0       0
       0       0       0       0       0       0       0       0
       0       0       0       0       0       0       0       0
       0       0       0       0       0       0       0       0
       0       0       0       0       0       0       0       0
       0       0       0       0       0       0       0       0
       0       0       0       0       0       0       0       0
       0       0       0       0       0       0       0       0
       0       0       0       0       0       0       0       0
       0       0       0       0       0       0       0       0
       0       0       0       0       0       0       0       0
       0       0       0       0       0       0       0       0
       0       0       0       0       0       0       0       0
       0       0       0       0       0       0       0       0
       0       0       0       0       0       0       0       0
       0       0       0       0       0       0       0       0
       0       0       0       0       0       0       0       0
       0       0       0       0       0       0       0       0
       0       0       0       0       0       0       0       0
       0       0       0       0       0       0       0       0
       0       0       0       0       0       0       0       0
       0       0       0       0       0       0       0       0
       0       0       0       0       0       0       0       0
       0       0       0       0       0       0       0       0
       0       0       0       0       0       0       0       0
       0       0       0       0       0       0       0       0
       0       0       0       0       0       0       0       0
       0       0       0       0       0       0       0       0
       0       0       0       0       0       0       0       0
       0       0       0       0       0       0       0       0
       0       0       0       0       0       0       0       0
       0       0       0       0       0       0       0       0
       0       0       0       0       0       0       0       0
       0       0       0       0       0       0       0       0
       0       0       0       0       0       0       0       0
       0       0       0       0       0       0       0       0
       0       0       0       0       0       0       0       0
       0       0       0       0       0       0       0       0
       0       0       0       0       0       0       0       0
       0       0       0       0       0       0       0       0
       0       0       0       0       0       0       0       0
       0       0       0       0       0       0       0       0
       0       0       0       0       0       0       0       0
       0       0       0       0       0       0       0       0
       0       0       0       0       0       0       0       0
       0       0       0       0       0       0       0       0
       0       0       0       0       0       0       0       0
       0       0       0       0       0       0       0       0
       0       0       0       0       0       0       0       0
       0       0       0       0       0       0       0       0
       0       0       0       0       0       0       0       0
       0       0       0       0       0       0       0       0
       0       0       0       0       0       0       0       0
       0       0       0       0       0       0       0       0
       0       0       0       0       0       0       0       0
       0       0       0       0       0       0       0       0
       0       0       0       0       0       0       0       0
       0       0       0       0       0       0       0       0
       0       0       0       0       0       0       0       0
       0       0       0       0       0       0       0       0
       0       0       0       0       0       0       0       0
       0       0       0       0       0       0       0       0
       0       0       0       0       0       0       0       0
       0       0       0       0       0       0       0       0
       0       0       0       0       0       0       0       0
       0       0       0       0       0       0       0       0
       0       0       0       0       0       0       0       0
       0       0       0       0       0       0       0       0
       0       0       0       0       0       0       0       0
       0       0       0       0       0       0       0       0
       0       0       0       0       0       0       0       0
       0       0       0       0       0       0       0       0
       0       0       0       0       0       0       0       0
       0       0       0       0       0       0       0       0
       0       0       0       0       0       0       0       0
       0       0       0       0       0       0       0       0
       0       0       0       0       0       0       0       0
       0       0       0       0       0       0       0       0
       0       0       0       0       0       0       0       0
       0       0       0       0       0       0       0       0
       0       0       0       0       0       0       0       0
       0       0       0       0       0       0       0       0
       0       0       0       0       0       0       0       0
       0       0       0       0       0       0       0       0
       0       0       0       0       0       0       0       0
       0       0       0       0       0       0       0       0
       0       0       0       0       0       0       0       0
       0       0       0       0       0       0       0       0
       0       0       0       0       0       0       0       0
       0       0       0       0       0       0       0       0
       0       0       0       0       0       0       0       0
       0       0       0       0       0       0       0       0
       0       0       0       0       0       0       0       0
       0       0       0       0       0       0       0       0
       0       0       0       0       0       0       0       0
       0       0       0       0       0       0       0       0
       0       0       0       0       0       0       0       0
       0       0       0       0       0       0       0       0
       0       0       0       0       0       0       0       0
       0       0       0       0       0       0       0       0
       0       0       0       0       0       0       0       0
       0       0       0       0       0       0       0       0
       0       0       0       0       0       0       0       0
       0       0       0       0       0       0       0       0
       0       0       0       0       0       0       0       0
       0       0       0       0       0       0       0       0
       0       0       0       0       0       0       0       0
       0       0       0       0       0       0       0       0
       0       0       0       0       0       0       0       0
       0       0       0       0       0       0       0       0
       0       0       0       0       0       0       0       0
       0       0       0       0       0       0       0       0
       0       0       0       0       0       0       0       0
       0       0       0       0       0       0       0       0
       0       0       0       0       0       0       0       0
       0       0       0       0       0       0       0       0
       0       0       0       0       0       0       0       0
       0       0       0       0       0       0       0       0
       0       0       0       0       0       0       0       0
       0       0       0       0       0       0       0       0
       0       0       0       0       0       0       0       0
       0       0       0       0       0       0       0       0
       0       0       0       0       0       0       0       0
       0       0       0       0       0       0       0       0
       0       0       0       0       0       0       0       0
       0       0       0       0       0       0       0       0
       0       0       0       0       0       0       0       0
       0       0       0       0       0       0       0       0
       0       0       0       0       0       0       0       0
       0       0       0       0       0       0       0       0
       0       0       0       0       0       0       0       0
       0       0       0       0       0       0       0       0
       0       0       0       0       0       0       0       0
       0       0       0       0       0       0       0       0
       0       0       0       0       0       0       0       0
       0       0       0       0       0       0       0       0
       0       0       0       0       0       0       0       0
       0       0       0       0       0       0       0       0
       0       0       0       0       0       0       0       0
       0       0       0       0       0       0       0       0
       0       0       0       0       0       0       0       0
       0       0       0       0       0       0       0       0
       0       0       0       0       0       0       0       0
       0       0       0       0       0       0       0       0
       0       0       0       0       0       0       0       0
       0       0       0       0       0       0       0       0
       0       0       0       0       0       0       0       0
       0       0       0       0       0       0       0       0
       0       0       0       0       0       0       0       0
       0       0       0       0       0       0       0       0
       0       0       0       0       0       0       0       0
       0       0       0       0       0       0       0       0
       0       0       0       0       0       0       0       0
       0       0       0       0       0       0       0       0
       0       0       0       0       0       0       0       0
       0       0       0       0       0       0       0       0
       0       0       0       0       0       0       0       0
       0       0       0       0       0       0       0       0
       0       0       0       0       0       0       0       0
       0       0       0       0       0       0       0       0
       0       0       0       0       0       0       0       0
       0       0       0       0       0       0       0       0
       0       0       0       0       0       0       0       0
       0       0       0       0       0       0       0       0
       0       0       0       0       0       0       0       0
       0       0       0       0       0       0       0       0
       0       0       0       0       0       0       0       0
       0       0       0       0       0       0       0       0
       0       0       0       0       0       0       0       0
       0       0       0       0       0       0       0       0
       0       0       0       0       0       0       0       0
       0       0       0       0       0       0       0       0
       0       0       0       0       0       0       0       0
       0       0       0       0       0       0       0       0
       0       0       0       0       0       0       0       0
       0       0       0       0       0       0       0       0
       0       0       0       0       0       0       0       0
       0       0       0       0       0       0       0       0
       0       0       0       0       0       0       0       0
       0       0       0       0       0       0       0       0
       0       0       0       0       0       0       0       0
       0       0       0       0       0       0       0       0
       0       0       0       0       0       0       0       0
       0       0       0       0       0       0       0       0
       0       0       0       0       0       0       0       0
       0       0       0       0       0       0       0       0
       0       0       0       0       0       0       0       0
       0       0       0       0       0       0       0       0
       0       0       0       0       0       0       0       0
       0       0       0       0       0       0       0       0
       0       0       0       0       0       0       0       0
       0       0       0       0       0       0       0       0
       0       0       0       0       0       0       0       0
       0       0       0       0       0       0       0       0
       0       0       0       0       0       0       0       0
       0       0       0       0       0       0       0       0
       0       0       0       0       0       0       0       0
       0       0       0       0       0       0       0       0
       0       0       0       0       0       0       0       0
       0       0       0       0       0       0       0       0
       0       0       0       0       0       0       0       0
       0       0       0       0       0       0       0       0
       0       0       0       0       0       0       0       0
       0       0       0       0       0       0       0       0
       0       0       0       0       0       0       0       0
       0       0       0       0       0       0       0       0
       0       0       0       0       0       0       0       0
       0       0       0       0       0       0       0       0
       0       0       0       0       0       0       0       0
       0       0       0       0       0       0       0       0
       0       0       0       0       0       0       0       0
       0       0       0       0       0       0       0       0
       0       0       0       0       0       0       0       0
       0       0       0       0       0       0       0       0
       0       0       0       0       0       0       0       0
       0       0       0       0       0       0       0       0
       0       0       0       0       0       0       0       0
       0       0       0       0       0       0       0       0
       0       0       0       0       0       0       0       0
       0       0       0       0       0       0       0       0
       0       0       0       0       0       0       0       0
       0       0       0       0       0       0       0       0
       0       0       0       0       0       0       0       0
       0       0       0       0       0       0       0       0
       0       0       0       0       0       0       0       0
       0       0       0       0       0       0       0       0
       0       0       0       0       0       0       0       0
       0       0       0       0       0       0       0       0
       0       0       0       0       0       0       0       0
       0       0       0       0       0       0       0       0
       0       0       0       0       0       0       0       0
       0       0       0       0       0       0       0       0
       0       0       0       0       0       0       0       0
       0       0       0       0       0       0       0       0
       0       0       0       0       0       0       0       0
       0       0       0       0       0       0       0       0
       0       0       0       0       0       0       0       0
       0       0       0       0       0       0       0       0
       0       0       0       0       0       0       0       0
       0       0       0       0       0       0       0       0
       0       0       0       0       0       0       0       0
       0       0       0       0       0       0       0       0
       0       0       0       0       0       0       0       0
       0       0       0       0       0       0       0       0
       0       0       0       0       0       0       0       0
       0       0       0       0       0       0       0       0
       0       0       0       0       0       0       0       0
       0       0       0       0       0       0       0       0
       0       0       0       0       0       0       0       0
       0       0       0       0       0       0       0       0
       0       0       0       0       0       0       0       0
       0       0       0       0       0       0       0       0
       0       0       0       0       0       0       0       0
       0       0       0       0       0       0       0       0
       0       0       0       0       0       0       0       0
       0       0       0       0       0       0       0       0
       0       0       0       0       0       0       0       0
       0       0       0       0       0       0       0       0
       0       0       0       0       0       0       0       0
       0       0       0       0       0       0       0       0
       0       0       0       0       0       0       0       0
       0       0       0       0       0       0       0       0
       0       0       0       0       0       0       0       0
       0       0       0       0       0       0       0       0
       0       0       0       0       0       0       0       0
       0       0       0       0       0       0       0       0
       0       0       0       0       0       0       0       0
       0       0       0       0       0       0       0       0
       0       0       0       0       0       0       0       0
       0       0       0       0       0       0       0       0
       0       0       0       0       0       0       0       0
       0       0       0       0       0       0       0       0
       0       0       0       0       0       0       0       0
       0       0       0       0       0       0       0       0
       0       0       0       0       0       0       0       0
       0       0       0       0       0       0       0       0
       0       0       0       0       0       0       0       0
       0       0       0       0       0       0       0       0
       0       0       0       0       0       0       0       0
       0       0       0       0       0       0       0       0
       0       0       0       0       0       0       0       0
       0       0       0       0       0       0       0       0
       0       0       0       0       0       0       0       0
       0       0       0       0       0       0       0       0
       0       0       0       0       0       0       0       0
       0       0       0       0       0       0       0       0
       0       0       0       0       0       0       0       0
       0       0       0       0       0       0       0       0
       0       0       0       0       0       0       0       0
       0       0       0       0       0       0       0       0
       0       0       0       0       0       0       0       0
       0       0       0       0       0       0       0       0
       0       0       0       0       0       0       0       0
       0       0       0       0       0       0       0       0
       0       0       0       0       0       0       0       0
       0       0       0       0       0       0       0       0
       0       0       0       0       0       0       0       0
       0       0       0       0       0       0       0       0
       0       0       0       0       0       0       0       0
       0       0       0       0       0       0       0       0
       0       0       0       0       0       0       0       0
       0       0       0       0       0       0       0       0
       0       0       0       0       0       0       0       0
       0       0       0       0       0       0       0       0
       0       0       0       0       0       0       0       0
       0       0       0       0       0       0       0       0
       0       0       0       0       0       0       0       0
       0       0       0       0       0       0       0       0
       0       0       0       0       0       0       0       0
       0       0       0       0       0       0       0       0
       0       0       0       0       0       0       0       0
       0       0       0       0       0       0       0       0
       0       0       0       0       0       0       0       0
       0       0       0       0       0       0       0       0
       0       0       0       0       0       0       0       0
       0       0       0       0       0       0       0       0
       0       0       0       0       0       0       0       0
       0       0       0       0       0       0       0       0
       0       0       0       0       0       0       0       0
       0       0       0       0       0       0       0       0
       0       0       0       0       0       0       0       0
       0       0       0       0       0       0       0       0
       0       0       0       0       0       0       0       0
       0       0       0       0       0       0       0       0
       0       0       0       0       0       0       0       0
       0       0       0       0       0       0       0       0
       0       0       0       0       0       0       0       0
       0       0       0       0       0       0       0       0
       0       0       0       0       0       0       0       0
       0       0       0       0       0       0       0       0
       0       0       0       0       0       0       0       0
       0       0       0       0       0       0       0       0
       0       0       0       0       0       0       0       0
       0       0       0       0       0       0       0       0
       0       0       0       0       0       0       0       0
       0       0       0       0       0       0       0       0
       0       0       0       0       0       0       0       0
       0       0       0       0       0       0       0       0
       0       0       0       0       0       0       0       0
       0       0       0       0       0       0       0       0
       0       0       0       0       0       0       0       0
       0       0       0       0       0       0       0       0
       0       0       0       0       0       0       0       0
       0       0       0       0       0       0       0       0
       0       0       0       0       0       0       0       0
       0       0       0       0       0       0       0       0
       0       0       0       0       0       0       0       0
       0       0       0       0       0       0       0       0
       0       0       0       0       0       0       0       0
       0       0       0       0       0       0       0       0
       0       0       0       0       0       0       0       0
       0       0       0       0       0       0       0       0
       0       0       0       0       0       0       0       0
       0       0       0       0       0       0       0       0
       0       0       0       0       0       0       0       0
       0       0       0       0       0       0       0       0
       0       0       0       0       0       0       0       0
       0       0       0       0       0       0       0       0
       0       0       0       0       0       0       0       0
       0       0       0       0       0       0       0       0
       0       0       0       0       0       0       0       0
       0       0       0       0       0       0       0       0
       0       0       0       0       0       0       0       0
       0       0       0       0       0       0       0       0
       0       0       0       0       0       0       0       0
       0       0       0       0       0       0       0       0
       0       0       0       0       0       0       0       0
       0       0       0       0       0       0       0       0
       0       0       0       0       0       0       0       0
       0       0       0       0       0       0       0       0
       0       0       0       0       0       0       0       0
       0       0       0       0       0       0       0       0
       0       0       0       0       0       0       0       0
       0       0       0       0       0       0       0       0
       0       0       0       0       0       0       0       0
       0       0       0       0       0       0       0       0
       0       0       0       0       0       0       0       0
       0       0       0       0       0       0       0       0
       0       0       0       0       0       0       0       0
       0       0       0       0       0       0       0       0
       0       0       0       0       0       0       0       0
       0       0       0       0       0       0       0       0
       0       0       0       0       0       0       0       0
       0       0       0       0       0       0       0       0
       0       0       0       0       0       0       0       0
       0       0       0       0       0       0       0       0
       0       0       0       0       0       0       0       0
       0       0       0       0       0       0       0       0
       0       0       0       0       0       0       0       0
       0       0       0       0       0       0       0       0
       0       0       0       0       0       0       0       0
       0       0       0       0       0       0       0       0
       0       0       0       0       0       0       0       0
       0       0       0       0       0       0       0       0
       0       0       0       0       0       0       0       0
       0       0       0       0       0       0       0       0
       0       0       0       0       0       0       0       0
       0       0       0       0       0       0       0       0
       0       0       0       0       0       0       0       0
       0       0       0       0       0       0       0       0
       0       0       0       0       0       0       0       0
       0       0       0       0       0       0       0       0
       0       0       0       0       0       0       0       0
       0       0       0       0       0       0       0       0
       0       0       0       0       0       0       0       0
       0       0       0       0       0       0       0       0
       0       0       0       0       0       0       0       0
       0       0       0       0       0       0       0       0
       0       0       0       0       0       0       0       0
       0       0       0       0       0       0       0       0
       0       0       0       0       0       0       0       0
       0       0       0       0       0       0       0       0
       0       0       0       0       0       0       0       0
       0       0       0       0       0       0       0       0
       0       0       0       0       0       0       0       0
       0       0       0       0       0       0       0       0
       0       0       0       0       0       0       0       0
       0       0       0       0       0       0       0       0
       0       0       0       0       0       0       0       0
       0       0       0       0       0       0       0       0
       0       0       0       0       0       0       0       0
       0       0       0       0       0       0       0       0
       0       0       0       0       0       0       0       0
       0       0       0       0       0       0       0       0
       0       0       0       0       0       0       0       0
       0       0       0       0       0       0       0       0
       0       0       0       0       0       0       0       0
       0       0       0       0       0       0       0       0
       0       0       0       0       0       0       0       0
       0       0       0       0       0       0       0       0
       0       0       0       0       0       0       0       0
       0       0       0       0       0       0       0       0
       0       0       0       0       0       0       0       0
       0       0       0       0       0       0       0       0
       0       0       0       0       0       0       0       0
       0       0       0       0       0       0       0       0
       0       0       0       0       0       0       0       0
       0       0       0       0       0       0       0       0
       0       0       0       0       0       0       0       0
       0       0       0       0       0       0       0       0
       0       0       0       0       0       0       0       0
       0       0       0       0       0       0       0       0
       0       0       0       0       0       0       0       0
       0       0       0       0       0       0       0       0
       0       0       0       0       0       0       0       0
       0       0       0       0       0       0       0       0
       0       0       0       0       0       0       0       0
       0       0       0       0       0       0       0       0
       0       0       0       0       0       0       0       0
       0       0       0       0       0       0       0       0
       0       0       0       0       0       0       0       0
       0       0       0       0       0       0       0       0
       0       0       0       0       0       0       0       0
       0       0       0       0       0       0       0       0
       0       0       0       0       0       0       0       0
       0       0       0       0       0       0       0       0
       0       0       0       0       0       0       0       0
       0       0       0       0       0       0       0       0
       0       0       0       0       0       0       0       0
       0       0       0       0       0       0       0       0
       0       0       0       0       0       0       0       0
       0       0       0       0       0       0       0       0
       0       0       0       0       0       0       0       0
       0       0       0       0       0       0       0       0
       0       0       0       0       0       0       0       0
       0       0       0       0       0       0       0       0
       0       0       0       0       0       0       0       0
       0       0       0       0       0       0       0       0
       0       0       0       0       0       0       0       0
       0       0       0       0       0       0       0       0
       0       0       0       0       0       0       0       0
       0       0       0       0       0       0       0       0
       0       0       0       0       0       0       0       0
       0       0       0       0       0       0       0       0
       0       0       0       0       0       0       0       0
       0       0       0       0       0       0       0       0
       0       0       0       0       0       0       0       0
       0       0       0       0       0       0       0       0
       0       0       0       0       0       0       0       0
       0       0       0       0       0       0       0       0
       0       0       0       0       0       0       0       0
       0       0       0       0       0       0       0       0
       0       0       0       0       0       0       0       0
       0       0       0       0       0       0       0       0
       0       0       0       0       0       0       0       0
       0       0       0       0       0       0       0       0
       0       0       0       0       0       0       0       0
       0       0       0       0       0       0       0       0
       0       0       0       0       0       0       0       0
       0       0       0       0       0       0       0       0
       0       0       0       0       0       0       0       0
       0       0       0       0       0       0       0       0
       0       0       0       0       0       0       0       0
       0       0       0       0       0       0       0       0
       0       0       0       0       0       0       0       0
       0       0       0       0       0       0       0       0
       0       0       0       0       0       0       0       0
       0       0       0       0       0       0       0       0
       0       0       0       0       0       0       0       0
       0       0       0       0       0       0       0       0
       0       0       0       0       0       0       0       0
       0       0       0       0       0       0       0       0
       0       0       0       0       0       0       0       0
       0       0       0       0       0       0       0       0
       0       0       0       0       0       0       0       0
       0       0       0       0       0       0       0       0
       0       0       0       0       0       0       0       0
       0       0       0       0       0       0       0       0
       0       0       0       0       0       0       0       0
       0       0       0       0       0       0       0       0
       0       0       0       0       0       0       0       0
       0       0       0       0       0       0       0       0
       0       0       0       0       0       0       0       0
       0       0       0       0       0       0       0       0
       0       0       0       0       0       0       0       0
       0       0       0       0       0       0       0       0
       0       0       0       0       0       0       0       0
       0       0       0       0       0       0       0       0
       0       0       0       0       0       0       0       0
       0       0       0       0       0       0       0       0
       0       0       0       0       0       0       0       0
       0       0       0       0       0       0       0       0
       0       0       0       0       0       0       0       0
       0       0       0       0       0       0       0       0
       0       0       0       0       0       0       0       0
       0       0       0       0       0       0       0       0
       0       0       0       0       0       0       0       0
       0       0       0       0       0       0       0       0
       0       0       0       0       0       0       0       0
       0       0       0       0       0       0       0       0
       0       0       0       0       0       0       0       0
       0       0       0       0       0       0       0       0
       0       0       0       0       0       0       0       0
       0       0       0       0       0       0       0       0
       0       0       0       0       0       0       0       0
       0       0       0       0       0       0       0       0
       0       0       0       0       0       0       0       0
       0       0       0       0       0       0       0       0
       0       0       0       0       0       0       0       0
       0       0       0       0       0       0       0       0
       0       0       0       0       0       0       0       0
       0       0       0       0       0       0       0       0
       0       0       0       0       0       0       0       0
       0       0       0       0       0       0       0       0
       0       0       0       0       0       0       0       0
       0       0       0       0       0       0       0       0
       0       0       0       0       0       0       0       0
       0       0       0       0       0       0       0       0
       0       0       0       0       0       0       0       0
       0       0       0       0       0       0       0       0
       0       0       0       0       0       0       0       0
       0       0       0       0       0       0       0       0
       0       0       0       0       0       0       0       0
       0       0       0       0       0       0       0       0
       0       0       0       0       0       0       0       0
       0       0       0       0       0       0       0       0
       0       0       0       0       0       0       0       0
       0       0       0       0       0       0       0       0
       0       0       0       0       0       0       0       0
       0       0       0       0       0       0       0       0
       0       0       0       0       0       0       0       0
       0       0       0       0       0       0       0       0
       0       0       0       0       0       0       0       0
       0       0       0       0       0       0       0       0
       0       0       0       0       0       0       0       0
       0       0       0       0       0       0       0       0
       0       0       0       0       0       0       0       0
       0       0       0       0       0       0       0       0
       0       0       0       0       0       0       0       0
       0       0       0       0       0       0       0       0
       0       0       0       0       0       0       0       0
       0       0       0       0       0       0       0       0
       0       0       0       0       0       0       0       0
       0       0       0       0       0       0       0       0
       0       0       0       0       0       0       0       0
       0       0       0       0       0       0       0       0
       0       0       0       0       0       0       0       0
       0       0       0       0       0       0       0       0
       0       0       0       0       0       0       0       0
       0       0       0       0       0       0       0       0
       0       0       0       0       0       0       0       0
       0       0       0       0       0       0       0       0
       0       0       0       0       0       0       0       0
       0       0       0       0       0       0       0       0
       0       0       0       0       0       0       0       0
       0       0       0       0       0       0       0       0
       0       0       0       0       0       0       0       0
       0       0       0       0       0       0       0       0
       0       0       0       0       0       0       0       0
       0       0       0       0       0       0       0       0
       0       0       0       0       0       0       0       0
       0       0       0       0       0       0       0       0
       0       0       0       0       0       0       0       0
       0       0       0       0       0       0       0       0
       0       0       0       0       0       0       0       0
       0       0       0       0       0       0       0       0
       0       0       0       0       0       0       0       0
       0       0       0       0       0       0       0       0
       0       0       0       0       0       0       0       0
       0       0       0       0       0       0       0       0
       0       0       0       0       0       0       0       0
       0       0       0       0       0       0       0       0
       0       0       0       0       0       0       0       0
       0       0       0       0       0       0       0       0
       0       0       0       0       0       0       0       0
       0       0       0       0       0       0       0       0
       0       0       0       0       0       0       0       0
       0       0       0       0       0       0       0       0
       0       0       0       0       0       0       0       0
       0       0       0       0       0       0       0       0
       0       0       0       0       0       0       0       0
       0       0       0       0       0       0       0       0
       0       0       0       0       0       0       0       0
       0       0       0       0       0       0       0       0
       0       0       0       0       0       0       0       0
       0       0       0       0       0       0       0       0
       0       0       0       0       0       0       0       0
       0       0       0       0       0       0       0       0
       0       0       0       0       0       0       0       0
       0       0       0       0       0       0       0       0
       0       0       0       0       0       0       0       0
       0       0       0       0       0       0       0       0
       0       0       0       0       0       0       0       0
       0       0       0       0       0       0       0       0
       0       0       0       0       0       0       0       0
       0       0       0       0       0       0       0       0
       0       0       0       0       0       0       0       0
       0       0       0       0       0       0       0       0
       0       0       0       0       0       0       0       0
       0       0       0       0       0       0       0       0
       0       0       0       0       0       0       0       0
       0       0       0       0       0       0       0       0
       0       0       0       0       0       0       0       0
       0       0       0       0       0       0       0       0
       0       0       0       0       0       0       0       0
       0       0       0       0       0       0       0       0
       0       0       0       0       0       0       0       0
       0       0       0       0       0       0       0       0
       0       0       0       0       0       0       0       0
       0       0       0       0       0       0       0       0
       0       0       0       0       0       0       0       0
       0       0       0       0       0       0       0       0
       0       0       0       0       0       0       0       0
       0       0       0       0       0       0       0       0
       0       0       0       0       0       0       0       0
       0       0       0       0       0       0       0       0
       0       0       0       0       0       0       0       0
       0       0       0       0       0       0       0       0
       0       0       0       0       0       0       0       0
       0       0       0       0       0       0       0       0
       0       0       0       0       0       0       0       0
       0       0       0       0       0       0       0       0
       0       0       0       0       0       0       0       0
       0       0       0       0       0       0       0       0
       0       0       0       0       0       0       0       0
       0       0       0       0       0       0       0       0
       0       0       0       0       0       0       0       0
       0       0       0       0       0       0       0       0
       0       0       0       0       0       0       0       0
       0       0       0       0       0       0       0       0
       0       0       0       0       0       0       0       0
       0       0       0       0       0       0       0       0
       0       0       0       0       0       0       0       0
       0       0       0       0       0       0       0       0
       0       0       0       0       0       0       0       0
       0       0       0       0       0       0       0       0
       0       0       0       0       0       0       0       0
       0       0       0       0       0       0       0       0
       0       0       0       0       0       0       0       0
       0       0       0       0       0       0       0       0
       0       0       0       0       0       0       0       0
       0       0       0       0       0       0       0       0
       0       0       0       0       0       0       0       0
       0       0       0       0       0       0       0       0
       0       0       0       0       0       0       0       0
       0       0       0       0       0       0       0       0
       0       0       0       0       0       0       0       0
       0       0       0       0       0       0       0       0
       0       0       0       0       0       0       0       0
       0       0       0       0       0       0       0       0
       0       0       0       0       0       0       0       0
       0       0       0       0       0       0       0       0
       0       0       0       0       0       0       0       0
       0       0       0       0       0       0       0       0
       0       0       0       0       0       0       0       0
       0       0       0       0       0       0       0       0
       0       0       0       0       0       0       0       0
       0       0       0       0       0       0       0       0
       0       0       0       0       0       0       0       0
       0       0       0       0       0       0       0       0
       0       0       0       0       0       0       0       0
       0       0       0       0       0       0       0       0
       0       0       0       0       0       0       0       0
       0       0       0       0       0       0       0       0
       0       0       0       0       0       0       0       0
       0       0       0       0       0       0       0       0
       0       0       0       0       0       0       0       0
       0       0       0       0       0       0       0       0
       0       0       0       0       0       0       0       0
       0       0       0       0       0       0       0       0
       0       0       0       0       0       0       0       0
       0       0       0       0       0       0       0       0
       0       0       0       0       0       0       0       0
       0       0       0       0       0       0       0       0
       0       0       0       0       0       0       0       0
       0       0       0       0       0       0       0       0
       0       0       0       0       0       0       0       0
       0       0       0       0       0       0       0       0
       0       0       0       0       0       0       0       0
       0       0       0       0       0       0       0       0
       0       0       0       0       0       0       0       0
       0       0       0       0       0       0       0       0
       0       0       0       0       0       0       0       0
       0       0       0       0       0       0       0       0
       0       0       0       0       0       0       0       0
       0       0       0       0       0       0       0       0
       0       0       0       0       0       0       0       0
       0       0       0       0       0       0       0       0
       0       0       0       0       0       0       0       0
       0       0       0       0       0       0       0       0
       0       0       0       0       0       0       0       0
       0       0       0       0       0       0       0       0
       0       0       0       0       0       0       0       0
       0       0       0       0       0       0       0       0
       0       0       0       0       0       0       0       0
       0       0       0       0       0       0       0       0
       0       0       0       0       0       0       0       0
       0       0       0       0       0       0       0       0
       0       0       0       0       0       0       0       0
       0       0       0       0       0       0       0       0
       0       0       0       0       0       0       0       0
       0       0       0       0       0       0       0       0
       0       0       0       0       0       0       0       0
       0       0       0       0       0       0       0       0
       0       0       0       0       0       0       0       0
       0       0       0       0       0       0       0       0
       0       0       0       0       0       0       0       0
       0       0       0       0       0       0       0       0
       0       0       0       0       0       0       0       0
       0       0       0       0       0       0       0       0
       0       0       0       0       0       0       0       0
       0       0       0       0       0       0       0       0
       0       0       0       0       0       0       0       0
       0       0       0       0       0       0       0       0
       0       0       0       0       0       0       0       0
       0       0       0       0       0       0       0       0
       0       0       0       0       0       0       0       0
       0       0       0       0       0       0       0       0
       0       0       0       0       0       0       0       0
       0       0       0       0       0       0       0       0
       0       0       0       0       0       0       0       0
       0       0       0       0       0       0       0       0
       0       0       0       0       0       0       0       0
       0       0       0       0       0       0       0       0
       0       0       0       0       0       0       0       0
       0       0       0       0       0       0       0       0
       0       0       0       0       0       0       0       0
       0       0       0       0       0       0       0       0
       0       0       0       0       0       0       0       0
       0       0       0       0       0       0       0       0
       0       0       0       0       0       0       0       0
       0       0       0       0       0       0       0       0
       0       0       0       0       0       0       0       0
       0       0       0       0       0       0       0       0
       0       0       0       0       0       0       0       0
       0       0       0       0       0       0       0       0
       0       0       0       0       0       0       0       0
       0       0       0       0       0       0       0       0
       0       0       0       0       0       0       0       0
       0       0       0       0       0       0       0       0
       0       0       0       0       0       0       0       0
       0       0       0       0       0       0       0       0
       0       0       0       0       0       0       0       0
       0       0       0       0       0       0       0       0
       0       0       0       0       0       0       0       0
       0       0       0       0       0       0       0       0
       0       0       0       0       0       0       0       0
       0       0       0       0       0       0       0       0
       0       0       0       0       0       0       0       0
       0       0       0       0       0       0       0       0
       0       0       0       0       0       0       0       0
       0       0       0       0       0       0       0       0
       0       0       0       0       0       0       0       0
       0       0       0       0       0       0       0       0
       0       0       0       0       0       0       0       0
       0       0       0       0       0       0       0       0
       0       0       0       0       0       0       0       0
       0       0       0       0       0       0       0       0
       0       0       0       0       0       0       0       0
       0       0       0       0       0       0       0       0
       0       0       0       0       0       0       0       0
       0       0       0       0       0       0       0       0
       0       0       0       0       0       0       0       0
       0       0       0       0       0       0       0       0
       0       0       0       0       0       0       0       0
       0       0       0       0       0       0       0       0
       0       0       0       0       0       0       0       0
       0       0       0       0       0       0       0       0
       0       0       0       0       0       0       0       0
       0       0       0       0       0       0       0       0
       0       0       0       0       0       0       0       0
       0       0       0       0       0       0       0       0
       0       0       0       0       0       0       0       0
       0       0       0       0       0       0       0       0
       0       0       0       0       0       0       0       0
       0       0       0       0       0       0       0       0
       0       0       0       0       0       0       0       0
       0       0       0       0       0       0       0       0
       0       0       0       0       0       0       0       0
       0       0       0       0       0       0       0       0
       0       0       0       0       0       0       0       0
       0       0       0       0       0       0       0       0
       0       0       0       0       0       0       0       0
       0       0       0       0       0       0       0       0
       0       0       0       0       0       0       0       0
       0       0       0       0       0       0       0       0
       0       0       0       0       0       0       0       0
       0       0       0       0       0       0       0       0
       0       0       0       0       0       0       0       0
       0       0       0       0       0       0       0       0
       0       0       0       0       0       0       0       0
       0       0       0       0       0       0       0       0
       0       0       0       0       0       0       0       0
       0       0       0       0       0       0       0       0
       0       0       0       0       0       0       0       0
       0       0       0       0       0       0       0       0
       0       0       0       0       0       0       0       0
       0       0       0       0       0       0       0       0
       0       0       0       0       0       0       0       0
       0       0       0       0       0       0       0       0
       0       0       0       0       0       0       0       0
       0       0       0       0       0       0       0       0
       0       0       0       0       0       0       0       0
       0       0       0       0       0       0       0       0
       0       0       0       0       0       0       0       0
       0       0       0       0       0       0       0       0
       0       0       0       0       0       0       0       0
       0       0       0       0       0       0       0       0
       0       0       0       0       0       0       0       0
       0       0       0       0       0       0       0       0
       0       0       0       0       0       0       0       0
       0       0       0       0       0       0       0       0
       0       0       0       0       0       0       0       0
       0       0       0       0       0       0       0       0
       0       0       0       0       0       0       0       0
       0       0       0       0       0       0       0       0
       0       0       0       0       0       0       0       0
       0       0       0       0       0       0       0       0
       0       0       0       0       0       0       0       0
       0       0       0       0       0       0       0       0
       0       0       0       0       0       0       0       0
       0       0       0       0       0       0       0       0
       0       0       0       0       0       0       0       0
       0       0       0       0       0       0       0       0
       0       0       0       0       0       0       0       0
       0       0       0       0       0       0       0       0
       0       0       0       0       0       0       0       0
       0       0       0       0       0       0       0       0
       0       0       0       0       0       0       0       0
       0       0       0       0       0       0       0       0
       0       0       0       0       0       0       0       0
       0       0       0       0       0       0       0       0
       0       0       0       0       0       0       0       0
       0       0       0       0       0       0       0       0
       0       0       0       0       0       0       0       0
       0       0       0       0       0       0       0       0
       0       0       0       0       0       0       0       0
       0       0       0       0       0       0       0       0
       0       0       0       0       0       0       0       0
       0       0       0       0       0       0       0       0
       0       0       0       0       0       0       0       0
       0       0       0       0       0       0       0       0
       0       0       0       0       0       0       0       0
       0       0       0       0       0       0       0       0
       0       0       0       0       0       0       0       0
       0       0       0       0       0       0       0       0
       0       0       0       0       0       0       0       0
       0       0       0       0       0       0       0       0
       0       0       0       0       0       0       0       0
       0       0       0       0       0       0       0       0
       0       0       0       0       0       0       0       0
       0       0       0       0       0       0       0       0
       0       0       0       0       0       0       0       0
       0       0       0       0       0       0       0       0
       0       0       0       0       0       0       0       0
       0       0       0       0       0       0       0       0
       0       0       0       0       0       0       0       0
       0       0       0       0       0       0       0       0
       0       0       0       0       0       0       0       0
       0       0       0       0       0       0       0       0
       0       0       0       0       0       0       0       0
       0       0       0       0       0       0       0       0
       0       0       0       0       0       0       0       0
       0       0       0       0       0       0       0       0
       0       0       0       0       0       0       0       0
       0       0       0       0       0       0       0       0
       0       0       0       0       0       0       0       0
       0       0       0       0       0       0       0       0
       0       0       0       0       0       0       0       0
       0       0       0       0       0       0       0       0
       0       0       0       0       0       0       0       0
       0       0       0       0       0       0       0       0
       0       0       0       0       0       0       0       0
       0       0       0       0       0       0       0       0
       0       0       0       0       0       0       0       0
       0       0       0       0       0       0       0       0
       0       0       0       0       0       0       0       0
       0       0       0       0       0       0       0       0
       0       0       0       0       0       0       0       0
       0       0       0       0       0       0       0       0
       0       0       0       0       0       0       0       0
       0       0       0       0       0       0       0       0
       0       0       0       0       0       0       0       0
       0       0       0       0       0       0       0       0
       0       0       0       0       0       0       0       0
       0       0       0       0       0       0       0       0
       0       0       0       0       0       0       0       0
       0       0       0       0       0       0       0       0
       0       0       0       0       0       0       0       0
       0       0       0       0       0       0       0       0
       0       0       0       0       0       0       0       0
       0       0       0       0       0       0       0       0
       0       0       0       0       0       0       0       0
       0       0       0       0       0       0       0       0
       0       0       0       0       0       0       0       0
       0       0       0       0       0       0       0       0
       0       0       0       0       0       0       0       0
       0       0       0       0       0       0       0       0
       0       0       0       0       0       0       0       0
       0       0       0       0       0       0       0       0
       0       0       0       0       0       0       0       0
       0       0       0       0       0       0       0       0
       0       0       0       0       0       0       0       0
       0       0       0       0       0       0       0       0
       0       0       0       0       0       0       0       0
       0       0       0       0       0       0       0       0
       0       0       0       0       0       0       0       0
       0       0       0       0       0       0       0       0
       0       0       0       0       0       0       0       0
       0       0       0       0       0       0       0       0
       0       0       0       0       0       0       0       0
       0       0       0       0       0       0       0       0
       0       0       0       0       0       0       0       0
       0       0       0       0       0       0       0       0
       0       0       0       0       0       0       0       0
       0       0       0       0       0       0       0       0
       0       0       0       0       0       0       0       0
       0       0       0       0       0       0       0       0
       0       0       0       0       0       0       0       0
       0       0       0       0       0       0       0       0
       0       0       0       0       0       0       0       0
       0       0       0       0       0       0       0       0
       0       0       0       0       0       0       0       0
       0       0       0       0       0       0       0       0
       0       0       0       0       0       0       0       0
       0       0       0       0       0       0       0       0
       0       0       0       0       0       0       0       0
       0       0       0       0       0       0       0       0
       0       0       0       0       0       0       0       0
       0       0       0       0       0       0       0       0
       0       0       0       0       0       0       0       0
       0       0       0       0       0       0       0       0
       0       0       0       0       0       0       0       0
       0       0       0       0       0       0       0       0
       0       0       0       0       0       0       0       0
       0       0       0       0       0       0       0       0
       0       0       0       0       0       0       0       0
       0       0       0       0       0       0       0       0
       0       0       0       0       0       0       0       0
       0       0       0       0       0       0       0       0
       0       0       0       0       0       0       0       0
       0       0       0       0       0       0       0       0
       0       0       0       0       0       0       0       0
       0       0       0       0       0       0       0       0
       0       0       0       0       0       0       0       0
       0       0       0       0       0       0       0       0
       0       0       0       0       0       0       0       0
       0       0       0       0       0       0       0       0
       0       0       0       0       0       0       0       0
       0       0       0       0       0       0       0       0
       0       0       0       0       0       0       0       0
       0       0       0       0       0       0       0       0
       0       0       0       0       0       0       0       0
       0       0       0       0       0       0       0       0
       0       0       0       0       0       0       0       0
       0       0       0       0       0       0       0       0
       0       0       0       0       0       0       0       0
       0       0       0       0       0       0       0       0
       0       0       0       0       0       0       0       0
       0       0       0       0       0       0       0       0
       0       0       0       0       0       0       0       0
       0       0       0       0       0       0       0       0
       0       0       0       0       0       0       0       0
       0       0       0       0       0       0       0       0
       0       0       0       0       0       0       0       0
       0       0       0       0       0       0       0       0
       0       0       0       0       0       0       0       0
       0       0       0       0       0       0       0       0
       0       0       0       0       0       0       0       0
       0       0       0       0       0       0       0       0
       0       0       0       0       0       0       0       0
       0       0       0       0       0       0       0       0
       0       0       0       0       0       0       0       0
       0       0       0       0       0       0       0       0
       0       0       0       0       0       0       0       0
       0       0       0       0       0       0       0       0
       0       0       0       0       0       0       0       0
       0       0       0       0       0       0       0       0
       0       0       0       0       0       0       0       0
       0       0       0       0       0       0       0       0
       0       0       0       0       0       0       0       0
       0       0       0       0       0       0       0       0
       0       0       0       0       0       0       0       0
       0       0       0       0       0       0       0       0
       0       0       0       0       0       0       0       0
       0       0       0       0       0       0       0       0
       0       0       0       0       0       0       0       0
       0       0       0       0       0       0       0       0
       0       0       0       0       0       0       0       0
       0       0       0       0       0       0       0       0
       0       0       0       0       0       0       0       0
       0       0       0       0       0       0       0       0
       0       0       0       0       0       0       0       0
       0       0       0       0       0       0       0       0
       0       0       0       0       0       0       0       0
       0       0       0       0       0       0       0       0
       0       0       0       0       0       0       0       0
       0       0       0       0       0       0       0       0
       0       0       0       0       0       0       0       0
       0       0       0       0       0       0       0       0
       0       0       0       0       0       0       0       0
       0       0       0       0       0       0       0       0
       0       0       0       0       0       0       0       0
       0       0       0       0       0       0       0       0
       0       0       0       0       0       0       0       0
       0       0       0       0       0       0       0       0
       0       0       0       0       0       0       0       0
       0       0       0       0       0       0       0       0
       0       0       0       0       0       0       0       0
       0       0       0       0       0       0       0       0
       0       0       0       0       0       0       0       0
       0       0       0       0       0       0       0       0
       0       0       0       0       0       0       0       0
       0       0       0       0       0       0       0       0
       0       0       0       0       0       0       0       0
       0       0       0       0       0       0       0       0
       0       0       0       0       0       0       0       0
       0       0       0       0       0       0       0       0
       0       0       0       0       0       0       0       0
       0       0       0       0       0       0       0       0
       0       0       0       0       0       0       0       0
       0       0       0       0       0       0       0       0
       0       0       0       0       0       0       0       0
       0       0       0       0       0       0       0       0
       0       0       0       0       0       0       0       0
       0       0       0       0       0       0       0       0
       0       0       0       0       0       0       0       0
       0       0       0       0       0       0       0       0
       0       0       0       0       0       0       0       0
       0       0       0       0       0       0       0       0
       0       0       0       0       0       0       0       0
       0       0       0       0       0       0       0       0
       0       0       0       0       0       0       0       0
       0       0       0       0       0       0       0       0
       0       0       0       0       0       0       0       0
       0       0       0       0       0       0       0       0
       0       0       0       0       0       0       0       0
       0       0       0       0       0       0       0       0
       0       0       0       0       0       0       0       0
       0       0       0       0       0       0       0       0
       0       0       0       0       0       0       0       0
       0       0       0       0       0       0       0       0
       0       0       0       0       0       0       0       0
       0       0       0       0       0       0       0       0
       0       0       0       0       0       0       0       0
       0       0       0       0       0       0       0       0
       0       0       0       0       0       0       0       0
       0       0       0       0       0       0       0       0
       0       0       0       0       0       0       0       0
       0       0       0       0       0       0       0       0
       0       0       0       0       0       0       0       0
       0       0       0       0       0       0       0       0
       0       0       0       0       0       0       0       0
       0       0       0       0       0       0       0       0
       0       0       0       0       0       0       0       0
       0       0       0       0       0       0       0       0
       0       0       0       0       0       0       0       0
       0       0       0       0       0       0       0       0
       0       0       0       0       0       0       0       0
       0       0       0       0       0       0       0       0
       0       0       0       0       0       0       0       0
       0       0       0       0       0       0       0       0
       0       0       0       0       0       0       0       0
       0       0       0       0       0       0       0       0
       0       0       0       0       0       0       0       0
       0       0       0       0       0       0       0       0
       0       0       0       0       0       0       0       0
       0       0       0       0       0       0       0       0
       0       0       0       0       0       0       0       0
       0       0       0       0       0       0       0       0
       0       0       0       0       0       0       0       0
       0       0       0       0       0       0       0       0
       0       0       0       0       0       0       0       0
       0       0       0       0       0       0       0       0
       0       0       0       0       0       0       0       0
       0       0       0       0       0       0       0       0
       0       0       0       0       0       0       0       0
       0       0       0       0       0       0       0       0
       0       0       0       0       0       0       0       0
       0       0       0       0       0       0       0       0
       0       0       0       0       0       0       0       0
       0       0       0       0       0       0       0       0
       0       0       0       0       0       0       0       0
       0       0       0       0       0       0       0       0
       0       0       0       0       0       0       0       0
       0       0       0       0       0       0       0       0
       0       0       0       0       0       0       0       0
       0       0       0       0       0       0       0       0
       0       0       0       0       0       0       0       0
       0       0       0       0       0       0       0       0
       0       0       0       0       0       0       0       0
       0       0       0       0       0       0       0       0
       0       0       0       0       0       0       0       0
       0       0       0       0       0       0       0       0
       0       0       0       0       0       0       0       0
       0       0       0       0       0       0       0       0
       0       0       0       0       0       0       0       0
       0       0       0       0       0       0       0       0
       0       0       0       0       0       0       0       0
       0       0       0       0       0       0       0       0
       0       0       0       0       0       0       0       0
       0       0       0       0       0       0       0       0
       0       0       0       0       0       0       0       0
       0       0       0       0       0       0       0       0
       0       0       0       0       0       0       0       0
       0       0       0       0       0       0       0       0
       0       0       0       0       0       0       0       0
       0       0       0       0       0       0       0       0
       0       0       0       0       0       0       0       0
       0       0       0       0       0       0       0       0
       0       0       0       0       0       0       0       0
       0       0       0       0       0       0       0       0
       0       0       0       0       0       0       0       0
       0       0       0       0       0       0       0       0
       0       0       0       0       0       0       0       0
       0       0       0       0       0       0       0       0
       0       0       0       0       0       0       0       0
       0       0       0       0       0       0       0       0
       0       0       0       0       0       0       0       0
       0       0       0       0       0       0       0       0
       0       0       0       0       0       0       0       0
       0       0       0       0       0       0       0       0
       0       0       0       0       0       0       0       0
       0       0       0       0       0       0       0       0
       0       0       0       0       0       0       0       0
       0       0       0       0       0       0       0       0
       0       0       0       0       0       0       0       0
       0       0       0       0       0       0       0       0
       0       0       0       0       0       0       0       0
       0       0       0       0       0       0       0       0
       0       0       0       0       0       0       0       0
       0       0       0       0       0       0       0       0
       0       0       0       0       0       0       0       0
       0       0       0       0       0       0       0       0
       0       0       0       0       0       0       0       0
       0       0       0       0       0       0       0       0
       0       0       0       0       0       0       0       0
       0       0       0       0       0       0       0       0
       0       0       0       0       0       0       0       0
       0       0       0       0       0       0       0       0
       0       0       0       0       0       0       0       0
       0       0       0       0       0       0       0       0
       0       0       0       0       0       0       0       0
       0       0       0       0       0       0       0       0
       0       0       0       0       0       0       0       0
       0       0       0       0       0       0       0       0
       0       0       0       0       0       0       0       0
       0       0       0       0       0       0       0       0
       0       0       0       0       0       0       0       0
       0       0       0       0       0       0       0       0
       0       0       0       0       0       0       0       0
       0       0       0       0       0       0       0       0
       0       0       0       0       0       0       0       0
       0       0       0       0       0       0       0       0
       0       0       0       0       0       0       0       0
       0       0       0       0       0       0       0       0
       0       0       0       0       0       0       0       0
       0       0       0       0       0       0       0       0
       0       0       0       0       0       0       0       0
       0       0       0       0       0       0       0       0
       0       0       0       0       0       0       0       0
       0       0       0       0       0       0       0       0
       0       0       0       0       0       0       0       0
       0       0       0       0       0       0       0       0
       0       0       0       0       0       0       0       0
       0       0       0       0       0       0       0       0
       0       0       0       0       0       0       0       0
       0       0       0       0       0       0       0       0
       0       0       0       0       0       0       0       0
       0       0       0       0       0       0       0       0
       0       0       0       0       0       0       0       0
       0       0       0       0       0       0       0       0
       0       0       0       0       0       0       0       0
       0       0       0       0       0       0       0       0
       0       0       0       0       0       0       0       0
       0       0       0       0       0       0       0       0
       0       0       0       0       0       0       0       0
       0       0       0       0       0       0       0       0
       0       0       0       0       0       0       0       0
       0       0       0       0       0       0       0       0
       0       0       0       0       0       0       0       0
       0       0       0       0       0       0       0       0
       0       0       0       0       0       0       0       0
       0       0       0       0       0       0       0       0
       0       0       0       0       0       0       0       0
       0       0       0       0       0       0       0       0
       0       0       0       0       0       0       0       0
       0       0       0       0       0       0       0       0
       0       0       0       0       0       0       0       0
       0       0       0       0       0       0       0       0
       0       0       0       0       0       0       0       0
       0       0       0       0       0       0       0       0
       0       0       0       0       0       0       0       0
       0       0       0       0       0       0       0       0
       0       0       0       0       0       0       0       0
       0       0       0       0       0       0       0       0
       0       0       0       0       0       0       0       0
       0       0       0       0       0       0       0       0
       0       0       0       0       0       0       0       0
       0       0       0       0       0       0       0       0
       0       0       0       0       0       0       0       0
       0       0       0       0       0       0       0       0
       0       0       0       0       0       0       0       0
       0       0       0       0       0       0       0       0
       0       0       0       0       0       0       0       0
       0       0       0       0       0       0       0       0
       0       0       0       0       0       0       0       0
       0       0       0       0       0       0       0       0
       0       0       0       0       0       0       0       0
       0       0       0       0       0       0       0       0
       0       0       0       0       0       0       0       0
       0       0       0       0       0       0       0       0
       0       0       0       0       0       0       0       0
       0       0       0       0       0       0       0       0
       0       0       0       0       0       0       0       0
       0       0       0       0       0       0       0       0
       0       0       0       0       0       0       0       0
       0       0       0       0       0       0       0       0
       0       0       0       0       0       0       0       0
       0       0       0       0       0       0       0       0
       0       0       0       0       0       0       0       0
       0       0       0       0       0       0       0       0
       0       0       0       0       0       0       0       0
       0       0       0       0       0       0       0       0
       0       0       0       0       0       0       0       0
       0       0       0       0       0       0       0       0
       0       0       0       0       0       0       0       0
       0       0       0       0       0       0       0       0
       0       0       0       0       0       0       0       0
       0       0       0       0       0       0       0       0
       0       0       0       0       0       0       0       0
       0       0       0       0       0       0       0       0
       0       0       0       0       0       0       0       0
       0       0       0       0       0       0       0       0
       0       0       0       0       0       0       0       0
       0       0       0       0       0       0       0       0
       0       0       0       0       0       0       0       0
       0       0       0       0       0       0       0       0
       0       0       0       0       0       0       0       0
       0       0       0       0       0       0       0       0
       0       0       0       0       0       0       0       0
       0       0       0       0       0       0       0       0
       0       0       0       0       0       0       0       0
       0       0       0       0       0       0       0       0
       0       0       0       0       0       0       0       0
       0       0       0       0       0       0       0       0
       0       0       0       0       0       0       0       0
       0       0       0       0       0       0       0       0
       0       0       0       0       0       0       0       0
       0       0       0       0       0       0       0       0
       0       0       0       0       0       0       0       0
       0       0       0       0       0       0       0       0
       0       0       0       0       0       0       0       0
       0       0       0       0       0       0       0       0
       0       0       0       0       0       0       0       0
       0       0       0       0       0       0       0       0
       0       0       0       0       0       0       0       0
       0       0       0       0       0       0       0       0
       0       0       0       0       0       0       0       0
       0       0       0       0       0       0       0       0
       0       0       0       0       0       0       0       0
       0       0       0       0       0       0       0       0
       0       0       0       0       0       0       0       0
       0       0       0       0       0       0       0       0
       0       0       0       0       0       0       0       0
       0       0       0       0       0       0       0       0
       0       0       0       0       0       0       0       0
       0       0       0       0       0       0       0       0
       0       0       0       0       0       0       0       0
       0       0       0       0       0       0       0       0
       0       0       0       0       0       0       0       0
       0       0       0       0       0       0       0       0
       0       0       0       0       0       0       0       0
       0       0       0       0       0       0       0       0
       0       0       0       0       0       0       0       0
       0       0       0       0       0       0       0       0
       0       0       0       0       0       0       0       0
       0       0       0       0       0       0       0       0
       0       0       0       0       0       0       0       0
       0       0       0       0       0       0       0       0
       0       0       0       0       0       0       0       0
       0       0       0       0       0       0       0       0
       0       0       0       0       0       0       0       0
       0       0       0       0       0       0       0       0
       0       0       0       0       0       0       0       0
       0       0       0       0       0       0       0       0
       0       0       0       0       0       0       0       0
       0       0       0       0       0       0       0       0
       0       0       0       0       0       0       0       0
       0       0       0       0       0       0       0       0
       0       0       0       0       0       0       0       0
       0       0       0       0       0       0       0       0
       0       0       0       0       0       0       0       0
       0       0       0       0       0       0       0       0
       0       0       0       0       0       0       0       0
       0       0       0       0       0       0       0       0
       0       0       0       0       0       0       0       0
       0       0       0       0       0       0       0       0
       0       0       0       0       0       0       0       0
       0       0       0       0       0       0       0       0
       0       0       0       0       0       0       0       0
       0       0       0       0       0       0       0       0
       0       0       0       0       0       0       0       0
       0       0       0       0       0       0       0       0
       0       0       0       0       0       0       0       0
       0       0       0       0       0       0       0       0
       0       0       0       0       0       0       0       0
       0       0       0       0       0       0       0       0
       0       0       0       0       0       0       0       0
       0       0       0       0       0       0       0       0
       0       0       0       0       0       0       0       0
       0       0       0       0       0       0       0       0
       0       0       0       0       0       0       0       0
       0       0       0       0       0       0       0       0
       0       0       0       0       0       0       0       0
       0       0       0       0       0       0       0       0
       0       0       0       0       0       0       0       0
       0       0       0       0       0       0       0       0
       0       0       0       0       0       0       0       0
       0       0       0       0       0       0       0       0
       0       0       0       0       0       0       0       0
       0       0       0       0       0       0       0       0
       0       0       0       0       0       0       0       0
       0       0       0       0       0       0       0       0
       0       0       0       0       0       0       0       0
       0       0       0       0       0       0       0       0
       0       0       0       0       0       0       0       0
       0       0       0       0       0       0       0       0
       0       0       0       0       0       0       0       0
       0       0       0       0       0       0       0       0
       0       0       0       0       0       0       0       0
       0       0       0       0       0       0       0       0
       0       0       0       0       0       0       0       0
       0       0       0       0       0       0       0       0
       0       0       0       0       0       0       0       0
       0       0       0       0       0       0       0       0
       0       0       0       0       0       0       0       0
       0       0       0       0       0       0       0       0
       0       0       0       0       0       0       0       0
       0       0       0       0       0       0       0       0
       0       0       0       0       0       0       0       0
       0       0       0       0       0       0       0       0
       0       0       0       0       0       0       0       0
       0       0       0       0       0       0       0       0
       0       0       0       0       0       0       0       0
       0       0       0       0       0       0       0       0
       0       0       0       0       0       0       0       0
       0       0       0       0       0       0       0       0
       0       0       0       0       0       0       0       0
       0       0       0       0       0       0       0       0
       0       0       0       0       0       0       0       0
       0       0       0       0       0       0       0       0
       0       0       0       0       0       0       0       0
       0       0       0       0       0       0       0       0
       0       0       0       0       0       0       0       0
       0       0       0       0       0       0       0       0
       0       0       0       0       0       0       0       0
       0       0       0       0       0       0       0       0
       0       0       0       0       0       0       0       0
       0       0       0       0       0       0       0       0
       0       0       0       0       0       0       0       0
       0       0       0       0       0       0       0       0
       0       0       0       0       0       0       0       0
       0       0       0       0       0       0       0       0
       0       0       0       0       0       0       0       0
       0       0       0       0       0       0       0       0
       0       0       0       0       0       0       0       0
       0       0       0       0       0       0       0       0
       0       0       0       0       0       0       0       0
       0       0       0       0       0       0       0       0
       0       0       0       0       0       0       0       0
       0       0       0       0       0       0       0       0
       0       0       0       0       0       0       0       0
       0       0       0       0       0       0       0       0
       0       0       0       0       0       0       0       0
       0       0       0       0       0       0       0       0
       0       0       0       0       0       0       0       0
       0       0       0       0       0       0       0       0
       0       0       0       0       0       0       0       0
       0       0       0       0       0       0       0       0
       0       0       0       0       0       0       0       0
       0       0       0       0       0       0       0       0
       0       0       0       0       0       0       0       0
       0       0       0       0       0       0       0       0
       0       0       0       0       0       0       0       0
       0       0       0       0       0       0       0       0
       0       0       0       0       0       0       0       0
       0       0       0       0       0       0       0       0
       0       0       0       0       0       0       0       0
       0       0       0       0       0       0       0       0
       0       0       0       0       0       0       0       0
       0       0       0       0       0       0       0       0
       0       0       0       0       0       0       0       0
       0       0       0       0       0       0       0       0
       0       0       0       0       0       0       0       0
       0       0       0       0       0       0       0       0
       0       0       0       0       0       0       0       0
       0       0       0       0       0       0       0       0
       0       0       0       0       0       0       0       0
       0       0       0       0       0       0       0       0
       0       0       0       0       0       0       0       0
       0       0       0       0       0       0       0       0
       0       0       0       0       0       0       0       0
       0       0       0       0       0       0       0       0
       0       0       0       0       0       0       0       0
       0       0       0       0       0       0       0       0
       0       0       0       0       0       0       0       0
       0       0       0       0       0       0       0       0
       0       0       0       0       0       0       0       0
       0       0       0       0       0       0       0       0
       0       0       0       0       0       0       0       0
       0       0       0       0       0       0       0       0
       0       0       0       0       0       0       0       0
       0       0       0       0       0       0       0       0
       0       0       0       0       0       0       0       0
       0       0       0       0       0       0       0       0
       0       0       0       0       0       0       0       0
       0       0       0       0       0       0       0       0
       0       0       0       0       0       0       0       0
       0       0       0       0       0       0       0       0
       0       0       0       0       0       0       0       0
       0       0       0       0       0       0       0       0
       0       0       0       0       0       0       0       0
       0       0       0       0       0       0       0       0
       0       0       0       0       0       0       0       0
       0       0       0       0       0       0       0       0
       0       0       0       0       0       0       0       0
       0       0       0       0       0       0       0       0
       0       0       0       0       0       0       0       0
       0       0       0       0       0       0       0       0
       0       0       0       0       0       0       0       0
       0       0       0       0       0       0       0       0
       0       0       0       0       0       0       0       0
       0       0       0       0       0       0       0       0
       0       0       0       0       0       0       0       0
       0       0       0       0       0       0       0       0
       0       0       0       0       0       0       0       0
       0       0       0       0       0       0       0       0
       0       0       0       0       0       0       0       0
       0       0       0       0       0       0       0       0
       0       0       0       0       0       0       0       0
       0       0       0       0       0       0       0       0
       0       0       0       0       0       0       0       0
       0       0       0       0       0       0       0       0
       0       0       0       0       0       0       0       0
       0       0       0       0       0       0       0       0
       0       0       0       0       0       0       0       0
       0       0       0       0       0       0       0       0
       0       0       0       0       0       0       0       0
       0       0       0       0       0       0       0       0
       0       0       0       0       0       0       0       0
       0       0       0       0       0       0       0       0
       0       0       0       0       0       0       0       0
       0       0       0       0       0       0       0       0
       0       0       0       0       0       0       0       0
       0       0       0       0       0       0       0       0
       0       0       0       0       0       0       0       0
       0       0       0       0       0       0       0       0
       0       0       0       0       0       0       0       0
       0       0       0       0       0       0       0       0
       0       0       0       0       0       0       0       0
       0       0       0       0       0       0       0       0
       0       0       0       0       0       0       0       0
       0       0       0       0       0       0       0       0
       0       0       0       0       0       0       0       0
       0       0       0       0       0       0       0       0
       0       0       0       0       0       0       0       0
       0       0       0       0       0       0       0       0
       0       0       0       0       0       0       0       0
       0       0       0       0       0       0       0       0
       0       0       0       0       0       0       0       0
       0       0       0       0       0       0       0       0
       0       0       0       0       0       0       0       0
       0       0       0       0       0       0       0       0
       0       0       0       0       0       0       0       0
       0       0       0       0       0       0       0       0
       0       0       0       0       0       0       0       0
       0       0       0       0       0       0       0       0
       0       0       0       0       0       0       0       0
       0       0       0       0       0       0       0       0
       0       0       0       0       0       0       0       0
       0       0       0       0       0       0       0       0
       0       0       0       0       0       0       0       0
       0       0       0       0       0       0       0       0
       0       0       0       0       0       0       0       0
       0       0       0       0       0       0       0       0
       0       0       0       0       0       0       0       0
       0       0       0       0       0       0       0       0
       0       0       0       0       0       0       0       0
       0       0       0       0       0       0       0       0
       0       0       0       0       0       0       0       0
       0       0       0       0       0       0       0       0
       0       0       0       0       0       0       0       0
       0       0       0       0       0       0       0       0
       0       0       0       0       0       0       0       0
       0       0       0       0       0       0       0       0
       0       0       0       0       0       0       0       0
       0       0       0       0       0       0       0       0
       0       0       0       0       0       0       0       0
       0       0       0       0       0       0       0       0
       0       0       0       0       0       0       0       0
       0       0       0       0       0       0       0       0
       0       0       0       0       0       0       0       0
       0       0       0       0       0       0       0       0
       0       0       0       0       0       0       0       0
       0       0       0       0       0       0       0       0
       0       0       0       0       0       0       0       0
       0       0       0       0       0       0       0       0
       0       0       0       0       0       0       0       0
       0       0       0       0       0       0       0       0
       0       0       0       0       0       0       0       0
       0       0       0       0       0       0       0       0
       0       0       0       0       0       0       0       0
       0       0       0       0       0       0       0       0
       0       0       0       0       0       0       0       0
       0       0       0       0       0       0       0       0
       0       0       0       0       0       0       0       0
       0       0       0       0       0       0       0       0
       0       0       0       0       0       0       0       0
       0       0       0       0       0       0       0       0
       0       0       0       0       0       0       0       0
       0       0       0       0       0       0       0       0
       0       0       0       0       0       0       0       0
       0       0       0       0       0       0       0       0
       0       0       0       0       0       0       0       0
       0       0       0       0       0       0       0       0
       0       0       0       0       0       0       0       0
       0       0       0       0       0       0       0       0
       0       0       0       0       0       0       0       0
       0       0       0       0       0       0       0       0
       0       0       0       0       0       0       0       0
       0       0       0       0       0       0       0       0
       0       0       0       0       0       0       0       0
       0       0       0       0       0       0       0       0
       0       0       0       0       0       0       0       0
       0       0       0       0       0       0       0       0
       0       0       0       0       0       0       0       0
       0       0       0       0       0       0       0       0
       0       0       0       0       0       0       0       0
       0       0       0       0       0       0       0       0
       0       0       0       0       0       0       0       0
       0       0       0       0       0       0       0       0
       0       0       0       0       0       0       0       0
       0       0       0       0       0       0       0       0
       0       0       0       0       0       0       0       0
       0       0       0       0       0       0       0       0
       0       0       0       0       0       0       0       0
       0       0       0       0       0       0       0       0
       0       0       0       0       0       0       0       0
       0       0       0       0       0       0       0       0
       0       0       0       0       0       0       0       0
       0       0       0       0       0       0       0       0
       0       0       0       0       0       0       0       0
       0       0       0       0       0       0       0       0
       0       0       0       0       0       0       0       0
       0       0       0       0       0       0       0       0
       0       0       0       0       0       0       0       0
       0       0       0       0       0       0       0       0
       0       0       0       0       0       0       0       0
       0       0       0       0       0       0       0       0
       0       0       0       0       0       0       0       0
       0       0       0       0       0       0       0       0
       0       0       0       0       0       0       0       0
       0       0       0       0       0       0       0       0
       0       0       0       0       0       0       0       0
       0       0       0       0       0       0       0       0
       0       0       0       0       0       0       0       0
       0       0       0       0       0       0       0       0
       0       0       0       0       0       0       0       0
       0       0       0       0       0       0       0       0
       0       0       0       0       0       0       0       0
       0       0       0       0       0       0       0       0
       0       0       0       0       0       0       0       0
       0       0       0       0       0       0       0       0
       0       0       0       0       0       0       0       0
       0       0       0       0       0       0       0       0
       0       0       0       0       0       0       0       0
       0       0       0       0       0       0       0       0
       0       0       0       0       0       0       0       0
       0       0       0       0       0       0       0       0
       0       0       0       0       0       0       0       0
       0       0       0       0       0       0       0       0
       0       0       0       0       0       0       0       0
       0       0       0       0       0       0       0       0
       0       0       0       0       0       0       0       0
       0       0       0       0       0       0       0       0
       0       0       0       0       0       0       0       0
       0       0       0       0       0       0       0       0
       0       0       0       0       0       0       0       0
       0       0       0       0       0       0       0       0
       0       0       0       0       0       0       0       0
       0       0       0       0       0       0       0       0
       0       0       0       0       0       0       0       0
       0       0       0       0       0       0       0       0
       0       0       0       0       0       0       0       0
       0       0       0       0       0       0       0       0
       0       0       0       0       0       0       0       0
       0       0       0       0       0       0       0       0
       0       0       0       0       0       0       0       0
       0       0       0       0       0       0       0       0
       0       0       0       0       0       0       0       0
       0       0       0       0       0       0       0       0
       0       0       0       0       0       0       0       0
       0       0       0       0       0       0       0       0
       0       0       0       0       0       0       0       0
       0       0       0       0       0       0       0       0
       0       0       0       0       0       0       0       0
       0       0       0       0       0       0       0       0
       0       0       0       0       0       0       0       0
       0       0       0       0       0       0       0       0
       0       0       0       0       0       0       0       0
       0       0       0       0       0       0       0       0
       0       0       0       0       0       0       0       0
       0       0       0       0       0       0       0       0
       0       0       0       0       0       0       0       0
       0       0       0       0       0       0       0       0
       0       0       0       0       0       0       0       0
       0       0       0       0       0       0       0       0
       0       0       0       0       0       0       0       0
       0       0       0       0       0       0       0       0
       0       0       0       0       0       0       0       0
       0       0       0       0       0       0       0       0
       0       0       0       0       0       0       0       0
       0       0       0       0       0       0       0       0
       0       0       0       0       0       0       0       0
       0       0       0       0       0       0       0       0
       0       0       0       0       0       0       0       0
       0       0       0       0       0       0       0       0
       0       0       0       0       0       0       0       0
       0       0       0       0       0       0       0       0
       0       0       0       0       0       0       0       0
       0       0       0       0       0       0       0       0
       0       0       0       0       0       0       0       0
       0       0       0       0       0       0       0       0
       0       0       0       0       0       0       0       0
       0       0       0       0       0       0       0       0
       0       0       0       0       0       0       0       0
       0       0       0       0       0       0       0       0
       0       0       0       0       0       0       0       0
       0       0       0       0       0       0       0       0
       0       0       0       0       0       0       0       0
       0       0       0       0       0       0       0       0
       0       0       0       0       0       0       0       0
       0       0       0       0       0       0       0       0
       0       0       0       0       0       0       0       0
       0       0       0       0       0       0       0       0
       0       0       0       0       0       0       0       0
       0       0       0       0       0       0       0       0
       0       0       0       0       0       0       0       0
       0       0       0       0       0       0       0       0
       0       0       0       0       0       0       0       0
       0       0       0       0       0       0       0       0
       0       0       0       0       0       0       0       0
       0       0       0       0       0       0       0       0
       0       0       0       0       0       0       0       0
       0       0       0       0       0       0       0       0
       0       0       0       0       0       0       0       0
       0       0       0       0       0       0       0       0
       0       0       0       0       0       0       0       0
       0       0       0       0       0       0       0       0
       0       0       0       0       0       0       0       0
       0       0       0       0       0       0       0       0
       0       0       0       0       0       0       0       0
       0       0       0       0       0       0       0       0
       0       0       0       0       0       0       0       0
       0       0       0       0       0       0       0       0
       0       0       0       0       0       0       0       0
       0       0       0       0       0       0       0       0
       0       0       0       0       0       0       0       0
       0       0       0       0       0       0       0       0
       0       0       0       0       0       0       0       0
       0       0       0       0       0       0       0       0
       0       0       0       0       0       0       0       0
       0       0       0       0       0       0       0       0
       0       0       0       0       0       0       0       0
       0       0       0       0       0       0       0       0
       0       0       0       0       0       0       0       0
       0       0       0       0       0       0       0       0
       0       0       0       0       0       0       0       0
       0       0       0       0       0       0       0       0
       0       0       0       0       0       0       0       0
       0       0       0       0       0       0       0       0
       0       0       0       0       0       0       0       0
       0       0       0       0       0       0       0       0
       0       0       0       0       0       0       0       0
       0       0       0       0       0       0       0       0
       0       0       0       0       0       0       0       0
       0       0       0       0       0       0       0       0
       0       0       0       0       0       0       0       0
       0       0       0       0       0       0       0       0
       0       0       0       0       0       0       0       0
       0       0       0       0       0       0       0       0
       0       0       0       0       0       0       0       0
       0       0       0       0       0       0       0       0
       0       0       0       0       0       0       0       0
       0       0       0       0       0       0       0       0
       0       0       0       0       0       0       0       0
       0       0       0       0       0       0       0       0
       0       0       0       0       0       0       0       0
       0       0       0       0       0       0       0       0
       0       0       0       0       0       0       0       0
       0       0       0       0       0       0       0       0
       0       0       0       0       0       0       0       0
       0       0       0       0       0       0       0       0
       0       0       0       0       0       0       0       0
       0       0       0       0       0       0       0       0
       0       0       0       0       0       0       0       0
       0       0       0       0       0       0       0       0
       0       0       0       0       0       0       0       0
       0       0       0       0       0       0       0       0
       0       0       0       0       0       0       0       0
       0       0       0       0       0       0       0       0
       0       0       0       0       0       0       0       0
       0       0       0       0       0       0       0       0
       0       0       0       0       0       0       0       0
       0       0       0       0       0       0       0       0
       0       0       0       0       0       0       0       0
       0       0       0       0       0       0       0       0
       0       0       0       0       0       0       0       0
       0       0       0       0       0       0       0       0
       0       0       0       0       0       0       0       0
       0       0       0       0       0       0       0       0
       0       0       0       0       0       0       0       0
       0       0       0       0       0       0       0       0
       0       0       0       0       0       0       0       0
       0       0       0       0       0       0       0       0
       0       0       0       0       0       0       0       0
       0       0       0       0       0       0       0       0
       0       0       0       0       0       0       0       0
       0       0       0       0       0       0       0       0
       0       0       0       0       0       0       0       0
       0       0       0       0       0       0       0       0
       0       0       0       0       0       0       0       0
       0       0       0       0       0       0       0       0
       0       0       0       0       0       0       0       0
       0       0       0       0       0       0       0       0
       0       0       0       0       0       0       0       0
       0       0       0       0       0       0       0       0
       0       0       0       0       0       0       0       0
       0       0       0       0       0       0       0       0
       0       0       0       0       0       0       0       0
       0       0       0       0       0       0       0       0
       0       0       0       0       0       0       0       0
       0       0       0       0       0       0       0       0
       0       0       0       0       0       0       0       0
       0       0       0       0       0       0       0       0
       0       0       0       0       0       0       0       0
       0       0       0       0       0       0       0       0
       0       0       0       0       0       0       0       0
       0       0       0       0       0       0       0       0
       0       0       0       0       0       0       0       0
       0       0       0       0       0       0       0       0
       0       0       0       0       0       0       0       0
       0       0       0       0       0       0       0       0
       0       0       0       0       0       0       0       0
       0       0       0       0       0       0       0       0
       0       0       0       0       0       0       0       0
       0       0       0       0       0       0       0       0
       0       0       0       0       0       0       0       0
       0       0       0       0       0       0       0       0
       0       0       0       0       0       0       0       0
       0       0       0       0       0       0       0       0
       0       0       0       0       0       0       0       0
       0       0       0       0       0       0       0       0
       0       0       0       0       0       0       0       0
       0       0       0       0       0       0       0       0
       0       0       0       0       0       0       0       0
       0       0       0       0       0       0       0       0
       0       0       0       0       0       0       0       0
       0       0       0       0       0       0       0       0
       0       0       0       0       0       0       0       0
       0       0       0       0       0       0       0       0
       0       0       0       0       0       0       0       0
       0       0       0       0       0       0       0       0
       0       0       0       0       0       0       0       0
       0       0       0       0       0       0       0       0
       0       0       0       0       0       0       0       0
       0       0       0       0       0       0       0       0
       0       0       0       0       0       0       0       0
       0       0       0       0       0       0       0       0
       0       0       0       0       0       0       0       0
       0       0       0       0       0       0       0       0
       0       0       0       0       0       0       0       0
       0       0       0       0       0       0       0       0
       0       0       0       0       0       0       0       0
       0       0       0       0       0       0       0       0
       0       0       0       0       0       0       0       0
       0       0       0       0       0       0       0       0
       0       0       0       0       0       0       0       0
       0       0       0       0       0       0       0       0
       0       0       0       0       0       0       0       0
       0       0       0       0       0       0       0       0
       0       0       0       0       0       0       0       0
       0       0       0       0       0       0       0       0
       0       0       0       0       0       0       0       0
       0       0       0       0       0       0       0       0
       0       0       0       0       0       0       0       0
       0       0       0       0       0       0       0       0
       0       0       0       0       0       0       0       0
       0       0       0       0       0       0       0       0
       0       0       0       0       0       0       0       0
       0       0       0       0       0       0       0       0
       0       0       0       0       0       0       0       0
       0       0       0       0       0       0       0       0
       0       0       0       0       0       0       0       0
       0       0       0       0       0       0       0       0
       0       0       0       0       0       0       0       0
       0       0       0       0       0       0       0       0
       0       0       0       0       0       0       0       0
       0       0       0       0       0       0       0       0
       0       0       0       0       0       0       0       0
       0       0       0       0       0       0       0       0
       0       0       0       0       0       0       0       0
       0       0       0       0       0       0       0       0
       0       0       0       0       0       0       0       0
       0       0       0       0       0       0       0       0
       0       0       0       0       0       0       0       0
       0       0       0       0       0       0       0       0
       0       0       0       0       0       0       0       0
       0       0       0       0       0       0       0       0
       0       0       0       0       0       0       0       0
       0       0       0       0       0       0       0       0
       0       0       0       0       0       0       0       0
       0       0       0       0       0       0       0       0
       0       0       0       0       0       0       0       0
       0       0       0       0       0       0       0       0
       0       0       0       0       0       0       0       0
       0       0       0       0       0       0       0       0
       0       0       0       0       0       0       0       0
       0       0       0       0       0       0       0       0
       0       0       0       0       0       0       0       0
       0       0       0       0       0       0       0       0
       0       0       0       0       0       0       0       0
       0       0       0       0       0       0       0       0
       0       0       0       0       0       0       0       0
       0       0       0       0       0       0       0       0
       0       0       0       0       0       0       0       0
       0       0       0       0       0       0       0       0
       0       0       0       0       0       0       0       0
       0       0       0       0       0       0       0       0
       0       0       0       0       0       0       0       0
       0       0       0       0       0       0       0       0
       0       0       0       0       0       0       0       0
       0       0       0       0       0       0       0       0
       0       0       0       0       0       0       0       0
       0       0       0       0       0       0       0       0
       0       0       0       0       0       0       0       0
       0       0       0       0       0       0       0       0
       0       0       0       0       0       0       0       0
       0       0       0       0       0       0       0       0
       0       0       0       0       0       0       0       0
       0       0       0       0       0       0       0       0
       0       0       0       0       0       0       0       0
       0       0       0       0       0       0       0       0
       0       0       0       0       0       0       0       0
       0       0       0       0       0       0       0       0
       0       0       0       0       0       0       0       0
       0       0       0       0       0       0       0       0
       0       0       0       0       0       0       0       0
       0       0       0       0       0       0       0       0
       0       0       0       0       0       0       0       0
       0       0       0       0       0       0       0       0
       0       0       0       0       0       0       0       0
       0       0       0       0       0       0       0       0
       0       0       0       0       0       0       0       0
       0       0       0       0       0       0       0       0
       0       0       0       0       0       0       0       0
       0       0       0       0       0       0       0       0
       0       0       0       0       0       0       0       0
       0       0       0       0       0       0       0       0
       0       0       0       0       0       0       0       0
       0       0       0       0       0       0       0       0
       0       0       0       0       0       0       0       0
       0       0       0       0       0       0       0       0
       0       0       0       0       0       0       0       0
       0       0       0       0       0       0       0       0
       0       0       0       0       0       0       0       0
       0       0       0       0       0       0       0       0
       0       0       0       0       0       0       0       0
       0       0       0       0       0       0       0       0
       0       0       0       0       0       0       0       0
       0       0       0       0       0       0       0       0
       0       0       0       0       0       0       0       0
       0       0       0       0       0       0       0       0
       0       0       0       0       0       0       0       0
       0       0       0       0       0       0       0       0
       0       0       0       0       0       0       0       0
       0       0       0       0       0       0       0       0
       0       0       0       0       0       0       0       0
       0       0       0       0       0       0       0       0
       0       0       0       0       0       0       0       0
       0       0       0       0       0       0       0       0
       0       0       0       0       0       0       0       0
       0       0       0       0       0       0       0       0
       0       0       0       0       0       0       0       0
       0       0       0       0       0       0       0       0
       0       0       0       0       0       0       0       0
       0       0       0       0       0       0       0       0
       0       0       0       0       0       0       0       0
       0       0       0       0       0       0       0       0
       0       0       0       0       0       0       0       0
       0       0       0       0       0       0       0       0
       0       0       0       0       0       0       0       0
       0       0       0       0       0       0       0       0
       0       0       0       0       0       0       0       0
       0       0       0       0       0       0       0       0
       0       0       0       0       0       0       0       0
       0       0       0       0       0       0       0       0
       0       0       0       0       0       0       0       0
       0       0       0       0       0       0       0       0
       0       0       0       0       0       0       0       0
       0       0       0       0       0       0       0       0
       0       0       0       0       0       0       0       0
       0       0       0       0       0       0       0       0
       0       0       0       0       0       0       0       0
       0       0       0       0       0       0       0       0
       0       0       0       0       0       0       0       0
       0       0       0       0       0       0       0       0
       0       0       0       0       0       0       0       0
       0       0       0       0       0       0       0       0
       0       0       0       0       0       0       0       0
       0       0       0       0       0       0       0       0
       0       0       0       0       0       0       0       0
       0       0       0       0       0       0       0       0
       0       0       0       0       0       0       0       0
       0       0       0       0       0       0       0       0
       0       0       0       0       0       0       0       0
       0       0       0       0       0       0       0       0
       0       0       0       0       0       0       0       0
       0       0       0       0       0       0       0       0
       0       0       0       0       0       0       0       0
       0       0       0       0       0       0       0       0
       0       0       0       0       0       0       0       0
       0       0       0       0       0       0       0       0
       0       0       0       0       0       0       0       0
       0       0       0       0       0       0       0       0
       0       0       0       0       0       0       0       0
       0       0       0       0       0       0       0       0
       0       0       0       0       0       0       0       0
       0       0       0       0       0       0       0       0
       0       0       0       0       0       0       0       0
       0       0       0       0       0       0       0       0
       0       0       0       0       0       0       0       0
       0       0       0       0       0       0       0       0
       0       0       0       0       0       0       0       0
       0       0       0       0       0       0       0       0
       0       0       0       0       0       0       0       0
       0       0       0       0       0       0       0       0
       0       0       0       0       0       0       0       0
       0       0       0       0       0       0       0       0
       0       0       0       0       0       0       0       0
       0       0       0       0       0       0       0       0
       0       0       0       0       0       0       0       0
       0       0       0       0       0       0       0       0
       0       0       0       0       0       0       0       0
       0       0       0       0       0       0       0       0
       0       0       0       0       0       0       0       0
       0       0       0       0       0       0       0       0
       0       0       0       0       0       0       0       0
       0       0       0       0       0       0       0       0
       0       0       0       0       0       0       0       0
       0       0       0       0       0       0       0       0
       0       0       0       0       0       0       0       0
       0       0       0       0       0       0       0       0
       0       0       0       0       0       0       0       0
       0       0       0       0       0       0       0       0
       0       0       0       0       0       0       0       0
       0       0       0       0       0       0       0       0
       0       0       0       0       0       0       0       0
       0       0       0       0       0       0       0       0
       0       0       0       0       0       0       0       0
       0       0       0       0       0       0       0       0
       0       0       0       0       0       0       0       0
       0       0       0       0       0       0       0       0
       0       0       0       0       0       0       0       0
       0       0       0       0       0       0       0       0
       0       0       0       0       0       0       0       0
       0       0       0       0       0       0       0       0
       0       0       0       0       0       0       0       0
       0       0       0       0       0       0       0       0
       0       0       0       0       0       0       0       0
       0       0       0       0       0       0       0       0
       0       0       0       0       0       0       0       0
       0       0       0       0       0       0       0       0
       0       0       0       0       0       0       0       0
       0       0       0       0       0       0       0       0
       0       0       0       0       0       0       0       0
       0       0       0       0       0       0       0       0
       0       0       0       0       0       0       0       0
       0       0       0       0       0       0       0       0
       0       0       0       0       0       0       0       0
       0       0       0       0       0       0       0       0
       0       0       0       0       0       0       0       0
       0       0       0       0       0       0       0       0
       0       0       0       0       0       0       0       0
       0       0       0       0       0       0       0       0
       0       0       0       0       0       0       0       0
       0       0       0       0       0       0       0       0
       0       0       0       0       0       0       0       0
       0       0       0       0       0       0       0       0
       0       0       0       0       0       0       0       0
       0       0       0       0       0       0       0       0
       0       0       0       0       0       0       0       0
       0       0       0       0       0       0       0       0
       0       0       0       0       0       0       0       0
       0       0       0       0       0       0       0       0
       0       0       0       0       0       0       0       0
       0       0       0       0       0       0       0       0
       0       0       0       0       0       0       0       0
       0       0       0       0       0       0       0       0
       0       0       0       0       0       0       0       0
       0       0       0       0       0       0       0       0
       0       0       0       0       0       0       0       0
       0       0       0       0       0       0       0       0
       0       0       0       0       0       0       0       0
       0       0       0       0       0       0       0       0
       0       0       0       0       0       0       0       0
       0       0       0       0       0       0       0       0
       0       0       0       0       0       0       0       0
       0       0       0       0       0       0       0       0
       0       0       0       0       0       0       0       0
       0       0       0       0       0       0       0       0
       0       0       0       0       0       0       0       0
       0       0       0       0       0       0       0       0
       0       0       0       0       0       0       0       0
       0       0       0       0       0       0       0       0
       0       0       0       0       0       0       0       0
       0       0       0       0       0       0       0       0
       0       0       0       0       0       0       0       0
       0       0       0       0       0       0       0       0
       0       0       0       0       0       0       0       0
       0       0       0       0       0       0       0       0
       0       0       0       0       0       0       0       0
       0       0       0       0       0       0       0       0
       0       0       0       0       0       0       0       0
       0       0       0       0       0       0       0       0
       0       0       0       0       0       0       0       0
       0       0       0       0       0       0       0       0
       0       0       0       0       0       0       0       0
       0       0       0       0       0       0       0       0
       0       0       0       0       0       0       0       0
       0       0       0       0       0       0       0       0
       0       0       0       0       0       0       0       0
       0       0       0       0       0       0       0       0
       0       0       0       0       0       0       0       0
       0       0       0       0       0       0       0       0
       0       0       0       0       0       0       0       0
       0       0       0       0       0       0       0       0
       0       0       0       0       0       0       0       0
       0       0       0       0       0       0       0       0
       0       0       0       0       0       0       0       0
       0       0       0       0       0       0       0       0
       0       0       0       0       0       0       0       0
       0       0       0       0       0       0       0       0
       0       0       0       0       0       0       0       0
       0       0       0       0       0       0       0       0
       0       0       0       0       0       0       0       0
       0       0       0       0       0       0       0       0
       0       0       0       0       0       0       0       0
       0       0       0       0       0       0       0       0
       0       0       0       0       0       0       0       0
       0       0       0       0       0       0       0       0
       0       0       0       0       0       0       0       0
       0       0       0       0       0       0       0       0
       0       0       0       0       0       0       0       0
       0       0       0       0       0       0       0       0
       0       0       0       0       0       0       0       0
       0       0       0       0       0       0       0       0
       0       0       0       0       0       0       0       0
       0       0       0       0       0       0       0       0
       0       0       0       0       0       0       0       0
       0       0       0       0       0       0       0       0
       0       0       0       0       0       0       0       0
       0       0       0       0       0       0       0       0
       0       0       0       0       0       0       0       0
       0       0       0       0       0       0       0       0
       0       0       0       0       0       0       0       0
       0       0       0       0       0       0       0       0
       0       0       0       0       0       0       0       0
       0       0       0       0       0       0       0       0
       0       0       0       0       0       0       0       0
       0       0       0       0       0       0       0       0
       0       0       0       0       0       0       0       0
       0       0       0       0       0       0       0       0
       0       0       0       0       0       0       0       0
       0       0       0       0       0       0       0       0
       0       0       0       0       0       0       0       0
       0       0       0       0       0       0       0       0
       0       0       0       0       0       0       0       0
       0       0       0       0       0       0       0       0
       0       0       0       0       0       0       0       0
       0       0       0       0       0       0       0       0
       0       0       0       0       0       0       0       0
       0       0       0       0       0       0       0       0
       0       0       0       0       0       0       0       0
       0       0       0       0       0       0       0       0
       0       0       0       0       0       0       0       0
       0       0       0       0       0       0       0       0
       0       0       0       0       0       0       0       0
       0       0       0       0       0       0       0       0
       0       0       0       0       0       0       0       0
       0       0       0       0       0       0       0       0
       0       0       0       0       0       0       0       0
       0       0       0       0       0       0       0       0
       0       0       0       0       0       0       0       0
       0       0       0       0       0       0       0       0
       0       0       0       0       0       0       0       0
       0       0       0       0       0       0       0       0
       0       0       0       0       0       0       0       0
       0       0       0       0       0       0       0       0
       0       0       0       0       0       0       0       0
       0       0       0       0       0       0       0       0
       0       0       0       0       0       0       0       0
       0       0       0       0       0       0       0       0
       0       0       0       0       0       0       0       0
       0       0       0       0       0       0       0       0
       0       0       0       0       0       0       0       0
       0       0       0       0       0       0       0       0
       0       0       0       0       0       0       0       0
       0       0       0       0       0       0       0       0
       0       0       0       0       0       0       0       0
       0       0       0       0       0       0       0       0
       0       0       0       0       0       0       0       0
       0       0       0       0       0       0       0       0
       0       0       0       0       0       0       0       0
       0       0       0       0       0       0       0       0
       0       0       0       0       0       0       0       0
       0       0       0       0       0       0       0       0
       0       0       0       0       0       0       0       0
       0       0       0       0       0       0       0       0
       0       0       0       0       0       0       0       0
       0       0       0       0       0       0       0       0
       0       0       0       0       0       0       0       0
       0       0       0       0       0       0       0       0
       0       0       0       0       0       0       0       0
       0       0       0       0       0       0       0       0
       0       0       0       0       0       0       0       0
       0       0       0       0       0       0       0       0
       0       0       0       0       0       0       0       0
       0       0       0       0       0       0       0       0
       0       0       0       0       0       0       0       0
       0       0       0       0       0       0       0       0
       0       0       0       0       0       0       0       0
       0       0       0       0       0       0       0       0
       0       0       0       0       0       0       0       0
       0       0       0       0       0       0       0       0
       0       0       0       0       0       0       0       0
       0       0       0       0       0       0       0       0
       0       0       0       0       0       0       0       0
       0       0       0       0       0       0       0       0
       0       0       0       0       0       0       0       0
       0       0       0       0       0       0       0       0
       0       0       0       0       0       0       0       0
       0       0       0       0       0       0       0       0
       0       0       0       0       0       0       0       0
       0       0       0       0       0       0       0       0
       0       0       0       0       0       0       0       0
       0       0       0       0       0       0       0       0
       0       0       0       0       0       0       0       0
       0       0       0       0       0       0       0       0
       0       0       0       0       0       0       0       0
       0       0       0       0       0       0       0       0
       0       0       0       0       0       0       0       0
       0       0       0       0       0       0       0       0
       0       0       0       0       0       0       0       0
       0       0       0       0       0       0       0       0
       0       0       0       0       0       0       0       0
       0       0       0       0       0       0       0       0
       0       0       0       0       0       0       0       0
       0       0       0       0       0       0       0       0
       0       0       0       0       0       0       0       0
       0       0       0       0       0       0       0       0
       0       0       0       0       0       0       0       0
       0       0       0       0       0       0       0       0
       0       0       0       0       0       0       0       0
       0       0       0       0       0       0       0       0
       0       0       0       0       0       0       0       0
       0       0       0       0       0       0       0       0
       0       0       0       0       0       0       0       0
       0       0       0       0       0       0       0       0
       0       0       0       0       0       0       0       0
       0       0       0       0       0       0       0       0
       0       0       0       0       0       0       0       0
       0       0       0       0       0       0       0       0
       0       0       0       0       0       0       0       0
       0       0       0       0       0       0       0       0
       0       0       0       0       0       0       0       0
       0       0       0       0       0       0       0       0
       0       0       0       0       0       0       0       0
       0       0       0       0       0       0       0       0
       0       0       0       0       0       0       0       0
       0       0       0       0       0       0       0       0
       0       0       0       0       0       0       0       0
       0       0       0       0       0       0       0       0
       0       0       0       0       0       0       0       0
       0       0       0       0       0       0       0       0
       0       0       0       0       0       0       0       0
       0       0       0       0       0       0       0       0
       0       0       0       0       0       0       0       0
       0       0       0       0       0       0       0       0
       0       0       0       0       0       0       0       0
       0       0       0       0       0       0       0       0
       0       0       0       0       0       0       0       0
       0       0       0       0       0       0       0       0
       0       0       0       0       0       0       0       0
       0       0       0       0       0       0       0       0
       0       0       0       0       0       0       0       0
       0       0       0       0       0       0       0       0
       0       0       0       0       0       0       0       0
       0       0       0       0       0       0       0       0
       0       0       0       0       0       0       0       0
       0       0       0       0       0       0       0       0
       0       0       0       0       0       0       0       0
       0       0       0       0       0       0       0       0
       0       0       0       0       0       0       0       0
       0       0       0       0       0       0       0       0
       0       0       0       0       0       0       0       0
       0       0       0       0       0       0       0       0
       0       0       0       0       0       0       0       0
       0       0       0       0       0       0       0       0
       0       0       0       0       0       0       0       0
       0       0       0       0       0       0       0       0
       0       0       0       0       0       0       0       0
       0       0       0       0       0       0       0       0
       0       0       0       0       0       0       0       0
       0       0       0       0       0       0       0       0
       0       0       0       0       0       0       0       0
       0       0       0       0       0       0       0       0
       0       0       0       0       0       0       0       0
       0       0       0       0       0       0       0       0
       0       0       0       0       0       0       0       0
       0       0       0       0       0       0       0       0
       0       0       0       0       0       0       0       0
       0       0       0       0       0       0       0       0
       0       0       0       0       0       0       0       0
       0       0       0       0       0       0       0       0
       0       0       0       0       0       0       0       0
       0       0       0       0       0       0       0       0
       0       0       0       0       0       0       0       0
       0       0       0       0       0       0       0       0
       0       0       0       0       0       0       0       0
       0       0       0       0       0       0       0       0
       0       0       0       0       0       0       0       0
       0       0       0       0       0       0       0       0
       0       0       0       0       0       0       0       0
       0       0       0       0       0       0       0       0
       0       0       0       0       0       0       0       0
       0       0       0       0       0       0       0       0
       0       0       0       0       0       0       0       0
       0       0       0       0       0       0       0       0
       0       0       0       0       0       0       0       0
       0       0       0       0       0       0       0       0
       0       0       0       0       0       0       0       0
       0       0       0       0       0       0       0       0
       0       0       0       0       0       0       0       0
       0       0       0       0       0       0       0       0
       0       0       0       0       0       0       0       0
       0       0       0       0       0       0       0       0
       0       0       0       0       0       0       0       0
       0       0       0       0       0       0       0       0
       0       0       0       0       0       0       0       0
       0       0       0       0       0       0       0       0
       0       0       0       0       0       0       0       0
       0       0       0       0       0       0       0       0
       0       0       0       0       0       0       0       0
       0       0       0       0       0       0       0       0
       0       0       0       0       0       0       0       0
       0       0       0       0       0       0       0       0
       0       0       0       0       0       0       0       0
       0       0       0       0       0       0       0       0
       0       0       0       0       0       0       0       0
       0       0       0       0       0       0       0       0
       0       0       0       0       0       0       0       0
       0       0       0       0       0       0       0       0
       0       0       0       0       0       0       0       0
       0       0       0       0       0       0       0       0
       0       0       0       0       0       0       0       0
       0       0       0       0       0       0       0       0
       0       0       0       0       0       0       0       0
       0       0       0       0       0       0       0       0
       0       0       0       0       0       0       0       0
       0       0       0       0       0       0       0       0
       0       0       0       0       0       0       0       0
       0       0       0       0       0       0       0       0
       0       0       0       0       0       0       0       0
       0       0       0       0       0       0       0       0
       0       0       0       0       0       0       0       0
       0       0       0       0       0       0       0       0
       0       0       0       0       0       0       0       0
       0       0       0       0       0       0       0       0
       0       0       0       0       0       0       0       0
       0       0       0       0       0       0       0       0
       0       0       0       0       0       0       0       0
       0       0       0       0       0       0       0       0
       0       0       0       0       0       0       0       0
       0       0       0       0       0       0       0       0
       0       0       0       0       0       0       0       0
       0       0       0       0       0       0       0       0
       0       0       0       0       0       0       0       0
       0       0       0       0       0       0       0       0
       0       0       0       0       0       0       0       0
       0       0       0       0       0       0       0       0
       0       0       0       0       0       0       0       0
       0       0       0       0       0       0       0       0
       0       0       0       0       0       0       0       0
       0       0       0       0       0       0       0       0
       0       0       0       0       0       0       0       0
       0       0       0       0       0       0       0       0
       0       0       0       0       0       0       0       0
       0       0       0       0       0       0       0       0
       0       0       0       0       0       0       0       0
       0       0       0       0       0       0       0       0
       0       0       0       0       0       0       0       0
       0       0       0       0       0       0       0       0
       0       0       0       0       0       0       0       0
       0       0       0       0       0       0       0       0
       0       0       0       0       0       0       0       0
       0       0       0       0       0       0       0       0
       0       0       0       0       0       0       0       0
       0       0       0       0       0       0       0       0
       0       0       0       0       0       0       0       0
       0       0       0       0       0       0       0       0
       0       0       0       0       0       0       0       0
       0       0       0       0       0       0       0       0
       0       0       0       0       0       0       0       0
       0       0       0       0       0       0       0       0
       0       0       0       0       0       0       0       0
       0       0       0       0       0       0       0       0
       0       0       0       0       0       0       0       0
       0       0       0       0       0       0       0       0
       0       0       0       0       0       0       0       0
       0       0       0       0       0       0       0       0
       0       0       0       0       0       0       0       0
       0       0       0       0       0       0       0       0
       0       0       0       0       0       0       0       0
       0       0       0       0       0       0       0       0
       0       0       0       0       0       0       0       0
       0       0       0       0       0       0       0       0
       0       0       0       0       0       0       0       0
       0       0       0       0       0       0       0       0
       0       0       0       0       0       0       0       0
       0       0       0       0       0       0       0       0
       0       0       0       0       0       0       0       0
       0       0       0       0       0       0       0       0
       0       0       0       0       0       0       0       0
       0       0       0       0       0       0       0       0
       0       0       0       0       0       0       0       0
       0       0       0       0       0       0       0       0
       0       0       0       0       0       0       0       0
       0       0       0       0       0       0       0       0
       0       0       0       0       0       0       0       0
       0       0       0       0       0       0       0       0
       0       0       0       0       0       0       0       0
       0       0       0       0       0       0       0       0
       0       0       0       0       0       0       0       0
       0       0       0       0       0       0       0       0
       0       0       0       0       0       0       0       0
       0       0       0       0       0       0       0       0
       0       0       0       0       0       0       0       0
       0       0       0       0       0       0       0       0
       0       0       0       0       0       0       0       0
       0       0       0       0       0       0       0       0
       0       0       0       0       0       0       0       0
       0       0       0       0       0       0       0       0
       0       0       0       0       0       0       0       0
       0       0       0       0       0       0       0       0
       0       0       0       0       0       0       0       0
       0       0       0       0       0       0       0       0
       0       0       0       0       0       0       0       0
       0       0       0       0       0       0       0       0
       0       0       0       0       0       0       0       0
       0       0       0       0       0       0       0       0
       0       0       0       0       0       0       0       0
       0       0       0       0       0       0       0       0
       0       0       0       0       0       0       0       0
       0       0       0       0       0       0       0       0
       0       0       0       0       0       0       0       0
       0       0       0       0       0       0       0       0
       0       0       0       0       0       0       0       0
       0       0       0       0       0       0       0       0
       0       0       0       0       0       0       0       0
       0       0       0       0       0       0       0       0
       0       0       0       0       0       0       0       0
       0       0       0       0       0       0       0       0
       0       0       0       0       0       0       0       0
       0       0       0       0       0       0       0       0
       0       0       0       0       0       0       0       0
       0       0       0       0       0       0       0       0
       0       0       0       0       0       0       0       0
       0       0       0       0       0       0       0       0
       0       0       0       0       0       0       0       0
       0       0       0       0       0       0       0       0
       0       0       0       0       0       0       0       0
       0       0       0       0       0       0       0       0
       0       0       0       0       0       0       0       0
       0       0       0       0       0       0       0       0
       0       0       0       0       0       0       0       0
       0       0       0       0       0       0       0       0
       0       0       0       0       0       0       0       0
       0       0       0       0       0       0       0       0
       0       0       0       0       0       0       0       0
       0       0       0       0       0       0       0       0
       0       0       0       0       0       0       0       0
       0       0       0       0       0       0       0       0
       0       0       0       0       0       0       0       0
       0       0       0       0       0       0       0       0
       0       0       0       0       0       0       0       0
       0       0       0       0       0       0       0       0
       0       0       0       0       0       0       0       0
       0       0       0       0       0       0       0       0
       0       0       0       0       0       0       0       0
       0       0       0       0       0       0       0       0
       0       0       0       0       0       0       0       0
       0       0       0       0       0       0       0       0
       0       0       0       0       0       0       0       0
       0       0       0       0       0       0       0       0
       0       0       0       0       0       0       0       0
       0       0       0       0       0       0       0       0
       0       0       0       0       0       0       0       0
       0       0       0       0       0       0       0       0
       0       0       0       0       0       0       0       0
       0       0       0       0       0       0       0       0
       0       0       0       0       0       0       0       0
       0       0       0       0       0       0       0       0
       0       0       0       0       0       0       0       0
       0       0       0       0       0       0       0       0
       0       0       0       0       0       0       0       0
       0       0       0       0       0       0       0       0
       0       0       0       0       0       0       0       0
       0       0       0       0       0       0       0       0
       0       0       0       0       0       0       0       0
       0       0       0       0       0       0       0       0
       0       0       0       0       0       0       0       0
       0       0       0       0       0       0       0       0
       0       0       0       0       0       0       0       0
       0       0       0       0       0       0       0       0
       0       0       0       0       0       0       0       0
       0       0       0       0       0       0       0       0
       0       0       0       0       0       0       0       0
       0       0       0       0       0       0       0       0
       0       0       0       0       0       0       0       0
       0       0       0       0       0       0       0       0
       0       0       0       0       0       0       0       0
       0       0       0       0       0       0       0       0
       0       0       0       0       0       0       0       0
       0       0       0       0       0       0       0       0
       0       0       0       0       0       0       0       0
       0       0       0       0       0       0       0       0
       0       0       0       0       0       0       0       0
       0       0       0       0       0       0       0       0
       0       0       0       0       0       0       0       0
       0       0       0       0       0       0       0       0
       0       0       0       0       0       0       0       0
       0       0       0       0       0       0       0       0
       0       0       0       0       0       0       0       0
       0       0       0       0       0       0       0       0
       0       0       0       0       0       0       0       0
       0       0       0       0       0       0       0       0
       0       0       0       0       0       0       0       0
       0       0       0       0       0       0       0       0
       0       0       0       0       0       0       0       0
       0       0       0       0       0       0       0       0
       0       0       0       0       0       0       0       0
       0       0       0       0       0       0       0       0
       0       0       0       0       0       0       0       0
       0       0       0       0       0       0       0       0
       0       0       0       0       0       0       0       0
       0       0       0       0       0       0       0       0
       0       0       0       0       0       0       0       0
       0       0       0       0       0       0       0       0
       0       0       0       0       0       0       0       0
       0       0       0       0       0       0       0       0
       0       0       0       0       0       0       0       0
       0       0       0       0       0       0       0       0
       0       0       0       0       0       0       0       0
       0       0       0       0       0       0       0       0
       0       0       0       0       0       0       0       0
       0       0       0       0       0       0       0       0
       0       0       0       0       0       0       0       0
       0       0       0       0       0       0       0       0
       0       0       0       0       0       0       0       0
       0       0       0       0       0       0       0       0
       0       0       0       0       0       0       0       0
       0       0       0       0       0       0       0       0
       0       0       0       0       0       0       0       0
       0       0       0       0       0       0       0       0
       0       0       0       0       0       0       0       0
       0       0       0       0       0       0       0       0
       0       0       0       0       0       0       0       0
       0       0       0       0       0       0       0       0
       0       0       0       0       0       0       0       0
       0       0       0       0       0       0       0       0
       0       0       0       0       0       0       0       0
       0       0       0       0       0       0       0       0
       0       0       0       0       0       0       0       0
       0       0       0       0       0       0       0       0
       0       0       0       0       0       0       0       0
       0       0       0       0       0       0       0       0
       0       0       0       0       0       0       0       0
       0       0       0       0       0       0       0       0
       0       0       0       0       0       0       0       0
       0       0       0       0       0       0       0       0
       0       0       0       0       0       0       0       0
       0       0       0       0       0       0       0       0
       0       0       0       0       0       0       0       0
       0       0       0       0       0       0       0       0
       0       0       0       0       0       0       0       0
       0       0       0       0       0       0       0       0
       0       0       0       0       0       0       0       0
       0       0       0       0       0       0       0       0
       0       0       0       0       0       0       0       0
       0       0       0       0       0       0       0       0
       0       0       0       0       0       0       0       0
       0       0       0       0       0       0       0       0
       0       0       0       0       0       0       0       0
       0       0       0       0       0       0       0       0
       0       0       0       0       0       0       0       0
       0       0       0       0       0       0       0       0
       0       0       0       0       0       0       0       0
       0       0       0       0       0       0       0       0
       0       0       0       0       0       0       0       0
       0       0       0       0       0       0       0       0
       0       0       0       0       0       0       0       0
       0       0       0       0       0       0       0       0
       0       0       0       0       0       0       0       0
       0       0       0       0       0       0       0       0
       0       0       0       0       0       0       0       0
       0       0       0       0       0       0       0       0
       0       0       0       0       0       0       0       0
       0       0       0       0       0       0       0       0
       0       0       0       0       0       0       0       0
       0       0       0       0       0       0       0       0
       0       0       0       0       0       0       0       0
       0       0       0       0       0       0       0       0
       0       0       0       0       0       0       0       0
       0       0       0       0       0       0       0       0
       0       0       0       0       0       0       0       0
       0       0       0       0       0       0       0       0
       0       0       0       0       0       0       0       0
       0       0       0       0       0       0       0       0
       0       0       0       0       0       0       0       0
       0       0       0       0       0       0       0       0
       0       0       0       0       0       0       0       0
       0       0       0       0       0       0       0       0
       0       0       0       0       0       0       0       0
       0       0       0       0       0       0       0       0
       0       0       0       0       0       0       0       0
       0       0       0       0       0       0       0       0
       0       0       0       0       0       0       0       0
       0       0       0       0       0       0       0       0
       0       0       0       0       0       0       0       0
       0       0       0       0       0       0       0       0
       0       0       0       0       0       0       0       0
       0       0       0       0       0       0       0       0
       0       0       0       0       0       0       0       0
       0       0       0       0       0       0       0       0
       0       0       0       0       0       0       0       0
       0       0       0       0       0       0       0       0
       0       0       0       0       0       0       0       0
       0       0       0       0       0       0       0       0
       0       0       0       0       0       0       0       0
       0       0       0       0       0       0       0       0
       0       0       0       0       0       0       0       0
       0       0       0       0       0       0       0       0
       0       0       0       0       0       0       0       0
       0       0       0       0       0       0       0       0
       0       0       0       0       0       0       0       0
       0       0       0       0       0       0       0       0
       0       0       0       0       0       0       0       0
       0       0       0       0       0       0       0       0
       0       0       0       0       0       0       0       0
       0       0       0       0       0       0       0       0
       0       0       0       0       0       0       0       0
       0       0       0       0       0       0       0       0
       0       0       0       0       0       0       0       0
       0       0       0       0       0       0       0       0
       0       0       0       0       0       0       0       0
       0       0       0       0       0       0       0       0
       0       0       0       0       0       0       0       0
       0       0       0       0       0       0       0       0
       0       0       0       0       0       0       0       0
       0       0       0       0       0       0       0       0
       0       0       0       0       0       0       0       0
       0       0       0       0       0       0       0       0
       0       0       0       0       0       0       0       0
       0       0       0       0       0       0       0       0
       0       0       0       0       0       0       0       0
       0       0       0       0       0       0       0       0
       0       0       0       0       0       0       0       0
       0       0       0       0       0       0       0       0
       0       0       0       0       0       0       0       0
       0       0       0       0       0       0       0       0
       0       0       0       0       0       0       0       0
       0       0       0       0       0       0       0       0
       0       0       0       0       0       0       0       0
       0       0       0       0       0       0       0       0
       0       0       0       0       0       0       0       0
       0       0       0       0       0       0       0       0
       0       0       0       0       0       0       0       0
       0       0       0       0       0       0       0       0
       0       0       0       0       0       0       0       0
       0       0       0       0       0       0       0       0
       0       0       0       0       0       0       0       0
       0       0       0       0       0       0       0       0
       0       0       0       0       0       0       0       0
       0       0       0       0       0       0       0       0
       0       0       0       0       0       0       0       0
       0       0       0       0       0       0       0       0
       0       0       0       0       0       0       0       0
       0       0       0       0       0       0       0       0
       0       0       0       0       0       0       0       0
       0       0       0       0       0       0       0       0
       0       0       0       0       0       0       0       0
       0       0       0       0       0       0       0       0
       0       0       0       0       0       0       0       0
       0       0       0       0       0       0       0       0
       0       0       0       0       0       0       0       0
       0       0       0       0       0       0       0       0
       0       0       0       0       0       0       0       0
       0       0       0       0       0       0       0       0
       0       0       0       0       0       0       0       0
       0       0       0       0       0       0       0       0
       0       0       0       0       0       0       0       0
       0       0       0       0       0       0       0       0
       0       0       0       0       0       0       0       0
       0       0       0       0       0       0       0       0
       0       0       0       0       0       0       0       0
       0       0       0       0       0       0       0       0
       0       0       0       0       0       0       0       0
       0       0       0       0       0       0       0       0
       0       0       0       0       0       0       0       0
       0       0       0       0       0       0       0       0
       0       0       0       0       0       0       0       0
       0       0       0       0       0       0       0       0
       0       0       0       0       0       0       0       0
       0       0       0       0       0       0       0       0
       0       0       0       0       0       0       0       0
       0       0       0       0       0       0       0       0
       0       0       0       0       0       0       0       0
       0       0       0       0       0       0       0       0
       0       0       0       0       0       0       0       0
       0       0       0       0       0       0       0       0
       0       0       0       0       0       0       0       0
       0       0       0       0       0       0       0       0
       0       0       0       0       0       0       0       0
       0       0       0       0       0       0       0       0
       0       0       0       0       0       0       0       0
       0       0       0       0       0       0       0       0
       0       0       0       0       0       0       0       0
       0       0       0       0       0       0       0       0
       0       0       0       0       0       0       0       0
       0       0       0       0       0       0       0       0
       0       0       0       0       0       0       0       0
       0       0       0       0       0       0       0       0
       0       0       0       0       0       0       0       0
       0       0       0       0       0       0       0       0
       0       0       0       0       0       0       0       0
       0       0       0       0       0       0       0       0
       0       0       0       0       0       0       0       0
       0       0       0       0       0       0       0       0
       0       0       0       0       0       0       0       0
       0       0       0       0       0       0       0       0
       0       0       0       0       0       0       0       0
       0       0       0       0       0       0       0       0
       0       0       0       0       0       0       0       0
       0       0       0       0       0       0       0       0
       0       0       0       0       0       0       0       0
       0       0       0       0       0       0       0       0
       0       0       0       0       0       0       0       0
       0       0       0       0       0       0       0       0
       0       0       0       0       0       0       0       0
       0       0       0       0       0       0       0       0
       0       0       0       0       0       0       0       0
       0       0       0       0       0       0       0       0
       0       0       0       0       0       0       0       0
       0       0       0       0       0       0       0       0
       0       0       0       0       0       0       0       0
       0       0       0       0       0       0       0       0
       0       0       0       0       0       0       0       0
       0       0       0       0       0       0       0       0
       0       0       0       0       0       0       0       0
       0       0       0       0       0       0       0       0
       0       0       0       0       0       0       0       0
       0       0       0       0       0       0       0       0
       0       0       0       0       0       0       0       0
       0       0       0       0       0       0       0       0
       0       0       0       0       0       0       0       0
       0       0       0       0       0       0       0       0
       0       0       0       0       0       0       0       0
       0       0       0       0       0       0       0       0
       0       0       0       0       0       0       0       0
       0       0       0       0       0       0       0       0
       0       0       0       0       0       0       0       0
       0       0       0       0       0       0       0       0
       0       0       0       0       0       0       0       0
       0       0       0       0       0       0       0       0
       0       0       0       0       0       0       0       0
       0       0       0       0       0       0       0       0
       0       0       0       0       0       0       0       0
       0       0       0       0       0       0       0       0
       0       0       0       0       0       0       0       0
       0       0       0       0       0       0       0       0
       0       0       0       0       0       0       0       0
       0       0       0       0       0       0       0       0
       0       0       0       0       0       0       0       0
       0       0       0       0       0       0       0       0
       0       0       0       0       0       0       0       0
       0       0       0       0       0       0       0       0
       0       0       0       0       0       0       0       0
       0       0       0       0       0       0       0       0
       0       0       0       0       0       0       0       0
       0       0       0       0       0       0       0       0
       0       0       0       0       0       0       0       0
       0       0       0       0       0       0       0       0
       0       0       0       0       0       0       0       0
       0       0       0       0       0       0       0       0
       0       0       0       0       0       0       0       0
       0       0       0       0       0       0       0       0
       0       0       0       0       0       0       0       0
       0       0       0       0       0       0       0       0
       0       0       0       0       0       0       0       0
       0       0       0       0       0       0       0       0
       0       0       0       0       0       0       0       0
       0       0       0       0       0       0       0       0
       0       0       0       0       0       0       0       0
       0       0       0       0       0       0       0       0
       0       0       0       0       0       0       0       0
       0       0       0       0       0       0       0       0
       0       0       0       0       0       0       0       0
       0       0       0       0       0       0       0       0
       0       0       0       0       0       0       0       0
       0       0       0       0       0       0       0       0
       0       0       0       0       0       0       0       0
       0       0       0       0       0       0       0       0
       0       0       0       0       0       0       0       0
       0       0       0       0       0       0       0       0
       0       0       0       0       0       0       0       0
       0       0       0       0       0       0       0       0
       0       0       0       0       0       0       0       0
       0       0       0       0       0       0       0       0
       0       0       0       0       0       0       0       0
       0       0       0       0       0       0       0       0
       0       0       0       0       0       0       0       0
       0       0       0       0       0       0       0       0
       0       0       0       0       0       0       0       0
       0       0       0       0       0       0       0       0
       0       0       0       0       0       0       0       0
       0       0       0       0       0       0       0       0
       0       0       0       0       0       0       0       0
       0       0       0       0       0       0       0       0
       0       0       0       0       0       0       0       0
       0       0       0       0       0       0       0       0
       0       0       0       0       0       0       0       0
       0       0       0       0       0       0       0       0
       0       0       0       0       0       0       0       0
       0       0       0       0       0       0       0       0
       0       0       0       0       0       0       0       0
       0       0       0       0       0       0       0       0
       0       0       0       0       0       0       0       0
       0       0       0       0       0       0       0       0
       0       0       0       0       0       0       0       0
       0       0       0       0       0       0       0       0
       0       0       0       0       0       0       0       0
       0       0       0       0       0       0       0       0
       0       0       0       0       0       0       0       0
       0       0       0       0       0       0       0       0
       0       0       0       0       0       0       0       0
       0       0       0       0       0       0       0       0
       0       0       0       0       0       0       0       0
       0       0       0       0       0       0       0       0
       0       0       0       0       0       0       0       0
       0       0       0       0       0       0       0       0
       0       0       0       0       0       0       0       0
       0       0       0       0       0       0       0       0
       0       0       0       0       0       0       0       0
       0       0       0       0       0       0       0       0
       0       0       0       0       0       0       0       0
       0       0       0       0       0       0       0       0
       0       0       0       0       0       0       0       0
       0       0       0       0       0       0       0       0
       0       0       0       0       0       0       0       0
       0       0       0       0       0       0       0       0
       0       0       0       0       0       0       0       0
       0       0       0       0       0       0       0       0
       0       0       0       0       0       0       0       0
       0       0       0       0       0       0       0       0
       0       0       0       0       0       0       0       0
       0       0       0       0       0       0       0       0
       0       0       0       0       0       0       0       0
       0       0       0       0       0       0       0       0
       0       0       0       0       0       0       0       0
       0       0       0       0       0       0       0       0
       0       0       0       0       0       0       0       0
       0       0       0       0       0       0       0       0
       0       0       0       0       0       0       0       0
       0       0       0       0       0       0       0       0
       0       0       0       0       0       0       0       0
       0       0       0       0       0       0       0       0
       0       0       0       0       0       0       0       0
       0       0       0       0       0       0       0       0
       0       0       0       0       0       0       0       0
       0       0       0       0       0       0       0       0
       0       0       0       0       0       0       0       0
       0       0       0       0       0       0       0       0
       0       0       0       0       0       0       0       0
       0       0       0       0       0       0       0       0
       0       0       0       0       0       0       0       0
       0       0       0       0       0       0       0       0
       0       0       0       0       0       0       0       0
       0       0       0       0       0       0       0       0
       0       0       0       0       0       0       0       0
       0       0       0       0       0       0       0       0
       0       0       0       0       0       0       0       0
       0       0       0       0       0       0       0       0
       0       0       0       0       0       0       0       0
       0       0       0       0       0       0       0       0
       0       0       0       0       0       0       0       0
       0       0       0       0       0       0       0       0
       0       0       0       0       0       0       0       0
       0       0       0       0       0       0       0       0
       0       0       0       0       0       0       0       0
       0       0       0       0       0       0       0       0
       0       0       0       0       0       0       0       0
       0       0       0       0       0       0       0       0
       0       0       0       0       0       0       0       0
       0       0       0       0       0       0       0       0
       0       0       0       0       0       0       0       0
       0       0       0       0       0       0       0       0
       0       0       0       0       0       0       0       0
       0       0       0       0       0       0       0       0
       0       0       0       0       0       0       0       0
       0       0       0       0       0       0       0       0
       0       0       0       0       0       0       0       0
       0       0       0       0       0       0       0       0
       0       0       0       0       0       0       0       0
       0       0       0       0       0       0       0       0
       0       0       0       0       0       0       0       0
       0       0       0       0       0       0       0       0
       0       0       0       0       0       0       0       0
       0       0       0       0       0       0       0       0
       0       0       0       0       0       0       0       0
       0       0       0       0       0       0       0       0
       0       0       0       0       0       0       0       0
       0       0       0       0       0       0       0       0
       0       0       0       0       0       0       0       0
       0       0       0       0       0       0       0       0
       0       0       0       0       0       0       0       0
       0       0       0       0       0       0       0       0
       0       0       0       0       0       0       0       0
       0       0       0       0       0       0       0       0
       0       0       0       0       0       0       0       0
       0       0       0       0       0       0       0       0
       0       0       0       0       0       0       0       0
       0       0       0       0       0       0       0       0
       0       0       0       0       0       0       0       0
       0       0       0       0       0       0       0       0
       0       0       0       0       0       0       0       0
       0       0       0       0       0       0       0       0
       0       0       0       0       0       0       0       0
       0       0       0       0       0       0       0       0
       0       0       0       0       0       0       0       0
       0       0       0       0       0       0       0       0
       0       0       0       0       0       0       0       0
       0       0       0       0       0       0       0       0
       0       0       0       0       0       0       0       0
       0       0       0       0       0       0       0       0
       0       0       0       0       0       0       0       0
       0       0       0       0       0       0       0       0
       0       0       0       0       0       0       0       0
       0       0       0       0       0       0       0       0
       0       0       0       0       0       0       0       0
       0       0       0       0       0       0       0       0
       0       0       0       0       0       0       0       0
       0       0       0       0       0       0       0       0
       0       0       0       0       0       0       0       0
       0       0       0       0       0       0       0       0
       0       0       0       0       0       0       0       0
       0       0       0       0       0       0       0       0
       0       0       0       0       0       0       0       0
       0       0       0       0       0       0       0       0
       0       0       0       0       0       0       0       0
       0       0       0       0       0       0       0       0
       0       0       0       0       0       0       0       0
       0       0       0       0       0       0       0       0
       0       0       0       0       0       0       0       0
       0       0       0       0       0       0       0       0
       0       0       0       0       0       0       0       0
       0       0       0       0       0       0       0       0
       0       0       0       0       0       0       0       0
       0       0       0       0       0       0       0       0
       0       0       0       0       0       0       0       0
       0       0       0       0       0       0       0       0
       0       0       0       0       0       0       0       0
       0       0       0       0       0       0       0       0
       0       0       0       0       0       0       0       0
       0       0       0       0       0       0       0       0
       0       0       0       0       0       0       0       0
       0       0       0       0       0       0       0       0
       0       0       0       0       0       0       0       0
       0       0       0       0       0       0       0       0
       0       0       0       0       0       0       0       0
       0       0       0       0       0       0       0       0
       0       0       0       0       0       0       0       0
       0       0       0       0       0       0       0       0
       0       0       0       0       0       0       0       0
       0       0       0       0       0       0       0       0
       0       0       0       0       0       0       0       0
       0       0       0       0       0       0       0       0
       0       0       0       0       0       0       0       0
       0       0       0       0       0       0       0       0
       0       0       0       0       0       0       0       0
       0       0       0       0       0       0       0       0
       0       0       0       0       0       0       0       0
       0       0       0       0       0       0       0       0
       0       0       0       0       0       0       0       0
       0       0       0       0       0       0       0       0
       0       0       0       0       0       0       0       0
       0       0       0       0       0       0       0       0
       0       0       0       0       0       0       0       0
       0       0       0       0       0       0       0       0
       0       0       0       0       0       0       0       0
       0       0       0       0       0       0       0       0
       0       0       0       0       0       0       0       0
       0       0       0       0       0       0       0       0
       0       0       0       0       0       0       0       0
       0       0       0       0       0       0       0       0
       0       0       0       0       0       0       0       0
       0       0       0       0       0       0       0       0
       0       0       0       0       0       0       0       0
       0       0       0       0       0       0       0       0
       0       0       0       0       0       0       0       0
       0       0       0       0       0       0       0       0
       0       0       0       0       0       0       0       0
       0       0       0       0       0       0       0       0
       0       0       0       0       0       0       0       0
       0       0       0       0       0       0       0       0
       0       0       0       0       0       0       0       0
       0       0       0       0       0       0       0       0
       0       0       0       0       0       0       0       0
       0       0       0       0       0       0       0       0
       0       0       0       0       0       0       0       0
       0       0       0       0       0       0       0       0
       0       0       0       0       0       0       0       0
       0       0       0       0       0       0       0       0
       0       0       0       0       0       0       0       0
       0       0       0       0       0       0       0       0
       0       0       0       0       0       0       0       0
       0       0       0       0       0       0       0       0
       0       0       0       0       0       0       0       0
       0       0       0       0       0       0       0       0
       0       0       0       0       0       0       0       0
       0       0       0       0       0       0       0       0
       0       0       0       0       0       0       0       0
       0       0       0       0       0       0       0       0
       0       0       0       0       0       0       0       0
       0       0       0       0       0       0       0       0
       0       0       0       0       0       0       0       0
       0       0       0       0       0       0       0       0
       0       0       0       0       0       0       0       0
       0       0       0       0       0       0       0       0
       0       0       0       0       0       0       0       0
       0       0       0       0       0       0       0       0
       0       0       0       0       0       0       0       0
       0       0       0       0       0       0       0       0
       0       0       0       0       0       0       0       0
       0       0       0       0       0       0       0       0
       0       0       0       0       0       0       0       0
       0       0       0       0       0       0       0       0
       0       0       0       0       0       0       0       0
       0       0       0       0       0       0       0       0
       0       0       0       0       0       0       0       0
       0       0       0       0       0       0       0       0
       0       0       0       0       0       0       0       0
       0       0       0       0       0       0       0       0
       0       0       0       0       0       0       0       0
       0       0       0       0       0       0       0       0
       0       0       0       0       0       0       0       0
       0       0       0       0       0       0       0       0
       0       0       0       0       0       0       0       0
       0       0       0       0       0       0       0       0
       0       0       0       0       0       0       0       0
       0       0       0       0       0       0       0       0
       0       0       0       0       0       0       0       0
       0       0       0       0       0       0       0       0
       0       0       0       0       0       0       0       0
       0       0       0       0       0       0       0       0
       0       0       0       0       0       0       0       0
       0       0       0       0       0       0       0       0
       0       0       0       0       0       0       0       0
       0       0       0       0       0       0       0       0
       0       0       0       0       0       0       0       0
       0       0       0       0       0       0       0       0
       0       0       0       0       0       0       0       0
       0       0       0       0       0       0       0       0
       0       0       0       0       0       0       0       0
       0       0       0       0       0       0       0       0
       0       0       0       0       0       0       0       0
       0       0       0       0       0       0       0       0
       0       0       0       0       0       0       0       0
       0       0       0       0       0       0       0       0
       0       0       0       0       0       0       0       0
       0       0       0       0       0       0       0       0
       0       0       0       0       0       0       0       0
       0       0       0       0       0       0       0       0
       0       0       0       0       0       0       0       0
       0       0       0       0       0       0       0       0
       0       0       0       0       0       0       0       0
       0       0       0       0       0       0       0       0
       0       0       0       0       0       0       0       0
       0       0       0       0       0       0       0       0
       0       0       0       0       0       0       0       0
       0       0       0       0       0       0       0       0
       0       0       0       0       0       0       0       0
       0       0       0       0       0       0       0       0
       0       0       0       0       0       0       0       0
       0       0       0       0       0       0       0       0
       0       0       0       0       0       0       0       0
       0       0       0       0       0       0       0       0
       0       0       0       0       0       0       0       0
       0       0       0       0       0       0       0       0
       0       0       0       0       0       0       0       0
       0       0       0       0       0       0       0       0
       0       0       0       0       0       0       0       0
       0       0       0       0       0       0       0       0
       0       0       0       0       0       0       0       0
       0       0       0       0       0       0       0       0
       0       0       0       0       0       0       0       0
       0       0       0       0       0       0       0       0
       0       0       0       0       0       0       0       0
       0       0       0       0       0       0       0       0
       0       0       0       0       0       0       0       0
       0       0       0       0       0       0       0       0
       0       0       0       0       0       0       0       0
       0       0       0       0       0       0       0       0
       0       0       0       0       0       0       0       0
       0       0       0       0       0       0       0       0
       0       0       0       0       0       0       0       0
       0       0       0       0       0       0       0       0
       0       0       0       0       0       0       0       0
       0       0       0       0       0       0       0       0
       0       0       0       0       0       0       0       0
       0       0       0       0       0       0       0       0
       0       0       0       0       0       0       0       0
       0       0       0       0       0       0       0       0
       0       0       0       0       0       0       0       0
       0       0       0       0       0       0       0       0
       0       0       0       0       0       0       0       0
       0       0       0       0       0       0       0       0
       0       0       0       0       0       0       0       0
       0       0       0       0       0       0       0       0
       0       0       0       0       0       0       0       0
       0       0       0       0       0       0       0       0
       0       0       0       0       0       0       0       0
       0       0       0       0       0       0       0       0
       0       0       0       0       0       0       0       0
       0       0       0       0       0       0       0       0
       0       0       0       0       0       0       0       0
       0       0       0       0       0       0       0       0
       0       0       0       0       0       0       0       0
       0       0       0       0       0       0       0       0
       0       0       0       0       0       0       0       0
       0       0       0       0       0       0       0       0
       0       0       0       0       0       0       0       0
       0       0       0       0       0       0       0       0
       0       0       0       0       0       0       0       0
       0       0       0       0       0       0       0       0
       0       0       0       0       0       0       0       0
       0       0       0       0       0       0       0       0
       0       0       0       0       0       0       0       0
       0       0       0       0       0       0       0       0
       0       0       0       0       0       0       0       0
       0       0       0       0       0       0       0       0
       0       0       0       0       0       0       0       0
       0       0       0       0       0       0       0       0
       0       0       0       0       0       0       0       0
       0       0       0       0       0       0       0       0
       0       0       0       0       0       0       0       0
       0       0       0       0       0       0       0       0
       0       0       0       0       0       0       0       0
       0       0       0       0       0       0       0       0
       0       0       0       0       0       0       0       0
       0       0       0       0       0       0       0       0
       0       0       0       0       0       0       0       0
       0       0       0       0       0       0       0       0
       0       0       0       0       0       0       0       0
       0       0       0       0       0       0       0       0
       0       0       0       0       0       0       0       0
       0       0       0       0       0       0       0       0
       0       0       0       0       0       0       0       0
       0       0       0       0       0       0       0       0
       0       0       0       0       0       0       0       0
       0       0       0       0       0       0       0       0
       0       0       0       0       0       0       0       0
       0       0       0       0       0       0       0       0
       0       0       0       0       0       0       0       0
       0       0       0       0       0       0       0       0
       0       0       0       0       0       0       0       0
       0       0       0       0       0       0       0       0
       0       0       0       0       0       0       0       0
       0       0       0       0       0       0       0       0
       0       0       0       0       0       0       0       0
       0       0       0       0       0       0       0       0
       0       0       0       0       0       0       0       0
       0       0       0       0       0       0       0       0
       0       0       0       0       0       0       0       0
       0       0       0       0       0       0       0       0
       0       0       0       0       0       0       0       0
       0       0       0       0       0       0       0       0
       0       0       0       0       0       0       0       0
       0       0       0       0       0       0       0       0
       0       0       0       0       0       0       0       0
       0       0       0       0       0       0       0       0
       0       0       0       0       0       0       0       0
       0       0       0       0       0       0       0       0
       0       0       0       0       0       0       0       0
       0       0       0       0       0       0       0       0
       0       0       0       0       0       0       0       0
       0       0       0       0       0       0       0       0
       0       0       0       0       0       0       0       0
       0       0       0       0       0       0       0       0
       0       0       0       0       0       0       0       0
       0       0       0       0       0       0       0       0
       0       0       0       0       0       0       0       0
       0       0       0       0       0       0       0       0
       0       0       0       0       0       0       0       0
       0       0       0       0       0       0       0       0
       0       0       0       0       0       0       0       0
       0       0       0       0       0       0       0       0
       0       0       0       0       0       0       0       0
       0       0       0       0       0       0       0       0
       0       0       0       0       0       0       0       0
       0       0       0       0       0       0       0       0
       0       0       0       0       0       0       0       0
       0       0       0       0       0       0       0       0
       0       0       0       0       0       0       0       0
       0       0       0       0       0       0       0       0
       0       0       0       0       0       0       0       0
       0       0       0       0       0       0       0       0
       0       0       0       0       0       0       0       0
       0       0       0       0       0       0       0       0
       0       0       0       0       0       0       0       0
       0       0       0       0       0       0       0       0
       0       0       0       0       0       0       0       0
       0       0       0       0       0       0       0       0
       0       0       0       0       0       0       0       0
       0       0       0       0       0       0       0       0
       0       0       0       0       0       0       0       0
       0       0       0       0       0       0       0       0
       0       0       0       0       0       0       0       0
       0       0       0       0       0       0       0       0
       0       0       0       0       0       0       0       0
       0       0       0       0       0       0       0       0
       0       0       0       0       0       0       0       0
       0       0       0       0       0       0       0       0
       0       0       0       0       0       0       0       0
       0       0       0       0       0       0       0       0
       0       0       0       0       0       0       0       0
       0       0       0       0       0       0       0       0
       0       0       0       0       0       0       0       0
       0       0       0       0       0       0       0       0
       0       0       0       0       0       0       0       0
       0       0       0       0       0       0       0       0
       0       0       0       0       0       0       0       0
       0       0       0       0       0       0       0       0
       0       0       0       0       0       0       0       0
       0       0       0       0       0       0       0       0
       0       0       0       0       0       0       0       0
       0       0       0       0       0       0       0       0
       0       0       0       0       0       0       0       0
       0       0       0       0       0       0       0       0
       0       0       0       0       0       0       0       0
       0       0       0       0       0       0       0       0
       0       0       0       0       0       0       0       0
       0       0       0       0       0       0       0       0
       0       0       0       0       0       0       0       0
       0       0       0       0       0       0       0       0
       0       0       0       0       0       0       0       0
       0       0       0       0       0       0       0       0
       0       0       0       0       0       0       0       0
       0       0       0       0       0       0       0       0
       0       0       0       0       0       0       0       0
       0       0       0       0       0       0       0       0
       0       0       0       0       0       0       0       0
       0       0       0       0       0       0       0       0
       0       0       0       0       0       0       0       0
       0       0       0       0       0       0       0       0
       0       0       0       0       0       0       0       0
       0       0       0       0       0       0       0       0
       0       0       0       0       0       0       0       0
       0       0       0       0       0       0       0       0
       0       0       0       0       0       0       0       0
       0       0       0       0       0       0       0       0
       0       0       0       0       0       0       0       0
       0       0       0       0       0       0       0       0
       0       0       0       0       0       0       0       0
       0       0       0       0       0       0       0       0
       0       0       0       0       0       0       0       0
       0       0       0       0       0       0       0       0
       0       0       0       0       0       0       0       0
       0       0       0       0       0       0       0       0
       0       0       0       0       0       0       0       0
       0       0       0       0       0       0       0       0
       0       0       0       0       0       0       0       0
       0       0       0       0       0       0       0       0
       0       0       0       0       0       0       0       0
       0       0       0       0       0       0       0       0
       0       0       0       0       0       0       0       0
       0       0       0       0       0       0       0       0
       0       0       0       0       0       0       0       0
       0       0       0       0       0       0       0       0
       0       0       0       0       0       0       0       0
       0       0       0       0       0       0       0       0
       0       0       0       0       0       0       0       0
       0       0       0       0       0       0       0       0
       0       0       0       0       0       0       0       0
       0       0       0       0       0       0       0       0
       0       0       0       0       0       0       0       0
       0       0       0       0       0       0       0       0
       0       0       0       0       0       0       0       0
       0       0       0       0       0       0       0       0
       0       0       0       0       0       0       0       0
       0       0       0       0       0       0       0       0
       0       0       0       0       0       0       0       0
       0       0       0       0       0       0       0       0
       0       0       0       0       0       0       0       0
       0       0       0       0       0       0       0       0
       0       0       0       0       0       0       0       0
       0       0       0       0       0       0       0       0
       0       0       0       0       0       0       0       0
       0       0       0       0       0       0       0       0
       0       0       0       0       0       0       0       0
       0       0       0       0       0       0       0       0
       0       0       0       0       0       0       0       0
       0       0       0       0       0       0       0       0
       0       0       0       0       0       0       0       0
       0       0       0       0       0       0       0       0
       0       0       0       0       0       0       0       0
       0       0       0       0       0       0       0       0
       0       0       0       0       0       0       0       0
       0       0       0       0       0       0       0       0
       0       0       0       0       0       0       0       0
       0       0       0       0       0       0       0       0
       0       0       0       0       0       0       0       0
       0       0       0       0       0       0       0       0
       0       0       0       0       0       0       0       0
       0       0       0       0       0       0       0       0
       0       0       0       0       0       0       0       0
       0       0       0       0       0       0       0       0
       0       0       0       0       0       0       0       0
       0       0       0       0       0       0       0       0
       0       0       0       0       0       0       0       0
       0       0       0       0       0       0       0       0
       0       0       0       0       0       0       0       0
       0       0       0       0       0       0       0       0
       0       0       0       0       0       0       0       0
       0       0       0       0       0       0       0       0
       0       0       0       0       0       0       0       0
       0       0       0       0       0       0       0       0
       0       0       0       0       0       0       0       0
       0       0       0       0       0       0       0       0
       0       0       0       0       0       0       0       0
       0       0       0       0       0       0       0       0
       0       0       0       0       0       0       0       0
       0       0       0       0       0       0       0       0
       0       0       0       0       0       0       0       0
       0       0       0       0       0       0       0       0
       0       0       0       0       0       0       0       0
       0       0       0       0       0       0       0       0
       0       0       0       0       0       0       0       0
       0       0       0       0       0       0       0       0
       0       0       0       0       0       0       0       0
       0       0       0       0       0       0       0       0
       0       0       0       0       0       0       0       0
       0       0       0       0       0       0       0       0
       0       0       0       0       0       0       0       0
       0       0       0       0       0       0       0       0
       0       0       0       0       0       0       0       0
       0       0       0       0       0       0       0       0
       0       0       0       0       0       0       0       0
       0       0       0       0       0       0       0       0
       0       0       0       0       0       0       0       0
       0       0       0       0       0       0       0       0
       0       0       0       0       0       0       0       0
       0       0       0       0       0       0       0       0
       0       0       0       0       0       0       0       0
       0       0       0       0       0       0       0       0
       0       0       0       0       0       0       0       0
       0       0       0       0       0       0       0       0
       0       0       0       0       0       0       0       0
       0       0       0       0       0       0       0       0
       0       0       0       0       0       0       0       0
       0       0       0       0       0       0       0       0
       0       0       0       0       0       0       0       0
       0       0       0       0       0       0       0       0
       0       0       0       0       0       0       0       0
       0       0       0       0       0       0       0       0
       0       0       0       0       0       0       0       0
       0       0       0       0       0       0       0       0
       0       0       0       0       0       0       0       0
       0       0       0       0       0       0       0       0
       0       0       0       0       0       0       0       0
       0       0       0       0       0       0       0       0
       0       0       0       0       0       0       0       0
       0       0       0       0       0       0       0       0
       0       0       0       0       0       0       0       0
       0       0       0       0       0       0       0       0
       0       0       0       0       0       0       0       0
       0       0       0       0       0       0       0       0
       0       0       0       0       0       0       0       0
       0       0       0       0       0       0       0       0
       0       0       0       0       0       0       0       0
       0       0       0       0       0       0       0       0
       0       0       0       0       0       0       0       0
       0       0       0       0       0       0       0       0
       0       0       0       0       0       0       0       0
       0       0       0       0       0       0       0       0
       0       0       0       0       0       0       0       0
       0       0       0       0       0       0       0       0
       0       0       0       0       0       0       0       0
       0       0       0       0       0       0       0       0
       0       0       0       0       0       0       0       0
       0       0       0       0       0       0       0       0
       0       0       0       0       0       0       0       0
       0       0       0       0       0       0       0       0
       0       0       0       0       0       0       0       0
       0       0       0       0       0       0       0       0
       0       0       0       0       0       0       0       0
       0       0       0       0       0       0       0       0
       0       0       0       0       0       0       0       0
       0       0       0       0       0       0       0       0
       0       0       0       0       0       0       0       0
       0       0       0       0       0       0       0       0
       0       0       0       0       0       0       0       0
       0       0       0       0       0       0       0       0
       0       0       0       0       0       0       0       0
       0       0       0       0       0       0       0       0
       0       0       0       0       0       0       0       0
       0       0       0       0       0       0       0       0
       0       0       0       0       0       0       0       0
       0       0       0       0       0       0       0       0
       0       0       0       0       0       0       0       0
       0       0       0       0       0       0       0       0
       0       0       0       0       0       0       0       0
       0       0       0       0       0       0       0       0
       0       0       0       0       0       0       0       0
       0       0       0       0       0       0       0       0
       0       0       0       0       0       0       0       0
       0       0       0       0       0       0       0       0
       0       0       0       0       0       0       0       0
       0       0       0       0       0       0       0       0
       0       0       0       0       0       0       0       0
       0       0       0       0       0       0       0       0
       0       0       0       0       0       0       0       0
       0       0       0       0       0       0       0       0
       0       0       0       0       0       0       0       0
       0       0       0       0       0       0       0       0
       0       0       0       0       0       0       0       0
       0       0       0       0       0       0       0       0
       0       0       0       0       0       0       0       0
       0       0       0       0       0       0       0       0
       0       0       0       0       0       0       0       0
       0       0       0       0       0       0       0       0
       0       0       0       0       0       0       0       0
       0       0       0       0       0       0       0       0
       0       0       0       0       0       0       0       0
       0       0       0       0       0       0       0       0
       0       0       0       0       0       0       0       0
       0       0       0       0       0       0       0       0
       0       0       0       0       0       0       0       0
       0       0       0       0       0       0       0       0
       0       0       0       0       0       0       0       0
       0       0       0       0       0       0       0       0
       0       0       0       0       0       0       0       0
       0       0       0       0       0       0       0       0
       0       0       0       0       0       0       0       0
       0       0       0       0       0       0       0       0
       0       0       0       0       0       0       0       0
       0       0       0       0       0       0       0       0
       0       0       0       0       0       0       0       0
       0       0       0       0       0       0       0       0
       0       0       0       0       0       0       0       0
       0       0       0       0       0       0       0       0
       0       0       0       0       0       0       0       0
       0       0       0       0       0       0       0       0
       0       0       0       0       0       0       0       0
       0       0       0       0       0       0       0       0
       0       0       0       0       0       0       0       0
       0       0       0       0       0       0       0       0
       0       0       0       0       0       0       0       0
       0       0       0       0       0       0       0       0
       0       0       0       0       0       0       0       0
       0       0       0       0       0       0       0       0
       0       0       0       0       0       0       0       0
       0       0       0       0       0       0       0       0
       0       0       0       0       0       0       0       0
       0       0       0       0       0       0       0       0
       0       0       0       0       0       0       0       0
       0       0       0       0       0       0       0       0
       0       0       0       0       0       0       0       0
       0       0       0       0       0       0       0       0
       0       0       0       0       0       0       0       0
       0       0       0       0       0       0       0       0
       0       0       0       0       0       0       0       0
       0       0       0       0       0       0       0       0
       0       0       0       0       0       0       0       0
       0       0       0       0       0       0       0       0
       0       0       0       0       0       0       0       0
       0       0       0       0       0       0       0       0
       0       0       0       0       0       0       0       0
       0       0       0       0       0       0       0       0
       0       0       0       0       0       0       0       0
       0       0       0       0       0       0       0       0
       0       0       0       0       0       0       0       0
       0       0       0       0       0       0       0       0
       0       0       0       0       0       0       0       0
       0       0       0       0       0       0       0       0
       0       0       0       0       0       0       0       0
       0       0       0       0       0       0       0       0
       0       0       0       0       0       0       0       0
       0       0       0       0       0       0       0       0
       0       0       0       0       0       0       0       0
       0       0       0       0       0       0       0       0
       0       0       0       0       0       0       0       0
       0       0       0       0       0       0       0       0
       0       0       0       0       0       0       0       0
       0       0       0       0       0       0       0       0
       0       0       0       0       0       0       0       0
       0       0       0       0       0       0       0       0
       0       0       0       0       0       0       0       0
       0       0       0       0       0       0       0       0
       0       0       0       0       0       0       0       0
       0       0       0       0       0       0       0       0
       0       0       0       0       0       0       0       0
       0       0       0       0       0       0       0       0
       0       0       0       0       0       0       0       0
       0       0       0       0       0       0       0       0
       0       0       0       0       0       0       0       0
       0       0       0       0       0       0       0       0
       0       0       0       0       0       0       0       0
       0       0       0       0       0       0       0       0
       0       0       0       0       0       0       0       0
       0       0       0       0       0       0       0       0
       0       0       0       0       0       0       0       0
       0       0       0       0       0       0       0       0
       0       0       0       0       0       0       0       0
       0       0       0       0       0       0       0       0
       0       0       0       0       0       0       0       0
       0       0       0       0       0       0       0       0
       0       0       0       0       0       0       0       0
       0       0       0       0       0       0       0       0
       0       0       0       0       0       0       0       0
       0       0       0       0       0       0       0       0
       0       0       0       0       0       0       0       0
       0       0       0       0       0       0       0       0
       0       0       0       0       0       0       0       0
       0       0       0       0       0       0       0       0
       0       0       0       0       0       0       0       0
       0       0       0       0       0       0       0       0
       0       0       0       0       0       0       0       0
       0       0       0       0       0       0       0       0
       0       0       0       0       0       0       0       0
       0       0       0       0       0       0       0       0
       0       0       0       0       0       0       0       0
       0       0       0       0       0       0       0       0
       0       0       0       0       0       0       0       0
       0       0       0       0       0       0       0       0
       0       0       0       0       0       0       0       0
       0       0       0       0       0       0       0       0
       0       0       0       0       0       0       0       0
       0       0       0       0       0       0       0       0
       0       0       0       0       0       0       0       0
       0       0       0       0       0       0       0       0
       0       0       0       0       0       0       0       0
       0       0       0       0       0       0       0       0
       0       0       0       0       0       0       0       0
       0       0       0       0       0       0       0       0
       0       0       0       0       0       0       0       0
       0       0       0       0       0       0       0       0
       0       0       0       0       0       0       0       0
       0       0       0       0       0       0       0       0
       0       0       0       0       0       0       0       0
       0       0       0       0       0       0       0       0
       0       0       0       0       0       0       0       0
       0       0       0       0       0       0       0       0
       0       0       0       0       0       0       0       0
       0       0       0       0       0       0       0       0
       0       0       0       0       0       0       0       0
       0       0       0       0       0       0       0       0
       0       0       0       0       0       0       0       0
       0       0       0       0       0       0       0       0
       0       0       0       0       0       0       0       0
       0       0       0       0       0       0       0       0
       0       0       0       0       0       0       0       0
       0       0       0       0       0       0       0       0
       0       0       0       0       0       0       0       0
       0       0       0       0       0       0       0       0
       0       0       0       0       0       0       0       0
       0       0       0       0       0       0       0       0
       0       0       0       0       0       0       0       0
       0       0       0       0       0       0       0       0
       0       0       0       0       0       0       0       0
       0       0       0       0       0       0       0       0
       0       0       0       0       0       0       0       0
       0       0       0       0       0       0       0       0
       0       0       0       0       0       0       0       0
       0       0       0       0       0       0       0       0
       0       0       0       0       0       0       0       0
       0       0       0       0       0       0       0       0
       0       0       0       0       0       0       0       0
       0       0       0       0       0       0       0       0
       0       0       0       0       0       0       0       0
       0       0       0       0       0       0       0       0
       0       0       0       0       0       0       0       0
       0       0       0       0       0       0       0       0
       0       0       0       0       0       0       0       0
       0       0       0       0       0       0       0       0
       0       0       0       0       0       0       0       0
       0       0       0       0       0       0       0       0
       0       0       0       0       0       0       0       0
       0       0       0       0       0       0       0       0
       0       0       0       0       0       0       0       0
       0       0       0       0       0       0       0       0
       0       0       0       0       0       0       0       0
       0       0       0       0       0       0       0       0
       0       0       0       0       0       0       0       0
       0       0       0       0       0       0       0       0
       0       0       0       0       0       0       0       0
       0       0       0       0       0       0       0       0
       0       0       0       0       0       0       0       0
       0       0       0       0       0       0       0       0
       0       0       0       0       0       0       0       0
       0       0       0       0       0       0       0       0
       0       0       0       0       0       0       0       0
       0       0       0       0       0       0       0       0
       0       0       0       0       0       0       0       0
       0       0       0       0       0       0       0       0
       0       0       0       0       0       0       0       0
       0       0       0       0       0       0       0       0
       0       0       0       0       0       0       0       0
       0       0       0       0       0       0       0       0
       0       0       0       0       0       0       0       0
       0       0       0       0       0       0       0       0
       0       0       0       0       0       0       0       0
       0       0       0       0       0       0       0       0
       0       0       0       0       0       0       0       0
       0       0       0       0       0       0       0       0
       0       0       0       0       0       0       0       0
       0       0       0       0       0       0       0       0
       0       0       0       0       0       0       0       0
       0       0       0       0       0       0       0       0
       0       0       0       0       0       0       0       0
       0       0       0       0       0       0       0       0
       0       0       0       0       0       0       0       0
       0       0       0       0       0       0       0       0
       0       0       0       0       0       0       0       0
       0       0       0       0       0       0       0       0
       0       0       0       0       0       0       0       0
       0       0       0       0       0       0       0       0
       0       0       0       0       0       0       0       0
       0       0       0       0       0       0       0       0
       0       0       0       0       0       0       0       0
       0       0       0       0       0       0       0       0
       0       0       0       0       0       0       0       0
       0       0       0       0       0       0       0       0
       0       0       0       0       0       0       0       0
       0       0       0       0       0       0       0       0
       0       0       0       0       0       0       0       0
       0       0       0       0       0       0       0       0
       0       0       0       0       0       0       0       0
       0       0       0       0       0       0       0       0
       0       0       0       0       0       0       0       0
       0       0       0       0       0       0       0       0
       0       0       0       0       0       0       0       0
       0       0       0       0       0       0       0       0
       0       0       0       0       0       0       0       0
       0       0       0       0       0       0       0       0
       0       0       0       0       0       0       0       0
       0       0       0       0       0       0       0       0
       0       0       0       0       0       0       0       0
       0       0       0       0       0       0       0       0
       0       0       0       0       0       0       0       0
       0       0       0       0       0       0       0       0
       0       0       0       0       0       0       0       0
       0       0       0       0       0       0       0       0
       0       0       0       0       0       0       0       0
       0       0       0       0       0       0       0       0
       0       0       0       0       0       0       0       0
       0       0       0       0       0       0       0       0
       0       0       0       0       0       0       0       0
       0       0       0       0       0       0       0       0
       0       0       0       0       0       0       0       0
       0       0       0       0       0       0       0       0
       0       0       0       0       0       0       0       0
       0       0       0       0       0       0       0       0
       0       0       0       0       0       0       0       0
       0       0       0       0       0       0       0       0
       0       0       0       0       0       0       0       0
       0       0       0       0       0       0       0       0
       0       0       0       0       0       0       0       0
       0       0       0       0       0       0       0       0
       0       0       0       0       0       0       0       0
       0       0       0       0       0       0       0       0
       0       0       0       0       0       0       0       0
       0       0       0       0       0       0       0       0
       0       0       0       0       0       0       0       0
       0       0       0       0       0       0       0       0
       0       0       0       0       0       0       0       0
       0       0       0       0       0       0       0       0
       0       0       0       0       0       0       0       0
       0       0       0       0       0       0       0       0
       0       0       0       0       0       0       0       0
       0       0       0       0       0       0       0       0
       0       0       0       0       0       0       0       0
       0       0       0       0       0       0       0       0
       0       0       0       0       0       0       0       0
       0       0       0       0       0       0       0       0
       0       0       0       0       0       0       0       0
       0       0       0       0       0       0       0       0
       0       0       0       0       0       0       0       0
       0       0       0       0       0       0       0       0
       0       0       0       0       0       0       0       0
       0       0       0       0       0       0       0       0
       0       0       0       0       0       0       0       0
       0       0       0       0       0       0       0       0
       0       0       0       0       0       0       0       0
       0       0       0       0       0       0       0       0
       0       0       0       0       0       0       0       0
       0       0       0       0       0       0       0       0
       0       0       0       0       0       0       0       0
       0       0       0       0       0       0       0       0
       0       0       0       0       0       0       0       0
       0       0       0       0       0       0       0       0
       0       0       0       0       0       0       0       0
       0       0       0       0       0       0       0       0
       0       0       0       0       0       0       0       0
       0       0       0       0       0       0       0       0
       0       0       0       0       0       0       0       0
       0       0       0       0       0       0       0       0
       0       0       0       0       0       0       0       0
       0       0       0       0       0       0       0       0
       0       0       0       0       0       0       0       0
       0       0       0       0       0       0       0       0
       0       0       0       0       0       0       0       0
       0       0       0       0       0       0       0       0
       0       0       0       0       0       0       0       0
       0       0       0       0       0       0       0       0
       0       0       0       0       0       0       0       0
       0       0       0       0       0       0       0       0
       0       0       0       0       0       0       0       0
       0       0       0       0       0       0       0       0
       0       0       0       0       0       0       0       0
       0       0       0       0       0       0       0       0
       0       0       0       0       0       0       0       0
       0       0       0       0       0       0       0       0
       0       0       0       0       0       0       0       0
       0       0       0       0       0       0       0       0
       0       0       0       0       0       0       0       0
       0       0       0       0       0       0       0       0
       0       0       0       0       0       0       0       0
       0       0       0       0       0       0       0       0
       0       0       0       0       0       0       0       0
       0       0       0       0       0       0       0       0
       0       0       0       0       0       0       0       0
       0       0       0       0       0       0       0       0
       0       0       0       0       0       0       0       0
       0       0       0       0       0       0       0       0
       0       0       0       0       0       0       0       0
       0       0       0       0       0       0       0       0
       0       0       0       0       0       0       0       0
       0       0       0       0       0       0       0       0
       0       0       0       0       0       0       0       0
       0       0       0       0       0       0       0       0
       0       0       0       0       0       0       0       0
       0       0       0       0       0       0       0       0
       0       0       0       0       0       0       0       0
       0       0       0       0       0       0       0       0
       0       0       0       0       0       0       0       0
       0       0       0       0       0       0       0       0
       0       0       0       0       0       0       0       0
       0       0       0       0       0       0       0       0
       0       0       0       0       0       0       0       0
       0       0       0       0       0       0       0       0
       0       0       0       0       0       0       0       0
       0       0       0       0       0       0       0       0
       0       0       0       0       0       0       0       0
       0       0       0       0       0       0       0       0
       0       0       0       0       0       0       0       0
       0       0       0       0       0       0       0       0
       0       0       0       0       0       0       0       0
       0       0       0       0       0       0       0       0
       0       0       0       0       0       0       0       0
       0       0       0       0       0       0       0       0
       0       0       0       0       0       0       0       0
       0       0       0       0       0       0       0       0
       0       0       0       0       0       0       0       0
       0       0       0       0       0       0       0       0
       0       0       0       0       0       0       0       0
       0       0       0       0       0       0       0       0
       0       0       0       0       0       0       0       0
       0       0       0       0       0       0       0       0
       0       0       0       0       0       0       0       0
       0       0       0       0       0       0       0       0
       0       0       0       0       0       0       0       0
       0       0       0       0       0       0       0       0
       0       0       0       0       0       0       0       0
       0       0       0       0       0       0       0       0
       0       0       0       0       0       0       0       0
       0       0       0       0       0       0       0       0
       0       0       0       0       0       0       0       0
       0       0       0       0       0       0       0       0
       0       0       0       0       0       0       0       0
       0       0       0       0       0       0       0       0
       0       0       0       0       0       0       0       0
       0       0       0       0       0       0       0       0
       0       0       0       0       0       0       0       0
       0       0       0       0       0       0       0       0
       0       0       0       0       0       0       0       0
       0       0       0       0       0       0       0       0
       0       0       0       0       0       0       0       0
       0       0       0       0       0       0       0       0
       0       0       0       0       0       0       0       0
       0       0       0       0       0       0       0       0
       0       0       0       0       0       0       0       0
       0       0       0       0       0       0       0       0
       0       0       0       0       0       0       0       0
       0       0       0       0       0       0       0       0
       0       0       0       0       0       0       0       0
       0       0       0       0       0       0       0       0
       0       0       0       0       0       0       0       0
       0       0       0       0       0       0       0       0
       0       0       0       0       0       0       0       0
       0       0       0       0       0       0       0       0
       0       0       0       0       0       0       0       0
       0       0       0       0       0       0       0       0
       0       0       0       0       0       0       0       0
       0       0       0       0       0       0       0       0
       0       0       0       0       0       0       0       0
       0       0       0       0       0       0       0       0
       0       0       0       0       0       0       0       0
       0       0       0       0       0       0       0       0
       0       0       0       0       0       0       0       0
       0       0       0       0       0       0       0       0
       0       0       0       0       0       0       0       0
       0       0       0       0       0       0       0       0
       0       0       0       0       0       0       0       0
       0       0       0       0       0       0       0       0
       0       0       0       0       0       0       0       0
       0       0       0       0       0       0       0       0
       0       0       0       0       0       0       0       0
       0       0       0       0       0       0       0       0
       0       0       0       0       0       0       0       0
       0       0       0       0       0       0       0       0
       0       0       0       0       0       0       0       0
       0       0       0       0       0       0       0       0
       0       0       0       0       0       0       0       0
       0       0       0       0       0       0       0       0
       0       0       0       0       0       0       0       0
       0       0       0       0       0       0       0       0
       0       0       0       0       0       0       0       0
       0       0       0       0       0       0       0       0
       0       0       0       0       0       0       0       0
       0       0       0       0       0       0       0       0
       0       0       0       0       0       0       0       0
       0       0       0       0       0       0       0       0
       0       0       0       0       0       0       0       0
       0       0       0       0       0       0       0       0
       0       0       0       0       0       0       0       0
       0       0       0       0       0       0       0       0
       0       0       0       0       0       0       0       0
       0       0       0       0       0       0       0       0
       0       0       0       0       0       0       0       0
       0       0       0       0       0       0       0       0
       0       0       0       0       0       0       0       0
       0       0       0       0       0       0       0       0
       0       0       0       0       0       0       0       0
       0       0       0       0       0       0       0       0
       0       0       0       0       0       0       0       0
       0       0       0       0       0       0       0       0
       0       0       0       0       0       0       0       0
       0       0       0       0       0       0       0       0
       0       0       0       0       0       0       0       0
       0       0       0       0       0       0       0       0
       0       0       0       0       0       0       0       0
       0       0       0       0       0       0       0       0
       0       0       0       0       0       0       0       0
       0       0       0       0       0       0       0       0
       0       0       0       0       0       0       0       0
       0       0       0       0       0       0       0       0
       0       0       0       0       0       0       0       0
       0       0       0       0       0       0       0       0
       0       0       0       0       0       0       0       0
       0       0       0       0       0       0       0       0
       0       0       0       0       0       0       0       0
       0       0       0       0       0       0       0       0
       0       0       0       0       0       0       0       0
       0       0       0       0       0       0       0       0
       0       0       0       0       0       0       0       0
       0       0       0       0       0       0       0       0
       0       0       0       0       0       0       0       0
       0       0       0       0       0       0       0       0
       0       0       0       0       0       0       0       0
       0       0       0       0       0       0       0       0
       0       0       0       0       0       0       0       0
       0       0       0       0       0       0       0       0
       0       0       0       0       0       0       0       0
       0       0       0       0       0       0       0       0
       0       0       0       0       0       0       0       0
       0       0       0       0       0       0       0       0
       0       0       0       0       0       0       0       0
       0       0       0       0       0       0       0       0
       0       0       0       0       0       0       0       0
       0       0       0       0       0       0       0       0
       0       0       0       0       0       0       0       0
       0       0       0       0       0       0       0       0
       0       0       0       0       0       0       0       0
       0       0       0       0       0       0       0       0
       0       0       0       0       0       0       0       0
       0       0       0       0       0       0       0       0
       0       0       0       0       0       0       0       0
       0       0       0       0       0       0       0       0
       0       0       0       0       0       0       0       0
       0       0       0       0       0       0       0       0
       0       0       0       0       0       0       0       0
       0       0       0       0       0       0       0       0
       0       0       0       0       0       0       0       0
       0       0       0       0       0       0       0       0
       0       0       0       0       0       0       0       0
       0       0       0       0       0       0       0       0
       0       0       0       0       0       0       0       0
       0       0       0       0       0       0       0       0
       0       0       0       0       0       0       0       0
       0       0       0       0       0       0       0       0
       0       0       0       0       0       0       0       0
       0       0       0       0       0       0       0       0
       0       0       0       0       0       0       0       0
       0       0       0       0       0       0       0       0
       0       0       0       0       0       0       0       0
       0       0       0       0       0       0       0       0
       0       0       0       0       0       0       0       0
       0       0       0       0       0       0       0       0
       0       0       0       0       0       0       0       0
       0       0       0       0       0       0       0       0
       0       0       0       0       0       0       0       0
       0       0       0       0       0       0       0       0
       0       0       0       0       0       0       0       0
       0       0       0       0       0       0       0       0
       0       0       0       0       0       0       0       0
       0       0       0       0       0       0       0       0
       0       0       0       0       0       0       0       0
       0       0       0       0       0       0       0       0
       0       0       0       0       0       0       0       0
       0       0       0       0       0       0       0       0
       0       0       0       0       0       0       0       0
       0       0       0       0       0       0       0       0
       0       0       0       0       0       0       0       0
       0       0       0       0       0       0       0       0
       0       0       0       0       0       0       0       0
       0       0       0       0       0       0       0       0
       0       0       0       0       0       0       0       0
       0       0       0       0       0       0       0       0
       0       0       0       0       0       0       0       0
       0       0       0       0       0       0       0       0
       0       0       0       0       0       0       0       0
       0       0       0       0       0       0       0       0
       0       0       0       0       0       0       0       0
       0       0       0       0       0       0       0       0
       0       0       0       0       0       0       0       0
       0       0       0       0       0       0       0       0
       0       0       0       0       0       0       0       0
       0       0       0       0       0       0       0       0
       0       0       0       0       0       0       0       0
       0       0       0       0       0       0       0       0
       0       0       0       0       0       0       0       0
       0       0       0       0       0       0       0       0
       0       0       0       0       0       0       0       0
       0       0       0       0       0       0       0       0
       0       0       0       0       0       0       0       0
       0       0       0       0       0       0       0       0
       0       0       0       0       0       0       0       0
       0       0       0       0       0       0       0       0
       0       0       0       0       0       0       0       0
       0       0       0       0       0       0       0       0
       0       0       0       0       0       0       0       0
       0       0       0       0       0       0       0       0
       0       0       0       0       0       0       0       0
       0       0       0       0       0       0       0       0
       0       0       0       0       0       0       0       0
       0       0       0       0       0       0       0       0
       0       0       0       0       0       0       0       0
       0       0       0       0       0       0       0       0
       0       0       0       0       0       0       0       0
       0       0       0       0       0       0       0       0
       0       0       0       0       0       0       0       0
       0       0       0       0       0       0       0       0
       0       0       0       0       0       0       0       0
       0       0       0       0       0       0       0       0
       0       0       0       0       0       0       0       0
       0       0       0       0       0       0       0       0
       0       0       0       0       0       0       0       0
       0       0       0       0       0       0       0       0
       0       0       0       0       0       0       0       0
       0       0       0       0       0       0       0       0
       0       0       0       0       0       0       0       0
       0       0       0       0       0       0       0       0
       0       0       0       0       0       0       0       0
       0       0       0       0       0       0       0       0
       0       0       0       0       0       0       0       0
       0       0       0       0       0       0       0       0
       0       0       0       0       0       0       0       0
       0       0       0       0       0       0       0       0
       0       0       0       0       0       0       0       0
       0       0       0       0       0       0       0       0
       0       0       0       0       0       0       0       0
       0       0       0       0       0       0       0       0
       0       0       0       0       0       0       0       0
       0       0       0       0       0       0       0       0
       0       0       0       0       0       0       0       0
       0       0       0       0       0       0       0       0
       0       0       0       0       0       0       0       0
       0       0       0       0       0       0       0       0
       0       0       0       0       0       0       0       0
       0       0       0       0       0       0       0       0
       0       0       0       0       0       0       0       0
       0       0       0       0       0       0       0       0
       0       0       0       0       0       0       0       0
       0       0       0       0       0       0       0       0
       0       0       0       0       0       0       0       0
       0       0       0       0       0       0       0       0
       0       0       0       0       0       0       0       0
       0       0       0       0       0       0       0       0
       0       0       0       0       0       0       0       0
       0       0       0       0       0       0       0       0
       0       0       0       0       0       0       0       0
       0       0       0       0       0       0       0       0
       0       0       0       0       0       0       0       0
       0       0       0       0       0       0       0       0
       0       0       0       0       0       0       0       0
       0       0       0       0       0       0       0       0
       0       0       0       0       0       0       0       0
       0       0       0       0       0       0       0       0
       0       0       0       0       0       0       0       0
       0       0       0       0       0       0       0       0
       0       0       0       0       0       0       0       0
       0       0       0       0       0       0       0       0
       0       0       0       0       0       0       0       0
       0       0       0       0       0       0       0       0
       0       0       0       0       0       0       0       0
       0       0       0       0       0       0       0       0
       0       0       0       0       0       0       0       0
       0       0       0       0       0       0       0       0
       0       0       0       0       0       0       0       0
       0       0       0       0       0       0       0       0
       0       0       0       0       0       0       0       0
       0       0       0       0       0       0       0       0
       0       0       0       0       0       0       0       0
       0       0       0       0       0       0       0       0
       0       0       0       0       0       0       0       0
       0       0       0       0       0       0       0       0
       0       0       0       0       0       0       0       0
       0       0       0       0       0       0       0       0
       0       0       0       0       0       0       0       0
       0       0       0       0       0       0       0       0
       0       0       0       0       0       0       0       0
       0       0       0       0       0       0       0       0
       0       0       0       0       0       0       0       0
       0       0       0       0       0       0       0       0
       0       0       0       0       0       0       0       0
       0       0       0       0       0       0       0       0
       0       0       0       0       0       0       0       0
       0       0       0       0       0       0       0       0
       0       0       0       0       0       0       0       0
       0       0       0       0       0       0       0       0
       0       0       0       0       0       0       0       0
       0       0       0       0       0       0       0       0
       0       0       0       0       0       0       0       0
       0       0       0       0       0       0       0       0
       0       0       0       0       0       0       0       0
       0       0       0       0       0       0       0       0
       0       0       0       0       0       0       0       0
       0       0       0       0       0       0       0       0
       0       0       0       0       0       0       0       0
       0       0       0       0       0       0       0       0
       0       0       0       0       0       0       0       0
       0       0       0       0       0       0       0       0
       0       0       0       0       0       0       0       0
       0       0       0       0       0       0       0       0
       0       0       0       0       0       0       0       0
       0       0       0       0       0       0       0       0
       0       0       0       0       0       0       0       0
       0       0       0       0       0       0       0       0
       0       0       0       0       0       0       0       0
       0       0       0       0       0       0       0       0
       0       0       0       0       0       0       0       0
       0       0       0       0       0       0       0       0
       0       0       0       0       0       0       0       0
       0       0       0       0       0       0       0       0
       0       0       0       0       0       0       0       0
       0       0       0       0       0       0       0       0
       0       0       0       0       0       0       0       0
       0       0       0       0       0       0       0       0
       0       0       0       0       0       0       0       0
       0       0       0       0       0       0       0       0
       0       0       0       0       0       0       0       0
       0       0       0       0       0       0       0       0
       0       0       0       0       0       0       0       0
       0       0       0       0       0       0       0       0
       0       0       0       0       0       0       0       0
       0       0       0       0       0       0       0       0
       0       0       0       0       0       0       0       0
       0       0       0       0       0       0       0       0
       0       0       0       0       0       0       0       0
       0       0       0       0       0       0       0       0
       0       0       0       0       0       0       0       0
       0       0       0       0       0       0       0       0
       0       0       0       0       0       0       0       0
       0       0       0       0       0       0       0       0
       0       0       0       0       0       0       0       0
       0       0       0       0       0       0       0       0
       0       0       0       0       0       0       0       0
       0       0       0       0       0       0       0       0
       0       0       0       0       0       0       0       0
       0       0       0       0       0       0       0       0
       0       0       0       0       0       0       0       0
       0       0       0       0       0       0       0       0
       0       0       0       0       0       0       0       0
       0       0       0       0       0       0       0       0
       0       0       0       0       0       0       0       0
       0       0       0       0       0       0       0       0
       0       0       0       0       0       0       0       0
       0       0       0       0       0       0       0       0
       0       0       0       0       0       0       0       0
       0       0       0       0       0       0       0       0
       0       0       0       0       0       0       0       0
       0       0       0       0       0       0       0       0
       0       0       0       0       0       0       0       0
       0       0       0       0       0       0       0       0
       0       0       0       0       0       0       0       0
       0       0       0       0       0       0       0       0
       0       0       0       0       0       0       0       0
       0       0       0       0       0       0       0       0
       0       0       0       0       0       0       0       0
       0       0       0       0       0       0       0       0
       0       0       0       0       0       0       0       0
       0       0       0       0       0       0       0       0
       0       0       0       0       0       0       0       0
       0       0       0       0       0       0       0       0
       0       0       0       0       0       0       0       0
       0       0       0       0       0       0       0       0
       0       0       0       0       0       0       0       0
       0       0       0       0       0       0       0       0
       0       0       0       0       0       0       0       0
       0       0       0       0       0       0       0       0
       0       0       0       0       0       0       0       0
       0       0       0       0       0       0       0       0
       0       0       0       0       0       0       0       0
       0       0       0       0       0       0       0       0
       0       0       0       0       0       0       0       0
       0       0       0       0       0       0       0       0
       0       0       0       0       0       0       0       0
       0       0       0       0       0       0       0       0
       0       0       0       0       0       0       0       0
       0       0       0       0       0       0       0       0
       0       0       0       0       0       0       0       0
       0       0       0       0       0       0       0       0
       0       0       0       0       0       0       0       0
       0       0       0       0       0       0       0       0
       0       0       0       0       0       0       0       0
       0       0       0       0       0       0       0       0
       0       0       0       0       0       0       0       0
       0       0       0       0       0       0       0       0
       0       0       0       0       0       0       0       0
       0       0       0       0       0       0       0       0
       0       0       0       0       0       0       0       0
       0       0       0       0       0       0       0       0
       0       0       0       0       0       0       0       0
       0       0       0       0       0       0       0       0
       0       0       0       0       0       0       0       0
       0       0       0       0       0       0       0       0
       0       0       0       0       0       0       0       0
       0       0       0       0       0       0       0       0
       0       0       0       0       0       0       0       0
       0       0       0       0       0       0       0       0
       0       0       0       0       0       0       0       0
       0       0       0       0       0       0       0       0
       0       0       0       0       0       0       0       0
       0       0       0       0       0       0       0       0
       0       0       0       0       0       0       0       0
       0       0       0       0       0       0       0       0
       0       0       0       0       0       0       0       0
       0       0       0       0       0       0       0       0
       0       0       0       0       0       0       0       0
       0       0       0       0       0       0       0       0
       0       0       0       0       0       0       0       0
       0       0       0       0       0       0       0       0
       0       0       0       0       0       0       0       0
       0       0       0       0       0       0       0       0
       0       0       0       0       0       0       0       0
       0       0       0       0       0       0       0       0
       0       0       0       0       0       0       0       0
       0       0       0       0       0       0       0       0
       0       0       0       0       0       0       0       0
       0       0       0       0       0       0       0       0
       0       0       0       0       0       0       0       0
       0       0       0       0       0       0       0       0
       0       0       0       0       0       0       0       0
       0       0       0       0       0       0       0       0
       0       0       0       0       0       0       0       0
       0       0       0       0       0       0       0       0
       0       0       0       0       0       0       0       0
       0       0       0       0       0       0       0       0
       0       0       0       0       0       0       0       0
       0       0       0       0       0       0       0       0
       0       0       0       0       0       0       0       0
       0       0       0       0       0       0       0       0
       0       0       0       0       0       0       0       0
       0       0       0       0       0       0       0       0
       0       0       0       0       0       0       0       0
       0       0       0       0       0       0       0       0
       0       0       0       0       0       0       0       0
       0       0       0       0       0       0       0       0
       0       0       0       0       0       0       0       0
       0       0       0       0       0       0       0       0
       0       0       0       0       0       0       0       0
       0       0       0       0       0       0       0       0
       0       0       0       0       0       0       0       0
       0       0       0       0       0       0       0       0
       0       0       0       0       0       0       0       0
       0       0       0       0       0       0       0       0
       0       0       0       0       0       0       0       0
       0       0       0       0       0       0       0       0
       0       0       0       0       0       0       0       0
       0       0       0       0       0       0       0       0
       0       0       0       0       0       0       0       0
       0       0       0       0       0       0       0       0
       0       0       0       0       0       0       0       0
       0       0       0       0       0       0       0       0
       0       0       0       0       0       0       0       0
       0       0       0       0       0       0       0       0
       0       0       0       0       0       0       0       0
       0       0       0       0       0       0       0       0
       0       0       0       0       0       0       0       0
       0       0       0       0       0       0       0       0
       0       0       0       0       0       0       0       0
       0       0       0       0       0       0       0       0
       0       0       0       0       0       0       0       0
       0       0       0       0       0       0       0       0
       0       0       0       0       0       0       0       0
       0       0       0       0       0       0       0       0
       0       0       0       0       0       0       0       0
       0       0       0       0       0       0       0       0
       0       0       0       0       0       0       0       0
       0       0       0       0       0       0       0       0
       0       0       0       0       0       0       0       0
       0       0       0       0       0       0       0       0
       0       0       0       0       0       0       0       0
       0       0       0       0       0       0       0       0
       0       0       0       0       0       0       0       0
       0       0       0       0       0       0       0       0
       0       0       0       0       0       0       0       0
       0       0       0       0       0       0       0       0
       0       0       0       0       0       0       0       0
       0       0       0       0       0       0       0       0
       0       0       0       0       0       0       0       0
       0       0       0       0       0       0       0       0
       0       0       0       0       0       0       0       0
       0       0       0       0       0       0       0       0
       0       0       0       0       0       0       0       0
       0       0       0       0       0       0       0       0
       0       0       0       0       0       0       0       0
       0       0       0       0       0       0       0       0
       0       0       0       0       0       0       0       0
       0       0       0       0       0       0       0       0
       0       0       0       0       0       0       0       0
       0       0       0       0       0       0       0       0
       0       0       0       0       0       0       0       0
       0       0       0       0       0       0       0       0
       0       0       0       0       0       0       0       0
       0       0       0       0       0       0       0       0
       0       0       0       0       0       0       0       0
       0       0       0       0       0       0       0       0
       0       0       0       0       0       0       0       0
       0       0       0       0       0       0       0       0
       0       0       0       0       0       0       0       0
       0       0       0       0       0       0       0       0
       0       0       0       0       0       0       0       0
       0       0       0       0       0       0       0       0
       0       0       0       0       0       0       0       0
       0       0       0       0       0       0       0       0
       0       0       0       0       0       0       0       0
       0       0       0       0       0       0       0       0
       0       0       0       0       0       0       0       0
       0       0       0       0       0       0       0       0
       0       0       0       0       0       0       0       0
       0       0       0       0       0       0       0       0
       0       0       0       0       0       0       0       0
       0       0       0       0       0       0       0       0
       0       0       0       0       0       0       0       0
       0       0       0       0       0       0       0       0
       0       0       0       0       0       0       0       0
       0       0       0       0       0       0       0       0
       0       0       0       0       0       0       0       0
       0       0       0       0       0       0       0       0
       0       0       0       0       0       0       0       0
       0       0       0       0       0       0       0       0
       0       0       0       0       0       0       0       0
       0       0       0       0       0       0       0       0
       0       0       0       0       0       0       0       0
       0       0       0       0       0       0       0       0
       0       0       0       0       0       0       0       0
       0       0       0       0       0       0       0       0
       0       0       0       0       0       0       0       0
       0       0       0       0       0       0       0       0
       0       0       0       0       0       0       0       0
       0       0       0       0       0       0       0       0
       0       0       0       0       0       0       0       0
       0       0       0       0       0       0       0       0
       0       0       0       0       0       0       0       0
       0       0       0       0       0       0       0       0
       0       0       0       0       0       0       0       0
       0       0       0       0       0       0       0       0
       0       0       0       0       0       0       0       0
       0       0       0       0       0       0       0       0
       0       0       0       0       0       0       0       0
       0       0       0       0       0       0       0       0
       0       0       0       0       0       0       0       0
       0       0       0       0       0       0       0       0
       0       0       0       0       0       0       0       0
       0       0       0       0       0       0       0       0
       0       0       0       0       0       0       0       0
       0       0       0       0       0       0       0       0
       0       0       0       0       0       0       0       0
       0       0       0       0       0       0       0       0
       0       0       0       0       0       0       0       0
       0       0       0       0       0       0       0       0
       0       0       0       0       0       0       0       0
       0       0       0       0       0       0       0       0
       0       0       0       0       0       0       0       0
       0       0       0       0       0       0       0       0
       0       0       0       0       0       0       0       0
       0       0       0       0       0       0       0       0
       0       0       0       0       0       0       0       0
       0       0       0       0       0       0       0       0
       0       0       0       0       0       0       0       0
       0       0       0       0       0       0       0       0
       0       0       0       0       0       0       0       0
       0       0       0       0       0       0       0       0
       0       0       0       0       0       0       0       0
       0       0       0       0       0       0       0       0
       0       0       0       0       0       0       0       0
       0       0       0       0       0       0       0       0
       0       0       0       0       0       0       0       0
       0       0       0       0       0       0       0       0
       0       0       0       0       0       0       0       0
       0       0       0       0       0       0       0       0
       0       0       0       0       0       0       0       0
       0       0       0       0       0       0       0       0
       0       0       0       0       0       0       0       0
       0       0       0       0       0       0       0       0
       0       0       0       0       0       0       0       0
       0       0       0       0       0       0       0       0
       0       0       0       0       0       0       0       0
       0       0       0       0       0       0       0       0
       0       0       0       0       0       0       0       0
       0       0       0       0       0       0       0       0
       0       0       0       0       0       0       0       0
       0       0       0       0       0       0       0       0
       0       0       0       0       0       0       0       0
       0       0       0       0       0       0       0       0
       0       0       0       0       0       0       0       0
       0       0       0       0       0       0       0       0
       0       0       0       0       0       0       0       0
       0       0       0       0       0       0       0       0
       0       0       0       0       0       0       0       0
       0       0       0       0       0       0       0       0
       0       0       0       0       0       0       0       0
       0       0       0       0       0       0       0       0
       0       0       0       0       0       0       0       0
       0       0       0       0       0       0       0       0
       0       0       0       0       0       0       0       0
       0       0       0       0       0       0       0       0
       0       0       0       0       0       0       0       0
       0       0       0       0       0       0       0       0
       0       0       0       0       0       0       0       0
       0       0       0       0       0       0       0       0
       0       0       0       0       0       0       0       0
       0       0       0       0       0       0       0       0
       0       0       0       0       0       0       0       0
       0       0       0       0       0       0       0       0
       0       0       0       0       0       0       0       0
       0       0       0       0       0       0       0       0
       0       0       0       0       0       0       0       0
       0       0       0       0       0       0       0       0
       0       0       0       0       0       0       0       0
       0       0       0       0       0       0       0       0
       0       0       0       0       0       0       0       0
       0       0       0       0       0       0       0       0
       0       0       0       0       0       0       0       0
       0       0       0       0       0       0       0       0
       0       0       0       0       0       0       0       0
       0       0       0       0       0       0       0       0
       0       0       0       0       0       0       0       0
       0       0       0       0       0       0       0       0
       0       0       0       0       0       0       0       0
       0       0       0       0       0       0       0       0
       0       0       0       0       0       0       0       0
       0       0       0       0       0       0       0       0
       0       0       0       0       0       0       0       0
       0       0       0       0       0       0       0       0
       0       0       0       0       0       0       0       0
       0       0       0       0       0       0       0       0
       0       0       0       0       0       0       0       0
       0       0       0       0       0       0       0       0
       0       0       0       0       0       0       0       0
       0       0       0       0       0       0       0       0
       0       0       0       0       0       0       0       0
       0       0       0       0       0       0       0       0
       0       0       0       0       0       0       0       0
       0       0       0       0       0       0       0       0
       0       0       0       0       0       0       0       0
       0       0       0       0       0       0       0       0
       0       0       0       0       0       0       0       0
       0       0       0       0       0       0       0       0
       0       0       0       0       0       0       0       0
       0       0       0       0       0       0       0       0
       0       0       0       0       0       0       0       0
       0       0       0       0       0       0       0       0
       0       0       0       0       0       0       0       0
       0       0       0       0       0       0       0       0
       0       0       0       0       0       0       0       0
       0       0       0       0       0       0       0       0
       0       0       0       0       0       0       0       0
       0       0       0       0       0       0       0       0
       0       0       0       0       0       0       0       0
       0       0       0       0       0       0       0       0
       0       0       0       0       0       0       0       0
       0       0       0       0       0       0       0       0
       0       0       0       0       0       0       0       0
       0       0       0       0       0       0       0       0
       0       0       0       0       0       0       0       0
       0       0       0       0       0       0       0       0
       0       0       0       0       0       0       0       0
       0       0       0       0       0       0       0       0
       0       0       0       0       0       0       0       0
       0       0       0       0       0       0       0       0
       0       0       0       0       0       0       0       0
       0       0       0       0       0       0       0       0
       0       0       0       0       0       0       0       0
       0       0       0       0       0       0       0       0
       0       0       0       0       0       0       0       0
       0       0       0       0       0       0       0       0
       0       0       0       0       0       0       0       0
       0       0       0       0       0       0       0       0
       0       0       0       0       0       0       0       0
       0       0       0       0       0       0       0       0
       0       0       0       0       0       0       0       0
       0       0       0       0       0       0       0       0
       0       0       0       0       0       0       0       0
       0       0       0       0       0       0       0       0
       0       0       0       0       0       0       0       0
       0       0       0       0       0       0       0       0
       0       0       0       0       0       0       0       0
       0       0       0       0       0       0       0       0
       0       0       0       0       0       0       0       0
       0       0       0       0       0       0       0       0
       0       0       0       0       0       0       0       0
       0       0       0       0       0       0       0       0
       0       0       0       0       0       0       0       0
       0       0       0       0       0       0       0       0
       0       0       0       0       0       0       0       0
       0       0       0       0       0       0       0       0
       0       0       0       0       0       0       0       0
       0       0       0       0       0       0       0       0
       0       0       0       0       0       0       0       0
       0       0       0       0       0       0       0       0
       0       0       0       0       0       0       0       0
       0       0       0       0       0       0       0       0
       0       0       0       0       0       0       0       0
       0       0       0       0       0       0       0       0
       0       0       0       0       0       0       0       0
       0       0       0       0       0       0       0       0
       0       0       0       0       0       0       0       0
       0       0       0       0       0       0       0       0
       0       0       0       0       0       0       0       0
       0       0       0       0       0       0       0       0
       0       0       0       0       0       0       0       0
       0       0       0       0       0       0       0       0
       0       0       0       0       0       0       0       0
       0       0       0       0       0       0       0       0
       0       0       0       0       0       0       0       0
       0       0       0       0       0       0       0       0
       0       0       0       0       0       0       0       0
       0       0       0       0       0       0       0       0
       0       0       0       0       0       0       0       0
       0       0       0       0       0       0       0       0
       0       0       0       0       0       0       0       0
       0       0       0       0       0       0       0       0
       0       0       0       0       0       0       0       0
       0       0       0       0       0       0       0       0
       0       0       0       0       0       0       0       0
       0       0       0       0       0       0       0       0
       0       0       0       0       0       0       0       0
       0       0       0       0       0       0       0       0
       0       0       0       0       0       0       0       0
       0       0       0       0       0       0       0       0
       0       0       0       0       0       0       0       0
       0       0       0       0       0       0       0       0
       0       0       0       0       0       0       0       0
       0       0       0       0       0       0       0       0
       0       0       0       0       0       0       0       0
       0       0       0       0       0       0       0       0
       0       0       0       0       0       0       0       0
       0       0       0       0       0       0       0       0
       0       0       0       0       0       0       0       0
       0       0       0       0       0       0       0       0
       0       0       0       0       0       0       0       0
       0       0       0       0       0       0       0       0
       0       0       0       0       0       0       0       0
       0       0       0       0       0       0       0       0
       0       0       0       0       0       0       0       0
       0       0       0       0       0       0       0       0
       0       0       0       0       0       0       0       0
       0       0       0       0       0       0       0       0
       0       0       0       0       0       0       0       0
       0       0       0       0       0       0       0       0
       0       0       0       0       0       0       0       0
       0       0       0       0       0       0       0       0
       0       0       0       0       0       0       0       0
       0       0       0       0       0       0       0       0
       0       0       0       0       0       0       0       0
       0       0       0       0       0       0       0       0
       0       0       0       0       0       0       0       0
       0       0       0       0       0       0       0       0
       0       0       0       0       0       0       0       0
       0       0       0       0       0       0       0       0
       0       0       0       0       0       0       0       0
       0       0       0       0       0       0       0       0
       0       0       0       0       0       0       0       0
       0       0       0       0       0       0       0       0
       0       0       0       0       0       0       0       0
       0       0       0       0       0       0       0       0
       0       0       0       0       0       0       0       0
       0       0       0       0       0       0       0       0
       0       0       0       0       0       0       0       0
       0       0       0       0       0       0       0       0
       0       0       0       0       0       0       0       0
       0       0       0       0       0       0       0       0
       0       0       0       0       0       0       0       0
       0       0       0       0       0       0       0       0
       0       0       0       0       0       0       0       0
       0       0       0       0       0       0       0       0
       0       0       0       0       0       0       0       0
       0       0       0       0       0       0       0       0
       0       0       0       0       0       0       0       0
       0       0       0       0       0       0       0       0
       0       0       0       0       0       0       0       0
       0       0       0       0       0       0       0       0
       0       0       0       0       0       0       0       0
       0       0       0       0       0       0       0       0
       0       0       0       0       0       0       0       0
       0       0       0       0       0       0       0       0
       0       0       0       0       0       0       0       0
       0       0       0       0       0       0       0       0
       0       0       0       0       0       0       0       0
       0       0       0       0       0       0       0       0
       0       0       0       0       0       0       0       0
       0       0       0       0       0       0       0       0
       0       0       0       0       0       0       0       0
       0       0       0       0       0       0       0       0
       0       0       0       0       0       0       0       0
       0       0       0       0       0       0       0       0
       0       0       0       0       0       0       0       0
       0       0       0       0       0       0       0       0
       0       0       0       0       0       0       0       0
       0       0       0       0       0       0       0       0
       0       0       0       0       0       0       0       0
       0       0       0       0       0       0       0       0
       0       0       0       0       0       0       0       0
       0       0       0       0       0       0       0       0
       0       0       0       0       0       0       0       0
       0       0       0       0       0       0       0       0
       0       0       0       0       0       0       0       0
       0       0       0       0       0       0       0       0
       0       0       0       0       0       0       0       0
       0       0       0       0       0       0       0       0
       0       0       0       0       0       0       0       0
       0       0       0       0       0       0       0       0
       0       0       0       0       0       0       0       0
       0       0       0       0       0       0       0       0
       0       0       0       0       0       0       0       0
       0       0       0       0       0       0       0       0
       0       0       0       0       0       0       0       0
       0       0       0       0       0       0       0       0
       0       0       0       0       0       0       0       0
       0       0       0       0       0       0       0       0
       0       0       0       0       0       0       0       0
       0       0       0       0       0       0       0       0
       0       0       0       0       0       0       0       0
       0       0       0       0       0       0       0       0
       0       0       0       0       0       0       0       0
       0       0       0       0       0       0       0       0
       0       0       0       0       0       0       0       0
       0       0       0       0       0       0       0       0
       0       0       0       0       0       0       0       0
       0       0       0       0       0       0       0       0
       0       0       0       0       0       0       0       0
       0       0       0       0       0       0       0       0
       0       0       0       0       0       0       0       0
       0       0       0       0       0       0       0       0
       0       0       0       0       0       0       0       0
       0       0       0       0       0       0       0       0
       0       0       0       0       0       0       0       0
       0       0       0       0       0       0       0       0
       0       0       0       0       0       0       0       0
       0       0       0       0       0       0       0       0
       0       0       0       0       0       0       0       0
       0       0       0       0       0       0       0       0
       0       0       0       0       0       0       0       0
       0       0       0       0       0       0       0       0
       0       0       0       0       0       0       0       0
       0       0       0       0       0       0       0       0
       0       0       0       0       0       0       0       0
       0       0       0       0       0       0       0       0
       0       0       0       0       0       0       0       0
       0       0       0       0       0       0       0       0
       0       0       0       0       0       0       0       0
       0       0       0       0       0       0       0       0
       0       0       0       0       0       0       0       0
       0       0       0       0       0       0       0       0
       0       0       0       0       0       0       0       0
       0       0       0       0       0       0       0       0
       0       0       0       0       0       0       0       0
       0       0       0       0       0       0       0       0
       0       0       0       0       0       0       0       0
       0       0       0       0       0       0       0       0
       0       0       0       0       0       0       0       0
       0       0       0       0       0       0       0       0
       0       0       0       0       0       0       0       0
       0       0       0       0       0       0       0       0
       0       0       0       0       0       0       0       0
       0       0       0       0       0       0       0       0
       0       0       0       0       0       0       0       0
       0       0       0       0       0       0       0       0
       0       0       0       0       0       0       0       0
       0       0       0       0       0       0       0       0
       0       0       0       0       0       0       0       0
       0       0       0       0       0       0       0       0
       0       0       0       0       0       0       0       0
       0       0       0       0       0       0       0       0
       0       0       0       0       0       0       0       0
       0       0       0       0       0       0       0       0
       0       0       0       0       0       0       0       0
       0       0       0       0       0       0       0       0
       0       0       0       0       0       0       0       0
       0       0       0       0       0       0       0       0
       0       0       0       0       0       0       0       0
       0       0       0       0       0       0       0       0
       0       0       0       0       0       0       0       0
       0       0       0       0       0       0       0       0
       0       0       0       0       0       0       0       0
       0       0       0       0       0       0       0       0
       0       0       0       0       0       0       0       0
       0       0       0       0       0       0       0       0
       0       0       0       0       0       0       0       0
       0       0       0       0       0       0       0       0
       0       0       0       0       0       0       0       0
       0       0       0       0       0       0       0       0
       0       0       0       0       0       0       0       0
       0       0       0       0       0       0       0       0
       0       0       0       0       0       0       0       0
       0       0       0       0       0       0       0       0
       0       0       0       0       0       0       0       0
       0       0       0       0       0       0       0       0
       0       0       0       0       0       0       0       0
       0       0       0       0       0       0       0       0
       0       0       0       0       0       0       0       0
       0       0       0       0       0       0       0       0
       0       0       0       0       0       0       0       0
       0       0       0       0       0       0       0       0
       0       0       0       0       0       0       0       0
       0       0       0       0       0       0       0       0
       0       0       0       0       0       0       0       0
       0       0       0       0       0       0       0       0
       0       0       0       0       0       0       0       0
       0       0       0       0       0       0       0       0
       0       0       0       0       0       0       0       0
       0       0       0       0       0       0       0       0
       0       0       0       0       0       0       0       0
       0       0       0       0       0       0       0       0
       0       0       0       0       0       0       0       0
       0       0       0       0       0       0       0       0
       0       0       0       0       0       0       0       0
       0       0       0       0       0       0       0       0
       0       0       0       0       0       0       0       0
       0       0       0       0       0       0       0       0
       0       0       0       0       0       0       0       0
       0       0       0       0       0       0       0       0
       0       0       0       0       0       0       0       0
       0       0       0       0       0       0       0       0
       0       0       0       0       0       0       0       0
       0       0       0       0       0       0       0       0
       0       0       0       0       0       0       0       0
       0       0       0       0       0       0       0       0
       0       0       0       0       0       0       0       0
       0       0       0       0       0       0       0       0
       0       0       0       0       0       0       0       0
       0       0       0       0       0       0       0       0
       0       0       0       0       0       0       0       0
       0       0       0       0       0       0       0       0
       0       0       0       0       0       0       0       0
       0       0       0       0       0       0       0       0
       0       0       0       0       0       0       0       0
       0       0       0       0       0       0       0       0
       0       0       0       0       0       0       0       0
       0       0       0       0       0       0       0       0
       0       0       0       0       0       0       0       0
       0       0       0       0       0       0       0       0
       0       0       0       0       0       0       0       0
       0       0       0       0       0       0       0       0
       0       0       0       0       0       0       0       0
       0       0       0       0       0       0       0       0
       0       0       0       0       0       0       0       0
       0       0       0       0       0       0       0       0
       0       0       0       0       0       0       0       0
       0       0       0       0       0       0       0       0
       0       0       0       0       0       0       0       0
       0       0       0       0       0       0       0       0
       0       0       0       0       0       0       0       0
       0       0       0       0       0       0       0       0
       0       0       0       0       0       0       0       0
       0       0       0       0       0       0       0       0
       0       0       0       0       0       0       0       0
       0       0       0       0       0       0       0       0
       0       0       0       0       0       0       0       0
       0       0       0       0       0       0       0       0
       0       0       0       0       0       0       0       0
       0       0       0       0       0       0       0       0
       0       0       0       0       0       0       0       0
       0       0       0       0       0       0       0       0
       0       0       0       0       0       0       0       0
       0       0       0       0       0       0       0       0
       0       0       0       0       0       0       0       0
       0       0       0       0       0       0       0       0
       0       0       0       0       0       0       0       0
       0       0       0       0       0       0       0       0
       0       0       0       0       0       0       0       0
       0       0       0       0       0       0       0       0
       0       0       0       0       0       0       0       0
       0       0       0       0       0       0       0       0
       0       0       0       0       0       0       0       0
       0       0       0       0       0       0       0       0
       0       0       0       0       0       0       0       0
       0       0       0       0       0       0       0       0
       0       0       0       0       0       0       0       0
       0       0       0       0       0       0       0       0
       0       0       0       0       0       0       0       0
       0       0       0       0       0       0       0       0
       0       0       0       0       0       0       0       0
       0       0       0       0       0       0       0       0
       0       0       0       0       0       0       0       0
       0       0       0       0       0       0       0       0
       0       0       0       0       0       0       0       0
       0       0       0       0       0       0       0       0
       0       0       0       0       0       0       0       0
       0       0       0       0       0       0       0       0
       0       0       0       0       0       0       0       0
       0       0       0       0       0       0       0       0
       0       0       0       0       0       0       0       0
       0       0       0       0       0       0       0       0
       0       0       0       0       0       0       0       0
       0       0       0       0       0       0       0       0
       0       0       0       0       0       0       0       0
       0       0       0       0       0       0       0       0
       0       0       0       0       0       0       0       0
       0       0       0       0       0       0       0       0
       0       0       0       0       0       0       0       0
       0       0       0       0       0       0       0       0
       0       0       0       0       0       0       0       0
       0       0       0       0       0       0       0       0
       0       0       0       0       0       0       0       0
       0       0       0       0       0       0       0       0
       0       0       0       0       0       0       0       0
       0       0       0       0       0       0       0       0
       0       0       0       0       0       0       0       0
       0       0       0       0       0       0       0       0
       0       0       0       0       0       0       0       0
       0       0       0       0       0       0       0       0
       0       0       0       0       0       0       0       0
       0       0       0       0       0       0       0       0
       0       0       0       0       0       0       0       0
       0       0       0       0       0       0       0       0
       0       0       0       0       0       0       0       0
       0       0       0       0       0       0       0       0
       0       0       0       0       0       0       0       0
       0       0       0       0       0       0       0       0
       0       0       0       0       0       0       0       0
       0       0       0       0       0       0       0       0
       0       0       0       0       0       0       0       0
       0       0       0       0       0       0       0       0
       0       0       0       0       0       0       0       0
       0       0       0       0       0       0       0       0
       0       0       0       0       0       0       0       0
       0       0       0       0       0       0       0       0
       0       0       0       0       0       0       0       0
       0       0       0       0       0       0       0       0
       0       0       0       0       0       0       0       0
       0       0       0       0       0       0       0       0
       0       0       0       0       0       0       0       0
       0       0       0       0       0       0       0       0
       0       0       0       0       0       0       0       0
       0       0       0       0       0       0       0       0
       0       0       0       0       0       0       0       0
       0       0       0       0       0       0       0       0
       0       0       0       0       0       0       0       0
       0       0       0       0       0       0       0       0
       0       0       0       0       0       0       0       0
       0       0       0       0       0       0       0       0
       0       0       0       0       0       0       0       0
       0       0       0       0       0       0       0       0
       0       0       0       0       0       0       0       0
       0       0       0       0       0       0       0       0
       0       0       0       0       0       0       0       0
       0       0       0       0       0       0       0       0
       0       0       0       0       0       0       0       0
       0       0       0       0       0       0       0       0
       0       0       0       0       0       0       0       0
       0       0       0       0       0       0       0       0
       0       0       0       0       0       0       0       0
       0       0       0       0       0       0       0       0
       0       0       0       0       0       0       0       0
       0       0       0       0       0       0       0       0
       0       0       0       0       0       0       0       0
       0       0       0       0       0       0       0       0
       0       0       0       0       0       0       0       0
       0       0       0       0       0       0       0       0
       0       0       0       0       0       0       0       0
       0       0       0       0       0       0       0       0
       0       0       0       0       0       0       0       0
       0       0       0       0       0       0       0       0
       0       0       0       0       0       0       0       0
       0       0       0       0       0       0       0       0
       0       0       0       0       0       0       0       0
       0       0       0       0       0       0       0       0
       0       0       0       0       0       0       0       0
       0       0       0       0       0       0       0       0
       0       0       0       0       0       0       0       0
       0       0       0       0       0       0       0       0
       0       0       0       0       0       0       0       0
       0       0       0       0       0       0       0       0
       0       0       0       0       0       0       0       0
       0       0       0       0       0       0       0       0
       0       0       0       0       0       0       0       0
       0       0       0       0       0       0       0       0
       0       0       0       0       0       0       0       0
       0       0       0       0       0       0       0       0
       0       0       0       0       0       0       0       0
       0       0       0       0       0       0       0       0
       0       0       0       0       0       0       0       0
       0       0       0       0       0       0       0       0
       0       0       0       0       0       0       0       0
       0       0       0       0       0       0       0       0
       0       0       0       0       0       0       0       0
       0       0       0       0       0       0       0       0
       0       0       0       0       0       0       0       0
       0       0       0       0       0       0       0       0
       0       0       0       0       0       0       0       0
       0       0       0       0       0       0       0       0
       0       0       0       0       0       0       0       0
       0       0       0       0       0       0       0       0
       0       0       0       0       0       0       0       0
       0       0       0       0       0       0       0       0
       0       0       0       0       0       0       0       0
       0       0       0       0       0       0       0       0
       0       0       0       0       0       0       0       0
       0       0       0       0       0       0       0       0
       0       0       0       0       0       0       0       0
       0       0       0       0       0       0       0       0
       0       0       0       0       0       0       0       0
       0       0       0       0       0       0       0       0
       0       0       0       0       0       0       0       0
       0       0       0       0       0       0       0       0
       0       0       0       0       0       0       0       0
       0       0       0       0       0       0       0       0
       0       0       0       0       0       0       0       0
       0       0       0       0       0       0       0       0
       0       0       0       0       0       0       0       0
       0       0       0       0       0       0       0       0
       0       0       0       0       0       0       0       0
       0       0       0       0       0       0       0       0
       0       0       0       0       0       0       0       0
       0       0       0       0       0       0       0       0
       0       0       0       0       0       0       0       0
       0       0       0       0       0       0       0       0
       0       0       0       0       0       0       0       0
       0       0       0       0       0       0       0       0
       0       0       0       0       0       0       0       0
       0       0       0       0       0       0       0       0
       0       0       0       0       0       0       0       0
       0       0       0       0       0       0       0       0
       0       0       0       0       0       0       0       0
       0       0       0       0       0       0       0       0
       0       0       0       0       0       0       0       0
       0       0       0       0       0       0       0       0
       0       0       0       0       0       0       0       0
       0       0       0       0       0       0       0       0
       0       0       0       0       0       0       0       0
       0       0       0       0       0       0       0       0
       0       0       0       0       0       0       0       0
       0       0       0       0       0       0       0       0
       0       0       0       0       0       0       0       0
       0       0       0       0       0       0       0       0
       0       0       0       0       0       0       0       0
       0       0       0       0       0       0       0       0
       0       0       0       0       0       0       0       0
       0       0       0       0       0       0       0       0
       0       0       0       0       0       0       0       0
       0       0       0       0       0       0       0       0
       0       0       0       0       0       0       0       0
       0       0       0       0       0       0       0       0
       0       0       0       0       0       0       0       0
       0       0       0       0       0       0       0       0
       0       0       0       0       0       0       0       0
       0       0       0       0       0       0       0       0
       0       0       0       0       0       0       0       0
       0       0       0       0       0       0       0       0
       0       0       0       0       0       0       0       0
       0       0       0       0       0       0       0       0
       0       0       0       0       0       0       0       0
       0       0       0       0       0       0       0       0
       0       0       0       0       0       0       0       0
       0       0       0       0       0       0       0       0
       0       0       0       0       0       0       0       0
       0       0       0       0       0       0       0       0
       0       0       0       0       0       0       0       0
       0       0       0       0       0       0       0       0
       0       0       0       0       0       0       0       0
       0       0       0       0       0       0       0       0
       0       0       0       0       0       0       0       0
       0       0       0       0       0       0       0       0
       0       0       0       0       0       0       0       0
       0       0       0       0       0       0       0       0
       0       0       0       0       0       0       0       0
       0       0       0       0       0       0       0       0
       0       0       0       0       0       0       0       0
       0       0       0       0       0       0       0       0
       0       0       0       0       0       0       0       0
       0       0       0       0       0       0       0       0
       0       0       0       0       0       0       0       0
       0       0       0       0       0       0       0       0
       0       0       0       0       0       0       0       0
       0       0       0       0       0       0       0       0
       0       0       0       0       0       0       0       0
       0       0       0       0       0       0       0       0
       0       0       0       0       0       0       0       0
       0       0       0       0       0       0       0       0
       0       0       0       0       0       0       0       0
       0       0       0       0       0       0       0       0
       0       0       0       0       0       0       0       0
       0       0       0       0       0       0       0       0
       0       0       0       0       0       0       0       0
       0       0       0       0       0       0       0       0
       0       0       0       0       0       0       0       0
       0       0       0       0       0       0       0       0
       0       0       0       0       0       0       0       0
       0       0       0       0       0       0       0       0
       0       0       0       0       0       0       0       0
       0       0       0       0       0       0       0       0
       0       0       0       0       0       0       0       0
       0       0       0       0       0       0       0       0
       0       0       0       0       0       0       0       0
       0       0       0       0       0       0       0       0
       0       0       0       0       0       0       0       0
       0       0       0       0       0       0       0       0
       0       0       0       0       0       0       0       0
       0       0       0       0       0       0       0       0
       0       0       0       0       0       0       0       0
       0       0       0       0       0       0       0       0
       0       0       0       0       0       0       0       0
       0       0       0       0       0       0       0       0
       0       0       0       0       0       0       0       0
       0       0       0       0       0       0       0       0
       0       0       0       0       0       0       0       0
       0       0       0       0       0       0       0       0
       0       0       0       0       0       0       0       0
       0       0       0       0       0       0       0       0
       0       0       0       0       0       0       0       0
       0       0       0       0       0       0       0       0
       0       0       0       0       0       0       0       0
       0       0       0       0       0       0       0       0
       0       0       0       0       0       0       0       0
       0       0       0       0       0       0       0       0
       0       0       0       0       0       0       0       0
       0       0       0       0       0       0       0       0
       0       0       0       0       0       0       0       0
       0       0       0       0       0       0       0       0
       0       0       0       0       0       0       0       0
       0       0       0       0       0       0       0       0
       0       0       0       0       0       0       0       0
       0       0       0       0       0       0       0       0
       0       0       0       0       0       0       0       0
       0       0       0       0       0       0       0       0
       0       0       0       0       0       0       0       0
       0       0       0       0       0       0       0       0
       0       0       0       0       0       0       0       0
       0       0       0       0       0       0       0       0
       0       0       0       0       0       0       0       0
       0       0       0       0       0       0       0       0
       0       0       0       0       0       0       0       0
       0       0       0       0       0       0       0       0
       0       0       0       0       0       0       0       0
       0       0       0       0       0       0       0       0
       0       0       0       0       0       0       0       0
       0       0       0       0       0       0       0       0
       0       0       0       0       0       0       0       0
       0       0       0       0       0       0       0       0
       0       0       0       0       0       0       0       0
       0       0       0       0       0       0       0       0
       0       0       0       0       0       0       0       0
       0       0       0       0       0       0       0       0
       0       0       0       0       0       0       0       0
       0       0       0       0       0       0       0       0
       0       0       0       0       0       0       0       0
       0       0       0       0       0       0       0       0
       0       0       0       0       0       0       0       0
       0       0       0       0       0       0       0       0
       0       0       0       0       0       0       0       0
       0       0       0       0       0       0       0       0
       0       0       0       0       0       0       0       0
       0       0       0       0       0       0       0       0
       0       0       0       0       0       0       0       0
       0       0       0       0       0       0       0       0
       0       0       0       0       0       0       0       0
       0       0       0       0       0       0       0       0
       0       0       0       0       0       0       0       0
       0       0       0       0       0       0       0       0
       0       0       0       0       0       0       0       0
       0       0       0       0       0       0       0       0
       0       0       0       0       0       0       0       0
       0       0       0       0       0       0       0       0
       0       0       0       0       0       0       0       0
       0       0       0       0       0       0       0       0
       0       0       0       0       0       0       0       0
       0       0       0       0       0       0       0       0
       0       0       0       0       0       0       0       0
       0       0       0       0       0       0       0       0
       0       0       0       0       0       0       0       0
       0       0       0       0       0       0       0       0
       0       0       0       0       0       0       0       0
       0       0       0       0       0       0       0       0
       0       0       0       0       0       0       0       0
       0       0       0       0       0       0       0       0
       0       0       0       0       0       0       0       0
       0       0       0       0       0       0       0       0
       0       0       0       0       0       0       0       0
       0       0       0       0       0       0       0       0
       0       0       0       0       0       0       0       0
       0       0       0       0       0       0       0       0
       0       0       0       0       0       0       0       0
       0       0       0       0       0       0       0       0
       0       0       0       0       0       0       0       0
       0       0       0       0       0       0       0       0
       0       0       0       0       0       0       0       0
       0       0       0       0       0       0       0       0
       0       0       0       0       0       0       0       0
       0       0       0       0       0       0       0       0
       0       0       0       0       0       0       0       0
       0       0       0       0       0       0       0       0
       0       0       0       0       0       0       0       0
       0       0       0       0       0       0       0       0
       0       0       0       0       0       0       0       0
       0       0       0       0       0       0       0       0
       0       0       0       0       0       0       0       0
       0       0       0       0       0       0       0       0
       0       0       0       0       0       0       0       0
       0       0       0       0       0       0       0       0
       0       0       0       0       0       0       0       0
       0       0       0       0       0       0       0       0
       0       0       0       0       0       0       0       0
       0       0       0       0       0       0       0       0
       0       0       0       0       0       0       0       0
       0       0       0       0       0       0       0       0
       0       0       0       0       0       0       0       0
       0       0       0       0       0       0       0       0
       0       0       0       0       0       0       0       0
       0       0       0       0       0       0       0       0
       0       0       0       0       0       0       0       0
       0       0       0       0       0       0       0       0
       0       0       0       0       0       0       0       0
       0       0       0       0       0       0       0       0
       0       0       0       0       0       0       0       0
       0       0       0       0       0       0       0       0
       0       0       0       0       0       0       0       0
       0       0       0       0       0       0       0       0
       0       0       0       0       0       0       0       0
       0       0       0       0       0       0       0       0
       0       0       0       0       0       0       0       0
       0       0       0       0       0       0       0       0
       0       0       0       0       0       0       0       0
       0       0       0       0       0       0       0       0
       0       0       0       0       0       0       0       0
       0       0       0       0       0       0       0       0
       0       0       0       0       0       0       0       0
       0       0       0       0       0       0       0       0
       0       0       0       0       0       0       0       0
       0       0       0       0       0       0       0       0
       0       0       0       0       0       0       0       0
       0       0       0       0       0       0       0       0
       0       0       0       0       0       0       0       0
       0       0       0       0       0       0       0       0
       0       0       0       0       0       0       0       0
       0       0       0       0       0       0       0       0
       0       0       0       0       0       0       0       0
       0       0       0       0       0       0       0       0
       0       0       0       0       0       0       0       0
       0       0       0       0       0       0       0       0
       0       0       0       0       0       0       0       0
       0       0       0       0       0       0       0       0
       0       0       0       0       0       0       0       0
       0       0       0       0       0       0       0       0
       0       0       0       0       0       0       0       0
       0       0       0       0       0       0       0       0
       0       0       0       0       0       0       0       0
       0       0       0       0       0       0       0       0
       0       0       0       0       0       0       0       0
       0       0       0       0       0       0       0       0
       0       0       0       0       0       0       0       0
       0       0       0       0       0       0       0       0
       0       0       0       0       0       0       0       0
       0       0       0       0       0       0       0       0
       0       0       0       0       0       0       0       0
       0       0       0       0       0       0       0       0
       0       0       0       0       0       0       0       0
       0       0       0       0       0       0       0       0
       0       0       0       0       0       0       0       0
       0       0       0       0       0       0       0       0
       0       0       0       0       0       0       0       0
       0       0       0       0       0       0       0       0
       0       0       0       0       0       0       0       0
       0       0       0       0       0       0       0       0
       0       0       0       0       0       0       0       0
       0       0       0       0       0       0       0       0
       0       0       0       0       0       0       0       0
       0       0       0       0       0       0       0       0
       0       0       0       0       0       0       0       0
       0       0       0       0       0       0       0       0
       0       0       0       0       0       0       0       0
       0       0       0       0       0       0       0       0
       0       0       0       0       0       0       0       0
       0       0       0       0       0       0       0       0
       0       0       0       0       0       0       0       0
       0       0       0       0       0       0       0       0
       0       0       0       0       0       0       0       0
       0       0       0       0       0       0       0       0
       0       0       0       0       0       0       0       0
       0       0       0       0       0       0       0       0
       0       0       0       0       0       0       0       0
       0       0       0       0       0       0       0       0
       0       0       0       0       0       0       0       0
       0       0       0       0       0       0       0       0
       0       0       0       0       0       0       0       0
       0       0       0       0       0       0       0       0
       0       0       0       0       0       0       0       0
       0       0       0       0       0       0       0       0
       0       0       0       0       0       0       0       0
       0       0       0       0       0       0       0       0
       0       0       0       0       0       0       0       0
       0       0       0       0       0       0       0       0
       0       0       0       0       0       0       0       0
       0       0       0       0       0       0       0       0
       0       0       0       0       0       0       0       0
       0       0       0       0       0       0       0       0
       0       0       0       0       0       0       0       0
       0       0       0       0       0       0       0       0
       0       0       0       0       0       0       0       0
       0       0       0       0       0       0       0       0
       0       0       0       0       0       0       0       0
       0       0       0       0       0       0       0       0
       0       0       0       0       0       0       0       0
       0       0       0       0       0       0       0       0
       0       0       0       0       0       0       0       0
       0       0       0       0       0       0       0       0
       0       0       0       0       0       0       0       0
       0       0       0       0       0       0       0       0
       0       0       0       0       0       0       0       0
       0       0       0       0       0       0       0       0
       0       0       0       0       0       0       0       0
       0       0       0       0       0       0       0       0
       0       0       0       0       0       0       0       0
       0       0       0       0       0       0       0       0
       0       0       0       0       0       0       0       0
       0       0       0       0       0       0       0       0
       0       0       0       0       0       0       0       0
       0       0       0       0       0       0       0       0
       0       0       0       0       0       0       0       0
       0       0       0       0       0       0       0       0
       0       0       0       0       0       0       0       0
       0       0       0       0       0       0       0       0
       0       0       0       0       0       0       0       0
       0       0       0       0       0       0       0       0
       0       0       0       0       0       0       0       0
       0       0       0       0       0       0       0       0
       0       0       0       0       0       0       0       0
       0       0       0       0       0       0       0       0
       0       0       0       0       0       0       0       0
       0       0       0       0       0       0       0       0
       0       0       0       0       0       0       0       0
       0       0       0       0       0       0       0       0
       0       0       0       0       0       0       0       0
       0       0       0       0       0       0       0       0
       0       0       0       0       0       0       0       0
       0       0       0       0       0       0       0       0
       0       0       0       0       0       0       0       0
       0       0       0       0       0       0       0       0
       0       0       0       0       0       0       0       0
       0       0       0       0       0       0       0       0
       0       0       0       0       0       0       0       0
       0       0       0       0       0       0       0       0
       0       0       0       0       0       0       0       0
       0       0       0       0       0       0       0       0
       0       0       0       0       0       0       0       0
       0       0       0       0       0       0       0       0
       0       0       0       0       0       0       0       0
       0       0       0       0       0       0       0       0
       0       0       0       0       0       0       0       0
       0       0       0       0       0       0       0       0
       0       0       0       0       0       0       0       0
       0       0       0       0       0       0       0       0
       0       0       0       0       0       0       0       0
       0       0       0       0       0       0       0       0
       0       0       0       0       0       0       0       0
       0       0       0       0       0       0       0       0
       0       0       0       0       0       0       0       0
       0       0       0       0       0       0       0       0
       0       0       0       0       0       0       0       0
       0       0       0       0       0       0       0       0
       0       0       0       0       0       0       0       0
       0       0       0       0       0       0       0       0
       0       0       0       0       0       0       0       0
       0       0       0       0       0       0       0       0
       0       0       0       0       0       0       0       0
       0       0       0       0       0       0       0       0
       0       0       0       0       0       0       0       0
       0       0       0       0       0       0       0       0
       0       0       0       0       0       0       0       0
       0       0       0       0       0       0       0       0
       0       0       0       0       0       0       0       0
       0       0       0       0       0       0       0       0
       0       0       0       0       0       0       0       0
       0       0       0       0       0       0       0       0
       0       0       0       0       0       0       0       0
       0       0       0       0       0       0       0       0
       0       0       0       0       0       0       0       0
       0       0       0       0       0       0       0       0
       0       0       0       0       0       0       0       0
       0       0       0       0       0       0       0       0
       0       0       0       0       0       0       0       0
       0       0       0       0       0       0       0       0
       0       0       0       0       0       0       0       0
       0       0       0       0       0       0       0       0
       0       0       0       0       0       0       0       0
       0       0       0       0       0       0       0       0
       0       0       0       0       0       0       0       0
       0       0       0       0       0       0       0       0
       0       0       0       0       0       0       0       0
       0       0       0       0       0       0       0       0
       0       0       0       0       0       0       0       0
       0       0       0       0       0       0       0       0
       0       0       0       0       0       0       0       0
       0       0       0       0       0       0       0       0
       0       0       0       0       0       0       0       0
       0       0       0       0       0       0       0       0
       0       0       0       0       0       0       0       0
       0       0       0       0       0       0       0       0
       0       0       0       0       0       0       0       0
       0       0       0       0       0       0       0       0
       0       0       0       0       0       0       0       0
       0       0       0       0       0       0       0       0
       0       0       0       0       0       0       0       0
       0       0       0       0       0       0       0       0
       0       0       0       0       0       0       0       0
       0       0       0       0       0       0       0       0
       0       0       0       0       0       0       0       0
       0       0       0       0       0       0       0       0
       0       0       0       0       0       0       0       0
       0       0       0       0       0       0       0       0
       0       0       0       0       0       0       0       0
       0       0       0       0       0       0       0       0
       0       0       0       0       0       0       0       0
       0       0       0       0       0       0       0       0
       0       0       0       0       0       0       0       0
       0       0       0       0       0       0       0       0
       0       0       0       0       0       0       0       0
       0       0       0       0       0       0       0       0
       0       0       0       0       0       0       0       0
       0       0       0       0       0       0       0       0
       0       0       0       0       0       0       0       0
       0       0       0       0       0       0       0       0
       0       0       0       0       0       0       0       0
       0       0       0       0       0       0       0       0
       0       0       0       0       0       0       0       0
       0       0       0       0       0       0       0       0
       0       0       0       0       0       0       0       0
       0       0       0       0       0       0       0       0
       0       0       0       0       0       0       0       0
       0       0       0       0       0       0       0       0
       0       0       0       0       0       0       0       0
       0       0       0       0       0       0       0       0
       0       0       0       0       0       0       0       0
       0       0       0       0       0       0       0       0
       0       0       0       0       0       0       0       0
       0       0       0       0       0       0       0       0
       0       0       0       0       0       0       0       0
       0       0       0       0       0       0       0       0
       0       0       0       0       0       0       0       0
       0       0       0       0       0       0       0       0
       0       0       0       0       0       0       0       0
       0       0       0       0       0       0       0       0
       0       0       0       0       0       0       0       0
       0       0       0       0       0       0       0       0
       0       0       0       0       0       0       0       0
       0       0       0       0       0       0       0       0
       0       0       0       0       0       0       0       0
       0       0       0       0       0       0       0       0
       0       0       0       0       0       0       0       0
       0       0       0       0       0       0       0       0
       0       0       0       0       0       0       0       0
       0       0       0       0       0       0       0       0
       0       0       0       0       0       0       0       0
       0       0       0       0       0       0       0       0
       0       0       0       0       0       0       0       0
       0       0       0       0       0       0       0       0
       0       0       0       0       0       0       0       0
       0       0       0       0       0       0       0       0
       0       0       0       0       0       0       0       0
       0       0       0       0       0       0       0       0
       0       0       0       0       0       0       0       0
       0       0       0       0       0       0       0       0
       0       0       0       0       0       0       0       0
       0       0       0       0       0       0       0       0
       0       0       0       0       0       0       0       0
       0       0       0       0       0       0       0       0
       0       0       0       0       0       0       0       0
       0       0       0       0       0       0       0       0
       0       0       0       0       0       0       0       0
       0       0       0       0       0       0       0       0
       0       0       0       0       0       0       0       0
       0       0       0       0       0       0       0       0
       0       0       0       0       0       0       0       0
       0       0       0       0       0       0       0       0
       0       0       0       0       0       0       0       0
       0       0       0       0       0       0       0       0
       0       0       0       0       0       0       0       0
       0       0       0       0       0       0       0       0
       0       0       0       0       0       0       0       0
       0       0       0       0       0       0       0       0
       0       0       0       0       0       0       0       0
       0       0       0       0       0       0       0       0
       0       0       0       0       0       0       0       0
       0       0       0       0       0       0       0       0
       0       0       0       0       0       0       0       0
       0       0       0       0       0       0       0       0
       0       0       0       0       0       0       0       0
       0       0       0       0       0       0       0       0
       0       0       0       0       0       0       0       0
       0       0       0       0       0       0       0       0
       0       0       0       0       0       0       0       0
       0       0       0       0       0       0       0       0
       0       0       0       0       0       0       0       0
       0       0       0       0       0       0       0       0
       0       0       0       0       0       0       0       0
       0       0       0       0       0       0       0       0
       0       0       0       0       0       0       0       0
       0       0       0       0       0       0       0       0
       0       0       0       0       0       0       0       0
       0       0       0       0       0       0       0       0
       0       0       0       0       0       0       0       0
       0       0       0       0       0       0       0       0
       0       0       0       0       0       0       0       0
       0       0       0       0       0       0       0       0
       0       0       0       0       0       0       0       0
       0       0       0       0       0       0       0       0
       0       0       0       0       0       0       0       0
       0       0       0       0       0       0       0       0
       0       0       0       0       0       0       0       0
       0       0       0       0       0       0       0       0
       0       0       0       0       0       0       0       0
       0       0       0       0       0       0       0       0
       0       0       0       0       0       0       0       0
       0       0       0       0       0       0       0       0
       0       0       0       0       0       0       0       0
       0       0       0       0       0       0       0       0
       0       0       0       0       0       0       0       0
       0       0       0       0       0       0       0       0
       0       0       0       0       0       0       0       0
       0       0       0       0       0       0       0       0
       0       0       0       0       0       0       0       0
       0       0       0       0       0       0       0       0
       0       0       0       0       0       0       0       0
       0       0       0       0       0       0       0       0
       0       0       0       0       0       0       0       0
       0       0       0       0       0       0       0       0
       0       0       0       0       0       0       0       0
       0       0       0       0       0       0       0       0
       0       0       0       0       0       0       0       0
       0       0       0       0       0       0       0       0
       0       0       0       0       0       0       0       0
       0       0       0       0       0       0       0       0
       0       0       0       0       0       0       0       0
       0       0       0       0       0       0       0       0
       0       0       0       0       0       0       0       0
       0       0       0       0       0       0       0       0
       0       0       0       0       0       0       0       0
       0       0       0       0       0       0       0       0
       0       0       0       0       0       0       0       0
       0       0       0       0       0       0       0       0
       0       0       0       0       0       0       0       0
       0       0       0       0       0       0       0       0
       0       0       0       0       0       0       0       0
       0       0       0       0       0       0       0       0
       0       0       0       0       0       0       0       0
       0       0       0       0       0       0       0       0
       0       0       0       0       0       0       0       0
       0       0       0       0       0       0       0       0
       0       0       0       0       0       0       0       0
       0       0       0       0       0       0       0       0
       0       0       0       0       0       0       0       0
       0       0       0       0       0       0       0       0
       0       0       0       0       0       0       0       0
       0       0       0       0       0       0       0       0
       0       0       0       0       0       0       0       0
       0       0       0       0       0       0       0       0
       0       0       0       0       0       0       0       0
       0       0       0       0       0       0       0       0
       0       0       0       0       0       0       0       0
       0       0       0       0       0       0       0       0
       0       0       0       0       0       0       0       0
       0       0       0       0       0       0       0       0
       0       0       0       0       0       0       0       0
       0       0       0       0       0       0       0       0
       0       0       0       0       0       0       0       0
       0       0       0       0       0       0       0       0
       0       0       0       0       0       0       0       0
       0       0       0       0       0       0       0       0
       0       0       0       0       0       0       0       0
       0       0       0       0       0       0       0       0
       0       0       0       0       0       0       0       0
       0       0       0       0       0       0       0       0
       0       0       0       0       0       0       0       0
       0       0       0       0       0       0       0       0
       0       0       0       0       0       0       0       0
       0       0       0       0       0       0       0       0
       0       0       0       0       0       0       0       0
       0       0       0       0       0       0       0       0
       0       0       0       0       0       0       0       0
       0       0       0       0       0       0       0       0
       0       0       0       0       0       0       0       0
       0       0       0       0       0       0       0       0
       0       0       0       0       0       0       0       0
       0       0       0       0       0       0       0       0
       0       0       0       0       0       0       0       0
       0       0       0       0       0       0       0       0
       0       0       0       0       0       0       0       0
       0       0       0       0       0       0       0       0
       0       0       0       0       0       0       0       0
       0       0       0       0       0       0       0       0
       0       0       0       0       0       0       0       0
       0       0       0       0       0       0       0       0
       0       0       0       0       0       0       0       0
       0       0       0       0       0       0       0       0
       0       0       0       0       0       0       0       0
       0       0       0       0       0       0       0       0
       0       0       0       0       0       0       0       0
       0       0       0       0       0       0       0       0
       0       0       0       0       0       0       0       0
       0       0       0       0       0       0       0       0
       0       0       0       0       0       0       0       0
       0       0       0       0       0       0       0       0
       0       0       0       0       0       0       0       0
       0       0       0       0       0       0       0       0
       0       0       0       0       0       0       0       0
       0       0       0       0       0       0       0       0
       0       0       0       0       0       0       0       0
       0       0       0       0       0       0       0       0
       0       0       0       0       0       0       0       0
       0       0       0       0       0       0       0       0
       0       0       0       0       0       0       0       0
       0       0       0       0       0       0       0       0
       0       0       0       0       0       0       0       0
       0       0       0       0       0       0       0       0
       0       0       0       0       0       0       0       0
       0       0       0       0       0       0       0       0
       0       0       0       0       0       0       0       0
       0       0       0       0       0       0       0       0
       0       0       0       0       0       0       0       0
       0       0       0       0       0       0       0       0
       0       0       0       0       0       0       0       0
       0       0       0       0       0       0       0       0
       0       0       0       0       0       0       0       0
       0       0       0       0       0       0       0       0
       0       0       0       0       0       0       0       0
       0       0       0       0       0       0       0       0
       0       0       0       0       0       0       0       0
       0       0       0       0       0       0       0       0
       0       0       0       0       0       0       0       0
       0       0       0       0       0       0       0       0
       0       0       0       0       0       0       0       0
       0       0       0       0       0       0       0       0
       0       0       0       0       0       0       0       0
       0       0       0       0       0       0       0       0
       0       0       0       0       0       0       0       0
       0       0       0       0       0       0       0       0
       0       0       0       0       0       0       0       0
       0       0       0       0       0       0       0       0
       0       0       0       0       0       0       0       0
       0       0       0       0       0       0       0       0
       0       0       0       0       0       0       0       0
       0       0       0       0       0       0       0       0
       0       0       0       0       0       0       0       0
       0       0       0       0       0       0       0       0
       0       0       0       0       0       0       0       0
       0       0       0       0       0       0       0       0
       0       0       0       0       0       0       0       0
       0       0       0       0       0       0       0       0
       0       0       0       0       0       0       0       0
       0       0       0       0       0       0       0       0
       0       0       0       0       0       0       0       0
       0       0       0       0       0       0       0       0
       0       0       0       0       0       0       0       0
       0       0       0       0       0       0       0       0
       0       0       0       0       0       0       0       0
       0       0       0       0       0       0       0       0
       0       0       0       0       0       0       0       0
       0       0       0       0       0       0       0       0
       0       0       0       0       0       0       0       0
       0       0       0       0       0       0       0       0
       0       0       0       0       0       0       0       0
       0       0       0       0       0       0       0       0
       0       0       0       0       0       0       0       0
       0       0       0       0       0       0       0       0
       0       0       0       0       0       0       0       0
       0       0       0       0       0       0       0       0
       0       0       0       0       0       0       0       0
       0       0       0       0       0       0       0       0
       0       0       0       0       0       0       0       0
       0       0       0       0       0       0       0       0
       0       0       0       0       0       0       0       0
       0       0       0       0       0       0       0       0
       0       0       0       0       0       0       0       0
       0       0       0       0       0       0       0       0
       0       0       0       0       0       0       0       0
       0       0       0       0       0       0       0       0
       0       0       0       0       0       0       0       0
       0       0       0       0       0       0       0       0
       0       0       0       0       0       0       0       0
       0       0       0       0       0       0       0       0
       0       0       0       0       0       0       0       0
       0       0       0       0       0       0       0       0
       0       0       0       0       0       0       0       0
       0       0       0       0       0       0       0       0
       0       0       0       0       0       0       0       0
       0       0       0       0       0       0       0       0
       0       0       0       0       0       0       0       0
       0       0       0       0       0       0       0       0
       0       0       0       0       0       0       0       0
       0       0       0       0       0       0       0       0
       0       0       0       0       0       0       0       0
       0       0       0       0       0       0       0       0
       0       0       0       0       0       0       0       0
       0       0       0       0       0       0       0       0
       0       0       0       0       0       0       0       0
       0       0       0       0       0       0       0       0
       0       0       0       0       0       0       0       0
       0       0       0       0       0       0       0       0
       0       0       0       0       0       0       0       0
       0       0       0       0       0       0       0       0
       0       0       0       0       0       0       0       0
       0       0       0       0       0       0       0       0
       0       0       0       0       0       0       0       0
       0       0       0       0       0       0       0       0
       0       0       0       0       0       0       0       0
       0       0       0       0       0       0       0       0
       0       0       0       0       0       0       0       0
       0       0       0       0       0       0       0       0
       0       0       0       0       0       0       0       0
       0       0       0       0       0       0       0       0
       0       0       0       0       0       0       0       0
       0       0       0       0       0       0       0       0
       0       0       0       0       0       0       0       0
       0       0       0       0       0       0       0       0
       0       0       0       0       0       0       0       0
       0       0       0       0       0       0       0       0
       0       0       0       0       0       0       0       0
       0       0       0       0       0       0       0       0
       0       0       0       0       0       0       0       0
       0       0       0       0       0       0       0       0
       0       0       0       0       0       0       0       0
       0       0       0       0       0       0       0       0
       0       0       0       0       0       0       0       0
       0       0       0       0       0       0       0       0
       0       0       0       0       0       0       0       0
       0       0       0       0       0       0       0       0
       0       0       0       0       0       0       0       0
       0       0       0       0       0       0       0       0
       0       0       0       0       0       0       0       0
       0       0       0       0       0       0       0       0
       0       0       0       0       0       0       0       0
       0       0       0       0       0       0       0       0
       0       0       0       0       0       0       0       0
       0       0       0       0       0       0       0       0
       0       0       0       0       0       0       0       0
       0       0       0       0       0       0       0       0
       0       0       0       0       0       0       0       0
       0       0       0       0       0       0       0       0
       0       0       0       0       0       0       0       0
       0       0       0       0       0       0       0       0
       0       0       0       0       0       0       0       0
       0       0       0       0       0       0       0       0
       0       0       0       0       0       0       0       0
       0       0       0       0       0       0       0       0
       0       0       0       0       0       0       0       0
       0       0       0       0       0       0       0       0
       0       0       0       0       0       0       0       0
       0       0       0       0       0       0       0       0
       0       0       0       0       0       0       0       0
       0       0       0       0       0       0       0       0
       0       0       0       0       0       0       0       0
       0       0       0       0       0       0       0       0
       0       0       0       0       0       0       0       0
       0       0       0       0       0       0       0       0
       0       0       0       0       0       0       0       0
       0       0       0       0       0       0       0       0
       0       0       0       0       0       0       0       0
       0       0       0       0       0       0       0       0
       0       0       0       0       0       0       0       0
       0       0       0       0       0       0       0       0
       0       0       0       0       0       0       0       0
       0       0       0       0       0       0       0       0
       0       0       0       0       0       0       0       0
       0       0       0       0       0       0       0       0
       0       0       0       0       0       0       0       0
       0       0       0       0       0       0       0       0
       0       0       0       0       0       0       0       0
       0       0       0       0       0       0       0       0
       0       0       0       0       0       0       0       0
       0       0       0       0       0       0       0       0
       0       0       0       0       0       0       0       0
       0       0       0       0       0       0       0       0
       0       0       0       0       0       0       0       0
       0       0       0       0       0       0       0       0
       0       0       0       0       0       0       0       0
       0       0       0       0       0       0       0       0
       0       0       0       0       0       0       0       0
       0       0       0       0       0       0       0       0
       0       0       0       0       0       0       0       0
       0       0       0       0       0       0       0       0
       0       0       0       0       0       0       0       0
       0       0       0       0       0       0       0       0
       0       0       0       0       0       0       0       0
       0       0       0       0       0       0       0       0
       0       0       0       0       0       0       0       0
       0       0       0       0       0       0       0       0
       0       0       0       0       0       0       0       0
       0       0       0       0       0       0       0       0
       0       0       0       0       0       0       0       0
       0       0       0       0       0       0       0       0
       0       0       0       0       0       0       0       0
       0       0       0       0       0       0       0       0
       0       0       0       0       0       0       0       0
       0       0       0       0       0       0       0       0
       0       0       0       0       0       0       0       0
       0       0       0       0       0       0       0       0
       0       0       0       0       0       0       0       0
       0       0       0       0       0       0       0       0
       0       0       0       0       0       0       0       0
       0       0       0       0       0       0       0       0
       0       0       0       0       0       0       0       0
       0       0       0       0       0       0       0       0
       0       0       0       0       0       0       0       0
       0       0       0       0       0       0       0       0
       0       0       0       0       0       0       0       0
       0       0       0       0       0       0       0       0
       0       0       0       0       0       0       0       0
       0       0       0       0       0       0       0       0
       0       0       0       0       0       0       0       0
       0       0       0       0       0       0       0       0
       0       0       0       0       0       0       0       0
       0       0       0       0       0       0       0       0
       0       0       0       0       0       0       0       0
       0       0       0       0       0       0       0       0
       0       0       0       0       0       0       0       0
       0       0       0       0       0       0       0       0
       0       0       0       0       0       0       0       0
       0       0       0       0       0       0       0       0
       0       0       0       0       0       0       0       0
       0       0       0       0       0       0       0       0
       0       0       0       0       0       0       0       0
       0       0       0       0       0       0       0       0
       0       0       0       0       0       0       0       0
       0       0       0       0       0       0       0       0
       0       0       0       0       0       0       0       0
       0       0       0       0       0       0       0       0
       0       0       0       0       0       0       0       0
       0       0       0       0       0       0       0       0
       0       0       0       0       0       0       0       0
       0       0       0       0       0       0       0       0
       0       0       0       0       0       0       0       0
       0       0       0       0       0       0       0       0
       0       0       0       0       0       0       0       0
       0       0       0       0       0       0       0       0
       0       0       0       0       0       0       0       0
       0       0       0       0       0       0       0       0
       0       0       0       0       0       0       0       0
       0       0       0       0       0       0       0       0
       0       0       0       0       0       0       0       0
       0       0       0       0       0       0       0       0
       0       0       0       0       0       0       0       0
       0       0       0       0       0       0       0       0
       0       0       0       0       0       0       0       0
       0       0       0       0       0       0       0       0
       0       0       0       0       0       0       0       0
       0       0       0       0       0       0       0       0
       0       0       0       0       0       0       0       0
       0       0       0       0       0       0       0       0
       0       0       0       0       0       0       0       0
       0       0       0       0       0       0       0       0
       0       0       0       0       0       0       0       0
       0       0       0       0       0       0       0       0
       0       0       0       0       0       0       0       0
       0       0       0       0       0       0       0       0
       0       0       0       0       0       0       0       0
       0       0       0       0       0       0       0       0
       0       0       0       0       0       0       0       0
       0       0       0       0       0       0       0       0
       0       0       0       0       0       0       0       0
       0       0       0       0       0       0       0       0
       0       0       0       0       0       0       0       0
       0       0       0       0       0       0       0       0
       0       0       0       0       0       0       0       0
       0       0       0       0       0       0       0       0
       0       0       0       0       0       0       0       0
       0       0       0       0       0       0       0       0
       0       0       0       0       0       0       0       0
       0       0       0       0       0       0       0       0
       0       0       0       0       0       0       0       0
       0       0       0       0       0       0       0       0
       0       0       0       0       0       0       0       0
       0       0       0       0       0       0       0       0
       0       0       0       0       0       0       0       0
       0       0       0       0       0       0       0       0
       0       0       0       0       0       0       0       0
       0       0       0       0       0       0       0       0
       0       0       0       0       0       0       0       0
       0       0       0       0       0       0       0       0
       0       0       0       0       0       0       0       0
       0       0       0       0       0       0       0       0
       0       0       0       0       0       0       0       0
       0       0       0       0       0       0       0       0
       0       0       0       0       0       0       0       0
       0       0       0       0       0       0       0       0
       0       0       0       0       0       0       0       0
       0       0       0       0       0       0       0       0
       0       0       0       0       0       0       0       0
       0       0       0       0       0       0       0       0
       0       0       0       0       0       0       0       0
       0       0       0       0       0       0       0       0
       0       0       0       0       0       0       0       0
       0       0       0       0       0       0       0       0
       0       0       0       0       0       0       0       0
       0       0       0       0       0       0       0       0
       0       0       0       0       0       0       0       0
       0       0       0       0       0       0       0       0
       0       0       0       0       0       0       0       0
       0       0       0       0       0       0       0       0
       0       0       0       0       0       0       0       0
       0       0       0       0       0       0       0       0
       0       0       0       0       0       0       0       0
       0       0       0       0       0       0       0       0
       0       0       0       0       0       0       0       0
       0       0       0       0       0       0       0       0
       0       0       0       0       0       0       0       0
       0       0       0       0       0       0       0       0
       0       0       0       0       0       0       0       0
       0       0       0       0       0       0       0       0
       0       0       0       0       0       0       0       0
       0       0       0       0       0       0       0       0
       0       0       0       0       0       0       0       0
       0       0       0       0       0       0       0       0
       0       0       0       0       0       0       0       0
       0       0       0       0       0       0       0       0
       0       0       0       0       0       0       0       0
       0       0       0       0       0       0       0       0
       0       0       0       0       0       0       0       0
       0       0       0       0       0       0       0       0
       0       0       0       0       0       0       0       0
       0       0       0       0       0       0       0       0
       0       0       0       0       0       0       0       0
       0       0       0       0       0       0       0       0
       0       0       0       0       0       0       0       0
       0       0       0       0       0       0       0       0
       0       0       0       0       0       0       0       0
       0       0       0       0       0       0       0       0
       0       0       0       0       0       0       0       0
       0       0       0       0       0       0       0       0
       0       0       0       0       0       0       0       0
       0       0       0       0       0       0       0       0
       0       0       0       0       0       0       0       0
       0       0       0       0       0       0       0       0
       0       0       0       0       0       0       0       0
       0       0       0       0       0       0       0       0
       0       0       0       0       0       0       0       0
       0       0       0       0       0       0       0       0
       0       0       0       0       0       0       0       0
       0       0       0       0       0       0       0       0
       0       0       0       0       0       0       0       0
       0       0       0       0       0       0       0       0
       0       0       0       0       0       0       0       0
       0       0       0       0       0       0       0       0
       0       0       0       0       0       0       0       0
       0       0       0       0       0       0       0       0
       0       0       0       0       0       0       0       0
       0       0       0       0       0       0       0       0
       0       0       0       0       0       0       0       0
       0       0       0       0       0       0       0       0
       0       0       0       0       0       0       0       0
       0       0       0       0       0       0       0       0
       0       0       0       0       0       0       0       0
       0       0       0       0       0       0       0       0
       0       0       0       0       0       0       0       0
       0       0       0       0       0       0       0       0
       0       0       0       0       0       0       0       0
       0       0       0       0       0       0       0       0
       0       0       0       0       0       0       0       0
       0       0       0       0       0       0       0       0
       0       0       0       0       0       0       0       0
       0       0       0       0       0       0       0       0
       0       0       0       0       0       0       0       0
       0       0       0       0       0       0       0       0
       0       0       0       0       0       0       0       0
       0       0       0       0       0       0       0       0
       0       0       0       0       0       0       0       0
       0       0       0       0       0       0       0       0
       0       0       0       0       0       0       0       0
       0       0       0       0       0       0       0       0
       0       0       0       0       0       0       0       0
       0       0       0       0       0       0       0       0
       0       0       0       0       0       0       0       0
       0       0       0       0       0       0       0       0
       0       0       0       0       0       0       0       0
       0       0       0       0       0       0       0       0
       0       0       0       0       0       0       0       0
       0       0       0       0       0       0       0       0
       0       0       0       0       0       0       0       0
       0       0       0       0       0       0       0       0
       0       0       0       0       0       0       0       0
       0       0       0       0       0       0       0       0
       0       0       0       0       0       0       0       0
       0       0       0       0       0       0       0       0
       0       0       0       0       0       0       0       0
       0       0       0       0       0       0       0       0
       0       0       0       0       0       0       0       0
       0       0       0       0       0       0       0       0
       0       0       0       0       0       0       0       0
       0       0       0       0       0       0       0       0
       0       0       0       0       0       0       0       0
       0       0       0       0       0       0       0       0
       0       0       0       0       0       0       0       0
       0       0       0       0       0       0       0       0
       0       0       0       0       0       0       0       0
       0       0       0       0       0       0       0       0
       0       0       0       0       0       0       0       0
       0       0       0       0       0       0       0       0
       0       0       0       0       0       0       0       0
       0       0       0       0       0       0       0       0
       0       0       0       0       0       0       0       0
       0       0       0       0       0       0       0       0
       0       0       0       0       0       0       0       0
       0       0       0       0       0       0       0       0
       0       0       0       0       0       0       0       0
       0       0       0       0       0       0       0       0
       0       0       0       0       0       0       0       0
       0       0       0       0       0       0       0       0
       0       0       0       0       0       0       0       0
       0       0       0       0       0       0       0       0
       0       0       0       0       0       0       0       0
       0       0       0       0       0       0       0       0
       0       0       0       0       0       0       0       0
       0       0       0       0       0       0       0       0
       0       0       0       0       0       0       0       0
       0       0       0       0       0       0       0       0
       0       0       0       0       0       0       0       0
       0       0       0       0       0       0       0       0
       0       0       0       0       0       0       0       0
       0       0       0       0       0       0       0       0
       0       0       0       0       0       0       0       0
       0       0       0       0       0       0       0       0
       0       0       0       0       0       0       0       0
       0       0       0       0       0       0       0       0
       0       0       0       0       0       0       0       0
       0       0       0       0       0       0       0       0
       0       0       0       0       0       0       0       0
       0       0       0       0       0       0       0       0
       0       0       0       0       0       0       0       0
       0       0       0       0       0       0       0       0
       0       0       0       0       0       0       0       0
       0       0       0       0       0       0       0       0
       0       0       0       0       0       0       0       0
       0       0       0       0       0       0       0       0
       0       0       0       0       0       0       0       0
       0       0       0       0       0       0       0       0
       0       0       0       0       0       0       0       0
       0       0       0       0       0       0       0       0
       0       0       0       0       0       0       0       0
       0       0       0       0       0       0       0       0
       0       0       0       0       0       0       0       0
       0       0       0       0       0       0       0       0
       0       0       0       0       0       0       0       0
       0       0       0       0       0       0       0       0
       0       0       0       0       0       0       0       0
       0       0       0       0       0       0       0       0
       0       0       0       0       0       0       0       0
       0       0       0       0       0       0       0       0
       0       0       0       0       0       0       0       0
       0       0       0       0       0       0       0       0
       0       0       0       0       0       0       0       0
       0       0       0       0       0       0       0       0
       0       0       0       0       0       0       0       0
       0       0       0       0       0       0       0       0
       0       0       0       0       0       0       0       0
       0       0       0       0       0       0       0       0
       0       0       0       0       0       0       0       0
       0       0       0       0       0       0       0       0
       0       0       0       0       0       0       0       0
       0       0       0       0       0       0       0       0
       0       0       0       0       0       0       0       0
       0       0       0       0       0       0       0       0
       0       0       0       0       0       0       0       0
       0       0       0       0       0       0       0       0
       0       0       0       0       0       0       0       0
       0       0       0       0       0       0       0       0
       0       0       0       0       0       0       0       0
       0       0       0       0       0       0       0       0
       0       0       0       0       0       0       0       0
       0       0       0       0       0       0       0       0
       0       0       0       0       0       0       0       0
       0       0       0       0       0       0       0       0
       0       0       0       0       0       0       0       0
       0       0       0       0       0       0       0       0
       0       0       0       0       0       0       0       0
       0       0       0       0       0       0       0       0
       0       0       0       0       0       0       0       0
       0       0       0       0       0       0       0       0
       0       0       0       0       0       0       0       0
       0       0       0       0       0       0       0       0
       0       0       0       0       0       0       0       0
       0       0       0       0       0       0       0       0
       0       0       0       0       0       0       0       0
       0       0       0       0       0       0       0       0
       0       0       0       0       0       0       0       0
       0       0       0       0       0       0       0       0
       0       0       0       0       0       0       0       0
       0       0       0       0       0       0       0       0
       0       0       0       0       0       0       0       0
       0       0       0       0       0       0       0       0
       0       0       0       0       0       0       0       0
       0       0       0       0       0       0       0       0
       0       0       0       0       0       0       0       0
       0       0       0       0       0       0       0       0
       0       0       0       0       0       0       0       0
       0       0       0       0       0       0       0       0
       0       0       0       0       0       0       0       0
       0       0       0       0       0       0       0       0
       0       0       0       0       0       0       0       0
       0       0       0       0       0       0       0       0
       0       0       0       0       0       0       0       0
       0       0       0       0       0       0       0       0
       0       0       0       0       0       0       0       0
       0       0       0       0       0       0       0       0
       0       0       0       0       0       0       0       0
       0       0       0       0       0       0       0       0
       0       0       0       0       0       0       0       0
       0       0       0       0       0       0       0       0
       0       0       0       0       0       0       0       0
       0       0       0       0       0       0       0       0
       0       0       0       0       0       0       0       0
       0       0       0       0       0       0       0       0
       0       0       0       0       0       0       0       0
       0       0       0       0       0       0       0       0
       0       0       0       0       0       0       0       0
       0       0       0       0       0       0       0       0
       0       0       0       0       0       0       0       0
       0       0       0       0       0       0       0       0
       0       0       0       0       0       0       0       0
       0       0       0       0       0       0       0       0
       0       0       0       0       0       0       0       0
       0       0       0       0       0       0       0       0
       0       0       0       0       0       0       0       0
       0       0       0       0       0       0       0       0
       0       0       0       0       0       0       0       0
       0       0       0       0       0       0       0       0
       0       0       0       0       0       0       0       0
       0       0       0       0       0       0       0       0
       0       0       0       0       0       0       0       0
       0       0       0       0       0       0       0       0
       0       0       0       0       0       0       0       0
       0       0       0       0       0       0       0       0
       0       0       0       0       0       0       0       0
       0       0       0       0       0       0       0       0
       0       0       0       0       0       0       0       0
       0       0       0       0       0       0       0       0
       0       0       0       0       0       0       0       0
       0       0       0       0       0       0       0       0
       0       0       0       0       0       0       0       0
       0       0       0       0       0       0       0       0
       0       0       0       0       0       0       0       0
       0       0       0       0       0       0       0       0
       0       0       0       0       0       0       0       0
       0       0       0       0       0       0       0       0
       0       0       0       0       0       0       0       0
       0       0       0       0       0       0       0       0
       0       0       0       0       0       0       0       0
       0       0       0       0       0       0       0       0
       0       0       0       0       0       0       0       0
       0       0       0       0       0       0       0       0
       0       0       0       0       0       0       0       0
       0       0       0       0       0       0       0       0
       0       0       0       0       0       0       0       0
       0       0       0       0       0       0       0       0
       0       0       0       0       0       0       0       0
       0       0       0       0       0       0       0       0
       0       0       0       0       0       0       0       0
       0       0       0       0       0       0       0       0
       0       0       0       0       0       0       0       0
       0       0       0       0       0       0       0       0
       0       0       0       0       0       0       0       0
       0       0       0       0       0       0       0       0
       0       0       0       0       0       0       0       0
       0       0       0       0       0       0       0       0
       0       0       0       0       0       0       0       0
       0       0       0       0       0       0       0       0
       0       0       0       0       0       0       0       0
       0       0       0       0       0       0       0       0
       0       0       0       0       0       0       0       0
       0       0       0       0       0       0       0       0
       0       0       0       0       0       0       0       0
       0       0       0       0       0       0       0       0
       0       0       0       0       0       0       0       0
       0       0       0       0       0       0       0       0
       0       0       0       0       0       0       0       0
       0       0       0       0       0       0       0       0
       0       0       0       0       0       0       0       0
       0       0       0       0       0       0       0       0
       0       0       0       0       0       0       0       0
       0       0       0       0       0       0       0       0
       0       0       0       0       0       0       0       0
       0       0       0       0       0       0       0       0
       0       0       0       0       0       0       0       0
       0       0       0       0       0       0       0       0
       0       0       0       0       0       0       0       0
       0       0       0       0       0       0       0       0
       0       0       0       0       0       0       0       0
       0       0       0       0       0       0       0       0
       0       0       0       0       0       0       0       0
       0       0       0       0       0       0       0       0
       0       0       0       0       0       0       0       0
       0       0       0       0       0       0       0       0
       0       0       0       0       0       0       0       0
       0       0       0       0       0       0       0       0
       0       0       0       0       0       0       0       0
       0       0       0       0       0       0       0       0
       0       0       0       0       0       0       0       0
       0       0       0       0       0       0       0       0
       0       0       0       0       0       0       0       0
       0       0       0       0       0       0       0       0
       0       0       0       0       0       0       0       0
       0       0       0       0       0       0       0       0
       0       0       0       0       0       0       0       0
       0       0       0       0       0       0       0       0
       0       0       0       0       0       0       0       0
       0       0       0       0       0       0       0       0
       0       0       0       0       0       0       0       0
       0       0       0       0       0       0       0       0
       0       0       0       0       0       0       0       0
       0       0       0       0       0       0       0       0
       0       0       0       0       0       0       0       0
       0       0       0       0       0       0       0       0
       0       0       0       0       0       0       0       0
       0       0       0       0       0       0       0       0
       0       0       0       0       0       0       0       0
       0       0       0       0       0       0       0       0
       0       0       0       0       0       0       0       0
       0       0       0       0       0       0       0       0
       0       0       0       0       0       0       0       0
       0       0       0       0       0       0       0       0
       0       0       0       0       0       0       0       0
       0       0       0       0       0       0       0       0
       0       0       0       0       0       0       0       0
       0       0       0       0       0       0       0       0
       0       0       0       0       0       0       0       0
       0       0       0       0       0       0       0       0
       0       0       0       0       0       0       0       0
       0       0       0       0       0       0       0       0
       0       0       0       0       0       0       0       0
       0       0       0       0       0       0       0       0
       0       0       0       0       0       0       0       0
       0       0       0       0       0       0       0       0
       0       0       0       0       0       0       0       0
       0       0       0       0       0       0       0       0
       0       0       0       0       0       0       0       0
       0       0       0       0       0       0       0       0
       0       0       0       0       0       0       0       0
       0       0       0       0       0       0       0       0
       0       0       0       0       0       0       0       0
       0       0       0       0       0       0       0       0
       0       0       0       0       0       0       0       0
       0       0       0       0       0       0       0       0
       0       0       0       0       0       0       0       0
       0       0       0       0       0       0       0       0
       0       0       0       0       0       0       0       0
       0       0       0       0       0       0       0       0
       0       0       0       0       0       0       0       0
       0       0       0       0       0       0       0       0
       0       0       0       0       0       0       0       0
       0       0       0       0       0       0       0       0
       0       0       0       0       0       0       0       0
       0       0       0       0       0       0       0       0
       0       0       0       0       0       0       0       0
       0       0       0       0       0       0       0       0
       0       0       0       0       0       0       0       0
       0       0       0       0       0       0       0       0
       0       0       0       0       0       0       0       0
       0       0       0       0       0       0       0       0
       0       0       0       0       0       0       0       0
       0       0       0       0       0       0       0       0
       0       0       0       0       0       0       0       0
       0       0       0       0       0       0       0       0
       0       0       0       0       0       0       0       0
       0       0       0       0       0       0       0       0
       0       0       0       0       0       0       0       0
       0       0       0       0       0       0       0       0
       0       0       0       0       0       0       0       0
       0       0       0       0       0       0       0       0
       0       0       0       0       0       0       0       0
       0       0       0       0       0       0       0       0
       0       0       0       0       0       0       0       0
       0       0       0       0       0       0       0       0
       0       0       0       0       0       0       0       0
       0       0       0       0       0       0       0       0
       0       0       0       0       0       0       0       0
       0       0       0       0       0       0       0       0
       0       0       0       0       0       0       0       0
       0       0       0       0       0       0       0       0
       0       0       0       0       0       0       0       0
       0       0       0       0       0       0       0       0
       0       0       0       0       0       0       0       0
       0       0       0       0       0       0       0       0
       0       0       0       0       0       0       0       0
       0       0       0       0       0       0       0       0
       0       0       0       0       0       0       0       0
       0       0       0       0       0       0       0       0
       0       0       0       0       0       0       0       0
       0       0       0       0       0       0       0       0
       0       0       0       0       0       0       0       0
       0       0       0       0       0       0       0       0
       0       0       0       0       0       0       0       0
       0       0       0       0       0       0       0       0
       0       0       0       0       0       0       0       0
       0       0       0       0       0       0       0       0
       0       0       0       0       0       0       0       0
       0       0       0       0       0       0       0       0
       0       0       0       0       0       0       0       0
       0       0       0       0       0       0       0       0
       0       0       0       0       0       0       0       0
       0       0       0       0       0       0       0       0
       0       0       0       0       0       0       0       0
       0       0       0       0       0       0       0       0
       0       0       0       0       0       0       0       0
       0       0       0       0       0       0       0       0
       0       0       0       0       0       0       0       0
       0       0       0       0       0       0       0       0
       0       0       0       0       0       0       0       0
       0       0       0       0       0       0       0       0
       0       0       0       0       0       0       0       0
       0       0       0       0       0       0       0       0
       0       0       0       0       0       0       0       0
       0       0       0       0       0       0       0       0
       0       0       0       0       0       0       0       0
       0       0       0       0       0       0       0       0
       0       0       0       0       0       0       0       0
       0       0       0       0       0       0       0       0
       0       0       0       0       0       0       0       0
       0       0       0       0       0       0       0       0
       0       0       0       0       0       0       0       0
       0       0       0       0       0       0       0       0
       0       0       0       0       0       0       0       0
       0       0       0       0       0       0       0       0
       0       0       0       0       0       0       0       0
       0       0       0       0       0       0       0       0
       0       0       0       0       0       0       0       0
       0       0       0       0       0       0       0       0
       0       0       0       0       0       0       0       0
       0       0       0       0       0       0       0       0
       0       0       0       0       0       0       0       0
       0       0       0       0       0       0       0       0
       0       0       0       0       0       0       0       0
       0       0       0       0       0       0       0       0
       0       0       0       0       0       0       0       0
       0       0       0       0       0       0       0       0
       0       0       0       0       0       0       0       0
       0       0       0       0       0       0       0       0
       0       0       0       0       0       0       0       0
       0       0       0       0       0       0       0       0
       0       0       0       0       0       0       0       0
       0       0       0       0       0       0       0       0
       0       0       0       0       0       0       0       0
       0       0       0       0       0       0       0       0
       0       0       0       0       0       0       0       0
       0       0       0       0       0       0       0       0
       0       0       0       0       0       0       0       0
       0       0       0       0       0       0       0       0
       0       0       0       0       0       0       0       0
       0       0       0       0       0       0       0       0
       0       0       0       0       0       0       0       0
       0       0       0       0       0       0       0       0
       0       0       0       0       0       0       0       0
       0       0       0       0       0       0       0       0
       0       0       0       0       0       0       0       0
       0       0       0       0       0       0       0       0
       0       0       0       0       0       0       0       0
       0       0       0       0       0       0       0       0
       0       0       0       0       0       0       0       0
       0       0       0       0       0       0       0       0
       0       0       0       0       0       0       0       0
       0       0       0       0       0       0       0       0
       0       0       0       0       0       0       0       0
       0       0       0       0       0       0       0       0
       0       0       0       0       0       0       0       0
       0       0       0       0       0       0       0       0
       0       0       0       0       0       0       0       0
       0       0       0       0       0       0       0       0
       0       0       0       0       0       0       0       0
       0       0       0       0       0       0       0       0
       0       0       0       0       0       0       0       0
       0       0       0       0       0       0       0       0
       0       0       0       0       0       0       0       0
       0       0       0       0       0       0       0       0
       0       0       0       0       0       0       0       0
       0       0       0       0       0       0       0       0
       0       0       0       0       0       0       0       0
       0       0       0       0       0       0       0       0
       0       0       0       0       0       0       0       0
       0       0       0       0       0       0       0       0
       0       0       0       0       0       0       0       0
       0       0       0       0       0       0       0       0
       0       0       0       0       0       0       0       0
       0       0       0       0       0       0       0       0
       0       0       0       0       0       0       0       0
       0       0       0       0       0       0       0       0
       0       0       0       0       0       0       0       0
       0       0       0       0       0       0       0       0
       0       0       0       0       0       0       0       0
       0       0       0       0       0       0       0       0
       0       0       0       0       0       0       0       0
       0       0       0       0       0       0       0       0
       0       0       0       0       0       0       0       0
       0       0       0       0       0       0       0       0
       0       0       0       0       0       0       0       0
       0       0       0       0       0       0       0       0
       0       0       0       0       0       0       0       0
       0       0       0       0       0       0       0       0
       0       0       0       0       0       0       0       0
       0       0       0       0       0       0       0       0
       0       0       0       0       0       0       0       0
       0       0       0       0       0       0       0       0
       0       0       0       0       0       0       0       0
       0       0       0       0       0       0       0       0
       0       0       0       0       0       0       0       0
       0       0       0       0       0       0       0       0
       0       0       0       0       0       0       0       0
       0       0       0       0       0       0       0       0
       0       0       0       0       0       0       0       0
       0       0       0       0       0       0       0       0
       0       0       0       0       0       0       0       0
       0       0       0       0       0       0       0       0
       0       0       0       0       0       0       0       0
       0       0       0       0       0       0       0       0
       0       0       0       0       0       0       0       0
       0       0       0       0       0       0       0       0
       0       0       0       0       0       0       0       0
       0       0       0       0       0       0       0       0
       0       0       0       0       0       0       0       0
       0       0       0       0       0       0       0       0
       0       0       0       0       0       0       0       0
       0       0       0       0       0       0       0       0
       0       0       0       0       0       0       0       0
       0       0       0       0       0       0       0       0
       0       0       0       0       0       0       0       0
       0       0       0       0       0       0       0       0
       0       0       0       0       0       0       0       0
       0       0       0       0       0       0       0       0
       0       0       0       0       0       0       0       0
       0       0       0       0       0       0       0       0
       0       0       0       0       0       0       0       0
       0       0       0       0       0       0       0       0
       0       0       0       0       0       0       0       0
       0       0       0       0       0       0       0       0
       0       0       0       0       0       0       0       0
       0       0       0       0       0       0       0       0
       0       0       0       0       0       0       0       0
       0       0       0       0       0       0       0       0
       0       0       0       0       0       0       0       0
       0       0       0       0       0       0       0       0
       0       0       0       0       0       0       0       0
       0       0       0       0       0       0       0       0
       0       0       0       0       0       0       0       0
       0       0       0       0       0       0       0       0
       0       0       0       0       0       0       0       0
       0       0       0       0       0       0       0       0
       0       0       0       0       0       0       0       0
       0       0       0       0       0       0       0       0
       0       0       0       0       0       0       0       0
       0       0       0       0       0       0       0       0
       0       0       0       0       0       0       0       0
       0       0       0       0       0       0       0       0
       0       0       0       0       0       0       0       0
       0       0       0       0       0       0       0       0
       0       0       0       0       0       0       0       0
       0       0       0       0       0       0       0       0
       0       0       0       0       0       0       0       0
       0       0       0       0       0       0       0       0
       0       0       0       0       0       0       0       0
       0       0       0       0       0       0       0       0
       0       0       0       0       0       0       0       0
       0       0       0       0       0       0       0       0
       0       0       0       0       0       0       0       0
       0       0       0       0       0       0       0       0
       0       0       0       0       0       0       0       0
       0       0       0       0       0       0       0       0
       0       0       0       0       0       0       0       0
       0       0       0       0       0       0       0       0
       0       0       0       0       0       0       0       0
       0       0       0       0       0       0       0       0
       0       0       0       0       0       0       0       0
       0       0       0       0       0       0       0       0
       0       0       0       0       0       0       0       0
       0       0       0       0       0       0       0       0
       0       0       0       0       0       0       0       0
       0       0       0       0       0       0       0       0
       0       0       0       0       0       0       0       0
       0       0       0       0       0       0       0       0
       0       0       0       0       0       0       0       0
       0       0       0       0       0       0       0       0
       0       0       0       0       0       0       0       0
       0       0       0       0       0       0       0       0
       0       0       0       0       0       0       0       0
       0       0       0       0       0       0       0       0
       0       0       0       0       0       0       0       0
       0       0       0       0       0       0       0       0
       0       0       0       0       0       0       0       0
       0       0       0       0       0       0       0       0
       0       0       0       0       0       0       0       0
       0       0       0       0       0       0       0       0
       0       0       0       0       0       0       0       0
       0       0       0       0       0       0       0       0
       0       0       0       0       0       0       0       0
       0       0       0       0       0       0       0       0
       0       0       0       0       0       0       0       0
       0       0       0       0       0       0       0       0
       0       0       0       0       0       0       0       0
       0       0       0       0       0       0       0       0
       0       0       0       0       0       0       0       0
       0       0       0       0       0       0       0       0
       0       0       0       0       0       0       0       0
       0       0       0       0       0       0       0       0
       0       0       0       0       0       0       0       0
       0       0       0       0       0       0       0       0
       0       0       0       0       0       0       0       0
       0       0       0       0       0       0       0       0
       0       0       0       0       0       0       0       0
       0       0       0       0       0       0       0       0
       0       0       0       0       0       0       0       0
       0       0       0       0       0       0       0       0
       0       0       0       0       0       0       0       0
       0       0       0       0       0       0       0       0
       0       0       0       0       0       0       0       0
       0       0       0       0       0       0       0       0
       0       0       0       0       0       0       0       0
       0       0       0       0       0       0       0       0
       0       0       0       0       0       0       0       0
       0       0       0       0       0       0       0       0
       0       0       0       0       0       0       0       0
       0       0       0       0       0       0       0       0
       0       0       0       0       0       0       0       0
       0       0       0       0       0       0       0       0
       0       0       0       0       0       0       0       0
       0       0       0       0       0       0       0       0
       0       0       0       0       0       0       0       0
       0       0       0       0       0       0       0       0
       0       0       0       0       0       0       0       0
       0       0       0       0       0       0       0       0
       0       0       0       0       0       0       0       0
       0       0       0       0       0       0       0       0
       0       0       0       0       0       0       0       0
       0       0       0       0       0       0       0       0
       0       0       0       0       0       0       0       0
       0       0       0       0       0       0       0       0
       0       0       0       0       0       0       0       0
       0       0       0       0       0       0       0       0
       0       0       0       0       0       0       0       0
       0       0       0       0       0       0       0       0
       0       0       0       0       0       0       0       0
       0       0       0       0       0       0       0       0
       0       0       0       0       0       0       0       0
       0       0       0       0       0       0       0       0
       0       0       0       0       0       0       0       0
       0       0       0       0       0       0       0       0
       0       0       0       0       0       0       0       0
       0       0       0       0       0       0       0       0
       0       0       0       0       0       0       0       0
       0       0       0       0       0       0       0       0
       0       0       0       0       0       0       0       0
       0       0       0       0       0       0       0       0
       0       0       0       0       0       0       0       0
       0       0       0       0       0       0       0       0
       0       0       0       0       0       0       0       0
       0       0       0       0       0       0       0       0
       0       0       0       0       0       0       0       0
       0       0       0       0       0       0       0       0
       0       0       0       0       0       0       0       0
       0       0       0       0       0       0       0       0
       0       0       0       0       0       0       0       0
       0       0       0       0       0       0       0       0
       0       0       0       0       0       0       0       0
       0       0       0       0       0       0       0       0
       0       0       0       0       0       0       0       0
       0       0       0       0       0       0       0       0
       0       0       0       0       0       0       0       0
       0       0       0       0       0       0       0       0
       0       0       0       0       0       0       0       0
       0       0       0       0       0       0       0       0
       0       0       0       0       0       0       0       0
       0       0       0       0       0       0       0       0
       0       0       0       0       0       0       0       0
       0       0       0       0       0       0       0       0
       0       0       0       0       0       0       0       0
       0       0       0       0       0       0       0       0
       0       0       0       0       0       0       0       0
       0       0       0       0       0       0       0       0
       0       0       0       0       0       0       0       0
       0       0       0       0       0       0       0       0
       0       0       0       0       0       0       0       0
       0       0       0       0       0       0       0       0
       0       0       0       0       0       0       0       0
       0       0       0       0       0       0       0       0
       0       0       0       0       0       0       0       0
       0       0       0       0       0       0       0       0
       0       0       0       0       0       0       0       0
       0       0       0       0       0       0       0       0
       0       0       0       0       0       0       0       0
       0       0       0       0       0       0       0       0
       0       0       0       0       0       0       0       0
       0       0       0       0       0       0       0       0
       0       0       0       0       0       0       0       0
       0       0       0       0       0       0       0       0
       0       0       0       0       0       0       0       0
       0       0       0       0       0       0       0       0
       0       0       0       0       0       0       0       0
       0       0       0       0       0       0       0       0
       0       0       0       0       0       0       0       0
       0       0       0       0       0       0       0       0
       0       0       0       0       0       0       0       0
       0       0       0       0       0       0       0       0
       0       0       0       0       0       0       0       0
       0       0       0       0       0       0       0       0
       0       0       0       0       0       0       0       0
       0       0       0       0       0       0       0       0
       0       0       0       0       0       0       0       0
       0       0       0       0       0       0       0       0
       0       0       0       0       0       0       0       0
       0       0       0       0       0       0       0       0
       0       0       0       0       0       0       0       0
       0       0       0       0       0       0       0       0
       0       0       0       0       0       0       0       0
       0       0       0       0       0       0       0       0
       0       0       0       0       0       0       0       0
       0       0       0       0       0       0       0       0
       0       0       0       0       0       0       0       0
       0       0       0       0       0       0       0       0
       0       0       0       0       0       0       0       0
       0       0       0       0       0       0       0       0
       0       0       0       0       0       0       0       0
       0       0       0       0       0       0       0       0
       0       0       0       0       0       0       0       0
       0       0       0       0       0       0       0       0
       0       0       0       0       0       0       0       0
       0       0       0       0       0       0       0       0
       0       0       0       0       0       0       0       0
       0       0       0       0       0       0       0       0
       0       0       0       0       0       0       0       0
       0       0       0       0       0       0       0       0
       0       0       0       0       0       0       0       0
       0       0       0       0       0       0       0       0
       0       0       0       0       0       0       0       0
       0       0       0       0       0       0       0       0
       0       0       0       0       0       0       0       0
       0       0       0       0       0       0       0       0
       0       0       0       0       0       0       0       0
       0       0       0       0       0       0       0       0
       0       0       0       0       0       0       0       0
       0       0       0       0       0       0       0       0
       0       0       0       0       0       0       0       0
       0       0       0       0       0       0       0       0
       0       0       0       0       0       0       0       0
       0       0       0       0       0       0       0       0
       0       0       0       0       0       0       0       0
       0       0       0       0       0       0       0       0
       0       0       0       0       0       0       0       0
       0       0       0       0       0       0       0       0
       0       0       0       0       0       0       0       0
       0       0       0       0       0       0       0       0
       0       0       0       0       0       0       0       0
       0       0       0       0       0       0       0       0
       0       0       0       0       0       0       0       0
       0       0       0       0       0       0       0       0
       0       0       0       0       0       0       0       0
       0       0       0       0       0       0       0       0
       0       0       0       0       0       0       0       0
       0       0       0       0       0       0       0       0
       0       0       0       0       0       0       0       0
       0       0       0       0       0       0       0       0
       0       0       0       0       0       0       0       0
       0       0       0       0       0       0       0       0
       0       0       0       0       0       0       0       0
       0       0       0       0       0       0       0       0
       0       0       0       0       0       0       0       0
       0       0       0       0       0       0       0       0
       0       0       0       0       0       0       0       0
       0       0       0       0       0       0       0       0
       0       0       0       0       0       0       0       0
       0       0       0       0       0       0       0       0
       0       0       0       0       0       0       0       0
       0       0       0       0       0       0       0       0
       0       0       0       0       0       0       0       0
       0       0       0       0       0       0       0       0
       0       0       0       0       0       0       0       0
       0       0       0       0       0       0       0       0
       0       0       0       0       0       0       0       0
       0       0       0       0       0       0       0       0
       0       0       0       0       0       0       0       0
       0       0       0       0       0       0       0       0
       0       0       0       0       0       0       0       0
       0       0       0       0       0       0       0       0
       0       0       0       0       0       0       0       0
       0       0       0       0       0       0       0       0
       0       0       0       0       0       0       0       0
       0       0       0       0       0       0       0       0
       0       0       0       0       0       0       0       0
       0       0       0       0       0       0       0       0
       0       0       0       0       0       0       0       0
       0       0       0       0       0       0       0       0
       0       0       0       0       0       0       0       0
       0       0       0       0       0       0       0       0
       0       0       0       0       0       0       0       0
       0       0       0       0       0       0       0       0
       0       0       0       0       0       0       0       0
       0       0       0       0       0       0       0       0
       0       0       0       0       0       0       0       0
       0       0       0       0       0       0       0       0
       0       0       0       0       0       0       0       0
       0       0       0       0       0       0       0       0
       0       0       0       0       0       0       0       0
       0       0       0       0       0       0       0       0
       0       0       0       0       0       0       0       0
       0       0       0       0       0       0       0       0
       0       0       0       0       0       0       0       0
       0       0       0       0       0       0       0       0
       0       0       0       0       0       0       0       0
       0       0       0       0       0       0       0       0
       0       0       0       0       0       0       0       0
       0       0       0       0       0       0       0       0
       0       0       0       0       0       0       0       0
       0       0       0       0       0       0       0       0
       0       0       0       0       0       0       0       0
       0       0       0       0       0       0       0       0
       0       0       0       0       0       0       0       0
       0       0       0       0       0       0       0       0
       0       0       0       0       0       0       0       0
       0       0       0       0       0       0       0       0
       0       0       0       0       0       0       0       0
       0       0       0       0       0       0       0       0
       0       0       0       0       0       0       0       0
       0       0       0       0       0       0       0       0
       0       0       0       0       0       0       0       0
       0       0       0       0       0       0       0       0
       0       0       0       0       0       0       0       0
       0       0       0       0       0       0       0       0
       0       0       0       0       0       0       0       0
       0       0       0       0       0       0       0       0
       0       0       0       0       0       0       0       0
       0       0       0       0       0       0       0       0
       0       0       0       0       0       0       0       0
       0       0       0       0       0       0       0       0
       0       0       0       0       0       0       0       0
       0       0       0       0       0       0       0       0
       0       0       0       0       0       0       0       0
       0       0       0       0       0       0       0       0
       0       0       0       0       0       0       0       0
       0       0       0       0       0       0       0       0
       0       0       0       0       0       0       0       0
       0       0       0       0       0       0       0       0
       0       0       0       0       0       0       0       0
       0       0       0       0       0       0       0       0
       0       0       0       0       0       0       0       0
       0       0       0       0       0       0       0       0
       0       0       0       0       0       0       0       0
       0       0       0       0       0       0       0       0
       0       0       0       0       0       0       0       0
       0       0       0       0       0       0       0       0
       0       0       0       0       0       0       0       0
       0       0       0       0       0       0       0       0
       0       0       0       0       0       0       0       0
       0       0       0       0       0       0       0       0
       0       0       0       0       0       0       0       0
       0       0       0       0       0       0       0       0
       0       0       0       0       0       0       0       0
       0       0       0       0       0       0       0       0
       0       0       0       0       0       0       0       0
       0       0       0       0       0       0       0       0
       0       0       0       0       0       0       0       0
       0       0       0       0       0       0       0       0
       0       0       0       0       0       0       0       0
       0       0       0       0       0       0       0       0
       0       0       0       0       0       0       0       0
       0       0       0       0       0       0       0       0
       0       0       0       0       0       0       0       0
       0       0       0       0       0       0       0       0
       0       0       0       0       0       0       0       0
       0       0       0       0       0       0       0       0
       0       0       0       0       0       0       0       0
       0       0       0       0       0       0       0       0
       0       0       0       0       0       0       0       0
       0       0       0       0       0       0       0       0
       0       0       0       0       0       0       0       0
       0       0       0       0       0       0       0       0
       0       0       0       0       0       0       0       0
       0       0       0       0       0       0       0       0
       0       0       0       0       0       0       0       0
       0       0       0       0       0       0       0       0
       0       0       0       0       0       0       0       0
       0       0       0       0       0       0       0       0
       0       0       0       0       0       0       0       0
       0       0       0       0       0       0       0       0
       0       0       0       0       0       0       0       0
       0       0       0       0       0       0       0       0
       0       0       0       0       0       0       0       0
       0       0       0       0       0       0       0       0
       0       0       0       0       0       0       0       0
       0       0       0       0       0       0       0       0
       0       0       0       0       0       0       0       0
       0       0       0       0       0       0       0       0
       0       0       0       0       0       0       0       0
       0       0       0       0       0       0       0       0
       0       0       0       0       0       0       0       0
       0       0       0       0       0       0       0       0
       0       0       0       0       0       0       0       0
       0       0       0       0       0       0       0       0
       0       0       0       0       0       0       0       0
       0       0       0       0       0       0       0       0
       0       0       0       0       0       0       0       0
       0       0       0       0       0       0       0       0
       0       0       0       0       0       0       0       0
       0       0       0       0       0       0       0       0
       0       0       0       0       0       0       0       0
       0       0       0       0       0       0       0       0
       0       0       0       0       0       0       0       0
       0       0       0       0       0       0       0       0
       0       0       0       0       0       0       0       0
       0       0       0       0       0       0       0       0
       0       0       0       0       0       0       0       0
       0       0       0       0       0       0       0       0
       0       0       0       0       0       0       0       0
       0       0       0       0       0       0       0       0
       0       0       0       0       0       0       0       0
       0       0       0       0       0       0       0       0
       0       0       0       0       0       0       0       0
       0       0       0       0       0       0       0       0
       0       0       0       0       0       0       0       0
       0       0       0       0       0       0       0       0
       0       0       0       0       0       0       0       0
       0       0       0       0       0       0       0       0
       0       0       0       0       0       0       0       0
       0       0       0       0       0       0       0       0
       0       0       0       0       0       0       0       0
       0       0       0       0       0       0       0       0
       0       0       0       0       0       0       0       0
       0       0       0       0       0       0       0       0
       0       0       0       0       0       0       0       0
       0       0       0       0       0       0       0       0
       0       0       0       0       0       0       0       0
       0       0       0       0       0       0       0       0
       0       0       0       0       0       0       0       0
       0       0       0       0       0       0       0       0
       0       0       0       0       0       0       0       0
       0       0       0       0       0       0       0       0
       0       0       0       0       0       0       0       0
       0       0       0       0       0       0       0       0
       0       0       0       0       0       0       0       0
       0       0       0       0       0       0       0       0
       0       0       0       0       0       0       0       0
       0       0       0       0       0       0       0       0
       0       0       0       0       0       0       0       0
       0       0       0       0       0       0       0       0
       0       0       0       0       0       0       0       0
       0       0       0       0       0       0       0       0
       0       0       0       0       0       0       0       0
       0       0       0       0       0       0       0       0
       0       0       0       0       0       0       0       0
       0       0       0       0       0       0       0       0
       0       0       0       0       0       0       0       0
       0       0       0       0       0       0       0       0
       0       0       0       0       0       0       0       0
       0       0       0       0       0       0       0       0
       0       0       0       0       0       0       0       0
       0       0       0       0       0       0       0       0
       0       0       0       0       0       0       0       0
       0       0       0       0       0       0       0       0
       0       0       0       0       0       0       0       0
       0       0       0       0       0       0       0       0
       0       0       0       0       0       0       0       0
       0       0       0       0       0       0       0       0
       0       0       0       0       0       0       0       0
       0       0       0       0       0       0       0       0
       0       0       0       0       0       0       0       0
       0       0       0       0       0       0       0       0
       0       0       0       0       0       0       0       0
       0       0       0       0       0       0       0       0
       0       0       0       0       0       0       0       0
       0       0       0       0       0       0       0       0
       0       0       0       0       0       0       0       0
       0       0       0       0       0       0       0       0
       0       0       0       0       0       0       0       0
       0       0       0       0       0       0       0       0
       0       0       0       0       0       0       0       0
       0       0       0       0       0       0       0       0
       0       0       0       0       0       0       0       0
       0       0       0       0       0       0       0       0
       0       0       0       0       0       0       0       0
       0       0       0       0       0       0       0       0
       0       0       0       0       0       0       0       0
       0       0       0       0       0       0       0       0
       0       0       0       0       0       0       0       0
       0       0       0       0       0       0       0       0
       0       0       0       0       0       0       0       0
       0       0       0       0       0       0       0       0
       0       0       0       0       0       0       0       0
       0       0       0       0       0       0       0       0
       0       0       0       0       0       0       0       0
       0       0       0       0       0       0       0       0
       0       0       0       0       0       0       0       0
       0       0       0       0       0       0       0       0
       0       0       0       0       0       0       0       0
       0       0       0       0       0       0       0       0
       0       0       0       0       0       0       0       0
       0       0       0       0       0       0       0       0
       0       0       0       0       0       0       0       0
       0       0       0       0       0       0       0       0
       0       0       0       0       0       0       0       0
       0       0       0       0       0       0       0       0
       0       0       0       0       0       0       0       0
       0       0       0       0       0       0       0       0
       0       0       0       0       0       0       0       0
       0       0       0       0       0       0       0       0
       0       0       0       0       0       0       0       0
       0       0       0       0       0       0       0       0
       0       0       0       0       0       0       0       0
       0       0       0       0       0       0       0       0
       0       0       0       0       0       0       0       0
       0       0       0       0       0       0       0       0
       0       0       0       0       0       0       0       0
       0       0       0       0       0       0       0       0
       0       0       0       0       0       0       0       0
       0       0       0       0       0       0       0       0
       0       0       0       0       0       0       0       0
       0       0       0       0       0       0       0       0
       0       0       0       0       0       0       0       0
       0       0       0       0       0       0       0       0
       0       0       0       0       0       0       0       0
       0       0       0       0       0       0       0       0
       0       0       0       0       0       0       0       0
       0       0       0       0       0       0       0       0
       0       0       0       0       0       0       0       0
       0       0       0       0       0       0       0       0
       0       0       0       0       0       0       0       0
       0       0       0       0       0       0       0       0
       0       0       0       0       0       0       0       0
       0       0       0       0       0       0       0       0
       0       0       0       0       0       0       0       0
       0       0       0       0       0       0       0       0
       0       0       0       0       0       0       0       0
       0       0       0       0       0       0       0       0
       0       0       0       0       0       0       0       0
       0       0       0       0       0       0       0       0
       0       0       0       0       0       0       0       0
       0       0       0       0       0       0       0       0
       0       0       0       0       0       0       0       0
       0       0       0       0       0       0       0       0
       0       0       0       0       0       0       0       0
       0       0       0       0       0       0       0       0
       0       0       0       0       0       0       0       0
       0       0       0       0       0       0       0       0
       0       0       0       0       0       0       0       0
       0       0       0       0       0       0       0       0
       0       0       0       0       0       0       0       0
       0       0       0       0       0       0       0       0
       0       0       0       0       0       0       0       0
       0       0       0       0       0       0       0       0
       0       0       0       0       0       0       0       0
       0       0       0       0       0       0       0       0
       0       0       0       0       0       0       0       0
       0       0       0       0       0       0       0       0
       0       0       0       0       0       0       0       0
       0       0       0       0       0       0       0       0
       0       0       0       0       0       0       0       0
       0       0       0       0       0       0       0       0
       0       0       0       0       0       0       0       0
       0       0       0       0       0       0       0       0
       0       0       0       0       0       0       0       0
       0       0       0       0       0       0       0       0
       0       0       0       0       0       0       0       0
       0       0       0       0       0       0       0       0
       0       0       0       0       0       0       0       0
       0       0       0       0       0       0       0       0
       0       0       0       0       0       0       0       0
       0       0       0       0       0       0       0       0
       0       0       0       0       0       0       0       0
       0       0       0       0       0       0       0       0
       0       0       0       0       0       0       0       0
       0       0       0       0       0       0       0       0
       0       0       0       0       0       0       0       0
       0       0       0       0       0       0       0       0
       0       0       0       0       0       0       0       0
       0       0       0       0       0       0       0       0
       0       0       0       0       0       0       0       0
       0       0       0       0       0       0       0       0
       0       0       0       0       0       0       0       0
       0       0       0       0       0       0       0       0
       0       0       0       0       0       0       0       0
       0       0       0       0       0       0       0       0
       0       0       0       0       0       0       0       0
       0       0       0       0       0       0       0       0
       0       0       0       0       0       0       0       0
       0       0       0       0       0       0       0       0
       0       0       0       0       0       0       0       0
       0       0       0       0       0       0       0       0
       0       0       0       0       0       0       0       0
       0       0       0       0       0       0       0       0
       0       0       0       0       0       0       0       0
       0       0       0       0       0       0       0       0
       0       0       0       0       0       0       0       0
       0       0       0       0       0       0       0       0
       0       0       0       0       0       0       0       0
       0       0       0       0       0       0       0       0
       0       0       0       0       0       0       0       0
       0       0       0       0       0       0       0       0
       0       0       0       0       0       0       0       0
       0       0       0       0       0       0       0       0
       0       0       0       0       0       0       0       0
       0       0       0       0       0       0       0       0
       0       0       0       0       0       0       0       0
       0       0       0       0       0       0       0       0
       0       0       0       0       0       0       0       0
       0       0       0       0       0       0       0       0
       0       0       0       0       0       0       0       0
       0       0       0       0       0       0       0       0
       0       0       0       0       0       0       0       0
       0       0       0       0       0       0       0       0
       0       0       0       0       0       0       0       0
       0       0       0       0       0       0       0       0
       0       0       0       0       0       0       0       0
       0       0       0       0       0       0       0       0
       0       0       0       0       0       0       0       0
       0       0       0       0       0       0       0       0
       0       0       0       0       0       0       0       0
       0       0       0       0       0       0       0       0
       0       0       0       0       0       0       0       0
       0       0       0       0       0       0       0       0
       0       0       0       0       0       0       0       0
       0       0       0       0       0       0       0       0
       0       0       0       0       0       0       0       0
       0       0       0       0       0       0       0       0
       0       0       0       0       0       0       0       0
       0       0       0       0       0       0       0       0
       0       0       0       0       0       0       0       0
       0       0       0       0       0       0       0       0
       0       0       0       0       0       0       0       0
       0       0       0       0       0       0       0       0
       0       0       0       0       0       0       0       0
       0       0       0       0       0       0       0       0
       0       0       0       0       0       0       0       0
       0       0       0       0       0       0       0       0
       0       0       0       0       0       0       0       0
       0       0       0       0       0       0       0       0
       0       0       0       0       0       0       0       0
       0       0       0       0       0       0       0       0
       0       0       0       0       0       0       0       0
       0       0       0       0       0       0       0       0
       0       0       0       0       0       0       0       0
       0       0       0       0       0       0       0       0
       0       0       0       0       0       0       0       0
       0       0       0       0       0       0       0       0
       0       0       0       0       0       0       0       0
       0       0       0       0       0       0       0       0
       0       0       0       0       0       0       0       0
       0       0       0       0       0       0       0       0
       0       0       0       0       0       0       0       0
       0       0       0       0       0       0       0       0
       0       0       0       0       0       0       0       0
       0       0       0       0       0       0       0       0
       0       0       0       0       0       0       0       0
       0       0       0       0       0       0       0       0
       0       0       0       0       0       0       0       0
       0       0       0       0       0       0       0       0
       0       0       0       0       0       0       0       0
       0       0       0       0       0       0       0       0
       0       0       0       0       0       0       0       0
       0       0       0       0       0       0       0       0
       0       0       0       0       0       0       0       0
       0       0       0       0       0       0       0       0
       0       0       0       0       0       0       0       0
       0       0       0       0       0       0       0       0
       0       0       0       0       0       0       0       0
       0       0       0       0       0       0       0       0
       0       0       0       0       0       0       0       0
       0       0       0       0       0       0       0       0
       0       0       0       0       0       0       0       0
       0       0       0       0       0       0       0       0
       0       0       0       0       0       0       0       0
       0       0       0       0       0       0       0       0
       0       0       0       0       0       0       0       0
       0       0       0       0       0       0       0       0
       0       0       0       0       0       0       0       0
       0       0       0       0       0       0       0       0
       0       0       0       0       0       0       0       0
       0       0       0       0       0       0       0       0
       0       0       0       0       0       0       0       0
       0       0       0       0       0       0       0       0
       0       0       0       0       0       0       0       0
       0       0       0       0       0       0       0       0
       0       0       0       0       0       0       0       0
       0       0       0       0       0       0       0       0
       0       0       0       0       0       0       0       0
       0       0       0       0       0       0       0       0
       0       0       0       0       0       0       0       0
       0       0       0       0       0       0       0       0
       0       0       0       0       0       0       0       0
       0       0       0       0       0       0       0       0
       0       0       0       0       0       0       0       0
       0       0       0       0       0       0       0       0
       0       0       0       0       0       0       0       0
       0       0       0       0       0       0       0       0
       0       0       0       0       0       0       0       0
       0       0       0       0       0       0       0       0
       0       0       0       0       0       0       0       0
       0       0       0       0       0       0       0       0
       0       0       0       0       0       0       0       0
       0       0       0       0       0       0       0       0
       0       0       0       0       0       0       0       0
       0       0       0       0       0       0       0       0
       0       0       0       0       0       0       0       0
       0       0       0       0       0       0       0       0
       0       0       0       0       0       0       0       0
       0       0       0       0       0       0       0       0
       0       0       0       0       0       0       0       0
       0       0       0       0       0       0       0       0
       0       0       0       0       0       0       0       0
       0       0       0       0       0       0       0       0
       0       0       0       0       0       0       0       0
       0       0       0       0       0       0       0       0
       0       0       0       0       0       0       0       0
       0       0       0       0       0       0       0       0
       0       0       0       0       0       0       0       0
       0       0       0       0       0       0       0       0
       0       0       0       0       0       0       0       0
       0       0       0       0       0       0       0       0
       0       0       0       0       0       0       0       0
       0       0       0       0       0       0       0       0
       0       0       0       0       0       0       0       0
       0       0       0       0       0       0       0       0
       0       0       0       0       0       0       0       0
       0       0       0       0       0       0       0       0
       0       0       0       0       0       0       0       0
       0       0       0       0       0       0       0       0
       0       0       0       0       0       0       0       0
       0       0       0       0       0       0       0       0
       0       0       0       0       0       0       0       0
       0       0       0       0       0       0       0       0
       0       0       0       0       0       0       0       0
       0       0       0       0       0       0       0       0
       0       0       0       0       0       0       0       0
       0       0       0       0       0       0       0       0
       0       0       0       0       0       0       0       0
       0       0       0       0       0       0       0       0
       0       0       0       0       0       0       0       0
       0       0       0       0       0       0       0       0
       0       0       0       0       0       0       0       0
       0       0       0       0       0       0       0       0
       0       0       0       0       0       0       0       0
       0       0       0       0       0       0       0       0
       0       0       0       0       0       0       0       0
       0       0       0       0       0       0       0       0
       0       0       0       0       0       0       0       0
       0       0       0       0       0       0       0       0
       0       0       0       0       0       0       0       0
       0       0       0       0       0       0       0       0
       0       0       0       0       0       0       0       0
       0       0       0       0       0       0       0       0
       0       0       0       0       0       0       0       0
       0       0       0       0       0       0       0       0
       0       0       0       0       0       0       0       0
       0       0       0       0       0       0       0       0
       0       0       0       0       0       0       0       0
       0       0       0       0       0       0       0       0
       0       0       0       0       0       0       0       0
       0       0       0       0       0       0       0       0
       0       0       0       0       0       0       0       0
       0       0       0       0       0       0       0       0
       0       0       0       0       0       0       0       0
       0       0       0       0       0       0       0       0
       0       0       0       0       0       0       0       0
       0       0       0       0       0       0       0       0
       0       0       0       0       0       0       0       0
       0       0       0       0       0       0       0       0
       0       0       0       0       0       0       0       0
       0       0       0       0       0       0       0       0
       0       0       0       0       0       0       0       0
       0       0       0       0       0       0       0       0
       0       0       0       0       0       0       0       0
       0       0       0       0       0       0       0       0
       0       0       0       0       0       0       0       0
       0       0       0       0       0       0       0       0
       0       0       0       0       0       0       0       0
       0       0       0       0       0       0       0       0
       0       0       0       0       0       0       0       0
       0       0       0       0       0       0       0       0
       0       0       0       0       0       0       0       0
       0       0       0       0       0       0       0       0
       0       0       0       0       0       0       0       0
       0       0       0       0       0       0       0       0
       0       0       0       0       0       0       0       0
       0       0       0       0       0       0       0       0
       0       0       0       0       0       0       0       0
       0       0       0       0       0       0       0       0
       0       0       0       0       0       0       0       0
       0       0       0       0       0       0       0       0
       0       0       0       0       0       0       0       0
       0       0       0       0       0       0       0       0
       0       0       0       0       0       0       0       0
       0       0       0       0       0       0       0       0
       0       0       0       0       0       0       0       0
       0       0       0       0       0       0       0       0
       0       0       0       0       0       0       0       0
       0       0       0       0       0       0       0       0
       0       0       0       0       0       0       0       0
       0       0       0       0       0       0       0       0
       0       0       0       0       0       0       0       0
       0       0       0       0       0       0       0       0
       0       0       0       0       0       0       0       0
       0       0       0       0       0       0       0       0
       0       0       0       0       0       0       0       0
       0       0       0       0       0       0       0       0
       0       0       0       0       0       0       0       0
       0       0       0       0       0       0       0       0
       0       0       0       0       0       0       0       0
       0       0       0       0       0       0       0       0
       0       0       0       0       0       0       0       0
       0       0       0       0       0       0       0       0
       0       0       0       0       0       0       0       0
       0       0       0       0       0       0       0       0
       0       0       0       0       0       0       0       0
       0       0       0       0       0       0       0       0
       0       0       0       0       0       0       0       0
       0       0       0       0       0       0       0       0
       0       0       0       0       0       0       0       0
       0       0       0       0       0       0       0       0
       0       0       0       0       0       0       0       0
       0       0       0       0       0       0       0       0
       0       0       0       0       0       0       0       0
       0       0       0       0       0       0       0       0
       0       0       0       0       0       0       0       0
       0       0       0       0       0       0       0       0
       0       0       0       0       0       0       0       0
       0       0       0       0       0       0       0       0
       0       0       0       0       0       0       0       0
       0       0       0       0       0       0       0       0
       0       0       0       0       0       0       0       0
       0       0       0       0       0       0       0       0
       0       0       0       0       0       0       0       0
       0       0       0       0       0       0       0       0
       0       0       0       0       0       0       0       0
       0       0       0       0       0       0       0       0
       0       0       0       0       0       0       0       0
       0       0       0       0       0       0       0       0
       0       0       0       0       0       0       0       0
       0       0       0       0       0       0       0       0
       0       0       0       0       0       0       0       0
       0       0       0       0       0       0       0       0
       0       0       0       0       0       0       0       0
       0       0       0       0       0       0       0       0
       0       0       0       0       0       0       0       0
       0       0       0       0       0       0       0       0
       0       0       0       0       0       0       0       0
       0       0       0       0       0       0       0       0
       0       0       0       0       0       0       0       0
       0       0       0       0       0       0       0       0
       0       0       0       0       0       0       0       0
       0       0       0       0       0       0       0       0
       0       0       0       0       0       0       0       0
       0       0       0       0       0       0       0       0
       0       0       0       0       0       0       0       0
       0       0       0       0       0       0       0       0
       0       0       0       0       0       0       0       0
       0       0       0       0       0       0       0       0
       0       0       0       0       0       0       0       0
       0       0       0       0       0       0       0       0
       0       0       0       0       0       0       0       0
       0       0       0       0       0       0       0       0
       0       0       0       0       0       0       0       0
       0       0       0       0       0       0       0       0
       0       0       0       0       0       0       0       0
       0       0       0       0       0       0       0       0
       0       0       0       0       0       0       0       0
       0       0       0       0       0       0       0       0
       0       0       0       0       0       0       0       0
       0       0       0       0       0       0       0       0
       0       0       0       0       0       0       0       0
       0       0       0       0       0       0       0       0
       0       0       0       0       0       0       0       0
       0       0       0       0       0       0       0       0
       0       0       0       0       0       0       0       0
       0       0       0       0       0       0       0       0
       0       0       0       0       0       0       0       0
       0       0       0       0       0       0       0       0
       0       0       0       0       0       0       0       0
       0       0       0       0       0       0       0       0
       0       0       0       0       0       0       0       0
       0       0       0       0       0       0       0       0
       0       0       0       0       0       0       0       0
       0       0       0       0       0       0       0       0
       0       0       0       0       0       0       0       0
       0       0       0       0       0       0       0       0
       0       0       0       0       0       0       0       0
       0       0       0       0       0       0       0       0
       0       0       0       0       0       0       0       0
       0       0       0       0       0       0       0       0
       0       0       0       0       0       0       0       0
       0       0       0       0       0       0       0       0
       0       0       0       0       0       0       0       0
       0       0       0       0       0       0       0       0
       0       0       0       0       0       0       0       0
       0       0       0       0       0       0       0       0
       0       0       0       0       0       0       0       0
       0       0       0       0       0       0       0       0
       0       0       0       0       0       0       0       0
       0       0       0       0       0       0       0       0
       0       0       0       0       0       0       0       0
       0       0       0       0       0       0       0       0
       0       0       0       0       0       0       0       0
       0       0       0       0       0       0       0       0
       0       0       0       0       0       0       0       0
       0       0       0       0       0       0       0       0
       0       0       0       0       0       0       0       0
       0       0       0       0       0       0       0       0
       0       0       0       0       0       0       0       0
       0       0       0       0       0       0       0       0
       0       0       0       0       0       0       0       0
       0       0       0       0       0       0       0       0
       0       0       0       0       0       0       0       0
       0       0       0       0       0       0       0       0
       0       0       0       0       0       0       0       0
       0       0       0       0       0       0       0       0
       0       0       0       0       0       0       0       0
       0       0       0       0       0       0       0       0
       0       0       0       0       0       0       0       0
       0       0       0       0       0       0       0       0
       0       0       0       0       0       0       0       0
       0       0       0       0       0       0       0       0
       0       0       0       0       0       0       0       0
       0       0       0       0       0       0       0       0
       0       0       0       0       0       0       0       0
       0       0       0       0       0       0       0       0
       0       0       0       0       0       0       0       0
       0       0       0       0       0       0       0       0
       0       0       0       0       0       0       0       0
       0       0       0       0       0       0       0       0
       0       0       0       0       0       0       0       0
       0       0       0       0       0       0       0       0
       0       0       0       0       0       0       0       0
       0       0       0       0       0       0       0       0
       0       0       0       0       0       0       0       0
       0       0       0       0       0       0       0       0
       0       0       0       0       0       0       0       0
       0       0       0       0       0       0       0       0
       0       0       0       0       0       0       0       0
       0       0       0       0       0       0       0       0
       0       0       0       0       0       0       0       0
       0       0       0       0       0       0       0       0
       0       0       0       0       0       0       0       0
       0       0       0       0       0       0       0       0
       0       0       0       0       0       0       0       0
       0       0       0       0       0       0       0       0
       0       0       0       0       0       0       0       0
       0       0       0       0       0       0       0       0
       0       0       0       0       0       0       0       0
       0       0       0       0       0       0       0       0
       0       0       0       0       0       0       0       0
       0       0       0       0       0       0       0       0
       0       0       0       0       0       0       0       0
       0       0       0       0       0       0       0       0
       0       0       0       0       0       0       0       0
       0       0       0       0       0       0       0       0
       0       0       0       0       0       0       0       0
       0       0       0       0       0       0       0       0
       0       0       0       0       0       0       0       0
       0       0       0       0       0       0       0       0
       0       0       0       0       0       0       0       0
       0       0       0       0       0       0       0       0
       0       0       0       0       0       0       0       0
       0       0       0       0       0       0       0       0
       0       0       0       0       0       0       0       0
       0       0       0       0       0       0       0       0
       0       0       0       0       0       0       0       0
       0       0       0       0       0       0       0       0
       0       0       0       0       0       0       0       0
       0       0       0       0       0       0       0       0
       0       0       0       0       0       0       0       0
       0       0       0       0       0       0       0       0
       0       0       0       0       0       0       0       0
       0       0       0       0       0       0       0       0
       0       0       0       0       0       0       0       0
       0       0       0       0       0       0       0       0
       0       0       0       0       0       0       0       0
       0       0       0       0       0       0       0       0
       0       0       0       0       0       0       0       0
       0       0       0       0       0       0       0       0
       0       0       0       0       0       0       0       0
       0       0       0       0       0       0       0       0
       0       0       0       0       0       0       0       0
       0       0       0       0       0       0       0       0
       0       0       0       0       0       0       0       0
       0       0       0       0       0       0       0       0
       0       0       0       0       0       0       0       0
       0       0       0       0       0       0       0       0
       0       0       0       0       0       0       0       0
       0       0       0       0       0       0       0       0
       0       0       0       0       0       0       0       0
       0       0       0       0       0       0       0       0
       0       0       0       0       0       0       0       0
       0       0       0       0       0       0       0       0
       0       0       0       0       0       0       0       0
       0       0       0       0       0       0       0       0
       0       0       0       0       0       0       0       0
       0       0       0       0       0       0       0       0
       0       0       0       0       0       0       0       0
       0       0       0       0       0       0       0       0
       0       0       0       0       0       0       0       0
       0       0       0       0       0       0       0       0
       0       0       0       0       0       0       0       0
       0       0       0       0       0       0       0       0
       0       0       0       0       0       0       0       0
       0       0       0       0       0       0       0       0
       0       0       0       0       0       0       0       0
       0       0       0       0       0       0       0       0
       0       0       0       0       0       0       0       0
       0       0       0       0       0       0       0       0
       0       0       0       0       0       0       0       0
       0       0       0       0       0       0       0       0
       0       0       0       0       0       0       0       0
       0       0       0       0       0       0       0       0
       0       0       0       0       0       0       0       0
       0       0       0       0       0       0       0       0
       0       0       0       0       0       0       0       0
       0       0       0       0       0       0       0       0
       0       0       0       0       0       0       0       0
       0       0       0       0       0       0       0       0
       0       0       0       0       0       0       0       0
       0       0       0       0       0       0       0       0
       0       0       0       0       0       0       0       0
       0       0       0       0       0       0       0       0
       0       0       0       0       0       0       0       0
       0       0       0       0       0       0       0       0
       0       0       0       0       0       0       0       0
       0       0       0       0       0       0       0       0
       0       0       0       0       0       0       0       0
       0       0       0       0       0       0       0       0
       0       0       0       0       0       0       0       0
       0       0       0       0       0       0       0       0
       0       0       0       0       0       0       0       0
       0       0       0       0       0       0       0       0
       0       0       0       0       0       0       0       0
       0       0       0       0       0       0       0       0
       0       0       0       0       0       0       0       0
       0       0       0       0       0       0       0       0
       0       0       0       0       0       0       0       0
       0       0       0       0       0       0       0       0
       0       0       0       0       0       0       0       0
       0       0       0       0       0       0       0       0
       0       0       0       0       0       0       0       0
       0       0       0       0       0       0       0       0
       0       0       0       0       0       0       0       0
       0       0       0       0       0       0       0       0
       0       0       0       0       0       0       0       0
       0       0       0       0       0       0       0       0
       0       0       0       0       0       0       0       0
       0       0       0       0       0       0       0       0
       0       0       0       0       0       0       0       0
       0       0       0       0       0       0       0       0
       0       0       0       0       0       0       0       0
       0       0       0       0       0       0       0       0
       0       0       0       0       0       0       0       0
       0       0       0       0       0       0       0       0
       0       0       0       0       0       0       0       0
       0       0       0       0       0       0       0       0
       0       0       0       0       0       0       0       0
       0       0       0       0       0       0       0       0
       0       0       0       0       0       0       0       0
       0       0       0       0       0       0       0       0
       0       0       0       0       0       0       0       0
       0       0       0       0       0       0       0       0
       0       0       0       0       0       0       0       0
       0       0       0       0       0       0       0       0
       0       0       0       0       0       0       0       0
       0       0       0       0       0       0       0       0
       0       0       0       0       0       0       0       0
       0       0       0       0       0       0       0       0
       0       0       0       0       0       0       0       0
       0       0       0       0       0       0       0       0
       0       0       0       0       0       0       0       0
       0       0       0       0       0       0       0       0
       0       0       0       0       0       0       0       0
       0       0       0       0       0       0       0       0
       0       0       0       0       0       0       0       0
       0       0       0       0       0       0       0       0
       0       0       0       0       0       0       0       0
       0       0       0       0       0       0       0       0
       0       0       0       0       0       0       0       0
       0       0       0       0       0       0       0       0
       0       0       0       0       0       0       0       0
       0       0       0       0       0       0       0       0
       0       0       0       0       0       0       0       0
       0       0       0       0       0       0       0       0
       0       0       0       0       0       0       0       0
       0       0       0       0       0       0       0       0
       0       0       0       0       0       0       0       0
       0       0       0       0       0       0       0       0
       0       0       0       0       0       0       0       0
       0       0       0       0       0       0       0       0
       0       0       0       0       0       0       0       0
       0       0       0       0       0       0       0       0
       0       0       0       0       0       0       0       0
       0       0       0       0       0       0       0       0
       0       0       0       0       0       0       0       0
       0       0       0       0       0       0       0       0
       0       0       0       0       0       0       0       0
       0       0       0       0       0       0       0       0
       0       0       0       0       0       0       0       0
       0       0       0       0       0       0       0       0
       0       0       0       0       0       0       0       0
       0       0       0       0       0       0       0       0
       0       0       0       0       0       0       0       0
       0       0       0       0       0       0       0       0
       0       0       0       0       0       0       0       0
       0       0       0       0       0       0       0       0
       0       0       0       0       0       0       0       0
       0       0       0       0       0       0       0       0
       0       0       0       0       0       0       0       0
       0       0       0       0       0       0       0       0
       0       0       0       0       0       0       0       0
       0       0       0       0       0       0       0       0
       0       0       0       0       0       0       0       0
       0       0       0       0       0       0       0       0
       0       0       0       0       0       0       0       0
       0       0       0       0       0       0       0       0
       0       0       0       0       0       0       0       0
       0       0       0       0       0       0       0       0
       0       0       0       0       0       0       0       0
       0       0       0       0       0       0       0       0
       0       0       0       0       0       0       0       0
       0       0       0       0       0       0       0       0
       0       0       0       0       0       0       0       0
       0       0       0       0       0       0       0       0
       0       0       0       0       0       0       0       0
       0       0       0       0       0       0       0       0
       0       0       0       0       0       0       0       0
       0       0       0       0       0       0       0       0
       0       0       0       0       0       0       0       0
       0       0       0       0       0       0       0       0
       0       0       0       0       0       0       0       0
       0       0       0       0       0       0       0       0
       0       0       0       0       0       0       0       0
       0       0       0       0       0       0       0       0
       0       0       0       0       0       0       0       0
       0       0       0       0       0       0       0       0
       0       0       0       0       0       0       0       0
       0       0       0       0       0       0       0       0
       0       0       0       0       0       0       0       0
       0       0       0       0       0       0       0       0
       0       0       0       0       0       0       0       0
       0       0       0       0       0       0       0       0
       0       0       0       0       0       0       0       0
       0       0       0       0       0       0       0       0
       0       0       0       0       0       0       0       0
       0       0       0       0       0       0       0       0
       0       0       0       0       0       0       0       0
       0       0       0       0       0       0       0       0
       0       0       0       0       0       0       0       0
       0       0       0       0       0       0       0       0
       0       0       0       0       0       0       0       0
       0       0       0       0       0       0       0       0
       0       0       0       0       0       0       0       0
       0       0       0       0       0       0       0       0
       0       0       0       0       0       0       0       0
       0       0       0       0       0       0       0       0
       0       0       0       0       0       0       0       0
       0       0       0       0       0       0       0       0
       0       0       0       0       0       0       0       0
       0       0       0       0       0       0       0       0
       0       0       0       0       0       0       0       0
       0       0       0       0       0       0       0       0
       0       0       0       0       0       0       0       0
       0       0       0       0       0       0       0       0
       0       0       0       0       0       0       0       0
       0       0       0       0       0       0       0       0
       0       0       0       0       0       0       0       0
       0       0       0       0       0       0       0       0
       0       0       0       0       0       0       0       0
       0       0       0       0       0       0       0       0
       0       0       0       0       0       0       0       0
       0       0       0       0       0       0       0       0
       0       0       0       0       0       0       0       0
       0       0       0       0       0       0       0       0
       0       0       0       0       0       0       0       0
       0       0       0       0       0       0       0       0
       0       0       0       0       0       0       0       0
       0       0       0       0       0       0       0       0
       0       0       0       0       0       0       0       0
       0       0       0       0       0       0       0       0
       0       0       0       0       0       0       0       0
       0       0       0       0       0       0       0       0
       0       0       0       0       0       0       0       0
       0       0       0       0       0       0       0       0
       0       0       0       0       0       0       0       0
       0       0       0       0       0       0       0       0
       0       0       0       0       0       0       0       0
       0       0       0       0       0       0       0       0
       0       0       0       0       0       0       0       0
       0       0       0       0       0       0       0       0
       0       0       0       0       0       0       0       0
       0       0       0       0       0       0       0       0
       0       0       0       0       0       0       0       0
       0       0       0       0       0       0       0       0
       0       0       0       0       0       0       0       0
       0       0       0       0       0       0       0       0
       0       0       0       0       0       0       0       0
       0       0       0       0       0       0       0       0
       0       0       0       0       0       0       0       0
       0       0       0       0       0       0       0       0
       0       0       0       0       0       0       0       0
       0       0       0       0       0       0       0       0
       0       0       0       0       0       0       0       0
       0       0       0       0       0       0       0       0
       0       0       0       0       0       0       0       0
       0       0       0       0       0       0       0       0
       0       0       0       0       0       0       0       0
       0       0       0       0       0       0       0       0
       0       0       0       0       0       0       0       0
       0       0       0       0       0       0       0       0
       0       0       0       0       0       0       0       0
       0       0       0       0       0       0       0       0
       0       0       0       0       0       0       0       0
       0       0       0       0       0       0       0       0
       0       0       0       0       0       0       0       0
       0       0       0       0       0       0       0       0
       0       0       0       0       0       0       0       0
       0       0       0       0       0       0       0       0
       0       0       0       0       0       0       0       0
       0       0       0       0       0       0       0       0
       0       0       0       0       0       0       0       0
       0       0       0       0       0       0       0       0
       0       0       0       0       0       0       0       0
       0       0       0       0       0       0       0       0
       0       0       0       0       0       0       0       0
       0       0       0       0       0       0       0       0
       0       0       0       0       0       0       0       0
       0       0       0       0       0       0       0       0
       0       0       0       0       0       0       0       0
       0       0       0       0       0       0       0       0
       0       0       0       0       0       0       0       0
       0       0       0       0       0       0       0       0
       0       0       0       0       0       0       0       0
       0       0       0       0       0       0       0       0
       0       0       0       0       0       0       0       0
       0       0       0       0       0       0       0       0
       0       0       0       0       0       0       0       0
       0       0       0       0       0       0       0       0
       0       0       0       0       0       0       0       0
       0       0       0       0       0       0       0       0
       0       0       0       0       0       0       0       0
       0       0       0       0       0       0       0       0
       0       0       0       0       0       0       0       0
       0       0       0       0       0       0       0       0
       0       0       0       0       0       0       0       0
       0       0       0       0       0       0       0       0
       0       0       0       0       0       0       0       0
       0       0       0       0       0       0       0       0
       0       0       0       0       0       0       0       0
       0       0       0       0       0       0       0       0
       0       0       0       0       0       0       0       0
       0       0       0       0       0       0       0       0
       0       0       0       0       0       0       0       0
       0       0       0       0       0       0       0       0
       0       0       0       0       0       0       0       0
       0       0       0       0       0       0       0       0
       0       0       0       0       0       0       0       0
       0       0       0       0       0       0       0       0
       0       0       0       0       0       0       0       0
       0       0       0       0       0       0       0       0
       0       0       0       0       0       0       0       0
       0       0       0       0       0       0       0       0
       0       0       0       0       0       0       0       0
       0       0       0       0       0       0       0       0
       0       0       0       0       0       0       0       0
       0       0       0       0       0       0       0       0
       0       0       0       0       0       0       0       0
       0       0       0       0       0       0       0       0
       0       0       0       0       0       0       0       0
       0       0       0       0       0       0       0       0
       0       0       0       0       0       0       0       0
       0       0       0       0       0       0       0       0
       0       0       0       0       0       0       0       0
       0       0       0       0       0       0       0       0
       0       0       0       0       0       0       0       0
       0       0       0       0       0       0       0       0
       0       0       0       0       0       0       0       0
       0       0       0       0       0       0       0       0
       0       0       0       0       0       0       0       0
       0       0       0       0       0       0       0       0
       0       0       0       0       0       0       0       0
       0       0       0       0       0       0       0       0
       0       0       0       0       0       0       0       0
       0       0       0       0       0       0       0       0
       0       0       0       0       0       0       0       0
       0       0       0       0       0       0       0       0
       0       0       0       0       0       0       0       0
       0       0       0       0       0       0       0       0
       0       0       0       0       0       0       0       0
       0       0       0       0       0       0       0       0
       0       0       0       0       0       0       0       0
       0       0       0       0       0       0       0       0
       0       0       0       0       0       0       0       0
       0       0       0       0       0       0       0       0
       0       0       0       0       0       0       0       0
       0       0       0       0       0       0       0       0
       0       0       0       0       0       0       0       0
       0       0       0       0       0       0       0       0
       0       0       0       0       0       0       0       0
       0       0       0       0       0       0       0       0
       0       0       0       0       0       0       0       0
       0       0       0       0       0       0       0       0
       0       0       0       0       0       0       0       0
       0       0       0       0       0       0       0       0
       0       0       0       0       0       0       0       0
       0       0       0       0       0       0       0       0
       0       0       0       0       0       0       0       0
       0       0       0       0       0       0       0       0
       0       0       0       0       0       0       0       0
       0       0       0       0       0       0       0       0
       0       0       0       0       0       0       0       0
       0       0       0       0       0       0       0       0
       0       0       0       0       0       0       0       0
       0       0       0       0       0       0       0       0
       0       0       0       0       0       0       0       0
       0       0       0       0       0       0       0       0
       0       0       0       0       0       0       0       0
       0       0       0       0       0       0       0       0
       0       0       0       0       0       0       0       0
       0       0       0       0       0       0       0       0
       0       0       0       0       0       0       0       0
       0       0       0       0       0       0       0       0
       0       0       0       0       0       0       0       0
       0       0       0       0       0       0       0       0
       0       0       0       0       0       0       0       0
       0       0       0       0       0       0       0       0
       0       0       0       0       0       0       0       0
       0       0       0       0       0       0       0       0
       0       0       0       0       0       0       0       0
       0       0       0       0       0       0       0       0
       0       0       0       0       0       0       0       0
       0       0       0       0       0       0       0       0
       0       0       0       0       0       0       0       0
       0       0       0       0       0       0       0       0
       0       0       0       0       0       0       0       0
       0       0       0       0       0       0       0       0
       0       0       0       0       0       0       0       0
       0       0       0       0       0       0       0       0
       0       0       0       0       0       0       0       0
       0       0       0       0       0       0       0       0
       0       0       0       0       0       0       0       0
       0       0       0       0       0       0       0       0
       0       0       0       0       0       0       0       0
       0       0       0       0       0       0       0       0
       0       0       0       0       0       0       0       0
       0       0       0       0       0       0       0       0
       0       0       0       0       0       0       0       0
       0       0       0       0       0       0       0       0
       0       0       0       0       0       0       0       0
       0       0       0       0       0       0       0       0
       0       0       0       0       0       0       0       0
       0       0       0       0       0       0       0       0
       0       0       0       0       0       0       0       0
       0       0       0       0       0       0       0       0
       0       0       0       0       0       0       0       0
       0       0       0       0       0       0       0       0
       0       0       0       0       0       0       0       0
       0       0       0       0       0       0       0       0
       0       0       0       0       0       0       0       0
       0       0       0       0       0       0       0       0
       0       0       0       0       0       0       0       0
       0       0       0       0       0       0       0       0
       0       0       0       0       0       0       0       0
       0       0       0       0       0       0       0       0
       0       0       0       0       0       0       0       0
       0       0       0       0       0       0       0       0
       0       0       0       0       0       0       0       0
       0       0       0       0       0       0       0       0
       0       0       0       0       0       0       0       0
       0       0       0       0       0       0       0       0
       0       0       0       0       0       0       0       0
       0       0       0       0       0       0       0       0
       0       0       0       0       0       0       0       0
       0       0       0       0       0       0       0       0
       0       0       0       0       0       0       0       0
       0       0       0       0       0       0       0       0
       0       0       0       0       0       0       0       0
       0       0       0       0       0       0       0       0
       0       0       0       0       0       0       0       0
       0       0       0       0       0       0       0       0
       0       0       0       0       0       0       0       0
       0       0       0       0       0       0       0       0
       0       0       0       0       0       0       0       0
       0       0       0       0       0       0       0       0
       0       0       0       0       0       0       0       0
       0       0       0       0       0       0       0       0
       0       0       0       0       0       0       0       0
       0       0       0       0       0       0       0       0
       0       0       0       0       0       0       0       0
       0       0       0       0       0       0       0       0
       0       0       0       0       0       0       0       0
       0       0       0       0       0       0       0       0
       0       0       0       0       0       0       0       0
       0       0       0       0       0       0       0       0
       0       0       0       0       0       0       0       0
       0       0       0       0       0       0       0       0
       0       0       0       0       0       0       0       0
       0       0       0       0       0       0       0       0
       0       0       0       0       0       0       0       0
       0       0       0       0       0       0       0       0
       0       0       0       0       0       0       0       0
       0       0       0       0       0       0       0       0
       0       0       0       0       0       0       0       0
       0       0       0       0       0       0       0       0
       0       0       0       0       0       0       0       0
       0       0       0       0       0       0       0       0
       0       0       0       0       0       0       0       0
       0       0       0       0       0       0       0       0
       0       0       0       0       0       0       0       0
       0       0       0       0       0       0       0       0
       0       0       0       0       0       0       0       0
       0       0       0       0       0       0       0       0
       0       0       0       0       0       0       0       0
       0       0       0       0       0       0       0       0
       0       0       0       0       0       0       0       0
       0       0       0       0       0       0       0       0
       0       0       0       0       0       0       0       0
       0       0       0       0       0       0       0       0
       0       0       0       0       0       0       0       0
       0       0       0       0       0       0       0       0
       0       0       0       0       0       0       0       0
       0       0       0       0       0       0       0       0
       0       0       0       0       0       0       0       0
       0       0       0       0       0       0       0       0
       0       0       0       0       0       0       0       0
       0       0       0       0       0       0       0       0
       0       0       0       0       0       0       0       0
       0       0       0       0       0       0       0       0
       0       0       0       0       0       0       0       0
       0       0       0       0       0       0       0       0
       0       0       0       0       0       0       0       0
       0       0       0       0       0       0       0       0
       0       0       0       0       0       0       0       0
       0       0       0       0       0       0       0       0
       0       0       0       0       0       0       0       0
       0       0       0       0       0       0       0       0
       0       0       0       0       0       0       0       0
       0       0       0       0       0       0       0       0
       0       0       0       0       0       0       0       0
       0       0       0       0       0       0       0       0
       0       0       0       0       0       0       0       0
       0       0       0       0       0       0       0       0
       0       0       0       0       0       0       0       0
       0       0       0       0       0       0       0       0
       0       0       0       0       0       0       0       0
       0       0       0       0       0       0       0       0
       0       0       0       0       0       0       0       0
       0       0       0       0       0       0       0       0
       0       0       0       0       0       0       0       0
       0       0       0       0       0       0       0       0
       0       0       0       0       0       0       0       0
       0       0       0       0       0       0       0       0
       0       0       0       0       0       0       0       0
       0       0       0       0       0       0       0       0
       0       0       0       0       0       0       0       0
       0       0       0       0       0       0       0       0
       0       0       0       0       0       0       0       0
       0       0       0       0       0       0       0       0
       0       0       0       0       0       0       0       0
       0       0       0       0       0       0       0       0
       0       0       0       0       0       0       0       0
       0       0       0       0       0       0       0       0
       0       0       0       0       0       0       0       0
       0       0       0       0       0       0       0       0
       0       0       0       0       0       0       0       0
       0       0       0       0       0       0       0       0
       0       0       0       0       0       0       0       0
       0       0       0       0       0       0       0       0
       0       0       0       0       0       0       0       0
       0       0       0       0       0       0       0       0
       0       0       0       0       0       0       0       0
       0       0       0       0       0       0       0       0
       0       0       0       0       0       0       0       0
       0       0       0       0       0       0       0       0
       0       0       0       0       0       0       0       0
       0       0       0       0       0       0       0       0
       0       0       0       0       0       0       0       0
       0       0       0       0       0       0       0       0
       0       0       0       0       0       0       0       0
       0       0       0       0       0       0       0       0
       0       0       0       0       0       0       0       0
       0       0       0       0       0       0       0       0
       0       0       0       0       0       0       0       0
       0       0       0       0       0       0       0       0
       0       0       0       0       0       0       0       0
       0       0       0       0       0       0       0       0
       0       0       0       0       0       0       0       0
       0       0       0       0       0       0       0       0
       0       0       0       0       0       0       0       0
       0       0       0       0       0       0       0       0
       0       0       0       0       0       0       0       0
       0       0       0       0       0       0       0       0
       0       0       0       0       0       0       0       0
       0       0       0       0       0       0       0       0
       0       0       0       0       0       0       0       0
       0       0       0       0       0       0       0       0
       0       0       0       0       0       0       0       0
       0       0       0       0       0       0       0       0
       0       0       0       0       0       0       0       0
       0       0       0       0       0       0       0       0
       0       0       0       0       0       0       0       0
       0       0       0       0       0       0       0       0
       0       0       0       0       0       0       0       0
       0       0       0       0       0       0       0       0
       0       0       0       0       0       0       0       0
       0       0       0       0       0       0       0       0
       0       0       0       0       0       0       0       0
       0       0       0       0       0       0       0       0
       0       0       0       0       0       0       0       0
       0       0       0       0       0       0       0       0
       0       0       0       0       0       0       0       0
       0       0       0       0       0       0       0       0
       0       0       0       0       0       0       0       0
       0       0       0       0       0       0       0       0
       0       0       0       0       0       0       0       0
       0       0       0       0       0       0       0       0
       0       0       0       0       0       0       0       0
       0       0       0       0       0       0       0       0
       0       0       0       0       0       0       0       0
       0       0       0       0       0       0       0       0
       0       0       0       0       0       0       0       0
       0       0       0       0       0       0       0       0
       0       0       0       0       0       0       0       0
       0       0       0       0       0       0       0       0
       0       0       0       0       0       0       0       0
       0       0       0       0       0       0       0       0
       0       0       0       0       0       0       0       0
       0       0       0       0       0       0       0       0
       0       0       0       0       0       0       0       0
       0       0       0       0       0       0       0       0
       0       0       0       0       0       0       0       0
       0       0       0       0       0       0       0       0
       0       0       0       0       0       0       0       0
       0       0       0       0       0       0       0       0
       0       0       0       0       0       0       0       0
       0       0       0       0       0       0       0       0
       0       0       0       0       0       0       0       0
       0       0       0       0       0       0       0       0
       0       0       0       0       0       0       0       0
       0       0       0       0       0       0       0       0
       0       0       0       0       0       0       0       0
       0       0       0       0       0       0       0       0
       0       0       0       0       0       0       0       0
       0       0       0       0       0       0       0       0
       0       0       0       0       0       0       0       0
       0       0       0       0       0       0       0       0
       0       0       0       0       0       0       0       0
       0       0       0       0       0       0       0       0
       0       0       0       0       0       0       0       0
       0       0       0       0       0       0       0       0
       0       0       0       0       0       0       0       0
       0       0       0       0       0       0       0       0
       0       0       0       0       0       0       0       0
       0       0       0       0       0       0       0       0
       0       0       0       0       0       0       0       0
       0       0       0       0       0       0       0       0
       0       0       0       0       0       0       0       0
       0       0       0       0       0       0       0       0
       0       0       0       0       0       0       0       0
       0       0       0       0       0       0       0       0
       0       0       0       0       0       0       0       0
       0       0       0       0       0       0       0       0
       0       0       0       0       0       0       0       0
       0       0       0       0       0       0       0       0
       0       0       0       0       0       0       0       0
       0       0       0       0       0       0       0       0
       0       0       0       0       0       0       0       0
       0       0       0       0       0       0       0       0
       0       0       0       0       0       0       0       0
       0       0       0       0       0       0       0       0
       0       0       0       0       0       0       0       0
       0       0       0       0       0       0       0       0
       0       0       0       0       0       0       0       0
       0       0       0       0       0       0       0       0
       0       0       0       0       0       0       0       0
       0       0       0       0       0       0       0       0
       0       0       0       0       0       0       0       0
       0       0       0       0       0       0       0       0
       0       0       0       0       0       0       0       0
       0       0       0       0       0       0       0       0
       0       0       0       0       0       0       0       0
       0       0       0       0       0       0       0       0
       0       0       0       0       0       0       0       0
       0       0       0       0       0       0       0       0
       0       0       0       0       0       0       0       0
       0       0       0       0       0       0       0       0
       0       0       0       0       0       0       0       0
       0       0       0       0       0       0       0       0
       0       0       0       0       0       0       0       0
       0       0       0       0       0       0       0       0
       0       0       0       0       0       0       0       0
       0       0       0       0       0       0       0       0
       0       0       0       0       0       0       0       0
       0       0       0       0       0       0       0       0
       0       0       0       0       0       0       0       0
       0       0       0       0       0       0       0       0
       0       0       0       0       0       0       0       0
       0       0       0       0       0       0       0       0
       0       0       0       0       0       0       0       0
       0       0       0       0       0       0       0       0
       0       0       0       0       0       0       0       0
       0       0       0       0       0       0       0       0
       0       0       0       0       0       0       0       0
       0       0       0       0       0       0       0       0
       0       0       0       0       0       0       0       0
       0       0       0       0       0       0       0       0
       0       0       0       0       0       0       0       0
       0       0       0       0       0       0       0       0
       0       0       0       0       0       0       0       0
       0       0       0       0       0       0       0       0
       0       0       0       0       0       0       0       0
       0       0       0       0       0       0       0       0
       0       0       0       0       0       0       0       0
       0       0       0       0       0       0       0       0
       0       0       0       0       0       0       0       0
       0       0       0       0       0       0       0       0
       0       0       0       0       0       0       0       0
       0       0       0       0       0       0       0       0
       0       0       0       0       0       0       0       0
       0       0       0       0       0       0       0       0
       0       0       0       0       0       0       0       0
       0       0       0       0       0       0       0       0
       0       0       0       0       0       0       0       0
       0       0       0       0       0       0       0       0
       0       0       0       0       0       0       0       0
       0       0       0       0       0       0       0       0
       0       0       0       0       0       0       0       0
       0       0       0       0       0       0       0       0
       0       0       0       0       0       0       0       0
       0       0       0       0       0       0       0       0
       0       0       0       0       0       0       0       0
       0       0       0       0       0       0       0       0
       0       0       0       0       0       0       0       0
       0       0       0       0       0       0       0       0
       0       0       0       0       0       0       0       0
       0       0       0       0       0       0       0       0
       0       0       0       0       0       0       0       0
       0       0       0       0       0       0       0       0
       0       0       0       0       0       0       0       0
       0       0       0       0       0       0       0       0
       0       0       0       0       0       0       0       0
       0       0       0       0       0       0       0       0
       0       0       0       0       0       0       0       0
       0       0       0       0       0       0       0       0
       0       0       0       0       0       0       0       0
       0       0       0       0       0       0       0       0
       0       0       0       0       0       0       0       0
       0       0       0       0       0       0       0       0
       0       0       0       0       0       0       0       0
       0       0       0       0       0       0       0       0
       0       0       0       0       0       0       0       0
       0       0       0       0       0       0       0       0
       0       0       0       0       0       0       0       0
       0       0       0       0       0       0       0       0
       0       0       0       0       0       0       0       0
       0       0       0       0       0       0       0       0
       0       0       0       0       0       0       0       0
       0       0       0       0       0       0       0       0
       0       0       0       0       0       0       0       0
       0       0       0       0       0       0       0       0
       0       0       0       0       0       0       0       0
       0       0       0       0       0       0       0       0
       0       0       0       0       0       0       0       0
       0       0       0       0       0       0       0       0
       0       0       0       0       0       0       0       0
       0       0       0       0       0       0       0       0
       0       0       0       0       0       0       0       0
       0       0       0       0       0       0       0       0
       0       0       0       0       0       0       0       0
       0       0       0       0       0       0       0       0
       0       0       0       0       0       0       0       0
       0       0       0       0       0       0       0       0
       0       0       0       0       0       0       0       0
       0       0       0       0       0       0       0       0
       0       0       0       0       0       0       0       0
       0       0       0       0       0       0       0       0
       0       0       0       0       0       0       0       0
       0       0       0       0       0       0       0       0
       0       0       0       0       0       0       0       0
       0       0       0       0       0       0       0       0
       0       0       0       0       0       0       0       0
       0       0       0       0       0       0       0       0
       0       0       0       0       0       0       0       0
       0       0       0       0       0       0       0       0
       0       0       0       0       0       0       0       0
       0       0       0       0       0       0       0       0
       0       0       0       0       0       0       0       0
       0       0       0       0       0       0       0       0
       0       0       0       0       0       0       0       0
       0       0       0       0       0       0       0       0
       0       0       0       0       0       0       0       0
       0       0       0       0       0       0       0       0
       0       0       0       0       0       0       0       0
       0       0       0       0       0       0       0       0
       0       0       0       0       0       0       0       0
       0       0       0       0       0       0       0       0
       0       0       0       0       0       0       0       0
       0       0       0       0       0       0       0       0
       0       0       0       0       0       0       0       0
       0       0       0       0       0       0       0       0
       0       0       0       0       0       0       0       0
       0       0       0       0       0       0       0       0
       0       0       0       0       0       0       0       0
       0       0       0       0       0       0       0       0
       0       0       0       0       0       0       0       0
       0       0       0       0       0       0       0       0
       0       0       0       0       0       0       0       0
       0       0       0       0       0       0       0       0
       0       0       0       0       0       0       0       0
       0       0       0       0       0       0       0       0
       0       0       0       0       0       0       0       0
       0       0       0       0       0       0       0       0
       0       0       0       0       0       0       0       0
       0       0       0       0       0       0       0       0
       0       0       0       0       0       0       0       0
       0       0       0       0       0       0       0       0
       0       0       0       0       0       0       0       0
       0       0       0       0       0       0       0       0
       0       0       0       0       0       0       0       0
       0       0       0       0       0       0       0       0
       0       0       0       0       0       0       0       0
       0       0       0       0       0       0       0       0
       0       0       0       0       0       0       0       0
       0       0       0       0       0       0       0       0
       0       0       0       0       0       0       0       0
       0       0       0       0       0       0       0       0
       0       0       0       0       0       0       0       0
       0       0       0       0       0       0       0       0
       0       0       0       0       0       0       0       0
       0       0       0       0       0       0       0       0
       0       0       0       0       0       0       0       0
       0       0       0       0       0       0       0       0
       0       0       0       0       0       0       0       0
       0       0       0       0       0       0       0       0
       0       0       0       0       0       0       0       0
       0       0       0       0       0       0       0       0
       0       0       0       0       0       0       0       0
       0       0       0       0       0       0       0       0
       0       0       0       0       0       0       0       0
       0       0       0       0       0       0       0       0
       0       0       0       0       0       0       0       0
       0       0       0       0       0       0       0       0
       0       0       0       0       0       0       0       0
       0       0       0       0       0       0       0       0
       0       0       0       0       0       0       0       0
       0       0       0       0       0       0       0       0
       0       0       0       0       0       0       0       0
       0       0       0       0       0       0       0       0
       0       0       0       0       0       0       0       0
       0       0       0       0       0       0       0       0
       0       0       0       0       0       0       0       0
       0       0       0       0       0       0       0       0
       0       0       0       0       0       0       0       0
       0       0       0       0       0       0       0       0
       0       0       0       0       0       0       0       0
       0       0       0       0       0       0       0       0
       0       0       0       0       0       0       0       0
       0       0       0       0       0       0       0       0
       0       0       0       0       0       0       0       0
       0       0       0       0       0       0       0       0
       0       0       0       0       0       0       0       0
       0       0       0       0       0       0       0       0
       0       0       0       0       0       0       0       0
       0       0       0       0       0       0       0       0
       0       0       0       0       0       0       0       0
       0       0       0       0       0       0       0       0
       0       0       0       0       0       0       0       0
       0       0       0       0       0       0       0       0
       0       0       0       0       0       0       0       0
       0       0       0       0       0       0       0       0
       0       0       0       0       0       0       0       0
       0       0       0       0       0       0       0       0
       0       0       0       0       0       0       0       0
       0       0       0       0       0       0       0       0
       0       0       0       0       0       0       0       0
       0       0       0       0       0       0       0       0
       0       0       0       0       0       0       0       0
       0       0       0       0       0       0       0       0
       0       0       0       0       0       0       0       0
       0       0       0       0       0       0       0       0
       0       0       0       0       0       0       0       0
       0       0       0       0       0       0       0       0
       0       0       0       0       0       0       0       0
       0       0       0       0       0       0       0       0
       0       0       0       0       0       0       0       0
       0       0       0       0       0       0       0       0
       0       0       0       0       0       0       0       0
       0       0       0       0       0       0       0       0
       0       0       0       0       0       0       0       0
       0       0       0       0       0       0       0       0
       0       0       0       0       0       0       0       0
       0       0       0       0       0       0       0       0
       0       0       0       0       0       0       0       0
       0       0       0       0       0       0       0       0
       0       0       0       0       0       0       0       0
       0       0       0       0       0       0       0       0
       0       0       0       0       0       0       0       0
       0       0       0       0       0       0       0       0
       0       0       0       0       0       0       0       0
       0       0       0       0       0       0       0       0
       0       0       0       0       0       0       0       0
       0       0       0       0       0       0       0       0
       0       0       0       0       0       0       0       0
       0       0       0       0       0       0       0       0
       0       0       0       0       0       0       0       0
       0       0       0       0       0       0       0       0
       0       0       0       0       0       0       0       0
       0       0       0       0       0       0       0       0
       0       0       0       0       0       0       0       0
       0       0       0       0       0       0       0       0
       0       0       0       0       0       0       0       0
       0       0       0       0       0       0       0       0
       0       0       0       0       0       0       0       0
       0       0       0       0       0       0       0       0
       0       0       0       0       0       0       0       0
       0       0       0       0       0       0       0       0
       0       0       0       0       0       0       0       0
       0       0       0       0       0       0       0       0
       0       0       0       0       0       0       0       0
       0       0       0       0       0       0       0       0
       0       0       0       0       0       0       0       0
       0       0       0       0       0       0       0       0
       0       0       0       0       0       0       0       0
       0       0       0       0       0       0       0       0
       0       0       0       0       0       0       0       0
       0       0       0       0       0       0       0       0
       0       0       0       0       0       0       0       0
       0       0       0       0       0       0       0       0
       0       0       0       0       0       0       0       0
       0       0       0       0       0       0       0       0
       0       0       0       0       0       0       0       0
       0       0       0       0       0       0       0       0
       0       0       0       0       0       0       0       0
       0       0       0       0       0       0       0       0
       0       0       0       0       0       0       0       0
       0       0       0       0       0       0       0       0
       0       0       0       0       0       0       0       0
       0       0       0       0       0       0       0       0
       0       0       0       0       0       0       0       0
       0       0       0       0       0       0       0       0
       0       0       0       0       0       0       0       0
       0       0       0       0       0       0       0       0
       0       0       0       0       0       0       0       0
       0       0       0       0       0       0       0       0
       0       0       0       0       0       0       0       0
       0       0       0       0       0       0       0       0
       0       0       0       0       0       0       0       0
       0       0       0       0       0       0       0       0
       0       0       0       0       0       0       0       0
       0       0       0       0       0       0       0       0
       0       0       0       0       0       0       0       0
       0       0       0       0       0       0       0       0
       0       0       0       0       0       0       0       0
       0       0       0       0       0       0       0       0
       0       0       0       0       0       0       0       0
       0       0       0       0       0       0       0       0
       0       0       0       0       0       0       0       0
       0       0       0       0       0       0       0       0
       0       0       0       0       0       0       0       0
       0       0       0       0       0       0       0       0
       0       0       0       0       0       0       0       0
       0       0       0       0       0       0       0       0
       0       0       0       0       0       0       0       0
       0       0       0       0       0       0       0       0
       0       0       0       0       0       0       0       0
       0       0       0       0       0       0       0       0
       0       0       0       0       0       0       0       0
       0       0       0       0       0       0       0       0
       0       0       0       0       0       0       0       0
       0       0       0       0       0       0       0       0
       0       0       0       0       0       0       0       0
       0       0       0       0       0       0       0       0
       0       0       0       0       0       0       0       0
       0       0       0       0       0       0       0       0
       0       0       0       0       0       0       0       0
       0       0       0       0       0       0       0       0
       0       0       0       0       0       0       0       0
       0       0       0       0       0       0       0       0
       0       0       0       0       0       0       0       0
       0       0       0       0       0       0       0       0
       0       0       0       0       0       0       0       0
       0       0       0       0       0       0       0       0
       0       0       0       0       0       0       0       0
       0       0       0       0       0       0       0       0
       0       0       0       0       0       0       0       0
       0       0       0       0       0       0       0       0
       0       0       0       0       0       0       0       0
       0       0       0       0       0       0       0       0
       0       0       0       0       0       0       0       0
       0       0       0       0       0       0       0       0
       0       0       0       0       0       0       0       0
       0       0       0       0       0       0       0       0
       0       0       0       0       0       0       0       0
       0       0       0       0       0       0       0       0
       0       0       0       0       0       0       0       0
       0       0       0       0       0       0       0       0
       0       0       0       0       0       0       0       0
       0       0       0       0       0       0       0       0
       0       0       0       0       0       0       0       0
       0       0       0       0       0       0       0       0
       0       0       0       0       0       0       0       0
       0       0       0       0       0       0       0       0
       0       0       0       0       0       0       0       0
       0       0       0       0       0       0       0       0
       0       0       0       0       0       0       0       0
       0       0       0       0       0       0       0       0
       0       0       0       0       0       0       0       0
       0       0       0       0       0       0       0       0
       0       0       0       0       0       0       0       0
       0       0       0       0       0       0       0       0
       0       0       0       0       0       0       0       0
       0       0       0       0       0       0       0       0
       0       0       0       0       0       0       0       0
       0       0       0       0       0       0       0       0
       0       0       0       0       0       0       0       0
       0       0       0       0       0       0       0       0
       0       0       0       0       0       0       0       0
       0       0       0       0       0       0       0       0
       0       0       0       0       0       0       0       0
       0       0       0       0       0       0       0       0
       0       0       0       0       0       0       0       0
       0       0       0       0       0       0       0       0
       0       0       0       0       0       0       0       0
       0       0       0       0       0       0       0       0
       0       0       0       0       0       0       0       0
       0       0       0       0       0       0       0       0
       0       0       0       0       0       0       0       0
       0       0       0       0       0       0       0       0
       0       0       0       0       0       0       0       0
       0       0       0       0       0       0       0       0
       0       0       0       0       0       0       0       0
       0       0       0       0       0       0       0       0
       0       0       0       0       0       0       0       0
       0       0       0       0       0       0       0       0
       0       0       0       0       0       0       0       0
       0       0       0       0       0       0       0       0
       0       0       0       0       0       0       0       0
       0       0       0       0       0       0       0       0
       0       0       0       0       0       0       0       0
       0       0       0       0       0       0       0       0
       0       0       0       0       0       0       0       0
       0       0       0       0       0       0       0       0
       0       0       0       0       0       0       0       0
       0       0       0       0       0       0       0       0
       0       0       0       0       0       0       0       0
       0       0       0       0       0       0       0       0
       0       0       0       0       0       0       0       0
       0       0       0       0       0       0       0       0
       0       0       0       0       0       0       0       0
       0       0       0       0       0       0       0       0
       0       0       0       0       0       0       0       0
       0       0       0       0       0       0       0       0
       0       0       0       0       0       0       0       0
       0       0       0       0       0       0       0       0
       0       0       0       0       0       0       0       0
       0       0       0       0       0       0       0       0
       0       0       0       0       0       0       0       0
       0       0       0       0       0       0       0       0
       0       0       0       0       0       0       0       0
       0       0       0       0       0       0       0       0
       0       0       0       0       0       0       0       0
       0       0       0       0       0       0       0       0
       0       0       0       0       0       0       0       0
       0       0       0       0       0       0       0       0
       0       0       0       0       0       0       0       0
       0       0       0       0       0       0       0       0
       0       0       0       0       0       0       0       0
       0       0       0       0       0       0       0       0
       0       0       0       0       0       0       0       0
       0       0       0       0       0       0       0       0
       0       0       0       0       0       0       0       0
       0       0       0       0       0       0       0       0
       0       0       0       0       0       0       0       0
       0       0       0       0       0       0       0       0
       0       0       0       0       0       0       0       0
       0       0       0       0       0       0       0       0
       0       0       0       0       0       0       0       0
       0       0       0       0       0       0       0       0
       0       0       0       0       0       0       0       0
       0       0       0       0       0       0       0       0
       0       0       0       0       0       0       0       0
       0       0       0       0       0       0       0       0
       0       0       0       0       0       0       0       0
       0       0       0       0       0       0       0       0
       0       0       0       0       0       0       0       0
       0       0       0       0       0       0       0       0
       0       0       0       0       0       0       0       0
       0       0       0       0       0       0       0       0
       0       0       0       0       0       0       0       0
       0       0       0       0       0       0       0       0
       0       0       0       0       0       0       0       0
       0       0       0       0       0       0       0       0
       0       0       0       0       0       0       0       0
       0       0       0       0       0       0       0       0
       0       0       0       0       0       0       0       0
       0       0       0       0       0       0       0       0
       0       0       0       0       0       0       0       0
       0       0       0       0       0       0       0       0
       0       0       0       0       0       0       0       0
       0       0       0       0       0       0       0       0
       0       0       0       0       0       0       0       0
       0       0       0       0       0       0       0       0
       0       0       0       0       0       0       0       0
       0       0       0       0       0       0       0       0
       0       0       0       0       0       0       0       0
       0       0       0       0       0       0       0       0
       0       0       0       0       0       0       0       0
       0       0       0       0       0       0       0       0
       0       0       0       0       0       0       0       0
       0       0       0       0       0       0       0       0
       0       0       0       0       0       0       0       0
       0       0       0       0       0       0       0       0
       0       0       0       0       0       0       0       0
       0       0       0       0       0       0       0       0
       0       0       0       0       0       0       0       0
       0       0       0       0       0       0       0       0
       0       0       0       0       0       0       0       0
       0       0       0       0       0       0       0       0
       0       0       0       0       0       0       0       0
       0       0       0       0       0       0       0       0
       0       0       0       0       0       0       0       0
       0       0       0       0       0       0       0       0
       0       0       0       0       0       0       0       0
       0       0       0       0       0       0       0       0
       0       0       0       0       0       0       0       0
       0       0       0       0       0       0       0       0
       0       0       0       0       0       0       0       0
       0       0       0       0       0       0       0       0
       0       0       0       0       0       0       0       0
       0       0       0       0       0       0       0       0
       0       0       0       0       0       0       0       0
       0       0       0       0       0       0       0       0
       0       0       0       0       0       0       0       0
       0       0       0       0       0       0       0       0
       0       0       0       0       0       0       0       0
       0       0       0       0       0       0       0       0
       0       0       0       0       0       0       0       0
       0       0       0       0       0       0       0       0
       0       0       0       0       0       0       0       0
       0       0       0       0       0       0       0       0
       0       0       0       0       0       0       0       0
       0       0       0       0       0       0       0       0
       0       0       0       0       0       0       0       0
       0       0       0       0       0       0       0       0
       0       0       0       0       0       0       0       0
       0       0       0       0       0       0       0       0
       0       0       0       0       0       0       0       0
       0       0       0       0       0       0       0       0
       0       0       0       0       0       0       0       0
       0       0       0       0       0       0       0       0
       0       0       0       0       0       0       0       0
       0       0       0       0       0       0       0       0
       0       0       0       0       0       0       0       0
       0       0       0       0       0       0       0       0
       0       0       0       0       0       0       0       0
       0       0       0       0       0       0       0       0
       0       0       0       0       0       0       0       0
       0       0       0       0       0       0       0       0
       0       0       0       0       0       0       0       0
       0       0       0       0       0       0       0       0
       0       0       0       0       0       0       0       0
       0       0       0       0       0       0       0       0
       0       0       0       0       0       0       0       0
       0       0       0       0       0       0       0       0
       0       0       0       0       0       0       0       0
       0       0       0       0       0       0       0       0
       0       0       0       0       0       0       0       0
       0       0       0       0       0       0       0       0
       0       0       0       0       0       0       0       0
       0       0       0       0       0       0       0       0
       0       0       0       0       0       0       0       0
       0       0       0       0       0       0       0       0
       0       0       0       0       0       0       0       0
       0       0       0       0       0       0       0       0
       0       0       0       0       0       0       0       0
       0       0       0       0       0       0       0       0
       0       0       0       0       0       0       0       0
       0       0       0       0       0       0       0       0
       0       0       0       0       0       0       0       0
       0       0       0       0       0       0       0       0
       0       0       0       0       0       0       0       0
       0       0       0       0       0       0       0       0
       0       0       0       0       0       0       0       0
       0       0       0       0       0       0       0       0
       0       0       0       0       0       0       0       0
       0       0       0       0       0       0       0       0
       0       0       0       0       0       0       0       0
       0       0       0       0       0       0       0       0
       0       0       0       0       0       0       0       0
       0       0       0       0       0       0       0       0
       0       0       0       0       0       0       0       0
       0       0       0       0       0       0       0       0
       0       0       0       0       0       0       0       0
       0       0       0       0       0       0       0       0
       0       0       0       0       0       0       0       0
       0       0       0       0       0       0       0       0
       0       0       0       0       0       0       0       0
       0       0       0       0       0       0       0       0
       0       0       0       0       0       0       0       0
       0       0       0       0       0       0       0       0
       0       0       0       0       0       0       0       0
       0       0       0       0       0       0       0       0
       0       0       0       0       0       0       0       0
       0       0       0       0       0       0       0       0
       0       0       0       0       0       0       0       0
       0       0       0       0       0       0       0       0
       0       0       0       0       0       0       0       0
       0       0       0       0       0       0       0       0
       0       0       0       0       0       0       0       0
       0       0       0       0       0       0       0       0
       0       0       0       0       0       0       0       0
       0       0       0       0       0       0       0       0
       0       0       0       0       0       0       0       0
       0       0       0       0       0       0       0       0
       0       0       0       0       0       0       0       0
       0       0       0       0       0       0       0       0
       0       0       0       0       0       0       0       0
       0       0       0       0       0       0       0       0
       0       0       0       0       0       0       0       0
       0       0       0       0       0       0       0       0
       0       0       0       0       0       0       0       0
       0       0       0       0       0       0       0       0
       0       0       0       0       0       0       0       0
       0       0       0       0       0       0       0       0
       0       0       0       0       0       0       0       0
       0       0       0       0       0       0       0       0
       0       0       0       0       0       0       0       0
       0       0       0       0       0       0       0       0
       0       0       0       0       0       0       0       0
       0       0       0       0       0       0       0       0
       0       0       0       0       0       0       0       0
       0       0       0       0       0       0       0       0
       0       0       0       0       0       0       0       0
       0       0       0       0       0       0       0       0
       0       0       0       0       0       0       0       0
       0       0       0       0       0       0       0       0
       0       0       0       0       0       0       0       0
       0       0       0       0       0       0       0       0
       0       0       0       0       0       0       0       0
       0       0       0       0       0       0       0       0
       0       0       0       0       0       0       0       0
       0       0       0       0       0       0       0       0
       0       0       0       0       0       0       0       0
       0       0       0       0       0       0       0       0
       0       0       0       0       0       0       0       0
       0       0       0       0       0       0       0       0
       0       0       0       0       0       0       0       0
       0       0       0       0       0       0       0       0
       0       0       0       0       0       0       0       0
       0       0       0       0       0       0       0       0
       0       0       0       0       0       0       0       0
       0       0       0       0       0       0       0       0
       0       0       0       0       0       0       0       0
       0       0       0       0       0       0       0       0
       0       0       0       0       0       0       0       0
       0       0       0       0       0       0       0       0
       0       0       0       0       0       0       0       0
       0       0       0       0       0       0       0       0
       0       0       0       0       0       0       0       0
       0       0       0       0       0       0       0       0
       0       0       0       0       0       0       0       0
       0       0       0       0       0       0       0       0
       0       0       0       0       0       0       0       0
       0       0       0       0       0       0       0       0
       0       0       0       0       0       0       0       0
       0       0       0       0       0       0       0       0
       0       0       0       0       0       0       0       0
       0       0       0       0       0       0       0       0
       0       0       0       0       0       0       0       0
       0       0       0       0       0       0       0       0
       0       0       0       0       0       0       0       0
       0       0       0       0       0       0       0       0
       0       0       0       0       0       0       0       0
       0       0       0       0       0       0       0       0
       0       0       0       0       0       0       0       0
       0       0       0       0       0       0       0       0
       0       0       0       0       0       0       0       0
       0       0       0       0       0       0       0       0
       0       0       0       0       0       0       0       0
       0       0       0       0       0       0       0       0
       0       0       0       0       0       0       0       0
       0       0       0       0       0       0       0       0
       0       0       0       0       0       0       0       0
       0       0       0       0       0       0       0       0
       0       0       0       0       0       0       0       0
       0       0       0       0       0       0       0       0
       0       0       0       0       0       0       0       0
       0       0       0       0       0       0       0       0
       0       0       0       0       0       0       0       0
       0       0       0       0       0       0       0       0
       0       0       0       0       0       0       0       0
       0       0       0       0       0       0       0       0
       0       0       0       0       0       0       0       0
       0       0       0       0       0       0       0       0
       0       0       0       0       0       0       0       0
       0       0       0       0       0       0       0       0
       0       0       0       0       0       0       0       0
       0       0       0       0       0       0       0       0
       0       0       0       0       0       0       0       0
       0       0       0       0       0       0       0       0
       0       0       0       0       0       0       0       0
       0       0       0       0       0       0       0       0
       0       0       0       0       0       0       0       0
       0       0       0       0       0       0       0       0
       0       0       0       0       0       0       0       0
       0       0       0       0       0       0       0       0
       0       0       0       0       0       0       0       0
       0       0       0       0       0       0       0       0
       0       0       0       0       0       0       0       0
       0       0       0       0       0       0       0       0
       0       0       0       0       0       0       0       0
       0       0       0       0       0       0       0       0
       0       0       0       0       0       0       0       0
       0       0       0       0       0       0       0       0
       0       0       0       0       0       0       0       0
       0       0       0       0       0       0       0       0
       0       0       0       0       0       0       0       0
       0       0       0       0       0       0       0       0
       0       0       0       0       0       0       0       0
       0       0       0       0       0       0       0       0
       0       0       0       0       0       0       0       0
       0       0       0       0       0       0       0       0
       0       0       0       0       0       0       0       0
       0       0       0       0       0       0       0       0
       0       0       0       0       0       0       0       0
       0       0       0       0       0       0       0       0
       0       0       0       0       0       0       0       0
       0       0       0       0       0       0       0       0
       0       0       0       0       0       0       0       0
       0       0       0       0       0       0       0       0
       0       0       0       0       0       0       0       0
       0       0       0       0       0       0       0       0
       0       0       0       0       0       0       0       0
       0       0       0       0       0       0       0       0
       0       0       0       0       0       0       0       0
       0       0       0       0       0       0       0       0
       0       0       0       0       0       0       0       0
       0       0       0       0       0       0       0       0
       0       0       0       0       0       0       0       0
       0       0       0       0       0       0       0       0
       0       0       0       0       0       0       0       0
       0       0       0       0       0       0       0       0
       0       0       0       0       0       0       0       0
       0       0       0       0       0       0       0       0
       0       0       0       0       0       0       0       0
       0       0       0       0       0       0       0       0
       0       0       0       0       0       0       0       0
       0       0       0       0       0       0       0       0
       0       0       0       0       0       0       0       0
       0       0       0       0       0       0       0       0
       0       0       0       0       0       0       0       0
       0       0       0       0       0       0       0       0
       0       0       0       0       0       0       0       0
       0       0       0       0       0       0       0       0
       0       0       0       0       0       0       0       0
       0       0       0       0       0       0       0       0
       0       0       0       0       0       0       0       0
       0       0       0       0       0       0       0       0
       0       0       0       0       0       0       0       0
       0       0       0       0       0       0       0       0
       0       0       0       0       0       0       0       0
       0       0       0       0       0       0       0       0
       0       0       0       0       0       0       0       0
       0       0       0       0       0       0       0       0
       0       0       0       0       0       0       0       0
       0       0       0       0       0       0       0       0
       0       0       0       0       0       0       0       0
       0       0       0       0       0       0       0       0
       0       0       0       0       0       0       0       0
       0       0       0       0       0       0       0       0
       0       0       0       0       0       0       0       0
       0       0       0       0       0       0       0       0
       0       0       0       0       0       0       0       0
       0       0       0       0       0       0       0       0
       0       0       0       0       0       0       0       0
       0       0       0       0       0       0       0       0
       0       0       0       0       0       0       0       0
       0       0       0       0       0       0       0       0
       0       0       0       0       0       0       0       0
       0       0       0       0       0       0       0       0
       0       0       0       0       0       0       0       0
       0       0       0       0       0       0       0       0
       0       0       0       0       0       0       0       0
       0       0       0       0       0       0       0       0
       0       0       0       0       0       0       0       0
       0       0       0       0       0       0       0       0
       0       0       0       0       0       0       0       0
       0       0       0       0       0       0       0       0
       0       0       0       0       0       0       0       0
       0       0       0       0       0       0       0       0
       0       0       0       0       0       0       0       0
       0       0       0       0       0       0       0       0
       0       0       0       0       0       0       0       0
       0       0       0       0       0       0       0       0
       0       0       0       0       0       0       0       0
       0       0       0       0       0       0       0       0
       0       0       0       0       0       0       0       0
       0       0       0       0       0       0       0       0
       0       0       0       0       0       0       0       0
       0       0       0       0       0       0       0       0
       0       0       0       0       0       0       0       0
       0       0       0       0       0       0       0       0
       0       0       0       0       0       0       0       0
       0       0       0       0       0       0       0       0
       0       0       0       0       0       0       0       0
       0       0       0       0       0       0       0       0
       0       0       0       0       0       0       0       0
       0       0       0       0       0       0       0       0
       0       0       0       0       0       0       0       0
       0       0       0       0       0       0       0       0
       0       0       0       0       0       0       0       0
       0       0       0       0       0       0       0       0
       0       0       0       0       0       0       0       0
       0       0       0       0       0       0       0       0
       0       0       0       0       0       0       0       0
       0       0       0       0       0       0       0       0
       0       0       0       0       0       0       0       0
       0       0       0       0       0       0       0       0
       0       0       0       0       0       0       0       0
       0       0       0       0       0       0       0       0
       0       0       0       0       0       0       0       0
       0       0       0       0       0       0       0       0
       0       0       0       0       0       0       0       0
       0       0       0       0       0       0       0       0
       0       0       0       0       0       0       0       0
       0       0       0       0       0       0       0       0
       0       0       0       0       0       0       0       0
       0       0       0       0       0       0       0       0
       0       0       0       0       0       0       0       0
       0       0       0       0       0       0       0       0
       0       0       0       0       0       0       0       0
       0       0       0       0       0       0       0       0
       0       0       0       0       0       0       0       0
       0       0       0       0       0       0       0       0
       0       0       0       0       0       0       0       0
       0       0       0       0       0       0       0       0
       0       0       0       0       0       0       0       0
       0       0       0       0       0       0       0       0
       0       0       0       0       0       0       0       0
       0       0       0       0       0       0       0       0
       0       0       0       0       0       0       0       0
       0       0       0       0       0       0       0       0
       0       0       0       0       0       0       0       0
       0       0       0       0       0       0       0       0
       0       0       0       0       0       0       0       0
       0       0       0       0       0       0       0       0
       0       0       0       0       0       0       0       0
       0       0       0       0       0       0       0       0
       0       0       0       0       0       0       0       0
       0       0       0       0       0       0       0       0
       0       0       0       0       0       0       0       0
       0       0       0       0       0       0       0       0
       0       0       0       0       0       0       0       0
       0       0       0       0       0       0       0       0
       0       0       0       0       0       0       0       0
       0       0       0       0       0       0       0       0
       0       0       0       0       0       0       0       0
       0       0       0       0       0       0       0       0
       0       0       0       0       0       0       0       0
       0       0       0       0       0       0       0       0
       0       0       0       0       0       0       0       0
       0       0       0       0       0       0       0       0
       0       0       0       0       0       0       0       0
       0       0       0       0       0       0       0       0
       0       0       0       0       0       0       0       0
       0       0       0       0       0       0       0       0
       0       0       0       0       0       0       0       0
       0       0       0       0       0       0       0       0
       0       0       0       0       0       0       0       0
       0       0       0       0       0       0       0       0
       0       0       0       0       0       0       0       0
       0       0       0       0       0       0       0       0
       0       0       0       0       0       0       0       0
       0       0       0       0       0       0       0       0
       0       0       0       0       0       0       0       0
       0       0       0       0       0       0       0       0
       0       0       0       0       0       0       0       0
       0       0       0       0       0       0       0       0
       0       0       0       0       0       0       0       0
       0       0       0       0       0       0       0       0
       0       0       0       0       0       0       0       0
       0       0       0       0       0       0       0       0
       0       0       0       0       0       0       0       0
       0       0       0       0       0       0       0       0
       0       0       0       0       0       0       0       0
       0       0       0       0       0       0       0       0
       0       0       0       0       0       0       0       0
       0       0       0       0       0       0       0       0
       0       0       0       0       0       0       0       0
       0       0       0       0       0       0       0       0
       0       0       0       0       0       0       0       0
       0       0       0       0       0       0       0       0
       0       0       0       0       0       0       0       0
       0       0       0       0       0       0       0       0
       0       0       0       0       0       0       0       0
       0       0       0       0       0       0       0       0
       0       0       0       0       0       0       0       0
       0       0       0       0       0       0       0       0
       0       0       0       0       0       0       0       0
       0       0       0       0       0       0       0       0
       0       0       0       0       0       0       0       0
       0       0       0       0       0       0       0       0
       0       0       0       0       0       0       0       0
       0       0       0       0       0       0       0       0
       0       0       0       0       0       0       0       0
       0       0       0       0       0       0       0       0
       0       0       0       0       0       0       0       0
       0       0       0       0       0       0       0       0
       0       0       0       0       0       0       0       0
       0       0       0       0       0       0       0       0
       0       0       0       0       0       0       0       0
       0       0       0       0       0       0       0       0
       0       0       0       0       0       0       0       0
       0       0       0       0       0       0       0       0
       0       0       0       0       0       0       0       0
       0       0       0       0       0       0       0       0
       0       0       0       0       0       0       0       0
       0       0       0       0       0       0       0       0
       0       0       0       0       0       0       0       0
       0       0       0       0       0       0       0       0
       0       0       0       0       0       0       0       0
       0       0       0       0       0       0       0       0
       0       0       0       0       0       0       0       0
       0       0       0       0       0       0       0       0
       0       0       0       0       0       0       0       0
       0       0       0       0       0       0       0       0
       0       0       0       0       0       0       0       0
       0       0       0       0       0       0       0       0
       0       0       0       0       0       0       0       0
       0       0       0       0       0       0       0       0
       0       0       0       0       0       0       0       0
       0       0       0       0       0       0       0       0
       0       0       0       0       0       0       0       0
       0       0       0       0       0       0       0       0
       0       0       0       0       0       0       0       0
       0       0       0       0       0       0       0       0
       0       0       0       0       0       0       0       0
       0       0       0       0       0       0       0       0
       0       0       0       0       0       0       0       0
       0       0       0       0       0       0       0       0
       0       0       0       0       0       0       0       0
       0       0       0       0       0       0       0       0
       0       0       0       0       0       0       0       0
       0       0       0       0       0       0       0       0
       0       0       0       0       0       0       0       0
       0       0       0       0       0       0       0       0
       0       0       0       0       0       0       0       0
       0       0       0       0       0       0       0       0
       0       0       0       0       0       0       0       0
       0       0       0       0       0       0       0       0
       0       0       0       0       0       0       0       0
       0       0       0       0       0       0       0       0
       0       0       0       0       0       0       0       0
       0       0       0       0       0       0       0       0
       0       0       0       0       0       0       0       0
       0       0       0       0       0       0       0       0
       0       0       0       0       0       0       0       0
       0       0       0       0       0       0       0       0
       0       0       0       0       0       0       0       0
       0       0       0       0       0       0       0       0
       0       0       0       0       0       0       0       0
       0       0       0       0       0       0       0       0
       0       0       0       0       0       0       0       0
       0       0       0       0       0       0       0       0
       0       0       0       0       0       0       0       0
       0       0       0       0       0       0       0       0
       0       0       0       0       0       0       0       0
       0       0       0       0       0       0       0       0
       0       0       0       0       0       0       0       0
       0       0       0       0       0       0       0       0
       0       0       0       0       0       0       0       0
       0       0       0       0       0       0       0       0
       0       0       0       0       0       0       0       0
       0       0       0       0       0       0       0       0
       0       0       0       0       0       0       0       0
       0       0       0       0       0       0       0       0
       0       0       0       0       0       0       0       0
       0       0       0       0       0       0       0       0
       0       0       0       0       0       0       0       0
       0       0       0       0       0       0       0       0
       0       0       0       0       0       0       0       0
       0       0       0       0       0       0       0       0
       0       0       0       0       0       0       0       0
       0       0       0       0       0       0       0       0
       0       0       0       0       0       0       0       0
       0       0       0       0       0       0       0       0
       0       0       0       0       0       0       0       0
       0       0       0       0       0       0       0       0
       0       0       0       0       0       0       0       0
       0       0       0       0       0       0       0       0
       0       0       0       0       0       0       0       0
       0       0       0       0       0       0       0       0
       0       0       0       0       0       0       0       0
       0       0       0       0       0       0       0       0
       0       0       0       0       0       0       0       0
       0       0       0       0       0       0       0       0
       0       0       0       0       0       0       0       0
       0       0       0       0       0       0       0       0
       0       0       0       0       0       0       0       0
       0       0       0       0       0       0       0       0
       0       0       0       0       0       0       0       0
       0       0       0       0       0       0       0       0
       0       0       0       0       0       0       0       0
       0       0       0       0       0       0       0       0
       0       0       0       0       0       0       0       0
       0       0       0       0       0       0       0       0
       0       0       0       0       0       0       0       0
       0       0       0       0       0       0       0       0
       0       0       0       0       0       0       0       0
       0       0       0       0       0       0       0       0
       0       0       0       0       0       0       0       0
       0       0       0       0       0       0       0       0
       0       0       0       0       0       0       0       0
       0       0       0       0       0       0       0       0
       0       0       0       0       0       0       0       0
       0       0       0       0       0       0       0       0
       0       0       0       0       0       0       0       0
       0       0       0       0       0       0       0       0
       0       0       0       0       0       0       0       0
       0       0       0       0       0       0       0       0
       0       0       0       0       0       0       0       0
       0       0       0       0       0       0       0       0
       0       0       0       0       0       0       0       0
       0       0       0       0       0       0       0       0
       0       0       0       0       0       0       0       0
       0       0       0       0       0       0       0       0
       0       0       0       0       0       0       0       0
       0       0       0       0       0       0       0       0
       0       0       0       0       0       0       0       0
       0       0       0       0       0       0       0       0
       0       0       0       0       0       0       0       0
       0       0       0       0       0       0       0       0
       0       0       0       0       0       0       0       0
       0       0       0       0       0       0       0       0
       0       0       0       0       0       0       0       0
       0       0       0       0       0       0       0       0
       0       0       0       0       0       0       0       0
       0       0       0       0       0       0       0       0
       0       0       0       0       0       0       0       0
       0       0       0       0       0       0       0       0
       0       0       0       0       0       0       0       0
       0       0       0       0       0       0       0       0
       0       0       0       0       0       0       0       0
       0       0       0       0       0       0       0       0
       0       0       0       0       0       0       0       0
       0       0       0       0       0       0       0       0
       0       0       0       0       0       0       0       0
       0       0       0       0       0       0       0       0
       0       0       0       0       0       0       0       0
       0       0       0       0       0       0       0       0
       0       0       0       0       0       0       0       0
       0       0       0       0       0       0       0       0
       0       0       0       0       0       0       0       0
       0       0       0       0       0       0       0       0
       0       0       0       0       0       0       0       0
       0       0       0       0       0       0       0       0
       0       0       0       0       0       0       0       0
       0       0       0       0       0       0       0       0
       0       0       0       0       0       0       0       0
       0       0       0       0       0       0       0       0
       0       0       0       0       0       0       0       0
       0       0       0       0       0       0       0       0
       0       0       0       0       0       0       0       0
       0       0       0       0       0       0       0       0
       0       0       0       0       0       0       0       0
       0       0       0       0       0       0       0       0
       0       0       0       0       0       0       0       0
       0       0       0       0       0       0       0       0
       0       0       0       0       0       0       0       0
       0       0       0       0       0       0       0       0
       0       0       0       0       0       0       0       0
       0       0       0       0       0       0       0       0
       0       0       0       0       0       0       0       0
       0       0       0       0       0       0       0       0
       0       0       0       0       0       0       0       0
       0       0       0       0       0       0       0       0
       0       0       0       0       0       0       0       0
       0       0       0       0       0       0       0       0
       0       0       0       0       0       0       0       0
       0       0       0       0       0       0       0       0
       0       0       0       0       0       0       0       0
       0       0       0       0       0       0       0       0
       0       0       0       0       0       0       0       0
       0       0       0       0       0       0       0       0
       0       0       0       0       0       0       0       0
       0       0       0       0       0       0       0       0
       0       0       0       0       0       0       0       0
       0       0       0       0       0       0       0       0
       0       0       0       0       0       0       0       0
       0       0       0       0       0       0       0       0
       0       0       0       0       0       0       0       0
       0       0       0       0       0       0       0       0
       0       0       0       0       0       0       0       0
       0       0       0       0       0       0       0       0
       0       0       0       0       0       0       0       0
       0       0       0       0       0       0       0       0
       0       0       0       0       0       0       0       0
       0       0       0       0       0       0       0       0
       0       0       0       0       0       0       0       0
       0       0       0       0       0       0       0       0
       0       0       0       0       0       0       0       0
       0       0       0       0       0       0       0       0
       0       0       0       0       0       0       0       0
       0       0       0       0       0       0       0       0
       0       0       0       0       0       0       0       0
       0       0       0       0       0       0       0       0
       0       0       0       0       0       0       0       0
       0       0       0       0       0       0       0       0
       0       0       0       0       0       0       0       0
       0       0       0       0       0       0       0       0
       0       0       0       0       0       0       0       0
       0       0       0       0       0       0       0       0
       0       0       0       0       0       0       0       0
       0       0       0       0       0       0       0       0
       0       0       0       0       0       0       0       0
       0       0       0       0       0       0       0       0
       0       0       0       0       0       0       0       0
       0       0       0       0       0       0       0       0
       0       0       0       0       0       0       0       0
       0       0       0       0       0       0       0       0
       0       0       0       0       0       0       0       0
       0       0       0       0       0       0       0       0
       0       0       0       0       0       0       0       0
       0       0       0       0       0       0       0       0
       0       0       0       0       0       0       0       0
       0       0       0       0       0       0       0       0
       0       0       0       0       0       0       0       0
       0       0       0       0       0       0       0       0
       0       0       0       0       0       0       0       0
       0       0       0       0       0       0       0       0
       0       0       0       0       0       0       0       0
       0       0       0       0       0       0       0       0
       0       0       0       0       0       0       0       0
       0       0       0       0       0       0       0       0
       0       0       0       0       0       0       0       0
       0       0       0       0       0       0       0       0
       0       0       0       0       0       0       0       0
       0       0       0       0       0       0       0       0
       0       0       0       0       0       0       0       0
       0       0       0       0       0       0       0       0
       0       0       0       0       0       0       0       0
       0       0       0       0       0       0       0       0
       0       0       0       0       0       0       0       0
       0       0       0       0       0       0       0       0
       0       0       0       0       0       0       0       0
       0       0       0       0       0       0       0       0
       0       0       0       0       0       0       0       0
       0       0       0       0       0       0       0       0
       0       0       0       0       0       0       0       0
       0       0       0       0       0       0       0       0
       0       0       0       0       0       0       0       0
       0       0       0       0       0       0       0       0
       0       0       0       0       0       0       0       0
       0       0       0       0       0       0       0       0
       0       0       0       0       0       0       0       0
       0       0       0       0       0       0       0       0
       0       0       0       0       0       0       0       0
       0       0       0       0       0       0       0       0
       0       0       0       0       0       0       0       0
       0       0       0       0       0       0       0       0
       0       0       0       0       0       0       0       0
       0       0       0       0       0       0       0       0
       0       0       0       0       0       0       0       0
       0       0       0       0       0       0       0       0
       0       0       0       0       0       0       0       0
       0       0       0       0       0       0       0       0
       0       0       0       0       0       0       0       0
       0       0       0       0       0       0       0       0
       0       0       0       0       0       0       0       0
       0       0       0       0       0       0       0       0
       0       0       0       0       0       0       0       0
       0       0       0       0       0       0       0       0
       0       0       0       0       0       0       0       0
       0       0       0       0       0       0       0       0
       0       0       0       0       0       0       0       0
       0       0       0       0       0       0       0       0
       0       0       0       0       0       0       0       0
       0       0       0       0       0       0       0       0
       0       0       0       0       0       0       0       0
       0       0       0       0       0       0       0       0
       0       0       0       0       0       0       0       0
       0       0       0       0       0       0       0       0
       0       0       0       0       0       0       0       0
       0       0       0       0       0       0       0       0
       0       0       0       0       0       0       0       0
       0       0       0       0       0       0       0       0
       0       0       0       0       0       0       0       0
       0       0       0       0       0       0       0       0
       0       0       0       0       0       0       0       0
       0       0       0       0       0       0       0       0
       0       0       0       0       0       0       0       0
       0       0       0       0       0       0       0       0
       0       0       0       0       0       0       0       0
       0       0       0       0       0       0       0       0
       0       0       0       0       0       0       0       0
       0       0       0       0       0       0       0       0
       0       0       0       0       0       0       0       0
       0       0       0       0       0       0       0       0
       0       0       0       0       0       0       0       0
       0       0       0       0       0       0       0       0
       0       0       0       0       0       0       0       0
       0       0       0       0       0       0       0       0
       0       0       0       0       0       0       0       0
       0       0       0       0       0       0       0       0
       0       0       0       0       0       0       0       0
       0       0       0       0       0       0       0       0
       0       0       0       0       0       0       0       0
       0       0       0       0       0       0       0       0
       0       0       0       0       0       0       0       0
       0       0       0       0       0       0       0       0
       0       0       0       0       0       0       0       0
       0       0       0       0       0       0       0       0
       0       0       0       0       0       0       0       0
       0       0       0       0       0       0       0       0
       0       0       0       0       0       0       0       0
       0       0       0       0       0       0       0       0
       0       0       0       0       0       0       0       0
       0       0       0       0       0       0       0       0
       0       0       0       0       0       0       0       0
       0       0       0       0       0       0       0       0
       0       0       0       0       0       0       0       0
       0       0       0       0       0       0       0       0
       0       0       0       0       0       0       0       0
       0       0       0       0       0       0       0       0
       0       0       0       0       0       0       0       0
       0       0       0       0       0       0       0       0
       0       0       0       0       0       0       0       0
       0       0       0       0       0       0       0       0
       0       0       0       0       0       0       0       0
       0       0       0       0       0       0       0       0
       0       0       0       0       0       0       0       0
       0       0       0       0       0       0       0       0
       0       0       0       0       0       0       0       0
       0       0       0       0       0       0       0       0
       0       0       0       0       0       0       0       0
       0       0       0       0       0       0       0       0
       0       0       0       0       0       0       0       0
       0       0       0       0       0       0       0       0
       0       0       0       0       0       0       0       0
       0       0       0       0       0       0       0       0
       0       0       0       0       0       0       0       0
       0       0       0       0       0       0       0       0
       0       0       0       0       0       0       0       0
       0       0       0       0       0       0       0       0
       0       0       0       0       0       0       0       0
       0       0       0       0       0       0       0       0
       0       0       0       0       0       0       0       0
       0       0       0       0       0       0       0       0
       0       0       0       0       0       0       0       0
       0       0       0       0       0       0       0       0
       0       0       0       0       0       0       0       0
       0       0       0       0       0       0       0       0
       0       0       0       0       0       0       0       0
       0       0       0       0       0       0       0       0
       0       0       0       0       0       0       0       0
       0       0       0       0       0       0       0       0
       0       0       0       0       0       0       0       0
       0       0       0       0       0       0       0       0
       0       0       0       0       0       0       0       0
       0       0       0       0       0       0       0       0
       0       0       0       0       0       0       0       0
       0       0       0       0       0       0       0       0
       0       0       0       0       0       0       0       0
       0       0       0       0       0       0       0       0
       0       0       0       0       0       0       0       0
       0       0       0       0       0       0       0       0
       0       0       0       0       0       0       0       0
       0       0       0       0       0       0       0       0
       0       0       0       0       0       0       0       0
       0       0       0       0       0       0       0       0
       0       0       0       0       0       0       0       0
       0       0       0       0       0       0       0       0
       0       0       0       0       0       0       0       0
       0       0       0       0       0       0       0       0
       0       0       0       0       0       0       0       0
       0       0       0       0       0       0       0       0
       0       0       0       0       0       0       0       0
       0       0       0       0       0       0       0       0
       0       0       0       0       0       0       0       0
       0       0       0       0       0       0       0       0
       0       0       0       0       0       0       0       0
       0       0       0       0       0       0       0       0
       0       0       0       0       0       0       0       0
       0       0       0       0       0       0       0       0
       0       0       0       0       0       0       0       0
       0       0       0       0       0       0       0       0
       0       0       0       0       0       0       0       0
       0       0       0       0       0       0       0       0
       0       0       0       0       0       0       0       0
       0       0       0       0       0       0       0       0
       0       0       0       0       0       0       0       0
       0       0       0       0       0       0       0       0
       0       0       0       0       0       0       0       0
       0       0       0       0       0       0       0       0
       0       0       0       0       0       0       0       0
       0       0       0       0       0       0       0       0
       0       0       0       0       0       0       0       0
       0       0       0       0       0       0       0       0
       0       0       0       0       0       0       0       0
       0       0       0       0       0       0       0       0
       0       0       0       0       0       0       0       0
       0       0       0       0       0       0       0       0
       0       0       0       0       0       0       0       0
       0       0       0       0       0       0       0       0
       0       0       0       0       0       0       0       0
       0       0       0       0       0       0       0       0
       0       0       0       0       0       0       0       0
       0       0       0       0       0       0       0       0
       0       0       0       0       0       0       0       0
       0       0       0       0       0       0       0       0
       0       0       0       0       0       0       0       0
       0       0       0       0       0       0       0       0
       0       0       0       0       0       0       0       0
       0       0       0       0       0       0       0       0
       0       0       0       0       0       0       0       0
       0       0       0       0       0       0       0       0
       0       0       0       0       0       0       0       0
       0       0       0       0       0       0       0       0
       0       0       0       0       0       0       0       0
       0       0       0       0       0       0       0       0
       0       0       0       0       0       0       0       0
       0       0       0       0       0       0       0       0
       0       0       0       0       0       0       0       0
       0       0       0       0       0       0       0       0
       0       0       0       0       0       0       0       0
       0       0       0       0       0       0       0       0
       0       0       0       0       0       0       0       0
       0       0       0       0       0       0       0       0
       0       0       0       0       0       0       0       0
       0       0       0       0       0       0       0       0
       0       0       0       0       0       0       0       0
       0       0       0       0       0       0       0       0
       0       0       0       0       0       0       0       0
       0       0       0       0       0       0       0       0
       0       0       0       0       0       0       0       0
       0       0       0       0       0       0       0       0
       0       0       0       0       0       0       0       0
       0       0       0       0       0       0       0       0
       0       0       0       0       0       0       0       0
       0       0       0       0       0       0       0       0
       0       0       0       0       0       0       0       0
       0       0       0       0       0       0       0       0
       0       0       0       0       0       0       0       0
       0       0       0       0       0       0       0       0
       0       0       0       0       0       0       0       0
       0       0       0       0       0       0       0       0
       0       0       0       0       0       0       0       0
       0       0       0       0       0       0       0       0
       0       0       0       0       0       0       0       0
       0       0       0       0       0       0       0       0
       0       0       0       0       0       0       0       0
       0       0       0       0       0       0       0       0
       0       0       0       0       0       0       0       0
       0       0       0       0       0       0       0       0
       0       0       0       0       0       0       0       0
       0       0       0       0       0       0       0       0
       0       0       0       0       0       0       0       0
       0       0       0       0       0       0       0       0
       0       0       0       0       0       0       0       0
       0       0       0       0       0       0       0       0
       0       0       0       0       0       0       0       0
       0       0       0       0       0       0       0       0
       0       0       0       0       0       0       0       0
       0       0       0       0       0       0       0       0
       0       0       0       0       0       0       0       0
       0       0       0       0       0       0       0       0
       0       0       0       0       0       0       0       0
       0       0       0       0       0       0       0       0
       0       0       0       0       0       0       0       0
       0       0       0       0       0       0       0       0
       0       0       0       0       0       0       0       0
       0       0       0       0       0       0       0       0
       0       0       0       0       0       0       0       0
       0       0       0       0       0       0       0       0
       0       0       0       0       0       0       0       0
       0       0       0       0       0       0       0       0
       0       0       0       0       0       0       0       0
       0       0       0       0       0       0       0       0
       0       0       0       0       0       0       0       0
       0       0       0       0       0       0       0       0
       0       0       0       0       0       0       0       0
       0       0       0       0       0       0       0       0
       0       0       0       0       0       0       0       0
       0       0       0       0       0       0       0       0
       0       0       0       0       0       0       0       0
       0       0       0       0       0       0       0       0
       0       0       0       0       0       0       0       0
       0       0       0       0       0       0       0       0
       0       0       0       0       0       0       0       0
       0       0       0       0       0       0       0       0
       0       0       0       0       0       0       0       0
       0       0       0       0       0       0       0       0
       0       0       0       0       0       0       0       0
       0       0       0       0       0       0       0       0
       0       0       0       0       0       0       0       0
       0       0       0       0       0       0       0       0
       0       0       0       0       0       0       0       0
       0       0       0       0       0       0       0       0
       0       0       0       0       0       0       0       0
       0       0       0       0       0       0       0       0
       0       0       0       0       0       0       0       0
       0       0       0       0       0       0       0       0
       0       0       0       0       0       0       0       0
       0       0       0       0       0       0       0       0
       0       0       0       0       0       0       0       0
       0       0       0       0       0       0       0       0
       0       0       0       0       0       0       0       0
       0       0       0       0       0       0       0       0
       0       0       0       0       0       0       0       0
       0       0       0       0       0       0       0       0
       0       0       0       0       0       0       0       0
       0       0       0       0       0       0       0       0
       0       0       0       0       0       0       0       0
       0       0       0       0       0       0       0       0
       0       0       0       0       0       0       0       0
       0       0       0       0       0       0       0       0
       0       0       0       0       0       0       0       0
       0       0       0       0       0       0       0       0
       0       0       0       0       0       0       0       0
       0       0       0       0       0       0       0       0
       0       0       0       0       0       0       0       0
       0       0       0       0       0       0       0       0
       0       0       0       0       0       0       0       0
       0       0       0       0       0       0       0       0
       0       0       0       0       0       0       0       0
       0       0       0       0       0       0       0       0
       0       0       0       0       0       0       0       0
       0       0       0       0       0       0       0       0
       0       0       0       0       0       0       0       0
       0       0       0       0       0       0       0       0
       0       0       0       0       0       0       0       0
       0       0       0       0       0       0       0       0
       0       0       0       0       0       0       0       0
       0       0       0       0       0       0       0       0
       0       0       0       0       0       0       0       0
       0       0       0       0       0       0       0       0
       0       0       0       0       0       0       0       0
       0       0       0       0       0       0       0       0
       0       0       0       0       0       0       0       0
       0       0       0       0       0       0       0       0
       0       0       0       0       0       0       0       0
       0       0       0       0       0       0       0       0
       0       0       0       0       0       0       0       0
       0       0       0       0       0       0       0       0
       0       0       0       0       0       0       0       0
       0       0       0       0       0       0       0       0
       0       0       0       0       0       0       0       0
       0       0       0       0       0       0       0       0
       0       0       0       0       0       0       0       0
       0       0       0       0       0       0       0       0
       0       0       0       0       0       0       0       0
       0       0       0       0       0       0       0       0
       0       0       0       0       0       0       0       0
       0       0       0       0       0       0       0       0
       0       0       0       0       0       0       0       0
       0       0       0       0       0       0       0       0
       0       0       0       0       0       0       0       0
       0       0       0       0       0       0       0       0
       0       0       0       0       0       0       0       0
       0       0       0       0       0       0       0       0
       0       0       0       0       0       0       0       0
       0       0       0       0       0       0       0       0
       0       0       0       0       0       0       0       0
       0       0       0       0       0       0       0       0
       0       0       0       0       0       0       0       0
       0       0       0       0       0       0       0       0
       0       0       0       0       0       0       0       0
       0       0       0       0       0       0       0       0
       0       0       0       0       0       0       0       0
       0       0       0       0       0       0       0       0
       0       0       0       0       0       0       0       0
       0       0       0       0       0       0       0       0
       0       0       0       0       0       0       0       0
       0       0       0       0       0       0       0       0
       0       0       0       0       0       0       0       0
       0       0       0       0       0       0       0       0
       0       0       0       0       0       0       0       0
       0       0       0       0       0       0       0       0
       0       0       0       0       0       0       0       0
       0       0       0       0       0       0       0       0
       0       0       0       0       0       0       0       0
       0       0       0       0       0       0       0       0
       0       0       0       0       0       0       0       0
       0       0       0       0       0       0       0       0
       0       0       0       0       0       0       0       0
       0       0       0       0       0       0       0       0
       0       0       0       0       0       0       0       0
       0       0       0       0       0       0       0       0
       0       0       0       0       0       0       0       0
       0       0       0       0       0       0       0       0
       0       0       0       0       0       0       0       0
       0       0       0       0       0       0       0       0
       0       0       0       0       0       0       0       0
       0       0       0       0       0       0       0       0
       0       0       0       0       0       0       0       0
       0       0       0       0       0       0       0       0
       0       0       0       0       0       0       0       0
       0       0       0       0       0       0       0       0
       0       0       0       0       0       0       0       0
       0       0       0       0       0       0       0       0
       0       0       0       0       0       0       0       0
       0       0       0       0       0       0       0       0
       0       0       0       0       0       0       0       0
       0       0       0       0       0       0       0       0
       0       0       0       0       0       0       0       0
       0       0       0       0       0       0       0       0
       0       0       0       0       0       0       0       0
       0       0       0       0       0       0       0       0
       0       0       0       0       0       0       0       0
       0       0       0       0       0       0       0       0
       0       0       0       0       0       0       0       0
       0       0       0       0       0       0       0       0
       0       0       0       0       0       0       0       0
       0       0       0       0       0       0       0       0
       0       0       0       0       0       0       0       0
       0       0       0       0       0       0       0       0
       0       0       0       0       0       0       0       0
       0       0       0       0       0       0       0       0
       0       0       0       0       0       0       0       0
       0       0       0       0       0       0       0       0
       0       0       0       0       0       0       0       0
       0       0       0       0       0       0       0       0
       0       0       0       0       0       0       0       0
       0       0       0       0       0       0       0       0
       0       0       0       0       0       0       0       0
       0       0       0       0       0       0       0       0
       0       0       0       0       0       0       0       0
       0       0       0       0       0       0       0       0
       0       0       0       0       0       0       0       0
       0       0       0       0       0       0       0       0
       0       0       0       0       0       0       0       0
       0       0       0       0       0       0       0       0
       0       0       0       0       0       0       0       0
       0       0       0       0       0       0       0       0
       0       0       0       0       0       0       0       0
       0       0       0       0       0       0       0       0
       0       0       0       0       0       0       0       0
       0       0       0       0       0       0       0       0
       0       0       0       0       0       0       0       0
       0       0       0       0       0       0       0       0
       0       0       0       0       0       0       0       0
       0       0       0       0       0       0       0       0
       0       0       0       0       0       0       0       0
       0       0       0       0       0       0       0       0
       0       0       0       0       0       0       0       0
       0       0       0       0       0       0       0       0
       0       0       0       0       0       0       0       0
       0       0       0       0       0       0       0       0
       0       0       0       0       0       0       0       0
       0       0       0       0       0       0       0       0
       0       0       0       0       0       0       0       0
       0       0       0       0       0       0       0       0
       0       0       0       0       0       0       0       0
       0       0       0       0       0       0       0       0
       0       0       0       0       0       0       0       0
       0       0       0       0       0       0       0       0
       0       0       0       0       0       0       0       0
       0       0       0       0       0       0       0       0
       0       0       0       0       0       0       0       0
       0       0       0       0       0       0       0       0
       0       0       0       0       0       0       0       0
       0       0       0       0       0       0       0       0
       0       0       0       0       0       0       0       0
       0       0       0       0       0       0       0       0
       0       0       0       0       0       0       0       0
       0       0       0       0       0       0       0       0
       0       0       0       0       0       0       0       0
       0       0       0       0       0       0       0       0
       0       0       0       0       0       0       0       0
       0       0       0       0       0       0       0       0
       0       0       0       0       0       0       0       0
       0       0       0       0       0       0       0       0
       0       0       0       0       0       0       0       0
       0       0       0       0       0       0       0       0
       0       0       0       0       0       0       0       0
       0       0       0       0       0       0       0       0
       0       0       0       0       0       0       0       0
       0       0       0       0       0       0       0       0
       0       0       0       0       0       0       0       0
       0       0       0       0       0       0       0       0
       0       0       0       0       0       0       0       0
       0       0       0       0       0       0       0       0
       0       0       0       0       0       0       0       0
       0       0       0       0       0       0       0       0
       0       0       0       0       0       0       0       0
       0       0       0       0       0       0       0       0
       0       0       0       0       0       0       0       0
       0       0       0       0       0       0       0       0
       0       0       0       0       0       0       0       0
       0       0       0       0       0       0       0       0
       0       0       0       0       0       0       0       0
       0       0       0       0       0       0       0       0
       0       0       0       0       0       0       0       0
       0       0       0       0       0       0       0       0
       0       0       0       0       0       0       0       0
       0       0       0       0       0       0       0       0
       0       0       0       0       0       0       0       0
       0       0       0       0       0       0       0       0
       0       0       0       0       0       0       0       0
       0       0       0       0       0       0       0       0
       0       0       0       0       0       0       0       0
       0       0       0       0       0       0       0       0
       0       0       0       0       0       0       0       0
       0       0       0       0       0       0       0       0
       0       0       0       0       0       0       0       0
       0       0       0       0       0       0       0       0
       0       0       0       0       0       0       0       0
       0       0       0       0       0       0       0       0
       0       0       0       0       0       0       0       0
       0       0       0       0       0       0       0       0
       0       0       0       0       0       0       0       0
       0       0       0       0       0       0       0       0
       0       0       0       0       0       0       0       0
       0       0       0       0       0       0       0       0
       0       0       0       0       0       0       0       0
       0       0       0       0       0       0       0       0
       0       0       0       0       0       0       0       0
       0       0       0       0       0       0       0       0
       0       0       0       0       0       0       0       0
       0       0       0       0       0       0       0       0
       0       0       0       0       0       0       0       0
       0       0       0       0       0       0       0       0
       0       0       0       0       0       0       0       0
       0       0       0       0       0       0       0       0
       0       0       0       0       0       0       0       0
       0       0       0       0       0       0       0       0
       0       0       0       0       0       0       0       0
       0       0       0       0       0       0       0       0
       0       0       0       0       0       0       0       0
       0       0       0       0       0       0       0       0
       0       0       0       0       0       0       0       0
       0       0       0       0       0       0       0       0
       0       0       0       0       0       0       0       0
       0       0       0       0       0       0       0       0
       0       0       0       0       0       0       0       0
       0       0       0       0       0       0       0       0
       0       0       0       0       0       0       0       0
       0       0       0       0       0       0       0       0
       0       0       0       0       0       0       0       0
       0       0       0       0       0       0       0       0
       0       0       0       0       0       0       0       0
       0       0       0       0       0       0       0       0
       0       0       0       0       0       0       0       0
       0       0       0       0       0       0       0       0
       0       0       0       0       0       0       0       0
       0       0       0       0       0       0       0       0
       0       0       0       0       0       0       0       0
       0       0       0       0       0       0       0       0
       0       0       0       0       0       0       0       0
       0       0       0       0       0       0       0       0
       0       0       0       0       0       0       0       0
       0       0       0       0       0       0       0       0
       0       0       0       0       0       0       0       0
       0       0       0       0       0       0       0       0
       0       0       0       0       0       0       0       0
       0       0       0       0       0       0       0       0
       0       0       0       0       0       0       0       0
       0       0       0       0       0       0       0       0
       0       0       0       0       0       0       0       0
       0       0       0       0       0       0       0       0
       0       0       0       0       0       0       0       0
       0       0       0       0       0       0       0       0
       0       0       0       0       0       0       0       0
       0       0       0       0       0       0       0       0
       0       0       0       0       0       0       0       0
       0       0       0       0       0       0       0       0
       0       0       0       0       0       0       0       0
       0       0       0       0       0       0       0       0
       0       0       0       0       0       0       0       0
       0       0       0       0       0       0       0       0
       0       0       0       0       0       0       0       0
       0       0       0       0       0       0       0       0
       0       0       0       0       0       0       0       0
       0       0       0       0       0       0       0       0
       0       0       0       0       0       0       0       0
       0       0       0       0       0       0       0       0
       0       0       0       0       0       0       0       0
       0       0       0       0       0       0       0       0
       0       0       0       0       0       0       0       0
       0       0       0       0       0       0       0       0
       0       0       0       0       0       0       0       0
       0       0       0       0       0       0       0       0
       0       0       0       0       0       0       0       0
       0       0       0       0       0       0       0       0
       0       0       0       0       0       0       0       0
       0       0       0       0       0       0       0       0
       0       0       0       0       0       0       0       0
       0       0       0       0       0       0       0       0
       0       0       0       0       0       0       0       0
       0       0       0       0       0       0       0       0
       0       0       0       0       0       0       0       0
       0       0       0       0       0       0       0       0
       0       0       0       0       0       0       0       0
       0       0       0       0       0       0       0       0
       0       0       0       0       0       0       0       0
       0       0       0       0       0       0       0       0
       0       0       0       0       0       0       0       0
       0       0       0       0       0       0       0       0
       0       0       0       0       0       0       0       0
       0       0       0       0       0       0       0       0
       0       0       0       0       0       0       0       0
       0       0       0       0       0       0       0       0
       0       0       0       0       0       0       0       0
       0       0       0       0       0       0       0       0
       0       0       0       0       0       0       0       0
       0       0       0       0       0       0       0       0
       0       0       0       0       0       0       0       0
       0       0       0       0       0       0       0       0
       0       0       0       0       0       0       0       0
       0       0       0       0       0       0       0       0
       0       0       0       0       0       0       0       0
       0       0       0       0       0       0       0       0
       0       0       0       0       0       0       0       0
       0       0       0       0       0       0       0       0
       0       0       0       0       0       0       0       0
       0       0       0       0       0       0       0       0
       0       0       0       0       0       0       0       0
       0       0       0       0       0       0       0       0
       0       0       0       0       0       0       0       0
       0       0       0       0       0       0       0       0
       0       0       0       0       0       0       0       0
       0       0       0       0       0       0       0       0
       0       0       0       0       0       0       0       0
       0       0       0       0       0       0       0       0
       0       0       0       0       0       0       0       0
       0       0       0       0       0       0       0       0
       0       0       0       0       0       0       0       0
       0       0       0       0       0       0       0       0
       0       0       0       0       0       0       0       0
       0       0       0       0       0       0       0       0
       0       0       0       0       0       0       0       0
       0       0       0       0       0       0       0       0
       0       0       0       0       0       0       0       0
       0       0       0       0       0       0       0       0
       0       0       0       0       0       0       0       0
       0       0       0       0       0       0       0       0
       0       0       0       0       0       0       0       0
       0       0       0       0       0       0       0       0
       0       0       0       0       0       0       0       0
       0       0       0       0       0       0       0       0
       0       0       0       0       0       0       0       0
       0       0       0       0       0       0       0       0
       0       0       0       0       0       0       0       0
       0       0       0       0       0       0       0       0
       0       0       0       0       0       0       0       0
       0       0       0       0       0       0       0       0
       0       0       0       0       0       0       0       0
       0       0       0       0       0       0       0       0
       0       0       0       0       0       0       0       0
       0       0       0       0       0       0       0       0
       0       0       0       0       0       0       0       0
       0       0       0       0       0       0       0       0
       0       0       0       0       0       0       0       0
       0       0       0       0       0       0       0       0
       0       0       0       0       0       0       0       0
       0       0       0       0       0       0       0       0
       0       0       0       0       0       0       0       0
       0       0       0       0       0       0       0       0
       0       0       0       0       0       0       0       0
       0       0       0       0       0       0       0       0
       0       0       0       0       0       0       0       0
       0       0       0       0       0       0       0       0
       0       0       0       0       0       0       0       0
       0       0       0       0       0       0       0       0
       0       0       0       0       0       0       0       0
       0       0       0       0       0       0       0       0
       0       0       0       0       0       0       0       0
       0       0       0       0       0       0       0       0
       0       0       0       0       0       0       0       0
       0       0       0       0       0       0       0       0
       0       0       0       0       0       0       0       0
       0       0       0       0       0       0       0       0
       0       0       0       0       0       0       0       0
       0       0       0       0       0       0       0       0
       0       0       0       0       0       0       0       0
       0       0       0       0       0       0       0       0
       0       0       0       0       0       0       0       0
       0       0       0       0       0       0       0       0
       0       0       0       0       0       0       0       0
       0       0       0       0       0       0       0       0
       0       0       0       0       0       0       0       0
       0       0       0       0       0       0       0       0
       0       0       0       0       0       0       0       0
       0       0       0       0       0       0       0       0
       0       0       0       0       0       0       0       0
       0       0       0       0       0       0       0       0
       0       0       0       0       0       0       0       0
       0       0       0       0       0       0       0       0
       0       0       0       0       0       0       0       0
       0       0       0       0       0       0       0       0
       0       0       0       0       0       0       0       0
       0       0       0       0       0       0       0       0
       0       0       0       0       0       0       0       0
       0       0       0       0       0       0       0       0
       0       0       0       0       0       0       0       0
       0       0       0       0       0       0       0       0
       0       0       0       0       0       0       0       0
       0       0       0       0       0       0       0       0
       0       0       0       0       0       0       0       0
       0       0       0       0       0       0       0       0
       0       0       0       0       0       0       0       0
       0       0       0       0       0       0       0       0
       0       0       0       0       0       0       0       0
       0       0       0       0       0       0       0       0
       0       0       0       0       0       0       0       0
       0       0       0       0       0       0       0       0
       0       0       0       0       0       0       0       0
       0       0       0       0       0       0       0       0
       0       0       0       0       0       0       0       0
       0       0       0       0       0       0       0       0
       0       0       0       0       0       0       0       0
       0       0       0       0       0       0       0       0
       0       0       0       0       0       0       0       0
       0       0       0       0       0       0       0       0
       0       0       0       0       0       0       0       0
       0       0       0       0       0       0       0       0
       0       0       0       0       0       0       0       0
       0       0       0       0       0       0       0       0
       0       0       0       0       0       0       0       0
       0       0       0       0       0       0       0       0
       0       0       0       0       0       0       0       0
       0       0       0       0       0       0       0       0
       0       0       0       0       0       0       0       0
       0       0       0       0       0       0       0       0
       0       0       0       0       0       0       0       0
       0       0       0       0       0       0       0       0
       0       0       0       0       0       0       0       0
       0       0       0       0       0       0       0       0
       0       0       0       0       0       0       0       0
       0       0       0       0       0       0       0       0
       0       0       0       0       0       0       0       0
       0       0       0       0       0       0       0       0
       0       0       0       0       0       0       0       0
       0       0       0       0       0       0       0       0
       0       0       0       0       0       0       0       0
       0       0       0       0       0       0       0       0
       0       0       0       0       0       0       0       0
       0       0       0       0       0       0       0       0
       0       0       0       0       0       0       0       0
       0       0       0       0       0       0       0       0
       0       0       0       0       0       0       0       0
       0       0       0       0       0       0       0       0
       0       0       0       0       0       0       0       0
       0       0       0       0       0       0       0       0
       0       0       0       0       0       0       0       0
       0       0       0       0       0       0       0       0
       0       0       0       0       0       0       0       0
       0       0       0       0       0       0       0       0
       0       0       0       0       0       0       0       0
       0       0       0       0       0       0       0       0
       0       0       0       0       0       0       0       0
       0       0       0       0       0       0       0       0
       0       0       0       0       0       0       0       0
       0       0       0       0       0       0       0       0
       0       0       0       0       0       0       0       0
       0       0       0       0       0       0       0       0
       0       0       0       0       0       0       0       0
       0       0       0       0       0       0       0       0
       0       0       0       0       0       0       0       0
       0       0       0       0       0       0       0       0
       0       0       0       0       0       0       0       0
       0       0       0       0       0       0       0       0
       0       0       0       0       0       0       0       0
       0       0       0       0       0       0       0       0
       0       0       0       0       0       0       0       0
       0       0       0       0       0       0       0       0
       0       0       0       0       0       0       0       0
       0       0       0       0       0       0       0       0
       0       0       0       0       0       0       0       0
       0       0       0       0       0       0       0       0
       0       0       0       0       0       0       0       0
       0       0       0       0       0       0       0       0
       0       0       0       0       0       0       0       0
       0       0       0       0       0       0       0       0
       0       0       0       0       0       0       0       0
       0       0       0       0       0       0       0       0
       0       0       0       0       0       0       0       0
       0       0       0       0       0       0       0       0
       0       0       0       0       0       0       0       0
       0       0       0       0       0       0       0       0
       0       0       0       0       0       0       0       0
       0       0       0       0       0       0       0       0
       0       0       0       0       0       0       0       0
       0       0       0       0       0       0       0       0
       0       0       0       0       0       0       0       0
       0       0       0       0       0       0       0       0
       0       0       0       0       0       0       0       0
       0       0       0       0       0       0       0       0
       0       0       0       0       0       0       0       0
       0       0       0       0       0       0       0       0
       0       0       0       0       0       0       0       0
       0       0       0       0       0       0       0       0
       0       0       0       0       0       0       0       0
       0       0       0       0       0       0       0       0
       0       0       0       0       0       0       0       0
       0       0       0       0       0       0       0       0
       0       0       0       0       0       0       0       0
       0       0       0       0       0       0       0       0
       0       0       0       0       0       0       0       0
       0       0       0       0       0       0       0       0
       0       0       0       0       0       0       0       0
       0       0       0       0       0       0       0       0
       0       0       0       0       0       0       0       0
       0       0       0       0       0       0       0       0
       0       0       0       0       0       0       0       0
       0       0       0       0       0       0       0       0
       0       0       0       0       0       0       0       0
       0       0       0       0       0       0       0       0
       0       0       0       0       0       0       0       0
       0       0       0       0       0       0       0       0
       0       0       0       0       0       0       0       0
       0       0       0       0       0       0       0       0
       0       0       0       0       0       0       0       0
       0       0       0       0       0       0       0       0
       0       0       0       0       0       0       0       0
       0       0       0       0       0       0       0       0
       0       0       0       0       0       0       0       0
       0       0       0       0       0       0       0       0
       0       0       0       0       0       0       0       0
       0       0       0       0       0       0       0       0
       0       0       0       0       0       0       0       0
       0       0       0       0       0       0       0       0
       0       0       0       0       0       0       0       0
       0       0       0       0       0       0       0       0
       0       0       0       0       0       0       0       0
       0       0       0       0       0       0       0       0
       0       0       0       0       0       0       0       0
       0       0       0       0       0       0       0       0
       0       0       0       0       0       0       0       0
       0       0       0       0       0       0       0       0
       0       0       0       0       0       0       0       0
       0       0       0       0       0       0       0       0
       0       0       0       0       0       0       0       0
       0       0       0       0       0       0       0       0
       0       0       0       0       0       0       0       0
       0       0       0       0       0       0       0       0
       0       0       0       0       0       0       0       0
       0       0       0       0       0       0       0       0
       0       0       0       0       0       0       0       0
       0       0       0       0       0       0       0       0
       0       0       0       0       0       0       0       0
       0       0       0       0       0       0       0       0
       0       0       0       0       0       0       0       0
       0       0       0       0       0       0       0       0
       0       0       0       0       0       0       0       0
       0       0       0       0       0       0       0       0
       0       0       0       0       0       0       0       0
       0       0       0       0       0       0       0       0
       0       0       0       0       0       0       0       0
       0       0       0       0       0       0       0       0
       0       0       0       0       0       0       0       0
       0       0       0       0       0       0       0       0
       0       0       0       0       0       0       0       0
       0       0       0       0       0       0       0       0
       0       0       0       0       0       0       0       0
       0       0       0       0       0       0       0       0
       0       0       0       0       0       0       0       0
       0       0       0       0       0       0       0       0
       0       0       0       0       0       0       0       0
       0       0       0       0       0       0       0       0
       0       0       0       0       0       0       0       0
       0       0       0       0       0       0       0       0
       0       0       0       0       0       0       0       0
       0       0       0       0       0       0       0       0
       0       0       0       0       0       0       0       0
       0       0       0       0       0       0       0       0
       0       0       0       0       0       0       0       0
       0       0       0       0       0       0       0       0
       0       0       0       0       0       0       0       0
       0       0       0       0       0       0       0       0
       0       0       0       0       0       0       0       0
       0       0       0       0       0       0       0       0
       0       0       0       0       0       0       0       0
       0       0       0       0       0       0       0       0
       0       0       0       0       0       0       0       0
       0       0       0       0       0       0       0       0
       0       0       0       0       0       0       0       0
       0       0       0       0       0       0       0       0
       0       0       0       0       0       0       0       0
       0       0       0       0       0       0       0       0
       0       0       0       0       0       0       0       0
       0       0       0       0       0       0       0       0
       0       0       0       0       0       0       0       0
       0       0       0       0       0       0       0       0
       0       0       0       0       0       0       0       0
       0       0       0       0       0       0       0       0
       0       0       0       0       0       0       0       0
       0       0       0       0       0       0       0       0
       0       0       0       0       0       0       0       0
       0       0       0       0       0       0       0       0
       0       0       0       0       0       0       0       0
       0       0       0       0       0       0       0       0
       0       0       0       0       0       0       0       0
       0       0       0       0       0       0       0       0
       0       0       0       0       0       0       0       0
       0       0       0       0       0       0       0       0
       0       0       0       0       0       0       0       0
       0       0       0       0       0       0       0       0
       0       0       0       0       0       0       0       0
       0       0       0       0       0       0       0       0
       0       0       0       0       0       0       0       0
       0       0       0       0       0       0       0       0
       0       0       0       0       0       0       0       0
       0       0       0       0       0       0       0       0
       0       0       0       0       0       0       0       0
       0       0       0       0       0       0       0       0
       0       0       0       0       0       0       0       0
       0       0       0       0       0       0       0       0
       0       0       0       0       0       0       0       0
       0       0       0       0       0       0       0       0
       0       0       0       0       0       0       0       0
       0       0       0       0       0       0       0       0
       0       0       0       0       0       0       0       0
       0       0       0       0       0       0       0       0
       0       0       0       0       0       0       0       0
       0       0       0       0       0       0       0       0
       0       0       0       0       0       0       0       0
       0       0       0       0       0       0       0       0
       0       0       0       0       0       0       0       0
       0       0       0       0       0       0       0       0
       0       0       0       0       0       0       0       0
       0       0       0       0       0       0       0       0
       0       0       0       0       0       0       0       0
       0       0       0       0       0       0       0       0
       0       0       0       0       0       0       0       0
       0       0       0       0       0       0       0       0
       0       0       0       0       0       0       0       0
       0       0       0       0       0       0       0       0
       0       0       0       0       0       0       0       0
       0       0       0       0       0       0       0       0
       0       0       0       0       0       0       0       0
       0       0       0       0       0       0       0       0
       0       0       0       0       0       0       0       0
       0       0       0       0       0       0       0       0
       0       0       0       0       0       0       0       0
       0       0       0       0       0       0       0       0
       0       0       0       0       0       0       0       0
       0       0       0       0       0       0       0       0
       0       0       0       0       0       0       0       0
       0       0       0       0       0       0       0       0
       0       0       0       0       0       0       0       0
       0       0       0       0       0       0       0       0
       0       0       0       0       0       0       0       0
       0       0       0       0       0       0       0       0
       0       0       0       0       0       0       0       0
       0       0       0       0       0       0       0       0
       0       0       0       0       0       0       0       0
       0       0       0       0       0       0       0       0
       0       0       0       0       0       0       0       0
       0       0       0       0       0       0       0       0
       0       0       0       0       0       0       0       0
       0       0       0       0       0       0       0       0
       0       0       0       0       0       0       0       0
       0       0       0       0       0       0       0       0
       0       0       0       0       0       0       0       0
       0       0       0       0       0       0       0       0
       0       0       0       0       0       0       0       0
       0       0       0       0       0       0       0       0
       0       0       0       0       0       0       0       0
       0       0       0       0       0       0       0       0
       0       0       0       0       0       0       0       0
       0       0       0       0       0       0       0       0
       0       0       0       0       0       0       0       0
       0       0       0       0       0       0       0       0
       0       0       0       0       0       0       0       0
       0       0       0       0       0       0       0       0
       0       0       0       0       0       0       0       0
       0       0       0       0       0       0       0       0
       0       0       0       0       0       0       0       0
       0       0       0       0       0       0       0       0
       0       0       0       0       0       0       0       0
       0       0       0       0       0       0       0       0
       0       0       0       0       0       0       0       0
       0       0       0       0       0       0       0       0
       0       0       0       0       0       0       0       0
       0       0       0       0       0       0       0       0
       0       0       0       0       0       0       0       0
       0       0       0       0       0       0       0       0
       0       0       0       0       0       0       0       0
       0       0       0       0       0       0       0       0
       0       0       0       0       0       0       0       0
       0       0       0       0       0       0       0       0
       0       0       0       0       0       0       0       0
       0       0       0       0       0       0       0       0
       0       0       0       0       0       0       0       0
       0       0       0       0       0       0       0       0
       0       0       0       0       0       0       0       0
       0       0       0       0       0       0       0       0
       0       0       0       0       0       0       0       0
       0       0       0       0       0       0       0       0
       0       0       0       0       0       0       0       0
       0       0       0       0       0       0       0       0
       0       0       0       0       0       0       0       0
       0       0       0       0       0       0       0       0
       0       0       0       0       0       0       0       0
       0       0       0       0       0       0       0       0
       0       0       0       0       0       0       0       0
       0       0       0       0       0       0       0       0
       0       0       0       0       0       0       0       0
       0       0       0       0       0       0       0       0
       0       0       0       0       0       0       0       0
       0       0       0       0       0       0       0       0
       0       0       0       0       0       0       0       0
       0       0       0       0       0       0       0       0
       0       0       0       0       0       0       0       0
       0       0       0       0       0       0       0       0
       0       0       0       0       0       0       0       0
       0       0       0       0       0       0       0       0
       0       0       0       0       0       0       0       0
       0       0       0       0       0       0       0       0
       0       0       0       0       0       0       0       0
       0       0       0       0       0       0       0       0
       0       0       0       0       0       0       0       0
       0       0       0       0       0       0       0       0
       0       0       0       0       0       0       0       0
       0       0       0       0       0       0       0       0
       0       0       0       0       0       0       0       0
       0       0       0       0       0       0       0       0
       0       0       0       0       0       0       0       0
       0       0       0       0       0       0       0       0
       0       0       0       0       0       0       0       0
       0       0       0       0       0       0       0       0
       0       0       0       0       0       0       0       0
       0       0       0       0       0       0       0       0
       0       0       0       0       0       0       0       0
       0       0       0       0       0       0       0       0
       0       0       0       0       0       0       0       0
       0       0       0       0       0       0       0       0
       0       0       0       0       0       0       0       0
       0       0       0       0       0       0       0       0
       0       0       0       0       0       0       0       0
       0       0       0       0       0       0       0       0
       0       0       0       0       0       0       0       0
       0       0       0       0       0       0       0       0
       0       0       0       0       0       0       0       0
       0       0       0       0       0       0       0       0
       0       0       0       0       0       0       0       0
       0       0       0       0       0       0       0       0
       0       0       0       0       0       0       0       0
       0       0       0       0       0       0       0       0
       0       0       0       0       0       0       0       0
       0       0       0       0       0       0       0       0
       0       0       0       0       0       0       0       0
       0       0       0       0       0       0       0       0
       0       0       0       0       0       0       0       0
       0       0       0       0       0       0       0       0
       0       0       0       0       0       0       0       0
       0       0       0       0       0       0       0       0
       0       0       0       0       0       0       0       0
       0       0       0       0       0       0       0       0
       0       0       0       0       0       0       0       0
       0       0       0       0       0       0       0       0
       0       0       0       0       0       0       0       0
       0       0       0       0       0       0       0       0
       0       0       0       0       0       0       0       0
       0       0       0       0       0       0       0       0
       0       0       0       0       0       0       0       0
       0       0       0       0       0       0       0       0
       0       0       0       0       0       0       0       0
       0       0       0       0       0       0       0       0
       0       0       0       0       0       0       0       0
       0       0       0       0       0       0       0       0
       0       0       0       0       0       0       0       0
       0       0       0       0       0       0       0       0
       0       0       0       0       0       0       0       0
       0       0       0       0       0       0       0       0
       0       0       0       0       0       0       0       0
       0       0       0       0       0       0       0       0
       0       0       0       0       0       0       0       0
       0       0       0       0       0       0       0       0
       0       0       0       0       0       0       0       0
       0       0       0       0       0       0       0       0
       0       0       0       0       0       0       0       0
       0       0       0       0       0       0       0       0
       0       0       0       0       0       0       0       0
       0       0       0       0       0       0       0       0
       0       0       0       0       0       0       0       0
       0       0       0       0       0       0       0       0
       0       0       0       0       0       0       0       0
       0       0       0       0       0       0       0       0
       0       0       0       0       0       0       0       0
       0       0       0       0       0       0       0       0
       0       0       0       0       0       0       0       0
       0       0       0       0       0       0       0       0
       0       0       0       0       0       0       0       0
       0       0       0       0       0       0       0       0
       0       0       0       0       0       0       0       0
       0       0       0       0       0       0       0       0
       0       0       0       0       0       0       0       0
       0       0       0       0       0       0       0       0
       0       0       0       0       0       0       0       0
       0       0       0       0       0       0       0       0
       0       0       0       0       0       0       0       0
       0       0       0       0       0       0       0       0
       0       0       0       0       0       0       0       0
       0       0       0       0       0       0       0       0
       0       0       0       0       0       0       0       0
       0       0       0       0       0       0       0       0
       0       0       0       0       0       0       0       0
       0       0       0       0       0       0       0       0
       0       0       0       0       0       0       0       0
       0       0       0       0       0       0       0       0
       0       0       0       0       0       0       0       0
       0       0       0       0       0       0       0       0
       0       0       0       0       0       0       0       0
       0       0       0       0       0       0       0       0
       0       0       0       0       0       0       0       0
       0       0       0       0       0       0       0       0
       0       0       0       0       0       0       0       0
       0       0       0       0       0       0       0       0
       0       0       0       0       0       0       0       0
       0       0       0       0       0       0       0       0
       0       0       0       0       0       0       0       0
       0       0       0       0       0       0       0       0
       0       0       0       0       0       0       0       0
       0       0       0       0       0       0       0       0
       0       0       0       0       0       0       0       0
       0       0       0       0       0       0       0       0
       0       0       0       0       0       0       0       0
       0       0       0       0       0       0       0       0
       0       0       0       0       0       0       0       0
       0       0       0       0       0       0       0       0
       0       0       0       0       0       0       0       0
       0       0       0       0       0       0       0       0
       0       0       0       0       0       0       0       0
       0       0       0       0       0       0       0       0
       0       0       0       0       0       0       0       0
       0       0       0       0       0       0       0       0
       0       0       0       0       0       0       0       0
       0       0       0       0       0       0       0       0
       0       0       0       0       0       0       0       0
       0       0       0       0       0       0       0       0
       0       0       0       0       0       0       0       0
       0       0       0       0       0       0       0       0
       0       0       0       0       0       0       0       0
       0       0       0       0       0       0       0       0
       0       0       0       0       0       0       0       0
       0       0       0       0       0       0       0       0
       0       0       0       0       0       0       0       0
       0       0       0       0       0       0       0       0
       0       0       0       0       0       0       0       0
       0       0       0       0       0       0       0       0
       0       0       0       0       0       0       0       0
       0       0       0       0       0       0       0       0
       0       0       0       0       0       0       0       0
       0       0       0       0       0       0       0       0
       0       0       0       0       0       0       0       0
       0       0       0       0       0       0       0       0
       0       0       0       0       0       0       0       0
       0       0       0       0       0       0       0       0
       0       0       0       0       0       0       0       0
       0       0       0       0       0       0       0       0
       0       0       0       0       0       0       0       0
       0       0       0       0       0       0       0       0
       0       0       0       0       0       0       0       0
       0       0       0       0       0       0       0       0
       0       0       0       0       0       0       0       0
       0       0       0       0       0       0       0       0
       0       0       0       0       0       0       0       0
       0       0       0       0       0       0       0       0
       0       0       0       0       0       0       0       0
       0       0       0       0       0       0       0       0
       0       0       0       0       0       0       0       0
       0       0       0       0       0       0       0       0
       0       0       0       0       0       0       0       0
       0       0       0       0       0       0       0       0
       0       0       0       0       0       0       0       0
       0       0       0       0       0       0       0       0
       0       0       0       0       0       0       0       0
       0       0       0       0       0       0       0       0
       0       0       0       0       0       0       0       0
       0       0       0       0       0       0       0       0
       0       0       0       0       0       0       0       0
       0       0       0       0       0       0       0       0
       0       0       0       0       0       0       0       0
       0       0       0       0       0       0       0       0
       0       0       0       0       0       0       0       0
       0       0       0       0       0       0       0       0
       0       0       0       0       0       0       0       0
       0       0       0       0       0       0       0       0
       0       0       0       0       0       0       0       0
       0       0       0       0       0       0       0       0
       0       0       0       0       0       0       0       0
       0       0       0       0       0       0       0       0
       0       0       0       0       0       0       0       0
       0       0       0       0       0       0       0       0
       0       0       0       0       0       0       0       0
       0       0       0       0       0       0       0       0
       0       0       0       0       0       0       0       0
       0       0       0       0       0       0       0       0
       0       0       0       0       0       0       0       0
       0       0       0       0       0       0       0       0
       0       0       0       0       0       0       0       0
       0       0       0       0       0       0       0       0
       0       0       0       0       0       0       0       0
       0       0       0       0       0       0       0       0
       0       0       0       0       0       0       0       0
       0       0       0       0       0       0       0       0
       0       0       0       0       0       0       0       0
       0       0       0       0       0       0       0       0
       0       0       0       0       0       0       0       0
       0       0       0       0       0       0       0       0
       0       0       0       0       0       0       0       0
       0       0       0       0       0       0       0       0
       0       0       0       0       0       0       0       0
       0       0       0       0       0       0       0       0
       0       0       0       0       0       0       0       0
       0       0       0       0       0       0       0       0
       0       0       0       0       0       0       0       0
       0       0       0       0       0       0       0       0
       0       0       0       0       0       0       0       0
       0       0       0       0       0       0       0       0
       0       0       0       0       0       0       0       0
       0       0       0       0       0       0       0       0
       0       0       0       0       0       0       0       0
       0       0       0       0       0       0       0       0
       0       0       0       0       0       0       0       0
       0       0       0       0       0       0       0       0
       0       0       0       0       0       0       0       0
       0       0       0       0       0       0       0       0
       0       0       0       0       0       0       0       0
       0       0       0       0       0       0       0       0
       0       0       0       0       0       0       0       0
       0       0       0       0       0       0       0       0
       0       0       0       0       0       0       0       0
       0       0       0       0       0       0       0       0
       0       0       0       0       0       0       0       0
       0       0       0       0       0       0       0       0
       0       0       0       0       0       0       0       0
       0       0       0       0       0       0       0       0
       0       0       0       0       0       0       0       0
       0       0       0       0       0       0       0       0
       0       0       0       0       0       0       0       0
       0       0       0       0       0       0       0       0
       0       0       0       0       0       0       0       0
       0       0       0       0       0       0       0       0
       0       0       0       0       0       0       0       0
       0       0       0       0       0       0       0       0
       0       0       0       0       0       0       0       0
       0       0       0       0       0       0       0       0
       0       0       0       0       0       0       0       0
       0       0       0       0       0       0       0       0
       0       0       0       0       0       0       0       0
       0       0       0       0       0       0       0       0
       0       0       0       0       0       0       0       0
       0       0       0       0       0       0       0       0
       0       0       0       0       0       0       0       0
       0       0       0       0       0       0       0       0
       0       0       0       0       0       0       0       0
       0       0       0       0       0       0       0       0
       0       0       0       0       0       0       0       0
       0       0       0       0       0       0       0       0
       0       0       0       0       0       0       0       0
       0       0       0       0       0       0       0       0
       0       0       0       0       0       0       0       0
       0       0       0       0       0       0       0       0
       0       0       0       0       0       0       0       0
       0       0       0       0       0       0       0       0
       0       0       0       0       0       0       0       0
       0       0       0       0       0       0       0       0
       0       0       0       0       0       0       0       0
       0       0       0       0       0       0       0       0
       0       0       0       0       0       0       0       0
       0       0       0       0       0       0       0       0
       0       0       0       0       0       0       0       0
       0       0       0       0       0       0       0       0
       0       0       0       0       0       0       0       0
       0       0       0       0       0       0       0       0
       0       0       0       0       0       0       0       0
       0       0       0       0       0       0       0       0
       0       0       0       0       0       0       0       0
       0       0       0       0       0       0       0       0
       0       0       0       0       0       0       0       0
       0       0       0       0       0       0       0       0
       0       0       0       0       0       0       0       0
       0       0       0       0       0       0       0       0
       0       0       0       0       0       0       0       0
       0       0       0       0       0       0       0       0
       0       0       0       0       0       0       0       0
       0       0       0       0       0       0       0       0
       0       0       0       0       0       0       0       0
       0       0       0       0       0       0       0       0
       0       0       0       0       0       0       0       0
       0       0       0       0       0       0       0       0
       0       0       0       0       0       0       0       0
       0       0       0       0       0       0       0       0
       0       0       0       0       0       0       0       0
       0       0       0       0       0       0       0       0
       0       0       0       0       0       0       0       0
       0       0       0       0       0       0       0       0
       0       0       0       0       0       0       0       0
       0       0       0       0       0       0       0       0
       0       0       0       0       0       0       0       0
       0       0       0       0       0       0       0       0
       0       0       0       0       0       0       0       0
       0       0       0       0       0       0       0       0
       0       0       0       0       0       0       0       0
       0       0       0       0       0       0       0       0
       0       0       0       0       0       0       0       0
       0       0       0       0       0       0       0       0
       0       0       0       0       0       0       0       0
       0       0       0       0       0       0       0       0
       0       0       0       0       0       0       0       0
       0       0       0       0       0       0       0       0
       0       0       0       0       0       0       0       0
       0       0       0       0       0       0       0       0
       0       0       0       0       0       0       0       0
       0       0       0       0       0       0       0       0
       0       0       0       0       0       0       0       0
       0       0       0       0       0       0       0       0
       0       0       0       0       0       0       0       0
       0       0       0       0       0       0       0       0
       0       0       0       0       0       0       0       0
       0       0       0       0       0       0       0       0
       0       0       0       0       0       0       0       0
       0       0       0       0       0       0       0       0
       0       0       0       0       0       0       0       0
       0       0       0       0       0       0       0       0
       0       0       0       0       0       0       0       0
       0       0       0       0       0       0       0       0
       0       0       0       0       0       0       0       0
       0       0       0       0       0       0       0       0
       0       0       0       0       0       0       0       0
       0       0       0       0       0       0       0       0
       0       0       0       0       0       0       0       0
       0       0       0       0       0       0       0       0
       0       0       0       0       0       0       0       0
       0       0       0       0       0       0       0       0
       0       0       0       0       0       0       0       0
       0       0       0       0       0       0       0       0
       0       0       0       0       0       0       0       0
       0       0       0       0       0       0       0       0
       0       0       0       0       0       0       0       0
       0       0       0       0       0       0       0       0
       0       0       0       0       0       0       0       0
       0       0       0       0       0       0       0       0
       0       0       0       0       0       0       0       0
       0       0       0       0       0       0       0       0
       0       0       0       0       0       0       0       0
       0       0       0       0       0       0       0       0
       0       0       0       0       0       0       0       0
       0       0       0       0       0       0       0       0
       0       0       0       0       0       0       0       0
       0       0       0       0       0       0       0       0
       0       0       0       0       0       0       0       0
       0       0       0       0       0       0       0       0
       0       0       0       0       0       0       0       0
       0       0       0       0       0       0       0       0
       0       0       0       0       0       0       0       0
       0       0       0       0       0       0       0       0
       0       0       0       0       0       0       0       0
       0       0       0       0       0       0       0       0
       0       0       0       0       0       0       0       0
       0       0       0       0       0       0       0       0
       0       0       0       0       0       0       0       0
       0       0       0       0       0       0       0       0
       0       0       0       0       0       0       0       0
       0       0       0       0       0       0       0       0
       0       0       0       0       0       0       0       0
       0       0       0       0       0       0       0       0
       0       0       0       0       0       0       0       0
       0       0       0       0       0       0       0       0
       0       0       0       0       0       0       0       0
       0       0       0       0       0       0       0       0
       0       0       0       0       0       0       0       0
       0       0       0       0       0       0       0       0
       0       0       0       0       0       0       0       0
       0       0       0       0       0       0       0       0
       0       0       0       0       0       0       0       0
       0       0       0       0       0       0       0       0
       0       0       0       0       0       0       0       0
       0       0       0       0       0       0       0       0
       0       0       0       0       0       0       0       0
       0       0       0       0       0       0       0       0
       0       0       0       0       0       0       0       0
       0       0       0       0       0       0       0       0
       0       0       0       0       0       0       0       0
       0       0       0       0       0       0       0       0
       0       0       0       0       0       0       0       0
       0       0       0       0       0       0       0       0
       0       0       0       0       0       0       0       0
       0       0       0       0       0       0       0       0
       0       0       0       0       0       0       0       0
       0       0       0       0       0       0       0       0
       0       0       0       0       0       0       0       0
       0       0       0       0       0       0       0       0
       0       0       0       0       0       0       0       0
       0       0       0       0       0       0       0       0
       0       0       0       0       0       0       0       0
       0       0       0       0       0       0       0       0
       0       0       0       0       0       0       0       0
       0       0       0       0       0       0       0       0
       0       0       0       0       0       0       0       0
       0       0       0       0       0       0       0       0
       0       0       0       0       0       0       0       0
       0       0       0       0       0       0       0       0
       0       0       0       0       0       0       0       0
       0       0       0       0       0       0       0       0
       0       0       0       0       0       0       0       0
       0       0       0       0       0       0       0       0
       0       0       0       0       0       0       0       0
       0       0       0       0       0       0       0       0
       0       0       0       0       0       0       0       0
       0       0       0       0       0       0       0       0
       0       0       0       0       0       0       0       0
       0       0       0       0       0       0       0       0
       0       0       0       0       0       0       0       0
       0       0       0       0       0       0       0       0
       0       0       0       0       0       0       0       0
       0       0       0       0       0       0       0       0
       0       0       0       0       0       0       0       0
       0       0       0       0       0       0       0       0
       0       0       0       0       0       0       0       0
       0       0       0       0       0       0       0       0
       0       0       0       0       0       0       0       0
       0       0       0       0       0       0       0       0
       0       0       0       0       0       0       0       0
       0       0       0       0       0       0       0       0
       0       0       0       0       0       0       0       0
       0       0       0       0       0       0       0       0
       0       0       0       0       0       0       0       0
       0       0       0       0       0       0       0       0
       0       0       0       0       0       0       0       0
       0       0       0       0       0       0       0       0
       0       0       0       0       0       0       0       0
       0       0       0       0       0       0       0       0
       0       0       0       0       0       0       0       0
       0       0       0       0       0       0       0       0
       0       0       0       0       0       0       0       0
       0       0       0       0       0       0       0       0
       0       0       0       0       0       0       0       0
       0       0       0       0       0       0       0       0
       0       0       0       0       0       0       0       0
       0       0       0       0       0       0       0       0
       0       0       0       0       0       0       0       0
       0       0       0       0       0       0       0       0
       0       0       0       0       0       0       0       0
       0       0       0       0       0       0       0       0
       0       0       0       0       0       0       0       0
       0       0       0       0       0       0       0       0
       0       0       0       0       0       0       0       0
       0       0       0       0       0       0       0       0
       0       0       0       0       0       0       0       0
       0       0       0       0       0       0       0       0
       0       0       0       0       0       0       0       0
       0       0       0       0       0       0       0       0
       0       0       0       0       0       0       0       0
       0       0       0       0       0       0       0       0
       0       0       0       0       0       0       0       0
       0       0       0       0       0       0       0       0
       0       0       0       0       0       0       0       0
       0       0       0       0       0       0       0       0
       0       0       0       0       0       0       0       0
       0       0       0       0       0       0       0       0
       0       0       0       0       0       0       0       0
       0       0       0       0       0       0       0       0
       0       0       0       0       0       0       0       0
       0       0       0       0       0       0       0       0
       0       0       0       0       0       0       0       0
       0       0       0       0       0       0       0       0
       0       0       0       0       0       0       0       0
       0       0       0       0       0       0       0       0
       0       0       0       0       0       0       0       0
       0       0       0       0       0       0       0       0
       0       0       0       0       0       0       0       0
       0       0       0       0       0       0       0       0
       0       0       0       0       0       0       0       0
       0       0       0       0       0       0       0       0
       0       0       0       0       0       0       0       0
       0       0       0       0       0       0       0       0
       0       0       0       0       0       0       0       0
       0       0       0       0       0       0       0       0
       0       0       0       0       0       0       0       0
       0       0       0       0       0       0       0       0
       0       0       0       0       0       0       0       0
       0       0       0       0       0       0       0       0
       0       0       0       0       0       0       0       0
       0       0       0       0       0       0       0       0
       0       0       0       0       0       0       0       0
       0       0       0       0       0       0       0       0
       0       0       0       0       0       0       0       0
       0       0       0       0       0       0       0       0
       0       0       0       0       0       0       0       0
       0       0       0       0       0       0       0       0
       0       0       0       0       0       0       0       0
       0       0       0       0       0       0       0       0
       0       0       0       0       0       0       0       0
       0       0       0       0       0       0       0       0
       0       0       0       0       0       0       0       0
       0       0       0       0       0       0       0       0
       0       0       0       0       0       0       0       0
       0       0       0       0       0       0       0       0
       0       0       0       0       0       0       0       0
       0       0       0       0       0       0       0       0
       0       0       0       0       0       0       0       0
       0       0       0       0       0       0       0       0
       0       0       0       0       0       0       0       0
       0       0       0       0       0       0       0       0
       0       0       0       0       0       0       0       0
       0       0       0       0       0       0       0       0
       0       0       0       0       0       0       0       0
       0       0       0       0       0       0       0       0
       0       0       0       0       0       0       0       0
       0       0       0       0       0       0       0       0
       0       0       0       0       0       0       0       0
       0       0       0       0       0       0       0       0
       0       0       0       0       0       0       0       0
       0       0       0       0       0       0       0       0
       0       0       0       0       0       0       0       0
       0       0       0       0       0       0       0       0
       0       0       0       0       0       0       0       0
       0       0       0       0       0       0       0       0
       0       0       0       0       0       0       0       0
       0       0       0       0       0       0       0       0
       0       0       0       0       0       0       0       0
       0       0       0       0       0       0       0       0
       0       0       0       0       0       0       0       0
       0       0       0       0       0       0       0       0
       0       0       0       0       0       0       0       0
       0       0       0       0       0       0       0       0
       0       0       0       0       0       0       0       0
       0       0       0       0       0       0       0       0
       0       0       0       0       0       0       0       0
       0       0       0       0       0       0       0       0
       0       0       0       0       0       0       0       0
       0       0       0       0       0       0       0       0
       0       0       0       0       0       0       0       0
       0       0       0       0       0       0       0       0
       0       0       0       0       0       0       0       0
       0       0       0       0       0       0       0       0
       0       0       0       0       0       0       0       0
       0       0       0       0       0       0       0       0
       0       0       0       0       0       0       0       0
       0       0       0       0       0       0       0       0
       0       0       0       0       0       0       0       0
       0       0       0       0       0       0       0       0
       0       0       0       0       0       0       0       0
       0       0       0       0       0       0       0       0
       0       0       0       0       0       0       0       0
       0       0       0       0       0       0       0       0
       0       0       0       0       0       0       0       0
       0       0       0       0       0       0       0       0
       0       0       0       0       0       0       0       0
       0       0       0       0       0       0       0       0
       0       0       0       0       0       0       0       0
       0       0       0       0       0       0       0       0
       0       0       0       0       0       0       0       0
       0       0       0       0       0       0       0       0
       0       0       0       0       0       0       0       0
       0       0       0       0       0       0       0       0
       0       0       0       0       0       0       0       0
       0       0       0       0       0       0       0       0
       0       0       0       0       0       0       0       0
       0       0       0       0       0       0       0       0
       0       0       0       0       0       0       0       0
       0       0       0       0       0       0       0       0
       0       0       0       0       0       0       0       0
       0       0       0       0       0       0       0       0
       0       0       0       0       0       0       0       0
       0       0       0       0       0       0       0       0
       0       0       0       0       0       0       0       0
       0       0       0       0       0       0       0       0
       0       0       0       0       0       0       0       0
       0       0       0       0       0       0       0       0
       0       0       0       0       0       0       0       0
       0       0       0       0       0       0       0       0
       0       0       0       0       0       0       0       0
       0       0       0       0       0       0       0       0
       0       0       0       0       0       0       0       0
       0       0       0       0       0       0       0       0
       0       0       0       0       0       0       0       0
       0       0       0       0       0       0       0       0
       0       0       0       0       0       0       0       0
       0       0       0       0       0       0       0       0
       0       0       0       0       0       0       0       0
       0       0       0       0       0       0       0       0
       0       0       0       0       0       0       0       0
       0       0       0       0       0       0       0       0
       0       0       0       0       0       0       0       0
       0       0       0       0       0       0       0       0
       0       0       0       0       0       0       0       0
       0       0       0       0       0       0       0       0
       0       0       0       0       0       0       0       0
       0       0       0       0       0       0       0       0
       0       0       0       0       0       0       0       0
       0       0       0       0       0       0       0       0
       0       0       0       0       0       0       0       0
       0       0       0       0       0       0       0       0
       0       0       0       0       0       0       0       0
       0       0       0       0       0       0       0       0
       0       0       0       0       0       0       0       0
       0       0       0       0       0       0       0       0
       0       0       0       0       0       0       0       0
       0       0       0       0       0       0       0       0
       0       0       0       0       0       0       0       0
       0       0       0       0       0       0       0       0
       0       0       0       0       0       0       0       0
       0       0       0       0       0       0       0       0
       0       0       0       0       0       0       0       0
       0       0       0       0       0       0       0       0
       0       0       0       0       0       0       0       0
       0       0       0       0       0       0       0       0
       0       0       0       0       0       0       0       0
       0       0       0       0       0       0       0       0
       0       0       0       0       0       0       0       0
       0       0       0       0       0       0       0       0
       0       0       0       0       0       0       0       0
       0       0       0       0       0       0       0       0
       0       0       0       0       0       0       0       0
       0       0       0       0       0       0       0       0
       0       0       0       0       0       0       0       0
       0       0       0       0       0       0       0       0
       0       0       0       0       0       0       0       0
       0       0       0       0       0       0       0       0
       0       0       0       0       0       0       0       0
       0       0       0       0       0       0       0       0
       0       0       0       0       0       0       0       0
       0       0       0       0       0       0       0       0
       0       0       0       0       0       0       0       0
       0       0       0       0       0       0       0       0
       0       0       0       0       0       0       0       0
       0       0       0       0       0       0       0       0
       0       0       0       0       0       0       0       0
       0       0       0       0       0       0       0       0
       0       0       0       0       0       0       0       0
       0       0       0       0       0       0       0       0
       0       0       0       0       0       0       0       0
       0       0       0       0       0       0       0       0
       0       0       0       0       0       0       0       0
       0       0       0       0       0       0       0       0
       0       0       0       0       0       0       0       0
       0       0       0       0       0       0       0       0
       0       0       0       0       0       0       0       0
       0       0       0       0       0       0       0       0
       0       0       0       0       0       0       0       0
       0       0       0       0       0       0       0       0
       0       0       0       0       0       0       0       0
       0       0       0       0       0       0       0       0
       0       0       0       0       0       0       0       0
       0       0       0       0       0       0       0       0
       0       0       0       0       0       0       0       0
       0       0       0       0       0       0       0       0
       0       0       0       0       0       0       0       0
       0       0       0       0       0       0       0       0
       0       0       0       0       0       0       0       0
       0       0       0       0       0       0       0       0
       0       0       0       0       0       0       0       0
       0       0       0       0       0       0       0       0
       0       0       0       0       0       0       0       0
       0       0       0       0       0       0       0       0
       0       0       0       0       0       0       0       0
       0       0       0       0       0       0       0       0
       0       0       0       0       0       0       0       0
       0       0       0       0       0       0       0       0
       0       0       0       0       0       0       0       0
       0       0       0       0       0       0       0       0
       0       0       0       0       0       0       0       0
       0       0       0       0       0       0       0       0
       0       0       0       0       0       0       0       0
       0       0       0       0       0       0       0       0
       0       0       0       0       0       0       0       0
       0       0       0       0       0       0       0       0
       0       0       0       0       0       0       0       0
       0       0       0       0       0       0       0       0
       0       0       0       0       0       0       0       0
       0       0       0       0       0       0       0       0
       0       0       0       0       0       0       0       0
       0       0       0       0       0       0       0       0
       0       0       0       0       0       0       0       0
       0       0       0       0       0       0       0       0
       0       0       0       0       0       0       0       0
       0       0       0       0       0       0       0       0
       0       0       0       0       0       0       0       0
       0       0       0       0       0       0       0       0
       0       0       0       0       0       0       0       0
       0       0       0       0       0       0       0       0
       0       0       0       0       0       0       0       0
       0       0       0       0       0       0       0       0
       0       0       0       0       0       0       0       0
       0       0       0       0       0       0       0       0
       0       0       0       0       0       0       0       0
       0       0       0       0       0       0       0       0
       0       0       0       0       0       0       0       0
       0       0       0       0       0       0       0       0
       0       0       0       0       0       0       0       0
       0       0       0       0       0       0       0       0
       0       0       0       0       0       0       0       0
       0       0       0       0       0       0       0       0
       0       0       0       0       0       0       0       0
       0       0       0       0       0       0       0       0
       0       0       0       0       0       0       0       0
       0       0       0       0       0       0       0       0
       0       0       0       0       0       0       0       0
       0       0       0       0       0       0       0       0
       0       0       0       0       0       0       0       0
       0       0       0       0       0       0       0       0
       0       0       0       0       0       0       0       0
       0       0       0       0       0       0       0       0
       0       0       0       0       0       0       0       0
       0       0       0       0       0       0       0       0
       0       0       0       0       0       0       0       0
       0       0       0       0       0       0       0       0
       0       0       0       0       0       0       0       0
       0       0       0       0       0       0       0       0
       0       0       0       0       0       0       0       0
       0       0       0       0       0       0       0       0
       0       0       0       0       0       0       0       0
       0       0       0       0       0       0       0       0
       0       0       0       0       0       0       0       0
       0       0       0       0       0       0       0       0
       0       0       0       0       0       0       0       0
       0       0       0       0       0       0       0       0
       0       0       0       0       0       0       0       0
       0       0       0       0       0       0       0       0
       0       0       0       0       0       0       0       0
       0       0       0       0       0       0       0       0
       0       0       0       0       0       0       0       0
       0       0       0       0       0       0       0       0
       0       0       0       0       0       0       0       0
       0       0       0       0       0       0       0       0
       0       0       0       0       0       0       0       0
       0       0       0       0       0       0       0       0
       0       0       0       0       0       0       0       0
       0       0       0       0       0       0       0       0
       0       0       0       0       0       0       0       0
       0       0       0       0       0       0       0       0
       0       0       0       0       0       0       0       0
       0       0       0       0       0       0       0       0
       0       0       0       0       0       0       0       0
       0       0       0       0       0       0       0       0
       0       0       0       0       0       0       0       0
       0       0       0       0       0       0       0       0
       0       0       0       0       0       0       0       0
       0       0       0       0       0       0       0       0
       0       0       0       0       0       0       0       0
       0       0       0       0       0       0       0       0
       0       0       0       0       0       0       0       0
       0       0       0       0       0       0       0       0
       0       0       0       0       0       0       0       0
       0       0       0       0       0       0       0       0
       0       0       0       0       0       0       0       0
       0       0       0       0       0       0       0       0
       0       0       0       0       0       0       0       0
       0       0       0       0       0       0       0       0
       0       0       0       0       0       0       0       0
       0       0       0       0       0       0       0       0
       0       0       0       0       0       0       0       0
       0       0       0       0       0       0       0       0
       0       0       0       0       0       0       0       0
       0       0       0       0       0       0       0       0
       0       0       0       0       0       0       0       0
       0       0       0       0       0       0       0       0
       0       0       0       0       0       0       0       0
       0       0       0       0       0       0       0       0
       0       0       0       0       0       0       0       0
       0       0       0       0       0       0       0       0
       0       0       0       0       0       0       0       0
       0       0       0       0       0       0       0       0
       0       0       0       0       0       0       0       0
       0       0       0       0       0       0       0       0
       0       0       0       0       0       0       0       0
       0       0       0       0       0       0       0       0
       0       0       0       0       0       0       0       0
       0       0       0       0       0       0       0       0
       0       0       0       0       0       0       0       0
       0       0       0       0       0       0       0       0
       0       0       0       0       0       0       0       0
       0       0       0       0       0       0       0       0
       0       0       0       0       0       0       0       0
       0       0       0       0       0       0       0       0
       0       0       0       0       0       0       0       0
       0       0       0       0       0       0       0       0
       0       0       0       0       0       0       0       0
       0       0       0       0       0       0       0       0
       0       0       0       0       0       0       0       0
       0       0       0       0       0       0       0       0
       0       0       0       0       0       0       0       0
       0       0       0       0       0       0       0       0
       0       0       0       0       0       0       0       0
       0       0       0       0       0       0       0       0
       0       0       0       0       0       0       0       0
       0       0       0       0       0       0       0       0
       0       0       0       0       0       0       0       0
       0       0       0       0       0       0       0       0
       0       0       0       0       0       0       0       0
       0       0       0       0       0       0       0       0
       0       0       0       0       0       0       0       0
       0       0       0       0       0       0       0       0
       0       0       0       0       0       0       0       0
       0       0       0       0       0       0       0       0
       0       0       0       0       0       0       0       0
       0       0       0       0       0       0       0       0
       0       0       0       0       0       0       0       0
       0       0       0       0       0       0       0       0
       0       0       0       0       0       0       0       0
       0       0       0       0       0       0       0       0
       0       0       0       0       0       0       0       0
       0       0       0       0       0       0       0       0
       0       0       0       0       0       0       0       0
       0       0       0       0       0       0       0       0
       0       0       0       0       0       0       0       0
       0       0       0       0       0       0       0       0
       0       0       0       0       0       0       0       0
       0       0       0       0       0       0       0       0
       0       0       0       0       0       0       0       0
       0       0       0       0       0       0       0       0
       0       0       0       0       0       0       0       0
       0       0       0       0       0       0       0       0
       0       0       0       0       0       0       0       0
       0       0       0       0       0       0       0       0
       0       0       0       0       0       0       0       0
       0       0       0       0       0       0       0       0
       0       0       0       0       0       0       0       0
       0       0       0       0       0       0       0       0
       0       0       0       0       0       0       0       0
       0       0       0       0       0       0       0       0
       0       0       0       0       0       0       0       0
       0       0       0       0       0       0       0       0
       0       0       0       0       0       0       0       0
       0       0       0       0       0       0       0       0
       0       0       0       0       0       0       0       0
       0       0       0       0       0       0       0       0
       0       0       0       0       0       0       0       0
       0       0       0       0       0       0       0       0
       0       0       0       0       0       0       0       0
       0       0       0       0       0       0       0       0
       0       0       0       0       0       0       0       0
       0       0       0       0       0       0       0       0
       0       0       0       0       0       0       0       0
       0       0       0       0       0       0       0       0
       0       0       0       0       0       0       0       0
       0       0       0       0       0       0       0       0
       0       0       0       0       0       0       0       0
       0       0       0       0       0       0       0       0
       0       0       0       0       0       0       0       0
       0       0       0       0       0       0       0       0
       0       0       0       0       0       0       0       0
       0       0       0       0       0       0       0       0
       0       0       0       0       0       0       0       0
       0       0       0       0       0       0       0       0
       0       0       0       0       0       0       0       0
       0       0       0       0       0       0       0       0
       0       0       0       0       0       0       0       0
       0       0       0       0       0       0       0       0
       0       0       0       0       0       0       0       0
       0       0       0       0       0       0       0       0
       0       0       0       0       0       0       0       0
       0       0       0       0       0       0       0       0
       0       0       0       0       0       0       0       0
       0       0       0       0       0       0       0       0
       0       0       0       0       0       0       0       0
       0       0       0       0       0       0       0       0
       0       0       0       0       0       0       0       0
       0       0       0       0       0       0       0       0
       0       0       0       0       0       0       0       0
       0       0       0       0       0       0       0       0
       0       0       0       0       0       0       0       0
       0       0       0       0       0       0       0       0
       0       0       0       0       0       0       0       0
       0       0       0       0       0       0       0       0
       0       0       0       0       0       0       0       0
       0       0       0       0       0       0       0       0
       0       0       0       0       0       0       0       0
       0       0       0       0       0       0       0       0
       0       0       0       0       0       0       0       0
       0       0       0       0       0       0       0       0
       0       0       0       0       0       0       0       0
       0       0       0       0       0       0       0       0
       0       0       0       0       0       0       0       0
       0       0       0       0       0       0       0       0
       0       0       0       0       0       0       0       0
       0       0       0       0       0       0       0       0
       0       0       0       0       0       0       0       0
       0       0       0       0       0       0       0       0
       0       0       0       0       0       0       0       0
       0       0       0       0       0       0       0       0
       0       0       0       0       0       0       0       0
       0       0       0       0       0       0       0       0
       0       0       0       0       0       0       0       0
       0       0       0       0       0       0       0       0
       0       0       0       0       0       0       0       0
       0       0       0       0       0       0       0       0
       0       0       0       0       0       0       0       0
       0       0       0       0       0       0       0       0
       0       0       0       0       0       0       0       0
       0       0       0       0       0       0       0       0
       0       0       0       0       0       0       0       0
       0       0       0       0       0       0       0       0
       0       0       0       0       0       0       0       0
       0       0       0       0       0       0       0       0
       0       0       0       0       0       0       0       0
       0       0       0       0       0       0       0       0
       0       0       0       0       0       0       0       0
       0       0       0       0       0       0       0       0
       0       0       0       0       0       0       0       0
       0       0       0       0       0       0       0       0
       0       0       0       0       0       0       0       0
       0       0       0       0       0       0       0       0
       0       0       0       0       0       0       0       0
       0       0       0       0       0       0       0       0
       0       0       0       0       0       0       0       0
       0       0       0       0       0       0       0       0
       0       0       0       0       0       0       0       0
       0       0       0       0       0       0       0       0
       0       0       0       0       0       0       0       0
       0       0       0       0       0       0       0       0
       0       0       0       0       0       0       0       0
       0       0       0       0       0       0       0       0
       0       0       0       0       0       0       0       0
       0       0       0       0       0       0       0       0
       0       0       0       0       0       0       0       0
       0       0       0       0       0       0       0       0
       0       0       0       0       0       0       0       0
       0       0       0       0       0       0       0       0
       0       0       0       0       0       0       0       0
       0       0       0       0       0       0       0       0
       0       0       0       0       0       0       0       0
       0       0       0       0       0       0       0       0
       0       0       0       0       0       0       0       0
       0       0       0       0       0       0       0       0
       0       0       0       0       0       0       0       0
       0       0       0       0       0       0       0       0
       0       0       0       0       0       0       0       0
       0       0       0       0       0       0       0       0
       0       0       0       0       0       0       0       0
       0       0       0       0       0       0       0       0
       0       0       0       0       0       0       0       0
       0       0       0       0       0       0       0       0
       0       0       0       0       0       0       0       0
       0       0       0       0       0       0       0       0
       0       0       0       0       0       0       0       0
       0       0       0       0       0       0       0       0
       0       0       0       0       0       0       0       0
       0       0       0       0       0       0       0       0
       0       0       0       0       0       0       0       0
       0       0       0       0       0       0       0       0
       0       0       0       0       0       0       0       0
       0       0       0       0       0       0       0       0
       0       0       0       0       0       0       0       0
       0       0       0       0       0       0       0       0
       0       0       0       0       0       0       0       0
       0       0       0       0       0       0       0       0
       0       0       0       0       0       0       0       0
       0       0       0       0       0       0       0       0
       0       0       0       0       0       0       0       0
       0       0       0       0       0       0       0       0
       0       0       0       0       0       0       0       0
       0       0       0       0       0       0       0       0
       0       0       0       0       0       0       0       0
       0       0       0       0       0       0       0       0
       0       0       0       0       0       0       0       0
       0       0       0       0       0       0       0       0
       0       0       0       0       0       0       0       0
       0       0       0       0       0       0       0       0
       0       0       0       0       0       0       0       0
       0       0       0       0       0       0       0       0
       0       0       0       0       0       0       0       0
       0       0       0       0       0       0       0       0
       0       0       0       0       0       0       0       0
       0       0       0       0       0       0       0       0
       0       0       0       0       0       0       0       0
       0       0       0       0       0       0       0       0
       0       0       0       0       0       0       0       0
       0       0       0       0       0       0       0       0
       0       0       0       0       0       0       0       0
       0       0       0       0       0       0       0       0
       0       0       0       0       0       0       0       0
       0       0       0       0       0       0       0       0
       0       0       0       0       0       0       0       0
       0       0       0       0       0       0       0       0
       0       0       0       0       0       0       0       0
       0       0       0       0       0       0       0       0
       0       0       0       0       0       0       0       0
       0       0       0       0       0       0       0       0
       0       0       0       0       0       0       0       0
       0       0       0       0       0       0       0       0
       0       0       0       0       0       0       0       0
       0       0       0       0       0       0       0       0
       0       0       0       0       0       0       0       0
       0       0       0       0       0       0       0       0
       0       0       0       0       0       0       0       0
       0       0       0       0       0       0       0       0
       0       0       0       0       0       0       0       0
       0       0       0       0       0       0       0       0
       0       0       0       0       0       0       0       0
       0       0       0       0       0       0       0       0
       0       0       0       0       0       0       0       0
       0       0       0       0       0       0       0       0
       0       0       0       0       0       0       0       0
       0       0       0       0       0       0       0       0
       0       0       0       0       0       0       0       0
       0       0       0       0       0       0       0       0
       0       0       0       0       0       0       0       0
       0       0       0       0       0       0       0       0
       0       0       0       0       0       0       0       0
       0       0       0       0       0       0       0       0
       0       0       0       0       0       0       0       0
       0       0       0       0       0       0       0       0
       0       0       0       0       0       0       0       0
       0       0       0       0       0       0       0       0
       0       0       0       0       0       0       0       0
       0       0       0       0       0       0       0       0
       0       0       0       0       0       0       0       0
       0       0       0       0       0       0       0       0
       0       0       0       0       0       0       0       0
       0       0       0       0       0       0       0       0
       0       0       0       0       0       0       0       0
       0       0       0       0       0       0       0       0
       0       0       0       0       0       0       0       0
       0       0       0       0       0       0       0       0
       0       0       0       0       0       0       0       0
       0       0       0       0       0       0       0       0
       0       0       0       0       0       0       0       0
       0       0       0       0       0       0       0       0
       0       0       0       0       0       0       0       0
       0       0       0       0       0       0       0       0
       0       0       0       0       0       0       0       0
       0       0       0       0       0       0       0       0
       0       0       0       0       0       0       0       0
       0       0       0       0       0       0       0       0
       0       0       0       0       0       0       0       0
       0       0       0       0       0       0       0       0
       0       0       0       0       0       0       0       0
       0       0       0       0       0       0       0       0
       0       0       0       0       0       0       0       0
       0       0       0       0       0       0       0       0
       0       0       0       0       0       0       0       0
       0       0       0       0       0       0       0       0
       0       0       0       0       0       0       0       0
       0       0       0       0       0       0       0       0
       0       0       0       0       0       0       0       0
       0       0       0       0       0       0       0       0
       0       0       0       0       0       0       0       0
       0       0       0       0       0       0       0       0
       0       0       0       0       0       0       0       0
       0       0       0       0       0       0       0       0
       0       0       0       0       0       0       0       0
       0       0       0       0       0       0       0       0
       0       0       0       0       0       0       0       0
       0       0       0       0       0       0       0       0
       0       0       0       0       0       0       0       0
       0       0       0       0       0       0       0       0
       0       0       0       0       0       0       0       0
       0       0       0       0       0       0       0       0
       0       0       0       0       0       0       0       0
       0       0       0       0       0       0       0       0
       0       0       0       0       0       0       0       0
       0       0       0       0       0       0       0       0
       0       0       0       0       0       0       0       0
       0       0       0       0       0       0       0       0
       0       0       0       0       0       0       0       0
       0       0       0       0       0       0       0       0
       0       0       0       0       0       0       0       0
       0       0       0       0       0       0       0       0
       0       0       0       0       0       0       0       0
       0       0       0       0       0       0       0       0
       0       0       0       0       0       0       0       0
       0       0       0       0       0       0       0       0
       0       0       0       0       0       0       0       0
       0       0       0       0       0       0       0       0
       0       0       0       0       0       0       0       0
       0       0       0       0       0       0       0       0
       0       0       0       0       0       0       0       0
       0       0       0       0       0       0       0       0
       0       0       0       0       0       0       0       0
       0       0       0       0       0       0       0       0
       0       0       0       0       0       0       0       0
       0       0       0       0       0       0       0       0
       0       0       0       0       0       0       0       0
       0       0       0       0       0       0       0       0
       0       0       0       0       0       0       0       0
       0       0       0       0       0       0       0       0
       0       0       0       0       0       0       0       0
       0       0       0       0       0       0       0       0
       0       0       0       0       0       0       0       0
       0       0       0       0       0       0       0       0
       0       0       0       0       0       0       0       0
       0       0       0       0       0       0       0       0
       0       0       0       0       0       0       0       0
       0       0       0       0       0       0       0       0
       0       0       0       0       0       0       0       0
       0       0       0       0       0       0       0       0
       0       0       0       0       0       0       0       0
       0       0       0       0       0       0       0       0
       0       0       0       0       0       0       0       0
       0       0       0       0       0       0       0       0
       0       0       0       0       0       0       0       0
       0       0       0       0       0       0       0       0
       0       0       0       0       0       0       0       0
       0       0       0       0       0       0       0       0
       0       0       0       0       0       0       0       0
       0       0       0       0       0       0       0       0
       0       0       0       0       0       0       0       0
       0       0       0       0       0       0       0       0
       0       0       0       0       0       0       0       0
       0       0       0       0       0       0       0       0
       0       0       0       0       0       0       0       0
       0       0       0       0       0       0       0       0
       0       0       0       0       0       0       0       0
       0       0       0       0       0       0       0       0
       0       0       0       0       0       0       0       0
       0       0       0       0       0       0       0       0
       0       0       0       0       0       0       0       0
       0       0       0       0       0       0       0       0
       0       0       0       0       0       0       0       0
       0       0       0       0       0       0       0       0
       0       0       0       0       0       0       0       0
       0       0       0       0       0       0       0       0
       0       0       0       0       0       0       0       0
       0       0       0       0       0       0       0       0
       0       0       0       0       0       0       0       0
       0       0       0       0       0       0       0       0
       0       0       0       0       0       0       0       0
       0       0       0       0       0       0       0       0
       0       0       0       0       0       0       0       0
       0       0       0       0       0       0       0       0
       0       0       0       0       0       0       0       0
       0       0       0       0       0       0       0       0
       0       0       0       0       0       0       0       0
       0       0       0       0       0       0       0       0
       0       0       0       0       0       0       0       0
       0       0       0       0       0       0       0       0
       0       0       0       0       0       0       0       0
       0       0       0       0       0       0       0       0
       0       0       0       0       0       0       0       0
       0       0       0       0       0       0       0       0
       0       0       0       0       0       0       0       0
       0       0       0       0       0       0       0       0
       0       0       0       0       0       0       0       0
       0       0       0       0       0       0       0       0
       0       0       0       0       0       0       0       0
       0       0       0       0       0       0       0       0
       0       0       0       0       0       0       0       0
       0       0       0       0       0       0       0       0
       0       0       0       0       0       0       0       0
       0       0       0       0       0       0       0       0
       0       0       0       0       0       0       0       0
       0       0       0       0       0       0       0       0
       0       0       0       0       0       0       0       0
       0       0       0       0       0       0       0       0
       0       0       0       0       0       0       0       0
       0       0       0       0       0       0       0       0
       0       0       0       0       0       0       0       0
       0       0       0       0       0       0       0       0
       0       0       0       0       0       0       0       0
       0       0       0       0       0       0       0       0
       0       0       0       0       0       0       0       0
       0       0       0       0       0       0       0       0
       0       0       0       0       0       0       0       0
       0       0       0       0       0       0       0       0
       0       0       0       0       0       0       0       0
       0       0       0       0       0       0       0       0
       0       0       0       0       0       0       0       0
       0       0       0       0       0       0       0       0
       0       0       0       0       0       0       0       0
       0       0       0       0       0       0       0       0
       0       0       0       0       0       0       0       0
       0       0       0       0       0       0       0       0
       0       0       0       0       0       0       0       0
       0       0       0       0       0       0       0       0
       0       0       0       0       0       0       0       0
       0       0       0       0       0       0       0       0
       0       0       0       0       0       0       0       0
       0       0       0       0       0       0       0       0
       0       0       0       0       0       0       0       0
       0       0       0       0       0       0       0       0
       0       0       0       0       0       0       0       0
       0       0       0       0       0       0       0       0
       0       0       0       0       0       0       0       0
       0       0       0       0       0       0       0       0
       0       0       0       0       0       0       0       0
       0       0       0       0       0       0       0       0
       0       0       0       0       0       0       0       0
       0       0       0       0       0       0       0       0
       0       0       0       0       0       0       0       0
       0       0       0       0       0       0       0       0
       0       0       0       0       0       0       0       0
       0       0       0       0       0       0       0       0
       0       0       0       0       0       0       0       0
       0       0       0       0       0       0       0       0
       0       0       0       0       0       0       0       0
       0       0       0       0       0       0       0       0
       0       0       0       0       0       0       0       0
       0       0       0       0       0       0       0       0
       0       0       0       0       0       0       0       0
       0       0       0       0       0       0       0       0
       0       0       0       0       0       0       0       0
       0       0       0       0       0       0       0       0
       0       0       0       0       0       0       0       0
       0       0       0       0       0       0       0       0
       0       0       0       0       0       0       0       0
       0       0       0       0       0       0       0       0
       0       0       0       0       0       0       0       0
       0       0       0       0       0       0       0       0
       0       0       0       0       0       0       0       0
       0       0       0       0       0       0       0       0
       0       0       0       0       0       0       0       0
       0       0       0       0       0       0       0       0
       0       0       0       0       0       0       0       0
       0       0       0       0       0       0       0       0
       0       0       0       0       0       0       0       0
       0       0       0       0       0       0       0       0
       0       0       0       0       0       0       0       0
       0       0       0       0       0       0       0       0
       0       0       0       0       0       0       0       0
       0       0       0       0       0       0       0       0
       0       0       0       0       0       0       0       0
       0       0       0       0       0       0       0       0
       0       0       0       0       0       0       0       0
       0       0       0       0       0       0       0       0
       0       0       0       0       0       0       0       0
       0       0       0       0       0       0       0       0
       0       0       0       0       0       0       0       0
       0       0       0       0       0       0       0       0
       0       0       0       0       0       0       0       0
       0       0       0       0       0       0       0       0
       0       0       0       0       0       0       0       0
       0       0       0       0       0       0       0       0
       0       0       0       0       0       0       0       0
       0       0       0       0       0       0       0       0
       0       0       0       0       0       0       0       0
       0       0       0       0       0       0       0       0
       0       0       0       0       0       0       0       0
       0       0       0       0       0       0       0       0
       0       0       0       0       0       0       0       0
       0       0       0       0       0       0       0       0
       0       0       0       0       0       0       0       0
       0       0       0       0       0       0       0       0
       0       0       0       0       0       0       0       0
       0       0       0       0       0       0       0       0
       0       0       0       0       0       0       0       0
       0       0       0       0       0       0       0       0
       0       0       0       0       0       0       0       0
       0       0       0       0       0       0       0       0
       0       0       0       0       0       0       0       0
       0       0       0       0       0       0       0       0
       0       0       0       0       0       0       0       0
       0       0       0       0       0       0       0       0
       0       0       0       0       0       0       0       0
       0       0       0       0       0       0       0       0
       0       0       0       0       0       0       0       0
       0       0       0       0       0       0       0       0
       0       0       0       0       0       0       0       0
       0       0       0       0       0       0       0       0
       0       0       0       0       0       0       0       0
       0       0       0       0       0       0       0       0
       0       0       0       0       0       0       0       0
       0       0       0       0       0       0       0       0
       0       0       0       0       0       0       0       0
       0       0       0       0       0       0       0       0
       0       0       0       0       0       0       0       0
       0       0       0       0       0       0       0       0
       0       0       0       0       0       0       0       0
       0       0       0       0       0       0       0       0
       0       0       0       0       0       0       0       0
       0       0       0       0       0       0       0       0
       0       0       0       0       0       0       0       0
       0       0       0       0       0       0       0       0
       0       0       0       0       0       0       0       0
       0       0       0       0       0       0       0       0
       0       0       0       0       0       0       0       0
       0       0       0       0       0       0       0       0
       0       0       0       0       0       0       0       0
       0       0       0       0       0       0       0       0
       0       0       0       0       0       0       0       0
       0       0       0       0       0       0       0       0
       0       0       0       0       0       0       0       0
       0       0       0       0       0       0       0       0
       0       0       0       0       0       0       0       0
       0       0       0       0       0       0       0       0
       0       0       0       0       0       0       0       0
       0       0       0       0       0       0       0       0
       0       0       0       0       0       0       0       0
       0       0       0       0       0       0       0       0
       0       0       0       0       0       0       0       0
       0       0       0       0       0       0       0       0
       0       0       0       0       0       0       0       0
       0       0       0       0       0       0       0       0
       0       0       0       0       0       0       0       0
       0       0       0       0       0       0       0       0
       0       0       0       0       0       0       0       0
       0       0       0       0       0       0       0       0
       0       0       0       0       0       0       0       0
       0       0       0       0       0       0       0       0
       0       0       0       0       0       0       0       0
       0       0       0       0       0       0       0       0
       0       0       0       0       0       0       0       0
       0       0       0       0       0       0       0       0
       0       0       0       0       0       0       0       0
       0       0       0       0       0       0       0       0
       0       0       0       0       0       0       0       0
       0       0       0       0       0       0       0       0
       0       0       0       0       0       0       0       0
       0       0       0       0       0       0       0       0
       0       0       0       0       0       0       0       0
       0       0       0       0       0       0       0       0
       0       0       0       0       0       0       0       0
       0       0       0       0       0       0       0       0
       0       0       0       0       0       0       0       0
       0       0       0       0       0       0       0       0
       0       0       0       0       0       0       0       0
       0       0       0       0       0       0       0       0
       0       0       0       0       0       0       0       0
       0       0       0       0       0       0       0       0
       0       0       0       0       0       0       0       0
       0       0       0       0       0       0       0       0
       0       0       0       0       0       0       0       0
       0       0       0       0       0       0       0       0
       0       0       0       0       0       0       0       0
       0       0       0       0       0       0       0       0
       0       0       0       0       0       0       0       0
       0       0       0       0       0       0       0       0
       0       0       0       0       0       0       0       0
       0       0       0       0       0       0       0       0
       0       0       0       0       0       0       0       0
       0       0       0       0       0       0       0       0
       0       0       0       0       0       0       0       0
       0       0       0       0       0       0       0       0
       0       0       0       0       0       0       0       0
       0       0       0       0       0       0       0       0
       0       0       0       0       0       0       0       0
       0       0       0       0       0       0       0       0
       0       0       0       0       0       0       0       0
       0       0       0       0       0       0       0       0
       0       0       0       0       0       0       0       0
       0       0       0       0       0       0       0       0
       0       0       0       0       0       0       0       0
       0       0       0       0       0       0       0       0
       0       0       0       0       0       0       0       0
       0       0       0       0       0       0       0       0
       0       0       0       0       0       0       0       0
       0       0       0       0       0       0       0       0
       0       0       0       0       0       0       0       0
       0       0       0       0       0       0       0       0
       0       0       0       0       0       0       0       0
       0       0       0       0       0       0       0       0
       0       0       0       0       0       0       0       0
       0       0       0       0       0       0       0       0
       0       0       0       0       0       0       0       0
       0       0       0       0       0       0       0       0
       0       0       0       0       0       0       0       0
       0       0       0       0       0       0       0       0
       0       0       0       0       0       0       0       0
       0       0       0       0       0       0       0       0
       0       0       0       0       0       0       0       0
       0       0       0       0       0       0       0       0
       0       0       0       0       0       0       0       0
       0       0       0       0       0       0       0       0
       0       0       0       0       0       0       0       0
       0       0       0       0       0       0       0       0
       0       0       0       0       0       0       0       0
       0       0       0       0       0       0       0       0
       0       0       0       0       0       0       0       0
       0       0       0       0       0       0       0       0
       0       0       0       0       0       0       0       0
       0       0       0       0       0       0       0       0
       0       0       0       0       0       0       0       0
       0       0       0       0       0       0       0       0
       0       0       0       0       0       0       0       0
       0       0       0       0       0       0       0       0
       0       0       0       0       0       0       0       0
       0       0       0       0       0       0       0       0
       0       0       0       0       0       0       0       0
       0       0       0       0       0       0       0       0
       0       0       0       0       0       0       0       0
       0       0       0       0       0       0       0       0
       0       0       0       0       0       0       0       0
       0       0       0       0       0       0       0       0
       0       0       0       0       0       0       0       0
       0       0       0       0       0       0       0       0
       0       0       0       0       0       0       0       0
       0       0       0       0       0       0       0       0
       0       0       0       0       0       0       0       0
       0       0       0       0       0       0       0       0
       0       0       0       0       0       0       0       0
       0       0       0       0       0       0       0       0
       0       0       0       0       0       0       0       0
       0       0       0       0       0       0       0       0
       0       0       0       0       0       0       0       0
       0       0       0       0       0       0       0       0
       0       0       0       0       0       0       0       0
       0       0       0       0       0       0       0       0
       0       0       0       0       0       0       0       0
       0       0       0       0       0       0       0       0
       0       0       0       0       0       0       0       0
       0       0       0       0       0       0       0       0
       0       0       0       0       0       0       0       0
       0       0       0       0       0       0       0       0
       0       0       0       0       0       0       0       0
       0       0       0       0       0       0       0       0
       0       0       0       0       0       0       0       0
       0       0       0       0       0       0       0       0
       0       0       0       0       0       0       0       0
       0       0       0       0       0       0       0       0
       0       0       0       0       0       0       0       0
       0       0       0       0       0       0       0       0
       0       0       0       0       0       0       0       0
       0       0       0       0       0       0       0       0
       0       0       0       0       0       0       0       0
       0       0       0       0       0       0       0       0
       0       0       0       0       0       0       0       0
       0       0       0       0       0       0       0       0
       0       0       0       0       0       0       0       0
       0       0       0       0       0       0       0       0
       0       0       0       0       0       0       0       0
       0       0       0       0       0       0       0       0
       0       0       0       0       0       0       0       0
       0       0       0       0       0       0       0       0
       0       0       0       0       0       0       0       0
       0       0       0       0       0       0       0       0
       0       0       0       0       0       0       0       0
       0       0       0       0       0       0       0       0
       0       0       0       0       0       0       0       0
       0       0       0       0       0       0       0       0
       0       0       0       0       0       0       0       0
       0       0       0       0       0       0       0       0
       0       0       0       0       0       0       0       0
       0       0       0       0       0       0       0       0
       0       0       0       0       0       0       0       0
       0       0       0       0       0       0       0       0
       0       0       0       0       0       0       0       0
       0       0       0       0       0       0       0       0
       0       0       0       0       0       0       0       0
       0       0       0       0       0       0       0       0
       0       0       0       0       0       0       0       0
       0       0       0       0       0       0       0       0
       0       0       0       0       0       0       0       0
       0       0       0       0       0       0       0       0
       0       0       0       0       0       0       0       0
       0       0       0       0       0       0       0       0
       0       0       0       0       0       0       0       0
       0       0       0       0       0       0       0       0
       0       0       0       0       0       0       0       0
       0       0       0       0       0       0       0       0
       0       0       0       0       0       0       0       0
       0       0       0       0       0       0       0       0
       0       0       0       0       0       0       0       0
       0       0       0       0       0       0       0       0
       0       0       0       0       0       0       0       0
       0       0       0       0       0       0       0       0
       0       0       0       0       0       0       0       0
       0       0       0       0       0       0       0       0
       0       0       0       0       0       0       0       0
       0       0       0       0       0       0       0       0
       0       0       0       0       0       0       0       0
       0       0       0       0       0       0       0       0
       0       0       0       0       0       0       0       0
       0       0       0       0       0       0       0       0
       0       0       0       0       0       0       0       0
       0       0       0       0       0       0       0       0
       0       0       0       0       0       0       0       0
       0       0       0       0       0       0       0       0
       0       0       0       0       0       0       0       0
       0       0       0       0       0       0       0       0
       0       0       0       0       0       0       0       0
       0       0       0       0       0       0       0       0
       0       0       0       0       0       0       0       0
       0       0       0       0       0       0       0       0
       0       0       0       0       0       0       0       0
       0       0       0       0       0       0       0       0
       0       0       0       0       0       0       0       0
       0       0       0       0       0       0       0       0
       0       0       0       0       0       0       0       0
       0       0       0       0       0       0       0       0
       0       0       0       0       0       0       0       0
       0       0       0       0       0       0       0       0
       0       0       0       0       0       0       0       0
       0       0       0       0       0       0       0       0
       0       0       0       0       0       0       0       0
       0       0       0       0       0       0       0       0
       0       0       0       0       0       0       0       0
       0       0       0       0       0       0       0       0
       0       0       0       0       0       0       0       0
       0       0       0       0       0       0       0       0
       0       0       0       0       0       0       0       0
       0       0       0       0       0       0       0       0
       0       0       0       0       0       0       0       0
       0       0       0       0       0       0       0       0
       0       0       0       0       0       0       0       0
       0       0       0       0       0       0       0       0
       0       0       0       0       0       0       0       0
       0       0       0       0       0       0       0       0
       0       0       0       0       0       0       0       0
       0       0       0       0       0       0       0       0
       0       0       0       0       0       0       0       0
       0       0       0       0       0       0       0       0
       0       0       0       0       0       0       0       0
       0       0       0       0       0       0       0       0
       0       0       0       0       0       0       0       0
       0       0       0       0       0       0       0       0
       0       0       0       0       0       0       0       0
       0       0       0       0       0       0       0       0
       0       0       0       0       0       0       0       0
       0       0       0       0       0       0       0       0
       0       0       0       0       0       0       0       0
       0       0       0       0       0       0       0       0
       0       0       0

       1       0 !NGRP
       0       0       0

